/*--------------------------------*- C++ -*----------------------------------*\
  =========                 |
  \\      /  F ield         | OpenFOAM: The Open Source CFD Toolbox
   \\    /   O peration     | Website:  https://openfoam.org
    \\  /    A nd           | Version:  8
     \\/     M anipulation  |
\*---------------------------------------------------------------------------*/
FoamFile
{
    version     2.0;
    format      ascii;
    class       volScalarField;
    location    "980/fluid";
    object      CH4;
}
// * * * * * * * * * * * * * * * * * * * * * * * * * * * * * * * * * * * * * //

dimensions      [0 0 0 0 0 0 0];

internalField   nonuniform List<scalar> 
4000
(
0.999997
0.999986
0.999968
0.999938
0.999888
0.999805
0.999667
0.999443
0.999079
0.998498
0.997582
0.99616
0.993999
0.990786
0.986133
0.979593
0.9707
0.959024
0.944237
0.926163
0.904796
0.880291
0.852927
0.823071
0.791137
0.757557
0.722761
0.68716
0.651136
0.615038
0.579176
0.54382
0.509199
0.475501
0.442878
0.411448
0.381303
0.352505
0.32509
0.299075
0.274459
0.251225
0.229345
0.208782
0.189492
0.171425
0.154528
0.138746
0.124024
0.110305
0.097534
0.0856589
0.0746288
0.0643962
0.0549172
0.0461522
0.0380665
0.0307326
0.0240974
0.0178871
0.0122896
0.00731675
0.00328126
0.00230099
0.00159306
0.00108693
0.000729411
0.000480425
0.000309877
0.000195325
0.000120198
7.24278e-05
4.3409e-05
2.73096e-05
1.98745e-05
1.52536e-05
1.13159e-05
7.95792e-06
5.25062e-06
3.22612e-06
1.84247e-06
9.82835e-07
4.94244e-07
2.3807e-07
1.11297e-07
5.08044e-08
2.2743e-08
1.00173e-08
4.35228e-09
1.86916e-09
7.94846e-10
3.35155e-10
1.40284e-10
5.83204e-11
2.40696e-11
9.8326e-12
3.93914e-12
1.50668e-12
5.03839e-13
8.83874e-14
0.999997
0.999986
0.999968
0.999938
0.999888
0.999804
0.999666
0.99944
0.999076
0.998494
0.997578
0.996162
0.994015
0.990835
0.986243
0.979806
0.971067
0.959602
0.945077
0.927303
0.906254
0.88206
0.854979
0.825361
0.79361
0.760153
0.725419
0.689823
0.653755
0.617571
0.581589
0.546087
0.5113
0.477425
0.444617
0.413001
0.382672
0.353695
0.326109
0.299933
0.275167
0.251794
0.229788
0.20911
0.189717
0.171559
0.15458
0.138726
0.123941
0.110167
0.0973501
0.0854356
0.0743724
0.0641124
0.0546109
0.0458278
0.0377281
0.0303875
0.0237485
0.0175331
0.0119333
0.0069678
0.00322786
0.00226172
0.00156367
0.0010648
0.000712809
0.000468118
0.000300924
0.000188983
0.00011587
6.96456e-05
4.18205e-05
2.66803e-05
1.9693e-05
1.50246e-05
1.10284e-05
7.66703e-06
5.00153e-06
3.04411e-06
1.72905e-06
9.22256e-07
4.66228e-07
2.26245e-07
1.067e-07
4.91473e-08
2.21883e-08
9.84522e-09
4.30317e-09
1.85641e-09
7.9186e-10
3.34495e-10
1.40106e-10
5.82357e-11
2.4015e-11
9.79847e-12
3.92015e-12
1.4975e-12
5.00251e-13
8.77433e-14
0.999997
0.999986
0.999968
0.999938
0.999887
0.999803
0.999665
0.999439
0.999073
0.998491
0.997576
0.996164
0.994029
0.990874
0.986329
0.979969
0.971347
0.960045
0.945734
0.928218
0.90746
0.883574
0.8568
0.827469
0.795969
0.762716
0.728132
0.69263
0.6566
0.6204
0.584354
0.548746
0.51382
0.479779
0.446785
0.41497
0.384433
0.355246
0.327452
0.301074
0.276112
0.252555
0.230376
0.209538
0.189998
0.171706
0.154606
0.138646
0.123767
0.109911
0.0970221
0.0850462
0.0739308
0.0636272
0.0540901
0.0452788
0.0371577
0.0298103
0.0231678
0.0169543
0.0113723
0.00641627
0.00318637
0.00222085
0.00152754
0.00103488
0.000689167
0.00045016
0.000287782
0.000179736
0.000109666
6.57623e-05
3.97037e-05
2.59389e-05
1.94173e-05
1.47045e-05
1.06795e-05
7.34583e-06
4.74617e-06
2.86759e-06
1.62215e-06
8.64655e-07
4.38088e-07
2.13322e-07
1.01049e-07
4.6774e-08
2.12243e-08
9.46422e-09
4.15567e-09
1.80008e-09
7.70463e-10
3.26344e-10
1.36966e-10
5.70063e-11
2.3525e-11
9.60071e-12
3.8405e-12
1.46656e-12
4.89686e-13
8.58761e-14
0.999997
0.999986
0.999968
0.999938
0.999887
0.999804
0.999666
0.999441
0.999077
0.998499
0.997592
0.996195
0.994084
0.990968
0.986482
0.980209
0.971708
0.960562
0.946443
0.929148
0.908631
0.884996
0.858469
0.829371
0.798079
0.765001
0.730554
0.695146
0.659164
0.622968
0.586885
0.551201
0.516166
0.481986
0.448832
0.416839
0.386113
0.356729
0.328736
0.302159
0.277005
0.253262
0.230906
0.209903
0.190207
0.171771
0.154545
0.138469
0.123487
0.109541
0.0965735
0.0845301
0.0733579
0.0630072
0.0534322
0.0445915
0.0364492
0.0291052
0.0224739
0.0162687
0.0106843
0.0057457
0.00314735
0.00217987
0.00148964
0.00100254
0.000663204
0.000430322
0.000273293
0.000169623
0.000102967
6.16431e-05
3.75241e-05
2.52239e-05
1.9048e-05
1.42966e-05
1.02681e-05
6.98264e-06
4.46292e-06
2.67204e-06
1.50201e-06
7.9812e-07
4.04293e-07
1.97224e-07
9.37017e-08
4.35292e-08
1.98293e-08
8.87761e-09
3.91352e-09
1.70158e-09
7.30839e-10
3.10524e-10
1.30678e-10
5.45127e-11
2.25373e-11
9.21082e-12
3.68839e-12
1.40943e-12
4.70746e-13
8.25781e-14
0.999997
0.999986
0.999968
0.999938
0.999888
0.999805
0.999667
0.999444
0.999083
0.998509
0.99761
0.996226
0.994138
0.991055
0.986622
0.980424
0.972025
0.961012
0.947055
0.929947
0.909634
0.88621
0.859892
0.83099
0.799874
0.766945
0.732614
0.697285
0.661347
0.625158
0.589045
0.553299
0.518172
0.483876
0.450584
0.418436
0.387543
0.357984
0.329812
0.303056
0.277725
0.25381
0.231289
0.210129
0.190288
0.171723
0.154375
0.13819
0.12311
0.109079
0.0960376
0.0839316
0.0727074
0.0623145
0.0527064
0.0438408
0.0356913
0.0283739
0.0217416
0.0155268
0.00995687
0.00507648
0.00310704
0.00213335
0.00144569
0.000965247
0.000633721
0.000408252
0.000257531
0.000158869
9.59977e-05
5.74424e-05
3.53709e-05
2.45801e-05
1.85919e-05
1.38213e-05
9.82558e-06
6.61603e-06
4.19133e-06
2.49211e-06
1.39481e-06
7.39931e-07
3.75026e-07
1.83306e-07
8.73194e-08
4.06828e-08
1.85871e-08
8.34481e-09
3.68817e-09
1.60733e-09
6.91777e-10
2.94449e-10
1.24099e-10
5.18324e-11
2.14505e-11
8.77338e-12
3.5151e-12
1.34363e-12
4.48788e-13
7.87385e-14
0.999997
0.999986
0.999968
0.999939
0.999889
0.999806
0.99967
0.999448
0.999091
0.998523
0.997633
0.996264
0.994198
0.99115
0.986768
0.98064
0.972333
0.961437
0.947617
0.930665
0.910519
0.887265
0.861113
0.832366
0.801388
0.768574
0.734331
0.699063
0.663154
0.626964
0.590822
0.555019
0.519811
0.485412
0.452
0.419717
0.388678
0.358967
0.330639
0.303727
0.278241
0.254176
0.231508
0.21021
0.190245
0.17156
0.154105
0.137823
0.122659
0.108553
0.0954493
0.0832915
0.0720261
0.0616022
0.0519725
0.0431002
0.0349413
0.0276313
0.0209864
0.0147806
0.00922906
0.00440945
0.00301356
0.00204511
0.00137377
0.00091084
0.000594496
0.000381005
0.000239228
0.000146989
8.85912e-05
5.30763e-05
3.3071e-05
2.35455e-05
1.78823e-05
1.32363e-05
9.35417e-06
6.25717e-06
3.93825e-06
2.3287e-06
1.29829e-06
6.87297e-07
3.48172e-07
1.70334e-07
8.12638e-08
3.79328e-08
1.73665e-08
7.81351e-09
3.46065e-09
1.51124e-09
6.51655e-10
2.7785e-10
1.17283e-10
4.90499e-11
2.03213e-11
8.31885e-12
3.33509e-12
1.2753e-12
4.25992e-13
7.47532e-14
0.999997
0.999986
0.999969
0.999939
0.99989
0.999808
0.999673
0.999453
0.999099
0.998536
0.997655
0.9963
0.994255
0.991239
0.986901
0.980835
0.972609
0.961812
0.94811
0.931289
0.911281
0.888167
0.862149
0.833526
0.802655
0.769928
0.735751
0.700523
0.66463
0.628431
0.592256
0.556398
0.521114
0.486623
0.453104
0.420703
0.389537
0.359693
0.33123
0.30418
0.278559
0.254362
0.231574
0.210163
0.190087
0.171302
0.153756
0.137394
0.122159
0.107993
0.0948386
0.0826411
0.0713469
0.0609058
0.051272
0.0423985
0.034245
0.027015
0.020222
0.0140737
0.00857049
0.00380613
0.00265894
0.00183058
0.00124124
0.000827939
0.000542415
0.000348409
0.000219071
0.000134792
8.14764e-05
4.91928e-05
3.12869e-05
2.27765e-05
1.73115e-05
1.27547e-05
8.9668e-06
5.96496e-06
3.73413e-06
2.19785e-06
1.22128e-06
6.45283e-07
3.2664e-07
1.59854e-07
7.63208e-08
3.566e-08
1.63436e-08
7.36157e-09
3.26418e-09
1.42702e-09
6.15989e-10
2.62903e-10
1.11074e-10
4.64906e-11
1.92742e-11
7.89449e-12
3.16612e-12
1.2109e-12
4.04441e-13
7.09916e-14
0.999997
0.999986
0.999969
0.99994
0.999891
0.999809
0.999675
0.999458
0.999107
0.998549
0.997677
0.996334
0.994309
0.991321
0.987024
0.981012
0.972856
0.962145
0.948541
0.931829
0.911935
0.888933
0.863022
0.834495
0.803706
0.771044
0.736912
0.70171
0.665821
0.629606
0.593395
0.557483
0.52213
0.487555
0.453941
0.421436
0.39016
0.360202
0.331624
0.304459
0.278723
0.254416
0.231523
0.210012
0.189846
0.170978
0.153357
0.136928
0.121636
0.107421
0.0942272
0.0819982
0.0706802
0.0602222
0.0505766
0.0417001
0.0335909
0.0263899
0.0196252
0.0135353
0.00812457
0.00350391
0.00244452
0.00168366
0.00114284
0.000763168
0.000500427
0.000321606
0.000202259
0.000124481
7.53627e-05
4.58102e-05
2.96932e-05
2.20907e-05
1.68583e-05
1.24036e-05
8.6899e-06
5.75405e-06
3.58381e-06
2.09934e-06
1.16205e-06
6.12289e-07
3.09382e-07
1.51307e-07
7.22241e-08
3.37487e-08
1.54723e-08
6.9723e-09
3.09331e-09
1.35317e-09
5.84502e-10
2.49632e-10
1.05535e-10
4.4199e-11
1.83337e-11
7.51247e-12
3.01372e-12
1.15271e-12
3.84923e-13
6.76163e-14
0.999997
0.999987
0.999969
0.99994
0.999891
0.999811
0.999678
0.999462
0.999114
0.998561
0.997696
0.996365
0.994357
0.991395
0.987133
0.981168
0.973072
0.962433
0.948913
0.93229
0.912489
0.889579
0.863753
0.835301
0.804573
0.771958
0.737857
0.702667
0.666773
0.630537
0.594288
0.558325
0.522907
0.488256
0.454557
0.421961
0.390589
0.360531
0.331851
0.304587
0.278758
0.254362
0.231382
0.20979
0.189549
0.170613
0.152932
0.136451
0.121113
0.106861
0.093638
0.0813872
0.0700552
0.0595911
0.0499484
0.0410854
0.0330177
0.0258394
0.0191074
0.0130668
0.00772781
0.0033181
0.00231416
0.00159351
0.00108164
0.000722507
0.000474075
0.000305023
0.000192193
0.000118661
7.22442e-05
4.4379e-05
2.93318e-05
2.20279e-05
1.67594e-05
1.22772e-05
8.5543e-06
5.62866e-06
3.48448e-06
2.0302e-06
1.11881e-06
5.87525e-07
2.96139e-07
1.44633e-07
6.89761e-08
3.22124e-08
1.47632e-08
6.65185e-09
2.95121e-09
1.2912e-09
5.57864e-10
2.38326e-10
1.0079e-10
4.22256e-11
1.75206e-11
7.18111e-12
2.88117e-12
1.10206e-12
3.67913e-13
6.46823e-14
0.999997
0.999987
0.999969
0.99994
0.999892
0.999812
0.99968
0.999466
0.999121
0.998572
0.997714
0.996393
0.994401
0.99146
0.987228
0.981304
0.973259
0.962681
0.94923
0.932681
0.912956
0.890119
0.86436
0.835965
0.805284
0.772702
0.738618
0.703433
0.667528
0.631267
0.594981
0.558969
0.523491
0.488772
0.455
0.422324
0.39087
0.360728
0.331964
0.304618
0.278708
0.254235
0.231183
0.209524
0.189223
0.170232
0.152503
0.135981
0.120608
0.106328
0.0930834
0.0808173
0.069476
0.0590084
0.0493675
0.0405111
0.032471
0.0253129
0.0185936
0.0125619
0.00722096
0.00322903
0.00224884
0.00154647
0.00104836
0.000699406
0.000458358
0.000294571
0.000185445
0.000114498
6.98874e-05
4.33155e-05
2.92241e-05
2.21648e-05
1.68296e-05
1.22738e-05
8.51027e-06
5.56882e-06
3.42549e-06
1.98431e-06
1.08827e-06
5.69295e-07
2.86097e-07
1.39467e-07
6.64192e-08
3.09861e-08
1.41905e-08
6.39054e-09
2.83437e-09
1.23988e-09
5.35676e-10
2.28863e-10
9.68001e-11
4.05611e-11
1.68328e-11
6.90004e-12
2.76865e-12
1.05924e-12
3.53589e-13
6.22089e-14
0.999997
0.999987
0.99997
0.999941
0.999893
0.999813
0.999683
0.99947
0.999127
0.998582
0.997729
0.996418
0.994438
0.991517
0.987311
0.98142
0.973418
0.962891
0.949497
0.93301
0.913346
0.890567
0.86486
0.836509
0.805862
0.773302
0.739228
0.70404
0.668122
0.631835
0.595512
0.559454
0.523922
0.489143
0.455305
0.42256
0.391034
0.36082
0.331986
0.304572
0.278596
0.25406
0.23095
0.209237
0.188887
0.169853
0.152087
0.135532
0.120134
0.105833
0.0925727
0.0802962
0.0689492
0.0584802
0.0488414
0.0399908
0.0319659
0.0248217
0.0181174
0.0121026
0.00678091
0.00319285
0.00222146
0.00152676
0.00103476
0.000690376
0.000452603
0.000291068
0.000183436
0.000113454
6.94784e-05
4.3372e-05
2.96968e-05
2.26092e-05
1.70973e-05
1.24023e-05
8.54668e-06
5.55775e-06
3.39889e-06
1.95713e-06
1.06797e-06
5.56418e-07
2.78725e-07
1.35579e-07
6.44581e-08
3.00312e-08
1.3739e-08
6.18236e-09
2.74048e-09
1.19834e-09
5.17606e-10
2.21116e-10
9.35211e-11
3.91885e-11
1.6264e-11
6.66735e-12
2.67535e-12
1.02375e-12
3.41711e-13
6.01513e-14
0.999997
0.999987
0.99997
0.999941
0.999894
0.999814
0.999684
0.999473
0.999132
0.99859
0.997743
0.996439
0.994471
0.991565
0.987381
0.981519
0.973552
0.963067
0.949721
0.933283
0.913668
0.890935
0.86527
0.836952
0.806328
0.773782
0.739713
0.704519
0.668583
0.632271
0.595914
0.559814
0.524234
0.489403
0.455508
0.422704
0.391118
0.360845
0.331952
0.30448
0.278449
0.253861
0.230703
0.208947
0.188558
0.169491
0.151695
0.135116
0.119698
0.105383
0.0921124
0.07983
0.0684811
0.0580144
0.0483839
0.0395462
0.0315339
0.0244001
0.0177074
0.0117056
0.00639675
0.00317044
0.00220669
0.00151709
0.00102858
0.000686562
0.000450355
0.000289844
0.00018288
0.000113345
6.96952e-05
4.38699e-05
3.04954e-05
2.3258e-05
1.75094e-05
1.26303e-05
8.64995e-06
5.58793e-06
3.39553e-06
1.94473e-06
1.05582e-06
5.47824e-07
2.73517e-07
1.3274e-07
6.29918e-08
2.93045e-08
1.33906e-08
6.01999e-09
2.6666e-09
1.16542e-09
5.03198e-10
2.14909e-10
9.0883e-11
3.80805e-11
1.58039e-11
6.47878e-12
2.59963e-12
9.94962e-13
3.32066e-13
5.84893e-14
0.999997
0.999987
0.99997
0.999941
0.999894
0.999815
0.999686
0.999475
0.999136
0.998598
0.997754
0.996457
0.994498
0.991606
0.98744
0.981602
0.973664
0.963214
0.949906
0.933508
0.913933
0.891236
0.865602
0.837308
0.806702
0.774164
0.740095
0.704892
0.66894
0.632602
0.596214
0.560077
0.524455
0.489577
0.455634
0.422781
0.391144
0.360821
0.331878
0.304359
0.278284
0.253654
0.230458
0.208668
0.188248
0.169154
0.151337
0.13474
0.119308
0.104983
0.0917058
0.0794208
0.0680738
0.0576132
0.0479892
0.0391546
0.0311553
0.0240364
0.0173572
0.0113692
0.0060734
0.00315225
0.00219733
0.00151289
0.00102723
0.000686658
0.000451114
0.000290831
0.000183881
0.000114287
7.05904e-05
4.47933e-05
3.15623e-05
2.40575e-05
1.80212e-05
1.29259e-05
8.79864e-06
5.64833e-06
3.4112e-06
1.94291e-06
1.05022e-06
5.42742e-07
2.7009e-07
1.30779e-07
6.1946e-08
2.8774e-08
1.31318e-08
5.89766e-09
2.61031e-09
1.14011e-09
4.92039e-10
2.10072e-10
8.88171e-11
3.72094e-11
1.5441e-11
6.32968e-12
2.53968e-12
9.7213e-13
3.24419e-13
5.71779e-14
0.999997
0.999987
0.99997
0.999942
0.999894
0.999816
0.999687
0.999478
0.99914
0.998604
0.997764
0.996471
0.994521
0.991639
0.987488
0.98167
0.973756
0.963334
0.950057
0.933691
0.914147
0.891479
0.865868
0.837593
0.806998
0.774465
0.740393
0.70518
0.669212
0.632852
0.596436
0.560265
0.524608
0.489691
0.455707
0.422811
0.391132
0.360768
0.331785
0.304227
0.278116
0.253453
0.230226
0.208409
0.187966
0.168852
0.151018
0.134408
0.118966
0.104635
0.0913558
0.0790727
0.0677297
0.0572714
0.0476496
0.0388231
0.0308374
0.0237307
0.0170633
0.0110871
0.0058027
0.00313687
0.00219101
0.00151157
0.00102843
0.000688917
0.000453604
0.00029314
0.000185848
0.000115898
7.192e-05
4.59619e-05
3.27039e-05
2.49042e-05
1.85742e-05
1.32556e-05
8.97398e-06
5.72845e-06
3.44057e-06
1.94978e-06
1.0494e-06
5.40534e-07
2.68172e-07
1.29573e-07
6.12611e-08
2.84119e-08
1.29499e-08
5.80981e-09
2.56921e-09
1.12139e-09
4.837e-10
2.06427e-10
8.72502e-11
3.6545e-11
1.51631e-11
6.21511e-12
2.49351e-12
9.54521e-13
3.18517e-13
5.61685e-14
0.999997
0.999987
0.99997
0.999942
0.999895
0.999817
0.999688
0.99948
0.999143
0.998609
0.997772
0.996484
0.994539
0.991667
0.987528
0.981725
0.973831
0.963431
0.950178
0.933838
0.914318
0.891672
0.866079
0.837817
0.80723
0.774699
0.740623
0.7054
0.669417
0.633037
0.596596
0.560399
0.52471
0.489761
0.455743
0.422813
0.3911
0.360701
0.331686
0.304097
0.277957
0.253268
0.230018
0.20818
0.187718
0.168589
0.150742
0.134124
0.118677
0.104343
0.0910639
0.0787796
0.0674351
0.0569801
0.0473655
0.0385473
0.0305738
0.0234773
0.0168189
0.0108507
0.00558484
0.0031243
0.0021875
0.00151285
0.00103188
0.000693025
0.000457554
0.000296557
0.000188622
0.00011807
7.36088e-05
4.73222e-05
3.38761e-05
2.57744e-05
1.91532e-05
1.36098e-05
9.17004e-06
5.82453e-06
3.48126e-06
1.964e-06
1.05289e-06
5.40499e-07
2.67464e-07
1.28967e-07
6.08743e-08
2.81906e-08
1.28325e-08
5.75092e-09
2.54091e-09
1.10823e-09
4.77745e-10
2.03793e-10
8.61065e-11
3.60565e-11
1.49576e-11
6.13e-12
2.45912e-12
9.41384e-13
3.14109e-13
5.54159e-14
0.999997
0.999987
0.99997
0.999942
0.999895
0.999817
0.999689
0.999481
0.999146
0.998613
0.997778
0.996493
0.994554
0.991689
0.98756
0.981769
0.97389
0.963508
0.950274
0.933953
0.914452
0.891822
0.866243
0.83799
0.807408
0.774877
0.740797
0.705565
0.669569
0.633172
0.596711
0.560491
0.524777
0.489801
0.455756
0.422798
0.391058
0.360632
0.331591
0.303978
0.277816
0.253106
0.229837
0.207984
0.187509
0.16837
0.150516
0.133892
0.11844
0.104103
0.0908197
0.0785357
0.067195
0.0567449
0.0471366
0.0383255
0.0303622
0.0232741
0.0166231
0.0106613
0.0054112
0.00311417
0.0021864
0.00151631
0.00103722
0.000698697
0.000462749
0.000300929
0.000192103
0.000120743
7.56324e-05
4.88847e-05
3.5146e-05
2.67007e-05
1.9772e-05
1.39931e-05
9.3872e-06
5.93552e-06
3.53194e-06
1.98454e-06
1.06012e-06
5.42541e-07
2.67759e-07
1.28838e-07
6.07054e-08
2.80742e-08
1.2765e-08
5.71488e-09
2.52279e-09
1.09953e-09
4.73718e-10
2.01981e-10
8.531e-11
3.57132e-11
1.48127e-11
6.06949e-12
2.43465e-12
9.32035e-13
3.10962e-13
5.48826e-14
0.999997
0.999987
0.99997
0.999942
0.999895
0.999818
0.99969
0.999482
0.999148
0.998616
0.997783
0.996501
0.994565
0.991706
0.987584
0.981803
0.973935
0.963566
0.950347
0.934041
0.914553
0.891936
0.866366
0.83812
0.807541
0.77501
0.740925
0.705686
0.669678
0.633268
0.596791
0.560553
0.52482
0.489823
0.455757
0.422778
0.391016
0.360571
0.33151
0.303879
0.2777
0.252975
0.229693
0.207828
0.187344
0.168197
0.150336
0.133706
0.11825
0.10391
0.0906278
0.078346
0.0670087
0.0565632
0.0469604
0.0381554
0.0302
0.0231187
0.0164732
0.0105154
0.00527608
0.00310627
0.00218743
0.00152172
0.00104423
0.000705741
0.000469033
0.000306137
0.000196202
0.000123856
7.79525e-05
5.06271e-05
3.65003e-05
2.76735e-05
2.04212e-05
1.43972e-05
9.61908e-06
6.05686e-06
3.58959e-06
2.00944e-06
1.06991e-06
5.46001e-07
2.68806e-07
1.2909e-07
6.07229e-08
2.80418e-08
1.27351e-08
5.69604e-09
2.51256e-09
1.09437e-09
4.71247e-10
2.00841e-10
8.48004e-11
3.54906e-11
1.47195e-11
6.03013e-12
2.41861e-12
9.25898e-13
3.08885e-13
5.4534e-14
0.999997
0.999987
0.99997
0.999942
0.999896
0.999818
0.999691
0.999483
0.999149
0.998618
0.997786
0.996506
0.994574
0.991718
0.987601
0.981827
0.973968
0.963609
0.9504
0.934104
0.914626
0.892017
0.866454
0.838213
0.807635
0.775103
0.741015
0.70577
0.669754
0.633334
0.596845
0.560593
0.524845
0.489834
0.455752
0.422758
0.390981
0.360521
0.331447
0.303803
0.277611
0.252876
0.229584
0.20771
0.187219
0.168065
0.150198
0.133565
0.118108
0.103769
0.0904879
0.0782083
0.0668743
0.0564328
0.0468345
0.0380346
0.0300846
0.0230084
0.0163664
0.0104105
0.00517689
0.00310043
0.00219039
0.00152879
0.00105261
0.000713878
0.00047616
0.000311977
0.00020076
0.000127288
8.04784e-05
5.248e-05
3.78828e-05
2.86478e-05
2.1066e-05
1.47973e-05
9.8492e-06
6.17852e-06
3.64852e-06
2.03565e-06
1.08068e-06
5.50087e-07
2.70227e-07
1.29552e-07
6.08543e-08
2.80672e-08
1.27343e-08
5.6907e-09
2.50873e-09
1.09202e-09
4.70099e-10
2.00267e-10
8.45493e-11
3.53742e-11
1.46701e-11
6.00853e-12
2.4096e-12
9.22416e-13
3.07691e-13
5.43363e-14
0.999997
0.999987
0.99997
0.999942
0.999896
0.999818
0.999691
0.999484
0.99915
0.998619
0.997789
0.99651
0.994579
0.991726
0.987613
0.981843
0.973989
0.963636
0.950434
0.934145
0.914673
0.89207
0.866511
0.838272
0.807696
0.775163
0.741072
0.705823
0.669802
0.633374
0.596878
0.560617
0.52486
0.489838
0.455746
0.422742
0.390955
0.360485
0.331401
0.303749
0.277549
0.252807
0.229509
0.20763
0.187134
0.167977
0.150109
0.133474
0.118017
0.103678
0.0903983
0.0781207
0.0667893
0.056351
0.0467563
0.0379601
0.0300137
0.0229407
0.0163005
0.0103443
0.00511167
0.00309659
0.00219489
0.00153694
0.00106171
0.000722451
0.000483536
0.000317947
0.000205377
0.000130733
8.29831e-05
5.42732e-05
3.91607e-05
2.95213e-05
2.16324e-05
1.51436e-05
1.00466e-05
6.28259e-06
3.6991e-06
2.05834e-06
1.09011e-06
5.53755e-07
2.71558e-07
1.30018e-07
6.1034e-08
2.81197e-08
1.27525e-08
5.69405e-09
2.50945e-09
1.09166e-09
4.69864e-10
2.00078e-10
8.44618e-11
3.53268e-11
1.46491e-11
5.99865e-12
2.40533e-12
9.2076e-13
3.07107e-13
5.42419e-14
0.999997
0.999987
0.99997
0.999942
0.999896
0.999818
0.999691
0.999484
0.99915
0.99862
0.99779
0.996512
0.994582
0.99173
0.987618
0.98185
0.973999
0.963649
0.95045
0.934164
0.914696
0.892094
0.866538
0.8383
0.807724
0.775191
0.7411
0.705848
0.669824
0.633393
0.596893
0.560628
0.524866
0.48984
0.455743
0.422733
0.390942
0.360467
0.331379
0.303722
0.277519
0.252773
0.229472
0.207591
0.187093
0.167935
0.150065
0.133431
0.117973
0.103635
0.0903562
0.07808
0.0667503
0.0563139
0.0467214
0.0379275
0.0299831
0.0229118
0.0162722
0.0103145
0.00507947
0.0030947
0.00219974
0.00154435
0.00106947
0.000729499
0.00048945
0.000322649
0.000208965
0.000133382
8.48821e-05
5.55942e-05
4.00382e-05
3.00872e-05
2.19842e-05
1.53518e-05
1.01624e-05
6.34259e-06
3.72796e-06
2.07126e-06
1.0955e-06
5.55865e-07
2.72336e-07
1.30297e-07
6.11458e-08
2.81556e-08
1.27658e-08
5.69764e-09
2.51063e-09
1.09184e-09
4.6989e-10
2.00043e-10
8.4441e-11
3.53122e-11
1.46418e-11
5.99504e-12
2.4037e-12
9.20136e-13
3.06881e-13
5.42061e-14
0.999997
0.999987
0.99997
0.999942
0.999896
0.999818
0.999691
0.999484
0.99915
0.99862
0.99779
0.996512
0.994582
0.99173
0.987618
0.98185
0.973999
0.963649
0.95045
0.934164
0.914695
0.892094
0.866537
0.8383
0.807724
0.775191
0.741099
0.705848
0.669824
0.633393
0.596893
0.560628
0.524866
0.48984
0.455743
0.422733
0.390942
0.360467
0.331379
0.303722
0.277519
0.252773
0.229472
0.207591
0.187093
0.167935
0.150065
0.133431
0.117973
0.103635
0.0903563
0.07808
0.0667503
0.056314
0.0467215
0.0379275
0.0299831
0.0229119
0.0162723
0.0103146
0.00507949
0.0030947
0.00219974
0.00154435
0.00106947
0.000729501
0.000489451
0.00032265
0.000208966
0.000133382
8.48823e-05
5.55943e-05
4.00382e-05
3.00873e-05
2.19843e-05
1.53518e-05
1.01625e-05
6.34261e-06
3.72797e-06
2.07126e-06
1.09551e-06
5.55867e-07
2.72338e-07
1.30298e-07
6.11452e-08
2.81555e-08
1.27656e-08
5.69759e-09
2.51058e-09
1.09183e-09
4.69879e-10
2.0004e-10
8.44385e-11
3.53114e-11
1.46411e-11
5.99484e-12
2.40364e-12
9.20112e-13
3.06874e-13
5.42044e-14
0.999997
0.999987
0.99997
0.999942
0.999896
0.999818
0.999691
0.999484
0.99915
0.998619
0.997789
0.99651
0.994579
0.991726
0.987613
0.981843
0.973989
0.963636
0.950433
0.934144
0.914673
0.892069
0.866511
0.838272
0.807695
0.775163
0.741072
0.705823
0.669802
0.633374
0.596878
0.560616
0.52486
0.489838
0.455746
0.422742
0.390955
0.360485
0.331401
0.303749
0.277549
0.252807
0.229509
0.20763
0.187134
0.167977
0.150109
0.133474
0.118017
0.103678
0.0903984
0.0781209
0.0667894
0.0563511
0.0467564
0.0379602
0.0300138
0.0229408
0.0163006
0.0103444
0.00511176
0.0030966
0.00219489
0.00153695
0.00106171
0.000722454
0.000483538
0.000317948
0.000205378
0.000130734
8.29836e-05
5.42735e-05
3.91609e-05
2.95215e-05
2.16326e-05
1.51437e-05
1.00467e-05
6.28265e-06
3.69913e-06
2.05836e-06
1.09013e-06
5.53761e-07
2.71564e-07
1.30019e-07
6.10327e-08
2.81198e-08
1.2752e-08
5.69396e-09
2.50932e-09
1.09163e-09
4.69838e-10
2.00071e-10
8.44547e-11
3.53247e-11
1.46469e-11
5.9981e-12
2.40516e-12
9.20707e-13
3.07093e-13
5.42377e-14
0.999997
0.999987
0.99997
0.999942
0.999896
0.999818
0.999691
0.999483
0.999149
0.998618
0.997786
0.996506
0.994574
0.991718
0.987601
0.981827
0.973968
0.963609
0.950399
0.934104
0.914626
0.892017
0.866454
0.838212
0.807635
0.775103
0.741015
0.70577
0.669754
0.633333
0.596845
0.560593
0.524845
0.489834
0.455752
0.422758
0.390981
0.360521
0.331447
0.303803
0.277611
0.252876
0.229584
0.207711
0.187219
0.168065
0.150199
0.133566
0.118109
0.103769
0.0904881
0.0782085
0.0668745
0.056433
0.0468347
0.0380348
0.0300848
0.0230085
0.0163666
0.0104106
0.00517704
0.00310045
0.0021904
0.00152879
0.00105262
0.000713883
0.000476163
0.000311979
0.000200762
0.000127289
8.04792e-05
5.24804e-05
3.78831e-05
2.8648e-05
2.10661e-05
1.47974e-05
9.84931e-06
6.1786e-06
3.64857e-06
2.03569e-06
1.08069e-06
5.50097e-07
2.70233e-07
1.29554e-07
6.08549e-08
2.80678e-08
1.27342e-08
5.69072e-09
2.50866e-09
1.09201e-09
4.70081e-10
2.00262e-10
8.4541e-11
3.53738e-11
1.46679e-11
6.00803e-12
2.40942e-12
9.22379e-13
3.07682e-13
5.43322e-14
0.999997
0.999987
0.99997
0.999942
0.999895
0.999818
0.99969
0.999482
0.999148
0.998616
0.997783
0.996501
0.994565
0.991706
0.987584
0.981803
0.973935
0.963566
0.950347
0.93404
0.914553
0.891935
0.866365
0.83812
0.80754
0.775009
0.740925
0.705685
0.669678
0.633268
0.596791
0.560552
0.524819
0.489823
0.455757
0.422778
0.391016
0.360571
0.33151
0.303879
0.2777
0.252975
0.229693
0.207828
0.187345
0.168197
0.150336
0.133706
0.11825
0.10391
0.0906281
0.0783463
0.067009
0.0565635
0.0469606
0.0381557
0.0302003
0.023119
0.0164734
0.0105157
0.0052763
0.00310629
0.00218745
0.00152173
0.00104424
0.000705748
0.000469038
0.000306141
0.000196205
0.000123857
7.79536e-05
5.06278e-05
3.65006e-05
2.76738e-05
2.04214e-05
1.43974e-05
9.61923e-06
6.05697e-06
3.58967e-06
2.00949e-06
1.06994e-06
5.46015e-07
2.68813e-07
1.29093e-07
6.07245e-08
2.80426e-08
1.27354e-08
5.69617e-09
2.5126e-09
1.09439e-09
4.71251e-10
2.00843e-10
8.48003e-11
3.54927e-11
1.47191e-11
6.03013e-12
2.41859e-12
9.25921e-13
3.08893e-13
5.45322e-14
0.999997
0.999987
0.99997
0.999942
0.999895
0.999817
0.999689
0.999481
0.999146
0.998613
0.997778
0.996493
0.994554
0.991689
0.987559
0.981769
0.97389
0.963508
0.950274
0.933953
0.914451
0.891821
0.866242
0.83799
0.807407
0.774877
0.740796
0.705565
0.669568
0.633171
0.596711
0.56049
0.524777
0.489801
0.455756
0.422798
0.391058
0.360632
0.331591
0.303978
0.277816
0.253106
0.229838
0.207984
0.187509
0.16837
0.150516
0.133892
0.118441
0.104103
0.0908201
0.0785361
0.0671954
0.0567453
0.0471369
0.0383259
0.0303626
0.0232745
0.0166235
0.0106616
0.00541151
0.0031142
0.00218642
0.00151633
0.00103724
0.000698707
0.000462756
0.000300935
0.000192106
0.000120745
7.56339e-05
4.88856e-05
3.51464e-05
2.6701e-05
1.97723e-05
1.39933e-05
9.38739e-06
5.93566e-06
3.53204e-06
1.9846e-06
1.06015e-06
5.42559e-07
2.67769e-07
1.28843e-07
6.07076e-08
2.80752e-08
1.27655e-08
5.7151e-09
2.52289e-09
1.09957e-09
4.73735e-10
2.01988e-10
8.53129e-11
3.57145e-11
1.48133e-11
6.06978e-12
2.43472e-12
9.32095e-13
3.10981e-13
5.4882e-14
0.999997
0.999987
0.99997
0.999942
0.999895
0.999817
0.999688
0.99948
0.999143
0.998609
0.997772
0.996484
0.994539
0.991667
0.987528
0.981725
0.973831
0.963431
0.950178
0.933837
0.914317
0.891671
0.866078
0.837816
0.807229
0.774698
0.740622
0.705399
0.669416
0.633036
0.596596
0.560398
0.52471
0.489761
0.455743
0.422813
0.3911
0.360701
0.331686
0.304098
0.277957
0.253268
0.230018
0.20818
0.187719
0.16859
0.150743
0.134124
0.118677
0.104344
0.0910643
0.0787801
0.0674356
0.0569806
0.047366
0.0385478
0.0305743
0.0234777
0.0168193
0.0108512
0.00558524
0.00312433
0.00218753
0.00151287
0.0010319
0.000693037
0.000457563
0.000296563
0.000188627
0.000118073
7.36109e-05
4.73235e-05
3.38767e-05
2.57748e-05
1.91536e-05
1.36101e-05
9.17027e-06
5.8247e-06
3.48137e-06
1.96407e-06
1.05293e-06
5.40522e-07
2.67476e-07
1.28973e-07
6.08772e-08
2.81919e-08
1.28331e-08
5.75121e-09
2.54104e-09
1.10828e-09
4.77769e-10
2.03803e-10
8.61108e-11
3.60583e-11
1.49584e-11
6.13033e-12
2.45923e-12
9.4146e-13
3.14133e-13
5.54157e-14
0.999997
0.999987
0.99997
0.999942
0.999894
0.999816
0.999687
0.999478
0.99914
0.998604
0.997764
0.996471
0.99452
0.991639
0.987488
0.98167
0.973756
0.963334
0.950056
0.93369
0.914146
0.891478
0.865867
0.837592
0.806997
0.774464
0.740392
0.705179
0.669211
0.632851
0.596435
0.560265
0.524607
0.489691
0.455706
0.422811
0.391132
0.360768
0.331785
0.304228
0.278116
0.253454
0.230227
0.20841
0.187967
0.168853
0.151018
0.134409
0.118967
0.104635
0.0913563
0.0790733
0.0677303
0.057272
0.0476502
0.0388237
0.030838
0.0237312
0.0170638
0.0110876
0.00580321
0.00313691
0.00219104
0.0015116
0.00102845
0.000688934
0.000453616
0.000293148
0.000185853
0.000115902
7.19216e-05
4.59626e-05
3.2704e-05
2.49044e-05
1.85745e-05
1.32558e-05
8.97421e-06
5.72862e-06
3.4407e-06
1.94985e-06
1.04945e-06
5.40559e-07
2.68185e-07
1.2958e-07
6.12644e-08
2.84135e-08
1.29506e-08
5.81015e-09
2.56937e-09
1.12146e-09
4.83729e-10
2.0644e-10
8.72556e-11
3.65473e-11
1.5164e-11
6.21549e-12
2.49364e-12
9.54612e-13
3.18546e-13
5.61684e-14
0.999997
0.999987
0.99997
0.999941
0.999894
0.999815
0.999686
0.999475
0.999136
0.998598
0.997754
0.996457
0.994498
0.991606
0.987439
0.981601
0.973664
0.963214
0.949905
0.933507
0.913932
0.891235
0.865601
0.837307
0.806701
0.774163
0.740094
0.704891
0.668939
0.632602
0.596213
0.560076
0.524455
0.489577
0.455634
0.422781
0.391144
0.360821
0.331879
0.304359
0.278284
0.253655
0.230458
0.208668
0.188249
0.169155
0.151337
0.134741
0.119309
0.104983
0.0917064
0.0794214
0.0680745
0.057614
0.0479899
0.0391552
0.031156
0.024037
0.0173578
0.0113697
0.00607388
0.00315227
0.00219733
0.00151288
0.00102722
0.000686656
0.000451116
0.000290836
0.000183887
0.000114293
7.05955e-05
4.47968e-05
3.1564e-05
2.40583e-05
1.80218e-05
1.29263e-05
8.79889e-06
5.64851e-06
3.41132e-06
1.94299e-06
1.05027e-06
5.42769e-07
2.70105e-07
1.30787e-07
6.19498e-08
2.87758e-08
1.31326e-08
5.89806e-09
2.61049e-09
1.14019e-09
4.92073e-10
2.10087e-10
8.88235e-11
3.72121e-11
1.54421e-11
6.33013e-12
2.53984e-12
9.72236e-13
3.24453e-13
5.7178e-14
0.999997
0.999987
0.99997
0.999941
0.999893
0.999814
0.999684
0.999473
0.999132
0.99859
0.997743
0.996439
0.99447
0.991565
0.987381
0.981519
0.973552
0.963067
0.94972
0.933282
0.913667
0.890934
0.865269
0.836951
0.806327
0.773781
0.739712
0.704518
0.668583
0.63227
0.595913
0.559813
0.524234
0.489402
0.455507
0.422704
0.391118
0.360845
0.331952
0.30448
0.278449
0.253861
0.230703
0.208948
0.188558
0.169491
0.151695
0.135117
0.119699
0.105384
0.092113
0.0798306
0.0684817
0.058015
0.0483847
0.039547
0.0315346
0.0244008
0.017708
0.011706
0.00639709
0.00317056
0.00220683
0.00151724
0.00102872
0.000686668
0.000450424
0.000289882
0.000182895
0.000113346
6.96912e-05
4.38651e-05
3.04916e-05
2.32562e-05
1.75088e-05
1.26303e-05
8.65005e-06
5.58806e-06
3.39564e-06
1.9448e-06
1.05587e-06
5.47853e-07
2.73533e-07
1.32748e-07
6.29959e-08
2.93065e-08
1.33916e-08
6.02043e-09
2.6668e-09
1.16551e-09
5.03237e-10
2.14926e-10
9.08903e-11
3.80836e-11