/*--------------------------------*- C++ -*----------------------------------*\
  =========                 |
  \\      /  F ield         | OpenFOAM: The Open Source CFD Toolbox
   \\    /   O peration     | Website:  https://openfoam.org
    \\  /    A nd           | Version:  8
     \\/     M anipulation  |
\*---------------------------------------------------------------------------*/
FoamFile
{
    version     2.0;
    format      ascii;
    class       volScalarField;
    location    "980/fluid";
    object      CO2;
}
// * * * * * * * * * * * * * * * * * * * * * * * * * * * * * * * * * * * * * //

dimensions      [0 0 0 0 0 0 0];

internalField   nonuniform List<scalar> 
4000
(
4.73218e-07
2.06782e-06
4.74915e-06
9.24375e-06
1.67458e-05
2.9199e-05
4.97288e-05
8.32908e-05
0.000137608
0.000224471
0.000361435
0.00057384
0.00089688
0.00137711
0.00207249
0.00304985
0.00437903
0.00612422
0.00833439
0.0110359
0.0142296
0.0178926
0.0219829
0.0264459
0.0312197
0.0362396
0.0414415
0.0467639
0.0521497
0.0575467
0.0629085
0.0681949
0.0733717
0.0784104
0.0832886
0.0879882
0.0924956
0.0968013
0.100899
0.104787
0.108465
0.111934
0.115197
0.118261
0.121129
0.123809
0.126305
0.128624
0.13077
0.132748
0.134559
0.136204
0.137679
0.138979
0.140092
0.141002
0.141682
0.142091
0.14219
0.141912
0.141161
0.13981
0.137107
0.126574
0.115865
0.10516
0.0945983
0.0842888
0.0743189
0.0647598
0.0556714
0.0471065
0.0391147
0.0317824
0.0250816
0.0191183
0.0139566
0.00965995
0.00627524
0.00379744
0.00213692
0.00112384
0.000557599
0.000265243
0.000122579
5.53664e-05
2.4547e-05
1.0717e-05
4.61907e-06
1.96933e-06
8.3193e-07
3.48711e-07
1.45183e-07
6.00731e-08
2.46911e-08
1.00511e-08
4.01517e-09
1.53242e-09
5.11704e-10
8.9706e-11
4.73622e-07
2.07007e-06
4.75639e-06
9.26352e-06
1.67932e-05
2.93003e-05
4.99241e-05
8.36291e-05
0.000138124
0.000225123
0.000361973
0.000573588
0.000894403
0.00136975
0.00205594
0.00301796
0.00432407
0.00603775
0.00820864
0.0108652
0.0140115
0.0176279
0.0216758
0.0261031
0.0308495
0.035851
0.0410435
0.046365
0.0517573
0.0571671
0.0625469
0.0678552
0.0730566
0.0781219
0.0830276
0.0877551
0.09229
0.0966224
0.100746
0.104658
0.108358
0.111847
0.115129
0.11821
0.121093
0.123786
0.126294
0.128623
0.130778
0.132763
0.13458
0.136229
0.137708
0.139011
0.140126
0.141036
0.141716
0.142124
0.142221
0.141939
0.141182
0.13982
0.136283
0.125679
0.114914
0.104163
0.0935634
0.0832236
0.0732305
0.0636559
0.0545609
0.0460002
0.0380262
0.0307305
0.0240875
0.0182104
0.0131649
0.00901274
0.00579038
0.00347192
0.00194396
0.00102304
0.000510807
0.000245095
0.000114415
5.2215e-05
2.33754e-05
1.02926e-05
4.46735e-06
1.91506e-06
8.12222e-07
3.41351e-07
1.42336e-07
5.89334e-08
2.42232e-08
9.8571e-09
3.93559e-09
1.50125e-09
5.01082e-10
8.78549e-11
4.74642e-07
2.07479e-06
4.76846e-06
9.28988e-06
1.68458e-05
2.93974e-05
5.00901e-05
8.38894e-05
0.000138488
0.000225546
0.000362265
0.000573232
0.000892264
0.00136384
0.0020431
0.00299361
0.00428223
0.00597134
0.00811029
0.0107282
0.0138309
0.0174012
0.0214032
0.0257876
0.0304963
0.0354671
0.0406371
0.0459445
0.0513311
0.0567433
0.0621325
0.0674565
0.0726786
0.0777687
0.0827022
0.0874594
0.0920253
0.0963889
0.100543
0.104485
0.108214
0.111731
0.115038
0.118142
0.121047
0.123759
0.126284
0.128628
0.130795
0.132791
0.134617
0.136273
0.137758
0.139064
0.140182
0.141093
0.141772
0.142176
0.142268
0.141976
0.141204
0.139819
0.13482
0.124165
0.113353
0.102565
0.0919394
0.081587
0.0715964
0.0620411
0.0529844
0.0444831
0.0365922
0.0293934
0.0228889
0.0171776
0.0123201
0.00836757
0.00533856
0.00318579
0.00178069
0.000938378
0.000470314
0.00022668
0.000106351
4.87869e-05
2.19526e-05
9.71295e-06
4.23435e-06
1.82216e-06
7.75304e-07
3.26665e-07
1.36469e-07
5.65758e-08
2.32713e-08
9.47285e-09
3.78228e-09
1.44256e-09
4.81357e-10
8.43876e-11
4.74001e-07
2.07196e-06
4.76177e-06
9.27596e-06
1.68172e-05
2.93372e-05
4.99602e-05
8.36077e-05
0.000137888
0.000224307
0.000359818
0.000568632
0.000884051
0.00134981
0.00202012
0.00295758
0.00422819
0.0058939
0.00800419
0.010589
0.0136555
0.0171883
0.0211532
0.0255027
0.0301802
0.0351247
0.0402742
0.0455675
0.0509467
0.0563581
0.0617529
0.0670881
0.0723265
0.0774371
0.0823944
0.0871782
0.0917723
0.0961653
0.100349
0.104321
0.108078
0.111622
0.114956
0.118083
0.12101
0.123743
0.126285
0.128645
0.130826
0.132833
0.134668
0.136331
0.13782
0.13913
0.140247
0.141156
0.141831
0.142227
0.142306
0.141998
0.141202
0.139784
0.132998
0.122324
0.111491
0.100688
0.0900604
0.079721
0.0697619
0.0602584
0.0512752
0.0428709
0.0351016
0.0280197
0.0216831
0.0161555
0.0114929
0.00773768
0.00489445
0.00289945
0.00161249
0.00084778
0.000425004
0.000205249
9.65806e-05
4.44599e-05
2.00808e-05
8.91894e-06
3.90299e-06
1.68568e-06
7.19655e-07
3.04139e-07
1.27396e-07
5.29331e-08
2.18133e-08
8.89248e-09
3.55453e-09
1.35673e-09
4.52872e-10
7.94143e-11
4.72001e-07
2.06311e-06
4.74102e-06
9.23425e-06
1.67381e-05
2.9191e-05
4.96931e-05
8.31229e-05
0.000137015
0.000222749
0.000357077
0.000563899
0.000876062
0.00133668
0.00199921
0.00292545
0.00418069
0.00582652
0.00791253
0.0104694
0.0135053
0.0170063
0.02094
0.02526
0.0299111
0.0348334
0.0399653
0.0452465
0.0506192
0.0560295
0.0614285
0.0667729
0.0720249
0.0771529
0.0821308
0.0869375
0.0915565
0.0959754
0.100186
0.104184
0.107967
0.111536
0.114894
0.118044
0.120992
0.123742
0.126301
0.128675
0.130868
0.132884
0.134727
0.136395
0.137886
0.139195
0.14031
0.141212
0.141876
0.142257
0.142318
0.141984
0.141153
0.139693
0.131081
0.120412
0.109574
0.0987699
0.088152
0.0778397
0.0679269
0.0584901
0.0495943
0.0412976
0.0336677
0.0267299
0.0205595
0.0152129
0.0107393
0.00717187
0.0045015
0.00264972
0.00146741
0.000770079
0.00038612
0.000186748
8.80645e-05
4.06391e-05
1.84014e-05
8.19307e-06
3.59359e-06
1.55531e-06
6.65252e-07
2.81613e-07
1.18129e-07
4.91418e-08
2.0271e-08
8.27027e-09
3.30773e-09
1.26296e-09
4.21595e-10
7.39385e-11
4.68942e-07
2.04962e-06
4.70946e-06
9.17119e-06
1.662e-05
2.89767e-05
4.93112e-05
8.24516e-05
0.000135848
0.00022075
0.000353705
0.000558317
0.000867024
0.00132242
0.00197739
0.00289311
0.00413448
0.00576292
0.00782825
0.0103618
0.0133727
0.0168482
0.020757
0.0250537
0.0296841
0.034589
0.0397076
0.0449798
0.0503478
0.055758
0.0611614
0.0665141
0.0717782
0.0769214
0.0819172
0.0867439
0.0913845
0.095826
0.10006
0.104081
0.107887
0.111477
0.114856
0.118026
0.120991
0.123757
0.12633
0.128716
0.130918
0.132942
0.134788
0.136458
0.137948
0.139252
0.140357
0.141246
0.141894
0.142252
0.142287
0.141923
0.141056
0.13957
0.129378
0.118684
0.107811
0.0969841
0.086365
0.0760754
0.066209
0.0568409
0.0480339
0.0398438
0.0323472
0.0255467
0.0195386
0.0143645
0.0100653
0.00666817
0.00415248
0.0024275
0.00133739
0.000699558
0.000350219
0.000169391
7.99456e-05
3.69424e-05
1.67556e-05
7.47426e-06
3.2847e-06
1.42438e-06
6.10384e-07
2.58836e-07
1.08745e-07
4.53011e-08
1.87088e-08
7.64028e-09
3.05793e-09
1.16807e-09
3.89944e-10
6.84035e-11
4.65434e-07
2.03421e-06
4.67369e-06
9.10044e-06
1.64892e-05
2.87431e-05
4.89027e-05
8.17478e-05
0.000134652
0.000218744
0.000350392
0.000552942
0.000858483
0.00130917
0.0019574
0.00286389
0.00409319
0.00570666
0.00775441
0.0102683
0.0132585
0.016713
0.0206016
0.0248797
0.029494
0.0343857
0.0394944
0.0447603
0.0501258
0.0555373
0.0609454
0.0663062
0.0715814
0.0767383
0.0817499
0.0865942
0.0912535
0.0957146
0.0999684
0.104009
0.107835
0.111445
0.114841
0.118026
0.121006
0.123785
0.126369
0.128763
0.130973
0.133
0.134848
0.136516
0.138
0.139293
0.140383
0.14125
0.141867
0.142186
0.142175
0.141754
0.140829
0.139309
0.128477
0.117427
0.106357
0.0954283
0.0847708
0.0744866
0.0646585
0.0553553
0.0466362
0.0385555
0.0312026
0.02454
0.0186598
0.0136232
0.00947502
0.00622904
0.0038505
0.00223672
0.00122643
0.000639552
0.000319659
0.000154567
7.29739e-05
3.37451e-05
1.53201e-05
6.84141e-06
3.0101e-06
1.30687e-06
5.60691e-07
2.38034e-07
1.00112e-07
4.17446e-08
1.72544e-08
7.05114e-09
2.82349e-09
1.07877e-09
3.60098e-10
6.31881e-11
4.61803e-07
2.01829e-06
4.63683e-06
9.02786e-06
1.63557e-05
2.85061e-05
4.8491e-05
8.10442e-05
0.000133467
0.000216777
0.00034718
0.000547794
0.000850408
0.00129682
0.00193901
0.00283735
0.00405618
0.00565685
0.00768976
0.0101874
0.0131605
0.0165981
0.0204706
0.0247342
0.029336
0.0342179
0.0393197
0.0445816
0.0499464
0.0553601
0.0607734
0.0661421
0.0714276
0.0765969
0.0816225
0.0864821
0.0911578
0.0956357
0.0999064
0.103964
0.107806
0.111431
0.114842
0.118041
0.121032
0.123822
0.126414
0.128815
0.131029
0.133058
0.134905
0.136568
0.138043
0.139321
0.14039
0.141225
0.141795
0.142048
0.141941
0.141375
0.14023
0.138378
0.127341
0.116138
0.10497
0.0939899
0.0833188
0.0730516
0.0632652
0.0540234
0.0453815
0.0373902
0.0301214
0.0235769
0.0178357
0.0129456
0.00894815
0.00584514
0.00358998
0.00207317
0.00113142
0.000588031
0.000293279
0.000141696
6.68827e-05
3.09347e-05
1.40512e-05
6.27921e-06
2.76508e-06
1.20161e-06
5.16028e-07
2.19284e-07
9.23111e-08
3.85247e-08
1.59355e-08
6.5161e-09
2.61032e-09
9.9749e-10
3.32928e-10
5.84615e-11
4.58292e-07
2.00291e-06
4.60134e-06
8.95818e-06
1.62281e-05
2.82806e-05
4.81017e-05
8.03833e-05
0.000132362
0.000214957
0.000344233
0.00054311
0.000843122
0.00128576
0.00192268
0.00281398
0.00402383
0.00561363
0.00763407
0.0101182
0.0130773
0.0165012
0.0203608
0.0246131
0.0292055
0.0340803
0.0391774
0.0444372
0.0498025
0.0552192
0.0606379
0.0660143
0.0713092
0.0764896
0.0815277
0.0864008
0.0910906
0.095583
0.0998682
0.10394
0.107796
0.111433
0.114856
0.118065
0.121066
0.123864
0.126463
0.128868
0.131084
0.133114
0.134958
0.136616
0.138082
0.139348
0.140398
0.141208
0.141739
0.141943
0.141761
0.141085
0.13977
0.137352
0.126173
0.11488
0.103663
0.0926685
0.0820115
0.0717836
0.0620589
0.0528988
0.0443563
0.0364788
0.0293284
0.0228985
0.0172664
0.0124732
0.00854699
0.00553239
0.00337251
0.00193568
0.00105133
0.000544529
0.000270956
0.000130774
6.16971e-05
2.85332e-05
1.29626e-05
5.79489e-06
2.55313e-06
1.11019e-06
4.77093e-07
2.02882e-07
8.54667e-08
3.5692e-08
1.47724e-08
6.04338e-09
2.42169e-09
9.25561e-10
3.08882e-10
5.4281e-11
4.55029e-07
1.98864e-06
4.56842e-06
8.8937e-06
1.61102e-05
2.80732e-05
4.77447e-05
7.97796e-05
0.000131357
0.000213311
0.000341581
0.000538921
0.000836647
0.00127599
0.00190836
0.00279362
0.00399583
0.00557648
0.00758653
0.0100594
0.0130072
0.01642
0.0202695
0.0245131
0.0290985
0.0339682
0.0390623
0.0443214
0.049688
0.0551082
0.0605324
0.0659159
0.0712195
0.0764099
0.0814589
0.0863436
0.0910454
0.09555
0.0998475
0.103931
0.107797
0.111446
0.114878
0.118096
0.121104
0.123908
0.126511
0.12892
0.131137
0.133167
0.135009
0.136662
0.138122
0.139379
0.140418
0.141214
0.14173
0.141921
0.14173
0.14106
0.139785
0.136237
0.125001
0.113673
0.102439
0.0914462
0.0808069
0.0706104
0.0609291
0.0518235
0.0433454
0.0355433
0.0284651
0.0221388
0.0166209
0.0119569
0.00818029
0.00526419
0.00318431
0.00181745
0.000982953
0.000507513
0.000251978
0.000121483
5.72798e-05
2.64837e-05
1.20316e-05
5.37978e-06
2.37107e-06
1.03149e-06
4.43509e-07
1.88707e-07
7.95411e-08
3.32356e-08
1.37624e-08
5.6323e-09
2.25759e-09
8.63146e-10
2.88061e-10
5.06551e-11
4.52086e-07
1.97577e-06
4.53878e-06
8.83574e-06
1.60045e-05
2.78875e-05
4.74261e-05
7.92427e-05
0.000130466
0.000211857
0.000339251
0.000535256
0.000831008
0.00126753
0.00189601
0.00277615
0.00397194
0.00554494
0.00754636
0.0100101
0.0129486
0.0163526
0.0201942
0.024431
0.0290112
0.0338774
0.0389698
0.0442291
0.0495977
0.0550215
0.0604509
0.065841
0.0711525
0.0763516
0.0814101
0.0863049
0.091017
0.0955319
0.0998394
0.103933
0.107808
0.111465
0.114904
0.118129
0.121143
0.123951
0.126557
0.128968
0.131186
0.133214
0.135054
0.136704
0.138159
0.139409
0.14044
0.141228
0.141736
0.14192
0.141726
0.141056
0.13979
0.135136
0.123892
0.112568
0.101351
0.0903841
0.0797839
0.0696373
0.0600148
0.0509764
0.0425601
0.0348141
0.0277794
0.0215214
0.0160869
0.0115146
0.00783155
0.00503101
0.00302965
0.00171785
0.000925195
0.000476293
0.000235982
0.000113653
5.35542e-05
2.47531e-05
1.12444e-05
5.02819e-06
2.21659e-06
9.646e-07
4.14911e-07
1.76617e-07
7.44791e-08
3.11343e-08
1.28974e-08
5.28003e-09
2.11692e-09
8.09665e-10
2.70217e-10
4.754e-11
4.49492e-07
1.96443e-06
4.51268e-06
8.78476e-06
1.59117e-05
2.77247e-05
4.71474e-05
7.87742e-05
0.000129691
0.000210597
0.000337236
0.000532098
0.000826167
0.00126029
0.00188549
0.00276134
0.00395176
0.00551842
0.00751276
0.00996899
0.0129
0.016297
0.0201324
0.0243641
0.0289406
0.0338044
0.0388961
0.044156
0.0495268
0.0549543
0.0603885
0.0657846
0.071103
0.0763097
0.0813764
0.0862796
0.0910003
0.0955238
0.0998394
0.10394
0.107823
0.111486
0.114932
0.118161
0.121179
0.12399
0.126599
0.12901
0.131228
0.133254
0.135091
0.136737
0.138187
0.139432
0.140456
0.141237
0.141738
0.141916
0.141718
0.141048
0.139787
0.134144
0.122893
0.111574
0.100376
0.0894438
0.0788829
0.0687724
0.0591832
0.0501718
0.0418014
0.0341165
0.0271597
0.0209799
0.0156258
0.0111361
0.00753532
0.00481193
0.00289426
0.00163581
0.00087669
0.000450013
0.000222553
0.000107086
5.04306e-05
2.33018e-05
1.05837e-05
4.73283e-06
2.08668e-06
9.08272e-07
3.90798e-07
1.6641e-07
7.02001e-08
2.93561e-08
1.21647e-08
4.98145e-09
1.99762e-09
7.64293e-10
2.55073e-10
4.48998e-11
4.47249e-07
1.95463e-06
4.49015e-06
8.74078e-06
1.58318e-05
2.75847e-05
4.69082e-05
7.83727e-05
0.000129029
0.000209522
0.000335522
0.000529419
0.000822075
0.0012542
0.00187666
0.00274893
0.00393493
0.00549638
0.00748493
0.00993511
0.0128601
0.0162516
0.0200822
0.0243101
0.0288838
0.0337462
0.0388376
0.0440986
0.0494717
0.0549026
0.0603412
0.0657425
0.0710669
0.0762801
0.0813537
0.086264
0.0909918
0.0955221
0.0998443
0.103951
0.10784
0.111508
0.114958
0.118191
0.121212
0.124024
0.126634
0.129045
0.131261
0.133286
0.13512
0.136761
0.138206
0.139444
0.140462
0.141236
0.14173
0.141903
0.1417
0.14103
0.139773
0.13329
0.122028
0.110714
0.0995321
0.088613
0.0780645
0.067981
0.0584308
0.0494718
0.0411554
0.0335284
0.0266335
0.0205201
0.0152356
0.0108175
0.00728805
0.00463142
0.00277067
0.00156558
0.000837404
0.000428317
0.000211396
0.000101641
4.7842e-05
2.20987e-05
1.00356e-05
4.48753e-06
1.97863e-06
8.61362e-07
3.70688e-07
1.57885e-07
6.6622e-08
2.78674e-08
1.15507e-08
4.73102e-09
1.8975e-09
7.26164e-10
2.42344e-10
4.26822e-11
4.45349e-07
1.94633e-06
4.47107e-06
8.70357e-06
1.57642e-05
2.74665e-05
4.67064e-05
7.80348e-05
0.000128472
0.00020862
0.000334088
0.000527184
0.000818666
0.00124913
0.00186934
0.00273869
0.00392107
0.00547828
0.00746217
0.0099075
0.0128278
0.0162149
0.0200418
0.0242668
0.0288386
0.0337001
0.0387917
0.0440539
0.0494291
0.054863
0.0603055
0.0657113
0.0710407
0.0762594
0.0813386
0.0862547
0.0909881
0.0955239
0.0998513
0.103963
0.107856
0.111528
0.114981
0.118217
0.121239
0.124052
0.126662
0.129072
0.131286
0.133308
0.135138
0.136775
0.138214
0.139446
0.140457
0.141225
0.141712
0.141879
0.141673
0.141003
0.139753
0.132562
0.121285
0.109971
0.0987909
0.0878871
0.0773667
0.0673152
0.0578019
0.0488846
0.0406137
0.0330356
0.0261927
0.0201353
0.0149097
0.0105524
0.00708356
0.00448366
0.00267124
0.00150286
0.000804301
0.000411257
0.0002025
9.72191e-05
4.5729e-05
2.11144e-05
9.58613e-06
4.28596e-06
1.88969e-06
8.22683e-07
3.54083e-07
1.50837e-07
6.36601e-08
2.66337e-08
1.10414e-08
4.52316e-09
1.81435e-09
6.94477e-10
2.31765e-10
4.08383e-11
4.43772e-07
1.93944e-06
4.45525e-06
8.67273e-06
1.57082e-05
2.73687e-05
4.65398e-05
7.77561e-05
0.000128014
0.000207879
0.000332911
0.000525352
0.00081588
0.001245
0.00186339
0.00273037
0.00390984
0.00546367
0.00744384
0.00988533
0.0128019
0.0161856
0.0200097
0.0242326
0.028803
0.033664
0.0387559
0.0440193
0.0493965
0.054833
0.0602787
0.0656883
0.0710218
0.0762449
0.0813286
0.0862492
0.090987
0.0955271
0.0998584
0.103974
0.10787
0.111545
0.114999
0.118236
0.121259
0.124073
0.126681
0.129089
0.131301
0.13332
0.135146
0.136778
0.138211
0.139438
0.140442
0.141203
0.141684
0.141846
0.141638
0.14097
0.139731
0.131961
0.120664
0.109344
0.0981723
0.0872848
0.076787
0.066763
0.057281
0.0483985
0.0401655
0.0326283
0.0258287
0.0198177
0.0146411
0.0103345
0.00691617
0.00436345
0.00259114
0.00145316
0.00077513
0.000396542
0.000195425
9.37346e-05
4.40331e-05
2.03158e-05
9.22026e-06
4.12166e-06
1.8171e-06
7.91078e-07
3.40502e-07
1.45068e-07
6.12341e-08
2.56229e-08
1.06241e-08
4.35276e-09
1.74618e-09
6.68492e-10
2.23091e-10
3.93254e-11
4.42499e-07
1.93388e-06
4.44247e-06
8.64785e-06
1.56631e-05
2.72899e-05
4.64056e-05
7.75319e-05
0.000127646
0.000207284
0.000331968
0.000523887
0.000813655
0.0012417
0.00185865
0.00272376
0.00390094
0.00545211
0.00742938
0.00986788
0.0127816
0.0161628
0.0199847
0.024206
0.0287755
0.0336362
0.0387285
0.0439929
0.0493717
0.0548104
0.0602587
0.0656713
0.071008
0.0762345
0.0813216
0.0862456
0.0909867
0.0955299
0.0998641
0.103982
0.10788
0.111557
0.115012
0.11825
0.121273
0.124085
0.126692
0.129098
0.131307
0.133322
0.135144
0.136771
0.138199
0.139419
0.140417
0.141172
0.141647
0.141805
0.141596
0.140932
0.139707
0.131475
0.12016
0.108834
0.097668
0.0867937
0.0763145
0.0663133
0.0568575
0.0480038
0.039802
0.0322982
0.0255341
0.019561
0.0144242
0.0101589
0.00678161
0.00426719
0.00252733
0.0014139
0.000752372
0.000383782
0.00018891
9.07544e-05
4.26747e-05
1.96796e-05
8.92633e-06
3.98893e-06
1.75841e-06
7.6553e-07
3.29537e-07
1.40414e-07
5.92791e-08
2.48091e-08
1.02887e-08
4.21584e-09
1.69146e-09
6.47655e-10
2.16137e-10
3.81133e-11
4.41508e-07
1.92955e-06
4.43253e-06
8.62849e-06
1.5628e-05
2.72287e-05
4.63015e-05
7.73581e-05
0.00012736
0.000206824
0.000331239
0.000522756
0.00081194
0.00123917
0.001855
0.00271869
0.00389412
0.00544327
0.00741834
0.00985459
0.0127661
0.0161454
0.0199657
0.024186
0.0287548
0.0336154
0.0387081
0.0439734
0.0493534
0.0547938
0.0602441
0.0656588
0.0709979
0.0762268
0.0813164
0.0862427
0.090986
0.0955312
0.0998673
0.103987
0.107886
0.111564
0.11502
0.118257
0.121279
0.12409
0.126696
0.129099
0.131305
0.133316
0.135133
0.136755
0.138178
0.139392
0.140384
0.141133
0.141603
0.141759
0.14155
0.140892
0.139684
0.131091
0.119757
0.108426
0.0972655
0.0864027
0.0759394
0.0659573
0.056523
0.0476928
0.0395163
0.0320392
0.0253032
0.01936
0.0142548
0.010022
0.00667701
0.00419259
0.00247808
0.00138379
0.000735177
0.000374478
0.000184081
8.83002e-05
4.15024e-05
1.91602e-05
8.69485e-06
3.88581e-06
1.71286e-06
7.45707e-07
3.21029e-07
1.36807e-07
5.77653e-08
2.41797e-08
1.00306e-08
4.11054e-09
1.64938e-09
6.31642e-10
2.10792e-10
3.7182e-11
4.40782e-07
1.92638e-06
4.42525e-06
8.61432e-06
1.56023e-05
2.7184e-05
4.62254e-05
7.72311e-05
0.000127152
0.000206488
0.000330708
0.000521932
0.000810691
0.00123732
0.00185236
0.00271501
0.00388918
0.00543687
0.00741036
0.009845
0.012755
0.0161329
0.0199522
0.0241716
0.0287401
0.0336006
0.0386935
0.0439594
0.0493404
0.054782
0.0602336
0.0656499
0.0709906
0.0762211
0.0813121
0.0862398
0.0909845
0.0955309
0.099868
0.103989
0.107888
0.111566
0.115022
0.118259
0.12128
0.12409
0.126693
0.129094
0.131296
0.133303
0.135116
0.136733
0.13815
0.139358
0.140345
0.141088
0.141555
0.141709
0.141503
0.140853
0.139665
0.130808
0.119453
0.108118
0.09696
0.0861062
0.0756559
0.0656891
0.056272
0.0474602
0.0393032
0.0318466
0.025132
0.0192114
0.0141298
0.00992122
0.00660026
0.00413802
0.00244214
0.00136185
0.000722673
0.000367751
0.000180628
8.65954e-05
4.06822e-05
1.87703e-05
8.52168e-06
3.81017e-06
1.68024e-06
7.31642e-07
3.15051e-07
1.34267e-07
5.67078e-08
2.37377e-08
9.84881e-09
4.036e-09
1.61949e-09
6.20238e-10
2.06979e-10
3.65172e-11
4.40307e-07
1.92431e-06
4.4205e-06
8.60507e-06
1.55855e-05
2.71548e-05
4.61757e-05
7.71483e-05
0.000127016
0.00020627
0.000330362
0.000521397
0.00080988
0.00123613
0.00185064
0.00271263
0.00388598
0.00543274
0.0074052
0.0098388
0.0127478
0.0161249
0.0199434
0.0241624
0.0287306
0.033591
0.0386842
0.0439505
0.0493321
0.0547744
0.0602269
0.0656441
0.0709857
0.076217
0.0813088
0.0862371
0.0909824
0.0955293
0.0998668
0.103988
0.107887
0.111565
0.11502
0.118256
0.121276
0.124084
0.126685
0.129084
0.131284
0.133287
0.135096
0.136708
0.13812
0.139323
0.140305
0.141044
0.141507
0.141661
0.141458
0.140818
0.139651
0.130621
0.119247
0.107905
0.0967487
0.0859018
0.0754613
0.0655063
0.0561018
0.0473034
0.0391603
0.031718
0.0250182
0.0191129
0.0140473
0.00985502
0.00655007
0.00410252
0.00241886
0.00134766
0.000714567
0.000363389
0.00017839
8.54978e-05
4.01735e-05
1.85289e-05
8.41111e-06
3.75968e-06
1.65865e-06
7.22285e-07
3.11144e-07
1.3261e-07
5.60231e-08
2.34516e-08
9.73167e-09
3.988e-09
1.60029e-09
6.12936e-10
2.04536e-10
3.60915e-11
4.40076e-07
1.9233e-06
4.41819e-06
8.60058e-06
1.55774e-05
2.71407e-05
4.61519e-05
7.71086e-05
0.000126952
0.000206165
0.000330198
0.000521143
0.000809496
0.00123556
0.00184983
0.0027115
0.00388447
0.00543078
0.00740276
0.00983587
0.0127444
0.0161211
0.0199393
0.024158
0.028726
0.0335865
0.0386798
0.0439462
0.0493281
0.0547707
0.0602236
0.0656412
0.0709832
0.0762149
0.081307
0.0862354
0.0909806
0.0955275
0.099865
0.103986
0.107885
0.111562
0.115017
0.118253
0.121272
0.124079
0.126678
0.129075
0.131273
0.133274
0.135079
0.136688
0.138097
0.139297
0.140274
0.14101
0.141471
0.141624
0.141423
0.140791
0.139643
0.130529
0.119138
0.10779
0.0966357
0.0857933
0.0753592
0.0654113
0.0560145
0.0472238
0.0390884
0.031654
0.0249621
0.0190649
0.0140074
0.00982322
0.00652615
0.00408575
0.00240797
0.00134107
0.000710821
0.000361372
0.000177353
8.49901e-05
3.99404e-05
1.84189e-05
8.36166e-06
3.737e-06
1.64858e-06
7.17824e-07
3.0925e-07
1.31801e-07
5.56882e-08
2.33117e-08
9.67417e-09
3.96448e-09
1.59088e-09
6.0937e-10
2.03343e-10
3.58837e-11
4.40076e-07
1.9233e-06
4.41819e-06
8.6006e-06
1.55774e-05
2.71407e-05
4.61519e-05
7.71087e-05
0.000126952
0.000206166
0.000330198
0.000521143
0.000809496
0.00123556
0.00184983
0.0027115
0.00388447
0.00543078
0.00740276
0.00983588
0.0127444
0.0161211
0.0199393
0.024158
0.0287261
0.0335865
0.0386798
0.0439463
0.0493281
0.0547707
0.0602236
0.0656412
0.0709832
0.0762149
0.081307
0.0862354
0.0909806
0.0955275
0.099865
0.103986
0.107885
0.111562
0.115017
0.118253
0.121272
0.124079
0.126678
0.129075
0.131273
0.133274
0.135079
0.136688
0.138097
0.139297
0.140274
0.14101
0.141471
0.141624
0.141423
0.140791
0.139643
0.130529
0.119138
0.10779
0.0966357
0.0857934
0.0753593
0.0654114
0.0560145
0.0472238
0.0390885
0.031654
0.0249621
0.0190649
0.0140074
0.00982325
0.00652617
0.00408576
0.00240798
0.00134108
0.000710824
0.000361374
0.000177354
8.49905e-05
3.99402e-05
1.84188e-05
8.36154e-06
3.73695e-06
1.64854e-06
7.1781e-07
3.09242e-07
1.31798e-07
5.56864e-08
2.3311e-08
9.67362e-09
3.96428e-09
1.59082e-09
6.09349e-10
2.03337e-10
3.58824e-11
4.40309e-07
1.92432e-06
4.42052e-06
8.6051e-06
1.55856e-05
2.71549e-05
4.61759e-05
7.71486e-05
0.000127017
0.00020627
0.000330363
0.000521398
0.000809882
0.00123613
0.00185064
0.00271263
0.00388599
0.00543275
0.00740521
0.00983882
0.0127479
0.0161249
0.0199434
0.0241624
0.0287306
0.0335911
0.0386842
0.0439505
0.0493321
0.0547744
0.0602269
0.0656441
0.0709857
0.076217
0.0813088
0.0862371
0.0909824
0.0955293
0.0998668
0.103988
0.107887
0.111565
0.11502
0.118256
0.121276
0.124084
0.126685
0.129084
0.131283
0.133287
0.135096
0.136708
0.13812
0.139323
0.140305
0.141044
0.141507
0.141661
0.141458
0.140818
0.139651
0.130621
0.119247
0.107905
0.096749
0.085902
0.0754616
0.0655065
0.056102
0.0473036
0.0391604
0.0317181
0.0250183
0.0191131
0.0140474
0.00985509
0.00655012
0.00410255
0.00241888
0.00134767
0.000714576
0.000363394
0.000178392
8.5499e-05
4.01731e-05
1.85288e-05
8.41085e-06
3.75959e-06
1.65856e-06
7.22256e-07
3.11127e-07
1.32604e-07
5.60187e-08
2.345e-08
9.73012e-09
3.98747e-09
1.60013e-09
6.12884e-10
2.04521e-10
3.60883e-11
4.40785e-07
1.92639e-06
4.42528e-06
8.61438e-06
1.56024e-05
2.71841e-05
4.62257e-05
7.72316e-05
0.000127153
0.000206489
0.00033071
0.000521935
0.000810695
0.00123733
0.00185236
0.00271502
0.0038892
0.00543689
0.00741038
0.00984503
0.012755
0.016133
0.0199522
0.0241716
0.0287401
0.0336006
0.0386936
0.0439595
0.0493405
0.054782
0.0602337
0.0656499
0.0709906
0.0762211
0.0813121
0.0862398
0.0909845
0.0955309
0.099868
0.103989
0.107888
0.111566
0.115022
0.118259
0.12128
0.12409
0.126693
0.129094
0.131296
0.133303
0.135116
0.136733
0.13815
0.139358
0.140345
0.141088
0.141555
0.141709
0.141503
0.140853
0.139665
0.130808
0.119454
0.108118
0.0969604
0.0861066
0.0756563
0.0656895
0.0562723
0.0474605
0.0393035
0.0318469
0.0251322
0.0192116
0.01413
0.00992136
0.00660036
0.00413809
0.00244219
0.00136188
0.000722689
0.000367759
0.000180632
8.65974e-05
4.06829e-05
1.87706e-05
8.52161e-06
3.81013e-06
1.68018e-06
7.31615e-07
3.15032e-07
1.34259e-07
5.67011e-08
2.37365e-08
9.84708e-09
4.0354e-09
1.6193e-09
6.20185e-10
2.06964e-10
3.65139e-11
4.41512e-07
1.92957e-06
4.43257e-06
8.62857e-06
1.56281e-05
2.7229e-05
4.63019e-05
7.73588e-05
0.000127362
0.000206826
0.000331242
0.00052276
0.000811946
0.00123918
0.00185502
0.00271871
0.00389414
0.0054433
0.00741837
0.00985463
0.0127662
0.0161454
0.0199658
0.024186
0.0287549
0.0336155
0.0387081
0.0439734
0.0493535
0.0547938
0.0602441
0.0656588
0.070998
0.0762269
0.0813164
0.0862427
0.090986
0.0955312
0.0998673
0.103987
0.107886
0.111564
0.11502
0.118257
0.121279
0.12409
0.126696
0.129099
0.131305
0.133316
0.135133
0.136755
0.138178
0.139392
0.140384
0.141133
0.141603
0.141759
0.14155
0.140892
0.139684
0.131092
0.119757
0.108427
0.0972662
0.0864033
0.07594
0.0659578
0.0565235
0.0476932
0.0395167
0.0320396
0.0253036
0.0193603
0.0142551
0.0100222
0.00667715
0.00419269
0.00247814
0.00138383
0.0007352
0.000374489
0.000184087
8.8303e-05
4.15036e-05
1.91607e-05
8.69498e-06
3.88583e-06
1.71287e-06
7.45706e-07
3.21027e-07
1.36805e-07
5.77644e-08
2.41804e-08
1.00301e-08
4.11032e-09
1.64932e-09
6.31635e-10
2.10792e-10
3.71807e-11
4.42504e-07
1.9339e-06
4.44252e-06
8.64794e-06
1.56632e-05
2.72902e-05
4.64061e-05
7.75328e-05
0.000127647
0.000207286
0.000331971
0.000523892
0.000813662
0.00124171
0.00185866
0.00272378
0.00390097
0.00545215
0.00742942
0.00986794
0.0127816
0.0161628
0.0199847
0.0242061
0.0287756
0.0336363
0.0387286
0.043993
0.0493718
0.0548105
0.0602588
0.0656713
0.0710081
0.0762345
0.0813217
0.0862456
0.0909867
0.0955299
0.0998641
0.103982
0.10788
0.111557
0.115012
0.11825
0.121273
0.124085
0.126692
0.129098
0.131307
0.133322
0.135144
0.136771
0.138199
0.139419
0.140417
0.141172
0.141647
0.141805
0.141596
0.140932
0.139707
0.131476
0.120161
0.108835
0.0976688
0.0867945
0.0763153
0.066314
0.0568582
0.0480044
0.0398026
0.0322988
0.0255346
0.0195614
0.0144245
0.0101591
0.0067818
0.00426732
0.00252742
0.00141395
0.000752402
0.000383798
0.000188918
9.07582e-05
4.26764e-05
1.96804e-05
8.92667e-06
3.98912e-06
1.75849e-06
7.65567e-07
3.29552e-07
1.4042e-07
5.92815e-08
2.481e-08
1.0289e-08
4.21598e-09
1.69151e-09
6.47693e-10
2.1615e-10
3.81139e-11
4.43779e-07
1.93947e-06
4.45531e-06
8.67285e-06
1.57084e-05
2.73691e-05
4.65404e-05
7.77571e-05
0.000128016
0.000207881
0.000332915
0.000525358
0.000815889
0.00124501
0.0018634
0.00273039
0.00390987
0.00546371
0.00744389
0.00988539
0.012802
0.0161857
0.0200098
0.0242327
0.0288031
0.0336641
0.038756
0.0440194
0.0493965
0.0548331
0.0602787
0.0656883
0.0710218
0.0762449
0.0813286
0.0862492
0.0909871
0.0955271
0.0998585
0.103974
0.10787
0.111545
0.114999
0.118236
0.121259
0.124073
0.126681
0.129089
0.131301
0.13332
0.135146
0.136778
0.138211
0.139438
0.140442
0.141203
0.141684
0.141846
0.141638
0.14097
0.139731
0.131962
0.120665
0.109345
0.0981733
0.0872858
0.076788
0.0667639
0.0572819
0.0483993
0.0401663
0.0326289
0.0258293
0.0198183
0.0146415
0.0103348
0.00691642
0.00436363
0.00259125
0.00145323
0.000775169
0.000396563
0.000195435
9.37392e-05
4.40353e-05
2.03169e-05
9.22081e-06
4.12191e-06
1.81721e-06
7.91125e-07
3.40522e-07
1.45076e-07
6.12377e-08
2.56243e-08
1.06247e-08
4.353e-09
1.74629e-09
6.6855e-10
2.23111e-10
3.9327e-11
4.45356e-07
1.94636e-06
4.47114e-06
8.70371e-06
1.57644e-05
2.74669e-05
4.67072e-05
7.8036e-05
0.000128474
0.000208623
0.000334092
0.000527191
0.000818677
0.00124915
0.00186936
0.00273872
0.0039211
0.00547833
0.00746224
0.00990758
0.0128279
0.016215
0.0200419
0.0242669
0.0288387
0.0337002
0.0387918
0.044054
0.0494292
0.0548631
0.0603055
0.0657114
0.0710408
0.0762594
0.0813386
0.0862547
0.0909882
0.0955239
0.0998513
0.103963
0.107856
0.111528
0.114981
0.118216
0.121239
0.124052
0.126662
0.129072
0.131286
0.133308
0.135138
0.136775
0.138214
0.139446
0.140457
0.141225
0.141712
0.141879
0.141673
0.141003
0.139753
0.132563
0.121286
0.109972
0.098792
0.0878882
0.0773677
0.0673162
0.0578029
0.0488855
0.0406145
0.0330364
0.0261934
0.0201359
0.0149102
0.0105528
0.00708387
0.00448388
0.00267138
0.00150294
0.000804349
0.00041128
0.000202512
9.72253e-05
4.5732e-05
2.11159e-05
9.58679e-06
4.28626e-06
1.88983e-06
8.2274e-07
3.54108e-07
1.50848e-07
6.36645e-08
2.66356e-08
1.10422e-08
4.52347e-09
1.81448e-09
6.94551e-10
2.31791e-10
4.08404e-11
4.47258e-07
1.95467e-06
4.49024e-06
8.74094e-06
1.58321e-05
2.75852e-05
4.6909e-05
7.83741e-05
0.000129031
0.000209525
0.000335527
0.000529427
0.000822087
0.00125421
0.00187668
0.00274897
0.00393497
0.00549643
0.007485
0.0099352
0.0128602
0.0162517
0.0200823
0.0243102
0.0288839
0.0337463
0.0388377
0.0440987
0.0494718
0.0549027
0.0603413
0.0657426
0.0710669
0.0762802
0.0813537
0.086264
0.0909918
0.0955221
0.0998443
0.103951
0.10784
0.111508
0.114958
0.118191
0.121212
0.124024
0.126634
0.129045
0.131261
0.133286
0.13512
0.136761
0.138206
0.139444
0.140462
0.141236
0.14173
0.141903
0.1417
0.14103
0.139773
0.133291
0.122029
0.110714
0.099533
0.0886139
0.0780653
0.0679817
0.0584315
0.0494726
0.0411563
0.0335292
0.0266343
0.0205208
0.0152362
0.010818
0.00728843
0.00463169
0.00277085
0.00156569
0.000837463
0.000428349
0.000211412
0.000101649
4.78458e-05
2.21005e-05
1.00364e-05
4.48789e-06
1.97879e-06
8.61432e-07
3.70718e-07
1.57898e-07
6.66275e-08
2.78696e-08
1.15516e-08
4.7314e-09
1.89766e-09
7.26253e-10
2.42375e-10
4.26848e-11
4.49501e-07
1.96447e-06
4.51278e-06
8.78493e-06
1.5912e-05
2.77253e-05
4.71483e-05
7.87757e-05
0.000129694
0.000210601
0.000337242
0.000532107
0.000826181
0.00126031
0.00188552
0.00276137
0.00395181