/*--------------------------------*- C++ -*----------------------------------*\
  =========                 |
  \\      /  F ield         | OpenFOAM: The Open Source CFD Toolbox
   \\    /   O peration     | Website:  https://openfoam.org
    \\  /    A nd           | Version:  8
     \\/     M anipulation  |
\*---------------------------------------------------------------------------*/
FoamFile
{
    version     2.0;
    format      ascii;
    class       volScalarField;
    location    "980/fluid";
    object      H2O;
}
// * * * * * * * * * * * * * * * * * * * * * * * * * * * * * * * * * * * * * //

dimensions      [0 0 0 0 0 0 0];

internalField   nonuniform List<scalar> 
4000
(
3.87419e-07
1.69291e-06
3.88809e-06
7.56778e-06
1.37097e-05
2.39049e-05
4.07125e-05
6.81895e-05
0.000112659
0.000183773
0.000295904
0.000469798
0.000734267
0.00112743
0.00169673
0.00249689
0.00358508
0.00501385
0.00682329
0.00903501
0.0116497
0.0146485
0.0179972
0.021651
0.0255593
0.029669
0.0339278
0.0382852
0.0426945
0.047113
0.0515027
0.0558306
0.0600687
0.0641939
0.0681876
0.0720352
0.0757254
0.0792504
0.0826055
0.0857884
0.0887991
0.091639
0.094311
0.096819
0.0991674
0.101361
0.103405
0.105303
0.107061
0.10868
0.110162
0.111509
0.112717
0.113781
0.114692
0.115437
0.115993
0.116329
0.11641
0.116182
0.115567
0.114461
0.112248
0.103625
0.0948579
0.0860938
0.0774468
0.0690065
0.0608443
0.0530183
0.0455777
0.0385657
0.0320229
0.02602
0.0205341
0.015652
0.0114261
0.00790851
0.00513748
0.00310893
0.00174948
0.000920075
0.000456502
0.000217152
0.000100355
4.5328e-05
2.00964e-05
8.77391e-06
3.7816e-06
1.61227e-06
6.81094e-07
2.85487e-07
1.1886e-07
4.91813e-08
2.02144e-08
8.22878e-09
3.28718e-09
1.25458e-09
4.18928e-10
7.34415e-11
3.87751e-07
1.69475e-06
3.89402e-06
7.58397e-06
1.37484e-05
2.39879e-05
4.08724e-05
6.84664e-05
0.000113081
0.000184306
0.000296344
0.000469591
0.00073224
0.0011214
0.00168318
0.00247077
0.00354008
0.00494305
0.00672034
0.00889526
0.0114711
0.0144318
0.0177458
0.0213704
0.0252562
0.0293509
0.033602
0.0379586
0.0423732
0.0468022
0.0512066
0.0555525
0.0598108
0.0639577
0.067974
0.0718443
0.075557
0.0791039
0.0824798
0.0856824
0.0887114
0.0915681
0.0942554
0.0967771
0.0991378
0.101342
0.103396
0.105302
0.107067
0.108692
0.110179
0.111529
0.11274
0.113807
0.11472
0.115465
0.116022
0.116356
0.116435
0.116204
0.115584
0.114469
0.111574
0.102892
0.0940788
0.0852772
0.0765995
0.0681344
0.0599532
0.0521146
0.0446685
0.03766
0.0311317
0.0251588
0.0197203
0.0149087
0.010778
0.00737865
0.00474053
0.00284243
0.0015915
0.000837551
0.000418193
0.000200657
9.36708e-05
4.2748e-05
1.91372e-05
8.42643e-06
3.65738e-06
1.56784e-06
6.64959e-07
2.79461e-07
1.16529e-07
4.82482e-08
1.98313e-08
8.06992e-09
3.22203e-09
1.22906e-09
4.10231e-10
7.1926e-11
3.88586e-07
1.69861e-06
3.9039e-06
7.60555e-06
1.37915e-05
2.40674e-05
4.10083e-05
6.86795e-05
0.000113379
0.000184652
0.000296584
0.0004693
0.000730489
0.00111656
0.00167267
0.00245084
0.00350582
0.00488869
0.00663982
0.00878312
0.0113232
0.0142462
0.0175226
0.0211121
0.024967
0.0290366
0.0332692
0.0376143
0.0420243
0.0464552
0.0508674
0.055226
0.0595014
0.0636686
0.0677075
0.0716022
0.0753403
0.0789127
0.0823141
0.0855413
0.0885939
0.0914729
0.094181
0.0967218
0.0990999
0.10132
0.103387
0.105306
0.107081
0.108715
0.11021
0.111566
0.112781
0.113851
0.114766
0.115511
0.116067
0.116399
0.116473
0.116235
0.115602
0.114469
0.110376
0.101653
0.0928014
0.0839691
0.07527
0.0667945
0.0586153
0.0507925
0.0433778
0.036418
0.0299577
0.0240641
0.018739
0.0140632
0.0100863
0.00685045
0.00437063
0.00260818
0.00145784
0.000768242
0.000385042
0.000185581
8.70684e-05
3.99414e-05
1.79724e-05
7.95191e-06
3.46662e-06
1.49178e-06
6.34735e-07
2.67438e-07
1.11726e-07
4.63181e-08
1.9052e-08
7.75534e-09
3.09652e-09
1.18101e-09
3.94083e-10
6.90873e-11
3.88061e-07
1.69629e-06
3.89842e-06
7.59415e-06
1.37681e-05
2.40181e-05
4.0902e-05
6.84489e-05
0.000112888
0.000183638
0.00029458
0.000465534
0.000723765
0.00110507
0.00165385
0.00242134
0.00346158
0.00482529
0.00655296
0.00866915
0.0111796
0.0140719
0.017318
0.0208788
0.0247082
0.0287563
0.0329721
0.0373057
0.0417097
0.0461399
0.0505565
0.0549244
0.0592131
0.0633971
0.0674556
0.071372
0.0751332
0.0787296
0.0821552
0.0854065
0.0884825
0.0913839
0.0941132
0.0966737
0.0990701
0.101307
0.103389
0.10532
0.107106
0.108749
0.110251
0.111613
0.112832
0.113904
0.114819
0.115563
0.116116
0.11644
0.116505
0.116252
0.115601
0.11444
0.108884
0.100145
0.091277
0.0824328
0.0737316
0.0652669
0.0571135
0.049333
0.0419786
0.035098
0.0287374
0.0229395
0.0177517
0.0132264
0.00940911
0.00633477
0.00400704
0.00237376
0.00132013
0.00069407
0.000347947
0.000168035
7.90697e-05
3.63989e-05
1.644e-05
7.30186e-06
3.19534e-06
1.38005e-06
5.89175e-07
2.48996e-07
1.04298e-07
4.33359e-08
1.78584e-08
7.2802e-09
2.91006e-09
1.11074e-09
3.70762e-10
6.50158e-11
3.86423e-07
1.68905e-06
3.88143e-06
7.56e-06
1.37034e-05
2.38985e-05
4.06833e-05
6.8052e-05
0.000112173
0.000182363
0.000292336
0.00046166
0.000717224
0.00109433
0.00163674
0.00239504
0.00342269
0.00477012
0.00647792
0.00857119
0.0110567
0.0139229
0.0171434
0.0206802
0.024488
0.0285178
0.0327193
0.0370429
0.0414415
0.0458708
0.050291
0.0546663
0.0589662
0.0631644
0.0672397
0.071175
0.0749565
0.0785742
0.0820215
0.0852945
0.0883918
0.0913137
0.0940625
0.0966416
0.0990549
0.101306
0.103402
0.105345
0.10714
0.108791
0.1103
0.111665
0.112886
0.113958
0.11487
0.115609
0.116153
0.116464
0.116514
0.116241
0.11556
0.114365
0.107314
0.0985798
0.0897075
0.080862
0.0721693
0.0637267
0.0556111
0.0478853
0.0406024
0.03381
0.0275635
0.0218836
0.0168319
0.0124547
0.00879215
0.00587154
0.00368534
0.0021693
0.00120136
0.000630456
0.000316113
0.000152889
7.20977e-05
3.32709e-05
1.5065e-05
6.70759e-06
2.94204e-06
1.27332e-06
5.44636e-07
2.30554e-07
9.67109e-08
4.02319e-08
1.65957e-08
6.7708e-09
2.70801e-09
1.03398e-09
3.45156e-10
6.05328e-11
3.83919e-07
1.67801e-06
3.85559e-06
7.50837e-06
1.36066e-05
2.3723e-05
4.03707e-05
6.75024e-05
0.000111218
0.000180726
0.000289575
0.000457089
0.000709825
0.00108266
0.00161887
0.00236857
0.00338486
0.00471805
0.00640892
0.00848312
0.0109481
0.0137935
0.0169936
0.0205112
0.0243021
0.0283177
0.0325083
0.0368245
0.0412193
0.0456486
0.0500723
0.0544545
0.0587642
0.0629749
0.0670649
0.0710165
0.0748157
0.0784519
0.0819181
0.08521
0.0883258
0.0912656
0.0940317
0.0966267
0.0990542
0.101319
0.103425
0.105378
0.107181
0.108838
0.11035
0.111717
0.112937
0.114004
0.114909
0.115637
0.116167
0.11646
0.116489
0.116191
0.115481
0.114265
0.105921
0.0971658
0.0882642
0.0794
0.0707063
0.0622823
0.0542048
0.0465351
0.039325
0.0326198
0.0264823
0.0209149
0.0159961
0.0117601
0.00824036
0.00545918
0.0033996
0.00198737
0.00109491
0.000572722
0.000286721
0.000138679
6.54507e-05
3.02444e-05
1.37177e-05
6.11911e-06
2.68915e-06
1.16613e-06
4.99716e-07
2.11907e-07
8.90289e-08
3.70876e-08
1.53168e-08
6.25503e-09
2.5035e-09
9.5629e-10
3.19243e-10
5.60013e-11
3.81046e-07
1.66539e-06
3.8263e-06
7.45045e-06
1.34996e-05
2.35318e-05
4.00362e-05
6.69262e-05
0.000110238
0.000179084
0.000286863
0.000452688
0.000702832
0.00107181
0.00160251
0.00234464
0.00335106
0.00467199
0.00634846
0.00840661
0.0108546
0.0136828
0.0168663
0.0203688
0.0241465
0.0281512
0.0323337
0.0366448
0.0410376
0.0454679
0.0498955
0.0542843
0.0586031
0.062825
0.0669279
0.0708939
0.0747085
0.0783607
0.0818433
0.0851515
0.0882832
0.0912386
0.094019
0.0966268
0.0990663
0.101342
0.103457
0.105418
0.107226
0.108886
0.110399
0.111764
0.112979
0.114038
0.11493
0.11564
0.116145
0.116406
0.116397
0.116053
0.115296
0.114051
0.105183
0.0961363
0.0870732
0.0781263
0.0694011
0.0609815
0.0529354
0.0453189
0.0381807
0.0315651
0.0255453
0.0200907
0.0152766
0.0111532
0.00775711
0.00509966
0.00315237
0.00183119
0.00100407
0.000523595
0.000261702
0.000126543
5.97431e-05
2.76268e-05
1.25424e-05
5.601e-06
2.46434e-06
1.06992e-06
4.59033e-07
1.94876e-07
8.19606e-08
3.41759e-08
1.41261e-08
5.77271e-09
2.31157e-09
8.83179e-10
2.94809e-10
5.17315e-11
3.78074e-07
1.65236e-06
3.79613e-06
7.39103e-06
1.33903e-05
2.33377e-05
3.96992e-05
6.63502e-05
0.000109268
0.000177474
0.000284233
0.000448474
0.000696222
0.00106169
0.00158745
0.00232292
0.00332076
0.00463121
0.00629554
0.00834033
0.0107744
0.0135887
0.0167591
0.0202497
0.0240171
0.0280139
0.0321907
0.0364986
0.0408907
0.0453228
0.0497546
0.05415
0.0584771
0.0627092
0.0668236
0.0708022
0.0746301
0.0782961
0.0817925
0.0851144
0.0882598
0.0912279
0.0940199
0.0966387
0.099088
0.101372
0.103494
0.10546
0.107272
0.108933
0.110445
0.111807
0.113014
0.114061
0.114936
0.11562
0.116086
0.116294
0.116205
0.115742
0.114805
0.113289
0.104253
0.0950812
0.0859378
0.0769487
0.0682124
0.0598067
0.0517946
0.0442285
0.0371535
0.030611
0.0246601
0.0193022
0.0146019
0.0105985
0.00732577
0.00478537
0.00293908
0.00169728
0.000926282
0.000481416
0.000240105
0.000116005
5.47563e-05
2.53259e-05
1.15036e-05
5.14074e-06
2.26375e-06
9.83745e-07
4.22467e-07
1.79526e-07
7.55743e-08
3.15399e-08
1.30462e-08
5.33467e-09
2.13705e-09
8.16637e-10
2.72565e-10
4.78619e-11
3.75199e-07
1.63977e-06
3.76707e-06
7.33399e-06
1.32858e-05
2.31531e-05
3.93805e-05
6.58091e-05
0.000108363
0.000175984
0.00028182
0.00044464
0.000690257
0.00105264
0.00157408
0.00230378
0.00329427
0.00459583
0.00624995
0.00828365
0.0107063
0.0135094
0.0166692
0.0201505
0.0239103
0.0279012
0.0320742
0.0363804
0.0407729
0.0452075
0.0496437
0.0540453
0.0583803
0.0626214
0.066746
0.0707356
0.0745751
0.0782529
0.0817612
0.085095
0.0882513
0.0912296
0.0940313
0.0966589
0.0991159
0.101406
0.103534
0.105503
0.107317
0.108979
0.110489
0.111846
0.113047
0.114083
0.114942
0.115605
0.11604
0.116207
0.116058
0.115505
0.114428
0.112449
0.103296
0.0940512
0.0848681
0.0758669
0.0671421
0.0587686
0.0508071
0.0433078
0.0363141
0.0298649
0.0240109
0.0187468
0.0141359
0.0102117
0.00699735
0.00452932
0.00276104
0.00158473
0.000860716
0.000445801
0.000221829
0.000107063
5.05109e-05
2.33598e-05
1.06124e-05
4.74422e-06
2.09023e-06
9.08901e-07
3.90592e-07
1.66098e-07
6.99708e-08
2.92207e-08
1.2094e-08
4.94766e-09
1.98261e-09
7.57748e-10
2.52879e-10
4.44394e-11
3.72528e-07
1.62808e-06
3.74013e-06
7.2812e-06
1.31893e-05
2.29832e-05
3.90882e-05
6.53149e-05
0.000107541
0.000174636
0.00027965
0.00044121
0.000684955
0.00104464
0.00156236
0.00228711
0.00327135
0.00456542
0.00621103
0.00823557
0.0106488
0.0134429
0.0165945
0.0200687
0.0238227
0.0278094
0.03198
0.0362855
0.0406792
0.0451166
0.0495573
0.0539647
0.0583068
0.0625561
0.0666897
0.0706888
0.0745381
0.0782259
0.0817443
0.0850876
0.0882529
0.0912398
0.0940493
0.096684
0.0991469
0.101442
0.103574
0.105546
0.107361
0.109022
0.11053
0.111884
0.113079
0.114109
0.114959
0.115611
0.116033
0.116189
0.116033
0.115484
0.114441
0.111536
0.102338
0.0930629
0.0838661
0.0748662
0.0661559
0.0578081
0.0498821
0.0424275
0.0354865
0.029099
0.0233042
0.0181249
0.0136074
0.00978902
0.00669713
0.00430974
0.00260696
0.00148793
0.000804735
0.000415497
0.000206292
9.94574e-05
4.68945e-05
2.1682e-05
9.85019e-06
4.40438e-06
1.94117e-06
8.44474e-07
3.63097e-07
1.54493e-07
6.51196e-08
2.72097e-08
1.12672e-08
4.61111e-09
1.84827e-09
7.0665e-10
2.35833e-10
4.14709e-11
3.70119e-07
1.61755e-06
3.71586e-06
7.23374e-06
1.31028e-05
2.28312e-05
3.88273e-05
6.48753e-05
0.000106812
0.000173446
0.000277742
0.000438209
0.000680339
0.00103772
0.00155225
0.00227281
0.00325179
0.00453959
0.00617814
0.00819517
0.0106009
0.0133877
0.0165328
0.0200015
0.0237512
0.0277351
0.0319043
0.03621
0.0406052
0.0450456
0.0494906
0.0539034
0.0582519
0.0625084
0.0666497
0.070657
0.0745148
0.0782112
0.0817376
0.0850886
0.0882614
0.0912552
0.094071
0.096711
0.0991785
0.101477
0.103611
0.105585
0.107401
0.109061
0.110567
0.111918
0.113109
0.114133
0.114977
0.115622
0.116038
0.116189
0.116029
0.115482
0.114445
0.110635
0.101429
0.0921586
0.0829749
0.0739967
0.0653183
0.0570114
0.0491336
0.0417339
0.0348436
0.028502
0.0227427
0.0176194
0.0131702
0.00942692
0.00641162
0.00411884
0.00248035
0.00140639
0.000757449
0.000389937
0.000193196
9.30466e-05
4.38443e-05
2.02652e-05
9.20567e-06
4.11653e-06
1.81471e-06
7.89709e-07
3.39684e-07
1.44595e-07
6.09754e-08
2.54894e-08
1.0559e-08
4.32272e-09
1.73311e-09
6.62866e-10
2.21224e-10
3.89206e-11
3.67995e-07
1.60826e-06
3.69449e-06
7.192e-06
1.30268e-05
2.2698e-05
3.85992e-05
6.44917e-05
0.000106177
0.000172414
0.000276092
0.000435624
0.000676376
0.00103179
0.00154364
0.00226068
0.00323527
0.00451788
0.00615063
0.00816153
0.0105611
0.0133422
0.0164822
0.0199467
0.0236934
0.0276754
0.0318439
0.0361502
0.0405472
0.0449906
0.0494395
0.0538573
0.0582114
0.0624741
0.0666221
0.0706363
0.0745012
0.0782045
0.0817376
0.085095
0.0882738
0.091273
0.0940936
0.0967376
0.0992084
0.10151
0.103645
0.105619
0.107435
0.109094
0.110598
0.111946
0.113133
0.114152
0.11499
0.11563
0.11604
0.116185
0.116023
0.115475
0.114442
0.109823
0.100612
0.0913448
0.0821773
0.0732268
0.0645808
0.0563034
0.0484527
0.0410752
0.0342224
0.0279309
0.0222354
0.0171761
0.0127927
0.00911704
0.0061691
0.00393949
0.00236951
0.00133922
0.000717738
0.000368422
0.000182202
8.76704e-05
4.12871e-05
1.9077e-05
8.66477e-06
3.87473e-06
1.70834e-06
7.43594e-07
3.19943e-07
1.36238e-07
5.74722e-08
2.40336e-08
9.9591e-09
4.07827e-09
1.63544e-09
6.2572e-10
2.08826e-10
3.6759e-11
3.66159e-07
1.60024e-06
3.67605e-06
7.156e-06
1.29613e-05
2.25834e-05
3.84033e-05
6.41631e-05
0.000105635
0.000171534
0.000274689
0.000433431
0.000673025
0.0010268
0.0015364
0.00225053
0.00322149
0.00449983
0.00612785
0.00813379
0.0105285
0.013305
0.0164411
0.0199025
0.0236469
0.0276277
0.031796
0.0361032
0.0405021
0.0449482
0.0494008
0.0538228
0.0581818
0.0624499
0.0666035
0.0706235
0.0744942
0.0782031
0.0817416
0.0851042
0.0882876
0.091291
0.094115
0.096762
0.099235
0.101538
0.103674
0.105648
0.107462
0.10912
0.110621
0.111965
0.113148
0.114162
0.114995
0.115629
0.116033
0.116174
0.116009
0.11546
0.114431
0.109123
0.099903
0.0906403
0.0814861
0.0725467
0.0639107
0.0556554
0.0478368
0.0405022
0.0336936
0.0274494
0.0218046
0.0167996
0.0124733
0.00885621
0.00596666
0.0037917
0.00226833
0.00128173
0.000685575
0.000350659
0.000173068
8.32127e-05
3.91678e-05
1.8092e-05
8.21604e-06
3.6739e-06
1.61989e-06
7.05189e-07
3.03479e-07
1.29259e-07
5.45428e-08
2.28148e-08
9.45642e-09
3.87324e-09
1.55346e-09
5.94504e-10
1.98405e-10
3.49436e-11
3.64603e-07
1.59344e-06
3.66043e-06
7.12554e-06
1.2906e-05
2.24866e-05
3.82382e-05
6.38864e-05
0.000105179
0.000170795
0.000273515
0.000431601
0.000670235
0.00102265
0.00153041
0.00224214
0.00321014
0.00448502
0.00610922
0.00811119
0.010502
0.013275
0.016408
0.019867
0.0236099
0.02759
0.0317584
0.0360665
0.0404672
0.0449159
0.0493715
0.0537973
0.0581604
0.0624329
0.0665912
0.070616
0.0744912
0.0782046
0.0817474
0.0851139
0.0883009
0.0913073
0.0941339
0.0967828
0.0992571
0.10156
0.103697
0.10567
0.107483
0.109138
0.110636
0.111976
0.113154
0.114163
0.114991
0.11562
0.116018
0.116155
0.115987
0.115438
0.114415
0.108527
0.0992948
0.0900325
0.0808793
0.0719524
0.0633394
0.0551104
0.0473219
0.0400214
0.03325
0.027046
0.0214437
0.0164846
0.0122064
0.00863916
0.00579925
0.00367073
0.00218692
0.00123038
0.000658474
0.000336692
0.000165785
7.95925e-05
3.74379e-05
1.72862e-05
7.84808e-06
3.50888e-06
1.54708e-06
6.73523e-07
2.89885e-07
1.23489e-07
5.21179e-08
2.18048e-08
9.03952e-09
3.70307e-09
1.48539e-09
5.68562e-10
1.89744e-10
3.3434e-11
3.63313e-07
1.5878e-06
3.64747e-06
7.10029e-06
1.28602e-05
2.24065e-05
3.81017e-05
6.36582e-05
0.000104804
0.000170189
0.000272551
0.000430101
0.000667954
0.00101927
0.00152554
0.00223533
0.00320095
0.00447306
0.00609421
0.00809303
0.0104808
0.013251
0.0163817
0.019839
0.0235808
0.0275604
0.0317291
0.0360382
0.0404404
0.0448913
0.0493496
0.0537784
0.0581449
0.062421
0.066583
0.0706115
0.0744903
0.0782072
0.0817532
0.0851227
0.0883122
0.0913207
0.094149
0.096799
0.0992739
0.101577
0.103713
0.105684
0.107495
0.109148
0.110642
0.111979
0.113152
0.114156
0.114979
0.115602
0.115995
0.116128
0.115958
0.115411
0.114397
0.108035
0.0987862
0.0895186
0.0803728
0.0714593
0.0628649
0.0546582
0.0468955
0.0396234
0.0328831
0.0267125
0.0211457
0.0162246
0.0119865
0.00846076
0.00566221
0.00357232
0.00212134
0.00118969
0.000634592
0.000324646
0.000159993
7.67397e-05
3.60495e-05
1.66324e-05
7.54855e-06
3.37437e-06
1.48765e-06
6.47649e-07
2.78766e-07
1.18766e-07
5.01319e-08
2.09772e-08
8.69783e-09
3.56356e-09
1.42959e-09
5.47288e-10
1.82642e-10
3.21954e-11
3.6227e-07
1.58325e-06
3.63701e-06
7.07992e-06
1.28232e-05
2.2342e-05
3.79919e-05
6.34747e-05
0.000104502
0.000169702
0.000271779
0.000428902
0.000666132
0.00101657
0.00152166
0.00222992
0.00319367
0.0044636
0.00608237
0.00807875
0.0104642
0.0132323
0.0163613
0.0198172
0.0235583
0.0275377
0.0317067
0.0360166
0.0404202
0.0448728
0.0493333
0.0537645
0.0581336
0.0624125
0.0665773
0.0706085
0.07449
0.0782095
0.0817579
0.0851293
0.0883206
0.0913305
0.0941597
0.0968101
0.0992849
0.101588
0.103722
0.105692
0.1075
0.10915
0.110641
0.111973
0.113142
0.114141
0.114958
0.115576
0.115965
0.116095
0.115923
0.115379
0.114377
0.107638
0.0983742
0.0891015
0.0799599
0.0710572
0.062478
0.0542901
0.0465487
0.0393002
0.0325856
0.0264423
0.0209045
0.0160144
0.011809
0.00831697
0.00555204
0.00349351
0.0020691
0.00115755
0.00061596
0.000314199
0.000154659
7.42998e-05
3.49374e-05
1.61115e-05
7.30791e-06
3.2657e-06
1.43959e-06
6.26732e-07
2.69789e-07
1.14955e-07
4.85312e-08
2.0311e-08
8.42326e-09
3.45147e-09
1.38478e-09
5.3023e-10
1.7695e-10
3.1203e-11
3.61458e-07
1.57971e-06
3.62888e-06
7.06407e-06
1.27945e-05
2.22919e-05
3.79066e-05
6.33324e-05
0.000104269
0.000169325
0.000271183
0.000427976
0.000664728
0.0010145
0.00151867
0.00222577
0.00318808
0.00445636
0.00607333
0.00806787
0.0104515
0.0132181
0.0163458
0.0198008
0.0235413
0.0275206
0.03169
0.0360006
0.0404052
0.0448592
0.0493213
0.0537543
0.0581254
0.0624062
0.066573
0.0706061
0.0744895
0.0782106
0.0817605
0.0851333
0.0883255
0.0913361
0.0941656
0.0968159
0.0992901
0.101592
0.103725
0.105693
0.107499
0.109145
0.110632
0.11196
0.113125
0.114119
0.114931
0.115544
0.115929
0.116057
0.115886
0.115347
0.114358
0.107323
0.0980437
0.0887678
0.0796304
0.0707371
0.0621709
0.0539986
0.0462749
0.0390456
0.0323516
0.0262302
0.0207155
0.0158499
0.0116703
0.0082049
0.00546641
0.00343243
0.00202878
0.0011329
0.000601883
0.000306582
0.000150706
7.22906e-05
3.39776e-05
1.56863e-05
7.1184e-06
3.18128e-06
1.40231e-06
6.10504e-07
2.62824e-07
1.12002e-07
4.7292e-08
1.97957e-08
8.212e-09
3.36526e-09
1.35033e-09
5.1712e-10
1.72574e-10
3.04406e-11
3.60864e-07
1.57711e-06
3.62292e-06
7.05247e-06
1.27735e-05
2.22553e-05
3.78443e-05
6.32284e-05
0.000104098
0.00016905
0.000270747
0.000427301
0.000663705
0.00101299
0.00151651
0.00222276
0.00318404
0.00445112
0.00606679
0.00806001
0.0104424
0.0132079
0.0163347
0.0197891
0.0235292
0.0275085
0.0316781
0.0359892
0.0403946
0.0448495
0.0493127
0.053747
0.0581194
0.0624015
0.0665695
0.0706038
0.0744882
0.0782103
0.0817611
0.0851345
0.0883272
0.0913379
0.0941673
0.0968172
0.0992906
0.101591
0.103722
0.105688
0.107491
0.109134
0.110618
0.111942
0.113102
0.114091
0.114899
0.115508
0.11589
0.116016
0.115847
0.115315
0.114342
0.107091
0.0977955
0.0885149
0.0793803
0.0704944
0.0619388
0.0537791
0.0460694
0.0388553
0.0321772
0.0260725
0.0205753
0.0157282
0.0115679
0.00812242
0.00540357
0.00338776
0.00199936
0.00111494
0.000591646
0.000301075
0.000147879
7.08949e-05
3.33061e-05
1.53671e-05
6.97663e-06
3.11935e-06
1.3756e-06
5.98989e-07
2.57929e-07
1.09924e-07
4.64262e-08
1.94338e-08
8.06314e-09
3.30424e-09
1.32587e-09
5.07784e-10
1.69452e-10
2.98963e-11
3.60476e-07
1.57541e-06
3.61902e-06
7.04489e-06
1.27597e-05
2.22314e-05
3.78036e-05
6.31606e-05
0.000103987
0.000168871
0.000270464
0.000426863
0.000663041
0.00101201
0.0015151
0.0022208
0.00318142
0.00444773
0.00606257
0.00805494
0.0104365
0.0132013
0.0163275
0.0197815
0.0235215
0.0275007
0.0316704
0.0359819
0.0403878
0.0448433
0.0493072
0.0537422
0.0581153
0.0623982
0.0665668
0.0706016
0.0744865
0.078209
0.0817601
0.0851337
0.0883264
0.091337
0.094166
0.0968152
0.0992876
0.101587
0.103716
0.10568
0.107481
0.109121
0.110602
0.111922
0.113078
0.114063
0.114866
0.115471
0.115851
0.115977
0.11581
0.115286
0.114331
0.106938
0.0976263
0.0883405
0.0792073
0.0703271
0.0617795
0.0536294
0.04593
0.0387269
0.0320602
0.0259672
0.0204821
0.0156476
0.0115004
0.00806822
0.00536248
0.00335869
0.0019803
0.00110331
0.00058501
0.000297503
0.000146046
6.99963e-05
3.28897e-05
1.51694e-05
6.8861e-06
3.07802e-06
1.35792e-06
5.91328e-07
2.54731e-07
1.08567e-07
4.58657e-08
1.91996e-08
7.96723e-09
3.26494e-09
1.31014e-09
5.01805e-10
1.67452e-10
2.95478e-11
3.60286e-07
1.57459e-06
3.61713e-06
7.04122e-06
1.27531e-05
2.22198e-05
3.77841e-05
6.31281e-05
0.000103934
0.000168786
0.00027033
0.000426655
0.000662727
0.00101154
0.00151444
0.00221988
0.00318018
0.00444613
0.00606057
0.00805254
0.0104338
0.0131982
0.0163241
0.0197779
0.0235178
0.027497
0.0316668
0.0359784
0.0403845
0.0448403
0.0493045
0.0537399
0.0581133
0.0623964
0.0665653
0.0706002
0.074485
0.0782075
0.0817586
0.0851321
0.0883247
0.091335
0.0941636
0.0968123
0.099284
0.101582
0.10371
0.105673
0.107472
0.10911
0.110588
0.111906
0.113059
0.114041
0.114841
0.115444
0.115821
0.115946
0.115782
0.115264
0.114324
0.106863
0.0975372
0.088247
0.0791148
0.0702382
0.0616959
0.0535517
0.0458585
0.0386617
0.0320013
0.0259148
0.0204362
0.0156082
0.0114677
0.00804219
0.0053429
0.00334497
0.00197138
0.00109792
0.000581943
0.000295852
0.000145197
6.95806e-05
3.26989e-05
1.50794e-05
6.84562e-06
3.05945e-06
1.34968e-06
5.87676e-07
2.5318e-07
1.07904e-07
4.55914e-08
1.90851e-08
7.92016e-09
3.24568e-09
1.30244e-09
4.98886e-10
1.66475e-10
2.93777e-11
3.60287e-07
1.57459e-06
3.61714e-06
7.04123e-06
1.27531e-05
2.22199e-05
3.77842e-05
6.31282e-05
0.000103934
0.000168786
0.00027033
0.000426655
0.000662728
0.00101154
0.00151444
0.00221988
0.00318018
0.00444614
0.00606058
0.00805255
0.0104338
0.0131982
0.0163241
0.0197779
0.0235178
0.027497
0.0316668
0.0359784
0.0403845
0.0448403
0.0493045
0.0537399
0.0581133
0.0623964
0.0665653
0.0706002
0.0744851
0.0782075
0.0817586
0.0851321
0.0883247
0.091335
0.0941636
0.0968123
0.099284
0.101582
0.10371
0.105673
0.107472
0.10911
0.110588
0.111906
0.113059
0.114041
0.114841
0.115444
0.115821
0.115946
0.115782
0.115264
0.114324
0.106863
0.0975373
0.0882471
0.0791148
0.0702383
0.061696
0.0535518
0.0458586
0.0386617
0.0320014
0.0259149
0.0204363
0.0156083
0.0114677
0.00804221
0.00534292
0.00334498
0.00197139
0.00109793
0.000581945
0.000295854
0.000145198
6.9581e-05
3.26987e-05
1.50793e-05
6.84552e-06
3.05941e-06
1.34965e-06
5.87665e-07
2.53174e-07
1.07902e-07
4.559e-08
1.90845e-08
7.91971e-09
3.24552e-09
1.30239e-09
4.98868e-10
1.6647e-10
2.93766e-11
3.60477e-07
1.57542e-06
3.61904e-06
7.04492e-06
1.27598e-05
2.22314e-05
3.78038e-05
6.31608e-05
0.000103988
0.000168872
0.000270465
0.000426864
0.000663044
0.00101201
0.00151511
0.00222081
0.00318143
0.00444774
0.00606258
0.00805496
0.0104366
0.0132013
0.0163275
0.0197815
0.0235215
0.0275007
0.0316704
0.0359819
0.0403878
0.0448433
0.0493072
0.0537422
0.0581154
0.0623982
0.0665668
0.0706016
0.0744865
0.078209
0.0817601
0.0851337
0.0883264
0.091337
0.094166
0.0968152
0.0992876
0.101587
0.103716
0.10568
0.107481
0.109121
0.110602
0.111922
0.113078
0.114063
0.114866
0.115471
0.115851
0.115977
0.11581
0.115286
0.114331
0.106938
0.0976265
0.0883407
0.0792075
0.0703272
0.0617797
0.0536296
0.0459302
0.038727
0.0320603
0.0259674
0.0204823
0.0156477
0.0115005
0.00806828
0.00536253
0.00335873
0.00198032
0.00110333
0.000585017
0.000297507
0.000146048
6.99973e-05
3.28894e-05
1.51694e-05
6.88589e-06
3.07794e-06
1.35785e-06
5.91304e-07
2.54717e-07
1.08562e-07
4.5862e-08
1.91983e-08
7.96597e-09
3.26451e-09
1.31001e-09
5.01762e-10
1.6744e-10
2.95452e-11
3.60866e-07
1.57712e-06
3.62294e-06
7.05252e-06
1.27735e-05
2.22554e-05
3.78445e-05
6.32288e-05
0.000104099
0.000169051
0.000270749
0.000427304
0.000663709
0.00101299
0.00151651
0.00222277
0.00318405
0.00445114
0.00606681
0.00806004
0.0104424
0.0132079
0.0163347
0.0197891
0.0235293
0.0275085
0.0316781
0.0359892
0.0403946
0.0448495
0.0493128
0.053747
0.0581194
0.0624015
0.0665695
0.0706038
0.0744882
0.0782103
0.0817611
0.0851345
0.0883272
0.0913379
0.0941673
0.0968172
0.0992906
0.101591
0.103722
0.105688
0.107491
0.109134
0.110618
0.111942
0.113102
0.114091
0.114899
0.115508
0.11589
0.116016
0.115847
0.115315
0.114343
0.107091
0.0977958
0.0885153
0.0793806
0.0704947
0.0619391
0.0537794
0.0460697
0.0388555
0.0321774
0.0260728
0.0205755
0.0157284
0.0115681
0.00812253
0.00540366
0.00338782
0.0019994
0.00111496
0.000591659
0.000301081
0.000147882
7.08965e-05
3.33068e-05
1.53673e-05
6.97657e-06
3.11932e-06
1.37555e-06
5.98967e-07
2.57914e-07
1.09917e-07
4.64207e-08
1.94329e-08
8.06171e-09
3.30374e-09
1.32571e-09
5.0774e-10
1.6944e-10
2.98936e-11
3.61462e-07
1.57972e-06
3.62891e-06
7.06414e-06
1.27946e-05
2.22921e-05
3.7907e-05
6.33329e-05
0.00010427
0.000169326
0.000271185
0.000427979
0.000664733
0.0010145
0.00151868
0.00222578
0.0031881
0.00445638
0.00607336
0.0080679
0.0104516
0.0132181
0.0163458
0.0198009
0.0235414
0.0275207
0.03169
0.0360006
0.0404053
0.0448592
0.0493213
0.0537543
0.0581254
0.0624063
0.066573
0.0706061
0.0744895
0.0782106
0.0817605
0.0851333
0.0883255
0.0913361
0.0941655
0.0968159
0.0992901
0.101592
0.103725
0.105693
0.107499
0.109145
0.110632
0.11196
0.113125
0.114119
0.114931
0.115544
0.115929
0.116057
0.115886
0.115347
0.114358
0.107324
0.0980442
0.0887683
0.079631
0.0707376
0.0621714
0.0539991
0.0462753
0.039046
0.032352
0.0262305
0.0207158
0.0158501
0.0116705
0.00820506
0.00546653
0.00343252
0.00202883
0.00113293
0.000601901
0.000306591
0.000150711
7.22929e-05
3.39787e-05
1.56867e-05
7.1185e-06
3.18129e-06
1.40231e-06
6.10503e-07
2.62822e-07
1.12001e-07
4.72912e-08
1.97963e-08
8.21152e-09
3.36508e-09
1.35028e-09
5.17114e-10
1.72573e-10
3.04395e-11
3.62274e-07
1.58327e-06
3.63705e-06
7.08e-06
1.28234e-05
2.23423e-05
3.79923e-05
6.34754e-05
0.000104504
0.000169703
0.000271782
0.000428906
0.000666138
0.00101658
0.00152167
0.00222994
0.00319369
0.00446363
0.0060824
0.00807879
0.0104642
0.0132324
0.0163613
0.0198173
0.0235583
0.0275377
0.0317068
0.0360167
0.0404203
0.0448729
0.0493333
0.0537645
0.0581337
0.0624125
0.0665773
0.0706085
0.07449
0.0782095
0.0817579
0.0851293
0.0883206
0.0913305
0.0941596
0.0968101
0.0992849
0.101587
0.103722
0.105692
0.1075
0.10915
0.110641
0.111973
0.113142
0.114141
0.114958
0.115576
0.115965
0.116095
0.115923
0.115379
0.114377
0.107638
0.0983749
0.0891022
0.0799606
0.0710579
0.0624787
0.0542907
0.0465493
0.0393008
0.0325861
0.0264427
0.0209049
0.0160147
0.0118092
0.00831718
0.0055522
0.00349362
0.00206917
0.00115759
0.000615985
0.000314212
0.000154665
7.4303e-05
3.49388e-05
1.61122e-05
7.30819e-06
3.26585e-06
1.43966e-06
6.26763e-07
2.69801e-07
1.14961e-07
4.85332e-08
2.03118e-08
8.42354e-09
3.45159e-09
1.38483e-09
5.3026e-10
1.7696e-10
3.12035e-11
3.63318e-07
1.58783e-06
3.64752e-06
7.10039e-06
1.28603e-05
2.24068e-05
3.81022e-05
6.3659e-05
0.000104805
0.000170191
0.000272554
0.000430106
0.000667961
0.00101928
0.00152555
0.00223535
0.00320098
0.00447309
0.00609425
0.00809308
0.0104809
0.0132511
0.0163818
0.0198391
0.0235809
0.0275605
0.0317292
0.0360383
0.0404405
0.0448913
0.0493497
0.0537784
0.0581449
0.062421
0.066583
0.0706115
0.0744903
0.0782072
0.0817532
0.0851227
0.0883122
0.0913207
0.094149
0.096799
0.0992739
0.101577
0.103713
0.105684
0.107495
0.109148
0.110642
0.111979
0.113152
0.114156
0.114979
0.115602
0.115995
0.116128
0.115958
0.115411
0.114397
0.108036
0.0987871
0.0895194
0.0803736
0.0714602
0.0628657
0.054659
0.0468962
0.0396241
0.0328838
0.026713
0.0211462
0.016225
0.0119869
0.00846104
0.00566241
0.00357247
0.00212143
0.00118975
0.000634624
0.000324662
0.000160001
7.67435e-05
3.60513e-05
1.66333e-05
7.549e-06
3.37457e-06
1.48774e-06
6.47687e-07
2.78783e-07
1.18773e-07
5.01348e-08
2.09784e-08
8.69831e-09
3.56376e-09
1.42967e-09
5.47336e-10
1.82659e-10
3.21967e-11
3.64609e-07
1.59347e-06
3.66049e-06
7.12565e-06
1.29062e-05
2.24869e-05
3.82387e-05
6.38874e-05
0.000105181
0.000170798
0.000273518
0.000431606
0.000670244
0.00102266
0.00153043
0.00224216
0.00321017
0.00448506
0.00610927
0.00811125
0.0105021
0.0132751
0.0164081
0.0198671
0.02361
0.02759
0.0317585
0.0360666
0.0404672
0.0449159
0.0493716
0.0537973
0.0581604
0.0624329
0.0665912
0.070616
0.0744912
0.0782046
0.0817474
0.0851139
0.0883009
0.0913073
0.0941339
0.0967828
0.0992571
0.10156
0.103697
0.10567
0.107483
0.109138
0.110636
0.111976
0.113154
0.114163
0.114991
0.11562
0.116018
0.116155
0.115987
0.115438
0.114415
0.108528
0.0992958
0.0900334
0.0808802
0.0719533
0.0633403
0.0551112
0.0473227
0.0400221
0.0332507
0.0270466
0.0214443
0.0164851
0.0122068
0.0086395
0.00579951
0.00367091
0.00218704
0.00123045
0.000658513
0.000336712
0.000165795
7.95975e-05
3.74404e-05
1.72874e-05
7.84862e-06
3.50912e-06
1.54718e-06
6.7357e-07
2.89905e-07
1.23498e-07
5.21216e-08
2.18063e-08
9.04015e-09
3.70333e-09
1.4855e-09
5.68623e-10
1.89765e-10
3.34357e-11
3.66166e-07
1.60027e-06
3.67612e-06
7.15613e-06
1.29616e-05
2.25838e-05
3.8404e-05
6.41642e-05
0.000105637
0.000171536
0.000274693
0.000433438
0.000673035
0.00102681
0.00153643
0.00225055
0.00322153
0.00449988
0.00612791
0.00813386
0.0105286
0.0133051
0.0164412
0.0199026
0.023647
0.0276278
0.0317961
0.0361033
0.0405021
0.0449483
0.0494009
0.0538229
0.0581819
0.0624499
0.0666036
0.0706236
0.0744942
0.0782031
0.0817416
0.0851042
0.0882876
0.0912909
0.094115
0.096762
0.099235
0.101538
0.103674
0.105648
0.107462
0.10912
0.110621
0.111965
0.113148
0.114162
0.114995
0.115629
0.116033
0.116174
0.116009
0.11546
0.114431
0.109124
0.0999037
0.0906409
0.0814868
0.0725474
0.0639114
0.055656
0.0478374
0.0405028
0.0336943
0.0274501
0.0218052
0.0168002
0.0124738
0.00885661
0.00596697
0.00379192
0.00226847
0.00128181
0.000685623
0.000350685
0.000173081
8.32193e-05
3.9171e-05
1.80935e-05
8.2167e-06
3.6742e-06
1.62002e-06
7.05247e-07
3.03504e-07
1.2927e-07
5.45473e-08
2.28166e-08
9.45719e-09