/*--------------------------------*- C++ -*----------------------------------*\
  =========                 |
  \\      /  F ield         | OpenFOAM: The Open Source CFD Toolbox
   \\    /   O peration     | Website:  https://openfoam.org
    \\  /    A nd           | Version:  8
     \\/     M anipulation  |
\*---------------------------------------------------------------------------*/
FoamFile
{
    version     2.0;
    format      ascii;
    class       volScalarField;
    location    "980/fluid";
    object      N2;
}
// * * * * * * * * * * * * * * * * * * * * * * * * * * * * * * * * * * * * * //

dimensions      [0 0 0 0 0 0 0];

internalField   nonuniform List<scalar> 
4000
(
2.30548e-06
1.00743e-05
2.31374e-05
4.50347e-05
8.1584e-05
0.000142254
0.000242272
0.000405781
0.000670403
0.00109358
0.00176082
0.00279558
0.0043693
0.00670876
0.0100963
0.0148573
0.0213321
0.0298332
0.0405991
0.0537581
0.0693142
0.0871553
0.107077
0.128814
0.152064
0.176511
0.201844
0.227764
0.253991
0.280271
0.30638
0.33212
0.357326
0.381858
0.405609
0.428491
0.450437
0.471403
0.491362
0.510302
0.528224
0.545141
0.561072
0.576045
0.590093
0.603252
0.615562
0.627063
0.637797
0.647805
0.65713
0.665812
0.673891
0.681405
0.688391
0.694885
0.70092
0.706452
0.711533
0.716393
0.720914
0.725122
0.728988
0.732699
0.73625
0.739644
0.742884
0.74597
0.748899
0.751671
0.75428
0.756721
0.758986
0.761057
0.762944
0.764621
0.766073
0.767282
0.768234
0.768931
0.769399
0.769684
0.769843
0.769925
0.769965
0.769984
0.769993
0.769997
0.769999
0.769999
0.77
0.77
0.77
0.77
0.77
0.77
0.77
0.77
0.77
0.77
2.30749e-06
1.00854e-05
2.31731e-05
4.51319e-05
8.18163e-05
0.000142751
0.000243229
0.000407437
0.000672932
0.00109678
0.00176349
0.00279442
0.00435734
0.00667305
0.0100159
0.0147023
0.0210649
0.0294127
0.0399875
0.0529278
0.0682529
0.0858677
0.105584
0.127147
0.150264
0.174622
0.19991
0.225825
0.252084
0.278427
0.304623
0.33047
0.355796
0.380458
0.404343
0.427361
0.449441
0.470537
0.490621
0.509678
0.527709
0.544727
0.56075
0.575807
0.58993
0.603156
0.615526
0.627079
0.637859
0.647907
0.657266
0.665977
0.67408
0.681615
0.688618
0.695125
0.701171
0.706708
0.711793
0.716658
0.721182
0.725388
0.72926
0.73298
0.736539
0.739941
0.743187
0.746278
0.749212
0.751985
0.754595
0.757033
0.759293
0.761353
0.763223
0.764876
0.766296
0.767464
0.768371
0.769023
0.769453
0.769712
0.769856
0.769931
0.769968
0.769985
0.769993
0.769997
0.769999
0.769999
0.77
0.77
0.77
0.77
0.77
0.77
0.77
0.77
0.77
0.77
2.3125e-06
1.01085e-05
2.32323e-05
4.5261e-05
8.20738e-05
0.000143226
0.000244042
0.000408712
0.000674718
0.00109886
0.00176494
0.00279274
0.00434701
0.00664441
0.00995355
0.0145841
0.0208615
0.0290899
0.0395093
0.0522618
0.067375
0.0847655
0.104259
0.125613
0.148547
0.172756
0.197935
0.223782
0.250014
0.276369
0.302611
0.328535
0.353962
0.378745
0.402766
0.425928
0.44816
0.469409
0.489643
0.508848
0.527022
0.544174
0.560323
0.575496
0.589727
0.603051
0.615508
0.627139
0.637988
0.648097
0.657508
0.666264
0.674406
0.681973
0.689003
0.695532
0.701594
0.707138
0.712227
0.717093
0.721608
0.725812
0.729702
0.733436
0.737005
0.740412
0.743661
0.746751
0.74968
0.752446
0.755042
0.757462
0.759697
0.761729
0.763559
0.765166
0.766533
0.767645
0.768498
0.769103
0.769499
0.769736
0.769868
0.769936
0.76997
0.769986
0.769994
0.769997
0.769999
0.769999
0.77
0.77
0.77
0.77
0.77
0.77
0.77
0.77
0.77
0.77
2.30942e-06
1.0095e-05
2.32003e-05
4.51943e-05
8.19366e-05
0.000142936
0.000243415
0.00040735
0.00067181
0.00109285
0.00175306
0.0027704
0.0043071
0.0065762
0.00984183
0.0144089
0.0205988
0.0287134
0.0389934
0.051585
0.0665223
0.0837304
0.103043
0.124229
0.147011
0.171093
0.196172
0.221951
0.248147
0.274499
0.300769
0.326748
0.352255
0.377139
0.401276
0.424567
0.446937
0.46833
0.48871
0.508059
0.526373
0.54366
0.559938
0.575233
0.589576
0.603005
0.615555
0.627271
0.638195
0.64837
0.657839
0.666646
0.67483
0.682432
0.689491
0.696043
0.702123
0.707667
0.71275
0.717615
0.722138
0.726338
0.730244
0.733985
0.737557
0.740964
0.744208
0.74729
0.750206
0.752953
0.755526
0.757917
0.760117
0.762114
0.763898
0.765453
0.766765
0.767822
0.768622
0.769184
0.769546
0.769761
0.76988
0.769942
0.769973
0.769987
0.769994
0.769997
0.769999
0.77
0.77
0.77
0.77
0.77
0.77
0.77
0.77
0.77
0.77
0.77
2.29973e-06
1.00521e-05
2.30997e-05
4.49921e-05
8.15533e-05
0.000142228
0.000242119
0.000404998
0.00066757
0.00108528
0.00173975
0.00274741
0.00426828
0.0065124
0.00974022
0.0142527
0.0203679
0.0283858
0.0385479
0.0510034
0.0657922
0.0828465
0.102008
0.12305
0.145704
0.169678
0.194673
0.220393
0.246558
0.272906
0.299197
0.325221
0.350795
0.375764
0.400001
0.423406
0.445897
0.467417
0.487927
0.507407
0.52585
0.543263
0.559661
0.57507
0.589519
0.603042
0.615682
0.627478
0.638473
0.648711
0.658236
0.667089
0.675312
0.682947
0.690033
0.696606
0.702694
0.708222
0.713311
0.71819
0.722712
0.726879
0.730813
0.734557
0.738128
0.741531
0.744766
0.747834
0.750733
0.753458
0.756003
0.758361
0.76052
0.762476
0.764213
0.765717
0.766977
0.767981
0.768733
0.769254
0.769587
0.769783
0.769891
0.769947
0.769975
0.769989
0.769995
0.769998
0.769999
0.77
0.77
0.77
0.77
0.77
0.77
0.77
0.77
0.77
0.77
0.77
2.28489e-06
9.98663e-06
2.29465e-05
4.46859e-05
8.09797e-05
0.000141186
0.000240264
0.000401736
0.000661904
0.00107557
0.00172336
0.00272028
0.00422435
0.00644311
0.00963412
0.0140955
0.0201433
0.0280767
0.0381383
0.0504807
0.0651482
0.0820785
0.101119
0.122048
0.144602
0.168493
0.193423
0.2191
0.245243
0.271591
0.297904
0.32397
0.349603
0.374646
0.398971
0.422474
0.445071
0.466702
0.487326
0.50692
0.525475
0.542997
0.559503
0.575012
0.589553
0.603163
0.615882
0.627748
0.638807
0.6491
0.658671
0.667564
0.67582
0.68348
0.690584
0.697166
0.703267
0.708795
0.713901
0.718782
0.723299
0.727427
0.731363
0.73511
0.738678
0.742074
0.745298
0.74835
0.751229
0.753929
0.756446
0.758773
0.760892
0.762808
0.764499
0.765956
0.767166
0.768122
0.768831
0.769316
0.769623
0.769803
0.769901
0.769952
0.769977
0.76999
0.769995
0.769998
0.769999
0.77
0.77
0.77
0.77
0.77
0.77
0.77
0.77
0.77
0.77
0.77
2.26784e-06
9.91178e-06
2.27727e-05
4.43423e-05
8.03443e-05
0.000140052
0.00023828
0.000398317
0.000656091
0.00106582
0.00170726
0.00269416
0.00418284
0.00637872
0.00953699
0.0139535
0.0199427
0.0278034
0.0377796
0.0500267
0.0645935
0.0814221
0.100364
0.121204
0.14368
0.167507
0.19239
0.218037
0.244169
0.270524
0.296861
0.322966
0.348654
0.373765
0.398168
0.421757
0.444447
0.466174
0.486897
0.506591
0.525245
0.542863
0.559457
0.575049
0.58967
0.603354
0.616139
0.628066
0.639177
0.649515
0.659125
0.668048
0.676328
0.684005
0.691116
0.697705
0.70381
0.709288
0.714521
0.719373
0.72387
0.727965
0.731888
0.735628
0.739189
0.742574
0.745785
0.748821
0.75168
0.754356
0.756845
0.759138
0.761216
0.763093
0.764749
0.766166
0.767333
0.768247
0.768916
0.76937
0.769655
0.76982
0.76991
0.769956
0.769979
0.76999
0.769996
0.769998
0.769999
0.77
0.77
0.77
0.77
0.77
0.77
0.77
0.77
0.77
0.77
0.77
2.25021e-06
9.83443e-06
2.25937e-05
4.39897e-05
7.96956e-05
0.0001389
0.000236279
0.000394898
0.000650332
0.00105626
0.00169165
0.00266914
0.0041436
0.00631866
0.00944761
0.0138246
0.0197628
0.0275614
0.0374656
0.0496337
0.0641179
0.0808645
0.099729
0.120499
0.142915
0.166695
0.191544
0.217174
0.243303
0.269669
0.296032
0.322177
0.347916
0.373087
0.397559
0.421224
0.443994
0.465804
0.486611
0.506389
0.525127
0.542825
0.559496
0.575161
0.589849
0.603594
0.616434
0.62841
0.639564
0.649939
0.65958
0.668529
0.676829
0.684523
0.69165
0.69825
0.704334
0.709807
0.715046
0.719894
0.724381
0.728459
0.732372
0.736102
0.739654
0.743028
0.746225
0.749245
0.752084
0.754737
0.757201
0.759467
0.76152
0.763363
0.764979
0.766356
0.767481
0.768354
0.768989
0.769416
0.769681
0.769834
0.769917
0.76996
0.769981
0.769991
0.769996
0.769998
0.769999
0.77
0.77
0.77
0.77
0.77
0.77
0.77
0.77
0.77
0.77
0.77
2.23315e-06
9.75974e-06
2.24213e-05
4.36512e-05
7.90756e-05
0.000137805
0.000234388
0.000391687
0.000644962
0.00104742
0.00167733
0.00264638
0.0041082
0.00626494
0.0093683
0.013711
0.0196058
0.0273516
0.0371954
0.0492978
0.0637143
0.0803946
0.0991974
0.119912
0.142284
0.166029
0.190857
0.216477
0.24261
0.268992
0.295382
0.321565
0.347351
0.372578
0.397112
0.420843
0.443683
0.465567
0.486447
0.506297
0.525103
0.542867
0.559601
0.575325
0.590068
0.603863
0.616748
0.628763
0.63995
0.650354
0.660018
0.668986
0.6773
0.685001
0.692131
0.698728
0.704791
0.710261
0.715495
0.720336
0.724816
0.72889
0.732801
0.736525
0.740068
0.74343
0.746613
0.749615
0.752432
0.75506
0.757494
0.759727
0.761746
0.763556
0.765141
0.76649
0.767594
0.768443
0.769051
0.769455
0.769704
0.769847
0.769924
0.769963
0.769983
0.769992
0.769996
0.769998
0.769999
0.77
0.77
0.77
0.77
0.77
0.77
0.77
0.77
0.77
0.77
0.77
2.2173e-06
9.6904e-06
2.22614e-05
4.33379e-05
7.85032e-05
0.000136797
0.000232653
0.000388754
0.00064008
0.00103942
0.00166445
0.00262603
0.00407675
0.00621751
0.00929876
0.0136122
0.0194699
0.0271713
0.0369648
0.0490131
0.0633745
0.0800016
0.0987558
0.119429
0.141767
0.165489
0.190303
0.21592
0.24206
0.26846
0.294878
0.321097
0.346926
0.372203
0.396791
0.420579
0.44348
0.465424
0.486366
0.506276
0.525141
0.542961
0.559748
0.575521
0.590309
0.604144
0.617064
0.62911
0.640324
0.65075
0.660431
0.669412
0.677734
0.685441
0.692573
0.699168
0.705214
0.710672
0.715899
0.720732
0.725202
0.729271
0.733179
0.7369
0.740436
0.743791
0.746963
0.749951
0.752753
0.755363
0.757778
0.759988
0.761986
0.763768
0.765321
0.766634
0.767697
0.768518
0.769103
0.769488
0.769723
0.769857
0.769929
0.769966
0.769984
0.769993
0.769997
0.769998
0.769999
0.77
0.77
0.77
0.77
0.77
0.77
0.77
0.77
0.77
0.77
0.77
2.20301e-06
9.6279e-06
2.21174e-05
4.30564e-05
7.79899e-05
0.000135895
0.000231106
0.000386146
0.000635755
0.00103237
0.00165313
0.00260823
0.00404937
0.00617643
0.00923882
0.0135274
0.019354
0.0270184
0.0367701
0.0487741
0.0630909
0.0796756
0.0983917
0.119033
0.141346
0.165052
0.189859
0.215478
0.241629
0.268048
0.294493
0.320745
0.346613
0.371934
0.39657
0.420409
0.443361
0.465358
0.486351
0.506311
0.525224
0.54309
0.55992
0.575733
0.590557
0.604424
0.617372
0.629442
0.640676
0.651118
0.660812
0.669801
0.67813
0.68584
0.692972
0.699565
0.705602
0.711051
0.716267
0.721086
0.725539
0.729608
0.733512
0.737225
0.740753
0.744096
0.747255
0.750228
0.753012
0.755603
0.757999
0.760194
0.762179
0.763941
0.765471
0.766758
0.767795
0.768583
0.769147
0.769516
0.769739
0.769866
0.769934
0.769968
0.769985
0.769993
0.769997
0.769999
0.769999
0.77
0.77
0.77
0.77
0.77
0.77
0.77
0.77
0.77
0.77
0.77
2.19041e-06
9.57284e-06
2.19907e-05
4.28089e-05
7.75392e-05
0.000135105
0.000229753
0.000383871
0.000631992
0.00102624
0.00164335
0.0025929
0.00402588
0.00614132
0.0091878
0.0134556
0.0192561
0.0268899
0.0366074
0.0485753
0.0628562
0.0794073
0.0980939
0.118711
0.141007
0.164703
0.189507
0.215131
0.241293
0.267731
0.294201
0.320483
0.346387
0.371746
0.396423
0.420305
0.443301
0.465342
0.486378
0.50638
0.525334
0.543238
0.560102
0.575947
0.5908
0.604692
0.617662
0.629751
0.641
0.651453
0.661156
0.670151
0.678482
0.686192
0.693319
0.699905
0.705934
0.711376
0.716585
0.721394
0.725835
0.729903
0.733803
0.737511
0.74103
0.744362
0.747508
0.75047
0.753245
0.755828
0.758211
0.760388
0.762352
0.764092
0.7656
0.766864
0.767878
0.768645
0.769185
0.769539
0.769753
0.769873
0.769937
0.76997
0.769986
0.769993
0.769997
0.769999
0.769999
0.77
0.77
0.77
0.77
0.77
0.77
0.77
0.77
0.77
0.77
0.77
2.17953e-06
9.52528e-06
2.18814e-05
4.25955e-05
7.71511e-05
0.000134425
0.000228592
0.000381923
0.000628777
0.00102103
0.00163504
0.00257991
0.00400602
0.00611174
0.00914497
0.0133955
0.0191746
0.0267832
0.0364728
0.0484116
0.0626639
0.0791886
0.0978524
0.118452
0.140735
0.164425
0.189229
0.21486
0.241035
0.26749
0.293983
0.320293
0.346227
0.37162
0.396332
0.420251
0.443284
0.465361
0.486433
0.50647
0.525456
0.543391
0.560284
0.576154
0.591029
0.604941
0.617928
0.630031
0.641291
0.651753
0.661461
0.670459
0.678791
0.686497
0.693622
0.700207
0.706227
0.71166
0.71686
0.721658
0.726088
0.730157
0.734053
0.737755
0.741268
0.744595
0.747737
0.750691
0.753455
0.756023
0.758392
0.760552
0.762498
0.76422
0.765709
0.766953
0.767947
0.768695
0.769219
0.769559
0.769764
0.769879
0.76994
0.769971
0.769987
0.769994
0.769997
0.769999
0.769999
0.77
0.77
0.77
0.77
0.77
0.77
0.77
0.77
0.77
0.77
0.77
2.17031e-06
9.485e-06
2.17888e-05
4.24149e-05
7.68231e-05
0.000133852
0.000227613
0.000380284
0.000626077
0.00101665
0.00162808
0.00256907
0.0039895
0.00608719
0.00910952
0.0133459
0.0191075
0.0266957
0.0363629
0.0482784
0.0625081
0.0790122
0.0976587
0.118245
0.14052
0.164206
0.189013
0.21465
0.240837
0.26731
0.293823
0.320156
0.346117
0.371538
0.39628
0.42023
0.443294
0.465401
0.486503
0.506568
0.525581
0.54354
0.560455
0.576346
0.591239
0.605166
0.618166
0.630279
0.641547
0.652014
0.661725
0.670723
0.679053
0.68676
0.693885
0.700465
0.706477
0.711902
0.717093
0.721883
0.726302
0.730373
0.734266
0.737965
0.741475
0.744797
0.747931
0.750876
0.75363
0.756187
0.758542
0.76069
0.762621
0.764328
0.7658
0.767027
0.768004
0.768737
0.769247
0.769576
0.769773
0.769884
0.769943
0.769973
0.769987
0.769994
0.769997
0.769999
0.769999
0.77
0.77
0.77
0.77
0.77
0.77
0.77
0.77
0.77
0.77
0.77
2.16266e-06
9.4516e-06
2.1712e-05
4.22654e-05
7.65517e-05
0.000133378
0.000226805
0.000378932
0.000623854
0.00101306
0.00162237
0.00256019
0.003976
0.00606718
0.00908068
0.0133056
0.0190532
0.0266251
0.0362744
0.0481716
0.0623837
0.0788719
0.0975053
0.118082
0.140352
0.164037
0.188846
0.214491
0.240689
0.267176
0.293706
0.32006
0.346043
0.371488
0.396255
0.42023
0.443319
0.465452
0.486577
0.506665
0.525699
0.543678
0.560611
0.576517
0.591424
0.605363
0.618373
0.630493
0.641766
0.652236
0.661948
0.670948
0.679281
0.686987
0.694108
0.700684
0.706688
0.712107
0.717292
0.722074
0.726476
0.730551
0.734443
0.73814
0.741646
0.744963
0.748091
0.751029
0.753774
0.756321
0.758667
0.760803
0.762722
0.764416
0.765875
0.767088
0.768051
0.76877
0.76927
0.76959
0.769782
0.769888
0.769945
0.769974
0.769988
0.769994
0.769997
0.769999
0.769999
0.77
0.77
0.77
0.77
0.77
0.77
0.77
0.77
0.77
0.77
0.77
2.15649e-06
9.42463e-06
2.16501e-05
4.21447e-05
7.63329e-05
0.000132996
0.000226154
0.000377845
0.000622069
0.00101018
0.00161781
0.0025531
0.00396523
0.00605123
0.00905776
0.0132737
0.0190103
0.0265694
0.0362048
0.0480878
0.0622863
0.0787625
0.0973863
0.117956
0.140222
0.163907
0.18872
0.214371
0.240579
0.267078
0.293623
0.319994
0.345996
0.37146
0.396247
0.420242
0.443352
0.465504
0.486649
0.506755
0.525806
0.5438
0.560746
0.576665
0.591581
0.605529
0.618544
0.630669
0.641946
0.65242
0.662136
0.671138
0.679469
0.687173
0.694291
0.700863
0.706861
0.712274
0.717454
0.722231
0.726617
0.730696
0.734585
0.73828
0.741783
0.745096
0.74822
0.751152
0.75389
0.75643
0.758767
0.760895
0.762804
0.764487
0.765935
0.767137
0.768089
0.768797
0.769288
0.769601
0.769788
0.769892
0.769947
0.769974
0.769988
0.769994
0.769997
0.769999
0.77
0.77
0.77
0.77
0.77
0.77
0.77
0.77
0.77
0.77
0.77
0.77
2.15169e-06
9.40367e-06
2.1602e-05
4.2051e-05
7.61629e-05
0.000132699
0.00022565
0.000377003
0.000620688
0.00100795
0.00161428
0.00254762
0.00395693
0.00603897
0.00904015
0.0132492
0.0189774
0.0265268
0.0361517
0.048024
0.0622124
0.0786798
0.0972966
0.117862
0.140126
0.163811
0.188627
0.214283
0.240499
0.267009
0.293566
0.31995
0.345966
0.371445
0.396248
0.420259
0.443384
0.465551
0.48671
0.50683
0.525893
0.543899
0.560855
0.576782
0.591706
0.60566
0.618682
0.630812
0.642094
0.65257
0.662287
0.671289
0.679619
0.687321
0.694436
0.701005
0.706999
0.712407
0.717582
0.722354
0.726727
0.730809
0.734698
0.738391
0.741891
0.745201
0.74832
0.751248
0.753981
0.756515
0.758846
0.760966
0.762868
0.764543
0.765982
0.767175
0.768118
0.768818
0.769301
0.76961
0.769793
0.769894
0.769948
0.769975
0.769988
0.769995
0.769998
0.769999
0.77
0.77
0.77
0.77
0.77
0.77
0.77
0.77
0.77
0.77
0.77
0.77
2.14817e-06
9.38831e-06
2.15667e-05
4.19824e-05
7.60386e-05
0.000132482
0.000225281
0.000376388
0.000619679
0.00100632
0.00161171
0.00254363
0.00395089
0.00603005
0.00902737
0.0132314
0.0189536
0.026496
0.0361134
0.0479781
0.0621593
0.0786206
0.0972325
0.117794
0.140057
0.163743
0.188561
0.214223
0.240444
0.266961
0.293528
0.319922
0.345948
0.371439
0.396253
0.420275
0.443412
0.46559
0.486759
0.506888
0.525961
0.543974
0.560939
0.576873
0.591803
0.605762
0.618788
0.630922
0.642205
0.652683
0.6624
0.671401
0.67973
0.68743
0.694544
0.701111
0.707101
0.712506
0.717678
0.722446
0.726809
0.730894
0.734781
0.738472
0.74197
0.745278
0.748394
0.751318
0.754048
0.756578
0.758904
0.761019
0.762915
0.764584
0.766017
0.767203
0.768139
0.768833
0.769311
0.769616
0.769796
0.769896
0.769949
0.769976
0.769989
0.769995
0.769998
0.769999
0.77
0.77
0.77
0.77
0.77
0.77
0.77
0.77
0.77
0.77
0.77
0.77
2.14588e-06
9.37829e-06
2.15437e-05
4.19376e-05
7.59574e-05
0.000132341
0.000225041
0.000375988
0.000619023
0.00100527
0.00161004
0.00254105
0.00394697
0.00602428
0.00901909
0.0132199
0.0189382
0.0264761
0.0360887
0.0479485
0.0621252
0.0785825
0.0971914
0.117751
0.140013
0.1637
0.18852
0.214184
0.24041
0.266932
0.293504
0.319905
0.345938
0.371437
0.396258
0.420288
0.443432
0.465618
0.486794
0.50693
0.526009
0.544028
0.560997
0.576935
0.591869
0.605831
0.61886
0.630994
0.642279
0.652757
0.662474
0.671475
0.679804
0.687503
0.694615
0.701181
0.707169
0.712572
0.717741
0.722507
0.726863
0.730949
0.734835
0.738525
0.742023
0.745329
0.748443
0.751365
0.754092
0.756619
0.758942
0.761053
0.762946
0.764611
0.766039
0.767221
0.768153
0.768843
0.769318
0.76962
0.769799
0.769898
0.76995
0.769976
0.769989
0.769995
0.769998
0.769999
0.77
0.77
0.77
0.77
0.77
0.77
0.77
0.77
0.77
0.77
0.77
0.77
2.14476e-06
9.37342e-06
2.15325e-05
4.19159e-05
7.59183e-05
0.000132273
0.000224926
0.000375796
0.00061871
0.00100476
0.00160924
0.00253982
0.00394512
0.00602155
0.00901518
0.0132145
0.0189309
0.0264668
0.036077
0.0479345
0.062109
0.0785644
0.0971719
0.117731
0.139993
0.163679
0.188501
0.214166
0.240394
0.266919
0.293494
0.319897
0.345934
0.371436
0.396262
0.420295
0.443443
0.465632
0.486812
0.506951
0.526033
0.544054
0.561026
0.576966
0.591902
0.605866
0.618895
0.63103
0.642315
0.652794
0.662511
0.671512
0.67984
0.687539
0.694651
0.701215
0.707203
0.712604
0.717773
0.722537
0.72689
0.730976
0.734862
0.738552
0.742048
0.745354
0.748467
0.751388
0.754113
0.756639
0.758961
0.76107
0.762961
0.764624
0.76605
0.76723
0.76816
0.768848
0.769321
0.769622
0.7698
0.769898
0.76995
0.769976
0.769989
0.769995
0.769998
0.769999
0.77
0.77
0.77
0.77
0.77
0.77
0.77
0.77
0.77
0.77
0.77
0.77
2.14477e-06
9.37344e-06
2.15326e-05
4.1916e-05
7.59185e-05
0.000132273
0.000224926
0.000375797
0.000618711
0.00100477
0.00160925
0.00253982
0.00394512
0.00602156
0.00901519
0.0132145
0.0189309
0.0264668
0.036077
0.0479346
0.0621091
0.0785645
0.097172
0.117731
0.139993
0.163679
0.188501
0.214166
0.240394
0.266919
0.293494
0.319897
0.345934
0.371436
0.396262
0.420295
0.443443
0.465632
0.486812
0.506951
0.526033
0.544054
0.561026
0.576966
0.591902
0.605866
0.618895
0.63103
0.642315
0.652794
0.662511
0.671512
0.67984
0.687539
0.694651
0.701215
0.707203
0.712604
0.717773
0.722537
0.72689
0.730976
0.734862
0.738552
0.742048
0.745354
0.748467
0.751388
0.754113
0.756639
0.758961
0.76107
0.762961
0.764624
0.76605
0.76723
0.76816
0.768848
0.769321
0.769622
0.7698
0.769898
0.76995
0.769976
0.769989
0.769995
0.769998
0.769999
0.77
0.77
0.77
0.77
0.77
0.77
0.77
0.77
0.77
0.77
0.77
0.77
2.14589e-06
9.37836e-06
2.15439e-05
4.19379e-05
7.5958e-05
0.000132342
0.000225043
0.00037599
0.000619027
0.00100527
0.00161004
0.00254106
0.00394699
0.00602431
0.00901913
0.01322
0.0189383
0.0264762
0.0360888
0.0479486
0.0621253
0.0785826
0.0971915
0.117752
0.140014
0.1637
0.18852
0.214184
0.24041
0.266932
0.293504
0.319905
0.345939
0.371437
0.396259
0.420289
0.443432
0.465618
0.486794
0.50693
0.526009
0.544028
0.560997
0.576935
0.591869
0.605831
0.61886
0.630994
0.642279
0.652757
0.662474
0.671475
0.679804
0.687503
0.694615
0.70118
0.707169
0.712572
0.717741
0.722507
0.726863
0.730949
0.734835
0.738525
0.742023
0.745328
0.748443
0.751365
0.754092
0.756619
0.758942
0.761053
0.762946
0.764611
0.766039
0.767221
0.768153
0.768843
0.769318
0.76962
0.769798
0.769898
0.76995
0.769976
0.769989
0.769995
0.769998
0.769999
0.77
0.77
0.77
0.77
0.77
0.77
0.77
0.77
0.77
0.77
0.77
0.77
2.1482e-06
9.38843e-06
2.1567e-05
4.19829e-05
7.60395e-05
0.000132484
0.000225284
0.000376392
0.000619686
0.00100633
0.00161172
0.00254366
0.00395092
0.0060301
0.00902743
0.0132315
0.0189537
0.0264962
0.0361136
0.0479783
0.0621596
0.0786208
0.0972328
0.117795
0.140057
0.163743
0.188562
0.214223
0.240445
0.266962
0.293528
0.319922
0.345948
0.371439
0.396253
0.420275
0.443412
0.46559
0.486759
0.506888
0.525961
0.543974
0.560939
0.576872
0.591803
0.605762
0.618788
0.630921
0.642205
0.652682
0.6624
0.671401
0.67973
0.68743
0.694544
0.701111
0.707101
0.712506
0.717678
0.722446
0.726809
0.730893
0.734781
0.738472
0.74197
0.745278
0.748394
0.751318
0.754047
0.756578
0.758904
0.761018
0.762915
0.764584
0.766016
0.767203
0.768139
0.768833
0.769311
0.769616
0.769796
0.769896
0.769949
0.769976
0.769989
0.769995
0.769998
0.769999
0.77
0.77
0.77
0.77
0.77
0.77
0.77
0.77
0.77
0.77
0.77
0.77
2.15172e-06
9.40382e-06
2.16023e-05
4.20517e-05
7.61641e-05
0.000132701
0.000225653
0.000377009
0.000620697
0.00100796
0.0016143
0.00254765
0.00395697
0.00603904
0.00904024
0.0132493
0.0189776
0.026527
0.036152
0.0480243
0.0622127
0.0786802
0.097297
0.117862
0.140126
0.163811
0.188627
0.214284
0.2405
0.267009
0.293566
0.31995
0.345966
0.371446
0.396248
0.420259
0.443384
0.465551
0.48671
0.50683
0.525893
0.543899
0.560855
0.576782
0.591706
0.60566
0.618682
0.630812
0.642093
0.65257
0.662287
0.671288
0.679618
0.68732
0.694436
0.701005
0.706998
0.712407
0.717582
0.722354
0.726727
0.730809
0.734698
0.73839
0.741891
0.745201
0.74832
0.751247
0.75398
0.756515
0.758846
0.760966
0.762868
0.764543
0.765982
0.767175
0.768118
0.768818
0.769301
0.76961
0.769793
0.769894
0.769948
0.769975
0.769988
0.769995
0.769998
0.769999
0.77
0.77
0.77
0.77
0.77
0.77
0.77
0.77
0.77
0.77
0.77
0.77
2.15654e-06
9.42484e-06
2.16506e-05
4.21456e-05
7.63344e-05
0.000132998
0.000226159
0.000377852
0.000622081
0.0010102
0.00161783
0.00255314
0.00396529
0.00605132
0.00905788
0.0132738
0.0190105
0.0265696
0.0362051
0.0480881
0.0622867
0.078763
0.0973867
0.117957
0.140223
0.163907
0.18872
0.214371
0.240579
0.267078
0.293624
0.319995
0.345996
0.37146
0.396247
0.420242
0.443352
0.465504
0.486649
0.506755
0.525805
0.543799
0.560746
0.576664
0.591581
0.605528
0.618544
0.630669
0.641946
0.65242
0.662136
0.671138
0.679469
0.687173
0.694291
0.700863
0.706861
0.712274
0.717454
0.722231
0.726616
0.730695
0.734585
0.73828
0.741783
0.745096
0.748219
0.751151
0.75389
0.75643
0.758767
0.760894
0.762804
0.764487
0.765935
0.767137
0.768089
0.768797
0.769288
0.769601
0.769788
0.769892
0.769947
0.769974
0.769988
0.769994
0.769997
0.769999
0.77
0.77
0.77
0.77
0.77
0.77
0.77
0.77
0.77
0.77
0.77
0.77
2.16272e-06
9.45184e-06
2.17126e-05
4.22664e-05
7.65536e-05
0.000133381
0.00022681
0.00037894
0.000623868
0.00101308
0.00162241
0.00256024
0.00397607
0.00606728
0.00908082
0.0133058
0.0190535
0.0266254
0.0362748
0.0481721
0.0623841
0.0788724
0.0975059
0.118083
0.140352
0.164037
0.188847
0.214491
0.240689
0.267176
0.293707
0.320061
0.346044
0.371488
0.396255
0.42023
0.443319
0.465452
0.486577
0.506665
0.525699
0.543678
0.560611
0.576517
0.591424
0.605363
0.618372
0.630492
0.641765
0.652235
0.661947
0.670948
0.67928
0.686986
0.694107
0.700683
0.706688
0.712106
0.717291
0.722074
0.726476
0.730551
0.734443
0.73814
0.741646
0.744963
0.748091
0.751029
0.753773
0.756321
0.758667
0.760803
0.762722
0.764416
0.765874
0.767088
0.768051
0.76877
0.76927
0.76959
0.769782
0.769888
0.769945
0.769974
0.769988
0.769994
0.769997
0.769999
0.769999
0.77
0.77
0.77
0.77
0.77
0.77
0.77
0.77
0.77
0.77
0.77
2.17038e-06
9.48528e-06
2.17894e-05
4.24162e-05
7.68253e-05
0.000133855
0.000227619
0.000380294
0.000626093
0.00101668
0.00162812
0.00256913
0.00398958
0.00608731
0.00910969
0.0133461
0.0191078
0.0266961
0.0363633
0.0482789
0.0625087
0.0790128
0.0976593
0.118246
0.140521
0.164207
0.189014
0.214651
0.240838
0.26731
0.293823
0.320157
0.346117
0.371538
0.39628
0.42023
0.443294
0.465401
0.486503
0.506568
0.525581
0.54354
0.560455
0.576346
0.591238
0.605166
0.618166
0.630278
0.641546
0.652014
0.661725
0.670723
0.679053
0.686759
0.693884
0.700465
0.706477
0.711902
0.717093
0.721882
0.726302
0.730373
0.734266
0.737964
0.741475
0.744797
0.747931
0.750876
0.753629
0.756187
0.758542
0.76069
0.762621
0.764327
0.765799
0.767027
0.768004
0.768737
0.769247
0.769576
0.769773
0.769884
0.769943
0.769973
0.769987
0.769994
0.769997
0.769999
0.769999
0.77
0.77
0.77
0.77
0.77
0.77
0.77
0.77
0.77
0.77
0.77
2.17961e-06
9.5256e-06
2.18821e-05
4.25969e-05
7.71536e-05
0.000134429
0.000228599
0.000381934
0.000628796
0.00102106
0.00163508
0.00257997
0.00400612
0.00611188
0.00914516
0.0133957
0.0191749
0.0267836
0.0364733
0.0484122
0.0626646
0.0791893
0.0978531
0.118452
0.140736
0.164426
0.18923
0.21486
0.241035
0.267491
0.293983
0.320293
0.346227
0.37162
0.396332
0.420251
0.443284
0.465361
0.486433
0.50647
0.525456
0.543391
0.560283
0.576154
0.591029
0.604941
0.617928
0.63003
0.64129
0.651752
0.66146
0.670459
0.67879
0.686496
0.693621
0.700206
0.706227
0.71166
0.716859
0.721658
0.726088
0.730157
0.734053
0.737755
0.741268
0.744595
0.747737
0.750691
0.753455
0.756023
0.758391
0.760552
0.762498
0.76422
0.765708
0.766953
0.767947
0.768695
0.769219
0.769559
0.769764
0.769879
0.76994
0.769971
0.769987
0.769994
0.769997
0.769999
0.769999
0.77
0.77
0.77
0.77
0.77
0.77
0.77
0.77
0.77
0.77
0.77
2.1905e-06
9.5732e-06
2.19915e-05
4.28105e-05
7.7542e-05
0.000135109
0.000229761
0.000383884
0.000632013
0.00102628
0.0016434
0.00259298
0.00402598
0.00614147
0.00918801
0.0134558
0.0192565
0.0268903
0.0366079
0.0485759
0.0628569
0.0794081
0.0980947
0.118712
0.141008
0.164703
0.189508
0.215132
0.241294
0.267732
0.294201
0.320484
0.346387
0.371746
0.396423
0.420305
0.443301
0.465342
0.486378
0.50638
0.525333
0.543237
0.560102
0.575947
0.590799
0.604692
0.617662
0.62975
0.640999
0.651453
0.661155
0.67015
0.678482
0.686191
0.693319
0.699904
0.705933
0.711376
0.716584
0.721393
0.725835
0.729903
0.733803
0.73751
0.74103
0.744362
0.747509
0.75047
0.753245
0.755828
0.758211
0.760388
0.762351
0.764092
0.765599
0.766864
0.767878
0.768645
0.769185
0.769539
0.769753
0.769873
0.769937
0.76997
0.769986
0.769993
0.769997
0.769999
0.769999
0.77
0.77
0.77
0.77
0.77
0.77
0.77
0.77
0.77
0.77
0.77
2.2031e-06
9.6283e-06
2.21183e-05
4.30582e-05
7.7993e-05
0.0001359
0.000231115
0.00038616
0.000635777
0.0010324
0.00165319
0.00260831
0.00404949
0.0061766
0.00923905
0.0135277
0.0193544
0.0270189
0.0367707
0.0487748
0.0630917
0.0796764
0.0983926
0.119034
0.141347
0.165053
0.18986
0.215479
0.24163
0.268049
0.294493
0.320745
0.346614
0.371934
0.39657
0.420409
0.443361
0.465358
0.486351
0.506311
0.525224
0.54309
0.55992
0.575733
0.590556
0.604424
0.617372
0.629442
0.640676
0.651118
0.660811
0.669801
0.678129
0.685839
0.692971
0.699564
0.7056
0.71105
0.716267
0.721086
0.725539
0.729608
0.733512
0.737226
0.740754
0.744098
0.747256
0.750228
0.753012
0.755602
0.757998
0.760193
0.762178
0.763941
0.765471
0.766758
0.767795
0.768583
0.769147
0.769516
0.769739
0.769866
0.769934
0.769968
0.769985
0.769993
0.769997
0.769999
0.769999
0.77
0.77
0.77
0.77
0.77
0.77
0.77
0.77
0.77
0.77
0.77
2.2174e-06
9.69083e-06
2.22623e-05
4.33398e-05
7.85066e-05
0.000136803
0.000232663
0.000388769
0.000640104
0.00103946
0.00166451
0.00262612
0.00407688
0.0062177
0.00929901
0.0136125
0.0194703
0.0271719
0.0369654
0.0490139
0.0633754
0.0800026
0.0987568
0.11943
0.141768
0.16549
0.190304
0.215921
0.242061
0.268461
0.294879
0.321098
0.346927
0.372203
0.396791
0.42058
0.44348
0.465424
0.486367
0.506276
0.525141
0.542961
0.559747
0.575521
0.590308
0.604144
0.617064
0.62911
0.640324
0.65075
0.660431
0.669411
0.677734
0.685441
0.692573
0.699169
0.705215
0.710672
0.715899
0.720731
0.725201
0.729271
0.733179
0.736899
0.740435
0.743789
0.746961
0.74995
0.752752
0.755362
0.757776
0.759985
0.761985
0.763767
0.765321
0.766634
0.767697
0.768518
0.769103
0.769488
0.769723
0.769857
0.769929
0.769966
0.769984
0.769993
0.769997
0.769998
0.769999
0.77
0.77
0.77
0.77
0.77
0.77
0.77
0.77
0.77
0.77
0.77
2.23326e-06
9.76021e-06
2.24223e-05
4.36532e-05
7.90792e-05
0.000137811
0.000234398
0.000391703
0.000644988
0.00104746
0.0016774
0.00264648
0.00410834
0.00626514
0.00936857
0.0137114
0.0196062
0.0273522
0.0371961
0.0492986
0.0637152
0.0803956
0.0991984
0.119914
0.142285
0.16603
0.190858
0.216478
0.242611
0.268992
0.295383
0.321566
0.347351
0.372578
0.397112
0.420843
0.443683
0.465565
0.486445
0.506296
0.525102
0.542866
0.5596
0.575325
0.590068
0.603863
0.616747
0.628762
0.63995
0.650354
0.660018
0.668985
0.677299
0.685001
0.692131
0.698728
0.704791
0.710261
0.715495
0.720336
0.724816
0.72889
0.732801
0.736526
0.740069
0.743432
0.746616
0.749618
0.752437
0.755066
0.757501
0.759733
0.761748
0.763556
0.76514
0.766489
0.767594
0.768442
0.76905
0.769455
0.769704
0.769847
0.769924
0.769963
0.769983
0.769992
0.769996
0.769998
0.769999
0.77
0.77
0.77
0.77
0.77
0.77
0.77
0.77
0.77
0.77
0.77
2.25032e-06
9.83493e-06
2.25948e-05
4.39918e-05
7.96995e-05
0.000138907
0.00023629
0.000394916
0.00065036
0.00105631
0.00169172
0.00266924
0.00414375
0.00631888
0.0094479
0.0138249
0.0197634
0.027562
0.0374664
0.0496346
0.0641189
0.0808656
0.0997302
0.1205
0.142916
0.166696
0.191546
0.217175
0.243304
0.26967
0.296033
0.322178
0.347916
0.373088
0.39756
0.421224
0.443994
0.465805
0.486612
0.50639
0.525128
0.542826
0.559496
0.57516
0.589848
0.603594
0.616434
0.628409
0.639563
0.649939
0.659579
0.668529
0.676829
0.684523
0.69165
0.69825
0.704334
0.709807
0.715046
0.719894
0.724381
0.728459
0.732372
0.736103
0.739654
0.743027
0.746224
0.749243
0.752082
0.754735
0.757199
0.759466
0.761518
0.76336
0.764975
0.766353
0.76748
0.768354
0.768989
0.769416
0.769681
0.769834