/*--------------------------------*- C++ -*----------------------------------*\
  =========                 |
  \\      /  F ield         | OpenFOAM: The Open Source CFD Toolbox
   \\    /   O peration     | Website:  https://openfoam.org
    \\  /    A nd           | Version:  8
     \\/     M anipulation  |
\*---------------------------------------------------------------------------*/
FoamFile
{
    version     2.0;
    format      ascii;
    class       volScalarField;
    location    "980/fluid";
    object      O2;
}
// * * * * * * * * * * * * * * * * * * * * * * * * * * * * * * * * * * * * * //

dimensions      [0 0 0 0 0 0 0];

internalField   nonuniform List<scalar> 
4000
(
4.58627e-10
2.00258e-09
4.59152e-09
8.91249e-09
1.60833e-08
2.79014e-08
4.72167e-08
7.84722e-08
1.28457e-07
2.07296e-07
3.29656e-07
5.16053e-07
7.94076e-07
1.1985e-06
1.77002e-06
2.55177e-06
3.58339e-06
4.89356e-06
6.49313e-06
8.37128e-06
1.04959e-05
1.28178e-05
1.52767e-05
1.78073e-05
2.03445e-05
2.28269e-05
2.51993e-05
2.74138e-05
2.94313e-05
3.12215e-05
3.27652e-05
3.40575e-05
3.51138e-05
3.59801e-05
3.67454e-05
3.75563e-05
3.86286e-05
4.02576e-05
4.28286e-05
4.68334e-05
5.28991e-05
6.18336e-05
7.46849e-05
9.28178e-05
0.000118015
0.000152611
0.00019967
0.000263226
0.000348442
0.000462467
0.000614463
0.000816476
0.00108432
0.00143874
0.00190695
0.00252463
0.00333865
0.00439607
0.00577022
0.00762638
0.010069
0.0132911
0.0183764
0.0348013
0.0514341
0.0680149
0.0843415
0.100255
0.115628
0.130356
0.144351
0.157535
0.169832
0.181113
0.191421
0.200593
0.208533
0.215142
0.220348
0.224159
0.226713
0.228271
0.229142
0.229592
0.229811
0.229915
0.229962
0.229984
0.229993
0.229997
0.229999
0.229999
0.23
0.23
0.23
0.23
0.23
0.23
0.23
0.23
4.6565e-10
2.03466e-09
4.67078e-09
9.08108e-09
1.64181e-08
2.85377e-08
4.83841e-08
8.05459e-08
1.32022e-07
2.13209e-07
3.39038e-07
5.30005e-07
8.14688e-07
1.22811e-06
1.81129e-06
2.60778e-06
3.65785e-06
4.99119e-06
6.61998e-06
8.53488e-06
1.0705e-05
1.30816e-05
1.56044e-05
1.82071e-05
2.08229e-05
2.33883e-05
2.58459e-05
2.81453e-05
3.02451e-05
3.21132e-05
3.37287e-05
3.50855e-05
3.61989e-05
3.71155e-05
3.79275e-05
3.87872e-05
3.99194e-05
4.16316e-05
4.43238e-05
4.85036e-05
5.48146e-05
6.40795e-05
7.73597e-05
9.60316e-05
0.000121888
0.000157276
0.000205235
0.000269632
0.00035616
0.000471618
0.000625198
0.000828961
0.00109874
0.00145528
0.00192584
0.00254618
0.00336328
0.00442391
0.00580217
0.00766534
0.0101185
0.0133558
0.019655
0.0361871
0.0529046
0.0695542
0.0859372
0.101896
0.117304
0.132055
0.14606
0.159237
0.171507
0.182731
0.19295
0.20199
0.20975
0.216137
0.221093
0.22466
0.22701
0.228426
0.229214
0.229623
0.229824
0.22992
0.229964
0.229984
0.229993
0.229997
0.229999
0.229999
0.23
0.23
0.23
0.23
0.23
0.23
0.23
0.23
4.74933e-10
2.07524e-09
4.76454e-09
9.26525e-09
1.67549e-08
2.91288e-08
4.93921e-08
8.22279e-08
1.34788e-07
2.1774e-07
3.46581e-07
5.43171e-07
8.35143e-07
1.25824e-06
1.85429e-06
2.66789e-06
3.74059e-06
5.10366e-06
6.77111e-06
8.73538e-06
1.09671e-05
1.34185e-05
1.60291e-05
1.87321e-05
2.1459e-05
2.4144e-05
2.67269e-05
2.91546e-05
3.13823e-05
3.33751e-05
3.51095e-05
3.65774e-05
3.77931e-05
3.88041e-05
3.97067e-05
4.06612e-05
4.19062e-05
4.3768e-05
4.66694e-05
5.11437e-05
5.78605e-05
6.76681e-05
8.16507e-05
0.000101205
0.000128142
0.000164784
0.000214048
0.000280447
0.00036908
0.000486969
0.000643333
0.000850269
0.00112365
0.0014843
0.00195956
0.00258537
0.00340904
0.00447664
0.00586426
0.00774165
0.0102139
0.0134838
0.0219147
0.0385248
0.0553127
0.0720187
0.0884403
0.104417
0.11982
0.134541
0.148486
0.161571
0.173713
0.184788
0.194793
0.203578
0.21105
0.217129
0.221788
0.2251
0.227261
0.228557
0.229277
0.229651
0.229836
0.229925
0.229966
0.229985
0.229993
0.229997
0.229999
0.229999
0.23
0.23
0.23
0.23
0.23
0.23
0.23
0.23
4.85939e-10
2.12392e-09
4.87858e-09
9.49229e-09
1.71749e-08
2.98721e-08
5.06657e-08
8.4348e-08
1.38216e-07
2.23105e-07
3.54633e-07
5.5452e-07
8.51672e-07
1.28254e-06
1.88999e-06
2.71999e-06
3.81591e-06
5.21118e-06
6.92216e-06
8.94347e-06
1.12474e-05
1.3787e-05
1.65018e-05
1.93237e-05
2.21826e-05
2.50103e-05
2.77435e-05
3.03261e-05
3.271e-05
3.48571e-05
3.6741e-05
3.83512e-05
3.97008e-05
4.08386e-05
4.18657e-05
4.29532e-05
4.43563e-05
4.64252e-05
4.96115e-05
5.44808e-05
6.17366e-05
7.22619e-05
8.71766e-05
0.000107917
0.000136268
0.000174519
0.000226
0.000294842
0.000386418
0.000507806
0.000668302
0.000880106
0.00115923
0.00152667
0.00201004
0.00264564
0.00348134
0.00456145
0.00596496
0.00786621
0.0103746
0.0136914
0.0247265
0.0413664
0.0581855
0.0749124
0.0913365
0.107292
0.122645
0.137286
0.151117
0.164052
0.176007
0.186901
0.196648
0.205151
0.212322
0.218098
0.222472
0.22554
0.22752
0.228696
0.229346
0.229684
0.229851
0.229932
0.229969
0.229986
0.229994
0.229997
0.229999
0.23
0.23
0.23
0.23
0.23
0.23
0.23
0.23
0.23
4.95688e-10
2.16651e-09
4.97641e-09
9.68259e-09
1.75187e-08
3.04685e-08
5.1672e-08
8.60116e-08
1.40919e-07
2.27432e-07
3.61466e-07
5.65181e-07
8.68123e-07
1.30763e-06
1.92779e-06
2.77617e-06
3.89816e-06
5.32954e-06
7.08915e-06
9.17393e-06
1.15579e-05
1.41952e-05
1.70252e-05
1.99789e-05
2.29845e-05
2.59713e-05
2.8873e-05
3.16302e-05
3.41916e-05
3.65154e-05
3.85722e-05
4.03489e-05
4.18574e-05
4.31486e-05
4.43298e-05
4.55846e-05
4.71888e-05
4.95203e-05
5.30647e-05
5.84246e-05
6.63423e-05
7.77384e-05
9.37712e-05
0.000115853
0.000145792
0.000186173
0.000240508
0.000312694
0.000408267
0.000534469
0.000700783
0.000919632
0.0012073
0.00158516
0.00208126
0.00273255
0.00358605
0.00468379
0.00611548
0.00805809
0.0106181
0.0139858
0.0276849
0.0443181
0.0611442
0.077872
0.0942786
0.110191
0.125472
0.140008
0.153704
0.166474
0.178213
0.188886
0.198377
0.206601
0.213482
0.218969
0.223076
0.225924
0.227743
0.228816
0.229406
0.229713
0.229865
0.229937
0.229972
0.229987
0.229994
0.229998
0.229999
0.23
0.23
0.23
0.23
0.23
0.23
0.23
0.23
0.23
5.04138e-10
2.20333e-09
5.06058e-09
9.84551e-09
1.78121e-08
3.09766e-08
5.25316e-08
8.74422e-08
1.4327e-07
2.31254e-07
3.67619e-07
5.74991e-07
8.83612e-07
1.33183e-06
1.96512e-06
2.83292e-06
3.98297e-06
5.4537e-06
7.2667e-06
9.42139e-06
1.18936e-05
1.46384e-05
1.75951e-05
2.06939e-05
2.38608e-05
2.70227e-05
3.01104e-05
3.3061e-05
3.58196e-05
3.8341e-05
4.05923e-05
4.25579e-05
4.42489e-05
4.57186e-05
4.70824e-05
4.85388e-05
5.03878e-05
5.30396e-05
5.70184e-05
6.29702e-05
7.16851e-05
8.41218e-05
0.000101407
0.000125045
0.000157105
0.000200415
0.000258014
0.000334267
0.000434884
0.000567338
0.000741406
0.000969881
0.00126951
0.00166223
0.00217683
0.00284997
0.00373151
0.00486194
0.00633592
0.00832449
0.0109344
0.0143287
0.030325
0.046995
0.0638723
0.0806313
0.0970363
0.112911
0.128118
0.142548
0.156106
0.168711
0.180245
0.190707
0.199948
0.207907
0.214519
0.219744
0.223613
0.226266
0.227943
0.228924
0.229461
0.229739
0.229877
0.229943
0.229974
0.229989
0.229995
0.229998
0.229999
0.23
0.23
0.23
0.23
0.23
0.23
0.23
0.23
0.23
5.11924e-10
2.23729e-09
5.13842e-09
9.99678e-09
1.8086e-08
3.14546e-08
5.33482e-08
8.8817e-08
1.45559e-07
2.35028e-07
3.73782e-07
5.84958e-07
8.99556e-07
1.35703e-06
2.00439e-06
2.89312e-06
4.07347e-06
5.58679e-06
7.45764e-06
9.6881e-06
1.2256e-05
1.51175e-05
1.8212e-05
2.14685e-05
2.48113e-05
2.81647e-05
3.14564e-05
3.46199e-05
3.75965e-05
4.03373e-05
4.28058e-05
4.49839e-05
4.68819e-05
4.85565e-05
5.01329e-05
5.18275e-05
5.39669e-05
5.69968e-05
6.14811e-05
6.81055e-05
7.76998e-05
9.12105e-05
0.000109866
0.000135553
0.00017036
0.000216723
0.00027815
0.000359213
0.000465892
0.00060601
0.000789803
0.00103066
0.00134606
0.00175887
0.00229884
0.00300591
0.00393219
0.00510554
0.00668458
0.00874658
0.0114345
0.0148687
0.031792
0.0489787
0.0661404
0.0830433
0.0995003
0.115362
0.130507
0.144835
0.158257
0.170692
0.182005
0.192253
0.201298
0.209045
0.215425
0.220418
0.224077
0.22656
0.228114
0.229016
0.229508
0.229762
0.229888
0.229948
0.229976
0.229989
0.229995
0.229998
0.229999
0.23
0.23
0.23
0.23
0.23
0.23
0.23
0.23
0.23
5.19372e-10
2.26981e-09
5.21308e-09
1.01422e-08
1.83501e-08
3.19177e-08
5.41432e-08
9.01636e-08
1.47817e-07
2.3878e-07
3.79965e-07
5.95049e-07
9.15856e-07
1.38303e-06
2.04526e-06
2.95625e-06
4.16901e-06
5.72802e-06
7.66107e-06
9.97314e-06
1.26443e-05
1.56318e-05
1.88753e-05
2.23029e-05
2.5837e-05
2.93994e-05
3.29144e-05
3.6312e-05
3.95295e-05
4.2514e-05
4.52252e-05
4.76422e-05
4.9775e-05
5.16844e-05
5.35077e-05
5.54825e-05
5.79666e-05
6.14471e-05
6.65375e-05
7.39579e-05
8.45061e-05
9.92648e-05
0.000119852
0.000147737
0.000185094
0.000234723
0.000300286
0.000386587
0.000499927
0.00064858
0.000843416
0.00109873
0.00143337
0.00187217
0.00244804
0.00320468
0.00419445
0.00546057
0.00718252
0.0094539
0.0124587
0.0163696
0.0335891
0.0509946
0.0682961
0.0852705
0.101743
0.117575
0.132654
0.146886
0.160189
0.172486
0.183669
0.193736
0.202566
0.210088
0.216237
0.221009
0.224478
0.226811
0.22826
0.229096
0.229549
0.229782
0.229897
0.229952
0.229978
0.22999
0.229996
0.229998
0.229999
0.23
0.23
0.23
0.23
0.23
0.23
0.23
0.23
0.23
5.2669e-10
2.30179e-09
5.28662e-09
1.02858e-08
1.86118e-08
3.23782e-08
5.49375e-08
9.15163e-08
1.50099e-07
2.42596e-07
3.86293e-07
6.05445e-07
9.32746e-07
1.41012e-06
2.08804e-06
3.0226e-06
4.26974e-06
5.87733e-06
7.87663e-06
1.02758e-05
1.30574e-05
1.61801e-05
1.9584e-05
2.31964e-05
2.6938e-05
3.07281e-05
3.44878e-05
3.81431e-05
4.16275e-05
4.48835e-05
4.78668e-05
5.05536e-05
5.29534e-05
5.5132e-05
5.72399e-05
5.95376e-05
6.24134e-05
6.63923e-05
7.21264e-05
8.03345e-05
9.19526e-05
0.00010834
0.000130695
0.000160776
0.000200841
0.000253816
0.000323526
0.000414978
0.000534746
0.000691459
0.00089647
0.00116473
0.00151594
0.00197618
0.00258
0.00337337
0.00441251
0.00575008
0.00757825
0.0100075
0.0132582
0.0179911
0.0354164
0.0529503
0.0703195
0.0873117
0.103759
0.119528
0.13451
0.148615
0.161764
0.173885
0.184886
0.194777
0.20344
0.210813
0.216853
0.22149
0.224812
0.227023
0.228383
0.229162
0.229583
0.229799
0.229905
0.229956
0.22998
0.229991
0.229996
0.229998
0.229999
0.23
0.23
0.23
0.23
0.23
0.23
0.23
0.23
0.23
5.33947e-10
2.33352e-09
5.35966e-09
1.04287e-08
1.88728e-08
3.28387e-08
5.57345e-08
9.28785e-08
1.52406e-07
2.46472e-07
3.92749e-07
6.16098e-07
9.50131e-07
1.43812e-06
2.13243e-06
3.09167e-06
4.37493e-06
6.03367e-06
8.1029e-06
1.05943e-05
1.34932e-05
1.67601e-05
2.03357e-05
2.4147e-05
2.81132e-05
3.2151e-05
3.61787e-05
4.01183e-05
4.38991e-05
4.7459e-05
5.07496e-05
5.37437e-05
5.64509e-05
5.89431e-05
6.13873e-05
6.40704e-05
6.74162e-05
7.19882e-05
7.84032e-05
8.74886e-05
0.000100465
0.000118319
0.00014249
0.000174793
0.000217556
0.000273801
0.000347467
0.000443702
0.000569246
0.000732933
0.000946347
0.0012247
0.00158797
0.00206249
0.00268296
0.00349522
0.00455109
0.00590464
0.00774353
0.0101623
0.013352
0.0197276
0.037233
0.054818
0.0722099
0.0891975
0.105616
0.121336
0.136251
0.150271
0.163321
0.175326
0.186215
0.195946
0.204434
0.211608
0.217417
0.221903
0.225102
0.227204
0.228488
0.229219
0.229612
0.229813
0.229912
0.229959
0.229981
0.229992
0.229996
0.229998
0.229999
0.23
0.23
0.23
0.23
0.23
0.23
0.23
0.23
0.23
5.41139e-10
2.36498e-09
5.43216e-09
1.05707e-08
1.91327e-08
3.32983e-08
5.6532e-08
9.4246e-08
1.54729e-07
2.50389e-07
3.99296e-07
6.26939e-07
9.67882e-07
1.46679e-06
2.17803e-06
3.16282e-06
4.48356e-06
6.19555e-06
8.33783e-06
1.09259e-05
1.39482e-05
1.73677e-05
2.1126e-05
2.51502e-05
2.93584e-05
3.36654e-05
3.79862e-05
4.22396e-05
4.63502e-05
5.02517e-05
5.38907e-05
5.72369e-05
6.02997e-05
6.31584e-05
6.59977e-05
6.91324e-05
7.30206e-05
7.82252e-05
8.54769e-05
9.57163e-05
0.000109945
0.000129349
0.000155401
0.000189963
0.000235424
0.000294873
0.000372334
0.000473046
0.000603851
0.000773684
0.000994224
0.00128075
0.00165329
0.00213809
0.00276965
0.00359322
0.00465853
0.00601908
0.00786033
0.0102732
0.0134456
0.0214282
0.0389457
0.0565214
0.0738872
0.0908327
0.10719
0.122833
0.137657
0.151573
0.164527
0.176447
0.187269
0.196895
0.205255
0.212288
0.217954
0.222261
0.22534
0.227358
0.228577
0.229267
0.229637
0.229825
0.229918
0.229962
0.229983
0.229992
0.229997
0.229999
0.229999
0.23
0.23
0.23
0.23
0.23
0.23
0.23
0.23
0.23
5.48204e-10
2.3959e-09
5.50344e-09
1.07105e-08
1.93888e-08
3.37522e-08
5.73215e-08
9.56029e-08
1.57041e-07
2.54297e-07
4.05847e-07
6.37818e-07
9.85747e-07
1.49574e-06
2.22417e-06
3.23502e-06
4.59413e-06
6.36079e-06
8.57837e-06
1.12665e-05
1.44175e-05
1.79967e-05
2.19477e-05
2.61981e-05
3.06655e-05
3.52633e-05
3.9904e-05
4.45032e-05
4.89814e-05
5.32677e-05
5.73041e-05
6.10567e-05
6.45353e-05
6.78273e-05
7.11376e-05
7.48095e-05
7.92948e-05
8.51955e-05
9.33673e-05
0.000104857
0.000120526
0.00014162
0.000169663
0.000206567
0.000254777
0.000317448
0.000398668
0.000503747
0.000639595
0.000815209
0.00104231
0.0013362
0.00171684
0.00221028
0.00285038
0.00368195
0.00475516
0.00612215
0.00796678
0.0103773
0.0135388
0.0229594
0.0404858
0.0580531
0.0753876
0.0922807
0.108577
0.124164
0.138937
0.152812
0.165695
0.17752
0.188223
0.197729
0.205964
0.21287
0.218409
0.222598
0.225548
0.227484
0.228652
0.229308
0.229658
0.229835
0.229922
0.229964
0.229984
0.229993
0.229997
0.229999
0.229999
0.23
0.23
0.23
0.23
0.23
0.23
0.23
0.23
0.23
5.55037e-10
2.42581e-09
5.57244e-09
1.08459e-08
1.96374e-08
3.41934e-08
5.80902e-08
9.6927e-08
1.59303e-07
2.58128e-07
4.12287e-07
6.4854e-07
1.0034e-06
1.52442e-06
2.27003e-06
3.30697e-06
4.70464e-06
6.52649e-06
8.82044e-06
1.16107e-05
1.48936e-05
1.86379e-05
2.27896e-05
2.72776e-05
3.202e-05
3.69294e-05
4.19168e-05
4.68953e-05
5.17821e-05
5.65021e-05
6.09931e-05
6.52181e-05
6.91876e-05
7.29987e-05
7.68769e-05
8.11855e-05
8.63302e-05
9.31718e-05
0.000102588
0.000115353
0.000132539
0.000155422
0.00018556
0.000224913
0.000275975
0.000341959
0.000427013
0.00053651
0.000677421
0.000858793
0.00109239
0.00139348
0.0017818
0.00228319
0.0029319
0.00377323
0.00485413
0.00622662
0.00807447
0.0104831
0.0136344
0.0242783
0.0418192
0.0593778
0.0766868
0.0935587
0.109836
0.125381
0.140094
0.153888
0.166689
0.178425
0.189032
0.198436
0.206565
0.213361
0.21879
0.222876
0.225738
0.227592
0.228712
0.229341
0.229675
0.229844
0.229926
0.229966
0.229985
0.229993
0.229997
0.229999
0.229999
0.23
0.23
0.23
0.23
0.23
0.23
0.23
0.23
0.23
5.61505e-10
2.45412e-09
5.6378e-09
1.09743e-08
1.98733e-08
3.46127e-08
5.88221e-08
9.81902e-08
1.61464e-07
2.618e-07
4.18472e-07
6.58864e-07
1.02044e-06
1.55218e-06
2.31454e-06
3.37704e-06
4.8126e-06
6.68897e-06
9.05877e-06
1.1951e-05
1.53666e-05
1.92784e-05
2.36355e-05
2.8369e-05
3.33985e-05
3.86372e-05
4.39957e-05
4.93859e-05
5.47229e-05
5.99287e-05
6.49385e-05
6.97134e-05
7.42679e-05
7.87128e-05
8.33013e-05
8.83845e-05
9.45585e-05
0.000102523
0.000113121
0.000127291
0.000146125
0.000170926
0.000203292
0.000245226
0.000299276
0.000368711
0.000457736
0.000571787
0.000717896
0.000905109
0.00114509
0.00145299
0.00184878
0.00235895
0.00301725
0.00386723
0.00495535
0.00633326
0.0081836
0.0105888
0.0137268
0.0254012
0.0429632
0.0605201
0.0778265
0.0946747
0.110909
0.126405
0.141061
0.154791
0.167522
0.179183
0.18971
0.199028
0.207066
0.213768
0.219104
0.223103
0.225891
0.227688
0.228763
0.229367
0.229689
0.22985
0.22993
0.229968
0.229985
0.229993
0.229997
0.229999
0.229999
0.23
0.23
0.23
0.23
0.23
0.23
0.23
0.23
0.23
5.67456e-10
2.48017e-09
5.69798e-09
1.10926e-08
2.00908e-08
3.49999e-08
5.94991e-08
9.93606e-08
1.63471e-07
2.65215e-07
4.24239e-07
6.68513e-07
1.03641e-06
1.57826e-06
2.35649e-06
3.44329e-06
4.91506e-06
6.84377e-06
9.28681e-06
1.22783e-05
1.58239e-05
1.99011e-05
2.4463e-05
2.94441e-05
3.47665e-05
4.03453e-05
4.60927e-05
5.19208e-05
5.77448e-05
6.34856e-05
6.90773e-05
7.44814e-05
7.97172e-05
8.4911e-05
9.03392e-05
9.6333e-05
0.00010363
0.0001129
0.000124921
0.000140684
0.000161324
0.000188187
0.000222919
0.000267574
0.000324762
0.000397805
0.000490955
0.00060967
0.000760916
0.000953801
0.00120016
0.00151575
0.00192037
0.00243932
0.00310613
0.00396444
0.00505943
0.00644228
0.00829429
0.010695
0.0138109
0.0263285
0.0439194
0.0614851
0.0787772
0.0956
0.1118
0.127253
0.141861
0.155539
0.168211
0.179809
0.190269
0.199516
0.207479
0.214103
0.219361
0.223288
0.226014
0.227765
0.228808
0.22939
0.229699
0.229856
0.229932
0.229969
0.229986
0.229994
0.229997
0.229999
0.229999
0.23
0.23
0.23
0.23
0.23
0.23
0.23
0.23
0.23
5.7273e-10
2.50327e-09
5.75133e-09
1.11976e-08
2.02841e-08
3.53442e-08
6.01019e-08
1.00404e-07
1.65264e-07
2.68273e-07
4.29414e-07
6.7719e-07
1.05081e-06
1.60184e-06
2.39453e-06
3.50356e-06
5.00862e-06
6.98569e-06
9.49684e-06
1.25812e-05
1.62495e-05
2.04843e-05
2.52432e-05
3.0465e-05
3.60758e-05
4.19944e-05
4.81361e-05
5.44159e-05
6.07513e-05
6.70658e-05
7.32957e-05
7.94072e-05
8.54309e-05
9.15165e-05
9.79628e-05
0.000105216
0.000113799
0.000124477
0.000138022
0.000155481
0.000178033
0.000207066
0.000244268
0.000291741
0.000352123
0.000428759
0.000525956
0.000649263
0.000805836
0.00100512
0.00125894
0.00158225
0.00199479
0.0025221
0.00319732
0.00406358
0.00516483
0.00655153
0.00840342
0.0107969
0.0138876
0.0270776
0.0446937
0.0622678
0.0795515
0.096354
0.112525
0.127944
0.142512
0.156145
0.168769
0.180316
0.190722
0.199911
0.207812
0.214373
0.219568
0.223436
0.226112
0.227825
0.228843
0.22941
0.229709
0.22986
0.229934
0.22997
0.229986
0.229994
0.229997
0.229999
0.229999
0.23
0.23
0.23
0.23
0.23
0.23
0.23
0.23
0.23
5.77169e-10
2.52271e-09
5.79627e-09
1.1286e-08
2.0447e-08
3.5635e-08
6.06115e-08
1.01288e-07
1.66785e-07
2.70871e-07
4.33818e-07
6.84592e-07
1.06312e-06
1.62206e-06
2.42724e-06
3.55556e-06
5.08962e-06
7.10906e-06
9.68023e-06
1.28469e-05
1.6625e-05
2.1002e-05
2.59404e-05
3.13842e-05
3.72644e-05
4.35049e-05
5.0026e-05
5.67483e-05
6.35947e-05
7.04946e-05
7.7391e-05
8.4259e-05
9.11442e-05
9.82201e-05
0.000105795
0.000114354
0.000124291
0.000136368
0.000151602
0.000170894
0.000195443
0.000226678
0.00026634
0.000316588
0.000380132
0.000460421
0.000561993
0.000690444
0.00085299
0.00105862
0.00131919
0.0016499
0.00207034
0.00260581
0.00328909
0.00416271
0.00526941
0.00665858
0.00850819
0.0108913
0.0139539
0.0276694
0.0453143
0.0628934
0.0801688
0.0969537
0.113101
0.12849
0.143025
0.156623
0.169208
0.180714
0.191077
0.200219
0.208073
0.214584
0.219729
0.223551
0.226188
0.227871
0.228869
0.229424
0.229717
0.229864
0.229936
0.229971
0.229987
0.229994
0.229997
0.229999
0.23
0.23
0.23
0.23
0.23
0.23
0.23
0.23
0.23
0.23
5.80632e-10
2.53788e-09
5.83134e-09
1.13551e-08
2.05743e-08
3.58622e-08
6.10103e-08
1.01981e-07
1.67978e-07
2.72912e-07
4.37285e-07
6.90431e-07
1.07285e-06
1.63808e-06
2.45323e-06
3.597e-06
5.15439e-06
7.20807e-06
9.82802e-06
1.30621e-05
1.69307e-05
2.14257e-05
2.65148e-05
3.21468e-05
3.82582e-05
4.47789e-05
5.16358e-05
5.8757e-05
6.60742e-05
7.35269e-05
8.10711e-05
8.86999e-05
9.64857e-05
0.000104639
0.000113517
0.000123436
0.000134818
0.000148419
0.000165138
0.000186109
0.000212556
0.000245953
0.0002881
0.000341228
0.000408136
0.00049237
0.00059826
0.000731493
0.000899296
0.00111088
0.00137804
0.00171592
0.00214398
0.00268727
0.00337815
0.00425847
0.00536981
0.00676014
0.00860542
0.0109751
0.0140067
0.0281071
0.0457798
0.0633668
0.0806368
0.0974078
0.113535
0.128901
0.14341
0.15698
0.169535
0.18101
0.19134
0.200448
0.208265
0.214739
0.219847
0.223635
0.226243
0.227905
0.228888
0.229434
0.229722
0.229867
0.229937
0.229971
0.229987
0.229994
0.229997
0.229999
0.23
0.23
0.23
0.23
0.23
0.23
0.23
0.23
0.23
0.23
5.82998e-10
2.54824e-09
5.8553e-09
1.14023e-08
2.06613e-08
3.60176e-08
6.1283e-08
1.02454e-07
1.68795e-07
2.74311e-07
4.39663e-07
6.94441e-07
1.07954e-06
1.64912e-06
2.47118e-06
3.62568e-06
5.19935e-06
7.27704e-06
9.93134e-06
1.32132e-05
1.71462e-05
2.1726e-05
2.69241e-05
3.26937e-05
3.8976e-05
4.57062e-05
5.28178e-05
6.02464e-05
6.79331e-05
7.58292e-05
8.39063e-05
9.21791e-05
0.000100753
0.000109879
0.000119912
0.000131205
0.000144059
0.000159165
0.000177463
0.000200063
0.00022826
0.000263587
0.000307903
0.000363488
0.000433184
0.000520553
0.000630089
0.000767498
0.000940036
0.00115695
0.00143004
0.0017744
0.00220937
0.00275978
0.00345756
0.00434391
0.00545932
0.00685013
0.00869005
0.0110448
0.0140438
0.0283956
0.0460966
0.0636926
0.0809596
0.0977202
0.113832
0.129181
0.143671
0.15722
0.169755
0.181207
0.191515
0.200599
0.208391
0.21484
0.219924
0.223689
0.226279
0.227927
0.228901
0.229441
0.229726
0.229868
0.229938
0.229971
0.229987
0.229994
0.229997
0.229999
0.23
0.23
0.23
0.23
0.23
0.23
0.23
0.23
0.23
0.23
5.84182e-10
2.55342e-09
5.86724e-09
1.14257e-08
2.07045e-08
3.60943e-08
6.14173e-08
1.02687e-07
1.69195e-07
2.74994e-07
4.40824e-07
6.96395e-07
1.0828e-06
1.6545e-06
2.47993e-06
3.6397e-06
5.22138e-06
7.31093e-06
9.98231e-06
1.3288e-05
1.72535e-05
2.18764e-05
2.71303e-05
3.29709e-05
3.93421e-05
4.61825e-05
5.34296e-05
6.10237e-05
6.89122e-05
7.70542e-05
8.54317e-05
9.40742e-05
0.000103106
0.000112784
0.000123504
0.000135702
0.000149762
0.000166002
0.00018538
0.000209068
0.000238414
0.000275001
0.000320729
0.000377922
0.000449461
0.000538954
0.000650943
0.000791179
0.000966957
0.00118756
0.0014648
0.00181377
0.00225374
0.00280942
0.00351248
0.00440364
0.00552255
0.00691421
0.00875029
0.0110926
0.0140634
0.0285374
0.0462628
0.0638665
0.0811317
0.0978854
0.113988
0.129326
0.143805
0.157342
0.169865
0.181305
0.191601
0.200673
0.208453
0.214889
0.219961
0.223715
0.226296
0.227937
0.228907
0.229444
0.229727
0.229869
0.229939
0.229972
0.229987
0.229994
0.229997
0.229999
0.23
0.23
0.23
0.23
0.23
0.23
0.23
0.23
0.23
0.23
5.84182e-10
2.55342e-09
5.86725e-09
1.14257e-08
2.07045e-08
3.60944e-08
6.14174e-08
1.02687e-07
1.69195e-07
2.74995e-07
4.40824e-07
6.96396e-07
1.08281e-06
1.6545e-06
2.47993e-06
3.6397e-06
5.22138e-06
7.31094e-06
9.98232e-06
1.32881e-05
1.72535e-05
2.18764e-05
2.71303e-05
3.29709e-05
3.93421e-05
4.61825e-05
5.34296e-05
6.10237e-05
6.89121e-05
7.7054e-05
8.54313e-05
9.40737e-05
0.000103105
0.000112784
0.000123504
0.000135702
0.000149762
0.000166002
0.00018538
0.000209068
0.000238415
0.000275002
0.00032073
0.000377923
0.000449462
0.000538954
0.000650943
0.000791179
0.000966956
0.00118756
0.0014648
0.00181376
0.00225374
0.00280942
0.00351248
0.00440363
0.00552254
0.0069142
0.00875028
0.0110926
0.0140634
0.0285373
0.0462627
0.0638663
0.0811316
0.0978853
0.113988
0.129326
0.143804
0.157342
0.169865
0.181305
0.191601
0.200673
0.208453
0.214889
0.219961
0.223715
0.226296
0.227937
0.228907
0.229444
0.229727
0.229869
0.229939
0.229972
0.229987
0.229994
0.229997
0.229999
0.23
0.23
0.23
0.23
0.23
0.23
0.23
0.23
0.23
0.23
5.83e-10
2.54825e-09
5.85532e-09
1.14023e-08
2.06614e-08
3.60178e-08
6.12833e-08
1.02455e-07
1.68795e-07
2.74312e-07
4.39665e-07
6.94443e-07
1.07955e-06
1.64913e-06
2.47118e-06
3.62569e-06
5.19937e-06
7.27706e-06
9.93136e-06
1.32132e-05
1.71462e-05
2.17261e-05
2.69242e-05
3.26937e-05
3.89761e-05
4.57062e-05
5.28178e-05
6.02464e-05
6.7933e-05
7.58289e-05
8.39055e-05
9.21776e-05
0.00010075
0.000109875
0.00011991
0.000131205
0.000144059
0.000159166
0.000177465
0.000200065
0.000228261
0.000263588
0.000307904
0.000363489
0.000433185
0.000520554
0.00063009
0.000767498
0.000940035
0.00115695
0.00143004
0.0017744
0.00220937
0.00275977
0.00345755
0.0043439
0.0054593
0.0068501
0.00869002
0.0110447
0.0140437
0.0283953
0.0460962
0.0636922
0.0809592
0.0977198
0.113832
0.129181
0.143671
0.15722
0.169754
0.181207
0.191515
0.200599
0.208391
0.21484
0.219924
0.223689
0.226279
0.227927
0.228901
0.229441
0.229726
0.229868
0.229938
0.229971
0.229987
0.229994
0.229997
0.229999
0.23
0.23
0.23
0.23
0.23
0.23
0.23
0.23
0.23
0.23
5.80636e-10
2.5379e-09
5.83137e-09
1.13552e-08
2.05745e-08
3.58624e-08
6.10106e-08
1.01981e-07
1.67979e-07
2.72913e-07
4.37287e-07
6.90434e-07
1.07285e-06
1.63809e-06
2.45324e-06
3.59701e-06
5.1544e-06
7.20808e-06
9.82803e-06
1.30621e-05
1.69307e-05
2.14257e-05
2.65148e-05
3.21468e-05
3.82583e-05
4.47791e-05
5.16361e-05
5.87576e-05
6.60752e-05
7.35285e-05
8.10737e-05
8.8704e-05
9.64924e-05
0.00010465
0.000113523
0.000123439
0.00013482
0.000148419
0.000165138
0.000186109
0.000212556
0.000245953
0.0002881
0.000341228
0.000408137
0.00049237
0.000598259
0.000731492
0.000899294
0.00111087
0.00137803
0.00171591
0.00214397
0.00268726
0.00337813
0.00425844
0.00536978
0.0067601
0.00860536
0.0109751
0.0140066
0.0281064
0.0457792
0.0633662
0.0806362
0.0974072
0.113534
0.128901
0.14341
0.156979
0.169535
0.181009
0.19134
0.200447
0.208264
0.214738
0.219847
0.223635
0.226243
0.227905
0.228888
0.229434
0.229722
0.229867
0.229937
0.229971
0.229987
0.229994
0.229997
0.229999
0.23
0.23
0.23
0.23
0.23
0.23
0.23
0.23
0.23
0.23
5.77174e-10
2.52273e-09
5.79632e-09
1.12861e-08
2.04472e-08
3.56353e-08
6.0612e-08
1.01289e-07
1.66786e-07
2.70872e-07
4.33821e-07
6.84596e-07
1.06312e-06
1.62207e-06
2.42725e-06
3.55557e-06
5.08963e-06
7.10908e-06
9.68025e-06
1.2847e-05
1.66251e-05
2.1002e-05
2.59405e-05
3.13843e-05
3.72645e-05
4.3505e-05
5.00262e-05
5.67486e-05
6.35952e-05
7.04951e-05
7.73913e-05
8.42588e-05
9.11426e-05
9.82151e-05
0.000105794
0.000114354
0.000124292
0.000136369
0.000151602
0.000170895
0.000195443
0.000226678
0.000266341
0.000316589
0.000380133
0.000460422
0.000561993
0.000690442
0.000852987
0.00105862
0.00131919
0.00164989
0.00207032
0.00260579
0.00328906
0.00416267
0.00526936
0.00665852
0.00850812
0.0108912
0.0139538
0.0276685
0.0453133
0.0628925
0.0801678
0.0969528
0.1131
0.12849
0.143025
0.156622
0.169208
0.180714
0.191076
0.200219
0.208072
0.214583
0.219729
0.223551
0.226188
0.227871
0.228869
0.229424
0.229717
0.229864
0.229936
0.229971
0.229987
0.229994
0.229997
0.229999
0.23
0.23
0.23
0.23
0.23
0.23
0.23
0.23
0.23
0.23
5.72736e-10
2.5033e-09
5.7514e-09
1.11977e-08
2.02843e-08
3.53446e-08
6.01025e-08
1.00405e-07
1.65266e-07
2.68275e-07
4.29417e-07
6.77195e-07
1.05081e-06
1.60185e-06
2.39454e-06
3.50358e-06
5.00864e-06
6.98571e-06
9.49687e-06
1.25812e-05
1.62495e-05
2.04843e-05
2.52432e-05
3.0465e-05
3.60759e-05
4.19945e-05
4.81362e-05
5.44161e-05
6.07517e-05
6.70663e-05
7.32965e-05
7.94084e-05
8.54328e-05
9.15198e-05
9.79655e-05
0.000105219
0.000113802
0.000124479
0.000138025
0.000155483
0.000178035
0.000207068
0.00024427
0.000291742
0.000352124
0.00042876
0.000525956
0.000649262
0.000805833
0.00100511
0.00125894
0.00158224
0.00199478
0.00252208
0.00319729
0.00406354
0.00516477
0.00655146
0.00840333
0.0107968
0.0138875
0.0270763
0.0446924
0.0622665
0.0795502
0.0963527
0.112524
0.127943
0.142511
0.156144
0.168768
0.180315
0.190721
0.19991
0.207812
0.214373
0.219568
0.223436
0.226112
0.227825
0.228843
0.22941
0.229709
0.22986
0.229934
0.22997
0.229986
0.229994
0.229997
0.229999
0.229999
0.23
0.23
0.23
0.23
0.23
0.23
0.23
0.23
0.23
5.67463e-10
2.48021e-09
5.69805e-09
1.10928e-08
2.00911e-08
3.50004e-08
5.94998e-08
9.93618e-08
1.63473e-07
2.65218e-07
4.24244e-07
6.68519e-07
1.03642e-06
1.57827e-06
2.35651e-06
3.44331e-06
4.91509e-06
6.84379e-06
9.28684e-06
1.22783e-05
1.58239e-05
1.99011e-05
2.4463e-05
2.94441e-05
3.47665e-05
4.03453e-05
4.60928e-05
5.1921e-05
5.7745e-05
6.34861e-05
6.9078e-05
7.44825e-05
7.97189e-05
8.49135e-05
9.03429e-05
9.63393e-05
0.000103641
0.000112907
0.000124926
0.000140687
0.000161326
0.000188189
0.00022292
0.000267575
0.000324762
0.000397805
0.000490955
0.000609668
0.000760913
0.000953795
0.00120016
0.00151574
0.00192036
0.0024393
0.0031061
0.0039644
0.00505937
0.00644221
0.0082942
0.0106949
0.0138108
0.0263268
0.0439177
0.0614834
0.0787755
0.0955983
0.111798
0.127252
0.14186
0.155537
0.16821
0.179808
0.190268
0.199515
0.207478
0.214103
0.219361
0.223288
0.226014
0.227765
0.228808
0.22939
0.229699
0.229856
0.229932
0.229969
0.229986
0.229994
0.229997
0.229999
0.229999
0.23
0.23
0.23
0.23
0.23
0.23
0.23
0.23
0.23
5.61513e-10
2.45415e-09
5.63789e-09
1.09745e-08
1.98736e-08
3.46132e-08
5.8823e-08
9.81916e-08
1.61466e-07
2.61803e-07
4.18477e-07
6.58871e-07
1.02045e-06
1.55219e-06
2.31456e-06
3.37706e-06
4.81263e-06
6.68899e-06
9.05879e-06
1.19511e-05
1.53666e-05
1.92784e-05
2.36355e-05
2.83689e-05
3.33984e-05
3.86371e-05
4.39956e-05
4.93858e-05
5.47228e-05
5.99286e-05
6.49384e-05
6.97133e-05
7.42676e-05
7.8712e-05
8.32995e-05
8.8381e-05
9.45508e-05
0.00010252
0.000113121
0.000127292
0.000146126
0.000170927
0.000203293
0.000245227
0.000299277
0.000368711
0.000457736
0.000571786
0.000717894
0.000905105
0.00114508
0.00145298
0.00184876
0.00235893
0.00301723
0.00386721
0.00495532
0.00633322
0.00818356
0.0105888
0.0137268
0.0253993
0.0429613
0.0605182
0.0778247
0.0946728
0.110907
0.126403
0.141059
0.15479
0.167521
0.179181
0.189709
0.199027
0.207065
0.213768
0.219104
0.223103
0.225891
0.227688
0.228763
0.229367
0.229689
0.22985
0.22993
0.229968
0.229985
0.229993
0.229997
0.229999
0.229999
0.23
0.23
0.23
0.23
0.23
0.23
0.23
0.23
0.23
5.55046e-10
2.42584e-09
5.57253e-09
1.08461e-08
1.96377e-08
3.41939e-08
5.80911e-08
9.69285e-08
1.59305e-07
2.58132e-07
4.12293e-07
6.48548e-07
1.00341e-06
1.52443e-06
2.27005e-06
3.307e-06
4.70466e-06
6.52651e-06
8.82046e-06
1.16107e-05
1.48935e-05
1.86379e-05
2.27895e-05
2.72775e-05
3.20198e-05
3.69291e-05
4.19166e-05
4.6895e-05
5.17817e-05
5.65016e-05
6.09926e-05
6.52175e-05
6.9187e-05
7.29981e-05
7.68764e-05
8.11848e-05
8.63284e-05
9.31706e-05
0.000102588
0.000115353
0.00013254
0.000155423
0.000185562
0.000224914
0.000275977
0.000341961
0.000427014
0.000536511
0.000677421
0.000858792
0.00109239
0.00139347
0.00178178
0.00228316
0.00293187
0.00377321
0.00485411
0.00622661
0.00807447
0.0104832
0.0136345
0.0242766
0.0418177
0.0593765
0.0766853
0.0935572
0.109835
0.12538
0.140093
0.153887
0.166688
0.178424
0.189031
0.198435
0.206564
0.21336
0.218789
0.222876
0.225738
0.227592
0.228712
0.229341
0.229675
0.229844
0.229926
0.229966
0.229985
0.229993
0.229997
0.229999
0.229999
0.23
0.23
0.23
0.23
0.23
0.23
0.23
0.23
0.23
5.48213e-10
2.39594e-09
5.50353e-09
1.07106e-08
1.93891e-08
3.37528e-08
5.73224e-08
9.56044e-08
1.57044e-07
2.543e-07
4.05853e-07
6.37826e-07
9.85758e-07
1.49575e-06
2.22419e-06
3.23505e-06
4.59415e-06
6.36081e-06
8.57838e-06
1.12665e-05
1.44174e-05
1.79966e-05
2.19476e-05
2.61979e-05
3.06653e-05
3.52629e-05
3.99036e-05
4.45027e-05
4.89809e-05
5.32671e-05
5.73034e-05
6.10559e-05
6.45344e-05
6.78262e-05
7.11361e-05
7.4807e-05
7.92922e-05
8.51947e-05
9.33673e-05