/*--------------------------------*- C++ -*----------------------------------*\
  =========                 |
  \\      /  F ield         | OpenFOAM: The Open Source CFD Toolbox
   \\    /   O peration     | Website:  https://openfoam.org
    \\  /    A nd           | Version:  8
     \\/     M anipulation  |
\*---------------------------------------------------------------------------*/
FoamFile
{
    version     2.0;
    format      ascii;
    class       surfaceScalarField;
    location    "980/fluid";
    object      phi;
}
// * * * * * * * * * * * * * * * * * * * * * * * * * * * * * * * * * * * * * //

dimensions      [1 0 -1 0 0 0 0];

internalField   nonuniform List<scalar> 
7860
(
6.57257e-07
-1.77789e-08
6.54561e-07
-5.33415e-08
6.50724e-07
-8.87253e-08
6.45635e-07
-1.23827e-07
6.39159e-07
-1.5865e-07
6.31133e-07
-1.93149e-07
6.21369e-07
-2.27239e-07
6.09667e-07
-2.60798e-07
5.95823e-07
-2.93657e-07
5.7964e-07
-3.25595e-07
5.60946e-07
-3.56322e-07
5.3962e-07
-3.85471e-07
5.15639e-07
-4.12585e-07
4.89181e-07
-4.3712e-07
4.60529e-07
-4.58436e-07
4.30049e-07
-4.75868e-07
3.98215e-07
-4.88861e-07
3.65574e-07
-4.97121e-07
3.3269e-07
-5.00738e-07
3.00073e-07
-5.00201e-07
2.6813e-07
-4.96297e-07
2.37145e-07
-4.89938e-07
2.07297e-07
-4.8198e-07
1.78719e-07
-4.73121e-07
1.51459e-07
-4.63842e-07
1.25477e-07
-4.54443e-07
1.00704e-07
-4.45083e-07
7.70655e-08
-4.35829e-07
5.44899e-08
-4.26692e-07
3.29154e-08
-4.17653e-07
1.22897e-08
-4.08683e-07
-7.42725e-09
-3.99754e-07
-2.62636e-08
-3.90848e-07
-4.42491e-08
-3.81954e-07
-6.14144e-08
-3.73078e-07
-7.77829e-08
-3.64205e-07
-9.33739e-08
-3.55299e-07
-1.08207e-07
-3.46373e-07
-1.223e-07
-3.37446e-07
-1.35672e-07
-3.28542e-07
-1.48342e-07
-3.19685e-07
-1.6033e-07
-3.10901e-07
-1.71654e-07
-3.02217e-07
-1.82335e-07
-2.93661e-07
-1.92393e-07
-2.85261e-07
-2.01848e-07
-2.77044e-07
-2.10722e-07
-2.69036e-07
-2.19036e-07
-2.61264e-07
-2.2681e-07
-2.53755e-07
-2.34067e-07
-2.46534e-07
-2.40829e-07
-2.39629e-07
-2.47118e-07
-2.33065e-07
-2.52959e-07
-2.26873e-07
-2.58378e-07
-2.21086e-07
-2.63404e-07
-2.1574e-07
-2.68071e-07
-2.10881e-07
-2.72423e-07
-2.0656e-07
-2.76514e-07
-2.02872e-07
-2.80402e-07
-1.99885e-07
-2.84162e-07
-1.97661e-07
-2.87925e-07
-1.96438e-07
-2.92132e-07
-1.96392e-07
-2.97039e-07
-1.98627e-07
-3.03891e-07
-2.09757e-07
-3.11792e-07
-2.22204e-07
-3.20551e-07
-2.35942e-07
-3.3022e-07
-2.51152e-07
-3.40917e-07
-2.68071e-07
-3.52803e-07
-2.86973e-07
-3.66095e-07
-3.08183e-07
-3.81086e-07
-3.32095e-07
-3.98171e-07
-3.59173e-07
-4.17879e-07
-3.89952e-07
-4.40893e-07
-4.25151e-07
-4.68073e-07
-4.6543e-07
-5.00393e-07
-5.10816e-07
-5.38743e-07
-5.60253e-07
-5.83403e-07
-6.10834e-07
-6.34134e-07
-6.57104e-07
-6.89746e-07
-6.91966e-07
-7.47891e-07
-7.09763e-07
-8.05647e-07
-7.09356e-07
-8.60509e-07
-6.93945e-07
-9.10919e-07
-6.68204e-07
-9.56219e-07
-6.36173e-07
-9.96226e-07
-6.00479e-07
-1.03082e-06
-5.62573e-07
-1.06035e-06
-5.2315e-07
-1.08535e-06
-4.8265e-07
-1.10636e-06
-4.41406e-07
-1.12388e-06
-3.99668e-07
-1.13834e-06
-3.57633e-07
-1.15016e-06
-3.1545e-07
-1.1597e-06
-2.73227e-07
-1.16728e-06
-2.31038e-07
-1.17318e-06
-1.88924e-07
-1.17763e-06
-1.46897e-07
-1.18083e-06
-1.04928e-07
-1.18292e-06
-6.29503e-08
-2.09782e-08
6.57905e-07
-1.71505e-08
6.5576e-07
-5.11962e-08
6.52019e-07
-8.49846e-08
6.46682e-07
-1.1849e-07
6.39679e-07
-1.51648e-07
6.3091e-07
-1.84381e-07
6.20262e-07
-2.16591e-07
6.07618e-07
-2.48153e-07
5.92873e-07
-2.78912e-07
5.75945e-07
-3.08668e-07
5.56791e-07
-3.37167e-07
5.35412e-07
-3.64092e-07
5.11877e-07
-3.8905e-07
4.86351e-07
-4.11595e-07
4.59066e-07
-4.31151e-07
4.30319e-07
-4.47122e-07
4.00481e-07
-4.59023e-07
3.69972e-07
-4.66613e-07
3.39218e-07
-4.69985e-07
3.08605e-07
-4.69589e-07
2.78443e-07
-4.66136e-07
2.48952e-07
-4.60447e-07
2.20273e-07
-4.53302e-07
1.92503e-07
-4.45352e-07
1.65695e-07
-4.37035e-07
1.39859e-07
-4.28607e-07
1.14984e-07
-4.20208e-07
9.10515e-08
-4.11897e-07
6.80412e-08
-4.03682e-07
4.59317e-08
-3.95544e-07
2.47032e-08
-3.87454e-07
4.3364e-09
-3.79388e-07
-1.51869e-08
-3.71325e-07
-3.38833e-08
-3.63258e-07
-5.17705e-08
-3.55191e-07
-6.88622e-08
-3.47114e-07
-8.51721e-08
-3.38989e-07
-1.00715e-07
-3.30829e-07
-1.15509e-07
-3.22653e-07
-1.29568e-07
-3.14482e-07
-1.42913e-07
-3.0634e-07
-1.55562e-07
-2.98252e-07
-1.67534e-07
-2.90245e-07
-1.78852e-07
-2.82344e-07
-1.89536e-07
-2.74577e-07
-1.99609e-07
-2.66971e-07
-2.09095e-07
-2.59551e-07
-2.18016e-07
-2.52343e-07
-2.26398e-07
-2.45373e-07
-2.34267e-07
-2.38666e-07
-2.4165e-07
-2.32246e-07
-2.48576e-07
-2.2614e-07
-2.55076e-07
-2.20373e-07
-2.61188e-07
-2.14975e-07
-2.66951e-07
-2.09977e-07
-2.72416e-07
-2.05416e-07
-2.77645e-07
-2.01332e-07
-2.82714e-07
-1.97804e-07
-2.87725e-07
-1.94874e-07
-2.92822e-07
-1.92563e-07
-2.98235e-07
-1.91026e-07
-3.04245e-07
-1.90384e-07
-3.0999e-07
-1.92871e-07
-3.17013e-07
-2.02733e-07
-3.25265e-07
-2.13951e-07
-3.34646e-07
-2.2656e-07
-3.45148e-07
-2.40648e-07
-3.56848e-07
-2.5637e-07
-3.69877e-07
-2.73943e-07
-3.84417e-07
-2.9364e-07
-4.00706e-07
-3.15805e-07
-4.19035e-07
-3.40842e-07
-4.39749e-07
-3.69235e-07
-4.63231e-07
-4.01665e-07
-4.89954e-07
-4.38703e-07
-5.20451e-07
-4.80315e-07
-5.55229e-07
-5.25469e-07
-5.94605e-07
-5.71453e-07
-6.38651e-07
-6.13052e-07
-6.86788e-07
-6.43825e-07
-7.3748e-07
-6.59068e-07
-7.88599e-07
-6.58235e-07
-8.38198e-07
-6.44344e-07
-8.84964e-07
-6.21438e-07
-9.28251e-07
-5.92886e-07
-9.67801e-07
-5.60929e-07
-1.00346e-06
-5.26916e-07
-1.03521e-06
-4.91397e-07
-1.06316e-06
-4.54697e-07
-1.08749e-06
-4.1708e-07
-1.10841e-06
-3.7875e-07
-1.12617e-06
-3.3987e-07
-1.14105e-06
-3.00575e-07
-1.1533e-06
-2.60974e-07
-1.16319e-06
-2.21151e-07
-1.17094e-06
-1.81174e-07
-1.17675e-06
-1.41086e-07
-1.18077e-06
-1.00904e-07
-1.18309e-06
-6.06304e-08
-2.02488e-08
6.57605e-07
-1.62222e-08
6.5492e-07
-4.85108e-08
6.50489e-07
-8.05533e-08
6.44277e-07
-1.12278e-07
6.36242e-07
-1.43613e-07
6.26336e-07
-1.74474e-07
6.1451e-07
-2.04766e-07
6.0073e-07
-2.34373e-07
5.84975e-07
-2.63157e-07
5.67255e-07
-2.90948e-07
5.47612e-07
-3.17524e-07
5.26124e-07
-3.42605e-07
5.02904e-07
-3.65831e-07
4.78068e-07
-3.86759e-07
4.51799e-07
-4.04882e-07
4.24362e-07
-4.19685e-07
3.96083e-07
-4.30745e-07
3.67319e-07
-4.37849e-07
3.38419e-07
-4.41086e-07
3.09691e-07
-4.40862e-07
2.81375e-07
-4.37821e-07
2.5364e-07
-4.32713e-07
2.26582e-07
-4.26246e-07
2.00231e-07
-4.19001e-07
1.7459e-07
-4.11395e-07
1.4967e-07
-4.03687e-07
1.25478e-07
-3.96017e-07
1.02022e-07
-3.88442e-07
7.93078e-08
-3.80968e-07
5.73375e-08
-3.73574e-07
3.61133e-08
-3.66231e-07
1.56352e-08
-3.5891e-07
-4.09847e-09
-3.51592e-07
-2.30918e-08
-3.44265e-07
-4.13511e-08
-3.36932e-07
-5.88806e-08
-3.29585e-07
-7.56855e-08
-3.22185e-07
-9.1774e-08
-3.14741e-07
-1.07156e-07
-3.07271e-07
-1.21844e-07
-2.99794e-07
-1.35852e-07
-2.92332e-07
-1.49196e-07
-2.84909e-07
-1.61892e-07
-2.77549e-07
-1.73961e-07
-2.70276e-07
-1.85423e-07
-2.63116e-07
-1.96301e-07
-2.56093e-07
-2.06618e-07
-2.49233e-07
-2.16402e-07
-2.4256e-07
-2.25679e-07
-2.36096e-07
-2.34481e-07
-2.29864e-07
-2.4284e-07
-2.23887e-07
-2.50793e-07
-2.18187e-07
-2.58381e-07
-2.12786e-07
-2.6565e-07
-2.07707e-07
-2.72653e-07
-2.02975e-07
-2.79452e-07
-1.98617e-07
-2.8612e-07
-1.94664e-07
-2.9274e-07
-1.91184e-07
-2.99417e-07
-1.88198e-07
-3.06271e-07
-1.8571e-07
-3.1344e-07
-1.83856e-07
-3.21088e-07
-1.82738e-07
-3.27819e-07
-1.8613e-07
-3.35591e-07
-1.9496e-07
-3.44439e-07
-2.05101e-07
-3.54389e-07
-2.16608e-07
-3.65489e-07
-2.29547e-07
-3.77813e-07
-2.44044e-07
-3.91465e-07
-2.60289e-07
-4.06571e-07
-2.78533e-07
-4.23274e-07
-2.99098e-07
-4.41739e-07
-3.22375e-07
-4.62119e-07
-3.48851e-07
-4.84567e-07
-3.79213e-07
-5.09313e-07
-4.13953e-07
-5.36683e-07
-4.5294e-07
-5.67178e-07
-4.94968e-07
-6.01574e-07
-5.37051e-07
-6.40421e-07
-5.742e-07
-6.83502e-07
-6.00739e-07
-7.29559e-07
-6.13008e-07
-7.76681e-07
-6.11111e-07
-8.23055e-07
-5.9797e-07
-8.67389e-07
-5.77103e-07
-9.08962e-07
-5.51313e-07
-9.47466e-07
-5.22425e-07
-9.82904e-07
-4.91478e-07
-1.01524e-06
-4.59056e-07
-1.04445e-06
-4.25492e-07
-1.07053e-06
-3.90998e-07
-1.09356e-06
-3.55726e-07
-1.11362e-06
-3.19802e-07
-1.13086e-06
-2.83334e-07
-1.14542e-06
-2.46416e-07
-1.15744e-06
-2.09128e-07
-1.16708e-06
-1.71543e-07
-1.17444e-06
-1.3372e-07
-1.17964e-06
-9.56994e-08
-1.18277e-06
-5.75093e-08
-1.91935e-08
6.57625e-07
-1.53137e-08
6.54876e-07
-4.57612e-08
6.5028e-07
-7.59573e-08
6.43834e-07
-1.05832e-07
6.35529e-07
-1.35308e-07
6.25354e-07
-1.64299e-07
6.133e-07
-1.92711e-07
5.99363e-07
-2.20437e-07
5.83553e-07
-2.47347e-07
5.65891e-07
-2.73286e-07
5.4642e-07
-2.98053e-07
5.25209e-07
-3.21394e-07
5.0236e-07
-3.42983e-07
4.78023e-07
-3.62422e-07
4.52396e-07
-3.79256e-07
4.25731e-07
-3.93021e-07
3.98319e-07
-4.03334e-07
3.7047e-07
-4.10001e-07
3.42483e-07
-4.13101e-07
3.14622e-07
-4.13002e-07
2.87095e-07
-4.10295e-07
2.6005e-07
-4.05669e-07
2.33584e-07
-3.9978e-07
2.07747e-07
-3.93166e-07
1.82566e-07
-3.86215e-07
1.58049e-07
-3.79171e-07
1.34198e-07
-3.72167e-07
1.11012e-07
-3.65257e-07
8.84905e-08
-3.58447e-07
6.66338e-08
-3.51717e-07
4.54425e-08
-3.4504e-07
2.49178e-08
-3.38386e-07
5.0601e-09
-3.31734e-07
-1.41312e-08
-3.25074e-07
-3.26585e-08
-3.18405e-07
-5.05226e-08
-3.11721e-07
-6.77247e-08
-3.04983e-07
-8.42691e-08
-2.98197e-07
-1.00162e-07
-2.91378e-07
-1.15413e-07
-2.84544e-07
-1.30033e-07
-2.77713e-07
-1.44034e-07
-2.70908e-07
-1.57433e-07
-2.6415e-07
-1.70246e-07
-2.57463e-07
-1.82495e-07
-2.50868e-07
-1.942e-07
-2.44389e-07
-2.05385e-07
-2.38049e-07
-2.16078e-07
-2.31868e-07
-2.26307e-07
-2.25867e-07
-2.36105e-07
-2.20067e-07
-2.45506e-07
-2.14487e-07
-2.54549e-07
-2.09144e-07
-2.63277e-07
-2.04058e-07
-2.71737e-07
-1.99247e-07
-2.79983e-07
-1.94729e-07
-2.88075e-07
-1.90526e-07
-2.96078e-07
-1.86661e-07
-3.04066e-07
-1.83196e-07
-3.12127e-07
-1.80138e-07
-3.2035e-07
-1.77488e-07
-3.2883e-07
-1.75377e-07
-3.37659e-07
-1.73912e-07
-3.45385e-07
-1.78397e-07
-3.53976e-07
-1.86367e-07
-3.63489e-07
-1.95586e-07
-3.73987e-07
-2.06109e-07
-3.85537e-07
-2.17995e-07
-3.98219e-07
-2.3136e-07
-4.12122e-07
-2.46384e-07
-4.27344e-07
-2.63308e-07
-4.43997e-07
-2.82443e-07
-4.62204e-07
-3.04164e-07
-4.82084e-07
-3.28967e-07
-5.03794e-07
-3.575e-07
-5.27603e-07
-3.90139e-07
-5.53906e-07
-4.26631e-07
-5.83235e-07
-4.65633e-07
-6.1619e-07
-5.04089e-07
-6.53141e-07
-5.37243e-07
-6.93799e-07
-5.60077e-07
-7.37038e-07
-5.69766e-07
-7.81263e-07
-5.66884e-07
-8.24981e-07
-5.5425e-07
-8.67111e-07
-5.34973e-07
-9.06987e-07
-5.11437e-07
-9.44251e-07
-4.8516e-07
-9.78739e-07
-4.5699e-07
-1.0104e-06
-4.27398e-07
-1.03923e-06
-3.96663e-07
-1.06525e-06
-3.64971e-07
-1.08852e-06
-3.32461e-07
-1.10908e-06
-2.99244e-07
-1.12699e-06
-2.65421e-07
-1.14233e-06
-2.31079e-07
-1.15516e-06
-1.96297e-07
-1.16555e-06
-1.61148e-07
-1.17358e-06
-1.25698e-07
-1.17928e-06
-8.99999e-08
-1.18269e-06
-5.4099e-08
-1.80577e-08
6.57562e-07
-1.43425e-08
6.54675e-07
-4.28736e-08
6.49884e-07
-7.11661e-08
6.43194e-07
-9.91429e-08
6.34613e-07
-1.26726e-07
6.24148e-07
-1.53834e-07
6.11812e-07
-1.80376e-07
5.97628e-07
-2.06252e-07
5.81626e-07
-2.31345e-07
5.63853e-07
-2.55513e-07
5.44376e-07
-2.78576e-07
5.23285e-07
-3.00303e-07
5.00699e-07
-3.20397e-07
4.76773e-07
-3.38496e-07
4.517e-07
-3.54183e-07
4.25712e-07
-3.67034e-07
3.99071e-07
-3.76694e-07
3.72051e-07
-3.82982e-07
3.44913e-07
-3.85964e-07
3.17886e-07
-3.85975e-07
2.91148e-07
-3.83559e-07
2.64828e-07
-3.7935e-07
2.39008e-07
-3.73961e-07
2.13735e-07
-3.67894e-07
1.89033e-07
-3.61514e-07
1.64913e-07
-3.55052e-07
1.4138e-07
-3.48634e-07
1.18436e-07
-3.42313e-07
9.60824e-08
-3.36094e-07
7.43219e-08
-3.29957e-07
5.31571e-08
-3.23875e-07
3.25908e-08
-3.1782e-07
1.26254e-08
-3.11769e-07
-6.73777e-09
-3.05711e-07
-2.5499e-08
-2.99644e-07
-4.36581e-08
-2.93562e-07
-6.12142e-08
-2.87427e-07
-7.81696e-08
-2.81242e-07
-9.45286e-08
-2.75019e-07
-1.10298e-07
-2.68775e-07
-1.25486e-07
-2.62525e-07
-1.40105e-07
-2.5629e-07
-1.54168e-07
-2.50088e-07
-1.67691e-07
-2.4394e-07
-1.80692e-07
-2.37867e-07
-1.93192e-07
-2.31889e-07
-2.05214e-07
-2.26027e-07
-2.16784e-07
-2.20298e-07
-2.27929e-07
-2.14722e-07
-2.38681e-07
-2.09316e-07
-2.49071e-07
-2.04096e-07
-2.59138e-07
-1.99078e-07
-2.68919e-07
-1.94277e-07
-2.78459e-07
-1.89708e-07
-2.87803e-07
-1.85385e-07
-2.97002e-07
-1.81327e-07
-3.06113e-07
-1.77551e-07
-3.15192e-07
-1.74118e-07
-3.24312e-07
-1.71018e-07
-3.3354e-07
-1.6826e-07
-3.42953e-07
-1.65965e-07
-3.52617e-07
-1.64254e-07
-3.61309e-07
-1.69701e-07
-3.70709e-07
-1.76965e-07
-3.80874e-07
-1.8542e-07
-3.91888e-07
-1.95094e-07
-4.03837e-07
-2.06044e-07
-4.16805e-07
-2.18389e-07
-4.3088e-07
-2.32307e-07
-4.46153e-07
-2.48033e-07
-4.62721e-07
-2.65872e-07
-4.80693e-07
-2.86189e-07
-5.00168e-07
-3.09488e-07
-5.21295e-07
-3.36368e-07
-5.4433e-07
-3.67099e-07
-5.69637e-07
-4.01318e-07
-5.97708e-07
-4.37555e-07
-6.29082e-07
-4.72709e-07
-6.64075e-07
-5.02244e-07
-7.02409e-07
-5.21739e-07
-7.43086e-07
-5.29086e-07
-7.84734e-07
-5.25234e-07
-8.26089e-07
-5.12893e-07
-8.66229e-07
-4.94832e-07
-9.04569e-07
-4.73098e-07
-9.40762e-07
-4.48967e-07
-9.74604e-07
-4.23147e-07
-1.00597e-06
-3.96029e-07
-1.03479e-06
-3.67841e-07
-1.06103e-06
-3.38734e-07
-1.08467e-06
-3.08821e-07
-1.10572e-06
-2.78197e-07
-1.12419e-06
-2.46948e-07
-1.14012e-06
-2.15152e-07
-1.15353e-06
-1.82885e-07
-1.16446e-06
-1.5022e-07
-1.17293e-06
-1.17224e-07
-1.17898e-06
-8.39557e-08
-1.18261e-06
-5.04688e-08
-1.68425e-08
6.5756e-07
-1.33689e-08
6.54647e-07
-3.99601e-08
6.49806e-07
-6.63253e-08
6.43053e-07
-9.23903e-08
6.34407e-07
-1.1808e-07
6.23887e-07
-1.43314e-07
6.11521e-07
-1.6801e-07
5.97342e-07
-1.92073e-07
5.81393e-07
-2.15396e-07
5.63729e-07
-2.37849e-07
5.44421e-07
-2.59268e-07
5.23559e-07
-2.79441e-07
5.01262e-07
-2.981e-07
4.77678e-07
-3.14913e-07
4.52994e-07
-3.295e-07
4.27431e-07
-3.41471e-07
4.01237e-07
-3.50501e-07
3.74672e-07
-3.56418e-07
3.47986e-07
-3.59279e-07
3.21396e-07
-3.59386e-07
2.95074e-07
-3.57238e-07
2.69142e-07
-3.5342e-07
2.43678e-07
-3.48498e-07
2.18726e-07
-3.42943e-07
1.94308e-07
-3.37097e-07
1.70432e-07
-3.31176e-07
1.47099e-07
-3.25302e-07
1.24308e-07
-3.19523e-07
1.02059e-07
-3.13846e-07
8.03519e-08
-3.08251e-07
5.91879e-08
-3.02712e-07
3.85691e-08
-2.97202e-07
1.84976e-08
-2.91698e-07
-1.02517e-09
-2.86189e-07
-1.99993e-08
-2.8067e-07
-3.8424e-08
-2.75138e-07
-5.62977e-08
-2.69554e-07
-7.36214e-08
-2.63919e-07
-9.0398e-08
-2.58243e-07
-1.06633e-07
-2.5254e-07
-1.22333e-07
-2.46826e-07
-1.37508e-07
-2.41115e-07
-1.5217e-07
-2.35426e-07
-1.66333e-07
-2.29778e-07
-1.80013e-07
-2.24188e-07
-1.93229e-07
-2.18674e-07
-2.06002e-07
-2.13254e-07
-2.18354e-07
-2.07946e-07
-2.30312e-07
-2.02765e-07
-2.41903e-07
-1.97726e-07
-2.53155e-07
-1.92844e-07
-2.641e-07
-1.88133e-07
-2.74772e-07
-1.83606e-07
-2.85205e-07
-1.79275e-07
-2.95437e-07
-1.75154e-07
-3.05504e-07
-1.71259e-07
-3.1545e-07
-1.67605e-07
-3.25313e-07
-1.64256e-07
-3.35163e-07
-1.61168e-07
-3.45032e-07
-1.58391e-07
-3.55004e-07
-1.55995e-07
-3.65171e-07
-1.541e-07
-3.74891e-07
-1.59982e-07
-3.85022e-07
-1.66834e-07
-3.95744e-07
-1.74697e-07
-4.07192e-07
-1.83645e-07
-4.19467e-07
-1.93767e-07
-4.32661e-07
-2.05193e-07
-4.46863e-07
-2.18102e-07
-4.62166e-07
-2.32728e-07
-4.78669e-07
-2.49366e-07
-4.9648e-07
-2.68374e-07
-5.1571e-07
-2.90254e-07
-5.36536e-07
-3.15537e-07
-5.59236e-07
-3.44393e-07
-5.84192e-07
-3.76356e-07
-6.11889e-07
-4.09851e-07
-6.42805e-07
-4.41786e-07
-6.77139e-07
-4.67904e-07
-7.1449e-07
-4.84383e-07
-7.53837e-07
-4.89735e-07
-7.93907e-07
-4.85162e-07
-8.33585e-07
-4.73214e-07
-8.72084e-07
-4.56333e-07
-9.0891e-07
-4.36272e-07
-9.4377e-07
-4.14107e-07
-9.76488e-07
-3.90429e-07
-1.00695e-06
-3.65564e-07
-1.03509e-06
-3.39704e-07
-1.06085e-06
-3.12976e-07
-1.08419e-06
-2.85479e-07
-1.10509e-06
-2.57294e-07
-1.12354e-06
-2.28498e-07
-1.13953e-06
-1.99163e-07
-1.15306e-06
-1.69358e-07
-1.16413e-06
-1.39153e-07
-1.17274e-06
-1.08615e-07
-1.17889e-06
-7.78019e-08
-1.18259e-06
-4.67718e-08
-1.56077e-08
6.57551e-07
-1.23862e-08
6.54617e-07
-3.70264e-08
6.49749e-07
-6.14571e-08
6.42965e-07
-8.56066e-08
6.34289e-07
-1.09404e-07
6.23749e-07
-1.32774e-07
6.11378e-07
-1.55639e-07
5.97218e-07
-1.77914e-07
5.8132e-07
-1.99498e-07
5.63745e-07
-2.20275e-07
5.4457e-07
-2.40093e-07
5.23891e-07
-2.58762e-07
5.01827e-07
-2.76036e-07
4.78526e-07
-2.91613e-07
4.54169e-07
-3.05143e-07
4.28967e-07
-3.1627e-07
4.03155e-07
-3.2469e-07
3.76979e-07
-3.30243e-07
3.50673e-07
-3.32974e-07
3.24444e-07
-3.33159e-07
2.98456e-07
-3.31251e-07
2.72825e-07
-3.27791e-07
2.47629e-07
-3.23303e-07
2.2291e-07
-3.18226e-07
1.98689e-07
-3.12877e-07
1.74974e-07
-3.07462e-07
1.51765e-07
-3.02094e-07
1.29061e-07
-2.9682e-07
1.06859e-07
-2.91644e-07
8.51576e-08
-2.8655e-07
6.39579e-08
-2.81513e-07
4.32607e-08
-2.76505e-07
2.30674e-08
-2.71505e-07
3.37938e-09
-2.66501e-07
-1.58031e-08
-2.61488e-07
-3.44798e-08
-2.56461e-07
-5.26489e-08
-2.51385e-07
-7.03104e-08
-2.46257e-07
-8.74663e-08
-2.41088e-07
-1.0412e-07
-2.35887e-07
-1.20278e-07
-2.30668e-07
-1.35949e-07
-2.25445e-07
-1.51141e-07
-2.20234e-07
-1.65867e-07
-2.15052e-07
-1.80142e-07
-2.09913e-07
-1.93981e-07
-2.04835e-07
-2.07404e-07
-1.99833e-07
-2.20429e-07
-1.94921e-07
-2.3308e-07
-1.90115e-07
-2.45379e-07
-1.85427e-07
-2.57353e-07
-1.80872e-07
-2.69026e-07
-1.7646e-07
-2.80427e-07
-1.72205e-07
-2.91584e-07
-1.68119e-07
-3.02524e-07
-1.64215e-07
-3.13276e-07
-1.60508e-07
-3.23864e-07
-1.57018e-07
-3.34309e-07
-1.53811e-07
-3.44655e-07
-1.50823e-07
-3.54905e-07
-1.48142e-07
-3.65084e-07
-1.45816e-07
-3.75235e-07
-1.4396e-07
-3.85617e-07
-1.496e-07
-3.96382e-07
-1.56069e-07
-4.07658e-07
-1.6342e-07
-4.19567e-07
-1.71734e-07
-4.32217e-07
-1.81116e-07
-4.45705e-07
-1.91703e-07
-4.60127e-07
-2.03677e-07
-4.75581e-07
-2.17271e-07
-4.92173e-07
-2.32771e-07
-5.10021e-07
-2.50522e-07
-5.29253e-07
-2.71018e-07
-5.50067e-07
-2.94718e-07
-5.72747e-07
-3.21707e-07
-5.97661e-07
-3.51436e-07
-6.2524e-07
-3.82265e-07
-6.55861e-07
-4.11158e-07
-6.89596e-07
-4.34164e-07
-7.25971e-07
-4.48003e-07
-7.6402e-07
-4.51684e-07
-8.02614e-07
-4.46566e-07
-8.40797e-07
-4.3503e-07
-8.77893e-07
-4.19236e-07
-9.13469e-07
-4.00697e-07
-9.47252e-07
-3.80323e-07
-9.79069e-07
-3.58612e-07
-1.0088e-06
-3.35834e-07
-1.03635e-06
-3.12151e-07
-1.06166e-06
-2.87669e-07
-1.08467e-06
-2.62469e-07
-1.10534e-06
-2.36623e-07
-1.12364e-06
-2.10199e-07
-1.13954e-06
-1.8326e-07
-1.15303e-06
-1.5587e-07
-1.16409e-06
-1.28095e-07
-1.17271e-06
-9.9997e-08
-1.17887e-06
-7.16344e-08
-1.18258e-06
-4.30636e-08
-1.43685e-08
6.57554e-07
-1.14068e-08
6.54627e-07
-3.40993e-08
6.49769e-07
-5.65992e-08
6.43002e-07
-7.88394e-08
6.34352e-07
-1.00754e-07
6.23851e-07
-1.22273e-07
6.11537e-07
-1.43326e-07
5.97456e-07
-1.63832e-07
5.81661e-07
-1.83703e-07
5.64216e-07
-2.0283e-07
5.452e-07
-2.21077e-07
5.24707e-07
-2.38269e-07
5.02855e-07
-2.54184e-07
4.79788e-07
-2.68546e-07
4.5568e-07
-2.81036e-07
4.30736e-07
-2.91326e-07
4.05183e-07
-2.99139e-07
3.7926e-07
-3.04321e-07
3.53195e-07
-3.06911e-07
3.27189e-07
-3.07155e-07
3.01406e-07
-3.05468e-07
2.75959e-07
-3.02346e-07
2.50925e-07
-2.98271e-07
2.26347e-07
-2.93648e-07
2.02243e-07
-2.88774e-07
1.78621e-07
-2.83841e-07
1.55478e-07
-2.78952e-07
1.32811e-07
-2.74154e-07
1.10616e-07
-2.6945e-07
8.8891e-08
-2.64826e-07
6.76341e-08
-2.60256e-07
4.68455e-08
-2.55717e-07
2.6526e-08
-2.51186e-07
6.67631e-09
-2.46652e-07
-1.27032e-08
-2.42109e-07
-3.16125e-08
-2.37552e-07
-5.00496e-08
-2.32949e-07
-6.80139e-08
-2.28294e-07
-8.55063e-08
-2.23596e-07
-1.02529e-07
-2.18864e-07
-1.19088e-07
-2.1411e-07
-1.35187e-07
-2.09346e-07
-1.50836e-07
-2.04586e-07
-1.66045e-07
-1.99844e-07
-1.80826e-07
-1.95134e-07
-1.95192e-07
-1.9047e-07
-2.09159e-07
-1.85866e-07
-2.22744e-07
-1.81336e-07
-2.35967e-07
-1.76893e-07
-2.48847e-07
-1.72548e-07
-2.61405e-07
-1.68313e-07
-2.73666e-07
-1.64201e-07
-2.85651e-07
-1.60221e-07
-2.97385e-07
-1.56385e-07
-3.08892e-07
-1.52708e-07
-3.20196e-07
-1.49205e-07
-3.31313e-07
-1.45902e-07
-3.42271e-07
-1.42853e-07
-3.5308e-07
-1.40014e-07
-3.63736e-07
-1.37487e-07
-3.74209e-07
-1.35343e-07
-3.84366e-07
-1.33804e-07
-3.94928e-07
-1.39037e-07
-4.05971e-07
-1.45025e-07
-4.17567e-07
-1.51823e-07
-4.29794e-07
-1.59504e-07
-4.42739e-07
-1.68169e-07
-4.56487e-07
-1.77951e-07
-4.71131e-07
-1.8903e-07
-4.8677e-07
-2.01628e-07
-5.03518e-07
-2.16018e-07
-5.21501e-07
-2.32533e-07
-5.40868e-07
-2.51644e-07
-5.61837e-07
-2.73741e-07
-5.847e-07
-2.98836e-07
-6.09813e-07
-3.26314e-07
-6.37561e-07
-3.54509e-07
-6.68223e-07
-3.80487e-07
-7.01752e-07
-4.00629e-07
-7.37591e-07
-4.12158e-07
-7.74786e-07
-4.14486e-07
-8.12305e-07
-4.09045e-07
-8.49307e-07
-3.98028e-07
-8.85209e-07
-3.83333e-07
-9.19641e-07
-3.66265e-07
-9.52369e-07
-3.47595e-07
-9.83237e-07
-3.27744e-07
-1.01213e-06
-3.06939e-07
-1.03897e-06
-2.85316e-07
-1.06367e-06
-2.62966e-07
-1.08618e-06
-2.39958e-07
-1.10645e-06
-2.16357e-07
-1.12443e-06
-1.92219e-07
-1.14008e-06
-1.67604e-07
-1.15338e-06
-1.42569e-07
-1.16431e-06
-1.17174e-07
-1.17283e-06
-9.14769e-08
-1.17893e-06
-6.55325e-08
-1.1826e-06
-3.93944e-08
-1.31431e-08
6.57558e-07
-1.04311e-08
6.54643e-07
-3.11841e-08
6.49805e-07
-5.17617e-08
6.43068e-07
-7.21021e-08
6.34459e-07
-9.21444e-08
6.24011e-07
-1.11826e-07
6.11766e-07
-1.3108e-07
5.97769e-07
-1.49836e-07
5.82077e-07
-1.68011e-07
5.64754e-07
-1.85507e-07
5.4588e-07
-2.02202e-07
5.25548e-07
-2.17938e-07
5.03875e-07
-2.32512e-07
4.81002e-07
-2.45673e-07
4.57099e-07
-2.57133e-07
4.32363e-07
-2.66591e-07
4.07016e-07
-2.73793e-07
3.81289e-07
-2.78595e-07
3.55407e-07
-2.81029e-07
3.29566e-07
-2.81315e-07
3.03926e-07
-2.7983e-07
2.78604e-07
-2.77025e-07
2.53675e-07
-2.73343e-07
2.29181e-07
-2.69156e-07
2.05143e-07
-2.64737e-07
1.81565e-07
-2.60264e-07
1.58446e-07
-2.55834e-07
1.3578e-07
-2.51489e-07
1.13563e-07
-2.47234e-07
9.17904e-08
-2.43054e-07
7.04597e-08
-2.38926e-07
4.95702e-08
-2.34828e-07
2.91219e-08
-2.30739e-07
9.11547e-09
-2.26646e-07
-1.04491e-08
-2.22545e-07
-2.95718e-08
-2.1843e-07
-4.82503e-08
-2.1427e-07
-6.64832e-08
-2.10061e-07
-8.42707e-08
-2.05809e-07
-1.01614e-07
-2.01521e-07
-1.18517e-07
-1.97208e-07
-1.34983e-07
-1.92881e-07
-1.51018e-07
-1.88551e-07
-1.66632e-07
-1.8423e-07
-1.81834e-07
-1.79932e-07
-1.96635e-07
-1.75669e-07
-2.11048e-07
-1.71454e-07
-2.25087e-07
-1.67298e-07
-2.38768e-07
-1.63212e-07
-2.52108e-07
-1.59208e-07
-2.65125e-07
-1.55297e-07
-2.77838e-07
-1.51488e-07
-2.90267e-07
-1.47792e-07
-3.02433e-07
-1.4422e-07
-3.14356e-07
-1.40786e-07
-3.26058e-07
-1.37503e-07
-3.37557e-07
-1.34403e-07
-3.48883e-07
-1.31528e-07
-3.6005e-07
-1.28847e-07
-3.71065e-07
-1.26473e-07
-3.8191e-07
-1.24501e-07
-3.92149e-07
-1.23557e-07
-4.02867e-07
-1.28319e-07
-4.1411e-07
-1.33781e-07
-4.25928e-07
-1.40004e-07
-4.38386e-07
-1.47044e-07
-4.5156e-07
-1.54993e-07
-4.6553e-07
-1.63979e-07
-4.80386e-07
-1.74171e-07
-4.96231e-07
-1.8578e-07
-5.13183e-07
-1.99063e-07
-5.31376e-07
-2.14336e-07
-5.50977e-07
-2.32039e-07
-5.72216e-07
-2.52496e-07
-5.95384e-07
-2.75661e-07
-6.20815e-07
-3.00875e-07
-6.48832e-07
-3.26483e-07
-6.79615e-07
-3.49697e-07
-7.12999e-07
-3.67238e-07
-7.48375e-07
-3.76778e-07
-7.84823e-07
-3.78035e-07
-8.21409e-07
-3.72457e-07
-8.57396e-07
-3.62039e-07
-8.92281e-07
-3.48448e-07
-9.25737e-07
-3.32808e-07
-9.57555e-07
-3.15776e-07
-9.87593e-07
-2.97706e-07
-1.01574e-06
-2.78791e-07
-1.04191e-06
-2.59145e-07
-1.06603e-06
-2.38845e-07
-1.08804e-06
-2.17953e-07
-1.10787e-06
-1.96521e-07
-1.12549e-06
-1.74603e-07
-1.14084e-06
-1.52249e-07
-1.1539e-06
-1.29512e-07
-1.16463e-06
-1.06444e-07
-1.17301e-06
-8.31014e-08
-1.17901e-06
-5.95318e-08
-1.18262e-06
-3.57857e-08
-1.19381e-08
6.57564e-07
-9.46139e-09
6.54666e-07
-2.8286e-08
6.49857e-07
-4.69523e-08
6.43159e-07
-6.54042e-08
6.34601e-07
-8.35864e-08
6.24217e-07
-1.01442e-07
6.12048e-07
-1.18911e-07
5.98143e-07
-1.3593e-07
5.82555e-07
-1.52423e-07
5.65351e-07
-1.68304e-07
5.46609e-07
-1.8346e-07
5.26421e-07
-1.97751e-07
5.04902e-07
-2.10993e-07
4.82188e-07
-2.2296e-07
4.58447e-07
-2.33392e-07
4.3387e-07
-2.42015e-07
4.08675e-07
-2.48598e-07
3.83088e-07
-2.53009e-07
3.5733e-07
-2.55272e-07
3.31597e-07
-2.55584e-07
3.06049e-07
-2.54283e-07
2.80802e-07
-2.51779e-07
2.55933e-07
-2.48474e-07
2.31483e-07
-2.44708e-07
2.07474e-07
-2.40729e-07
1.83909e-07
-2.367e-07
1.60786e-07
-2.32712e-07
1.38099e-07
-2.28803e-07
1.15842e-07
-2.24977e-07
9.40096e-08
-2.21222e-07
7.25982e-08
-2.17515e-07
5.16065e-08
-2.13836e-07
3.1034e-08
-2.10167e-07
1.08811e-08
-2.06493e-07
-8.85234e-09
-2.02812e-07
-2.8166e-08
-1.99117e-07
-4.70575e-08
-1.95379e-07
-6.55248e-08
-1.91594e-07
-8.35669e-08
-1.87767e-07
-1.01184e-07
-1.83904e-07
-1.18378e-07
-1.80015e-07
-1.35152e-07
-1.76107e-07
-1.5151e-07
-1.72193e-07
-1.67459e-07
-1.68282e-07
-1.83006e-07
-1.64386e-07
-1.98161e-07
-1.60515e-07
-2.12933e-07
-1.56682e-07
-2.27335e-07
-1.52897e-07
-2.41378e-07
-1.49169e-07
-2.55078e-07
-1.4551e-07
-2.68448e-07
-1.41927e-07
-2.81506e-07
-1.38431e-07
-2.94266e-07
-1.35032e-07
-3.06748e-07
-1.3174e-07
-3.18968e-07
-1.28566e-07
-3.30946e-07
-1.25526e-07
-3.42701e-07
-1.22648e-07
-3.54259e-07
-1.19971e-07
-3.6564e-07
-1.17468e-07
-3.76874e-07
-1.15239e-07
-3.88014e-07
-1.13363e-07
-3.98455e-07
-1.13084e-07
-4.09383e-07
-1.17387e-07
-4.20829e-07
-1.22331e-07
-4.32853e-07
-1.27976e-07
-4.45518e-07
-1.34374e-07
-4.58898e-07
-1.41609e-07
-4.73071e-07
-1.49801e-07
-4.88132e-07
-1.59105e-07
-5.04186e-07
-1.6972e-07
-5.2136e-07
-1.81883e-07
-5.39797e-07
-1.95892e-07
-5.59678e-07
-2.1215e-07
-5.81244e-07
-2.30922e-07
-6.04781e-07
-2.52115e-07
-6.30595e-07
-2.75051e-07
-6.58952e-07
-2.98117e-07
-6.89935e-07
-3.18706e-07
-7.23283e-07
-3.33884e-07
-7.58335e-07
-3.4172e-07
-7.94204e-07
-3.42163e-07
-8.30037e-07
-3.36621e-07
-8.65182e-07
-3.26893e-07
-8.99197e-07
-3.14432e-07
-9.31799e-07
-3.00207e-07
-9.62801e-07
-2.84774e-07
-9.92075e-07
-2.68432e-07
-1.01952e-06
-2.51347e-07
-1.04505e-06
-2.33615e-07
-1.06859e-06
-2.15301e-07
-1.09009e-06
-1.96459e-07
-1.10947e-06
-1.77135e-07
-1.1267e-06
-1.57375e-07
-1.14173e-06
-1.37223e-07
-1.15451e-06
-1.16728e-07
-1.16502e-06
-9.59354e-08
-1.17322e-06
-7.48954e-08
-1.17911e-06
-5.36517e-08
-1.18264e-06
-3.22496e-08
-1.07577e-08
6.5757e-07
-8.49761e-09
6.54689e-07
-2.54054e-08
6.49909e-07
-4.21718e-08
6.43251e-07
-5.87464e-08
6.34744e-07
-7.50798e-08
6.24423e-07
-9.11211e-08
6.12329e-07
-1.06817e-07
5.98508e-07
-1.22109e-07
5.83016e-07
-1.36931e-07
5.65918e-07
-1.51206e-07
5.4729e-07
-1.64833e-07
5.27226e-07
-1.77686e-07
5.05834e-07
-1.89602e-07
4.83252e-07
-2.00378e-07
4.5964e-07
-2.09781e-07
4.35189e-07
-2.17565e-07
4.1011e-07
-2.23521e-07
3.84628e-07
-2.27528e-07
3.5896e-07
-2.29605e-07
3.33302e-07
-2.29927e-07
3.07814e-07
-2.28796e-07
2.82612e-07
-2.26579e-07
2.57773e-07
-2.23637e-07
2.33342e-07
-2.20277e-07
2.09338e-07
-2.16726e-07
1.85766e-07
-2.13129e-07
1.62622e-07
-2.0957e-07
1.39901e-07
-2.06082e-07
1.17593e-07
-2.02671e-07
9.5695e-08
-1.99324e-07
7.42015e-08
-1.96022e-07
5.31106e-08
-1.92746e-07
3.24217e-08
-1.89478e-07
1.21348e-08
-1.86207e-07
-7.74984e-09
-1.82927e-07
-2.7232e-08
-1.79635e-07
-4.63088e-08
-1.76303e-07
-6.49776e-08
-1.72926e-07
-8.32365e-08
-1.69508e-07
-1.01085e-07
-1.66056e-07
-1.18523e-07
-1.62577e-07
-1.35553e-07
-1.59078e-07
-1.52177e-07
-1.55569e-07
-1.68401e-07
-1.52059e-07
-1.84229e-07
-1.48558e-07
-1.99669e-07
-1.45076e-07
-2.14729e-07
-1.41623e-07
-2.29419e-07
-1.38208e-07
-2.43749e-07
-1.3484e-07
-2.5773e-07
-1.31529e-07
-2.71376e-07
-1.28282e-07
-2.84699e-07
-1.25109e-07
-2.97713e-07
-1.22018e-07
-3.10435e-07
-1.19019e-07
-3.22879e-07
-1.16123e-07
-3.35063e-07
-1.13342e-07
-3.47008e-07
-1.10704e-07
-3.58738e-07
-1.08242e-07
-3.70275e-07
-1.05931e-07
-3.81655e-07
-1.0386e-07
-3.92913e-07
-1.0211e-07
-4.03589e-07
-1.02383e-07
-4.14734e-07
-1.06239e-07
-4.26385e-07
-1.10677e-07
-4.38607e-07
-1.15751e-07
-4.51467e-07
-1.21511e-07
-4.65039e-07
-1.28034e-07
-4.79407e-07
-1.35429e-07
-4.94668e-07
-1.43841e-07
-5.10933e-07
-1.5345e-07
-5.28335e-07
-1.64475e-07
-5.47028e-07
-1.77193e-07
-5.67206e-07
-1.91965e-07
-5.89116e-07
-2.09004e-07
-6.13038e-07
-2.28185e-07
-6.39249e-07
-2.48831e-07
-6.67952e-07
-2.69405e-07
-6.99143e-07
-2.87507e-07
-7.32476e-07
-3.00544e-07
-7.67258e-07
-3.06933e-07
-8.02638e-07
-3.06781e-07
-8.37834e-07
-3.01423e-07
-8.72265e-07
-2.92462e-07
-9.0554e-07
-2.81157e-07
-9.37409e-07
-2.68338e-07
-9.67706e-07
-2.54477e-07
-9.96309e-07
-2.39829e-07
-1.02313e-06
-2.2453e-07
-1.04808e-06
-2.08664e-07
-1.07109e-06
-1.92287e-07
-1.09211e-06
-1.75444e-07
-1.11107e-06
-1.58176e-07
-1.12792e-06
-1.40522e-07
-1.14262e-06
-1.22522e-07
-1.15513e-06
-1.04217e-07
-1.16542e-06
-8.56496e-08
-1.17345e-06
-6.68628e-08
-1.17921e-06
-4.78956e-08
-1.18267e-06
-2.87882e-08
-9.60252e-09
6.57576e-07
-7.53957e-09
6.54712e-07
-2.25416e-08
6.49959e-07
-3.74189e-08
6.43339e-07
-5.21268e-08
6.34881e-07
-6.66217e-08
6.24619e-07
-8.08584e-08
6.12592e-07
-9.47898e-08
5.98847e-07
-1.08365e-07
5.83441e-07
-1.21525e-07
5.66436e-07
-1.34201e-07
5.47907e-07
-1.46305e-07
5.27946e-07
-1.57725e-07
5.06661e-07
-1.68317e-07
4.84185e-07
-1.77902e-07
4.60677e-07
-1.86273e-07
4.36323e-07
-1.93211e-07
4.11332e-07
-1.98531e-07
3.85926e-07
-2.02123e-07
3.60321e-07
-2.04002e-07
3.34712e-07
-2.0432e-07
3.0926e-07
-2.03345e-07
2.84081e-07
-2.01402e-07
2.59255e-07
-1.98812e-07
2.34825e-07
-1.95849e-07
2.10813e-07
-1.92714e-07
1.87221e-07
-1.89539e-07
1.64048e-07
-1.86397e-07
1.41284e-07
-1.83319e-07
1.18924e-07
-1.80311e-07
9.69595e-08
-1.7736e-07
7.5387e-08
-1.7445e-07
5.4204e-08
-1.71563e-07
3.34093e-08
-1.68684e-07
1.30031e-08
-1.65801e-07
-7.01426e-09
-1.6291e-07
-2.66424e-08
-1.60007e-07
-4.5878e-08
-1.57068e-07
-6.47178e-08
-1.54087e-07
-8.31591e-08
-1.51068e-07
-1.012e-07
-1.48016e-07
-1.18841e-07
-1.44937e-07
-1.36081e-07
-1.41838e-07
-1.52923e-07
-1.38728e-07
-1.69369e-07
-1.35613e-07
-1.85424e-07
-1.32504e-07
-2.01093e-07
-1.29408e-07
-2.16383e-07
-1.26334e-07
-2.31301e-07
-1.23291e-07
-2.45855e-07
-1.20286e-07
-2.60057e-07
-1.17328e-07
-2.73915e-07
-1.14424e-07
-2.87443e-07
-1.11582e-07
-3.00652e-07
-1.0881e-07
-3.13555e-07
-1.06116e-07
-3.26168e-07
-1.0351e-07
-3.38506e-07
-1.01004e-07