/*--------------------------------*- C++ -*----------------------------------*\
  =========                 |
  \\      /  F ield         | OpenFOAM: The Open Source CFD Toolbox
   \\    /   O peration     | Website:  https://openfoam.org
    \\  /    A nd           | Version:  8
     \\/     M anipulation  |
\*---------------------------------------------------------------------------*/
FoamFile
{
    version     2.0;
    format      ascii;
    class       volScalarField;
    location    "980/fluid";
    object      Qdot;
}
// * * * * * * * * * * * * * * * * * * * * * * * * * * * * * * * * * * * * * //

dimensions      [1 -1 -3 0 0 0 0];

internalField   nonuniform List<scalar> 
4000
(
3.72621e-13
2.05172e-17
0
0
0
-3.27358e-07
0
0
0
1.17268e-10
-6.98101e-15
0
-6.05816e-10
1.22659e-09
1.24043e-09
-2.99391e-17
4.59869e-09
-3.1314e-15
3.76405e-08
3.04537e-07
4.36733e-06
5.71952e-05
0.000677228
0.00666412
0.053507
0.349983
1.88196
8.4409
32.1001
105.194
301.459
765.106
1738.99
3575.37
6710.17
11622.7
18828.4
28915.1
42684.5
61317.5
86502.5
120487
166191
227471
309451
419030
565377
760640
1.02033e+06
1.36587e+06
1.82464e+06
2.43261e+06
3.23698e+06
4.2998e+06
5.70282e+06
7.55406e+06
9.99694e+06
1.318e+07
1.7337e+07
2.29888e+07
3.05032e+07
6.97756e+07
3.78123e+08
2.95658e+07
2.12805e+07
1.51312e+07
1.06082e+07
7.31896e+06
4.95944e+06
3.29467e+06
2.14443e+06
1.37219e+06
877237
563527
150538
11343.2
313.659
4.4502
0.042333
0.000432745
8.12699e-06
3.81474e-07
4.34276e-08
9.49799e-09
2.75579e-09
1.0317e-09
4.0317e-10
2.00315e-10
6.95525e-11
3.10219e-11
1.64241e-11
6.36495e-12
2.46104e-12
1.00059e-12
4.12444e-13
5.90103e-12
7.58868e-14
2.51942e-14
9.60057e-15
1.65556e-15
0
-3.12561e-12
-6.1408e-21
0
0
0
0
-1.60803e-15
0
1.14743e-10
2.33224e-10
0
-5.88115e-10
-1.1887e-09
3.80412e-07
-5.76534e-14
-2.8424e-16
-2.99334e-15
3.13877e-08
2.76394e-07
3.71361e-06
5.13319e-05
0.000609277
0.00604728
0.0491525
0.326086
1.77951
8.09771
31.2191
103.608
300.346
770.069
1765.01
3653.56
6893.16
11979.8
19436.8
29845.9
43990.5
63024.3
88606.1
122949
168965
230522
312781
422678
569330
764398
1.02501e+06
1.37166e+06
1.832e+06
2.44239e+06
3.25063e+06
4.31977e+06
5.73307e+06
7.60098e+06
1.00707e+07
1.32948e+07
1.75165e+07
2.32761e+07
3.09599e+07
1.09783e+08
3.43164e+08
2.94072e+07
2.10925e+07
1.49489e+07
1.04457e+07
7.18105e+06
4.84662e+06
3.20558e+06
2.07689e+06
1.32391e+06
846354
519397
113276
6846.28
164
2.1013
0.0195984
0.000219833
4.91789e-06
2.78324e-07
3.65641e-08
8.61655e-09
3.00912e-09
1.10874e-09
4.41335e-10
1.76293e-10
6.71768e-11
3.0091e-11
1.32615e-11
1.24e-11
2.41723e-12
9.8645e-13
-5.39115e-12
1.64955e-13
8.84781e-13
2.51214e-14
9.58818e-15
1.47542e-15
-3.71763e-13
-2.77535e-07
0
7.41664e-12
-3.09791e-07
-3.1888e-07
0
0
0
0
2.77753e-10
-1.3349e-14
4.61671e-10
3.61665e-07
1.155e-09
-3.57785e-17
-1.91574e-09
-2.93171e-15
1.74857e-08
2.65642e-07
3.44682e-06
4.74962e-05
0.000563006
0.00561126
0.0459876
0.308466
1.70462
7.86029
30.7103
103.255
303.082
786.265
1820.69
3799.06
7216.7
12599.7
20490.4
31469.7
46303.7
66118.8
92547.1
127775
174730
237317
320766
431978
579756
777683
1.04129e+06
1.39195e+06
1.85777e+06
2.47586e+06
3.29518e+06
4.38056e+06
5.81799e+06
7.7221e+06
1.02463e+07
1.35483e+07
1.78872e+07
2.38252e+07
3.17597e+07
1.793e+08
2.77562e+08
2.94766e+07
2.10001e+07
1.47824e+07
1.02586e+07
7.00287e+06
4.69207e+06
3.0804e+06
1.98174e+06
1.25702e+06
805420
445074
75606.4
3683.94
78.3967
0.949983
0.00920178
0.000117963
3.15687e-06
2.0919e-07
2.97446e-08
7.5885e-09
2.53791e-09
8.87275e-10
3.93648e-10
1.57366e-10
7.22914e-11
3.28187e-11
1.29264e-11
6.48424e-12
2.25255e-12
1.07798e-12
4.31938e-13
1.89116e-13
6.87676e-14
5.39626e-12
8.50136e-15
1.47718e-15
4.86382e-18
2.03089e-17
-2.87275e-07
0
0
-1.26617e-11
0
-6.49756e-11
-2.25373e-19
-1.34026e-10
6.44313e-15
0
-1.00147e-09
0
-7.64563e-18
2.25949e-09
-3.60099e-07
-2.83707e-15
1.31194e-08
2.56878e-07
3.21147e-06
4.42277e-05
0.000527375
0.00529529
0.0438219
0.297307
1.66331
7.7676
30.7345
104.625
310.793
815.478
1907.88
4013.23
7668.79
13447.2
21912.1
33645.9
49397.8
70274.3
97889.5
134438
182908
247313
332854
446392
597942
800108
1.06937e+06
1.42752e+06
1.90337e+06
2.53501e+06
3.37285e+06
4.48384e+06
5.95704e+06
7.91137e+06
1.05063e+07
1.39001e+07
1.83671e+07
2.44946e+07
3.27004e+07
2.62888e+08
1.96497e+08
2.94669e+07
2.08344e+07
1.45489e+07
1.00132e+07
6.77748e+06
4.50209e+06
2.93072e+06
1.87127e+06
1.18189e+06
760937
357114
46969.4
1893.06
36.0597
0.415595
0.00419575
6.14279e-05
1.96121e-06
1.50557e-07
2.43807e-08
6.08755e-09
2.13739e-09
8.16975e-10
4.16062e-10
1.82322e-10
7.31409e-11
3.06434e-11
1.53362e-11
5.52416e-12
2.46009e-12
1.01936e-12
5.23015e-12
-6.58552e-13
-5.40174e-12
2.80407e-14
8.83883e-15
1.48122e-15
-3.70722e-13
2.02237e-17
2.85306e-07
7.28303e-12
0
1.53404e-11
0
-5.18719e-11
-1.2938e-10
1.30937e-10
0
0
5.36496e-10
1.8407e-18
-7.4072e-18
1.77906e-09
-1.79359e-09
3.62251e-09
8.16596e-09
4.27916e-07
3.43047e-06
4.21454e-05
0.000505362
0.00510517
0.0426387
0.292372
1.65449
7.81754
31.2965
107.768
323.709
858.388
2027.92
4297.75
8248.63
14512.9
23672.9
36308.1
53147.7
75283.2
104315
142473
192827
259347
347350
464527
621474
830285
1.10806e+06
1.47732e+06
1.96783e+06
2.61894e+06
3.48285e+06
4.62884e+06
6.14924e+06
8.16739e+06
1.08436e+07
1.43331e+07
1.89474e+07
2.52899e+07
3.37722e+07
3.44637e+08
1.14473e+08
2.92291e+07
2.04805e+07
1.41737e+07
9.66842e+06
6.4869e+06
4.2722e+06
2.7585e+06
1.74928e+06
1.10156e+06
712315
257126
28173.4
970.385
16.841
0.188358
0.00201731
3.39346e-05
1.27812e-06
1.15119e-07
2.04817e-08
5.52344e-09
2.08272e-09
7.98026e-10
3.51549e-10
1.64584e-10
6.56649e-11
2.73308e-11
1.17445e-11
5.44659e-12
7.87699e-12
6.61135e-12
3.738e-13
-4.55982e-12
6.82746e-14
5.33922e-12
8.10826e-15
1.30637e-15
0
-2.01424e-17
0
-7.2166e-12
0
0
2.50849e-11
0
0
3.23907e-07
2.58296e-10
0
4.25022e-10
-8.53812e-10
-1.91198e-09
-5.04113e-14
-2.13506e-09
-4.3076e-09
1.57872e-08
4.13331e-07
3.15182e-06
4.10856e-05
0.00049232
0.00501352
0.0422637
0.292817
1.6751
8.00246
32.3879
112.721
342.082
915.961
2183.07
4656.26
8964.17
15805.7
25776
39444.1
57515.1
81074.3
111736
151788
204231
273282
364981
487722
650957
868121
1.15694e+06
1.54083e+06
2.05072e+06
2.72758e+06
3.62568e+06
4.81706e+06
6.39758e+06
8.49163e+06
1.12703e+07
1.48869e+07
1.96704e+07
2.62091e+07
3.49107e+07
4.18451e+08
4.03174e+07
2.82304e+07
1.96025e+07
1.3462e+07
9.11999e+06
6.08e+06
3.98035e+06
2.55634e+06
1.6149e+06
1.01723e+06
654525
195406
16705.2
506.285
8.12664
0.0893162
0.00102066
1.96263e-05
8.62854e-07
8.72986e-08
1.76866e-08
5.0126e-09
1.94521e-09
8.32487e-10
3.33277e-10
1.40853e-10
6.16017e-11
2.77857e-11
1.23444e-11
-9.58951e-13
2.08336e-12
8.41311e-13
3.71399e-13
1.48389e-13
5.57971e-14
2.4954e-14
8.11951e-15
1.31158e-15
-3.69649e-13
2.00517e-17
-2.81467e-07
-2.89078e-07
0
0
0
1.04896e-19
-3.14319e-07
3.16789e-07
3.18726e-07
0
0
-3.22121e-07
-8.32388e-10
-1.67169e-09
-2.06659e-09
-2.72024e-15
1.10447e-08
3.98889e-07
2.92355e-06
4.05687e-05
0.000487828
0.00500568
0.0425868
0.298013
1.72252
8.31484
33.9982
119.509
366.165
989.265
2376.54
5098.87
9837.5
17334.4
28221.3
43028.6
62424.5
87478.2
119806
161659
216271
288825
385513
513830
684450
911447
1.2134e+06
1.61488e+06
2.1484e+06
2.85704e+06
3.79783e+06
5.04631e+06
6.70247e+06
8.90189e+06
1.18246e+07
1.55881e+07
2.07186e+07
2.75177e+07
3.64922e+07
4.51575e+08
3.55951e+07
2.52952e+07
1.77297e+07
1.22441e+07
8.31928e+06
5.55187e+06
3.6335e+06
2.33124e+06
1.47174e+06
929823
581318
143709
10026.7
274.158
4.13469
0.0452381
0.000554824
1.21337e-05
6.16008e-07
7.00894e-08
1.49663e-08
4.51382e-09
1.70676e-09
6.64978e-10
2.85811e-10
1.32589e-10
6.06443e-11
2.40786e-11
1.05311e-11
4.90786e-12
2.06298e-12
8.34637e-13
3.69001e-13
1.47717e-13
5.56654e-14
2.04368e-14
7.39493e-15
5.04586e-12
0
-1.99701e-17
0
0
-1.71858e-16
0
2.9867e-11
1.43554e-15
-2.07901e-19
-2.22508e-10
0
-3.12677e-07
0
-2.35508e-14
-8.07768e-10
-4.07439e-17
1.99969e-09
-2.72494e-15
2.20784e-08
6.78103e-08
3.09279e-06
4.03323e-05
0.000490231
0.00507197
0.0435396
0.307625
1.79567
8.75349
36.1388
128.229
396.414
1079.9
2612.73
5632.98
10875.4
19111.6
31016.3
47061.5
67890.9
94543.8
128532
172368
230184
306341
407226
541241
719506
956744
1.27247e+06
1.69261e+06
2.25163e+06
2.99549e+06
3.98553e+06
5.30387e+06
7.06073e+06
9.40471e+06
1.25192e+07
1.65722e+07
2.21576e+07
2.96382e+07
3.96534e+07
4.41655e+08
3.26508e+07
2.32074e+07
1.62816e+07
1.12565e+07
7.65636e+06
5.11491e+06
3.35211e+06
2.15594e+06
1.36843e+06
874296
523081
107813
6330.12
157.826
2.25277
0.024684
0.000324679
7.99024e-06
4.58896e-07
5.81778e-08
1.31474e-08
3.84108e-09
1.57575e-09
6.02585e-10
2.81939e-10
1.30506e-10
5.32523e-11
2.37578e-11
1.04039e-11
4.44826e-12
7.38491e-12
7.27816e-13
3.16947e-13
-5.26055e-12
4.94626e-14
2.19154e-14
6.67174e-15
1.23119e-15
0
0
0
0
1.42998e-11
0
0
0
-3.01977e-07
0
0
-3.04317e-07
-3.04273e-07
-2.28759e-14
-7.83376e-10
-3.61633e-17
1.93331e-09
-3.10722e-07
1.41915e-08
2.28939e-07
2.96207e-06
4.0991e-05
0.000499219
0.00520461
0.0450725
0.321423
1.89398
9.31974
38.8319
139.017
433.425
1189.89
2897.09
6268.5
12087.1
21138.3
34130.6
51437.1
73646.5
101700
137333
183663
244042
323457
428507
567914
753191
999582
1.32731e+06
1.76326e+06
2.34327e+06
3.11516e+06
4.14291e+06
5.51231e+06
7.3388e+06
9.77819e+06
1.30266e+07
1.72828e+07
2.31809e+07
3.11435e+07
5.63446e+07
4.21694e+08
3.0744e+07
2.18302e+07
1.52989e+07
1.05638e+07
7.17411e+06
4.78367e+06
3.12828e+06
2.00804e+06
1.27415e+06
818914
461574
80642.8
4143.53
95.9147
1.31236
0.0144995
0.000204224
5.59952e-06
3.5838e-07
4.96416e-08
1.15887e-08
3.96578e-09
1.44895e-09
6.42152e-10
2.77193e-10
1.23765e-10
5.2468e-11
2.34354e-11
9.46734e-12
4.22e-12
2.73852e-12
8.21255e-13
3.39534e-13
1.21931e-13
-7.28055e-13
1.89204e-14
6.67818e-15
1.14538e-15
-6.92138e-22
0
0
1.6523e-16
1.67926e-16
-4.88433e-20
-2.92419e-07
0
0
0
-2.96841e-07
5.57653e-15
0
-1.59415e-18
-9.54745e-18
-3.81666e-17
-2.866e-16
2.95895e-07
1.67305e-08
2.30104e-07
3.02454e-06
4.18381e-05
0.000513756
0.00539845
0.0471554
0.339305
2.0176
10.018
42.1128
152.064
477.983
1321.88
3236.69
7019.53
13489.8
23428.9
37583.6
56201.2
79714.3
109124
146698
194943
257688
340064
448840
592925
784066
1.03779e+06
1.37466e+06
1.82201e+06
2.41613e+06
3.20542e+06
4.2544e+06
5.64926e+06
7.50543e+06
9.97774e+06
1.32488e+07
1.75203e+07
2.34068e+07
3.12797e+07
1.16877e+08
3.70952e+08
2.96428e+07
2.10264e+07
1.47259e+07
1.01656e+07
6.90503e+06
4.6075e+06
3.01704e+06
1.94091e+06
1.23646e+06
800990
411690
62732.4
2871.54
62.0715
0.818077
0.00914472
0.000137348
4.1477e-06
2.92086e-07
4.28185e-08
1.07912e-08
3.50608e-09
1.42107e-09
6.30434e-10
2.72389e-10
1.19202e-10
4.54067e-11
2.2404e-11
9.79183e-12
4.34996e-12
1.71792e-12
-4.59738e-12
3.12835e-13
1.21333e-13
4.91729e-14
1.88957e-14
6.68091e-15
1.05903e-15
0
0
-2.73914e-07
2.78585e-07
2.82435e-07
3.35546e-16
2.31623e-11
2.89229e-07
-1.14764e-10
0
-5.44737e-15
-5.43082e-15
0
1.54642e-18
-9.24389e-18
-3.68845e-17
1.46562e-09
-3.60858e-09
3.05725e-07
3.8149e-07
3.11735e-06
4.30066e-05
0.000533507
0.00564935
0.0497617
0.361192
2.16678
10.8537
46.0221
167.583
530.979
1478.81
3639.08
7898.75
15088.6
25956.9
41294.8
61150.1
85980.9
116963
156053
206101
271049
356126
468204
616296
812255
1.07172e+06
1.41534e+06
1.87052e+06
2.47355e+06
3.27265e+06
4.33196e+06
5.73687e+06
7.60136e+06
1.00773e+07
1.334e+07
1.75875e+07
2.34208e+07
3.11957e+07
1.70794e+08
3.19832e+08
2.8948e+07
2.0504e+07
1.43392e+07
9.88463e+06
6.70514e+06
4.46896e+06
2.9244e+06
1.88224e+06
1.20245e+06
784595
374739
49954.4
2084
42.5118
0.543457
0.0061531
9.81254e-05
3.2282e-06
2.46477e-07
3.91021e-08
9.83126e-09
3.43559e-09
1.39289e-09
5.70362e-10
2.7268e-10
1.11928e-10
5.0869e-11
2.12284e-11
9.23612e-12
4.29886e-12
1.59331e-12
-7.28664e-14
2.86467e-13
1.08697e-13
4.89935e-14
1.88607e-14
7.56071e-13
1.06141e-15
4.80769e-18
-1.9637e-17
-6.10197e-12
0
5.6176e-12
0
-2.83081e-07
2.83917e-07
0
9.13011e-11
0
0
0
0
7.1092e-10
2.74752e-07
1.41191e-09
-2.93496e-15
1.60863e-08
1.05525e-07
3.39364e-06
4.48668e-05
0.000557871
0.00595234
0.0528618
0.386976
2.3416
11.8313
50.5989
185.799
593.389
1664.03
4112.86
8919.25
16881.7
28683.6
45155.8
66141.8
92155.3
124576
165221
217056
284125
371735
486824
638455
838518
1.10265e+06
1.45149e+06
1.9123e+06
2.52114e+06
3.32579e+06
4.38963e+06
5.79667e+06
7.65793e+06
1.01224e+07
1.33649e+07
1.75776e+07
2.33482e+07
3.10196e+07
2.18615e+08
2.74639e+08
2.8379e+07
2.0111e+07
1.40715e+07
9.705e+06
6.58657e+06
4.39231e+06
2.87627e+06
1.85357e+06
1.1876e+06
779712
340058
41036.8
1583.65
30.7198
0.382994
0.0043971
7.39671e-05
2.62067e-06
2.14025e-07
3.61485e-08
9.46236e-09
3.17742e-09
1.36366e-09
5.64019e-10
2.5731e-10
1.09966e-10
5.00412e-11
2.16823e-11
7.57303e-12
3.86293e-12
1.76858e-12
6.55702e-13
2.84331e-13
1.19974e-13
-7.17034e-13
1.73539e-14
5.95275e-15
1.06319e-15
-4.80012e-18
1.95521e-17
2.70203e-07
0
5.55146e-12
3.26198e-16
0
0
0
2.60426e-15
0
-2.73687e-07
0
-6.92277e-10
-8.63689e-18
-4.00378e-17
-3.13119e-16
-3.01601e-15
2.81093e-07
2.56772e-07
3.40939e-06
4.66855e-05
0.000586077
0.00630122
0.0564104
0.416413
2.54128
12.9511
55.8663
206.889
666.095
1880.74
4666
10088.8
18843.1
31514.7
49009.1
71151.9
98512.6
132179
174258
227802
296910
386937
504849
659728
863455
1.13163e+06
1.48478e+06
1.94997e+06
2.56296e+06
3.37089e+06
4.43584e+06
5.84023e+06
7.6947e+06
1.01479e+07
1.33637e+07
1.75316e+07
2.32295e+07
3.07868e+07
2.58906e+08
2.37014e+08
2.78152e+07
1.97355e+07
1.38242e+07
9.54461e+06
6.48497e+06
4.33002e+06
2.83996e+06
1.83434e+06
1.17985e+06
779236
305766
34699.1
1254.81
23.313
0.284787
0.00331582
5.85098e-05
2.20727e-06
1.92189e-07
3.25274e-08
9.04613e-09
3.10479e-09
1.33328e-09
5.93226e-10
2.38911e-10
1.07941e-10
4.32375e-11
1.98302e-11
7.46732e-12
8.25066e-12
1.55912e-12
6.96924e-13
-4.96059e-13
8.81588e-13
4.56324e-14
1.73076e-14
5.9475e-15
1.06439e-15
0
-1.48641e-12
5.65983e-21
0
5.48586e-12
0
-2.70893e-11
-1.28505e-15
-1.83702e-19
3.65064e-19
-5.04417e-15
4.99502e-15
3.38448e-10
0
-8.33272e-18
-4.40416e-17
-3.22543e-16
-3.11269e-15
1.73214e-08
3.91029e-07
3.55655e-06
4.89044e-05
0.00061746
0.00668649
0.0603308
0.449004
2.76333
14.2041
61.8069
230.885
749.546
2131.02
5303.18
11402.7
20910.9
34304.1
52901.7
76134.9
104512
139349
182817
238038
309140
401509
522120
680046
887135
1.15891e+06
1.51578e+06
1.98445e+06
2.59998e+06
3.4086e+06
4.47203e+06
5.87325e+06
7.72031e+06
1.01552e+07
1.33383e+07
1.74555e+07
2.30713e+07
3.05011e+07
2.92673e+08
2.05857e+08
2.72526e+07
1.9373e+07
1.35949e+07
9.40314e+06
6.40046e+06
4.28177e+06
2.81439e+06
1.82278e+06
1.17702e+06
780702
282239
30104.2
1032.07
18.4937
0.222297
0.00262367
4.82723e-05
1.92363e-06
1.76149e-07
3.14033e-08
8.62772e-09
3.20271e-09
1.26213e-09
5.14833e-10
2.51888e-10
1.02671e-10
4.53925e-11
2.02528e-11
8.85086e-12
8.52121e-12
1.48943e-12
6.17143e-13
2.79721e-13
1.18421e-13
5.17235e-12
7.68028e-13
-5.05319e-12
5.01151e-12
0
-2.63975e-07
5.97789e-12
0
6.66177e-12
0
2.16684e-11
-1.80904e-19
0
3.56232e-19
0
2.5788e-07
0
-2.71096e-18
-7.84569e-10
2.44954e-07
-2.42629e-07
-3.2154e-15
2.20273e-08
2.74489e-07
3.49253e-06
5.11763e-05
0.000650635
0.00709496
0.0644989
0.483846
3.00243
15.5653
68.3257
257.504
843.072
2413.18
6015.97
12809.3
22885.6
36678.7
56090.8
80205.5
109549
145513
190350
247215
320264
414889
538070
698858
909023
1.18391e+06
1.54351e+06
2.01423e+06
2.63099e+06
3.44071e+06
4.50401e+06
5.89979e+06
7.73384e+06
1.01462e+07
1.32916e+07
1.7352e+07
2.28776e+07
3.01705e+07
3.20169e+08
1.81076e+08
2.66879e+07
1.9015e+07
1.33738e+07
9.2712e+06
6.32526e+06
4.24175e+06
2.79549e+06
1.81613e+06
1.17731e+06
782914
270081
26782.1
879.274
15.2926
0.181503
0.00216912
4.13582e-05
1.72716e-06
1.64123e-07
3.01742e-08
8.57737e-09
3.02502e-09
1.26956e-09
5.21817e-10
2.46417e-10
1.0118e-10
4.45486e-11
1.63779e-11
8.71497e-12
3.71225e-12
1.52253e-12
6.36311e-13
2.77268e-13
1.05961e-13
4.80653e-14
1.71941e-14
-7.36066e-13
9.76388e-16
-2.60296e-07
1.47399e-12
-1.11648e-20
-1.5618e-16
0
-2.65698e-07
-8.92743e-20
0
0
2.5737e-07
4.77528e-15
-6.7527e-19
0
1.82147e-14
1.36875e-09
-4.05969e-17
3.45719e-14
-3.3155e-15
2.09559e-08
2.76055e-07
3.79607e-06
5.35246e-05
0.000683834
0.00750691
0.0687286
0.519475
3.24923
16.9857
75.2117
285.99
944.358
2720.54
6781.35
14213.6
24481.2
38295.5
58233.9
82957.2
113064
150014
196110
254510
329367
426047
551475
714585
927054
1.20416e+06
1.56595e+06
2.03915e+06
2.65822e+06
3.46765e+06
4.52688e+06
5.91405e+06
7.73233e+06
1.01181e+07
1.32209e+07
1.72178e+07
2.26436e+07
2.9787e+07
3.42091e+08
1.61612e+08
2.61229e+07
1.8661e+07
1.31591e+07
9.14636e+06
6.25695e+06
4.2078e+06
2.78153e+06
1.8132e+06
1.18003e+06
786656
261187
24459.3
775.421
13.16
0.154617
0.00186753
3.66709e-05
1.58955e-06
1.56682e-07
2.92716e-08
8.50707e-09
2.94088e-09
1.15188e-09
5.09675e-10
2.40813e-10
1.01537e-10
4.65053e-11
2.0985e-11
8.57663e-12
3.65951e-12
6.52739e-12
6.29406e-13
-4.7882e-12
8.56045e-13
4.20322e-14
1.71287e-14
5.5602e-15
-7.34231e-13
2.00907e-13
-2.61766e-07
-1.10876e-20
-1.11024e-20
1.17901e-11
2.6173e-07
4.66415e-11
-5.09479e-11
9.13039e-11
0
0
0
0
-2.51905e-18
2.29656e-07
-2.27549e-07
1.40272e-09
5.02285e-09
1.76513e-08
1.81203e-07
3.84864e-06
5.56429e-05
0.000715199
0.00789657
0.0727596
0.553741
3.48913
18.3834
82.0798
314.802
1048.02
3035.42
7537.95
15394.8
25130.3
38198.3
58206.1
83106.1
113738
151487
198618
258256
334521
432748
559839
724750
939368
1.21887e+06
1.58313e+06
2.0576e+06
2.67615e+06
3.48303e+06
4.53632e+06
5.91235e+06
7.71162e+06
1.00667e+07
1.31217e+07
1.7048e+07
2.23645e+07
2.93459e+07
3.59354e+08
1.46751e+08
2.55571e+07
1.83093e+07
1.29482e+07
9.02603e+06
6.19308e+06
4.17779e+06
2.77081e+06
1.81267e+06
1.18427e+06
791218
255386
22914.5
706.735
11.7612
0.137069
0.00166941
3.35424e-05
1.49533e-06
1.50345e-07
2.86749e-08
8.38605e-09
3.01557e-09
1.2392e-09
5.38553e-10
2.45797e-10
1.04755e-10
4.55711e-11
1.92003e-11
8.43471e-12
-1.31581e-12
2.21321e-12
5.66114e-12
9.86684e-13
1.04368e-13
4.1784e-14
7.5525e-13
5.54766e-15
1.06489e-15
2.59558e-07
2.74876e-21
0
0
-2.59579e-07
3.02949e-16
8.61553e-20
0
4.91695e-11
-2.44258e-07
-2.39749e-07
-4.41222e-15
6.58842e-10
-7.1034e-10
-4.73953e-18
1.36095e-09
2.42237e-09
-3.47811e-15
2.56129e-08
1.91451e-07
3.89627e-06
5.73875e-05
0.000742041
0.00823254
0.0762641
0.583815
3.70205
19.64
88.3435
341.47
1145.01
3327.61
8184.71
16020.7
24139.8
35616.2
55345.1
80160.3
110832
148891
196572
256973
334189
433554
561977
728430
944291
1.22459e+06
1.58886e+06
2.06251e+06
2.67871e+06
3.48084e+06
4.52566e+06
5.88758e+06
7.66431e+06
9.98441e+06
1.29867e+07
1.68361e+07
2.20345e+07
2.88426e+07
3.72259e+08
1.3616e+08
2.49901e+07
1.79576e+07
1.2738e+07
8.90655e+06
6.13009e+06
4.14856e+06
2.76067e+06
1.81243e+06
1.18838e+06
795498
252239
21978.7
664.006
10.8847
0.126055
0.00154439
3.15496e-05
1.43507e-06
1.47416e-07
2.79622e-08
8.41858e-09
3.00911e-09
1.2477e-09
5.24141e-10
2.33961e-10
1.02371e-10
4.4622e-11
1.88353e-11
6.8875e-12
3.5505e-12
1.55304e-12
-1.10921e-13
2.46864e-13
8.37309e-13
4.43721e-14
-7.20878e-13
5.5338e-15
1.01532e-15
0
2.59564e-07
0
1.1579e-11
-2.5634e-07
1.02169e-11
-2.48024e-11
2.46959e-07
-1.14035e-15
0
-1.83951e-10
2.2684e-07
3.50033e-10
-2.15434e-07
-1.58007e-14
-4.42469e-17
1.26844e-09
4.50972e-09
2.4596e-08
2.0591e-07
4.11454e-06
5.89418e-05
0.000761629
0.0084804
0.0788684
0.606359
3.86326
20.6023
93.1999
362.367
1220.94
3544.85
8536.72
15501.8
23580.6
31260.7
48687.6
73046.1
103459
141388
189029
249427
326618
425866
553986
719791
934680
1.21345e+06
1.57533e+06
2.04533e+06
2.65602e+06
3.44987e+06
4.48237e+06
5.82603e+06
7.57581e+06
9.8563e+06
1.28014e+07
1.65689e+07
2.16435e+07
2.82713e+07
3.81062e+08
1.29556e+08
2.44183e+07
1.75993e+07
1.25203e+07
8.77955e+06
6.06008e+06
4.11318e+06
2.74535e+06
1.80791e+06
1.18885e+06
797165
250910
21508.9
640.716
10.3919
0.119798
0.00147307
3.04086e-05
1.40059e-06
1.45877e-07
2.8104e-08
8.26263e-09
3.06386e-09
1.16721e-09
5.49412e-10
2.33573e-10
9.99414e-11
4.63154e-11
1.84638e-11
8.14388e-12
3.49444e-12
1.44354e-12
-1.10283e-13
5.16738e-12
4.32797e-12
4.12591e-14
-7.17775e-13
-7.28393e-13
9.74755e-16
2.58821e-07
7.99104e-13
-5.7728e-12
0
5.09303e-12
-1.0058e-11
2.43438e-11
2.41653e-07
2.36607e-07
9.14602e-11
-2.2536e-07
0
-2.74002e-10
-1.55342e-14
1.50713e-14
-4.62767e-17
1.91858e-07
4.25215e-09
2.49582e-08
2.1875e-07
4.18765e-06
5.94925e-05
0.000771689
0.00860823
0.08022
0.618151
3.94831
21.1144
95.8025
373.519
1259.3
3623.39
8347.7
15831.3
24567.5
32591.1
39278.8
60939.2
90227.1
126954
173265
232120
307464
404452
529774
692091
902618
1.1759e+06
1.53083e+06
1.99197e+06
2.59125e+06
3.37029e+06
4.38338e+06
5.70133e+06
7.41671e+06
9.65063e+06
1.25327e+07
1.6215e+07
2.11652e+07
2.76159e+07
3.85751e+08
1.26659e+08
2.38286e+07
1.72137e+07
1.22713e+07
8.62155e+06
5.96199e+06
4.05391e+06
2.71065e+06
1.78818e+06
1.17756e+06
790442
249740
21353.7
631.698
10.1877
0.117148
0.00144275
2.99297e-05
1.38729e-06
1.45392e-07
2.81355e-08
8.12422e-09
2.96009e-09
1.17207e-09
5.51509e-10
2.37292e-10
1.02582e-10
4.52823e-11
1.80877e-11
7.99536e-12
3.60922e-12
1.50984e-12
1.354e-12
2.4181e-13
5.01673e-12
4.38005e-14
-7.14675e-13
5.50364e-15
1.01365e-15
0
7.99103e-13
0
0
-1.48707e-16
2.49907e-07
0
-2.41614e-07
4.68179e-11
0
-6.07984e-19
4.11927e-15
-8.0015e-15
-2.22962e-18
-5.16305e-10
-5.04836e-17
-1.20104e-09
4.25214e-09
2.49582e-08
3.13787e-07
4.18764e-06
5.94039e-05
0.000771699
0.00860822
0.0802205
0.618155
3.94833
21.1145
95.8027
373.519
1259.3
3623.37
8347.62
15831.2
24567.4
32591.1
39278.9
60939.1
90227.1
126954
173265
232120
307464
404452
529774
692091
902618
1.1759e+06
1.53083e+06
1.99196e+06
2.59124e+06
3.37029e+06
4.38337e+06
5.70132e+06
7.4167e+06
9.65062e+06
1.25327e+07
1.6215e+07
2.11651e+07
2.76159e+07
3.85748e+08
1.26662e+08
2.38286e+07
1.72137e+07
1.22713e+07
8.62156e+06
5.962e+06
4.05392e+06
2.71066e+06
1.78818e+06
1.17756e+06
790444
249743
21354.2
631.715
10.1879
0.117151
0.00144279
2.99307e-05
1.38728e-06
1.44787e-07
2.81324e-08
8.40683e-09
2.96009e-09
1.24778e-09
5.33457e-10
2.42786e-10
1.05394e-10
4.52822e-11
1.48563e-11
8.36773e-12
3.68613e-12
1.54884e-12
-1.09655e-13
2.63996e-13
-6.20671e-13
4.38005e-14
1.54167e-14
5.85765e-15
9.73908e-16
0
-1.90675e-17
1.09335e-20
0
-1.50639e-16
-2.98356e-16
0
-2.4691e-07
3.905e-11
0
-2.32561e-07
0
-2.21407e-07
-2.32632e-18
-6.80164e-18
3.07745e-14
2.02624e-07
4.50971e-09
2.65836e-08
2.10269e-07
4.01638e-06
5.88583e-05
0.000761749
0.00848061
0.07887
0.60637
3.86332
20.6025
93.2005
362.367
1220.93
3544.76
8536.34
15500.9
23580.3
31260.6
48687.5
73046.4
103460
141388
189030
249427
326618
425867
553986
719791
934680
1.21345e+06
1.57533e+06
2.04533e+06
2.65601e+06
3.44987e+06
4.48236e+06
5.82602e+06
7.57579e+06
9.85627e+06
1.28013e+07
1.65688e+07
2.16434e+07
2.82712e+07
3.81052e+08
1.29565e+08
2.44183e+07
1.75993e+07
1.25203e+07
8.77957e+06
6.0601e+06
4.1132e+06
2.74537e+06
1.80792e+06
1.18885e+06
797171
250919
21510.3
640.766
10.3928
0.119808
0.0014732
3.04129e-05
1.4016e-06
1.45248e-07
2.81039e-08
8.12945e-09
2.99628e-09
1.2102e-09
5.4941e-10
2.43787e-10
9.99393e-11
4.63144e-11
1.84642e-11
7.45045e-12
3.66845e-12
1.53156e-12
6.52132e-13
2.44346e-13
1.08306e-13
4.40886e-14
1.54893e-14
-4.98687e-12
1.06344e-15
3.63855e-13
0
0
2.60666e-07
0
0
0
1.1857e-15
-4.00059e-11
-7.8649e-11
-2.39594e-07
4.41158e-15
-2.9557e-10
-2.24368e-07
-1.2601e-09
-4.64186e-17
-3.59894e-16
-3.4781e-15
2.0912e-08
3.01826e-07
3.99615e-06
5.75886e-05
0.000742159
0.00823284
0.0762666
0.583834
3.70217
19.6407
88.3475
341.49
1145.1
3327.96
8185.86
16023.6
24141.5
35617.3
55345.8
80160.5
110832
148891
196572
256973
334189
433554
561978
728430
944291
1.22459e+06
1.58886e+06
2.0625e+06
2.67871e+06
3.48083e+06
4.52564e+06
5.88755e+06
7.66427e+06
9.98435e+06
1.29866e+07
1.6836e+07
2.20344e+07
2.88424e+07
3.72243e+08
1.36176e+08
2.49902e+07
1.79577e+07
1.2738e+07
8.9066e+06
6.13013e+06
4.1486e+06
2.76069e+06
1.81244e+06
1.18839e+06
795508
252253
21981.1
664.095
10.8863
0.126074
0.00154461
3.15529e-05
1.43635e-06
1.47413e-07
2.79618e-08
8.28126e-09
2.93882e-09
1.24769e-09
5.24139e-10
2.33968e-10
1.0531e-10
4.46219e-11
1.88357e-11
8.99552e-12
3.72707e-12
1.55304e-12
6.60017e-13
2.46864e-13
8.37308e-13
4.15255e-14
1.55597e-14
5.88965e-15
9.75516e-16
0
0
-5.89573e-12
1.11024e-20
-1.17901e-11
0
-6.11039e-16
2.57577e-07
2.54513e-07
0
1.58913e-10
0
-3.06319e-10
-2.51905e-18
-7.4162e-18
-4.8585e-17
-3.49256e-16
2.25335e-09
2.26215e-08
2.92871e-07
3.9506e-06
5.56471e-05
0.000715239
0.00789684
0.0727628
0.553763
3.48927
18.3841
82.0829
314.813
1048.05
3035.46
7537.8
15393.6
25129.8
38198.4
58206.4
83106.4
113738
151487
198618
258257
334522
432749
559840
724750
939368
1.21887e+06
1.58312e+06
2.0576e+06
2.67614e+06
3.48301e+06
4.53629e+06
5.91231e+06
7.71156e+06
1.00666e+07
1.31216e+07
1.70479e+07
2.23643e+07
2.93456e+07
3.59329e+08
1.46776e+08
2.55573e+07
1.83095e+07
1.29484e+07
9.02612e+06
6.19314e+06
4.17784e+06
2.77085e+06
1.8127e+06
1.18429e+06
791232
255406
22918
706.868
11.7637
0.137098
0.00166975
3.35471e-05
1.49531e-06
1.4967e-07
2.86695e-08
8.38177e-09
2.87101e-09
1.16534e-09
5.19694e-10
2.45796e-10
1.04751e-10
4.5571e-11
1.91998e-11
8.83266e-12
3.60549e-12
1.48383e-12
6.22341e-13
-4.76695e-12
-6.35064e-13
4.17839e-14
-7.23994e-13
7.43454e-13
9.76075e-16
-3.6489e-13
-1.93104e-17
0
0
0
0
6.21902e-16
0
-1.22383e-15
0
2.53926e-07
0
0
1.82147e-14
6.14058e-10
2.3646e-07
-2.66532e-09
-2.36799e-09
1.57169e-08
2.84135e-07
3.79141e-06
5.34124e-05
0.000683984
0.00750748
0.068732
0.519501
3.24938
16.9865
75.2152
286.003
944.406
2720.7
6781.8
14214.7
24482.6
38297.3
58236.2
82959.4
113067
150016
196113
254512
329369
426049
551476
714586
927055
1.20416e+06
1.56594e+06
2.03914e+06
2.65821e+06
3.46763e+06
4.52685e+06
5.914e+06
7.73226e+06
1.0118e+07
1.32208e+07
1.72176e+07
2.26434e+07
2.97867e+07
3.42055e+08
1.61647e+08
2.61232e+07
1.86612e+07
1.31592e+07
9.14648e+06
6.25704e+06
4.20786e+06
2.78158e+06
1.81324e+06
1.18005e+06
786675
261214
24464.2
775.613
13.1637
0.154661
0.00186803
3.66819e-05
1.58812e-06
1.56675e-07
2.92714e-08
8.18193e-09
3.03218e-09
1.18973e-09
5.33394e-10
2.41503e-10
1.07096e-10
4.72157e-11
2.01989e-11
9.29694e-12
3.65938e-12
7.64896e-13
6.29405e-13
-4.76516e-12
1.10945e-13
4.20322e-14
1.71283e-14
5.56008e-15
9.76376e-16
0
0
0
0
5.42024e-12
0
0
0
0
-2.63916e-07
0
-2.5788e-07
-2.55207e-07
-2.71095e-18
-2.49236e-07
-4.76115e-17
-3.35357e-16
2.46446e-07
2.20273e-08
2.76951e-07
3.48761e-06
5.10743e-05
0.000650807
0.00709547
0.0645027
0.483873
3.00259
15.5661
68.3292
257.518
843.118
2413.33
6016.38
12810.3
22887.5
36682.6
56099.5
80212.2
109553
145516
190353
247218
320266
414891
538071
698859
909023
1.18391e+06
1.5435e+06
2.01422e+06
2.63097e+06
3.44069e+06
4.50397e+06
5.89974e+06
7.73376e+06
1.0146e+07
1.32914e+07
1.73518e+07
2.28773e+07
3.01701e+07
3.20119e+08
1.81123e+08
2.66883e+07
1.90153e+07
1.33741e+07
9.27137e+06
6.32539e+06
4.24184e+06
2.79555e+06
1.81618e+06
1.17733e+06
782936
270114
26788.6
879.543
15.2979
0.181568
0.00216984
4.1369e-05
1.72712e-06
1.634e-07
2.9878e-08
8.39297e-09
3.02506e-09
1.18296e-09
5.22495e-10
2.46416e-10
1.06851e-10
4.74206e-11
2.136e-11
8.71495e-12
-9.80181e-13
1.61507e-12
6.3631e-13
2.77268e-13
1.05961e-13
4.5167e-14
1.71937e-14
5.5712e-15
-5.00504e-12
4.79327e-18
0
0
-6.69953e-12
-6.74226e-12
3.21499e-16
0
0
-2.72193e-07
-1.0703e-10
7.24092e-19
0
0
-2.80661e-18
-8.33271e-18
-3.85363e-17
2.54438e-07
-3.11269e-15
1.73214e-08
3.88439e-07
3.68732e-06
4.90298e-05
0.000617517
0.00668701
0.0603347
0.449032
2.76349
14.2049
61.8098
230.895
749.575
2131.09
5303.32
11402.9
20910.7
34302.6
52896.4
76132.6
104512
139349
182819
238040
309142
401512
522122
680047
887135
1.15891e+06
1.51577e+06
1.98444e+06
2.59996e+06
3.40857e+06
4.47198e+06
5.87319e+06
7.72023e+06
1.0155e+07
1.33381e+07
1.74553e+07
2.3071e+07
3.05008e+07
2.92611e+08
2.05916e+08
2.72528e+07
1.93732e+07
1.35951e+07
9.40329e+06
6.40058e+06
4.28188e+06
2.81447e+06
1.82285e+06
1.17708e+06
780743
282284
30113.4
1032.46
18.5015
0.222393
0.00262472
4.82875e-05
1.92358e-06
1.75404e-07
3.13331e-08
8.81712e-09
3.12436e-09
1.21321e-09
5.35019e-10
2.29052e-10
1.05859e-10
4.9054e-11
2.02527e-11
9.60098e-12
4.51812e-12
1.5411e-12
6.4302e-13
2.79721e-13
1.18417e-13
4.54069e-14
1.7254e-14
5.58021e-15
9.76027e-16
0
0
0
0
2.75866e-07
0
0
0
1.30737e-15
-2.77003e-07
0
0
0
0
-8.63687e-18
-4.00377e-17
-3.18812e-16
2.62998e-07
1.81194e-08
2.60106e-07
3.39726e-06
4.66854e-05
0.000586149
0.00630151
0.0564144
0.41644
2.54143
12.9517
55.8688
206.897
666.118
1880.8
4666.11
10088.9
18843.4
31514.9
49008.3
71151.4
98512.7
132180
174260
227805
296912
386940
504853
659732
863458
1.13163e+06
1.48478e+06
1.94997e+06
2.56295e+06
3.37086e+06
4.43578e+06
5.84014e+06
7.69462e+06
1.01478e+07
1.33636e+07
1.75316e+07
2.32294e+07
3.07867e+07
2.58845e+08
2.37078e+08
2.78163e+07
1.97366e+07
1.3825e+07
9.54521e+06
6.48535e+06
4.33023e+06
2.84005e+06
1.83436e+06
1.17983e+06
779202
305825
34709
1255.31
23.3239
0.284929
0.00331739
5.85307e-05
2.21155e-06
1.92184e-07
3.25267e-08
9.04609e-09
3.20339e-09
1.3333e-09
5.47177e-10
2.52217e-10
1.13e-10
4.62135e-11
2.05867e-11
8.98301e-12
3.81411e-12
1.55912e-12
6.96939e-13
2.82071e-13
1.19217e-13
8.06784e-13
1.73076e-14
7.51573e-13
9.75233e-16
2.61785e-07
0
-5.73774e-21
0
-1.25218e-11
-2.81499e-07
-2.27874e-11
-4.57093e-11
0
-2.6662e-15
-2.23599e-10
-7.58735e-19
0
-2.08811e-14
-8.94052e-18
-4.74696e-17
-1.73531e-09
-2.92903e-15
1.26099e-08
2.4391e-07
3.25534e-06
4.4735e-05
0.000557934
0.00595278
0.052866
0.387003
2.34175
11.8319
50.6013
185.807
593.409
1664.07
4112.94
8919.31
16881.6
28682.7
45154.3
66141.7
92156.2
124578
165224
217059
284129
371740
486831
638463
838527
1.10266e+06
1.4515e+06
1.91231e+06
2.52114e+06
3.32579e+06
4.38963e+06
5.79666e+06
7.65783e+06
1.01223e+07
1.33647e+07
1.75774e+07
2.33479e+07
3.10192e+07
2.18596e+08
2.74661e+08
2.83779e+07
2.01091e+07
1.40695e+07
9.70339e+06
6.58551e+06
4.39178e+06
2.87616e+06
1.8537e+06
1.18781e+06
779897
340200
41056.4
1584.49
30.7372
0.383217
0.00439951
7.40058e-05
2.62028e-06
2.13379e-07
3.54306e-08
9.6245e-09