/*--------------------------------*- C++ -*----------------------------------*\
  =========                 |
  \\      /  F ield         | OpenFOAM: The Open Source CFD Toolbox
   \\    /   O peration     | Website:  https://openfoam.org
    \\  /    A nd           | Version:  8
     \\/     M anipulation  |
\*---------------------------------------------------------------------------*/
FoamFile
{
    version     2.0;
    format      ascii;
    class       volScalarField;
    location    "980/fluid";
    object      rDeltaT;
}
// * * * * * * * * * * * * * * * * * * * * * * * * * * * * * * * * * * * * * //

dimensions      [0 0 -1 0 0 0 0];

internalField   nonuniform List<scalar> 
4000
(
513.508
539.562
564.42
588.228
610.925
632.41
652.552
671.21
688.251
703.573
717.137
728.998
739.334
748.478
756.924
765.174
773.615
782.428
791.513
800.481
808.725
815.554
820.312
822.478
821.734
817.894
810.85
800.573
787.101
770.521
750.957
741.684
765.297
809.951
853.776
896.66
938.52
979.285
1018.9
1057.32
1094.52
1130.49
1165.21
1198.69
1230.92
1261.92
1291.7
1320.26
1347.63
1373.81
1398.82
1422.67
1445.38
1466.94
1487.36
1506.64
1524.79
1541.65
1557.23
1571.77
1585.17
2759.03
15147.5
1574.83
1538.28
1496.83
1450.97
1401.21
1347.97
1291.64
1232.62
1171.38
1108.51
1044.52
980.143
916.823
856.563
801.775
755.422
720.148
696.949
684.39
679.227
677.934
677.686
676.711
674.023
669.263
662.463
653.807
643.529
631.864
619.032
605.225
590.606
575.31
559.439
543.066
526.224
508.866
513.031
538.425
562.489
585.158
606.401
626.144
644.291
660.753
675.464
688.406
699.64
709.325
717.749
725.341
732.582
739.947
747.818
756.383
765.552
774.94
783.922
791.754
797.705
801.177
801.716
799.017
792.924
783.395
770.482
754.296
734.987
712.732
715.522
753.22
798.26
842.558
886.009
928.523
970.028
1010.47
1049.81
1088.01
1125.06
1160.96
1195.69
1229.25
1261.67
1292.94
1323.09
1352.12
1380.05
1406.9
1432.69
1457.44
1481.16
1503.88
1525.58
1546.15
1565.62
1584.32
1602.11
4344.21
13764
1585.5
1544.22
1499.31
1450.67
1398.38
1342.63
1283.65
1221.71
1157.19
1090.56
1022.25
953.189
885.229
820.999
763.753
716.748
682.331
660.736
649.797
645.994
645.92
647.035
647.775
647.316
645.2
641.272
635.556
628.158
619.221
608.9
597.346
584.701
571.088
556.611
541.342
525.314
508.558
512.326
536.159
558.487
579.278
598.472
616.007
631.826
645.896
658.218
668.852
677.935
685.698
692.475
698.686
704.78
711.212
718.368
726.447
735.378
744.796
754.098
762.548
769.4
773.992
775.777
774.369
769.557
761.266
749.52
734.414
716.09
694.717
677.967
695.032
740.365
785.26
829.596
873.269
916.193
958.301
999.537
1039.86
1079.25
1117.68
1155.14
1191.62
1227.14
1261.7
1295.31
1327.98
1359.75
1390.64
1420.67
1449.88
1478.28
1505.89
1532.7
1558.53
1583.34
1607.28
1629.78
7103.9
11156
1604.53
1558.54
1508.81
1455.41
1398.43
1338.03
1274.37
1207.74
1138.51
1067.22
994.42
921.393
850.427
784.519
727.159
681.438
649.052
629.5
620.215
617.684
618.677
620.837
622.709
623.576
623.07
621.017
617.37
612.157
605.443
597.316
587.869
577.197
565.39
552.525
538.668
523.858
508.112
511.636
534.086
554.963
574.224
591.827
607.733
621.914
634.366
645.121
654.259
661.93
668.366
673.89
678.915
683.916
689.368
695.661
702.995
711.302
720.224
729.161
737.376
744.119
748.72
750.648
749.525
745.124
737.343
726.174
711.682
693.98
673.214
649.55
649.847
685.653
730.861
775.796
820.349
864.431
907.965
950.892
993.164
1034.74
1075.61
1115.74
1155.12
1193.75
1231.64
1268.79
1305.21
1340.92
1375.92
1410.25
1443.89
1476.84
1509.09
1540.55
1570.91
1600.04
1627.94
1653.83
10432.4
7918.23
1616.87
1567.02
1512.91
1454.82
1393.03
1327.79
1259.4
1188.26
1114.91
1040.01
964.336
889.514
818.06
752.99
697.501
654.25
624.405
607.009
599.307
597.881
599.724
602.679
605.397
607.156
607.61
606.617
604.141
600.2
594.838
588.112
580.083
570.811
560.356
548.771
536.104
522.383
507.632
510.899
531.845
551.172
568.842
584.822
599.083
611.615
622.434
631.593
639.192
645.402
650.471
654.737
658.618
662.588
667.116
672.585
679.189
686.862
695.252
703.77
711.687
718.251
722.784
724.745
723.745
719.54
712.013
701.142
686.975
669.608
649.173
625.819
612.412
633.889
679.266
724.639
769.899
814.953
859.724
904.147
948.17
991.752
1034.86
1077.47
1119.56
1161.13
1202.15
1242.63
1282.56
1321.94
1360.76
1399
1436.63
1473.59
1509.81
1545.1
1579.03
1611.46
1642.23
1670.33
13700
4625.08
1620.63
1567.86
1510.16
1448.11
1382.19
1312.84
1240.54
1165.81
1089.35
1011.9
934.402
858.729
787.466
723.585
670.074
629.205
601.663
586.107
579.671
579.067
581.516
585.052
588.449
591.033
592.456
592.556
591.269
588.587
584.529
579.127
572.423
564.459
555.277
544.92
533.424
520.816
507.119
510.159
529.631
547.474
563.654
578.145
590.929
602.01
611.414
619.205
625.496
630.461
634.352
637.504
640.329
643.294
646.86
651.404
657.12
663.95
671.556
679.362
686.655
692.691
696.799
698.432
697.196
692.839
685.229
674.33
660.176
642.849
622.463
599.154
575.009
585.324
630.784
676.482
722.31
768.177
814.002
859.72
905.274
950.619
995.715
1040.52
1085.02
1129.18
1172.99
1216.41
1259.42
1302
1344.1
1385.68
1426.64
1466.9
1506.27
1544.55
1581.16
1615.92
1648.55
1677.9
16663.1
1664.29
1616.36
1561.27
1500.56
1435.2
1365.92
1293.32
1218.02
1140.68
1062.11
983.095
904.755
829.124
758.817
696.727
645.616
607.389
582.302
568.701
563.631
563.915
566.96
570.968
574.829
577.935
579.97
580.782
580.306
578.522
575.434
571.059
565.421
558.546
550.462
541.2
530.788
519.245
506.597
509.413
527.396
543.754
558.458
571.486
582.828
592.495
600.521
606.98
611.991
615.733
618.462
620.512
622.292
624.262
626.875
630.499
635.328
641.302
648.091
655.13
661.713
667.106
670.639
671.768
670.095
665.362
657.431
646.257
631.863
614.322
593.736
570.23
543.941
545.757
584.687
630.628
676.917
723.46
770.178
817.002
863.873
910.736
957.543
1004.25
1050.83
1097.23
1143.42
1189.36
1234.99
1280.27
1325.13
1369.46
1413.17
1456.07
1497.97
1538.56
1577.07
1613.7
1647.37
1677.07
18014.7
1657.74
1606.17
1548.11
1484.66
1416.7
1344.97
1270.13
1192.86
1113.92
1034.18
954.458
876.022
801.009
732.024
671.867
623.092
587.284
564.354
552.415
548.487
549.522
553.099
557.56
561.889
565.522
568.163
569.664
569.953
569.002
566.805
563.369
558.707
552.835
545.774
537.547
528.175
517.676
506.073
508.669
525.176
540.073
553.333
564.941
574.893
583.205
589.918
595.11
598.902
601.479
603.092
604.074
604.826
605.798
607.437
610.101
613.982
619.024
624.902
631.061
636.807
641.412
644.213
644.667
642.375
637.077
628.629
616.981
602.147
584.193
563.213
539.32
512.644
508.015
540.516
586.617
633.255
680.34
727.788
775.53
823.499
871.634
919.883
968.194
1016.52
1064.8
1112.99
1161.03
1208.84
1256.36
1303.48
1350.08
1396.01
1441.07
1485
1527.37
1567.44
1605.2
1639.36
1668.51
17654
1643.73
1589.54
1529.23
1463.77
1393.99
1320.62
1244.35
1165.92
1086.13
1005.91
926.087
848.062
774.046
706.631
648.526
602.095
568.639
547.773
537.426
534.606
536.38
540.477
545.363
550.105
554.189
557.342
559.424
560.364
560.131
558.712
556.108
552.322
547.366
541.252
533.998
525.62
516.132
505.555
507.928
522.965
536.41
548.243
558.45
567.033
574.012
579.433
583.377
585.968
587.391
587.896
587.812
587.534
587.505
588.159
589.851
592.764
596.845
601.771
606.997
611.834
615.564
617.528
617.187
614.144
608.136
599.019
586.738
571.306
552.779
531.247
506.818
479.611
470.06
497.746
543.923
590.807
638.304
686.33
734.811
783.674
832.856
882.295
931.929
981.697
1031.53
1081.37
1131.13
1180.73
1230.06
1279
1327.41
1375.1
1421.85
1467.34
1511.08
1552.37
1591.09
1625.87
2227.36
16886.4
1624.56
1568.36
1506.39
1439.5
1368.5
1294.1
1217.02
1138.02
1057.96
977.745
898.26
821.003
748.225
682.494
626.43
582.226
550.939
531.939
523.019
521.2
523.663
528.269
533.586
538.753
543.295
546.956
549.603
551.169
551.618
550.935
549.115
546.158
542.069
536.858
530.537
523.119
514.615
505.046
507.192
520.769
532.775
543.194
552.017
559.248
564.913
569.06
571.772
573.176
573.456
572.86
571.711
570.4
569.358
569.013
569.709
571.627
574.71
578.64
582.876
586.738
589.516
590.555
589.322
585.42
578.59
568.685
555.651
539.497
520.278
498.077
472.998
445.157
431.872
455.988
502.16
549.187
596.974
645.435
694.49
744.065
794.089
844.492
895.204
946.152
997.26
1048.44
1099.61
1150.66
1201.47
1251.9
1301.78
1350.91
1399.03
1445.81
1490.75
1533.16
1572.97
1608.94
4623.36
14878.4
1600.29
1543.09
1480.23
1412.59
1340.95
1266.08
1188.7
1109.61
1029.68
949.84
870.992
794.729
723.329
659.33
605.274
563.193
533.932
516.659
509.062
508.188
511.319
516.434
522.19
527.788
532.784
536.942
540.137
542.302
543.402
543.421
542.348
540.183
536.926
532.582
527.162
520.675
513.131
504.547
506.46
518.585
529.162
538.177
545.624
551.513
555.871
558.75
560.236
560.455
559.591
557.891
555.673
553.32
551.256
549.898
549.583
550.486
552.545
555.448
558.655
561.495
563.262
563.31
561.108
556.267
548.526
537.744
523.863
506.894
486.89
463.932
438.121
409.568
393.446
414.923
461.01
508.084
556.049
604.814
654.299
704.424
755.112
806.285
857.866
909.772
961.917
1014.21
1066.53
1118.78
1170.81
1222.48
1273.59
1323.93
1373.22
1421.14
1467.14
1510.57
1551.35
1588.24
6763.12
12848.7
1572.47
1514.94
1451.75
1383.85
1312.05
1237.13
1159.84
1081
1001.52
922.322
844.33
769.212
699.264
636.995
584.87
544.782
517.39
501.696
495.313
495.322
499.101
504.73
510.942
516.989
522.457
527.124
530.871
533.634
535.378
536.085
535.744
534.35
531.903
528.405
523.863
518.286
511.679
504.059
505.732
516.415
525.57
533.187
539.265
543.817
546.872
548.487
548.747
547.782
545.772
542.963
539.668
536.263
533.165
530.782
529.441
529.309
530.324
532.171
534.316
536.093
536.803
535.805
532.577
526.731
518.014
506.283
491.486
473.633
452.777
428.998
402.396
373.079
354.789
374.311
420.239
467.272
515.312
564.269
614.055
664.588
715.785
767.563
819.837
872.516
925.504
978.697
1031.98
1085.22
1138.27
1190.97
1243.12
1294.48
1344.78
1393.67
1440.59
1484.9
1526.52
1564.16
8663.8
11048.2
1542.35
1484.85
1421.71
1353.9
1282.27
1207.61
1130.71
1052.4
973.602
895.225
818.231
744.354
675.893
615.329
565.051
526.83
501.166
486.924
481.666
482.512
486.926
493.078
499.766
506.283
512.241
517.43
521.738
525.103
527.491
528.881
529.263
528.63
526.98
524.312
520.632
515.945
510.257
503.581
505.008
514.256
521.995
528.219
532.932
536.149
537.903
538.253
537.286
535.131
531.97
528.045
523.664
519.199
515.057
511.636
509.256
508.075
508.027
508.797
509.854
510.536
510.152
508.068
503.767
496.868
487.121
474.39
458.624
439.836
418.078
393.434
366
335.885
315.917
333.974
379.675
426.587
474.613
523.659
573.635
624.455
676.03
728.272
781.091
834.388
888.059
941.992
996.062
1050.13
1104.04
1157.61
1210.64
1262.88
1314.05
1363.79
1411.54
1456.62
1498.97
1537.3
10268.6
9546.26
1510.68
1453.42
1390.58
1323.13
1251.93
1177.78
1101.49
1023.9
945.955
868.541
792.654
720.082
653.12
594.217
545.695
509.216
485.144
472.238
468.025
469.666
474.708
481.394
488.577
495.588
502.059
507.79
512.675
516.653
519.691
521.768
522.873
522.996
522.135
520.288
517.457
513.647
508.862
503.112
504.288
512.105
518.433
523.269
526.618
528.501
528.954
528.037
525.839
522.49
518.171
513.123
507.649
502.115
496.918
492.45
489.019
486.776
485.651
485.325
485.272
484.835
483.327
480.124
474.714
466.724
455.91
442.139
425.366
405.605
382.913
357.372
329.08
298.147
276.849
293.785
339.195
385.916
433.847
482.894
532.963
583.965
635.807
688.396
741.636
795.422
849.645
904.185
958.908
1013.67
1068.3
1122.62
1176.41
1229.42
1281.36
1331.86
1380.33
1426.14
1469.19
1508.19
11615.2
8299.69
1477.92
1421.08
1358.72
1291.81
1221.23
1147.77
1072.27
995.559
918.597
842.255
767.556
696.328
630.858
573.564
526.707
491.851
469.247
457.57
454.33
456.735
462.399
469.632
477.332
484.861
491.868
498.162
503.641
508.246
511.945
514.716
516.546
517.426
517.352
516.319
514.33
511.387
507.491
502.652
503.57
509.963
514.883
518.332
520.319
520.868
520.018
517.83
514.397
509.849
504.367
498.188
491.613
485
478.741
473.216
468.725
465.41
463.195
461.76
460.58
459.003
456.349
452.001
445.455
436.346
424.435
409.596
391.788
371.029
347.379
320.922
291.758
259.995
237.609
253.652
298.716
345.182
392.949
441.92
491.999
543.093
595.108
647.944
701.502
755.672
810.337
865.373
920.639
975.982
1031.23
1086.2
1140.66
1194.35
1246.97
1298.16
1347.32
1393.81
1437.54
1477.24
12713.1
7306.72
1444.43
1388.12
1326.37
1260.15
1190.32
1117.71
1043.11
967.407
891.53
816.343
742.89
673.028
609.034
553.296
508.016
474.673
453.424
442.877
440.541
443.679
449.963
457.756
465.996
474.067
481.634
488.514
494.605
499.854
504.226
507.7
510.262
511.902
512.615
512.395
511.242
509.157
506.141
502.199
502.855
507.826
511.342
513.405
514.031
513.244
511.088
507.627
502.955
497.203
490.55
483.233
475.55
467.852
460.523
453.934
448.374
443.978
440.663
438.108
435.788
433.055
429.237
423.725
416.023
405.772
392.744
376.817
357.956
336.182
311.56
284.176
254.131
221.536
198.224
213.517
258.184
304.339
351.88
400.708
450.726
501.837
553.943
606.943
660.731
715.195
770.213
825.654
881.374
937.216
993.002
1048.53
1103.58
1157.89
1211.14
1262.97
1312.78
1359.93
1404.35
1444.75
13589.5
6525.67
1410.39
1354.7
1293.68
1228.26
1159.31
1087.65
1014.08
939.461
864.744
790.772
718.605
650.117
587.576
533.339
489.56
457.643
437.661
428.154
426.629
430.472
437.379
445.749
454.549
463.186
471.336
478.821
485.545
491.453
496.512
500.7
504.003
506.409
507.911
508.503
508.184
506.952
504.807
501.752
502.141
505.695
507.806
508.485
507.748
505.625
502.161
497.423
491.507
484.545
476.716
468.256
459.458
450.668
442.263
434.603
427.968
422.485
418.063
414.378
410.907
407.006
402.01
395.319
386.445
375.039
360.878
343.849
323.922
301.124
275.522
247.207
216.281
182.857
158.719
173.342
217.567
263.362
310.623
359.25
409.144
460.205
512.334
565.426
619.371
674.054
729.35
785.123
841.224
897.492
953.743
1009.78
1065.36
1120.22
1174.06
1226.49
1276.93
1324.73
1369.83
1410.95
14280.2
5928.66
1375.96
1320.98
1260.76
1196.24
1128.27
1057.64
985.177
911.725
838.227
765.514
694.656
627.538
566.414
513.613
471.247
440.666
421.901
413.42
412.631
417.146
424.666
433.616
442.99
452.21
460.961
469.071
476.445
483.028
488.787
493.701
497.753
500.932
503.228
504.634
505.148
504.765
503.485
501.31
501.429
503.566
504.275
503.569
501.469
498.007
493.232
487.214
480.049
471.873
462.863
453.254
443.335
433.448
423.96
415.224
407.509
400.933
395.397
390.576
385.945
380.867
374.684
366.802
356.746
344.173
328.869
310.73
289.73
265.903
239.319
210.074
178.271
144.026
119.119
133.109
176.853
222.243
269.177
317.551
367.267
418.222
470.314
523.435
577.475
632.313
687.821
743.861
800.279
856.911
913.569
970.048
1026.11
1081.49
1135.87
1188.88
1239.93
1288.37
1334.16
1376.02
14796.8
5502.88
1341.24
1287.03
1227.7
1164.16
1097.24
1027.73
956.437
884.208
811.975
740.554
671.022
605.264
545.516
494.08
453.029
423.67
406.028
398.568
398.525
403.697
411.821
421.353
431.309
441.126
450.494
459.245
467.285
474.559
481.033
486.685
491.497
495.457
498.553
500.778
502.126
502.592
502.174
500.871
500.717
501.439
500.747
498.655
495.19
490.387
484.298
476.996
468.578
459.182
448.986
438.223
427.178
416.188
405.614
395.797
386.998
379.324
372.67
366.707
360.911
354.648
347.269
338.19
326.942
313.195
296.743
277.488
255.413
230.556
202.993
172.822
140.151
105.095
100
100
136.042
180.989
227.552
275.629
325.118
375.915
427.917
481.013
535.09
590.025
645.688
701.937
758.617
815.559
872.573
929.451
985.955
1041.81
1096.71
1150.27
1201.9
1250.98
1297.45
1340.06
15149.3
5237.29
1306.27
1252.92
1194.55
1132.06
1066.26
997.932
927.869
856.91
785.979
715.88
647.686
583.275
524.865
474.727
434.896
406.642
389.993
383.475
384.25
390.082
398.806
408.925
419.476
429.905
439.908
449.318
458.042
466.024
473.23
479.634
485.219
489.97
493.875
496.924
499.109
500.426
500.868
500.435
500.006
499.313
497.218
493.741
488.909
482.762
475.356
466.764
457.09
446.47
435.083
423.16
410.985
398.888
387.223
376.322
366.435
357.659
349.884
342.773
335.807
328.354
319.774
309.49
297.047
282.121
264.517
244.145
220.995
195.111
166.574
135.485
101.956
100
100
100
100
139.614
185.77
233.508
282.725
333.318
385.18
438.201
492.263
547.243
603.008
659.414
716.304
773.507
830.832
888.067
944.972
1001.28
1056.66
1110.75
1162.96
1212.65
1259.79
1303.13
15337.1
5120.81
1271.09
1218.67
1161.34
1099.97
1035.35
968.257
899.469
829.819
760.221
691.468
624.624
561.552
504.448
455.553
416.87
389.634
373.836
368.062
369.669
376.185
385.533
396.264
407.434
418.502
429.166
439.259
448.69
457.4
465.355
472.529
478.902
484.457
489.18
493.062
496.091
498.261
499.565
500
500.006
499.313
497.218
493.74
488.908
482.762
475.355
466.764
457.09
446.47
435.083
423.16
410.984
398.888
387.222
376.321
366.434
357.659
349.883
342.773
335.806
328.354
319.773
309.49
297.046
282.12
264.516
244.145
220.994
195.11
166.573
135.485
101.956
100
100
100
100
139.614
185.769
233.507
282.725
333.318
385.18
438.2
492.262
547.242
603.008
659.414
716.304
773.507
830.832
888.067
944.972
1001.28
1056.66
1110.75
1162.96
1212.65
1259.79
1303.13
15337
5120.93
1271.09
1218.67
1161.34
1099.97
1035.35
968.257
899.469
829.819
760.221
691.468
624.624
561.551
504.447
455.552
416.869
389.633
373.835
368.061
369.668
376.184
385.532
396.263
407.434
418.501
429.165
439.259
448.689
457.4
465.355
472.529
478.901
484.456
489.18
493.061
496.091
498.261
499.565
500
500.717
501.439
500.746
498.655
495.19
490.387
484.298
476.995
468.578
459.182
448.986
438.222
427.177
416.187
405.613
395.796
386.997
379.323
372.669
366.706
360.91
354.647
347.268
338.189
326.941
313.194
296.742
277.487
255.412
230.555
202.992
172.821
140.15
105.094
100
100
136.041
180.988
227.551
275.628
325.117
375.915
427.916
481.012
535.089
590.024
645.688
701.937
758.617
815.559
872.573
929.451
985.955
1041.81
1096.71
1150.27
1201.9
1250.98
1297.45
1340.06
15149
5237.66
1306.27
1252.92
1194.55
1132.06
1066.26
997.933
927.869
856.91
785.979
715.879
647.685
583.274
524.864
474.726
434.894
406.641
389.991
383.473
384.248
390.08
398.804
408.924
419.474
429.903
439.907
449.317
458.041
466.023
473.229
479.633
485.219
489.97
493.875
496.924
499.109
500.425
500.868
500.435
501.429
503.566
504.275
503.569
501.469
498.007
493.232
487.214
480.049
471.872
462.862
453.253
443.334
433.447
423.959
415.223
407.508
400.932
395.396
390.575
385.944
380.866
374.683
366.801
356.745
344.171
328.868
310.728
289.728
265.901
239.318
210.072
178.27
144.024
119.118
133.108
176.852
222.242
269.176
317.551
367.266
418.221
470.313
523.435
577.474
632.313
687.821
743.86
800.279
856.911
913.569
970.048
1026.11
1081.49
1135.87
1188.88
1239.93
1288.37
1334.16
1376.02
14796.2
5503.52
1341.24
1287.03
1227.7
1164.16
1097.24
1027.73
956.439
884.21
811.976
740.555
671.023
605.264
545.516
494.079
453.028
423.669
406.026
398.566
398.523
403.695
411.819
421.351
431.307
441.124
450.493
459.244
467.283
474.557
481.032
486.684
491.497
495.456
498.553
500.778
502.125
502.592
502.174
500.871
502.141
505.694
507.806
508.485
507.748
505.625
502.161
497.423
491.506
484.544
476.716
468.256
459.457
450.667
442.262
434.602
427.967
422.484
418.062
414.377
410.906
407.005
402.009
395.318
386.444
375.038
360.877
343.848
323.92
301.122
275.52
247.205
216.28
182.855
158.717
173.341
217.566
263.361
310.622
359.249
409.143
460.205
512.334
565.426
619.371
674.054
729.35
785.123
841.225
897.492
953.744
1009.78
1065.36
1120.22
1174.06
1226.49
1276.93
1324.73
1369.83
1410.95
14279.2
5929.63
1375.97
1320.98
1260.76
1196.24
1128.27
1057.64
985.18
911.728
838.23
765.516
694.658
627.54
566.415
513.613
471.246
440.665
421.899
413.418
412.629
417.143
424.663
433.614
442.988
452.209
460.96
469.069
476.443
483.026
488.786
493.7
497.752
500.931
503.227
504.634
505.147
504.765
503.485
501.31
502.855
507.826
511.341
513.405
514.03
513.244
511.088
507.627
502.954
497.202
490.549
483.233
475.549
467.851
460.522
453.933
448.373
443.977
440.663
438.107
435.787
433.054
429.236
423.724
416.022
405.771
392.743
376.816
357.954
336.181
311.558
284.174
254.13
221.534
198.223
213.516
258.183
304.338
351.879
400.707
450.725
501.836
553.942
606.943
660.731
715.195
770.213
825.654
881.374
937.216
993.003
1048.53
1103.58
1157.89
1211.14
1262.97
1312.78
1359.93
1404.35
1444.75
13588.1
6527.03
1410.4
1354.71
1293.68
1228.26
1159.31
1087.65
1014.08
939.465
864.748
790.775
718.608
650.12
587.578
533.34
489.56
457.642
437.659
428.152
426.627
430.47
437.377
445.747
454.547
463.184
471.334
478.82
485.544
491.452
496.511
500.699
504.002
506.408
507.91
508.503
508.184
506.952
504.806
501.752
503.57
509.963
514.883
518.332
520.319
520.868
520.018
517.83
514.397
509.849
504.366
498.187
491.612
484.999
478.741
473.215
468.724
465.409
463.194
461.759
460.579
459.002
456.348
452
445.454
436.344
424.434
409.595
391.787
371.028
347.378
320.92
291.756
259.993
237.608
253.651
298.715
345.181
392.948
441.919
491.999
543.093
595.108
647.945
701.502
755.672
810.338
865.374
920.64
975.983
1031.23
1086.2
1140.66
1194.35
1246.97
1298.16
1347.32
1393.81
1437.54
1477.24
12711.1
7308.56
1444.43
1388.12
1326.37
1260.15
1190.33
1117.71
1043.12
967.412
891.535
816.347
742.894
673.031
609.037
553.298
508.017
474.673
453.423
442.875
440.539
443.676
449.961
457.754
465.994
474.065
481.633
488.512
494.604
499.852
504.224
507.699
510.261
511.902
512.614
512.394
511.242
509.157
506.141
502.199
504.288
512.105
518.433
523.268
526.618
528.501
528.954
528.036
525.838
522.49
518.171
513.122
507.649
502.114
496.918
492.449
489.018
486.775
485.65
485.325
485.272
484.834
483.326
480.123
474.713
466.723
455.908
442.138
425.365
405.604
382.911
357.37
329.079
298.145
276.848
293.784
339.195
385.916
433.847
482.894
532.963
583.965
635.807
688.397
741.636
795.423
849.646
904.186
958.91
1013.67
1068.3
1122.62
1176.41
1229.42
1281.36
1331.86
1380.34
1426.14
1469.19
1508.19
11612.7
8302.02
1477.93
1421.09
1358.73
1291.82
1221.23
1147.78
1072.27
995.565
918.603
842.261
767.561
696.333
630.862
573.568
526.709
491.851
469.246
457.569
454.328
456.733
462.397
469.629
477.33
484.859
491.866
498.161
503.64
508.245
511.944
514.715
516.545
517.426
517.351
516.319
514.33
511.387
507.491
502.652
505.008
514.255
521.994
528.219
532.931
536.148
537.903
538.253
537.285
535.13
531.969
528.044
523.664
519.199
515.056
511.636
509.255
508.075
508.027
508.796
509.853
510.536
510.151
508.067
503.766
496.866
487.12
474.389
458.623
439.834
418.077
393.432
365.999
335.884
315.916
333.974
379.675
426.587
474.613
523.659
573.636
624.455
676.03
728.273
781.091
834.389
888.06
941.994
996.064
1050.13
1104.04
1157.62
1210.64
1262.89
1314.05
1363.8
1411.54
1456.62
1498.98
1537.3
10266
9548.69
1510.68
1453.43
1390.59
1323.14
1251.93
1177.79
1101.5
1023.91
945.962
868.548
792.661
720.089
653.126
594.221
545.698
509.217
485.144
472.237
468.023
469.664
474.706
481.392
488.575
495.586
502.057
507.789
512.673
516.652
519.69
521.767
522.872
522.996
522.134
520.287
517.457
513.647
508.862
503.112
505.732
516.415
525.57
533.187
539.265
543.816
546.872
548.487
548.747
547.781
545.771
542.962
539.667
536.262
533.164
530.781
529.44
529.308
530.323
532.17
534.316
536.092
536.802
535.805
532.576
526.73
518.013
506.282
491.485
473.632
452.775
428.997
402.394
373.078
354.788
374.311
420.239
467.272
515.313
564.269
614.056
664.589
715.786
767.564
819.838
872.517
925.505
978.698
1031.98
1085.22
1138.28
1190.97
1243.12
1294.49
1344.79
1393.67
1440.6
1484.91
1526.52
1564.17
8663.2
11049.1
1542.36
1484.86
1421.72
1353.91
1282.28
1207.62
1130.72
1052.41
973.612
895.234
818.24
744.362
675.9
615.335
565.055
526.832
501.167
486.924
481.665
482.509
486.924
493.076
499.763
506.281
512.239
517.428
521.736
525.102
527.49
528.88
529.263
528.63
526.979
524.312
520.631
515.945
510.257
503.581
506.46
518.585
529.162
538.176
545.624
551.512
555.87
558.75
560.235
560.455
559.591
557.891
555.672
553.319
551.255
549.897
549.583
550.485
552.545
555.447
558.655
561.494
563.261
563.309
561.108
556.266
548.525
537.743
523.862
506.893
486.889
463.931
438.12
409.567
393.445
414.923
461.011
508.084
556.049
604.815
654.3
704.425
755.112
806.286
857.867
909.774
961.919
1014.21
1066.53
1118.78
1170.82
1222.48
1273.59
1323.93
1373.23
1421.15
1467.14
1510.57
1551.36
1588.25
6763.88
12849.5
1572.48
1514.95
1451.77
1383.87
1312.07
1237.14
1159.85
1081.01
1001.53
922.333
844.341
769.222
699.273
637.003
584.875
544.786
517.392
501.696
495.312
495.32
499.098
504.728
510.94
516.987
522.455
527.122
530.869
533.632
535.377
536.084
535.743
534.35
531.903
528.405
523.863
518.286
511.679
504.059
507.192
520.768
532.775
543.194
552.016
559.248
564.912
569.059
571.771
573.176
573.455
572.859
571.711
570.399
569.357
569.012
569.709
571.627
574.709
578.639
582.875
586.738
589.515
590.555
589.321
585.419
578.589
568.685
555.65
539.496
520.276
498.076
472.997
445.155
431.871
455.989
502.161
549.187
596.974
645.435
694.49
744.066
794.09
844.493
895.205
946.153
997.261
1048.45
1099.61
1150.66
1201.47
1251.9
1301.78
1350.91
1399.03
1445.82
1490.75
1533.16
1572.97
1608.94
4625.6
14878.6
1600.3
1543.1
1480.24
1412.6
1340.97
1266.09
1188.72
1109.62
1029.69
949.853
871.005
794.741
723.34
659.339
605.281
563.197
533.934
516.659
509.062
508.186
511.317
516.432
522.188
527.786
532.782
536.94
540.135
542.301
543.401
543.42
542.348
540.182
536.925
532.582
527.162
520.675
513.131
504.547
507.928
522.965
536.41
548.243
558.45
567.033
574.012
579.433
583.376
585.968
587.39
587.896
587.811
587.534
587.504
588.158
589.85
592.764
596.844
601.771
606.996
611.834
615.563
617.528
617.187
614.143
608.136
599.018
586.737
571.304
552.778
531.246
506.816
479.61
470.06
497.747
543.924
590.807
638.304
686.331
734.812
783.675
832.857
882.296
931.93
981.698
1031.53
1081.37
1131.13
1180.73
1230.06
1279
1327.41
1375.11
1421.85
1467.34
1511.08
1552.38
1591.1
1625.88
2231.85
16882.5
1624.57
1568.37
1506.4
1439.52
1368.52
1294.12
1217.04
1138.04
1057.97
977.762
898.274
821.014
748.236
682.503
626.438
582.232
550.942
531.94
523.019
521.199
523.661
528.267
533.584
538.752
543.293
546.955
549.602
551.168
551.617
550.934
549.114
546.157
542.069
536.858
530.537
523.119
514.615
505.046
508.669
525.176
540.072
553.333
564.941
574.893
583.205
589.918
595.109
598.902
601.478
603.092
604.073
604.825
605.798
607.436
610.101
613.982
619.024
624.902
631.061
636.806
641.411
644.212
644.666
642.375
637.077
628.629
616.98
602.146
584.192
563.211
539.319
512.643
508.015
540.517
586.617
633.256
680.34
727.789
775.53
823.499
871.634
919.883
968.195
1016.52
1064.8
1112.99
1161.03
1208.84
1256.36
1303.48
1350.08
1396.01
1441.07
1485
1527.37
1567.44
1605.21
1639.36
1668.51
17653.6
1643.74
1589.55
1529.24
1463.79
1394
1320.63
1244.37
1165.94
1086.15
1005.93
926.105
848.08
774.063
706.645
648.538
602.103
568.644
547.775
537.427
534.605
536.378
540.475
545.361
550.103
554.188
557.341
559.422
560.363
560.13
558.712
556.107
552.322
547.366
541.252
533.998
525.62
516.132
505.555
509.413
527.396
543.754
558.458
571.486
582.828
592.494
600.521
606.98
611.99
615.733
618.462
620.511
622.292
624.262
626.875
630.499
635.327
641.302
648.091
655.13
661.713
667.106
670.639
671.768
670.094
665.361
657.43
646.256
631.862
614.321
593.735
570.229
543.94
545.757
584.688
630.629
676.918
723.461
770.179
817.003
863.873
910.737
957.543
1004.25
1050.83
1097.23
1143.42
1189.36
1234.99
1280.27
1325.13
1369.46
1413.17
1456.07
1497.97
1538.56
1577.07
1613.71
1647.37
1677.07
18015
1657.75
1606.19
1548.13
1484.68
1416.72
1344.99
1270.15
1192.88
1113.94
1034.2
954.477
876.04
801.024
732.035
671.876
623.1
587.289
564.357
552.416
548.486
549.52
553.097
557.558
561.887
565.521
568.162
569.663
569.952
569.001
566.805
563.369
558.707
552.835
545.774
537.547
528.175
517.677
506.073
510.159
529.631
547.474
563.654
578.145
590.929
602.01
611.414
619.205
625.496
630.461
634.352
637.503
640.329
643.294
646.86
651.403
657.12
663.95
671.556
679.362
686.655
692.691
696.799
698.432
697.196
692.839
685.228
674.33
660.175
642.848
622.462
599.152
575.009
585.325
630.785
676.483
722.311
768.177
814.003
859.721
905.275
950.619
995.715
1040.52
1085.02
1129.18
1172.99
1216.41
1259.42
1302
1344.1
1385.68
1426.64
1466.9
1506.27
1544.55
1581.16
1615.92
1648.55
1677.9
16662.8
1664.3
1616.37
1561.29
1500.58
1435.22
1365.93
1293.34
1218.03
1140.69
1062.12
983.109
904.77
829.14
758.832
696.739
645.626
607.395
582.306
568.703
563.631
563.914
566.959
570.966
574.828
577.933
579.969
580.781
580.305
578.522
575.434
571.059
565.421
558.546
550.462
541.2
530.788
519.245
506.597
510.899
531.845
551.172
568.842
584.822
599.082
611.615
622.434
631.592
639.192
645.402
650.471
654.736
658.617
662.587
667.116
672.585
679.189
686.862
695.252
703.771
711.687
718.251
722.785
724.745
723.745
719.54
712.013
701.141
686.974
669.607
649.172
625.818
612.412
633.89
679.268
724.641
769.9
814.954
859.725
904.148
948.171
991.752
1034.86
1077.47
1119.56
1161.13
1202.15
1242.63
1282.56
1321.94
1360.76
1398.99
1436.62
1473.59
1509.8
1545.1
1579.03
1611.46
1642.23
1670.33
13698.4
4626.54
1620.64
1567.87
1510.17
1448.12
1382.2
1312.86
1240.55
1165.83
1089.37
1011.92
934.417
858.744
787.48
723.597
670.084
629.212
601.667
586.109
579.671
579.067
581.514
585.051
588.448
591.032
592.455
592.555
591.269
588.587
584.528
579.127
572.423
564.459
555.277
544.92
533.424
520.816
507.119
511.636
534.086
554.963
574.224
591.827
607.733
621.914
634.366
645.121
654.259
661.93
668.365
673.889
678.915
683.916
689.368
695.66
702.995
711.302
720.224
729.161
737.376
744.119
748.72
750.647
749.524
745.124
737.342
726.173
711.681
693.979
673.212
649.548
649.847
685.655
730.862
775.797
820.351
864.432
907.966
950.893
993.164
1034.74
1075.61
1115.73
1155.12
1193.75
1231.64
1268.79
1305.21
1340.92
1375.92
1410.25
1443.89
1476.84
1509.09
1540.55
1570.91
1600.04
1627.94
1653.83
10429.7
7920.65
1616.88
1567.03
1512.92
1454.84
1393.04
1327.8
1259.42
1188.28
1114.93
1040.03
964.351
889.529
818.074
753.003
697.511
654.258
624.41
607.011
599.308
597.88
599.724
602.678
605.396
607.156
607.61
606.617
604.141
600.2
594.838
588.113
580.083
570.811
560.356
548.772
536.104
522.383
507.632
512.326
536.159
558.487
579.278
598.472
616.007
631.826
645.896
658.218
668.852
677.935
685.698
692.474
698.686
704.78
711.212
718.368
726.447
735.378
744.797
754.099