/*--------------------------------*- C++ -*----------------------------------*\
  =========                 |
  \\      /  F ield         | OpenFOAM: The Open Source CFD Toolbox
   \\    /   O peration     | Website:  https://openfoam.org
    \\  /    A nd           | Version:  8
     \\/     M anipulation  |
\*---------------------------------------------------------------------------*/
FoamFile
{
    version     2.0;
    format      ascii;
    class       volScalarField;
    location    "980/fluid";
    object      rho;
}
// * * * * * * * * * * * * * * * * * * * * * * * * * * * * * * * * * * * * * //

dimensions      [1 -3 0 0 0 0 0];

internalField   nonuniform List<scalar> 
4000
(
0.658526
0.658499
0.658454
0.65838
0.658255
0.658047
0.657706
0.657148
0.656248
0.654815
0.65257
0.649124
0.643964
0.636467
0.625969
0.611888
0.593909
0.572155
0.547253
0.520247
0.492364
0.464759
0.438327
0.413641
0.390982
0.370406
0.351831
0.335096
0.320011
0.306382
0.294027
0.282785
0.272516
0.263105
0.254453
0.246464
0.239032
0.232097
0.225609
0.219523
0.213804
0.208418
0.203341
0.198549
0.194023
0.189747
0.185708
0.181896
0.178301
0.174916
0.171737
0.168761
0.165989
0.163424
0.161072
0.158947
0.157066
0.155478
0.154212
0.153274
0.15278
0.152848
0.154207
0.16308
0.173569
0.18589
0.200339
0.217308
0.237311
0.261017
0.289296
0.323271
0.364378
0.414569
0.476212
0.551479
0.641522
0.744755
0.854659
0.95934
1.04576
1.10684
1.1443
1.16468
1.17489
1.17977
1.18202
1.18304
1.18348
1.18368
1.18376
1.1838
1.18381
1.18382
1.18382
1.18382
1.18382
1.18382
1.18382
1.18382
0.658526
0.658499
0.658454
0.658379
0.658254
0.658046
0.657702
0.657143
0.65624
0.654805
0.652562
0.649128
0.644003
0.636581
0.626214
0.612335
0.594628
0.573187
0.548598
0.521854
0.494147
0.466619
0.440173
0.415407
0.392622
0.371898
0.353168
0.336283
0.321057
0.307299
0.294828
0.283483
0.273123
0.26363
0.254906
0.246854
0.239367
0.232383
0.225851
0.219725
0.21397
0.208553
0.203446
0.198628
0.194079
0.189782
0.185725
0.181896
0.178285
0.174887
0.171696
0.16871
0.165929
0.163356
0.160998
0.158867
0.156982
0.155392
0.154124
0.153185
0.152693
0.152767
0.154867
0.163906
0.174592
0.187154
0.201906
0.219261
0.239761
0.264114
0.293241
0.328329
0.370904
0.423035
0.487134
0.565262
0.658166
0.763381
0.873192
0.975062
1.05683
1.11331
1.14751
1.16611
1.17548
1.18
1.18211
1.18307
1.18349
1.18368
1.18376
1.1838
1.18381
1.18382
1.18382
1.18382
1.18382
1.18382
1.18382
1.18382
0.658526
0.658499
0.658454
0.658379
0.658253
0.658044
0.6577
0.657138
0.656234
0.654798
0.652557
0.649134
0.644037
0.636672
0.626404
0.612678
0.595176
0.573983
0.549656
0.523153
0.495635
0.468227
0.44183
0.41705
0.394204
0.373388
0.354548
0.337545
0.322201
0.30833
0.295752
0.284307
0.273854
0.264276
0.255472
0.24735
0.239799
0.232756
0.22617
0.219994
0.214193
0.208733
0.203587
0.198733
0.194151
0.189824
0.185738
0.181884
0.178251
0.174832
0.171623
0.168621
0.165826
0.163241
0.160873
0.158734
0.156843
0.155251
0.153983
0.153048
0.152566
0.152655
0.156066
0.165328
0.1763
0.189221
0.204422
0.22234
0.24355
0.268801
0.299061
0.335576
0.379945
0.434315
0.501018
0.581841
0.676944
0.782932
0.891225
0.98933
1.06639
1.11881
1.1503
1.16742
1.17607
1.18025
1.18221
1.18311
1.18351
1.18369
1.18376
1.1838
1.18381
1.18382
1.18382
1.18382
1.18382
1.18382
1.18382
1.18382
0.658526
0.658499
0.658454
0.658379
0.658253
0.658045
0.657702
0.657143
0.656244
0.654818
0.652597
0.649208
0.644167
0.636888
0.626745
0.613185
0.595886
0.574914
0.550802
0.524481
0.497092
0.469751
0.443365
0.418548
0.395634
0.37473
0.355791
0.338686
0.323242
0.309273
0.296604
0.285072
0.274538
0.264884
0.25601
0.247823
0.240213
0.233114
0.226475
0.220251
0.214404
0.208901
0.203716
0.198824
0.194207
0.189847
0.185732
0.18185
0.178192
0.174752
0.171523
0.168504
0.165694
0.163097
0.160719
0.158574
0.156679
0.15509
0.15383
0.152905
0.152437
0.152551
0.157584
0.167095
0.178387
0.191715
0.207424
0.225974
0.24797
0.274198
0.305673
0.34369
0.389923
0.446573
0.515867
0.599307
0.69647
0.80307
0.909736
1.00406
1.07644
1.12476
1.15344
1.16895
1.17678
1.18057
1.18235
1.18317
1.18354
1.1837
1.18377
1.1838
1.18381
1.18382
1.18382
1.18382
1.18382
1.18382
1.18382
1.18382
0.658526
0.658499
0.658455
0.65838
0.658255
0.658047
0.657706
0.657151
0.656258
0.654844
0.652642
0.649285
0.644294
0.637091
0.627056
0.613639
0.596512
0.575728
0.551798
0.52563
0.498349
0.471064
0.444685
0.419836
0.396863
0.375882
0.356858
0.339666
0.324135
0.310084
0.297335
0.28573
0.275127
0.265407
0.256471
0.248228
0.240566
0.233418
0.226733
0.220465
0.214576
0.209034
0.203811
0.198885
0.194234
0.189844
0.185702
0.181794
0.178113
0.174651
0.171404
0.16837
0.165548
0.162941
0.160557
0.158409
0.156517
0.154941
0.153691
0.152781
0.152342
0.152509
0.159208
0.168969
0.180594
0.194343
0.210578
0.229778
0.252576
0.279791
0.312482
0.351988
0.400065
0.458936
0.530683
0.616505
0.71537
0.822141
0.92682
1.01731
1.08528
1.12993
1.15616
1.17028
1.1774
1.18085
1.18247
1.18322
1.18356
1.18371
1.18377
1.1838
1.18381
1.18382
1.18382
1.18382
1.18382
1.18382
1.18382
1.18382
0.658526
0.6585
0.658455
0.658381
0.658257
0.658051
0.657713
0.657162
0.656278
0.654877
0.652697
0.649375
0.644437
0.637311
0.627381
0.614096
0.597122
0.576499
0.552717
0.526668
0.499465
0.472212
0.445826
0.42094
0.397907
0.376855
0.357755
0.340485
0.32488
0.310757
0.297941
0.286272
0.27561
0.265834
0.256846
0.248555
0.240848
0.233658
0.226932
0.220626
0.214701
0.209124
0.203869
0.198911
0.194232
0.189816
0.185648
0.181718
0.178017
0.174538
0.171277
0.168231
0.1654
0.162789
0.160405
0.158261
0.156376
0.154814
0.153577
0.152688
0.152274
0.15248
0.160689
0.170708
0.182683
0.19687
0.213638
0.233487
0.257074
0.285254
0.319122
0.360062
0.409909
0.470883
0.544926
0.63292
0.733239
0.839962
0.942593
1.02942
1.09334
1.13467
1.15869
1.17153
1.17799
1.18112
1.18259
1.18327
1.18358
1.18372
1.18378
1.1838
1.18381
1.18382
1.18382
1.18382
1.18382
1.18382
1.18382
1.18382
0.658526
0.6585
0.658456
0.658382
0.658259
0.658055
0.65772
0.657174
0.656297
0.65491
0.652751
0.649462
0.644572
0.637516
0.627678
0.614509
0.597668
0.577182
0.553526
0.527574
0.500431
0.473201
0.446802
0.421877
0.398788
0.37767
0.358502
0.341163
0.325492
0.311306
0.298432
0.286709
0.275996
0.266173
0.257141
0.248808
0.241063
0.233837
0.227077
0.220738
0.214781
0.209175
0.203892
0.198908
0.194205
0.189766
0.185578
0.181629
0.177912
0.174419
0.171147
0.168094
0.165261
0.162652
0.160275
0.158144
0.156278
0.154757
0.153524
0.152684
0.152321
0.152569
0.161428
0.171975
0.184441
0.199134
0.216462
0.236957
0.261311
0.290413
0.325399
0.3677
0.419224
0.482167
0.558325
0.648264
0.749774
0.856222
0.956736
1.0401
1.10035
1.13875
1.16085
1.1726
1.1785
1.18135
1.1827
1.18332
1.1836
1.18373
1.18378
1.1838
1.18381
1.18382
1.18382
1.18382
1.18382
1.18382
1.18382
1.18382
0.658526
0.6585
0.658456
0.658383
0.658261
0.658059
0.657726
0.657186
0.656317
0.654942
0.652803
0.649545
0.6447
0.637707
0.627953
0.614886
0.598159
0.577789
0.554236
0.528363
0.501265
0.474045
0.447629
0.422665
0.399523
0.378347
0.359116
0.341718
0.325989
0.311749
0.298825
0.287055
0.276299
0.266436
0.257365
0.248997
0.24122
0.233963
0.227174
0.220808
0.214825
0.209194
0.203888
0.198883
0.194159
0.189701
0.185496
0.181532
0.177802
0.1743
0.17102
0.167964
0.16513
0.162526
0.16016
0.158049
0.156223
0.154752
0.153594
0.152874
0.152699
0.15325
0.162423
0.173317
0.186166
0.201292
0.219119
0.240202
0.26526
0.295213
0.331234
0.374798
0.427876
0.492633
0.570718
0.662379
0.764856
0.870875
0.969306
1.04947
1.10645
1.14229
1.16273
1.17354
1.17895
1.18156
1.18279
1.18336
1.18362
1.18373
1.18378
1.18381
1.18381
1.18382
1.18382
1.18382
1.18382
1.18382
1.18382
1.18382
0.658526
0.6585
0.658457
0.658384
0.658263
0.658063
0.657733
0.657197
0.656335
0.654972
0.652852
0.64962
0.644816
0.637878
0.628196
0.615217
0.598589
0.578317
0.55485
0.529039
0.501975
0.474761
0.448325
0.423323
0.400134
0.378904
0.359619
0.342168
0.326389
0.312103
0.299135
0.287326
0.276533
0.266635
0.257532
0.249135
0.24133
0.234048
0.227234
0.220845
0.21484
0.209189
0.203864
0.19884
0.1941
0.189627
0.185408
0.181433
0.177693
0.174183
0.170899
0.16784
0.165008
0.162409
0.160055
0.157962
0.156168
0.154736
0.153637
0.153008
0.152981
0.154044
0.163484
0.174667
0.187841
0.203341
0.221609
0.24322
0.268914
0.299643
0.33661
0.381338
0.435846
0.502253
0.582066
0.675227
0.778459
0.883932
0.980348
1.05758
1.11167
1.1453
1.16433
1.17433
1.17932
1.18174
1.18287
1.1834
1.18363
1.18374
1.18379
1.18381
1.18382
1.18382
1.18382
1.18382
1.18382
1.18382
1.18382
1.18382
0.658526
0.658501
0.658458
0.658386
0.658265
0.658066
0.657739
0.657207
0.656352
0.654999
0.652895
0.649688
0.644919
0.638029
0.62841
0.615507
0.598962
0.578772
0.555375
0.529615
0.502576
0.475362
0.448906
0.42387
0.400637
0.37936
0.360027
0.34253
0.326708
0.312382
0.299378
0.287534
0.27671
0.266783
0.257654
0.249232
0.241404
0.2341
0.227267
0.220858
0.214836
0.209168
0.203827
0.198789
0.194035
0.18955
0.18532
0.181335
0.177588
0.174072
0.170784
0.167723
0.164892
0.162296
0.159947
0.157861
0.156081
0.154659
0.153567
0.152932
0.15287
0.154947
0.164584
0.175996
0.189438
0.205257
0.223908
0.245982
0.272242
0.303665
0.341482
0.387264
0.443067
0.510962
0.592318
0.686782
0.790596
0.895453
0.989969
1.06457
1.11613
1.14785
1.16568
1.175
1.17965
1.18189
1.18294
1.18343
1.18365
1.18375
1.18379
1.18381
1.18382
1.18382
1.18382
1.18382
1.18382
1.18382
1.18382
1.18382
0.658526
0.658501
0.658458
0.658386
0.658267
0.658069
0.657744
0.657216
0.656367
0.655023
0.652933
0.649747
0.645009
0.63816
0.628595
0.615756
0.599281
0.579159
0.55582
0.5301
0.50308
0.475863
0.449387
0.424319
0.401048
0.37973
0.360356
0.34282
0.32696
0.3126
0.299565
0.287693
0.276843
0.266892
0.25774
0.249297
0.241451
0.234129
0.227279
0.220855
0.214818
0.209136
0.203782
0.198732
0.193968
0.189473
0.185235
0.181243
0.17749
0.17397
0.170679
0.167617
0.164786
0.162192
0.159846
0.157764
0.15599
0.154573
0.153483
0.152848
0.15278
0.155857
0.165652
0.177254
0.190925
0.20702
0.226007
0.248491
0.275255
0.307297
0.345875
0.392602
0.449563
0.518782
0.601496
0.697072
0.801324
0.905529
0.998283
1.07054
1.1199
1.15001
1.16681
1.17557
1.17992
1.18201
1.183
1.18345
1.18366
1.18375
1.18379
1.18381
1.18382
1.18382
1.18382
1.18382
1.18382
1.18382
1.18382
1.18382
0.658526
0.658501
0.658459
0.658387
0.658269
0.658072
0.657749
0.657223
0.65638
0.655044
0.652966
0.649798
0.645086
0.638272
0.628752
0.615967
0.59955
0.579485
0.556193
0.530505
0.503498
0.476277
0.449783
0.424687
0.401382
0.380028
0.360619
0.343049
0.327159
0.31277
0.299709
0.287813
0.276941
0.26697
0.2578
0.24934
0.241478
0.234142
0.227278
0.220841
0.214793
0.2091
0.203735
0.198676
0.193904
0.189401
0.185157
0.18116
0.177402
0.173879
0.170587
0.167524
0.164694
0.162102
0.15976
0.157683
0.155914
0.1545
0.153413
0.152779
0.152708
0.156686
0.166622
0.17839
0.192261
0.208598
0.227878
0.250722
0.277927
0.310514
0.349764
0.397333
0.455326
0.525715
0.609613
0.706134
0.810704
0.914259
1.00541
1.07561
1.12308
1.15181
1.16777
1.17604
1.18014
1.18212
1.18305
1.18348
1.18367
1.18376
1.18379
1.18381
1.18382
1.18382
1.18382
1.18382
1.18382
1.18382
1.18382
1.18382
0.658526
0.658501
0.658459
0.658388
0.65827
0.658074
0.657753
0.65723
0.656391
0.655062
0.652994
0.649842
0.645151
0.638367
0.628885
0.616143
0.599775
0.579756
0.556502
0.530839
0.503842
0.476616
0.450105
0.424985
0.401651
0.380267
0.360828
0.34323
0.327313
0.312901
0.299818
0.287903
0.277013
0.267026
0.25784
0.249366
0.241492
0.234144
0.227269
0.220822
0.214764
0.209063
0.20369
0.198624
0.193845
0.189337
0.185088
0.181087
0.177327
0.173802
0.170509
0.167447
0.164619
0.162031
0.159692
0.157618
0.155854
0.154445
0.153362
0.152729
0.152655
0.157405
0.16747
0.179387
0.193434
0.209981
0.229516
0.252672
0.280264
0.313328
0.353167
0.401477
0.460375
0.531782
0.616701
0.714015
0.818812
0.921742
1.01146
1.07988
1.12574
1.15331
1.16855
1.17643
1.18033
1.18221
1.18309
1.18349
1.18368
1.18376
1.18379
1.18381
1.18382
1.18382
1.18382
1.18382
1.18382
1.18382
1.18382
1.18382
0.658526
0.658501
0.658459
0.658389
0.658271
0.658076
0.657756
0.657236
0.6564
0.655077
0.653018
0.649878
0.645205
0.638446
0.628994
0.61629
0.59996
0.579979
0.556756
0.531112
0.504122
0.476891
0.450365
0.425224
0.401866
0.380456
0.360993
0.343371
0.327433
0.313002
0.299901
0.28797
0.277065
0.267064
0.257867
0.249382
0.241497
0.23414
0.227256
0.220801
0.214736
0.209028
0.203649
0.198578
0.193794
0.189282
0.18503
0.181027
0.177265
0.17374
0.170448
0.167388
0.164562
0.161976
0.159641
0.157571
0.155812
0.154408
0.153327
0.152694
0.152616
0.158015
0.168195
0.180243
0.194442
0.211171
0.230927
0.254353
0.282276
0.315752
0.3561
0.405048
0.464726
0.537008
0.622797
0.72077
0.825723
0.928074
1.01654
1.08344
1.12795
1.15456
1.1692
1.17675
1.18049
1.18228
1.18312
1.18351
1.18368
1.18376
1.1838
1.18381
1.18382
1.18382
1.18382
1.18382
1.18382
1.18382
1.18382
1.18382
0.658526
0.658501
0.65846
0.658389
0.658272
0.658078
0.657759
0.65724
0.656407
0.655089
0.653037
0.649908
0.645249
0.63851
0.629083
0.616408
0.600111
0.580159
0.55696
0.531332
0.504346
0.47711
0.450572
0.425413
0.402035
0.380605
0.361121
0.343481
0.327525
0.313078
0.299963
0.288019
0.277102
0.267092
0.257884
0.249391
0.241499
0.234134
0.227243
0.220782
0.214711
0.208998
0.203615
0.198539
0.193752
0.189238
0.184983
0.180979
0.177218
0.173693
0.170402
0.167344
0.164521
0.161938
0.159606
0.157542
0.155787
0.154386
0.153307
0.152672
0.15259
0.158519
0.168802
0.180964
0.195294
0.212178
0.23212
0.255774
0.283979
0.317802
0.35858
0.40807
0.468406
0.541427
0.627943
0.726456
0.831514
0.933348
1.02075
1.08636
1.12975
1.15557
1.16973
1.17702
1.18061
1.18234
1.18315
1.18352
1.18369
1.18376
1.1838
1.18381
1.18382
1.18382
1.18382
1.18382
1.18382
1.18382
1.18382
1.18382
0.658526
0.658502
0.65846
0.65839
0.658273
0.658079
0.657761
0.657244
0.656413
0.655099
0.653052
0.649931
0.645285
0.638561
0.629154
0.616503
0.60023
0.580301
0.557121
0.531504
0.504522
0.477282
0.450733
0.42556
0.402166
0.380719
0.36122
0.343564
0.327595
0.313135
0.30001
0.288055
0.27713
0.267111
0.257897
0.249397
0.241498
0.234128
0.227233
0.220767
0.214692
0.208975
0.203588
0.19851
0.193721
0.189205
0.18495
0.180946
0.177185
0.173661
0.170371
0.167315
0.164495
0.161916
0.159589
0.157528
0.155778
0.15438
0.153301
0.152664
0.152575
0.158928
0.1693
0.181559
0.195999
0.213011
0.233108
0.25695
0.285386
0.319495
0.360627
0.410564
0.471443
0.54507
0.63218
0.731126
0.836253
0.937643
1.02415
1.08871
1.1312
1.15638
1.17016
1.17723
1.18071
1.18238
1.18317
1.18353
1.18369
1.18377
1.1838
1.18381
1.18382
1.18382
1.18382
1.18382
1.18382
1.18382
1.18382
1.18382
0.658526
0.658502
0.65846
0.65839
0.658273
0.65808
0.657763
0.657247
0.656418
0.655106
0.653064
0.64995
0.645312
0.6386
0.629209
0.616575
0.600321
0.580411
0.557245
0.531636
0.504656
0.477412
0.450855
0.425671
0.402265
0.380805
0.361293
0.343627
0.327647
0.313178
0.300044
0.288082
0.27715
0.267125
0.257906
0.249401
0.241498
0.234124
0.227225
0.220756
0.214678
0.208959
0.203571
0.198491
0.1937
0.189184
0.184929
0.180925
0.177164
0.173642
0.170355
0.167302
0.164485
0.16191
0.159586
0.157529
0.155782
0.154386
0.153307
0.152665
0.152566
0.159251
0.169698
0.182036
0.196565
0.213681
0.233901
0.257892
0.286511
0.320846
0.36226
0.41255
0.473859
0.547964
0.635539
0.734819
0.839987
0.941014
1.02681
1.09055
1.13233
1.15701
1.17049
1.17739
1.18079
1.18242
1.18319
1.18354
1.1837
1.18377
1.1838
1.18381
1.18382
1.18382
1.18382
1.18382
1.18382
1.18382
1.18382
1.18382
0.658526
0.658502
0.65846
0.65839
0.658274
0.658081
0.657764
0.657249
0.656422
0.655112
0.653073
0.649963
0.645332
0.638629
0.629249
0.616628
0.600387
0.58049
0.557334
0.531731
0.504753
0.477506
0.450943
0.425751
0.402335
0.380866
0.361346
0.343671
0.327684
0.313208
0.300068
0.288102
0.277165
0.267136
0.257913
0.249406
0.2415
0.234123
0.227222
0.220751
0.214672
0.208951
0.203561
0.19848
0.193689
0.189173
0.184918
0.180915
0.177156
0.173636
0.170351
0.167301
0.164488
0.161916
0.159596
0.157543
0.155799
0.154404
0.153323
0.152674
0.152562
0.15949
0.169999
0.182401
0.196999
0.214193
0.234505
0.258607
0.287363
0.321866
0.363489
0.414042
0.47567
0.550129
0.638046
0.737567
0.842755
0.943502
1.02877
1.0919
1.13315
1.15747
1.17073
1.17751
1.18085
1.18245
1.1832
1.18354
1.1837
1.18377
1.1838
1.18381
1.18382
1.18382
1.18382
1.18382
1.18382
1.18382
1.18382
1.18382
0.658526
0.658502
0.65846
0.65839
0.658274
0.658081
0.657765
0.65725
0.656424
0.655115
0.653078
0.649972
0.645345
0.638647
0.629274
0.616662
0.60043
0.580541
0.557391
0.531793
0.504815
0.477567
0.451
0.425802
0.402381
0.380906
0.36138
0.343699
0.327708
0.313228
0.300084
0.288114
0.277175
0.267144
0.257919
0.24941
0.241503
0.234125
0.227222
0.22075
0.21467
0.208948
0.203558
0.198477
0.193686
0.18917
0.184916
0.180914
0.177157
0.173639
0.170356
0.167309
0.164499
0.161932
0.159615
0.157565
0.155823
0.154429
0.153345
0.152688
0.152561
0.159648
0.170206
0.182655
0.197302
0.214549
0.234923
0.259099
0.287945
0.32256
0.364321
0.415048
0.476885
0.551576
0.639715
0.739386
0.844577
0.94513
1.03005
1.09278
1.13369
1.15778
1.17089
1.17759
1.18089
1.18247
1.18321
1.18355
1.1837
1.18377
1.1838
1.18381
1.18382
1.18382
1.18382
1.18382
1.18382
1.18382
1.18382
1.18382
0.658526
0.658502
0.65846
0.65839
0.658274
0.658082
0.657765
0.657251
0.656425
0.655117
0.653081
0.649976
0.645351
0.638656
0.629287
0.616678
0.60045
0.580565
0.557419
0.531822
0.504845
0.477595
0.451027
0.425826
0.402402
0.380925
0.361396
0.343713
0.327719
0.313237
0.300092
0.28812
0.27718
0.267148
0.257922
0.249412
0.241505
0.234127
0.227224
0.220751
0.21467
0.208949
0.203559
0.198478
0.193687
0.189171
0.184918
0.180917
0.177161
0.173645
0.170365
0.16732
0.164512
0.161947
0.159634
0.157586
0.155846
0.154452
0.153367
0.152703
0.152561
0.159726
0.170317
0.182793
0.197465
0.21474
0.235144
0.259356
0.288245
0.322914
0.36474
0.41555
0.477486
0.552285
0.640526
0.740263
0.845448
0.945901
1.03065
1.09319
1.13394
1.15792
1.17096
1.17762
1.1809
1.18247
1.18321
1.18355
1.1837
1.18377
1.1838
1.18381
1.18382
1.18382
1.18382
1.18382
1.18382
1.18382
1.18382
1.18382
0.658526
0.658502
0.65846
0.65839
0.658274
0.658082
0.657765
0.657251
0.656425
0.655117
0.653081
0.649976
0.645351
0.638656
0.629287
0.616678
0.60045
0.580565
0.557419
0.531822
0.504845
0.477595
0.451027
0.425826
0.402402
0.380925
0.361396
0.343713
0.327719
0.313237
0.300092
0.28812
0.27718
0.267148
0.257922
0.249412
0.241505
0.234127
0.227224
0.220751
0.21467
0.208949
0.203559
0.198478
0.193687
0.189171
0.184918
0.180917
0.177161
0.173645
0.170365
0.16732
0.164512
0.161947
0.159634
0.157586
0.155846
0.154452
0.153366
0.152703
0.152561
0.159726
0.170317
0.182793
0.197465
0.21474
0.235144
0.259356
0.288245
0.322913
0.36474
0.41555
0.477485
0.552285
0.640525
0.740263
0.845447
0.9459
1.03064
1.09319
1.13394
1.15792
1.17096
1.17762
1.1809
1.18247
1.18321
1.18355
1.1837
1.18377
1.1838
1.18381
1.18382
1.18382
1.18382
1.18382
1.18382
1.18382
1.18382
1.18382
0.658526
0.658502
0.65846
0.65839
0.658274
0.658081
0.657765
0.65725
0.656424
0.655115
0.653078
0.649972
0.645345
0.638647
0.629274
0.616662
0.60043
0.580541
0.557391
0.531793
0.504815
0.477566
0.451
0.425802
0.40238
0.380906
0.361379
0.343699
0.327707
0.313228
0.300084
0.288114
0.277175
0.267144
0.257919
0.24941
0.241503
0.234125
0.227222
0.22075
0.214669
0.208948
0.203558
0.198477
0.193686
0.18917
0.184916
0.180914
0.177157
0.173638
0.170356
0.167309
0.164499
0.161931
0.159615
0.157565
0.155823
0.154429
0.153345
0.152688
0.152561
0.159648
0.170206
0.182655
0.197301
0.214549
0.234923
0.259099
0.287944
0.322559
0.36432
0.415047
0.476883
0.551574
0.639713
0.739384
0.844575
0.945128
1.03005
1.09278
1.13369
1.15777
1.17089
1.17759
1.18089
1.18247
1.18321
1.18355
1.1837
1.18377
1.1838
1.18381
1.18382
1.18382
1.18382
1.18382
1.18382
1.18382
1.18382
1.18382
0.658526
0.658502
0.65846
0.65839
0.658274
0.658081
0.657764
0.657249
0.656422
0.655112
0.653073
0.649963
0.645332
0.638629
0.629249
0.616627
0.600387
0.580489
0.557333
0.531731
0.504752
0.477506
0.450943
0.42575
0.402335
0.380866
0.361346
0.343671
0.327684
0.313208
0.300068
0.288101
0.277165
0.267136
0.257913
0.249405
0.2415
0.234123
0.227222
0.220751
0.214671
0.20895
0.203561
0.19848
0.193689
0.189172
0.184918
0.180915
0.177156
0.173635
0.170351
0.167301
0.164487
0.161916
0.159596
0.157543
0.155799
0.154404
0.153323
0.152674
0.152562
0.159489
0.169999
0.182401
0.196998
0.214193
0.234504
0.258607
0.287362
0.321865
0.363487
0.41404
0.475668
0.550127
0.638043
0.737563
0.842751
0.943498
1.02877
1.0919
1.13315
1.15747
1.17073
1.17751
1.18085
1.18245
1.1832
1.18354
1.1837
1.18377
1.1838
1.18381
1.18382
1.18382
1.18382
1.18382
1.18382
1.18382
1.18382
1.18382
0.658526
0.658502
0.65846
0.65839
0.658273
0.65808
0.657763
0.657247
0.656418
0.655106
0.653064
0.649949
0.645312
0.6386
0.629209
0.616575
0.600321
0.58041
0.557244
0.531636
0.504656
0.477412
0.450855
0.425671
0.402264
0.380805
0.361293
0.343626
0.327647
0.313178
0.300043
0.288082
0.27715
0.267125
0.257905
0.249401
0.241498
0.234124
0.227225
0.220756
0.214678
0.208959
0.20357
0.198491
0.1937
0.189184
0.184928
0.180924
0.177164
0.173642
0.170354
0.167301
0.164485
0.16191
0.159586
0.157529
0.155782
0.154386
0.153307
0.152665
0.152566
0.15925
0.169697
0.182036
0.196564
0.21368
0.2339
0.25789
0.286509
0.320844
0.362257
0.412547
0.473855
0.54796
0.635534
0.734814
0.839982
0.941009
1.02681
1.09055
1.13232
1.15701
1.17049
1.17739
1.18079
1.18242
1.18319
1.18354
1.1837
1.18377
1.1838
1.18381
1.18382
1.18382
1.18382
1.18382
1.18382
1.18382
1.18382
1.18382
0.658526
0.658502
0.65846
0.65839
0.658273
0.658079
0.657761
0.657244
0.656413
0.655099
0.653052
0.649931
0.645284
0.638561
0.629154
0.616502
0.600229
0.580301
0.557121
0.531504
0.504521
0.477281
0.450733
0.425559
0.402165
0.380719
0.361219
0.343564
0.327595
0.313135
0.300009
0.288055
0.27713
0.267111
0.257896
0.249396
0.241498
0.234127
0.227232
0.220766
0.214691
0.208974
0.203588
0.19851
0.19372
0.189205
0.18495
0.180945
0.177184
0.17366
0.170371
0.167315
0.164495
0.161916
0.159588
0.157528
0.155777
0.154379
0.153301
0.152664
0.152575
0.158927
0.169299
0.181558
0.195998
0.21301
0.233107
0.256948
0.285384
0.319492
0.360624
0.41056
0.471439
0.545064
0.632173
0.73112
0.836246
0.937637
1.02415
1.08871
1.1312
1.15638
1.17016
1.17722
1.18071
1.18238
1.18317
1.18353
1.18369
1.18377
1.1838
1.18381
1.18382
1.18382
1.18382
1.18382
1.18382
1.18382
1.18382
1.18382
0.658526
0.658501
0.65846
0.658389
0.658272
0.658078
0.657759
0.65724
0.656407
0.655089
0.653037
0.649907
0.645249
0.638509
0.629083
0.616408
0.60011
0.580158
0.556959
0.531331
0.504345
0.477109
0.450571
0.425412
0.402034
0.380604
0.361121
0.34348
0.327525
0.313077
0.299962
0.288018
0.277102
0.267091
0.257884
0.24939
0.241498
0.234133
0.227243
0.220782
0.214711
0.208997
0.203614
0.198539
0.193751
0.189237
0.184983
0.180979
0.177217
0.173693
0.170402
0.167344
0.16452
0.161938
0.159606
0.157541
0.155787
0.154386
0.153306
0.152672
0.152589
0.158517
0.1688
0.180962
0.195292
0.212176
0.232118
0.255772
0.283976
0.317798
0.358576
0.408065
0.468401
0.54142
0.627935
0.726448
0.831506
0.93334
1.02074
1.08635
1.12975
1.15557
1.16973
1.17702
1.18061
1.18234
1.18315
1.18352
1.18369
1.18376
1.1838
1.18381
1.18382
1.18382
1.18382
1.18382
1.18382
1.18382
1.18382
1.18382
0.658526
0.658501
0.658459
0.658389
0.658271
0.658076
0.657756
0.657236
0.6564
0.655076
0.653017
0.649878
0.645205
0.638445
0.628994
0.616289
0.59996
0.579978
0.556755
0.531111
0.504121
0.47689
0.450364
0.425223
0.401865
0.380455
0.360992
0.343371
0.327432
0.313001
0.2999
0.287969
0.277064
0.267064
0.257866
0.249381
0.241497
0.234139
0.227256
0.220801
0.214735
0.209027
0.203649
0.198577
0.193793
0.189281
0.185029
0.181026
0.177265
0.173739
0.170447
0.167387
0.164562
0.161976
0.15964
0.157571
0.155811
0.154407
0.153326
0.152694
0.152616
0.158013
0.168194
0.180242
0.19444
0.211169
0.230924
0.25435
0.282273
0.315748
0.356095
0.405043
0.46472
0.537
0.622787
0.72076
0.825713
0.928065
1.01654
1.08343
1.12794
1.15455
1.1692
1.17675
1.18049
1.18228
1.18312
1.18351
1.18368
1.18376
1.1838
1.18381
1.18382
1.18382
1.18382
1.18382
1.18382
1.18382
1.18382
1.18382
0.658526
0.658501
0.658459
0.658388
0.65827
0.658074
0.657753
0.65723
0.656391
0.655062
0.652994
0.649842
0.64515
0.638367
0.628884
0.616143
0.599774
0.579755
0.556501
0.530838
0.503841
0.476615
0.450104
0.424983
0.40165
0.380266
0.360827
0.343229
0.327312
0.3129
0.299817
0.287902
0.277012
0.267025
0.257839
0.249366
0.241491
0.234143
0.227268
0.220821
0.214763
0.209062
0.203689
0.198623
0.193844
0.189336
0.185087
0.181086
0.177326
0.173801
0.170508
0.167447
0.164618
0.16203
0.159691
0.157618
0.155853
0.154444
0.153361
0.152728
0.152655
0.157403
0.167468
0.179385
0.193432
0.209979
0.229513
0.252669
0.280259
0.313323
0.353161
0.40147
0.460367
0.531772
0.61669
0.714003
0.818799
0.921731
1.01145
1.07987
1.12574
1.15331
1.16855
1.17643
1.18033
1.18221
1.18309
1.18349
1.18368
1.18376
1.18379
1.18381
1.18382
1.18382
1.18382
1.18382
1.18382
1.18382
1.18382
1.18382
0.658526
0.658501
0.658459
0.658387
0.658269
0.658072
0.657749
0.657223
0.65638
0.655044
0.652966
0.649798
0.645085
0.638272
0.628752
0.615966
0.599549
0.579484
0.556192
0.530504
0.503496
0.476276
0.449781
0.424686
0.401381
0.380027
0.360618
0.343048
0.327157
0.312769
0.299708
0.287812
0.27694
0.266969
0.257799
0.249339
0.241477
0.234141
0.227277
0.22084
0.214792
0.209099
0.203734
0.198675
0.193903
0.1894
0.185156
0.181159
0.177401
0.173878
0.170586
0.167523
0.164693
0.162101
0.159759
0.157682
0.155912
0.154499
0.153412
0.152777
0.152706
0.156684
0.166619
0.178388
0.192258
0.208595
0.227875
0.250718
0.277922
0.310508
0.349757
0.397326
0.455317
0.525704
0.6096
0.70612
0.81069
0.914246
1.0054
1.07561
1.12308
1.15181
1.16776
1.17604
1.18014
1.18212
1.18305
1.18348
1.18367
1.18376
1.18379
1.18381
1.18382
1.18382
1.18382
1.18382
1.18382
1.18382
1.18382
1.18382
0.658526
0.658501
0.658458
0.658386
0.658267
0.658069
0.657744
0.657216
0.656367
0.655023
0.652933
0.649747
0.645008
0.63816
0.628594
0.615755
0.59928
0.579158
0.555819
0.530099
0.503078
0.475861
0.449386
0.424318
0.401047
0.379728
0.360355
0.342818
0.326959
0.312599
0.299564
0.287692
0.276842
0.266891
0.257739
0.249296
0.24145
0.234128
0.227278
0.220853
0.214817
0.209135
0.203781
0.198731
0.193967
0.189472
0.185234
0.181242
0.177489
0.173968
0.170677
0.167615
0.164784
0.16219
0.159844
0.157763
0.155988
0.154571
0.153481
0.152845
0.152778
0.155855
0.165649
0.17725
0.190921
0.207016
0.226002
0.248486
0.275249
0.30729
0.345867
0.392594
0.449553
0.518771
0.601482
0.697057
0.801308
0.905514
0.99827
1.07054
1.1199
1.15
1.16681
1.17557
1.17992
1.18201
1.183
1.18345
1.18366
1.18375
1.18379
1.18381
1.18382
1.18382
1.18382
1.18382
1.18382
1.18382
1.18382
1.18382
0.658526
0.658501
0.658458
0.658386
0.658265
0.658066
0.657739
0.657207
0.656352
0.654999
0.652895
0.649688
0.644919
0.638029
0.62841
0.615506
0.598961
0.578771
0.555374
0.529613
0.502574
0.47536
0.448904
0.423868
0.400635
0.379358
0.360026
0.342529
0.326706
0.31238
0.299376
0.287533
0.276709
0.266782
0.257653
0.24923
0.241403
0.234099
0.227265
0.220857
0.214835
0.209167
0.203825
0.198787
0.194034
0.189548
0.185319
0.181334
0.177586
0.17407
0.170782
0.167721
0.16489
0.162294
0.159945
0.157859
0.156079
0.154657
0.153564
0.152929
0.152867
0.154945
0.164582
0.175993
0.189436
0.205255
0.223905
0.245979
0.272238
0.30366
0.341476
0.387257
0.443057
0.51095
0.592304
0.686765
0.790579
0.895436
0.989955
1.06456
1.11612
1.14785
1.16568
1.175
1.17965
1.18189
1.18294
1.18343
1.18365
1.18375
1.18379
1.18381
1.18382
1.18382
1.18382
1.18382
1.18382
1.18382
1.18382
1.18382
0.658526
0.6585
0.658457
0.658384
0.658263
0.658063
0.657733
0.657197
0.656335
0.654972
0.652851
0.64962
0.644816
0.637877
0.628196
0.615216
0.598588
0.578316
0.554848
0.529038
0.501973
0.474759
0.448323
0.423321
0.400132
0.378902
0.359618
0.342166
0.326387
0.312101
0.299134
0.287324
0.276531
0.266634
0.257531
0.249133
0.241329
0.234046
0.227233
0.220843
0.214839
0.209188
0.203862
0.198839
0.194099
0.189626
0.185407
0.181431
0.177692
0.174181
0.170897
0.167838
0.165006
0.162407
0.160053
0.157959
0.156166
0.154734
0.153635
0.153005
0.152977
0.154042
0.163481
0.174664
0.187837
0.203337
0.221604
0.243213
0.268906
0.299633
0.336599
0.381325
0.435832
0.502238
0.58205
0.675209
0.77844
0.883914
0.980333
1.05757
1.11166
1.14529
1.16432
1.17433
1.17932
1.18174
1.18287
1.1834
1.18363
1.18374
1.18379
1.18381
1.18382
1.18382
1.18382
1.18382
1.18382
1.18382
1.18382
1.18382
0.658526
0.6585
0.658456
0.658383
0.658261
0.658059
0.657726
0.657186
0.656317
0.654942
0.652803
0.649545
0.6447
0.637706
0.627952
0.614885
0.598158
0.577788
0.554234
0.528361
0.501263
0.474043
0.447627
0.422663
0.399522
0.378345
0.359115
0.341716
0.325987
0.311748
0.298824
0.287054
0.276298
0.266434
0.257364
0.248996
0.241218
0.233962
0.227173
0.220806
0.214824
0.209193
0.203886
0.198881
0.194157
0.1897
0.185494
0.181531
0.177801
0.174298
0.171019
0.167962
0.165128
0.162524
0.160158
0.158047
0.156221
0.15475
0.153592
0.152871
0.152696
0.153248
0.16242
0.173314
0.186163
0.201289
0.219116
0.240199
0.265256
0.295208
0.331228
0.374791
0.427868
0.492622
0.570703
0.662361
0.764836
0.870856
0.969289
1.04946
1.10644
1.14228
1.16273
1.17354
1.17894
1.18156
1.18279
1.18336
1.18362
1.18373
1.18378
1.18381
1.18381
1.18382
1.18382
1.18382
1.18382
1.18382
1.18382
1.18382
0.658526
0.6585
0.658456
0.658382
0.658259
0.658055
0.657719
0.657174
0.656297
0.65491
0.652751
0.649461
0.644572
0.637515
0.627678
0.614508
0.597667
0.577181
0.553524
0.527572
0.500429
0.473198
0.4468
0.421874
0.398786
0.377668
0.3585
0.341162
0.32549
0.311305
0.298431
0.286708
0.275995
0.266172
0.257139
0.248806
0.241061
0.233835
0.227075
0.220736
0.21478
0.209174
0.20389
0.198907
0.194204
0.189765
0.185576
0.181627
0.17791
0.174418
0.171146
0.168093
0.165259
0.16265
0.160273
0.158142
0.156276
0.154755
0.153522
0.152682
0.152319
0.152567
0.161426
0.171973
0.184438
0.199131
0.216459
0.236953
0.261305
0.290406
0.325391
0.367689
0.41921
0.48215
0.558306
0.648243
0.749753
0.856201
0.956717
1.04009
1.10034