/*--------------------------------*- C++ -*----------------------------------*\
  =========                 |
  \\      /  F ield         | OpenFOAM: The Open Source CFD Toolbox
   \\    /   O peration     | Website:  https://openfoam.org
    \\  /    A nd           | Version:  8
     \\/     M anipulation  |
\*---------------------------------------------------------------------------*/
FoamFile
{
    version     2.0;
    format      ascii;
    class       volScalarField;
    location    "980/fluid";
    object      T;
}
// * * * * * * * * * * * * * * * * * * * * * * * * * * * * * * * * * * * * * //

dimensions      [0 0 0 1 0 0 0];

internalField   nonuniform List<scalar> 
4000
(
293.004
293.017
293.039
293.076
293.138
293.241
293.41
293.686
294.134
294.85
295.978
297.727
300.386
304.335
310.047
318.059
328.925
343.134
361.026
382.739
408.189
437.116
469.146
503.87
540.9
579.901
620.603
662.798
706.33
751.076
796.936
843.818
891.63
940.264
989.598
1039.57
1090.2
1141.39
1193.06
1245.09
1297.38
1349.82
1402.3
1454.69
1506.89
1558.75
1610.16
1660.97
1711.03
1760.2
1808.29
1855.11
1900.44
1944.04
1985.58
2024.69
2060.89
2093.13
2120.79
2143.95
2160.46
2168.5
2157.65
2047.81
1930.89
1809.05
1684.06
1557.4
1430.36
1304.12
1179.77
1058.41
941.185
828.997
723.088
625.478
538.492
464.429
405.105
361.161
331.477
313.274
303.07
297.793
295.216
294.001
293.444
293.194
293.083
293.036
293.015
293.006
293.003
293.001
293
293
293
293
293
293
293.004
293.017
293.039
293.076
293.138
293.241
293.411
293.689
294.138
294.855
295.982
297.725
300.365
304.274
309.911
317.798
328.477
342.431
360.011
381.372
406.458
435.034
466.749
501.208
538.029
576.875
617.474
659.612
703.125
747.887
793.794
840.751
888.662
937.42
986.901
1037.03
1087.83
1139.21
1191.07
1243.31
1295.82
1348.48
1401.19
1453.81
1506.24
1558.33
1609.96
1661
1711.28
1760.65
1808.94
1855.95
1901.47
1945.23
1986.92
2026.17
2062.5
2094.82
2122.54
2145.75
2162.27
2170.22
2149.04
2038.06
1920.14
1797.37
1671.5
1544.01
1416.2
1289.24
1164.27
1042.44
924.917
812.652
707.078
610.387
524.995
453.183
396.563
355.371
328.023
311.463
302.228
297.43
295.068
293.944
293.423
293.186
293.081
293.035
293.015
293.006
293.003
293.001
293
293
293
293
293
293
293.004
293.017
293.039
293.077
293.139
293.242
293.413
293.691
294.141
294.858
295.985
297.722
300.348
304.226
309.805
317.599
328.135
341.892
359.217
380.275
405.024
433.25
464.621
498.758
535.29
573.888
614.281
656.257
699.65
744.334
790.203
837.161
885.113
933.95
983.547
1033.81
1084.78
1136.37
1188.46
1240.95
1293.73
1346.69
1399.71
1452.65
1505.41
1557.85
1609.82
1661.2
1711.81
1761.51
1810.12
1857.43
1903.24
1947.26
1989.2
2028.66
2065.17
2097.6
2125.38
2148.59
2164.98
2172.74
2133.47
2021.44
1902.42
1778.58
1651.72
1523.35
1394.82
1267.35
1142.13
1020.37
903.282
791.853
687.723
593.172
510.557
441.949
388.589
350.275
325.098
309.941
301.498
297.097
294.923
293.882
293.397
293.176
293.077
293.033
293.014
293.006
293.002
293.001
293
293
293
293
293
293
293.004
293.017
293.039
293.076
293.139
293.242
293.412
293.689
294.136
294.848
295.964
297.684
300.28
304.11
309.617
317.304
327.694
341.262
358.36
379.159
403.631
431.574
462.668
496.545
532.839
571.224
611.433
653.254
696.523
741.113
786.922
833.855
881.817
930.702
980.386
1030.77
1081.89
1133.66
1185.97
1238.71
1291.77
1345.03
1398.37
1451.66
1504.78
1557.59
1609.95
1661.7
1712.69
1762.77
1811.73
1859.39
1905.52
1949.84
1992.03
2031.72
2068.39
2100.85
2128.59
2151.7
2167.95
2175.34
2114.05
2001.17
1881.2
1756.42
1628.72
1499.68
1370.69
1243.05
1117.98
996.75
880.546
770.422
668.16
576.056
496.363
430.945
380.732
345.165
322.078
308.308
300.679
296.71
294.746
293.804
293.363
293.161
293.071
293.03
293.013
293.005
293.002
293.001
293
293
293
293
293
293
293.004
293.017
293.039
293.076
293.138
293.241
293.41
293.685
294.129
294.835
295.942
297.645
300.214
304.003
309.445
317.04
327.306
340.715
357.62
378.2
402.437
430.141
461.002
494.66
530.752
568.959
609.012
650.7
693.862
738.371
784.126
831.034
879.003
927.928
977.687
1028.18
1079.43
1131.37
1183.88
1236.85
1290.17
1343.72
1397.38
1451.01
1504.49
1557.66
1610.39
1662.52
1713.89
1764.33
1813.65
1861.64
1908.07
1952.65
1995.08
2034.93
2071.68
2104.01
2131.68
2154.67
2170.53
2177.11
2093.68
1980.1
1859.28
1733.66
1605.23
1475.66
1346.42
1218.83
1094.15
973.693
858.579
749.948
649.717
560.139
483.355
421.018
373.757
340.696
319.468
306.906
299.976
296.375
294.591
293.734
293.332
293.148
293.065
293.028
293.012
293.005
293.002
293.001
293
293
293
293
293
293
293.004
293.017
293.039
293.076
293.137
293.239
293.406
293.679
294.119
294.819
295.914
297.599
300.14
303.885
309.266
316.776
326.929
340.198
356.939
377.337
401.383
428.895
459.572
493.056
528.992
567.06
606.992
648.58
691.661
736.111
781.828
828.724
876.707
925.675
975.508
1026.1
1077.48
1129.57
1182.27
1235.46
1289.02
1342.84
1396.8
1450.75
1504.55
1558.06
1611.14
1663.62
1715.34
1766.11
1815.74
1864.01
1910.68
1955.46
1998.02
2037.93
2074.69
2106.9
2134.49
2157.23
2172.75
2178.71
2075.51
1961.01
1839.03
1712.34
1583.08
1452.98
1323.53
1196.06
1071.87
952.262
838.281
731.17
632.921
545.745
471.668
412.146
367.54
336.707
317.123
305.63
299.325
296.059
294.444
293.667
293.303
293.135
293.059
293.026
293.011
293.005
293.002
293.001
293
293
293
293
293
293
293.004
293.017
293.039
293.075
293.136
293.237
293.403
293.674
294.11
294.802
295.887
297.555
300.07
303.776
309.102
316.536
326.592
339.74
356.342
376.587
400.475
427.829
458.357
491.705
527.518
565.48
605.323
646.837
689.863
734.275
779.974
826.873
874.881
923.898
973.806
1024.49
1075.99
1128.24
1181.11
1234.5
1288.29
1342.37
1396.59
1450.81
1504.91
1558.74
1612.12
1664.91
1716.93
1767.99
1817.87
1866.37
1913.21
1958.09
2000.66
2040.5
2077.08
2108.7
2136.54
2158.55
2173.31
2178.61
2067.1
1947.58
1822.44
1693.73
1563.2
1432.39
1302.67
1175.32
1051.62
932.828
819.926
714.267
617.89
532.943
461.345
404.37
362.138
333.27
315.114
304.54
298.77
295.79
294.317
293.609
293.276
293.123
293.054
293.024
293.01
293.004
293.002
293.001
293
293
293
293
293
293
293.004
293.017
293.038
293.074
293.135
293.235
293.4
293.668
294.1
294.786
295.86
297.512
300.003
303.675
308.951
316.319
326.289
339.335
355.819
375.938
399.695
426.923
457.332
490.573
526.294
564.177
603.955
645.42
688.411
732.804
778.501
825.414
873.456
922.529
972.514
1023.3
1074.92
1127.3
1180.33
1233.91
1287.91
1342.2
1396.66
1451.14
1505.51
1559.6
1613.26
1666.32
1718.59
1769.89
1819.99
1868.66
1915.63
1960.58
2003.12
2042.8
2078.88
2109.84
2136.66
2156.98
2169.03
2169.98
2055.43
1933.42
1806.39
1676.34
1544.93
1413.64
1283.8
1156.66
1033.48
915.471
803.597
699.287
604.617
521.689
452.317
397.611
357.469
330.31
313.387
303.602
298.289
295.555
294.206
293.558
293.253
293.113
293.05
293.022
293.009
293.004
293.002
293.001
293
293
293
293
293
293
293.004
293.017
293.038
293.074
293.134
293.233
293.396
293.662
294.091
294.771
295.836
297.474
299.943
303.584
308.817
316.127
326.025
338.984
355.369
375.382
399.033
426.159
456.474
489.632
525.283
563.108
602.842
644.276
687.248
731.636
777.342
824.28
872.364
921.494
971.557
1022.44
1074.17
1126.68
1179.86
1233.61
1287.79
1342.28
1396.95
1451.66
1506.25
1560.58
1614.48
1667.76
1720.26
1771.75
1822.03
1870.84
1917.9
1962.88
2005.37
2044.88
2080.53
2110.99
2137
2156.02
2165.97
2159.73
2042.96
1919.29
1791.03
1660.11
1528.17
1396.63
1266.8
1139.93
1017.27
900.007
789.084
686.028
592.926
511.832
444.464
391.773
353.465
327.789
311.922
302.808
297.882
295.357
294.112
293.514
293.234
293.104
293.046
293.02
293.009
293.004
293.002
293.001
293
293
293
293
293
293
293.004
293.016
293.038
293.073
293.133
293.231
293.393
293.657
294.082
294.758
295.814
297.439
299.89
303.504
308.699
315.96
325.797
338.682
354.985
374.911
398.475
425.519
455.76
488.855
524.453
562.238
601.943
643.359
686.324
730.718
776.442
823.41
871.538
920.728
970.865
1021.83
1073.67
1126.3
1179.62
1233.51
1287.86
1342.52
1397.38
1452.28
1507.07
1561.61
1615.7
1669.19
1721.87
1773.53
1823.96
1872.89
1920.04
1965.07
2007.57
2047.04
2082.55
2112.88
2138.83
2157.93
2168.36
2147.95
2030.06
1905.51
1776.59
1645.22
1513.02
1381.42
1251.73
1125.19
1003.05
886.474
776.416
674.483
582.773
503.296
437.688
386.763
350.049
325.648
310.682
302.137
297.538
295.189
294.032
293.477
293.217
293.097
293.043
293.019
293.008
293.003
293.001
293.001
293
293
293
293
293
293
293.004
293.016
293.037
293.073
293.132
293.23
293.391
293.653
294.075
294.746
295.795
297.409
299.844
303.434
308.598
315.817
325.601
338.425
354.66
374.515
398.008
424.987
455.171
488.217
523.777
561.534
601.221
642.629
685.596
730.002
775.748
822.75
870.924
920.172
970.38
1021.43
1073.36
1126.1
1179.54
1233.57
1288.05
1342.87
1397.89
1452.96
1507.92
1562.62
1616.89
1670.54
1723.37
1775.18
1825.73
1874.77
1922
1967.08
2009.61
2049.09
2084.55
2114.85
2140.77
2159.88
2170.36
2136.12
2017.65
1892.6
1763.31
1631.71
1499.41
1367.85
1238.35
1112.16
990.536
874.605
765.348
664.434
573.969
495.93
431.872
382.485
347.15
323.841
309.64
301.574
297.25
295.047
293.965
293.446
293.203
293.091
293.04
293.017
293.007
293.003
293.001
293.001
293
293
293
293
293
293
293.004
293.016
293.037
293.072
293.131
293.228
293.389
293.649
294.069
294.735
295.778
297.383
299.804
303.375
308.512
315.696
325.437
338.209
354.388
374.185
397.622
424.549
454.688
487.698
523.23
560.968
600.645
642.052
685.026
729.448
775.219
822.255
870.473
919.776
970.049
1021.18
1073.19
1126.03
1179.57
1233.71
1288.32
1343.27
1398.43
1453.63
1508.74
1563.59
1617.99
1671.77
1724.73
1776.65
1827.3
1876.42
1923.71
1968.83
2011.36
2050.81
2086.24
2116.51
2142.41
2161.51
2172.03
2125.44
2006.49
1881.09
1751.55
1619.8
1487.47
1356.02
1226.74
1100.89
979.736
864.365
755.796
655.774
566.403
489.619
426.912
378.857
344.703
322.323
308.767
301.103
297.009
294.93
293.909
293.42
293.191
293.085
293.038
293.016
293.007
293.003
293.001
293.001
293
293
293
293
293
293
293.004
293.016
293.037
293.072
293.13
293.227
293.387
293.646
294.063
294.726
295.764
297.361
299.77
303.325
308.439
315.594
325.299
338.03
354.163
373.913
397.305
424.191
454.295
487.278
522.791
560.517
600.19
641.599
684.584
729.023
774.819
821.888
870.147
919.5
969.832
1021.03
1073.12
1126.03
1179.67
1233.91
1288.62
1343.68
1398.95
1454.28
1509.5
1564.46
1618.98
1672.87
1725.92
1777.93
1828.65
1877.82
1925.14
1970.27
2012.8
2052.25
2087.63
2117.85
2143.71
2162.78
2173.32
2116.28
1996.83
1871.09
1741.35
1609.51
1477.2
1345.85
1216.77
1091.22
970.473
855.589
747.621
648.379
559.956
484.26
422.715
375.801
342.652
321.056
308.041
300.713
296.81
294.832
293.862
293.398
293.181
293.081
293.036
293.016
293.007
293.003
293.001
293.001
293
293
293
293
293
293
293.004
293.016
293.037
293.072
293.13
293.226
293.385
293.643
294.059
294.719
295.753
297.343
299.742
303.283
308.379
315.51
325.186
337.883
353.979
373.691
397.047
423.901
453.979
486.942
522.441
560.16
599.832
641.246
684.243
728.699
774.519
821.619
869.915
919.311
969.694
1020.95
1073.1
1126.09
1179.8
1234.12
1288.92
1344.08
1399.44
1454.86
1510.18
1565.23
1619.83
1673.8
1726.93
1778.99
1829.76
1878.96
1926.29
1971.43
2013.96
2053.38
2088.7
2118.87
2144.69
2163.75
2174.34
2108.56
1988.64
1862.59
1732.68
1600.77
1468.47
1337.21
1208.31
1083.03
962.63
848.164
740.714
642.139
554.527
479.758
419.202
373.253
340.949
320.007
307.442
300.391
296.645
294.752
293.824
293.38
293.173
293.077
293.034
293.015
293.006
293.003
293.001
293
293
293
293
293
293
293
293.004
293.016
293.037
293.071
293.129
293.226
293.384
293.641
294.055
294.713
295.743
297.328
299.719
303.249
308.33
315.442
325.094
337.764
353.831
373.513
396.841
423.67
453.728
486.676
522.166
559.881
599.554
640.975
683.982
728.455
774.296
821.422
869.75
919.184
969.61
1020.91
1073.12
1126.16
1179.94
1234.33
1289.2
1344.42
1399.86
1455.35
1510.75
1565.87
1620.54
1674.56
1727.74
1779.84
1830.63
1879.84
1927.19
1972.32
2014.82
2054.2
2089.47
2119.59
2145.39
2164.47
2175.09
2102.23
1981.85
1855.51
1725.42
1593.44
1461.15
1329.98
1201.24
1076.19
956.094
841.981
734.971
636.957
550.025
476.033
416.302
371.157
339.553
319.151
306.954
300.129
296.512
294.686
293.793
293.366
293.166
293.074
293.033
293.014
293.006
293.003
293.001
293
293
293
293
293
293
293
293.004
293.016
293.037
293.071
293.129
293.225
293.382
293.639
294.052
294.708
295.735
297.316
299.701
303.222
308.291
315.388
325.021
337.67
353.714
373.373
396.68
423.49
453.533
486.47
521.953
559.666
599.342
640.769
683.786
728.272
774.131
821.28
869.634
919.098
969.558
1020.9
1073.14
1126.24
1180.06
1234.5
1289.43
1344.71
1400.2
1455.75
1511.2
1566.37
1621.08
1675.14
1728.34
1780.47
1831.28
1880.5
1927.84
1972.94
2015.4
2054.74
2089.94
2120.03
2145.81
2164.93
2175.61
2097.12
1976.29
1849.68
1719.45
1587.42
1455.15
1324.06
1195.46
1070.61
950.763
836.945
730.298
632.746
546.373
473.016
413.959
369.467
338.431
318.464
306.563
299.92
296.405
294.634
293.768
293.354
293.161
293.072
293.032
293.014
293.006
293.003
293.001
293
293
293
293
293
293
293
293.004
293.016
293.037
293.071
293.129
293.224
293.382
293.637
294.05
294.704
295.729
297.306
299.687
303.201
308.261
315.347
324.966
337.598
353.625
373.267
396.557
423.353
453.385
486.314
521.794
559.506
599.183
640.616
683.642
728.139
774.012
821.178
869.551
919.039
969.524
1020.89
1073.17
1126.3
1180.16
1234.64
1289.6
1344.92
1400.45
1456.04
1511.52
1566.72
1621.47
1675.55
1728.78
1780.91
1831.72
1880.92
1928.23
1973.29
2015.71
2055
2090.16
2120.21
2145.99
2165.17
2175.97
2093.11
1971.88
1845.04
1714.68
1582.61
1450.37
1319.36
1190.88
1066.19
946.555
832.977
726.623
629.441
543.511
470.657
412.131
368.152
337.558
317.93
306.26
299.758
296.322
294.593
293.749
293.345
293.157
293.07
293.031
293.013
293.006
293.002
293.001
293
293
293
293
293
293
293
293.004
293.016
293.036
293.071
293.129
293.224
293.381
293.636
294.048
294.701
295.725
297.299
299.676
303.186
308.24
315.316
324.925
337.546
353.56
373.19
396.468
423.255
453.279
486.203
521.68
559.391
599.071
640.507
683.539
728.045
773.929
821.106
869.494
918.997
969.5
1020.89
1073.18
1126.33
1180.22
1234.72
1289.72
1345.06
1400.62
1456.23
1511.74
1566.96
1621.72
1675.81
1729.03
1781.16
1831.95
1881.13
1928.4
1973.42
2015.79
2055.03
2090.14
2120.17
2145.97
2165.24
2176.2
2090.14
1968.55
1841.49
1711.04
1578.95
1446.74
1315.8
1187.43
1062.88
943.41
830.019
723.891
626.989
541.394
468.918
410.787
367.187
336.919
317.539
306.036
299.638
296.261
294.563
293.734
293.339
293.154
293.069
293.03
293.013
293.006
293.002
293.001
293
293
293
293
293
293
293
293.004
293.016
293.036
293.071
293.128
293.224
293.381
293.636
294.047
294.7
295.722
297.295
299.67
303.176
308.225
315.297
324.899
337.513
353.519
373.14
396.411
423.191
453.211
486.132
521.607
559.318
598.999
640.438
683.474
727.985
773.875
821.06
869.457
918.969
969.482
1020.88
1073.19
1126.35
1180.25
1234.77
1289.78
1345.14
1400.71
1456.34
1511.85
1567.08
1621.84
1675.93
1729.14
1781.25
1832.02
1881.16
1928.4
1973.37
2015.69
2054.88
2089.95
2119.97
2145.8
2165.17
2176.34
2088.18
1966.26
1839.03
1708.51
1576.41
1444.24
1313.36
1185.08
1060.64
941.293
828.038
722.07
625.362
539.995
467.773
409.907
366.558
336.504
317.285
305.891
299.56
296.221
294.544
293.725
293.334
293.152
293.068
293.03
293.013
293.006
293.002
293.001
293
293
293
293
293
293
293
293.004
293.016
293.036
293.071
293.128
293.224
293.38
293.635
294.046
294.699
295.721
297.293
299.667
303.171
308.219
315.288
324.887
337.497
353.499
373.116
396.384
423.161
453.178
486.098
521.572
559.283
598.965
640.405
683.443
727.957
773.85
821.038
869.439
918.955
969.473
1020.87
1073.19
1126.36
1180.26
1234.78
1289.8
1345.17
1400.74
1456.37
1511.88
1567.11
1621.87
1675.95
1729.15
1781.25
1831.99
1881.11
1928.31
1973.25
2015.53
2054.68
2089.72
2119.71
2145.56
2165.02
2176.4
2087.22
1965.04
1837.7
1707.14
1575.05
1442.92
1312.1
1183.87
1059.5
940.228
827.052
721.172
624.568
539.318
467.223
409.487
366.261
336.31
317.167
305.824
299.524
296.203
294.535
293.721
293.332
293.151
293.067
293.03
293.013
293.006
293.002
293.001
293
293
293
293
293
293
293
293.004
293.016
293.036
293.071
293.128
293.224
293.38
293.635
294.046
294.699
295.721
297.293
299.667
303.171
308.219
315.288
324.887
337.497
353.499
373.116
396.384
423.162
453.178
486.098
521.572
559.283
598.965
640.406
683.443
727.957
773.85
821.039
869.439
918.956
969.473
1020.87
1073.19
1126.36
1180.26
1234.78
1289.8
1345.17
1400.74
1456.37
1511.88
1567.11
1621.87
1675.95
1729.15
1781.25
1831.99
1881.11
1928.31
1973.25
2015.53
2054.68
2089.72
2119.71
2145.56
2165.02
2176.4
2087.22
1965.04
1837.7
1707.14
1575.05
1442.92
1312.1
1183.87
1059.5
940.229
827.052
721.173
624.568
539.318
467.223
409.487
366.261
336.31
317.167
305.824
299.524
296.203
294.535
293.721
293.332
293.151
293.067
293.03
293.013
293.006
293.002
293.001
293
293
293
293
293
293
293
293.004
293.016
293.036
293.071
293.128
293.224
293.381
293.636
294.047
294.7
295.722
297.295
299.67
303.176
308.226
315.297
324.899
337.513
353.519
373.14
396.411
423.192
453.211
486.132
521.607
559.319
599
640.439
683.475
727.986
773.876
821.061
869.458
918.97
969.483
1020.88
1073.19
1126.35
1180.25
1234.77
1289.78
1345.14
1400.71
1456.34
1511.85
1567.08
1621.84
1675.93
1729.14
1781.25
1832.02
1881.17
1928.4
1973.37
2015.69
2054.88
2089.96
2119.97
2145.8
2165.17
2176.34
2088.19
1966.26
1839.04
1708.51
1576.41
1444.24
1313.37
1185.08
1060.64
941.296
828.041
722.072
625.364
539.997
467.774
409.908
366.559
336.504
317.285
305.891
299.56
296.221
294.544
293.725
293.334
293.152
293.068
293.03
293.013
293.006
293.002
293.001
293
293
293
293
293
293
293
293.004
293.016
293.036
293.071
293.129
293.224
293.381
293.636
294.048
294.701
295.725
297.3
299.676
303.186
308.24
315.317
324.926
337.546
353.56
373.19
396.469
423.255
453.279
486.204
521.68
559.392
599.072
640.508
683.54
728.046
773.929
821.107
869.495
918.998
969.501
1020.89
1073.19
1126.34
1180.22
1234.72
1289.72
1345.06
1400.62
1456.23
1511.74
1566.96
1621.72
1675.81
1729.04
1781.16
1831.95
1881.13
1928.4
1973.42
2015.79
2055.03
2090.14
2120.17
2145.97
2165.24
2176.2
2090.15
1968.55
1841.5
1711.05
1578.95
1446.74
1315.81
1187.43
1062.88
943.414
830.023
723.895
626.992
541.397
468.92
410.789
367.188
336.92
317.54
306.037
299.638
296.261
294.564
293.734
293.339
293.154
293.069
293.03
293.013
293.006
293.002
293.001
293
293
293
293
293
293
293
293.004
293.016
293.037
293.071
293.129
293.224
293.382
293.637
294.05
294.704
295.729
297.306
299.687
303.201
308.261
315.347
324.966
337.599
353.625
373.267
396.557
423.354
453.386
486.315
521.795
559.507
599.184
640.617
683.643
728.14
774.013
821.179
869.553
919.04
969.526
1020.89
1073.17
1126.3
1180.16
1234.64
1289.6
1344.92
1400.46
1456.04
1511.52
1566.73
1621.47
1675.55
1728.78
1780.91
1831.72
1880.92
1928.23
1973.3
2015.71
2055
2090.16
2120.21
2145.99
2165.17
2175.97
2093.11
1971.89
1845.04
1714.69
1582.62
1450.38
1319.36
1190.88
1066.2
946.561
832.983
726.628
629.445
543.515
470.661
412.134
368.153
337.559
317.931
306.26
299.758
296.322
294.593
293.749
293.345
293.157
293.07
293.031
293.013
293.006
293.002
293.001
293
293
293
293
293
293
293
293.004
293.016
293.037
293.071
293.129
293.225
293.382
293.639
294.052
294.708
295.735
297.316
299.701
303.222
308.291
315.388
325.022
337.671
353.715
373.374
396.68
423.491
453.534
486.471
521.954
559.667
599.343
640.77
683.788
728.274
774.133
821.281
869.635
919.1
969.56
1020.9
1073.15
1126.24
1180.06
1234.5
1289.43
1344.71
1400.2
1455.75
1511.2
1566.37
1621.08
1675.14
1728.35
1780.47
1831.28
1880.5
1927.84
1972.94
2015.4
2054.74
2089.94
2120.03
2145.81
2164.93
2175.61
2097.13
1976.3
1849.69
1719.46
1587.43
1455.16
1324.07
1195.47
1070.61
950.771
836.953
730.305
632.753
546.378
473.02
413.962
369.47
338.433
318.465
306.564
299.921
296.405
294.634
293.768
293.354
293.161
293.072
293.032
293.014
293.006
293.003
293.001
293
293
293
293
293
293
293
293.004
293.016
293.037
293.071
293.129
293.226
293.384
293.641
294.055
294.713
295.743
297.328
299.719
303.249
308.33
315.443
325.094
337.765
353.832
373.514
396.842
423.671
453.729
486.677
522.167
559.882
599.555
640.976
683.984
728.456
774.298
821.424
869.752
919.186
969.612
1020.91
1073.12
1126.16
1179.94
1234.33
1289.2
1344.43
1399.86
1455.36
1510.75
1565.87
1620.54
1674.57
1727.74
1779.84
1830.63
1879.85
1927.2
1972.32
2014.82
2054.21
2089.47
2119.59
2145.39
2164.47
2175.1
2102.25
1981.86
1855.52
1725.43
1593.45
1461.17
1330
1201.25
1076.2
956.104
841.991
734.98
636.965
550.032
476.038
416.306
371.16
339.555
319.152
306.955
300.13
296.512
294.686
293.793
293.366
293.166
293.074
293.033
293.014
293.006
293.003
293.001
293
293
293
293
293
293
293
293.004
293.016
293.037
293.072
293.13
293.226
293.385
293.643
294.059
294.719
295.753
297.343
299.742
303.283
308.379
315.511
325.186
337.884
353.98
373.692
397.048
423.902
453.98
486.943
522.442
560.161
599.834
641.248
684.245
728.701
774.521
821.621
869.917
919.314
969.697
1020.95
1073.1
1126.09
1179.8
1234.13
1288.93
1344.08
1399.44
1454.86
1510.18
1565.23
1619.84
1673.81
1726.93
1779
1829.77
1878.96
1926.3
1971.43
2013.96
2053.38
2088.71
2118.88
2144.69
2163.76
2174.34
2108.58
1988.66
1862.61
1732.69
1600.78
1468.48
1337.22
1208.32
1083.04
962.643
848.175
740.725
642.149
554.535
479.765
419.207
373.257
340.952
320.009
307.443
300.392
296.646
294.752
293.824
293.38
293.173
293.077
293.034
293.015
293.006
293.003
293.001
293
293
293
293
293
293
293
293.004
293.016
293.037
293.072
293.13
293.227
293.387
293.646
294.063
294.726
295.764
297.361
299.77
303.325
308.439
315.595
325.299
338.031
354.164
373.914
397.306
424.192
454.296
487.279
522.792
560.519
600.192
641.601
684.586
729.025
774.821
821.891
870.15
919.503
969.835
1021.03
1073.12
1126.04
1179.67
1233.91
1288.63
1343.69
1398.96
1454.28
1509.51
1564.47
1618.99
1672.87
1725.93
1777.94
1828.66
1877.83
1925.15
1970.28
2012.81
2052.26
2087.64
2117.86
2143.72
2162.79
2173.33
2116.3
1996.85
1871.11
1741.37
1609.53
1477.22
1345.87
1216.79
1091.24
970.488
855.603
747.634
648.39
559.966
484.268
422.721
375.806
342.655
321.057
308.042
300.713
296.81
294.832
293.862
293.398
293.181
293.081
293.036
293.016
293.007
293.003
293.001
293.001
293
293
293
293
293
293
293.004
293.016
293.037
293.072
293.131
293.228
293.389
293.649
294.069
294.735
295.779
297.383
299.804
303.375
308.512
315.696
325.437
338.21
354.389
374.186
397.623
424.55
454.689
487.699
523.232
560.97
600.648
642.054
685.029
729.45
775.222
822.259
870.476
919.78
970.053
1021.18
1073.2
1126.03
1179.58
1233.72
1288.33
1343.28
1398.43
1453.64
1508.75
1563.59
1618
1671.78
1724.74
1776.66
1827.31
1876.43
1923.72
1968.84
2011.37
2050.82
2086.25
2116.53
2142.43
2161.53
2172.05
2125.47
2006.52
1881.11
1751.58
1619.83
1487.5
1356.04
1226.76
1100.91
979.754
864.381
755.811
655.788
566.414
489.629
426.919
378.862
344.706
322.325
308.768
301.104
297.01
294.93
293.909
293.42
293.191
293.085
293.038
293.016
293.007
293.003
293.001
293.001
293
293
293
293
293
293
293.004
293.016
293.037
293.073
293.132
293.23
293.391
293.653
294.075
294.746
295.795
297.409
299.844
303.434
308.598
315.818
325.602
338.426
354.661
374.516
398.01
424.989
455.173
488.219
523.78
561.536
601.224
642.631
685.599
730.005
775.751
822.754
870.927
920.176
970.385
1021.44
1073.37
1126.11
1179.55
1233.57
1288.06
1342.88
1397.9
1452.96
1507.93
1562.63
1616.9
1670.55
1723.38
1775.19
1825.74
1874.78
1922.01
1967.1
2009.63
2049.11
2084.57
2114.87
2140.8
2159.91
2170.4
2136.16
2017.69
1892.64
1763.35
1631.74
1499.44
1367.88
1238.38
1112.18
990.556
874.623
765.365
664.449
573.982
495.941
431.88
382.492
347.154
323.843
309.641
301.575
297.251
295.048
293.965
293.446
293.203
293.091
293.04
293.017
293.007
293.003
293.001
293.001
293
293
293
293
293
293
293.004
293.016
293.038
293.073
293.133
293.231
293.393
293.657
294.082
294.758
295.814
297.439
299.89
303.504
308.7
315.961
325.797
338.683
354.986
374.912
398.476
425.521
455.762
488.857
524.456
562.241
601.946
643.362
686.328
730.721
776.445
823.414
871.542
920.733
970.87
1021.84
1073.67
1126.31
1179.63
1233.52
1287.86
1342.53
1397.39
1452.29
1507.08
1561.62
1615.71
1669.2
1721.88
1773.55
1823.98
1872.91
1920.06
1965.09
2007.6
2047.07
2082.58
2112.92
2138.86
2157.97
2168.4
2147.98
2030.1
1905.53
1776.61
1645.23
1513.03
1381.43
1251.74
1125.21
1003.07
886.488
776.432
674.498
582.787
503.308
437.697
386.77
350.054
325.651
310.684
302.138
297.539
295.189
294.032
293.477
293.217
293.097
293.043
293.019
293.008
293.003
293.001
293.001
293
293
293
293
293
293
293.004
293.017
293.038
293.074
293.134
293.233
293.396
293.662
294.091
294.771
295.836
297.474
299.943
303.584
308.817
316.128
326.026
338.985
355.37
375.384
399.035
426.161
456.476
489.635
525.286
563.111
602.845
644.279
687.252
731.64
777.347
824.285
872.368
921.499
971.562
1022.44
1074.17
1126.68
1179.87
1233.61
1287.8
1342.29
1396.96
1451.67
1506.26
1560.59
1614.49
1667.78
1720.27
1771.77
1822.05
1870.86
1917.93
1962.9
2005.4
2044.9
2080.56
2111.02
2137.03
2156.06
2166.02
2159.76
2042.99
1919.32
1791.07
1660.15
1528.21
1396.67
1266.85
1139.98
1017.31
900.045
789.112
686.05
592.943
511.846
444.475
391.782
353.471
327.792
311.924
302.809
297.883
295.357
294.112
293.514
293.234
293.104
293.046
293.02
293.009
293.004
293.002
293.001
293
293
293
293
293
293
293.004
293.017
293.038
293.074
293.135
293.235
293.4
293.668
294.1
294.786
295.86
297.513
300.003
303.675
308.951
316.319
326.29
339.336
355.821
375.939
399.697
426.925
457.335
490.576
526.297
564.18
603.959
645.424
688.415
732.808
778.505
825.419
873.461
922.534
972.52
1023.3
1074.92
1127.3
1180.34
1233.92
1287.92
1342.21
1396.67
1451.15
1505.52
1559.61
1613.28
1666.33
1718.61
1769.91
1820.01
1868.68
1915.65
1960.6
2003.15
2042.83
2078.91
2109.87
2136.69
2157.01
2169.07
2170.01
2055.46
1933.45
1806.42
1676.36
1544.95
1413.66
1283.82
1156.68
1033.49
915.486
803.611
699.301
604.63
521.701
452.328
397.62
357.475
330.314
313.389
303.603
298.29
295.556
294.206
293.558
293.253
293.113
293.05
293.022
293.009
293.004
293.002
293.001
293
293
293
293
293
293
293.004
293.017
293.039
293.075
293.136
293.237
293.403
293.674
294.11
294.802
295.887
297.555
300.07
303.777
309.102
316.537
326.593
339.741
356.343
376.589
400.477
427.832
458.36
491.708
527.522
565.483
605.326
646.841
689.867
734.279
779.979
826.878
874.886
923.904
973.812
1024.5
1076
1128.24
1181.12
1234.51
1288.3
1342.37
1396.6
1450.82
1504.93
1558.75
1612.14
1664.93
1716.95
1768
1817.89
1866.39
1913.23
1958.12
2000.69
2040.53
2077.11
2108.73
2136.57
2158.58
2173.34
2178.63
2067.12
1947.61
1822.47
1693.75
1563.22
1432.41
1302.69
1175.35
1051.65
932.859
819.961
714.302
617.917
532.963
461.359
404.381
362.146
333.274
315.117
304.542
298.77
295.79
294.317
293.609
293.276
293.123
293.054
293.024
293.01
293.004
293.002
293.001
293
293
293
293
293
293
293.004
293.017
293.039
293.076
293.137
293.239
293.406
293.679
294.119
294.819
295.914
297.599
300.14
303.886
309.266
316.776
326.93
340.199
356.94
377.339
401.385
428.898
459.575
493.06
528.996
567.064
606.996
648.584
691.665
736.116
781.834
828.73
876.713
925.681
975.514
1026.1
1077.48
1129.58
1182.27
1235.47
1289.03
1342.86
1396.81
1450.76
1504.56
1558.08
1611.15
1663.64
1715.35
1766.12
1815.75
1864.03
1910.7
1955.48
1998.04
2037.95
2074.71
2106.93
2134.52
2157.26
2172.77
2178.73
2075.53
1961.04
1839.06
1712.37
1583.1
1453.01
1323.55
1196.08
1071.9
952.282
838.298
731.186
632.938
545.761
471.681
412.156
367.547
336.712
317.126
305.631
299.326
296.06
294.444
293.667
293.303
293.135
293.059
293.026
293.011
293.005
293.002
293.001
293
293
293
293
293
293
293.004
293.017
293.039
293.076
293.138
293.241
293.41
293.685
294.129
294.835
295.942
297.645
300.215
304.003
309.446
317.041
327.307
340.716
357.621
378.202
402.439
430.144
461.006
494.663
530.756
568.963
609.016
650.705
693.867
738.376
784.131
831.04
879.009
927.935
977.694
1028.18
1079.44
1131.37
1183.88
1236.86
1290.18
1343.73
1397.39
1451.02
1504.5
1557.68
1610.4
1662.54
1713.91
1764.35
1813.67
1861.66
1908.08
1952.67
1995.09
2034.95
2071.7
2104.03
2131.7
2154.68
2170.55
2177.12
2093.7
1980.13
1859.3
1733.68
1605.25
1475.69
1346.45
1218.85
1094.17
973.714
858.599
749.967
649.734
560.155
483.368
421.029
373.765
340.701
319.472
306.908
299.977
296.375
294.592
293.734
293.332
293.148
293.065
293.028
293.012
293.005
293.002
293.001
293
293
293
293
293
293
293.004
293.017
293.039
293.076
293.139
293.242
293.412
293.689
294.136
294.848
295.965
297.684
300.28
304.111
309.617
317.304
327.695
341.264
358.362
379.161
403.633
431.576
462.672
496.549
532.843
571.228
611.438
653.259
696.528
741.119
786.928
833.861
881.824
930.709
980.394
1030.78
1081.9
1133.67
1185.98
1238.72
1291.78
1345.04
1398.38
1451.67
1504.79
1557.61
1609.96
1661.71
1712.71
1762.78
1811.75
1859.41
1905.53
1949.85
1992.05
2031.73
2068.41
2100.86
2128.6
2151.71
2167.96
2175.35
2114.07
2001.19
1881.22
1756.44
1628.74
1499.7
1370.72
1243.07
1118
996.771
880.567
770.441
668.178
576.072
496.377
430.957
380.74
345.17
322.082
308.311
300.681
296.71
294.746
293.804
293.363
293.161
293.071
293.03
293.013
293.005
293.002
293.001
293
293
293
293
293
293
293.004
293.017
293.039
293.077
293.139
293.242
293.413
293.691
294.141
294.858
295.985
297.722
300.348
304.226
309.806
317.6
328.136
341.893
359.219
380.277
405.027
433.253
464.624
498.762
535.294
573.892
614.286
656.262
699.656
744.34
790.209
837.168
885.12
933.957
983.554
1033.82
1084.79
1136.38
1188.47
1240.96
1293.74
1346.7
1399.72
1452.67
1505.42
1557.86
1609.84
1661.21
1711.82
1761.52
1810.13
1857.45
1903.25
1947.28
1989.21
2028.67
2065.18
2097.6
2125.39
2148.6
2164.99
2172.74
2133.49
2021.47
1902.45
1778.61
1651.74
1523.38
1394.85
1267.38
1142.16
1020.39
903.303
791.873
687.741
593.189
510.572
441.961
388.598
350.281
325.101
309.943
301.499
297.098
294.923
293.882
293.397
293.176
293.077
293.033
293.014
293.006
293.002
293.001
293
293
293
293
293
293
293.004
293.017
293.039
293.076
293.138
293.241
293.411
293.689
294.138
294.855
295.982
297.725
300.365
304.275
309.911
317.799
328.478
342.433
360.013
381.374
406.461
435.037
466.753
501.213
538.033
576.88
617.479
659.617
703.13
747.893
793.8
840.758
888.669