/*--------------------------------*- C++ -*----------------------------------*\
  =========                 |
  \\      /  F ield         | OpenFOAM: The Open Source CFD Toolbox
   \\    /   O peration     | Website:  https://openfoam.org
    \\  /    A nd           | Version:  8
     \\/     M anipulation  |
\*---------------------------------------------------------------------------*/
FoamFile
{
    version     2.0;
    format      ascii;
    class       volVectorField;
    location    "980/fluid";
    object      U;
}
// * * * * * * * * * * * * * * * * * * * * * * * * * * * * * * * * * * * * * //

dimensions      [0 1 -1 0 0 0 0];

internalField   nonuniform List<vector> 
4000
(
(0.0999452 -0.00706235 0)
(0.0996474 -0.0210159 0)
(0.0991667 -0.034854 0)
(0.0985027 -0.0486155 0)
(0.0976473 -0.0623193 0)
(0.0965826 -0.0759671 0)
(0.0952878 -0.0895479 0)
(0.0937435 -0.103041 0)
(0.0919339 -0.11642 0)
(0.0898504 -0.129655 0)
(0.0874947 -0.142719 0)
(0.0848824 -0.155592 0)
(0.0820474 -0.168264 0)
(0.0790492 -0.18072 0)
(0.0759661 -0.193008 0)
(0.072871 -0.205197 0)
(0.0698143 -0.217348 0)
(0.0668133 -0.229504 0)
(0.063844 -0.241675 0)
(0.0608421 -0.253835 0)
(0.0577152 -0.265921 0)
(0.0543623 -0.277842 0)
(0.0506939 -0.289491 0)
(0.0466538 -0.300735 0)
(0.0422172 -0.311483 0)
(0.037377 -0.321671 0)
(0.0321395 -0.331234 0)
(0.0265225 -0.340114 0)
(0.0205526 -0.348265 0)
(0.0142612 -0.355653 0)
(0.00768276 -0.362252 0)
(0.000853122 -0.368051 0)
(-0.00619023 -0.373047 0)
(-0.0134109 -0.377244 0)
(-0.0207758 -0.380656 0)
(-0.0282549 -0.383303 0)
(-0.0358206 -0.385209 0)
(-0.0434468 -0.386407 0)
(-0.0511086 -0.386931 0)
(-0.0587827 -0.38682 0)
(-0.0664469 -0.386117 0)
(-0.0740805 -0.384866 0)
(-0.0816635 -0.383113 0)
(-0.0891769 -0.380906 0)
(-0.0966022 -0.378295 0)
(-0.103921 -0.375328 0)
(-0.111117 -0.372056 0)
(-0.118171 -0.368532 0)
(-0.125065 -0.364806 0)
(-0.131782 -0.360933 0)
(-0.138303 -0.356965 0)
(-0.144608 -0.352959 0)
(-0.150676 -0.348974 0)
(-0.156485 -0.345071 0)
(-0.162011 -0.341317 0)
(-0.167226 -0.337786 0)
(-0.172088 -0.334559 0)
(-0.176547 -0.331724 0)
(-0.180576 -0.329378 0)
(-0.184213 -0.327678 0)
(-0.187525 -0.326898 0)
(-0.189904 -0.327394 0)
(-0.18925 -0.329019 0)
(-0.184369 -0.330036 0)
(-0.177317 -0.329335 0)
(-0.169831 -0.32704 0)
(-0.162114 -0.323441 0)
(-0.154103 -0.318681 0)
(-0.145818 -0.312819 0)
(-0.137331 -0.305893 0)
(-0.128719 -0.297932 0)
(-0.120069 -0.288968 0)
(-0.111468 -0.279044 0)
(-0.103009 -0.268206 0)
(-0.0948391 -0.256511 0)
(-0.0872001 -0.244071 0)
(-0.0804193 -0.231085 0)
(-0.0748653 -0.21783 0)
(-0.0709145 -0.204872 0)
(-0.0688643 -0.192719 0)
(-0.0687512 -0.181621 0)
(-0.070279 -0.171491 0)
(-0.0729342 -0.162023 0)
(-0.0761789 -0.152883 0)
(-0.0795841 -0.14383 0)
(-0.0828672 -0.134717 0)
(-0.0858553 -0.125447 0)
(-0.0884802 -0.116064 0)
(-0.0907397 -0.106616 0)
(-0.0926582 -0.0971365 0)
(-0.0942693 -0.0876557 0)
(-0.0956084 -0.0782009 0)
(-0.0967094 -0.0687931 0)
(-0.097604 -0.0594464 0)
(-0.0983207 -0.0501676 0)
(-0.0988848 -0.040957 0)
(-0.0993182 -0.031808 0)
(-0.099638 -0.0227055 0)
(-0.0998559 -0.0136269 0)
(-0.0999821 -0.00454994 0)
(0.0999999 -0.00662238 0)
(0.0997931 -0.0198101 0)
(0.0993655 -0.0329112 0)
(0.098693 -0.045908 0)
(0.097777 -0.0587824 0)
(0.0966132 -0.0715113 0)
(0.0951921 -0.084066 0)
(0.0935056 -0.0964147 0)
(0.0915517 -0.108525 0)
(0.0893374 -0.120366 0)
(0.0868824 -0.131919 0)
(0.084221 -0.143182 0)
(0.0814037 -0.154186 0)
(0.0784977 -0.165014 0)
(0.0755759 -0.175727 0)
(0.0727049 -0.186383 0)
(0.069931 -0.197058 0)
(0.0672661 -0.20782 0)
(0.0646796 -0.218709 0)
(0.0620981 -0.229722 0)
(0.0594179 -0.240815 0)
(0.0565234 -0.251908 0)
(0.0533085 -0.262905 0)
(0.0496913 -0.273728 0)
(0.045624 -0.284255 0)
(0.0410884 -0.294356 0)
(0.0360876 -0.303928 0)
(0.0306416 -0.312891 0)
(0.0247823 -0.321187 0)
(0.0185479 -0.328777 0)
(0.0119798 -0.335633 0)
(0.00511946 -0.341738 0)
(-0.00199201 -0.34709 0)
(-0.00931503 -0.351691 0)
(-0.0168122 -0.355554 0)
(-0.0244487 -0.358697 0)
(-0.0321929 -0.361144 0)
(-0.0400162 -0.362922 0)
(-0.0478917 -0.364065 0)
(-0.0557941 -0.364606 0)
(-0.0637001 -0.364585 0)
(-0.0715878 -0.364041 0)
(-0.0794366 -0.363018 0)
(-0.087227 -0.361558 0)
(-0.0949403 -0.359709 0)
(-0.102559 -0.357516 0)
(-0.110065 -0.355026 0)
(-0.117442 -0.352287 0)
(-0.124672 -0.349349 0)
(-0.13174 -0.346261 0)
(-0.138629 -0.343072 0)
(-0.145322 -0.339834 0)
(-0.151801 -0.3366 0)
(-0.15805 -0.333422 0)
(-0.16405 -0.330356 0)
(-0.169782 -0.327457 0)
(-0.17521 -0.324781 0)
(-0.180295 -0.322383 0)
(-0.185036 -0.320312 0)
(-0.189533 -0.318622 0)
(-0.193897 -0.317363 0)
(-0.197179 -0.316525 0)
(-0.196745 -0.315615 0)
(-0.191431 -0.314037 0)
(-0.183872 -0.311576 0)
(-0.17601 -0.308127 0)
(-0.168009 -0.30364 0)
(-0.159738 -0.29809 0)
(-0.151185 -0.291463 0)
(-0.142397 -0.28375 0)
(-0.133436 -0.27495 0)
(-0.124368 -0.26508 0)
(-0.115254 -0.254178 0)
(-0.106167 -0.242324 0)
(-0.0972551 -0.229673 0)
(-0.0887957 -0.216505 0)
(-0.081181 -0.203272 0)
(-0.0748724 -0.190607 0)
(-0.070327 -0.178927 0)
(-0.0678384 -0.168505 0)
(-0.0673827 -0.159359 0)
(-0.0686053 -0.151218 0)
(-0.0709767 -0.143677 0)
(-0.0739797 -0.13637 0)
(-0.0772154 -0.129062 0)
(-0.0804236 -0.121646 0)
(-0.0834611 -0.114112 0)
(-0.086242 -0.106376 0)
(-0.0887306 -0.0984115 0)
(-0.0909209 -0.0902486 0)
(-0.0928208 -0.0819271 0)
(-0.0944465 -0.0734852 0)
(-0.0958181 -0.0649564 0)
(-0.0969577 -0.0563679 0)
(-0.0978875 -0.0477409 0)
(-0.0986284 -0.0390907 0)
(-0.0991979 -0.0304267 0)
(-0.0996079 -0.0217509 0)
(-0.0998665 -0.0130605 0)
(-0.0999951 -0.00435633 0)
(0.0999786 -0.00634241 0)
(0.0997134 -0.0189601 0)
(0.0991937 -0.0314887 0)
(0.0984008 -0.0439079 0)
(0.0973384 -0.0561958 0)
(0.0960076 -0.0683286 0)
(0.0944078 -0.0802809 0)
(0.0925418 -0.0920274 0)
(0.0904201 -0.103545 0)
(0.0880628 -0.114815 0)
(0.0855021 -0.125826 0)
(0.0827841 -0.136579 0)
(0.0799674 -0.147089 0)
(0.0771167 -0.157389 0)
(0.0742974 -0.167534 0)
(0.0715716 -0.177598 0)
(0.0689844 -0.18766 0)
(0.0665484 -0.197792 0)
(0.0642333 -0.208039 0)
(0.0619663 -0.218407 0)
(0.0596423 -0.228862 0)
(0.0571431 -0.239333 0)
(0.0543555 -0.249726 0)
(0.0511836 -0.259939 0)
(0.0475572 -0.269872 0)
(0.0434388 -0.279432 0)
(0.0388207 -0.288538 0)
(0.0337166 -0.29712 0)
(0.0281548 -0.305122 0)
(0.0221719 -0.312499 0)
(0.0158086 -0.31922 0)
(0.00910692 -0.325265 0)
(0.00210866 -0.330623 0)
(-0.00514543 -0.335292 0)
(-0.0126167 -0.33928 0)
(-0.020269 -0.342598 0)
(-0.0280693 -0.345268 0)
(-0.0359873 -0.34731 0)
(-0.043995 -0.348754 0)
(-0.0520664 -0.349631 0)
(-0.0601771 -0.349974 0)
(-0.0683043 -0.349819 0)
(-0.076427 -0.349206 0)
(-0.0845254 -0.348175 0)
(-0.0925807 -0.346767 0)
(-0.100576 -0.345024 0)
(-0.108493 -0.342991 0)
(-0.116318 -0.34071 0)
(-0.124034 -0.338226 0)
(-0.131629 -0.335584 0)
(-0.139088 -0.332827 0)
(-0.146398 -0.330002 0)
(-0.153548 -0.327151 0)
(-0.160526 -0.324318 0)
(-0.167321 -0.321545 0)
(-0.173919 -0.318871 0)
(-0.180289 -0.316331 0)
(-0.186394 -0.313952 0)
(-0.192249 -0.31175 0)
(-0.197965 -0.309744 0)
(-0.203534 -0.307936 0)
(-0.207446 -0.306266 0)
(-0.206742 -0.304103 0)
(-0.200822 -0.301169 0)
(-0.192763 -0.297545 0)
(-0.184348 -0.293152 0)
(-0.175724 -0.287888 0)
(-0.166791 -0.281693 0)
(-0.157545 -0.274535 0)
(-0.148029 -0.266411 0)
(-0.138297 -0.257339 0)
(-0.12841 -0.247368 0)
(-0.118426 -0.236586 0)
(-0.108431 -0.225125 0)
(-0.0986174 -0.213188 0)
(-0.0893251 -0.201063 0)
(-0.0810165 -0.189114 0)
(-0.0742193 -0.177748 0)
(-0.0693983 -0.167333 0)
(-0.0667773 -0.15808 0)
(-0.0662361 -0.149939 0)
(-0.0673589 -0.142626 0)
(-0.0696055 -0.13577 0)
(-0.0724758 -0.129053 0)
(-0.0755931 -0.122269 0)
(-0.0787153 -0.115313 0)
(-0.0817108 -0.108153 0)
(-0.0845129 -0.100799 0)
(-0.0870838 -0.0932691 0)
(-0.0894049 -0.0855842 0)
(-0.0914713 -0.0777645 0)
(-0.0932863 -0.069831 0)
(-0.094858 -0.0618034 0)
(-0.0961974 -0.0536997 0)
(-0.0973169 -0.0455357 0)
(-0.0982291 -0.0373246 0)
(-0.098945 -0.0290769 0)
(-0.0994713 -0.0207986 0)
(-0.099812 -0.0124929 0)
(-0.0999872 -0.00416785 0)
(0.0999835 -0.00598709 0)
(0.099714 -0.017898 0)
(0.0991771 -0.0297151 0)
(0.0983534 -0.0414116 0)
(0.0972515 -0.0529609 0)
(0.0958781 -0.0643357 0)
(0.0942387 -0.0755088 0)
(0.0923418 -0.0864546 0)
(0.0902023 -0.0971507 0)
(0.0878429 -0.10758 0)
(0.0852967 -0.117735 0)
(0.0826081 -0.127622 0)
(0.0798335 -0.137262 0)
(0.077039 -0.146699 0)
(0.0742953 -0.155995 0)
(0.0716672 -0.165227 0)
(0.0692001 -0.174479 0)
(0.0669058 -0.183823 0)
(0.0647527 -0.19331 0)
(0.0626662 -0.202951 0)
(0.060539 -0.212719 0)
(0.0582492 -0.222551 0)
(0.0556799 -0.232362 0)
(0.0527342 -0.242056 0)
(0.0493428 -0.251533 0)
(0.0454658 -0.260702 0)
(0.0410894 -0.26948 0)
(0.03622 -0.277797 0)
(0.0308788 -0.285597 0)
(0.0250964 -0.292836 0)
(0.0189083 -0.299482 0)
(0.0123528 -0.305512 0)
(0.00546829 -0.310915 0)
(-0.00170693 -0.315686 0)
(-0.00913579 -0.319828 0)
(-0.0167833 -0.323353 0)
(-0.0246172 -0.326274 0)
(-0.0326078 -0.328612 0)
(-0.0407276 -0.33039 0)
(-0.0489509 -0.331634 0)
(-0.0572536 -0.332375 0)
(-0.0656136 -0.332644 0)
(-0.07401 -0.332475 0)
(-0.0824235 -0.331904 0)
(-0.0908361 -0.330967 0)
(-0.0992306 -0.329702 0)
(-0.107591 -0.328147 0)
(-0.115902 -0.326339 0)
(-0.124151 -0.324317 0)
(-0.132324 -0.322119 0)
(-0.140409 -0.319782 0)
(-0.148395 -0.317341 0)
(-0.156271 -0.314831 0)
(-0.164025 -0.312283 0)
(-0.171646 -0.309725 0)
(-0.179116 -0.30718 0)
(-0.186397 -0.304666 0)
(-0.193439 -0.302188 0)
(-0.200265 -0.299746 0)
(-0.206993 -0.29734 0)
(-0.213454 -0.294965 0)
(-0.217498 -0.292562 0)
(-0.216084 -0.289411 0)
(-0.209459 -0.285452 0)
(-0.200957 -0.280878 0)
(-0.192015 -0.275647 0)
(-0.182729 -0.269665 0)
(-0.173046 -0.262873 0)
(-0.162997 -0.255246 0)
(-0.152647 -0.246786 0)
(-0.14207 -0.237522 0)
(-0.131342 -0.227517 0)
(-0.120546 -0.216868 0)
(-0.10981 -0.205721 0)
(-0.0993844 -0.194283 0)
(-0.0896618 -0.182837 0)
(-0.0811271 -0.171733 0)
(-0.0742793 -0.161344 0)
(-0.069511 -0.151982 0)
(-0.0669628 -0.143784 0)
(-0.0664499 -0.136644 0)
(-0.0675334 -0.130262 0)
(-0.0696865 -0.124284 0)
(-0.0724392 -0.118418 0)
(-0.0754418 -0.112475 0)
(-0.0784668 -0.106358 0)
(-0.0813827 -0.100028 0)
(-0.0841213 -0.0934757 0)
(-0.0866498 -0.0867117 0)
(-0.0889542 -0.0797546 0)
(-0.0910298 -0.0726265 0)
(-0.0928772 -0.0653495 0)
(-0.0944996 -0.0579448 0)
(-0.0959019 -0.0504318 0)
(-0.09709 -0.0428282 0)
(-0.0980702 -0.0351501 0)
(-0.0988474 -0.0274113 0)
(-0.0994228 -0.0196224 0)
(-0.0997961 -0.0117922 0)
(-0.0999874 -0.00393486 0)
(0.0999805 -0.00563114 0)
(0.0996959 -0.0168325 0)
(0.0991339 -0.027943 0)
(0.0982763 -0.0389355 0)
(0.097134 -0.0497836 0)
(0.0957166 -0.0604608 0)
(0.0940326 -0.0709416 0)
(0.092094 -0.0812029 0)
(0.0899188 -0.091225 0)
(0.0875334 -0.100994 0)
(0.084974 -0.110504 0)
(0.0822879 -0.119761 0)
(0.079534 -0.128787 0)
(0.0767801 -0.137618 0)
(0.0740974 -0.146312 0)
(0.0715506 -0.154939 0)
(0.0691844 -0.163576 0)
(0.0670102 -0.172292 0)
(0.0649968 -0.181136 0)
(0.0630693 -0.190123 0)
(0.0611198 -0.199234 0)
(0.0590242 -0.208416 0)
(0.0566623 -0.217595 0)
(0.0539325 -0.226684 0)
(0.0507606 -0.235595 0)
(0.0471016 -0.244244 0)
(0.0429369 -0.252555 0)
(0.0382684 -0.260464 0)
(0.0331134 -0.267916 0)
(0.0274986 -0.27487 0)
(0.0214564 -0.281292 0)
(0.015022 -0.28716 0)
(0.00823137 -0.292461 0)
(0.00112021 -0.297188 0)
(-0.00627627 -0.301341 0)
(-0.0139248 -0.304928 0)
(-0.0217946 -0.30796 0)
(-0.0298573 -0.310453 0)
(-0.0380867 -0.312427 0)
(-0.0464582 -0.313905 0)
(-0.0549488 -0.31491 0)
(-0.0635369 -0.315472 0)
(-0.0722026 -0.315619 0)
(-0.0809272 -0.315381 0)
(-0.0896932 -0.31479 0)
(-0.0984837 -0.313878 0)
(-0.107283 -0.312677 0)
(-0.116077 -0.311219 0)
(-0.124852 -0.309537 0)
(-0.133594 -0.307661 0)
(-0.14229 -0.305621 0)
(-0.150927 -0.303445 0)
(-0.159492 -0.301158 0)
(-0.16797 -0.298782 0)
(-0.176343 -0.296335 0)
(-0.184585 -0.293829 0)
(-0.192642 -0.291271 0)
(-0.200454 -0.288656 0)
(-0.208052 -0.285975 0)
(-0.215556 -0.283225 0)
(-0.222614 -0.280395 0)
(-0.226431 -0.277443 0)
(-0.224091 -0.273618 0)
(-0.216782 -0.269033 0)
(-0.207899 -0.263891 0)
(-0.198485 -0.258162 0)
(-0.188582 -0.251772 0)
(-0.178194 -0.244683 0)
(-0.167398 -0.236887 0)
(-0.156286 -0.228401 0)
(-0.144954 -0.219269 0)
(-0.133499 -0.209565 0)
(-0.122027 -0.199396 0)
(-0.1107 -0.188909 0)
(-0.0998114 -0.178307 0)
(-0.0897813 -0.167851 0)
(-0.0810982 -0.157844 0)
(-0.0742366 -0.148589 0)
(-0.0695347 -0.140312 0)
(-0.0670645 -0.133069 0)
(-0.0665859 -0.126713 0)
(-0.0676396 -0.120958 0)
(-0.0697108 -0.1155 0)
(-0.0723561 -0.110101 0)
(-0.075252 -0.10461 0)
(-0.0781891 -0.0989502 0)
(-0.0810442 -0.0930923 0)
(-0.0837497 -0.0870315 0)
(-0.0862692 -0.0807764 0)
(-0.0885843 -0.0743413 0)
(-0.090686 -0.0677428 0)
(-0.0925709 -0.0609984 0)
(-0.0942386 -0.0541253 0)
(-0.0956904 -0.0471399 0)
(-0.0969287 -0.0400579 0)
(-0.0979566 -0.0328946 0)
(-0.098776 -0.0256638 0)
(-0.0993853 -0.0183774 0)
(-0.0997821 -0.011046 0)
(-0.0999862 -0.00368599 0)
(0.0999811 -0.00526039 0)
(0.0996942 -0.0157247 0)
(0.0991264 -0.0261022 0)
(0.0982598 -0.0363651 0)
(0.0971072 -0.0464868 0)
(0.09568 -0.0564412 0)
(0.0939886 -0.0662038 0)
(0.0920469 -0.0757523 0)
(0.0898747 -0.0850686 0)
(0.0874996 -0.09414 0)
(0.0849583 -0.102962 0)
(0.0822985 -0.111542 0)
(0.0795788 -0.1199 0)
(0.0768664 -0.128076 0)
(0.0742322 -0.136122 0)
(0.0717407 -0.14411 0)
(0.0694373 -0.152112 0)
(0.0673344 -0.160197 0)
(0.0654026 -0.168412 0)
(0.0635689 -0.176776 0)
(0.0617267 -0.18527 0)
(0.0597522 -0.193849 0)
(0.057524 -0.202444 0)
(0.0549381 -0.210975 0)
(0.0519173 -0.219361 0)
(0.0484125 -0.227523 0)
(0.0444008 -0.23539 0)
(0.0398801 -0.242902 0)
(0.0348634 -0.250008 0)
(0.0293738 -0.256666 0)
(0.0234403 -0.262846 0)
(0.0170951 -0.268525 0)
(0.0103713 -0.273688 0)
(0.00330195 -0.278328 0)
(-0.0040795 -0.282445 0)
(-0.0117417 -0.286042 0)
(-0.0196559 -0.289128 0)
(-0.0277952 -0.291717 0)
(-0.0361347 -0.293824 0)
(-0.0446509 -0.295468 0)
(-0.0533221 -0.296671 0)
(-0.0621277 -0.297456 0)
(-0.0710485 -0.297847 0)
(-0.080066 -0.297871 0)
(-0.0891626 -0.297554 0)
(-0.0983222 -0.296922 0)
(-0.107529 -0.296002 0)
(-0.116767 -0.294823 0)
(-0.126023 -0.293408 0)
(-0.13528 -0.291785 0)
(-0.144523 -0.289975 0)
(-0.153736 -0.288 0)
(-0.1629 -0.28588 0)
(-0.171994 -0.283629 0)
(-0.180993 -0.281259 0)
(-0.189858 -0.278777 0)
(-0.19852 -0.27618 0)
(-0.206908 -0.273461 0)
(-0.215061 -0.270607 0)
(-0.223095 -0.267609 0)
(-0.230484 -0.26444 0)
(-0.233873 -0.261087 0)
(-0.230605 -0.256894 0)
(-0.222713 -0.252015 0)
(-0.213467 -0.246574 0)
(-0.203592 -0.240567 0)
(-0.193114 -0.233965 0)
(-0.182092 -0.226758 0)
(-0.170642 -0.218957 0)
(-0.158879 -0.21059 0)
(-0.14692 -0.201709 0)
(-0.13488 -0.19239 0)
(-0.122886 -0.182737 0)
(-0.111131 -0.172889 0)
(-0.0999456 -0.163034 0)
(-0.0897676 -0.153406 0)
(-0.0810829 -0.144273 0)
(-0.0743367 -0.135894 0)
(-0.0698116 -0.128448 0)
(-0.0675121 -0.121959 0)
(-0.0671464 -0.11627 0)
(-0.0682361 -0.11111 0)
(-0.0702758 -0.106201 0)
(-0.0728448 -0.10133 0)
(-0.0756427 -0.0963633 0)
(-0.0784777 -0.091232 0)
(-0.0812381 -0.0859083 0)
(-0.0838623 -0.0803869 0)
(-0.0863171 -0.0746747 0)
(-0.0885844 -0.068784 0)
(-0.0906543 -0.0627297 0)
(-0.0925214 -0.0565277 0)
(-0.0941827 -0.0501938 0)
(-0.0956368 -0.0437438 0)
(-0.0968833 -0.0371929 0)
(-0.0979226 -0.0305563 0)
(-0.0987541 -0.0238484 0)
(-0.0993741 -0.0170818 0)
(-0.0997783 -0.0102687 0)
(-0.0999862 -0.00342664 0)
(0.0999807 -0.00488893 0)
(0.0996915 -0.0146145 0)
(0.0991199 -0.0242589 0)
(0.0982487 -0.0337955 0)
(0.0970911 -0.0431991 0)
(0.0956595 -0.052445 0)
(0.0939656 -0.0615102 0)
(0.092024 -0.0703744 0)
(0.0898557 -0.079021 0)
(0.0874892 -0.0874388 0)
(0.0849622 -0.0956241 0)
(0.0823227 -0.103584 0)
(0.0796296 -0.111338 0)
(0.0769505 -0.118921 0)
(0.0743561 -0.126385 0)
(0.0719112 -0.133792 0)
(0.0696612 -0.141211 0)
(0.0676196 -0.148707 0)
(0.0657575 -0.156324 0)
(0.0640029 -0.164082 0)
(0.0622496 -0.171967 0)
(0.0603738 -0.17994 0)
(0.0582526 -0.187939 0)
(0.0557803 -0.195892 0)
(0.0528767 -0.203726 0)
(0.0494898 -0.211367 0)
(0.0455936 -0.218752 0)
(0.0411827 -0.225822 0)
(0.0362671 -0.232532 0)
(0.030867 -0.238841 0)
(0.0250089 -0.244721 0)
(0.0187224 -0.250149 0)
(0.0120384 -0.25511 0)
(0.00498791 -0.259596 0)
(-0.00239779 -0.263604 0)
(-0.010089 -0.267137 0)
(-0.0180584 -0.270202 0)
(-0.0262804 -0.272809 0)
(-0.0347316 -0.27497 0)
(-0.0433895 -0.276702 0)
(-0.0522332 -0.278022 0)
(-0.0612429 -0.27895 0)
(-0.0703996 -0.279506 0)
(-0.0796852 -0.279711 0)
(-0.0890823 -0.279588 0)
(-0.0985743 -0.27916 0)
(-0.108145 -0.278448 0)
(-0.117777 -0.277474 0)
(-0.127453 -0.27626 0)
(-0.137158 -0.274826 0)
(-0.146871 -0.27319 0)
(-0.156572 -0.271369 0)
(-0.166237 -0.269378 0)
(-0.175839 -0.267228 0)
(-0.185343 -0.264927 0)
(-0.1947 -0.26248 0)
(-0.203823 -0.259882 0)
(-0.212635 -0.257125 0)
(-0.22117 -0.254195 0)
(-0.22951 -0.251072 0)
(-0.237012 -0.247708 0)
(-0.240036 -0.244102 0)
(-0.236036 -0.239749 0)
(-0.227499 -0.234773 0)
(-0.21773 -0.22923 0)
(-0.207365 -0.223143 0)
(-0.196387 -0.216524 0)
(-0.184854 -0.209386 0)
(-0.172891 -0.201751 0)
(-0.160629 -0.193659 0)
(-0.148198 -0.185164 0)
(-0.135726 -0.176342 0)
(-0.123357 -0.167292 0)
(-0.111314 -0.158145 0)
(-0.0999509 -0.149073 0)
(-0.0897175 -0.140288 0)
(-0.0810906 -0.132025 0)
(-0.0744852 -0.124498 0)
(-0.0701333 -0.117841 0)
(-0.0679843 -0.112041 0)
(-0.067709 -0.106929 0)
(-0.0688205 -0.102255 0)
(-0.070827 -0.0977754 0)
(-0.0733291 -0.0933094 0)
(-0.0760457 -0.0887468 0)
(-0.0787986 -0.0840311 0)
(-0.0814837 -0.0791393 0)
(-0.0840429 -0.0740671 0)
(-0.0864439 -0.0688199 0)
(-0.0886686 -0.0634081 0)
(-0.0907062 -0.0578439 0)
(-0.0925499 -0.0521408 0)
(-0.0941955 -0.0463125 0)
(-0.0956401 -0.0403729 0)
(-0.0968817 -0.0343358 0)
(-0.0979193 -0.0282153 0)
(-0.0987511 -0.0220252 0)
(-0.0993722 -0.0157777 0)
(-0.0997775 -0.00948516 0)
(-0.0999861 -0.0031651 0)
(0.0999809 -0.00451611 0)
(0.0996923 -0.0135005 0)
(0.0991219 -0.0224098 0)
(0.0982525 -0.0312188 0)
(0.0970979 -0.0399037 0)
(0.0956709 -0.0484414 0)
(0.0939837 -0.0568105 0)
(0.0920517 -0.0649922 0)
(0.0898961 -0.0729711 0)
(0.0875457 -0.0807371 0)
(0.0850384 -0.0882872 0)
(0.0824222 -0.0956279 0)
(0.0797556 -0.102778 0)
(0.0771058 -0.10977 0)
(0.0745434 -0.116652 0)
(0.0721331 -0.123483 0)
(0.0699209 -0.130327 0)
(0.0679211 -0.137244 0)
(0.0661062 -0.144278 0)
(0.0644056 -0.151447 0)
(0.062714 -0.15874 0)
(0.0609076 -0.166123 0)
(0.058863 -0.17354 0)
(0.0564726 -0.180926 0)
(0.0536542 -0.188212 0)
(0.0503532 -0.195333 0)
(0.0465407 -0.202229 0)
(0.0422087 -0.208846 0)
(0.0373647 -0.215142 0)
(0.0320265 -0.221079 0)
(0.0262182 -0.226629 0)
(0.0199673 -0.231772 0)
(0.0133029 -0.236491 0)
(0.00625424 -0.24078 0)
(-0.00114918 -0.244633 0)
(-0.0088791 -0.248052 0)
(-0.0169093 -0.251042 0)
(-0.0252155 -0.253611 0)
(-0.0337752 -0.25577 0)
(-0.0425669 -0.25753 0)
(-0.0515704 -0.258907 0)
(-0.0607659 -0.259917 0)
(-0.0701347 -0.260577 0)
(-0.0796589 -0.260904 0)
(-0.0893208 -0.260918 0)
(-0.0991029 -0.260636 0)
(-0.108988 -0.260076 0)
(-0.118957 -0.259258 0)
(-0.128991 -0.258197 0)
(-0.139072 -0.25691 0)
(-0.149176 -0.255412 0)
(-0.159279 -0.253716 0)
(-0.169354 -0.251833 0)
(-0.179367 -0.249771 0)
(-0.189277 -0.247539 0)
(-0.199021 -0.245136 0)
(-0.208499 -0.24256 0)
(-0.217629 -0.239804 0)
(-0.226418 -0.236858 0)
(-0.2349 -0.233703 0)
(-0.242301 -0.2303 0)
(-0.244901 -0.226598 0)
(-0.240266 -0.22218 0)
(-0.231173 -0.217201 0)
(-0.22093 -0.211708 0)
(-0.210128 -0.205725 0)
(-0.198725 -0.19927 0)
(-0.186775 -0.192365 0)
(-0.174406 -0.185041 0)
(-0.161756 -0.177341 0)
(-0.148966 -0.169321 0)
(-0.136174 -0.161054 0)
(-0.123536 -0.152634 0)
(-0.111302 -0.144181 0)
(-0.0998446 -0.135853 0)
(-0.0896214 -0.127841 0)
(-0.0810998 -0.120349 0)
(-0.0746662 -0.113563 0)
(-0.0705071 -0.107583 0)
(-0.0685236 -0.102377 0)
(-0.0683541 -0.0977759 0)
(-0.0695044 -0.0935499 0)
(-0.0714944 -0.0894821 0)
(-0.0739431 -0.0854153 0)
(-0.0765868 -0.0812545 0)
(-0.0792602 -0.0769511 0)
(-0.0818672 -0.0724853 0)
(-0.0843544 -0.0678536 0)
(-0.0866916 -0.0630604 0)
(-0.0888614 -0.0581145 0)
(-0.0908528 -0.0530269 0)
(-0.0926588 -0.0478093 0)
(-0.0942741 -0.0424742 0)
(-0.0956949 -0.037034 0)
(-0.0969184 -0.0315015 0)
(-0.0979424 -0.0258898 0)
(-0.0987644 -0.020212 0)
(-0.0993788 -0.0144798 0)
(-0.0997799 -0.00870499 0)
(-0.0999863 -0.00290465 0)
(0.0999809 -0.00414493 0)
(0.0996935 -0.0123913 0)
(0.0991254 -0.0205689 0)
(0.0982597 -0.0286544 0)
(0.0971102 -0.036626 0)
(0.0956901 -0.0444622 0)
(0.0940117 -0.0521435 0)
(0.0920906 -0.0596526 0)
(0.0899483 -0.0669756 0)
(0.0876137 -0.0741033 0)
(0.0851246 -0.0810331 0)
(0.0825288 -0.0877711 0)
(0.0798848 -0.0943346 0)
(0.0772596 -0.100754 0)
(0.0747235 -0.107072 0)
(0.0723412 -0.113343 0)
(0.0701594 -0.119627 0)
(0.0681929 -0.125979 0)
(0.0664152 -0.13244 0)
(0.0647568 -0.139028 0)
(0.0631129 -0.145735 0)
(0.0613597 -0.15253 0)
(0.0593731 -0.159363 0)
(0.0570442 -0.166175 0)
(0.0542889 -0.172905 0)
(0.0510506 -0.179493 0)
(0.0472982 -0.185882 0)
(0.0430218 -0.192026 0)
(0.0382265 -0.197883 0)
(0.0329284 -0.203419 0)
(0.0271498 -0.208608 0)
(0.0209166 -0.213429 0)
(0.0142562 -0.217869 0)
(0.0071966 -0.221918 0)
(-0.000234183 -0.225573 0)
(-0.00800896 -0.228832 0)
(-0.0161025 -0.2317 0)
(-0.0244914 -0.234182 0)
(-0.0331539 -0.236287 0)
(-0.0420691 -0.238025 0)
(-0.0512169 -0.239408 0)
(-0.060578 -0.240449 0)
(-0.0701336 -0.241162 0)
(-0.0798656 -0.241562 0)
(-0.0897555 -0.241665 0)
(-0.0997849 -0.241484 0)
(-0.109935 -0.241036 0)
(-0.120185 -0.240335 0)
(-0.130516 -0.239394 0)
(-0.140904 -0.238227 0)
(-0.151324 -0.236845 0)
(-0.161748 -0.235259 0)
(-0.172144 -0.233477 0)
(-0.182473 -0.231506 0)
(-0.192688 -0.22935 0)
(-0.202716 -0.227011 0)
(-0.212452 -0.224486 0)
(-0.22181 -0.221772 0)
(-0.230794 -0.218868 0)
(-0.239404 -0.215781 0)
(-0.246654 -0.212501 0)
(-0.248769 -0.208844 0)
(-0.243515 -0.204451 0)
(-0.233964 -0.199558 0)
(-0.223333 -0.194225 0)
(-0.212163 -0.188465 0)
(-0.200406 -0.182293 0)
(-0.188114 -0.175734 0)
(-0.175421 -0.168822 0)
(-0.162469 -0.161599 0)
(-0.149407 -0.15412 0)
(-0.136377 -0.146457 0)
(-0.123549 -0.138694 0)
(-0.111192 -0.130943 0)
(-0.0996964 -0.123349 0)
(-0.0895211 -0.116083 0)
(-0.0811233 -0.109326 0)
(-0.0748626 -0.103233 0)
(-0.0708851 -0.0978797 0)
(-0.0690512 -0.0932151 0)
(-0.0689746 -0.0890771 0)
(-0.0701583 -0.0852548 0)
(-0.0721338 -0.081558 0)
(-0.074537 -0.0778519 0)
(-0.0771187 -0.0740563 0)
(-0.0797239 -0.0701305 0)
(-0.0822633 -0.066058 0)
(-0.0846866 -0.0618359 0)
(-0.0869655 -0.0574682 0)
(-0.0890833 -0.0529624 0)
(-0.0910291 -0.048328 0)
(-0.0927958 -0.0435752 0)
(-0.0943777 -0.0387149 0)
(-0.0957706 -0.0337582 0)
(-0.0969713 -0.0287167 0)
(-0.0979771 -0.0236021 0)
(-0.0987849 -0.0184266 0)
(-0.099389 -0.0132009 0)
(-0.0997835 -0.007936 0)
(-0.0999865 -0.00264793 0)
(0.099981 -0.0037756 0)
(0.0996953 -0.0112875 0)
(0.0991305 -0.0187371 0)
(0.0982698 -0.026103 0)
(0.0971271 -0.0333652 0)
(0.0957155 -0.0405043 0)
(0.0940475 -0.0475024 0)
(0.0921386 -0.0543438 0)
(0.0900104 -0.0610158 0)
(0.0876916 -0.0675102 0)
(0.0852199 -0.0738247 0)
(0.082643 -0.0799649 0)
(0.0800188 -0.0859465 0)
(0.0774142 -0.0917971 0)
(0.0748993 -0.0975562 0)
(0.0725389 -0.103273 0)
(0.0703799 -0.109003 0)
(0.068438 -0.114796 0)
(0.0666876 -0.120691 0)
(0.0650599 -0.126704 0)
(0.0634508 -0.132829 0)
(0.0617366 -0.13904 0)
(0.0597925 -0.145291 0)
(0.0575085 -0.151529 0)
(0.054799 -0.157699 0)
(0.0516056 -0.163745 0)
(0.0478956 -0.169618 0)
(0.0436572 -0.175274 0)
(0.0388939 -0.180675 0)
(0.0336203 -0.185789 0)
(0.0278572 -0.190593 0)
(0.0216293 -0.195067 0)
(0.0149626 -0.199197 0)
(0.00788415 -0.202975 0)
(0.000420885 -0.206397 0)
(-0.00740086 -0.20946 0)
(-0.0155566 -0.212168 0)
(-0.0240236 -0.214524 0)
(-0.0327805 -0.216536 0)
(-0.0418068 -0.218211 0)
(-0.0510826 -0.21956 0)
(-0.0605885 -0.220593 0)
(-0.0703058 -0.221322 0)
(-0.0802154 -0.221758 0)
(-0.0902984 -0.221915 0)
(-0.100535 -0.221805 0)
(-0.110906 -0.22144 0)
(-0.121388 -0.220832 0)
(-0.13196 -0.219992 0)
(-0.142596 -0.218931 0)
(-0.153268 -0.217659 0)
(-0.163945 -0.216184 0)
(-0.174591 -0.214512 0)
(-0.185163 -0.21265 0)
(-0.195611 -0.210602 0)
(-0.205854 -0.208369 0)
(-0.215784 -0.205951 0)
(-0.225328 -0.203348 0)
(-0.23452 -0.200568 0)
(-0.24332 -0.19763 0)
(-0.25032 -0.194547 0)
(-0.251721 -0.190945 0)
(-0.245777 -0.186663 0)
(-0.235912 -0.181944 0)
(-0.225032 -0.176856 0)
(-0.213597 -0.171402 0)
(-0.201568 -0.165594 0)
(-0.189012 -0.159456 0)
(-0.176068 -0.15302 0)
(-0.162887 -0.146328 0)
(-0.149618 -0.139431 0)
(-0.136412 -0.132395 0)
(-0.12345 -0.125298 0)
(-0.111018 -0.118243 0)
(-0.0995181 -0.111361 0)
(-0.0894124 -0.104803 0)
(-0.0811471 -0.0987322 0)
(-0.075057 -0.0932784 0)
(-0.0712524 -0.088496 0)
(-0.0695589 -0.0843268 0)
(-0.0695703 -0.0806162 0)
(-0.0707878 -0.0771735 0)
(-0.072754 -0.073832 0)
(-0.0751191 -0.0704753 0)
(-0.0776466 -0.067035 0)
(-0.080191 -0.0634766 0)
(-0.0826684 -0.0597865 0)
(-0.085032 -0.0559623 0)
(-0.0872552 -0.0520075 0)
(-0.089322 -0.0479288 0)
(-0.0912222 -0.0437343 0)
(-0.0929484 -0.0394331 0)
(-0.0944951 -0.0350349 0)
(-0.0958578 -0.0305495 0)
(-0.097033 -0.0259873 0)
(-0.0980179 -0.0213589 0)
(-0.0988094 -0.0166751 0)
(-0.0994013 -0.0119459 0)
(-0.0997879 -0.00718135 0)
(-0.0999868 -0.00239601 0)
(0.0999811 -0.0034086 0)
(0.0996972 -0.0101906 0)
(0.0991358 -0.0169166 0)
(0.0982802 -0.0235675 0)
(0.0971443 -0.030125 0)
(0.0957412 -0.0365717 0)
(0.0940833 -0.0428916 0)
(0.092186 -0.0490705 0)
(0.0900708 -0.055097 0)
(0.0877664 -0.0609637 0)
(0.0853101 -0.0666686 0)
(0.0827494 -0.0722167 0)
(0.080142 -0.0776224 0)
(0.0775544 -0.0829102 0)
(0.0750567 -0.0881159 0)
(0.0727136 -0.0932844 0)
(0.0705724 -0.0984649 0)
(0.0686493 -0.103704 0)
(0.0669196 -0.109035 0)
(0.0653151 -0.114476 0)
(0.0637323 -0.120022 0)
(0.0620472 -0.125648 0)
(0.0601346 -0.131315 0)
(0.0578835 -0.136975 0)
(0.055207 -0.142578 0)
(0.0520455 -0.148075 0)
(0.0483647 -0.15342 0)
(0.0441514 -0.158573 0)
(0.0394079 -0.163501 0)
(0.0341475 -0.168175 0)
(0.02839 -0.172572 0)
(0.0221588 -0.176675 0)
(0.0154794 -0.180471 0)
(0.00837761 -0.183951 0)
(0.000879798 -0.18711 0)
(-0.00698838 -0.189948 0)
(-0.0152029 -0.192464 0)
(-0.0237416 -0.194664 0)
(-0.0325834 -0.19655 0)
(-0.0417079 -0.198131 0)
(-0.0510952 -0.199414 0)
(-0.060726 -0.200408 0)
(-0.070581 -0.201123 0)
(-0.0806409 -0.201568 0)
(-0.0908857 -0.201754 0)
(-0.101295 -0.201691 0)
(-0.111847 -0.201389 0)
(-0.12252 -0.200859 0)
(-0.133287 -0.200108 0)
(-0.144123 -0.199147 0)
(-0.154997 -0.197983 0)
(-0.165875 -0.196624 0)
(-0.176719 -0.195074 0)
(-0.187484 -0.19334 0)
(-0.198114 -0.191425 0)
(-0.208526 -0.189331 0)
(-0.21861 -0.18706 0)
(-0.228306 -0.184611 0)
(-0.237666 -0.181994 0)
(-0.246589 -0.179224 0)
(-0.253227 -0.176325 0)
(-0.253866 -0.172864 0)
(-0.247343 -0.1688 0)
(-0.237269 -0.164358 0)
(-0.226226 -0.159599 0)
(-0.214597 -0.154525 0)
(-0.202362 -0.149147 0)
(-0.189603 -0.143487 0)
(-0.176466 -0.137577 0)
(-0.163109 -0.131455 0)
(-0.149685 -0.12517 0)
(-0.136349 -0.118779 0)
(-0.123293 -0.112355 0)
(-0.110817 -0.105992 0)
(-0.0993349 -0.0998054 0)
(-0.0893081 -0.0939336 0)
(-0.0811731 -0.0885167 0)
(-0.0752422 -0.0836658 0)
(-0.0715943 -0.0794185 0)
(-0.0700258 -0.0757122 0)
(-0.0701145 -0.0724025 0)
(-0.0713619 -0.0693191 0)
(-0.0733206 -0.0663167 0)
(-0.0756533 -0.0632955 0)
(-0.0781346 -0.0601976 0)
(-0.0806263 -0.0569942 0)
(-0.0830497 -0.0536737 0)
(-0.0853605 -0.0502344 0)
(-0.0875337 -0.0466796 0)
(-0.0895541 -0.043015 0)
(-0.0914118 -0.0392477 0)
(-0.0930999 -0.0353856 0)
(-0.0946127 -0.0314373 0)
(-0.0959459 -0.0274113 0)
(-0.0970958 -0.0233168 0)
(-0.0980598 -0.0191634 0)
(-0.0988345 -0.0149606 0)
(-0.0994139 -0.0107173 0)
(-0.0997924 -0.00644251 0)
(-0.0999871 -0.00214939 0)
(0.0999813 -0.00304382 0)
(0.099699 -0.00910028 0)
(0.0991408 -0.015107 0)
(0.0982902 -0.0210469 0)
(0.0971608 -0.0269038 0)
(0.0957657 -0.0326622 0)
(0.0941171 -0.0383078 0)
(0.0922304 -0.0438279 0)
(0.090127 -0.0492125 0)
(0.0878353 -0.054455 0)
(0.0853924 -0.0595536 0)
(0.0828456 -0.0645127 0)
(0.0802522 -0.0693452 0)
(0.0776785 -0.074073 0)
(0.0751945 -0.078728 0)
(0.0728649 -0.0833502 0)
(0.0707372 -0.0879838 0)
(0.0688283 -0.0926704 0)
(0.0671139 -0.0974414 0)
(0.0655266 -0.102312 0)
(0.0639631 -0.107278 0)
(0.0622994 -0.112319 0)
(0.0604098 -0.1174 0)
(0.0581825 -0.122478 0)
(0.0555296 -0.127508 0)
(0.0523903 -0.132447 0)
(0.0487291 -0.137255 0)
(0.0445317 -0.141895 0)
(0.0397994 -0.146336 0)
(0.0345446 -0.150554 0)
(0.0287861 -0.154527 0)
(0.0225467 -0.15824 0)
(0.0158509 -0.161681 0)
(0.00872417 -0.164841 0)
(0.00119219 -0.167716 0)
(-0.00671984 -0.170303 0)
(-0.0149883 -0.172605 0)
(-0.0235912 -0.174621 0)
(-0.0325076 -0.176358 0)
(-0.0417174 -0.17782 0)
(-0.0512006 -0.179013 0)
(-0.0609375 -0.179945 0)
(-0.0709085 -0.180623 0)
(-0.0810938 -0.181056 0)
(-0.0914727 -0.181252 0)
(-0.102024 -0.18122 0)
(-0.112725 -0.180968 0)
(-0.123551 -0.180504 0)
(-0.134477 -0.179836 0)
(-0.145473 -0.178972 0)
(-0.156508 -0.177917 0)
(-0.167545 -0.176678 0)
(-0.178544 -0.17526 0)
(-0.189457 -0.173668 0)
(-0.200227 -0.171904 0)
(-0.210768 -0.169971 0)
(-0.220968 -0.16787 0)
(-0.230778 -0.165602 0)
(-0.240266 -0.163173 0)
(-0.249264 -0.160598 0)
(-0.255522 -0.157922 0)
(-0.255455 -0.154692 0)
(-0.248444 -0.150932 0)
(-0.238216 -0.146841 0)
(-0.227056 -0.142473 0)
(-0.215281 -0.137833 0)
(-0.202887 -0.132932 0)
(-0.189972 -0.127791 0)
(-0.17669 -0.122441 0)
(-0.163199 -0.116915 0)
(-0.149659 -0.111259 0)
(-0.136226 -0.105524 0)
(-0.123103 -0.0997744 0)
(-0.110606 -0.0940947 0)
(-0.0991532 -0.0885896 0)
(-0.0892079 -0.0833804 0)
(-0.0811965 -0.0785895 0)
(-0.0754112 -0.0743098 0)
(-0.0719039 -0.0705669 0)
(-0.070446 -0.0672974 0)
(-0.0706031 -0.0643693 0)
(-0.0718773 -0.0616319 0)
(-0.0738302 -0.0589595 0)
(-0.0761358 -0.056267 0)
(-0.0785774 -0.0535053 0)
(-0.0810237 -0.0506502 0)
(-0.0833998 -0.0476923 0)
(-0.0856641 -0.0446303 0)
(-0.0877927 -0.041467 0)
(-0.0897712 -0.0382074 0)
(-0.0915903 -0.0348579 0)
(-0.0932432 -0.0314252 0)
(-0.0947246 -0.0279167 0)
(-0.09603 -0.02434 0)
(-0.0971562 -0.0207031 0)