/*--------------------------------*- C++ -*----------------------------------*\
  =========                 |
  \\      /  F ield         | OpenFOAM: The Open Source CFD Toolbox
   \\    /   O peration     | Website:  https://openfoam.org
    \\  /    A nd           | Version:  8
     \\/     M anipulation  |
\*---------------------------------------------------------------------------*/
FoamFile
{
    version     2.0;
    format      ascii;
    class       volScalarField;
    location    "0.05/fluid";
    object      CH4;
}
// * * * * * * * * * * * * * * * * * * * * * * * * * * * * * * * * * * * * * //

dimensions      [0 0 0 0 0 0 0];

internalField   nonuniform List<scalar> 
4000
(
0.999602
0.998306
0.996318
0.993397
0.989257
0.983568
0.975982
0.966147
0.953753
0.938557
0.920423
0.899335
0.875406
0.848859
0.820011
0.789238
0.756949
0.723565
0.689493
0.65512
0.620712
0.586444
0.552868
0.520168
0.488495
0.457971
0.428686
0.400703
0.37406
0.348771
0.324831
0.302222
0.280911
0.260858
0.242014
0.224328
0.207744
0.192205
0.177653
0.16403
0.151277
0.139341
0.128167
0.117705
0.107905
0.098723
0.0901145
0.0820393
0.0744596
0.0673403
0.0606489
0.0543556
0.0484329
0.0428565
0.0376048
0.0326629
0.0280513
0.0236788
0.0195851
0.0157763
0.0122846
0.00915301
0.00642232
0.00417375
0.00261246
0.00161822
0.000988632
0.000593998
0.000350161
0.00020199
0.000113719
6.23052e-05
3.31327e-05
1.70515e-05
8.46523e-06
4.04761e-06
1.87966e-06
8.89995e-07
4.78579e-07
2.99517e-07
2.07212e-07
1.47059e-07
1.027e-07
6.91325e-08
4.41946e-08
2.65026e-08
1.47747e-08
7.61858e-09
3.6294e-09
1.62813e-09
6.9414e-10
2.84058e-10
1.12626e-10
4.36111e-11
1.65888e-11
6.21649e-12
2.28853e-12
8.12148e-13
2.56848e-13
4.38539e-14
0.999614
0.99836
0.996439
0.99362
0.989626
0.984143
0.976827
0.967334
0.955347
0.940614
0.92298
0.902405
0.878974
0.852888
0.82444
0.79399
0.761942
0.728722
0.694699
0.660095
0.625316
0.591173
0.557585
0.524774
0.492924
0.46218
0.43265
0.404409
0.377503
0.351953
0.32776
0.304906
0.283362
0.263088
0.244037
0.226157
0.209394
0.193688
0.178982
0.165216
0.152334
0.140278
0.128995
0.118433
0.108542
0.0992771
0.0905932
0.0824495
0.0748078
0.0676322
0.0608898
0.0545502
0.0485858
0.0429716
0.0376859
0.0327132
0.0280779
0.0236845
0.0195711
0.0157455
0.0122439
0.00910633
0.00637524
0.00413173
0.00258531
0.00160061
0.000977277
0.000586803
0.000345479
0.000199041
0.000111915
6.1252e-05
3.25246e-05
1.66937e-05
8.26058e-06
3.93668e-06
1.82357e-06
8.64771e-07
4.68449e-07
2.94765e-07
2.04529e-07
1.45309e-07
1.01544e-07
6.83538e-08
4.36874e-08
2.61942e-08
1.46061e-08
7.53882e-09
3.59763e-09
1.61802e-09
6.92222e-10
2.84455e-10
1.13299e-10
4.40731e-11
1.68375e-11
6.33538e-12
2.34205e-12
8.33479e-13
2.64021e-13
4.51041e-14
0.999628
0.998419
0.996568
0.993853
0.990008
0.984726
0.97767
0.968502
0.956903
0.94262
0.925488
0.905454
0.882587
0.857065
0.829153
0.799179
0.767501
0.734438
0.700365
0.665897
0.631687
0.597638
0.564033
0.531119
0.499098
0.46813
0.438338
0.409807
0.382592
0.356723
0.332206
0.30903
0.287171
0.26659
0.247244
0.229083
0.212053
0.196097
0.181155
0.167169
0.154082
0.141836
0.130378
0.119654
0.109616
0.100214
0.0914055
0.0831478
0.075402
0.0681316
0.0613031
0.0548852
0.0488498
0.0431711
0.0378263
0.0327979
0.028113
0.0237133
0.0195585
0.0157011
0.0121826
0.00903445
0.00630171
0.00406446
0.00254277
0.00157348
0.000959951
0.000575788
0.000338692
0.000194776
0.00010928
5.96674e-05
3.16089e-05
1.61997e-05
8.00236e-06
3.80678e-06
1.7617e-06
8.38157e-07
4.57635e-07
2.89274e-07
2.01224e-07
1.43149e-07
1.00099e-07
6.74907e-08
4.32386e-08
2.60105e-08
1.45649e-08
7.558e-09
3.63307e-09
1.64583e-09
7.09703e-10
2.93991e-10
1.18019e-10
4.62602e-11
1.77932e-11
6.72214e-12
2.48492e-12
8.84679e-13
2.80385e-13
4.79174e-14
0.999641
0.998472
0.996681
0.994054
0.990333
0.985221
0.978393
0.969513
0.958267
0.944399
0.927738
0.908213
0.88587
0.860859
0.833423
0.803843
0.77245
0.739665
0.706237
0.672451
0.638389
0.604407
0.570802
0.537826
0.505687
0.47455
0.444545
0.415765
0.388274
0.362108
0.337281
0.313788
0.291608
0.270708
0.251049
0.232584
0.21526
0.199023
0.183814
0.169575
0.15625
0.143781
0.132114
0.121197
0.110979
0.101411
0.0924494
0.0840506
0.0761753
0.0687864
0.0618497
0.0553334
0.0492087
0.0434493
0.0380323
0.0329383
0.0281957
0.0237545
0.0195575
0.0156651
0.0121276
0.00896502
0.00622885
0.00399913
0.00250084
0.00154651
0.00094267
0.000564798
0.000331775
0.000190613
0.000106779
5.81698e-05
3.07322e-05
1.57e-05
7.73e-06
3.66532e-06
1.69244e-06
8.07047e-07
4.44099e-07
2.82478e-07
1.9747e-07
1.40994e-07
9.89446e-08
6.69259e-08
4.29925e-08
2.59205e-08
1.45538e-08
7.58275e-09
3.66449e-09
1.66912e-09
7.24199e-10
3.01951e-10
1.21968e-10
4.80545e-11
1.85747e-11
7.05167e-12
2.62687e-12
9.4072e-13
2.99277e-13
5.12276e-14
0.999653
0.998526
0.996796
0.994251
0.990635
0.985656
0.979002
0.970365
0.959424
0.945918
0.929661
0.91057
0.888669
0.864086
0.837041
0.807833
0.777075
0.745166
0.712207
0.678593
0.644684
0.610808
0.577256
0.544276
0.512078
0.480833
0.450674
0.421702
0.393986
0.367568
0.342469
0.31869
0.296216
0.275018
0.25506
0.2363
0.218687
0.202169
0.18669
0.172194
0.158623
0.145922
0.134036
0.122913
0.112503
0.102757
0.0936297
0.0850777
0.0770612
0.0695425
0.0624869
0.0558619
0.0496382
0.0437893
0.0382916
0.0331255
0.0283172
0.0238305
0.0195865
0.0156538
0.0120963
0.00891273
0.00616848
0.0039414
0.00246479
0.0015238
0.000928323
0.000555767
0.000326132
0.000187121
0.000104714
5.69813e-05
3.00571e-05
1.53201e-05
7.5224e-06
3.55762e-06
1.63982e-06
7.8332e-07
4.33364e-07
2.77265e-07
1.94771e-07
1.39624e-07
9.83293e-08
6.66866e-08
4.29482e-08
2.59768e-08
1.46429e-08
7.66526e-09
3.72603e-09
1.70681e-09
7.45269e-10
3.12881e-10
1.2731e-10
5.05348e-11
1.96555e-11
7.52533e-12
2.82071e-12
1.01518e-12
3.24074e-13
5.556e-14
0.999664
0.998573
0.996897
0.994433
0.990932
0.986105
0.979632
0.971171
0.960438
0.947175
0.931207
0.912459
0.890968
0.866884
0.840459
0.812053
0.78182
0.750156
0.717443
0.68405
0.650327
0.616593
0.583134
0.550196
0.517989
0.486688
0.456429
0.427316
0.399426
0.372805
0.34748
0.323457
0.300725
0.279261
0.259034
0.240003
0.222123
0.205342
0.189607
0.174863
0.161054
0.148127
0.136026
0.124701
0.1141
0.104175
0.0948817
0.0861739
0.078013
0.0703613
0.0631834
0.0564465
0.0501208
0.0441793
0.0385985
0.0333584
0.0284807
0.0239438
0.019652
0.0156801
0.012107
0.00887625
0.00612844
0.00390532
0.00244254
0.00150992
0.000919618
0.000550297
0.000322705
0.000184984
0.000103384
5.61792e-05
2.95967e-05
1.50662e-05
7.38684e-06
3.48668e-06
1.60421e-06
7.665e-07
4.25446e-07
2.73563e-07
1.93073e-07
1.38922e-07
9.81208e-08
6.67478e-08
4.31198e-08
2.6162e-08
1.47986e-08
7.77902e-09
3.80072e-09
1.74981e-09
7.68413e-10
3.24621e-10
1.32978e-10
5.3172e-11
2.0854e-11
8.04073e-12
3.0307e-12
1.09624e-12
3.51264e-13
6.03309e-14
0.999673
0.998611
0.996979
0.994578
0.991166
0.986461
0.980154
0.971925
0.961472
0.94854
0.932947
0.914609
0.893547
0.869884
0.843833
0.815677
0.785737
0.754367
0.721931
0.688787
0.655276
0.62171
0.588371
0.555507
0.523327
0.492008
0.461688
0.432478
0.404455
0.377674
0.352165
0.327937
0.304987
0.283293
0.262829
0.243558
0.225437
0.208417
0.192448
0.177476
0.163446
0.150306
0.138003
0.126484
0.1157
0.105604
0.0961514
0.0872912
0.0789901
0.0712087
0.0639112
0.0570644
0.0506381
0.0446051
0.0389417
0.0336275
0.0286791
0.0240898
0.0197481
0.015734
0.0121306
0.00887719
0.00611652
0.0038905
0.00243375
0.00150454
0.000916245
0.000548147
0.000321324
0.000184098
0.00010282
5.58262e-05
2.93786e-05
1.49369e-05
7.31344e-06
3.44749e-06
1.58419e-06
7.56539e-07
4.20665e-07
2.71473e-07
1.92298e-07
1.38813e-07
9.8368e-08
6.71242e-08
4.3493e-08
2.64694e-08
1.50235e-08
7.92893e-09
3.89294e-09
1.80083e-09
7.95112e-10
3.37891e-10
1.39275e-10
5.60418e-11
2.21177e-11
8.57491e-12
3.25721e-12
1.18488e-12
3.81212e-13
6.56011e-14
0.999681
0.998641
0.997045
0.994695
0.991354
0.986746
0.980565
0.972498
0.962245
0.949551
0.934232
0.916199
0.895465
0.872142
0.846434
0.818612
0.788995
0.757931
0.725777
0.692883
0.659586
0.626194
0.592988
0.560213
0.528081
0.496768
0.466417
0.43714
0.40902
0.382114
0.356455
0.33206
0.308925
0.287036
0.266367
0.246887
0.228554
0.211322
0.195143
0.179964
0.165734
0.1524
0.13991
0.128213
0.117259
0.107002
0.0973972
0.0883965
0.0799635
0.0720593
0.0646479
0.057696
0.0511733
0.0450523
0.039309
0.0339228
0.0289046
0.0242631
0.0198718
0.0158155
0.0121808
0.00890524
0.00612901
0.00389502
0.00243724
0.00150694
0.000917757
0.000549023
0.000321784
0.000184307
0.000102894
5.58337e-05
2.93605e-05
1.49138e-05
7.29387e-06
3.43419e-06
1.57613e-06
7.52042e-07
4.1845e-07
2.70652e-07
1.92306e-07
1.39273e-07
9.90038e-08
6.77589e-08
4.403e-08
2.68741e-08
1.53018e-08
8.1058e-09
3.99762e-09
1.85731e-09
8.24105e-10
3.52118e-10
1.45984e-10
5.90975e-11
2.34632e-11
9.15296e-12
3.49532e-12
1.27904e-12
4.13133e-13
7.12239e-14
0.999687
0.998667
0.9971
0.994793
0.991511
0.986981
0.980905
0.972969
0.962879
0.950379
0.935285
0.917505
0.897047
0.874016
0.848609
0.821088
0.791766
0.760982
0.729087
0.696426
0.663331
0.630107
0.597033
0.564352
0.532278
0.500987
0.470624
0.441304
0.413112
0.386108
0.36033
0.335796
0.312508
0.290453
0.26961
0.249949
0.231431
0.214014
0.197649
0.182288
0.167879
0.15437
0.141712
0.129852
0.118743
0.108336
0.098586
0.0894611
0.0809084
0.072891
0.0653738
0.0583239
0.0517108
0.0455069
0.0396881
0.0342336
0.0291483
0.0244565
0.0200174
0.0159199
0.012254
0.0089552
0.00616102
0.00391488
0.00245066
0.00151573
0.000923338
0.000552452
0.000323817
0.000185467
0.000103527
5.61633e-05
2.95223e-05
1.49877e-05
7.32458e-06
3.44521e-06
1.57896e-06
7.51847e-07
4.18219e-07
2.70918e-07
1.93026e-07
1.40205e-07
9.99536e-08
6.85974e-08
4.46938e-08
2.73535e-08
1.5621e-08
8.30333e-09
4.1119e-09
1.91799e-09
8.54863e-10
3.67066e-10
1.52983e-10
6.22696e-11
2.48617e-11
9.75091e-12
3.73953e-12
1.37459e-12
4.45717e-13
7.69869e-14
0.999692
0.998688
0.997146
0.994874
0.991642
0.987179
0.981189
0.973365
0.963411
0.951074
0.936172
0.918607
0.898384
0.875605
0.850458
0.8232
0.794136
0.763601
0.731937
0.699487
0.666576
0.633507
0.600558
0.567971
0.535958
0.504698
0.474336
0.444988
0.416744
0.389664
0.36379
0.339144
0.315728
0.293534
0.272543
0.252727
0.23405
0.216472
0.199946
0.184424
0.169856
0.156194
0.143385
0.131381
0.120135
0.109598
0.0997263
0.0904781
0.0818118
0.0736892
0.0660743
0.0589338
0.052237
0.0459564
0.0400674
0.0345491
0.0294008
0.0246614
0.0201772
0.016041
0.0123444
0.00902151
0.00620743
0.00394544
0.0024711
0.0015291
0.000931859
0.00055774
0.000327004
0.000187327
0.000104575
5.67311e-05
2.98169e-05
1.51332e-05
7.3924e-06
3.47475e-06
1.59053e-06
7.55519e-07
4.19835e-07
2.72109e-07
1.94292e-07
1.41499e-07
1.01137e-07
6.95831e-08
4.54466e-08
2.78834e-08
1.59667e-08
8.51351e-09
4.23162e-09
1.98086e-09
8.86449e-10
3.82314e-10
1.60091e-10
6.54843e-11
2.62768e-11
1.03578e-11
3.99172e-12
1.47167e-12
4.78342e-13
8.27352e-14
0.999696
0.998706
0.997184
0.994943
0.991752
0.987345
0.981428
0.973697
0.963859
0.951661
0.93692
0.919538
0.899517
0.876953
0.852031
0.825001
0.796163
0.765844
0.734385
0.702121
0.669375
0.636448
0.603614
0.571116
0.539164
0.507939
0.477585
0.448222
0.419939
0.392801
0.366851
0.342112
0.318591
0.29628
0.275164
0.255217
0.236404
0.218687
0.202021
0.186359
0.171654
0.157856
0.144916
0.132784
0.121415
0.110761
0.100778
0.0914228
0.082656
0.0744389
0.0667357
0.0595131
0.0527403
0.0463895
0.040436
0.0348591
0.0296527
0.0248694
0.0203434
0.016173
0.0124465
0.00909922
0.00626402
0.00398365
0.00249649
0.00154565
0.000942416
0.000564313
0.000330988
0.000189671
0.00010591
5.74646e-05
3.02041e-05
1.53288e-05
7.48627e-06
3.51725e-06
1.60829e-06
7.62012e-07
4.22805e-07
2.74042e-07
1.95954e-07
1.43034e-07
1.02465e-07
7.06546e-08
4.62482e-08
2.84392e-08
1.63248e-08
8.72882e-09
4.35304e-09
2.04416e-09
9.18061e-10
3.9751e-10
1.67155e-10
6.86743e-11
2.76808e-11
1.09602e-11
4.24203e-12
1.57011e-12
5.11624e-13
8.85866e-14
0.999699
0.998721
0.997217
0.995
0.991844
0.987484
0.981629
0.973977
0.964235
0.952155
0.937551
0.920324
0.900474
0.878095
0.853365
0.826531
0.797887
0.767757
0.736475
0.704375
0.671775
0.638975
0.606245
0.573829
0.541936
0.510746
0.480407
0.451036
0.422726
0.395543
0.369532
0.344718
0.321109
0.298702
0.277481
0.257422
0.238494
0.220658
0.203872
0.18809
0.173266
0.15935
0.146295
0.134052
0.122575
0.111817
0.101735
0.0922863
0.0834306
0.0751297
0.0673479
0.0600517
0.0532105
0.0467962
0.0407842
0.0351537
0.0298941
0.0250709
0.0205118
0.016311
0.0125561
0.00918423
0.00632726
0.00402687
0.00252504
0.0015642
0.000954237
0.000571678
0.000335461
0.000192313
0.000107422
5.83005e-05
3.06491e-05
1.55558e-05
7.59665e-06
3.56806e-06
1.63007e-06
7.70354e-07
4.26563e-07
2.76375e-07
1.97882e-07
1.44659e-07
1.03852e-07
7.17547e-08
4.70616e-08
2.89983e-08
1.66823e-08
8.94227e-09
4.47259e-09
2.10618e-09
9.48913e-10
4.12299e-10
1.7402e-10
7.17737e-11
2.90458e-11
1.15467e-11
4.48617e-12
1.66607e-12
5.44229e-13
9.4344e-14
0.999702
0.998733
0.997244
0.995048
0.99192
0.9876
0.981797
0.97421
0.96455
0.952568
0.938079
0.920984
0.901279
0.879055
0.854489
0.827821
0.799344
0.769376
0.738248
0.70629
0.673818
0.641129
0.608492
0.57615
0.544312
0.513156
0.482833
0.45346
0.425131
0.397913
0.371854
0.346979
0.323299
0.300811
0.279502
0.259351
0.240325
0.222389
0.2055
0.189616
0.174689
0.160673
0.147518
0.135179
0.123609
0.112761
0.102593
0.0930624
0.0841289
0.0757545
0.0679035
0.0605423
0.0536402
0.0471689
0.0411036
0.0354229
0.0301111
0.0252282
0.020702
0.0164599
0.0126721
0.00927355
0.00639385
0.00407243
0.00255494
0.00158356
0.000966554
0.000579349
0.000340125
0.000195072
0.000109006
5.91796e-05
3.11192e-05
1.57971e-05
7.71481e-06
3.62293e-06
1.65386e-06
7.79586e-07
4.30377e-07
2.78807e-07
1.99888e-07
1.46399e-07
1.05268e-07
7.28533e-08
4.78623e-08
2.95432e-08
1.70283e-08
9.14769e-09
4.58716e-09
2.16544e-09
9.78334e-10
4.26384e-10
1.80555e-10
7.47241e-11
3.03463e-11
1.21061e-11
4.71934e-12
1.75782e-12
5.75438e-13
9.98579e-14
0.999705
0.998744
0.997266
0.995087
0.991984
0.987696
0.981935
0.974403
0.964812
0.952911
0.938518
0.921532
0.901948
0.879855
0.855426
0.828899
0.800563
0.770732
0.739735
0.707898
0.675536
0.642943
0.610388
0.578111
0.546321
0.515199
0.484892
0.45552
0.427178
0.399934
0.373837
0.348913
0.325175
0.302621
0.28124
0.261011
0.241904
0.223884
0.20691
0.190939
0.175926
0.161824
0.148585
0.136164
0.124514
0.11359
0.103348
0.0937473
0.0847466
0.0763087
0.0683978
0.0609804
0.0540258
0.0475058
0.0413955
0.0356738
0.030324
0.0253994
0.0208518
0.0165866
0.0127761
0.00935629
0.00645714
0.00411656
0.002584
0.00160242
0.000978574
0.000586851
0.000344696
0.000197783
0.000110567
6.00486e-05
3.15857e-05
1.60374e-05
7.83309e-06
3.67818e-06
1.67803e-06
7.89132e-07
4.34343e-07
2.81285e-07
2.0187e-07
1.48065e-07
1.06623e-07
7.38986e-08
4.8619e-08
3.00555e-08
1.73523e-08
9.3395e-09
4.69387e-09
2.22054e-09
1.00565e-09
4.39448e-10
1.86613e-10
7.74599e-11
3.15528e-11
1.26257e-11
4.93616e-12
1.84324e-12
6.04521e-13
1.04999e-13
0.999707
0.998752
0.997284
0.995119
0.992035
0.987774
0.982049
0.974561
0.965025
0.953192
0.938877
0.921981
0.902497
0.880512
0.856197
0.829787
0.801567
0.771851
0.740963
0.709229
0.676959
0.644448
0.611962
0.579741
0.547994
0.516901
0.48661
0.457242
0.428891
0.401627
0.3755
0.350537
0.326752
0.304145
0.282705
0.262413
0.243239
0.22515
0.208105
0.192062
0.176978
0.162804
0.149496
0.137006
0.125289
0.114301
0.103997
0.0943366
0.0852796
0.0767881
0.0688267
0.0613619
0.054363
0.0478018
0.0416536
0.0358972
0.030516
0.025555
0.0209844
0.0166986
0.0128686
0.00943074
0.00651486
0.00415742
0.00261091
0.0016199
0.000989736
0.00059383
0.000348956
0.000200315
0.000112027
6.08641e-05
3.20246e-05
1.62643e-05
7.94514e-06
3.73071e-06
1.70112e-06
7.98377e-07
4.38214e-07
2.83671e-07
2.03743e-07
1.49613e-07
1.07859e-07
7.48528e-08
4.93101e-08
3.05232e-08
1.76476e-08
9.51394e-09
4.79064e-09
2.2704e-09
1.03032e-09
4.51233e-10
1.92074e-10
7.99252e-11
3.26404e-11
1.30943e-11
5.13193e-12
1.92044e-12
6.30823e-13
1.0965e-13
0.999708
0.998759
0.997298
0.995145
0.992077
0.987837
0.982139
0.974687
0.965196
0.953416
0.939165
0.922341
0.902938
0.88104
0.856816
0.830501
0.802376
0.772753
0.741955
0.710303
0.67811
0.645666
0.613237
0.581063
0.549353
0.518285
0.488008
0.458644
0.430288
0.40301
0.376859
0.351866
0.328045
0.305395
0.283908
0.263565
0.244338
0.226193
0.209091
0.192991
0.177848
0.163616
0.150251
0.137705
0.125934
0.114893
0.104538
0.0948288
0.0857255
0.0771901
0.0691872
0.0616835
0.0546481
0.0480531
0.0418736
0.0360884
0.0306809
0.0256896
0.021099
0.0167954
0.0129488
0.00949557
0.00656545
0.00419351
0.00263469
0.00163536
0.000999612
0.000600012
0.000352736
0.000202565
0.000113328
6.15913e-05
3.24168e-05
1.64675e-05
8.04576e-06
3.77804e-06
1.72202e-06
8.06832e-07
4.41776e-07
2.85848e-07
2.05432e-07
1.51001e-07
1.0898e-07
7.57032e-08
4.992e-08
3.09333e-08
1.79056e-08
9.66586e-09
4.87478e-09
2.31372e-09
1.05174e-09
4.61465e-10
1.96815e-10
8.20668e-11
3.35857e-11
1.3502e-11
5.30234e-12
1.98769e-12
6.53748e-13
1.13705e-13
0.99971
0.998764
0.997309
0.995164
0.992109
0.987885
0.982209
0.974785
0.965328
0.95359
0.939388
0.92262
0.903279
0.881449
0.857297
0.831056
0.803005
0.773455
0.742727
0.711142
0.679008
0.646617
0.614235
0.582099
0.550417
0.51937
0.489106
0.459746
0.431386
0.404097
0.37793
0.352914
0.329064
0.306382
0.284859
0.264477
0.245208
0.227019
0.209873
0.193727
0.178539
0.164263
0.150852
0.138263
0.126449
0.115366
0.104971
0.0952237
0.0860837
0.0775135
0.0694776
0.0619429
0.0548786
0.0482567
0.0420523
0.0362442
0.0308157
0.0258002
0.0211934
0.0168753
0.0130151
0.00954933
0.00660759
0.00422373
0.00265457
0.00164829
0.00100788
0.00060519
0.000355905
0.000204454
0.000114421
6.22035e-05
3.27475e-05
1.66391e-05
8.1309e-06
3.81818e-06
1.73982e-06
8.14082e-07
4.44845e-07
2.87711e-07
2.06863e-07
1.52166e-07
1.09907e-07
7.64078e-08
5.04252e-08
3.12728e-08
1.81188e-08
9.79134e-09
4.94423e-09
2.34946e-09
1.06942e-09
4.69909e-10
2.0073e-10
8.3836e-11
3.43672e-11
1.38393e-11
5.44344e-12
2.04341e-12
6.72752e-13
1.17067e-13
0.99971
0.998768
0.997317
0.995179
0.992132
0.98792
0.98226
0.974856
0.965424
0.953717
0.939551
0.922824
0.903529
0.881749
0.857649
0.831462
0.803467
0.773971
0.743294
0.711758
0.679669
0.647318
0.614969
0.582861
0.551202
0.52017
0.489916
0.46056
0.432198
0.404902
0.378722
0.35369
0.32982
0.307114
0.285565
0.265154
0.245855
0.227634
0.210455
0.194276
0.179055
0.164745
0.151301
0.138679
0.126834
0.11572
0.105296
0.0955199
0.0863526
0.0777566
0.0696963
0.0621386
0.0550528
0.0484108
0.0421878
0.0363625
0.0309182
0.0258848
0.0212656
0.0169366
0.0130662
0.00959081
0.0066402
0.00424719
0.00266999
0.00165831
0.00101429
0.00060921
0.000358366
0.000205922
0.000115271
6.26802e-05
3.30053e-05
1.6773e-05
8.19743e-06
3.84959e-06
1.75378e-06
8.19802e-07
4.47276e-07
2.8918e-07
2.07985e-07
1.53074e-07
1.10628e-07
7.69532e-08
5.08151e-08
3.15341e-08
1.82827e-08
9.88761e-09
4.99746e-09
2.37685e-09
1.08297e-09
4.76384e-10
2.03734e-10
8.51942e-11
3.49677e-11
1.40986e-11
5.55201e-12
2.0863e-12
6.87389e-13
1.19657e-13
0.999711
0.99877
0.997323
0.995188
0.992147
0.987943
0.982293
0.974902
0.965487
0.9538
0.939657
0.922957
0.903692
0.881945
0.85788
0.831728
0.803769
0.774308
0.743666
0.712161
0.680102
0.647777
0.615451
0.583362
0.551718
0.520697
0.490449
0.461096
0.432733
0.405432
0.379245
0.354202
0.330319
0.307598
0.286031
0.265602
0.246283
0.228042
0.210841
0.194641
0.179397
0.165065
0.1516
0.138956
0.12709
0.115956
0.105512
0.095717
0.0865319
0.0779188
0.0698424
0.0622695
0.0551694
0.0485141
0.0422787
0.036442
0.0309872
0.0259418
0.0213145
0.0169782
0.0131009
0.00961901
0.00666242
0.00426324
0.00268057
0.00166518
0.00101868
0.000611959
0.000360049
0.000206926
0.000115853
6.30065e-05
3.31818e-05
1.68648e-05
8.24305e-06
3.87116e-06
1.76338e-06
8.2375e-07
4.48959e-07
2.90196e-07
2.08757e-07
1.53696e-07
1.11118e-07
7.73231e-08
5.10791e-08
3.17108e-08
1.83933e-08
9.95259e-09
5.03337e-09
2.39532e-09
1.0921e-09
4.80749e-10
2.05759e-10
8.61103e-11
3.53729e-11
1.42737e-11
5.62539e-12
2.11532e-12
6.97295e-13
1.2141e-13
0.999711
0.998771
0.997325
0.995193
0.992154
0.987954
0.982309
0.974925
0.965517
0.953839
0.939708
0.923021
0.90377
0.882039
0.85799
0.831856
0.803914
0.774471
0.743846
0.712357
0.680312
0.648
0.615685
0.583606
0.551969
0.520953
0.490709
0.461357
0.432994
0.405692
0.379501
0.354453
0.330564
0.307836
0.286261
0.265822
0.246494
0.228242
0.211032
0.19482
0.179566
0.165223
0.151747
0.139094
0.127217
0.116073
0.105619
0.0958152
0.0866211
0.0779995
0.0699151
0.0623347
0.0552275
0.0485656
0.0423241
0.0364818
0.0310217
0.0259705
0.021339
0.016999
0.0131183
0.00963322
0.00667365
0.00427136
0.00268591
0.00166865
0.0010209
0.000613348
0.0003609
0.000207433
0.000116146
6.31711e-05
3.32708e-05
1.6911e-05
8.26604e-06
3.88202e-06
1.76822e-06
8.25746e-07
4.49815e-07
2.9071e-07
2.09145e-07
1.54007e-07
1.11362e-07
7.75068e-08
5.12094e-08
3.17977e-08
1.84475e-08
9.98427e-09
5.05084e-09
2.40429e-09
1.09654e-09
4.82873e-10
2.06746e-10
8.6558e-11
3.55715e-11
1.43599e-11
5.66162e-12
2.1297e-12
7.02218e-13
1.22283e-13
0.999711
0.998771
0.997325
0.995193
0.992154
0.987954
0.982309
0.974925
0.965517
0.953839
0.939708
0.923021
0.90377
0.882038
0.85799
0.831856
0.803914
0.774471
0.743845
0.712356
0.680312
0.648
0.615685
0.583605
0.551968
0.520953
0.490708
0.461357
0.432994
0.405692
0.379501
0.354453
0.330563
0.307835
0.286261
0.265822
0.246493
0.228242
0.211031
0.19482
0.179565
0.165223
0.151747
0.139093
0.127217
0.116073
0.105619
0.0958152
0.0866211
0.0779996
0.0699151
0.0623347
0.0552275
0.0485656
0.0423242
0.0364818
0.0310217
0.0259705
0.0213391
0.0169991
0.0131184
0.00963327
0.00667369
0.00427139
0.00268593
0.00166866
0.0010209
0.000613352
0.000360902
0.000207434
0.000116147
6.31715e-05
3.3271e-05
1.69111e-05
8.2661e-06
3.88205e-06
1.76824e-06
8.25754e-07
4.49821e-07
2.90715e-07
2.09149e-07
1.5401e-07
1.11364e-07
7.75083e-08
5.12105e-08
3.17984e-08
1.84481e-08
9.98463e-09
5.05106e-09
2.40442e-09
1.09661e-09
4.82906e-10
2.06763e-10
8.65659e-11
3.55752e-11
1.43616e-11
5.66236e-12
2.13e-12
7.02323e-13
1.22301e-13
0.999711
0.99877
0.997323
0.995188
0.992147
0.987943
0.982293
0.974902
0.965487
0.953799
0.939657
0.922957
0.903692
0.881944
0.857879
0.831728
0.803769
0.774308
0.743666
0.712161
0.680101
0.647776
0.61545
0.583361
0.551716
0.520695
0.490447
0.461094
0.432731
0.405431
0.379244
0.354201
0.330318
0.307597
0.286031
0.265601
0.246282
0.228041
0.210841
0.19464
0.179396
0.165064
0.1516
0.138956
0.127089
0.115956
0.105512
0.0957171
0.0865319
0.0779189
0.0698424
0.0622695
0.0551694
0.0485142
0.0422788
0.0364422
0.0309873
0.025942
0.0213146
0.0169783
0.013101
0.00961913
0.00666254
0.00426332
0.00268062
0.00166521
0.0010187
0.000611969
0.000360055
0.00020693
0.000115855
6.30077e-05
3.31825e-05
1.68652e-05
8.24328e-06
3.87128e-06
1.76345e-06
8.23789e-07
4.48987e-07
2.90215e-07
2.08771e-07
1.53705e-07
1.11125e-07
7.7328e-08
5.10827e-08
3.17134e-08
1.83952e-08
9.95376e-09
5.03408e-09
2.39571e-09
1.09231e-09
4.80853e-10
2.0581e-10
8.61346e-11
3.53842e-11
1.42789e-11
5.62764e-12
2.11624e-12
6.97619e-13
1.21468e-13
0.99971
0.998768
0.997317
0.995179
0.992132
0.98792
0.98226
0.974856
0.965424
0.953717
0.939551
0.922825
0.903529
0.881749
0.85765
0.831463
0.803467
0.773971
0.743294
0.711757
0.679668
0.647317
0.614968
0.58286
0.5512
0.520169
0.489914
0.460558
0.432196
0.4049
0.37872
0.353688
0.329818
0.307113
0.285563
0.265153
0.245853
0.227633
0.210454
0.194276
0.179054
0.164744
0.151301
0.138679
0.126833
0.11572
0.105296
0.0955197
0.0863525
0.0777565
0.0696963
0.0621387
0.0550529
0.0484109
0.0421879
0.0363627
0.0309184
0.025885
0.0212659
0.0169368
0.0130664
0.00959101
0.00664037
0.00424732
0.00267007
0.00165836
0.00101432
0.000609227
0.000358376
0.000205928
0.000115274
6.26821e-05
3.30064e-05
1.67736e-05
8.19778e-06
3.84978e-06
1.75389e-06
8.19862e-07
4.47317e-07
2.89209e-07
2.08006e-07
1.53088e-07
1.10638e-07
7.6961e-08
5.0821e-08
3.15385e-08
1.82858e-08
9.88964e-09
4.9987e-09
2.37753e-09
1.08333e-09
4.76566e-10
2.03823e-10
8.52369e-11
3.49875e-11
1.41076e-11
5.55594e-12
2.08791e-12
6.87951e-13
1.19757e-13
0.99971
0.998764
0.997309
0.995165
0.992109
0.987885
0.982209
0.974785
0.965328
0.953591
0.939389
0.922622
0.903281
0.881451
0.857299
0.831058
0.803007
0.773457
0.742729
0.711143
0.679009
0.646618
0.614235
0.582098
0.550417
0.519369
0.489105
0.459745
0.431385
0.404096
0.377928
0.352912
0.329062
0.306381
0.284858
0.264475
0.245207
0.227018
0.209872
0.193726
0.178538
0.164262
0.150852
0.138262
0.126448
0.115365
0.104971
0.0952234
0.0860834
0.0775133
0.0694776
0.061943
0.0548787
0.0482569
0.0420525
0.0362445
0.030816
0.0258005
0.0211937
0.0168756
0.0130155
0.00954961
0.00660784
0.00422391
0.00265469
0.00164836
0.00100792
0.000605215
0.000355919
0.000204462
0.000114425
6.22063e-05
3.27491e-05
1.664e-05
8.1314e-06
3.81845e-06
1.73997e-06
8.14165e-07
4.44898e-07
2.87748e-07
2.0689e-07
1.52184e-07
1.09921e-07
7.64182e-08
5.04334e-08
3.1279e-08
1.81233e-08
9.79427e-09
4.94603e-09
2.35046e-09
1.06995e-09
4.70178e-10
2.00863e-10
8.38991e-11
3.43966e-11
1.38525e-11
5.44921e-12
2.04575e-12
6.7357e-13
1.17213e-13
0.999708
0.998759
0.997298
0.995145
0.992077
0.987837
0.98214
0.974688
0.965197
0.953418
0.939168
0.922344
0.902941
0.881044
0.85682
0.830505
0.80238
0.772757
0.741958
0.710307
0.678113
0.645668
0.61324
0.581065
0.549354
0.518286
0.488009
0.458645
0.430288
0.40301
0.376859
0.351865
0.328044
0.305394
0.283907
0.263564
0.244337
0.226192
0.20909
0.19299
0.177847
0.163616
0.15025
0.137705
0.125933
0.114892
0.104538
0.0948284
0.0857252
0.07719
0.0691872
0.0616835
0.0546482
0.0480533
0.0418738
0.0360888
0.0306813
0.02569
0.0210995
0.0167959
0.0129492
0.00949593
0.00656576
0.00419373
0.00263483
0.00163544
0.000999664
0.000600043
0.000352754
0.000202576
0.000113334
6.15951e-05
3.2419e-05
1.64687e-05
8.04647e-06
3.77842e-06
1.72223e-06
8.06943e-07
4.41843e-07
2.85893e-07
2.05464e-07
1.51023e-07
1.08996e-07
7.57147e-08
4.993e-08
3.09416e-08
1.79117e-08
9.66997e-09
4.87733e-09
2.31514e-09
1.05249e-09
4.61845e-10
1.97001e-10
8.21546e-11
3.36262e-11
1.35201e-11
5.31016e-12
1.99085e-12
6.54844e-13
1.139e-13
0.999707
0.998752
0.997284
0.995119
0.992036
0.987775
0.98205
0.974563
0.965027
0.953195
0.938881
0.921986
0.902503
0.880518
0.856203
0.829794
0.801574
0.771858
0.74097
0.709235
0.676965
0.644453
0.611966
0.579745
0.547998
0.516904
0.486612
0.457244
0.428892
0.401628
0.3755
0.350537
0.326752
0.304145
0.282705
0.262412
0.243238
0.225149
0.208104
0.192062
0.176977
0.162803
0.149495
0.137006
0.125289
0.1143
0.103997
0.0943363
0.0852793
0.076788
0.0688267
0.061362
0.0543631
0.0478021
0.041654
0.0358977
0.0305165
0.0255555
0.020985
0.0166992
0.0128691
0.00943119
0.00651525
0.0041577
0.00261108
0.00162001
0.000989799
0.000593868
0.000348979
0.000200329
0.000112035
6.08689e-05
3.20274e-05
1.62659e-05
7.94607e-06
3.73122e-06
1.70139e-06
7.98522e-07
4.38297e-07
2.83726e-07
2.03782e-07
1.49641e-07
1.07882e-07
7.4873e-08
4.93259e-08
3.05349e-08
1.76558e-08
9.51939e-09
4.79401e-09
2.27228e-09
1.03131e-09
4.51729e-10
1.92313e-10
8.00376e-11
3.26917e-11
1.31171e-11
5.14171e-12
1.92438e-12
6.32184e-13
1.09892e-13
0.999705
0.998744
0.997266
0.995087
0.991984
0.987697
0.981937
0.974406
0.964815
0.952916
0.938524
0.921538
0.901956
0.879864
0.855435
0.828909
0.800572
0.770742
0.739744
0.707907
0.675545
0.642951
0.610395
0.578118
0.546327
0.515204
0.484896
0.455524
0.427181
0.399937
0.373839
0.348914
0.325176
0.302621
0.28124
0.261011
0.241904
0.223883
0.206909
0.190938
0.175925
0.161823
0.148585
0.136164
0.124514
0.11359
0.103348
0.0937469
0.0847464
0.0763087
0.0683978
0.0609806
0.054026
0.0475061
0.0413959
0.0356743
0.0303246
0.0254
0.0208524
0.0165873
0.0127767
0.00935684
0.00645762
0.00411691
0.00258421
0.00160255
0.000978655
0.000586901
0.000344726
0.000197801
0.000110577
6.0055e-05
3.15895e-05
1.60396e-05
7.83435e-06
3.67886e-06
1.6784e-06
7.89319e-07
4.34447e-07
2.81352e-07
2.01917e-07
1.48097e-07
1.06646e-07
7.39183e-08
4.86367e-08
3.00699e-08
1.73629e-08
9.34653e-09
4.69813e-09
2.22287e-09
1.00685e-09
4.40046e-10
1.86899e-10
7.75932e-11
3.16134e-11
1.26525e-11
4.94763e-12
1.84785e-12
6.06109e-13
1.05281e-13
0.999702
0.998734
0.997244
0.995048
0.991921
0.987601
0.981799
0.974213
0.964554
0.952573
0.938085
0.920991
0.901287
0.879065
0.854499
0.827832
0.799355
0.769387
0.738259
0.706301
0.673829
0.641139
0.608502
0.576159
0.54432
0.513163
0.482839
0.453465
0.425135
0.397917
0.371857
0.346981
0.323301
0.300812
0.279503
0.259351
0.240325
0.222388
0.2055
0.189615
0.174689
0.160672
0.147518
0.135179
0.123608
0.112761
0.102593
0.0930622
0.0841288
0.0757545
0.0679035
0.0605425
0.0536404
0.0471693
0.0411041
0.0354235
0.0301118
0.0252289
0.0207028
0.0164606
0.0126729
0.00927419
0.00639439
0.00407281
0.00255519
0.00158371
0.000966648
0.000579407
0.00034016
0.000195093
0.000109019
5.91876e-05
3.1124e-05
1.57998e-05
7.7164e-06
3.62381e-06
1.65433e-06
7.79824e-07
4.30507e-07
2.78893e-07
1.9995e-07
1.46447e-07
1.05308e-07
7.28828e-08
4.78847e-08
2.95602e-08
1.70404e-08
9.15573e-09
4.59206e-09
2.16812e-09
9.79725e-10
4.27075e-10
1.80885e-10
7.48773e-11
3.04155e-11
1.21366e-11
4.73235e-12
1.76303e-12
5.77233e-13
1.00177e-13
0.999699
0.998721
0.997217
0.995
0.991844
0.987485
0.981631
0.973979
0.964239
0.95216
0.937557
0.920332
0.900483
0.878105
0.853376
0.826542
0.797899
0.767769
0.736487
0.704387
0.671787
0.638986
0.606256
0.573839
0.541946
0.510755
0.480414
0.451043
0.422732
0.395548
0.369536
0.344721
0.321112
0.298703
0.277482
0.257423
0.238494
0.220658
0.203872
0.18809
0.173265
0.159349
0.146294
0.134051
0.122574
0.111817
0.101735
0.0922861
0.0834305
0.0751297
0.067348
0.0600519
0.0532108
0.0467966
0.0407847
0.0351543
0.0298948
0.0250717
0.0205127
0.0163118
0.0125569
0.00918494
0.00632787
0.00402731
0.00252531
0.00156437
0.000954346
0.000571745
0.000335503
0.000192339
0.000107438
5.83102e-05
3.06549e-05
1.55592e-05
7.59863e-06
3.56915e-06
1.63065e-06
7.7065e-07
4.26725e-07
2.76481e-07
1.97957e-07
1.44713e-07
1.03891e-07
7.1785e-08
4.70854e-08
2.90164e-08
1.66952e-08
8.95079e-09