/*--------------------------------*- C++ -*----------------------------------*\
  =========                 |
  \\      /  F ield         | OpenFOAM: The Open Source CFD Toolbox
   \\    /   O peration     | Website:  https://openfoam.org
    \\  /    A nd           | Version:  8
     \\/     M anipulation  |
\*---------------------------------------------------------------------------*/
FoamFile
{
    version     2.0;
    format      ascii;
    class       volScalarField;
    location    "0.05/fluid";
    object      CO2;
}
// * * * * * * * * * * * * * * * * * * * * * * * * * * * * * * * * * * * * * //

dimensions      [0 0 0 0 0 0 0];

internalField   nonuniform List<scalar> 
4000
(
2.76335e-08
1.22982e-07
2.93157e-07
5.99908e-07
1.15022e-06
2.12394e-06
3.81289e-06
6.67181e-06
1.13782e-05
1.88944e-05
3.05206e-05
4.79304e-05
7.31798e-05
0.00010869
0.000157211
0.000221767
0.000305603
0.000412125
0.000544848
0.000707358
0.000903111
0.0011353
0.00140816
0.00172511
0.00208948
0.00250454
0.00297342
0.00349912
0.00408446
0.0047321
0.00544451
0.00622392
0.00707239
0.00799172
0.00898342
0.0100487
0.0111885
0.0124034
0.0136939
0.0150601
0.0165016
0.0180179
0.0196083
0.0212715
0.0230062
0.0248104
0.0266821
0.0286189
0.0306178
0.0326753
0.0347875
0.0369492
0.039154
0.0413935
0.0436563
0.0459249
0.0481603
0.0503706
0.0524887
0.0544463
0.0561372
0.0574122
0.0580602
0.0577356
0.0559025
0.0528449
0.049089
0.0449749
0.0407252
0.0364887
0.0323641
0.0284166
0.0246902
0.0212139
0.0180062
0.0150804
0.012448
0.0101125
0.00806045
0.00627607
0.00476552
0.00351579
0.0025096
0.00172512
0.00113616
0.000713138
0.000424453
0.000238523
0.000126163
6.36297e-05
3.07243e-05
1.42826e-05
6.43168e-06
2.82046e-06
1.20866e-06
5.06308e-07
2.06033e-07
7.95398e-08
2.67578e-08
4.71408e-09
2.8083e-08
1.2495e-07
2.9765e-07
6.08545e-07
1.16554e-06
2.14991e-06
3.85572e-06
6.7413e-06
1.14902e-05
1.90744e-05
3.081e-05
4.83939e-05
7.39139e-05
0.000109832
0.000158943
0.000224323
0.000309271
0.000417261
0.000551805
0.000716184
0.000913928
0.00114991
0.00142691
0.00174839
0.00211777
0.00253832
0.00301319
0.00354538
0.0041377
0.00479278
0.00551307
0.00630079
0.00715794
0.0080863
0.00908737
0.0101623
0.011312
0.012537
0.0138378
0.0152143
0.0166663
0.0181933
0.0197942
0.021468
0.0232132
0.0250279
0.02691
0.028857
0.0308659
0.0329333
0.035055
0.037226
0.0394397
0.0416876
0.0439581
0.046234
0.0484739
0.0506878
0.0528099
0.0547638
0.0564454
0.057704
0.058325
0.0579568
0.0560567
0.0529499
0.0491569
0.0450144
0.0407444
0.0364915
0.0323544
0.0283981
0.0246651
0.0211835
0.0179725
0.0150458
0.0124148
0.0100824
0.00803335
0.0062528
0.00474666
0.00350138
0.00249915
0.00171778
0.00113134
0.000710274
0.000422967
0.000237836
0.000125956
6.36314e-05
3.07917e-05
1.43509e-05
6.47905e-06
2.84833e-06
1.22351e-06
5.13725e-07
2.0959e-07
8.10529e-08
2.72947e-08
4.81036e-09
2.92095e-08
1.29933e-07
3.09319e-07
6.31718e-07
1.20806e-06
2.22406e-06
3.98009e-06
6.94331e-06
1.18091e-05
1.95664e-05
3.15543e-05
4.95009e-05
7.55355e-05
0.000112172
0.000162265
0.000228946
0.000315554
0.000425477
0.000562207
0.000729767
0.000932767
0.00117394
0.00145693
0.00178529
0.00216248
0.00259181
0.00307643
0.00361934
0.00422332
0.00489101
0.00562479
0.00642684
0.00729913
0.00824337
0.00926098
0.0103531
0.0115204
0.0127636
0.0140829
0.0154782
0.0169493
0.0184954
0.0201156
0.0218087
0.023573
0.0254068
0.0273076
0.0292731
0.0313001
0.0333851
0.035524
0.0377114
0.0399408
0.0422035
0.0444879
0.046777
0.0490275
0.051229
0.0533531
0.0553138
0.056981
0.0582122
0.0587897
0.0583535
0.056341
0.0531524
0.0492983
0.0451089
0.0408021
0.0365234
0.032366
0.0283938
0.0246498
0.021162
0.0179476
0.0150205
0.0123915
0.0100628
0.00801685
0.00623989
0.00473754
0.00349588
0.00249683
0.00171822
0.00113363
0.000713409
0.000426169
0.00024084
0.00012827
6.51132e-05
3.16605e-05
1.48237e-05
6.72227e-06
2.96795e-06
1.27953e-06
5.38142e-07
2.1935e-07
8.48221e-08
2.85723e-08
5.03685e-09
3.05716e-08
1.35834e-07
3.22755e-07
6.57938e-07
1.25597e-06
2.30796e-06
4.12265e-06
7.17844e-06
1.21861e-05
2.01577e-05
3.24624e-05
5.08657e-05
7.75424e-05
0.00011506
0.000166335
0.00023453
0.000323007
0.000435346
0.000576051
0.000748904
0.000957086
0.00120446
0.00149477
0.00183164
0.00221857
0.0026589
0.00315581
0.0037123
0.00433115
0.00501496
0.00576608
0.00658665
0.00747856
0.00844346
0.00948267
0.0105972
0.0117878
0.0130548
0.0143985
0.0158187
0.0173149
0.0188863
0.020532
0.0222505
0.0240402
0.025899
0.0278245
0.0298141
0.0318646
0.0339724
0.0361333
0.0383416
0.0405907
0.0428713
0.0451714
0.0474741
0.0497346
0.0519372
0.0540603
0.0560046
0.0576576
0.0588581
0.0593833
0.0588621
0.0567281
0.0534477
0.0495223
0.0452771
0.0409258
0.0366104
0.0324273
0.0284361
0.0246773
0.0211776
0.0179549
0.0150231
0.0123922
0.0100637
0.00801779
0.00624136
0.00473983
0.00349902
0.00250053
0.00172184
0.00113699
0.000716746
0.00042934
0.000243274
0.000130004
6.61984e-05
3.23004e-05
1.51784e-05
6.90656e-06
3.05777e-06
1.32214e-06
5.5795e-07
2.28702e-07
8.88086e-08
2.99936e-08
5.2929e-09
3.23996e-08
1.438e-07
3.40808e-07
6.91703e-07
1.31396e-06
2.40437e-06
4.28155e-06
7.4449e-06
1.26213e-05
2.08471e-05
3.35225e-05
5.24518e-05
7.98541e-05
0.000118344
0.000170883
0.000240729
0.000331905
0.000448319
0.000593304
0.000770834
0.000984849
0.00123925
0.00153785
0.00188435
0.00228231
0.00273513
0.00324601
0.00381796
0.00445378
0.00515602
0.00592702
0.00676884
0.00768331
0.00867199
0.00973612
0.0108766
0.0120939
0.0133886
0.0147605
0.0162093
0.0177345
0.0193352
0.0210102
0.0227579
0.0245765
0.026464
0.0284178
0.0304349
0.0325122
0.0346459
0.0368314
0.0390632
0.041334
0.0436344
0.0459517
0.0482684
0.0505402
0.0527432
0.0548649
0.0568006
0.0584205
0.0595954
0.0600698
0.0594664
0.0572066
0.0538304
0.0498298
0.0455241
0.0411237
0.036768
0.0325491
0.0285305
0.0247522
0.0212381
0.0180039
0.0150628
0.0124252
0.0100921
0.00804177
0.00626157
0.00475698
0.00351318
0.00251173
0.00173171
0.00114576
0.000723694
0.000434378
0.000246798
0.000132353
6.76097e-05
3.31102e-05
1.5623e-05
7.14107e-06
3.17647e-06
1.37892e-06
5.85179e-07
2.40822e-07
9.38179e-08
3.17548e-08
5.60899e-09
3.44283e-08
1.52684e-07
3.61341e-07
7.32124e-07
1.38747e-06
2.53032e-06
4.48532e-06
7.75097e-06
1.30825e-05
2.15425e-05
3.45705e-05
5.40286e-05
8.22214e-05
0.000121893
0.000176205
0.000248734
0.00034287
0.00046253
0.000611711
0.000794464
0.00101484
0.00127684
0.00158437
0.00194124
0.00235105
0.00281727
0.00334315
0.00393171
0.00458574
0.00530778
0.00610012
0.00696478
0.0079035
0.00891776
0.0100087
0.011177
0.0124232
0.0137474
0.0151496
0.0166292
0.0181856
0.0198175
0.0215238
0.0233028
0.0251524
0.0270706
0.0290543
0.0311001
0.0332051
0.0353655
0.0375765
0.0398322
0.042125
0.0444451
0.0467794
0.0491095
0.0513924
0.0535962
0.0557145
0.0576374
0.059226
0.0603589
0.060771
0.0600867
0.0577218
0.0542611
0.0501911
0.0458279
0.0413793
0.0369833
0.032731
0.0286825
0.0248767
0.0213403
0.0180885
0.015135
0.0124875
0.0101454
0.00808647
0.00629821
0.00478592
0.00353578
0.00253097
0.0017468
0.00115688
0.000731699
0.00043996
0.000250543
0.000134757
6.90218e-05
3.39084e-05
1.60573e-05
7.36938e-06
3.29324e-06
1.43728e-06
6.12633e-07
2.53014e-07
9.888e-08
3.35437e-08
5.93082e-09
3.6499e-08
1.61736e-07
3.82172e-07
7.72777e-07
1.46126e-06
2.65908e-06
4.70506e-06
8.12222e-06
1.36858e-05
2.24936e-05
3.60304e-05
5.62122e-05
8.54048e-05
0.000126411
0.00018243
0.000256996
0.000353896
0.000477117
0.000630771
0.000819029
0.00104606
0.00131597
0.00163279
0.00200038
0.00242247
0.00290255
0.00344392
0.00404962
0.00472244
0.0054649
0.00627925
0.00716743
0.00813112
0.00917169
0.0102901
0.0114871
0.0127628
0.0141175
0.0155506
0.0170617
0.0186497
0.0203136
0.0220516
0.023862
0.0257427
0.0276915
0.0297063
0.0317798
0.0339125
0.0360995
0.0383357
0.0406147
0.0429288
0.0452679
0.0476183
0.0499613
0.0522555
0.0544612
0.0565778
0.0584919
0.0600612
0.0611635
0.0615223
0.0607519
0.0582915
0.0547525
0.050616
0.046195
0.0416959
0.0372554
0.032964
0.028881
0.0250454
0.0214823
0.0182076
0.0152352
0.0125715
0.0102174
0.00814696
0.00634692
0.00482484
0.00356797
0.00255556
0.00176511
0.00117016
0.000741051
0.000446331
0.000254721
0.000137382
7.05417e-05
3.47574e-05
1.65145e-05
7.60655e-06
3.41196e-06
1.49486e-06
6.39298e-07
2.65289e-07
1.0403e-07
3.53714e-08
6.26002e-09
3.85589e-08
1.70729e-07
4.02818e-07
8.12911e-07
1.5337e-06
2.78443e-06
4.91575e-06
8.46803e-06
1.42404e-05
2.33631e-05
3.73632e-05
5.82105e-05
8.83359e-05
0.000130619
0.000188347
0.000265154
0.00036495
0.000491844
0.000650072
0.000843928
0.0010777
0.00135561
0.00168179
0.0020602
0.00249463
0.00298864
0.00354555
0.00416844
0.00486009
0.00562299
0.00645934
0.00737103
0.00835964
0.00942645
0.0105723
0.0117977
0.0131029
0.0144876
0.0159514
0.0174936
0.0191129
0.0208081
0.0225773
0.0244185
0.0263295
0.0283077
0.0303506
0.0324528
0.0346124
0.0368248
0.0390847
0.0413856
0.0437197
0.0460763
0.0484415
0.0507961
0.053101
0.0553083
0.0574231
0.0593287
0.0608802
0.0619536
0.0622713
0.0614419
0.0589084
0.0553024
0.0511043
0.0466268
0.0420762
0.037589
0.0332553
0.0291344
0.0252646
0.0216703
0.0183663
0.0153653
0.0126785
0.010305
0.00821977
0.00640663
0.00487373
0.00360555
0.00258383
0.00178587
0.00118499
0.000751317
0.000453189
0.000259128
0.000140099
7.20925e-05
3.56137e-05
1.69717e-05
7.84303e-06
3.53049e-06
1.5522e-06
6.66373e-07
2.77356e-07
1.09129e-07
3.71832e-08
6.58625e-09
4.05797e-08
1.79548e-07
4.23053e-07
8.52215e-07
1.60457e-06
2.9069e-06
5.12125e-06
8.80464e-06
1.47797e-05
2.4209e-05
3.86619e-05
6.0162e-05
9.12065e-05
0.000134754
0.000194181
0.000273225
0.000375906
0.000506451
0.000669214
0.000868609
0.00110904
0.00139485
0.00173025
0.0021193
0.00256586
0.00307354
0.00364571
0.00428544
0.00499551
0.00577839
0.00663623
0.00757084
0.00858373
0.00967606
0.0108486
0.0121016
0.0134352
0.014849
0.0163425
0.0179146
0.019564
0.0212892
0.0230881
0.0249585
0.0268977
0.0289026
0.0309694
0.0331011
0.0352871
0.0375236
0.0398057
0.0421269
0.044479
0.0468514
0.0492298
0.0515945
0.0539089
0.0561172
0.0582298
0.0601272
0.0616624
0.0627103
0.062993
0.0621137
0.0595217
0.0558586
0.0516054
0.0470754
0.0424753
0.0379418
0.0335654
0.0294053
0.0254998
0.0218733
0.0185405
0.0155149
0.0128049
0.0104104
0.00830444
0.00647467
0.00492727
0.00364651
0.0026145
0.00180824
0.00120083
0.000762158
0.000460343
0.000263667
0.000142861
7.36539e-05
3.64681e-05
1.74245e-05
8.07563e-06
3.64647e-06
1.60843e-06
6.92639e-07
2.89023e-07
1.1399e-07
3.89136e-08
6.8984e-09
4.25289e-08
1.88055e-07
4.42569e-07
8.90122e-07
1.67294e-06
3.0251e-06
5.31969e-06
9.12996e-06
1.53015e-05
2.50283e-05
3.99211e-05
6.20562e-05
9.39955e-05
0.000138774
0.000199857
0.000281079
0.000386566
0.000520657
0.000687821
0.000892586
0.00113947
0.00143291
0.00177721
0.00217653
0.00263478
0.00315562
0.00374245
0.00439835
0.00512609
0.00592812
0.00680651
0.00776304
0.0087991
0.00991576
0.0111136
0.0123929
0.0137535
0.0151949
0.0167164
0.0183168
0.0199946
0.021748
0.023575
0.0254732
0.0274398
0.0294719
0.0315663
0.0337196
0.0359275
0.038185
0.0404868
0.042826
0.0451942
0.0475805
0.0499704
0.0523439
0.0546665
0.0568752
0.0589853
0.0608751
0.0623964
0.0634233
0.0636783
0.0627615
0.060123
0.0564112
0.0521087
0.04753
0.0428827
0.0383043
0.0338856
0.0296861
0.0257443
0.0220844
0.0187213
0.0156685
0.0129343
0.0105186
0.00839466
0.00654503
0.00498236
0.0036892
0.00264644
0.00183144
0.00121713
0.000773221
0.00046757
0.000268203
0.000145594
7.51853e-05
3.73e-05
1.78628e-05
8.29979e-06
3.75792e-06
1.66229e-06
7.17874e-07
3.00364e-07
1.18656e-07
4.05503e-08
7.1919e-09
4.43761e-08
1.96116e-07
4.61064e-07
9.26059e-07
1.73778e-06
3.13727e-06
5.50818e-06
9.43924e-06
1.57981e-05
2.58088e-05
4.11217e-05
6.38637e-05
9.66582e-05
0.000142613
0.000205277
0.000288578
0.000396741
0.000534211
0.000705564
0.000915434
0.00116844
0.00146912
0.00182187
0.00223091
0.00270021
0.00323348
0.00383415
0.0045053
0.00524969
0.00606972
0.00696744
0.00794453
0.00900232
0.0101418
0.0113633
0.0126671
0.0140529
0.01552
0.0170675
0.0186941
0.0203982
0.0221777
0.0240306
0.0259541
0.0279455
0.0300017
0.0321193
0.0342943
0.0365227
0.0387994
0.0411189
0.0434742
0.0458567
0.0482553
0.0506552
0.0530361
0.0553656
0.0575744
0.0596821
0.0615642
0.0630741
0.0640844
0.0643185
0.0633747
0.0607005
0.0569477
0.0526014
0.0479781
0.0432866
0.0386654
0.034206
0.029968
0.0259904
0.0222974
0.0189038
0.0158234
0.0130644
0.0106273
0.00848484
0.00661796
0.00503818
0.00373221
0.00267846
0.0018546
0.00123334
0.00078416
0.00047467
0.000272627
0.000148238
7.66582e-05
3.80958e-05
1.82801e-05
8.51249e-06
3.86341e-06
1.71319e-06
7.41679e-07
3.11047e-07
1.23128e-07
4.21307e-08
7.4755e-09
4.60939e-08
2.03613e-07
4.78269e-07
9.59496e-07
1.79814e-06
3.24177e-06
5.68392e-06
9.72788e-06
1.62619e-05
2.65385e-05
4.22452e-05
6.55561e-05
9.91525e-05
0.00014621
0.000210357
0.000295605
0.000406273
0.000546903
0.00072217
0.000936806
0.00119552
0.00150295
0.00186356
0.00228163
0.0027612
0.00330602
0.00391952
0.00460479
0.00536458
0.00620126
0.00711682
0.00811288
0.00919068
0.0103511
0.0115944
0.0129207
0.0143295
0.0158202
0.0173914
0.0190419
0.0207699
0.0225732
0.0244494
0.0263958
0.0284095
0.0304872
0.0326254
0.0348201
0.0370669
0.0393608
0.0416961
0.0440657
0.0464609
0.0488703
0.051279
0.0536666
0.0560021
0.0582106
0.0603136
0.0621886
0.0636895
0.0646875
0.0649065
0.0639445
0.0612437
0.0574568
0.0530721
0.0484085
0.0436763
0.0390152
0.0345171
0.0302426
0.0262305
0.0225055
0.0190824
0.015975
0.0131917
0.0107333
0.00857249
0.00668827
0.00509359
0.00377316
0.00270933
0.00187695
0.00124897
0.000794678
0.000481469
0.000276842
0.000150742
7.80468e-05
3.88429e-05
1.86705e-05
8.71099e-06
3.96167e-06
1.76054e-06
7.63817e-07
3.20976e-07
1.27273e-07
4.35978e-08
7.7394e-09
4.76615e-08
2.10455e-07
4.93972e-07
9.90026e-07
1.85328e-06
3.33729e-06
5.84467e-06
9.99212e-06
1.6687e-05
2.72076e-05
4.32761e-05
6.711e-05
0.000101443
0.000149515
0.000215023
0.000302059
0.000415026
0.000558554
0.000737407
0.000956407
0.00122035
0.00153394
0.00190173
0.00232805
0.00281699
0.00337232
0.00399749
0.00469561
0.00546939
0.00632117
0.00725291
0.00826614
0.00936205
0.0105414
0.0118044
0.013151
0.0145805
0.0160923
0.0176849
0.0193568
0.0211061
0.0229306
0.0248276
0.0267944
0.0288279
0.0309247
0.0330811
0.0352931
0.0375562
0.0398653
0.0422145
0.0445966
0.047003
0.0494221
0.0518391
0.0542334
0.0565763
0.0587953
0.060865
0.0627403
0.0642372
0.0652274
0.0654368
0.0644638
0.0617437
0.0579287
0.0535109
0.0488114
0.0440424
0.0393446
0.034811
0.0305024
0.0264581
0.0227029
0.019252
0.016119
0.0133127
0.0108339
0.00865563
0.00675496
0.0051461
0.00381386
0.00273914
0.00189828
0.00126376
0.000804572
0.000487832
0.000280769
0.000153067
7.93318e-05
3.95323e-05
1.90299e-05
8.89328e-06
4.05177e-06
1.80391e-06
7.84074e-07
3.30054e-07
1.31058e-07
4.49363e-08
7.97996e-09
4.90611e-08
2.16564e-07
5.07998e-07
1.0173e-06
1.90258e-06
3.42273e-06
5.98856e-06
1.02288e-05
1.7068e-05
2.7808e-05
4.42018e-05
6.85059e-05
0.000103502
0.000152486
0.000219218
0.000307861
0.000422894
0.000569023
0.000751094
0.000974005
0.00124263
0.00156174
0.00193595
0.00236964
0.00286694
0.00343165
0.00406723
0.00477679
0.00556302
0.00642824
0.00737434
0.00840282
0.00951478
0.0107109
0.0119913
0.0133558
0.0148037
0.016334
0.0179455
0.0196362
0.0214043
0.0232474
0.0251627
0.0271474
0.0291982
0.0313116
0.033484
0.035711
0.0379881
0.0403102
0.0426712
0.045064
0.0474796
0.0499066
0.0523297
0.0547284
0.0570739
0.059297
0.061361
0.0632306
0.0647215
0.0657046
0.0659065
0.0649266
0.0621931
0.0583554
0.0539094
0.0491786
0.0443771
0.0396465
0.0350808
0.0307412
0.0266676
0.022885
0.0194084
0.0162519
0.0134243
0.0109266
0.00873219
0.00681631
0.00519416
0.00385058
0.00276634
0.00191782
0.00127729
0.000813607
0.00049363
0.000284339
0.000155176
8.0494e-05
4.01542e-05
1.93533e-05
9.057e-06
4.13254e-06
1.84274e-06
8.02194e-07
3.38167e-07
1.34439e-07
4.6131e-08
8.19456e-09
5.02799e-08
2.21885e-07
5.20215e-07
1.04107e-06
1.94555e-06
3.49726e-06
6.11419e-06
1.04356e-05
1.74011e-05
2.83332e-05
4.50118e-05
6.97281e-05
0.000105306
0.000155088
0.000222893
0.000312943
0.000429784
0.000578189
0.000763073
0.000989403
0.00126212
0.00158604
0.00196585
0.00240597
0.00291055
0.00348342
0.00412806
0.00484756
0.00564461
0.00652148
0.00748004
0.00852173
0.00964759
0.0108582
0.0121537
0.0135336
0.0149973
0.0165437
0.0181713
0.0198783
0.0216625
0.0235215
0.0254524
0.0274524
0.0295179
0.0316456
0.0338314
0.0360712
0.0383602
0.0406933
0.0430643
0.0454659
0.0478892
0.0503225
0.0527505
0.0551525
0.0574996
0.0597265
0.0617878
0.063653
0.0651388
0.0661162
0.0663124
0.0653279
0.0625857
0.0587302
0.0542609
0.0495036
0.0446739
0.0399148
0.0353209
0.0309541
0.0268546
0.0230475
0.0195481
0.0163707
0.013524
0.0110094
0.00880054
0.00687105
0.00523697
0.00388316
0.00279028
0.00193512
0.00128933
0.000821658
0.000498794
0.000287512
0.000157044
8.15208e-05
4.0702e-05
1.96374e-05
9.20051e-06
4.20321e-06
1.87666e-06
8.18005e-07
3.45241e-07
1.37384e-07
4.71712e-08
8.38135e-09
5.13083e-08
2.26374e-07
5.30526e-07
1.06114e-06
1.98185e-06
3.56024e-06
6.22039e-06
1.06106e-05
1.76831e-05
2.8778e-05
4.56983e-05
7.07642e-05
0.000106835
0.000157295
0.00022601
0.000317254
0.000435627
0.000585961
0.000773229
0.00100245
0.00127862
0.00160663
0.00199117
0.00243671
0.00294744
0.0035272
0.00417947
0.00490734
0.00571349
0.00660017
0.00756921
0.00862199
0.00975952
0.0109823
0.0122904
0.0136832
0.0151602
0.01672
0.0183611
0.0200816
0.0218793
0.0237515
0.0256955
0.0277081
0.0297859
0.0319252
0.0341221
0.0363724
0.0386713
0.0410134
0.0433926
0.0458015
0.048231
0.0506693
0.0531012
0.0555059
0.0578544
0.0600844
0.0621438
0.0640057
0.0654877
0.0664607
0.0666528
0.0656656
0.0629178
0.0590487
0.0545604
0.0497812
0.044928
0.0401449
0.0355271
0.0311371
0.0270153
0.0231873
0.0196684
0.0164729
0.0136098
0.0110807
0.00885934
0.00691814
0.00527382
0.00391133
0.00281136
0.00195016
0.00129973
0.000828574
0.000503214
0.000290221
0.000158635
8.23941e-05
4.11673e-05
1.98785e-05
9.3221e-06
4.26303e-06
1.90535e-06
8.31365e-07
3.51214e-07
1.3987e-07
4.80487e-08
8.53888e-09
5.21385e-08
2.29999e-07
5.38853e-07
1.07735e-06
2.01118e-06
3.61116e-06
6.30629e-06
1.07522e-05
1.79114e-05
2.91383e-05
4.62546e-05
7.16041e-05
0.000108075
0.000159085
0.000228537
0.000320749
0.000440365
0.000592262
0.00078146
0.00101303
0.001292
0.0016233
0.00201166
0.00246159
0.00297728
0.0035626
0.00422103
0.00495566
0.00576915
0.00666373
0.0076412
0.00870292
0.00984982
0.0110824
0.0124006
0.0138038
0.0152914
0.016862
0.0185139
0.0202452
0.0220536
0.0239365
0.0258908
0.0279135
0.0300011
0.0321498
0.0343557
0.0366144
0.0389209
0.0412701
0.0436557
0.0460702
0.0485045
0.0509469
0.0533818
0.0557885
0.0581382
0.0603705
0.0624287
0.0642882
0.0657674
0.0667373
0.0669267
0.0659382
0.063187
0.0593075
0.0548044
0.0500077
0.0451356
0.040333
0.0356958
0.0312869
0.027147
0.0233019
0.019767
0.0165568
0.0136802
0.0111391
0.00890751
0.0069567
0.00530397
0.0039343
0.00282837
0.00196236
0.00130817
0.000834192
0.000506802
0.000292417
0.000159923
8.31007e-05
4.15435e-05
2.00732e-05
9.42027e-06
4.3113e-06
1.92849e-06
8.42138e-07
3.56028e-07
1.41873e-07
4.87554e-08
8.66574e-09
5.27646e-08
2.32733e-07
5.45135e-07
1.08959e-06
2.03333e-06
3.64963e-06
6.37122e-06
1.08592e-05
1.80841e-05
2.9411e-05
4.66758e-05
7.22402e-05
0.000109014
0.000160441
0.000230453
0.000323398
0.000443955
0.000597036
0.000787696
0.00102104
0.00130213
0.00163592
0.00202717
0.00248041
0.00299986
0.00358938
0.00425246
0.00499218
0.0058112
0.00671174
0.00769556
0.008764
0.00991797
0.0111579
0.0124837
0.0138948
0.0153903
0.0169689
0.018629
0.0203684
0.0221849
0.0240757
0.0260378
0.0280681
0.030163
0.0323187
0.0345312
0.036796
0.0391084
0.0414629
0.0438532
0.0462719
0.0487097
0.051155
0.0535922
0.0560004
0.058351
0.060585
0.0626423
0.0645001
0.0659774
0.0669452
0.0671328
0.0661436
0.0633905
0.0595038
0.0549899
0.0501801
0.0452938
0.0404764
0.0358245
0.0314013
0.0272476
0.0233894
0.0198424
0.0166208
0.0137339
0.0111837
0.00894429
0.00698613
0.00532696
0.0039518
0.00284132
0.00197163
0.00131457
0.000838447
0.000509514
0.000294074
0.000160894
8.36324e-05
4.18263e-05
2.02195e-05
9.49399e-06
4.34754e-06
1.94586e-06
8.50225e-07
3.59642e-07
1.43375e-07
4.92857e-08
8.76091e-09
5.31834e-08
2.34562e-07
5.49337e-07
1.09777e-06
2.04814e-06
3.67536e-06
6.41466e-06
1.09308e-05
1.81997e-05
2.95935e-05
4.69578e-05
7.26661e-05
0.000109643
0.000161349
0.000231736
0.000325173
0.000446361
0.000600235
0.000791874
0.0010264
0.00130891
0.00164437
0.00203756
0.00249303
0.00301498
0.00360731
0.0042735
0.00501664
0.00583936
0.00674388
0.00773195
0.00880488
0.00996357
0.0112084
0.0125393
0.0139556
0.0154564
0.0170404
0.0187059
0.0204508
0.0222726
0.0241687
0.026136
0.0281713
0.030271
0.0324313
0.0346482
0.036917
0.0392333
0.0415913
0.0439848
0.0464062
0.0488464
0.0512936
0.0537323
0.0561416
0.0584926
0.0607278
0.0627845
0.0646412
0.0661173
0.0670838
0.0672703
0.0662811
0.0635273
0.0596357
0.0551145
0.0502961
0.0454002
0.040573
0.0359112
0.0314783
0.0273154
0.0234484
0.0198931
0.016664
0.0137701
0.0112138
0.00896906
0.00700594
0.00534242
0.00396355
0.00284998
0.00197782
0.00131884
0.00084128
0.000511318
0.000295174
0.000161538
8.39842e-05
4.20131e-05
2.0316e-05
9.54257e-06
4.37141e-06
1.9573e-06
8.55548e-07
3.62021e-07
1.44365e-07
4.96348e-08
8.82355e-09
5.3391e-08
2.35468e-07
5.51415e-07
1.10181e-06
2.05543e-06
3.68799e-06
6.43594e-06
1.09659e-05
1.82562e-05
2.96826e-05
4.70952e-05
7.28737e-05
0.000109949
0.000161792
0.000232362
0.000326039
0.000447536
0.0006018
0.00079392
0.00102903
0.00131224
0.00164852
0.00204268
0.00249923
0.00302243
0.00361615
0.00428388
0.00502871
0.00585327
0.00675976
0.00774994
0.00882511
0.00998614
0.0112334
0.0125668
0.0139857
0.0154892
0.0170759
0.0187441
0.0204916
0.0223161
0.0242148
0.0261847
0.0282225
0.0303247
0.0324873
0.0347064
0.0369774
0.0392955
0.0416552
0.0440502
0.046473
0.0489143
0.0513625
0.0538019
0.0562117
0.058563
0.0607988
0.0628552
0.0647113
0.0661868
0.0671527
0.0673389
0.0663496
0.0635955
0.0597016
0.0551768
0.050354
0.0454534
0.0406212
0.0359545
0.0315167
0.0273492
0.0234778
0.0199184
0.0166854
0.0137881
0.0112286
0.00898127
0.00701568
0.00535
0.00396929
0.00285421
0.00198084
0.00132091
0.000842645
0.000512182
0.000295698
0.000161843
8.41506e-05
4.21013e-05
2.03615e-05
9.56548e-06
4.38268e-06
1.96271e-06
8.58071e-07
3.6315e-07
1.44836e-07
4.98012e-08
8.85342e-09
5.33906e-08
2.35466e-07
5.5141e-07
1.1018e-06
2.05542e-06
3.68796e-06
6.43589e-06
1.09658e-05
1.8256e-05
2.96824e-05
4.70949e-05
7.28731e-05
0.000109948
0.000161791
0.00023236
0.000326037
0.000447533
0.000601796
0.000793915
0.00102903
0.00131223
0.00164852
0.00204267
0.00249922
0.00302242
0.00361613
0.00428387
0.00502869
0.00585324
0.00675973
0.00774991
0.00882507
0.0099861
0.0112334
0.0125668
0.0139857
0.0154891
0.0170758
0.018744
0.0204915
0.022316
0.0242147
0.0261846
0.0282224
0.0303245
0.0324872
0.0347062
0.0369772
0.0392953
0.041655
0.04405
0.0464728
0.0489142
0.0513623
0.0538017
0.0562115
0.0585628
0.0607986
0.062855
0.0647112
0.0661867
0.0671526
0.0673387
0.0663495
0.0635955
0.0597016
0.0551768
0.050354
0.0454534
0.0406213
0.0359545
0.0315167
0.0273492
0.0234778
0.0199184
0.0166854
0.0137881
0.0112286
0.00898126
0.00701567
0.00534999
0.00396928
0.0028542
0.00198082
0.0013209
0.000842635
0.000512174
0.000295693
0.000161839
8.41483e-05
4.20999e-05
2.03607e-05
9.56506e-06
4.38245e-06
1.96259e-06
8.58014e-07
3.63123e-07
1.44824e-07
4.97968e-08
8.85261e-09
5.31826e-08
2.34559e-07
5.49328e-07
1.09775e-06
2.0481e-06
3.67528e-06
6.4145e-06
1.09306e-05
1.81992e-05
2.95927e-05
4.69565e-05
7.2664e-05
0.00010964
0.000161344
0.00023173
0.000325165
0.00044635
0.000600221
0.000791857
0.00102638
0.00130889
0.00164434
0.00203753
0.00249299
0.00301493
0.00360726
0.00427344
0.00501657
0.00583928
0.00674379
0.00773184
0.00880477
0.00996344
0.0112083
0.0125391
0.0139554
0.0154562
0.0170402
0.0187057
0.0204505
0.0222723
0.0241684
0.0261357
0.028171
0.0302707
0.032431
0.0346478
0.0369168
0.039233
0.0415909
0.0439843
0.0464058
0.0488459
0.0512931
0.0537318
0.056141
0.0584921
0.0607273
0.062784
0.0646407
0.0661168
0.0670834
0.06727
0.0662809
0.0635272
0.0596356
0.0551145
0.0502961
0.0454002
0.040573
0.0359113
0.0314784
0.0273154
0.0234485
0.0198932
0.016664
0.0137702
0.0112138
0.00896906
0.00700593
0.00534241
0.00396353
0.00284997
0.0019778
0.00131882
0.000841262
0.000511303
0.000295163
0.00016153
8.39792e-05
4.201e-05
2.03141e-05
9.54152e-06
4.37084e-06
1.957e-06
8.55401e-07
3.6195e-07
1.44334e-07
4.96233e-08
8.82142e-09
5.27636e-08
2.32729e-07
5.45123e-07
1.08956e-06
2.03327e-06
3.6495e-06
6.37097e-06
1.08587e-05
1.80833e-05
2.94095e-05
4.66733e-05
7.22362e-05
0.000109008
0.000160432
0.000230441
0.000323382
0.000443934
0.00059701
0.000787663
0.001021
0.00130208
0.00163586
0.00202711
0.00248034
0.00299977
0.00358928
0.00425234
0.00499205
0.00581106
0.00671158
0.00769538
0.0087638
0.00991774
0.0111576
0.0124834
0.0138945
0.01539
0.0169686
0.0186286
0.020368
0.0221844
0.0240752
0.0260373
0.0280675
0.0301624
0.0323181
0.0345305
0.0367953
0.0391076
0.0414621
0.0438524
0.046271
0.0487089
0.0511541
0.0535913
0.0559995
0.05835
0.0605841
0.0626414
0.0644992
0.0659765
0.0669444
0.0671321
0.0661431
0.0633902
0.0595036
0.0549898
0.0501801
0.0452938
0.0404765
0.0358245
0.0314013
0.0272477
0.0233895
0.0198424
0.0166208
0.013734
0.0111838
0.00894433
0.00698616
0.00532697
0.0039518
0.00284131
0.00197162
0.00131456
0.00083843
0.0005095
0.000294063
0.000160886
8.36268e-05
4.18227e-05
2.02172e-05
9.4927e-06
4.34683e-06
1.94548e-06
8.50032e-07
3.59548e-07
1.43334e-07
4.927e-08
8.75797e-09
5.21345e-08
2.29982e-07
5.38811e-07
1.07727e-06
2.01101e-06
3.61084e-06
6.30571e-06
1.07511e-05
1.79097e-05
2.91354e-05
4.625e-05
7.15971e-05
0.000108064
0.00015907
0.000228517
0.000320723
0.00044033
0.000592219
0.000781406
0.00101296
0.00129192
0.0016232
0.00201155
0.00246146
0.00297714
0.00356244
0.00422085
0.00495546
0.00576892
0.00666348
0.00764092
0.00870261
0.00984948
0.011082
0.0124001
0.0138034
0.0152909
0.0168614
0.0185133
0.0202446
0.022053
0.0239358
0.0258901
0.0279127
0.0300003
0.0321489
0.0343547
0.0366133
0.0389199
0.041269
0.0436546
0.0460691
0.0485033
0.0509456
0.0533806
0.0557872
0.0581369
0.0603692
0.0624274
0.0642869
0.0657663
0.0667363
0.0669258
0.0659376
0.0631867
0.0593073
0.0548043
0.0500077
0.0451356
0.0403331
0.0356959
0.031287
0.0271472
0.023302
0.0197672
0.0165569
0.0136803
0.0111392
0.00890761
0.00695678
0.00530403
0.00393434
0.00282839
0.00196237
0.00130816
0.000834186
0.000506795
0.00029241
0.000159919
8.30966e-05
4.15406e-05
2.00713e-05
9.41916e-06
4.31066e-06
1.92814e-06
8.41951e-07
3.55934e-07
1.41829e-07
4.87387e-08
8.66257e-09
5.13005e-08
2.2634e-07
5.30445e-07
1.06098e-06
1.98154e-06
3.55968e-06
6.21938e-06
1.06088e-05
1.76802e-05
2.87734e-05
4.56911e-05
7.07533e-05
0.000106819
0.000157273
0.000225979
0.000317214
0.000435575
0.000585896
0.000773148
0.00100236
0.00127851
0.00160649
0.00199101
0.00243653
0.00294723
0.00352696
0.0041792
0.00490705
0.00571317
0.00659981
0.00756881
0.00862156
0.00975904
0.0109818
0.0122898
0.0136826
0.0151595
0.0167193
0.0183604
0.0200808
0.0218784
0.0237506
0.0256945
0.027707
0.0297848
0.031924
0.0341209
0.0363711
0.0386699
0.041012
0.0433912
0.0458
0.0482294
0.0506678
0.0530996
0.0555042
0.0578528
0.0600827
0.0621422
0.0640041
0.0654863
0.0664594
0.0666517
0.0656647
0.0629173
0.0590484
0.0545603
0.0497812
0.0449281
0.040145
0.0355272
0.0311372
0.0270155
0.0231875
0.0196686
0.0164731
0.01361
0.0110809
0.00885948
0.00691826
0.00527392
0.0039114
0.00281139
0.00195017
0.00129974
0.000828589
0.000503226
0.000290228
0.000158639
8.23956e-05
4.11675e-05
1.98782e-05
9.32172e-06
4.26272e-06
1.90514e-06
8.31234e-07
3.51141e-07
1.39833e-07
4.80338e-08
8.53599e-09
5.02679e-08
2.21832e-07
5.20091e-07
1.04083e-06
1.94509e-06
3.49642e-06
6.11272e-06
1.04332e-05
1.73971e-05
2.83267e-05
4.50018e-05
6.97132e-05
0.000105284
0.000155058
0.000222852
0.000312889
0.000429714
0.000578101
0.000762965
0.000989272
0.00126196
0.00158586
0.00196564
0.00240572
0.00291027
0.00348311
0.00412771
0.00484717
0.00564417
0.006521
0.00747952
0.00852117
0.00964697
0.0108575
0.0121529
0.0135328
0.0149965
0.0165428
0.0181704
0.0198773
0.0216614
0.0235204
0.0254513
0.0274511
0.0295166
0.0316442
0.03383
0.0360697
0.0383586
0.0406916
0.0430626
0.0454642
0.0478874
0.0503206
0.0527486
0.0551505
0.0574977
0.0597245
0.0617858
0.0636511
0.0651371
0.0661146
0.0663111
0.0653269
0.0625851
0.0587299
0.0542607
0.0495036
0.044674
0.039915
0.0353211
0.0309544
0.0268548
0.0230477
0.0195484
0.016371
0.0135242
0.0110097
0.00880077
0.00687125
0.00523715
0.00388333
0.00279044
0.00193527
0.00128944
0.000821726
0.000498837
0.00028754
0.000157061
8.15293e-05
4.07058e-05
1.96389e-05
9.20092e-06
4.20324e-06
1.87659e-06
8.17928e-07
3.45187e-07
1.37354e-07
4.71582e-08
8.37875e-09
4.9045e-08
2.16493e-07
5.07831e-07
1.01697e-06
1.90196e-06
3.42162e-06
5.98665e-06
1.02256e-05
1.70628e-05
2.77997e-05
4.41889e-05
6.84868e-05
0.000103475
0.000152447
0.000219166
0.000307792
0.000422805
0.000568911
0.000750956
0.000973838
0.00124243
0.00156151
0.00193567
0.00236933
0.00286658
0.00343124
0.00406678
0.00477629
0.00556247
0.00642764
0.00737368
0.00840211
0.00951401
0.0107101
0.0119904
0.0133548
0.0148027
0.016333
0.0179443
0.019635
0.0214031
0.023246
0.0251613
0.0271459
0.0291966
0.03131
0.0334823
0.0357092
0.0379862
0.0403082
0.0426692
0.0450619
0.0474775
0.0499044
0.0523275
0.054726
0.0570715
0.0592947
0.0613587
0.0632284
0.0647194
0.0657028
0.0659049
0.0649255
0.0621924
0.0583551
0.0539093
0.0491787
0.0443772
0.0396468
0.0350811
0.0307416
0.026668
0.0228854
0.0194088
0.0162523
0.0134247
0.010927
0.00873253
0.00681662
0.00519442
0.00385077
0.00276648
0.00191795
0.00127743
0.000813714
0.000493707
0.000284389
0.000155206
8.05088e-05
4.01608e-05
1.9356e-05
9.05791e-06
4.13276e-06
1.84274e-06
8.02139e-07
3.3812e-07
1.3441e-07
4.61181e-08
8.19193e-09
4.76425e-08
2.10371e-07
4.93776e-07
9.89635e-07
1.85256e-06
3.33599e-06
5.84242e-06
9.98834e-06
1.66808e-05
2.71978e-05
4.32611e-05
6.70877e-05
0.000101411
0.00014947