/*--------------------------------*- C++ -*----------------------------------*\
  =========                 |
  \\      /  F ield         | OpenFOAM: The Open Source CFD Toolbox
   \\    /   O peration     | Website:  https://openfoam.org
    \\  /    A nd           | Version:  8
     \\/     M anipulation  |
\*---------------------------------------------------------------------------*/
FoamFile
{
    version     2.0;
    format      ascii;
    class       volScalarField;
    location    "0.05/fluid";
    object      H2O;
}
// * * * * * * * * * * * * * * * * * * * * * * * * * * * * * * * * * * * * * //

dimensions      [0 0 0 0 0 0 0];

internalField   nonuniform List<scalar> 
4000
(
2.26233e-08
1.00685e-07
2.40005e-07
4.91139e-07
9.41676e-07
1.73885e-06
3.12158e-06
5.46215e-06
9.31526e-06
1.54686e-05
2.49869e-05
3.92402e-05
5.99116e-05
8.89839e-05
0.000128708
0.000181559
0.000250194
0.000337403
0.000446062
0.000579108
0.000739369
0.000929462
0.00115285
0.00141233
0.00171064
0.00205045
0.00243431
0.0028647
0.00334391
0.00387413
0.00445737
0.00509547
0.00579011
0.00654275
0.00735464
0.00822678
0.00915991
0.0101546
0.0112111
0.0123295
0.0135097
0.0147511
0.0160531
0.0174148
0.0188349
0.0203121
0.0218444
0.02343
0.0250665
0.026751
0.0284802
0.03025
0.0320551
0.0338885
0.035741
0.0375983
0.0394284
0.041238
0.0429721
0.0445747
0.0459591
0.0470029
0.0475333
0.0472676
0.0457669
0.0432636
0.0401887
0.0368205
0.0333413
0.029873
0.0264962
0.0232644
0.0202136
0.0173677
0.0147415
0.0123462
0.0101911
0.00827903
0.00659902
0.00513816
0.00390149
0.00287835
0.00205459
0.00141234
0.000930163
0.00058384
0.000347496
0.000195277
0.000103289
5.20931e-05
2.51537e-05
1.16931e-05
5.26556e-06
2.30908e-06
9.89521e-07
4.1451e-07
1.68678e-07
6.51185e-08
2.19064e-08
3.85938e-09
2.29913e-08
1.02295e-07
2.43683e-07
4.9821e-07
9.54216e-07
1.76011e-06
3.15664e-06
5.51904e-06
9.4069e-06
1.5616e-05
2.52239e-05
3.96197e-05
6.05126e-05
8.99182e-05
0.000130125
0.000183651
0.000253197
0.000341608
0.000451758
0.000586333
0.000748225
0.000941424
0.0011682
0.00143139
0.0017338
0.0020781
0.00246688
0.00290257
0.0033875
0.00392381
0.0045135
0.0051584
0.00586014
0.00662019
0.00743975
0.00831978
0.00926101
0.010264
0.0113289
0.0124558
0.0136446
0.0148947
0.0162054
0.0175757
0.0190045
0.0204901
0.022031
0.023625
0.0252696
0.0269622
0.0286992
0.0304766
0.0322889
0.0341293
0.0359881
0.0378514
0.0396852
0.0414977
0.043235
0.0448347
0.0462113
0.0472418
0.0477502
0.0474487
0.0458931
0.0433496
0.0402444
0.0368529
0.033357
0.0298753
0.0264883
0.0232493
0.0201931
0.0173428
0.0147139
0.0123179
0.0101639
0.00825436
0.00657684
0.00511911
0.00388605
0.00286655
0.00204603
0.00140633
0.000926216
0.000581495
0.000346279
0.000194715
0.000103119
5.20945e-05
2.52089e-05
1.1749e-05
5.30434e-06
2.3319e-06
1.00168e-06
4.20582e-07
1.7159e-07
6.63573e-08
2.2346e-08
3.9382e-09
2.39135e-08
1.06375e-07
2.53237e-07
5.17182e-07
9.89032e-07
1.82081e-06
3.25847e-06
5.68443e-06
9.66803e-06
1.60188e-05
2.58332e-05
4.0526e-05
6.18403e-05
9.18341e-05
0.000132845
0.000187436
0.000258341
0.000348334
0.000460274
0.000597454
0.000763648
0.000961094
0.00119277
0.0014616
0.00177041
0.00212189
0.00251865
0.00296312
0.0034576
0.00400422
0.00460496
0.0052616
0.00597574
0.00674878
0.00758188
0.00847596
0.00943166
0.0104495
0.0115296
0.0126719
0.0138762
0.015142
0.0164685
0.0178546
0.019299
0.0208003
0.0223565
0.0239656
0.0256251
0.0273321
0.0290832
0.030874
0.0326992
0.0345517
0.0364219
0.0382959
0.0401384
0.0419407
0.0436797
0.0452849
0.0466498
0.0476578
0.0481306
0.0477735
0.0461258
0.0435154
0.0403601
0.0369303
0.0334043
0.0299014
0.0264977
0.0232457
0.0201806
0.0173251
0.0146935
0.0122972
0.0101448
0.00823829
0.00656332
0.00510855
0.00387858
0.00286205
0.00204413
0.00140669
0.00092809
0.000584062
0.000348901
0.000197173
0.000105013
5.33076e-05
2.59202e-05
1.21361e-05
5.50346e-06
2.42983e-06
1.04754e-06
4.40572e-07
1.7958e-07
6.94431e-08
2.33919e-08
4.12363e-09
2.50287e-08
1.11206e-07
2.64236e-07
5.38648e-07
1.02825e-06
1.8895e-06
3.37518e-06
5.87692e-06
9.97662e-06
1.65029e-05
2.65767e-05
4.16433e-05
6.34832e-05
9.4199e-05
0.000136177
0.000192008
0.000264443
0.000356414
0.000471608
0.000613121
0.000783558
0.00098608
0.00122375
0.00149955
0.00181632
0.00217682
0.00258364
0.00303923
0.00354588
0.0041057
0.00472064
0.00539243
0.00612263
0.00691259
0.00776338
0.00867584
0.00965055
0.0106879
0.0117879
0.0129506
0.0141755
0.0154621
0.0168094
0.0182163
0.0196815
0.0212033
0.0227797
0.0244085
0.0260873
0.0278129
0.029582
0.03139
0.0332312
0.0350984
0.0369814
0.0388666
0.0407173
0.0425205
0.0442587
0.0458504
0.0472038
0.0481866
0.0486166
0.0481899
0.0464428
0.0437571
0.0405435
0.0370679
0.0335056
0.0299726
0.0265479
0.0232804
0.0202031
0.0173379
0.0146995
0.0122992
0.0101454
0.00823904
0.0065641
0.00510974
0.00388046
0.00286462
0.00204717
0.00140966
0.000930847
0.000586794
0.000351497
0.000199166
0.000106433
5.4196e-05
2.64441e-05
1.24265e-05
5.65434e-06
2.50337e-06
1.08243e-06
4.56789e-07
1.87236e-07
7.27068e-08
2.45555e-08
4.33325e-09
2.65253e-08
1.17728e-07
2.79016e-07
5.66291e-07
1.07573e-06
1.96844e-06
3.50527e-06
6.09507e-06
1.0333e-05
1.70673e-05
2.74446e-05
4.29418e-05
6.53758e-05
9.68869e-05
0.0001399
0.000197083
0.000271727
0.000367035
0.000485733
0.000631075
0.000806287
0.00101456
0.00125902
0.0015427
0.00186851
0.00223923
0.00265748
0.00312573
0.00364627
0.00422119
0.0048524
0.00554159
0.00629026
0.00709968
0.00797087
0.00890455
0.00990121
0.0109611
0.0120843
0.0132704
0.0145191
0.0158296
0.0172008
0.0186317
0.0201206
0.0216659
0.0232654
0.0249168
0.0266174
0.0283643
0.0301536
0.0319807
0.0338398
0.0357231
0.0376203
0.0395169
0.0413768
0.0431804
0.0449174
0.0465021
0.0478283
0.0487903
0.0491786
0.0486846
0.0468345
0.0440705
0.0407952
0.0372702
0.0336676
0.0301016
0.0266477
0.0233577
0.0202644
0.0173874
0.0147396
0.0123318
0.0101724
0.00826228
0.00658372
0.00512629
0.0038945
0.00287621
0.00205633
0.00141773
0.000938025
0.000592482
0.000355622
0.000202051
0.000108356
5.53515e-05
2.7107e-05
1.27904e-05
5.84633e-06
2.60055e-06
1.12891e-06
4.79081e-07
1.97159e-07
7.68079e-08
2.59974e-08
4.59203e-09
2.81862e-08
1.25001e-07
2.95827e-07
5.99384e-07
1.13591e-06
2.07155e-06
3.67209e-06
6.34565e-06
1.07105e-05
1.76366e-05
2.83026e-05
4.42327e-05
6.7314e-05
9.97925e-05
0.000144258
0.000203636
0.000280704
0.00037867
0.000500803
0.000650421
0.00083084
0.00104534
0.00129711
0.00158927
0.00192479
0.00230648
0.00273701
0.00321886
0.0037543
0.00434543
0.00499412
0.005702
0.00647053
0.00730089
0.00819401
0.00915049
0.0101707
0.0112549
0.0124028
0.0136142
0.0148884
0.0162244
0.0176214
0.0190778
0.0205921
0.0221624
0.0237865
0.0254614
0.0271847
0.0289534
0.0307636
0.0326102
0.0344873
0.0363868
0.0382978
0.0402055
0.0420745
0.0438787
0.0456129
0.0471872
0.0484878
0.0494153
0.0497527
0.0491924
0.0472563
0.0444231
0.041091
0.0375189
0.0338769
0.0302779
0.0267966
0.0234821
0.0203664
0.0174711
0.0148089
0.0123909
0.0102234
0.00830593
0.00662032
0.00515629
0.00391819
0.00289471
0.00207208
0.00143009
0.00094713
0.000599035
0.000360191
0.000205118
0.000110324
5.65075e-05
2.77605e-05
1.3146e-05
6.03324e-06
2.69615e-06
1.17669e-06
5.01557e-07
2.0714e-07
8.09522e-08
2.74619e-08
4.85551e-09
2.98814e-08
1.32412e-07
3.12881e-07
6.32666e-07
1.19632e-06
2.17696e-06
3.85199e-06
6.64959e-06
1.12044e-05
1.84153e-05
2.94977e-05
4.60204e-05
6.99202e-05
0.000103492
0.000149354
0.0002104
0.000289731
0.000390611
0.000516407
0.000670532
0.000856398
0.00107737
0.00133675
0.0016377
0.00198325
0.00237629
0.00281951
0.00331539
0.00386622
0.00447407
0.00514076
0.00586791
0.00665688
0.00750878
0.00842444
0.00940437
0.0104488
0.0115578
0.0127311
0.0139683
0.0152684
0.0166305
0.0180534
0.0195356
0.0210753
0.0226708
0.0243203
0.0260179
0.0277639
0.0295544
0.0313851
0.0332509
0.0351454
0.0370604
0.0389847
0.0409029
0.0427811
0.0445869
0.0463198
0.0478868
0.0491716
0.050074
0.0503677
0.0497371
0.0477227
0.0448254
0.0414389
0.0378194
0.034136
0.0305007
0.0269873
0.0236447
0.0205044
0.0175874
0.0149064
0.0124729
0.0102922
0.00836487
0.00666985
0.00519617
0.00395005
0.00292107
0.00209221
0.00144508
0.000957997
0.000606692
0.000365407
0.000208538
0.000112474
5.77519e-05
2.84556e-05
1.35203e-05
6.22741e-06
2.79334e-06
1.22383e-06
5.23388e-07
2.1719e-07
8.51687e-08
2.89583e-08
5.12502e-09
3.15678e-08
1.39774e-07
3.29784e-07
6.65523e-07
1.25562e-06
2.27959e-06
4.02448e-06
6.9327e-06
1.16584e-05
1.91272e-05
3.05889e-05
4.76564e-05
7.23199e-05
0.000106937
0.000154198
0.000217079
0.000298781
0.000402669
0.000532209
0.000690916
0.000882302
0.00110983
0.00137687
0.00168667
0.00204233
0.00244677
0.00290271
0.00341267
0.00397891
0.00460349
0.0052882
0.0060346
0.00684396
0.00771735
0.00865546
0.00965869
0.0107272
0.0118609
0.0130593
0.0143218
0.0156476
0.0170354
0.0184838
0.0199912
0.0215557
0.0231753
0.0248478
0.0265688
0.0283368
0.0301481
0.0319983
0.0338821
0.0357929
0.0377222
0.0396586
0.0415863
0.0434733
0.0452804
0.0470118
0.0485719
0.0498421
0.0507208
0.050981
0.050302
0.0482278
0.0452755
0.0418386
0.038173
0.0344474
0.0307738
0.0272258
0.0238521
0.0206839
0.0177413
0.0150363
0.0125794
0.0103798
0.00843661
0.00672945
0.00524505
0.00399008
0.00295183
0.00211536
0.00146207
0.000970141
0.000615097
0.000371022
0.000212146
0.000114698
5.90215e-05
2.91566e-05
1.38946e-05
6.42102e-06
2.89038e-06
1.27078e-06
5.45553e-07
2.27069e-07
8.93428e-08
3.04416e-08
5.3921e-09
3.32222e-08
1.46995e-07
3.4635e-07
6.97701e-07
1.31365e-06
2.37985e-06
4.19272e-06
7.20828e-06
1.21e-05
1.98197e-05
3.16521e-05
4.92541e-05
7.46699e-05
0.000110322
0.000158974
0.000223687
0.000307751
0.000414627
0.00054788
0.000711123
0.000907963
0.00114195
0.00141654
0.00173506
0.00210065
0.00251628
0.00298471
0.00350845
0.00408978
0.00473072
0.00543302
0.00619818
0.00702742
0.00792171
0.00888163
0.00990747
0.0109993
0.0121568
0.0133795
0.0146665
0.0160169
0.0174293
0.018902
0.0204333
0.0220209
0.0236623
0.0253544
0.0270996
0.0288892
0.0307203
0.0325886
0.0344889
0.0364146
0.0383568
0.040304
0.04224
0.0441347
0.0459426
0.0476722
0.0492256
0.0504825
0.0513404
0.0515718
0.0508519
0.0487299
0.045731
0.0422489
0.0385402
0.0347741
0.0310626
0.0274797
0.0240738
0.0208765
0.0179074
0.0151789
0.0127019
0.0104833
0.00852287
0.00679877
0.00530076
0.00403391
0.00298537
0.00214047
0.00148039
0.000983106
0.000623972
0.000376879
0.000215861
0.000116959
6.02998e-05
2.98561e-05
1.42653e-05
6.61145e-06
2.98533e-06
1.3168e-06
5.67058e-07
2.36621e-07
9.33222e-08
3.18582e-08
5.64766e-09
3.4818e-08
1.53959e-07
3.62327e-07
7.28735e-07
1.36962e-06
2.47662e-06
4.35519e-06
7.47462e-06
1.25272e-05
2.04904e-05
3.2683e-05
5.08049e-05
7.69533e-05
0.000113613
0.000163621
0.000230117
0.000316478
0.000426257
0.000563113
0.000730752
0.000932871
0.00117311
0.00145499
0.00178191
0.00215707
0.00258348
0.00306391
0.00360089
0.00419669
0.0048533
0.00557243
0.00635553
0.00720375
0.00811795
0.00909863
0.010146
0.0112599
0.01244
0.0136856
0.0149958
0.0163694
0.0178049
0.0193007
0.0208546
0.0224647
0.0241284
0.025843
0.027606
0.0294135
0.0312617
0.0331462
0.0350612
0.0370001
0.0389538
0.0409103
0.0428535
0.0447549
0.0465632
0.0482908
0.0498379
0.0510834
0.0519241
0.0521329
0.0513823
0.0492222
0.0461834
0.0426609
0.0389124
0.0351077
0.0313594
0.0277418
0.0243038
0.0210766
0.0180803
0.015327
0.0128277
0.0105892
0.00861153
0.00687264
0.00535836
0.00407901
0.00302031
0.00216661
0.00149938
0.000996454
0.000633029
0.000382796
0.000219576
0.000119196
6.15535e-05
3.05372e-05
1.46241e-05
6.79496e-06
3.07658e-06
1.3609e-06
5.87717e-07
2.45905e-07
9.71426e-08
3.31981e-08
5.88794e-09
3.63303e-08
1.60559e-07
3.77469e-07
7.58156e-07
1.4227e-06
2.56846e-06
4.5095e-06
7.72782e-06
1.29338e-05
2.11294e-05
3.3666e-05
5.22846e-05
7.91332e-05
0.000116756
0.000168059
0.000236256
0.000324809
0.000437354
0.000577639
0.000749458
0.000956591
0.00120275
0.00149155
0.00182642
0.00221063
0.00264722
0.00313899
0.00368845
0.00429788
0.00496923
0.00570418
0.00650412
0.00737012
0.00830297
0.00930307
0.0103705
0.011505
0.0127061
0.013973
0.0153047
0.0166998
0.0181567
0.0196736
0.0212484
0.0228788
0.0245621
0.0262958
0.0280765
0.0299008
0.0317648
0.0336637
0.0355919
0.0375425
0.0395062
0.0414709
0.0434202
0.0453273
0.0471357
0.0488612
0.0504021
0.0516382
0.0524654
0.052657
0.0518843
0.049695
0.0466226
0.0430643
0.0392792
0.0354384
0.0316551
0.0280041
0.0245346
0.0212781
0.0182546
0.0154764
0.0129545
0.0106957
0.0087005
0.00694647
0.00541807
0.00412471
0.00305553
0.00219283
0.00151834
0.00100972
0.000641985
0.000388608
0.000223198
0.000121361
6.27594e-05
3.11887e-05
1.49657e-05
6.9691e-06
3.16294e-06
1.40257e-06
6.07206e-07
2.54651e-07
1.00804e-07
3.4492e-08
6.12013e-09
3.77367e-08
1.66696e-07
3.91554e-07
7.85531e-07
1.47212e-06
2.65401e-06
4.65337e-06
7.96413e-06
1.33135e-05
2.17268e-05
3.45857e-05
5.36702e-05
8.11753e-05
0.000119701
0.000172217
0.000242009
0.000332612
0.000447745
0.000591234
0.000766955
0.000978765
0.00123045
0.00152568
0.00186795
0.00226057
0.00270661
0.00320887
0.0037699
0.00439194
0.00507692
0.00582648
0.00664194
0.00752433
0.00847434
0.00949227
0.0105781
0.0117315
0.0129518
0.0142382
0.0155895
0.0170041
0.0184804
0.0200165
0.02161
0.0232586
0.0249596
0.0267101
0.0285069
0.0303463
0.0322244
0.0341362
0.0360762
0.0380371
0.0400097
0.0419817
0.0439364
0.0458485
0.0476565
0.0493782
0.0509133
0.0521421
0.0529591
0.0531384
0.0523508
0.0501397
0.0470394
0.0434497
0.0396316
0.0357574
0.0319414
0.0282589
0.0247593
0.0214747
0.018425
0.0156226
0.0130786
0.0108
0.00878728
0.00701822
0.00547563
0.00417008
0.00308905
0.00221811
0.00153664
0.00102252
0.000650596
0.000394175
0.000226648
0.000123411
6.38962e-05
3.18004e-05
1.52854e-05
7.13161e-06
3.24338e-06
1.44134e-06
6.2533e-07
2.62781e-07
1.04197e-07
3.56931e-08
6.33618e-09
3.90201e-08
1.72298e-07
4.04411e-07
8.10526e-07
1.51727e-06
2.73221e-06
4.78498e-06
8.18046e-06
1.36615e-05
2.22746e-05
3.54298e-05
5.49423e-05
8.30509e-05
0.000122407
0.000176037
0.000247293
0.000339778
0.000457283
0.000603709
0.000783002
0.00099909
0.00125582
0.00155693
0.00190596
0.00230624
0.00276089
0.00327271
0.00384425
0.00447774
0.00517509
0.00593789
0.00676742
0.00766463
0.00863014
0.00966416
0.0107666
0.011937
0.0131746
0.0144785
0.0158473
0.0172794
0.0187731
0.0203262
0.0219364
0.0236012
0.0253178
0.0270832
0.0288941
0.0307469
0.0326373
0.0345606
0.0365109
0.0384809
0.0404615
0.0424402
0.0444004
0.0463185
0.0481352
0.0498296
0.0513649
0.0525904
0.0534011
0.0535725
0.052776
0.0505491
0.0474258
0.0438089
0.0399615
0.0360572
0.0322111
0.0284994
0.024972
0.021661
0.0185867
0.0157614
0.0131965
0.010899
0.00886964
0.00708629
0.00553023
0.00421307
0.00312237
0.00224251
0.0015541
0.00103463
0.000658696
0.000399384
0.000229863
0.000125315
6.49483e-05
3.23647e-05
1.55796e-05
7.28085e-06
3.31715e-06
1.47684e-06
6.41915e-07
2.70212e-07
1.07296e-07
3.6789e-08
6.53312e-09
4.01659e-08
1.77299e-07
4.15893e-07
8.32858e-07
1.55762e-06
2.80216e-06
4.90278e-06
8.37426e-06
1.39734e-05
2.27662e-05
3.61876e-05
5.60852e-05
8.47365e-05
0.000124839
0.000179472
0.000252043
0.000346219
0.000465854
0.000614914
0.00079741
0.00101733
0.00127858
0.00158494
0.00194
0.00234714
0.00280946
0.00332981
0.00391071
0.0045544
0.00526274
0.00603731
0.00687931
0.00778967
0.00876891
0.00981717
0.0109343
0.0121196
0.0133725
0.0146918
0.016076
0.0175235
0.0190324
0.0206005
0.0222253
0.0239043
0.0256346
0.027413
0.0292363
0.0311005
0.0330016
0.0349345
0.0368935
0.0388712
0.0408581
0.0428419
0.0448056
0.0467259
0.0485459
0.0502357
0.0517663
0.0529869
0.0537918
0.0539571
0.0531548
0.0509169
0.0477751
0.0441352
0.0402621
0.0363311
0.0324583
0.0287203
0.0251676
0.0218325
0.0187357
0.0158895
0.0133053
0.0109903
0.00894554
0.00714896
0.00558045
0.00425241
0.00315243
0.00226478
0.0015701
0.00104571
0.000666093
0.000404131
0.000232786
0.000127041
6.58997e-05
3.28739e-05
1.58444e-05
7.41489e-06
3.38328e-06
1.50864e-06
6.56749e-07
2.76855e-07
1.10064e-07
3.7767e-08
6.70882e-09
4.11637e-08
1.81655e-07
4.25895e-07
8.52318e-07
1.59281e-06
2.86318e-06
5.00563e-06
8.54357e-06
1.42462e-05
2.31961e-05
3.68508e-05
5.70857e-05
8.62127e-05
0.000126969
0.00018248
0.000256204
0.00035186
0.000473358
0.000624721
0.000810016
0.00103328
0.00129848
0.00160943
0.00196975
0.00238284
0.00285185
0.00337961
0.00396866
0.00462119
0.00533908
0.00612385
0.00697667
0.0078984
0.00888952
0.00995009
0.0110798
0.0122782
0.0135442
0.0148767
0.0162742
0.0177349
0.0192568
0.0208377
0.022475
0.0241661
0.025908
0.0276975
0.0295311
0.0314052
0.0333152
0.0352563
0.0372226
0.0392065
0.0411986
0.0431864
0.0451528
0.0470745
0.0488976
0.0505851
0.0521121
0.0533286
0.0541288
0.0542894
0.0534834
0.0512383
0.0480819
0.0444229
0.0405281
0.0365741
0.0326779
0.0289169
0.0253419
0.0219856
0.0188688
0.0160039
0.0134025
0.011072
0.00901334
0.00720493
0.00562527
0.00428746
0.00317911
0.00228437
0.00158426
0.00105557
0.000672684
0.000408359
0.000235384
0.00012857
6.67404e-05
3.33224e-05
1.6077e-05
7.53238e-06
3.44113e-06
1.53641e-06
6.69693e-07
2.82645e-07
1.12475e-07
3.86186e-08
6.86174e-09
4.20056e-08
1.85331e-07
4.34337e-07
8.68748e-07
1.62252e-06
2.91474e-06
5.09258e-06
8.68679e-06
1.4477e-05
2.35603e-05
3.74128e-05
5.7934e-05
8.74646e-05
0.000128776
0.000185032
0.000259733
0.000356644
0.000479721
0.000633035
0.000820699
0.0010468
0.00131533
0.00163015
0.00199491
0.00241304
0.00288768
0.00342169
0.0040176
0.00467759
0.0054035
0.00619684
0.00705875
0.00799003
0.00899111
0.010062
0.0112024
0.0124115
0.0136885
0.0150321
0.0164406
0.0179124
0.0194451
0.0210367
0.0226843
0.0243854
0.0261369
0.0279355
0.0297778
0.0316598
0.0335773
0.0355251
0.0374973
0.0394863
0.0414825
0.0434735
0.0454422
0.0473649
0.0491905
0.0508766
0.0524009
0.0536142
0.0544108
0.054568
0.0537598
0.0515103
0.0483426
0.0446681
0.0407554
0.0367822
0.0328663
0.0290857
0.0254917
0.0221172
0.0189832
0.0161024
0.0134862
0.0111422
0.00907167
0.00725306
0.00566382
0.00431763
0.00320217
0.00230163
0.00159658
0.00106407
0.000678346
0.000411977
0.000237601
0.000129873
6.74553e-05
3.37033e-05
1.62743e-05
7.63192e-06
3.49011e-06
1.55989e-06
6.80631e-07
2.87536e-07
1.1451e-07
3.9337e-08
6.99071e-09
4.26853e-08
1.88298e-07
4.41154e-07
8.8202e-07
1.64654e-06
2.95643e-06
5.16291e-06
8.8027e-06
1.46639e-05
2.38553e-05
3.78683e-05
5.86216e-05
8.84797e-05
0.000130241
0.000187102
0.000262595
0.000360523
0.00048488
0.000639774
0.000829356
0.00105775
0.00132898
0.00164693
0.00201528
0.00243747
0.00291667
0.00345572
0.00405716
0.00472315
0.00545554
0.00625578
0.007125
0.00806396
0.00907305
0.0101522
0.0113011
0.0125189
0.0138047
0.0151572
0.0165746
0.0180551
0.0195966
0.0211966
0.0228526
0.0245617
0.0263208
0.0281267
0.0299759
0.0318642
0.0337875
0.0357405
0.0377173
0.0397102
0.0417097
0.0437032
0.0456736
0.0475972
0.0494248
0.0511098
0.0526321
0.0538432
0.0546373
0.0547923
0.053983
0.0517306
0.0485545
0.0448679
0.0409409
0.0369521
0.0330203
0.0292238
0.0256143
0.022225
0.0190771
0.0161831
0.0135549
0.0111998
0.00911949
0.0072925
0.00569539
0.00434231
0.00322097
0.00231556
0.00160657
0.00107098
0.000682945
0.000414914
0.000239399
0.000130928
6.80338e-05
3.40113e-05
1.64337e-05
7.71229e-06
3.52962e-06
1.57884e-06
6.89451e-07
2.91477e-07
1.1615e-07
3.99157e-08
7.09457e-09
4.31979e-08
1.90537e-07
4.46297e-07
8.92036e-07
1.66467e-06
2.98792e-06
5.21606e-06
8.89034e-06
1.48053e-05
2.40785e-05
3.82131e-05
5.91424e-05
8.92486e-05
0.000131351
0.00018867
0.000264763
0.000363462
0.000488788
0.00064488
0.000835914
0.00106604
0.00133931
0.00165963
0.00203069
0.00245596
0.00293859
0.00348145
0.00408706
0.00475758
0.00549484
0.00630029
0.00717501
0.00811976
0.00913487
0.0102203
0.0113755
0.0125999
0.0138923
0.0152514
0.0166755
0.0181626
0.0197106
0.0213169
0.0229791
0.0246942
0.026459
0.0282704
0.0301246
0.0320177
0.0339453
0.0359022
0.0378824
0.0398782
0.0418801
0.0438754
0.0458471
0.0477714
0.0496004
0.0512847
0.0528056
0.0540151
0.0548074
0.054961
0.0541512
0.0518972
0.0487152
0.0450197
0.041082
0.0370816
0.0331377
0.0293292
0.0257079
0.0223074
0.0191487
0.0162448
0.0136073
0.0112438
0.009156
0.00732261
0.00571948
0.00436113
0.00323531
0.00232616
0.00161416
0.00107623
0.000686429
0.000417135
0.000240756
0.000131723
6.84691e-05
3.42428e-05
1.65535e-05
7.77265e-06
3.5593e-06
1.59306e-06
6.96072e-07
2.94435e-07
1.1738e-07
4.03498e-08
7.17248e-09
4.35408e-08
1.92034e-07
4.49738e-07
8.98736e-07
1.6768e-06
3.00898e-06
5.25162e-06
8.94898e-06
1.49e-05
2.4228e-05
3.84439e-05
5.94911e-05
8.97636e-05
0.000132095
0.00018972
0.000266216
0.000365431
0.000491407
0.0006483
0.000840307
0.00107159
0.00134623
0.00166814
0.00204102
0.00246834
0.00295327
0.00349868
0.00410708
0.00478063
0.00552115
0.00633008
0.00720848
0.00815708
0.00917622
0.0102658
0.0114253
0.012654
0.0139509
0.0153144
0.0167429
0.0182344
0.0197867
0.0213973
0.0230636
0.0247826
0.0265512
0.0283661
0.0302237
0.03212
0.0340504
0.03601
0.0379924
0.0399901
0.0419936
0.0439902
0.0459626
0.0478874
0.0497173
0.0514011
0.0529212
0.0541296
0.0549209
0.0550736
0.0542637
0.0520093
0.0488232
0.0451218
0.0411769
0.0371687
0.0332168
0.0294002
0.025771
0.0223629
0.019197
0.0162863
0.0136426
0.0112735
0.00918061
0.00734289
0.0057357
0.00437379
0.00324492
0.00233325
0.00161923
0.00107972
0.000688749
0.000418611
0.000241656
0.000132249
6.87571e-05
3.43958e-05
1.66325e-05
7.81242e-06
3.57883e-06
1.60242e-06
7.0043e-07
2.96383e-07
1.1819e-07
4.06356e-08
7.22376e-09
4.37107e-08
1.92775e-07
4.51438e-07
9.02041e-07
1.68276e-06
3.01933e-06
5.26905e-06
8.97767e-06
1.49462e-05
2.43009e-05
3.85565e-05
5.9661e-05
9.00145e-05
0.000132457
0.000190232
0.000266925
0.000366394
0.000492688
0.000649975
0.000842461
0.00107432
0.00134963
0.00167232
0.0020461
0.00247444
0.00296051
0.00350718
0.00411696
0.00479202
0.00553416
0.00634481
0.00722504
0.00817557
0.0091967
0.0102883
0.01145
0.0126809
0.0139799
0.0153456
0.0167763
0.01827
0.0198245
0.0214372
0.0231055
0.0248265
0.0265971
0.0284138
0.030273
0.0321708
0.0341027
0.0360635
0.038047
0.0400457
0.04205
0.0440471
0.04602
0.047945
0.0497754
0.051459
0.0529786
0.0541866
0.0549773
0.0551297
0.0543198
0.0520651
0.0488772
0.0451728
0.0412244
0.0372123
0.0332563
0.0294356
0.0258025
0.0223905
0.019221
0.016307
0.0136602
0.0112882
0.00919276
0.00735288
0.00574367
0.00438
0.00324963
0.00233672
0.00162169
0.00108142
0.000689866
0.000419319
0.000242086
0.000132499
6.88934e-05
3.4468e-05
1.66698e-05
7.83118e-06
3.58806e-06
1.60685e-06
7.02495e-07
2.97308e-07
1.18576e-07
4.07718e-08
7.24822e-09
4.37104e-08
1.92774e-07
4.51435e-07
9.02033e-07
1.68275e-06
3.0193e-06
5.26901e-06
8.9776e-06
1.49461e-05
2.43007e-05
3.85562e-05
5.96606e-05
9.00139e-05
0.000132456
0.000190231
0.000266924
0.000366391
0.000492685
0.000649971
0.000842456
0.00107431
0.00134963
0.00167231
0.00204609
0.00247443
0.0029605
0.00350716
0.00411694
0.004792
0.00553414
0.00634478
0.00722501
0.00817553
0.00919666
0.0102883
0.0114499
0.0126808
0.0139798
0.0153455
0.0167762
0.0182699
0.0198244
0.0214371
0.0231054
0.0248264
0.026597
0.0284137
0.0302729
0.0321707
0.0341026
0.0360634
0.0380469
0.0400456
0.0420499
0.044047
0.0460199
0.0479449
0.0497753
0.0514589
0.0529785
0.0541864
0.0549772
0.0551296
0.0543198
0.0520651
0.0488771
0.0451728
0.0412244
0.0372123
0.0332563
0.0294356
0.0258025
0.0223905
0.0192211
0.016307
0.0136602
0.0112882
0.00919276
0.00735288
0.00574367
0.00437999
0.00324962
0.00233671
0.00162168
0.00108141
0.000689858
0.000419312
0.000242081
0.000132497
6.88915e-05
3.44668e-05
1.66691e-05
7.83083e-06
3.58787e-06
1.60676e-06
7.02448e-07
2.97286e-07
1.18566e-07
4.07682e-08
7.24755e-09
4.35401e-08
1.92031e-07
4.4973e-07
8.98719e-07
1.67676e-06
3.00892e-06
5.2515e-06
8.94875e-06
1.48996e-05
2.42273e-05
3.84428e-05
5.94894e-05
8.9761e-05
0.000132091
0.000189715
0.000266209
0.000365422
0.000491396
0.000648286
0.00084029
0.00107157
0.00134621
0.00166811
0.00204099
0.0024683
0.00295323
0.00349863
0.00410702
0.00478057
0.00552108
0.00632999
0.00720838
0.00815698
0.0091761
0.0102657
0.0114252
0.0126539
0.0139507
0.0153142
0.0167427
0.0182341
0.0197864
0.0213971
0.0230633
0.0247823
0.026551
0.0283659
0.0302234
0.0321197
0.0340501
0.0360096
0.037992
0.0399897
0.0419932
0.0439897
0.0459622
0.047887
0.0497169
0.0514007
0.0529208
0.0541292
0.0549206
0.0550734
0.0542635
0.0520092
0.0488232
0.0451218
0.0411769
0.0371688
0.0332168
0.0294002
0.025771
0.0223629
0.019197
0.0162864
0.0136427
0.0112735
0.00918062
0.00734289
0.0057357
0.00437378
0.00324491
0.00233324
0.00161921
0.00107971
0.000688733
0.000418599
0.000241647
0.000132243
6.8753e-05
3.43932e-05
1.6631e-05
7.81156e-06
3.57837e-06
1.60218e-06
7.00309e-07
2.96325e-07
1.18165e-07
4.06262e-08
7.22202e-09
4.31971e-08
1.90533e-07
4.46288e-07
8.92013e-07
1.66462e-06
2.98782e-06
5.21586e-06
8.88995e-06
1.48046e-05
2.40773e-05
3.8211e-05
5.91392e-05
8.92437e-05
0.000131344
0.00018866
0.00026475
0.000363445
0.000488767
0.000644853
0.000835881
0.001066
0.00133926
0.00165957
0.00203063
0.00245589
0.00293851
0.00348136
0.00408695
0.00475746
0.00549471
0.00630014
0.00717485
0.00811957
0.00913466
0.01022
0.0113753
0.0125996
0.013892
0.0152511
0.0166751
0.0181622
0.0197101
0.0213165
0.0229786
0.0246937
0.0264585
0.0282698
0.030124
0.0320171
0.0339446
0.0359016
0.0378817
0.0398775
0.0418794
0.0438747
0.0458463
0.0477706
0.0495996
0.0512839
0.0528049
0.0540144
0.0548068
0.0549605
0.0541508
0.051897
0.0487151
0.0450196
0.041082
0.0370816
0.0331377
0.0293292
0.025708
0.0223074
0.0191488
0.0162448
0.0136073
0.0112439
0.00915604
0.00732264
0.0057195
0.00436114
0.0032353
0.00232615
0.00161415
0.00107622
0.000686416
0.000417123
0.000240747
0.000131716
6.84645e-05
3.42398e-05
1.65517e-05
7.77159e-06
3.55871e-06
1.59275e-06
6.95914e-07
2.94359e-07
1.17346e-07
4.03369e-08
7.17008e-09
4.26821e-08
1.88284e-07
4.4112e-07
8.81948e-07
1.6464e-06
2.95617e-06
5.16243e-06
8.80186e-06
1.46625e-05
2.38529e-05
3.78645e-05
5.86159e-05
8.84712e-05
0.000130229
0.000187085
0.000262573
0.000360495
0.000484844
0.00063973
0.000829303
0.00105768
0.0013289
0.00164684
0.00201518
0.00243736
0.00291654
0.00345557
0.00405699
0.00472297
0.00545533
0.00625555
0.00712475
0.00806368
0.00907274
0.0101519
0.0113007
0.0125185
0.0138043
0.0151567
0.0165741
0.0180546
0.019596
0.021196
0.0228519
0.024561
0.0263201
0.0281259
0.029975
0.0318634
0.0337866
0.0357396
0.0377163
0.0397092
0.0417087
0.0437022
0.0456725
0.0475962
0.0494238
0.0511088
0.0526312
0.0538423
0.0546364
0.0547916
0.0539825
0.0517304
0.0485543
0.0448678
0.0409409
0.0369522
0.0330203
0.0292239
0.0256144
0.0222251
0.0190772
0.0161832
0.013555
0.0111999
0.00911958
0.00729258
0.00569545
0.00434236
0.00322101
0.00231558
0.00160657
0.00107098
0.000682941
0.000414908
0.000239394
0.000130924
6.80305e-05
3.4009e-05
1.64322e-05
7.71138e-06
3.5291e-06
1.57855e-06
6.89298e-07
2.914e-07
1.16114e-07
3.99019e-08
7.09197e-09
4.19993e-08
1.85303e-07
4.34271e-07
8.68613e-07
1.62227e-06
2.91427e-06
5.09175e-06
8.68537e-06
1.44747e-05
2.35565e-05
3.74069e-05
5.79251e-05
8.74517e-05
0.000128758
0.000185007
0.0002597
0.000356601
0.000479668
0.000632969
0.000820619
0.0010467
0.00131522
0.00163002
0.00199476
0.00241287
0.00288749
0.00342148
0.00401736
0.00467732
0.00540321
0.00619652
0.0070584
0.00798964
0.00899069
0.0100615
0.0112019
0.012411
0.0136879
0.0150315
0.01644
0.0179117
0.0194444
0.0210359
0.0226835
0.0243845
0.0261359
0.0279345
0.0297767
0.0316587
0.0335762
0.035524
0.0374961
0.039485
0.0414813
0.0434722
0.0454408
0.0473636
0.0491892
0.0508752
0.0523996
0.053613
0.0544097
0.0545671
0.0537591
0.0515099
0.0483424
0.044668
0.0407554
0.0367822
0.0328663
0.0290858
0.0254918
0.0221173
0.0189834
0.0161025
0.0134864
0.0111424
0.0090718
0.00725318
0.00566392
0.00431771
0.00320223
0.00230166
0.00159659
0.00106409
0.000678359
0.000411986
0.000237607
0.000129877
6.74565e-05
3.37035e-05
1.62741e-05
7.63161e-06
3.48985e-06
1.55972e-06
6.80524e-07
2.87476e-07
1.1448e-07
3.93249e-08
6.98834e-09
4.11539e-08
1.81612e-07
4.25794e-07
8.52115e-07
1.59243e-06
2.86249e-06
5.00443e-06
8.54153e-06
1.42428e-05
2.31908e-05
3.68426e-05
5.70735e-05
8.61951e-05
0.000126944
0.000182447
0.00025616
0.000351803
0.000473286
0.000624633
0.000809908
0.00103316
0.00129833
0.00160925
0.00196954
0.00238261
0.00285159
0.00337932
0.00396833
0.00462084
0.00533869
0.00612342
0.0069762
0.00789789
0.00888897
0.00994951
0.0110792
0.0122775
0.0135435
0.0148759
0.0162734
0.017734
0.0192559
0.0208367
0.022474
0.024165
0.0259068
0.0276963
0.0295299
0.0314039
0.0333139
0.0352549
0.0372211
0.039205
0.041197
0.0431848
0.0451512
0.0470728
0.0488959
0.0505835
0.0521106
0.0533272
0.0541275
0.0542883
0.0534826
0.0512379
0.0480817
0.0444228
0.0405281
0.0365742
0.0326781
0.0289171
0.0253421
0.0219858
0.018869
0.0160041
0.0134028
0.0110722
0.00901354
0.00720511
0.00562543
0.00428761
0.00317925
0.00228451
0.00158439
0.00105565
0.00067274
0.000408393
0.000235406
0.000128584
6.67473e-05
3.33255e-05
1.60782e-05
7.53271e-06
3.44116e-06
1.53635e-06
6.6963e-07
2.82602e-07
1.12451e-07
3.8608e-08
6.85961e-09
4.01527e-08
1.77241e-07
4.15757e-07
8.32586e-07
1.55712e-06
2.80125e-06
4.90122e-06
8.37163e-06
1.39691e-05
2.27593e-05
3.61771e-05
5.60696e-05
8.4714e-05
0.000124807
0.000179429
0.000251987
0.000346147
0.000465763
0.000614801
0.000797272
0.00101717
0.00127839
0.00158472
0.00193975
0.00234684
0.00280913
0.00332944
0.00391031
0.00455395
0.00526225
0.00603677
0.00687873
0.00778904
0.00876823
0.00981645
0.0109335
0.0121188
0.0133717
0.0146909
0.016075
0.0175225
0.0190313
0.0205993
0.0222241
0.023903
0.0256332
0.0274116
0.0292348
0.031099
0.033
0.0349329
0.0368918
0.0388694
0.0408563
0.04284
0.0448037
0.046724
0.048544
0.0502338
0.0517645
0.0529852
0.0537903
0.0539558
0.0531539
0.0509164
0.0477748
0.0441351
0.0402622
0.0363313
0.0324585
0.0287206
0.0251679
0.0218328
0.018736
0.0158898
0.0133056
0.0109906
0.00894584
0.00714925
0.00558071
0.00425263
0.00315259
0.00226489
0.00157021
0.00104582
0.000666181
0.000404194
0.000232827
0.000127066
6.59118e-05
3.28793e-05
1.58466e-05
7.41563e-06
3.38346e-06
1.50863e-06
6.56704e-07
2.76816e-07
1.10041e-07
3.77565e-08
6.70666e-09
3.90045e-08
1.72229e-07
4.0425e-07
8.10206e-07