/*--------------------------------*- C++ -*----------------------------------*\
  =========                 |
  \\      /  F ield         | OpenFOAM: The Open Source CFD Toolbox
   \\    /   O peration     | Website:  https://openfoam.org
    \\  /    A nd           | Version:  8
     \\/     M anipulation  |
\*---------------------------------------------------------------------------*/
FoamFile
{
    version     2.0;
    format      ascii;
    class       volScalarField;
    location    "0.05/fluid";
    object      N2;
}
// * * * * * * * * * * * * * * * * * * * * * * * * * * * * * * * * * * * * * //

dimensions      [0 0 0 0 0 0 0];

internalField   nonuniform List<scalar> 
4000
(
0.00039818
0.00169364
0.00368132
0.00660146
0.0107413
0.0164278
0.0240114
0.0338402
0.0462261
0.0614081
0.0795214
0.100577
0.12446
0.150942
0.179701
0.210357
0.242492
0.275682
0.309513
0.34359
0.377641
0.411486
0.444565
0.476688
0.507698
0.537466
0.565898
0.592924
0.618502
0.642613
0.665256
0.686447
0.706214
0.724596
0.741636
0.757384
0.771894
0.785223
0.797427
0.808566
0.818696
0.827873
0.836153
0.843589
0.850231
0.856129
0.861329
0.865876
0.869812
0.873178
0.87601
0.878346
0.88022
0.881663
0.882707
0.883381
0.883709
0.883724
0.883447
0.882902
0.882112
0.881097
0.879868
0.878416
0.876756
0.874881
0.872782
0.870447
0.867877
0.865051
0.861958
0.858583
0.854938
0.85102
0.846822
0.842347
0.837619
0.832666
0.827492
0.8221
0.816579
0.810998
0.805446
0.80002
0.794827
0.789984
0.785604
0.78178
0.778574
0.776048
0.774134
0.772738
0.771753
0.771084
0.770644
0.770365
0.770193
0.770093
0.770036
0.770007
0.000385621
0.00163943
0.00356056
0.00637921
0.0103714
0.015853
0.0231655
0.0326534
0.0446316
0.0593505
0.0769638
0.0975068
0.120891
0.146911
0.17527
0.2056
0.237493
0.270516
0.304294
0.338599
0.373017
0.406731
0.439814
0.47204
0.503217
0.533196
0.561862
0.589134
0.614962
0.63932
0.662203
0.683624
0.703608
0.722194
0.739424
0.755348
0.77002
0.783497
0.795837
0.807099
0.81734
0.826617
0.834988
0.842504
0.849218
0.85518
0.860436
0.865033
0.869013
0.872416
0.875282
0.877647
0.879545
0.881009
0.882071
0.882759
0.883098
0.88312
0.882843
0.882305
0.881518
0.880504
0.879273
0.877815
0.876148
0.874265
0.872156
0.869811
0.867203
0.864359
0.861256
0.857887
0.854226
0.850259
0.846024
0.841526
0.836782
0.831826
0.826663
0.821302
0.815827
0.81031
0.80484
0.799471
0.794335
0.789553
0.785241
0.781495
0.778351
0.775877
0.774007
0.772646
0.771693
0.771047
0.770622
0.770352
0.770187
0.770089
0.770035
0.770007
0.000371821
0.00158042
0.00343124
0.0061454
0.00998936
0.0152702
0.0223223
0.0314855
0.0430748
0.057344
0.0744547
0.0944553
0.117275
0.14273
0.17055
0.200403
0.231923
0.264785
0.29861
0.332772
0.366613
0.400222
0.433312
0.465628
0.496963
0.527149
0.556059
0.583602
0.609718
0.634373
0.657554
0.67927
0.699543
0.718406
0.735901
0.752075
0.766981
0.780677
0.793219
0.804666
0.815077
0.824509
0.83302
0.840663
0.84749
0.853554
0.858901
0.863578
0.867628
0.871094
0.874014
0.876426
0.878365
0.879865
0.880957
0.881671
0.882031
0.882072
0.881814
0.881266
0.880484
0.879475
0.878245
0.876784
0.87511
0.873217
0.871096
0.868738
0.866131
0.863239
0.860096
0.856703
0.853043
0.849118
0.844907
0.840429
0.835714
0.830784
0.825637
0.820286
0.814834
0.809345
0.803886
0.7986
0.793581
0.788937
0.784755
0.78109
0.778046
0.775658
0.773856
0.772546
0.771627
0.771004
0.770596
0.770337
0.770179
0.770086
0.770034
0.770006
0.000359203
0.00152746
0.00331828
0.00594512
0.00966467
0.0147746
0.0215994
0.0304736
0.0417111
0.0555641
0.0722028
0.0916934
0.113988
0.13893
0.166273
0.195729
0.226961
0.259541
0.292713
0.326184
0.359867
0.393398
0.426474
0.458837
0.490272
0.520607
0.549708
0.577475
0.60384
0.628762
0.652222
0.674223
0.69478
0.713924
0.731693
0.748131
0.763289
0.777221
0.789986
0.801641
0.812245
0.821854
0.830526
0.838317
0.845278
0.851461
0.856917
0.861691
0.865828
0.86937
0.872358
0.874829
0.87682
0.878364
0.879495
0.880243
0.880632
0.880697
0.880461
0.879945
0.879161
0.878155
0.876927
0.875465
0.873788
0.871892
0.869767
0.867405
0.864798
0.861936
0.858781
0.85535
0.851657
0.847712
0.843504
0.839043
0.834354
0.829466
0.824378
0.819107
0.813748
0.808367
0.803054
0.797916
0.793022
0.788443
0.784311
0.780752
0.777796
0.775476
0.773728
0.77246
0.771572
0.770971
0.770576
0.770326
0.770172
0.770082
0.770032
0.770006
0.000346445
0.00147348
0.00320301
0.00574766
0.00936276
0.0143392
0.0209906
0.0296212
0.0405525
0.0540443
0.070278
0.0893345
0.111185
0.135698
0.162647
0.191728
0.22232
0.254016
0.286711
0.320002
0.353521
0.386934
0.419943
0.452292
0.483765
0.514186
0.543415
0.571347
0.597906
0.623046
0.646742
0.668989
0.6898
0.7092
0.727221
0.743907
0.759305
0.773468
0.786452
0.798312
0.809109
0.818897
0.827735
0.835678
0.842778
0.849088
0.854657
0.859534
0.863763
0.867388
0.870449
0.872985
0.875033
0.876628
0.877803
0.87859
0.879013
0.879108
0.878897
0.878403
0.877654
0.876645
0.875423
0.873968
0.872298
0.870406
0.868286
0.865929
0.863328
0.860477
0.857373
0.853985
0.850307
0.846356
0.84215
0.83772
0.83308
0.828253
0.823233
0.81804
0.812768
0.807497
0.802309
0.797224
0.792378
0.787914
0.783915
0.780454
0.777577
0.775315
0.773613
0.77238
0.771517
0.770934
0.770554
0.770312
0.770165
0.770079
0.770031
0.770006
0.000335466
0.00142689
0.00310195
0.00556545
0.00906545
0.0138901
0.0203598
0.0288145
0.0395383
0.0527856
0.0687297
0.0874421
0.108881
0.132894
0.15922
0.187493
0.217555
0.249001
0.281442
0.314502
0.347824
0.381081
0.413981
0.446269
0.477729
0.508182
0.537484
0.565526
0.592226
0.617533
0.641417
0.663867
0.684891
0.704509
0.722752
0.739658
0.755271
0.769643
0.782828
0.79488
0.805857
0.815815
0.824811
0.832899
0.840134
0.846566
0.852247
0.857228
0.861551
0.865259
0.868395
0.870998
0.873106
0.874755
0.875978
0.876806
0.877268
0.877396
0.877217
0.876754
0.87604
0.875079
0.873891
0.872449
0.870795
0.868919
0.866813
0.864468
0.861878
0.859034
0.855933
0.85257
0.848949
0.845055
0.840898
0.83649
0.831881
0.827111
0.82216
0.817046
0.811874
0.806696
0.801538
0.796553
0.791831
0.787471
0.783563
0.780183
0.777375
0.775168
0.773509
0.772308
0.771469
0.770903
0.770534
0.7703
0.770159
0.770076
0.77003
0.770006
0.000326557
0.00138918
0.00302058
0.00542075
0.00883179
0.0135345
0.0198378
0.0280605
0.038503
0.0514191
0.066987
0.0852881
0.106297
0.129886
0.155834
0.183854
0.213618
0.244764
0.27692
0.30972
0.342819
0.375893
0.408655
0.44085
0.472262
0.502708
0.532042
0.56015
0.586948
0.612379
0.636407
0.659018
0.680216
0.700016
0.718446
0.735539
0.75134
0.765895
0.779257
0.791481
0.802621
0.812734
0.821875
0.8301
0.83746
0.844008
0.849792
0.854874
0.859286
0.863076
0.866285
0.868954
0.871122
0.872824
0.874095
0.874968
0.875469
0.875631
0.875484
0.875048
0.874359
0.873418
0.872261
0.870865
0.869243
0.867392
0.865309
0.862987
0.860421
0.857605
0.854535
0.851208
0.847625
0.843782
0.839682
0.835337
0.830793
0.826072
0.821182
0.816147
0.811048
0.805914
0.800864
0.795979
0.791352
0.787079
0.783252
0.779944
0.777198
0.775039
0.773418
0.772246
0.771428
0.770877
0.770518
0.770291
0.770153
0.770073
0.770029
0.770005
0.000319272
0.00135835
0.0029542
0.00530309
0.0086428
0.0132492
0.0194259
0.0274865
0.037729
0.0504065
0.0656995
0.0836946
0.104374
0.12762
0.153223
0.180905
0.21034
0.241173
0.273039
0.305579
0.338451
0.371337
0.40395
0.436036
0.467377
0.497791
0.527128
0.555272
0.582134
0.607652
0.631789
0.654526
0.675862
0.695811
0.714395
0.731646
0.747605
0.762318
0.775834
0.788207
0.799491
0.809741
0.819012
0.827359
0.834834
0.841489
0.847374
0.852545
0.85704
0.860905
0.864184
0.866917
0.869143
0.870899
0.872219
0.873135
0.873677
0.873876
0.873761
0.873356
0.872694
0.871778
0.870642
0.86926
0.867656
0.865827
0.863766
0.861469
0.858928
0.85614
0.853101
0.849808
0.846263
0.842469
0.838437
0.834191
0.829737
0.825109
0.82029
0.815313
0.810267
0.80523
0.800271
0.795472
0.790926
0.786731
0.782976
0.779733
0.777042
0.774926
0.773339
0.772192
0.771393
0.770855
0.770504
0.770284
0.770149
0.770071
0.770028
0.770005
0.000313237
0.00133281
0.00289919
0.0052056
0.00848629
0.0130132
0.019086
0.0270146
0.0370943
0.0495771
0.0646441
0.0823849
0.102787
0.125738
0.151037
0.178414
0.207549
0.238095
0.269694
0.301991
0.334649
0.367353
0.399817
0.431789
0.463051
0.493418
0.522739
0.550896
0.577796
0.603376
0.627593
0.650427
0.671872
0.69194
0.71065
0.728032
0.744123
0.758969
0.772616
0.785118
0.796526
0.806896
0.816282
0.824737
0.832317
0.839073
0.84506
0.850301
0.854867
0.858801
0.862145
0.864938
0.86722
0.869027
0.870395
0.871355
0.871938
0.872174
0.872095
0.871723
0.871092
0.870206
0.869098
0.867743
0.866167
0.864366
0.862334
0.860067
0.85756
0.854806
0.851804
0.848552
0.84505
0.841303
0.837317
0.833113
0.828719
0.824166
0.819448
0.814546
0.809582
0.804627
0.799746
0.795024
0.790552
0.786426
0.782735
0.779549
0.776907
0.774828
0.773271
0.772146
0.771363
0.770836
0.770493
0.770277
0.770146
0.770069
0.770027
0.770005
0.000308196
0.00131147
0.0028532
0.00512404
0.00835525
0.0128155
0.018801
0.0266187
0.0365614
0.0488798
0.0637556
0.0812802
0.101445
0.124142
0.149178
0.176288
0.205159
0.235451
0.26681
0.298888
0.33135
0.363884
0.396206
0.428066
0.459245
0.489558
0.518852
0.547006
0.573927
0.599547
0.623823
0.64673
0.668261
0.688423
0.707235
0.724724
0.740925
0.755882
0.76964
0.782251
0.793766
0.804239
0.813723
0.822272
0.82994
0.836777
0.842834
0.848159
0.852799
0.8568
0.860204
0.863055
0.865389
0.867245
0.868658
0.869662
0.870286
0.870559
0.870516
0.870178
0.86958
0.868726
0.867649
0.866324
0.864778
0.863008
0.861009
0.858776
0.856303
0.853588
0.850626
0.847417
0.84396
0.840261
0.836327
0.832177
0.82784
0.823348
0.818691
0.813879
0.808986
0.804096
0.799285
0.79463
0.790224
0.78616
0.782525
0.779389
0.77679
0.774744
0.773212
0.772107
0.771338
0.77082
0.770483
0.770271
0.770143
0.770068
0.770026
0.770005
0.000303976
0.0012936
0.00281467
0.00505567
0.00824531
0.0126494
0.0185615
0.0262856
0.0361124
0.0482917
0.0630049
0.0803453
0.100307
0.122787
0.147595
0.174473
0.203115
0.233183
0.26433
0.296212
0.328498
0.360877
0.393069
0.424823
0.45592
0.486176
0.515436
0.543578
0.570507
0.596153
0.62047
0.643431
0.665028
0.685266
0.70416
0.721736
0.738027
0.753076
0.766927
0.779629
0.791234
0.801795
0.811364
0.819995
0.82774
0.834651
0.840777
0.846168
0.850872
0.854932
0.858392
0.861294
0.863677
0.865579
0.867036
0.86808
0.868744
0.869053
0.869045
0.868742
0.868175
0.867354
0.866308
0.865015
0.8635
0.861762
0.859796
0.857597
0.85516
0.852483
0.849561
0.846393
0.842982
0.839331
0.835446
0.831349
0.827066
0.82263
0.818031
0.813275
0.80846
0.80363
0.798881
0.794287
0.789939
0.785929
0.782344
0.779252
0.77669
0.774672
0.773163
0.772074
0.771317
0.770807
0.770475
0.770267
0.77014
0.770066
0.770026
0.770005
0.000300445
0.00127864
0.0027824
0.00499839
0.00815316
0.0125102
0.0183604
0.0260057
0.0357348
0.0477965
0.0623721
0.079556
0.0993448
0.121639
0.146252
0.172931
0.201373
0.231247
0.26221
0.29392
0.326048
0.358289
0.390362
0.422018
0.453038
0.483236
0.51246
0.540584
0.567511
0.593172
0.617518
0.64052
0.662167
0.682464
0.701423
0.719069
0.735435
0.750559
0.764487
0.777266
0.788947
0.799582
0.809224
0.817924
0.825736
0.832711
0.838899
0.844349
0.849107
0.853219
0.856729
0.859678
0.862105
0.864049
0.865546
0.866628
0.867329
0.867672
0.867698
0.867427
0.866892
0.866102
0.865086
0.863823
0.862339
0.860632
0.858698
0.856533
0.854131
0.85149
0.848606
0.84548
0.842111
0.838504
0.834666
0.830618
0.826385
0.822002
0.817458
0.812756
0.807994
0.803234
0.798534
0.793991
0.789693
0.785731
0.782189
0.779134
0.776605
0.774611
0.773121
0.772046
0.771298
0.770796
0.770468
0.770263
0.770138
0.770065
0.770025
0.770005
0.000297506
0.00126619
0.00275554
0.00495067
0.00807634
0.012394
0.0181926
0.0257719
0.0354191
0.0473819
0.0618418
0.0788937
0.0985363
0.120672
0.14512
0.171628
0.1999
0.229607
0.260409
0.291969
0.32396
0.356079
0.388046
0.419613
0.450561
0.480706
0.509892
0.537995
0.564916
0.590584
0.614949
0.63798
0.659667
0.680009
0.69902
0.716722
0.733148
0.748334
0.762325
0.775168
0.786912
0.797609
0.807312
0.816072
0.823941
0.830972
0.837212
0.842712
0.847519
0.851676
0.85523
0.85822
0.860687
0.862669
0.864201
0.865319
0.866053
0.866428
0.866485
0.866244
0.865739
0.864978
0.863991
0.862756
0.861301
0.859623
0.85772
0.855586
0.853217
0.85061
0.847762
0.844673
0.841343
0.837778
0.833983
0.829979
0.825792
0.821456
0.816962
0.812307
0.807592
0.802876
0.79823
0.793736
0.789482
0.785561
0.782056
0.779034
0.776532
0.774559
0.773085
0.772022
0.771283
0.770786
0.770463
0.770259
0.770136
0.770065
0.770025
0.770005
0.000295078
0.0012559
0.00273334
0.00491122
0.0080128
0.0122979
0.0180536
0.0255781
0.0351573
0.0470379
0.0614012
0.078343
0.0978632
0.119867
0.144175
0.17054
0.198667
0.228232
0.258898
0.290329
0.322202
0.354214
0.386088
0.417576
0.448461
0.478556
0.507707
0.535787
0.562699
0.588368
0.612745
0.635798
0.657513
0.677891
0.696943
0.71469
0.731163
0.746399
0.760442
0.773337
0.785133
0.795882
0.805636
0.814445
0.822363
0.829439
0.835724
0.841267
0.846115
0.850313
0.853904
0.856931
0.859432
0.861447
0.863012
0.86416
0.864924
0.86533
0.865413
0.8652
0.864721
0.863987
0.863026
0.861817
0.860389
0.858738
0.856862
0.854757
0.852418
0.849842
0.847027
0.843971
0.840677
0.837148
0.833392
0.829427
0.825281
0.820987
0.816537
0.811925
0.807252
0.802578
0.797974
0.79352
0.789304
0.785418
0.781945
0.778951
0.776471
0.774516
0.773055
0.772002
0.77127
0.770778
0.770458
0.770257
0.770135
0.770064
0.770025
0.770005
0.000293098
0.00124751
0.00271523
0.00487904
0.00796096
0.0122194
0.0179401
0.0254198
0.0349433
0.0467565
0.0610405
0.0778916
0.0973109
0.119205
0.143397
0.169643
0.19765
0.227096
0.257647
0.28897
0.320743
0.352665
0.38446
0.41588
0.446709
0.47676
0.505878
0.533937
0.560838
0.586506
0.61089
0.633957
0.655694
0.676099
0.695182
0.712965
0.729476
0.744752
0.758836
0.771773
0.783612
0.794403
0.804198
0.813049
0.821006
0.828121
0.834444
0.840023
0.844905
0.849136
0.85276
0.855817
0.858349
0.860392
0.861985
0.86316
0.86395
0.864381
0.864489
0.8643
0.863845
0.863133
0.862195
0.86101
0.859605
0.857978
0.856127
0.854047
0.851734
0.849186
0.846399
0.843374
0.84011
0.836614
0.832891
0.82896
0.82485
0.820591
0.816179
0.811604
0.806968
0.802331
0.797763
0.79334
0.789156
0.785299
0.781852
0.778881
0.776421
0.77448
0.77303
0.771986
0.77126
0.770771
0.770454
0.770254
0.770134
0.770063
0.770025
0.770005
0.00029152
0.00124083
0.0027008
0.00485337
0.00791959
0.0121568
0.0178495
0.0252933
0.0347721
0.0465312
0.0607515
0.0775297
0.0968677
0.118674
0.142772
0.168921
0.196831
0.22618
0.256638
0.287872
0.319563
0.35141
0.383139
0.414502
0.445283
0.475296
0.504386
0.532426
0.559315
0.58498
0.609368
0.632446
0.654198
0.674623
0.693731
0.71154
0.728081
0.743388
0.757505
0.770475
0.782348
0.793173
0.803001
0.811885
0.819874
0.827021
0.833374
0.838983
0.843893
0.848152
0.851801
0.854884
0.857441
0.859508
0.861124
0.862321
0.863133
0.863586
0.863715
0.863546
0.863111
0.862419
0.861501
0.860336
0.858951
0.857344
0.855514
0.853455
0.851165
0.84864
0.845878
0.842878
0.839641
0.836171
0.832477
0.828575
0.824494
0.820266
0.815885
0.811341
0.806735
0.802126
0.797586
0.793193
0.789035
0.785202
0.781777
0.778824
0.77638
0.774451
0.77301
0.771973
0.771251
0.770766
0.770451
0.770253
0.770133
0.770063
0.770024
0.770005
0.000290304
0.00123567
0.00268966
0.00483357
0.00788766
0.0121084
0.0177794
0.0251955
0.0346397
0.0463568
0.0605278
0.0772493
0.096524
0.118261
0.142287
0.16836
0.196193
0.225466
0.25585
0.287014
0.31864
0.350428
0.382104
0.413421
0.444164
0.474147
0.503213
0.531236
0.558116
0.583777
0.608167
0.631251
0.653015
0.673455
0.69258
0.710409
0.726972
0.742304
0.756445
0.769441
0.78134
0.792191
0.802045
0.810953
0.818968
0.826139
0.832516
0.838148
0.843081
0.847361
0.851032
0.854135
0.856711
0.858798
0.860432
0.861648
0.862477
0.862948
0.863093
0.862941
0.862522
0.861846
0.860944
0.859795
0.858426
0.856836
0.855023
0.852982
0.850711
0.848204
0.845462
0.842482
0.839267
0.83582
0.832148
0.82827
0.824212
0.820008
0.815653
0.811133
0.806551
0.801966
0.797448
0.793077
0.78894
0.785126
0.781718
0.77878
0.776348
0.774428
0.772995
0.771962
0.771245
0.770762
0.770448
0.770251
0.770132
0.770062
0.770024
0.770005
0.000289416
0.00123191
0.00268153
0.00481911
0.00786436
0.0120731
0.0177283
0.0251241
0.034543
0.0462295
0.0603642
0.0770441
0.0962724
0.117959
0.141931
0.167949
0.195725
0.224942
0.255272
0.286384
0.317961
0.349705
0.381341
0.412625
0.443339
0.473298
0.502346
0.530356
0.557228
0.582886
0.607276
0.630364
0.652135
0.672585
0.691723
0.709567
0.726146
0.741494
0.755654
0.768668
0.780585
0.791455
0.801328
0.810256
0.818289
0.825478
0.831872
0.837521
0.842471
0.846767
0.850454
0.853573
0.856163
0.858264
0.859912
0.861141
0.861984
0.862468
0.862626
0.862486
0.862079
0.861416
0.860525
0.859389
0.858033
0.856455
0.854655
0.852628
0.85037
0.847878
0.845151
0.842187
0.838988
0.835557
0.831903
0.828042
0.824002
0.819816
0.81548
0.810979
0.806415
0.801847
0.797346
0.792991
0.78887
0.78507
0.781674
0.778747
0.776325
0.774412
0.772983
0.771955
0.77124
0.770759
0.770447
0.77025
0.770131
0.770062
0.770024
0.770005
0.000288841
0.00122947
0.00267627
0.00480974
0.00784924
0.0120502
0.0176951
0.0250776
0.03448
0.0461464
0.0602575
0.0769102
0.0961081
0.117762
0.141698
0.16768
0.195418
0.224599
0.254892
0.28597
0.317515
0.34923
0.38084
0.412101
0.442796
0.472739
0.501775
0.529776
0.556642
0.582297
0.606687
0.629778
0.651553
0.67201
0.691155
0.709008
0.725597
0.740957
0.755128
0.768154
0.780084
0.790966
0.800851
0.809791
0.817836
0.825037
0.831444
0.837104
0.842065
0.846372
0.850068
0.853197
0.855798
0.857908
0.859565
0.860804
0.861655
0.862148
0.862314
0.862183
0.861783
0.861128
0.860246
0.859117
0.857769
0.856201
0.85441
0.852392
0.850143
0.847661
0.844944
0.841991
0.838802
0.835383
0.83174
0.827891
0.823863
0.819689
0.815366
0.810877
0.806325
0.801769
0.79728
0.792935
0.788823
0.785033
0.781646
0.778726
0.776309
0.7744
0.772976
0.77195
0.771236
0.770757
0.770445
0.77025
0.770131
0.770062
0.770024
0.770005
0.000288563
0.00122829
0.00267372
0.00480522
0.00784194
0.0120391
0.0176791
0.0250553
0.0344497
0.0461066
0.0602063
0.076846
0.0960292
0.117667
0.141586
0.16755
0.195271
0.224433
0.254709
0.28577
0.317299
0.349
0.380597
0.411846
0.442531
0.472466
0.501496
0.529492
0.556355
0.582008
0.606398
0.62949
0.651267
0.671726
0.690875
0.708733
0.725327
0.740692
0.754868
0.7679
0.779836
0.790724
0.800615
0.809561
0.817612
0.824819
0.831231
0.836896
0.841862
0.846175
0.849877
0.85301
0.855616
0.857731
0.859393
0.860636
0.861492
0.861989
0.862159
0.862032
0.861637
0.860985
0.860107
0.858982
0.857639
0.856075
0.854288
0.852274
0.850031
0.847554
0.844842
0.841894
0.838711
0.835297
0.83166
0.827817
0.823795
0.819627
0.81531
0.810827
0.806281
0.801731
0.797247
0.792908
0.788801
0.785015
0.781632
0.778715
0.776301
0.774395
0.772972
0.771947
0.771235
0.770756
0.770445
0.770249
0.770131
0.770062
0.770024
0.770005
0.000288564
0.00122829
0.00267373
0.00480524
0.00784197
0.0120392
0.0176791
0.0250554
0.0344498
0.0461067
0.0602064
0.0768461
0.0960294
0.117667
0.141587
0.16755
0.195271
0.224434
0.254709
0.28577
0.3173
0.349
0.380597
0.411846
0.442531
0.472467
0.501496
0.529493
0.556355
0.582009
0.606398
0.62949
0.651268
0.671727
0.690876
0.708733
0.725327
0.740692
0.754868
0.767901
0.779836
0.790724
0.800616
0.809561
0.817612
0.824819
0.831231
0.836896
0.841863
0.846175
0.849877
0.853011
0.855616
0.857731
0.859393
0.860636
0.861492
0.861989
0.862159
0.862032
0.861637
0.860986
0.860107
0.858983
0.857639
0.856075
0.854288
0.852274
0.850031
0.847554
0.844842
0.841894
0.838711
0.835297
0.83166
0.827817
0.823795
0.819627
0.81531
0.810827
0.806281
0.801731
0.797247
0.792908
0.788801
0.785015
0.781631
0.778715
0.776301
0.774395
0.772972
0.771947
0.771235
0.770756
0.770445
0.770249
0.770131
0.770062
0.770024
0.770005
0.000288846
0.00122949
0.00267631
0.00480981
0.00784933
0.0120503
0.0176952
0.0250778
0.0344802
0.0461466
0.0602576
0.0769104
0.0961082
0.117762
0.141699
0.16768
0.195419
0.224599
0.254893
0.285971
0.317516
0.349231
0.380841
0.412102
0.442797
0.47274
0.501776
0.529777
0.556643
0.582298
0.606688
0.629779
0.651555
0.672011
0.691156
0.709009
0.725598
0.740958
0.755129
0.768155
0.780085
0.790967
0.800852
0.809792
0.817837
0.825038
0.831444
0.837104
0.842065
0.846372
0.850069
0.853198
0.855798
0.857909
0.859566
0.860805
0.861656
0.862149
0.862315
0.862184
0.861784
0.861129
0.860247
0.859118
0.85777
0.856202
0.85441
0.852392
0.850144
0.847662
0.844945
0.841991
0.838803
0.835383
0.83174
0.827891
0.823863
0.819689
0.815366
0.810876
0.806324
0.801769
0.797279
0.792935
0.788823
0.785032
0.781645
0.778725
0.776309
0.7744
0.772975
0.771949
0.771236
0.770757
0.770445
0.77025
0.770131
0.770062
0.770024
0.770005
0.000289421
0.00123193
0.00268157
0.00481917
0.00786443
0.0120732
0.0177284
0.0251241
0.0345429
0.0462293
0.060364
0.0770438
0.096272
0.117959
0.141931
0.167948
0.195725
0.224942
0.255272
0.286384
0.317962
0.349706
0.381343
0.412626
0.44334
0.4733
0.502348
0.530358
0.55723
0.582888
0.607278
0.630366
0.652137
0.672587
0.691725
0.709569
0.726147
0.741496
0.755655
0.76867
0.780587
0.791457
0.80133
0.810257
0.81829
0.825479
0.831874
0.837523
0.842473
0.846769
0.850455
0.853574
0.856165
0.858266
0.859914
0.861143
0.861986
0.86247
0.862627
0.862488
0.86208
0.861417
0.860527
0.85939
0.858034
0.856457
0.854656
0.852629
0.850371
0.847879
0.845152
0.842188
0.838988
0.835558
0.831903
0.828042
0.824002
0.819816
0.81548
0.810979
0.806415
0.801847
0.797346
0.792991
0.788869
0.78507
0.781674
0.778747
0.776324
0.774411
0.772983
0.771955
0.77124
0.770759
0.770447
0.77025
0.770131
0.770062
0.770024
0.770005
0.000290301
0.00123566
0.00268963
0.00483351
0.00788755
0.0121082
0.0177791
0.025195
0.034639
0.0463559
0.0605266
0.0772478
0.0965223
0.118259
0.142285
0.168358
0.196191
0.225465
0.255849
0.287013
0.318639
0.350428
0.382104
0.413422
0.444165
0.474148
0.503214
0.531238
0.558118
0.583779
0.608169
0.631253
0.653017
0.673457
0.692582
0.710411
0.726974
0.742306
0.756447
0.769443
0.781342
0.792193
0.802047
0.810956
0.81897
0.826141
0.832518
0.83815
0.843083
0.847363
0.851034
0.854138
0.856714
0.8588
0.860434
0.86165
0.86248
0.86295
0.863095
0.862944
0.862524
0.861848
0.860946
0.859797
0.858428
0.856838
0.855025
0.852984
0.850712
0.848206
0.845463
0.842483
0.839268
0.83582
0.832148
0.82827
0.824212
0.820008
0.815653
0.811133
0.806551
0.801966
0.797448
0.793077
0.78894
0.785126
0.781718
0.77878
0.776348
0.774428
0.772995
0.771962
0.771244
0.770762
0.770448
0.770251
0.770132
0.770062
0.770024
0.770005
0.00029151
0.00124078
0.00270069
0.00485318
0.00791926
0.0121562
0.0178487
0.0252922
0.0347705
0.0465291
0.060749
0.0775267
0.0968642
0.11867
0.142768
0.168917
0.196826
0.226176
0.256634
0.287868
0.31956
0.351407
0.383137
0.4145
0.445282
0.475296
0.504386
0.532426
0.559316
0.584981
0.609369
0.632448
0.6542
0.674625
0.693733
0.711542
0.728083
0.743391
0.757507
0.770478
0.78235
0.793175
0.803004
0.811887
0.819877
0.827023
0.833377
0.838986
0.843896
0.848154
0.851804
0.854887
0.857443
0.859511
0.861126
0.862324
0.863136
0.863589
0.863717
0.863549
0.863114
0.862422
0.861504
0.860339
0.858953
0.857347
0.855516
0.853457
0.851167
0.848642
0.845879
0.842879
0.839642
0.836172
0.832477
0.828576
0.824494
0.820266
0.815886
0.811341
0.806735
0.802127
0.797586
0.793193
0.789035
0.785202
0.781777
0.778825
0.77638
0.774451
0.77301
0.771973
0.771251
0.770766
0.770451
0.770253
0.770133
0.770063
0.770024
0.770005
0.000293079
0.00124743
0.00271505
0.0048787
0.0079604
0.0122185
0.0179388
0.025418
0.0349408
0.0467533
0.0610365
0.0778869
0.0973055
0.119199
0.143391
0.169637
0.197643
0.22709
0.257641
0.288964
0.320738
0.35266
0.384456
0.415876
0.446706
0.476757
0.505876
0.533936
0.560837
0.586506
0.61089
0.633958
0.655695
0.676101
0.695184
0.712967
0.729478
0.744755
0.758839
0.771776
0.783615
0.794406
0.804201
0.813052
0.821009
0.828124
0.834447
0.840026
0.844908
0.849139
0.852763
0.85582
0.858352
0.860396
0.861988
0.863163
0.863953
0.864384
0.864492
0.864304
0.863848
0.863137
0.862199
0.861013
0.859608
0.857981
0.85613
0.854049
0.851736
0.849188
0.846401
0.843375
0.840112
0.836615
0.832892
0.828961
0.82485
0.820592
0.81618
0.811605
0.806969
0.802331
0.797763
0.793341
0.789157
0.7853
0.781853
0.778881
0.776421
0.77448
0.77303
0.771986
0.77126
0.770771
0.770454
0.770254
0.770133
0.770063
0.770025
0.770005
0.000295051
0.00125578
0.00273308
0.00491075
0.00801203
0.0122967
0.0180518
0.0255756
0.035154
0.0470336
0.0613959
0.0783367
0.0978559
0.119859
0.144166
0.170531
0.198658
0.228223
0.258888
0.29032
0.322193
0.354206
0.386081
0.41757
0.448455
0.478551
0.507703
0.535784
0.562696
0.588367
0.612744
0.635798
0.657513
0.677892
0.696944
0.714692
0.731165
0.746402
0.760444
0.77334
0.785136
0.795886
0.805639
0.814448
0.822366
0.829443
0.835728
0.841271
0.846119
0.850316
0.853908
0.856934
0.859436
0.861451
0.863016
0.864164
0.864928
0.865334
0.865418
0.865205
0.864725
0.863991
0.86303
0.861821
0.860392
0.858742
0.856865
0.85476
0.852421
0.849844
0.847029
0.843973
0.840679
0.83715
0.833393
0.829428
0.825282
0.820988
0.816538
0.811926
0.807254
0.80258
0.797976
0.793521
0.789305
0.785419
0.781946
0.778951
0.776472
0.774516
0.773055
0.772002
0.77127
0.770778
0.770458
0.770257
0.770135
0.770064
0.770025
0.770005
0.000297477
0.00126606
0.00275526
0.00495016
0.00807549
0.0123927
0.0181906
0.0257691
0.0354153
0.047377
0.0618357
0.0788864
0.0985278
0.120663
0.145109
0.171618
0.199889
0.229596
0.260398
0.291958
0.32395
0.356069
0.388037
0.419605
0.450554
0.4807
0.509887
0.53799
0.564913
0.590581
0.614947
0.637979
0.659666
0.68001
0.699021
0.716724
0.73315
0.748336
0.762328
0.775171
0.786915
0.797613
0.807316
0.816076
0.823945
0.830975
0.837216
0.842716
0.847522
0.851681
0.855234
0.858224
0.860691
0.862673
0.864206
0.865323
0.866057
0.866433
0.866489
0.866249
0.865743
0.864982
0.863995
0.86276
0.861305
0.859627
0.857723
0.855589
0.85322
0.850613
0.847765
0.844675
0.841345
0.837779
0.833985
0.82998
0.825793
0.821457
0.816963
0.812308
0.807593
0.802877
0.79823
0.793737
0.789483
0.785562
0.782057
0.779035
0.776533
0.77456
0.773085
0.772022
0.771283
0.770786
0.770463
0.770259
0.770136
0.770065
0.770025
0.770005
0.000300418
0.00127852
0.00278214
0.00499791
0.00815235
0.0125089
0.0183585
0.026003
0.0357311
0.0477916
0.062366
0.0795487
0.0993362
0.121629
0.146241
0.17292
0.201361
0.231235
0.262198
0.293908
0.326037
0.358278
0.390352
0.422008
0.453029
0.483229
0.512454
0.540578
0.567507
0.593169
0.617515
0.640519
0.662167
0.682464
0.701425
0.719071
0.735437
0.750562
0.76449
0.777269
0.788951
0.799586
0.809228
0.817928
0.825741
0.832716
0.838903
0.844353
0.849111
0.853224
0.856734
0.859682
0.86211
0.864054
0.865551
0.866633
0.867334
0.867677
0.867703
0.867432
0.866897
0.866107
0.865091
0.863828
0.862344
0.860637
0.858702
0.856536
0.854135
0.851493
0.848609
0.845482
0.842113
0.838506
0.834668
0.83062
0.826387
0.822004
0.81746
0.812758
0.807996
0.803236
0.798536
0.793993
0.789694
0.785732
0.78219
0.779135
0.776605
0.774611
0.773121
0.772046
0.771298
0.770795
0.770468
0.770263
0.770138
0.770065
0.770025
0.770005
0.000303953
0.0012935
0.00281444
0.00505525
0.00824461
0.0126483
0.0185598
0.0262832
0.0361091
0.0482873
0.0629994
0.0803386
0.100299
0.122778
0.147585
0.174463
0.203104
0.233172
0.264319
0.296201
0.328487
0.360867
0.393059
0.424814
0.455912
0.486169
0.51543
0.543573
0.570503
0.59615
0.620468
0.64343
0.665028
0.685267
0.704162
0.721738
0.73803
0.753079
0.766931
0.779633
0.791239
0.801799
0.811369
0.82
0.827745
0.834655
0.840782
0.846174
0.850877
0.854937
0.858397
0.861299
0.863683
0.865585
0.867041
0.868086
0.868749
0.869058
0.869051
0.868747
0.868181
0.867359
0.866314
0.86502
0.863505
0.861767
0.8598
0.857601
0.855164
0.852486
0.849564
0.846397
0.842985
0.839333
0.835449
0.831351
0.827068
0.822632
0.818034
0.813277
0.808463
0.803633
0.798883
0.794289
0.78994
0.78593
0.782345
0.779252
0.77669
0.774672
0.773163
0.772074
0.771316
0.770807
0.770475
0.770267
0.77014
0.770066
0.770026
0.770005
0.000308183
0.00131141
0.00285306
0.00512378
0.00835478
0.0128147
0.0187998
0.026617
0.0365589
0.0488765
0.0637513
0.0812749
0.101439
0.124135
0.14917
0.176279
0.20515
0.235441
0.2668
0.298878
0.33134
0.363875
0.396198
0.428059
0.459239
0.489552
0.518847
0.547003
0.573924
0.599546
0.623822
0.64673
0.668262
0.688425
0.707238
0.724727
0.740929
0.755886
0.769645
0.782256
0.793771
0.804244
0.813728
0.822278
0.829945
0.836783
0.84284
0.848164
0.852804
0.856805
0.86021
0.86306
0.865395
0.867251
0.868664
0.869668
0.870292
0.870565
0.870522
0.870184
0.869585
0.868732
0.867655
0.86633
0.864784
0.863013
0.861014
0.85878
0.856308
0.853592
0.85063
0.84742
0.843964
0.840264
0.83633
0.83218
0.827843
0.823351
0.818694
0.813882
0.80899
0.8041
0.799288
0.794632
0.790225
0.786161
0.782526
0.77939
0.776791
0.774744
0.773212
0.772107
0.771338
0.77082
0.770483
0.770271
0.770143
0.770068
0.770026
0.770005
0.000313234
0.00133279
0.00289914
0.00520549
0.00848606
0.0130128
0.0190853
0.0270136
0.0370928
0.049575
0.0646414
0.0823815
0.102783
0.125733
0.151032
0.178408
0.207543
0.238089
0.269688
0.301985
0.334643
0.367347
0.399812
0.431784
0.463047
0.493415
0.522737
0.550894
0.577796
0.603376
0.627594
0.650429
0.671875
0.691943
0.710654
0.728036
0.744128
0.758974
0.772622
0.785124
0.796533
0.806902
0.816288
0.824744
0.832324
0.83908
0.845067
0.850307
0.854874
0.858808
0.862151
0.864945
0.867226
0.869033
0.870401
0.871361
0.871945
0.87218
0.872101
0.871729
0.871098
0.870212
0.869104
0.867749
0.866172
0.864371
0.862339
0.860072
0.857564
0.854811
0.851809
0.848556
0.845054
0.841306
0.837321
0.833117
0.828722
0.824169
0.819451
0.814549
0.809585
0.80463
0.799749
0.795026
0.790553
0.786427
0.782736
0.779549
0.776907
0.774828
0.773271
0.772146
0.771363
0.770836
0.770493
0.770277
0.770146
0.770069
0.770027
0.770005
0.000319281
0.00135838
0.00295426
0.00530318
0.0086429
0.0132493
0.019426
0.0274865
0.0377289
0.0504062
0.065699
0.0836937
0.104373
0.127618
0.153221
0.180903
0.210338
0.24117
0.273037
0.305577
0.338449
0.371335
0.403948
0.436035
0.467377
0.497792
0.52713
0.555274
0.582136
0.607655