/*--------------------------------*- C++ -*----------------------------------*\
  =========                 |
  \\      /  F ield         | OpenFOAM: The Open Source CFD Toolbox
   \\    /   O peration     | Website:  https://openfoam.org
    \\  /    A nd           | Version:  8
     \\/     M anipulation  |
\*---------------------------------------------------------------------------*/
FoamFile
{
    version     2.0;
    format      ascii;
    class       volScalarField;
    location    "0.05/fluid";
    object      O2;
}
// * * * * * * * * * * * * * * * * * * * * * * * * * * * * * * * * * * * * * //

dimensions      [0 0 0 0 0 0 0];

internalField   nonuniform List<scalar> 
4000
(
1.22138e-09
5.29123e-09
1.19458e-08
2.26366e-08
3.94885e-08
6.54854e-08
1.04619e-07
1.61944e-07
2.43467e-07
3.55831e-07
5.05802e-07
6.9965e-07
9.42522e-07
1.23794e-06
1.58752e-06
1.99081e-06
2.44545e-06
2.94734e-06
3.49101e-06
4.06971e-06
4.67933e-06
5.31818e-06
5.96662e-06
6.61846e-06
7.26749e-06
7.90774e-06
8.53369e-06
9.14044e-06
9.7239e-06
1.02809e-05
1.08096e-05
1.13094e-05
1.17817e-05
1.22304e-05
1.26623e-05
1.30884e-05
1.35241e-05
1.39914e-05
1.45193e-05
1.51462e-05
1.59222e-05
1.69131e-05
1.82058e-05
1.99176e-05
2.22104e-05
2.53145e-05
2.95657e-05
3.54674e-05
4.37908e-05
5.57381e-05
7.32049e-05
9.91934e-05
0.000138451
0.000198428
0.000290695
0.000432962
0.000650602
0.000988436
0.00150691
0.00230043
0.0035074
0.00533452
0.00811623
0.0124074
0.0189624
0.027392
0.0369515
0.0471641
0.0577062
0.068385
0.0790685
0.0896735
0.100125
0.110381
0.120421
0.130222
0.13974
0.148942
0.157848
0.166485
0.174754
0.182608
0.18999
0.196842
0.203107
0.208719
0.213624
0.217787
0.221196
0.223836
0.22581
0.227236
0.228235
0.228911
0.229354
0.229635
0.229806
0.229907
0.229964
0.229993
1.15855e-09
5.01164e-09
1.12844e-08
2.13115e-08
3.70428e-08
6.12137e-08
9.74943e-08
1.50559e-07
2.26014e-07
3.30138e-07
4.69446e-07
6.50127e-07
8.77459e-07
1.15533e-06
1.48587e-06
1.86934e-06
2.30402e-06
2.78618e-06
3.31231e-06
3.88281e-06
4.49005e-06
5.10622e-06
5.73819e-06
6.37871e-06
7.02067e-06
7.65741e-06
8.28286e-06
8.89172e-06
9.47955e-06
1.00429e-05
1.05794e-05
1.10884e-05
1.1571e-05
1.20305e-05
1.24738e-05
1.29114e-05
1.33588e-05
1.38377e-05
1.43773e-05
1.50164e-05
1.58054e-05
1.68109e-05
1.8121e-05
1.98548e-05
2.21773e-05
2.5323e-05
2.96351e-05
3.56288e-05
4.40946e-05
5.62665e-05
7.40909e-05
0.00010065
0.000140817
0.000202225
0.000296717
0.000442406
0.000665029
0.00101046
0.00154064
0.00235094
0.00358175
0.00544388
0.00827675
0.0126475
0.0193165
0.0278348
0.0374653
0.0477352
0.0583505
0.0690755
0.0797895
0.0904047
0.100883
0.111198
0.121282
0.131107
0.140637
0.149836
0.158727
0.167326
0.17554
0.183322
0.190615
0.197405
0.203607
0.209155
0.21399
0.218072
0.22142
0.224007
0.225937
0.227328
0.228295
0.228948
0.229376
0.229647
0.229813
0.22991
0.229965
0.229993
1.08446e-09
4.68538e-09
1.05255e-08
1.98182e-08
3.43355e-08
5.65683e-08
8.9865e-08
1.38507e-07
2.07661e-07
3.03144e-07
4.3104e-07
5.97211e-07
8.0679e-07
1.06374e-06
1.37064e-06
1.72868e-06
2.13774e-06
2.59816e-06
3.10768e-06
3.6534e-06
4.21664e-06
4.80703e-06
5.41739e-06
6.04033e-06
6.66868e-06
7.29576e-06
7.91543e-06
8.52224e-06
9.11155e-06
9.6796e-06
1.02238e-05
1.07429e-05
1.12375e-05
1.17109e-05
1.21691e-05
1.26224e-05
1.30861e-05
1.35816e-05
1.41385e-05
1.47957e-05
1.56045e-05
1.66328e-05
1.79705e-05
1.97398e-05
2.21104e-05
2.53244e-05
2.97373e-05
3.58844e-05
4.45892e-05
5.71396e-05
7.55691e-05
0.000103098
0.000144812
0.000208664
0.000306977
0.000458598
0.000690066
0.00104534
0.00159464
0.00243396
0.00370301
0.00562038
0.00853265
0.0130245
0.0198806
0.0285417
0.0382855
0.0486472
0.0593242
0.0701416
0.0809306
0.0915977
0.102095
0.112379
0.122444
0.132249
0.141748
0.150914
0.159782
0.168366
0.17655
0.184297
0.191573
0.198275
0.204357
0.209766
0.21447
0.218472
0.22172
0.224224
0.226087
0.227428
0.228361
0.228991
0.229402
0.229662
0.22982
0.229914
0.229966
0.229994
1.01569e-09
4.38832e-09
9.85278e-09
1.85183e-08
3.19917e-08
5.25323e-08
8.3163e-08
1.27782e-07
1.91126e-07
2.78492e-07
3.95536e-07
5.47866e-07
7.40581e-07
9.77856e-07
1.26272e-06
1.59762e-06
1.98368e-06
2.41872e-06
2.88712e-06
3.3866e-06
3.92209e-06
4.48637e-06
5.07262e-06
5.67411e-06
6.28427e-06
6.89682e-06
7.5059e-06
8.10616e-06
8.6929e-06
9.26224e-06
9.81127e-06
1.03384e-05
1.0844e-05
1.13305e-05
1.18036e-05
1.22732e-05
1.27542e-05
1.3268e-05
1.38441e-05
1.45219e-05
1.53537e-05
1.64087e-05
1.77794e-05
1.95916e-05
2.20208e-05
2.53187e-05
2.98563e-05
3.61939e-05
4.51967e-05
5.82196e-05
7.7404e-05
0.000106139
0.000149763
0.000216605
0.000319526
0.00047819
0.000720183
0.00109033
0.00166252
0.00253447
0.00385018
0.00583514
0.00884411
0.0134841
0.02054
0.0293569
0.0392244
0.0496848
0.0604388
0.0712901
0.0821373
0.0928752
0.103431
0.113756
0.123833
0.133631
0.143107
0.15223
0.161039
0.169541
0.177632
0.185269
0.192398
0.198952
0.20491
0.210254
0.214908
0.218806
0.221967
0.224404
0.226213
0.227513
0.228416
0.229024
0.229422
0.229673
0.229827
0.229917
0.229968
0.229994
9.42566e-10
4.07061e-09
9.137e-09
1.71926e-08
2.975e-08
4.8889e-08
7.73451e-08
1.18428e-07
1.76552e-07
2.56652e-07
3.64062e-07
5.04169e-07
6.82046e-07
9.02118e-07
1.16785e-06
1.48124e-06
1.83466e-06
2.2251e-06
2.65915e-06
3.13239e-06
3.64011e-06
4.17694e-06
4.73713e-06
5.31477e-06
5.90393e-06
6.49884e-06
7.09399e-06
7.68426e-06
8.26504e-06
8.83238e-06
9.38321e-06
9.91566e-06
1.04296e-05
1.09271e-05
1.14134e-05
1.18979e-05
1.23952e-05
1.29265e-05
1.35213e-05
1.42197e-05
1.50748e-05
1.61574e-05
1.75623e-05
1.94196e-05
2.19112e-05
2.52991e-05
2.99713e-05
3.65159e-05
4.58435e-05
5.93829e-05
7.93924e-05
0.000109442
0.00015514
0.000225209
0.000333071
0.000499192
0.000752388
0.00113829
0.00173436
0.00264098
0.00400076
0.00605613
0.00916001
0.0139392
0.0211964
0.0301693
0.0401609
0.0507211
0.0615545
0.0724662
0.0833254
0.0940697
0.104646
0.115004
0.125099
0.134881
0.144321
0.153392
0.162141
0.170571
0.178581
0.186114
0.193123
0.199627
0.205538
0.21077
0.215295
0.219097
0.222183
0.224562
0.226326
0.227592
0.22847
0.22906
0.229444
0.229687
0.229835
0.229921
0.229969
0.229994
8.7482e-10
3.77504e-09
8.45866e-09
1.58695e-08
2.73759e-08
4.49006e-08
7.10659e-08
1.09351e-07
1.63545e-07
2.38199e-07
3.38146e-07
4.68152e-07
6.32484e-07
8.34443e-07
1.07584e-06
1.35612e-06
1.68085e-06
2.04841e-06
2.45676e-06
2.90285e-06
3.38283e-06
3.89222e-06
4.42608e-06
4.97922e-06
5.54633e-06
6.12217e-06
6.70161e-06
7.2798e-06
7.85228e-06
8.41512e-06
8.96512e-06
9.50021e-06
1.00199e-05
1.05259e-05
1.1023e-05
1.15202e-05
1.20317e-05
1.25787e-05
1.31907e-05
1.39082e-05
1.47852e-05
1.5894e-05
1.73321e-05
1.92334e-05
2.17866e-05
2.52643e-05
3.00718e-05
3.68262e-05
4.6485e-05
6.05531e-05
8.14078e-05
0.000112801
0.000160609
0.000233935
0.000346734
0.000520209
0.000784371
0.00118529
0.00180363
0.00274153
0.00413884
0.00627019
0.00945659
0.0143666
0.0217846
0.0308869
0.0409853
0.0516347
0.0625435
0.0735196
0.084436
0.0952089
0.105779
0.116118
0.126197
0.13598
0.145407
0.154437
0.163133
0.1715
0.179422
0.186873
0.193858
0.20027
0.206065
0.211199
0.215637
0.219361
0.22238
0.224706
0.226429
0.227663
0.228517
0.229091
0.229464
0.229698
0.229841
0.229924
0.22997
0.229994
8.15975e-10
3.51914e-09
7.87569e-09
1.47488e-08
2.5383e-08
4.15134e-08
6.54672e-08
1.00226e-07
1.49399e-07
2.1713e-07
3.07887e-07
4.26173e-07
5.76197e-07
7.61558e-07
9.85002e-07
1.2483e-06
1.55234e-06
1.89678e-06
2.2802e-06
2.70024e-06
3.15373e-06
3.63687e-06
4.14538e-06
4.6747e-06
5.22008e-06
5.77672e-06
6.33992e-06
6.9051e-06
7.46797e-06
8.02466e-06
8.57193e-06
9.10752e-06
9.63067e-06
1.01428e-05
1.06483e-05
1.11557e-05
1.16791e-05
1.22394e-05
1.28663e-05
1.36005e-05
1.44971e-05
1.56297e-05
1.70982e-05
1.90406e-05
2.16516e-05
2.52146e-05
3.01523e-05
3.71099e-05
4.70918e-05
6.16774e-05
8.33606e-05
0.00011607
0.000165937
0.000242427
0.000360003
0.000540569
0.000815329
0.00123071
0.00187058
0.0028391
0.00427782
0.00646765
0.00973253
0.0147551
0.0223093
0.0315254
0.04172
0.0524504
0.0634259
0.0744551
0.0854112
0.0962103
0.106796
0.117134
0.127197
0.136952
0.146342
0.155345
0.164
0.172309
0.180177
0.187596
0.194488
0.200811
0.20652
0.211574
0.215937
0.219593
0.222552
0.224833
0.226519
0.227724
0.228558
0.229117
0.229479
0.229708
0.229846
0.229927
0.229971
0.229995
7.64707e-10
3.29671e-09
7.37152e-09
1.37873e-08
2.3691e-08
3.86781e-08
6.08837e-08
9.30422e-08
1.38484e-07
2.01051e-07
2.84911e-07
3.94311e-07
5.33278e-07
7.05334e-07
9.13267e-07
1.15897e-06
1.44335e-06
1.76634e-06
2.12689e-06
2.52311e-06
2.95234e-06
3.41134e-06
3.89641e-06
4.40348e-06
4.92833e-06
5.46658e-06
6.0139e-06
6.56599e-06
7.11875e-06
7.66838e-06
8.21164e-06
8.74613e-06
9.27089e-06
9.78703e-06
1.02987e-05
1.0814e-05
1.13469e-05
1.1918e-05
1.25573e-05
1.33058e-05
1.42192e-05
1.53725e-05
1.6868e-05
1.8847e-05
2.15107e-05
2.51522e-05
3.02108e-05
3.73594e-05
4.76466e-05
6.27229e-05
8.51923e-05
0.000119147
0.000170953
0.000250407
0.000372427
0.000559542
0.000844092
0.00127264
0.00193197
0.00292789
0.00440314
0.00664277
0.00997697
0.0151013
0.0227704
0.0320883
0.042373
0.0531825
0.0642262
0.0753127
0.0863151
0.0971495
0.107759
0.118104
0.128153
0.137861
0.147203
0.156148
0.16476
0.173035
0.180869
0.188212
0.19503
0.20128
0.206918
0.211902
0.2162
0.219796
0.222703
0.224943
0.226597
0.227777
0.228593
0.229139
0.229493
0.229715
0.22985
0.229929
0.229972
0.229995
7.19619e-10
3.10136e-09
6.93009e-09
1.2949e-08
2.22242e-08
3.62362e-08
5.69658e-08
8.69505e-08
1.29287e-07
1.87557e-07
2.65666e-07
3.67615e-07
4.97237e-07
6.57929e-07
8.52442e-07
1.08272e-06
1.34982e-06
1.65391e-06
1.99425e-06
2.36935e-06
2.777e-06
3.21441e-06
3.67834e-06
4.16523e-06
4.67126e-06
5.19247e-06
5.72484e-06
6.26435e-06
6.80707e-06
7.3493e-06
7.88778e-06
8.42007e-06
8.945e-06
9.46348e-06
9.97933e-06
1.05005e-05
1.10407e-05
1.16204e-05
1.22697e-05
1.30298e-05
1.39572e-05
1.51282e-05
1.66467e-05
1.86579e-05
2.13681e-05
2.50799e-05
3.02478e-05
3.75705e-05
4.81374e-05
6.36641e-05
8.68542e-05
0.000121945
0.000175511
0.000257632
0.000383611
0.0005765
0.000869642
0.0013095
0.00198535
0.00300412
0.00450917
0.00678818
0.010176
0.0153763
0.0231309
0.0325291
0.0428881
0.0537646
0.0648672
0.0760037
0.0870469
0.0979125
0.108544
0.118901
0.128956
0.138666
0.147991
0.1569
0.165449
0.173678
0.181457
0.188741
0.195499
0.201688
0.207264
0.212188
0.216428
0.219972
0.222833
0.225038
0.226663
0.227822
0.228622
0.229157
0.229504
0.229722
0.229854
0.229931
0.229973
0.229995
6.799e-10
2.92948e-09
6.54259e-09
1.22156e-08
2.09458e-08
3.4117e-08
5.35798e-08
8.17067e-08
1.21397e-07
1.7601e-07
2.49226e-07
3.44833e-07
4.66486e-07
6.17465e-07
8.00473e-07
1.01749e-06
1.26969e-06
1.55741e-06
1.88022e-06
2.23692e-06
2.62568e-06
3.04411e-06
3.48938e-06
3.95831e-06
4.44747e-06
4.95325e-06
5.47192e-06
5.99971e-06
6.53284e-06
7.06771e-06
7.60109e-06
8.13045e-06
8.65451e-06
9.17399e-06
9.6925e-06
1.02178e-05
1.07633e-05
1.13496e-05
1.20067e-05
1.27762e-05
1.3715e-05
1.49005e-05
1.64386e-05
1.84773e-05
2.1228e-05
2.50016e-05
3.02669e-05
3.77451e-05
4.85632e-05
6.44947e-05
8.83314e-05
0.000124438
0.000179563
0.000264028
0.000393451
0.000591305
0.000891792
0.00134111
0.00203056
0.00306771
0.00459623
0.00690523
0.0103325
0.0155866
0.0234053
0.0328681
0.0432896
0.0542242
0.0653792
0.0765611
0.0876419
0.0985368
0.109189
0.119559
0.129617
0.139323
0.148635
0.157521
0.166042
0.174218
0.181952
0.189194
0.195902
0.202039
0.207563
0.212434
0.216624
0.220123
0.222945
0.225119
0.22672
0.22786
0.228647
0.229173
0.229514
0.229727
0.229857
0.229932
0.229974
0.229995
6.45092e-10
2.77901e-09
6.20409e-09
1.15769e-08
1.98363e-08
3.22843e-08
5.0662e-08
7.72026e-08
1.14638e-07
1.66144e-07
2.35204e-07
3.25427e-07
4.40313e-07
5.83037e-07
7.56253e-07
9.61962e-07
1.20143e-06
1.47516e-06
1.78291e-06
2.12378e-06
2.49622e-06
2.89819e-06
3.32719e-06
3.78039e-06
4.25469e-06
4.74677e-06
5.25315e-06
5.77026e-06
6.2945e-06
6.82234e-06
7.35056e-06
7.87661e-06
8.3991e-06
8.91859e-06
9.43853e-06
9.9665e-06
1.05158e-05
1.11069e-05
1.17699e-05
1.25467e-05
1.34947e-05
1.46921e-05
1.62465e-05
1.83085e-05
2.10939e-05
2.49214e-05
3.02719e-05
3.78874e-05
4.89276e-05
6.52175e-05
8.96249e-05
0.000126623
0.000183108
0.000269596
0.000401962
0.000604004
0.000910636
0.00136769
0.00206808
0.00311923
0.0046658
0.00699699
0.0104522
0.0157426
0.0236079
0.0331222
0.0435963
0.0545818
0.0657838
0.0770073
0.0881234
0.0990464
0.109719
0.120102
0.130166
0.13987
0.149173
0.158042
0.166537
0.174689
0.182377
0.189582
0.196248
0.20234
0.207818
0.212645
0.216792
0.220252
0.22304
0.225188
0.226768
0.227893
0.228668
0.229186
0.229522
0.229732
0.229859
0.229933
0.229974
0.229995
6.14853e-10
2.64842e-09
5.91086e-09
1.1025e-08
1.88806e-08
3.07109e-08
4.81652e-08
7.336e-08
1.08888e-07
1.57767e-07
2.23321e-07
3.09002e-07
4.18182e-07
5.53941e-07
7.18892e-07
9.15045e-07
1.14374e-06
1.40559e-06
1.70056e-06
2.02794e-06
2.38645e-06
2.77431e-06
3.18932e-06
3.62894e-06
4.09032e-06
4.57041e-06
5.06595e-06
5.57355e-06
6.08972e-06
6.61102e-06
7.13427e-06
7.65686e-06
8.17734e-06
8.69615e-06
9.2166e-06
9.74614e-06
1.02979e-05
1.08925e-05
1.15599e-05
1.23423e-05
1.32976e-05
1.45046e-05
1.60725e-05
1.81539e-05
2.09691e-05
2.48428e-05
3.02675e-05
3.80032e-05
4.92389e-05
6.58442e-05
9.07535e-05
0.000128533
0.000186204
0.000274446
0.000409338
0.000614931
0.000926697
0.00138994
0.00209835
0.00316011
0.00472025
0.00706743
0.0105414
0.0158546
0.0237524
0.0333075
0.0438258
0.0548556
0.0660997
0.0773612
0.0885101
0.0994601
0.110153
0.12055
0.130621
0.140325
0.149621
0.158477
0.16695
0.17508
0.182742
0.189903
0.196539
0.202595
0.208036
0.212824
0.216936
0.220362
0.223121
0.225247
0.226809
0.22792
0.228686
0.229197
0.229528
0.229736
0.229861
0.229934
0.229975
0.229995
5.88895e-10
2.53641e-09
5.65977e-09
1.05535e-08
1.80663e-08
2.93741e-08
4.60499e-08
7.01132e-08
1.04041e-07
1.5072e-07
2.1334e-07
2.95224e-07
3.99632e-07
5.29567e-07
6.87602e-07
8.75753e-07
1.09541e-06
1.3473e-06
1.63152e-06
1.94753e-06
2.29427e-06
2.67019e-06
3.07333e-06
3.50136e-06
3.95169e-06
4.42145e-06
4.90759e-06
5.40684e-06
5.91585e-06
6.43123e-06
6.94982e-06
7.469e-06
7.98727e-06
8.50496e-06
9.02527e-06
9.55557e-06
1.01089e-05
1.07059e-05
1.13765e-05
1.21631e-05
1.31239e-05
1.43387e-05
1.59174e-05
1.80151e-05
2.0855e-05
2.47681e-05
3.02564e-05
3.80957e-05
4.95007e-05
6.63802e-05
9.17269e-05
0.000130189
0.0001889
0.000278692
0.000415856
0.000624738
0.000941496
0.00141287
0.00211854
0.00319055
0.00476159
0.00712034
0.0106063
0.0159318
0.0238514
0.0334386
0.0439939
0.0550622
0.0663434
0.0776393
0.0888184
0.0997935
0.110506
0.120917
0.130996
0.140702
0.149995
0.15884
0.167296
0.175408
0.183049
0.190188
0.196789
0.202812
0.20822
0.212976
0.217056
0.220455
0.22319
0.225296
0.226843
0.227943
0.228701
0.229207
0.229534
0.229739
0.229863
0.229935
0.229975
0.229995
5.66931e-10
2.4417e-09
5.44777e-09
1.01561e-08
1.73817e-08
2.8253e-08
4.42802e-08
6.7403e-08
1.00003e-07
1.4486e-07
2.05052e-07
2.83795e-07
3.84259e-07
5.09379e-07
6.61693e-07
8.43222e-07
1.0554e-06
1.29902e-06
1.57431e-06
1.88087e-06
2.21781e-06
2.58376e-06
2.97694e-06
3.39524e-06
3.83624e-06
4.29726e-06
4.77537e-06
5.26744e-06
5.77021e-06
6.28036e-06
6.79473e-06
7.3107e-06
7.82671e-06
8.34304e-06
8.8628e-06
9.39328e-06
9.94748e-06
1.05459e-05
1.12188e-05
1.20085e-05
1.29735e-05
1.41942e-05
1.57816e-05
1.78922e-05
2.07523e-05
2.46977e-05
3.02383e-05
3.81634e-05
4.97086e-05
6.68145e-05
9.25193e-05
0.000131533
0.000191071
0.000282063
0.000420916
0.000632103
0.000951969
0.00142815
0.00213805
0.00321594
0.00479415
0.00716054
0.0106536
0.0159847
0.0239174
0.033529
0.0441146
0.0552155
0.0665292
0.0778554
0.0890616
0.10006
0.110791
0.121215
0.131302
0.141012
0.150302
0.15914
0.167581
0.175678
0.183301
0.190419
0.196995
0.202992
0.208373
0.213102
0.217157
0.220532
0.223247
0.225338
0.226872
0.227962
0.228713
0.229214
0.229539
0.229742
0.229865
0.229936
0.229975
0.229995
5.48696e-10
2.36311e-09
5.27206e-09
9.82737e-09
1.68162e-08
2.7329e-08
4.28245e-08
6.5178e-08
9.66935e-08
1.40065e-07
1.98278e-07
2.74463e-07
3.71714e-07
4.92912e-07
6.40566e-07
8.16697e-07
1.02277e-06
1.25965e-06
1.52764e-06
1.82647e-06
2.15537e-06
2.51313e-06
2.89813e-06
3.3084e-06
3.74167e-06
4.19541e-06
4.66681e-06
5.15284e-06
5.65031e-06
6.15594e-06
6.6666e-06
7.17967e-06
7.69353e-06
8.20843e-06
8.72741e-06
9.25769e-06
9.81226e-06
1.04116e-05
1.10859e-05
1.18778e-05
1.2846e-05
1.40711e-05
1.56651e-05
1.77858e-05
2.06619e-05
2.46329e-05
3.02156e-05
3.821e-05
4.98686e-05
6.71573e-05
9.31507e-05
0.000132607
0.000192802
0.00028474
0.000424916
0.000637902
0.000960146
0.00144018
0.00215375
0.00323607
0.00481942
0.00719097
0.010688
0.0160211
0.0239602
0.0335897
0.0441996
0.0553276
0.0666688
0.0780213
0.0892511
0.10027
0.111017
0.121454
0.131549
0.141263
0.150553
0.159385
0.167815
0.175899
0.183507
0.190607
0.197163
0.20314
0.208499
0.213207
0.217241
0.220596
0.223294
0.225372
0.226896
0.227978
0.228724
0.229221
0.229543
0.229744
0.229866
0.229936
0.229975
0.229995
5.33944e-10
2.29956e-09
5.13009e-09
9.56204e-09
1.63606e-08
2.65856e-08
4.16552e-08
6.33934e-08
9.40429e-08
1.36228e-07
1.92864e-07
2.6701e-07
3.61702e-07
4.79775e-07
6.23715e-07
7.95543e-07
9.96745e-07
1.22824e-06
1.4904e-06
1.78305e-06
2.10552e-06
2.45671e-06
2.83513e-06
3.23893e-06
3.66596e-06
4.1138e-06
4.57973e-06
5.06081e-06
5.5539e-06
6.05576e-06
6.56328e-06
7.07382e-06
7.58576e-06
8.09928e-06
8.6174e-06
9.14729e-06
9.70189e-06
1.03017e-05
1.0977e-05
1.17703e-05
1.27407e-05
1.39691e-05
1.55681e-05
1.76965e-05
2.05848e-05
2.4576e-05
3.0192e-05
3.82416e-05
4.99906e-05
6.74257e-05
9.36493e-05
0.000133457
0.000194174
0.000286859
0.000428076
0.000642472
0.000966574
0.0014496
0.00216601
0.00325159
0.00483861
0.00721355
0.0107126
0.0160451
0.0239866
0.033629
0.0442579
0.0554079
0.0667719
0.0781462
0.0893961
0.100432
0.111194
0.121642
0.131744
0.141462
0.150752
0.159581
0.168002
0.176077
0.183673
0.19076
0.197301
0.203261
0.208601
0.213291
0.217308
0.220648
0.223332
0.225399
0.226915
0.227991
0.228732
0.229226
0.229546
0.229746
0.229867
0.229937
0.229976
0.229995
5.22443e-10
2.25004e-09
5.01952e-09
9.35561e-09
1.60065e-08
2.60085e-08
4.07487e-08
6.20116e-08
9.19926e-08
1.33264e-07
1.88683e-07
2.61259e-07
3.53979e-07
4.69645e-07
6.10724e-07
7.79236e-07
9.76685e-07
1.20403e-06
1.46169e-06
1.74956e-06
2.06705e-06
2.41315e-06
2.78647e-06
3.18524e-06
3.60742e-06
4.05064e-06
4.51229e-06
4.98947e-06
5.47908e-06
5.97793e-06
6.4829e-06
6.99136e-06
7.50167e-06
8.01398e-06
8.53128e-06
9.0607e-06
9.61517e-06
1.02152e-05
1.0891e-05
1.16853e-05
1.26572e-05
1.38879e-05
1.54905e-05
1.76246e-05
2.05222e-05
2.45287e-05
3.01703e-05
3.82624e-05
5.00817e-05
6.76301e-05
9.40324e-05
0.000134113
0.000195231
0.000288493
0.000430507
0.000645978
0.000971487
0.00145677
0.00217526
0.00326316
0.0048527
0.00722981
0.0107296
0.0160603
0.0240017
0.0336533
0.0442967
0.0554638
0.0668458
0.0782378
0.0895039
0.100554
0.111328
0.121785
0.131894
0.141615
0.150906
0.159733
0.168147
0.176215
0.183802
0.190878
0.197408
0.203354
0.208681
0.213357
0.21736
0.220688
0.223361
0.225421
0.22693
0.228001
0.228738
0.22923
0.229548
0.229747
0.229868
0.229937
0.229976
0.229995
5.14e-10
2.21369e-09
4.93841e-09
9.20427e-09
1.57471e-08
2.55862e-08
4.00859e-08
6.10021e-08
9.0496e-08
1.31101e-07
1.85635e-07
2.57067e-07
3.48353e-07
4.62267e-07
6.01264e-07
7.67363e-07
9.62079e-07
1.1864e-06
1.44078e-06
1.72516e-06
2.03902e-06
2.38141e-06
2.75099e-06
3.14608e-06
3.56469e-06
4.00453e-06
4.46301e-06
4.9373e-06
5.42432e-06
5.92091e-06
6.42396e-06
6.93083e-06
7.43987e-06
7.95122e-06
8.46782e-06
8.9968e-06
9.55108e-06
1.01511e-05
1.08272e-05
1.16221e-05
1.2595e-05
1.38273e-05
1.54323e-05
1.75705e-05
2.04747e-05
2.44924e-05
3.01526e-05
3.82759e-05
5.01465e-05
6.77781e-05
9.43111e-05
0.000134591
0.000196003
0.000289682
0.000432275
0.000648522
0.00097504
0.00146192
0.00218188
0.00327137
0.00486257
0.007241
0.0107408
0.0160695
0.0240097
0.0336674
0.0443212
0.055501
0.0668964
0.0783016
0.08958
0.100641
0.111424
0.121888
0.132002
0.141726
0.151019
0.159844
0.168253
0.176315
0.183897
0.190965
0.197486
0.203423
0.208739
0.213405
0.217399
0.220718
0.223383
0.225436
0.226941
0.228009
0.228743
0.229233
0.22955
0.229748
0.229868
0.229938
0.229976
0.229995
5.08478e-10
2.18992e-09
4.88539e-09
9.10537e-09
1.55777e-08
2.53105e-08
3.96535e-08
6.03439e-08
8.95206e-08
1.29692e-07
1.8365e-07
2.54339e-07
3.4469e-07
4.57465e-07
5.95107e-07
7.59634e-07
9.5257e-07
1.17492e-06
1.42716e-06
1.70927e-06
2.02076e-06
2.36072e-06
2.72786e-06
3.12054e-06
3.53681e-06
3.97441e-06
4.43081e-06
4.90319e-06
5.3885e-06
5.88358e-06
6.38535e-06
6.89114e-06
7.39931e-06
7.90998e-06
8.42608e-06
8.95474e-06
9.50884e-06
1.01089e-05
1.07851e-05
1.15803e-05
1.25537e-05
1.3787e-05
1.53936e-05
1.75343e-05
2.04428e-05
2.44676e-05
3.01399e-05
3.82836e-05
5.01878e-05
6.78738e-05
9.44924e-05
0.000134902
0.000196506
0.000290457
0.000433425
0.000650172
0.000977339
0.00146525
0.00218613
0.0032766
0.00486881
0.00724796
0.0107476
0.0160746
0.0240135
0.0336749
0.0443354
0.0555235
0.0669278
0.0783418
0.0896285
0.100697
0.111486
0.121955
0.132072
0.141799
0.151092
0.159916
0.168322
0.176381
0.183959
0.191022
0.197537
0.203468
0.208778
0.213437
0.217424
0.220737
0.223397
0.225447
0.226948
0.228013
0.228746
0.229235
0.229551
0.229749
0.229868
0.229938
0.229976
0.229995
5.0578e-10
2.17831e-09
4.85954e-09
9.05728e-09
1.54955e-08
2.51771e-08
3.94446e-08
6.00265e-08
8.90511e-08
1.29015e-07
1.82697e-07
2.53028e-07
3.42932e-07
4.5516e-07
5.92149e-07
7.55919e-07
9.47996e-07
1.16939e-06
1.4206e-06
1.7016e-06
2.01194e-06
2.35071e-06
2.71666e-06
3.10816e-06
3.52328e-06
3.95978e-06
4.41515e-06
4.88658e-06
5.37104e-06
5.86538e-06
6.36649e-06
6.87174e-06
7.37947e-06
7.88979e-06
8.40563e-06
8.9341e-06
9.48808e-06
1.00881e-05
1.07643e-05
1.15596e-05
1.25333e-05
1.3767e-05
1.53743e-05
1.75162e-05
2.04267e-05
2.4455e-05
3.01332e-05
3.82866e-05
5.02072e-05
6.79197e-05
9.458e-05
0.000135053
0.00019675
0.000290833
0.000433983
0.000650973
0.000978453
0.00146686
0.00218818
0.00327911
0.00487179
0.00725125
0.0107507
0.0160767
0.0240148
0.033678
0.0443418
0.055534
0.0669427
0.078361
0.0896518
0.100724
0.111516
0.121987
0.132107
0.141834
0.151127
0.159951
0.168356
0.176414
0.183989
0.19105
0.197562
0.20349
0.208797
0.213453
0.217437
0.220747
0.223404
0.225452
0.226952
0.228016
0.228748
0.229236
0.229552
0.229749
0.229869
0.229938
0.229976
0.229995
5.05781e-10
2.17832e-09
4.85956e-09
9.05731e-09
1.54956e-08
2.51771e-08
3.94447e-08
6.00267e-08
8.90513e-08
1.29015e-07
1.82697e-07
2.53029e-07
3.42933e-07
4.55161e-07
5.92151e-07
7.55921e-07
9.47999e-07
1.16939e-06
1.4206e-06
1.70161e-06
2.01194e-06
2.35072e-06
2.71667e-06
3.10817e-06
3.52329e-06
3.9598e-06
4.41517e-06
4.88661e-06
5.37107e-06
5.8654e-06
6.36653e-06
6.87178e-06
7.37951e-06
7.88984e-06
8.40568e-06
8.93415e-06
9.48813e-06
1.00881e-05
1.07643e-05
1.15596e-05
1.25333e-05
1.37669e-05
1.53741e-05
1.75159e-05
2.04264e-05
2.44544e-05
3.01324e-05
3.82855e-05
5.02057e-05
6.79175e-05
9.45767e-05
0.000135049
0.000196743
0.000290824
0.000433969
0.000650954
0.000978428
0.00146683
0.00218814
0.00327906
0.00487172
0.00725116
0.0107506
0.0160766
0.0240146
0.0336778
0.0443416
0.0555338
0.0669425
0.0783609
0.0896517
0.100724
0.111516
0.121987
0.132107
0.141834
0.151127
0.159951
0.168356
0.176414
0.183989
0.19105
0.197562
0.20349
0.208797
0.213453
0.217437
0.220747
0.223405
0.225452
0.226952
0.228016
0.228748
0.229236
0.229552
0.229749
0.229869
0.229938
0.229976
0.229995
5.08481e-10
2.18993e-09
4.88542e-09
9.10544e-09
1.55778e-08
2.53107e-08
3.96537e-08
6.03441e-08
8.95207e-08
1.29692e-07
1.8365e-07
2.54338e-07
3.4469e-07
4.57465e-07
5.95107e-07
7.59635e-07
9.52573e-07
1.17492e-06
1.42717e-06
1.70928e-06
2.02077e-06
2.36074e-06
2.72788e-06
3.12057e-06
3.53684e-06
3.97446e-06
4.43086e-06
4.90325e-06
5.38857e-06
5.88367e-06
6.38545e-06
6.89126e-06
7.39945e-06
7.91014e-06
8.42625e-06
8.9549e-06
9.50899e-06
1.0109e-05
1.07851e-05
1.15803e-05
1.25536e-05
1.37867e-05
1.53931e-05
1.75335e-05
2.04417e-05
2.4466e-05
3.01376e-05
3.82803e-05
5.01831e-05
6.7867e-05
9.44825e-05
0.000134888
0.000196485
0.000290428
0.000433383
0.000650115
0.000977261
0.00146515
0.002186
0.00327643
0.0048686
0.0072477
0.0107472
0.0160741
0.0240129
0.0336743
0.0443348
0.0555229
0.0669273
0.0783413
0.0896281
0.100696
0.111486
0.121954
0.132072
0.141799
0.151092
0.159916
0.168322
0.176382
0.183959
0.191023
0.197538
0.203468
0.208778
0.213438
0.217425
0.220738
0.223398
0.225447
0.226948
0.228014
0.228746
0.229235
0.229551
0.229749
0.229868
0.229938
0.229976
0.229995
5.13986e-10
2.21363e-09
4.93828e-09
9.20402e-09
1.57467e-08
2.55855e-08
4.00849e-08
6.10006e-08
9.04939e-08
1.31098e-07
1.85632e-07
2.57063e-07
3.48348e-07
4.62263e-07
6.01261e-07
7.67361e-07
9.6208e-07
1.1864e-06
1.44079e-06
1.72517e-06
2.03904e-06
2.38144e-06
2.75103e-06
3.14613e-06
3.56475e-06
4.0046e-06
4.46309e-06
4.93739e-06
5.42444e-06
5.92105e-06
6.42413e-06
6.93103e-06
7.4401e-06
7.95147e-06
8.46809e-06
8.99708e-06
9.55134e-06
1.01513e-05
1.08273e-05
1.16221e-05
1.25947e-05
1.38268e-05
1.54315e-05
1.75692e-05
2.04729e-05
2.44897e-05
3.01488e-05
3.82704e-05
5.01387e-05
6.77668e-05
9.42947e-05
0.000134567
0.000195969
0.000289633
0.000432206
0.000648426
0.00097491
0.00146175
0.00218166
0.00327109
0.00486222
0.00724056
0.0107402
0.0160688
0.0240088
0.0336664
0.0443202
0.0555
0.0668955
0.0783008
0.0895793
0.10064
0.111424
0.121887
0.132002
0.141726
0.151018
0.159844
0.168253
0.176315
0.183897
0.190965
0.197486
0.203423
0.20874
0.213406
0.217399
0.220718
0.223383
0.225437
0.226941
0.228009
0.228743
0.229233
0.22955
0.229748
0.229868
0.229938
0.229976
0.229995
5.22402e-10
2.24986e-09
5.01915e-09
9.35493e-09
1.60054e-08
2.60068e-08
4.07461e-08
6.20079e-08
9.19876e-08
1.33257e-07
1.88675e-07
2.61248e-07
3.53967e-07
4.69632e-07
6.10712e-07
7.79225e-07
9.76676e-07
1.20403e-06
1.46169e-06
1.74956e-06
2.06707e-06
2.41318e-06
2.78651e-06
3.18529e-06
3.60748e-06
4.05073e-06
4.51239e-06
4.98959e-06
5.47923e-06
5.97812e-06
6.48314e-06
6.99164e-06
7.50199e-06
8.01435e-06
8.53167e-06
9.0611e-06
9.61554e-06
1.02155e-05
1.08912e-05
1.16853e-05
1.26569e-05
1.38873e-05
1.54894e-05
1.76229e-05
2.05197e-05
2.45252e-05
3.01652e-05
3.82551e-05
5.00711e-05
6.76147e-05
9.401e-05
0.00013408
0.000195184
0.000288425
0.000430413
0.000645847
0.00097131
0.00145653
0.00217496
0.00326278
0.00485221
0.0072292
0.0107288
0.0160593
0.0240004
0.0336518
0.0442952
0.0554624
0.0668445
0.0782365
0.0895028
0.100553
0.111327
0.121784
0.131893
0.141614
0.150906
0.159732
0.168146
0.176214
0.183802
0.190878
0.197408
0.203354
0.208681
0.213357
0.21736
0.220688
0.223361
0.225421
0.22693
0.228001
0.228738
0.22923
0.229548
0.229747
0.229868
0.229937
0.229976
0.229995
5.33872e-10
2.29926e-09
5.12943e-09
9.56085e-09
1.63586e-08
2.65825e-08
4.16507e-08
6.33869e-08
9.40338e-08
1.36216e-07
1.92849e-07
2.66991e-07
3.61679e-07
4.7975e-07
6.23689e-07
7.95516e-07
9.9672e-07
1.22822e-06
1.49039e-06
1.78304e-06
2.10552e-06
2.45672e-06
2.83515e-06
3.23897e-06
3.66603e-06
4.11388e-06
4.57984e-06
5.06095e-06
5.55408e-06
6.05599e-06
6.56357e-06
7.07417e-06
7.58617e-06
8.09975e-06
8.61791e-06
9.14781e-06
9.70239e-06
1.03021e-05
1.09772e-05
1.17703e-05
1.27404e-05
1.39684e-05
1.55668e-05
1.76945e-05
2.05818e-05
2.45716e-05
3.01857e-05
3.82325e-05
4.99776e-05
6.74067e-05
9.36217e-05
0.000133417
0.000194115
0.000286776
0.000427959
0.000642309
0.000966352
0.00144931
0.00216562
0.00325109
0.00483797
0.00721275
0.0107116
0.0160438
0.0239849
0.0336271
0.044256
0.055406
0.06677
0.0781446
0.0893946
0.100431
0.111193
0.12164
0.131743
0.141461
0.150752
0.159581
0.168001
0.176076
0.183673
0.190759
0.1973
0.20326
0.208601
0.213291
0.217307
0.220648
0.223331
0.225399
0.226915
0.227991
0.228732
0.229226
0.229546
0.229746
0.229867
0.229937
0.229976
0.229995
5.48592e-10
2.36267e-09
5.27109e-09
9.82561e-09
1.68133e-08
2.73245e-08
4.28177e-08
6.51683e-08
9.66801e-08
1.40047e-07
1.98255e-07
2.74434e-07
3.7168e-07
4.92873e-07
6.40523e-07
8.16653e-07
1.02272e-06
1.25961e-06
1.5276e-06
1.82644e-06
2.15536e-06
2.51313e-06
2.89814e-06
3.30843e-06
3.74173e-06
4.1955e-06
4.66693e-06
5.15301e-06
5.65053e-06
6.15622e-06
6.66696e-06
7.1801e-06
7.69405e-06
8.20902e-06
8.72805e-06
9.25836e-06
9.8129e-06
1.04122e-05
1.10863e-05
1.18779e-05
1.28457e-05
1.40704e-05
1.56637e-05
1.77835e-05
2.06584e-05
2.46279e-05
3.02084e-05
3.81997e-05
4.98537e-05
6.71357e-05
9.3119e-05
0.00013256
0.000192734
0.000284643
0.000424778
0.000637709
0.000959882
0.00143982
0.00215329
0.00323546
0.00481864
0.00718998
0.0106867
0.0160194
0.0239581
0.0335873
0.0441971
0.0553252
0.0666665
0.0780191
0.0892491
0.100268
0.111016
0.121452
0.131548
0.141261
0.150552
0.159384
0.167814
0.175898
0.183506
0.190606
0.197162
0.203139
0.208498
0.213206
0.21724
0.220596
0.223293
0.225371
0.226896
0.227978
0.228724
0.229221
0.229543
0.229744
0.229866
0.229937
0.229975
0.229995
5.66792e-10
2.44111e-09
5.44648e-09
1.01538e-08
1.73778e-08
2.8247e-08
4.42712e-08
6.739e-08
9.99849e-08
1.44836e-07
2.05021e-07
2.83757e-07
3.84213e-07
5.09326e-07
6.61634e-07
8.4316e-07
1.05533e-06
1.29896e-06
1.57425e-06
1.88083e-06
2.21778e-06
2.58374e-06
2.97695e-06
3.39527e-06
3.8363e-06
4.29735e-06
4.77551e-06
5.26764e-06
5.77047e-06
6.2807e-06
6.79516e-06
7.31123e-06
7.82735e-06
8.34377e-06
8.8636e-06
9.39411e-06
9.94829e-06
1.05466e-05
1.12193e-05
1.20087e-05
1.29733e-05
1.41934e-05
1.57801e-05
1.78897e-05
2.07486e-05
2.46922e-05
3.02304e-05
3.81521e-05
4.96921e-05
6.67904e-05
9.24839e-05
0.000131481
0.000190995
0.000281954
0.000420761
0.000631887
0.000951672
0.00142775
0.00213751
0.00321523
0.00479323
0.00715935
0.010652
0.0159826
0.0239148
0.033526
0.0441116
0.0552125
0.0665262
0.0778526
0.0890589
0.100057
0.110789
0.121213
0.1313
0.14101
0.150301
0.159138
0.16758
0.175676
0.183299
0.190416
0.196993
0.20299
0.208371
0.213101
0.217156
0.220532
0.223246
0.225337
0.226872
0.227962
0.228713
0.229214
0.229539
0.229742
0.229865
0.229936
0.229975
0.229995
5.88731e-10
2.53571e-09
5.65825e-09
1.05507e-08
1.80617e-08
2.9367e-08
4.60392e-08
7.00978e-08
1.04019e-07
1.50692e-07
2.13303e-07