/*--------------------------------*- C++ -*----------------------------------*\
  =========                 |
  \\      /  F ield         | OpenFOAM: The Open Source CFD Toolbox
   \\    /   O peration     | Website:  https://openfoam.org
    \\  /    A nd           | Version:  8
     \\/     M anipulation  |
\*---------------------------------------------------------------------------*/
FoamFile
{
    version     2.0;
    format      ascii;
    class       surfaceScalarField;
    location    "0.05/fluid";
    object      phi;
}
// * * * * * * * * * * * * * * * * * * * * * * * * * * * * * * * * * * * * * //

dimensions      [1 0 -1 0 0 0 0];

internalField   nonuniform List<scalar> 
7860
(
6.56407e-07
-1.3617e-08
6.51941e-07
-4.21336e-08
6.45489e-07
-7.16585e-08
6.36851e-07
-1.01727e-07
6.25788e-07
-1.32018e-07
6.1206e-07
-1.62199e-07
5.95487e-07
-1.91888e-07
5.76008e-07
-2.20572e-07
5.53721e-07
-2.47599e-07
5.28907e-07
-2.72257e-07
5.02011e-07
-2.93881e-07
4.73589e-07
-3.11959e-07
4.44244e-07
-3.26203e-07
4.14557e-07
-3.36565e-07
3.85041e-07
-3.43215e-07
3.56111e-07
-3.46476e-07
3.28078e-07
-3.46767e-07
3.01163e-07
-3.44545e-07
2.75504e-07
-3.40259e-07
2.51195e-07
-3.34334e-07
2.28281e-07
-3.27143e-07
2.06735e-07
-3.19007e-07
1.86519e-07
-3.10207e-07
1.67581e-07
-3.00983e-07
1.49862e-07
-2.91533e-07
1.33299e-07
-2.82019e-07
1.17826e-07
-2.72572e-07
1.03379e-07
-2.63297e-07
8.9895e-08
-2.54276e-07
7.73118e-08
-2.45573e-07
6.55701e-08
-2.37233e-07
5.46127e-08
-2.29291e-07
4.43846e-08
-2.21768e-07
3.48332e-08
-2.14678e-07
2.59056e-08
-2.08023e-07
1.75528e-08
-2.01794e-07
9.73098e-09
-1.95985e-07
2.39838e-09
-1.90591e-07
-4.48502e-09
-1.85602e-07
-1.09573e-08
-1.81008e-07
-1.70549e-08
-1.76798e-07
-2.28124e-08
-1.72957e-07
-2.82628e-08
-1.69474e-07
-3.34372e-08
-1.66336e-07
-3.83653e-08
-1.63528e-07
-4.30752e-08
-1.61041e-07
-4.75936e-08
-1.58861e-07
-5.19455e-08
-1.56978e-07
-5.61547e-08
-1.55383e-07
-6.02435e-08
-1.54067e-07
-6.42328e-08
-1.53022e-07
-6.81423e-08
-1.52246e-07
-7.1991e-08
-1.51734e-07
-7.57969e-08
-1.51487e-07
-7.95782e-08
-1.51511e-07
-8.33516e-08
-1.51816e-07
-8.71383e-08
-1.52426e-07
-9.09582e-08
-1.5336e-07
-9.48356e-08
-1.54673e-07
-9.88004e-08
-1.56438e-07
-1.02885e-07
-1.58773e-07
-1.07138e-07
-1.61851e-07
-1.11611e-07
-1.65942e-07
-1.16346e-07
-1.71501e-07
-1.21314e-07
-1.79335e-07
-1.26819e-07
-1.89344e-07
-1.33058e-07
-2.01126e-07
-1.40201e-07
-2.1446e-07
-1.48418e-07
-2.29224e-07
-1.57892e-07
-2.45348e-07
-1.68819e-07
-2.6279e-07
-1.81419e-07
-2.8152e-07
-1.95933e-07
-3.01508e-07
-2.12633e-07
-3.22707e-07
-2.31827e-07
-3.45046e-07
-2.53864e-07
-3.68407e-07
-2.79138e-07
-3.92616e-07
-3.08091e-07
-4.17464e-07
-3.41207e-07
-4.42662e-07
-3.78979e-07
-4.67769e-07
-4.21829e-07
-4.9216e-07
-4.7002e-07
-5.15002e-07
-5.23707e-07
-5.35199e-07
-5.8277e-07
-5.51432e-07
-6.46642e-07
-5.62221e-07
-7.14141e-07
-5.66069e-07
-7.83374e-07
-5.617e-07
-8.51812e-07
-5.48353e-07
-9.1659e-07
-5.26038e-07
-9.75082e-07
-4.95609e-07
-1.02548e-06
-4.58583e-07
-1.0671e-06
-4.16732e-07
-1.10027e-06
-3.71662e-07
-1.12595e-06
-3.24561e-07
-1.14535e-06
-2.76145e-07
-1.15969e-06
-2.26702e-07
-1.17005e-06
-1.76294e-07
-1.17724e-06
-1.25118e-07
-1.18185e-06
-7.3927e-08
-2.40446e-08
6.57952e-07
-1.31017e-08
6.55429e-07
-3.98893e-08
6.50638e-07
-6.74678e-08
6.43478e-07
-9.56224e-08
6.33746e-07
-1.23958e-07
6.21226e-07
-1.52136e-07
6.05742e-07
-1.79806e-07
5.87222e-07
-2.06515e-07
5.6574e-07
-2.3169e-07
5.4155e-07
-2.54698e-07
5.15073e-07
-2.74945e-07
4.86856e-07
-2.91963e-07
4.57506e-07
-3.0548e-07
4.27626e-07
-3.15437e-07
3.97755e-07
-3.2197e-07
3.68341e-07
-3.25363e-07
3.39731e-07
-3.25988e-07
3.12175e-07
-3.24258e-07
2.85843e-07
-3.20587e-07
2.60841e-07
-3.15362e-07
2.37191e-07
-3.08926e-07
2.14898e-07
-3.01578e-07
1.93946e-07
-2.93586e-07
1.74299e-07
-2.85169e-07
1.55907e-07
-2.76515e-07
1.38709e-07
-2.67774e-07
1.22642e-07
-2.59071e-07
1.07641e-07
-2.50507e-07
9.36409e-08
-2.4216e-07
8.05772e-08
-2.34091e-07
6.8388e-08
-2.26345e-07
5.70134e-08
-2.18955e-07
4.63955e-08
-2.11944e-07
3.64789e-08
-2.05325e-07
2.72067e-08
-1.99103e-07
1.85266e-08
-1.9327e-07
1.03924e-08
-1.87821e-07
2.76002e-09
-1.82752e-07
-4.41239e-09
-1.78057e-07
-1.11648e-08
-1.73725e-07
-1.7535e-08
-1.69748e-07
-2.35591e-08
-1.66114e-07
-2.92713e-08
-1.62811e-07
-3.4704e-08
-1.59828e-07
-3.98884e-08
-1.57155e-07
-4.48538e-08
-1.54779e-07
-4.96282e-08
-1.52691e-07
-5.42384e-08
-1.50882e-07
-5.87099e-08
-1.49342e-07
-6.30669e-08
-1.48064e-07
-6.73329e-08
-1.47043e-07
-7.15305e-08
-1.46272e-07
-7.56821e-08
-1.45751e-07
-7.98098e-08
-1.45478e-07
-8.39362e-08
-1.45457e-07
-8.80831e-08
-1.45697e-07
-9.22801e-08
-1.46217e-07
-9.65564e-08
-1.47032e-07
-1.00943e-07
-1.48184e-07
-1.05471e-07
-1.49737e-07
-1.10173e-07
-1.51795e-07
-1.15093e-07
-1.54507e-07
-1.20247e-07
-1.58127e-07
-1.25609e-07
-1.63089e-07
-1.31e-07
-1.70189e-07
-1.36828e-07
-1.79307e-07
-1.43363e-07
-1.90095e-07
-1.50818e-07
-2.02353e-07
-1.59384e-07
-2.15964e-07
-1.69241e-07
-2.30856e-07
-1.80598e-07
-2.46984e-07
-1.93672e-07
-2.64311e-07
-2.0871e-07
-2.82799e-07
-2.25982e-07
-3.02402e-07
-2.45785e-07
-3.2305e-07
-2.68461e-07
-3.44617e-07
-2.94383e-07
-3.66936e-07
-3.23967e-07
-3.89812e-07
-3.57661e-07
-4.12974e-07
-3.95921e-07
-4.36019e-07
-4.39149e-07
-4.58387e-07
-4.87637e-07
-4.7933e-07
-5.41514e-07
-4.97814e-07
-6.00609e-07
-5.12628e-07
-6.64264e-07
-5.22432e-07
-7.31185e-07
-5.25887e-07
-7.99378e-07
-5.21866e-07
-8.6626e-07
-5.09707e-07
-9.29066e-07
-4.89443e-07
-9.85382e-07
-4.61843e-07
-1.03367e-06
-4.2823e-07
-1.07346e-06
-3.90127e-07
-1.10522e-06
-3.489e-07
-1.12995e-06
-3.0556e-07
-1.14878e-06
-2.60722e-07
-1.16276e-06
-2.14603e-07
-1.17275e-06
-1.67264e-07
-1.17935e-06
-1.1896e-07
-1.18287e-06
-7.05632e-08
-2.31253e-08
6.57613e-07
-1.22473e-08
6.5483e-07
-3.73879e-08
6.5001e-07
-6.32519e-08
6.4292e-07
-8.95952e-08
6.33341e-07
-1.1606e-07
6.21072e-07
-1.42337e-07
6.05966e-07
-1.68118e-07
5.87967e-07
-1.93001e-07
5.67156e-07
-2.16475e-07
5.43767e-07
-2.37971e-07
5.18185e-07
-2.56943e-07
4.90907e-07
-2.72959e-07
4.6249e-07
-2.85759e-07
4.33488e-07
-2.95275e-07
4.04407e-07
-3.01621e-07
3.75673e-07
-3.05048e-07
3.47621e-07
-3.05891e-07
3.2051e-07
-3.04528e-07
2.94524e-07
-3.01332e-07
2.69657e-07
-2.96672e-07
2.45996e-07
-2.90859e-07
2.23582e-07
-2.84186e-07
2.02412e-07
-2.76897e-07
1.82463e-07
-2.69199e-07
1.63697e-07
-2.61265e-07
1.46069e-07
-2.53237e-07
1.29529e-07
-2.45233e-07
1.14022e-07
-2.37343e-07
9.94922e-08
-2.29643e-07
8.58824e-08
-2.22188e-07
7.31367e-08
-2.15022e-07
6.12e-08
-2.08177e-07
5.00184e-08
-2.01673e-07
3.95393e-08
-1.95526e-07
2.97075e-08
-1.89737e-07
2.04723e-08
-1.84302e-07
1.17885e-08
-1.79217e-07
3.61281e-09
-1.74479e-07
-4.09659e-09
-1.70081e-07
-1.13796e-08
-1.66018e-07
-1.82742e-08
-1.62279e-07
-2.48171e-08
-1.58855e-07
-3.1043e-08
-1.55736e-07
-3.69853e-08
-1.52913e-07
-4.26757e-08
-1.50375e-07
-4.8145e-08
-1.48112e-07
-5.34224e-08
-1.46116e-07
-5.85368e-08
-1.44378e-07
-6.35156e-08
-1.42889e-07
-6.83856e-08
-1.41643e-07
-7.31734e-08
-1.40633e-07
-7.79052e-08
-1.39856e-07
-8.26073e-08
-1.39306e-07
-8.73063e-08
-1.38984e-07
-9.20293e-08
-1.38891e-07
-9.68013e-08
-1.39033e-07
-1.0165e-07
-1.39426e-07
-1.06639e-07
-1.40086e-07
-1.11765e-07
-1.41039e-07
-1.17062e-07
-1.42349e-07
-1.22548e-07
-1.44112e-07
-1.28242e-07
-1.46465e-07
-1.34121e-07
-1.49652e-07
-1.40102e-07
-1.54096e-07
-1.46067e-07
-1.60582e-07
-1.524e-07
-1.68925e-07
-1.59378e-07
-1.78815e-07
-1.67225e-07
-1.90076e-07
-1.76145e-07
-2.02601e-07
-1.86342e-07
-2.16327e-07
-1.97995e-07
-2.31206e-07
-2.11306e-07
-2.47205e-07
-2.26509e-07
-2.64288e-07
-2.43848e-07
-2.82422e-07
-2.63589e-07
-3.01538e-07
-2.86029e-07
-3.21516e-07
-3.11499e-07
-3.42197e-07
-3.40351e-07
-3.63406e-07
-3.72973e-07
-3.84891e-07
-4.09768e-07
-4.06267e-07
-4.51144e-07
-4.26987e-07
-4.97464e-07
-4.46318e-07
-5.48889e-07
-4.63322e-07
-6.05273e-07
-4.76881e-07
-6.66025e-07
-4.85766e-07
-7.29962e-07
-4.8876e-07
-7.95248e-07
-4.84856e-07
-8.59529e-07
-4.73489e-07
-9.2024e-07
-4.54722e-07
-9.75142e-07
-4.29271e-07
-1.02278e-06
-3.98337e-07
-1.06269e-06
-3.63275e-07
-1.09522e-06
-3.25284e-07
-1.12123e-06
-2.85232e-07
-1.1417e-06
-2.43633e-07
-1.15748e-06
-2.00698e-07
-1.16921e-06
-1.56492e-07
-1.17733e-06
-1.11268e-07
-1.18217e-06
-6.58884e-08
-2.15038e-08
6.57743e-07
-1.15238e-08
6.55162e-07
-3.50925e-08
6.50588e-07
-5.92886e-08
6.43813e-07
-8.38926e-08
6.34621e-07
-1.08564e-07
6.22814e-07
-1.33021e-07
6.08241e-07
-1.56989e-07
5.90836e-07
-1.80114e-07
5.7066e-07
-2.01937e-07
5.47924e-07
-2.21946e-07
5.22985e-07
-2.39645e-07
4.96315e-07
-2.54636e-07
4.68448e-07
-2.66674e-07
4.39926e-07
-2.75691e-07
4.11246e-07
-2.81782e-07
3.82841e-07
-2.85173e-07
3.55036e-07
-2.86163e-07
3.28042e-07
-2.85093e-07
3.01994e-07
-2.8231e-07
2.77083e-07
-2.78139e-07
2.5335e-07
-2.72894e-07
2.30812e-07
-2.66837e-07
2.09465e-07
-2.60195e-07
1.89286e-07
-2.53162e-07
1.70242e-07
-2.45898e-07
1.5229e-07
-2.38536e-07
1.35383e-07
-2.31185e-07
1.19472e-07
-2.2393e-07
1.04505e-07
-2.16841e-07
9.04303e-08
-2.09971e-07
7.71953e-08
-2.03359e-07
6.4749e-08
-1.97036e-07
5.3041e-08
-1.91021e-07
4.20219e-08
-1.85328e-07
3.16388e-08
-1.79961e-07
2.18435e-08
-1.74914e-07
1.25932e-08
-1.70185e-07
3.84638e-09
-1.65771e-07
-4.43705e-09
-1.61668e-07
-1.22957e-08
-1.57868e-07
-1.97668e-08
-1.54365e-07
-2.68861e-08
-1.51151e-07
-3.3688e-08
-1.48215e-07
-4.02056e-08
-1.4555e-07
-4.64706e-08
-1.43147e-07
-5.25138e-08
-1.40996e-07
-5.8365e-08
-1.39089e-07
-6.40548e-08
-1.37419e-07
-6.96115e-08
-1.35978e-07
-7.50633e-08
-1.34758e-07
-8.04378e-08
-1.33754e-07
-8.57625e-08
-1.32962e-07
-9.10649e-08
-1.32376e-07
-9.63724e-08
-1.31995e-07
-1.01712e-07
-1.3182e-07
-1.07109e-07
-1.31854e-07
-1.12584e-07
-1.32114e-07
-1.18207e-07
-1.32614e-07
-1.23964e-07
-1.33374e-07
-1.29878e-07
-1.34453e-07
-1.35956e-07
-1.3595e-07
-1.42201e-07
-1.37989e-07
-1.48583e-07
-1.40811e-07
-1.55024e-07
-1.44819e-07
-1.61399e-07
-1.50761e-07
-1.6809e-07
-1.58407e-07
-1.75372e-07
-1.67482e-07
-1.83467e-07
-1.77831e-07
-1.92575e-07
-1.89358e-07
-2.02888e-07
-2.02003e-07
-2.14613e-07
-2.15727e-07
-2.27957e-07
-2.30497e-07
-2.43136e-07
-2.46268e-07
-2.60363e-07
-2.63031e-07
-2.79913e-07
-2.80716e-07
-3.02088e-07
-2.99206e-07
-3.2722e-07
-3.18347e-07
-3.55673e-07
-3.37977e-07
-3.87848e-07
-3.57852e-07
-4.24159e-07
-3.7761e-07
-4.64999e-07
-3.96735e-07
-5.10675e-07
-4.1454e-07
-5.6132e-07
-4.30157e-07
-6.16762e-07
-4.42556e-07
-6.76379e-07
-4.50609e-07
-7.38993e-07
-4.53213e-07
-8.02808e-07
-4.49466e-07
-8.65521e-07
-4.38873e-07
-9.24675e-07
-4.21511e-07
-9.78148e-07
-3.98042e-07
-1.0246e-06
-3.69552e-07
-1.06361e-06
-3.37251e-07
-1.09558e-06
-3.02205e-07
-1.12129e-06
-2.65184e-07
-1.14166e-06
-2.26642e-07
-1.15746e-06
-1.86773e-07
-1.16926e-06
-1.45642e-07
-1.17745e-06
-1.03513e-07
-1.18226e-06
-6.12462e-08
-1.99674e-08
6.57709e-07
-1.07678e-08
6.5511e-07
-3.27849e-08
6.50562e-07
-5.53642e-08
6.43863e-07
-7.82902e-08
6.34815e-07
-1.01242e-07
6.23229e-07
-1.23962e-07
6.08963e-07
-1.46208e-07
5.91955e-07
-1.67665e-07
5.72255e-07
-1.87924e-07
5.50059e-07
-2.06518e-07
5.25701e-07
-2.22994e-07
4.99627e-07
-2.36985e-07
4.72347e-07
-2.4826e-07
4.44378e-07
-2.56753e-07
4.16194e-07
-2.62543e-07
3.88179e-07
-2.65831e-07
3.60654e-07
-2.66891e-07
3.33871e-07
-2.66034e-07
3.08012e-07
-2.63588e-07
2.832e-07
-2.59856e-07
2.59491e-07
-2.55115e-07
2.36911e-07
-2.49611e-07
2.15459e-07
-2.43557e-07
1.95117e-07
-2.3713e-07
1.75856e-07
-2.30482e-07
1.57638e-07
-2.23736e-07
1.40421e-07
-2.16991e-07
1.24157e-07
-2.10329e-07
1.088e-07
-2.03813e-07
9.4302e-08
-1.97493e-07
8.06153e-08
-1.91405e-07
6.76925e-08
-1.85578e-07
5.54867e-08
-1.80029e-07
4.39521e-08
-1.74772e-07
3.30378e-08
-1.6981e-07
2.26988e-08
-1.65137e-07
1.28948e-08
-1.60752e-07
3.58633e-09
-1.56653e-07
-5.2648e-09
-1.52837e-07
-1.36955e-08
-1.49296e-07
-2.17415e-08
-1.46026e-07
-2.94375e-08
-1.43017e-07
-3.68168e-08
-1.40262e-07
-4.39122e-08
-1.37754e-07
-5.0755e-08
-1.35484e-07
-5.73756e-08
-1.33445e-07
-6.38028e-08
-1.31628e-07
-7.00673e-08
-1.30025e-07
-7.61966e-08
-1.28631e-07
-8.22187e-08
-1.27438e-07
-8.81609e-08
-1.2644e-07
-9.40509e-08
-1.25633e-07
-9.99157e-08
-1.25012e-07
-1.05782e-07
-1.24574e-07
-1.11677e-07
-1.2432e-07
-1.17625e-07
-1.24254e-07
-1.23647e-07
-1.24389e-07
-1.29779e-07
-1.2474e-07
-1.36032e-07
-1.25325e-07
-1.42416e-07
-1.262e-07
-1.48928e-07
-1.27461e-07
-1.55565e-07
-1.29222e-07
-1.62278e-07
-1.31721e-07
-1.68969e-07
-1.35341e-07
-1.75647e-07
-1.40797e-07
-1.82639e-07
-1.47816e-07
-1.90195e-07
-1.56152e-07
-1.98526e-07
-1.65665e-07
-2.07822e-07
-1.7627e-07
-2.18269e-07
-1.87914e-07
-2.30058e-07
-2.00562e-07
-2.434e-07
-2.14182e-07
-2.5852e-07
-2.28743e-07
-2.75667e-07
-2.44227e-07
-2.95095e-07
-2.60565e-07
-3.17066e-07
-2.77652e-07
-3.41907e-07
-2.9535e-07
-3.69983e-07
-3.13502e-07
-4.01685e-07
-3.31879e-07
-4.37413e-07
-3.50137e-07
-4.77541e-07
-3.67793e-07
-5.22358e-07
-3.84205e-07
-5.71968e-07
-3.98564e-07
-6.26194e-07
-4.09916e-07
-6.84443e-07
-4.17224e-07
-7.45562e-07
-4.19472e-07
-8.07813e-07
-4.15844e-07
-8.68988e-07
-4.05904e-07
-9.26736e-07
-3.89741e-07
-9.79038e-07
-3.67981e-07
-1.02461e-06
-3.41624e-07
-1.06307e-06
-3.11777e-07
-1.09476e-06
-2.79402e-07
-1.12042e-06
-2.45193e-07
-1.14088e-06
-2.09559e-07
-1.15686e-06
-1.7267e-07
-1.16888e-06
-1.3459e-07
-1.17725e-06
-9.55756e-08
-1.18219e-06
-5.64667e-08
-1.83666e-08
6.57732e-07
-1.00361e-08
6.55183e-07
-3.05328e-08
6.50716e-07
-5.15321e-08
6.44141e-07
-7.28292e-08
6.35266e-07
-9.41217e-08
6.23909e-07
-1.15174e-07
6.09927e-07
-1.35769e-07
5.93252e-07
-1.55625e-07
5.73932e-07
-1.74373e-07
5.52147e-07
-1.9159e-07
5.28214e-07
-2.06864e-07
5.02556e-07
-2.19857e-07
4.75662e-07
-2.30359e-07
4.48031e-07
-2.38301e-07
4.20124e-07
-2.43753e-07
3.9235e-07
-2.46895e-07
3.65038e-07
-2.47982e-07
3.38436e-07
-2.47302e-07
3.1271e-07
-2.45146e-07
2.87969e-07
-2.41796e-07
2.64276e-07
-2.37508e-07
2.41658e-07
-2.32509e-07
2.20119e-07
-2.26994e-07
1.99644e-07
-2.21129e-07
1.80205e-07
-2.15054e-07
1.61767e-07
-2.08881e-07
1.44291e-07
-2.02705e-07
1.27732e-07
-1.96599e-07
1.12046e-07
-1.90622e-07
9.71887e-08
-1.8482e-07
8.31141e-08
-1.79227e-07
6.9778e-08
-1.73869e-07
5.71366e-08
-1.68763e-07
4.51468e-08
-1.63922e-07
3.37597e-08
-1.59346e-07
2.29337e-08
-1.55032e-07
1.26308e-08
-1.50979e-07
2.81367e-09
-1.47185e-07
-6.55369e-09
-1.43646e-07
-1.55065e-08
-1.40358e-07
-2.40787e-08
-1.37313e-07
-3.23035e-08
-1.34507e-07
-4.02129e-08
-1.31931e-07
-4.78383e-08
-1.29578e-07
-5.52097e-08
-1.27441e-07
-6.23564e-08
-1.25513e-07
-6.93041e-08
-1.23786e-07
-7.60873e-08
-1.22255e-07
-8.27307e-08
-1.20912e-07
-8.9261e-08
-1.1975e-07
-9.57044e-08
-1.18764e-07
-1.02087e-07
-1.17949e-07
-1.08434e-07
-1.17301e-07
-1.14771e-07
-1.16818e-07
-1.21121e-07
-1.165e-07
-1.27508e-07
-1.16349e-07
-1.33948e-07
-1.16378e-07
-1.40469e-07
-1.16603e-07
-1.47083e-07
-1.1704e-07
-1.53796e-07
-1.17744e-07
-1.60608e-07
-1.18807e-07
-1.67502e-07
-1.20333e-07
-1.74434e-07
-1.22555e-07
-1.81309e-07
-1.25833e-07
-1.88204e-07
-1.30831e-07
-1.9542e-07
-1.37266e-07
-2.03187e-07
-1.44914e-07
-2.11705e-07
-1.53648e-07
-2.2116e-07
-1.63392e-07
-2.31733e-07
-1.74097e-07
-2.43612e-07
-1.85733e-07
-2.56991e-07
-1.98275e-07
-2.72074e-07
-2.11694e-07
-2.89119e-07
-2.25962e-07
-3.08401e-07
-2.4102e-07
-3.30228e-07
-2.56779e-07
-3.54891e-07
-2.73104e-07
-3.82722e-07
-2.89845e-07
-4.14117e-07
-3.06789e-07
-4.49482e-07
-3.23614e-07
-4.89184e-07
-3.39867e-07
-5.33492e-07
-3.54948e-07
-5.82512e-07
-3.68109e-07
-6.3606e-07
-3.78468e-07
-6.93527e-07
-3.85068e-07
-7.53761e-07
-3.86984e-07
-8.15033e-07
-3.83475e-07
-8.75163e-07
-3.74161e-07
-9.31847e-07
-3.5914e-07
-9.83121e-07
-3.38999e-07
-1.02776e-06
-3.14656e-07
-1.06541e-06
-2.87121e-07
-1.09644e-06
-2.57269e-07
-1.12159e-06
-2.25728e-07
-1.14167e-06
-1.92871e-07
-1.15737e-06
-1.58856e-07
-1.16918e-06
-1.23744e-07
-1.17741e-06
-8.77878e-08
-1.18224e-06
-5.1794e-08
-1.68171e-08
6.57732e-07
-9.30628e-09
6.552e-07
-2.83017e-08
6.50772e-07
-4.77497e-08
6.44265e-07
-6.74542e-08
6.35495e-07
-8.71325e-08
6.24286e-07
-1.06567e-07
6.10496e-07
-1.25564e-07
5.94059e-07
-1.43872e-07
5.75013e-07
-1.61157e-07
5.53531e-07
-1.77036e-07
5.29917e-07
-1.91135e-07
5.04584e-07
-2.03146e-07
4.78009e-07
-2.12872e-07
4.5068e-07
-2.20251e-07
4.23057e-07
-2.25346e-07
3.95536e-07
-2.28319e-07
3.68434e-07
-2.29401e-07
3.41989e-07
-2.28854e-07
3.1637e-07
-2.26947e-07
2.91688e-07
-2.23937e-07
2.68006e-07
-2.2006e-07
2.45356e-07
-2.15524e-07
2.23742e-07
-2.10509e-07
2.03151e-07
-2.05167e-07
1.83557e-07
-1.99627e-07
1.64928e-07
-1.93993e-07
1.47226e-07
-1.88351e-07
1.3041e-07
-1.8277e-07
1.14437e-07
-1.77302e-07
9.92657e-08
-1.71992e-07
8.48527e-08
-1.66869e-07
7.11559e-08
-1.61958e-07
5.8134e-08
-1.57275e-07
4.5746e-08
-1.5283e-07
3.39444e-08
-1.48626e-07
2.26905e-08
-1.44657e-07
1.19485e-08
-1.40923e-07
1.6832e-09
-1.37424e-07
-8.13913e-09
-1.34155e-07
-1.75519e-08
-1.31112e-07
-2.65875e-08
-1.28291e-07
-3.52772e-08
-1.25684e-07
-4.36517e-08
-1.23285e-07
-5.17407e-08
-1.21088e-07
-5.95737e-08
-1.19087e-07
-6.71805e-08
-1.17274e-07
-7.4594e-08
-1.15643e-07
-8.18262e-08
-1.14186e-07
-8.89081e-08
-1.12898e-07
-9.58671e-08
-1.11774e-07
-1.02729e-07
-1.10808e-07
-1.09518e-07
-1.09996e-07
-1.16258e-07
-1.09333e-07
-1.22973e-07
-1.08818e-07
-1.29684e-07
-1.08451e-07
-1.36411e-07
-1.08235e-07
-1.43169e-07
-1.0818e-07
-1.49979e-07
-1.08304e-07
-1.56853e-07
-1.08621e-07
-1.63798e-07
-1.09183e-07
-1.70814e-07
-1.10078e-07
-1.77882e-07
-1.11403e-07
-1.84963e-07
-1.13377e-07
-1.91969e-07
-1.1634e-07
-1.99036e-07
-1.20904e-07
-2.06436e-07
-1.26788e-07
-2.14384e-07
-1.33788e-07
-2.23069e-07
-1.41788e-07
-2.32669e-07
-1.50717e-07
-2.43361e-07
-1.60534e-07
-2.55329e-07
-1.71212e-07
-2.68769e-07
-1.82727e-07
-2.83893e-07
-1.95057e-07
-3.0094e-07
-2.08168e-07
-3.20172e-07
-2.22006e-07
-3.41883e-07
-2.36487e-07
-3.66402e-07
-2.51492e-07
-3.94088e-07
-2.66882e-07
-4.25297e-07
-2.82451e-07
-4.60408e-07
-2.97902e-07
-4.99786e-07
-3.12814e-07
-5.43705e-07
-3.26633e-07
-5.92253e-07
-3.38662e-07
-6.45231e-07
-3.4809e-07
-7.02021e-07
-3.54037e-07
-7.6147e-07
-3.55657e-07
-8.21863e-07
-3.5228e-07
-8.81048e-07
-3.4357e-07
-9.36771e-07
-3.29633e-07
-9.87119e-07
-3.11019e-07
-1.03092e-06
-2.88574e-07
-1.06784e-06
-2.63224e-07
-1.09825e-06
-2.35768e-07
-1.1229e-06
-2.06779e-07
-1.14258e-06
-1.76598e-07
-1.15796e-06
-1.45369e-07
-1.16952e-06
-1.13151e-07
-1.17757e-06
-8.01861e-08
-1.18229e-06
-4.72398e-08
-1.53106e-08
6.5774e-07
-8.58572e-09
6.5523e-07
-2.60978e-08
6.5084e-07
-4.40149e-08
6.44393e-07
-6.21541e-08
6.35707e-07
-8.02506e-08
6.24611e-07
-9.81063e-08
6.10968e-07
-1.15547e-07
5.9471e-07
-1.32346e-07
5.75873e-07
-1.48205e-07
5.54623e-07
-1.62778e-07
5.31255e-07
-1.75724e-07
5.06173e-07
-1.86762e-07
4.79843e-07
-1.95715e-07
4.52746e-07
-2.02524e-07
4.25332e-07
-2.07245e-07
3.97991e-07
-2.10027e-07
3.71034e-07
-2.11077e-07
3.44699e-07
-2.10635e-07
3.19154e-07
-2.08946e-07
2.94509e-07
-2.06245e-07
2.70829e-07
-2.02746e-07
2.48144e-07
-1.98641e-07
2.26461e-07
-1.94094e-07
2.05768e-07
-1.89245e-07
1.8604e-07
-1.8421e-07
1.67247e-07
-1.79086e-07
1.49352e-07
-1.73952e-07
1.32316e-07
-1.68868e-07
1.16098e-07
-1.63887e-07
1.00658e-07
-1.59044e-07
8.59555e-08
-1.54371e-07
7.19495e-08
-1.49888e-07
5.8601e-08
-1.45609e-07
4.58713e-08
-1.41546e-07
3.37137e-08
-1.37699e-07
2.20923e-08
-1.34063e-07
1.0973e-08
-1.30639e-07
3.22496e-10
-1.27426e-07
-9.89181e-09
-1.2442e-07
-1.9701e-08
-1.21619e-07
-2.91356e-08
-1.19016e-07
-3.82255e-08
-1.16606e-07
-4.69996e-08
-1.14384e-07
-5.54862e-08
-1.12344e-07
-6.37131e-08
-1.10479e-07
-7.17076e-08
-1.08784e-07
-7.94972e-08
-1.07251e-07
-8.71034e-08
-1.05876e-07
-9.45523e-08
-1.04652e-07
-1.01869e-07
-1.03575e-07
-1.09076e-07
-1.0264e-07
-1.16196e-07
-1.01843e-07
-1.23252e-07
-1.0118e-07
-1.30263e-07
-1.0065e-07
-1.37251e-07
-1.00252e-07
-1.44235e-07
-9.99903e-08
-1.51226e-07
-9.98737e-08
-1.58247e-07
-9.99201e-08
-1.65306e-07
-1.00142e-07
-1.72411e-07
-1.00589e-07
-1.79565e-07
-1.01344e-07
-1.8675e-07
-1.02497e-07
-1.9394e-07
-1.0425e-07
-2.01064e-07
-1.06924e-07
-2.08279e-07
-1.11073e-07
-2.15838e-07
-1.16433e-07
-2.23944e-07
-1.22816e-07
-2.32778e-07
-1.30115e-07
-2.42513e-07
-1.38267e-07
-2.53323e-07
-1.47235e-07
-2.65389e-07
-1.56992e-07
-2.78908e-07
-1.6752e-07
-2.9409e-07
-1.78796e-07
-3.11172e-07
-1.90788e-07
-3.30412e-07
-2.03447e-07
-3.52093e-07
-2.16695e-07
-3.7653e-07
-2.30422e-07
-4.04091e-07
-2.44499e-07
-4.35177e-07
-2.58743e-07
-4.70139e-07
-2.72869e-07
-5.09314e-07
-2.86491e-07
-5.52976e-07
-2.99097e-07
-6.01204e-07
-3.10046e-07
-6.53787e-07
-3.18591e-07
-7.10094e-07
-3.23928e-07
-7.68967e-07
-3.25285e-07
-8.2869e-07
-3.22058e-07
-8.87126e-07
-3.13952e-07
-9.42047e-07
-3.01077e-07
-9.9158e-07
-2.83945e-07
-1.03459e-06
-2.63335e-07
-1.07077e-06
-2.40092e-07
-1.10053e-06
-2.14946e-07
-1.1246e-06
-1.8842e-07
-1.14379e-06
-1.60826e-07
-1.15877e-06
-1.32298e-07
-1.17e-06
-1.02892e-07
-1.17779e-06
-7.28364e-08
-1.18235e-06
-4.28499e-08
-1.38656e-08
6.57743e-07
-7.86822e-09
6.55244e-07
-2.39092e-08
6.50877e-07
-4.03125e-08
6.4447e-07
-5.69077e-08
6.35843e-07
-7.34491e-08
6.2483e-07
-8.97559e-08
6.11295e-07
-1.05672e-07
5.9517e-07
-1.20996e-07
5.76488e-07
-1.35459e-07
5.55411e-07
-1.4875e-07
5.32228e-07
-1.60561e-07
5.07337e-07
-1.70639e-07
4.81195e-07
-1.78822e-07
4.54277e-07
-1.85058e-07
4.27026e-07
-1.89396e-07
3.99825e-07
-1.9197e-07
3.72983e-07
-1.92968e-07
3.46735e-07
-1.92609e-07
3.21247e-07
-1.91113e-07
2.96629e-07
-1.88694e-07
2.72946e-07
-1.85548e-07
2.50229e-07
-1.81847e-07
2.28483e-07
-1.77743e-07
2.077e-07
-1.7336e-07
1.87856e-07
-1.68807e-07
1.6892e-07
-1.64169e-07
1.50858e-07
-1.59519e-07
1.33633e-07
-1.54913e-07
1.17204e-07
-1.50396e-07
1.01534e-07
-1.46004e-07
8.65824e-08
-1.41762e-07
7.23117e-08
-1.37691e-07
5.86839e-08
-1.33803e-07
4.56619e-08
-1.30109e-07
3.32005e-08
-1.26607e-07
2.12657e-08
-1.23295e-07
9.82528e-09
-1.20173e-07
-1.15256e-09
-1.1724e-07
-1.16985e-08
-1.14493e-07
-2.18428e-08
-1.11928e-07
-3.16146e-08
-1.09541e-07
-4.10424e-08
-1.07327e-07
-5.01538e-08
-1.05281e-07
-5.89754e-08
-1.03398e-07
-6.75331e-08
-1.01672e-07
-7.58512e-08
-1.00098e-07
-8.39515e-08
-9.86698e-08
-9.18658e-08
-9.73836e-08
-9.96149e-08
-9.62334e-08
-1.07221e-07
-9.52142e-08
-1.14705e-07
-9.43216e-08
-1.22088e-07
-9.35521e-08
-1.29392e-07
-9.29026e-08
-1.36637e-07
-9.23717e-08
-1.43839e-07
-9.19596e-08
-1.51018e-07
-9.16697e-08
-1.58185e-07
-9.15109e-08
-1.65359e-07
-9.15009e-08
-1.72551e-07
-9.16504e-08
-1.79768e-07
-9.20061e-08
-1.87017e-07
-9.26434e-08
-1.94287e-07
-9.36468e-08
-2.01563e-07
-9.52027e-08
-2.08794e-07
-9.76033e-08
-2.16138e-07
-1.01354e-07
-2.23835e-07
-1.06209e-07
-2.32083e-07
-1.11997e-07
-2.41054e-07
-1.18621e-07
-2.50919e-07
-1.26024e-07
-2.61847e-07
-1.34172e-07
-2.74018e-07
-1.4304e-07
-2.87625e-07
-1.52612e-07
-3.0288e-07
-1.62866e-07
-3.20016e-07
-1.73773e-07
-3.39291e-07
-1.85288e-07
-3.60987e-07
-1.97339e-07
-3.85419e-07
-2.09826e-07
-4.12938e-07
-2.2263e-07
-4.43921e-07
-2.3558e-07
-4.78775e-07
-2.48422e-07
-5.17822e-07
-2.60796e-07
-5.613e-07
-2.72233e-07
-6.0929e-07
-2.82145e-07
-6.61568e-07
-2.89851e-07
-7.17493e-07
-2.94618e-07
-7.75895e-07
-2.95746e-07
-8.35057e-07
-2.92693e-07
-8.9285e-07
-2.85198e-07
-9.47071e-07
-2.73372e-07
-9.9588e-07
-2.57689e-07
-1.03817e-06
-2.38865e-07
-1.07368e-06
-2.17669e-07
-1.10282e-06
-1.94766e-07
-1.12633e-06
-1.70631e-07
-1.14503e-06
-1.45551e-07
-1.15959e-06
-1.19648e-07
-1.17049e-06
-9.29761e-08
-1.17802e-06
-6.57469e-08
-1.18241e-06
-3.86283e-08
-1.24813e-08
6.57746e-07
-7.1551e-09
6.55256e-07
-2.17333e-08
6.50908e-07
-3.66344e-08
6.44527e-07
-5.17001e-08
6.35941e-07
-6.67052e-08
6.24985e-07
-8.14859e-08
6.11525e-07
-9.59031e-08
5.95494e-07
-1.09778e-07
5.76925e-07
-1.22869e-07
5.55976e-07
-1.34899e-07
5.32933e-07
-1.45592e-07
5.08186e-07
-1.5472e-07
4.82187e-07
-1.62138e-07
4.55404e-07
-1.67798e-07
4.28275e-07
-1.71745e-07
4.01179e-07
-1.741e-07
3.74424e-07
-1.75033e-07
3.4824e-07
-1.74738e-07
3.22793e-07
-1.73416e-07
2.98193e-07
-1.7126e-07
2.74502e-07
-1.68445e-07
2.51753e-07
-1.65129e-07
2.29953e-07
-1.61445e-07
2.09091e-07
-1.57509e-07
1.89146e-07
-1.53417e-07
1.70088e-07
-1.49247e-07
1.51884e-07
-1.45063e-07
1.34497e-07
-1.40917e-07
1.1789e-07
-1.36849e-07
1.02025e-07
-1.32891e-07
8.68634e-08
-1.29067e-07
7.23696e-08
-1.25395e-07
5.85068e-08
-1.21887e-07
4.52343e-08
-1.18551e-07
3.25168e-08
-1.15386e-07
2.03175e-08
-1.1239e-07
8.60584e-09
-1.09563e-07
-2.6484e-09
-1.06904e-07
-1.34745e-08
-1.04412e-07
-2.39009e-08
-1.02081e-07
-3.39555e-08
-9.99097e-08
-4.36652e-08
-9.78925e-08
-5.30563e-08
-9.60249e-08
-6.21543e-08
-9.43021e-08
-7.09839e-08
-9.27193e-08
-7.95691e-08
-9.12716e-08
-8.79333e-08
-8.99543e-08
-9.61007e-08
-8.87626e-08
-1.04094e-07
-8.76921e-08
-1.11933e-07
-8.67384e-08
-1.1964e-07
-8.58976e-08
-1.27234e-07
-8.51666e-08
-1.34734e-07
-8.45428e-08
-1.4216e-07
-8.4025e-08
-1.49528e-07
-8.36136e-08
-1.56855e-07
-8.33117e-08
-1.64153e-07
-8.31274e-08
-1.71442e-07
-8.30781e-08
-1.78732e-07
-8.3173e-08
-1.86031e-07
-8.34554e-08
-1.93351e-07
-8.39937e-08
-2.00686e-07
-8.48654e-08
-2.08029e-07
-8.62395e-08
-2.15351e-07
-8.83806e-08
-2.22806e-07
-9.17462e-08
-2.30626e-07
-9.61127e-08
-2.38999e-07
-1.01325e-07
-2.48097e-07
-1.07294e-07
-2.58083e-07
-1.13969e-07
-2.69126e-07
-1.21319e-07
-2.81402e-07
-1.29322e-07
-2.95104e-07
-1.37963e-07
-3.10439e-07
-1.47222e-07
-3.2764e-07
-1.57072e-07
-3.46963e-07
-1.67472e-07
-3.68689e-07
-1.78357e-07
-3.93133e-07
-1.89635e-07
-4.20644e-07
-2.01196e-07
-4.51599e-07
-2.12887e-07
-4.86371e-07
-2.24475e-07
-5.25325e-07
-2.35636e-07
-5.68678e-07
-2.45938e-07
-6.16497e-07
-2.54852e-07
-6.68549e-07
-2.61757e-07
-7.2418e-07
-2.65989e-07
-7.82211e-07
-2.6692e-07
-8.40917e-07
-2.64063e-07
-8.98175e-07
-2.5719e-07
-9.51797e-07
-2.46411e-07
-9.99969e-07
-2.32161e-07
-1.04162e-06
-2.15091e-07
-1.0765e-06
-1.959e-07
-1.10505e-06
-1.75188e-07
-1.12803e-06
-1.53387e-07
-1.14626e-06
-1.30757e-07
-1.16041e-06
-1.07411e-07
-1.17097e-06
-8.33985e-08
-1.17825e-06
-5.89153e-08
-1.18247e-06
-3.45729e-08
-1.11562e-08
6.57747e-07
-6.44323e-09
6.55261e-07
-1.95637e-08
6.5092e-07
-3.29703e-08
6.44555e-07
-4.65174e-08
6.35994e-07
-6.00011e-08
6.25076e-07
-7.32735e-08
6.11669e-07
-8.62114e-08
5.95705e-07
-9.86564e-08
5.77217e-07
-1.10396e-07
5.56361e-07
-1.21182e-07
5.33419e-07
-1.3077e-07
5.08778e-07
-1.38958e-07
4.82886e-07
-1.45616e-07
4.56206e-07
-1.50701e-07
4.29172e-07
-1.54254e-07
4.0216e-07
-1.56382e-07
3.75472e-07
-1.57237e-07
3.49339e-07
-1.56994e-07
3.23924e-07
-1.55832e-07
2.99336e-07
-1.53922e-07
2.75638e-07
-1.51423e-07
2.52861e-07
-1.48473e-07
2.31012e-07
-1.45194e-07
2.10082e-07
-1.41688e-07
1.9005e-07
-1.3804e-07
1.70887e-07
-1.34321e-07
1.52561e-07
-1.30588e-07
1.35035e-07
-1.26888e-07
1.18275e-07
-1.23256e-07
1.02243e-07
-1.19721e-07
8.69021e-08
-1.16304e-07
7.22178e-08
-1.13021e-07
5.81544e-08
-1.09883e-07
4.46764e-08
-1.06897e-07
3.1742e-08
-1.04062e-07
1.93202e-08
-1.01376e-07
7.38147e-09
-9.88401e-08
-4.10331e-09
-9.64527e-08
-1.51624e-08
-9.42119e-08
-2.58232e-08
-9.21149e-08
-3.61125e-08
-9.01581e-08
-4.60563e-08
-8.83377e-08
-5.56796e-08
-8.66496e-08
-6.50071e-08
-8.50895e-08
-7.40625e-08
-8.36532e-08
-8.28687e-08
-8.23364e-08
-9.14483e-08
-8.11349e-08
-9.98229e-08
-8.00446e-08
-1.08014e-07
-7.90614e-08
-1.16042e-07
-7.81818e-08
-1.23927e-07
-7.74022e-08
-1.31688e-07
-7.67197e-08
-1.39343e-07
-7.61323e-08
-1.4691e-07
-7.56389e-08
-1.54407e-07
-7.52401e-08
-1.6185e-07
-7.49391e-08
-1.6925e-07
-7.47428e-08
-1.76627e-07
-7.46684e-08
-1.83992e-07
-7.47233e-08
-1.91355e-07
-7.49469e-08
-1.9873e-07
-7.54005e-08
-2.06117e-07
-7.61543e-08
-2.13518e-07
-7.73596e-08
-2.20914e-07
-7.9253e-08
-2.28464e-07
-8.22459e-08
-2.36389e-07
-8.61384e-08
-2.44872e-07
-9.079e-08
-2.54079e-07
-9.61214e-08
-2.64173e-07
-1.02086e-07
-2.75319e-07
-1.08657e-07
-2.87693e-07
-1.15815e-07
-3.01484e-07
-1.23545e-07
-3.16898e-07
-1.3183e-07
-3.34168e-07
-1.40645e-07
-3.53545e-07
-1.49953e-07
-3.75313e-07
-1.59695e-07
-3.99783e-07
-1.69787e-07
-4.27305e-07
-1.80133e-07
-4.58254e-07
-1.90592e-07
-4.93002e-07
-2.00955e-07
-5.31884e-07
-2.10929e-07
-5.7516e-07
-2.20131e-07
-6.22856e-07
-2.28077e-07
-6.74738e-07
-2.34213e-07
-7.3014e-07
-2.37944e-07
-7.87871e-07
-2.38706e-07
-8.462e-07
-2.36068e-07
-9.03006e-07
-2.29832e-07
-9.56111e-07
-2.20103e-07
-1.00372e-06
-2.07276e-07
-1.0448e-06
-1.91939e-07
-1.07912e-06
-1.74721e-07
-1.10713e-06
-1.56159e-07
-1.12962e-06
-1.36645e-07
-1.1474e-06
-1.1641e-07
-1.16117e-06
-9.556e-08
-1.17141e-06
-7.41387e-08
-1.17845e-06
-5.23242e-08
-1.18252e-06
-3.06699e-08
-9.88341e-09
6.57747e-07
-5.73215e-09
6.55264e-07
-1.7399e-08
6.50928e-07
-2.9315e-08
6.4457e-07
-4.13501e-08
6.36023e-07
-5.33214e-08
6.25127e-07
-6.5098e-08
6.11752e-07
-7.65717e-08
5.95833e-07
-8.76038e-08
5.77401e-07
-9.80072e-08
5.56611e-07
-1.07564e-07
5.33744e-07
-1.1606e-07
5.09181e-07
-1.23315e-07
4.83369e-07
-1.29218e-07
4.56765e-07
-1.33729e-07
4.29802e-07
-1.36885e-07
4.02851e-07
-1.38782e-07
3.76214e-07
-1.39553e-07
3.50119e-07
-1.39352e-07
3.24727e-07
-1.38338e-07
3.00146e-07
-1.36663e-07
2.76439e-07
-1.34466e-07
2.53638e-07
-1.3187e-07
2.31748e-07
-1.28982e-07
2.10761e-07
-1.25892e-07
1.90656e-07
-1.22676e-07
1.71406e-07
-1.19396e-07
1.52978e-07
-1.16102e-07
1.35337e-07
-1.12836e-07
1.18449e-07
-1.09629e-07
1.02278e-07
-1.06506e-07
8.67884e-08
-1.03487e-07
7.19454e-08
-1.00584e-07
5.77152e-08
-9.78088e-08
4.40628e-08
-9.51666e-08
3.09472e-08
-9.26563e-08
1.83392e-08
-9.02764e-08
6.20998e-09
-8.80275e-08
-5.46834e-09
-8.59087e-08
-1.67229e-08
-8.39182e-08
-2.758e-08
-8.20536e-08
-3.80654e-08
-8.03119e-08
-4.82039e-08
-7.86895e-08
-5.80196e-08
-7.7183e-08
-6.75362e-08
-7.57886e-08
-7.67764e-08
-7.45026e-08
-8.57626e-08
-7.33212e-08
-9.45164e-08
-7.22407e-08
-1.03059e-07
-7.12575e-08
-1.11411e-07
-7.03681e-08
-1.19591e-07
-6.95694e-08
-1.2762e-07
-6.88584e-08
-1.35515e-07
-6.82327e-08
-1.43294e-07
-6.76906e-08
-1.50974e-07
-6.72312e-08
-1.58573e-07
-6.68553e-08
-1.66106e-07
-6.65657e-08
-1.73586e-07
-6.63688e-08
-1.81031e-07
-6.62804e-08
-1.88455e-07