/*--------------------------------*- C++ -*----------------------------------*\
  =========                 |
  \\      /  F ield         | OpenFOAM: The Open Source CFD Toolbox
   \\    /   O peration     | Website:  https://openfoam.org
    \\  /    A nd           | Version:  8
     \\/     M anipulation  |
\*---------------------------------------------------------------------------*/
FoamFile
{
    version     2.0;
    format      ascii;
    class       volScalarField;
    location    "0.05/fluid";
    object      Qdot;
}
// * * * * * * * * * * * * * * * * * * * * * * * * * * * * * * * * * * * * * //

dimensions      [1 -1 -3 0 0 0 0];

internalField   nonuniform List<scalar> 
4000
(
6.50046e-14
4.84588e-14
0
0
0
2.02442e-13
6.76991e-12
-4.04884e-13
0
-7.26515e-18
5.41592e-11
4.82896e-10
3.38027e-09
3.47685e-08
3.19675e-07
2.67331e-06
1.77374e-05
0.000117487
0.000656042
0.00321783
0.0138794
0.0531534
0.181035
0.554119
1.53889
3.91173
9.17322
19.9883
40.732
78.08
141.545
243.846
401.038
632.412
960.471
1411.68
2016.97
2814.38
3854.34
5208.73
6985.7
9353.25
12576.9
17080.7
23547.1
33083.4
47498.3
69758.9
104727
160298
249089
390915
615920
969613
1.52053e+06
2.37041e+06
3.66492e+06
5.65917e+06
8.69635e+06
1.33125e+07
2.03053e+07
3.08925e+07
4.70281e+07
7.10942e+07
6.02814e+07
3.8443e+07
2.43579e+07
1.52625e+07
9.42489e+06
5.71669e+06
3.3958e+06
1.96962e+06
1.11191e+06
609218
322968
165447
82379.3
38390.7
13894.1
4122.32
896.758
138.499
15.8211
1.34688
0.0858713
0.00422182
0.000171243
6.38528e-06
2.51876e-07
1.23719e-08
8.76594e-10
1.2624e-10
-1.04517e-12
-1.99806e-13
-4.84047e-14
-1.37656e-14
1.88199e-12
-1.40495e-15
-4.25279e-16
-7.11348e-17
1.17895e-13
2.1156e-13
0
0
0
0
0
1.34561e-06
0
-3.63258e-18
-5.08561e-17
2.41448e-10
2.65592e-09
2.7525e-08
2.56416e-07
2.16723e-06
1.48889e-05
9.69703e-05
0.00055626
0.00279152
0.0122854
0.0473273
0.16259
0.502534
1.40955
3.61756
8.56073
18.812
38.6354
74.5941
136.116
235.904
390.1
618.216
943.135
1391.85
1995.97
2794.41
3838.71
5202.36
6995.91
9391.31
12660.6
17238.9
23827.2
33564.5
48312.6
71126.7
107010
164080
255281
400881
631650
993996
1.55771e+06
2.42646e+06
3.74769e+06
5.78216e+06
8.87763e+06
1.35839e+07
2.06975e+07
3.14595e+07
4.78437e+07
7.21364e+07
5.96065e+07
3.80181e+07
2.40863e+07
1.50895e+07
9.31007e+06
5.64144e+06
3.3478e+06
1.9397e+06
1.09419e+06
598886
317063
162164
80568.4
37289.5
13217.3
3910.83
833.645
126.479
14.2188
1.19286
0.0751425
0.0036689
0.000148989
5.62467e-06
2.26753e-07
1.10127e-08
6.65083e-10
1.00558e-10
-1.03107e-12
-1.99885e-13
-4.88355e-14
-1.39908e-14
-4.41556e-15
-1.44167e-15
-4.36905e-16
-7.31235e-17
1.21147e-14
2.83795e-20
5.6759e-20
0
0
0
0
0
0
-3.63258e-18
5.33495e-11
2.40638e-10
2.41448e-09
2.17303e-08
8.75404e-07
1.72394e-06
1.23799e-05
7.96922e-05
0.00046567
0.00235297
0.0103402
0.0402916
0.140141
0.438607
1.24551
3.23505
7.74402
17.2047
35.7032
69.6108
128.195
224.09
373.531
596.339
915.97
1360.25
1961.9
2761.26
3811.82
5189.75
7009.8
9450.66
12795.6
17498.7
24293.2
34372.3
49689.6
73451.6
110906
170543
265868
417900
658467
1.03549e+06
1.62087e+06
2.52174e+06
3.88828e+06
5.99179e+06
9.18912e+06
1.40434e+07
2.13588e+07
3.24135e+07
4.92285e+07
7.45586e+07
5.86359e+07
3.73986e+07
2.36865e+07
1.48305e+07
9.14678e+06
5.53701e+06
3.28044e+06
1.89707e+06
1.06772e+06
582958
307783
157014
77943.8
35820.5
12426.5
3683.75
773.621
116.231
12.9927
1.08799
0.0687432
0.00338631
0.000139553
5.36735e-06
2.20951e-07
1.12325e-08
7.7131e-10
1.13304e-10
-1.07368e-12
-2.10145e-13
-5.16943e-14
1.67762e-12
-4.69459e-15
-1.53223e-15
1.05315e-13
-7.77893e-17
0
0
8.46239e-13
0
0
0
0
-4.04884e-13
-4.04884e-13
-3.63258e-18
6.65647e-11
2.41448e-10
2.0399e-09
6.89972e-07
1.63002e-07
1.3975e-06
1.00282e-05
6.57833e-05
0.000380272
0.00193034
0.00861133
0.0340018
0.119761
0.379439
1.09046
2.86562
6.93813
15.5852
32.6882
64.3875
119.741
211.265
355.258
571.862
885.185
1324.05
1922.52
2722.77
3780.73
5176.1
7029.05
9527
12967.9
17830.2
24888.9
35407.8
51458.5
76442
115915
178839
279410
439555
692375
1.08757e+06
1.69954e+06
2.63939e+06
4.05968e+06
6.24238e+06
9.55549e+06
1.45757e+07
2.21214e+07
3.35242e+07
5.08216e+07
7.63022e+07
5.76254e+07
3.67652e+07
2.32832e+07
1.45718e+07
8.98039e+06
5.43336e+06
3.21675e+06
1.8577e+06
1.04349e+06
568403
299364
152339
75407.4
34381.3
11703.6
3485.96
722.888
107.6
11.9452
0.99559
0.0628264
0.00310538
0.000129147
5.04217e-06
2.12148e-07
1.13172e-08
7.5954e-10
4.60692e-11
-1.10501e-12
1.64231e-11
-5.40049e-14
1.67685e-12
1.88135e-12
-1.63258e-15
-4.96873e-16
-8.3373e-17
0
0
-5.6759e-20
0
-1.01221e-13
0
4.54072e-19
0
1.34561e-06
-3.63258e-18
-2.72443e-17
2.41448e-10
6.74386e-07
1.42702e-08
1.34726e-07
1.15798e-06
8.13327e-06
5.38454e-05
0.000313302
0.00160562
0.0072393
0.0288959
0.102891
0.329534
0.95725
2.54237
6.22028
14.1172
29.909
59.4936
111.695
198.878
337.36
547.568
854.259
1287.27
1882.13
2682.99
3748.52
5162.42
7050.99
9611.62
13158.8
18199.1
25554.9
36569.9
53449.1
79811.5
121558
188165
294571
463676
729945
1.14505e+06
1.7862e+06
2.76931e+06
4.25347e+06
6.50018e+06
9.94059e+06
1.51404e+07
2.29089e+07
3.46703e+07
5.24686e+07
7.88727e+07
5.68358e+07
3.62701e+07
2.2969e+07
1.43711e+07
8.85182e+06
5.35054e+06
3.16448e+06
1.82608e+06
1.02481e+06
557512
293062
148809
73532.2
33316.8
11259.3
3341.16
685.946
101.358
11.1955
0.930743
0.0587423
0.0029161
0.000122428
4.84945e-06
2.06752e-07
1.12714e-08
8.78573e-10
4.58374e-11
-1.15325e-12
-2.29961e-13
-5.73729e-14
-1.67223e-14
1.03472e-12
-1.7672e-15
-1.30549e-13
2.63543e-14
0
0
0
0
1.34561e-06
0
0
0
0
-3.63258e-18
5.41593e-11
2.41448e-10
6.74037e-07
6.84611e-07
-5.61739e-07
9.43577e-07
7.20287e-06
4.44884e-05
0.000262367
0.00135659
0.00617615
0.0248809
0.0894147
0.289041
0.847488
2.27199
5.61089
12.8528
27.4813
55.1602
104.476
187.623
320.901
524.97
825.189
1252.37
1843.46
2644.64
3717.42
5149.65
7074.11
9698.7
13355.5
18580.4
26245.9
37779.3
55524.8
83325.8
127429
197817
310138
488181
767639
1.2019e+06
1.87051e+06
2.8929e+06
4.4337e+06
6.75468e+06
1.03051e+07
1.56574e+07
2.36107e+07
3.57462e+07
5.39401e+07
8.01899e+07
5.63016e+07
3.59501e+07
2.27735e+07
1.42501e+07
8.77639e+06
5.30337e+06
3.135e+06
1.80756e+06
1.01336e+06
550667
289130
146629
72357
32695
11021.8
3245.92
660.978
97.0603
10.6699
0.883714
0.0557017
0.0027714
0.000117134
4.69403e-06
2.03653e-07
1.13183e-08
6.50853e-10
-2.09604e-11
-1.20182e-12
-2.4218e-13
-6.09758e-14
-1.79168e-14
-5.76666e-15
-1.91406e-15
-5.856e-16
3.24036e-14
0
0
0
2.08015e-12
0
0
-2.02442e-13
1.66412e-11
4.04884e-13
-1.81629e-18
-5.41593e-11
2.40638e-10
1.44869e-09
1.01408e-08
9.17501e-08
7.90017e-07
5.40298e-06
3.78501e-05
0.00022421
0.00116874
0.00535674
0.0217431
0.0787439
0.256572
0.758393
2.04987
5.10429
11.7895
25.4163
51.4328
98.2001
177.735
306.295
504.722
798.909
1220.55
1807.94
2609.21
3688.64
5138.21
7097.16
9783.97
13548.2
18955.7
26928.6
38978.3
57587
86817.6
133253
207357
325432
512083
804132
1.25652e+06
1.95102e+06
3.01033e+06
4.60511e+06
6.99746e+06
1.06534e+07
1.61551e+07
2.43106e+07
3.67361e+07
5.53304e+07
8.13379e+07
5.60555e+07
3.58106e+07
2.26925e+07
1.4202e+07
8.747e+06
5.28495e+06
3.12322e+06
1.79995e+06
1.00856e+06
547668
287296
145554
71768.8
32404.9
10899.6
3192.81
646.318
94.3926
10.327
0.852277
0.0536362
0.00267259
0.000113573
4.59505e-06
2.01873e-07
1.12641e-08
8.75862e-10
1.53647e-10
-1.25696e-12
-2.55495e-13
8.25574e-12
-1.91896e-14
1.8801e-12
-2.07316e-15
-6.37612e-16
-1.07544e-16
0
0
0
0
0
-2.27036e-19
0
-1.66412e-11
2.70796e-11
-1.81629e-18
-1.63466e-17
-1.63466e-16
9.65791e-10
8.47548e-09
7.51566e-07
6.78951e-07
5.24284e-06
3.30237e-05
0.000195281
0.00102362
0.00471976
0.0192796
0.0702866
0.230594
0.686429
1.86875
4.68732
10.9061
23.685
48.2798
92.8443
169.225
293.62
487.007
775.746
1192.3
1776.21
2577.38
3662.71
5128.14
7119.12
9864.3
13730.3
19311.5
27578.3
40122.5
59557.9
90155.7
138808
216419
339844
534417
837937
1.30665e+06
2.02429e+06
3.1162e+06
4.75865e+06
7.21224e+06
1.09572e+07
1.65819e+07
2.48977e+07
3.75385e+07
5.64339e+07
8.2166e+07
5.60621e+07
3.58372e+07
2.27208e+07
1.42252e+07
8.76378e+06
5.29597e+06
3.12986e+06
1.80359e+06
1.01031e+06
548363
287466
145511
71673.8
32348.9
10869.4
3174.94
639.715
92.989
10.1292
0.83294
0.052309
0.00260752
0.000111232
4.53496e-06
2.02445e-07
1.15218e-08
6.45588e-10
1.78718e-10
-1.31492e-12
-2.69594e-13
-6.88866e-14
-2.05015e-14
-6.68698e-15
5.17795e-13
-6.92685e-16
-1.17028e-16
0
0
0
0
-1.01221e-13
0
0
-4.04884e-13
2.70796e-11
-9.08144e-19
-1.45303e-17
1.08318e-10
6.7377e-07
7.46007e-09
7.41376e-07
5.94494e-07
3.92929e-06
2.8785e-05
0.000172777
0.000909987
0.00421949
0.0173317
0.0635539
0.209767
0.628316
1.72142
4.34565
10.177
22.2456
45.6396
88.3279
161.999
282.784
471.761
755.688
1167.69
1748.4
2549.33
3639.8
5119.39
7139.38
9937.97
13897.8
19640.2
28180.9
41187.1
61394.7
93264.7
143967
224793
353063
554718
868362
1.3513e+06
2.08887e+06
3.20847e+06
4.8912e+06
7.39493e+06
1.12114e+07
1.69322e+07
2.53688e+07
3.81647e+07
5.72725e+07
8.28196e+07
5.62677e+07
3.59944e+07
2.2835e+07
1.43048e+07
8.81701e+06
5.33022e+06
3.15102e+06
1.81611e+06
1.01737e+06
552141
289363
146393
72061.7
32586.6
10920.1
3184.37
639.598
92.5967
10.0452
0.823015
0.0515588
0.00256929
0.000109892
4.5066e-06
2.01855e-07
1.15056e-08
6.4361e-10
2.32569e-10
-1.37444e-12
-1.3824e-11
-7.3077e-14
-2.18918e-14
-7.17651e-15
4.20704e-13
-7.48981e-16
-1.26819e-16
0
0
8.46239e-13
2.08015e-12
3.38496e-12
0
0
0
3.32824e-11
-9.08144e-19
-1.2714e-17
-1.08319e-10
6.7377e-07
6.78866e-07
6.08448e-08
5.28287e-07
3.42987e-06
2.61421e-05
0.000155558
0.000821289
0.00382404
0.0157834
0.0581745
0.193035
0.581368
1.60171
4.06645
9.5777
21.0558
43.4447
84.552
155.924
273.623
458.82
738.553
1146.56
1724.39
2525.02
3619.89
5111.91
7157.69
10004.2
14048.9
19937.9
28728.8
42157.5
63070.6
96099
148655
232358
364912
572744
895104
1.39014e+06
2.1444e+06
3.28684e+06
5.0026e+06
7.54608e+06
1.14182e+07
1.72097e+07
2.57335e+07
3.86349e+07
5.78815e+07
8.3494e+07
5.66243e+07
3.625e+07
2.30137e+07
1.44264e+07
8.89747e+06
5.38182e+06
3.18303e+06
1.83526e+06
1.02838e+06
558198
292530
147956
72800.1
33022.7
11035.9
3217.03
644.378
92.9808
10.048
0.820253
0.0512458
0.00255128
0.000109302
4.50497e-06
2.03224e-07
1.10079e-08
1.11148e-09
2.32256e-10
-3.47176e-11
1.32411e-11
6.69253e-12
-2.33016e-14
-7.66604e-15
-2.58961e-15
-8.05276e-16
2.63084e-14
0
0
0
0
4.1603e-12
0
0
0
4.04884e-13
-9.08144e-19
-1.08977e-17
-1.10794e-16
6.7377e-07
6.27764e-09
5.46168e-08
4.76135e-07
3.0369e-06
2.35267e-05
0.000141696
0.0007501
0.00350971
0.0145479
0.0538638
0.179571
0.543428
1.50455
3.83882
9.08693
20.077
41.6312
81.4186
150.861
265.954
447.925
724.085
1128.64
1703.96
2504.24
3602.85
5105.66
7174.08
10063.1
14183.5
20204
29219.9
43029.3
64577.6
98644.9
152853
239094
375385
588537
918305
1.42348e+06
2.19153e+06
3.35249e+06
5.09472e+06
7.66876e+06
1.15826e+07
1.74234e+07
2.60069e+07
3.89745e+07
5.83014e+07
8.41361e+07
5.70869e+07
3.65741e+07
2.3237e+07
1.4577e+07
8.99658e+06
5.44531e+06
3.22248e+06
1.85897e+06
1.04211e+06
565830
296579
149992
73778
33582.4
11198
3266.21
653.144
93.9197
10.1133
0.82265
0.0512494
0.00254797
0.000109254
4.51805e-06
2.04989e-07
1.19427e-08
1.25737e-09
1.6538e-10
-1.49475e-12
1.63282e-11
-8.16144e-14
-2.46723e-14
-8.15557e-15
-2.77074e-15
-8.62796e-16
-1.46247e-16
-3.54744e-21
-1.41898e-20
0
3.77263e-12
1.13518e-19
0
-2.02442e-13
0
0
-9.08144e-19
-1.08977e-17
-1.01712e-16
4.82085e-10
5.57811e-09
7.23026e-07
4.35572e-07
2.72678e-06
2.1455e-05
0.0001303
0.00069407
0.00325848
0.0135601
0.0504086
0.168743
0.512815
1.42588
3.65387
8.68678
19.2762
40.1422
78.8368
146.674
259.592
438.854
712
1113.62
1686.77
2486.73
3588.5
5100.6
7188.72
10115
14302.1
20439.2
29655.1
43803.6
65917.3
100907
156574
245040
384579
602319
938421
1.45219e+06
2.23178e+06
3.40793e+06
5.17132e+06
7.76788e+06
1.17087e+07
1.75827e+07
2.62046e+07
3.9209e+07
5.85723e+07
8.47381e+07
5.76201e+07
3.69428e+07
2.34886e+07
1.47456e+07
9.1072e+06
5.51605e+06
3.26645e+06
1.88544e+06
1.05749e+06
574422
301170
152323
74906.1
34213.2
11402.9
3325.98
664.272
95.2318
10.2206
0.82855
0.0514708
0.00255485
0.000109579
4.54378e-06
2.07238e-07
1.24201e-08
1.34876e-09
2.31645e-10
2.55276e-11
1.32129e-11
-8.5609e-14
4.13423e-12
-8.6451e-15
-2.94207e-15
-9.19092e-16
-2.66012e-14
-3.54744e-21
1.41898e-20
8.46239e-13
3.72202e-12
1.13518e-19
0
-2.02442e-13
0
3.28775e-11
-9.08144e-19
-9.08144e-18
8.09675e-13
-6.72322e-07
4.61232e-09
7.19596e-07
4.03267e-07
2.47847e-06
1.98104e-05
0.000122059
0.000649238
0.00305882
0.0127719
0.0476424
0.160055
0.488187
1.36243
3.50431
8.36237
18.6253
38.9287
76.7275
143.245
254.365
431.385
702.022
1101.19
1672.52
2472.19
3576.64
5096.66
7201.72
10160.2
14405.5
20644.3
30035.4
44480.8
67089.4
102884
159819
250212
392554
614256
955869
1.47725e+06
2.26741e+06
3.4583e+06
5.24405e+06
7.87035e+06
1.17809e+07
1.76892e+07
2.63386e+07
3.93606e+07
5.87296e+07
8.53041e+07
5.81878e+07
3.73312e+07
2.37518e+07
1.49213e+07
9.22211e+06
5.58945e+06
3.31207e+06
1.91294e+06
1.07351e+06
583396
305986
154782
76100.7
34869.6
11699.7
3391.75
676.9
96.8149
10.355
0.836849
0.0518406
0.00256859
0.000110154
4.57747e-06
2.10882e-07
1.1906e-08
1.1431e-09
2.31361e-10
2.54731e-11
-3.40243e-13
6.68047e-12
-2.73158e-14
-9.10525e-15
4.20011e-13
-9.7294e-16
-2.66105e-14
0
4.10467e-13
-1.04007e-12
1.64187e-12
3.38496e-12
6.76991e-12
2.27036e-19
0
6.60761e-12
-9.08144e-19
-9.08144e-18
-1.33939e-10
4.82086e-10
6.77367e-07
7.16265e-07
3.77624e-07
2.95725e-06
1.91813e-05
0.000114468
0.000613878
0.00290024
0.012145
0.0454397
0.153126
0.468508
1.31163
3.38433
8.10158
18.1009
37.9493
75.0216
140.466
250.121
425.307
693.888
1091.04
1660.86
2460.29
3566.99
5093.71
7213.12
10199
14493.9
20819.6
30360.3
45058.6
68086.3
104557
162544
254507
399083
623861
969579
1.49634e+06
2.29343e+06
3.49291e+06
5.28999e+06
7.93404e+06
1.18538e+07
1.77736e+07
2.64327e+07
3.94543e+07
5.88062e+07
8.57556e+07
5.87463e+07
3.77122e+07
2.40095e+07
1.50931e+07
9.33446e+06
5.66125e+06
3.35675e+06
1.93991e+06
1.08924e+06
592240
310748
157223
77289.8
35514.2
11996
3459.1
690.003
98.4801
10.505
0.84638
0.0522914
0.00258626
0.000110866
4.61189e-06
2.11522e-07
1.23827e-08
1.10651e-09
2.31098e-10
-1.65641e-12
1.31875e-11
-9.30498e-14
-2.85102e-14
-9.52625e-15
4.3258e-12
-1.02312e-15
-1.74395e-16
-3.16315e-15
9.69176e-14
0
0
0
6.76991e-12
0
0
0
-9.08144e-19
-9.08144e-18
1.09128e-10
4.82895e-10
4.61232e-09
4.1529e-08
3.56276e-07
2.80379e-06
1.81595e-05
0.000109176
0.000586112
0.00277452
0.0116504
0.0437021
0.147651
0.452939
1.27139
3.28915
7.89441
17.6839
37.1692
73.661
138.246
246.726
420.44
687.366
1082.89
1651.49
2450.75
3559.31
5091.57
7222.9
10231.6
14567.8
20966.1
30631.4
45540
68914.8
105942
164789
258020
404378
631574
980466
1.51132e+06
2.31356e+06
3.51931e+06
5.32402e+06
7.98131e+06
1.19086e+07
1.78341e+07
2.64946e+07
3.95061e+07
5.88279e+07
8.60617e+07
5.92595e+07
3.8063e+07
2.42471e+07
1.52518e+07
9.43844e+06
5.72783e+06
3.39825e+06
1.96501e+06
1.10393e+06
600513
315215
159521
78423
36117
12276.5
3524.06
702.765
100.119
10.654
0.856143
0.0527728
0.00260577
0.000111643
4.648e-06
2.14224e-07
1.28862e-08
1.35624e-09
2.30862e-10
-1.70121e-12
1.31766e-11
-9.62611e-14
-2.95676e-14
-9.92766e-15
5.1663e-13
-1.0684e-15
2.62629e-14
1.02617e-13
-1.26526e-14
0
5.6759e-20
0
0
2.27036e-19
0
-4.04884e-13
-9.08144e-19
-8.1733e-18
-7.62841e-17
4.82895e-10
3.5969e-09
3.91641e-08
3.40392e-07
2.6849e-06
1.73695e-05
0.000105236
0.000564575
0.00267832
0.011268
0.0423557
0.143403
0.440849
1.2401
3.21508
7.73304
17.3586
36.5603
72.5979
136.51
244.068
416.626
682.249
1076.49
1644.13
2443.27
3553.33
5090.05
7230.99
10258.1
14627.7
21084.5
30850.3
45928
69580.7
107051
166578
260802
408544
637600
988918
1.52289e+06
2.32904e+06
3.53956e+06
5.34976e+06
8.01684e+06
1.19489e+07
1.78765e+07
2.65341e+07
3.95319e+07
5.88196e+07
8.62845e+07
5.97109e+07
3.83718e+07
2.44566e+07
1.53919e+07
9.53034e+06
5.78675e+06
3.43504e+06
1.98731e+06
1.11699e+06
607884
319204
161578
79437.9
36653.5
12528.3
3583.23
714.463
101.632
10.7929
0.865446
0.0532368
0.0026247
0.00011239
4.68344e-06
2.15536e-07
1.23416e-08
1.34374e-09
2.30657e-10
-1.74006e-12
2.98082e-11
1.49914e-11
-3.05075e-14
-1.02605e-14
-3.52461e-15
-1.11001e-15
3.23135e-14
3.54744e-21
-1.26526e-14
0
0
7.54525e-12
0
2.27036e-19
0
0
1.20724e-10
-8.1733e-18
-7.26515e-17
4.82086e-10
3.86316e-09
-6.35572e-07
3.28369e-07
2.59604e-06
1.67746e-05
0.000101766
0.00054819
0.00260553
0.0109799
0.0413407
0.1402
0.431724
1.21648
3.15911
7.61101
17.1126
36.0994
71.7926
135.194
242.052
413.732
678.366
1071.63
1638.55
2437.6
3548.84
5089.03
7237.44
10278.9
14674.5
21177.1
31021.5
46231.4
70101.6
107918
167975
262968
411776
642254
995409
1.53172e+06
2.34076e+06
3.55475e+06
5.36889e+06
8.043e+06
1.19781e+07
1.7906e+07
2.65596e+07
3.9544e+07
5.88014e+07
8.64506e+07
6.00973e+07
3.86335e+07
2.46335e+07
1.55099e+07
9.60772e+06
5.83634e+06
3.466e+06
2.00608e+06
1.128e+06
614101
322572
163318
80296.5
37104.9
12741.3
3633.82
724.495
102.932
10.9126
0.87345
0.0536379
0.0026411
0.000113031
4.71251e-06
2.18278e-07
1.27633e-08
1.13697e-09
2.3049e-10
-1.77171e-12
-3.80658e-13
8.21924e-12
-3.12907e-14
-1.05347e-14
-3.62742e-15
-1.14183e-15
-1.94588e-16
-2.35789e-13
-1.26526e-14
2.83795e-20
0
0
0
0
0
4.54072e-19
-9.08144e-19
-7.26515e-18
-8.0984e-13
6.73287e-07
3.86316e-09
7.09505e-07
3.20642e-07
3.20511e-06
1.63496e-05
9.92891e-05
0.000536884
0.00255345
0.0107737
0.0406149
0.13791
0.425199
1.19957
3.11905
7.52363
16.9363
35.769
71.2154
134.25
240.606
411.655
675.579
1068.15
1634.55
2433.54
3545.65
5088.37
7242.26
10294.3
14708.9
21245
31147.1
46454.2
70484
108554
168999
264553
414136
645642
1.00012e+06
1.5381e+06
2.34919e+06
3.56562e+06
5.38244e+06
8.06135e+06
1.19982e+07
1.79256e+07
2.6575e+07
3.95481e+07
5.87803e+07
8.65626e+07
6.03981e+07
3.88385e+07
2.47718e+07
1.56021e+07
9.66805e+06
5.87499e+06
3.49013e+06
2.0207e+06
1.13658e+06
618952
325203
164679
80967.9
37456.4
12907.6
3673.64
732.411
103.96
11.0072
0.879779
0.0539541
0.00265391
0.000113526
4.73473e-06
2.20513e-07
1.23304e-08
1.12502e-09
2.17406e-10
-1.79614e-12
1.31534e-11
-1.03154e-13
-3.18782e-14
2.0694e-12
-3.70574e-15
-1.16753e-15
-1.99177e-16
0
5.20037e-13
0
5.06104e-14
0
1.50905e-11
0
0
0
1.20724e-10
-7.26515e-18
-6.9019e-17
-6.72321e-07
3.86316e-09
3.57342e-08
3.14848e-07
2.49174e-06
1.54044e-05
9.83713e-05
0.000529425
0.00252034
0.0106416
0.0401491
0.136439
0.421003
1.1887
3.09327
7.46739
16.8228
35.5563
70.8436
133.643
239.675
410.318
673.786
1065.9
1631.98
2430.94
3543.62
5088
7245.46
10304.3
14731.5
21289.5
31229.4
46600.1
70734.6
108971
169670
265589
415674
647847
1.00318e+06
1.54223e+06
2.35463e+06
3.57259e+06
5.39109e+06
8.07296e+06
1.20107e+07
1.79374e+07
2.65835e+07
3.95481e+07
5.87622e+07
8.66306e+07
6.06036e+07
3.89781e+07
2.48661e+07
1.56649e+07
9.70923e+06
5.90138e+06
3.50662e+06
2.03071e+06
1.14245e+06
622273
327005
165611
81428.5
37696.8
13021.6
3701.08
737.863
104.666
11.0719
0.884069
0.0541661
0.00266236
0.000113844
4.74888e-06
2.20117e-07
1.23267e-08
1.08777e-09
2.30277e-10
-1.81212e-12
2.97905e-11
-1.0425e-13
4.12803e-12
-1.08871e-14
-3.75959e-15
-1.18466e-15
-2.01931e-16
2.35789e-13
9.43157e-13
2.83795e-20
-5.06104e-14
7.54525e-12
6.76991e-12
-2.02442e-13
0
-4.04883e-13
6.65647e-11
-8.1733e-18
2.42258e-10
4.82895e-10
6.76668e-07
3.61675e-08
3.1195e-07
2.47156e-06
1.59459e-05
9.69375e-05
0.000526201
0.00250419
0.010578
0.0399245
0.13573
0.418983
1.18346
3.08084
7.44025
16.768
35.4535
70.6639
133.349
239.224
409.672
672.918
1064.82
1630.74
2429.68
3542.64
5087.83
7247.02
10309.2
14742.4
21311.1
31269.4
46671.1
70856.5
109174
169996
266092
416421
648915
1.00466e+06
1.54423e+06
2.35725e+06
3.57594e+06
5.39522e+06
8.07848e+06
1.20166e+07
1.79428e+07
2.65871e+07
3.95472e+07
5.8752e+07
8.66623e+07
6.07075e+07
3.90486e+07
2.49137e+07
1.56967e+07
9.73001e+06
5.9147e+06
3.51494e+06
2.03575e+06
1.14541e+06
623947
327913
166081
81660.5
37817.4
13078.5
3714.78
740.567
105.013
11.1034
0.886126
0.0542647
0.00266613
0.000113978
4.75326e-06
2.20937e-07
1.23242e-08
1.33889e-09
2.30237e-10
-1.82027e-12
-3.92564e-13
6.66504e-12
-3.25048e-14
-1.09655e-14
-3.78406e-15
-1.192e-15
-2.03461e-16
1.0578e-13
4.10467e-13
2.83795e-20
-5.06105e-14
0
0
2.27036e-19
0
0
-9.08144e-19
-8.09775e-13
-1.33939e-10
4.82895e-10
3.86316e-09
7.08539e-07
3.12483e-07
2.47156e-06
1.59468e-05
9.76103e-05
0.000525531
0.0025042
0.0105783
0.0399251
0.135731
0.418985
1.18347
3.08085
7.44028
16.7681
35.4537
70.6641
133.349
239.225
409.674
672.922
1064.83
1630.75
2429.69
3542.64
5087.81
7246.96
10309.1
14742.1
21310.5
31268.3
46669.2
70853.3
109168
169987
266079
416401
648885
1.00461e+06
1.54417e+06
2.35717e+06
3.57583e+06
5.39507e+06
8.07829e+06
1.20163e+07
1.79425e+07
2.65867e+07
3.95468e+07
5.87515e+07
8.6662e+07
6.07079e+07
3.90488e+07
2.49138e+07
1.56967e+07
9.73006e+06
5.91472e+06
3.51495e+06
2.03576e+06
1.14541e+06
623948
327914
166082
81660.9
37817.6
13078.5
3714.76
740.552
105.009
11.1027
0.886051
0.054259
0.00266579
0.000113966
4.75313e-06
2.19986e-07
1.23262e-08
1.0875e-09
2.30238e-10
-1.82089e-12
1.31476e-11
-1.04877e-13
-3.24656e-14
-1.09557e-14
-3.78406e-15
-1.19323e-15
-2.03461e-16
0
0
0
0
-4.1603e-12
0
-2.02442e-13
0
0
-9.08144e-19
-7.26515e-18
1.3232e-10
4.82086e-10
-6.68458e-07
3.57342e-08
3.14848e-07
2.49087e-06
1.60773e-05
9.83685e-05
0.000528744
0.0025203
0.0106415
0.0401485
0.136438
0.421002
1.1887
3.09327
7.46741
16.8229
35.5565
70.8442
133.644
239.678
410.326
673.799
1065.93
1632.01
2430.97
3543.63
5087.96
7245.29
10303.9
14730.5
21287.8
31226.2
46594.7
70725.3
108956
169645
265550
415615
647760
1.00305e+06
1.54206e+06
2.35439e+06
3.57226e+06
5.39065e+06
8.0724e+06
1.201e+07
1.79365e+07
2.65825e+07
3.95468e+07
5.87606e+07
8.66297e+07
6.06047e+07
3.89788e+07
2.48665e+07
1.56652e+07
9.70938e+06
5.90147e+06
3.50667e+06
2.03074e+06
1.14247e+06
622285
327012
165616
81431.1
37698.2
13021.8
3701.12
737.843
104.658
11.0705
0.883916
0.0541542
0.00266167
0.000113812
4.74621e-06
2.19588e-07
1.2325e-08
8.71141e-10
2.17321e-10
-1.81275e-12
-3.90684e-13
8.21627e-12
-3.22698e-14
-1.08969e-14
-3.75959e-15
-1.18589e-15
-2.02237e-16
-1.0578e-13
-1.0957e-13
0
5.06105e-14
7.54525e-12
8.32059e-12
0
0
0
5.41593e-11
-7.26515e-18
1.07509e-10
6.73287e-07
4.0798e-09
3.67e-08
3.20642e-07
2.5323e-06
1.56757e-05
9.99533e-05
0.000536841
0.00255329
0.0107735
0.0406137
0.137906
0.425187
1.19955
3.11899
7.52353
16.9362
35.769
71.2157
134.252
240.611
411.666
675.6
1068.18
1634.6
2433.59
3545.67
5088.31
7241.98
10293.6
14707.5
21242.3
31142.1
46445.5
70469.3
108530
168960
264492
414042
645503
999917
1.53782e+06
2.34879e+06
3.56508e+06
5.38173e+06
8.06043e+06
1.1997e+07
1.79242e+07
2.65733e+07
3.95459e+07
5.87775e+07
8.65612e+07
6.04e+07
3.88396e+07
2.47725e+07
1.56025e+07
9.66829e+06
5.87513e+06
3.49022e+06
2.02076e+06
1.13661e+06
618972
325214
164686
80972.2
37458.8
12908.3
3673.83
732.418
103.955
11.0061
0.879655
0.0539441
0.00265334
0.000113497
4.73289e-06
2.19548e-07
1.27657e-08
1.08644e-09
2.17404e-10
-1.79646e-12
1.62544e-11
-1.03232e-13
-3.18782e-14
-1.07501e-14
-3.71064e-15
-1.16753e-15
-1.99177e-16
-3.16315e-15
4.2312e-13
0
-5.06105e-14
0
6.76991e-12
2.02442e-13
0
0
5.41593e-11
-8.1733e-18
1.33129e-10
6.73287e-07
-6.68725e-07
3.72326e-08
3.28901e-07
2.59518e-06
1.67696e-05
0.000101744
0.000548088
0.0026051
0.0109783
0.0413356
0.140186
0.431687
1.21639
3.15891
7.61062
17.1119
36.0984
71.7916
135.194
242.055
413.742
678.389
1071.67
1638.61
2437.66
3548.87
5088.94
7237.07
10278
14672.6
21173.4
31014.8
46220
70082.4
107886
167924
262887
411653
642069
995139
1.53133e+06
2.34022e+06
3.55402e+06
5.36791e+06
8.04174e+06
1.19765e+07
1.7904e+07
2.65571e+07
3.95409e+07
5.87974e+07
8.64487e+07
6.00998e+07
3.8635e+07
2.46344e+07
1.55105e+07
9.60804e+06
5.83653e+06
3.46612e+06
2.00615e+06
1.12804e+06
614128
322589
163328
80302.6
37108.4
12742.6
3634.2
724.554
102.936
10.9126
0.873428
0.0536356
0.00264098
0.000113025
4.71077e-06
2.18808e-07
1.23427e-08
1.13694e-09
2.30484e-10
-1.77296e-12
-1.7022e-11
-1.01431e-13
-3.13299e-14
-1.05445e-14
-3.63231e-15
-1.14305e-15
-1.94894e-16
1.0578e-13
0
0
-5.6759e-20
7.54525e-12
0
1.35398e-11
0
4.54072e-19
-9.08144e-19
-8.1733e-18
1.07509e-10
6.73287e-07
3.86316e-09
3.90649e-08
3.40924e-07
2.6849e-06
1.73598e-05
0.000105193
0.00056436
0.00267743
0.011265
0.0423456
0.143373
0.440767
1.2399
3.21463
7.73212
17.357
36.5576
72.5941
136.506
244.067
416.631
682.269
1076.53
1644.2
2443.34
3553.37
5089.93
7230.52
10257
14625.3
21080
30842.3
45914.3
69557.9
107013
166518
260706
408396
637377
988587
1.52242e+06
2.32836e+06
3.53864e+06
5.34855e+06
8.01527e+06
1.19469e+07
1.7874e+07
2.65309e+07
3.95279e+07
5.88144e+07
8.62822e+07
5.97142e+07
3.83739e+07
2.44579e+07
1.53927e+07
9.53084e+06
5.78706e+06
3.43523e+06
1.98742e+06
1.11706e+06
607927
319230
161594
79446.9
36658.5
12530.4
3583.82
714.571
101.645
10.7941
0.865532
0.0532455
0.00262534
0.000112426
4.68325e-06
2.17555e-07
1.23518e-08
8.71828e-10
2.30648e-10
-1.74194e-12
1.62682e-11
-9.91591e-14
-3.05467e-14
-1.02801e-14
-3.5344e-15
-1.11123e-15
-1.89387e-16
3.16315e-15
5.20037e-13
2.83795e-20
5.6759e-20
-7.75341e-13
-6.76991e-12
0
0
2.70796e-11
-9.08144e-19
1.08319e-10
1.33129e-10
6.73287e-07
4.82895e-09
4.05632e-08
3.56377e-07
2.80186e-06
1.8147e-05
0.000109106
0.000585776
0.00277444
0.0116458
0.0436864
0.147602
0.452806
1.27106
3.28841
7.8929
17.6811
37.1645
73.6541
138.237
246.719
420.439
687.38
1082.93
1651.55
2450.82
3559.34
5091.41
7222.32
10230.2
14564.8
20960.5
30621.6
45523.1
68886.3
105895
164712
257897
404188
631288
980050
1.51074e+06
2.31276e+06
3.51827e+06
5.32267e+06
7.97951e+06
1.19062e+07
1.78311e+07
2.64906e+07
3.95011e+07
5.88213e+07
8.60588e+07
5.92634e+07
3.80654e+07
2.42486e+07
1.52527e+07
9.43902e+06
5.72819e+06
3.39848e+06
1.96516e+06
1.10402e+06
600570
315250
159542
78435.2
36124
12279.7
3524.99
702.963
100.149
10.6578
0.856554
0.0528018
0.00260745
0.00011173
4.65445e-06
2.14721e-07
1.28849e-08
1.07691e-09
2.17892e-10
-1.70309e-12
1.31761e-11
-9.64178e-14
-2.96068e-14
-9.93745e-15
4.32566e-12
3.80796e-12
5.87646e-14
-3.16315e-15
0
8.46239e-13
1.64187e-12
1.34561e-06
0
1.34561e-06
2.66748e-11
2.66748e-11
-9.08144e-19
1.3232e-10
1.08319e-10
6.73287e-07
4.82895e-09
7.16265e-07
3.76658e-07
2.95425e-06
1.91639e-05
0.000114368
0.000613387
0.00289817
0.0121375
0.0454163
0.153054
0.468312
1.31115
3.38324
8.09935
18.0968
37.9423
75.011
140.452
250.107
425.299
693.897
1091.08
1660.93
2460.38
3567.03
5093.55
7212.49
10197.4
14490.6
20813.4
30349.4
45040
68055.6
104507
162464
254384
398896
623582
969172
1.49576e+06
2.29261e+06
3.49175e+06
5.28834e+06
7.9317e+06
1.18508e+07
1.777e+07
2.6428e+07
3.94483e+07
5.87983e+07
8.5753e+07
5.87512e+07
3.77153e+07
2.40114e+07
1.50943e+07
9.33524e+06
5.66174e+06
3.35706e+06
1.9401e+06
1.08937e+06
592319
310796
157252
77306.6
35524.1
12000.8
3460.48
690.313
98.5267
10.5096
0.846934
0.0523354
0.00258889
0.000110995
4.61801e-06
2.13436e-07
1.2368e-08
1.12817e-09
2.18124e-10
-1.65892e-12
1.31869e-11
-9.32848e-14
3.35637e-12
-9.56541e-15
-3.27495e-15
2.58993e-13
3.23276e-14
0
-1.41898e-20
8.46239e-13
0
4.1603e-12
0
2.02442e-13
0
0
-9.08144e-19
-9.08144e-18
8.09675e-13
4.82895e-10
4.34444e-09
7.19162e-07
4.02301e-07
2.47567e-06
2.046e-05
0.00012193
0.000649285
0.00305614
0.0127622
0.0476113
0.159962
0.487935
1.36181
3.50291
8.35948
18.6198
38.9195
76.7135
143.226
254.345
431.371
702.027
1101.23
1672.6
2472.3
3576.71
5096.54
7201.09
10158.5
14401.9
20637.4
30023.2
44460
67054.8
102828
159729
250072
392340
613937
955402
1.47658e+06
2.26646e+06
3.45699e+06
5.24224e+06
7.86794e+06
1.17778e+07
1.76851e+07
2.63332e+07
3.93536e+07
5.87202e+07
8.53039e+07
5.81933e+07
3.73347e+07
2.3754e+07
1.49227e+07
9.22304e+06
5.59006e+06
3.31246e+06
1.91319e+06
1.07367e+06
583500
306050
154820
76122.6
34882.5
11706.1
3393.59
677.329
96.8863
10.365
0.837657
0.051897
0.00257178
0.000110306
4.58455e-06
2.10316e-07
1.19041e-08
1.08037e-09
2.31342e-10
-3.48918e-11
-3.44239e-12
-8.96818e-14
-2.73745e-14
-9.13462e-15
4.20001e-13
2.10583e-13
3.23362e-14
-3.16315e-15
-5.20037e-13
0
2.08015e-12
0
0
-2.02442e-13
0
3.28775e-11
-9.08144e-19
-1.08977e-17
-1.01712e-16
4.82895e-10
6.78116e-07
5.11869e-08
4.35037e-07
2.72292e-06
2.14252e-05
0.000130144
0.000693309
0.00325522
0.0135488
0.0503706
0.16863
0.512507
1.42512
3.65217
8.68329
19.2697
40.1311
78.8201
146.652
259.568
438.839
712.008
1113.67
1686.88
2486.89
3588.65
5100.56
7188.18
10113.4
14298.5
20432
29642.2
43781.2
65879.8
100845
156475
244885
384339
601958
937891
1.45142e+06
2.23072e+06
3.40648e+06
5.1694e+06
7.76545e+06
1.17053e+07
1.75781e+07
2.61984e+07
3.92009e+07
5.85614e+07
8.47369e+07
5.76264e+07
3.69468e+07
2.34912e+07
1.47473e+07
9.10831e+06
5.51678e+06
3.26692e+06
1.88575e+06
1.05769e+06
574550
301250
152371
74933.3
34229.3
11410.7
3328.17
664.771
95.3097
10.2297
0.829377
0.0515287
0.00255806
0.000109732
4.55089e-06
2.07106e-07
1.19205e-08
8.80567e-10
2.1867e-10
2.55241e-11
-3.27711e-13
6.68407e-12
-2.61213e-14
-8.67447e-15
9.40205e-13
-9.22764e-16
-1.56802e-16
0
0
0
-1.69248e-12
3.28374e-12
6.76991e-12
0
0
2.70796e-11
-9.08144e-19
-1.08977e-17
-1.1261e-16
9.65791e-10
6.79082e-07
5.50501e-08
4.76135e-07
3.03197e-06
2.34958e-05
0.000140849
0.000749919
0.00350605
0.0145347
0.0538214
0.179443
0.543081
1.5037
3.83691
9.08303
20.0698
41.619
81.4002
150.837
265.93
447.912
724.103
1128.72
1704.11
2504.48
3603.11
5105.8
7173.78
10061.8
14180.2
20197.3
29207.4
43007.6
64541.4
98586.1
152760
238950
375165
588209
917819
1.42276e+06
2.19049e+06
3.35099e+06
5.09258e+06
7.66589e+06
1.15788e+07
1.74183e+07
2.60001e+07
3.89656e+07
5.82893e+07
8.41351e+07
5.70947e+07
3.65791e+07
2.32401e+07
1.4579e+07
8.99793e+06
5.44619e+06
3.22306e+06
1.85935e+06
1.04236e+06
565985
296676
150050
73811
33601.9
11205.3
3268.77
653.711
94.0065
10.1233
0.823546
0.0513115
0.00255139
0.000109415
4.52617e-06
2.05909e-07
1.19388e-08
1.12216e-09
1.65359e-10
-1.4982e-12
2.98671e-11
-8.18494e-14
-2.47702e-14
-8.19473e-15
-4.259e-13
-8.66468e-16
-3.26493e-14
3.54744e-21
0
8.46239e-13
0
4.1603e-12
0
2.02442e-13
0
0
-9.08144e-19