/*--------------------------------*- C++ -*----------------------------------*\
  =========                 |
  \\      /  F ield         | OpenFOAM: The Open Source CFD Toolbox
   \\    /   O peration     | Website:  https://openfoam.org
    \\  /    A nd           | Version:  8
     \\/     M anipulation  |
\*---------------------------------------------------------------------------*/
FoamFile
{
    version     2.0;
    format      ascii;
    class       volScalarField;
    location    "0.05/fluid";
    object      rho;
}
// * * * * * * * * * * * * * * * * * * * * * * * * * * * * * * * * * * * * * //

dimensions      [1 -3 0 0 0 0 0];

internalField   nonuniform List<scalar> 
4000
(
0.658075
0.656586
0.654299
0.650944
0.646205
0.639754
0.631289
0.62059
0.607582
0.592374
0.575275
0.556753
0.53737
0.517695
0.498239
0.479404
0.461468
0.444596
0.428857
0.414248
0.400723
0.388213
0.376609
0.36582
0.355756
0.346334
0.337477
0.329119
0.321204
0.313682
0.306514
0.299664
0.293105
0.286812
0.280763
0.274926
0.269285
0.263831
0.258554
0.253446
0.248502
0.243714
0.239078
0.23459
0.230244
0.226039
0.22197
0.218034
0.21423
0.210554
0.207006
0.203586
0.200294
0.197135
0.194117
0.19125
0.188562
0.186069
0.183825
0.181904
0.180422
0.179554
0.179574
0.18095
0.184507
0.190146
0.197452
0.206222
0.216368
0.227883
0.240822
0.255288
0.271428
0.289435
0.309548
0.332053
0.357287
0.385682
0.417745
0.454015
0.495026
0.541261
0.593052
0.650446
0.713008
0.779601
0.848206
0.915942
0.979358
1.03516
1.08106
1.11629
1.1416
1.15869
1.1696
1.17622
1.18004
1.18214
1.1832
1.18371
0.658079
0.656599
0.65433
0.651001
0.646301
0.639903
0.631503
0.620878
0.607944
0.592802
0.575746
0.557236
0.53783
0.518101
0.498563
0.479628
0.461585
0.444605
0.428764
0.414072
0.400484
0.38789
0.376221
0.365382
0.355281
0.345831
0.336954
0.328583
0.320659
0.313132
0.305961
0.299112
0.292555
0.286265
0.28022
0.274388
0.268753
0.263304
0.258033
0.252931
0.247992
0.24321
0.23858
0.234098
0.229759
0.22556
0.221497
0.217568
0.21377
0.210101
0.206559
0.203146
0.199861
0.19671
0.193698
0.19084
0.188162
0.185679
0.183448
0.181542
0.180082
0.179241
0.1793
0.180734
0.184381
0.190091
0.197462
0.206294
0.216508
0.228095
0.241112
0.255668
0.271912
0.290041
0.310295
0.332965
0.358391
0.387009
0.41933
0.455889
0.497219
0.543789
0.595913
0.653609
0.716395
0.783074
0.851566
0.918938
0.981806
1.03699
1.08232
1.11709
1.14208
1.15896
1.16975
1.1763
1.18008
1.18216
1.18321
1.18371
0.658078
0.656597
0.654326
0.650995
0.646296
0.639901
0.631511
0.620903
0.607992
0.592873
0.575837
0.557336
0.537921
0.518159
0.498568
0.479562
0.461436
0.444373
0.428456
0.41368
0.399975
0.387298
0.375559
0.364662
0.354512
0.345024
0.336117
0.327722
0.319781
0.312243
0.305064
0.29821
0.291651
0.285362
0.279319
0.27349
0.267859
0.262415
0.257149
0.252054
0.247122
0.242347
0.237725
0.233251
0.228921
0.224731
0.220677
0.216758
0.21297
0.209311
0.20578
0.202378
0.199105
0.195966
0.192967
0.190123
0.18746
0.185001
0.182791
0.180911
0.179488
0.178693
0.178815
0.180338
0.184131
0.189956
0.197427
0.206354
0.216661
0.228352
0.241484
0.256161
0.272538
0.290815
0.311234
0.334084
0.359708
0.38854
0.421085
0.457869
0.499407
0.546148
0.598382
0.656091
0.718768
0.785209
0.853353
0.920328
0.982793
1.03762
1.08266
1.11726
1.14214
1.15898
1.16975
1.1763
1.18008
1.18216
1.18321
1.18371
0.658076
0.656588
0.654309
0.650968
0.646257
0.639852
0.631455
0.620845
0.607937
0.592825
0.57579
0.557281
0.537842
0.51804
0.498391
0.479316
0.461117
0.443977
0.427945
0.413041
0.399251
0.386497
0.37469
0.363734
0.353534
0.344004
0.335063
0.326642
0.31868
0.311125
0.303936
0.297074
0.290511
0.284221
0.278179
0.272352
0.266724
0.261285
0.256024
0.250935
0.24601
0.241244
0.236631
0.232166
0.227846
0.223667
0.219625
0.215717
0.211942
0.208296
0.204779
0.201391
0.198134
0.195011
0.192031
0.189206
0.186564
0.184132
0.181951
0.180106
0.17873
0.177992
0.178191
0.179823
0.183769
0.189716
0.197294
0.206322
0.216728
0.228518
0.241757
0.256557
0.27307
0.29149
0.312064
0.335082
0.360887
0.389915
0.422668
0.459667
0.501418
0.548356
0.600749
0.658558
0.721251
0.787596
0.855521
0.922156
0.984205
1.0386
1.08328
1.1176
1.1423
1.15904
1.16977
1.1763
1.18008
1.18216
1.18321
1.18371
0.658072
0.656572
0.654276
0.650915
0.646182
0.639757
0.631339
0.620706
0.607777
0.592647
0.575595
0.557064
0.537597
0.517758
0.498063
0.478933
0.460637
0.443363
0.42723
0.412251
0.398384
0.385559
0.373687
0.362673
0.352423
0.34285
0.333874
0.325424
0.317439
0.309867
0.302665
0.295794
0.289226
0.282934
0.276891
0.271065
0.26544
0.260005
0.25475
0.249667
0.24475
0.239993
0.235389
0.230935
0.226626
0.222459
0.21843
0.214536
0.210776
0.207146
0.203645
0.200275
0.197036
0.193933
0.190973
0.188172
0.185556
0.183155
0.181006
0.1792
0.177874
0.177194
0.177468
0.1792
0.183296
0.18936
0.197038
0.206159
0.216658
0.228543
0.241878
0.256778
0.273401
0.291952
0.31267
0.33584
0.361807
0.39101
0.423949
0.461138
0.503077
0.550186
0.602716
0.660608
0.723303
0.789544
0.857253
0.923581
0.985272
1.03932
1.0837
1.11781
1.14239
1.15907
1.16977
1.1763
1.18008
1.18215
1.18321
1.18371
0.658068
0.656554
0.654237
0.650849
0.646084
0.639622
0.631171
0.620517
0.607571
0.592423
0.575352
0.556794
0.537286
0.517386
0.497607
0.478359
0.459973
0.442632
0.426427
0.411373
0.397434
0.384541
0.372606
0.361536
0.351237
0.341622
0.332611
0.324132
0.316123
0.308533
0.301317
0.294438
0.287863
0.281569
0.275525
0.2697
0.264078
0.258648
0.253399
0.248324
0.243415
0.238667
0.234074
0.229632
0.225336
0.221182
0.217168
0.21329
0.209545
0.205933
0.202451
0.1991
0.195881
0.1928
0.189865
0.187088
0.1845
0.182131
0.180019
0.178253
0.176979
0.176349
0.176698
0.178529
0.182743
0.1889
0.19666
0.205859
0.216435
0.228401
0.241823
0.256815
0.273535
0.292185
0.313013
0.336317
0.362434
0.391796
0.424903
0.46227
0.504387
0.551669
0.604353
0.662355
0.725093
0.791294
0.858864
0.924959
0.986355
1.04009
1.08419
1.11808
1.14252
1.15911
1.16978
1.17629
1.18007
1.18215
1.18321
1.18371
0.658063
0.656535
0.654198
0.650784
0.645986
0.639486
0.630991
0.620288
0.607292
0.592097
0.574977
0.556369
0.536809
0.516854
0.497018
0.477723
0.459273
0.441863
0.425585
0.410459
0.39645
0.383491
0.371496
0.360373
0.350027
0.340371
0.331325
0.322817
0.314786
0.307177
0.299948
0.293059
0.286479
0.280182
0.274138
0.268314
0.262695
0.25727
0.252028
0.24696
0.242061
0.237324
0.232742
0.228313
0.22403
0.219892
0.215894
0.212032
0.208305
0.204711
0.201249
0.197919
0.194722
0.191664
0.188753
0.186004
0.183443
0.181107
0.179029
0.177302
0.176073
0.175496
0.175909
0.177822
0.182127
0.188356
0.19618
0.205438
0.216076
0.228106
0.241598
0.256667
0.273472
0.292217
0.313147
0.336555
0.362789
0.392292
0.425557
0.463088
0.505376
0.552827
0.605662
0.663782
0.726584
0.792772
0.860242
0.926152
0.9873
1.04077
1.08463
1.11833
1.14264
1.15916
1.1698
1.17629
1.18007
1.18215
1.1832
1.18371
0.658059
0.656518
0.654162
0.650722
0.645893
0.639357
0.630822
0.620075
0.607036
0.591795
0.574629
0.555972
0.536359
0.516347
0.496449
0.477088
0.458569
0.441087
0.424737
0.409542
0.395467
0.382446
0.370395
0.35922
0.348829
0.339134
0.330055
0.32152
0.313466
0.305841
0.298598
0.291699
0.285114
0.278815
0.27277
0.266948
0.261333
0.255913
0.250678
0.24562
0.240731
0.236005
0.231436
0.227019
0.222752
0.218629
0.214647
0.210803
0.207094
0.20352
0.200078
0.196769
0.193595
0.190561
0.187675
0.184952
0.182419
0.180114
0.178069
0.176378
0.17519
0.17466
0.175127
0.177105
0.181474
0.187754
0.195623
0.204926
0.215609
0.227689
0.241235
0.256365
0.27324
0.292063
0.313082
0.336589
0.362931
0.39255
0.425949
0.463635
0.506085
0.553697
0.606685
0.664932
0.727818
0.794025
0.861435
0.927207
0.988156
1.0414
1.08505
1.11858
1.14277
1.15922
1.16981
1.1763
1.18007
1.18214
1.1832
1.18371
0.658055
0.656502
0.654129
0.650666
0.645809
0.639238
0.630665
0.619877
0.606793
0.591507
0.574293
0.555587
0.53592
0.515849
0.49589
0.476463
0.457877
0.440326
0.423909
0.408648
0.394511
0.381433
0.369329
0.358107
0.347674
0.337943
0.328833
0.320271
0.312196
0.304554
0.297299
0.290392
0.283802
0.277501
0.271456
0.265635
0.260024
0.25461
0.249383
0.244334
0.239455
0.23474
0.230184
0.225782
0.221529
0.217421
0.213455
0.209629
0.20594
0.202386
0.198964
0.195677
0.192525
0.189515
0.186653
0.183956
0.181449
0.179174
0.177159
0.175502
0.174349
0.173858
0.174368
0.176393
0.180804
0.187116
0.195015
0.204348
0.215063
0.227179
0.240766
0.255944
0.272875
0.291762
0.312856
0.33645
0.362892
0.392623
0.42614
0.463959
0.50656
0.554327
0.607464
0.665843
0.728823
0.79507
0.86245
0.92812
0.988911
1.04197
1.08543
1.11881
1.14289
1.15928
1.16984
1.1763
1.18007
1.18214
1.1832
1.18371
0.658052
0.656488
0.6541
0.650617
0.645734
0.639132
0.630524
0.619696
0.606571
0.591239
0.573979
0.555221
0.535501
0.515373
0.495354
0.475864
0.457214
0.439599
0.42312
0.407799
0.393605
0.380474
0.368321
0.357055
0.346584
0.336819
0.327679
0.319094
0.310999
0.303341
0.296074
0.289159
0.282564
0.276262
0.270217
0.264398
0.258791
0.253383
0.248164
0.243124
0.238255
0.233552
0.229009
0.224621
0.220383
0.216291
0.212342
0.208534
0.204863
0.201327
0.197926
0.194659
0.191529
0.188541
0.185703
0.18303
0.180548
0.1783
0.176314
0.174686
0.173564
0.173105
0.173646
0.175701
0.180136
0.186467
0.194383
0.203734
0.214471
0.226612
0.24023
0.255445
0.272419
0.291359
0.312515
0.336182
0.362709
0.392538
0.42617
0.464111
0.506845
0.554759
0.60804
0.66655
0.729632
0.795935
0.86331
0.928909
0.989575
1.04248
1.08578
1.11903
1.14302
1.15934
1.16987
1.17631
1.18007
1.18214
1.1832
1.18371
0.658049
0.656476
0.654075
0.650575
0.645669
0.63904
0.6304
0.619536
0.606371
0.590997
0.57369
0.554884
0.535111
0.514929
0.494852
0.475304
0.456594
0.438921
0.422384
0.407008
0.392762
0.379583
0.367386
0.35608
0.345573
0.335777
0.326611
0.318003
0.30989
0.302217
0.294939
0.288017
0.281418
0.275114
0.26907
0.263253
0.257651
0.252248
0.247036
0.242005
0.237147
0.232456
0.227925
0.22355
0.219326
0.21525
0.211318
0.207526
0.203872
0.200355
0.196972
0.193725
0.190616
0.187649
0.184833
0.182183
0.179724
0.177501
0.17554
0.173939
0.172842
0.172408
0.172972
0.175043
0.179489
0.185828
0.193752
0.203113
0.213862
0.226019
0.239659
0.254901
0.271909
0.290892
0.312099
0.335828
0.362428
0.392343
0.426074
0.46413
0.506988
0.555035
0.608454
0.667091
0.730278
0.796646
0.864033
0.929587
0.990155
1.04293
1.08611
1.11924
1.14314
1.15941
1.1699
1.17633
1.18008
1.18215
1.1832
1.18371
0.658047
0.656467
0.654055
0.65054
0.645615
0.638963
0.630294
0.619398
0.606197
0.590783
0.573433
0.554581
0.534758
0.514525
0.494394
0.474791
0.456027
0.4383
0.421711
0.406285
0.391992
0.378769
0.366533
0.355191
0.344652
0.334828
0.325638
0.31701
0.30888
0.301194
0.293907
0.286978
0.280375
0.27407
0.268025
0.262211
0.256612
0.251216
0.246011
0.240988
0.23614
0.231459
0.226941
0.222579
0.218369
0.214307
0.210389
0.206614
0.202976
0.199476
0.196111
0.192883
0.189792
0.186845
0.184049
0.18142
0.178981
0.176781
0.174843
0.173265
0.172189
0.171775
0.172354
0.174432
0.178878
0.185217
0.193141
0.202505
0.21326
0.225428
0.239082
0.254344
0.271379
0.290395
0.311645
0.335426
0.362088
0.392077
0.425895
0.464052
0.507024
0.555191
0.608738
0.667498
0.730789
0.797227
0.864639
0.930165
0.99066
1.04333
1.0864
1.11943
1.14325
1.15947
1.16993
1.17634
1.18008
1.18215
1.1832
1.18371
0.658045
0.656459
0.654038
0.650511
0.64557
0.638898
0.630205
0.619281
0.606047
0.590597
0.573208
0.554313
0.534445
0.514164
0.493985
0.474332
0.455518
0.437743
0.421107
0.405637
0.391303
0.378041
0.365769
0.354396
0.343828
0.333979
0.324767
0.316121
0.307976
0.300279
0.292982
0.286048
0.279442
0.273136
0.267091
0.261279
0.255684
0.250292
0.245094
0.240079
0.23524
0.23057
0.226062
0.221712
0.217514
0.213466
0.209562
0.205801
0.202179
0.198694
0.195346
0.192134
0.189061
0.186131
0.183353
0.180742
0.17832
0.176136
0.174229
0.172669
0.17161
0.17121
0.171798
0.173875
0.178314
0.184647
0.192568
0.20193
0.212687
0.22486
0.238523
0.2538
0.270855
0.289898
0.311182
0.335006
0.361721
0.391773
0.425667
0.463912
0.506986
0.555265
0.608926
0.667799
0.731188
0.797697
0.865141
0.930654
0.991094
1.04368
1.08665
1.1196
1.14336
1.15953
1.16996
1.17635
1.18009
1.18215
1.18321
1.18371
0.658043
0.656452
0.654025
0.650488
0.645534
0.638845
0.630132
0.619183
0.605921
0.59044
0.573015
0.554082
0.534173
0.513849
0.493626
0.473929
0.455072
0.437254
0.420577
0.405068
0.390697
0.377401
0.365099
0.353697
0.343105
0.333234
0.324003
0.315341
0.307183
0.299475
0.292171
0.285231
0.278622
0.272316
0.266271
0.26046
0.254869
0.249482
0.24429
0.239282
0.234451
0.22979
0.225292
0.220953
0.216767
0.21273
0.208839
0.205091
0.201482
0.198012
0.194678
0.191481
0.188422
0.185508
0.182747
0.180152
0.177747
0.175578
0.17369
0.172147
0.171102
0.170714
0.171308
0.17338
0.177808
0.184132
0.192046
0.201403
0.212158
0.224333
0.238002
0.253288
0.270358
0.289422
0.310734
0.334594
0.361353
0.391459
0.425417
0.463738
0.5069
0.555277
0.609041
0.668015
0.731495
0.798074
0.865554
0.931063
0.991463
1.04398
1.08688
1.11976
1.14345
1.15958
1.16999
1.17637
1.18009
1.18215
1.18321
1.18371
0.658042
0.656448
0.654014
0.65047
0.645505
0.638803
0.630073
0.619104
0.605818
0.590309
0.572854
0.553887
0.533943
0.513581
0.49332
0.473585
0.454689
0.436834
0.420122
0.404579
0.390177
0.376853
0.364523
0.353098
0.342484
0.332594
0.323347
0.314671
0.306502
0.298786
0.291475
0.28453
0.277919
0.271612
0.265567
0.259758
0.254169
0.248787
0.2436
0.238599
0.233775
0.229122
0.224633
0.220303
0.216127
0.2121
0.208221
0.204484
0.200887
0.197428
0.194107
0.190923
0.187878
0.184977
0.18223
0.179649
0.177259
0.175103
0.17323
0.171701
0.170668
0.170288
0.170886
0.172953
0.177367
0.18368
0.191585
0.200936
0.211687
0.223861
0.237533
0.252826
0.269907
0.288987
0.310321
0.33421
0.361006
0.391156
0.425168
0.463554
0.50679
0.55525
0.609104
0.668168
0.731729
0.798371
0.865887
0.931399
0.991769
1.04424
1.08707
1.11989
1.14354
1.15963
1.17001
1.17638
1.1801
1.18215
1.18321
1.18371
0.658041
0.656444
0.654007
0.650456
0.645483
0.63877
0.630026
0.619041
0.605735
0.590203
0.572722
0.553727
0.533753
0.51336
0.493066
0.473298
0.454371
0.436485
0.419743
0.404172
0.389744
0.376395
0.364044
0.352598
0.341967
0.332061
0.322801
0.314113
0.305935
0.298211
0.290895
0.283946
0.277334
0.271025
0.264981
0.259173
0.253587
0.248208
0.243026
0.23803
0.233212
0.228566
0.224084
0.219762
0.215594
0.211577
0.207706
0.203979
0.200392
0.196944
0.193633
0.19046
0.187427
0.184537
0.181802
0.179233
0.176855
0.174709
0.172848
0.17133
0.170307
0.169934
0.170534
0.172594
0.176995
0.183296
0.191192
0.200536
0.211283
0.223454
0.237127
0.252424
0.269513
0.288606
0.309957
0.333869
0.360695
0.390881
0.424938
0.463377
0.506675
0.555207
0.609136
0.668276
0.731908
0.798605
0.866153
0.931671
0.99202
1.04445
1.08723
1.12
1.14361
1.15967
1.17003
1.17639
1.1801
1.18216
1.18321
1.18371
0.658041
0.656441
0.654001
0.650445
0.645467
0.638745
0.629991
0.618993
0.605671
0.590121
0.572619
0.553601
0.533602
0.513184
0.492863
0.47307
0.454116
0.436206
0.41944
0.403847
0.389397
0.37603
0.363661
0.352199
0.341554
0.331636
0.322365
0.313668
0.305482
0.297752
0.290431
0.28348
0.276865
0.270557
0.264512
0.258706
0.253122
0.247746
0.242567
0.237576
0.232763
0.228122
0.223646
0.21933
0.215169
0.211159
0.207296
0.203577
0.199998
0.196558
0.193256
0.190092
0.187067
0.184187
0.181461
0.178902
0.176533
0.174396
0.172544
0.171035
0.170019
0.169651
0.170253
0.172307
0.176694
0.182985
0.190872
0.20021
0.210952
0.223121
0.236794
0.252094
0.269188
0.28829
0.309654
0.333585
0.360433
0.390649
0.42474
0.463222
0.506571
0.555159
0.60915
0.668353
0.732042
0.798786
0.866363
0.931886
0.992219
1.04461
1.08736
1.12009
1.14366
1.1597
1.17005
1.1764
1.18011
1.18216
1.18321
1.18371
0.65804
0.656439
0.653997
0.650438
0.645455
0.638728
0.629966
0.618958
0.605625
0.590061
0.572543
0.553508
0.533491
0.513052
0.492712
0.472899
0.453926
0.435997
0.419213
0.403603
0.389138
0.375756
0.363374
0.3519
0.341244
0.331317
0.322037
0.313334
0.305142
0.297408
0.290084
0.28313
0.276515
0.270206
0.264161
0.258356
0.252773
0.247399
0.242224
0.237235
0.232426
0.22779
0.223318
0.219007
0.214852
0.210847
0.206989
0.203276
0.199703
0.19627
0.192974
0.189816
0.186799
0.183926
0.181206
0.178654
0.176293
0.174162
0.172317
0.170815
0.169804
0.16944
0.170042
0.17209
0.176468
0.18275
0.19063
0.199962
0.2107
0.222867
0.236539
0.25184
0.268939
0.288047
0.309421
0.333364
0.36023
0.390467
0.424585
0.463098
0.506485
0.555116
0.609155
0.668406
0.73214
0.79892
0.86652
0.932049
0.992371
1.04474
1.08745
1.12015
1.14371
1.15973
1.17007
1.17641
1.18011
1.18216
1.18321
1.18371
0.65804
0.656438
0.653994
0.650433
0.645447
0.638716
0.629949
0.618935
0.605594
0.590021
0.572493
0.553447
0.533417
0.512966
0.492612
0.472785
0.4538
0.435858
0.419062
0.403441
0.388965
0.375574
0.363183
0.351701
0.341038
0.331104
0.32182
0.313112
0.304916
0.297179
0.289853
0.282898
0.276281
0.269972
0.263928
0.258123
0.252541
0.247169
0.241995
0.237009
0.232202
0.227568
0.2231
0.218792
0.21464
0.210639
0.206785
0.203076
0.199507
0.196078
0.192787
0.189633
0.18662
0.183752
0.181037
0.17849
0.176133
0.174007
0.172167
0.170669
0.169661
0.169299
0.169901
0.171946
0.176316
0.182593
0.190468
0.199796
0.210531
0.222696
0.236367
0.251669
0.26877
0.287882
0.309262
0.333214
0.360091
0.390342
0.424478
0.463013
0.506425
0.555086
0.609156
0.66844
0.732205
0.799011
0.866627
0.932162
0.992477
1.04483
1.08752
1.1202
1.14374
1.15975
1.17008
1.17641
1.18011
1.18216
1.18321
1.18371
0.65804
0.656437
0.653993
0.650431
0.645444
0.638711
0.629941
0.618924
0.60558
0.590002
0.572469
0.553417
0.533381
0.512924
0.492564
0.47273
0.453739
0.43579
0.418989
0.403362
0.388881
0.375485
0.363089
0.351604
0.340937
0.331
0.321713
0.313002
0.304805
0.297066
0.289739
0.282783
0.276166
0.269857
0.263812
0.258007
0.252426
0.247055
0.241882
0.236897
0.232092
0.227459
0.222992
0.218686
0.214535
0.210536
0.206684
0.202977
0.19941
0.195983
0.192694
0.189543
0.186532
0.183666
0.180953
0.178409
0.176054
0.17393
0.172092
0.170596
0.16959
0.16923
0.169832
0.171875
0.176241
0.182514
0.190386
0.199713
0.210446
0.22261
0.236281
0.251584
0.268686
0.2878
0.309183
0.33314
0.360023
0.39028
0.424425
0.462971
0.506396
0.555072
0.609159
0.668459
0.73224
0.799059
0.866684
0.932221
0.992533
1.04488
1.08756
1.12023
1.14376
1.15976
1.17008
1.17642
1.18012
1.18216
1.18321
1.18371
0.65804
0.656437
0.653993
0.650431
0.645444
0.638711
0.629941
0.618924
0.60558
0.590002
0.572469
0.553417
0.533381
0.512924
0.492564
0.472731
0.453739
0.43579
0.418989
0.403362
0.388881
0.375485
0.363089
0.351604
0.340937
0.331
0.321713
0.313003
0.304805
0.297066
0.289739
0.282783
0.276166
0.269857
0.263812
0.258008
0.252427
0.247055
0.241882
0.236897
0.232092
0.227459
0.222992
0.218686
0.214536
0.210536
0.206685
0.202977
0.19941
0.195983
0.192694
0.189543
0.186532
0.183666
0.180954
0.178409
0.176054
0.17393
0.172092
0.170596
0.16959
0.16923
0.169832
0.171875
0.176241
0.182514
0.190387
0.199713
0.210446
0.22261
0.236281
0.251584
0.268686
0.2878
0.309183
0.33314
0.360023
0.390281
0.424425
0.462972
0.506397
0.555074
0.609161
0.668462
0.732244
0.799063
0.866688
0.932226
0.992537
1.04488
1.08756
1.12023
1.14376
1.15976
1.17008
1.17642
1.18012
1.18216
1.18321
1.18371
0.65804
0.656438
0.653994
0.650433
0.645447
0.638716
0.629949
0.618935
0.605595
0.590021
0.572494
0.553447
0.533417
0.512966
0.492613
0.472786
0.453801
0.435858
0.419063
0.403441
0.388966
0.375574
0.363183
0.351702
0.341039
0.331105
0.32182
0.313112
0.304917
0.29718
0.289853
0.282898
0.276282
0.269973
0.263928
0.258123
0.252542
0.24717
0.241996
0.23701
0.232203
0.227569
0.223101
0.218793
0.214641
0.21064
0.206786
0.203076
0.199508
0.196079
0.192787
0.189634
0.186621
0.183753
0.181038
0.178491
0.176134
0.174008
0.172167
0.170669
0.169661
0.1693
0.169902
0.171947
0.176317
0.182593
0.190468
0.199796
0.210531
0.222696
0.236367
0.251669
0.26877
0.287882
0.309263
0.333215
0.360092
0.390343
0.424479
0.463015
0.506428
0.55509
0.609161
0.668447
0.732213
0.79902
0.866637
0.932172
0.992486
1.04484
1.08753
1.12021
1.14374
1.15975
1.17008
1.17641
1.18011
1.18216
1.18321
1.18371
0.65804
0.656439
0.653996
0.650438
0.645455
0.638728
0.629966
0.618958
0.605625
0.590061
0.572544
0.553509
0.533492
0.513054
0.492714
0.472901
0.453928
0.435998
0.419215
0.403604
0.38914
0.375757
0.363375
0.351902
0.341245
0.331318
0.322039
0.313335
0.305144
0.297409
0.290085
0.283132
0.276516
0.270207
0.264163
0.258357
0.252774
0.247401
0.242225
0.237237
0.232428
0.227791
0.223319
0.219008
0.214853
0.210848
0.20699
0.203277
0.199704
0.196271
0.192975
0.189817
0.1868
0.183927
0.181207
0.178655
0.176294
0.174164
0.172318
0.170816
0.169805
0.169441
0.170043
0.172091
0.176468
0.182751
0.19063
0.199962
0.2107
0.222867
0.236539
0.25184
0.268939
0.288047
0.309421
0.333364
0.36023
0.390467
0.424585
0.4631
0.506487
0.55512
0.609159
0.668412
0.732148
0.798929
0.86653
0.93206
0.992381
1.04475
1.08746
1.12016
1.14371
1.15973
1.17007
1.17641
1.18011
1.18216
1.18321
1.18371
0.658041
0.656441
0.654001
0.650445
0.645467
0.638746
0.629992
0.618994
0.605673
0.590123
0.572621
0.553604
0.533605
0.513187
0.492867
0.473073
0.45412
0.436209
0.419443
0.40385
0.3894
0.376032
0.363663
0.352202
0.341556
0.331638
0.322367
0.31367
0.305484
0.297754
0.290433
0.283482
0.276867
0.270559
0.264514
0.258708
0.253123
0.247748
0.242569
0.237577
0.232765
0.228124
0.223648
0.219332
0.215171
0.211161
0.207298
0.203578
0.2
0.19656
0.193257
0.190093
0.187069
0.184189
0.181462
0.178903
0.176534
0.174398
0.172546
0.171037
0.17002
0.169653
0.170254
0.172307
0.176695
0.182986
0.190873
0.20021
0.210952
0.223121
0.236794
0.252094
0.269188
0.28829
0.309654
0.333584
0.360433
0.390648
0.42474
0.463222
0.506572
0.555161
0.609153
0.668357
0.732047
0.798792
0.866369
0.931893
0.992226
1.04462
1.08736
1.12009
1.14367
1.1597
1.17005
1.1764
1.18011
1.18216
1.18321
1.18371
0.658041
0.656444
0.654007
0.650456
0.645484
0.638771
0.630028
0.619043
0.605738
0.590207
0.572726
0.553732
0.533758
0.513365
0.493072
0.473304
0.454376
0.43649
0.419748
0.404177
0.389748
0.3764
0.364048
0.352602
0.341971
0.332065
0.322805
0.314117
0.305938
0.298214
0.290898
0.283949
0.277336
0.271028
0.264984
0.259176
0.253589
0.248211
0.243028
0.238032
0.233215
0.228568
0.224086
0.219764
0.215596
0.211579
0.207708
0.203981
0.200394
0.196946
0.193635
0.190462
0.187429
0.184539
0.181803
0.179235
0.176857
0.174711
0.17285
0.171332
0.170308
0.169936
0.170536
0.172595
0.176996
0.183297
0.191192
0.200536
0.211283
0.223454
0.237127
0.252424
0.269513
0.288605
0.309956
0.333869
0.360694
0.390881
0.424937
0.463376
0.506675
0.555206
0.609136
0.668277
0.731909
0.798606
0.866154
0.931671
0.992019
1.04445
1.08723
1.12
1.14361
1.15967
1.17003
1.17639
1.1801
1.18216
1.18321
1.18371
0.658042
0.656448
0.654015
0.65047
0.645506
0.638805
0.630075
0.619107
0.605823
0.590314
0.57286
0.553894
0.533951
0.51359
0.493328
0.473593
0.454697
0.436842
0.42013
0.404586
0.390184
0.376859
0.364529
0.353104
0.34249
0.332599
0.323352
0.314676
0.306507
0.29879
0.291479
0.284534
0.277923
0.271616
0.265571
0.259762
0.254173
0.24879
0.243603
0.238602
0.233778
0.229125
0.224636
0.220305
0.216129
0.212103
0.208223
0.204486
0.200889
0.197431
0.194109
0.190925
0.18788
0.18498
0.182232
0.179652
0.177261
0.175105
0.173232
0.171703
0.17067
0.17029
0.170888
0.172954
0.177368
0.18368
0.191585
0.200936
0.211687
0.22386
0.237532
0.252825
0.269906
0.288986
0.310319
0.334208
0.361004
0.391154
0.425165
0.463551
0.506787
0.555247
0.6091
0.668163
0.731724
0.798365
0.86588
0.931392
0.991762
1.04423
1.08706
1.11988
1.14353
1.15963
1.17001
1.17638
1.1801
1.18215
1.18321
1.18371
0.658043
0.656453
0.654025
0.650489
0.645536
0.638848
0.630135
0.619188
0.605927
0.590447
0.573024
0.554091
0.534184
0.51386
0.493637
0.473941
0.455083
0.437264
0.420587
0.405077
0.390706
0.37741
0.365107
0.353705
0.343112
0.333241
0.32401
0.315347
0.307189
0.299481
0.292176
0.285236
0.278627
0.27232
0.266275
0.260465
0.254873
0.249486
0.244294
0.239286
0.234455
0.229794
0.225296
0.220956
0.21677
0.212733
0.208842
0.205094
0.201485
0.198015
0.194681
0.191483
0.188425
0.185511
0.182749
0.180155
0.17775
0.175581
0.173693
0.172149
0.171104
0.170716
0.17131
0.173382
0.177809
0.184133
0.192046
0.201403
0.212158
0.224332
0.238001
0.253287
0.270357
0.28942
0.310731
0.334591
0.36135
0.391455
0.425412
0.463732
0.506893
0.555268
0.609031
0.668004
0.731483
0.798061
0.86554
0.93105
0.991451
1.04397
1.08687
1.11975
1.14345
1.15958
1.16998
1.17637
1.18009
1.18215
1.18321
1.18371
0.658045
0.656459
0.654039
0.650512
0.645572
0.638901
0.630209
0.619286
0.606054
0.590606
0.573218
0.554324
0.534458
0.514177
0.493998
0.474345
0.455532
0.437756
0.42112
0.405649
0.391314
0.378052
0.365779
0.354405
0.343837
0.333988
0.324776
0.316129
0.307984
0.300286
0.292989
0.286054
0.279448
0.273142
0.267097
0.261284
0.255689
0.250297
0.245099
0.240084
0.235245
0.230574
0.226066
0.221716
0.217518
0.213469
0.209566
0.205805
0.202182
0.198698
0.195349
0.192137
0.189064
0.186134
0.183356
0.180745
0.178324
0.176139
0.174233
0.172672
0.171613
0.171212
0.1718
0.173876
0.178315
0.184648
0.192568
0.20193
0.212687
0.224859
0.238522
0.253798
0.270853
0.289895
0.311178
0.335002
0.361716
0.391767
0.42566
0.463904
0.506976
0.555254
0.608913
0.667784
0.731172
0.797681
0.865125
0.93064
0.991081
1.04367
1.08665
1.1196
1.14336
1.15952
1.16996
1.17635
1.18009
1.18215
1.18321
1.18371
0.658047
0.656467
0.654056
0.650541
0.645617
0.638966
0.630298
0.619404
0.606204
0.590792
0.573444
0.554593
0.534772
0.514539
0.494409
0.474806
0.456042
0.438314
0.421725
0.406298
0.392005
0.378782
0.366545
0.355203
0.344663
0.334838
0.325648
0.317019
0.308889
0.301203
0.293915
0.286985
0.280383
0.274077
0.268032
0.262217
0.256618
0.251221
0.246016
0.240993
0.236145
0.231464
0.226945
0.222583
0.218373
0.214311
0.210394
0.206618
0.20298
0.19948
0.196115
0.192887
0.189796
0.186849
0.184053
0.181424
0.178985
0.176784
0.174846
0.173268
0.172192
0.171778
0.172356
0.174433
0.178879
0.185217
0.193141
0.202505
0.213259
0.225427
0.23908
0.254342
0.271376
0.290392
0.31164
0.335421
0.362082
0.392069
0.425886
0.464042
0.507012
0.555178
0.608723
0.667483
0.730772
0.797211
0.864624
0.930153
0.99065
1.04332
1.08639
1.11943
1.14325
1.15947
1.16993
1.17634
1.18008
1.18215
1.1832
1.18371
0.658049
0.656477
0.654076
0.650576
0.645671
0.639044
0.630404
0.619542
0.606379
0.591007
0.573702
0.554897
0.535126
0.514944
0.494868
0.475319
0.45661
0.438936
0.422399
0.407022
0.392776
0.379596
0.367399
0.356093
0.345585
0.335788
0.326622
0.318013
0.3099
0.302227
0.294949
0.288026
0.281427
0.275122
0.269077
0.263261
0.257657
0.252255
0.247042
0.242011
0.237153
0.232461
0.22793
0.223555
0.219331
0.215255
0.211322
0.20753
0.203877
0.200359
0.196977
0.19373
0.19062
0.187653
0.184837
0.182187
0.179728
0.177505
0.175544
0.173942
0.172845
0.172411
0.172975
0.175045
0.17949
0.185828
0.193752
0.203112
0.213861
0.226018
0.239657
0.254898
0.271906
0.290887
0.312094
0.335822
0.362421
0.392334
0.426064
0.464118
0.506975
0.555021
0.608438
0.667075
0.730262
0.79663
0.864019
0.929575
0.990146
1.04292
1.0861
1.11924
1.14314
1.1594
1.1699
1.17633
1.18008
1.18215
1.1832
1.18371
0.658052
0.656488
0.654101
0.650618
0.645736
0.639135
0.630528
0.619702
0.606578
0.591249
0.57399
0.555234
0.535515
0.515388
0.495369
0.47588
0.45723
0.439615
0.423136
0.407814
0.39362
0.380488
0.368335
0.357069
0.346597
0.336831
0.327691
0.319105
0.31101
0.303351
0.296084
0.289169
0.282573
0.276271
0.270225
0.264406
0.258799
0.253391
0.248171
0.24313
0.238262
0.233559
0.229015
0.224626
0.220388
0.216296
0.212348
0.208539
0.204868
0.201332
0.19793
0.194663
0.191534
0.188545
0.185707
0.183035
0.180552
0.178304
0.176318
0.17469
0.173567
0.173108
0.173649
0.175702
0.180137
0.186467
0.194383
0.203733
0.21447
0.22661
0.240227
0.255441
0.272415
0.291354
0.312509
0.336175
0.3627
0.392528
0.426158
0.464098
0.506831
0.554743
0.608023
0.666533
0.729615
0.795919
0.863295
0.928897
0.989565
1.04247
1.08578
1.11903
1.14302
1.15934
1.16987
1.17631
1.18007
1.18214
1.1832
1.18371
0.658055
0.656502
0.65413
0.650668
0.64581
0.639241
0.630669
0.619882
0.606801
0.591516
0.574304
0.555599
0.535933
0.515864
0.495906
0.476479
0.457893
0.440343
0.423926
0.408664
0.394527
0.381448
0.369344
0.358121
0.347688
0.337956
0.328845
0.320284
0.312208
0.304565
0.29731
0.290402
0.283812
0.277511
0.271465
0.265644
0.260033
0.254618
0.249391
0.244341
0.239462
0.234747
0.230191
0.225788
0.221535
0.217427
0.21346
0.209635
0.205946
0.202391
0.198969
0.195682
0.19253
0.189519
0.186658
0.183961
0.181454
0.179178
0.177164
0.175506
0.174353
0.173862
0.174371
0.176395
0.180805
0.187117
0.195015
0.204347
0.215062
0.227177
0.240764
0.255941
0.27287
0.291757
0.312849
0.336443
0.362883
0.392612
0.426128
0.463945
0.506545
0.554309
0.607445
0.665823
0.728803
0.79505
0.862431
0.928103
0.988896
1.04196
1.08542
1.1188
1.14289
1.15928
1.16984
1.1763
1.18007
1.18214
1.1832
1.18371
0.658059
0.656518
0.654163
0.650723
0.645895
0.639359
0.630826
0.62008
0.607042
0.591803
0.574639
0.555984
0.536372
0.516361
0.496465
0.477104
0.458585
0.441103
0.424754
0.409558
0.395483
0.382462
0.37041
0.359235
0.348843
0.339148
0.330069
0.321533
0.313479
0.305853
0.298609
0.291711
0.285125
0.278825
0.27278
0.266958
0.261342
0.255922
0.250687
0.245628
0.240738
0.236012
0.231443
0.227026
0.222758
0.218635
0.214653
0.210808
0.2071
0.203525
0.200083
0.196774
0.1936
0.190566
0.18768
0.184957
0.182424
0.180119
0.178073
0.176383
0.175194
0.174663
0.17513
0.177106
0.181475
0.187754
0.195622
0.204925
0.215607
0.227686
0.241232
0.256361
0.273235
0.292057
0.313075
0.336581
0.362921
0.392538
0.425936
0.46362
0.506068
0.553678
0.606664
0.66491
0.727794
0.794001
0.861412
0.927185
0.988137
1.04138
1.08503
1.11857
1.14276
1.15922
1.16981
1.1763
1.18007
1.18214
1.1832
1.18371
0.658063
0.656535
0.654199
0.650785
0.645988
0.639488
0.630995
0.620293
0.607299
0.592105
0.574987
0.556381
0.536822
0.516868
0.497033
0.477738
0.45929
0.441879
0.425601
0.410475
0.396466
0.383507
0.371512
0.360388
0.350042
0.340385
0.331339
0.322831
0.314799
0.30719
0.29996
0.293071
0.28649
0.280193
0.274148
0.268324
0.262705
0.257279
0.252036
0.246969
0.242069