/*--------------------------------*- C++ -*----------------------------------*\
  =========                 |
  \\      /  F ield         | OpenFOAM: The Open Source CFD Toolbox
   \\    /   O peration     | Website:  https://openfoam.org
    \\  /    A nd           | Version:  8
     \\/     M anipulation  |
\*---------------------------------------------------------------------------*/
FoamFile
{
    version     2.0;
    format      ascii;
    class       volScalarField;
    location    "0.05/fluid";
    object      T;
}
// * * * * * * * * * * * * * * * * * * * * * * * * * * * * * * * * * * * * * //

dimensions      [0 0 0 1 0 0 0];

internalField   nonuniform List<scalar> 
4000
(
293.254
294.082
295.361
297.255
299.967
303.733
308.814
315.478
323.973
334.506
347.212
362.14
379.255
398.441
419.528
442.31
466.574
492.11
518.731
546.27
574.609
603.667
633.291
663.414
693.978
724.938
756.253
787.89
819.816
852
884.412
917.023
949.804
982.725
1015.77
1048.97
1082.31
1115.77
1149.32
1182.96
1216.66
1250.4
1284.17
1317.93
1351.68
1385.38
1419.03
1452.59
1486.03
1519.33
1552.45
1585.35
1617.94
1650.16
1681.87
1712.89
1742.84
1771.55
1798.32
1822.26
1841.94
1855.33
1859.4
1849.37
1817.59
1767.33
1705.33
1635.99
1562.22
1486
1408.67
1331.15
1254.09
1177.98
1103.17
1029.96
958.602
889.257
822.088
757.371
695.453
636.758
581.751
530.921
484.75
443.679
408.06
378.091
353.767
334.812
320.679
310.614
303.768
299.313
296.538
294.879
293.93
293.413
293.152
293.028
293.251
294.069
295.332
297.2
299.875
303.588
308.597
315.169
323.555
333.963
346.536
361.331
378.321
397.398
418.398
441.119
465.347
490.874
517.516
545.143
573.605
602.689
632.367
662.567
693.226
724.295
755.732
787.499
819.562
851.889
884.45
917.213
950.148
983.226
1016.43
1049.79
1083.29
1116.91
1150.63
1184.43
1218.29
1252.18
1286.1
1320.02
1353.91
1387.77
1421.55
1455.25
1488.83
1522.26
1555.51
1588.52
1621.23
1653.55
1685.36
1716.46
1746.47
1775.22
1802
1825.9
1845.45
1858.61
1862.29
1851.65
1818.92
1767.94
1705.36
1635.53
1561.34
1484.75
1407.1
1329.29
1251.99
1175.65
1100.64
1027.26
955.763
886.31
819.074
754.338
692.457
633.856
579.005
528.391
482.49
441.736
406.469
376.872
352.895
334.227
320.311
310.395
303.643
299.245
296.501
294.861
293.921
293.409
293.151
293.028
293.25
294.063
295.317
297.173
299.828
303.512
308.481
314.997
323.311
333.63
346.097
360.776
377.643
396.598
417.484
440.109
464.27
489.777
516.449
544.081
572.479
601.595
631.336
661.624
692.395
723.598
755.188
787.127
819.379
851.91
884.688
917.679
950.853
984.178
1017.64
1051.26
1085.02
1118.92
1152.91
1186.98
1221.12
1255.29
1289.48
1323.67
1357.83
1391.94
1425.98
1459.92
1493.74
1527.41
1560.87
1594.1
1627.01
1659.52
1691.5
1722.75
1752.88
1781.61
1808.42
1832.25
1851.57
1864.36
1867.43
1855.83
1821.53
1769.36
1705.84
1635.24
1560.42
1483.27
1405.14
1326.94
1249.3
1172.69
1097.48
1023.96
952.4
882.941
815.772
751.178
689.512
631.196
576.687
526.45
480.943
440.57
405.643
376.322
352.554
334.035
320.215
310.354
303.629
299.242
296.501
294.861
293.921
293.409
293.15
293.028
293.249
294.06
295.311
297.16
299.805
303.471
308.412
314.889
323.148
333.397
345.782
360.369
377.141
396.005
416.812
439.377
463.502
488.982
515.583
543.148
571.574
600.743
630.557
660.941
691.83
723.173
754.925
787.047
819.502
852.257
885.277
918.528
951.976
985.589
1019.35
1053.28
1087.37
1121.6
1155.93
1190.35
1224.82
1259.34
1293.88
1328.4
1362.9
1397.34
1431.71
1465.97
1500.1
1534.06
1567.81
1601.31
1634.47
1667.21
1699.4
1730.82
1761.09
1789.86
1816.67
1840.4
1859.42
1871.74
1874.04
1861.26
1825.26
1771.76
1707.18
1635.7
1560.15
1482.41
1403.76
1325.1
1247.08
1170.18
1094.75
1021.09
949.452
879.974
812.845
748.351
686.842
628.733
574.474
524.523
479.321
439.261
404.638
375.592
352.059
333.725
320.038
310.263
303.589
299.227
296.497
294.86
293.921
293.409
293.15
293.028
293.249
294.061
295.311
297.16
299.8
303.46
308.388
314.843
323.07
333.276
345.607
360.132
376.839
395.641
416.394
438.912
462.972
488.367
514.942
542.532
570.999
600.227
630.121
660.604
691.614
723.1
755.016
787.325
819.989
852.974
886.245
919.765
953.501
987.418
1021.5
1055.77
1090.21
1124.79
1159.49
1194.28
1229.14
1264.04
1298.96
1333.87
1368.74
1403.56
1438.29
1472.9
1507.37
1541.67
1575.73
1609.52
1642.97
1675.96
1708.37
1739.98
1770.38
1799.2
1825.99
1849.61
1868.32
1880.17
1881.71
1867.81
1830.09
1775.25
1709.57
1637.18
1560.85
1482.44
1403.25
1324.15
1245.75
1168.51
1092.8
1018.95
947.179
877.637
810.502
746.06
684.658
626.708
572.652
522.94
477.999
438.206
403.84
375.027
351.688
333.502
319.917
310.206
303.567
299.222
296.498
294.862
293.923
293.41
293.151
293.028
293.25
294.063
295.316
297.166
299.808
303.465
308.386
314.829
323.038
333.218
345.517
360.004
376.669
395.423
416.122
438.576
462.603
488.005
514.599
542.223
570.741
600.036
630.015
660.604
691.739
723.369
755.452
787.948
820.82
854.034
887.554
921.344
955.368
989.588
1023.99
1058.6
1093.4
1128.34
1163.42
1198.59
1233.84
1269.13
1304.44
1339.74
1375
1410.2
1445.31
1480.29
1515.12
1549.75
1584.15
1618.24
1651.97
1685.22
1717.84
1749.63
1780.17
1809.03
1835.8
1859.28
1877.65
1889.15
1889.92
1874.87
1835.71
1779.67
1712.98
1639.71
1562.61
1483.53
1403.74
1324.12
1245.3
1167.73
1091.75
1017.63
945.665
875.988
808.78
744.319
682.95
625.083
571.153
521.603
476.85
437.261
403.1
374.48
351.31
333.262
319.778
310.134
303.534
299.21
296.496
294.864
293.925
293.411
293.151
293.028
293.25
294.067
295.323
297.178
299.823
303.483
308.405
314.843
323.041
333.203
345.478
359.935
376.568
395.293
415.971
438.423
462.454
487.872
514.494
542.162
570.738
600.108
630.179
660.877
692.14
723.918
756.166
788.848
821.925
855.364
889.128
923.181
957.484
991.999
1026.72
1061.66
1096.8
1132.1
1167.55
1203.1
1238.72
1274.4
1310.1
1345.78
1381.43
1417.01
1452.48
1487.83
1523
1557.97
1592.68
1627.07
1661.07
1694.56
1727.4
1759.36
1790.04
1818.94
1845.69
1869.06
1887.17
1898.24
1898.35
1882.33
1841.95
1784.88
1717.27
1643.19
1565.34
1485.59
1405.19
1325.03
1245.73
1167.73
1091.4
1017.03
944.846
874.974
807.622
743.077
681.678
623.829
569.964
520.517
475.899
436.466
402.469
374.009
350.982
333.049
319.652
310.068
303.504
299.199
296.493
294.864
293.926
293.412
293.152
293.028
293.251
294.071
295.331
297.191
299.842
303.507
308.433
314.873
323.069
333.226
345.492
359.939
376.56
395.277
415.952
438.409
462.455
487.899
514.561
542.281
570.923
600.374
630.543
661.354
692.746
724.67
757.083
789.946
823.224
856.88
890.879
925.183
959.754
994.551
1029.57
1064.83
1100.3
1135.94
1171.73
1207.64
1243.63
1279.68
1315.74
1351.8
1387.81
1423.75
1459.57
1495.26
1530.77
1566.05
1601.06
1635.73
1669.99
1703.71
1736.74
1768.86
1799.67
1828.61
1855.35
1878.62
1896.5
1907.19
1906.74
1889.91
1848.58
1790.64
1722.22
1647.38
1568.83
1488.43
1407.43
1326.72
1246.91
1168.47
1091.75
1017.03
944.569
874.483
806.95
742.264
680.78
622.895
569.041
519.646
475.116
435.795
401.925
373.593
350.684
332.852
319.532
310.001
303.471
299.185
296.489
294.864
293.927
293.413
293.152
293.028
293.252
294.074
295.339
297.204
299.861
303.533
308.465
314.91
323.109
333.268
345.533
359.98
376.602
395.323
416.007
438.481
462.552
488.032
514.74
542.52
571.234
600.772
631.04
661.965
693.486
725.554
758.127
791.166
824.636
858.5
892.723
927.265
962.088
997.15
1032.45
1068.01
1103.78
1139.75
1175.87
1212.11
1248.44
1284.83
1321.24
1357.63
1393.99
1430.27
1466.44
1502.43
1538.24
1573.81
1609.09
1644.02
1678.51
1712.44
1745.65
1777.92
1808.84
1837.82
1864.55
1887.74
1905.43
1915.82
1914.92
1897.46
1855.39
1796.74
1727.62
1652.09
1572.88
1491.85
1410.26
1328.99
1248.68
1169.77
1092.63
1017.54
944.754
874.395
806.653
741.801
680.188
622.228
568.343
518.962
474.481
435.238
401.463
373.234
350.423
332.675
319.422
309.938
303.439
299.17
296.483
294.862
293.926
293.413
293.152
293.028
293.253
294.078
295.346
297.216
299.879
303.557
308.496
314.947
323.153
333.317
345.588
360.041
376.672
395.405
416.106
438.604
462.708
488.23
514.991
542.834
571.623
601.248
631.616
662.653
694.3
726.508
759.235
792.442
826.093
860.153
894.585
929.35
964.408
999.716
1035.28
1071.11
1107.17
1143.43
1179.85
1216.4
1253.04
1289.74
1326.47
1363.18
1399.84
1436.42
1472.88
1509.17
1545.26
1581.1
1616.64
1651.8
1686.5
1720.62
1754
1786.39
1817.42
1846.43
1873.16
1896.28
1913.82
1923.97
1922.73
1904.83
1862.21
1802.96
1733.23
1657.08
1577.26
1495.63
1413.47
1331.66
1250.84
1171.47
1093.9
1018.42
945.296
874.643
806.651
741.606
679.845
621.776
567.832
518.433
473.972
434.778
401.074
372.924
350.192
332.516
319.32
309.878
303.406
299.155
296.477
294.86
293.926
293.413
293.152
293.028
293.254
294.081
295.352
297.227
299.895
303.579
308.525
314.983
323.196
333.368
345.648
360.111
376.755
395.505
416.229
438.755
462.897
488.463
515.279
543.187
572.051
601.762
632.226
663.373
695.14
727.481
760.352
793.716
827.538
861.78
896.406
931.376
966.65
1002.19
1037.99
1074.07
1110.39
1146.92
1183.61
1220.44
1257.36
1294.35
1331.36
1368.35
1405.29
1442.15
1478.88
1515.43
1551.77
1587.85
1623.61
1658.98
1693.87
1728.16
1761.67
1794.18
1825.31
1854.35
1881.08
1904.13
1921.57
1931.54
1930.06
1911.86
1868.83
1809.11
1738.85
1662.15
1581.77
1499.59
1416.88
1334.55
1253.24
1173.41
1095.41
1019.55
946.081
875.127
806.876
741.614
679.687
621.495
567.47
518.031
473.568
434.402
400.746
372.658
349.991
332.374
319.227
309.822
303.375
299.139
296.469
294.857
293.925
293.413
293.152
293.028
293.255
294.083
295.358
297.235
299.908
303.598
308.55
315.016
323.236
333.418
345.708
360.183
376.843
395.612
416.361
438.919
463.098
488.711
515.582
543.552
572.49
602.282
632.839
664.088
695.968
728.432
761.438
794.947
828.925
863.334
898.137
933.294
968.763
1004.5
1040.53
1076.83
1113.38
1150.15
1187.09
1224.17
1261.34
1298.58
1335.85
1373.09
1410.29
1447.39
1484.35
1521.14
1557.71
1594
1629.95
1665.51
1700.56
1735
1768.64
1801.25
1832.46
1861.53
1888.25
1911.25
1928.6
1938.45
1936.81
1918.43
1875.12
1815.01
1744.31
1667.12
1586.24
1503.54
1420.33
1337.51
1255.73
1175.46
1097.05
1020.82
947.012
875.761
807.251
741.771
679.666
621.344
567.224
517.731
473.249
434.095
400.473
372.431
349.817
332.249
319.144
309.771
303.346
299.123
296.462
294.853
293.924
293.412
293.152
293.028
293.255
294.085
295.362
297.243
299.919
303.614
308.571
315.044
323.272
333.462
345.763
360.252
376.928
395.718
416.493
439.082
463.299
488.957
515.879
543.91
572.916
602.785
633.428
664.771
696.755
729.332
762.46
796.101
830.219
864.778
899.74
935.065
970.708
1006.63
1042.85
1079.35
1116.11
1153.09
1190.25
1227.55
1264.95
1302.41
1339.9
1377.37
1414.78
1452.09
1489.27
1526.26
1563.02
1599.49
1635.62
1671.34
1706.54
1741.11
1774.86
1807.57
1838.87
1868.04
1894.55
1917.55
1934.87
1944.64
1942.9
1924.43
1880.94
1820.53
1749.45
1671.84
1590.5
1507.34
1423.67
1340.4
1258.19
1177.51
1098.72
1022.14
948.007
876.472
807.713
742.02
679.741
621.281
567.065
517.511
473.002
433.847
400.246
372.24
349.666
332.14
319.07
309.724
303.318
299.109
296.455
294.85
293.922
293.412
293.152
293.028
293.255
294.087
295.365
297.248
299.928
303.626
308.588
315.067
323.302
333.501
345.813
360.315
377.007
395.818
416.617
439.236
463.49
489.189
516.16
544.247
573.315
603.254
633.973
665.401
697.478
730.156
763.393
797.151
831.394
866.086
901.188
936.659
972.456
1008.54
1044.92
1081.61
1118.55
1155.71
1193.06
1230.55
1268.14
1305.8
1343.48
1381.14
1418.74
1456.24
1493.6
1530.76
1567.69
1604.32
1640.6
1676.45
1711.78
1746.45
1780.3
1813.08
1844.44
1873.66
1900.14
1923.11
1940.39
1950.1
1948.3
1929.79
1886.19
1825.55
1754.16
1676.18
1594.45
1510.88
1426.79
1343.12
1260.52
1179.46
1100.33
1023.42
949
877.202
808.211
742.32
679.875
621.284
566.972
517.355
472.811
433.649
400.06
372.08
349.539
332.045
319.005
309.682
303.294
299.095
296.447
294.847
293.921
293.411
293.152
293.028
293.256
294.088
295.367
297.252
299.934
303.636
308.602
315.086
323.328
333.534
345.856
360.37
377.078
395.907
416.729
439.376
463.662
489.4
516.414
544.55
573.673
603.674
634.461
665.963
698.121
730.887
764.218
798.078
832.429
867.236
902.459
938.057
973.985
1010.2
1046.74
1083.57
1120.66
1157.98
1195.49
1233.14
1270.9
1308.72
1346.57
1384.39
1422.15
1459.81
1497.32
1534.63
1571.7
1608.47
1644.87
1680.83
1716.26
1751.03
1784.95
1817.79
1849.19
1878.47
1904.94
1927.88
1945.13
1954.8
1952.96
1934.44
1890.79
1829.97
1758.33
1680.05
1597.98
1514.05
1429.61
1345.59
1262.64
1181.26
1101.82
1024.62
949.935
877.902
808.704
742.633
680.038
621.327
566.924
517.246
472.667
433.492
399.91
371.949
349.433
331.966
318.95
309.647
303.272
299.083
296.441
294.844
293.919
293.411
293.151
293.028
293.256
294.089
295.369
297.255
299.939
303.644
308.613
315.101
323.348
333.561
345.891
360.417
377.138
395.984
416.827
439.498
463.812
489.582
516.634
544.812
573.983
604.036
634.881
666.446
698.673
731.513
764.924
798.869
833.311
868.213
903.537
939.24
975.279
1011.61
1048.26
1085.22
1122.45
1159.9
1197.54
1235.32
1273.22
1311.17
1349.15
1387.11
1425.01
1462.8
1500.43
1537.86
1575.05
1611.92
1648.43
1684.48
1720
1754.83
1788.82
1821.71
1853.14
1882.46
1908.93
1931.85
1949.08
1958.72
1956.87
1938.35
1894.68
1833.74
1761.89
1683.36
1601.01
1516.8
1432.06
1347.73
1264.49
1182.83
1103.12
1025.68
950.77
878.535
809.157
742.93
680.204
621.386
566.903
517.169
472.558
433.37
399.791
371.842
349.346
331.901
318.904
309.617
303.254
299.072
296.436
294.841
293.918
293.41
293.151
293.028
293.256
294.089
295.37
297.258
299.943
303.649
308.621
315.112
323.363
333.583
345.92
360.454
377.187
396.047
416.906
439.597
463.935
489.732
516.815
545.028
574.237
604.333
635.225
666.841
699.123
732.023
765.498
799.512
834.027
869.006
904.411
940.199
976.325
1012.75
1049.5
1086.56
1123.88
1161.44
1199.18
1237.08
1275.08
1313.14
1351.23
1389.3
1427.3
1465.19
1502.92
1540.45
1577.72
1614.68
1651.27
1687.4
1722.98
1757.87
1791.91
1824.83
1856.29
1885.64
1912.11
1935.02
1952.24
1961.86
1960
1941.5
1897.83
1836.8
1764.8
1686.07
1603.5
1519.05
1434.07
1349.5
1266.03
1184.14
1104.21
1026.57
951.472
879.071
809.545
743.189
680.354
621.448
566.897
517.115
472.475
433.275
399.697
371.758
349.277
331.848
318.867
309.593
303.239
299.064
296.431
294.839
293.917
293.41
293.151
293.028
293.256
294.09
295.371
297.259
299.946
303.653
308.627
315.12
323.375
333.598
345.941
360.482
377.224
396.095
416.967
439.674
464.029
489.848
516.954
545.193
574.432
604.56
635.487
667.143
699.467
732.411
765.935
800
834.57
869.608
905.073
940.925
977.117
1013.61
1050.43
1087.56
1124.96
1162.6
1200.42
1238.4
1276.48
1314.62
1352.79
1390.94
1429.01
1466.98
1504.79
1542.39
1579.73
1616.75
1653.4
1689.58
1725.21
1760.15
1794.22
1827.17
1858.65
1888.02
1914.49
1937.4
1954.6
1964.22
1962.35
1943.87
1900.21
1839.12
1767.01
1688.14
1605.4
1520.77
1435.61
1350.86
1267.21
1185.14
1105.05
1027.26
952.018
879.489
809.849
743.395
680.475
621.501
566.897
517.078
472.416
433.205
399.626
371.695
349.225
331.808
318.839
309.574
303.228
299.057
296.427
294.837
293.916
293.409
293.151
293.028
293.256
294.09
295.372
297.26
299.947
303.655
308.63
315.125
323.382
333.608
345.955
360.501
377.249
396.127
417.008
439.725
464.093
489.925
517.048
545.304
574.563
604.713
635.664
667.345
699.698
732.673
766.229
800.328
834.935
870.011
905.518
941.411
977.647
1014.19
1051.06
1088.24
1125.69
1163.37
1201.25
1239.28
1277.41
1315.61
1353.83
1392.03
1430.16
1468.18
1506.03
1543.68
1581.07
1618.13
1654.82
1691.04
1726.69
1761.66
1795.75
1828.72
1860.22
1889.6
1916.08
1938.98
1956.17
1965.79
1963.91
1945.46
1901.81
1840.68
1768.49
1689.53
1606.69
1521.94
1436.65
1351.78
1268
1185.82
1105.62
1027.72
952.39
879.775
810.059
743.537
680.56
621.539
566.899
517.054
472.375
433.157
399.578
371.651
349.188
331.78
318.818
309.56
303.219
299.052
296.425
294.835
293.916
293.409
293.151
293.028
293.256
294.09
295.372
297.261
299.948
303.657
308.632
315.128
323.386
333.613
345.962
360.51
377.261
396.143
417.028
439.75
464.124
489.964
517.094
545.359
574.628
604.788
635.752
667.446
699.812
732.802
766.374
800.491
835.116
870.211
905.737
941.652
977.91
1014.47
1051.36
1088.57
1126.05
1163.76
1201.66
1239.71
1277.88
1316.1
1354.35
1392.57
1430.73
1468.77
1506.65
1544.32
1581.73
1618.82
1655.52
1691.76
1727.43
1762.41
1796.51
1829.49
1861
1890.39
1916.86
1939.76
1956.96
1966.56
1964.69
1946.24
1902.6
1841.45
1769.23
1690.23
1607.33
1522.52
1437.17
1352.24
1268.4
1186.16
1105.91
1027.96
952.575
879.917
810.162
743.606
680.601
621.556
566.899
517.041
472.354
433.132
399.552
371.628
349.169
331.765
318.808
309.553
303.215
299.05
296.423
294.835
293.915
293.409
293.151
293.028
293.256
294.09
295.372
297.261
299.948
303.657
308.632
315.128
323.386
333.613
345.962
360.51
377.261
396.143
417.028
439.75
464.124
489.963
517.094
545.359
574.627
604.788
635.751
667.445
699.812
732.801
766.374
800.491
835.115
870.211
905.737
941.652
977.909
1014.47
1051.36
1088.57
1126.05
1163.76
1201.66
1239.71
1277.87
1316.1
1354.35
1392.57
1430.73
1468.77
1506.65
1544.32
1581.73
1618.81
1655.52
1691.76
1727.43
1762.41
1796.51
1829.49
1860.99
1890.38
1916.86
1939.76
1956.95
1966.56
1964.69
1946.24
1902.6
1841.45
1769.23
1690.22
1607.33
1522.52
1437.17
1352.24
1268.4
1186.16
1105.91
1027.95
952.575
879.916
810.161
743.605
680.6
621.555
566.897
517.039
472.352
433.13
399.55
371.626
349.167
331.764
318.807
309.553
303.214
299.049
296.423
294.835
293.915
293.409
293.151
293.028
293.256
294.09
295.372
297.26
299.947
303.655
308.63
315.125
323.382
333.608
345.955
360.501
377.248
396.127
417.008
439.725
464.092
489.925
517.047
545.304
574.562
604.712
635.664
667.345
699.697
732.672
766.228
800.327
834.934
870.01
905.516
941.41
977.645
1014.18
1051.05
1088.23
1125.69
1163.37
1201.25
1239.27
1277.41
1315.61
1353.83
1392.03
1430.16
1468.17
1506.03
1543.68
1581.06
1618.13
1654.81
1691.03
1726.69
1761.65
1795.74
1828.72
1860.21
1889.59
1916.07
1938.97
1956.17
1965.78
1963.91
1945.45
1901.81
1840.67
1768.49
1689.53
1606.68
1521.94
1436.65
1351.78
1268
1185.82
1105.62
1027.72
952.389
879.773
810.056
743.534
680.557
621.535
566.895
517.05
472.371
433.153
399.573
371.647
349.185
331.777
318.816
309.559
303.218
299.052
296.424
294.835
293.916
293.409
293.151
293.028
293.256
294.09
295.371
297.259
299.946
303.653
308.626
315.12
323.375
333.598
345.94
360.482
377.223
396.094
416.966
439.672
464.027
489.846
516.952
545.191
574.429
604.557
635.485
667.14
699.464
732.409
765.932
799.997
834.567
869.605
905.07
940.921
977.113
1013.61
1050.43
1087.56
1124.96
1162.59
1200.42
1238.39
1276.47
1314.62
1352.78
1390.93
1429.01
1466.97
1504.78
1542.38
1579.72
1616.75
1653.39
1689.57
1725.2
1760.14
1794.2
1827.16
1858.64
1888.01
1914.48
1937.39
1954.59
1964.21
1962.34
1943.87
1900.21
1839.12
1767
1688.14
1605.4
1520.77
1435.61
1350.86
1267.2
1185.14
1105.05
1027.25
952.017
879.488
809.848
743.392
680.472
621.497
566.893
517.074
472.411
433.2
399.621
371.691
349.221
331.805
318.836
309.572
303.227
299.057
296.427
294.837
293.916
293.409
293.151
293.028
293.256
294.089
295.37
297.258
299.943
303.649
308.621
315.111
323.363
333.581
345.918
360.452
377.184
396.044
416.903
439.594
463.931
489.728
516.811
545.023
574.233
604.328
635.22
666.837
699.119
732.018
765.493
799.506
834.021
869.001
904.406
940.193
976.319
1012.74
1049.49
1086.55
1123.87
1161.43
1199.17
1237.07
1275.07
1313.13
1351.22
1389.29
1427.29
1465.18
1502.91
1540.44
1577.71
1614.67
1651.26
1687.39
1722.96
1757.86
1791.89
1824.82
1856.28
1885.62
1912.1
1935.01
1952.22
1961.85
1959.98
1941.49
1897.82
1836.79
1764.79
1686.07
1603.5
1519.05
1434.07
1349.5
1266.03
1184.14
1104.21
1026.57
951.473
879.071
809.544
743.188
680.352
621.445
566.894
517.112
472.472
433.272
399.693
371.756
349.275
331.847
318.866
309.592
303.238
299.064
296.431
294.838
293.917
293.41
293.151
293.028
293.256
294.089
295.369
297.255
299.939
303.643
308.612
315.099
323.346
333.559
345.888
360.413
377.134
395.979
416.821
439.491
463.805
489.575
516.627
544.804
573.975
604.028
634.873
666.438
698.665
731.504
764.915
798.86
833.302
868.204
903.528
939.231
975.269
1011.6
1048.25
1085.21
1122.44
1159.89
1197.53
1235.31
1273.2
1311.16
1349.14
1387.1
1425
1462.78
1500.42
1537.85
1575.03
1611.91
1648.41
1684.47
1719.98
1754.82
1788.8
1821.69
1853.12
1882.43
1908.91
1931.83
1949.06
1958.7
1956.85
1938.34
1894.67
1833.73
1761.89
1683.36
1601.01
1516.8
1432.06
1347.73
1264.5
1182.83
1103.13
1025.68
950.772
878.536
809.158
742.931
680.204
621.386
566.903
517.168
472.557
433.37
399.79
371.842
349.346
331.901
318.904
309.617
303.254
299.073
296.436
294.841
293.918
293.41
293.151
293.028
293.256
294.088
295.367
297.252
299.934
303.635
308.601
315.084
323.325
333.531
345.851
360.365
377.071
395.9
416.721
439.367
463.652
489.389
516.403
544.538
573.661
603.662
634.449
665.951
698.109
730.874
764.205
798.065
832.416
867.223
902.445
938.043
973.972
1010.19
1046.72
1083.55
1120.65
1157.97
1195.48
1233.13
1270.88
1308.71
1346.55
1384.37
1422.14
1459.8
1497.3
1534.61
1571.68
1608.45
1644.85
1680.81
1716.24
1751.01
1784.93
1817.77
1849.17
1878.44
1904.91
1927.85
1945.1
1954.78
1952.94
1934.43
1890.78
1829.97
1758.32
1680.05
1597.98
1514.05
1429.62
1345.59
1262.65
1181.26
1101.82
1024.62
949.94
877.907
808.709
742.638
680.042
621.33
566.928
517.249
472.671
433.496
399.914
371.952
349.435
331.968
318.951
309.648
303.273
299.083
296.441
294.844
293.919
293.411
293.151
293.028
293.255
294.087
295.365
297.248
299.927
303.625
308.586
315.064
323.299
333.496
345.807
360.308
376.999
395.808
416.606
439.224
463.476
489.175
516.146
544.231
573.299
603.238
633.957
665.384
697.461
730.138
763.375
797.133
831.376
866.068
901.17
936.641
972.438
1008.52
1044.91
1081.59
1118.53
1155.69
1193.04
1230.53
1268.12
1305.78
1343.46
1381.12
1418.72
1456.22
1493.58
1530.74
1567.67
1604.3
1640.58
1676.43
1711.75
1746.43
1780.27
1813.05
1844.41
1873.63
1900.11
1923.08
1940.36
1950.07
1948.28
1929.78
1886.18
1825.54
1754.15
1676.18
1594.45
1510.88
1426.8
1343.13
1260.53
1179.47
1100.34
1023.43
949.009
877.211
808.221
742.33
679.885
621.293
566.981
517.363
472.819
433.656
400.066
372.085
349.543
332.048
319.007
309.684
303.295
299.095
296.448
294.847
293.921
293.411
293.152
293.028
293.255
294.085
295.362
297.242
299.918
303.612
308.569
315.04
323.268
333.457
345.756
360.243
376.918
395.707
416.479
439.067
463.283
488.94
515.862
543.892
572.897
602.765
633.407
664.75
696.734
729.31
762.438
796.079
830.197
864.756
899.718
935.042
970.686
1006.61
1042.82
1079.33
1116.09
1153.07
1190.23
1227.52
1264.92
1302.39
1339.87
1377.34
1414.76
1452.07
1489.25
1526.23
1562.99
1599.47
1635.6
1671.31
1706.51
1741.08
1774.83
1807.54
1838.84
1868.01
1894.51
1917.51
1934.84
1944.61
1942.88
1924.41
1880.93
1820.53
1749.45
1671.84
1590.5
1507.34
1423.68
1340.41
1258.2
1177.52
1098.73
1022.15
948.02
876.485
807.727
742.034
679.754
621.293
567.077
517.523
473.012
433.855
400.253
372.246
349.671
332.143
319.072
309.725
303.319
299.109
296.455
294.85
293.922
293.412
293.152
293.028
293.255
294.083
295.357
297.235
299.907
303.597
308.547
315.012
323.232
333.412
345.7
360.174
376.832
395.6
416.346
438.903
463.081
488.692
515.561
543.531
572.468
602.259
632.816
664.063
695.944
728.407
761.412
794.922
828.899
863.308
898.111
933.268
968.737
1004.48
1040.5
1076.81
1113.36
1150.12
1187.06
1224.14
1261.32
1298.56
1335.82
1373.07
1410.26
1447.36
1484.32
1521.11
1557.68
1593.97
1629.92
1665.47
1700.53
1734.96
1768.61
1801.21
1832.43
1861.5
1888.21
1911.21
1928.57
1938.42
1936.78
1918.41
1875.11
1815.01
1744.31
1667.13
1586.24
1503.54
1420.34
1337.52
1255.74
1175.47
1097.07
1020.84
947.029
875.778
807.268
741.787
679.682
621.358
567.237
517.743
473.26
434.103
400.479
372.436
349.82
332.251
319.145
309.772
303.346
299.124
296.462
294.854
293.924
293.412
293.152
293.028
293.254
294.081
295.352
297.226
299.894
303.578
308.522
314.98
323.192
333.362
345.641
360.102
376.744
395.492
416.214
438.739
462.878
488.444
515.258
543.164
572.028
601.737
632.201
663.346
695.113
727.453
760.324
793.688
827.509
861.751
896.377
931.347
966.62
1002.16
1037.96
1074.04
1110.36
1146.89
1183.58
1220.41
1257.33
1294.32
1331.33
1368.32
1405.26
1442.12
1478.84
1515.4
1551.74
1587.82
1623.58
1658.95
1693.83
1728.12
1761.64
1794.14
1825.27
1854.31
1881.04
1904.09
1921.53
1931.5
1930.03
1911.84
1868.82
1809.1
1738.85
1662.16
1581.78
1499.6
1416.89
1334.57
1253.26
1173.42
1095.43
1019.57
946.101
875.147
806.895
741.632
679.704
621.511
567.484
518.044
473.578
434.41
400.753
372.663
349.995
332.377
319.229
309.823
303.376
299.139
296.47
294.857
293.925
293.413
293.152
293.028
293.253
294.078
295.346
297.216
299.878
303.556
308.494
314.944
323.148
333.311
345.581
360.032
376.661
395.392
416.091
438.587
462.69
488.21
514.969
542.81
571.599
601.222
631.589
662.625
694.272
726.479
759.205
792.411
826.062
860.122
894.553
929.318
964.376
999.684
1035.25
1071.08
1107.14
1143.4
1179.82
1216.37
1253.01
1289.71
1326.43
1363.14
1399.81
1436.39
1472.84
1509.14
1545.23
1581.07
1616.6
1651.76
1686.46
1720.58
1753.95
1786.35
1817.37
1846.39
1873.12
1896.23
1913.78
1923.93
1922.7
1904.81
1862.2
1802.96
1733.23
1657.09
1577.27
1495.64
1413.48
1331.68
1250.86
1171.49
1093.92
1018.45
945.318
874.665
806.673
741.626
679.864
621.794
567.847
518.446
473.983
434.787
401.08
372.929
350.196
332.519
319.322
309.879
303.407
299.155
296.477
294.86
293.926
293.413
293.152
293.028
293.252
294.074
295.339
297.203
299.86
303.531
308.462
314.907
323.105
333.262
345.526
359.971
376.592
395.311
415.993
438.464
462.534
488.012
514.719
542.497
571.21
600.746
631.013
661.936
693.457
725.524
758.096
791.135
824.604
858.468
892.69
927.232
962.054
997.117
1032.42
1067.97
1103.75
1139.71
1175.83
1212.07
1248.41
1284.79
1321.2
1357.6
1393.95
1430.23
1466.4
1502.39
1538.2
1573.77
1609.05
1643.98
1678.47
1712.4
1745.61
1777.87
1808.79
1837.77
1864.51
1887.69
1905.39
1915.78
1914.88
1897.44
1855.38
1796.73
1727.62
1652.1
1572.89
1491.86
1410.27
1329.01
1248.7
1169.79
1092.65
1017.57
944.777
874.418
806.676
741.823
680.209
622.247
568.36
518.977
474.494
435.249
401.472
373.241
350.428
332.679
319.424
309.94
303.44
299.171
296.484
294.862
293.927
293.413
293.152
293.028
293.251
294.07
295.331
297.19
299.841
303.506
308.431
314.87
323.065
333.221
345.485
359.931
376.551
395.266
415.939
438.394
462.438
487.88
514.54
542.258
570.899
600.349
630.516
661.326
692.717
724.64
757.052
789.914
823.191
856.847
890.845
925.149
959.719
994.517
1029.54
1064.79
1100.26
1135.91
1171.7
1207.61
1243.6
1279.64
1315.71
1351.76
1387.77
1423.71
1459.54
1495.22
1530.73
1566.01
1601.02
1635.69
1669.94
1703.66
1736.7
1768.82
1799.62
1828.56
1855.3
1878.57
1896.45
1907.15
1906.71
1889.89
1848.57
1790.63
1722.22
1647.39
1568.84
1488.44
1407.45
1326.74
1246.93
1168.5
1091.77
1017.06
944.594
874.508
806.975
742.287
680.802
622.916
569.06
519.663
475.131
435.808
401.936
373.602
350.691
332.857
319.536
310.004
303.473
299.186
296.49
294.864
293.927
293.413
293.152
293.028
293.25
294.066
295.323
297.177
299.822
303.482
308.403
314.841
323.037
333.199
345.472
359.928
376.559
395.283
415.959
438.409
462.438
487.854
514.475
542.141
570.715
600.084
630.154
660.85
692.112
723.888
756.136
788.816
821.893
855.331
889.095
923.146
957.449
991.964
1026.68
1061.62
1096.76
1132.07
1167.51
1203.06
1238.69
1274.36
1310.06
1345.74
1381.39
1416.96
1452.43
1487.78
1522.96
1557.93
1592.64
1627.03
1661.02
1694.52
1727.35
1759.32
1789.99
1818.89
1845.64
1869.01
1887.12
1898.2
1898.31
1882.3
1841.94
1784.88
1717.28
1643.19
1565.35
1485.6
1405.21
1325.05
1245.75
1167.76
1091.43
1017.06
944.872
875
807.648
743.103
681.702
623.852
569.985
520.536
475.917
436.482
402.483
374.02
350.99
333.056
319.657
310.071
303.506
299.2
296.494
294.864
293.926
293.412
293.152
293.028
293.25
294.063
295.315
297.166
299.807
303.464
308.385
314.827
323.035
333.214
345.512
359.998
376.661
395.414
416.111
438.564
462.589
487.989
514.581
542.204
570.72
600.013
629.991
660.578
691.712
723.341
755.422
787.917
820.789
854.002
887.521
921.31
955.333
989.553
1023.96
1058.57
1093.36
1128.31
1163.38
1198.56
1233.8
1269.09
1304.4
1339.7
1374.96
1410.16
1445.26
1480.25
1515.08
1549.71
1584.1
1618.2
1651.92
1685.17
1717.79
1749.58
1780.12
1808.98
1835.75
1859.23
1877.6
1889.11
1889.89
1874.85
1835.7
1779.67
1712.99
1639.73
1562.63
1483.55
1403.76
1324.15
1245.33
1167.75
1091.77
1017.66
945.693
876.015
808.808
744.346
682.976
625.108
571.177
521.625
476.871
437.279
403.115
374.493
351.32
333.269
319.783
310.137
303.536
299.212
296.497
294.864
293.925
293.412
293.151
293.028
293.249
294.06
295.311
297.159
299.8
303.459
308.387
314.841
323.068
333.272
345.602
360.126
376.832
395.633
416.384
438.901
462.959
488.353
514.927
542.516
570.981
600.206
630.098
660.58
691.589
723.073
754.988
787.296
819.959
852.943
886.212
919.732
953.468
987.383
1021.46
1055.73
1090.17
1124.76
1159.46
1194.25
1229.1
1264
1298.92
1333.82
1368.7
1403.51
1438.24
1472.86
1507.33
1541.62
1575.69
1609.48
1642.92
1675.91
1708.32
1739.93
1770.33
1799.15
1825.94
1849.56
1868.27
1880.13
1881.68
1867.78
1830.08
1775.25
1709.58
1637.19
1560.86
1482.46
1403.27
1324.17
1245.77
1168.53
1092.83
1018.97
947.207
877.665
810.531
746.088
684.685
626.735
572.677
522.963
478.021
438.226
403.856
375.04
351.698
333.51
319.922
310.21
303.569
299.223
296.498
294.863
293.924
293.411
293.151
293.028
293.249
294.06
295.311
297.16
299.804
303.47
308.411
314.887
323.146
333.394
345.778
360.364
377.135
395.998
416.803
439.367
463.492
488.973
515.578
543.139
571.561
600.726
630.538
660.919
691.807
723.148
754.898
787.019
819.473
852.227
885.246
918.496
951.943
985.555
1019.32
1053.25
1087.34
1121.56
1155.89
1190.31
1224.79
1259.3
1293.84
1328.36
1362.86
1397.3
1431.67
1465.93
1500.05
1534.01
1567.77
1601.26
1634.42
1667.16
1699.35
1730.77
1761.04
1789.81
1816.62
1840.35
1859.38
1871.7
1874.01
1861.23
1825.26
1771.77
1707.19
1635.72
1560.17
1482.43
1403.78
1325.12
1247.1
1170.21
1094.78
1021.12
949.48
880.003
812.874
748.379
686.87
628.76
574.5
524.547
479.343
439.281
404.654
375.605
352.069
333.733
320.043
310.266
303.59
299.228
296.497
294.86
293.922
293.409
293.151
293.028
293.249
294.063
295.317
297.173
299.828
303.512
308.48
314.996
323.309
333.627
346.094
360.772
377.638
396.592
417.477