/*--------------------------------*- C++ -*----------------------------------*\
  =========                 |
  \\      /  F ield         | OpenFOAM: The Open Source CFD Toolbox
   \\    /   O peration     | Website:  https://openfoam.org
    \\  /    A nd           | Version:  8
     \\/     M anipulation  |
\*---------------------------------------------------------------------------*/
FoamFile
{
    version     2.0;
    format      ascii;
    class       volVectorField;
    location    "0.05/fluid";
    object      U;
}
// * * * * * * * * * * * * * * * * * * * * * * * * * * * * * * * * * * * * * //

dimensions      [0 1 -1 0 0 0 0];

internalField   nonuniform List<vector> 
4000
(
(0.0999775 -0.00575211 0)
(0.0997039 -0.0173802 0)
(0.0992337 -0.0293351 0)
(0.0985938 -0.0416651 0)
(0.0978019 -0.0543536 0)
(0.0968618 -0.0673962 0)
(0.0957702 -0.0807833 0)
(0.0945211 -0.0944593 0)
(0.0931053 -0.108303 0)
(0.0915097 -0.122126 0)
(0.0897181 -0.135695 0)
(0.0877124 -0.148746 0)
(0.0854763 -0.161022 0)
(0.0829984 -0.172288 0)
(0.0802756 -0.182359 0)
(0.0773143 -0.191107 0)
(0.0741313 -0.198467 0)
(0.070752 -0.204432 0)
(0.0672088 -0.209043 0)
(0.0635407 -0.212375 0)
(0.059788 -0.214544 0)
(0.0559864 -0.215684 0)
(0.0521657 -0.215939 0)
(0.0483523 -0.215447 0)
(0.0445688 -0.214346 0)
(0.0408332 -0.212762 0)
(0.03716 -0.210812 0)
(0.0335602 -0.208599 0)
(0.0300415 -0.206216 0)
(0.0266092 -0.203742 0)
(0.0232661 -0.201245 0)
(0.0200131 -0.198782 0)
(0.0168498 -0.196401 0)
(0.0137743 -0.194141 0)
(0.0107832 -0.192033 0)
(0.00787223 -0.190104 0)
(0.00503662 -0.188374 0)
(0.00227145 -0.186862 0)
(-0.000428606 -0.18558 0)
(-0.00306934 -0.184538 0)
(-0.00565687 -0.183745 0)
(-0.00819755 -0.183208 0)
(-0.0106979 -0.18293 0)
(-0.0131646 -0.182917 0)
(-0.0156044 -0.183171 0)
(-0.0180242 -0.183696 0)
(-0.020431 -0.184493 0)
(-0.0228316 -0.185566 0)
(-0.0252329 -0.186917 0)
(-0.0276418 -0.188549 0)
(-0.0300646 -0.190466 0)
(-0.0325077 -0.192672 0)
(-0.0349768 -0.195173 0)
(-0.0374769 -0.197975 0)
(-0.0400122 -0.201089 0)
(-0.0425847 -0.204523 0)
(-0.0451955 -0.208292 0)
(-0.047843 -0.212411 0)
(-0.050519 -0.2169 0)
(-0.0532066 -0.221782 0)
(-0.0558762 -0.227078 0)
(-0.0584745 -0.232807 0)
(-0.0608896 -0.238968 0)
(-0.0629102 -0.245503 0)
(-0.0643273 -0.25223 0)
(-0.0651828 -0.258873 0)
(-0.0657208 -0.265227 0)
(-0.0661447 -0.271168 0)
(-0.0665716 -0.276604 0)
(-0.0670696 -0.281448 0)
(-0.0676827 -0.285606 0)
(-0.0684371 -0.288979 0)
(-0.0693437 -0.291458 0)
(-0.0704024 -0.292928 0)
(-0.0716058 -0.293261 0)
(-0.0729408 -0.292329 0)
(-0.0743876 -0.29 0)
(-0.0759179 -0.286147 0)
(-0.077499 -0.280649 0)
(-0.0790972 -0.273402 0)
(-0.080675 -0.264324 0)
(-0.08219 -0.25339 0)
(-0.0836062 -0.24071 0)
(-0.0849135 -0.226457 0)
(-0.0861184 -0.2109 0)
(-0.087242 -0.194402 0)
(-0.0883171 -0.17741 0)
(-0.0893821 -0.160403 0)
(-0.0904709 -0.143828 0)
(-0.0916016 -0.128029 0)
(-0.0927715 -0.113192 0)
(-0.093958 -0.0993379 0)
(-0.0951242 -0.0863516 0)
(-0.0962263 -0.0740429 0)
(-0.0972221 -0.0621954 0)
(-0.0980811 -0.0506247 0)
(-0.0987899 -0.0391678 0)
(-0.0993436 -0.0277449 0)
(-0.0997381 -0.0164365 0)
(-0.0999706 -0.00539307 0)
(0.100084 -0.00503017 0)
(0.100078 -0.0154503 0)
(0.0998873 -0.026289 0)
(0.0994942 -0.0374944 0)
(0.0989206 -0.0489946 0)
(0.0981808 -0.0607637 0)
(0.0972783 -0.0727952 0)
(0.0962093 -0.0850566 0)
(0.0949644 -0.0974645 0)
(0.0935286 -0.10988 0)
(0.0918826 -0.12212 0)
(0.090005 -0.133968 0)
(0.0878758 -0.145202 0)
(0.0854808 -0.155613 0)
(0.0828148 -0.165027 0)
(0.0798833 -0.173314 0)
(0.0767035 -0.180398 0)
(0.0733028 -0.186258 0)
(0.0697165 -0.190917 0)
(0.0659836 -0.194443 0)
(0.0621438 -0.196922 0)
(0.0582347 -0.198457 0)
(0.0542914 -0.199161 0)
(0.0503452 -0.199158 0)
(0.0464232 -0.198568 0)
(0.0425471 -0.197506 0)
(0.0387334 -0.196079 0)
(0.0349946 -0.194384 0)
(0.0313395 -0.192506 0)
(0.0277737 -0.19052 0)
(0.0243005 -0.188489 0)
(0.0209208 -0.186469 0)
(0.017634 -0.184504 0)
(0.014438 -0.182631 0)
(0.0113288 -0.180883 0)
(0.00830134 -0.179283 0)
(0.00535015 -0.177854 0)
(0.00246978 -0.176611 0)
(-0.000345661 -0.175568 0)
(-0.00310245 -0.174735 0)
(-0.0058072 -0.174122 0)
(-0.0084667 -0.173734 0)
(-0.0110879 -0.173578 0)
(-0.013678 -0.173659 0)
(-0.0162441 -0.17398 0)
(-0.0187938 -0.174546 0)
(-0.0213346 -0.175359 0)
(-0.0238741 -0.176423 0)
(-0.0264199 -0.177742 0)
(-0.0289799 -0.179319 0)
(-0.0315616 -0.181159 0)
(-0.0341727 -0.183267 0)
(-0.0368208 -0.185647 0)
(-0.0395129 -0.188307 0)
(-0.0422553 -0.191252 0)
(-0.0450526 -0.19449 0)
(-0.0479093 -0.198025 0)
(-0.0508285 -0.201863 0)
(-0.053806 -0.20601 0)
(-0.056825 -0.210463 0)
(-0.0598529 -0.215213 0)
(-0.0628287 -0.220236 0)
(-0.0656162 -0.22549 0)
(-0.0679434 -0.230899 0)
(-0.0695223 -0.23635 0)
(-0.0703919 -0.241706 0)
(-0.0708638 -0.246842 0)
(-0.0711895 -0.251646 0)
(-0.0715075 -0.256014 0)
(-0.0718932 -0.259848 0)
(-0.0723918 -0.263048 0)
(-0.0730296 -0.265509 0)
(-0.0738173 -0.267123 0)
(-0.0747533 -0.267774 0)
(-0.0758282 -0.267347 0)
(-0.0770242 -0.26572 0)
(-0.0783178 -0.262777 0)
(-0.0796752 -0.258415 0)
(-0.0810588 -0.252549 0)
(-0.0824328 -0.245133 0)
(-0.0837624 -0.236176 0)
(-0.0850144 -0.225743 0)
(-0.0861707 -0.213889 0)
(-0.0872247 -0.200775 0)
(-0.0881841 -0.186656 0)
(-0.0890692 -0.171873 0)
(-0.0899119 -0.156824 0)
(-0.090749 -0.141921 0)
(-0.0916144 -0.127532 0)
(-0.0925321 -0.113912 0)
(-0.0935087 -0.101174 0)
(-0.0945316 -0.0892791 0)
(-0.0955706 -0.0780785 0)
(-0.0965835 -0.0673715 0)
(-0.0975241 -0.0569543 0)
(-0.0983525 -0.0466194 0)
(-0.0990364 -0.0362187 0)
(-0.0995482 -0.0257113 0)
(-0.099868 -0.0152267 0)
(-0.100012 -0.00497707 0)
(0.100045 -0.00481984 0)
(0.100005 -0.0147362 0)
(0.0997925 -0.0250212 0)
(0.0994002 -0.0356398 0)
(0.0988431 -0.0465285 0)
(0.098133 -0.0576659 0)
(0.0972769 -0.069051 0)
(0.0962767 -0.0806589 0)
(0.0951275 -0.0924165 0)
(0.0938168 -0.104198 0)
(0.092325 -0.115834 0)
(0.0906276 -0.127122 0)
(0.088699 -0.137853 0)
(0.0865178 -0.147827 0)
(0.0840707 -0.156875 0)
(0.0813555 -0.164871 0)
(0.0783818 -0.171737 0)
(0.0751721 -0.177447 0)
(0.071759 -0.182019 0)
(0.0681691 -0.18551 0)
(0.0644319 -0.188001 0)
(0.0605882 -0.189594 0)
(0.0566765 -0.190399 0)
(0.0527304 -0.190532 0)
(0.0487789 -0.190105 0)
(0.0448464 -0.189228 0)
(0.0409528 -0.188 0)
(0.0371137 -0.186512 0)
(0.0333405 -0.184846 0)
(0.0296414 -0.183069 0)
(0.0260215 -0.181244 0)
(0.0224837 -0.179421 0)
(0.0190287 -0.177643 0)
(0.0156556 -0.175947 0)
(0.0123617 -0.17436 0)
(0.00914224 -0.172909 0)
(0.0059925 -0.171613 0)
(0.0029073 -0.170487 0)
(-0.000118989 -0.169544 0)
(-0.00309255 -0.168796 0)
(-0.00601997 -0.16825 0)
(-0.00890815 -0.167914 0)
(-0.0117642 -0.167793 0)
(-0.0145955 -0.167892 0)
(-0.0174097 -0.168214 0)
(-0.0202144 -0.168764 0)
(-0.0230179 -0.169545 0)
(-0.0258284 -0.170561 0)
(-0.0286547 -0.171814 0)
(-0.0315055 -0.173308 0)
(-0.03439 -0.175047 0)
(-0.0373173 -0.177034 0)
(-0.0402969 -0.179274 0)
(-0.0433383 -0.18177 0)
(-0.0464502 -0.184525 0)
(-0.0496378 -0.187543 0)
(-0.0529067 -0.190823 0)
(-0.0562667 -0.194362 0)
(-0.0597122 -0.198158 0)
(-0.0632145 -0.202199 0)
(-0.0667284 -0.206464 0)
(-0.0701698 -0.210921 0)
(-0.0733581 -0.215525 0)
(-0.0759572 -0.220208 0)
(-0.0776547 -0.224885 0)
(-0.0785159 -0.229472 0)
(-0.0788813 -0.23388 0)
(-0.0790272 -0.238017 0)
(-0.0791114 -0.241787 0)
(-0.0792259 -0.245097 0)
(-0.0794225 -0.24785 0)
(-0.0797267 -0.249946 0)
(-0.080149 -0.251284 0)
(-0.0806853 -0.25176 0)
(-0.0813319 -0.251271 0)
(-0.082063 -0.249696 0)
(-0.0828556 -0.24693 0)
(-0.0836763 -0.242879 0)
(-0.0844881 -0.237461 0)
(-0.0852617 -0.230616 0)
(-0.0859802 -0.22232 0)
(-0.0866402 -0.212593 0)
(-0.0872455 -0.201519 0)
(-0.087803 -0.189258 0)
(-0.088328 -0.176049 0)
(-0.0888463 -0.16221 0)
(-0.0893915 -0.14811 0)
(-0.0900013 -0.134136 0)
(-0.0907095 -0.120631 0)
(-0.0915368 -0.107837 0)
(-0.0924849 -0.0958589 0)
(-0.0935341 -0.0846588 0)
(-0.0946454 -0.0740945 0)
(-0.0957676 -0.0639718 0)
(-0.096846 -0.054092 0)
(-0.0978279 -0.044278 0)
(-0.0986665 -0.0343956 0)
(-0.0993216 -0.0244072 0)
(-0.0997625 -0.0144437 0)
(-0.0999878 -0.00471699 0)
(0.100055 -0.00451208 0)
(0.100039 -0.0137837 0)
(0.0998615 -0.0233801 0)
(0.0995146 -0.0332646 0)
(0.0990137 -0.0433759 0)
(0.098373 -0.0536962 0)
(0.0976 -0.0642306 0)
(0.0966965 -0.0749651 0)
(0.0956571 -0.0858423 0)
(0.0944684 -0.0967564 0)
(0.0931089 -0.107559 0)
(0.0915518 -0.118072 0)
(0.0897688 -0.128105 0)
(0.087735 -0.137474 0)
(0.085434 -0.14602 0)
(0.0828605 -0.153623 0)
(0.0800205 -0.160205 0)
(0.0769273 -0.165735 0)
(0.0736015 -0.170224 0)
(0.0700795 -0.173718 0)
(0.0664023 -0.176286 0)
(0.0626036 -0.178015 0)
(0.0587174 -0.179006 0)
(0.0547762 -0.179363 0)
(0.0508084 -0.17919 0)
(0.0468386 -0.178587 0)
(0.0428872 -0.177646 0)
(0.0389704 -0.176451 0)
(0.0351007 -0.175078 0)
(0.0312875 -0.173591 0)
(0.0275368 -0.172046 0)
(0.0238527 -0.170493 0)
(0.0202368 -0.168971 0)
(0.0166893 -0.167514 0)
(0.0132079 -0.16615 0)
(0.00978876 -0.164903 0)
(0.00642776 -0.16379 0)
(0.00312031 -0.162828 0)
(-0.000138748 -0.162029 0)
(-0.00335517 -0.161403 0)
(-0.00653524 -0.160959 0)
(-0.00968559 -0.160703 0)
(-0.0128133 -0.160641 0)
(-0.0159255 -0.160778 0)
(-0.0190298 -0.161118 0)
(-0.0221341 -0.161664 0)
(-0.0252465 -0.162421 0)
(-0.0283759 -0.16339 0)
(-0.0315316 -0.164574 0)
(-0.0347231 -0.165977 0)
(-0.0379599 -0.1676 0)
(-0.041252 -0.169447 0)
(-0.044609 -0.171518 0)
(-0.0480406 -0.173815 0)
(-0.0515561 -0.176339 0)
(-0.0551589 -0.179088 0)
(-0.0588514 -0.182061 0)
(-0.062642 -0.185249 0)
(-0.0665195 -0.188641 0)
(-0.0704439 -0.192222 0)
(-0.074354 -0.195967 0)
(-0.0781424 -0.199846 0)
(-0.0815964 -0.203815 0)
(-0.0843408 -0.207814 0)
(-0.0860462 -0.211774 0)
(-0.086798 -0.215636 0)
(-0.0869688 -0.219333 0)
(-0.0868552 -0.22279 0)
(-0.0866267 -0.225925 0)
(-0.0863843 -0.228652 0)
(-0.0861918 -0.230878 0)
(-0.0860853 -0.232506 0)
(-0.086082 -0.233437 0)
(-0.0861798 -0.233598 0)
(-0.0863743 -0.232887 0)
(-0.0866465 -0.231185 0)
(-0.0869816 -0.228389 0)
(-0.0873538 -0.224418 0)
(-0.0877342 -0.219196 0)
(-0.0881014 -0.212674 0)
(-0.0884421 -0.204835 0)
(-0.0887507 -0.195705 0)
(-0.0890282 -0.185367 0)
(-0.0892832 -0.173974 0)
(-0.089532 -0.16175 0)
(-0.0898019 -0.14899 0)
(-0.0901287 -0.136038 0)
(-0.0905509 -0.123245 0)
(-0.0911012 -0.110916 0)
(-0.0917992 -0.0992617 0)
(-0.0926457 -0.0883618 0)
(-0.0936199 -0.0781665 0)
(-0.0946811 -0.0685325 0)
(-0.0957751 -0.0592725 0)
(-0.0968417 -0.0501985 0)
(-0.0978231 -0.0411452 0)
(-0.0986676 -0.0319902 0)
(-0.0993294 -0.0227064 0)
(-0.0997719 -0.0134306 0)
(-0.0999933 -0.00437966 0)
(0.100052 -0.00423446 0)
(0.100034 -0.0129235 0)
(0.099859 -0.0219051 0)
(0.0995222 -0.0311449 0)
(0.099041 -0.040584 0)
(0.0984317 -0.0502083 0)
(0.0977042 -0.0600272 0)
(0.0968622 -0.0700334 0)
(0.0959014 -0.0801789 0)
(0.0948077 -0.0903698 0)
(0.0935588 -0.100471 0)
(0.0921261 -0.11032 0)
(0.090479 -0.11974 0)
(0.0885893 -0.128561 0)
(0.0864351 -0.136633 0)
(0.084004 -0.143843 0)
(0.0812969 -0.150116 0)
(0.078326 -0.155421 0)
(0.0751129 -0.159761 0)
(0.0716891 -0.163174 0)
(0.068089 -0.165723 0)
(0.0643471 -0.16749 0)
(0.060497 -0.168567 0)
(0.0565706 -0.16905 0)
(0.0525964 -0.169035 0)
(0.048599 -0.168613 0)
(0.0445992 -0.167872 0)
(0.0406137 -0.166888 0)
(0.0366559 -0.165732 0)
(0.0327356 -0.164462 0)
(0.0288603 -0.163134 0)
(0.0250345 -0.16179 0)
(0.0212612 -0.160469 0)
(0.0175412 -0.159201 0)
(0.013873 -0.158014 0)
(0.0102534 -0.156929 0)
(0.00667902 -0.155964 0)
(0.00314577 -0.155132 0)
(-0.000350957 -0.154446 0)
(-0.00381644 -0.153915 0)
(-0.00725653 -0.153548 0)
(-0.0106775 -0.15335 0)
(-0.0140859 -0.153327 0)
(-0.0174888 -0.153483 0)
(-0.0208937 -0.153823 0)
(-0.0243084 -0.154349 0)
(-0.0277407 -0.155064 0)
(-0.0311991 -0.155971 0)
(-0.034693 -0.157071 0)
(-0.0382314 -0.158366 0)
(-0.0418231 -0.159858 0)
(-0.0454781 -0.161548 0)
(-0.0492058 -0.163436 0)
(-0.0530148 -0.165521 0)
(-0.0569129 -0.167802 0)
(-0.0609041 -0.170275 0)
(-0.064987 -0.172937 0)
(-0.0691581 -0.175778 0)
(-0.0734 -0.178784 0)
(-0.077669 -0.181938 0)
(-0.0818904 -0.185219 0)
(-0.0859352 -0.188598 0)
(-0.0895564 -0.192038 0)
(-0.0923369 -0.195485 0)
(-0.0939622 -0.198878 0)
(-0.0945664 -0.202175 0)
(-0.0945366 -0.205327 0)
(-0.0941723 -0.208269 0)
(-0.0936498 -0.21093 0)
(-0.0930768 -0.213231 0)
(-0.0925218 -0.21509 0)
(-0.0920225 -0.216415 0)
(-0.0916095 -0.217109 0)
(-0.0912988 -0.217117 0)
(-0.0910765 -0.216329 0)
(-0.0909357 -0.214643 0)
(-0.0908548 -0.211963 0)
(-0.0908116 -0.208211 0)
(-0.0907827 -0.203316 0)
(-0.0907512 -0.19723 0)
(-0.0907078 -0.189935 0)
(-0.0906504 -0.181456 0)
(-0.0905834 -0.171868 0)
(-0.090519 -0.161312 0)
(-0.0904802 -0.149996 0)
(-0.090499 -0.138191 0)
(-0.0906128 -0.126209 0)
(-0.0908602 -0.114372 0)
(-0.0912728 -0.10296 0)
(-0.0918677 -0.0921653 0)
(-0.0926421 -0.0820615 0)
(-0.0935706 -0.0726038 0)
(-0.0946082 -0.0636603 0)
(-0.0956958 -0.0550584 0)
(-0.0967688 -0.0466246 0)
(-0.0977645 -0.0382062 0)
(-0.0986269 -0.0296905 0)
(-0.0993058 -0.0210556 0)
(-0.099762 -0.0124376 0)
(-0.0999912 -0.0040483 0)
(0.100054 -0.00395074 0)
(0.100043 -0.0120509 0)
(0.0998807 -0.0204154 0)
(0.0995633 -0.0290097 0)
(0.0991105 -0.0377772 0)
(0.0985384 -0.0467055 0)
(0.0978574 -0.0558069 0)
(0.0970712 -0.0650794 0)
(0.0961761 -0.0744839 0)
(0.0951588 -0.0839385 0)
(0.0939963 -0.093323 0)
(0.0926586 -0.10249 0)
(0.0911124 -0.111278 0)
(0.0893267 -0.119531 0)
(0.0872774 -0.127109 0)
(0.0849506 -0.133906 0)
(0.0823439 -0.139849 0)
(0.0794679 -0.144903 0)
(0.0763428 -0.149071 0)
(0.0729952 -0.152384 0)
(0.0694565 -0.154899 0)
(0.0657599 -0.156688 0)
(0.0619382 -0.157836 0)
(0.0580225 -0.158429 0)
(0.0540408 -0.158555 0)
(0.0500179 -0.1583 0)
(0.0459745 -0.157741 0)
(0.0419275 -0.156952 0)
(0.0378907 -0.155996 0)
(0.0338744 -0.154929 0)
(0.0298861 -0.1538 0)
(0.0259314 -0.152651 0)
(0.0220135 -0.151516 0)
(0.0181341 -0.150425 0)
(0.0142922 -0.149402 0)
(0.0104852 -0.148467 0)
(0.00671023 -0.147637 0)
(0.002964 -0.146925 0)
(-0.000757582 -0.146342 0)
(-0.00445932 -0.145897 0)
(-0.0081466 -0.145598 0)
(-0.0118252 -0.14545 0)
(-0.0155012 -0.145458 0)
(-0.019181 -0.145626 0)
(-0.0228718 -0.145958 0)
(-0.0265805 -0.146455 0)
(-0.030314 -0.147122 0)
(-0.0340814 -0.14796 0)
(-0.0378914 -0.148969 0)
(-0.0417521 -0.150151 0)
(-0.0456718 -0.151507 0)
(-0.0496588 -0.153035 0)
(-0.0537214 -0.154736 0)
(-0.0578669 -0.156607 0)
(-0.0621003 -0.158647 0)
(-0.0664236 -0.16085 0)
(-0.070831 -0.16321 0)
(-0.0753125 -0.165719 0)
(-0.0798454 -0.168363 0)
(-0.0843781 -0.171127 0)
(-0.0888276 -0.173989 0)
(-0.0930491 -0.176925 0)
(-0.0967665 -0.179902 0)
(-0.0995375 -0.182874 0)
(-0.10106 -0.185796 0)
(-0.101503 -0.188629 0)
(-0.10127 -0.191329 0)
(-0.100666 -0.193842 0)
(-0.0998715 -0.196104 0)
(-0.0990004 -0.198044 0)
(-0.0981262 -0.199587 0)
(-0.0972935 -0.200653 0)
(-0.0965279 -0.201159 0)
(-0.0958422 -0.201028 0)
(-0.0952445 -0.20017 0)
(-0.0947355 -0.198491 0)
(-0.0942982 -0.195908 0)
(-0.0939055 -0.192341 0)
(-0.0935341 -0.187728 0)
(-0.0931721 -0.182023 0)
(-0.0928153 -0.17521 0)
(-0.0924636 -0.167312 0)
(-0.0921244 -0.158404 0)
(-0.0918141 -0.148617 0)
(-0.0915572 -0.138145 0)
(-0.0913852 -0.127239 0)
(-0.0913352 -0.116188 0)
(-0.0914437 -0.105287 0)
(-0.0917395 -0.0947905 0)
(-0.0922364 -0.0848697 0)
(-0.0929285 -0.0755864 0)
(-0.0937883 -0.0668944 0)
(-0.0947694 -0.0586689 0)
(-0.0958115 -0.05075 0)
(-0.0968489 -0.0429777 0)
(-0.0978177 -0.0352125 0)
(-0.0986602 -0.0273525 0)
(-0.0993246 -0.0193814 0)
(-0.0997702 -0.0114338 0)
(-0.0999924 -0.00371477 0)
(0.100054 -0.00367377 0)
(0.100047 -0.0112001 0)
(0.0998912 -0.0189667 0)
(0.0995858 -0.0269391 0)
(0.0991511 -0.0350642 0)
(0.0986048 -0.0433315 0)
(0.0979582 -0.0517547 0)
(0.0972158 -0.0603352 0)
(0.0963735 -0.06904 0)
(0.0954174 -0.0777966 0)
(0.0943243 -0.086497 0)
(0.0930631 -0.095007 0)
(0.0915996 -0.10318 0)
(0.0899013 -0.11087 0)
(0.0879419 -0.11795 0)
(0.0857053 -0.124318 0)
(0.0831871 -0.129907 0)
(0.0803941 -0.134683 0)
(0.0773432 -0.138646 0)
(0.0740589 -0.141824 0)
(0.070571 -0.144266 0)
(0.0669112 -0.146039 0)
(0.0631114 -0.147216 0)
(0.0592019 -0.147878 0)
(0.0552105 -0.148106 0)
(0.0511616 -0.147977 0)
(0.0470758 -0.147564 0)
(0.0429706 -0.146932 0)
(0.0388597 -0.146141 0)
(0.034754 -0.145242 0)
(0.0306614 -0.144282 0)
(0.0265879 -0.143297 0)
(0.0225372 -0.142321 0)
(0.0185114 -0.14138 0)
(0.0145099 -0.140496 0)
(0.0105307 -0.139689 0)
(0.00657157 -0.138974 0)
(0.00262953 -0.138362 0)
(-0.00129873 -0.137865 0)
(-0.0052174 -0.137491 0)
(-0.00913139 -0.137245 0)
(-0.0130458 -0.137134 0)
(-0.0169662 -0.137161 0)
(-0.0208984 -0.137331 0)
(-0.0248488 -0.137646 0)
(-0.0288248 -0.138109 0)
(-0.0328347 -0.138721 0)
(-0.0368839 -0.139484 0)
(-0.0409773 -0.140398 0)
(-0.0451236 -0.141465 0)
(-0.0493313 -0.142683 0)
(-0.0536075 -0.144052 0)
(-0.0579589 -0.145571 0)
(-0.0623915 -0.147238 0)
(-0.0669085 -0.149048 0)
(-0.0715085 -0.150998 0)
(-0.0761818 -0.15308 0)
(-0.0809133 -0.155288 0)
(-0.0856751 -0.157607 0)
(-0.0904103 -0.160024 0)
(-0.0950281 -0.162521 0)
(-0.0993713 -0.165074 0)
(-0.103144 -0.167657 0)
(-0.105884 -0.170232 0)
(-0.107301 -0.172762 0)
(-0.107594 -0.175215 0)
(-0.107179 -0.177551 0)
(-0.106362 -0.179718 0)
(-0.105329 -0.181661 0)
(-0.104198 -0.183314 0)
(-0.103047 -0.184611 0)
(-0.101925 -0.185477 0)
(-0.100861 -0.18584 0)
(-0.0998734 -0.185622 0)
(-0.0989679 -0.184741 0)
(-0.0981441 -0.183114 0)
(-0.0973926 -0.18066 0)
(-0.096696 -0.177305 0)
(-0.0960328 -0.17299 0)
(-0.095388 -0.167676 0)
(-0.0947574 -0.161348 0)
(-0.0941464 -0.15403 0)
(-0.0935665 -0.145788 0)
(-0.0930356 -0.136747 0)
(-0.0925797 -0.127084 0)
(-0.0922319 -0.117031 0)
(-0.0920293 -0.106853 0)
(-0.0920078 -0.0968175 0)
(-0.0921942 -0.0871578 0)
(-0.0925999 -0.0780287 0)
(-0.0932161 -0.0694851 0)
(-0.0940129 -0.0614836 0)
(-0.0949413 -0.0539099 0)
(-0.0959395 -0.0466177 0)
(-0.0969406 -0.0394614 0)
(-0.0978799 -0.0323136 0)
(-0.0986986 -0.0250817 0)
(-0.0993449 -0.0177534 0)
(-0.0997779 -0.0104583 0)
(-0.0999928 -0.00339189 0)
(0.100055 -0.00339827 0)
(0.100052 -0.0103559 0)
(0.0999036 -0.0175313 0)
(0.0996097 -0.0248911 0)
(0.0991903 -0.0323848 0)
(0.0986651 -0.0400031 0)
(0.098046 -0.0477609 0)
(0.0973379 -0.0556622 0)
(0.096537 -0.0636793 0)
(0.0956294 -0.0717486 0)
(0.0945915 -0.0797729 0)
(0.0933917 -0.0876309 0)
(0.0919948 -0.0951886 0)
(0.0903669 -0.102314 0)
(0.0884799 -0.108888 0)
(0.0863155 -0.114818 0)
(0.0838669 -0.12004 0)
(0.0811387 -0.124522 0)
(0.0781458 -0.128262 0)
(0.0749109 -0.131283 0)
(0.071462 -0.133629 0)
(0.0678297 -0.13536 0)
(0.0640448 -0.136542 0)
(0.0601371 -0.137249 0)
(0.0561337 -0.137553 0)
(0.0520588 -0.137526 0)
(0.0479331 -0.137232 0)
(0.0437738 -0.136734 0)
(0.039595 -0.136084 0)
(0.0354078 -0.135332 0)
(0.0312204 -0.134517 0)
(0.0270392 -0.133676 0)
(0.0228684 -0.132838 0)
(0.0187106 -0.132028 0)
(0.0145655 -0.131266 0)
(0.0104314 -0.130571 0)
(0.00630661 -0.129955 0)
(0.0021885 -0.12943 0)
(-0.00192537 -0.129005 0)
(-0.00603866 -0.128688 0)
(-0.0101561 -0.128486 0)
(-0.0142821 -0.128402 0)
(-0.0184212 -0.128441 0)
(-0.022579 -0.128606 0)
(-0.0267607 -0.128899 0)
(-0.0309728 -0.129323 0)
(-0.0352218 -0.129879 0)
(-0.0395134 -0.130565 0)
(-0.0438535 -0.131385 0)
(-0.0482491 -0.132337 0)
(-0.0527064 -0.133423 0)
(-0.0572314 -0.13464 0)
(-0.0618289 -0.135987 0)
(-0.0665024 -0.137461 0)
(-0.0712536 -0.13906 0)
(-0.0760784 -0.140777 0)
(-0.0809649 -0.142608 0)
(-0.0858947 -0.144543 0)
(-0.0908356 -0.146573 0)
(-0.0957257 -0.148684 0)
(-0.100467 -0.15086 0)
(-0.104894 -0.153082 0)
(-0.108698 -0.155325 0)
(-0.111408 -0.157562 0)
(-0.112738 -0.159763 0)
(-0.112903 -0.161898 0)
(-0.112329 -0.16393 0)
(-0.111328 -0.165811 0)
(-0.11009 -0.167489 0)
(-0.108737 -0.168906 0)
(-0.107349 -0.170001 0)
(-0.105981 -0.170707 0)
(-0.104665 -0.170954 0)
(-0.10342 -0.170671 0)
(-0.102255 -0.169783 0)
(-0.101168 -0.168214 0)
(-0.100152 -0.165892 0)
(-0.0991912 -0.162749 0)
(-0.0982722 -0.158729 0)
(-0.0973841 -0.153795 0)
(-0.0965214 -0.147935 0)
(-0.0956902 -0.141172 0)
(-0.094905 -0.13357 0)
(-0.0941859 -0.125242 0)
(-0.0935604 -0.116354 0)
(-0.0930627 -0.107118 0)
(-0.0927296 -0.0977763 0)
(-0.0925956 -0.0885743 0)
(-0.0926854 -0.0797222 0)
(-0.0930078 -0.0713596 0)
(-0.0935515 -0.0635344 0)
(-0.0942843 -0.0562051 0)
(-0.095156 -0.0492669 0)
(-0.0961042 -0.0425865 0)
(-0.0970616 -0.0360319 0)
(-0.0979634 -0.0294876 0)
(-0.0987512 -0.0228702 0)
(-0.0993729 -0.0161706 0)
(-0.0997886 -0.00951248 0)
(-0.0999936 -0.00308004 0)
(0.100056 -0.00312516 0)
(0.100055 -0.00952029 0)
(0.0999119 -0.0161119 0)
(0.0996262 -0.0228689 0)
(0.0992189 -0.0297434 0)
(0.0987102 -0.036727 0)
(0.0981125 -0.0438351 0)
(0.0974312 -0.0510733 0)
(0.0966627 -0.0584185 0)
(0.0957932 -0.0658144 0)
(0.0947988 -0.0731742 0)
(0.0936478 -0.0803883 0)
(0.0923042 -0.0873355 0)
(0.0907331 -0.0938953 0)
(0.0889048 -0.0999598 0)
(0.0867992 -0.105443 0)
(0.0844075 -0.110285 0)
(0.0817323 -0.114457 0)
(0.0787867 -0.117954 0)
(0.0755917 -0.120797 0)
(0.0721738 -0.123024 0)
(0.0685624 -0.124688 0)
(0.0647875 -0.125851 0)
(0.0608782 -0.126576 0)
(0.0568613 -0.126931 0)
(0.0527606 -0.12698 0)
(0.0485969 -0.126782 0)
(0.0443874 -0.126393 0)
(0.0401463 -0.125863 0)
(0.0358848 -0.125234 0)
(0.0316117 -0.124545 0)
(0.0273334 -0.123827 0)
(0.0230546 -0.123108 0)
(0.0187784 -0.122411 0)
(0.0145048 -0.121755 0)
(0.0102325 -0.121155 0)
(0.00596033 -0.120624 0)
(0.00168636 -0.120173 0)
(-0.00259172 -0.119809 0)
(-0.00687718 -0.119539 0)
(-0.011174 -0.11937 0)
(-0.0154861 -0.119306 0)
(-0.0198176 -0.119349 0)
(-0.0241733 -0.119504 0)
(-0.0285579 -0.119771 0)
(-0.032976 -0.120152 0)
(-0.0374322 -0.120649 0)
(-0.041933 -0.121262 0)
(-0.0464849 -0.12199 0)
(-0.051093 -0.122835 0)
(-0.0557618 -0.123796 0)
(-0.0604957 -0.124871 0)
(-0.0652986 -0.126059 0)
(-0.0701727 -0.127356 0)
(-0.0751175 -0.128761 0)
(-0.0801272 -0.130268 0)
(-0.0851869 -0.131872 0)
(-0.0902752 -0.133565 0)
(-0.095357 -0.135339 0)
(-0.100366 -0.137182 0)
(-0.105201 -0.139079 0)
(-0.109689 -0.141014 0)
(-0.113516 -0.142968 0)
(-0.116203 -0.144917 0)
(-0.117465 -0.146837 0)
(-0.117523 -0.148702 0)
(-0.116815 -0.150474 0)
(-0.115658 -0.152112 0)
(-0.114247 -0.153567 0)
(-0.112705 -0.154787 0)
(-0.111118 -0.155715 0)
(-0.109541 -0.15629 0)
(-0.10801 -0.156449 0)
(-0.106545 -0.156125 0)
(-0.105157 -0.15525 0)
(-0.103847 -0.153756 0)
(-0.102609 -0.151576 0)
(-0.101427 -0.148651 0)
(-0.100287 -0.144929 0)
(-0.0991835 -0.140376 0)
(-0.0981174 -0.134981 0)
(-0.0970944 -0.128766 0)
(-0.0961289 -0.12179 0)
(-0.095244 -0.114159 0)
(-0.0944687 -0.106023 0)
(-0.0938378 -0.0975775 0)
(-0.0933881 -0.0890428 0)
(-0.093153 -0.0806415 0)
(-0.0931555 -0.0725634 0)
(-0.0934019 -0.0649341 0)
(-0.0938787 -0.0577956 0)
(-0.094552 -0.0511096 0)
(-0.0953703 -0.0447809 0)
(-0.0962702 -0.038689 0)
(-0.0971846 -0.032715 0)
(-0.0980489 -0.0267549 0)
(-0.0988049 -0.0207333 0)
(-0.0994014 -0.0146438 0)
(-0.0997993 -0.00860268 0)
(-0.0999943 -0.00278124 0)
(0.100056 -0.00285357 0)
(0.100058 -0.00869001 0)
(0.0999194 -0.0147032 0)
(0.0996397 -0.0208636 0)
(0.0992418 -0.0271267 0)
(0.0987455 -0.0334851 0)
(0.098164 -0.0399538 0)
(0.0975032 -0.0465395 0)
(0.0967598 -0.053223 0)
(0.0959202 -0.0599547 0)
(0.0949605 -0.0666572 0)
(0.0938486 -0.0732324 0)
(0.0925477 -0.079571 0)
(0.091022 -0.0855643 0)
(0.0892408 -0.0911143 0)
(0.0871823 -0.0961424 0)
(0.0848361 -0.100594 0)
(0.0822033 -0.104441 0)
(0.0792953 -0.10768 0)
(0.0761317 -0.110326 0)
(0.0727378 -0.112415 0)
(0.0691418 -0.113993 0)
(0.065373 -0.115114 0)
(0.0614598 -0.115838 0)
(0.0574288 -0.116222 0)
(0.0533035 -0.116326 0)
(0.0491045 -0.116204 0)
(0.0448493 -0.115905 0)
(0.040552 -0.115475 0)
(0.0362242 -0.114952 0)
(0.0318747 -0.114371 0)
(0.0275104 -0.113761 0)
(0.0231362 -0.113146 0)
(0.0187548 -0.112548 0)
(0.0143672 -0.111984 0)
(0.00997318 -0.111467 0)
(0.00557134 -0.11101 0)
(0.00116011 -0.110622 0)
(-0.00326241 -0.110309 0)
(-0.00769891 -0.11008 0)
(-0.0121526 -0.109937 0)
(-0.0166268 -0.109886 0)
(-0.0211252 -0.10993 0)
(-0.0256516 -0.11007 0)
(-0.0302102 -0.110308 0)
(-0.0348054 -0.110647 0)
(-0.0394414 -0.111086 0)
(-0.0441235 -0.111627 0)
(-0.0488565 -0.11227 0)
(-0.0536449 -0.113014 0)
(-0.0584925 -0.113858 0)
(-0.0634026 -0.114802 0)
(-0.0683775 -0.115843 0)
(-0.0734181 -0.11698 0)
(-0.0785223 -0.118208 0)
(-0.0836828 -0.119525 0)
(-0.0888828 -0.120925 0)
(-0.0940992 -0.122403 0)
(-0.0992945 -0.123949 0)
(-0.104399 -0.125555 0)
(-0.109307 -0.127207 0)
(-0.113845 -0.128893 0)
(-0.117691 -0.130595 0)
(-0.120361 -0.132295 0)
(-0.121568 -0.133971 0)
(-0.121539 -0.135599 0)
(-0.120719 -0.137146 0)
(-0.119431 -0.138572 0)
(-0.117873 -0.139834 0)
(-0.116172 -0.140885 0)
(-0.114416 -0.141672 0)
(-0.112663 -0.142141 0)
(-0.110949 -0.142232 0)
(-0.109296 -0.141886 0)
(-0.107716 -0.141041 0)
(-0.106213 -0.139635 0)
(-0.104782 -0.137607 0)
(-0.103409 -0.134904 0)
(-0.102081 -0.13148 0)
(-0.100792 -0.127306 0)
(-0.0995467 -0.122371 0)
(-0.098355 -0.116696 0)
(-0.0972324 -0.110336 0)
(-0.0962029 -0.103387 0)
(-0.0952969 -0.0959863 0)
(-0.0945497 -0.0883114 0)
(-0.0939979 -0.0805621 0)
(-0.0936738 -0.0729391 0)
(-0.0935987 -0.0656131 0)
(-0.093777 -0.0586961 0)
(-0.094193 -0.0522251 0)
(-0.0948112 -0.0461648 0)
(-0.0955791 -0.0404292 0)
(-0.096433 -0.0349103 0)
(-0.0973058 -0.0295017 0)
(-0.0981332 -0.0241101 0)
(-0.0988579 -0.0186684 0)
(-0.0994295 -0.0131718 0)
(-0.0998097 -0.0077282 0)
(-0.099995 -0.00249514 0)
(0.100056 -0.00258301 0)
(0.10006 -0.00786289 0)
(0.0999243 -0.0133012 0)
(0.0996489 -0.0188695 0)
(0.0992574 -0.0245271 0)
(0.0987704 -0.0302676 0)
(0.0982013 -0.0361052 0)
(0.0975563 -0.042047 0)
(0.0968323 -0.0480772 0)
(0.0960159 -0.0541522 0)
(0.0950832 -0.0602037 0)
(0.0940019 -0.0661442 0)
(0.0927351 -0.0718761 0)
(0.091246 -0.077302 0)
(0.0895028 -0.0823339 0)
(0.0874827 -0.0869006 0)
(0.0851737 -0.0909527 0)
(0.0825755 -0.0944639 0)
(0.0796982 -0.0974296 0)
(0.07656 -0.0998644 0)
(0.0731851 -0.101798 0)
(0.0696009 -0.103272 0)
(0.0658358 -0.104334 0)
(0.0619177 -0.105037 0)
(0.0578727 -0.105434 0)
(0.0537242 -0.105576 0)
(0.0494928 -0.105511 0)
(0.0451959 -0.105285 0)
(0.0408478 -0.104938 0)
(0.0364602 -0.104505 0)
(0.0320423 -0.104017 0)
(0.0276013 -0.1035 0)
(0.0231423 -0.102977 0)
(0.018669 -0.102465 0)
(0.0141821 -0.101981 0)
(0.00968121 -0.101537 0)
(0.00516595 -0.101144 0)
(0.000635285 -0.10081 0)
(-0.00391245 -0.100542 0)
(-0.00847955 -0.100346 0)
(-0.0130687 -0.100225 0)
(-0.0176829 -0.100183 0)
(-0.0223252 -0.100224 0)
(-0.0269989 -0.100349 0)
(-0.0317077 -0.10056 0)
(-0.0364552 -0.100857 0)
(-0.0412453 -0.101242 0)
(-0.0460818 -0.101716 0)
(-0.0509688 -0.102277 0)
(-0.0559097 -0.102927 0)
(-0.0609077 -0.103663 0)
(-0.065965 -0.104485 0)
(-0.0710832 -0.105392 0)
(-0.076262 -0.106381 0)
(-0.0814982 -0.107449 0)
(-0.0867834 -0.108594 0)
(-0.0920994 -0.109811 0)
(-0.0974211 -0.111094 0)
(-0.102709 -0.112437 0)
(-0.107892 -0.113832 0)
(-0.112861 -0.115267 0)
(-0.11744 -0.116731 0)
(-0.121305 -0.118211 0)
(-0.123965 -0.11969 0)
(-0.12513 -0.12115 0)
(-0.125029 -0.122569 0)
(-0.124113 -0.123915 0)
(-0.122713 -0.125155 0)
(-0.121029 -0.126248 0)
(-0.119193 -0.127151 0)
(-0.117292 -0.127818 0)
(-0.115386 -0.128198 0)
(-0.113515 -0.12824 0)
(-0.111701 -0.127888 0)
(-0.109957 -0.127086 0)
(-0.108289 -0.12578 0)
(-0.106691 -0.123914 0)
(-0.105153 -0.121441 0)
(-0.103662 -0.118321 0)
(-0.102215 -0.114527 0)
(-0.100815 -0.110052 0)
(-0.0994766 -0.104914 0)
(-0.0982175 -0.0991634 0)
(-0.0970616 -0.092887 0)
(-0.0960412 -0.0862102 0)
(-0.095192 -0.0792916 0)
(-0.0945504 -0.0723112 0)
(-0.0941479 -0.0654486 0)
(-0.094004 -0.0588564 0)
(-0.0941214 -0.052634 0)
(-0.0944827 -0.0468136 0)
(-0.095051 -0.0413634 0)
(-0.0957729 -0.0362064 0)
(-0.0965844 -0.0312465 0)
(-0.0974185 -0.026389 0)
(-0.0982116 -0.0215514 0)
(-0.0989069 -0.0166738 0)
(-0.099455 -0.011753 0)
(-0.0998191 -0.00688771 0)
(-0.0999956 -0.00222087 0)
(0.100057 -0.00231277 0)
(0.100062 -0.007038 0)
(0.0999279 -0.0119033 0)
(0.0996561 -0.0168827 0)
(0.099269 -0.021939 0)
(0.0987882 -0.0270666 0)
(0.0982278 -0.032279 0)
(0.0975943 -0.0375835 0)
(0.0968851 -0.0429668 0)
(0.0960868 -0.0483911 0)
(0.0951754 -0.0537964 0)
(0.0941185 -0.0591054 0)
(0.0928787 -0.0642319 0)
(0.0914186 -0.0690894 0)
(0.0897058 -0.0735996 0)
(0.0877163 -0.077699 0)
(0.0854371 -0.0813432 0)
(0.0828666 -0.0845082 0)
(0.0800137 -0.0871894 0)
(0.0768956 -0.0893991 0)
(0.0735354 -0.0911633 0)
(0.0699598 -0.0925179 0)
(0.0661965 -0.0935057 0)
(0.062273 -0.0941724 0)
(0.058215 -0.0945649 0)
(0.0540458 -0.0947289 0)
(0.0497858 -0.0947074 0)
(0.0454523 -0.0945401 0)
(0.0410599 -0.0942627 0)
(0.0366203 -0.0939066 0)
(0.032143 -0.0934991 0)
(0.0276353 -0.0930637 0)
(0.0231028 -0.0926202 0)
(0.0185493 -0.0921851 0)
(0.0139758 -0.0917723 0)
(0.00938212 -0.0913932 0)
(0.00476839 -0.091057 0)
(0.000133929 -0.0907712 0)
(-0.00452257 -0.090542 0)
(-0.00920294 -0.0903741 0)
(-0.0139094 -0.0902716 0)
(-0.0186443 -0.0902373 0)
(-0.0234104 -0.0902738 0)
(-0.0282103 -0.0903829 0)
(-0.0330472 -0.0905659 0)
(-0.0379242 -0.0908239 0)
(-0.0428444 -0.0911576 0)
(-0.0478113 -0.0915672 0)
(-0.0528279 -0.0920528 0)
(-0.0578974 -0.092614 0)
(-0.063022 -0.0932503 0)
(-0.0682033 -0.0939607 0)
(-0.0734419 -0.0947439 0)
(-0.0787364 -0.0955981 0)
(-0.0840827 -0.0965209 0)
(-0.0894714 -0.0975094 0)
(-0.0948833 -0.0985599 0)
(-0.100291 -0.0996682 0)
(-0.105656 -0.100827 0)
(-0.110903 -0.102029 0)
(-0.115924 -0.103267 0)
(-0.12054 -0.104532 0)
(-0.124423 -0.105811 0)
(-0.127079 -0.10709 0)
(-0.128212 -0.108356 0)
(-0.128052 -0.109586 0)
(-0.127057 -0.110753 0)
(-0.125561 -0.111825 0)
(-0.12377 -0.112767 0)
(-0.121816 -0.11354 0)
(-0.119791 -0.114103 0)
(-0.117755 -0.114411 0)
(-0.115748 -0.114417 0)
(-0.113795 -0.114072 0)
(-0.11191 -0.113326 0)
(-0.110099 -0.11213 0)
(-0.108359 -0.110436 0)
(-0.106678 -0.108201 0)
(-0.105047 -0.10539 0)
(-0.103462 -0.10198 0)
(-0.10193 -0.0979656 0)
(-0.100465 -0.0933633 0)
(-0.0990853 -0.0882183 0)
(-0.09782 -0.0826092 0)
(-0.0967004 -0.0766475 0)
(-0.0957627 -0.0704747 0)
(-0.0950431 -0.064251 0)
(-0.0945721 -0.0581357 0)
(-0.0943681 -0.0522637 0)