/*--------------------------------*- C++ -*----------------------------------*\
  =========                 |
  \\      /  F ield         | OpenFOAM: The Open Source CFD Toolbox
   \\    /   O peration     | Website:  https://openfoam.org
    \\  /    A nd           | Version:  8
     \\/     M anipulation  |
\*---------------------------------------------------------------------------*/
FoamFile
{
    version     2.0;
    format      ascii;
    class       volScalarField;
    location    "580/fluid";
    object      CH4;
}
// * * * * * * * * * * * * * * * * * * * * * * * * * * * * * * * * * * * * * //

dimensions      [0 0 0 0 0 0 0];

internalField   nonuniform List<scalar> 
4000
(
0.999997
0.999986
0.999969
0.999939
0.99989
0.999808
0.999673
0.999452
0.999095
0.998525
0.997626
0.996233
0.994115
0.990968
0.986408
0.979995
0.971266
0.959792
0.94524
0.927426
0.906333
0.882104
0.855009
0.825406
0.793703
0.760328
0.725706
0.690246
0.654331
0.61831
0.582492
0.547151
0.512516
0.47878
0.446095
0.414584
0.384339
0.355427
0.327887
0.301737
0.27698
0.253601
0.231574
0.210864
0.191429
0.173218
0.156182
0.140267
0.125416
0.111576
0.0986903
0.0867076
0.075577
0.0652509
0.0556855
0.0468408
0.0386822
0.0312748
0.0245783
0.0183134
0.0126661
0.00764704
0.00335439
0.00235039
0.00162661
0.00110971
0.000744821
0.000490756
0.000316714
0.000199772
0.000123027
7.41796e-05
4.4456e-05
2.7903e-05
2.02327e-05
1.55173e-05
1.15118e-05
8.09685e-06
5.34309e-06
3.28308e-06
1.87468e-06
9.99572e-07
5.02301e-07
2.41788e-07
1.12948e-07
5.15151e-08
2.30414e-08
1.01399e-08
4.40181e-09
1.88887e-09
8.02596e-10
3.38174e-10
1.41452e-10
5.87701e-11
2.42422e-11
9.8986e-12
3.96416e-12
1.51587e-12
5.06836e-13
8.89025e-14
0.999997
0.999986
0.999969
0.999939
0.999889
0.999806
0.99967
0.999448
0.999088
0.998514
0.997612
0.996218
0.994105
0.990974
0.986455
0.980116
0.971504
0.960197
0.94586
0.928298
0.907475
0.883516
0.856668
0.827276
0.795735
0.762468
0.727902
0.692448
0.656494
0.620396
0.584471
0.548999
0.514216
0.480322
0.447474
0.415797
0.38539
0.356321
0.328631
0.302341
0.277453
0.253954
0.231818
0.21101
0.191484
0.173197
0.156092
0.140117
0.125216
0.111332
0.0984094
0.086396
0.0752402
0.0648937
0.0553122
0.0464553
0.0382878
0.0308807
0.0241854
0.0179213
0.0122796
0.00727705
0.00325883
0.00228666
0.00158283
0.00107902
0.000723063
0.000475321
0.000305855
0.000192267
0.000117995
7.09739e-05
4.26175e-05
2.71312e-05
1.99821e-05
1.52381e-05
1.11822e-05
7.77136e-06
5.06711e-06
3.08189e-06
1.74894e-06
9.31894e-07
4.70573e-07
2.28172e-07
1.07525e-07
4.94895e-08
2.23263e-08
9.89941e-09
4.32392e-09
1.86417e-09
7.94699e-10
3.35514e-10
1.40466e-10
5.83621e-11
2.40594e-11
9.81421e-12
3.92588e-12
1.4996e-12
5.00957e-13
8.78536e-14
0.999997
0.999986
0.999968
0.999938
0.999888
0.999805
0.999668
0.999444
0.999083
0.998507
0.997603
0.996208
0.994097
0.990977
0.986484
0.980196
0.971668
0.960484
0.946314
0.928958
0.908373
0.884669
0.858078
0.828928
0.7976
0.764507
0.730068
0.694692
0.658766
0.622649
0.586664
0.551096
0.516188
0.482144
0.44913
0.417277
0.386687
0.357433
0.32956
0.303094
0.278037
0.254379
0.232094
0.211144
0.191496
0.173096
0.155893
0.13983
0.124851
0.110901
0.0979216
0.0858603
0.0746648
0.0642863
0.0546795
0.0458036
0.037623
0.030214
0.0235209
0.0172581
0.0116301
0.00664395
0.00319252
0.00222904
0.00153551
0.00104167
0.000694535
0.000454176
0.000290657
0.000181713
0.000110975
6.65975e-05
4.02183e-05
2.62473e-05
1.96348e-05
1.48632e-05
1.07889e-05
7.41562e-06
4.78675e-06
2.88887e-06
1.63218e-06
8.68924e-07
4.39716e-07
2.13939e-07
1.01262e-07
4.68365e-08
2.12369e-08
9.46299e-09
4.15225e-09
1.79741e-09
7.68854e-10
3.25482e-10
1.36538e-10
5.68048e-11
2.34343e-11
9.56144e-12
3.82433e-12
1.46034e-12
4.87632e-13
8.5493e-14
0.999997
0.999986
0.999968
0.999938
0.999888
0.999805
0.999667
0.999444
0.999083
0.998508
0.997607
0.99622
0.994125
0.991031
0.98658
0.980355
0.971916
0.960851
0.946828
0.929644
0.909251
0.885746
0.859354
0.83039
0.799229
0.766276
0.731943
0.696637
0.660744
0.624622
0.588596
0.552954
0.517944
0.483774
0.450615
0.418603
0.387844
0.358417
0.33037
0.303731
0.278506
0.254684
0.232244
0.211159
0.191382
0.172865
0.155555
0.139399
0.124337
0.110315
0.0972752
0.085163
0.0739259
0.0635145
0.0538828
0.0449895
0.0367985
0.0294006
0.022729
0.0164927
0.0108796
0.00590507
0.00314858
0.00218236
0.0014925
0.00100525
0.000665494
0.000432119
0.000274624
0.000170562
0.000103606
6.20683e-05
3.78119e-05
2.54381e-05
1.92091e-05
1.44069e-05
1.03368e-05
7.02037e-06
4.48027e-06
2.67802e-06
1.50289e-06
7.97357e-07
4.03338e-07
1.96581e-07
9.33192e-08
4.33178e-08
1.97183e-08
8.82165e-09
3.88621e-09
1.68863e-09
7.2485e-10
3.07815e-10
1.29478e-10
5.39906e-11
2.23145e-11
9.11771e-12
3.65072e-12
1.39501e-12
4.65959e-13
8.1705e-14
0.999997
0.999986
0.999968
0.999938
0.999888
0.999805
0.999668
0.999444
0.999085
0.998512
0.997616
0.996236
0.994154
0.991083
0.986667
0.980494
0.972128
0.96116
0.947258
0.930217
0.909979
0.886638
0.860407
0.831595
0.800569
0.767728
0.73348
0.698229
0.66236
0.626232
0.590169
0.554463
0.519365
0.485086
0.4518
0.419649
0.388741
0.359159
0.330956
0.304159
0.278777
0.254809
0.232236
0.211021
0.191123
0.172497
0.155089
0.138844
0.123707
0.109619
0.0965235
0.0843662
0.0730936
0.0626555
0.0530053
0.0441005
0.0359098
0.0285505
0.0218935
0.0156537
0.0100596
0.00515089
0.00309986
0.00212992
0.0014441
0.000964562
0.000633469
0.000408194
0.000257551
0.000158914
9.60501e-05
5.75034e-05
3.54546e-05
2.46962e-05
1.86853e-05
1.38779e-05
9.85284e-06
6.62328e-06
4.18773e-06
2.48485e-06
1.38802e-06
7.35029e-07
3.71965e-07
1.81635e-07
8.64489e-08
4.02448e-08
1.83729e-08
8.24267e-09
3.6405e-09
1.58553e-09
6.81983e-10
2.90122e-10
1.22217e-10
5.10256e-11
2.11098e-11
8.63194e-12
3.45805e-12
1.32179e-12
4.41522e-13
7.74187e-14
0.999997
0.999986
0.999968
0.999938
0.999888
0.999806
0.999669
0.999447
0.999089
0.99852
0.997629
0.996259
0.994192
0.991145
0.986763
0.980639
0.97234
0.961455
0.947653
0.930725
0.91061
0.887393
0.861284
0.832585
0.801658
0.768897
0.734708
0.699492
0.663633
0.627489
0.591388
0.555621
0.520442
0.486066
0.452669
0.420395
0.389357
0.359639
0.331295
0.304359
0.278849
0.254758
0.232063
0.210735
0.190733
0.172011
0.154518
0.138199
0.122997
0.108854
0.0957149
0.0835233
0.0722261
0.0617729
0.0521169
0.0432155
0.0350393
0.0277118
0.0210431
0.0148179
0.00924889
0.00441186
0.00301024
0.00204052
0.00136958
0.000907535
0.000592076
0.000379322
0.00023811
0.000146284
8.81847e-05
5.2889e-05
3.30666e-05
2.36393e-05
1.79457e-05
1.32583e-05
9.35008e-06
6.23985e-06
3.91753e-06
2.31068e-06
1.2853e-06
6.79066e-07
3.43415e-07
1.67829e-07
7.99934e-08
3.73073e-08
1.70662e-08
7.67247e-09
3.39572e-09
1.48188e-09
6.38597e-10
2.72129e-10
1.14811e-10
4.79961e-11
1.98781e-11
8.13526e-12
3.26109e-12
1.24696e-12
4.16554e-13
7.30397e-14
0.999997
0.999986
0.999969
0.999939
0.999889
0.999806
0.999671
0.99945
0.999094
0.998528
0.997643
0.996281
0.994229
0.991202
0.986851
0.980769
0.972525
0.96171
0.947991
0.931154
0.911137
0.888018
0.862003
0.833388
0.802532
0.769826
0.735673
0.700474
0.664612
0.628445
0.592301
0.556474
0.52122
0.486754
0.453257
0.420875
0.389721
0.359883
0.331422
0.304376
0.278754
0.254554
0.231756
0.210332
0.190243
0.171442
0.153879
0.137499
0.122245
0.108061
0.0948886
0.0826737
0.0713625
0.0609047
0.0512539
0.0423684
0.0342107
0.026975
0.0201775
0.0140268
0.00852364
0.0037624
0.00263008
0.00181132
0.00122834
0.000819301
0.000536657
0.000344597
0.000216572
0.000133179
8.0463e-05
4.85985e-05
3.09897e-05
2.26894e-05
1.72682e-05
1.27174e-05
8.92776e-06
5.92547e-06
3.69927e-06
2.17124e-06
1.20338e-06
6.34409e-07
3.20524e-07
1.56672e-07
7.4722e-08
3.4879e-08
1.59712e-08
7.18776e-09
3.18461e-09
1.39123e-09
6.00142e-10
2.55988e-10
1.08096e-10
4.52243e-11
1.87425e-11
7.67453e-12
3.0775e-12
1.17695e-12
3.93137e-13
6.89271e-14
0.999997
0.999986
0.999969
0.999939
0.999889
0.999807
0.999672
0.999452
0.999099
0.998536
0.997656
0.996304
0.994264
0.991256
0.986932
0.980887
0.97269
0.961933
0.94828
0.931517
0.911575
0.888531
0.862585
0.83403
0.803222
0.770551
0.736417
0.701221
0.665345
0.629148
0.59296
0.557074
0.521748
0.487201
0.453614
0.421133
0.389879
0.359945
0.331388
0.304243
0.278525
0.254234
0.231351
0.209848
0.189687
0.170823
0.153204
0.136777
0.121484
0.107269
0.0940741
0.0818444
0.0705263
0.0600694
0.050427
0.0415575
0.0334483
0.0262453
0.0194866
0.01341
0.00802272
0.00344257
0.00240413
0.00165701
0.0011253
0.000751694
0.00049301
0.000316907
0.000199371
0.000122791
7.44579e-05
4.5413e-05
2.96544e-05
2.21447e-05
1.68653e-05
1.23741e-05
8.64229e-06
5.70334e-06
3.53955e-06
2.0663e-06
1.14026e-06
5.99253e-07
3.02131e-07
1.47552e-07
7.03449e-08
3.28342e-08
1.50378e-08
6.77022e-09
3.00111e-09
1.31182e-09
5.66246e-10
2.41685e-10
1.02121e-10
4.27492e-11
1.77257e-11
7.26109e-12
2.91247e-12
1.11393e-12
3.72041e-13
6.52201e-14
0.999997
0.999986
0.999969
0.999939
0.99989
0.999808
0.999674
0.999455
0.999103
0.998544
0.997669
0.996324
0.994295
0.991304
0.987003
0.980988
0.972831
0.962121
0.948522
0.931817
0.911934
0.888946
0.86305
0.834537
0.803761
0.771108
0.736981
0.701777
0.665879
0.629648
0.593414
0.557471
0.522079
0.487457
0.453788
0.421226
0.389891
0.359871
0.331228
0.304
0.278203
0.253836
0.230883
0.209317
0.1891
0.170185
0.152524
0.136061
0.12074
0.106503
0.0932942
0.0810569
0.0697377
0.059286
0.0496552
0.0408034
0.032759
0.0255892
0.0188663
0.0128366
0.00750634
0.00326866
0.00227985
0.00156953
0.00106484
0.000710725
0.000465848
0.000299324
0.000188306
0.000116089
7.06508e-05
4.35523e-05
2.91381e-05
2.20197e-05
1.67389e-05
1.2229e-05
8.49057e-06
5.56512e-06
3.4312e-06
1.99116e-06
1.09342e-06
5.72484e-07
2.8784e-07
1.40352e-07
6.68407e-08
3.11767e-08
1.42727e-08
6.42441e-09
2.84774e-09
1.24492e-09
5.37481e-10
2.29472e-10
9.69911e-11
4.06151e-11
1.68459e-11
6.90234e-12
2.76895e-12
1.05905e-12
3.53651e-13
6.19831e-14
0.999997
0.999986
0.999969
0.99994
0.99989
0.999809
0.999675
0.999458
0.999107
0.998551
0.99768
0.996341
0.994323
0.991346
0.987064
0.981075
0.97295
0.962278
0.948722
0.932062
0.912223
0.889277
0.863416
0.834932
0.804173
0.771529
0.737398
0.702179
0.666256
0.629989
0.593708
0.557712
0.522257
0.487568
0.453833
0.4212
0.389791
0.359697
0.330982
0.303685
0.277822
0.253394
0.230386
0.20877
0.188508
0.169555
0.151862
0.135373
0.120032
0.105782
0.0925651
0.0803256
0.0690094
0.0585656
0.0489472
0.040112
0.0320965
0.0249585
0.0182617
0.0122531
0.00693375
0.00320213
0.00222694
0.00152953
0.00103572
0.000690221
0.000451853
0.000290081
0.000182435
0.00011256
6.8734e-05
4.27594e-05
2.91505e-05
2.21917e-05
1.68109e-05
1.22174e-05
8.43515e-06
5.49236e-06
3.36249e-06
1.93905e-06
1.05921e-06
5.52251e-07
2.76768e-07
1.34678e-07
6.40405e-08
2.98365e-08
1.36479e-08
6.13971e-09
2.72057e-09
1.18912e-09
5.13369e-10
2.19193e-10
9.26596e-11
3.88083e-11
1.60994e-11
6.59746e-12
2.64683e-12
1.0123e-12
3.37986e-13
5.92204e-14
0.999997
0.999987
0.999969
0.99994
0.999891
0.99981
0.999677
0.99946
0.999111
0.998557
0.99769
0.996357
0.994346
0.991381
0.987115
0.981148
0.973048
0.962407
0.948884
0.932259
0.912454
0.889537
0.863701
0.835234
0.804484
0.771839
0.737699
0.702461
0.666509
0.630206
0.593882
0.557834
0.522324
0.48758
0.453784
0.421088
0.389616
0.35946
0.330685
0.303331
0.277415
0.252938
0.229885
0.208229
0.187933
0.168952
0.151235
0.134728
0.119375
0.105117
0.0918975
0.0796598
0.0683497
0.057916
0.0483111
0.0394924
0.0315045
0.0243925
0.0177196
0.011731
0.00643654
0.00317233
0.00220339
0.00151165
0.00102266
0.000681016
0.000445602
0.000286011
0.000179929
0.000111157
6.81143e-05
4.27413e-05
2.9689e-05
2.26648e-05
1.7083e-05
1.23363e-05
8.45721e-06
5.46869e-06
3.32453e-06
1.90488e-06
1.03497e-06
5.37292e-07
2.68354e-07
1.30284e-07
6.18407e-08
2.87719e-08
1.3147e-08
5.90975e-09
2.61722e-09
1.14352e-09
4.93577e-10
2.10723e-10
8.90788e-11
3.73108e-11
1.54795e-11
6.3439e-12
2.54519e-12
9.73372e-13
3.24951e-13
5.69233e-14
0.999997
0.999987
0.999969
0.99994
0.999891
0.999811
0.999678
0.999462
0.999114
0.998562
0.997698
0.99637
0.994366
0.991411
0.987158
0.981207
0.973129
0.962511
0.949014
0.932415
0.912635
0.889739
0.863919
0.835461
0.804713
0.772063
0.737908
0.702649
0.66667
0.630331
0.593965
0.557873
0.522317
0.487521
0.453671
0.420922
0.389396
0.359189
0.330364
0.302963
0.277003
0.252487
0.2294
0.207713
0.187392
0.168389
0.150656
0.134138
0.118777
0.104516
0.0912978
0.0790649
0.0677631
0.0573409
0.047751
0.0389533
0.0309941
0.0239005
0.0172434
0.0112771
0.00600455
0.00314859
0.00218819
0.00150197
0.00101659
0.000677328
0.000443448
0.000284831
0.000179375
0.000111024
6.83103e-05
4.32599e-05
3.05807e-05
2.33271e-05
1.74776e-05
1.25376e-05
8.53484e-06
5.47911e-06
3.30923e-06
1.88422e-06
1.01843e-06
5.26516e-07
2.62095e-07
1.26952e-07
6.01489e-08
2.79441e-08
1.27541e-08
5.72802e-09
2.53503e-09
1.10707e-09
4.77682e-10
2.03894e-10
8.61825e-11
3.60963e-11
1.49757e-11
6.13757e-12
2.46245e-12
9.41727e-13
3.14378e-13
5.50697e-14
0.999997
0.999987
0.999969
0.99994
0.999892
0.999811
0.999679
0.999464
0.999117
0.998567
0.997705
0.996381
0.994383
0.991435
0.987193
0.981255
0.973193
0.962595
0.949118
0.932538
0.912775
0.889894
0.864083
0.835628
0.804879
0.772219
0.738049
0.702768
0.666761
0.63039
0.593988
0.557856
0.522257
0.487416
0.453521
0.420726
0.389156
0.358905
0.33004
0.302601
0.276608
0.252061
0.228946
0.207237
0.186896
0.167878
0.150134
0.133609
0.118244
0.103984
0.0907687
0.0785424
0.0672499
0.0568404
0.0472679
0.0384858
0.0305455
0.0234702
0.0168343
0.0108891
0.00564492
0.00312864
0.00217739
0.00149661
0.00101434
0.000676733
0.000443676
0.000285422
0.000180086
0.000111753
6.90427e-05
4.40389e-05
3.14545e-05
2.39942e-05
1.78979e-05
1.27699e-05
8.64098e-06
5.5125e-06
3.309e-06
1.87457e-06
1.00841e-06
5.19279e-07
2.57682e-07
1.2454e-07
5.89003e-08
2.73239e-08
1.24562e-08
5.58888e-09
2.47158e-09
1.07873e-09
4.65258e-10
1.98531e-10
8.38988e-11
3.51354e-11
1.45761e-11
5.97355e-12
2.39658e-12
9.16512e-13
3.05955e-13
5.35936e-14
0.999997
0.999987
0.999969
0.99994
0.999892
0.999812
0.99968
0.999465
0.999119
0.99857
0.997711
0.996389
0.994396
0.991454
0.987221
0.981294
0.973245
0.96266
0.949198
0.932633
0.912882
0.89001
0.864204
0.83575
0.804995
0.772324
0.738139
0.702837
0.666804
0.630404
0.59397
0.557803
0.522167
0.487287
0.453354
0.420521
0.388914
0.358629
0.329731
0.302262
0.276241
0.25167
0.228534
0.206808
0.186453
0.167425
0.149674
0.133145
0.11778
0.103522
0.0903113
0.0780927
0.0668117
0.0564162
0.0468555
0.0380839
0.0301665
0.0231086
0.0164894
0.0105605
0.00535082
0.00311223
0.00217013
0.00149449
0.00101486
0.000678433
0.000445723
0.000287386
0.000181789
0.000113166
7.02206e-05
4.50828e-05
3.24485e-05
2.47295e-05
1.83705e-05
1.30432e-05
8.77847e-06
5.56876e-06
3.32447e-06
1.87394e-06
1.00417e-06
5.15285e-07
2.5491e-07
1.22943e-07
5.80427e-08
2.68863e-08
1.22416e-08
5.48701e-09
2.42453e-09
1.0575e-09
4.55868e-10
1.94449e-10
8.21509e-11
3.43966e-11
1.42676e-11
5.84659e-12
2.34548e-12
8.96924e-13
2.99409e-13
5.24458e-14
0.999997
0.999987
0.999969
0.99994
0.999892
0.999812
0.99968
0.999466
0.999121
0.998573
0.997715
0.996396
0.994406
0.99147
0.987243
0.981324
0.973285
0.962711
0.94926
0.932704
0.912962
0.890095
0.864292
0.835835
0.805074
0.772393
0.738192
0.702871
0.666816
0.63039
0.593928
0.557731
0.522063
0.487152
0.453187
0.420323
0.388687
0.358373
0.329449
0.301956
0.275914
0.251325
0.228173
0.206434
0.18607
0.167035
0.14928
0.132749
0.117385
0.10313
0.0899267
0.0777178
0.0664472
0.05606
0.0465081
0.0377499
0.0298522
0.0228098
0.0162058
0.0102928
0.00511408
0.00309906
0.00216598
0.00149514
0.00101775
0.000682066
0.000449284
0.000290496
0.00018433
0.000115169
7.17965e-05
4.63802e-05
3.35753e-05
2.55476e-05
1.89035e-05
1.33608e-05
8.94778e-06
5.6471e-06
3.35445e-06
1.88223e-06
1.00459e-06
5.13913e-07
2.53569e-07
1.22049e-07
5.75189e-08
2.66033e-08
1.20974e-08
5.41663e-09
2.39134e-09
1.04229e-09
4.49056e-10
1.91459e-10
8.08601e-11
3.38476e-11
1.40373e-11
5.75143e-12
2.30709e-12
8.82194e-13
2.94483e-13
5.15818e-14
0.999997
0.999987
0.999969
0.999941
0.999892
0.999812
0.999681
0.999467
0.999122
0.998575
0.997719
0.996402
0.994415
0.991482
0.98726
0.981347
0.973315
0.962749
0.949306
0.932758
0.913021
0.890158
0.864354
0.835894
0.805126
0.772435
0.738221
0.702883
0.666809
0.630362
0.593876
0.557654
0.521961
0.487024
0.453033
0.420144
0.388484
0.358148
0.329204
0.301693
0.275634
0.251031
0.227868
0.20612
0.185748
0.166709
0.148952
0.132421
0.11706
0.102811
0.0896142
0.0774106
0.0661448
0.0557663
0.046226
0.0374799
0.0295951
0.0225646
0.0159699
0.0100626
0.00489882
0.00308883
0.0021646
0.00149826
0.00102273
0.000687397
0.00045418
0.00029462
0.000187617
0.0001177
7.37284e-05
4.78982e-05
3.48179e-05
2.64398e-05
1.94902e-05
1.37171e-05
9.14445e-06
5.74413e-06
3.3966e-06
1.898e-06
1.00934e-06
5.1472e-07
2.53316e-07
1.21678e-07
5.72526e-08
2.64442e-08
1.20104e-08
5.37202e-09
2.36955e-09
1.03204e-09
4.44377e-10
1.89375e-10
7.99507e-11
3.34575e-11
1.38726e-11
5.68311e-12
2.27949e-12
8.71602e-13
2.90937e-13
5.09596e-14
0.999997
0.999987
0.999969
0.999941
0.999892
0.999813
0.999681
0.999468
0.999124
0.998577
0.997722
0.996406
0.994421
0.991491
0.987273
0.981365
0.973338
0.962777
0.94934
0.932797
0.913063
0.890201
0.864397
0.835934
0.80516
0.772459
0.738234
0.702883
0.666793
0.630328
0.593823
0.557582
0.521868
0.486911
0.452901
0.419993
0.388315
0.357962
0.329002
0.301477
0.275407
0.250793
0.227622
0.205867
0.185492
0.16645
0.148693
0.132164
0.116806
0.102559
0.0893645
0.0771661
0.0659083
0.0555383
0.0460073
0.0372708
0.029399
0.0223782
0.0157922
0.00989259
0.00474568
0.00308119
0.00216565
0.00150353
0.00102953
0.000694205
0.000460237
0.000299629
0.000191554
0.000120693
7.59705e-05
4.96065e-05
3.61505e-05
2.73853e-05
2.01131e-05
1.40988e-05
9.35913e-06
5.85369e-06
3.44703e-06
1.9189e-06
1.01708e-06
5.1718e-07
2.53894e-07
1.21719e-07
5.7176e-08
2.63719e-08
1.19641e-08
5.34634e-09
2.35635e-09
1.02561e-09
4.4137e-10
1.88012e-10
7.93482e-11
3.31974e-11
1.37626e-11
5.63746e-12
2.26101e-12
8.64484e-13
2.88549e-13
5.05401e-14
0.999997
0.999987
0.99997
0.999941
0.999892
0.999813
0.999682
0.999468
0.999124
0.998578
0.997724
0.996409
0.994425
0.991497
0.987282
0.981377
0.973354
0.962797
0.949363
0.932823
0.913092
0.890231
0.864425
0.835959
0.80518
0.772473
0.738238
0.702877
0.666775
0.630296
0.593778
0.557522
0.521794
0.486822
0.452797
0.419875
0.388184
0.357819
0.328848
0.301313
0.275235
0.250614
0.227438
0.205679
0.185301
0.166259
0.148501
0.131972
0.116615
0.102371
0.0891808
0.076988
0.0657365
0.0553735
0.0458498
0.0371211
0.0292594
0.0222462
0.0156663
0.00977139
0.00463431
0.00307588
0.00216881
0.0015106
0.00103781
0.000702188
0.000467195
0.000305309
0.000195976
0.000124018
7.84245e-05
5.14237e-05
3.75092e-05
2.83334e-05
2.07339e-05
1.44788e-05
9.57423e-06
5.96523e-06
3.49984e-06
1.94176e-06
1.02614e-06
5.20457e-07
2.54948e-07
1.22017e-07
5.72325e-08
2.63658e-08
1.19493e-08
5.33526e-09
2.3499e-09
1.02225e-09
4.39737e-10
1.87253e-10
7.90075e-11
3.30479e-11
1.36983e-11
5.61038e-12
2.24991e-12
8.60174e-13
2.87095e-13
5.02841e-14
0.999997
0.999987
0.99997
0.999941
0.999893
0.999813
0.999682
0.999468
0.999125
0.998579
0.997725
0.996411
0.994428
0.991502
0.987287
0.981385
0.973364
0.96281
0.949378
0.93284
0.91311
0.890249
0.864443
0.835974
0.805191
0.772479
0.738239
0.70287
0.66676
0.630273
0.593746
0.55748
0.521742
0.48676
0.452726
0.419796
0.388096
0.357724
0.328746
0.301205
0.275121
0.250496
0.227317
0.205556
0.185176
0.166132
0.148373
0.131845
0.11649
0.102248
0.0890622
0.0768736
0.0656268
0.0552689
0.0457508
0.0370276
0.0291729
0.0221647
0.0155884
0.00969508
0.00456166
0.00307257
0.00217356
0.00151882
0.00104686
0.000710658
0.000474444
0.000311153
0.000200479
0.000127371
8.08597e-05
5.31707e-05
3.87559e-05
2.91797e-05
2.12778e-05
1.48077e-05
9.75918e-06
6.0612e-06
3.54567e-06
1.96191e-06
1.03432e-06
5.23532e-07
2.56047e-07
1.22396e-07
5.73514e-08
2.63975e-08
1.19547e-08
5.33435e-09
2.34828e-09
1.02111e-09
4.39089e-10
1.86923e-10
7.88498e-11
3.29757e-11
1.36662e-11
5.59655e-12
2.24414e-12
8.57904e-13
2.86323e-13
5.01478e-14
0.999997
0.999987
0.99997
0.999941
0.999893
0.999813
0.999682
0.999468
0.999125
0.998579
0.997726
0.996412
0.99443
0.991504
0.98729
0.981389
0.973368
0.962816
0.949385
0.932848
0.913119
0.890257
0.864451
0.835981
0.805196
0.772482
0.738239
0.702866
0.666752
0.630261
0.593729
0.557458
0.521716
0.48673
0.452691
0.419756
0.388052
0.357676
0.328695
0.301151
0.275064
0.250437
0.227256
0.205494
0.185113
0.166069
0.148311
0.131784
0.11643
0.10219
0.0890057
0.0768195
0.0655754
0.0552206
0.0457056
0.0369856
0.0291349
0.0221292
0.0155543
0.00966057
0.00452602
0.00307098
0.00217856
0.00152627
0.00105459
0.00071764
0.000480277
0.000315772
0.000203991
0.000129954
8.2705e-05
5.44465e-05
3.96029e-05
2.97239e-05
2.1614e-05
1.50048e-05
9.86758e-06
6.1166e-06
3.57192e-06
1.97346e-06
1.03904e-06
5.25323e-07
2.56727e-07
1.22642e-07
5.74356e-08
2.64242e-08
1.19621e-08
5.33587e-09
2.34829e-09
1.02087e-09
4.38902e-10
1.86813e-10
7.87931e-11
3.29484e-11
1.36537e-11
5.59102e-12
2.2418e-12
8.5697e-13
2.86003e-13
5.0091e-14
0.999997
0.999987
0.99997
0.999941
0.999893
0.999813
0.999682
0.999468
0.999125
0.998579
0.997726
0.996412
0.99443
0.991503
0.98729
0.981388
0.973368
0.962816
0.949385
0.932848
0.913118
0.890257
0.86445
0.835981
0.805196
0.772482
0.738238
0.702866
0.666752
0.630261
0.593728
0.557458
0.521715
0.486729
0.45269
0.419756
0.388052
0.357676
0.328695
0.30115
0.275064
0.250437
0.227256
0.205493
0.185113
0.166069
0.148311
0.131783
0.116429
0.10219
0.0890056
0.0768194
0.0655753
0.0552204
0.0457055
0.0369855
0.0291348
0.0221291
0.0155542
0.00966051
0.00452597
0.00307098
0.00217856
0.00152627
0.00105459
0.00071764
0.000480276
0.000315771
0.000203991
0.000129954
8.27048e-05
5.44464e-05
3.96029e-05
2.97239e-05
2.1614e-05
1.50048e-05
9.86758e-06
6.1166e-06
3.57192e-06
1.97346e-06
1.03904e-06
5.25323e-07
2.56727e-07
1.22642e-07
5.74356e-08
2.64241e-08
1.19621e-08
5.33586e-09
2.34829e-09
1.02087e-09
4.38901e-10
1.86813e-10
7.87929e-11
3.29483e-11
1.36536e-11
5.591e-12
2.24179e-12
8.56966e-13
2.86002e-13
5.00908e-14
0.999997
0.999987
0.99997
0.999941
0.999893
0.999813
0.999682
0.999468
0.999125
0.998579
0.997725
0.996411
0.994428
0.991501
0.987287
0.981385
0.973363
0.962809
0.949378
0.932839
0.913109
0.890248
0.864442
0.835973
0.80519
0.772478
0.738238
0.702869
0.666759
0.630272
0.593744
0.557478
0.52174
0.486759
0.452725
0.419795
0.388095
0.357723
0.328745
0.301204
0.27512
0.250495
0.227316
0.205555
0.185175
0.166131
0.148373
0.131845
0.116489
0.102248
0.0890617
0.0768731
0.0656264
0.0552686
0.0457505
0.0370273
0.0291727
0.0221644
0.0155882
0.0096949
0.00456151
0.00307257
0.00217356
0.00151882
0.00104686
0.000710657
0.000474443
0.000311152
0.000200478
0.000127371
8.08593e-05
5.31705e-05
3.87558e-05
2.91797e-05
2.12778e-05
1.48077e-05
9.75917e-06
6.0612e-06
3.54566e-06
1.96191e-06
1.03432e-06
5.2353e-07
2.56046e-07
1.22395e-07
5.73509e-08
2.63973e-08
1.19546e-08
5.3343e-09
2.34826e-09
1.0211e-09
4.39085e-10
1.86921e-10
7.88488e-11
3.29752e-11
1.3666e-11
5.59647e-12
2.24411e-12
8.57892e-13
2.86319e-13
5.0147e-14
0.999997
0.999987
0.99997
0.999941
0.999892
0.999813
0.999682
0.999468
0.999124
0.998578
0.997724
0.996409
0.994425
0.991497
0.987281
0.981377
0.973353
0.962796
0.949362
0.932822
0.913091
0.890229
0.864424
0.835957
0.805178
0.77247
0.738236
0.702874
0.666772
0.630294
0.593775
0.557519
0.521791
0.486819
0.452795
0.419873
0.388182
0.357817
0.328846
0.301311
0.275233
0.250613
0.227437
0.205678
0.1853
0.166258
0.1485
0.131971
0.116614
0.10237
0.08918
0.0769873
0.0657358
0.0553728
0.0458493
0.0371206
0.029259
0.0222458
0.015666
0.00977108
0.00463405
0.00307587
0.00216881
0.0015106
0.00103781
0.000702187
0.000467194
0.000305308
0.000195975
0.000124018
7.84241e-05
5.14236e-05
3.75092e-05
2.83335e-05
2.07339e-05
1.44788e-05
9.57423e-06
5.96522e-06
3.49983e-06
1.94175e-06
1.02613e-06
5.20453e-07
2.54945e-07
1.22016e-07
5.72317e-08
2.63654e-08
1.19491e-08
5.33518e-09
2.34986e-09
1.02223e-09
4.39728e-10
1.87249e-10
7.90058e-11
3.30472e-11
1.36979e-11
5.61024e-12
2.24986e-12
8.60152e-13
2.87087e-13
5.02828e-14
0.999997
0.999987
0.999969
0.999941
0.999892
0.999813
0.999681
0.999468
0.999123
0.998577
0.997722
0.996406
0.994421
0.991491
0.987272
0.981364
0.973337
0.962776
0.949338
0.932795
0.913061
0.890199
0.864394
0.835931
0.805157
0.772456
0.73823
0.702879
0.666789
0.630324
0.59382
0.557578
0.521865
0.486908
0.452897
0.41999
0.388312
0.357959
0.328999
0.301474
0.275404
0.250791
0.22762
0.205865
0.18549
0.166449
0.148691
0.132162
0.116805
0.102558
0.0893633
0.0771651
0.0659073
0.0555374
0.0460065
0.0372701
0.0293983
0.0223777
0.0157917
0.00989215
0.0047453
0.00308118
0.00216565
0.00150353
0.00102953
0.000694204
0.000460235
0.000299628
0.000191553
0.000120692
7.597e-05
4.96063e-05
3.61507e-05
2.73854e-05
2.01132e-05
1.40988e-05
9.35913e-06
5.85368e-06
3.44701e-06
1.91888e-06
1.01706e-06
5.17173e-07
2.53889e-07
1.21716e-07
5.71748e-08
2.63713e-08
1.19638e-08
5.3462e-09
2.35629e-09
1.02558e-09
4.41356e-10
1.88005e-10
7.93455e-11
3.31962e-11
1.37621e-11
5.63725e-12
2.26092e-12
8.64451e-13
2.88538e-13
5.05381e-14
0.999997
0.999987
0.999969
0.999941
0.999892
0.999812
0.999681
0.999467
0.999122
0.998575
0.997719
0.996402
0.994414
0.991482
0.987259
0.981347
0.973314
0.962748
0.949304
0.932756
0.913019
0.890155
0.864351
0.835891
0.805122
0.772431
0.738216
0.702879
0.666804
0.630357
0.593871
0.557649
0.521956
0.487019
0.453029
0.42014
0.38848
0.358145
0.3292
0.301689
0.275631
0.251028
0.227865
0.206117
0.185746
0.166707
0.14895
0.132419
0.117058
0.102809
0.0896127
0.0774092
0.0661436
0.0557651
0.0462249
0.0374789
0.0295943
0.0225639
0.0159692
0.010062
0.00489832
0.00308881
0.0021646
0.00149826
0.00102273
0.000687395
0.000454177
0.000294619
0.000187615
0.000117699
7.37277e-05
4.7898e-05
3.4818e-05
2.644e-05
1.94903e-05
1.37171e-05
9.14445e-06
5.74411e-06
3.39657e-06
1.89798e-06
1.00933e-06
5.14711e-07
2.53311e-07
1.21675e-07
5.72511e-08
2.64435e-08
1.201e-08
5.37182e-09
2.36946e-09
1.032e-09
4.44358e-10
1.89366e-10
7.9947e-11
3.34559e-11
1.38719e-11
5.68283e-12
2.27937e-12
8.71557e-13
2.90922e-13
5.09568e-14
0.999997
0.999987
0.999969
0.99994
0.999892
0.999812
0.99968
0.999466
0.999121
0.998573
0.997715
0.996396
0.994406
0.991469
0.987242
0.981323
0.973283
0.962709
0.949257
0.932702
0.912959
0.890092
0.864288
0.835831
0.805069
0.772388
0.738187
0.702866
0.66681
0.630385
0.593923
0.557725
0.522058
0.487147
0.453182
0.420318
0.388682
0.358369
0.329445
0.301952
0.27591
0.251321
0.22817
0.206431
0.186066
0.167032
0.149277
0.132746
0.117383
0.103128
0.0899248
0.0777161
0.0664456
0.0560586
0.0465068
0.0377487
0.0298512
0.0228088
0.016205
0.0102921
0.00511345
0.00309904
0.00216597
0.00149514
0.00101775
0.000682063
0.000449281
0.000290494
0.000184328
0.000115168
7.17957e-05
4.63799e-05
3.35754e-05
2.55477e-05
1.89036e-05
1.33608e-05
8.94777e-06
5.64707e-06
3.35442e-06
1.8822e-06
1.00457e-06
5.13901e-07
2.53562e-07
1.22045e-07
5.75168e-08
2.66022e-08
1.20969e-08
5.41638e-09
2.39123e-09
1.04224e-09
4.49032e-10
1.91448e-10
8.08554e-11
3.38456e-11
1.40364e-11
5.75107e-12
2.30694e-12
8.82136e-13
2.94463e-13
5.15783e-14
0.999997
0.999987
0.999969
0.99994
0.999892
0.999812
0.99968
0.999465
0.999119
0.99857
0.997711
0.996389
0.994396
0.991454
0.98722
0.981293
0.973243
0.962658
0.949195
0.93263
0.912878
0.890005
0.864199
0.835744
0.804989
0.772318
0.738132
0.702831
0.666798
0.630397
0.593963
0.557796
0.52216
0.487281
0.453348
0.420515
0.388909
0.358623
0.329726
0.302257
0.276236
0.251665
0.22853
0.206804
0.186449
0.167422
0.149671
0.133142
0.117777
0.103519
0.090309
0.0780906
0.0668098
0.0564145
0.0468539
0.0380825
0.0301653
0.0231075
0.0164884
0.0105596
0.00535005
0.00311221
0.00217013
0.00149449
0.00101486
0.00067843
0.00044572
0.000287383
0.000181787
0.000113165
7.02197e-05
4.50825e-05
3.24486e-05
2.47297e-05
1.83706e-05
1.30432e-05
8.77845e-06
5.56873e-06
3.32443e-06
1.87391e-06
1.00415e-06
5.15272e-07
2.54901e-07
1.22939e-07
5.80402e-08
2.6885e-08
1.2241e-08
5.4867e-09
2.42439e-09
1.05744e-09
4.55839e-10
1.94436e-10
8.21451e-11
3.43941e-11
1.42665e-11
5.84615e-12
2.3453e-12
8.96853e-13
2.99385e-13
5.24416e-14
0.999997
0.999987
0.999969
0.99994
0.999892
0.999811
0.999679
0.999464
0.999117
0.998566
0.997705
0.99638
0.994382
0.991434
0.987192
0.981254
0.973192
0.962592
0.949115
0.932534
0.912771
0.889889
0.864078
0.835622
0.804872
0.772212
0.738042
0.702761
0.666753
0.630382
0.59398
0.557849
0.522249
0.487408
0.453513
0.420719
0.389149
0.358899
0.330034
0.302595
0.276602
0.252055
0.228941
0.207232
0.186891
0.167874
0.15013
0.133605
0.118241
0.103981
0.090766
0.0785399
0.0672476
0.0568384
0.047266
0.0384842
0.0305441
0.0234689
0.0168331
0.010888
0.00564398
0.00312862
0.00217739
0.00149661
0.00101434
0.000676729
0.000443673
0.000285419
0.000180083
0.000111751
6.90416e-05
4.40385e-05
3.14547e-05
2.39944e-05
1.7898e-05
1.27699e-05
8.64096e-06
5.51245e-06
3.30895e-06
1.87453e-06
1.00839e-06
5.19261e-07
2.57671e-07
1.24534e-07
5.88973e-08
2.73224e-08
1.24555e-08
5.58852e-09
2.47141e-09
1.07865e-09
4.65222e-10
1.98515e-10
8.38919e-11
3.51324e-11
1.45748e-11
5.97302e-12
2.39636e-12
9.16428e-13
3.05927e-13
5.35885e-14
0.999997
0.999987
0.999969
0.99994
0.999891
0.999811
0.999678
0.999462
0.999114
0.998562
0.997698
0.99637
0.994366
0.99141
0.987157
0.981206
0.973127
0.962509
0.949011
0.932411
0.91263
0.889734
0.863913
0.835454
0.804706
0.772054
0.7379
0.70264
0.666661
0.630322
0.593956
0.557864
0.522308
0.487512
0.453662
0.420913
0.389388
0.359181
0.330357
0.302956
0.276997
0.252481
0.229394
0.207708
0.187386
0.168385
0.150652
0.134134
0.118773
0.104513
0.0912946
0.079062
0.0677604
0.0573385
0.0477488
0.0389513
0.0309924
0.0238989
0.017242
0.0112759
0.00600339
0.00314856
0.00218817
0.00150196
0.00101658
0.00067732
0.000443441
0.000284826
0.000179371
0.000111021
6.83088e-05
4.32595e-05
3.05813e-05
2.33276e-05
1.74778e-05
1.25377e-05
8.53483e-06
5.47906e-06
3.30918e-06
1.88417e-06
1.0184e-06
5.26494e-07
2.62083e-07
1.26945e-07
6.01454e-08
2.79423e-08
1.27532e-08
5.7276e-09
2.53483e-09