/*--------------------------------*- C++ -*----------------------------------*\
  =========                 |
  \\      /  F ield         | OpenFOAM: The Open Source CFD Toolbox
   \\    /   O peration     | Website:  https://openfoam.org
    \\  /    A nd           | Version:  8
     \\/     M anipulation  |
\*---------------------------------------------------------------------------*/
FoamFile
{
    version     2.0;
    format      ascii;
    class       volScalarField;
    location    "580/fluid";
    object      CO2;
}
// * * * * * * * * * * * * * * * * * * * * * * * * * * * * * * * * * * * * * //

dimensions      [0 0 0 0 0 0 0];

internalField   nonuniform List<scalar> 
4000
(
4.66537e-07
2.03846e-06
4.68086e-06
9.10828e-06
1.64943e-05
2.87474e-05
4.89344e-05
8.19138e-05
0.000135252
0.00022049
0.000354807
0.000562997
0.000879518
0.00135003
0.00203157
0.00299003
0.00429472
0.0060098
0.00818491
0.0108477
0.0140006
0.0176223
0.0216724
0.0260976
0.0308368
0.0358261
0.0410019
0.0463031
0.0516725
0.0570579
0.062413
0.0676971
0.0728757
0.0779201
0.0828072
0.0875189
0.092041
0.0963636
0.10048
0.104388
0.108086
0.111577
0.114862
0.117947
0.120837
0.123538
0.126055
0.128394
0.130559
0.132554
0.134382
0.136042
0.137532
0.138846
0.139972
0.140892
0.141583
0.142002
0.142109
0.14184
0.141098
0.139759
0.13768
0.127137
0.116402
0.105662
0.0950603
0.0847084
0.0746954
0.0650937
0.0559639
0.0473594
0.0393301
0.031961
0.0252276
0.019234
0.0140446
0.00972313
0.00631713
0.0038225
0.00215017
0.00112994
0.000560005
0.00026609
0.000122818
5.54025e-05
2.45308e-05
1.06961e-05
4.6043e-06
1.9607e-06
8.2737e-07
3.46446e-07
1.44107e-07
5.95783e-08
2.44701e-08
9.95512e-09
3.9749e-09
1.51654e-09
5.06306e-10
8.87507e-11
4.68119e-07
2.04596e-06
4.70062e-06
9.15359e-06
1.65905e-05
2.8939e-05
4.92936e-05
8.25464e-05
0.00013629
0.000222052
0.000356891
0.000565295
0.000881102
0.00134897
0.00202451
0.00297198
0.00425909
0.00594913
0.00809206
0.0107172
0.0138296
0.017411
0.0214241
0.0258178
0.0305327
0.0355057
0.0406731
0.0459734
0.0513486
0.0567455
0.0621166
0.0674202
0.0726208
0.0776888
0.0826004
0.0873367
0.0918831
0.096229
0.100368
0.104297
0.108014
0.111523
0.114824
0.117924
0.120827
0.123538
0.126065
0.128412
0.130584
0.132585
0.134417
0.136081
0.137573
0.138889
0.140015
0.140936
0.141625
0.142041
0.142144
0.141866
0.141107
0.139735
0.136891
0.126232
0.115416
0.104616
0.0939697
0.0835839
0.0735464
0.063929
0.0547933
0.0461943
0.0381845
0.0308556
0.0241826
0.0182787
0.0132102
0.00903933
0.00580308
0.00347581
0.00194346
0.00102115
0.000508994
0.000243889
0.000113701
5.18229e-05
2.3172e-05
1.01916e-05
4.41895e-06
1.89251e-06
8.01976e-07
3.3679e-07
1.40343e-07
5.80762e-08
2.38604e-08
9.70631e-09
3.87458e-09
1.47786e-09
4.93287e-10
8.64842e-11
4.70789e-07
2.05797e-06
4.72965e-06
9.21325e-06
1.67033e-05
2.91394e-05
4.96293e-05
8.30751e-05
0.00013707
0.000223132
0.000358273
0.000566812
0.000882238
0.00134852
0.00202009
0.00295996
0.00423456
0.00590613
0.00802417
0.0106184
0.0136952
0.0172384
0.021213
0.0255704
0.0302534
0.0352004
0.0403488
0.0456374
0.0510083
0.0564079
0.0617879
0.0671058
0.0723252
0.0774154
0.0823517
0.0871145
0.0916881
0.0960616
0.100228
0.104183
0.107925
0.111457
0.11478
0.1179
0.120821
0.123549
0.126089
0.128448
0.13063
0.132639
0.134478
0.136147
0.137643
0.138961
0.140088
0.141009
0.141697
0.142111
0.14221
0.141927
0.141163
0.139789
0.135348
0.124627
0.113758
0.102917
0.0922432
0.0818455
0.0718125
0.0622177
0.0531244
0.0445897
0.0366686
0.0294437
0.0229165
0.0171868
0.0123159
0.0083552
0.00532306
0.00317121
0.00176929
0.000930621
0.000465566
0.000224074
0.000104987
4.81005e-05
2.1618e-05
9.55423e-06
4.16084e-06
1.78883e-06
7.60475e-07
3.20176e-07
1.33672e-07
5.53866e-08
2.27728e-08
9.26721e-09
3.6996e-09
1.41101e-09
4.70878e-10
8.25444e-11
4.71836e-07
2.06249e-06
4.73987e-06
9.23262e-06
1.67366e-05
2.91917e-05
4.97026e-05
8.31584e-05
0.000137114
0.000222988
0.000357595
0.000564954
0.000878096
0.0013404
0.00200569
0.00293613
0.0041974
0.00585126
0.00794722
0.0105155
0.0135638
0.0170771
0.021022
0.0253515
0.0300095
0.0349355
0.0400679
0.0453459
0.0507118
0.0561121
0.0614982
0.066827
0.0720616
0.0771706
0.0821286
0.086915
0.0915137
0.095913
0.100105
0.104085
0.107853
0.111408
0.114755
0.117894
0.120833
0.123577
0.126132
0.128503
0.130696
0.132713
0.134559
0.136232
0.137731
0.139049
0.140175
0.141092
0.141774
0.142178
0.142266
0.141966
0.141181
0.139776
0.133375
0.122639
0.111753
0.100902
0.0902295
0.07985
0.0698544
0.0603181
0.0513058
0.0428763
0.035086
0.0279872
0.0216381
0.0161033
0.011439
0.0076876
0.00485257
0.00286805
0.00159133
0.0008348
0.000417638
0.00020139
9.46361e-05
4.35103e-05
1.96292e-05
8.70907e-06
3.80743e-06
1.64294e-06
7.00855e-07
2.95988e-07
1.23908e-07
5.14591e-08
2.11981e-08
8.63946e-09
3.45299e-09
1.31801e-09
4.40022e-10
7.71514e-11
4.71729e-07
2.06197e-06
4.73844e-06
9.22894e-06
1.67272e-05
2.9168e-05
4.96443e-05
8.30215e-05
0.000136809
0.000222347
0.00035632
0.000562524
0.000873659
0.00133264
0.00199268
0.0029153
0.00416555
0.00580484
0.00788267
0.0104298
0.0134546
0.0169435
0.0208643
0.0251709
0.0298087
0.0347179
0.0398374
0.0451071
0.0504693
0.0558705
0.0612619
0.0666003
0.071848
0.0769733
0.08195
0.0867572
0.0913781
0.0958003
0.100016
0.104019
0.10781
0.111387
0.114752
0.11791
0.120866
0.123624
0.126192
0.128574
0.130776
0.1328
0.13465
0.136325
0.137823
0.139138
0.140258
0.141166
0.141835
0.142222
0.142289
0.141963
0.141142
0.139694
0.131277
0.120553
0.109669
0.0988233
0.0881693
0.077825
0.0678842
0.0584237
0.0495084
0.0411969
0.0335582
0.0266147
0.020443
0.0151009
0.0106381
0.00708706
0.00443625
0.002604
0.00143822
0.00075292
0.000376698
0.000181916
8.56696e-05
3.94854e-05
1.78589e-05
7.94336e-06
3.48078e-06
1.5052e-06
6.43328e-07
2.72151e-07
1.14095e-07
4.74416e-08
1.95628e-08
7.97938e-09
3.19107e-09
1.2185e-09
4.06842e-10
7.13351e-11
4.70456e-07
2.05629e-06
4.72482e-06
9.20085e-06
1.66725e-05
2.90645e-05
4.94516e-05
8.26671e-05
0.000136167
0.000221202
0.000354316
0.000559098
0.000867952
0.00132341
0.00197825
0.00289352
0.00413393
0.00576073
0.00782358
0.0103537
0.0133602
0.0168303
0.0207327
0.0250225
0.0296454
0.0345425
0.0396532
0.0449175
0.0502781
0.0556815
0.0610786
0.0664259
0.0716856
0.0768254
0.0818187
0.086644
0.0912842
0.0957265
0.0999626
0.103987
0.107796
0.11139
0.114773
0.117947
0.120917
0.123688
0.126266
0.128657
0.130864
0.132892
0.134743
0.136417
0.137911
0.139217
0.140325
0.141216
0.141864
0.142224
0.14226
0.141898
0.141037
0.139564
0.129352
0.11863
0.107727
0.0968704
0.0862254
0.0759135
0.0660288
0.0566465
0.0478302
0.0396367
0.0321477
0.0253555
0.0193534
0.0141937
0.00991909
0.00655177
0.00406697
0.00236991
0.0013018
0.000679164
0.00033924
0.000163829
7.72168e-05
3.56383e-05
1.61464e-05
7.19529e-06
3.15922e-06
1.36884e-06
5.86157e-07
2.48404e-07
1.04306e-07
4.34327e-08
1.79312e-08
7.32098e-09
2.9299e-09
1.11928e-09
3.73766e-10
6.55368e-11
4.68599e-07
2.04809e-06
4.7056e-06
9.16235e-06
1.66002e-05
2.89332e-05
4.92177e-05
8.22565e-05
0.000135455
0.000219985
0.000352269
0.000555718
0.00086249
0.00131481
0.00196508
0.00287403
0.00410609
0.00572245
0.00777295
0.0102893
0.0132811
0.0167365
0.0206249
0.024902
0.0295142
0.0344029
0.0395081
0.0447698
0.0501308
0.0555375
0.0609408
0.066297
0.0715679
0.0767208
0.0817289
0.0865703
0.0912277
0.0956879
0.099941
0.103981
0.107806
0.111416
0.114813
0.118
0.120982
0.123763
0.126349
0.128745
0.130956
0.132986
0.134835
0.136503
0.137988
0.139281
0.140369
0.141233
0.141845
0.142156
0.142134
0.141698
0.140753
0.139211
0.128317
0.11722
0.106115
0.0951601
0.0844828
0.0741843
0.0643465
0.0550372
0.0463142
0.0382297
0.0308658
0.0242088
0.0183672
0.013382
0.0092849
0.00608532
0.00374864
0.00216998
0.00118604
0.00061678
0.00030755
0.000148478
7.00031e-05
3.23319e-05
1.46624e-05
6.54123e-06
2.87545e-06
1.24741e-06
5.34801e-07
2.26903e-07
9.53806e-08
3.97549e-08
1.64267e-08
6.71134e-09
2.68724e-09
1.02686e-09
3.42903e-10
6.01214e-11
4.66489e-07
2.03881e-06
4.68399e-06
9.11947e-06
1.65206e-05
2.87904e-05
4.8967e-05
8.18231e-05
0.000134717
0.000218746
0.000350224
0.000552407
0.000857247
0.00130671
0.00195295
0.00285641
0.0040814
0.0056891
0.00772957
0.0102349
0.0132153
0.0166595
0.0205375
0.0248055
0.0294103
0.0342938
0.0393959
0.0446571
0.0500201
0.0554311
0.060841
0.0662059
0.0714873
0.0766522
0.0816737
0.0865296
0.0912019
0.0956761
0.0999432
0.103998
0.107836
0.111459
0.114868
0.118065
0.121055
0.123844
0.126436
0.128836
0.131048
0.133076
0.134922
0.136583
0.138056
0.139332
0.140396
0.141225
0.141784
0.142023
0.141892
0.141288
0.140079
0.138116
0.127013
0.115766
0.104568
0.0935699
0.0828889
0.0726192
0.0628371
0.0536058
0.0449798
0.0370079
0.0297668
0.0232583
0.0175504
0.012697
0.00874329
0.00568797
0.00347815
0.00200032
0.00108771
0.000563598
0.000280379
0.000135237
6.37429e-05
2.94456e-05
1.336e-05
5.96441e-06
2.62414e-06
1.13946e-06
4.89005e-07
2.07677e-07
8.73816e-08
3.64526e-08
1.50737e-08
6.16232e-09
2.46848e-09
9.43463e-10
3.15038e-10
5.52303e-11
4.6437e-07
2.02951e-06
4.66244e-06
9.07696e-06
1.64423e-05
2.86511e-05
4.87248e-05
8.14092e-05
0.00013402
0.000217591
0.000348341
0.000549397
0.000852541
0.00129954
0.00194232
0.00284117
0.00406027
0.00566087
0.00769326
0.0101899
0.0131615
0.0165972
0.0204676
0.0247291
0.0293291
0.0342097
0.0393108
0.0445729
0.0499389
0.0553549
0.0607716
0.0661449
0.0714359
0.076612
0.0816455
0.0865135
0.0911976
0.0956842
0.0999637
0.10403
0.10788
0.111513
0.114931
0.118136
0.121133
0.123927
0.126523
0.128924
0.131137
0.133163
0.135004
0.136659
0.138121
0.139383
0.140427
0.141231
0.141755
0.141951
0.141761
0.141076
0.139757
0.136878
0.125657
0.114336
0.1031
0.0920944
0.0814327
0.0712052
0.0614854
0.0523353
0.0438101
0.0359641
0.0288662
0.0224921
0.0169081
0.012156
0.00829983
0.0053531
0.00324989
0.00185723
0.00100486
0.000518782
0.000257454
0.00012404
5.84343e-05
2.699e-05
1.2248e-05
5.47009e-06
2.40796e-06
1.04628e-06
4.49333e-07
1.9097e-07
8.04102e-08
3.35673e-08
1.3889e-08
5.68075e-09
2.27631e-09
8.70128e-10
2.90523e-10
5.09228e-11
4.62369e-07
2.02074e-06
4.64218e-06
9.03713e-06
1.63692e-05
2.85218e-05
4.85012e-05
8.10292e-05
0.000133385
0.000216546
0.000346653
0.000546722
0.000848399
0.00129329
0.00193315
0.00282815
0.00404242
0.00563728
0.00766323
0.010153
0.0131179
0.0165473
0.0204123
0.0246696
0.0292667
0.034146
0.0392474
0.0445116
0.0498813
0.0553025
0.0607258
0.066107
0.0714073
0.0765932
0.0816366
0.0865147
0.0912095
0.0957068
0.0999966
0.104073
0.107932
0.111573
0.114998
0.118209
0.121211
0.124009
0.126606
0.129009
0.131221
0.133245
0.135081
0.13673
0.138184
0.139435
0.140468
0.141257
0.141766
0.141949
0.141749
0.141068
0.139782
0.135527
0.124289
0.112962
0.101734
0.0907494
0.0801236
0.069946
0.0602891
0.0512137
0.0427748
0.03502
0.027978
0.0217024
0.0162465
0.0116556
0.00792981
0.00507156
0.00305481
0.0017352
0.00093439
0.000480742
0.000238009
0.000114545
5.39288e-05
2.49033e-05
1.13015e-05
5.0486e-06
2.22329e-06
9.66516e-07
4.15316e-07
1.76619e-07
7.44134e-08
3.10819e-08
1.28672e-08
5.26497e-09
2.11026e-09
8.06721e-10
2.69326e-10
4.71944e-11
4.60561e-07
2.01283e-06
4.62392e-06
9.00131e-06
1.63037e-05
2.84063e-05
4.83024e-05
8.06932e-05
0.000132826
0.000215632
0.000345186
0.000544415
0.000844852
0.00128797
0.00192542
0.00281726
0.00402762
0.00561789
0.00763877
0.0101233
0.0130831
0.016508
0.0203692
0.0246238
0.0292195
0.0340986
0.0392014
0.0444683
0.0498419
0.0552683
0.0606981
0.0660867
0.0713949
0.076589
0.0816411
0.0865284
0.0912323
0.0957384
0.100037
0.104121
0.107987
0.111634
0.115065
0.11828
0.121286
0.124085
0.126684
0.129086
0.131297
0.133318
0.13515
0.136793
0.13824
0.139483
0.140506
0.141286
0.141784
0.141957
0.141751
0.141067
0.139783
0.134248
0.123012
0.111699
0.100494
0.089546
0.0789676
0.0688489
0.0592601
0.0502604
0.0419003
0.0342087
0.0272283
0.0210311
0.015663
0.0111618
0.0075516
0.00482248
0.00288376
0.00162962
0.000874169
0.000448507
0.000221621
0.00010656
5.01439e-05
2.31503e-05
1.05059e-05
4.69388e-06
2.06766e-06
8.99194e-07
3.86556e-07
1.64467e-07
6.93269e-08
2.89709e-08
1.19983e-08
4.91107e-09
1.96883e-09
7.52699e-10
2.51274e-10
4.40214e-11
4.58976e-07
2.00589e-06
4.60794e-06
8.97003e-06
1.62466e-05
2.83059e-05
4.81302e-05
8.04033e-05
0.000132346
0.000214851
0.000343939
0.000542463
0.00084187
0.00128354
0.00191901
0.00280829
0.00401552
0.00560216
0.00761912
0.0100997
0.0130557
0.0164774
0.0203361
0.0245892
0.0291844
0.0340642
0.0391688
0.0444387
0.0498164
0.0552478
0.0606835
0.0660786
0.0713935
0.076595
0.0816548
0.0865498
0.0912613
0.0957746
0.10008
0.10417
0.108042
0.111694
0.115128
0.118347
0.121354
0.124155
0.126753
0.129155
0.131363
0.13338
0.135208
0.136845
0.138286
0.139521
0.140535
0.141305
0.141793
0.141957
0.141743
0.141054
0.139768
0.133116
0.121883
0.110586
0.0994107
0.0885067
0.0779819
0.0679121
0.0583695
0.0494121
0.0410878
0.0334573
0.0265611
0.0204498
0.0151701
0.0107594
0.00723939
0.00459313
0.0027417
0.00154076
0.000823771
0.000421717
0.000208043
9.99513e-05
4.70103e-05
2.16974e-05
9.84546e-06
4.39896e-06
1.93802e-06
8.43012e-07
3.62512e-07
1.5429e-07
6.50605e-08
2.71977e-08
1.12676e-08
4.61322e-09
1.84977e-09
7.07252e-10
2.36106e-10
4.13633e-11
4.57621e-07
1.99997e-06
4.5943e-06
8.94337e-06
1.6198e-05
2.82208e-05
4.79845e-05
8.01587e-05
0.000131942
0.000214197
0.000342898
0.000540844
0.000839407
0.00127989
0.00191378
0.00280102
0.00400577
0.0055896
0.00760355
0.0100812
0.0130345
0.0164539
0.0203111
0.0245635
0.0291589
0.0340399
0.0391465
0.0444194
0.049801
0.0552371
0.0606779
0.0660785
0.0713996
0.0766074
0.0816737
0.0865751
0.0912927
0.0958119
0.100122
0.104217
0.108093
0.111749
0.115186
0.118406
0.121415
0.124215
0.126813
0.129213
0.131418
0.133431
0.135254
0.136885
0.138318
0.139545
0.140551
0.141311
0.141789
0.141945
0.141722
0.141026
0.13974
0.132146
0.120909
0.109622
0.0984738
0.0875911
0.0770829
0.0670446
0.0575446
0.0486406
0.0403834
0.0328207
0.0259954
0.0199588
0.0147568
0.0104261
0.00698572
0.00441445
0.00262823
0.00147327
0.00078405
0.000400152
0.000197035
9.45679e-05
4.44478e-05
2.05055e-05
9.30216e-06
4.15575e-06
1.83089e-06
7.96496e-07
3.42572e-07
1.45837e-07
6.15123e-08
2.57213e-08
1.06585e-08
4.36476e-09
1.7504e-09
6.69309e-10
2.23445e-10
3.9145e-11
4.56489e-07
1.99502e-06
4.58291e-06
8.92113e-06
1.61576e-05
2.815e-05
4.78637e-05
7.99563e-05
0.00013161
0.00021366
0.000342047
0.000539523
0.000837409
0.00127695
0.00190957
0.00279521
0.00399804
0.0055797
0.00759139
0.0100668
0.0130182
0.0164362
0.0202925
0.0245447
0.0291407
0.034023
0.0391319
0.0444076
0.0497927
0.0552328
0.0606781
0.0660836
0.0714099
0.076623
0.0816946
0.0866011
0.0913237
0.0958474
0.100162
0.10426
0.108139
0.111797
0.115236
0.118457
0.121466
0.124266
0.126862
0.129259
0.131461
0.13347
0.135287
0.136912
0.138338
0.139557
0.140554
0.141306
0.141774
0.14192
0.141689
0.140986
0.139702
0.131325
0.120078
0.108797
0.0976535
0.0867908
0.0763161
0.0663153
0.0568576
0.0480008
0.0397956
0.0322886
0.0255221
0.0195478
0.0144108
0.0101465
0.00677164
0.0042606
0.00252454
0.00141472
0.000752892
0.000382949
0.000188035
9.01481e-05
4.23435e-05
1.95263e-05
8.85561e-06
3.95573e-06
1.74272e-06
7.58188e-07
3.26137e-07
1.38865e-07
5.85832e-08
2.45017e-08
1.01552e-08
4.15931e-09
1.66821e-09
6.37918e-10
2.12972e-10
3.73098e-11
4.55563e-07
1.99097e-06
4.57361e-06
8.903e-06
1.61246e-05
2.80924e-05
4.77656e-05
7.97925e-05
0.000131341
0.000213227
0.000341363
0.000538467
0.000835816
0.00127461
0.00190625
0.00279065
0.00399201
0.00557203
0.00758203
0.0100559
0.0130059
0.0164229
0.0202788
0.0245312
0.029128
0.0340117
0.0391226
0.0444009
0.0497891
0.0552326
0.0606817
0.0660913
0.0714219
0.0766393
0.081715
0.0866256
0.0913519
0.0958791
0.100197
0.104298
0.108179
0.111838
0.115277
0.118499
0.121507
0.124305
0.126899
0.129293
0.131491
0.133496
0.135308
0.136926
0.138346
0.139558
0.140546
0.14129
0.14175
0.141889
0.141651
0.140944
0.13966
0.130641
0.119379
0.108098
0.0969683
0.086127
0.0756799
0.0657114
0.0562899
0.0474729
0.0393108
0.0318497
0.0251317
0.0192089
0.0141258
0.00991657
0.00659596
0.00413483
0.00244035
0.00136124
0.000722772
0.000368286
0.000180726
8.6545e-05
4.06215e-05
1.87261e-05
8.49128e-06
3.79264e-06
1.67085e-06
7.26957e-07
3.12735e-07
1.33178e-07
5.61934e-08
2.35063e-08
9.74423e-09
3.99157e-09
1.6011e-09
6.12301e-10
2.04427e-10
3.58126e-11
4.54827e-07
1.98776e-06
4.56622e-06
8.88858e-06
1.60985e-05
2.80468e-05
4.7688e-05
7.96631e-05
0.000131129
0.000212886
0.000340827
0.000537641
0.000834575
0.0012728
0.00190368
0.00278714
0.00398739
0.0055662
0.00757497
0.0100477
0.0129968
0.0164133
0.020269
0.0245217
0.0291194
0.0340044
0.039117
0.0443976
0.0497882
0.0552347
0.0606869
0.0660998
0.0714336
0.0766543
0.0817332
0.0866468
0.0913758
0.0959054
0.100225
0.104328
0.10821
0.11187
0.115309
0.11853
0.121537
0.124334
0.126925
0.129316
0.13151
0.13351
0.135317
0.136929
0.138342
0.139547
0.140529
0.141266
0.141721
0.141859
0.141625
0.140933
0.139688
0.130086
0.118813
0.107531
0.096411
0.085587
0.0751627
0.065221
0.0558296
0.0470454
0.0389186
0.031495
0.0248165
0.0189355
0.0138962
0.00973194
0.00645564
0.00403533
0.00237499
0.00132141
0.000700055
0.000355911
0.000174823
8.37751e-05
3.92905e-05
1.80977e-05
8.20251e-06
3.66288e-06
1.61357e-06
7.02037e-07
3.02034e-07
1.28634e-07
5.42834e-08
2.27107e-08
9.41579e-09
3.85753e-09
1.54753e-09
5.91869e-10
1.97613e-10
3.46188e-11
4.54261e-07
1.98529e-06
4.56054e-06
8.87753e-06
1.60784e-05
2.80119e-05
4.76286e-05
7.95643e-05
0.000130968
0.000212627
0.00034042
0.000537016
0.000833639
0.00127144
0.00190176
0.00278453
0.00398396
0.0055619
0.0075698
0.0100417
0.0129903
0.0164064
0.0202622
0.0245152
0.0291136
0.0339998
0.0391138
0.0443961
0.0497888
0.0552375
0.0606921
0.0661074
0.0714437
0.0766668
0.0817479
0.0866635
0.0913943
0.0959254
0.100246
0.10435
0.108232
0.111893
0.115332
0.118552
0.121557
0.124352
0.12694
0.129328
0.131518
0.133513
0.135315
0.136921
0.138327
0.139525
0.1405
0.14123
0.141679
0.141813
0.141577
0.140886
0.139647
0.129657
0.118366
0.107081
0.0959692
0.0851594
0.0747538
0.0648341
0.0554672
0.0467096
0.0386111
0.0312172
0.02457
0.0187221
0.0137174
0.00958852
0.006347
0.00395859
0.00232481
0.001291
0.000682794
0.000346573
0.000169899
8.13673e-05
3.82032e-05
1.76029e-05
7.97748e-06
3.56187e-06
1.56897e-06
6.82652e-07
2.93723e-07
1.25112e-07
5.28057e-08
2.20965e-08
9.16289e-09
3.75459e-09
1.50643e-09
5.76196e-10
1.92386e-10
3.37031e-11
4.53851e-07
1.9835e-06
4.55643e-06
8.86952e-06
1.60639e-05
2.79866e-05
4.75857e-05
7.9493e-05
0.000130851
0.000212441
0.000340128
0.000536568
0.000832969
0.00127046
0.00190039
0.00278267
0.00398154
0.00555887
0.00756617
0.0100376
0.0129858
0.0164017
0.0202576
0.0245109
0.0291099
0.033997
0.0391121
0.0443957
0.0497899
0.0552402
0.0606965
0.0661135
0.0714514
0.076676
0.0817584
0.0866752
0.0914071
0.095939
0.10026
0.104364
0.108247
0.111907
0.115345
0.118564
0.121567
0.12436
0.126946
0.12933
0.131516
0.133507
0.135303
0.136904
0.138304
0.139495
0.140463
0.141187
0.14163
0.14176
0.141523
0.140836
0.139611
0.129341
0.118031
0.106743
0.0956358
0.0848369
0.0744462
0.0645439
0.0551963
0.0464593
0.0383824
0.0310113
0.0243876
0.0185646
0.0135857
0.00948324
0.00626753
0.00390266
0.00228836
0.00126894
0.000670312
0.00033989
0.000166477
7.96795e-05
3.73842e-05
1.72326e-05
7.81334e-06
3.48933e-06
1.53716e-06
6.68874e-07
2.87821e-07
1.2261e-07
5.17553e-08
2.16592e-08
8.98239e-09
3.68094e-09
1.47696e-09
5.64947e-10
1.88632e-10
3.30453e-11
4.53586e-07
1.98234e-06
4.55377e-06
8.86433e-06
1.60545e-05
2.79702e-05
4.7558e-05
7.94468e-05
0.000130776
0.000212321
0.000339939
0.000536279
0.000832538
0.00126984
0.00189951
0.00278148
0.00398
0.00555694
0.00756388
0.010035
0.012983
0.0163988
0.0202547
0.0245084
0.0291078
0.0339954
0.0391113
0.0443957
0.0497909
0.0552422
0.0606995
0.0661176
0.0714564
0.0766818
0.0817649
0.0866821
0.0914143
0.0959464
0.100268
0.104372
0.108254
0.111913
0.11535
0.118568
0.12157
0.12436
0.126944
0.129325
0.131508
0.133494
0.135286
0.136882
0.138277
0.139462
0.140424
0.141142
0.141581
0.141708
0.141472
0.140792
0.139584
0.129132
0.117804
0.10651
0.0954065
0.0846157
0.0742361
0.0643469
0.0550133
0.0462911
0.0382295
0.0308741
0.0242667
0.0184605
0.0134991
0.00941421
0.00621568
0.00386637
0.00226482
0.00125473
0.000662259
0.000335577
0.000164298
7.86194e-05
3.68771e-05
1.69914e-05
7.70297e-06
3.44094e-06
1.51626e-06
6.59893e-07
2.83997e-07
1.20996e-07
5.10803e-08
2.13789e-08
8.86689e-09
3.63383e-09
1.45812e-09
5.57747e-10
1.86228e-10
3.2624e-11
4.53458e-07
1.98178e-06
4.55248e-06
8.86184e-06
1.605e-05
2.79624e-05
4.75447e-05
7.94249e-05
0.00013074
0.000212264
0.00033985
0.000536143
0.000832335
0.00126954
0.0018991
0.00278092
0.00397927
0.00555604
0.00756281
0.0100338
0.0129817
0.0163975
0.0202534
0.0245072
0.0291068
0.0339947
0.0391109
0.0443958
0.0497914
0.0552433
0.0607011
0.0661196
0.0714588
0.0766845
0.0817679
0.0866852
0.0914171
0.0959491
0.10027
0.104374
0.108256
0.111915
0.115351
0.118568
0.121569
0.124358
0.12694
0.129319
0.131499
0.133483
0.135272
0.136864
0.138255
0.139436
0.140394
0.141108
0.141543
0.141669
0.141434
0.140761
0.13957
0.129029
0.117685
0.106387
0.0952845
0.084499
0.0741265
0.0642451
0.0549198
0.046206
0.0381529
0.030806
0.0242073
0.0184099
0.0134572
0.00938113
0.00619103
0.00384927
0.00225382
0.00124814
0.000658534
0.000333578
0.000163305
7.81377e-05
3.66479e-05
1.6884e-05
7.65344e-06
3.41826e-06
1.50617e-06
6.55526e-07
2.82134e-07
1.20211e-07
5.07522e-08
2.12428e-08
8.81088e-09
3.611e-09
1.44899e-09
5.54258e-10
1.85063e-10
3.24197e-11
4.5346e-07
1.98179e-06
4.55251e-06
8.86189e-06
1.60501e-05
2.79626e-05
4.7545e-05
7.94253e-05
0.000130741
0.000212265
0.000339852
0.000536146
0.000832339
0.00126955
0.00189911
0.00278094
0.00397929
0.00555607
0.00756284
0.0100338
0.0129817
0.0163975
0.0202535
0.0245072
0.0291068
0.0339947
0.039111
0.0443959
0.0497915
0.0552433
0.0607011
0.0661196
0.0714589
0.0766846
0.081768
0.0866852
0.0914172
0.0959492
0.100271
0.104374
0.108256
0.111915
0.115351
0.118568
0.121569
0.124358
0.12694
0.129319
0.131499
0.133483
0.135272
0.136864
0.138255
0.139436
0.140394
0.141108
0.141543
0.141669
0.141434
0.140761
0.13957
0.129029
0.117685
0.106386
0.0952844
0.0844989
0.0741264
0.064245
0.0549197
0.0462059
0.0381528
0.030806
0.0242072
0.0184098
0.0134572
0.00938111
0.00619102
0.00384926
0.00225382
0.00124814
0.000658533
0.000333578
0.000163304
7.81375e-05
3.66478e-05
1.6884e-05
7.65343e-06
3.41826e-06
1.50617e-06
6.55525e-07
2.82134e-07
1.20211e-07
5.07521e-08
2.12428e-08
8.81086e-09
3.61099e-09
1.44898e-09
5.54256e-10
1.85062e-10
3.24196e-11
4.53594e-07
1.98237e-06
4.55385e-06
8.86448e-06
1.60548e-05
2.79707e-05
4.75588e-05
7.94482e-05
0.000130778
0.000212324
0.000339944
0.000536287
0.000832551
0.00126986
0.00189954
0.00278152
0.00398005
0.00555701
0.00756397
0.0100351
0.0129831
0.016399
0.0202549
0.0245085
0.0291079
0.0339956
0.0391115
0.044396
0.0497911
0.0552425
0.0606998
0.0661178
0.0714567
0.076682
0.0817651
0.0866823
0.0914145
0.0959466
0.100268
0.104372
0.108254
0.111913
0.115351
0.118568
0.12157
0.124361
0.126944
0.129325
0.131508
0.133495
0.135286
0.136882
0.138277
0.139462
0.140424
0.141142
0.141581
0.141708
0.141472
0.140792
0.139584
0.129132
0.117804
0.10651
0.0954061
0.0846154
0.0742359
0.0643466
0.0550131
0.0462909
0.0382293
0.030874
0.0242666
0.0184604
0.013499
0.00941415
0.00621564
0.00386635
0.0022648
0.00125472
0.000662254
0.000335574
0.000164296
7.86187e-05
3.68768e-05
1.69913e-05
7.70291e-06
3.44091e-06
1.51624e-06
6.59889e-07
2.83995e-07
1.20995e-07
5.10799e-08
2.13787e-08
8.86682e-09
3.6338e-09
1.4581e-09
5.57742e-10
1.86227e-10
3.26237e-11
4.53865e-07
1.98355e-06
4.55656e-06
8.86978e-06
1.60644e-05
2.79874e-05
4.75871e-05
7.94952e-05
0.000130855
0.000212447
0.000340137
0.000536582
0.000832991
0.00127049
0.00190044
0.00278273
0.00398163
0.00555899
0.00756632
0.0100378
0.012986
0.016402
0.0202578
0.0245113
0.0291103
0.0339973
0.0391125
0.0443961
0.0497903
0.0552406
0.0606969
0.0661139
0.0714518
0.0766764
0.0817588
0.0866756
0.0914074
0.0959393
0.100261
0.104365
0.108247
0.111907
0.115345
0.118564
0.121567
0.12436
0.126946
0.12933
0.131516
0.133507
0.135303
0.136904
0.138304
0.139495
0.140463
0.141187
0.14163
0.14176
0.141523
0.140836
0.139611
0.129341
0.118031
0.106742
0.0956352
0.0848364
0.0744457
0.0645435
0.0551959
0.0464589
0.0383821
0.031011
0.0243874
0.0185645
0.0135856
0.00948314
0.00626746
0.00390262
0.00228833
0.00126893
0.000670302
0.000339885
0.000166474
7.96782e-05
3.73836e-05
1.72323e-05
7.81322e-06
3.48929e-06
1.53714e-06
6.68864e-07
2.87816e-07
1.22607e-07
5.17543e-08
2.16587e-08
8.98221e-09
3.68086e-09
1.47693e-09
5.64935e-10
1.88628e-10
3.30446e-11
4.54279e-07
1.98537e-06
4.56072e-06
8.87788e-06
1.60791e-05
2.8013e-05
4.76305e-05
7.95674e-05
0.000130973
0.000212636
0.000340433
0.000537036
0.000833669
0.00127148
0.00190183
0.00278462
0.00398409
0.00556206
0.00757
0.010042
0.0129906
0.0164068
0.0202626
0.0245157
0.0291141
0.0340003
0.0391144
0.0443967
0.0497894
0.0552381
0.0606927
0.066108
0.0714443
0.0766673
0.0817484
0.086664
0.0913948
0.0959259
0.100247
0.10435
0.108233
0.111893
0.115332
0.118552
0.121557
0.124352
0.126941
0.129328
0.131518
0.133513
0.135315
0.136921
0.138328
0.139525
0.1405
0.141231
0.141679
0.141813
0.141577
0.140886
0.139647
0.129656
0.118365
0.10708
0.0959684
0.0851586
0.0747531
0.0648335
0.0554667
0.0467091
0.0386106
0.0312169
0.0245697
0.0187219
0.0137172
0.00958837
0.0063469
0.00395852
0.00232477
0.00129097
0.000682779
0.000346566
0.000169895
8.13653e-05
3.82023e-05
1.76025e-05
7.97731e-06
3.56178e-06
1.56892e-06
6.82634e-07
2.93715e-07
1.25108e-07
5.2804e-08
2.20958e-08
9.1626e-09
3.75447e-09
1.50638e-09
5.76177e-10
1.9238e-10
3.3702e-11
4.5485e-07
1.98786e-06
4.56645e-06
8.88903e-06
1.60993e-05
2.80482e-05
4.76903e-05
7.9667e-05
0.000131135
0.000212897
0.000340843
0.000537666
0.000834614
0.00127286
0.00190377
0.00278726
0.00398755
0.00556641
0.00757524
0.010048
0.0129972
0.0164138
0.0202695
0.0245223
0.02912
0.034005
0.0391177
0.0443983
0.0497889
0.0552354
0.0606876
0.0661005
0.0714343
0.076655
0.0817338
0.0866474
0.0913764
0.0959059
0.100225
0.104328
0.10821
0.11187
0.11531
0.118531
0.121537
0.124334
0.126926
0.129316
0.13151
0.13351
0.135317
0.136929
0.138342
0.139547
0.140529
0.141266
0.141721
0.141859
0.141625
0.140933
0.139687
0.130085
0.118812
0.107529
0.0964099
0.085586
0.0751617
0.0652201
0.0558288
0.0470448
0.038918
0.0314945
0.024816
0.0189352
0.0138959
0.00973174
0.0064555
0.00403523
0.00237493
0.00132137
0.000700035
0.0003559
0.000174817
8.37724e-05
3.92892e-05
1.80971e-05
8.2022e-06
3.66274e-06
1.6135e-06
7.02009e-07
3.02021e-07
1.28628e-07
5.42812e-08
2.27097e-08
9.41539e-09
3.85737e-09
1.54746e-09
5.91845e-10
1.97605e-10
3.46173e-11
4.55591e-07
1.9911e-06
4.57389e-06
8.90354e-06
1.61256e-05
2.80941e-05
4.77685e-05
7.97973e-05
0.000131349
0.000213239
0.000341383
0.000538498
0.000835863
0.00127468
0.00190635
0.00279079
0.0039922
0.00557229
0.00758235
0.0100563
0.0130064
0.0164235
0.0202795
0.0245319
0.0291287
0.0340125
0.0391234
0.0444017
0.0497899
0.0552335
0.0606826
0.0660922
0.0714227
0.0766401
0.0817158
0.0866264
0.0913526
0.0958798
0.100197
0.104298
0.108179
0.111839
0.115278
0.118499
0.121507
0.124306
0.1269
0.129294
0.131492
0.133496
0.135308
0.136927
0.138346
0.139558
0.140546
0.14129
0.14175
0.141889
0.141651
0.140944
0.13966
0.130639
0.119377
0.108096
0.0969668
0.0861257
0.0756787
0.0657103
0.0562889
0.0474721
0.0393101
0.0318491
0.0251312
0.0192085
0.0141254
0.00991631
0.00659577
0.00413471
0.00244027
0.0013612
0.000722744
0.000368271
0.000180719
8.65416e-05
4.06197e-05
1.87253e-05
8.49089e-06
3.79246e-06
1.67077e-06
7.26921e-07
3.1272e-07
1.33171e-07
5.61906e-08
2.35051e-08
9.74373e-09
3.99136e-09
1.60101e-09
6.1227e-10
2.04417e-10
3.58107e-11
4.56521e-07
1.99516e-06
4.58324e-06
8.92177e-06
1.61587e-05
2.8152e-05
4.7867e-05
7.99619e-05
0.000131619
0.000213674
0.00034207
0.000539559
0.000837464
0.00127703
0.00190969
0.00279538
0.00399827
0.00558
0.00759177
0.0100673
0.0130188
0.0164368
0.0202932
0.0245455
0.0291416
0.0340239
0.0391328
0.0444086
0.0497937
0.0552339
0.0606791
0.0660846
0.0714109
0.076624
0.0816955
0.0866021
0.0913246
0.0958482
0.100163
0.104261
0.10814
0.111798
0.115237
0.118458
0.121466
0.124266
0.126862
0.129259
0.131461
0.13347
0.135288
0.136912
0.138339
0.139558
0.140554
0.141306
0.141774
0.14192
0.141689
0.140986
0.139702
0.131323
0.120076
0.108795
0.0976517
0.0867891
0.0763147
0.066314
0.0568564
0.0479997
0.0397947
0.0322878
0.0255215
0.0195472
0.0144104
0.0101462
0.0067714
0.00426043
0.00252443
0.00141465
0.000752856
0.000382931
0.000188025
9.01432e-05
4.23411e-05
1.95252e-05
8.85511e-06
3.9555e-06
1.74262e-06
7.58143e-07
3.26117e-07
1.38856e-07
5.85797e-08
2.45002e-08
1.01545e-08
4.15906e-09
1.6681e-09
6.37878e-10
2.12959e-10
3.73075e-11
4.57659e-07
2.00013e-06
4.59468e-06
8.9441e-06
1.61993e-05
2.82231e-05
4.79884e-05
8.01651e-05
0.000131953
0.000214214
0.000342925
0.000540885
0.000839471
0.00127999
0.00191391
0.00280121
0.00400603
0.00558995
0.00760399
0.0100817
0.0130351
0.0164546
0.0203119
0.0245644
0.0291599
0.0340409
0.0391477
0.0444206
0.0498021
0.0552383
0.0606791
0.0660797
0.0714007
0.0766085
0.0816748
0.0865762
0.0912937
0.0958129
0.100123
0.104218
0.108094
0.11175
0.115187
0.118407
0.121415
0.124216
0.126814
0.129213
0.131418
0.133432
0.135255
0.136885
0.138319
0.139546
0.140551
0.141312
0.141789
0.141945
0.141722
0.141026
0.13974
0.132144
0.120907
0.10962
0.0984717
0.0875891
0.0770811
0.067043
0.0575432
0.0486393
0.0403823
0.0328197
0.0259946
0.0199581
0.0147563
0.0104257
0.00698542
0.00441424
0.0026281
0.0014732
0.000784007
0.000400128
0.000197022
9.45618e-05
4.44449e-05
2.05041e-05
9.30153e-06
4.15546e-06
1.83076e-06
7.9644e-07
3.42547e-07
1.45826e-07
6.15078e-08
2.57194e-08
1.06578e-08
4.36444e-09
1.75027e-09
6.69258e-10
2.23429e-10
3.9142e-11
4.59018e-07
2.00608e-06
4.60836e-06
8.97085e-06
1.62481e-05
2.83085e-05
4.81346e-05
8.04105e-05
0.000132358
0.00021487
0.000343969
0.000542511
0.000841942
0.00128364
0.00191917
0.00280851
0.00401581
0.00560256
0.00761962
0.0101003
0.0130565