/*--------------------------------*- C++ -*----------------------------------*\
  =========                 |
  \\      /  F ield         | OpenFOAM: The Open Source CFD Toolbox
   \\    /   O peration     | Website:  https://openfoam.org
    \\  /    A nd           | Version:  8
     \\/     M anipulation  |
\*---------------------------------------------------------------------------*/
FoamFile
{
    version     2.0;
    format      ascii;
    class       volScalarField;
    location    "580/fluid";
    object      H2O;
}
// * * * * * * * * * * * * * * * * * * * * * * * * * * * * * * * * * * * * * //

dimensions      [0 0 0 0 0 0 0];

internalField   nonuniform List<scalar> 
4000
(
3.8195e-07
1.66887e-06
3.83218e-06
7.45687e-06
1.35037e-05
2.35352e-05
4.00622e-05
6.70621e-05
0.000110729
0.000180514
0.000290477
0.00046092
0.000720054
0.00110526
0.00166323
0.00244791
0.00351605
0.00492017
0.00670091
0.00888091
0.0114622
0.0144272
0.017743
0.0213658
0.0252458
0.0293305
0.0335679
0.0379079
0.0423038
0.0467128
0.051097
0.055423
0.0596627
0.0637925
0.0677936
0.071651
0.0753532
0.078892
0.0822623
0.0854616
0.0884894
0.0913469
0.0940367
0.0965625
0.0989286
0.10114
0.1032
0.105115
0.106887
0.108521
0.110017
0.111377
0.112597
0.113672
0.114594
0.115347
0.115913
0.116256
0.116344
0.116123
0.115516
0.11442
0.112718
0.104086
0.0952977
0.0865048
0.077825
0.06935
0.0611525
0.0532916
0.0458172
0.0387727
0.0321992
0.0261662
0.0206536
0.0157467
0.0114982
0.00796024
0.00517178
0.00312944
0.00176032
0.000925072
0.000458471
0.000217845
0.00010055
4.53575e-05
2.00831e-05
8.75678e-06
3.7695e-06
1.60521e-06
6.77361e-07
2.83632e-07
1.17979e-07
4.87762e-08
2.00334e-08
8.15017e-09
3.25422e-09
1.24157e-09
4.14508e-10
7.26594e-11
3.83245e-07
1.67501e-06
3.84836e-06
7.49396e-06
1.35825e-05
2.36921e-05
4.03562e-05
6.758e-05
0.00011158
0.000181792
0.000292184
0.000462802
0.000721351
0.00110439
0.00165745
0.00243313
0.00348688
0.0048705
0.0066249
0.00877406
0.0113221
0.0142542
0.0175397
0.0211368
0.0249969
0.0290682
0.0332987
0.037638
0.0420386
0.046457
0.0508543
0.0551963
0.059454
0.0636031
0.0676242
0.0715018
0.0752239
0.0787819
0.0821705
0.0853869
0.0884305
0.0913025
0.0940055
0.096543
0.0989197
0.10114
0.103208
0.10513
0.106908
0.108546
0.110046
0.111408
0.11263
0.113707
0.114629
0.115383
0.115947
0.116288
0.116372
0.116144
0.115523
0.1144
0.112071
0.103345
0.0944898
0.0856485
0.0769321
0.0684294
0.0602118
0.0523381
0.0448588
0.0378188
0.0312613
0.0252612
0.0197981
0.0149646
0.0108151
0.00740042
0.00475093
0.00284561
0.00159109
0.000836003
0.000416709
0.00019967
9.30856e-05
4.2427e-05
1.89707e-05
8.34378e-06
3.61776e-06
1.54938e-06
6.56571e-07
2.75727e-07
1.14897e-07
4.75465e-08
1.95343e-08
7.94647e-09
3.17208e-09
1.20991e-09
4.0385e-10
7.08039e-11
3.85431e-07
1.68484e-06
3.87212e-06
7.54281e-06
1.36748e-05
2.38562e-05
4.06311e-05
6.80128e-05
0.000112218
0.000182676
0.000293315
0.000464044
0.000722281
0.00110402
0.00165383
0.00242329
0.0034668
0.0048353
0.00656932
0.00869316
0.0112121
0.0141129
0.0173669
0.0209343
0.0247682
0.0288182
0.0330332
0.0373629
0.04176
0.0461806
0.0505852
0.0549389
0.059212
0.0633793
0.0674206
0.0713198
0.0750643
0.0786448
0.0820556
0.0852935
0.0883576
0.0912487
0.0939696
0.096524
0.0989152
0.101148
0.103228
0.105159
0.106946
0.108591
0.110096
0.111463
0.112688
0.113766
0.114689
0.115443
0.116006
0.116345
0.116426
0.116194
0.115569
0.114444
0.110808
0.102031
0.0931327
0.0842574
0.0755187
0.0670062
0.0587923
0.0509371
0.0434925
0.0365052
0.0300203
0.0241053
0.0187615
0.0140707
0.0100829
0.00684033
0.00435794
0.00259624
0.0014485
0.000761891
0.000381155
0.000183448
8.59522e-05
3.93795e-05
1.76985e-05
7.82196e-06
3.40645e-06
1.4645e-06
6.22594e-07
2.62125e-07
1.09436e-07
4.53445e-08
1.86439e-08
7.58698e-09
3.02883e-09
1.15518e-09
3.85504e-10
6.75784e-11
3.86288e-07
1.68854e-06
3.88049e-06
7.55866e-06
1.37021e-05
2.3899e-05
4.06911e-05
6.8081e-05
0.000112254
0.000182558
0.00029276
0.000462523
0.000718889
0.00109738
0.00164204
0.00240379
0.00343637
0.00479037
0.00650632
0.00860899
0.0111045
0.0139808
0.0172106
0.020755
0.0245685
0.0286014
0.0328032
0.0371243
0.0415173
0.0459385
0.050348
0.0547107
0.0589962
0.0631789
0.0672379
0.0711565
0.0749215
0.0785231
0.0819551
0.0852139
0.0882982
0.0912091
0.0939485
0.096519
0.098925
0.101172
0.103263
0.105204
0.106999
0.108651
0.110162
0.111532
0.112759
0.113838
0.11476
0.115511
0.116069
0.1164
0.116472
0.116227
0.115584
0.114434
0.109193
0.100404
0.0914912
0.0826073
0.0738701
0.0653725
0.0571892
0.0493819
0.0420036
0.0351025
0.0287246
0.0229128
0.0177149
0.0131837
0.009365
0.00629377
0.00397275
0.00234805
0.00130281
0.000683444
0.000341916
0.000164876
7.74778e-05
3.56215e-05
1.60702e-05
7.13004e-06
3.11711e-06
1.34506e-06
5.73784e-07
2.42323e-07
1.01442e-07
4.21291e-08
1.73547e-08
7.07305e-09
2.82693e-09
1.07904e-09
3.60242e-10
6.31632e-11
3.862e-07
1.68812e-06
3.87932e-06
7.55566e-06
1.36944e-05
2.38796e-05
4.06434e-05
6.7969e-05
0.000112005
0.000182034
0.000291716
0.000460534
0.000715257
0.00109102
0.00163139
0.00238673
0.0034103
0.00475237
0.00645347
0.00853879
0.0110152
0.0138715
0.0170814
0.0206072
0.0244041
0.0284232
0.0326145
0.0369288
0.0413188
0.0457407
0.0501546
0.0545251
0.0588213
0.0630174
0.0670918
0.0710274
0.0748104
0.0784309
0.0818818
0.0851597
0.0882629
0.0911912
0.0939463
0.0965318
0.0989516
0.10121
0.103312
0.105263
0.107065
0.108722
0.110236
0.111608
0.112834
0.113911
0.114828
0.115571
0.116119
0.116436
0.116491
0.116224
0.115552
0.114367
0.107475
0.0986954
0.0897847
0.0809058
0.0721834
0.0637146
0.0555762
0.0478309
0.0405321
0.0337276
0.0274738
0.0217892
0.0167365
0.012363
0.00870934
0.00580211
0.00363192
0.00213187
0.00117746
0.000616409
0.000308399
0.000148933
7.0137e-05
3.23264e-05
1.4621e-05
6.50316e-06
2.84969e-06
1.2323e-06
5.26687e-07
2.22808e-07
9.34083e-08
3.88401e-08
1.60159e-08
6.53265e-09
2.6125e-09
9.97572e-10
3.33078e-10
5.84014e-11
3.85158e-07
1.68346e-06
3.86817e-06
7.53266e-06
1.36496e-05
2.37948e-05
4.04856e-05
6.76789e-05
0.000111479
0.000181096
0.000290075
0.000457728
0.000710584
0.00108346
0.00161957
0.0023689
0.00338441
0.00471626
0.0064051
0.00847648
0.0109379
0.0137788
0.0169737
0.0204857
0.0242704
0.0282796
0.0324637
0.0367736
0.0411623
0.0455859
0.0500045
0.0543823
0.0586884
0.0628962
0.0669842
0.0709347
0.0747335
0.0783704
0.0818385
0.085133
0.0882515
0.0911943
0.0939635
0.0965619
0.0989933
0.101262
0.103373
0.10533
0.107137
0.108798
0.110313
0.111683
0.112906
0.113976
0.114883
0.115613
0.116143
0.116437
0.116467
0.116171
0.115466
0.114259
0.1059
0.0971214
0.0881948
0.0793069
0.070592
0.0621497
0.0540572
0.046376
0.0391581
0.0324502
0.0263191
0.0207583
0.0158444
0.0116202
0.00812068
0.00536388
0.00332959
0.00194023
0.00106577
0.000556026
0.000277733
0.000134126
6.32167e-05
2.91768e-05
1.32189e-05
5.89072e-06
2.58642e-06
1.12066e-06
4.79882e-07
2.03366e-07
8.53946e-08
3.5558e-08
1.46801e-08
5.99363e-09
2.39868e-09
9.16344e-10
3.05999e-10
5.36544e-11
3.83638e-07
1.67675e-06
3.85243e-06
7.50114e-06
1.35905e-05
2.36873e-05
4.02941e-05
6.73426e-05
0.000110896
0.0001801
0.0002884
0.000454962
0.000706113
0.00107642
0.0016088
0.00235294
0.00336162
0.00468492
0.00636365
0.00842372
0.0108731
0.013702
0.0168854
0.020387
0.024163
0.0281654
0.0323449
0.0366526
0.0410416
0.045468
0.0498917
0.0542768
0.058592
0.0628107
0.0669108
0.0708744
0.0746873
0.0783388
0.0818209
0.0851285
0.0882601
0.0912157
0.0939966
0.0966056
0.0990465
0.101323
0.103441
0.105403
0.107213
0.108874
0.110388
0.111754
0.11297
0.114028
0.114919
0.115626
0.116127
0.116382
0.116364
0.116007
0.115233
0.11397
0.105052
0.0959669
0.0868753
0.0779068
0.0691653
0.060734
0.0526799
0.0450584
0.037917
0.0312983
0.0252695
0.0198195
0.015037
0.0109557
0.00760146
0.004982
0.00306898
0.00177655
0.000971003
0.000504952
0.000251788
0.000121557
5.73109e-05
2.64698e-05
1.2004e-05
5.35524e-06
2.35411e-06
1.02124e-06
4.37837e-07
1.85763e-07
7.80872e-08
3.2547e-08
1.34484e-08
5.49451e-09
2.20002e-09
8.4068e-10
2.80731e-10
4.92209e-11
3.81911e-07
1.66915e-06
3.83474e-06
7.46603e-06
1.35253e-05
2.35704e-05
4.00888e-05
6.69879e-05
0.000110292
0.000179086
0.000286726
0.000452251
0.000701821
0.00106979
0.00159886
0.00233852
0.00334141
0.00465761
0.00632813
0.00837921
0.0108193
0.013639
0.0168139
0.020308
0.024078
0.028076
0.0322531
0.0365604
0.040951
0.0453809
0.04981
0.0542022
0.058526
0.0627545
0.0668655
0.070841
0.0746662
0.0783292
0.0818227
0.085142
0.0882848
0.0912507
0.0940412
0.0966588
0.099107
0.10139
0.103512
0.105477
0.107288
0.108949
0.110459
0.111819
0.113025
0.11407
0.114941
0.11562
0.116077
0.116273
0.116166
0.115671
0.114681
0.113074
0.103985
0.0947765
0.085609
0.0766049
0.0678604
0.0594527
0.0514442
0.0438866
0.0368245
0.030298
0.0243699
0.0190413
0.0143684
0.010395
0.00715805
0.00465669
0.00284753
0.00163764
0.000890502
0.000461413
0.000229544
0.000110717
5.21857e-05
2.41068e-05
1.09377e-05
4.88301e-06
2.14836e-06
9.3287e-07
4.00344e-07
1.70023e-07
7.15385e-08
2.98434e-08
1.23407e-08
5.04504e-09
2.02092e-09
7.72405e-10
2.57919e-10
4.52166e-11
3.80175e-07
1.66154e-06
3.8171e-06
7.43123e-06
1.34612e-05
2.34564e-05
3.98906e-05
6.6649e-05
0.000109721
0.00017814
0.000285184
0.000449786
0.000697968
0.00106392
0.00159016
0.00232604
0.00332411
0.00463451
0.0062984
0.00834235
0.0107752
0.013588
0.0167566
0.0202455
0.0240115
0.0280072
0.0321834
0.0364915
0.0408845
0.0453186
0.0497532
0.0541522
0.058484
0.0627216
0.0668425
0.0708279
0.0746627
0.0783358
0.0818394
0.0851685
0.0883205
0.0912949
0.0940929
0.096717
0.0991708
0.101458
0.103583
0.105549
0.107361
0.10902
0.110527
0.111881
0.113079
0.114111
0.114967
0.115625
0.116053
0.116214
0.116058
0.115498
0.114418
0.112061
0.102875
0.0936059
0.0844072
0.0753969
0.0666683
0.0582951
0.0503375
0.0428464
0.035867
0.0294435
0.0236325
0.0184141
0.0138425
0.009952
0.006795
0.00438254
0.00266066
0.0015205
0.000822667
0.000424722
0.000210775
0.000101551
4.78396e-05
2.20965e-05
1.00273e-05
4.47831e-06
1.97138e-06
8.56576e-07
3.67865e-07
1.56345e-07
6.58311e-08
2.74813e-08
1.13708e-08
4.65078e-09
1.8636e-09
7.12366e-10
2.37849e-10
4.169e-11
3.78537e-07
1.65436e-06
3.80051e-06
7.39861e-06
1.34013e-05
2.33505e-05
3.97075e-05
6.63379e-05
0.000109201
0.000177284
0.000283801
0.000447597
0.000694577
0.0010588
0.00158266
0.00231538
0.00330949
0.00461519
0.00627382
0.0083122
0.0107395
0.0135472
0.0167113
0.0201968
0.0239604
0.027955
0.0321315
0.0364413
0.0408374
0.0452757
0.0497157
0.0541212
0.0584605
0.0627062
0.0668351
0.0708289
0.0746724
0.0783543
0.0818663
0.0852034
0.0883627
0.0913438
0.0941477
0.0967769
0.0992346
0.101525
0.103651
0.105619
0.107429
0.109086
0.11059
0.111939
0.11313
0.114154
0.115
0.115646
0.116063
0.116212
0.116049
0.115492
0.114438
0.110955
0.101754
0.0924809
0.0832884
0.0742957
0.0655965
0.0572642
0.0493581
0.0419282
0.0350193
0.0286706
0.0229053
0.0177676
0.0133009
0.00954234
0.00649207
0.00415204
0.00250095
0.0014206
0.000764977
0.000393579
0.000194856
9.37767e-05
4.41511e-05
2.03881e-05
9.25244e-06
4.13324e-06
1.82019e-06
7.91278e-07
3.40016e-07
1.44597e-07
6.09216e-08
2.54465e-08
1.05342e-08
4.31039e-09
1.72765e-09
6.60456e-10
2.20495e-10
3.86376e-11
3.77057e-07
1.64788e-06
3.78556e-06
7.36929e-06
1.33477e-05
2.3256e-05
3.95447e-05
6.60628e-05
0.000108743
0.000176536
0.000282601
0.000445708
0.000691673
0.00105445
0.00157633
0.00230647
0.00329737
0.00459931
0.0062538
0.00828789
0.010711
0.0135149
0.0166761
0.0201593
0.0239218
0.0279163
0.0320938
0.0364058
0.0408051
0.0452477
0.049693
0.0541046
0.0584504
0.0627027
0.0668388
0.0708401
0.0746911
0.0783802
0.0818991
0.0852426
0.0884078
0.0913941
0.0942024
0.0968352
0.0992956
0.101588
0.103715
0.105682
0.107492
0.109146
0.110646
0.111991
0.113176
0.114194
0.115031
0.115669
0.116077
0.116219
0.11605
0.115491
0.114439
0.109907
0.100709
0.0914466
0.0822739
0.0733105
0.0646501
0.056366
0.0485157
0.0411478
0.0343034
0.0280063
0.0222916
0.017218
0.0128231
0.00913805
0.00618243
0.00394813
0.00236091
0.00133416
0.000715675
0.000367189
0.000181439
8.72398e-05
4.10524e-05
1.89529e-05
8.60105e-06
3.84284e-06
1.69277e-06
7.36162e-07
3.1647e-07
1.34648e-07
5.67573e-08
2.37182e-08
9.82288e-09
4.02065e-09
1.61187e-09
6.16228e-10
2.05716e-10
3.60399e-11
3.7576e-07
1.64221e-06
3.77248e-06
7.34368e-06
1.33009e-05
2.31738e-05
3.94038e-05
6.58255e-05
0.00010835
0.000175897
0.000281579
0.00044411
0.000689231
0.00105082
0.00157108
0.00229913
0.00328747
0.00458644
0.00623771
0.00826854
0.0106886
0.0134899
0.016649
0.020131
0.023893
0.0278881
0.0320672
0.0363816
0.0407842
0.0452309
0.0496811
0.0540979
0.0584493
0.0627076
0.0668501
0.0708576
0.0747148
0.0784099
0.0819344
0.0852829
0.0884527
0.0914428
0.0942544
0.0968896
0.0993517
0.101644
0.103772
0.105738
0.107546
0.109197
0.110694
0.112034
0.113213
0.114224
0.115055
0.115685
0.116084
0.116219
0.116044
0.115479
0.114427
0.108981
0.0997849
0.0905354
0.0813867
0.0724597
0.0638431
0.055599
0.0477866
0.0404533
0.0336382
0.0273912
0.0217454
0.0167421
0.0124196
0.00880861
0.00592682
0.00376036
0.0022446
0.00126141
0.000674414
0.000345256
0.000170323
8.18293e-05
3.84869e-05
1.77635e-05
8.06039e-06
3.60139e-06
1.58664e-06
6.90167e-07
2.96786e-07
1.26316e-07
5.32644e-08
2.22665e-08
9.22467e-09
3.7768e-09
1.51439e-09
5.79021e-10
1.93298e-10
3.38638e-11
3.74651e-07
1.63736e-06
3.76131e-06
7.32186e-06
1.32612e-05
2.31041e-05
3.92845e-05
6.56252e-05
0.00010802
0.000175361
0.000280728
0.000442784
0.000687215
0.00104784
0.00156679
0.00229317
0.00327949
0.00457616
0.00622496
0.00825336
0.0106712
0.0134707
0.0166285
0.0201099
0.0238721
0.0278681
0.0320489
0.0363658
0.0407716
0.0452221
0.0496765
0.0540979
0.0584542
0.0627178
0.0668655
0.0708783
0.0747405
0.0784404
0.0819693
0.0853218
0.0884949
0.0914879
0.0943016
0.0969383
0.0994012
0.101694
0.103821
0.105785
0.107591
0.109239
0.110731
0.112066
0.11324
0.114245
0.115068
0.11569
0.116082
0.116209
0.116026
0.115457
0.114404
0.108187
0.0989872
0.0897468
0.0806197
0.07171
0.0631071
0.0548888
0.0471113
0.0398216
0.0330615
0.02687
0.0212822
0.0163401
0.0120813
0.00853573
0.00571915
0.00361407
0.00215171
0.00120616
0.000641895
0.000327601
0.000161311
7.74219e-05
3.6389e-05
1.67877e-05
7.6156e-06
3.40227e-06
1.49893e-06
6.52085e-07
2.80461e-07
1.19395e-07
5.03596e-08
2.10578e-08
8.72606e-09
3.57339e-09
1.43304e-09
5.47957e-10
1.82933e-10
3.20476e-11
3.73723e-07
1.6333e-06
3.75199e-06
7.30365e-06
1.32281e-05
2.30462e-05
3.91856e-05
6.54596e-05
0.000107748
0.000174921
0.000280031
0.000441703
0.000685579
0.00104543
0.00156335
0.00228842
0.00327316
0.00456806
0.006215
0.0082416
0.0106579
0.0134561
0.0166133
0.0200945
0.0238572
0.0278544
0.0320369
0.0363561
0.0407648
0.0452186
0.0496766
0.0541021
0.0584626
0.0627306
0.0668826
0.0708996
0.0747659
0.0784694
0.0820017
0.0853571
0.0885327
0.0915276
0.0943427
0.0969801
0.0994431
0.101735
0.103861
0.105823
0.107626
0.109271
0.110759
0.112089
0.113256
0.114254
0.11507
0.115686
0.116069
0.116189
0.115999
0.115424
0.114373
0.107515
0.0983065
0.0890712
0.079948
0.0710548
0.0624793
0.0542918
0.0465488
0.0392978
0.0325803
0.0264344
0.0208947
0.0160036
0.011798
0.00830688
0.00554388
0.00348811
0.00206682
0.00115822
0.000616386
0.000313517
0.000153942
7.38035e-05
3.46662e-05
1.5986e-05
7.25001e-06
3.23852e-06
1.42675e-06
6.20722e-07
2.67005e-07
1.13687e-07
4.79616e-08
2.00593e-08
8.31394e-09
3.40519e-09
1.36575e-09
5.22258e-10
1.74359e-10
3.05452e-11
3.72966e-07
1.62999e-06
3.74438e-06
7.2888e-06
1.32011e-05
2.2999e-05
3.91053e-05
6.53254e-05
0.000107528
0.000174567
0.000279471
0.000440838
0.000684275
0.00104351
0.00156063
0.00228468
0.00326822
0.00456177
0.00620734
0.00823264
0.0106478
0.0134453
0.0166021
0.0200835
0.0238468
0.0278451
0.0320293
0.0363506
0.0407619
0.0452185
0.0496796
0.0541084
0.0584725
0.0627439
0.0668994
0.0709196
0.074789
0.0784953
0.0820301
0.0853876
0.0885648
0.0915608
0.0943765
0.0970141
0.0994766
0.101768
0.103891
0.105851
0.107651
0.109292
0.110776
0.1121
0.113263
0.114255
0.115064
0.115673
0.116049
0.116163
0.115969
0.11539
0.114339
0.106954
0.0977346
0.0884985
0.0793871
0.0705114
0.0619585
0.0537973
0.046084
0.0388656
0.0321834
0.0260751
0.0205751
0.0157262
0.0115646
0.00811861
0.00540005
0.00338515
0.0019979
0.00111444
0.000591727
0.000301513
0.000147959
7.08537e-05
3.32564e-05
1.53309e-05
6.95174e-06
3.105e-06
1.36791e-06
5.95153e-07
2.56034e-07
1.09031e-07
4.60051e-08
1.92444e-08
7.97751e-09
3.26786e-09
1.3108e-09
5.01286e-10
1.67363e-10
2.93194e-11
3.72363e-07
1.62736e-06
3.73832e-06
7.277e-06
1.31797e-05
2.29617e-05
3.90417e-05
6.52195e-05
0.000107354
0.000174288
0.000279032
0.000440162
0.000683259
0.00104203
0.00155853
0.00228181
0.00326444
0.004557
0.00620156
0.00822595
0.0106404
0.0134374
0.0165941
0.0200757
0.0238398
0.0278391
0.0320248
0.0363479
0.0407612
0.0452202
0.0496838
0.0541153
0.0584821
0.0627562
0.0669142
0.070937
0.0748086
0.0785169
0.0820533
0.0854121
0.0885903
0.0915869
0.0944027
0.0970398
0.0995014
0.101791
0.103913
0.10587
0.107666
0.109304
0.110783
0.112103
0.11326
0.114246
0.11505
0.115653
0.116026
0.116138
0.115947
0.115381
0.114361
0.1065
0.0972715
0.0880343
0.0789308
0.0700693
0.061535
0.0533958
0.0457072
0.0385157
0.0318623
0.0257847
0.020317
0.0155023
0.0113767
0.00796745
0.00528517
0.00330369
0.00194438
0.00108182
0.000573129
0.000291381
0.000143126
6.85859e-05
3.21668e-05
1.48164e-05
6.71533e-06
2.99877e-06
1.32101e-06
5.74751e-07
2.47272e-07
1.05311e-07
4.44413e-08
1.8593e-08
7.70862e-09
3.15813e-09
1.26695e-09
4.84558e-10
1.61784e-10
2.83421e-11
3.719e-07
1.62534e-06
3.73368e-06
7.26795e-06
1.31633e-05
2.29331e-05
3.89931e-05
6.51386e-05
0.000107222
0.000174076
0.000278699
0.00043965
0.000682493
0.00104091
0.00155695
0.00227967
0.00326164
0.00455348
0.00619732
0.00822107
0.010635
0.0134318
0.0165885
0.0200704
0.0238351
0.0278353
0.0320222
0.0363467
0.0407617
0.0452225
0.0496881
0.0541216
0.0584904
0.0627664
0.0669263
0.0709506
0.0748237
0.0785333
0.0820707
0.0854303
0.0886089
0.0916055
0.094421
0.0970573
0.0995176
0.101806
0.103925
0.105879
0.107672
0.109306
0.110781
0.112096
0.113247
0.114228
0.115026
0.115624
0.115992
0.116101
0.115908
0.115342
0.114328
0.106149
0.096905
0.0876664
0.0785692
0.0697193
0.0612003
0.0530791
0.0454105
0.0382408
0.0316105
0.0255573
0.0201152
0.0153276
0.0112303
0.00785003
0.00519623
0.00324086
0.0019033
0.00105693
0.000558998
0.000283737
0.000139095
6.66147e-05
3.12766e-05
1.44113e-05
6.53109e-06
2.91607e-06
1.2845e-06
5.58882e-07
2.40469e-07
1.02428e-07
4.32315e-08
1.80902e-08
7.50158e-09
3.07385e-09
1.2333e-09
4.71726e-10
1.57505e-10
2.75924e-11
3.71564e-07
1.62387e-06
3.73031e-06
7.2614e-06
1.31514e-05
2.29124e-05
3.8958e-05
6.50802e-05
0.000107127
0.000173924
0.000278459
0.000439283
0.000681944
0.00104012
0.00155583
0.00227815
0.00325965
0.004551
0.00619436
0.00821768
0.0106314
0.013428
0.0165847
0.0200669
0.023832
0.027833
0.0320208
0.0363464
0.0407626
0.0452247
0.0496917
0.0541266
0.0584967
0.062774
0.0669349
0.0709602
0.0748342
0.0785444
0.0820823
0.0854421
0.0886207
0.091617
0.0944318
0.0970671
0.099526
0.101812
0.103929
0.105881
0.107671
0.109301
0.110771
0.112082
0.113228
0.114203
0.114996
0.115589
0.115951
0.116058
0.115864
0.115302
0.114298
0.105891
0.0966313
0.0873893
0.0782962
0.0694553
0.0609484
0.0528416
0.0451887
0.0380358
0.0314234
0.0253887
0.0199659
0.0151987
0.0111225
0.00776384
0.00513117
0.00319508
0.00187346
0.00103887
0.000548778
0.000278265
0.000136293
6.52329e-05
3.06061e-05
1.41082e-05
6.39671e-06
2.85669e-06
1.25846e-06
5.47602e-07
2.35636e-07
1.00379e-07
4.23716e-08
1.77322e-08
7.3538e-09
3.01355e-09
1.20918e-09
4.62517e-10
1.54431e-10
2.70539e-11
3.71347e-07
1.62292e-06
3.72813e-06
7.25715e-06
1.31437e-05
2.2899e-05
3.89353e-05
6.50424e-05
0.000107065
0.000173825
0.000278305
0.000439047
0.000681591
0.0010396
0.00155512
0.00227717
0.00325839
0.00454942
0.00619248
0.00821555
0.010629
0.0134256
0.0165824
0.0200648
0.0238303
0.0278317
0.0320201
0.0363464
0.0407634
0.0452263
0.0496942
0.0541299
0.0585008
0.0627787
0.0669402
0.0709659
0.0748401
0.0785505
0.0820885
0.0854482
0.0886265
0.0916223
0.0944364
0.0970707
0.0995283
0.101813
0.103928
0.105877
0.107664
0.109291
0.110758
0.112064
0.113206
0.114176
0.114964
0.115552
0.115911
0.116015
0.115822
0.115266
0.114277
0.105719
0.0964453
0.0871991
0.0781084
0.0692742
0.0607765
0.0526802
0.0450389
0.0378981
0.0312982
0.0252764
0.0198669
0.0151135
0.0110516
0.00770733
0.00508872
0.00316536
0.00185418
0.00102724
0.000542185
0.000274734
0.000134509
6.4365e-05
3.01909e-05
1.39107e-05
6.30636e-06
2.81706e-06
1.24134e-06
5.40248e-07
2.32505e-07
9.90586e-08
4.1819e-08
1.75027e-08
7.25924e-09
2.97498e-09
1.19375e-09
4.56623e-10
1.52464e-10
2.6709e-11
3.71242e-07
1.62246e-06
3.72708e-06
7.25511e-06
1.314e-05
2.28926e-05
3.89244e-05
6.50244e-05
0.000107036
0.000173778
0.000278232
0.000438935
0.000681425
0.00103936
0.00155478
0.00227672
0.0032578
0.00454868
0.0061916
0.00821455
0.010628
0.0134245
0.0165813
0.0200638
0.0238295
0.0278311
0.0320198
0.0363465
0.0407638
0.0452272
0.0496954
0.0541315
0.0585027
0.062781
0.0669427
0.0709684
0.0748424
0.0785527
0.0820905
0.0854501
0.0886281
0.0916235
0.094437
0.0970706
0.0995273
0.101811
0.103924
0.105872
0.107657
0.109281
0.110746
0.112049
0.113188
0.114155
0.114939
0.115524
0.11588
0.115983
0.115791
0.11524
0.114265
0.105635
0.0963476
0.0870977
0.0780086
0.0691786
0.0606867
0.0525969
0.0449624
0.0378284
0.0312354
0.0252206
0.0198183
0.015072
0.0110173
0.00768025
0.00506854
0.00315136
0.00184518
0.00102184
0.000539136
0.000273098
0.000133696
6.39706e-05
3.00033e-05
1.38228e-05
6.26581e-06
2.7985e-06
1.23309e-06
5.36673e-07
2.30981e-07
9.84158e-08
4.15504e-08
1.73913e-08
7.21339e-09
2.95629e-09
1.18627e-09
4.53766e-10
1.51509e-10
2.65417e-11
3.71244e-07
1.62247e-06
3.7271e-06
7.25515e-06
1.31401e-05
2.28927e-05
3.89247e-05
6.50248e-05
0.000107036
0.000173779
0.000278234
0.000438938
0.000681429
0.00103937
0.00155479
0.00227673
0.00325781
0.0045487
0.00619163
0.00821458
0.010628
0.0134245
0.0165813
0.0200639
0.0238295
0.0278312
0.0320198
0.0363465
0.0407639
0.0452272
0.0496955
0.0541316
0.0585028
0.062781
0.0669427
0.0709684
0.0748425
0.0785528
0.0820906
0.0854501
0.0886281
0.0916235
0.094437
0.0970706
0.0995273
0.101811
0.103924
0.105872
0.107657
0.109281
0.110746
0.112049
0.113188
0.114155
0.114939
0.115524
0.11588
0.115983
0.115791
0.11524
0.114265
0.105635
0.0963475
0.0870976
0.0780085
0.0691785
0.0606866
0.0525968
0.0449623
0.0378284
0.0312354
0.0252206
0.0198182
0.015072
0.0110173
0.00768023
0.00506853
0.00315136
0.00184518
0.00102184
0.000539135
0.000273097
0.000133696
6.39705e-05
3.00033e-05
1.38228e-05
6.2658e-06
2.7985e-06
1.23309e-06
5.36672e-07
2.30981e-07
9.84157e-08
4.15503e-08
1.73913e-08
7.21337e-09
2.95628e-09
1.18627e-09
4.53765e-10
1.51509e-10
2.65416e-11
3.71353e-07
1.62295e-06
3.72819e-06
7.25728e-06
1.31439e-05
2.28994e-05
3.89359e-05
6.50435e-05
0.000107067
0.000173828
0.00027831
0.000439054
0.000681602
0.00103962
0.00155514
0.00227721
0.00325843
0.00454948
0.00619255
0.00821564
0.0106291
0.0134257
0.0165825
0.0200649
0.0238304
0.0278319
0.0320202
0.0363466
0.0407635
0.0452265
0.0496944
0.0541301
0.0585009
0.0627789
0.0669404
0.0709661
0.0748402
0.0785507
0.0820886
0.0854483
0.0886266
0.0916224
0.0944365
0.0970708
0.0995284
0.101813
0.103928
0.105877
0.107664
0.109291
0.110758
0.112064
0.113206
0.114176
0.114964
0.115552
0.115911
0.116015
0.115822
0.115266
0.114277
0.105719
0.096445
0.0871988
0.0781082
0.0692739
0.0607762
0.05268
0.0450387
0.0378979
0.031298
0.0252762
0.0198668
0.0151134
0.0110515
0.00770728
0.00508869
0.00316534
0.00185417
0.00102723
0.000542181
0.000274732
0.000134508
6.43644e-05
3.01907e-05
1.39106e-05
6.3063e-06
2.81704e-06
1.24134e-06
5.40245e-07
2.32504e-07
9.90579e-08
4.18187e-08
1.75026e-08
7.25918e-09
2.97496e-09
1.19374e-09
4.56618e-10
1.52462e-10
2.67087e-11
3.71575e-07
1.62392e-06
3.73042e-06
7.26161e-06
1.31518e-05
2.2913e-05
3.89591e-05
6.5082e-05
0.00010713
0.000173928
0.000278467
0.000439295
0.000681962
0.00104014
0.00155587
0.0022782
0.00325973
0.00455109
0.00619448
0.00821783
0.0106315
0.0134282
0.0165849
0.0200671
0.0238323
0.0278333
0.0320211
0.0363467
0.0407629
0.045225
0.049692
0.0541269
0.058497
0.0627743
0.0669352
0.0709605
0.0748344
0.0785447
0.0820825
0.0854423
0.0886209
0.0916172
0.094432
0.0970673
0.0995262
0.101812
0.103929
0.105881
0.107671
0.109301
0.110772
0.112082
0.113228
0.114203
0.114996
0.115589
0.115951
0.116058
0.115864
0.115301
0.114298
0.10589
0.0966308
0.0873888
0.0782957
0.0694548
0.060948
0.0528412
0.0451884
0.0380355
0.0314231
0.0253885
0.0199658
0.0151986
0.0111224
0.00776376
0.00513111
0.00319504
0.00187343
0.00103886
0.00054877
0.000278261
0.000136291
6.52319e-05
3.06056e-05
1.41079e-05
6.39661e-06
2.85665e-06
1.25844e-06
5.47593e-07
2.35632e-07
1.00378e-07
4.23708e-08
1.77318e-08
7.35366e-09
3.01349e-09
1.20915e-09
4.62507e-10
1.54428e-10
2.70534e-11
3.71914e-07
1.6254e-06
3.73383e-06
7.26824e-06
1.31638e-05
2.2934e-05
3.89947e-05
6.51411e-05
0.000107226
0.000174083
0.000278709
0.000439667
0.000682518
0.00104095
0.00155701
0.00227974
0.00326174
0.00455361
0.0061975
0.00822128
0.0106353
0.0134321
0.0165888
0.0200708
0.0238354
0.0278357
0.0320226
0.0363471
0.0407621
0.0452229
0.0496886
0.054122
0.0584908
0.0627668
0.0669267
0.070951
0.0748241
0.0785337
0.0820711
0.0854306
0.0886092
0.0916058
0.0944212
0.0970576
0.0995178
0.101806
0.103925
0.10588
0.107673
0.109306
0.110781
0.112096
0.113248
0.114228
0.115026
0.115624
0.115992
0.116101
0.115908
0.115342
0.114328
0.106149
0.0969042
0.0876656
0.0785685
0.0697186
0.0611997
0.0530786
0.0454101
0.0382403
0.0316102
0.025557
0.020115
0.0153274
0.0112301
0.00784992
0.00519615
0.00324081
0.00190327
0.00105691
0.000558986
0.00028373
0.000139092
6.66131e-05
3.12758e-05
1.4411e-05
6.53095e-06
2.916e-06
1.28447e-06
5.58866e-07
2.40462e-07
1.02425e-07
4.32302e-08
1.80896e-08
7.50134e-09
3.07375e-09
1.23326e-09
4.71711e-10
1.575e-10
2.75915e-11
3.72381e-07
1.62744e-06
3.73851e-06
7.27737e-06
1.31804e-05
2.29628e-05
3.90437e-05
6.52227e-05
0.000107359
0.000174297
0.000279045
0.000440183
0.000683291
0.00104208
0.0015586
0.00228191
0.00326457
0.00455717
0.00620178
0.00822621
0.0106407
0.0134378
0.0165945
0.0200762
0.0238403
0.0278396
0.0320253
0.0363485
0.0407618
0.0452207
0.0496844
0.0541159
0.0584826
0.0627567
0.0669148
0.0709375
0.074809
0.0785173
0.0820537
0.0854126
0.0885907
0.0915873
0.094403
0.0970401
0.0995017
0.101791
0.103913
0.10587
0.107666
0.109304
0.110783
0.112103
0.11326
0.114246
0.11505
0.115653
0.116026
0.116138
0.115947
0.115381
0.114361
0.106499
0.0972705
0.0880333
0.0789299
0.0700685
0.0615342
0.0533951
0.0457066
0.0385151
0.0318619
0.0257843
0.0203167
0.0155021
0.0113765
0.00796729
0.00528506
0.00330361
0.00194433
0.0010818
0.000573112
0.000291372
0.000143121
6.85837e-05
3.21658e-05
1.48159e-05
6.71507e-06
2.99865e-06
1.32096e-06
5.74728e-07
2.47262e-07
1.05307e-07
4.44395e-08
1.85922e-08
7.7083e-09
3.158e-09
1.26689e-09
4.84538e-10
1.61777e-10
2.83409e-11
3.72988e-07
1.63009e-06
3.74461e-06
7.28925e-06
1.32019e-05
2.30004e-05
3.91076e-05
6.53293e-05
0.000107534
0.000174577
0.000279487
0.000440863
0.000684314
0.00104357
0.00156071
0.0022848
0.00326838
0.00456198
0.00620761
0.00823297
0.0106482
0.0134458
0.0166026
0.020084
0.0238474
0.0278457
0.03203
0.0363513
0.0407626
0.0452192
0.0496803
0.0541091
0.0584731
0.0627446
0.0669
0.0709203
0.0747896
0.0784959
0.0820306
0.0853881
0.0885653
0.0915613
0.094377
0.0970145
0.0994769
0.101768
0.103892
0.105852
0.107651
0.109292
0.110776
0.112101
0.113263
0.114255
0.115064
0.115673
0.116049
0.116163
0.115968
0.11539
0.114338
0.106953
0.0977333
0.0884972
0.0793859
0.0705104
0.0619575
0.0537964
0.0460833
0.038865
0.0321828
0.0260746
0.0205747
0.0157258
0.0115644
0.0081184
0.0053999
0.00338505
0.00199783
0.0011144
0.000591704
0.000301501
0.000147953
7.08508e-05
3.3255e-05
1.53302e-05
6.95142e-06
3.10486e-06
1.36785e-06
5.95124e-07
2.56021e-07
1.09026e-07
4.60027e-08
1.92434e-08
7.9771e-09
3.26769e-09
1.31073e-09
5.0126e-10
1.67354e-10
2.93179e-11
3.7375e-07
1.63342e-06
3.75226e-06
7.30417e-06
1.3229e-05
2.30478e-05
3.91883e-05
6.54641e-05
0.000107755
0.000174933
0.00028005
0.000441733
0.000685624
0.00104549
0.00156345
0.00228855
0.00327335
0.0045683
0.00621531
0.00824198
0.0106583
0.0134567
0.0166139
0.0200952
0.0238579
0.0278551
0.0320377
0.0363569
0.0407657
0.0452195
0.0496774
0.0541029
0.0584635
0.0627314
0.0668834
0.0709003
0.0747666
0.0784701
0.0820024
0.0853577
0.0885333
0.0915282
0.0943432
0.0969806
0.0994435
0.101736
0.103861
0.105823
0.107626
0.109271
0.110759
0.112089
0.113257
0.114255
0.11507
0.115686
0.116069
0.116189
0.115999
0.115424
0.114373
0.107513
0.0983048
0.0890697
0.0799466
0.0710535
0.0624781
0.0542907
0.0465478
0.0392969
0.0325796
0.0264338
0.0208942
0.0160032
0.0117977
0.00830661
0.00554369
0.00348798
0.00206673
0.00115816
0.000616357
0.000313502
0.000153934
7.37995e-05
3.46643e-05
1.59851e-05
7.2496e-06
3.23833e-06
1.42667e-06
6.20685e-07
2.66989e-07
1.1368e-07
4.79587e-08
2.00581e-08
8.31343e-09
3.40498e-09
1.36566e-09
5.22225e-10
1.74348e-10
3.05433e-11
3.74681e-07
1.63749e-06
3.76162e-06
7.32245e-06
1.32623e-05
2.3106e-05
3.92876e-05
6.56304e-05
0.000108029
0.000175375
0.00028075
0.000442818
0.000687267
0.00104791
0.0015669
0.00229333
0.0032797
0.00457644
0.00622532
0.0082538
0.0106717
0.0134713
0.0166292
0.0201106
0.023873
0.027869
0.0320498
0.0363667
0.0407726
0.0452231
0.0496774
0.0540988
0.0584552
0.0627187
0.0668664
0.0708792
0.0747414
0.0784412
0.08197
0.0853225
0.0884956
0.0914885
0.0943022
0.0969389
0.0994018
0.101695
0.103821
0.105786
0.107591
0.109239
0.110732
0.112067
0.11324
0.114245
0.115068
0.115691
0.116082
0.116209
0.116026
0.115457
0.114404
0.108185
0.0989852
0.0897449
0.0806179
0.0717084
0.0631056
0.0548875
0.0471101
0.0398206
0.0330606
0.0268692
0.0212816
0.0163395
0.0120809
0.00853539
0.0057189
0.0036139
0.0021516
0.00120609
0.00064186
0.000327581
0.0001613
7.74169e-05
3.63866e-05
1.67866e-05
7.61508e-06
3.40204e-06
1.49883e-06
6.52038e-07
2.8044e-07
1.19387e-07
5.03559e-08
2.10562e-08
8.72541e-09
3.57313e-09