/*--------------------------------*- C++ -*----------------------------------*\
  =========                 |
  \\      /  F ield         | OpenFOAM: The Open Source CFD Toolbox
   \\    /   O peration     | Website:  https://openfoam.org
    \\  /    A nd           | Version:  8
     \\/     M anipulation  |
\*---------------------------------------------------------------------------*/
FoamFile
{
    version     2.0;
    format      ascii;
    class       volScalarField;
    location    "580/fluid";
    object      N2;
}
// * * * * * * * * * * * * * * * * * * * * * * * * * * * * * * * * * * * * * //

dimensions      [0 0 0 0 0 0 0];

internalField   nonuniform List<scalar> 
4000
(
2.27257e-06
9.92966e-06
2.28012e-05
4.43678e-05
8.03462e-05
0.000140033
0.000238366
0.000399013
0.000658826
0.00107403
0.00172829
0.00274239
0.00428416
0.00657602
0.00989573
0.0145643
0.0209193
0.0292732
0.0398677
0.0528375
0.0681942
0.0858339
0.10556
0.127112
0.150194
0.174493
0.199699
0.225516
0.251663
0.277888
0.303965
0.329695
0.35491
0.379471
0.403267
0.426208
0.448227
0.469276
0.489327
0.508365
0.52639
0.543412
0.559451
0.574531
0.588686
0.60195
0.614361
0.625959
0.636786
0.646883
0.656292
0.665053
0.673205
0.680787
0.687837
0.694388
0.700477
0.706063
0.711189
0.716088
0.720645
0.724885
0.728774
0.732506
0.736077
0.739489
0.742746
0.745847
0.748791
0.751576
0.754198
0.756651
0.758927
0.761008
0.762904
0.76459
0.766049
0.767265
0.768223
0.768925
0.769395
0.769682
0.769842
0.769925
0.769965
0.769984
0.769993
0.769997
0.769999
0.769999
0.77
0.77
0.77
0.77
0.77
0.77
0.77
0.77
0.77
0.77
2.28036e-06
9.96654e-06
2.28983e-05
4.459e-05
8.08173e-05
0.00014097
0.000240124
0.000402107
0.000663906
0.00108167
0.0017385
0.00275367
0.004292
0.00657101
0.0098616
0.0144767
0.0207461
0.0289782
0.0394162
0.0522026
0.0673622
0.0848062
0.104352
0.125752
0.148715
0.172935
0.1981
0.223913
0.250089
0.27637
0.302524
0.32835
0.353672
0.378349
0.402263
0.425325
0.447462
0.468626
0.488786
0.507926
0.526046
0.543156
0.559274
0.574426
0.588646
0.601966
0.614427
0.626069
0.636934
0.647063
0.656499
0.665282
0.673453
0.68105
0.688112
0.694673
0.700768
0.706355
0.711481
0.716383
0.72094
0.725177
0.729069
0.73281
0.736387
0.739806
0.743069
0.746174
0.749122
0.751909
0.75453
0.75698
0.75925
0.761319
0.763197
0.764858
0.766284
0.767457
0.768367
0.769022
0.769453
0.769713
0.769857
0.769931
0.769968
0.769985
0.769993
0.769997
0.769999
0.769999
0.77
0.77
0.77
0.77
0.77
0.77
0.77
0.77
0.77
0.77
2.29342e-06
1.00253e-05
2.30402e-05
4.48817e-05
8.13689e-05
0.00014195
0.000241764
0.000404691
0.000667717
0.00108695
0.00174526
0.0027611
0.00429761
0.00656892
0.00984023
0.0144185
0.0206271
0.0287694
0.0390862
0.0517222
0.0667087
0.0839667
0.103326
0.124549
0.147357
0.17145
0.196523
0.222279
0.248434
0.274729
0.300927
0.326822
0.352237
0.377022
0.401057
0.424247
0.446518
0.467816
0.488109
0.507378
0.525621
0.542847
0.559074
0.574329
0.588638
0.60204
0.614574
0.62628
0.637201
0.647379
0.656857
0.665675
0.673876
0.681497
0.688578
0.695154
0.70126
0.706849
0.711974
0.716876
0.721424
0.725649
0.729553
0.733304
0.736889
0.740312
0.743575
0.746679
0.74962
0.752397
0.755004
0.757434
0.759677
0.761716
0.763553
0.765165
0.766535
0.767649
0.768502
0.769108
0.769502
0.769738
0.769869
0.769937
0.76997
0.769986
0.769994
0.769997
0.769999
0.769999
0.77
0.77
0.77
0.77
0.77
0.77
0.77
0.77
0.77
0.77
2.29856e-06
1.00475e-05
2.30904e-05
4.49768e-05
8.15323e-05
0.000142207
0.000242125
0.000405103
0.000667946
0.00108627
0.00174199
0.00275211
0.00427751
0.00652953
0.00977031
0.0143027
0.0204465
0.0285026
0.0387121
0.0512223
0.0660698
0.0831825
0.102397
0.123484
0.146171
0.170162
0.195158
0.220863
0.246994
0.273293
0.299521
0.32547
0.350958
0.375835
0.399976
0.423282
0.445675
0.4671
0.487519
0.506914
0.52528
0.542625
0.558965
0.574319
0.588722
0.60221
0.614821
0.626597
0.637578
0.647809
0.657332
0.666188
0.67442
0.682067
0.689167
0.695758
0.701873
0.707456
0.712568
0.717454
0.721997
0.726221
0.730141
0.733898
0.737485
0.740905
0.744162
0.747255
0.750182
0.752939
0.75552
0.757918
0.760123
0.762125
0.763912
0.765469
0.766781
0.767837
0.768635
0.769193
0.769552
0.769765
0.769882
0.769943
0.769973
0.769988
0.769994
0.769998
0.769999
0.77
0.77
0.77
0.77
0.77
0.77
0.77
0.77
0.77
0.77
0.77
2.29809e-06
1.00452e-05
2.30839e-05
4.49599e-05
8.14883e-05
0.000142095
0.000241847
0.000404445
0.000666474
0.00108317
0.00173582
0.00274033
0.004256
0.00649185
0.00970715
0.0142015
0.0202918
0.028277
0.0383984
0.0508056
0.0655394
0.0825334
0.101631
0.122607
0.145195
0.169105
0.194039
0.219703
0.245817
0.27212
0.298375
0.324371
0.349924
0.37488
0.399113
0.422521
0.445023
0.46656
0.487093
0.506603
0.525083
0.542534
0.558971
0.574421
0.588912
0.60248
0.615163
0.627003
0.638041
0.648321
0.657885
0.666775
0.675035
0.682703
0.689819
0.696421
0.70254
0.708098
0.713205
0.718101
0.722639
0.726825
0.730767
0.734524
0.738107
0.74152
0.744765
0.747842
0.750748
0.75348
0.75603
0.758393
0.760554
0.762511
0.764248
0.765751
0.767007
0.768006
0.768752
0.769267
0.769595
0.769788
0.769894
0.769949
0.769976
0.769989
0.769995
0.769998
0.769999
0.77
0.77
0.77
0.77
0.77
0.77
0.77
0.77
0.77
0.77
0.77
2.29194e-06
1.00177e-05
2.3018e-05
4.48241e-05
8.12238e-05
0.000141594
0.000240913
0.000402728
0.000663359
0.00107762
0.00172609
0.0027237
0.00422828
0.00644704
0.00963703
0.0140957
0.0201381
0.0280627
0.0381113
0.0504359
0.0650806
0.0819834
0.100992
0.121886
0.144403
0.168254
0.193145
0.218784
0.244891
0.271205
0.297488
0.323528
0.349139
0.374167
0.398481
0.421978
0.444574
0.46621
0.486847
0.506458
0.525031
0.542572
0.559098
0.57463
0.589198
0.602836
0.615582
0.627477
0.638563
0.648883
0.658481
0.667398
0.675678
0.68336
0.690484
0.697088
0.703202
0.708743
0.713868
0.718763
0.723292
0.72743
0.731376
0.735132
0.738709
0.742112
0.745343
0.748401
0.751284
0.753988
0.756507
0.758834
0.760951
0.762865
0.764554
0.766006
0.767209
0.768156
0.768855
0.769333
0.769634
0.769809
0.769905
0.769954
0.769978
0.76999
0.769995
0.769998
0.769999
0.77
0.77
0.77
0.77
0.77
0.77
0.77
0.77
0.77
0.77
0.77
2.28294e-06
9.97794e-06
2.29249e-05
4.46374e-05
8.08734e-05
0.000140957
0.000239779
0.000400736
0.000659906
0.00107171
0.00171616
0.00270729
0.00420177
0.00640526
0.0095731
0.014001
0.0200029
0.0278768
0.0378655
0.0501229
0.0646967
0.0815282
0.100469
0.121302
0.143766
0.167578
0.192442
0.218069
0.244178
0.270509
0.296823
0.322907
0.348574
0.373666
0.398052
0.421628
0.444309
0.466033
0.486754
0.506446
0.525101
0.542722
0.559323
0.574925
0.589557
0.603253
0.61605
0.627991
0.639115
0.649468
0.659091
0.668028
0.676321
0.68401
0.691136
0.697735
0.703845
0.709329
0.714569
0.719428
0.72393
0.728029
0.731959
0.735704
0.73927
0.74266
0.745874
0.748913
0.751772
0.75445
0.756939
0.759232
0.761313
0.763188
0.764831
0.766234
0.767387
0.768287
0.768945
0.769389
0.769666
0.769826
0.769913
0.769958
0.76998
0.769991
0.769996
0.769998
0.769999
0.77
0.77
0.77
0.77
0.77
0.77
0.77
0.77
0.77
0.77
0.77
2.27271e-06
9.93292e-06
2.28201e-05
4.44294e-05
8.04872e-05
0.000140264
0.000238562
0.000398633
0.000656323
0.0010657
0.00170623
0.00269121
0.00417631
0.00636596
0.00951418
0.0139155
0.0198831
0.0277149
0.0376549
0.0498592
0.0643777
0.081155
0.100045
0.120834
0.143264
0.16705
0.191901
0.217525
0.243645
0.269997
0.296344
0.32247
0.348189
0.37334
0.397793
0.42144
0.444195
0.465988
0.48678
0.506543
0.525268
0.542956
0.559619
0.575279
0.589963
0.603706
0.616545
0.628521
0.639675
0.650051
0.659693
0.668644
0.676945
0.684639
0.691765
0.698362
0.704449
0.709928
0.715169
0.720017
0.724505
0.728583
0.732499
0.736231
0.739783
0.743158
0.746355
0.749373
0.752209
0.754859
0.757318
0.759578
0.761622
0.763455
0.765061
0.766427
0.767539
0.768399
0.769021
0.769437
0.769694
0.769841
0.769921
0.769962
0.769982
0.769992
0.769996
0.769998
0.769999
0.77
0.77
0.77
0.77
0.77
0.77
0.77
0.77
0.77
0.77
0.77
2.26242e-06
9.88779e-06
2.27155e-05
4.42231e-05
8.0107e-05
0.000139588
0.000237387
0.000396623
0.000652939
0.00106009
0.00169709
0.0026766
0.00415346
0.00633114
0.0094626
0.0138415
0.0197805
0.027578
0.0374788
0.0496409
0.0641167
0.0808531
0.0997065
0.120465
0.142872
0.166644
0.191491
0.217121
0.243256
0.269633
0.296014
0.322181
0.347948
0.373154
0.397666
0.421373
0.444186
0.466043
0.486897
0.506721
0.525504
0.543247
0.559961
0.575667
0.590394
0.604173
0.617044
0.629047
0.640223
0.650616
0.66027
0.669229
0.677534
0.685228
0.69235
0.69894
0.704988
0.710453
0.715683
0.720518
0.724993
0.729064
0.732975
0.736699
0.740242
0.743603
0.746784
0.749783
0.752597
0.755221
0.757649
0.759872
0.761875
0.76367
0.765241
0.766579
0.767664
0.768493
0.769085
0.769477
0.769717
0.769854
0.769928
0.769965
0.769984
0.769992
0.769997
0.769998
0.769999
0.77
0.77
0.77
0.77
0.77
0.77
0.77
0.77
0.77
0.77
0.77
2.25271e-06
9.84526e-06
2.26172e-05
4.40297e-05
7.97522e-05
0.00013896
0.000236301
0.000394779
0.000649856
0.00105502
0.00168889
0.00266362
0.00413336
0.0063008
0.00941812
0.0137783
0.019694
0.0274636
0.0373333
0.0494626
0.0639059
0.0806121
0.0994395
0.120178
0.142571
0.166338
0.191187
0.216828
0.242982
0.269386
0.295799
0.322007
0.347819
0.373074
0.397635
0.421392
0.44426
0.466169
0.487076
0.506951
0.525782
0.54357
0.560325
0.576068
0.590827
0.604636
0.61753
0.629552
0.640744
0.651148
0.66081
0.669772
0.678077
0.685767
0.692884
0.699465
0.705494
0.710939
0.716152
0.720969
0.725426
0.729494
0.733399
0.737116
0.740647
0.743997
0.747163
0.750144
0.752937
0.755538
0.757941
0.760137
0.762125
0.763891
0.765427
0.766719
0.767768
0.768572
0.76914
0.769511
0.769737
0.769865
0.769933
0.769968
0.769985
0.769993
0.769997
0.769999
0.769999
0.77
0.77
0.77
0.77
0.77
0.77
0.77
0.77
0.77
0.77
0.77
2.24394e-06
9.80685e-06
2.25285e-05
4.38559e-05
7.94342e-05
0.0001384
0.000235336
0.000393148
0.000647144
0.00105058
0.00168178
0.00265243
0.00411616
0.00627504
0.00938065
0.0137256
0.0196223
0.0273697
0.037215
0.049319
0.063738
0.0804225
0.0992322
0.119958
0.142345
0.166112
0.190968
0.216623
0.242797
0.269228
0.295673
0.321918
0.34777
0.373066
0.397671
0.421475
0.444388
0.466343
0.487293
0.50721
0.52608
0.543904
0.560692
0.576464
0.591249
0.605078
0.617991
0.630027
0.641228
0.65164
0.661304
0.670266
0.678569
0.686254
0.693363
0.699934
0.705945
0.711372
0.716568
0.721372
0.725809
0.729876
0.733776
0.737484
0.741005
0.744341
0.747492
0.750455
0.753228
0.755807
0.758187
0.760365
0.762334
0.764079
0.76559
0.766857
0.767874
0.768642
0.769188
0.769541
0.769754
0.769874
0.769938
0.76997
0.769986
0.769993
0.769997
0.769999
0.769999
0.77
0.77
0.77
0.77
0.77
0.77
0.77
0.77
0.77
0.77
0.77
2.23625e-06
9.77321e-06
2.2451e-05
4.37041e-05
7.91572e-05
0.000137913
0.000234501
0.000391742
0.000644816
0.00104679
0.00167573
0.00264296
0.0041017
0.00625352
0.00934958
0.0136822
0.0195637
0.0272937
0.0371201
0.049205
0.0636061
0.0802754
0.0990736
0.119793
0.142178
0.16595
0.190816
0.216486
0.242681
0.269137
0.295613
0.32189
0.347776
0.373109
0.397753
0.421597
0.444549
0.466542
0.487528
0.507479
0.526381
0.544234
0.561047
0.576842
0.591646
0.605492
0.618417
0.630462
0.64167
0.652084
0.66175
0.67071
0.679008
0.686686
0.693786
0.700344
0.706335
0.711751
0.716937
0.721725
0.726146
0.730212
0.734104
0.737804
0.741314
0.744636
0.74777
0.750719
0.753478
0.756045
0.758414
0.760576
0.762521
0.764242
0.765728
0.76697
0.767961
0.768707
0.769228
0.769566
0.769768
0.769881
0.769941
0.769972
0.769987
0.769994
0.769997
0.769999
0.769999
0.77
0.77
0.77
0.77
0.77
0.77
0.77
0.77
0.77
0.77
0.77
2.22967e-06
9.74447e-06
2.23848e-05
4.35748e-05
7.89216e-05
0.0001375
0.000233794
0.000390555
0.000642858
0.00104362
0.00167068
0.00263511
0.00408977
0.00623587
0.00932424
0.013647
0.0195166
0.0272331
0.037045
0.0491158
0.0635041
0.080163
0.0989544
0.119671
0.142058
0.165836
0.190713
0.2164
0.242615
0.269095
0.295597
0.321902
0.34782
0.373186
0.397864
0.42174
0.444725
0.466749
0.487765
0.507744
0.526671
0.544546
0.56138
0.577192
0.592011
0.605868
0.618802
0.630853
0.642064
0.65248
0.662144
0.6711
0.679393
0.687064
0.694153
0.700702
0.706681
0.712086
0.717258
0.722031
0.72643
0.730499
0.734386
0.738078
0.741578
0.744893
0.748022
0.750962
0.753709
0.756261
0.758612
0.760754
0.762679
0.764379
0.765844
0.767064
0.768032
0.768757
0.76926
0.769585
0.769779
0.769887
0.769944
0.769973
0.769987
0.769994
0.769997
0.769999
0.769999
0.77
0.77
0.77
0.77
0.77
0.77
0.77
0.77
0.77
0.77
0.77
2.22418e-06
9.72045e-06
2.23296e-05
4.34669e-05
7.87254e-05
0.000137157
0.000233208
0.000389574
0.000641245
0.00104102
0.00166656
0.00262872
0.00408009
0.00622162
0.0093039
0.0136189
0.0194793
0.0271854
0.0369865
0.049047
0.0634263
0.0800786
0.0988664
0.119583
0.141974
0.16576
0.190648
0.21635
0.242584
0.269085
0.29561
0.321942
0.347887
0.373281
0.397986
0.42189
0.444902
0.466952
0.487992
0.507993
0.52694
0.544833
0.561683
0.577508
0.592337
0.606202
0.619142
0.631197
0.64241
0.652825
0.662487
0.671439
0.679725
0.687387
0.694469
0.701012
0.706977
0.712371
0.717533
0.722295
0.726667
0.730742
0.734624
0.738311
0.741808
0.745116
0.748236
0.751165
0.753901
0.756439
0.758776
0.760902
0.762811
0.764494
0.765941
0.767142
0.768092
0.7688
0.769289
0.769601
0.769788
0.769892
0.769947
0.769975
0.769988
0.769994
0.769998
0.769999
0.77
0.77
0.77
0.77
0.77
0.77
0.77
0.77
0.77
0.77
0.77
0.77
2.21969e-06
9.70084e-06
2.22845e-05
4.3379e-05
7.85657e-05
0.000136877
0.000232733
0.00038878
0.000639943
0.00103892
0.00166324
0.0026236
0.00407238
0.00621034
0.00928787
0.0135969
0.0194503
0.0271485
0.0369417
0.0489947
0.063368
0.0800163
0.0988026
0.119521
0.141916
0.16571
0.19061
0.216325
0.242575
0.269095
0.295641
0.321995
0.347963
0.37338
0.398108
0.422035
0.445069
0.46714
0.488199
0.508218
0.527181
0.545088
0.561949
0.577784
0.59262
0.606492
0.619435
0.631492
0.642705
0.653119
0.662777
0.671723
0.680003
0.687661
0.694739
0.701274
0.707226
0.71261
0.717762
0.722513
0.726861
0.730944
0.734824
0.738507
0.741998
0.7453
0.748411
0.751332
0.754058
0.756586
0.75891
0.761024
0.76292
0.764588
0.76602
0.767206
0.768142
0.768835
0.769312
0.769616
0.769796
0.769896
0.769949
0.769976
0.769989
0.769995
0.769998
0.769999
0.77
0.77
0.77
0.77
0.77
0.77
0.77
0.77
0.77
0.77
0.77
0.77
2.21612e-06
9.68523e-06
2.22486e-05
4.33091e-05
7.84389e-05
0.000136656
0.000232356
0.000388153
0.000638916
0.00103727
0.00166065
0.00261961
0.00406639
0.00620158
0.00927549
0.01358
0.0194281
0.0271206
0.036908
0.0489559
0.0633251
0.0799712
0.0987575
0.119478
0.141879
0.16568
0.190589
0.216317
0.242581
0.269117
0.29568
0.322052
0.348039
0.373475
0.398222
0.422167
0.445218
0.467305
0.48838
0.508412
0.527388
0.545305
0.562175
0.578017
0.592859
0.606734
0.61968
0.631738
0.64295
0.65336
0.663015
0.671959
0.680237
0.68789
0.694961
0.701488
0.707432
0.712807
0.71795
0.722693
0.727019
0.731108
0.734983
0.738663
0.742151
0.745447
0.748553
0.751466
0.754185
0.756704
0.759019
0.761123
0.763007
0.764665
0.766084
0.767258
0.768181
0.768863
0.769331
0.769628
0.769803
0.7699
0.769951
0.769976
0.769989
0.769995
0.769998
0.769999
0.77
0.77
0.77
0.77
0.77
0.77
0.77
0.77
0.77
0.77
0.77
0.77
2.21337e-06
9.67325e-06
2.22211e-05
4.32555e-05
7.83417e-05
0.000136487
0.000232069
0.000387674
0.000638134
0.00103602
0.00165868
0.00261659
0.00406186
0.006195
0.00926623
0.0135675
0.0194116
0.0271
0.0368834
0.0489277
0.0632945
0.0799394
0.0987263
0.119449
0.141854
0.165662
0.19058
0.216318
0.242593
0.269142
0.295719
0.322105
0.348107
0.373558
0.39832
0.422279
0.445343
0.467443
0.488529
0.508572
0.527556
0.545482
0.562358
0.578205
0.593051
0.606929
0.619875
0.631932
0.643143
0.653554
0.663208
0.672149
0.680423
0.688072
0.695137
0.701659
0.707595
0.712963
0.718101
0.722837
0.727148
0.731234
0.735108
0.738785
0.742269
0.745562
0.748663
0.751571
0.754283
0.756796
0.759104
0.761199
0.763075
0.764724
0.766134
0.767298
0.768211
0.768884
0.769345
0.769636
0.769808
0.769902
0.769952
0.769977
0.769989
0.769995
0.769998
0.769999
0.77
0.77
0.77
0.77
0.77
0.77
0.77
0.77
0.77
0.77
0.77
0.77
2.21139e-06
9.66457e-06
2.22012e-05
4.32166e-05
7.82713e-05
0.000136364
0.000231861
0.000387328
0.00063757
0.00103512
0.00165727
0.00261442
0.00405863
0.00619031
0.00925963
0.0135585
0.0194
0.0270856
0.0368662
0.0489082
0.0632735
0.0799179
0.0987056
0.119431
0.14184
0.165652
0.190577
0.216322
0.242607
0.269165
0.295753
0.32215
0.348162
0.373624
0.398396
0.422366
0.44544
0.467549
0.488644
0.508694
0.527685
0.545615
0.562496
0.578346
0.593195
0.607073
0.620021
0.632079
0.643291
0.6537
0.663352
0.672291
0.680562
0.688207
0.695269
0.701787
0.707716
0.71308
0.718213
0.722944
0.727244
0.731327
0.7352
0.738875
0.742357
0.745646
0.748744
0.751648
0.754356
0.756864
0.759166
0.761256
0.763126
0.764767
0.766171
0.767327
0.768233
0.7689
0.769355
0.769642
0.769811
0.769904
0.769953
0.769978
0.769989
0.769995
0.769998
0.769999
0.77
0.77
0.77
0.77
0.77
0.77
0.77
0.77
0.77
0.77
0.77
0.77
2.2101e-06
9.65894e-06
2.21882e-05
4.31914e-05
7.82257e-05
0.000136285
0.000231726
0.000387104
0.000637206
0.00103453
0.00165635
0.00261302
0.00405654
0.00618729
0.00925541
0.0135528
0.0193926
0.0270764
0.0368553
0.048896
0.0632604
0.0799047
0.0986932
0.11942
0.141831
0.165648
0.190577
0.216327
0.242618
0.269183
0.295777
0.322181
0.3482
0.373669
0.398449
0.422425
0.445506
0.46762
0.48872
0.508775
0.52777
0.545704
0.562588
0.578441
0.593291
0.607171
0.62012
0.632178
0.643389
0.653798
0.663448
0.672386
0.680654
0.688297
0.695356
0.701871
0.707796
0.713157
0.718287
0.723016
0.727307
0.731388
0.73526
0.738934
0.742414
0.745702
0.748797
0.751699
0.754404
0.756908
0.759207
0.761293
0.763159
0.764796
0.766194
0.767346
0.768248
0.76891
0.769362
0.769646
0.769813
0.769905
0.769954
0.769978
0.76999
0.769995
0.769998
0.769999
0.77
0.77
0.77
0.77
0.77
0.77
0.77
0.77
0.77
0.77
0.77
0.77
2.20947e-06
9.65621e-06
2.2182e-05
4.31793e-05
7.82038e-05
0.000136247
0.000231662
0.000386998
0.000637032
0.00103426
0.00165592
0.00261236
0.00405556
0.00618587
0.00925343
0.0135502
0.0193892
0.0270721
0.0368503
0.0488903
0.0632543
0.0798986
0.0986875
0.119415
0.141828
0.165646
0.190577
0.21633
0.242624
0.269192
0.295789
0.322197
0.34822
0.373692
0.398475
0.422455
0.445539
0.467656
0.488759
0.508816
0.527813
0.545749
0.562634
0.578488
0.593339
0.60722
0.620169
0.632228
0.643438
0.653846
0.663496
0.672432
0.6807
0.688342
0.695399
0.701913
0.707836
0.713195
0.718324
0.723051
0.727339
0.731418
0.735289
0.738963
0.742442
0.745729
0.748823
0.751724
0.754427
0.75693
0.759227
0.761311
0.763175
0.764809
0.766206
0.767355
0.768255
0.768915
0.769365
0.769648
0.769814
0.769906
0.769954
0.769978
0.76999
0.769995
0.769998
0.769999
0.77
0.77
0.77
0.77
0.77
0.77
0.77
0.77
0.77
0.77
0.77
0.77
2.20948e-06
9.65626e-06
2.21821e-05
4.31795e-05
7.82042e-05
0.000136247
0.000231663
0.000387
0.000637035
0.00103426
0.00165593
0.00261237
0.00405558
0.00618591
0.00925347
0.0135502
0.0193893
0.0270722
0.0368504
0.0488905
0.0632545
0.0798989
0.0986877
0.119415
0.141828
0.165646
0.190577
0.216331
0.242624
0.269192
0.29579
0.322197
0.34822
0.373693
0.398476
0.422455
0.445539
0.467657
0.488759
0.508816
0.527813
0.545749
0.562634
0.578489
0.593339
0.60722
0.620169
0.632228
0.643438
0.653846
0.663496
0.672432
0.6807
0.688342
0.695399
0.701913
0.707836
0.713195
0.718324
0.723051
0.727339
0.731418
0.735289
0.738963
0.742442
0.745729
0.748823
0.751724
0.754427
0.75693
0.759227
0.761311
0.763175
0.764809
0.766206
0.767355
0.768255
0.768915
0.769365
0.769648
0.769814
0.769906
0.769954
0.769978
0.76999
0.769995
0.769998
0.769999
0.77
0.77
0.77
0.77
0.77
0.77
0.77
0.77
0.77
0.77
0.77
0.77
2.21013e-06
9.65908e-06
2.21886e-05
4.31921e-05
7.82268e-05
0.000136287
0.000231729
0.00038711
0.000637215
0.00103455
0.00165638
0.00261306
0.0040566
0.00618738
0.00925554
0.013553
0.0193929
0.0270767
0.0368558
0.0488965
0.063261
0.0799054
0.098694
0.119421
0.141832
0.165649
0.190578
0.216328
0.242619
0.269184
0.295778
0.322182
0.348202
0.37367
0.39845
0.422426
0.445507
0.467621
0.488721
0.508776
0.527771
0.545705
0.562588
0.578441
0.593291
0.607172
0.620121
0.632179
0.64339
0.653798
0.663449
0.672386
0.680655
0.688297
0.695356
0.701871
0.707796
0.713157
0.718287
0.723016
0.727307
0.731388
0.73526
0.738934
0.742414
0.745702
0.748797
0.751699
0.754404
0.756908
0.759207
0.761293
0.763159
0.764796
0.766194
0.767346
0.768248
0.76891
0.769362
0.769646
0.769813
0.769905
0.769954
0.769978
0.76999
0.769995
0.769998
0.769999
0.77
0.77
0.77
0.77
0.77
0.77
0.77
0.77
0.77
0.77
0.77
0.77
2.21144e-06
9.66481e-06
2.22017e-05
4.32177e-05
7.82733e-05
0.000136368
0.000231867
0.000387338
0.000637586
0.00103514
0.00165731
0.00261448
0.00405873
0.00619046
0.00925985
0.0135588
0.0194005
0.0270861
0.0368669
0.0489091
0.0632745
0.0799191
0.098707
0.119432
0.141841
0.165654
0.190579
0.216324
0.242609
0.269167
0.295755
0.322151
0.348164
0.373626
0.398398
0.422368
0.445442
0.467551
0.488645
0.508695
0.527686
0.545616
0.562497
0.578348
0.593195
0.607074
0.620022
0.63208
0.643292
0.653701
0.663353
0.672292
0.680563
0.688208
0.695269
0.701787
0.707716
0.71308
0.718213
0.722945
0.727244
0.731327
0.7352
0.738875
0.742357
0.745646
0.748744
0.751648
0.754356
0.756864
0.759166
0.761256
0.763126
0.764767
0.766171
0.767327
0.768233
0.7689
0.769355
0.769642
0.769811
0.769904
0.769953
0.769978
0.769989
0.769995
0.769998
0.769999
0.77
0.77
0.77
0.77
0.77
0.77
0.77
0.77
0.77
0.77
0.77
0.77
2.21345e-06
9.67358e-06
2.22219e-05
4.32569e-05
7.83444e-05
0.000136492
0.000232077
0.000387687
0.000638156
0.00103605
0.00165874
0.00261667
0.004062
0.00619521
0.00926653
0.0135679
0.0194122
0.0271008
0.0368844
0.0489289
0.0632959
0.0799411
0.0987282
0.119451
0.141857
0.165664
0.190583
0.21632
0.242596
0.269145
0.295722
0.322108
0.348109
0.37356
0.398322
0.422281
0.445345
0.467445
0.488531
0.508574
0.527558
0.545483
0.56236
0.578207
0.593053
0.60693
0.619876
0.631933
0.643144
0.653554
0.663208
0.67215
0.680424
0.688073
0.695138
0.70166
0.707595
0.712964
0.718101
0.722838
0.727149
0.731234
0.735108
0.738786
0.74227
0.745562
0.748663
0.751571
0.754283
0.756796
0.759104
0.761199
0.763076
0.764724
0.766134
0.767298
0.768211
0.768884
0.769345
0.769636
0.769808
0.769902
0.769952
0.769977
0.769989
0.769995
0.769998
0.769999
0.77
0.77
0.77
0.77
0.77
0.77
0.77
0.77
0.77
0.77
0.77
0.77
2.21621e-06
9.68565e-06
2.22496e-05
4.3311e-05
7.84423e-05
0.000136662
0.000232366
0.00038817
0.000638944
0.00103732
0.00166072
0.00261972
0.00406656
0.00620184
0.00927587
0.0135806
0.0194288
0.0271216
0.0369093
0.0489574
0.063327
0.0799733
0.0987599
0.11948
0.141881
0.165683
0.190593
0.21632
0.242584
0.26912
0.295684
0.322055
0.348042
0.373478
0.398225
0.42217
0.445221
0.467308
0.488383
0.508415
0.52739
0.545307
0.562177
0.578019
0.592861
0.606736
0.619682
0.631739
0.642951
0.653362
0.663016
0.67196
0.680238
0.687891
0.694962
0.701489
0.707433
0.712807
0.717951
0.722694
0.727019
0.731108
0.734984
0.738664
0.742151
0.745447
0.748553
0.751466
0.754185
0.756704
0.759019
0.761123
0.763007
0.764665
0.766084
0.767258
0.768181
0.768863
0.769331
0.769628
0.769803
0.7699
0.769951
0.769976
0.769989
0.769995
0.769998
0.769999
0.77
0.77
0.77
0.77
0.77
0.77
0.77
0.77
0.77
0.77
0.77
0.77
2.21981e-06
9.70134e-06
2.22857e-05
4.33812e-05
7.85698e-05
0.000136885
0.000232745
0.000388801
0.000639977
0.00103897
0.00166333
0.00262374
0.0040726
0.00621065
0.00928833
0.0135976
0.0194512
0.0271497
0.0369432
0.0489966
0.0633703
0.0800189
0.0988056
0.119524
0.14192
0.165714
0.190614
0.216329
0.24258
0.269099
0.295646
0.321999
0.347967
0.373384
0.398112
0.422039
0.445072
0.467143
0.488203
0.508221
0.527184
0.545091
0.561951
0.577786
0.592623
0.606494
0.619437
0.631494
0.642707
0.65312
0.662778
0.671725
0.680005
0.687662
0.69474
0.701275
0.707227
0.71261
0.717762
0.722514
0.726861
0.730945
0.734824
0.738507
0.741999
0.7453
0.748412
0.751332
0.754058
0.756586
0.758911
0.761024
0.76292
0.764589
0.76602
0.767206
0.768142
0.768835
0.769312
0.769616
0.769796
0.769896
0.769949
0.769976
0.769989
0.769995
0.769998
0.769999
0.77
0.77
0.77
0.77
0.77
0.77
0.77
0.77
0.77
0.77
0.77
0.77
2.22431e-06
9.72105e-06
2.2331e-05
4.34696e-05
7.87303e-05
0.000137165
0.000233223
0.000389598
0.000641285
0.00104108
0.00166666
0.00262888
0.00408034
0.006222
0.00930445
0.0136197
0.0194804
0.0271868
0.0369883
0.0490492
0.063429
0.0800817
0.0988699
0.119587
0.141978
0.165764
0.190653
0.216355
0.242588
0.26909
0.295615
0.321947
0.347892
0.373285
0.397991
0.421894
0.444906
0.466956
0.487996
0.507997
0.526944
0.544837
0.561686
0.577511
0.592339
0.606205
0.619144
0.631199
0.642412
0.652827
0.662488
0.671441
0.679726
0.687389
0.69447
0.701013
0.706978
0.712372
0.717534
0.722296
0.726668
0.730743
0.734625
0.738312
0.741809
0.745117
0.748236
0.751165
0.753901
0.75644
0.758776
0.760902
0.762811
0.764494
0.765941
0.767142
0.768093
0.7688
0.769289
0.769601
0.769788
0.769892
0.769947
0.769975
0.769988
0.769994
0.769998
0.769999
0.77
0.77
0.77
0.77
0.77
0.77
0.77
0.77
0.77
0.77
0.77
0.77
2.22983e-06
9.74516e-06
2.23864e-05
4.35779e-05
7.89272e-05
0.00013751
0.000233811
0.000390583
0.000642905
0.0010437
0.0016708
0.0026353
0.00409006
0.0062363
0.00932487
0.0136479
0.0195178
0.0272347
0.0370471
0.0491184
0.0635072
0.0801666
0.0989585
0.119675
0.142063
0.165841
0.190719
0.216405
0.24262
0.269101
0.295603
0.321908
0.347826
0.373192
0.397869
0.421745
0.44473
0.466754
0.48777
0.507748
0.526675
0.54455
0.561384
0.577196
0.592014
0.605871
0.618804
0.630856
0.642067
0.652482
0.662146
0.671102
0.679395
0.687066
0.694154
0.700703
0.706683
0.712087
0.717259
0.722032
0.726431
0.7305
0.734386
0.738079
0.741579
0.744894
0.748023
0.750962
0.75371
0.756261
0.758612
0.760754
0.762679
0.764379
0.765844
0.767064
0.768033
0.768757
0.76926
0.769585
0.769779
0.769887
0.769944
0.769973
0.769987
0.769994
0.769997
0.769999
0.769999
0.77
0.77
0.77
0.77
0.77
0.77
0.77
0.77
0.77
0.77
0.77
2.23643e-06
9.774e-06
2.24528e-05
4.37077e-05
7.91637e-05
0.000137924
0.00023452
0.000391774
0.000644869
0.00104688
0.00167586
0.00264318
0.00410203
0.00625401
0.0093503
0.0136832
0.0195651
0.0272956
0.0371224
0.049208
0.0636096
0.0802794
0.0990782
0.119798
0.142184
0.165956
0.190822
0.216492
0.242687
0.269144
0.29562
0.321896
0.347783
0.373116
0.39776
0.421603
0.444555
0.466547
0.487534
0.507484
0.526386
0.544238
0.561051
0.576846
0.59165
0.605495
0.61842
0.630465
0.641673
0.652087
0.661752
0.670712
0.67901
0.686688
0.693787
0.700345
0.706337
0.711752
0.716938
0.721726
0.726146
0.730212
0.734105
0.737804
0.741315
0.744636
0.747771
0.750719
0.753479
0.756045
0.758415
0.760576
0.762521
0.764242
0.765729
0.76697
0.767961
0.768707
0.769228
0.769566
0.769768
0.769881
0.769941
0.769972
0.769987
0.769994
0.769997
0.769999
0.769999
0.77
0.77
0.77
0.77
0.77
0.77
0.77
0.77
0.77
0.77
0.77
2.24414e-06
9.80775e-06
2.25306e-05
4.386e-05
7.94416e-05
0.000138413
0.000235358
0.000393185
0.000647205
0.00105068
0.00168193
0.00265267
0.00411653
0.00627559
0.00938146
0.0137267
0.0196238
0.0273718
0.0372177
0.0493223
0.0637419
0.080427
0.0992374
0.119964
0.142351
0.166119
0.190975
0.21663
0.242805
0.269235
0.295681
0.321926
0.347778
0.373073
0.397678
0.421481
0.444394
0.466349
0.487299
0.507216
0.526086
0.543909
0.560697
0.576469
0.591253
0.605082
0.617995
0.63003
0.641232
0.651643
0.661307
0.670269
0.678571
0.686256
0.693364
0.699936
0.705946
0.711374
0.71657
0.721373
0.72581
0.729877
0.733776
0.737485
0.741006
0.744342
0.747492
0.750455
0.753228
0.755807
0.758187
0.760365
0.762335
0.76408
0.765591
0.766858
0.767874
0.768642
0.769188
0.769541
0.769754
0.769874
0.769938
0.76997
0.769986
0.769993
0.769997
0.769999
0.769999
0.77
0.77
0.77
0.77
0.77
0.77
0.77
0.77
0.77
0.77
0.77
2.25294e-06
9.84627e-06
2.26195e-05
4.40343e-05
7.97605e-05
0.000138975
0.000236326
0.00039482
0.000649924
0.00105513
0.00168907
0.00266389
0.00413378
0.00630143
0.00941904
0.0137796
0.0196957
0.027466
0.0373363
0.0494663
0.0639103
0.0806172
0.0994453
0.120184
0.142578
0.166346
0.191195
0.216836
0.24299
0.269394
0.295808
0.322015
0.347827
0.373082
0.397643
0.4214
0.444267
0.466177
0.487083
0.506958
0.525788
0.543575
0.56033
0.576073
0.590832
0.60464
0.617535
0.629556
0.640748
0.651152
0.660813
0.669774
0.678079
0.68577
0.692886
0.699467
0.705496
0.710941
0.716153
0.720971
0.725428
0.729495
0.7334
0.737117
0.740648
0.743997
0.747163
0.750145
0.752938
0.755539
0.757941
0.760138
0.762125
0.763892
0.765427
0.766719
0.767768
0.768572
0.76914
0.769511
0.769737
0.769865
0.769933
0.769968
0.769985
0.769993
0.769997
0.769999
0.769999
0.77
0.77
0.77
0.77
0.77
0.77
0.77
0.77
0.77
0.77
0.77
2.26268e-06
9.88894e-06
2.27181e-05
4.42282e-05
8.01163e-05
0.000139604
0.000237414
0.000396669
0.000653015
0.00106021
0.00169728
0.00267691
0.00415393
0.00633184
0.00946362
0.0138429
0.0197825
0.0275806
0.0374821
0.049645
0.0641215
0.0808587
0.0997128
0.120472
0.142879
0.166652
0.191499
0.21713
0.243265
0.269643
0.296023
0.322191
0.347958
0.373164
0.397675
0.421382
0.444195
0.466051
0.486904
0.506728
0.525511
0.543253
0.559967
0.575673
0.590399
0.604178
0.617049
0.629051
0.640227
0.65062
0.660274
0.669232
0.677537
0.68523
0.692353
0.698943
0.70499
0.710455
0.715685
0.72052
0.724994
0.729065
0.732976
0.7367
0.740243
0.743604
0.746785
0.749784
0.752598
0.755222
0.757649
0.759872
0.761876
0.76367
0.765242
0.766579
0.767664
0.768493
0.769085
0.769477
0.769717
0.769854
0.769928
0.769965
0.769984
0.769992
0.769997
0.769998
0.769999
0.77
0.77
0.77
0.77
0.77
0.77
0.77
0.77
0.77
0.77
0.77
2.273e-06
9.9342e-06
2.2823e-05
4.44352e-05
8.04976e-05
0.000140282
0.000238593
0.000398685
0.000656408
0.00106584
0.00170645
0.00269156
0.00417683
0.00636674
0.00951531
0.0139171
0.0198852
0.0277178
0.0376585
0.0498636
0.064383
0.0811612
0.100052
0.120842
0.143272
0.167059
0.19191
0.217535
0.243655
0.270008
0.296355
0.322481
0.348199
0.37335
0.397803
0.42145
0.444204
0.465997
0.486788
0.506552
0.525276
0.542963
0.559626
0.575285
0.589969
0.603712
0.61655
0.628526
0.63968
0.650056
0.659697
0.668647
0.676949
0.684642
0.691768
0.698364
0.704451
0.70993
0.715171
0.720019
0.724506
0.728584
0.7325
0.736232
0.739784
0.743159
0.746356
0.749374
0.75221
0.75486
0.757318
0.759578
0.761623
0.763455
0.765061
0.766427
0.767539
0.768399
0.769021
0.769437
0.769694
0.769841
0.769921