/*--------------------------------*- C++ -*----------------------------------*\
  =========                 |
  \\      /  F ield         | OpenFOAM: The Open Source CFD Toolbox
   \\    /   O peration     | Website:  https://openfoam.org
    \\  /    A nd           | Version:  8
     \\/     M anipulation  |
\*---------------------------------------------------------------------------*/
FoamFile
{
    version     2.0;
    format      ascii;
    class       volScalarField;
    location    "580/fluid";
    object      O2;
}
// * * * * * * * * * * * * * * * * * * * * * * * * * * * * * * * * * * * * * //

dimensions      [0 0 0 0 0 0 0];

internalField   nonuniform List<scalar> 
4000
(
4.50611e-10
1.96746e-09
4.51038e-09
8.75331e-09
1.57923e-08
2.7389e-08
4.63361e-08
7.69872e-08
1.25995e-07
2.0329e-07
3.23272e-07
5.06102e-07
7.78771e-07
1.17553e-06
1.73604e-06
2.5042e-06
3.51998e-06
4.81304e-06
6.39581e-06
8.25944e-06
1.03739e-05
1.26918e-05
1.51544e-05
1.76974e-05
2.02564e-05
2.277e-05
2.51831e-05
2.74474e-05
2.95229e-05
3.13787e-05
3.29943e-05
3.43632e-05
3.54988e-05
3.64441e-05
3.72856e-05
3.81672e-05
3.9304e-05
4.09928e-05
4.36234e-05
4.76943e-05
5.38411e-05
6.28805e-05
7.58688e-05
9.41785e-05
0.000119599
0.000154403
0.000201625
0.000265418
0.000351071
0.000465554
0.00061804
0.000820581
0.00108899
0.00144403
0.00191288
0.00253123
0.00334589
0.00440492
0.00577978
0.0076352
0.0100749
0.013289
0.0174735
0.03392
0.0505967
0.067234
0.083624
0.0996039
0.115044
0.129839
0.143898
0.157143
0.169499
0.180837
0.191195
0.200414
0.208396
0.215044
0.220283
0.22412
0.226693
0.228262
0.229139
0.229591
0.229811
0.229915
0.229962
0.229984
0.229993
0.229997
0.229999
0.229999
0.23
0.23
0.23
0.23
0.23
0.23
0.23
0.23
4.58495e-10
2.00327e-09
4.59828e-09
8.93905e-09
1.61591e-08
2.80829e-08
4.76048e-08
7.92346e-08
1.2985e-07
2.09663e-07
3.3347e-07
5.21851e-07
8.0198e-07
1.20725e-06
1.7813e-06
2.56652e-06
3.60332e-06
4.92208e-06
6.53627e-06
8.4382e-06
1.05988e-05
1.29712e-05
1.54963e-05
1.81092e-05
2.07438e-05
2.33369e-05
2.58311e-05
2.81761e-05
3.03298e-05
3.22593e-05
3.39429e-05
3.5373e-05
3.65627e-05
3.75566e-05
3.8444e-05
3.9375e-05
4.05737e-05
4.23495e-05
4.51067e-05
4.93599e-05
5.57606e-05
6.51401e-05
7.85671e-05
9.74273e-05
0.000123403
0.000158878
0.000207127
0.000272048
0.000358959
0.000474849
0.000628903
0.000833182
0.00110352
0.00146069
0.00193198
0.00255322
0.0033716
0.00443499
0.00581702
0.00768626
0.0101508
0.0134111
0.0187098
0.0353277
0.0521244
0.0688498
0.0853065
0.101337
0.116814
0.131632
0.1457
0.158936
0.171262
0.182537
0.192802
0.201883
0.20968
0.216096
0.221074
0.224653
0.227011
0.228429
0.229217
0.229625
0.229825
0.22992
0.229964
0.229984
0.229993
0.229997
0.229999
0.229999
0.23
0.23
0.23
0.23
0.23
0.23
0.23
0.23
4.69708e-10
2.05286e-09
4.71432e-09
9.16914e-09
1.65814e-08
2.88215e-08
4.88481e-08
8.12542e-08
1.3301e-07
2.14405e-07
3.40824e-07
5.334e-07
8.20612e-07
1.23919e-06
1.82853e-06
2.63317e-06
3.69493e-06
5.04571e-06
6.70062e-06
8.6535e-06
1.08765e-05
1.33235e-05
1.59355e-05
1.86464e-05
2.13887e-05
2.40974e-05
2.67122e-05
2.918e-05
3.1456e-05
3.35046e-05
3.53016e-05
3.68377e-05
3.81254e-05
3.92104e-05
4.01866e-05
4.12126e-05
4.25265e-05
4.44566e-05
4.74305e-05
5.1988e-05
5.88071e-05
6.8746e-05
8.28775e-05
0.000102479
0.000129466
0.000166415
0.000216233
0.000282987
0.000372017
0.000490335
0.000647143
0.000854518
0.0011283
0.00148929
0.00196476
0.00259058
0.00341396
0.00448191
0.00586864
0.00774429
0.0102135
0.0134742
0.0210979
0.0378084
0.054685
0.0714718
0.0879685
0.104016
0.119484
0.134266
0.148268
0.161405
0.173594
0.184709
0.194749
0.203563
0.211055
0.217148
0.221812
0.225122
0.227278
0.228568
0.229284
0.229655
0.229839
0.229926
0.229967
0.229985
0.229994
0.229997
0.229999
0.23
0.23
0.23
0.23
0.23
0.23
0.23
0.23
0.23
4.80096e-10
2.09794e-09
4.81719e-09
9.36876e-09
1.69437e-08
2.94585e-08
4.99528e-08
8.31688e-08
1.36371e-07
2.2047e-07
3.50668e-07
5.48483e-07
8.42582e-07
1.26913e-06
1.87072e-06
2.69317e-06
3.77995e-06
5.16492e-06
6.86521e-06
8.87656e-06
1.11725e-05
1.37075e-05
1.64223e-05
1.92498e-05
2.21207e-05
2.49676e-05
2.77275e-05
3.03444e-05
3.27703e-05
3.49667e-05
3.69068e-05
3.85791e-05
3.99954e-05
4.1203e-05
4.23014e-05
4.34601e-05
4.49346e-05
4.70771e-05
5.0344e-05
5.53069e-05
6.26701e-05
7.32768e-05
8.82009e-05
0.000108961
0.000137597
0.000176316
0.000228266
0.000297567
0.000389621
0.000511511
0.000672521
0.000884825
0.00116438
0.00153213
0.00201555
0.00265078
0.00348543
0.00456488
0.00596517
0.0078599
0.0103586
0.0136636
0.0241431
0.0408766
0.0577787
0.0745804
0.0910724
0.10709
0.122499
0.13719
0.151067
0.164041
0.176028
0.186949
0.196716
0.205229
0.212404
0.218175
0.222536
0.225588
0.227552
0.228716
0.229358
0.22969
0.229854
0.229933
0.22997
0.229987
0.229994
0.229997
0.229999
0.23
0.23
0.23
0.23
0.23
0.23
0.23
0.23
0.23
4.91942e-10
2.1502e-09
4.93909e-09
9.61027e-09
1.73883e-08
3.02424e-08
5.12903e-08
8.53793e-08
1.39889e-07
2.25774e-07
3.58822e-07
5.61023e-07
8.61716e-07
1.29801e-06
1.91375e-06
2.75637e-06
3.87127e-06
5.29448e-06
7.04539e-06
9.12173e-06
1.14986e-05
1.4131e-05
1.69597e-05
1.99166e-05
2.29307e-05
2.5932e-05
2.88549e-05
3.16402e-05
3.42367e-05
3.66028e-05
3.87086e-05
4.05406e-05
4.21099e-05
4.34662e-05
4.4716e-05
4.60421e-05
4.7721e-05
5.0133e-05
5.377e-05
5.92133e-05
6.71401e-05
7.849e-05
9.46369e-05
0.000117074
0.000147529
0.00018849
0.000243188
0.000315845
0.000411988
0.000538854
0.000705916
0.000925583
0.0012141
0.00159278
0.00208958
0.00274127
0.00359549
0.00469379
0.00612154
0.0080577
0.0106075
0.0139632
0.0273814
0.0440984
0.0609959
0.0777864
0.0942486
0.11021
0.125534
0.140107
0.153833
0.166625
0.178379
0.18906
0.198554
0.206771
0.213636
0.219098
0.223176
0.225994
0.227788
0.228842
0.229421
0.22972
0.229868
0.229939
0.229973
0.229988
0.229995
0.229998
0.229999
0.23
0.23
0.23
0.23
0.23
0.23
0.23
0.23
0.23
5.02321e-10
2.19547e-09
5.04273e-09
9.81104e-09
1.77497e-08
3.08669e-08
5.23417e-08
8.71169e-08
1.42719e-07
2.3033e-07
3.66095e-07
5.72527e-07
8.79717e-07
1.32584e-06
1.95618e-06
2.82004e-06
3.96505e-06
5.42976e-06
7.23604e-06
9.38382e-06
1.18497e-05
1.45895e-05
1.75436e-05
2.0643e-05
2.38147e-05
2.69864e-05
3.00894e-05
3.30615e-05
3.58479e-05
3.84039e-05
4.06964e-05
4.27097e-05
4.44546e-05
4.5984e-05
4.74135e-05
4.89423e-05
5.08726e-05
5.36047e-05
5.76334e-05
6.35858e-05
7.23078e-05
8.49379e-05
0.000102531
0.000126639
0.000159241
0.000202903
0.000260977
0.000337844
0.000439236
0.000572654
0.00074791
0.000977838
0.00127922
0.00167401
0.00219093
0.00286761
0.00375142
0.00488416
0.00636168
0.00835077
0.0109556
0.0143347
0.030362
0.0470762
0.0640001
0.0808033
0.097248
0.113157
0.128392
0.142843
0.156416
0.169026
0.180549
0.190998
0.20023
0.208167
0.214742
0.219922
0.223744
0.226355
0.227998
0.228955
0.229478
0.229748
0.229881
0.229945
0.229975
0.229989
0.229995
0.229998
0.229999
0.23
0.23
0.23
0.23
0.23
0.23
0.23
0.23
0.23
5.11752e-10
2.23659e-09
5.13689e-09
9.99374e-09
1.80797e-08
3.14413e-08
5.33195e-08
8.87561e-08
1.45434e-07
2.34782e-07
3.73319e-07
5.8412e-07
8.98098e-07
1.35458e-06
2.00045e-06
2.88701e-06
4.06437e-06
5.5738e-06
7.43992e-06
9.66502e-06
1.22274e-05
1.50838e-05
1.81743e-05
2.14289e-05
2.47728e-05
2.81309e-05
3.14319e-05
3.46097e-05
3.76064e-05
4.03734e-05
4.28744e-05
4.50916e-05
4.70354e-05
4.87629e-05
5.04001e-05
5.21635e-05
5.43556e-05
5.73744e-05
6.18082e-05
6.85235e-05
7.83646e-05
9.22185e-05
0.000111372
0.000137447
0.000172524
0.0002193
0.000281291
0.000363101
0.000470755
0.000612151
0.00079763
0.00104074
0.00135921
0.00177627
0.0023223
0.003037
0.00397194
0.00515792
0.00675511
0.00884139
0.0115601
0.0150273
0.0320429
0.0492979
0.0665117
0.0834542
0.0999411
0.115824
0.130985
0.145322
0.15875
0.171191
0.182521
0.192761
0.201747
0.209415
0.215718
0.220639
0.224234
0.226662
0.228176
0.229051
0.229527
0.229772
0.229892
0.22995
0.229977
0.22999
0.229996
0.229998
0.229999
0.23
0.23
0.23
0.23
0.23
0.23
0.23
0.23
0.23
5.20687e-10
2.27559e-09
5.22636e-09
1.01678e-08
1.83955e-08
3.19937e-08
5.42654e-08
9.03528e-08
1.481e-07
2.39188e-07
3.80528e-07
5.95791e-07
9.16768e-07
1.38404e-06
2.0462e-06
2.95678e-06
4.16857e-06
5.72582e-06
7.65611e-06
9.96439e-06
1.26308e-05
1.56131e-05
1.88514e-05
2.22745e-05
2.58058e-05
2.93678e-05
3.28857e-05
3.62903e-05
3.95195e-05
4.25211e-05
4.52554e-05
4.77018e-05
4.98713e-05
5.18258e-05
5.36906e-05
5.56758e-05
5.81258e-05
6.15833e-05
6.67945e-05
7.43655e-05
8.51936e-05
0.000100354
0.000121184
0.000149378
0.000187114
0.000237224
0.000303404
0.0003905
0.000504871
0.000654869
0.000851477
0.00110915
0.00144694
0.00189002
0.00247173
0.00323637
0.0042418
0.00553044
0.00728682
0.00961356
0.0127119
0.0167846
0.0340997
0.0515699
0.0689144
0.0859157
0.102403
0.118238
0.13331
0.147526
0.160804
0.173071
0.184212
0.194223
0.203003
0.210469
0.216551
0.221251
0.22465
0.226923
0.228327
0.229133
0.229569
0.229792
0.229902
0.229955
0.229979
0.229991
0.229996
0.229998
0.229999
0.23
0.23
0.23
0.23
0.23
0.23
0.23
0.23
0.23
5.29395e-10
2.31364e-09
5.3138e-09
1.03384e-08
1.8706e-08
3.25391e-08
5.52035e-08
9.19446e-08
1.50772e-07
2.43631e-07
3.87845e-07
6.0771e-07
9.3595e-07
1.41448e-06
2.09373e-06
3.0296e-06
4.27777e-06
5.88571e-06
7.88426e-06
1.02812e-05
1.3059e-05
1.61764e-05
1.95738e-05
2.31792e-05
2.6914e-05
3.06984e-05
3.44543e-05
3.81089e-05
4.15963e-05
4.48599e-05
4.78562e-05
5.05617e-05
5.29872e-05
5.5172e-05
5.72233e-05
5.94235e-05
6.23234e-05
6.64504e-05
7.23407e-05
8.07889e-05
9.27343e-05
0.000109307
0.000131905
0.000162292
0.00020274
0.000256197
0.000326514
0.000418737
0.000539488
0.000697464
0.000904106
0.00117448
0.00152846
0.00199233
0.00260094
0.00340065
0.00444508
0.00579211
0.00763151
0.0100708
0.0133254
0.0187283
0.0362136
0.0537893
0.0711863
0.0881946
0.104649
0.120417
0.135392
0.149481
0.162603
0.174677
0.185597
0.195402
0.203991
0.211301
0.217233
0.221766
0.225001
0.227143
0.228454
0.229202
0.229604
0.229809
0.22991
0.229958
0.229981
0.229992
0.229996
0.229998
0.229999
0.23
0.23
0.23
0.23
0.23
0.23
0.23
0.23
0.23
5.37964e-10
2.35109e-09
5.39999e-09
1.05069e-08
1.90133e-08
3.30801e-08
5.61372e-08
9.35346e-08
1.53452e-07
2.48107e-07
3.95247e-07
6.19825e-07
9.55539e-07
1.44571e-06
2.1427e-06
3.10495e-06
4.3912e-06
6.05241e-06
8.12292e-06
1.06138e-05
1.35098e-05
1.67714e-05
2.03394e-05
2.41411e-05
2.80964e-05
3.21231e-05
3.614e-05
4.00706e-05
4.38452e-05
4.74032e-05
5.06978e-05
5.36995e-05
5.63861e-05
5.87939e-05
6.1155e-05
6.38927e-05
6.73057e-05
7.19714e-05
7.85859e-05
8.79755e-05
0.000101114
0.000119173
0.000143597
0.00017621
0.000219358
0.000276081
0.000350342
0.000447325
0.000573812
0.000738693
0.000953622
0.0012339
0.00159964
0.0020773
0.00270177
0.00351913
0.00458075
0.00594137
0.00778865
0.0102175
0.0134201
0.0208222
0.0383305
0.0559121
0.0732949
0.0902681
0.106666
0.122356
0.137233
0.151207
0.164196
0.176129
0.186963
0.196617
0.205009
0.212071
0.217802
0.222199
0.225301
0.227331
0.228563
0.22926
0.229634
0.229824
0.229917
0.229962
0.229983
0.229992
0.229997
0.229999
0.229999
0.23
0.23
0.23
0.23
0.23
0.23
0.23
0.23
0.23
5.4639e-10
2.38794e-09
5.48486e-09
1.0673e-08
1.93167e-08
3.36157e-08
5.70639e-08
9.51175e-08
1.56129e-07
2.52592e-07
4.02694e-07
6.32059e-07
9.75395e-07
1.47749e-06
2.19271e-06
3.18216e-06
4.50785e-06
6.22441e-06
8.37003e-06
1.09593e-05
1.39799e-05
1.73943e-05
2.1144e-05
2.51561e-05
2.93495e-05
3.36396e-05
3.79422e-05
4.21771e-05
4.62702e-05
5.01566e-05
5.37776e-05
5.70698e-05
6.00345e-05
6.28102e-05
6.56967e-05
6.88867e-05
7.28405e-05
7.8172e-05
8.56226e-05
9.60572e-05
0.000110486
0.000130117
0.000156437
0.000191324
0.000237183
0.000297129
0.000375209
0.0004767
0.00060849
0.000779571
0.0010017
0.00129025
0.00166537
0.00215346
0.00278921
0.00361826
0.00468979
0.00605842
0.00791077
0.0103393
0.013532
0.0227969
0.0402996
0.0578593
0.0752038
0.0921212
0.108445
0.124044
0.138816
0.152674
0.165542
0.177377
0.188116
0.197649
0.205906
0.21283
0.218384
0.222582
0.225564
0.227493
0.228655
0.22931
0.229659
0.229836
0.229923
0.229964
0.229984
0.229993
0.229997
0.229999
0.229999
0.23
0.23
0.23
0.23
0.23
0.23
0.23
0.23
0.23
5.54606e-10
2.42388e-09
5.56768e-09
1.08352e-08
1.96136e-08
3.41407e-08
5.79743e-08
9.66763e-08
1.58772e-07
2.57035e-07
4.10093e-07
6.44254e-07
9.95256e-07
1.50938e-06
2.24308e-06
3.2602e-06
4.62616e-06
6.3995e-06
8.62254e-06
1.13138e-05
1.44643e-05
1.80389e-05
2.19807e-05
2.62172e-05
3.06665e-05
3.52423e-05
3.98578e-05
4.44291e-05
4.88771e-05
5.31228e-05
5.70684e-05
6.06744e-05
6.41007e-05
6.74429e-05
7.08005e-05
7.45256e-05
7.9114e-05
8.52196e-05
9.36208e-05
0.000105216
0.000121046
0.000142355
0.000170671
0.000207918
0.000256558
0.00031977
0.000401675
0.000507627
0.000644595
0.000821651
0.00105062
0.00134692
0.0017307
0.00222831
0.00287421
0.00371319
0.00479353
0.00617165
0.00803281
0.0104651
0.0136556
0.0245424
0.0420394
0.0595736
0.0768721
0.0937205
0.109962
0.125486
0.140186
0.153979
0.166791
0.178533
0.189142
0.198543
0.206664
0.213449
0.218864
0.222935
0.225783
0.22763
0.228733
0.229351
0.22968
0.229846
0.229928
0.229967
0.229985
0.229993
0.229997
0.229999
0.229999
0.23
0.23
0.23
0.23
0.23
0.23
0.23
0.23
0.23
5.62498e-10
2.45842e-09
5.64731e-09
1.09914e-08
1.98997e-08
3.46474e-08
5.88547e-08
9.81873e-08
1.61341e-07
2.61364e-07
4.17324e-07
6.56208e-07
1.01478e-06
1.54083e-06
2.29293e-06
3.33771e-06
4.7441e-06
6.57473e-06
8.87629e-06
1.16716e-05
1.49556e-05
1.86961e-05
2.28386e-05
2.73117e-05
3.20338e-05
3.6918e-05
4.18765e-05
4.68229e-05
5.16725e-05
5.6315e-05
6.06858e-05
6.48907e-05
6.88447e-05
7.26573e-05
7.65569e-05
8.09162e-05
8.62558e-05
9.32625e-05
0.000102746
0.000115633
0.000132995
0.000156109
0.000186543
0.00022627
0.000277809
0.000344401
0.000430235
0.000540742
0.000682963
0.000866045
0.00110188
0.00140594
0.0017984
0.00230544
0.00296107
0.00381084
0.00490219
0.00629032
0.00815981
0.0105971
0.0137813
0.0260392
0.0435406
0.0610564
0.0783137
0.0951291
0.111344
0.12682
0.141455
0.155165
0.167875
0.179512
0.190012
0.199298
0.2073
0.213962
0.219254
0.223209
0.225957
0.227734
0.228794
0.229384
0.229697
0.229855
0.229932
0.229968
0.229986
0.229994
0.229997
0.229999
0.229999
0.23
0.23
0.23
0.23
0.23
0.23
0.23
0.23
0.23
5.69926e-10
2.49092e-09
5.72231e-09
1.11385e-08
2.01697e-08
3.51263e-08
5.96883e-08
9.96208e-08
1.63783e-07
2.65491e-07
4.24235e-07
6.67666e-07
1.03356e-06
1.57118e-06
2.34117e-06
3.41299e-06
4.8591e-06
6.7463e-06
9.12585e-06
1.20252e-05
1.54436e-05
1.93527e-05
2.37007e-05
2.84186e-05
3.34261e-05
3.8637e-05
4.39634e-05
4.9319e-05
5.45999e-05
5.97246e-05
6.46794e-05
6.94142e-05
7.39391e-05
7.83672e-05
8.29553e-05
8.81014e-05
9.43473e-05
0.000102411
0.000113128
0.000127453
0.000146487
0.000171544
0.000204235
0.000246582
0.000301161
0.000371275
0.000461182
0.000576382
0.00072399
0.000913219
0.00115602
0.00146787
0.00186873
0.00238483
0.00305084
0.00391224
0.00501341
0.00641141
0.00829008
0.0107337
0.0139067
0.0273061
0.0448212
0.0623261
0.0795754
0.0963597
0.112523
0.127941
0.142511
0.156149
0.168778
0.18033
0.19074
0.19993
0.207832
0.214392
0.219583
0.223446
0.226117
0.227824
0.228842
0.229411
0.229711
0.229861
0.229935
0.22997
0.229986
0.229994
0.229997
0.229999
0.229999
0.23
0.23
0.23
0.23
0.23
0.23
0.23
0.23
0.23
5.76727e-10
2.5207e-09
5.79102e-09
1.12735e-08
2.04176e-08
3.55666e-08
6.04559e-08
1.00943e-07
1.66042e-07
2.69315e-07
4.30655e-07
6.78339e-07
1.0511e-06
1.59961e-06
2.38654e-06
3.48405e-06
4.96808e-06
6.90958e-06
9.36448e-06
1.2365e-05
1.59152e-05
1.99908e-05
2.45439e-05
2.95085e-05
3.48066e-05
4.03537e-05
4.60628e-05
5.18413e-05
5.75788e-05
6.32349e-05
6.88092e-05
7.41861e-05
7.93952e-05
8.45729e-05
9.00056e-05
9.61078e-05
0.000103431
0.000112717
0.000124826
0.000140737
0.000161584
0.000188721
0.000223803
0.000268906
0.000326664
0.000400443
0.000494563
0.000614591
0.000767708
0.000963134
0.00121274
0.00153192
0.00194093
0.00246649
0.0031427
0.00401362
0.00512293
0.00652834
0.00841305
0.0108602
0.0140261
0.0283615
0.0458966
0.0634021
0.0806287
0.0973798
0.113501
0.128869
0.143384
0.15696
0.169524
0.181005
0.19134
0.200451
0.20827
0.214745
0.219853
0.223639
0.226246
0.227906
0.228888
0.229433
0.229722
0.229867
0.229938
0.229971
0.229987
0.229994
0.229997
0.229999
0.23
0.23
0.23
0.23
0.23
0.23
0.23
0.23
0.23
0.23
5.82732e-10
2.54698e-09
5.85173e-09
1.13928e-08
2.06369e-08
3.59566e-08
6.11369e-08
1.02119e-07
1.68053e-07
2.72729e-07
4.36399e-07
6.87914e-07
1.06688e-06
1.62528e-06
2.42763e-06
3.54863e-06
5.06752e-06
7.05925e-06
9.58425e-06
1.26796e-05
1.63543e-05
2.05887e-05
2.53392e-05
3.05434e-05
3.61268e-05
4.20067e-05
4.80967e-05
5.42983e-05
6.05655e-05
6.68582e-05
7.30573e-05
7.9133e-05
8.51218e-05
9.1181e-05
9.76222e-05
0.000104857
0.00011343
0.000124099
0.000137744
0.000155372
0.000178153
0.000207484
0.00024507
0.000293043
0.000354096
0.000431661
0.000530112
0.000655041
0.000813595
0.00101501
0.00127133
0.00159842
0.0020163
0.00255049
0.00323469
0.0041126
0.00522632
0.00663141
0.00850735
0.0109299
0.0140336
0.0292169
0.046767
0.0642734
0.0814847
0.0982091
0.114295
0.129623
0.144091
0.157617
0.170126
0.18155
0.191824
0.200871
0.208623
0.215029
0.220069
0.223792
0.226347
0.227967
0.228923
0.229452
0.229731
0.229871
0.22994
0.229972
0.229987
0.229994
0.229998
0.229999
0.23
0.23
0.23
0.23
0.23
0.23
0.23
0.23
0.23
0.23
5.87773e-10
2.56906e-09
5.90271e-09
1.14931e-08
2.08213e-08
3.6285e-08
6.17111e-08
1.03111e-07
1.69754e-07
2.75622e-07
4.4128e-07
6.96069e-07
1.08036e-06
1.64726e-06
2.46293e-06
3.60434e-06
5.15365e-06
7.18944e-06
9.7764e-06
1.29563e-05
1.67428e-05
2.11215e-05
2.60537e-05
3.14825e-05
3.7339e-05
4.35477e-05
5.00305e-05
5.67035e-05
6.34998e-05
7.0353e-05
7.72038e-05
8.40291e-05
9.0881e-05
9.79438e-05
0.000105549
0.000114077
0.000124045
0.00013622
0.000151502
0.00017093
0.000195715
0.000227299
0.000267444
0.000318333
0.000382713
0.000464051
0.000566754
0.000696488
0.000860555
0.00106854
0.00133245
0.00166746
0.00209352
0.00263632
0.00332916
0.00421526
0.00533541
0.00674497
0.00862239
0.011042
0.0141317
0.0298782
0.0474554
0.0649634
0.0821626
0.0988653
0.114923
0.130216
0.144647
0.158133
0.170599
0.181977
0.192203
0.201199
0.208898
0.21525
0.220236
0.22391
0.226424
0.228014
0.22895
0.229467
0.229739
0.229875
0.229941
0.229973
0.229988
0.229995
0.229998
0.229999
0.23
0.23
0.23
0.23
0.23
0.23
0.23
0.23
0.23
0.23
5.91696e-10
2.58624e-09
5.94241e-09
1.15712e-08
2.09651e-08
3.65412e-08
6.21596e-08
1.03888e-07
1.71087e-07
2.77893e-07
4.45118e-07
7.02497e-07
1.09101e-06
1.66467e-06
2.49099e-06
3.64876e-06
5.22257e-06
7.29406e-06
9.9315e-06
1.31806e-05
1.70595e-05
2.15582e-05
2.66426e-05
3.22606e-05
3.83478e-05
4.4833e-05
5.16417e-05
5.87144e-05
6.59989e-05
7.34103e-05
8.09084e-05
8.84912e-05
9.62394e-05
0.000104374
0.000113241
0.00012316
0.000134594
0.000148315
0.000165244
0.000186449
0.000213181
0.000246933
0.00028952
0.000343185
0.000410726
0.000495703
0.000602649
0.000737422
0.000907373
0.00112172
0.00139248
0.00173508
0.0021693
0.00272068
0.00342216
0.00431644
0.00544297
0.00685659
0.00873395
0.0111462
0.0142125
0.0303657
0.0479688
0.0654824
0.0826736
0.0993595
0.115395
0.130661
0.145063
0.158517
0.17095
0.182293
0.192483
0.201441
0.2091
0.215412
0.220358
0.223996
0.22648
0.228048
0.228969
0.229477
0.229744
0.229877
0.229942
0.229973
0.229988
0.229995
0.229998
0.229999
0.23
0.23
0.23
0.23
0.23
0.23
0.23
0.23
0.23
0.23
5.94373e-10
2.59796e-09
5.96949e-09
1.16245e-08
2.10633e-08
3.67161e-08
6.24659e-08
1.04418e-07
1.71998e-07
2.79447e-07
4.47747e-07
7.06907e-07
1.09832e-06
1.67667e-06
2.51036e-06
3.67951e-06
5.27044e-06
7.36698e-06
1.004e-05
1.33383e-05
1.72833e-05
2.18686e-05
2.70641e-05
3.2822e-05
3.90832e-05
4.57829e-05
5.28559e-05
6.02488e-05
6.7894e-05
7.57431e-05
8.37693e-05
9.19919e-05
0.000100524
0.000109624
0.000119626
0.000130899
0.000143732
0.000158876
0.000177278
0.000200045
0.000228478
0.000264124
0.000308859
0.000365
0.000435446
0.000523822
0.000634727
0.000773891
0.000948716
0.00116861
0.00144559
0.00179505
0.00223671
0.00279591
0.00350525
0.00440683
0.00553887
0.00695518
0.00883022
0.0112314
0.01427
0.0306879
0.0483172
0.0658379
0.0830242
0.0996977
0.115716
0.130963
0.145344
0.158775
0.171185
0.182504
0.192669
0.201601
0.209234
0.215518
0.220438
0.224052
0.226516
0.22807
0.228981
0.229484
0.229747
0.229879
0.229943
0.229974
0.229988
0.229995
0.229998
0.229999
0.23
0.23
0.23
0.23
0.23
0.23
0.23
0.23
0.23
0.23
5.95712e-10
2.60381e-09
5.98299e-09
1.1651e-08
2.11119e-08
3.68026e-08
6.26168e-08
1.04679e-07
1.72445e-07
2.80207e-07
4.49032e-07
7.0906e-07
1.1019e-06
1.68253e-06
2.51984e-06
3.69458e-06
5.29398e-06
7.40298e-06
1.00939e-05
1.3417e-05
1.73956e-05
2.20253e-05
2.72784e-05
3.31096e-05
3.9463e-05
4.62772e-05
5.34908e-05
6.10454e-05
6.88884e-05
7.69794e-05
8.53023e-05
9.38904e-05
0.000102875
0.000112519
0.000123221
0.000135411
0.000149463
0.000165696
0.000185147
0.000208989
0.000238575
0.000275502
0.000321689
0.000379494
0.000451844
0.000542403
0.000655791
0.000797853
0.000976014
0.00119973
0.00148104
0.00183535
0.00228233
0.00284722
0.00356238
0.00446951
0.00560582
0.00702415
0.00889688
0.0112876
0.0143001
0.0308473
0.0484996
0.0660267
0.0832101
0.0998757
0.115883
0.131119
0.145487
0.158906
0.171302
0.182608
0.19276
0.201679
0.209298
0.215568
0.220476
0.224078
0.226533
0.22808
0.228987
0.229487
0.229749
0.22988
0.229944
0.229974
0.229988
0.229995
0.229998
0.229999
0.23
0.23
0.23
0.23
0.23
0.23
0.23
0.23
0.23
0.23
5.95715e-10
2.60383e-09
5.98303e-09
1.1651e-08
2.1112e-08
3.68028e-08
6.26172e-08
1.0468e-07
1.72446e-07
2.80209e-07
4.49035e-07
7.09065e-07
1.10191e-06
1.68254e-06
2.51986e-06
3.69462e-06
5.29404e-06
7.40308e-06
1.0094e-05
1.34172e-05
1.73959e-05
2.20258e-05
2.72792e-05
3.31108e-05
3.94645e-05
4.6279e-05
5.34927e-05
6.1047e-05
6.88895e-05
7.69801e-05
8.53027e-05
9.38905e-05
0.000102875
0.000112519
0.000123221
0.000135411
0.000149463
0.000165696
0.000185147
0.000208989
0.000238575
0.000275502
0.00032169
0.000379496
0.000451845
0.000542405
0.000655794
0.000797856
0.000976018
0.00119973
0.00148105
0.00183536
0.00228234
0.00284723
0.0035624
0.00446952
0.00560583
0.00702417
0.00889691
0.0112876
0.0143001
0.0308476
0.0484998
0.0660269
0.0832103
0.0998758
0.115883
0.131119
0.145487
0.158906
0.171302
0.182608
0.19276
0.201679
0.209298
0.215568
0.220476
0.224078
0.226533
0.22808
0.228987
0.229487
0.229749
0.22988
0.229944
0.229974
0.229988
0.229995
0.229998
0.229999
0.23
0.23
0.23
0.23
0.23
0.23
0.23
0.23
0.23
0.23
5.94382e-10
2.598e-09
5.96958e-09
1.16246e-08
2.10636e-08
3.67167e-08
6.2467e-08
1.0442e-07
1.72001e-07
2.79452e-07
4.47756e-07
7.06922e-07
1.09835e-06
1.67671e-06
2.51043e-06
3.67961e-06
5.27061e-06
7.36725e-06
1.00404e-05
1.3339e-05
1.72842e-05
2.187e-05
2.70662e-05
3.2825e-05
3.90876e-05
4.5789e-05
5.28638e-05
6.02538e-05
6.78972e-05
7.57448e-05
8.377e-05
9.19919e-05
0.000100523
0.000109623
0.000119625
0.000130898
0.000143731
0.000158876
0.000177277
0.000200045
0.000228478
0.000264124
0.00030886
0.000365003
0.000435449
0.000523828
0.000634734
0.0007739
0.000948726
0.00116862
0.00144561
0.00179507
0.00223674
0.00279594
0.00350528
0.00440688
0.00553892
0.00695524
0.0088303
0.0112315
0.0142701
0.0306886
0.0483179
0.0658385
0.0830248
0.0996982
0.115716
0.130964
0.145344
0.158776
0.171185
0.182504
0.192669
0.201601
0.209234
0.215518
0.220438
0.224052
0.226516
0.22807
0.228981
0.229484
0.229747
0.229879
0.229943
0.229974
0.229988
0.229995
0.229998
0.229999
0.23
0.23
0.23
0.23
0.23
0.23
0.23
0.23
0.23
0.23
5.91708e-10
2.58629e-09
5.94252e-09
1.15714e-08
2.09655e-08
3.65419e-08
6.21608e-08
1.0389e-07
1.7109e-07
2.77898e-07
4.45126e-07
7.02509e-07
1.09102e-06
1.6647e-06
2.49104e-06
3.64882e-06
5.22267e-06
7.29421e-06
9.93171e-06
1.3181e-05
1.706e-05
2.1559e-05
2.66439e-05
3.22627e-05
3.83513e-05
4.48391e-05
5.16526e-05
5.87288e-05
6.60087e-05
7.34175e-05
8.09142e-05
8.84961e-05
9.62438e-05
0.000104379
0.000113245
0.000123164
0.000134599
0.000148321
0.00016525
0.000186455
0.000213187
0.000246939
0.000289526
0.00034319
0.000410732
0.00049571
0.00060266
0.000737436
0.000907391
0.00112174
0.00139251
0.00173511
0.00216934
0.00272073
0.00342222
0.00431651
0.00544306
0.0068567
0.00873408
0.0111463
0.0142127
0.0303669
0.0479699
0.0654834
0.0826745
0.0993603
0.115395
0.130662
0.145064
0.158518
0.17095
0.182293
0.192484
0.201441
0.209101
0.215412
0.220359
0.223996
0.22648
0.228048
0.228969
0.229477
0.229744
0.229877
0.229942
0.229973
0.229988
0.229995
0.229998
0.229999
0.23
0.23
0.23
0.23
0.23
0.23
0.23
0.23
0.23
0.23
5.87788e-10
2.56912e-09
5.90286e-09
1.14934e-08
2.08218e-08
3.62859e-08
6.17126e-08
1.03114e-07
1.69758e-07
2.75628e-07
4.4129e-07
6.96085e-07
1.08038e-06
1.6473e-06
2.46299e-06
3.60442e-06
5.15376e-06
7.18961e-06
9.77663e-06
1.29566e-05
1.67431e-05
2.11219e-05
2.60541e-05
3.14828e-05
3.73387e-05
4.35461e-05
5.00267e-05
5.67006e-05
6.34989e-05
7.03532e-05
7.72046e-05
8.40305e-05
9.08829e-05
9.79462e-05
0.000105552
0.000114081
0.000124049
0.000136224
0.000151508
0.000170937
0.000195722
0.000227308
0.000267454
0.000318345
0.000382725
0.000464065
0.000566768
0.000696504
0.000860576
0.00106856
0.00133248
0.0016675
0.00209357
0.00263638
0.00332924
0.00421536
0.00533552
0.00674511
0.00862257
0.0110422
0.0141319
0.0298798
0.0474569
0.0649649
0.082164
0.0988665
0.114924
0.130217
0.144648
0.158134
0.1706
0.181977
0.192204
0.2012
0.208898
0.21525
0.220236
0.22391
0.226424
0.228014
0.22895
0.229467
0.229739
0.229875
0.229941
0.229973
0.229988
0.229995
0.229998
0.229999
0.23
0.23
0.23
0.23
0.23
0.23
0.23
0.23
0.23
0.23
5.82751e-10
2.54706e-09
5.85191e-09
1.13932e-08
2.06375e-08
3.59577e-08
6.11387e-08
1.02122e-07
1.68057e-07
2.72736e-07
4.36412e-07
6.87933e-07
1.06691e-06
1.62532e-06
2.42769e-06
3.54872e-06
5.06763e-06
7.05938e-06
9.5844e-06
1.26798e-05
1.63543e-05
2.05885e-05
2.53385e-05
3.0542e-05
3.6124e-05
4.20019e-05
4.80889e-05
5.42885e-05
6.05587e-05
6.68525e-05
7.30525e-05
7.91293e-05
8.51193e-05
9.11799e-05
9.76223e-05
0.000104858
0.000113432
0.000124102
0.000137748
0.000155377
0.00017816
0.000207491
0.000245079
0.000293053
0.000354109
0.000431676
0.00053013
0.000655063
0.000813619
0.00101504
0.00127137
0.00159847
0.00201635
0.00255057
0.00323478
0.00411272
0.00522646
0.00663157
0.00850756
0.0109302
0.0140339
0.0292191
0.046769
0.0642753
0.0814864
0.0982107
0.114297
0.129624
0.144092
0.157618
0.170127
0.181551
0.191825
0.200872
0.208624
0.215029
0.220069
0.223793
0.226347
0.227967
0.228923
0.229453
0.229731
0.229871
0.22994
0.229972
0.229987
0.229994
0.229998
0.229999
0.23
0.23
0.23
0.23
0.23
0.23
0.23
0.23
0.23
0.23
5.76749e-10
2.52079e-09
5.79124e-09
1.12739e-08
2.04183e-08
3.55678e-08
6.0458e-08
1.00947e-07
1.66047e-07
2.69324e-07
4.30669e-07
6.78361e-07
1.05113e-06
1.59966e-06
2.38661e-06
3.48414e-06
4.96819e-06
6.9097e-06
9.36458e-06
1.23651e-05
1.5915e-05
1.99904e-05
2.45429e-05
2.95065e-05
3.48033e-05
4.03484e-05
4.6055e-05
5.18328e-05
5.75677e-05
6.32227e-05
6.8799e-05
7.4178e-05
7.93893e-05
8.45691e-05
9.00037e-05
9.61073e-05
0.000103432
0.000112719
0.000124829
0.000140741
0.00016159
0.000188727
0.000223811
0.000268916
0.000326676
0.000400457
0.000494581
0.000614613
0.000767735
0.000963168
0.00121277
0.00153197
0.001941
0.00246657
0.0031428
0.00401374
0.00512308
0.00652853
0.00841329
0.0108605
0.0140265
0.0283643
0.0458992
0.0634045
0.0806309
0.0973818
0.113503
0.128871
0.143385
0.156962
0.169525
0.181006
0.191341
0.200452
0.208271
0.214746
0.219854
0.22364
0.226246
0.227906
0.228888
0.229433
0.229722
0.229867
0.229938
0.229971
0.229987
0.229994
0.229997
0.229999
0.23
0.23
0.23
0.23
0.23
0.23
0.23
0.23
0.23
0.23
5.69951e-10
2.49103e-09
5.72256e-09
1.1139e-08
2.01706e-08
3.51278e-08
5.96908e-08
9.96249e-08
1.6379e-07
2.65502e-07
4.24251e-07
6.67691e-07
1.0336e-06
1.57123e-06
2.34125e-06
3.41309e-06
4.85923e-06
6.74646e-06
9.12603e-06
1.20254e-05
1.54437e-05
1.93527e-05
2.37005e-05
2.84182e-05
3.34254e-05
3.8636e-05
4.39623e-05
4.9318e-05
5.46005e-05
5.97232e-05
6.46725e-05
6.94011e-05
7.39254e-05
7.8356e-05
8.29473e-05
8.80963e-05
9.43447e-05
0.00010241
0.000113129
0.000127456
0.000146492
0.00017155
0.000204242
0.000246591
0.000301172
0.000371289
0.000461199
0.000576404
0.000724017
0.000913253
0.00115607
0.00146793
0.00186879
0.00238491
0.00305094
0.00391237
0.00501357
0.00641161
0.00829033
0.010734
0.013907
0.0273094
0.0448244
0.0623291
0.0795782
0.0963622
0.112525
0.127943
0.142513
0.15615
0.16878
0.180331
0.190741
0.199931
0.207833
0.214392
0.219584
0.223446
0.226117
0.227824
0.228842
0.229411
0.229711
0.229861
0.229935
0.22997
0.229986
0.229994
0.229997
0.229999
0.229999
0.23
0.23
0.23
0.23
0.23
0.23
0.23
0.23
0.23
5.62527e-10
2.45854e-09
5.6476e-09
1.09919e-08
1.99007e-08
3.46491e-08
5.88576e-08
9.8192e-08
1.61348e-07
2.61376e-07
4.17342e-07
6.56236e-07
1.01483e-06
1.5409e-06
2.29301e-06
3.33783e-06
4.74426e-06
6.57493e-06
8.87654e-06
1.16719e-05
1.49559e-05
1.86966e-05
2.28391e-05
2.73124e-05
3.20346e-05
3.69188e-05
4.18764e-05
4.68204e-05
5.16654e-05
5.62995e-05
6.0648e-05
6.48103e-05
6.88055e-05
7.26375e-05
7.65467e-05
8.09111e-05
8.62536e-05
9.32622e-05
0.000102747
0.000115635
0.000132998
0.000156114
0.000186549
0.000226279
0.00027782
0.000344414
0.000430252
0.000540763
0.000682989
0.000866078
0.00110192
0.00140599
0.00179846
0.00230552
0.00296117
0.00381096
0.00490234
0.00629052
0.00816006
0.0105974
0.0137816
0.0260432
0.0435445
0.06106
0.078317
0.0951321
0.111347
0.126822
0.141457
0.155167
0.167876
0.179513
0.190013
0.199299
0.207301
0.213962
0.219254
0.22321
0.225957
0.227734
0.228794
0.229384
0.229697
0.229855
0.229932
0.229968
0.229986
0.229994
0.229997
0.229999
0.229999
0.23
0.23
0.23
0.23
0.23
0.23
0.23
0.23
0.23
5.54638e-10
2.42402e-09
5.56801e-09
1.08358e-08
1.96148e-08
3.41426e-08
5.79775e-08
9.66816e-08
1.58781e-07
2.57049e-07
4.10114e-07
6.44286e-07
9.95304e-07
1.50945e-06
2.24317e-06
3.26033e-06
4.62633e-06
6.39971e-06
8.62278e-06
1.1314e-05
1.44646e-05
1.80392e-05
2.19811e-05
2.62177e-05
3.06671e-05
3.52431e-05
3.98592e-05
4.44317e-05
4.88823e-05
5.31355e-05
5.70996e-05
6.07468e-05
6.41351e-05
6.74599e-05
7.08093e-05
7.45306e-05
7.91172e-05
8.52221e-05
9.36234e-05
0.000105219
0.00012105
0.00014236
0.000170677