/*--------------------------------*- C++ -*----------------------------------*\
  =========                 |
  \\      /  F ield         | OpenFOAM: The Open Source CFD Toolbox
   \\    /   O peration     | Website:  https://openfoam.org
    \\  /    A nd           | Version:  8
     \\/     M anipulation  |
\*---------------------------------------------------------------------------*/
FoamFile
{
    version     2.0;
    format      ascii;
    class       surfaceScalarField;
    location    "580/fluid";
    object      phi;
}
// * * * * * * * * * * * * * * * * * * * * * * * * * * * * * * * * * * * * * //

dimensions      [1 0 -1 0 0 0 0];

internalField   nonuniform List<scalar> 
7860
(
6.57287e-07
-1.76935e-08
6.54655e-07
-5.3075e-08
6.50908e-07
-8.82769e-08
6.45939e-07
-1.23199e-07
6.39617e-07
-1.57844e-07
6.31783e-07
-1.92167e-07
6.22254e-07
-2.26088e-07
6.10836e-07
-2.59488e-07
5.97328e-07
-2.92205e-07
5.81537e-07
-3.24021e-07
5.63292e-07
-3.54654e-07
5.42471e-07
-3.83742e-07
5.19038e-07
-4.10836e-07
4.93143e-07
-4.35398e-07
4.65065e-07
-4.56795e-07
4.35154e-07
-4.74366e-07
4.03866e-07
-4.87546e-07
3.71733e-07
-4.96027e-07
3.3931e-07
-4.99871e-07
3.07104e-07
-4.9954e-07
2.75528e-07
-4.95802e-07
2.44873e-07
-4.89557e-07
2.15323e-07
-4.81663e-07
1.87006e-07
-4.72825e-07
1.59983e-07
-4.63541e-07
1.34219e-07
-4.54119e-07
1.09648e-07
-4.44732e-07
8.61939e-08
-4.35453e-07
6.37846e-08
-4.26299e-07
4.23563e-08
-4.17256e-07
2.18552e-08
-4.08298e-07
2.23505e-09
-3.99399e-07
-1.65341e-08
-3.90539e-07
-3.44777e-08
-3.81711e-07
-5.16274e-08
-3.72916e-07
-6.80084e-08
-3.64147e-07
-8.36405e-08
-3.55363e-07
-9.85426e-08
-3.46573e-07
-1.12733e-07
-3.37795e-07
-1.2623e-07
-3.29049e-07
-1.3905e-07
-3.20358e-07
-1.51212e-07
-3.11745e-07
-1.62733e-07
-3.03234e-07
-1.73632e-07
-2.94849e-07
-1.83927e-07
-2.86615e-07
-1.93636e-07
-2.78556e-07
-2.02778e-07
-2.70698e-07
-2.11371e-07
-2.63064e-07
-2.19436e-07
-2.55679e-07
-2.2699e-07
-2.48566e-07
-2.34055e-07
-2.4175e-07
-2.4065e-07
-2.35259e-07
-2.46798e-07
-2.29119e-07
-2.52522e-07
-2.23364e-07
-2.5785e-07
-2.18031e-07
-2.62812e-07
-2.13164e-07
-2.67451e-07
-2.08816e-07
-2.71816e-07
-2.05081e-07
-2.75964e-07
-2.0203e-07
-2.79961e-07
-1.99721e-07
-2.83914e-07
-1.98396e-07
-2.88229e-07
-1.98245e-07
-2.93386e-07
-1.99648e-07
-3.00315e-07
-2.1073e-07
-3.08303e-07
-2.2313e-07
-3.17143e-07
-2.36801e-07
-3.26883e-07
-2.51922e-07
-3.37643e-07
-2.68732e-07
-3.49581e-07
-2.87503e-07
-3.62913e-07
-3.08561e-07
-3.77929e-07
-3.323e-07
-3.95019e-07
-3.59185e-07
-4.14707e-07
-3.8975e-07
-4.37673e-07
-4.24715e-07
-4.64775e-07
-4.64754e-07
-4.96993e-07
-5.09911e-07
-5.35238e-07
-5.59152e-07
-5.79842e-07
-6.09601e-07
-6.30578e-07
-6.5583e-07
-6.86293e-07
-6.90733e-07
-7.44658e-07
-7.08611e-07
-8.02729e-07
-7.08288e-07
-8.57954e-07
-6.92951e-07
-9.08734e-07
-6.67275e-07
-9.54386e-07
-6.3531e-07
-9.94714e-07
-5.99681e-07
-1.0296e-06
-5.61839e-07
-1.05938e-06
-5.2248e-07
-1.08458e-06
-4.82039e-07
-1.10577e-06
-4.40849e-07
-1.12342e-06
-3.99163e-07
-1.138e-06
-3.57178e-07
-1.14991e-06
-3.15044e-07
-1.15952e-06
-2.72872e-07
-1.16716e-06
-2.30736e-07
-1.1731e-06
-1.88676e-07
-1.17758e-06
-1.46701e-07
-1.1808e-06
-1.04791e-07
-1.18292e-06
-6.28838e-08
-2.09685e-08
6.57917e-07
-1.70772e-08
6.55816e-07
-5.09737e-08
6.52154e-07
-8.46146e-08
6.46929e-07
-1.17975e-07
6.40076e-07
-1.5099e-07
6.31497e-07
-1.83587e-07
6.21079e-07
-2.1567e-07
6.08709e-07
-2.47118e-07
5.94282e-07
-2.77778e-07
5.77718e-07
-3.07456e-07
5.58969e-07
-3.35903e-07
5.38034e-07
-3.62805e-07
5.14973e-07
-3.87771e-07
4.89935e-07
-4.10354e-07
4.63142e-07
-4.29994e-07
4.3488e-07
-4.46091e-07
4.05503e-07
-4.58154e-07
3.7542e-07
-4.65925e-07
3.45051e-07
-4.6948e-07
3.14784e-07
-4.69247e-07
2.84932e-07
-4.65924e-07
2.55726e-07
-4.60323e-07
2.27314e-07
-4.53223e-07
1.99795e-07
-4.45279e-07
1.73225e-07
-4.36946e-07
1.47618e-07
-4.28488e-07
1.22962e-07
-4.20053e-07
9.92362e-08
-4.11707e-07
7.64179e-08
-4.03462e-07
5.4483e-08
-3.95304e-07
3.34089e-08
-3.87209e-07
1.31742e-08
-3.7915e-07
-6.24144e-09
-3.7111e-07
-2.48567e-08
-3.63083e-07
-4.26895e-08
-3.5507e-07
-5.97558e-08
-3.47068e-07
-7.607e-08
-3.39036e-07
-9.16477e-08
-3.30982e-07
-1.06505e-07
-3.22925e-07
-1.20658e-07
-3.14884e-07
-1.34123e-07
-3.0688e-07
-1.4692e-07
-2.98936e-07
-1.59066e-07
-2.91076e-07
-1.7058e-07
-2.83322e-07
-1.81483e-07
-2.75701e-07
-1.91794e-07
-2.68234e-07
-2.01533e-07
-2.60948e-07
-2.10724e-07
-2.53863e-07
-2.19387e-07
-2.47005e-07
-2.27547e-07
-2.40396e-07
-2.35228e-07
-2.3406e-07
-2.42457e-07
-2.28021e-07
-2.49262e-07
-2.22305e-07
-2.55679e-07
-2.1694e-07
-2.61744e-07
-2.11958e-07
-2.67506e-07
-2.07395e-07
-2.73023e-07
-2.03293e-07
-2.78366e-07
-1.99731e-07
-2.83635e-07
-1.96756e-07
-2.88963e-07
-1.94387e-07
-2.94564e-07
-1.92789e-07
-3.00704e-07
-1.92091e-07
-3.0676e-07
-1.93848e-07
-3.13841e-07
-2.03679e-07
-3.22155e-07
-2.14848e-07
-3.316e-07
-2.27391e-07
-3.42163e-07
-2.41397e-07
-3.53917e-07
-2.57019e-07
-3.66993e-07
-2.74472e-07
-3.8157e-07
-2.94033e-07
-3.9788e-07
-3.16044e-07
-4.16212e-07
-3.40912e-07
-4.36906e-07
-3.6912e-07
-4.6034e-07
-4.01353e-07
-4.86984e-07
-4.38189e-07
-5.17373e-07
-4.79605e-07
-5.52034e-07
-5.24578e-07
-5.91317e-07
-5.70401e-07
-6.35331e-07
-6.1189e-07
-6.83538e-07
-6.42584e-07
-7.34416e-07
-6.57771e-07
-7.85813e-07
-6.56914e-07
-8.35737e-07
-6.43039e-07
-8.82835e-07
-6.20182e-07
-9.2644e-07
-5.91708e-07
-9.66281e-07
-5.59841e-07
-1.0022e-06
-5.2592e-07
-1.03419e-06
-4.90494e-07
-1.06234e-06
-4.53883e-07
-1.08684e-06
-4.16349e-07
-1.10791e-06
-3.78098e-07
-1.12579e-06
-3.39293e-07
-1.14077e-06
-3.00069e-07
-1.1531e-06
-2.60537e-07
-1.16305e-06
-2.20784e-07
-1.17086e-06
-1.80875e-07
-1.1767e-06
-1.40853e-07
-1.18075e-06
-1.00741e-07
-1.18309e-06
-6.0549e-08
-2.02346e-08
6.57624e-07
-1.61673e-08
6.54991e-07
-4.83409e-08
6.50646e-07
-8.02701e-08
6.44557e-07
-1.11885e-07
6.3668e-07
-1.43114e-07
6.26969e-07
-1.73876e-07
6.15376e-07
-2.04077e-07
6.01864e-07
-2.33606e-07
5.86413e-07
-2.62326e-07
5.69028e-07
-2.9007e-07
5.49748e-07
-3.16621e-07
5.28645e-07
-3.41699e-07
5.05825e-07
-3.64948e-07
4.81404e-07
-3.85929e-07
4.55551e-07
-4.04134e-07
4.28516e-07
-4.19047e-07
4.00615e-07
-4.3024e-07
3.72194e-07
-4.37488e-07
3.43599e-07
-4.40867e-07
3.1514e-07
-4.40767e-07
2.87063e-07
-4.37824e-07
2.59543e-07
-4.3278e-07
2.32688e-07
-4.26345e-07
2.06535e-07
-4.19105e-07
1.81092e-07
-4.11481e-07
1.56366e-07
-4.03742e-07
1.32365e-07
-3.96034e-07
1.09095e-07
-3.88419e-07
8.6556e-08
-3.80908e-07
6.47503e-08
-3.73484e-07
4.36763e-08
-3.66121e-07
2.33314e-08
-3.58793e-07
3.71116e-09
-3.51479e-07
-1.51898e-08
-3.44171e-07
-3.33788e-08
-3.36871e-07
-5.08629e-08
-3.29573e-07
-6.76484e-08
-3.22239e-07
-8.37446e-08
-3.14875e-07
-9.91619e-08
-3.07497e-07
-1.13912e-07
-3.00123e-07
-1.2801e-07
-2.92772e-07
-1.41469e-07
-2.85466e-07
-1.54306e-07
-2.78227e-07
-1.6654e-07
-2.71078e-07
-1.78188e-07
-2.64042e-07
-1.89272e-07
-2.5714e-07
-1.99814e-07
-2.50396e-07
-2.09838e-07
-2.4383e-07
-2.19369e-07
-2.37465e-07
-2.28436e-07
-2.31321e-07
-2.37068e-07
-2.25419e-07
-2.453e-07
-2.1978e-07
-2.53171e-07
-2.14427e-07
-2.60722e-07
-2.09381e-07
-2.68005e-07
-2.04668e-07
-2.75079e-07
-2.00314e-07
-2.82014e-07
-1.96353e-07
-2.88891e-07
-1.92849e-07
-2.9581e-07
-1.89831e-07
-3.02891e-07
-1.87303e-07
-3.10271e-07
-1.85405e-07
-3.18119e-07
-1.84233e-07
-3.25095e-07
-1.87093e-07
-3.32915e-07
-1.9589e-07
-3.41815e-07
-2.0598e-07
-3.51818e-07
-2.17421e-07
-3.6297e-07
-2.30281e-07
-3.75342e-07
-2.44684e-07
-3.89036e-07
-2.6082e-07
-4.04174e-07
-2.78941e-07
-4.20897e-07
-2.9937e-07
-4.39363e-07
-3.22498e-07
-4.59723e-07
-3.48818e-07
-4.82122e-07
-3.79017e-07
-5.06785e-07
-4.13594e-07
-5.3404e-07
-4.52421e-07
-5.64397e-07
-4.94291e-07
-5.98656e-07
-5.36208e-07
-6.37432e-07
-5.73171e-07
-6.8055e-07
-5.99509e-07
-7.26755e-07
-6.11595e-07
-7.74105e-07
-6.0958e-07
-8.20747e-07
-5.96406e-07
-8.65359e-07
-5.75575e-07
-9.07201e-07
-5.49868e-07
-9.45958e-07
-5.21085e-07
-9.81626e-07
-4.90252e-07
-1.01418e-06
-4.57942e-07
-1.04357e-06
-4.24488e-07
-1.06982e-06
-3.90098e-07
-1.093e-06
-3.54926e-07
-1.11319e-06
-3.19097e-07
-1.13054e-06
-2.8272e-07
-1.14519e-06
-2.45889e-07
-1.15729e-06
-2.08688e-07
-1.16698e-06
-1.71187e-07
-1.17438e-06
-1.33444e-07
-1.17962e-06
-9.55061e-08
-1.18276e-06
-5.74092e-08
-1.91726e-08
6.5764e-07
-1.52739e-08
6.54938e-07
-4.56382e-08
6.50421e-07
-7.5753e-08
6.44086e-07
-1.0555e-07
6.35925e-07
-1.34953e-07
6.25926e-07
-1.63877e-07
6.1408e-07
-1.9223e-07
6.00383e-07
-2.19908e-07
5.84841e-07
-2.46784e-07
5.67474e-07
-2.72703e-07
5.48321e-07
-2.97467e-07
5.27447e-07
-3.20823e-07
5.04949e-07
-3.42448e-07
4.80967e-07
-3.61942e-07
4.5569e-07
-3.78852e-07
4.29361e-07
-3.92711e-07
4.02262e-07
-4.03131e-07
3.74695e-07
-4.09909e-07
3.46959e-07
-4.13116e-07
3.19319e-07
-4.1311e-07
2.91987e-07
-4.10475e-07
2.6512e-07
-4.05894e-07
2.38819e-07
-4.00026e-07
2.13142e-07
-3.9341e-07
1.88117e-07
-3.86439e-07
1.63756e-07
-3.79364e-07
1.40059e-07
-3.72322e-07
1.17025e-07
-3.6537e-07
9.46511e-08
-3.58521e-07
7.29347e-08
-3.51756e-07
5.18743e-08
-3.4505e-07
3.14683e-08
-3.38376e-07
1.17149e-08
-3.31716e-07
-7.3886e-09
-3.25059e-07
-2.58457e-08
-3.18405e-07
-4.36598e-08
-3.11751e-07
-6.08339e-08
-3.05057e-07
-7.73734e-08
-2.98327e-07
-9.32857e-08
-2.91576e-07
-1.0858e-07
-2.84819e-07
-1.23268e-07
-2.78075e-07
-1.37361e-07
-2.71364e-07
-1.50876e-07
-2.64704e-07
-1.63826e-07
-2.58119e-07
-1.76233e-07
-2.51627e-07
-1.88115e-07
-2.45249e-07
-1.99496e-07
-2.39006e-07
-2.10401e-07
-2.32917e-07
-2.20855e-07
-2.27002e-07
-2.3089e-07
-2.21278e-07
-2.40537e-07
-2.15764e-07
-2.49833e-07
-2.10477e-07
-2.58818e-07
-2.05435e-07
-2.67537e-07
-2.00655e-07
-2.76041e-07
-1.96158e-07
-2.84387e-07
-1.91963e-07
-2.9264e-07
-1.88094e-07
-3.0087e-07
-1.84614e-07
-3.09164e-07
-1.81533e-07
-3.17612e-07
-1.78852e-07
-3.2631e-07
-1.76704e-07
-3.35344e-07
-1.75188e-07
-3.43229e-07
-1.79347e-07
-3.51867e-07
-1.87279e-07
-3.61431e-07
-1.96445e-07
-3.7198e-07
-2.06903e-07
-3.8358e-07
-2.18713e-07
-3.96308e-07
-2.31991e-07
-4.10249e-07
-2.46916e-07
-4.25499e-07
-2.63731e-07
-4.42164e-07
-2.82747e-07
-4.60363e-07
-3.04344e-07
-4.80208e-07
-3.29022e-07
-5.01847e-07
-3.57431e-07
-5.25549e-07
-3.89947e-07
-5.51712e-07
-4.26313e-07
-5.80891e-07
-4.65167e-07
-6.13721e-07
-5.03427e-07
-6.50617e-07
-5.36316e-07
-6.91315e-07
-5.5884e-07
-7.34682e-07
-5.68246e-07
-7.79093e-07
-5.6518e-07
-8.23025e-07
-5.52479e-07
-8.65376e-07
-5.33227e-07
-9.05468e-07
-5.09777e-07
-9.42938e-07
-4.83615e-07
-9.77619e-07
-4.55571e-07
-1.00945e-06
-4.26107e-07
-1.03844e-06
-3.95498e-07
-1.06462e-06
-3.63927e-07
-1.08801e-06
-3.31532e-07
-1.10868e-06
-2.98426e-07
-1.12669e-06
-2.64709e-07
-1.14211e-06
-2.3047e-07
-1.15501e-06
-1.95788e-07
-1.16546e-06
-1.60736e-07
-1.17352e-06
-1.2538e-07
-1.17925e-06
-8.97772e-08
-1.18268e-06
-5.39811e-08
-1.80305e-08
6.57577e-07
-1.43174e-08
6.54734e-07
-4.27945e-08
6.50016e-07
-7.10351e-08
6.43429e-07
-9.89634e-08
6.34979e-07
-1.26503e-07
6.24673e-07
-1.53571e-07
6.12525e-07
-1.80082e-07
5.98553e-07
-2.05936e-07
5.82788e-07
-2.31018e-07
5.65273e-07
-2.55188e-07
5.46071e-07
-2.78265e-07
5.25268e-07
-3.00019e-07
5.02977e-07
-3.20155e-07
4.79347e-07
-3.3831e-07
4.54564e-07
-3.54064e-07
4.28851e-07
-3.66992e-07
4.02463e-07
-3.76735e-07
3.75669e-07
-3.83105e-07
3.48728e-07
-3.86164e-07
3.21872e-07
-3.86241e-07
2.95284e-07
-3.83873e-07
2.69099e-07
-3.79695e-07
2.43404e-07
-3.74317e-07
2.18252e-07
-3.68244e-07
1.9367e-07
-3.61844e-07
1.69671e-07
-3.55352e-07
1.46258e-07
-3.48897e-07
1.23434e-07
-3.42535e-07
1.01199e-07
-3.36275e-07
7.95519e-08
-3.30099e-07
5.84947e-08
-3.23984e-07
3.80276e-08
-3.17901e-07
1.81508e-08
-3.11832e-07
-1.13626e-09
-3.05766e-07
-1.98356e-08
-2.99699e-07
-3.79485e-08
-2.93631e-07
-5.54762e-08
-2.87522e-07
-7.24224e-08
-2.81374e-07
-8.87925e-08
-2.75198e-07
-1.04594e-07
-2.69011e-07
-1.19836e-07
-2.62826e-07
-1.34529e-07
-2.56663e-07
-1.48686e-07
-2.5054e-07
-1.62323e-07
-2.44474e-07
-1.75458e-07
-2.38485e-07
-1.88111e-07
-2.3259e-07
-2.00302e-07
-2.26808e-07
-2.12056e-07
-2.21157e-07
-2.23398e-07
-2.15652e-07
-2.34359e-07
-2.10311e-07
-2.44968e-07
-2.05148e-07
-2.55261e-07
-2.00179e-07
-2.65273e-07
-1.95417e-07
-2.75046e-07
-1.90877e-07
-2.84625e-07
-1.86574e-07
-2.94057e-07
-1.82526e-07
-3.03396e-07
-1.78751e-07
-3.12697e-07
-1.75309e-07
-3.22034e-07
-1.72193e-07
-3.31475e-07
-1.69409e-07
-3.41096e-07
-1.67081e-07
-3.50962e-07
-1.65318e-07
-3.59747e-07
-1.70636e-07
-3.69199e-07
-1.77851e-07
-3.79417e-07
-1.8625e-07
-3.90483e-07
-1.95862e-07
-4.0248e-07
-2.06743e-07
-4.15491e-07
-2.19008e-07
-4.29599e-07
-2.32838e-07
-4.44892e-07
-2.4847e-07
-4.61463e-07
-2.66211e-07
-4.79415e-07
-2.86429e-07
-4.98839e-07
-3.09636e-07
-5.19879e-07
-3.36431e-07
-5.42789e-07
-3.67077e-07
-5.67945e-07
-4.01199e-07
-5.95859e-07
-4.37291e-07
-6.27109e-07
-4.72211e-07
-6.62049e-07
-5.01402e-07
-7.00415e-07
-5.20492e-07
-7.41193e-07
-5.27479e-07
-7.82985e-07
-5.23394e-07
-8.24502e-07
-5.10965e-07
-8.6481e-07
-4.92921e-07
-9.03314e-07
-4.71273e-07
-9.39666e-07
-4.47264e-07
-9.73659e-07
-4.21578e-07
-1.00517e-06
-3.94598e-07
-1.03412e-06
-3.66546e-07
-1.06048e-06
-3.37571e-07
-1.08423e-06
-3.07785e-07
-1.10537e-06
-2.77283e-07
-1.12393e-06
-2.46152e-07
-1.13992e-06
-2.14471e-07
-1.1534e-06
-1.82317e-07
-1.16437e-06
-1.4976e-07
-1.17288e-06
-1.16869e-07
-1.17895e-06
-8.37066e-08
-1.1826e-06
-5.03345e-08
-1.68093e-08
6.57573e-07
-1.33564e-08
6.54697e-07
-3.99191e-08
6.4992e-07
-6.62578e-08
6.43256e-07
-9.22996e-08
6.34723e-07
-1.17969e-07
6.24341e-07
-1.43189e-07
6.12135e-07
-1.67876e-07
5.98138e-07
-1.91939e-07
5.8239e-07
-2.1527e-07
5.64943e-07
-2.37741e-07
5.45865e-07
-2.59187e-07
5.25244e-07
-2.79397e-07
5.03192e-07
-2.98102e-07
4.79853e-07
-3.14968e-07
4.55407e-07
-3.29614e-07
4.30067e-07
-3.41647e-07
4.04076e-07
-3.50739e-07
3.77691e-07
-3.56714e-07
3.5116e-07
-3.59625e-07
3.24703e-07
-3.59774e-07
2.98494e-07
-3.57654e-07
2.72662e-07
-3.53853e-07
2.4729e-07
-3.48934e-07
2.22427e-07
-3.4337e-07
1.98097e-07
-3.37503e-07
1.74309e-07
-3.31554e-07
1.51065e-07
-3.25644e-07
1.28364e-07
-3.19826e-07
1.06205e-07
-3.14107e-07
8.4585e-08
-3.08472e-07
6.35047e-08
-3.02897e-07
4.2964e-08
-2.97354e-07
2.29629e-08
-2.91825e-07
3.50117e-09
-2.86299e-07
-1.54221e-08
-2.80771e-07
-3.38085e-08
-2.7524e-07
-5.16583e-08
-2.69667e-07
-6.8974e-08
-2.64053e-07
-8.57597e-08
-2.58407e-07
-1.0202e-07
-2.52744e-07
-1.17764e-07
-2.47077e-07
-1.33e-07
-2.41422e-07
-1.4774e-07
-2.35793e-07
-1.62e-07
-2.30209e-07
-1.75793e-07
-2.24685e-07
-1.8914e-07
-2.19238e-07
-2.02058e-07
-2.13884e-07
-2.1457e-07
-2.08638e-07
-2.26701e-07
-2.03516e-07
-2.38475e-07
-1.98532e-07
-2.4992e-07
-1.93698e-07
-2.61066e-07
-1.89027e-07
-2.71945e-07
-1.84533e-07
-2.82589e-07
-1.80228e-07
-2.93034e-07
-1.76125e-07
-3.03315e-07
-1.72241e-07
-3.13472e-07
-1.68591e-07
-3.2354e-07
-1.65239e-07
-3.33589e-07
-1.62142e-07
-3.43646e-07
-1.5935e-07
-3.53798e-07
-1.56929e-07
-3.64139e-07
-1.5498e-07
-3.73932e-07
-1.60851e-07
-3.84124e-07
-1.67671e-07
-3.949e-07
-1.75489e-07
-4.06397e-07
-1.84383e-07
-4.18716e-07
-1.94443e-07
-4.31947e-07
-2.058e-07
-4.46174e-07
-2.18633e-07
-4.61488e-07
-2.33181e-07
-4.77982e-07
-2.49742e-07
-4.95761e-07
-2.68676e-07
-5.14927e-07
-2.90497e-07
-5.35653e-07
-3.15732e-07
-5.58219e-07
-3.44539e-07
-5.8302e-07
-3.76424e-07
-6.10566e-07
-4.09767e-07
-6.41373e-07
-4.41423e-07
-6.75663e-07
-4.67124e-07
-7.13041e-07
-4.83123e-07
-7.52465e-07
-4.8806e-07
-7.92637e-07
-4.83225e-07
-8.32427e-07
-4.71175e-07
-8.71041e-07
-4.54308e-07
-9.0798e-07
-4.34335e-07
-9.42951e-07
-4.12293e-07
-9.75776e-07
-3.88753e-07
-1.00634e-06
-3.64031e-07
-1.03457e-06
-3.38313e-07
-1.06042e-06
-3.11725e-07
-1.08384e-06
-2.84362e-07
-1.10482e-06
-2.56307e-07
-1.12333e-06
-2.27638e-07
-1.13938e-06
-1.98427e-07
-1.15295e-06
-1.68743e-07
-1.16406e-06
-1.38655e-07
-1.1727e-06
-1.0823e-07
-1.17887e-06
-7.75317e-08
-1.18258e-06
-4.66242e-08
-1.55695e-08
6.57562e-07
-1.23844e-08
6.5466e-07
-3.70178e-08
6.49846e-07
-6.14436e-08
6.43138e-07
-8.5591e-08
6.34557e-07
-1.09389e-07
6.24132e-07
-1.32764e-07
6.11896e-07
-1.5564e-07
5.97887e-07
-1.7793e-07
5.82155e-07
-1.99538e-07
5.6476e-07
-2.20345e-07
5.45774e-07
-2.402e-07
5.2529e-07
-2.58912e-07
5.03424e-07
-2.76234e-07
4.80318e-07
-2.91862e-07
4.56149e-07
-3.05443e-07
4.31121e-07
-3.16617e-07
4.05467e-07
-3.25081e-07
3.79428e-07
-3.3067e-07
3.53239e-07
-3.3343e-07
3.27107e-07
-3.33635e-07
3.01199e-07
-3.3174e-07
2.75639e-07
-3.28285e-07
2.50505e-07
-3.23793e-07
2.25846e-07
-3.18704e-07
2.01685e-07
-3.13335e-07
1.78031e-07
-3.07893e-07
1.54884e-07
-3.02491e-07
1.32243e-07
-2.97179e-07
1.10106e-07
-2.91964e-07
8.84682e-08
-2.8683e-07
6.73303e-08
-2.81754e-07
4.66912e-08
-2.76711e-07
2.6551e-08
-2.71681e-07
6.90929e-09
-2.66653e-07
-1.22348e-08
-2.61623e-07
-3.08828e-08
-2.56588e-07
-4.90346e-08
-2.51511e-07
-6.66912e-08
-2.46392e-07
-8.38551e-08
-2.41239e-07
-1.00531e-07
-2.36064e-07
-1.16725e-07
-2.30879e-07
-1.32447e-07
-2.25696e-07
-1.47706e-07
-2.2053e-07
-1.62514e-07
-2.15396e-07
-1.76886e-07
-2.10309e-07
-1.90837e-07
-2.05283e-07
-2.04384e-07
-2.00332e-07
-2.17547e-07
-1.95471e-07
-2.30347e-07
-1.90712e-07
-2.42805e-07
-1.86068e-07
-2.54947e-07
-1.81552e-07
-2.66797e-07
-1.77173e-07
-2.78381e-07
-1.72945e-07
-2.89725e-07
-1.6888e-07
-3.00857e-07
-1.64991e-07
-3.11802e-07
-1.61293e-07
-3.22582e-07
-1.57808e-07
-3.33219e-07
-1.546e-07
-3.43748e-07
-1.51612e-07
-3.54164e-07
-1.48936e-07
-3.64479e-07
-1.46616e-07
-3.7476e-07
-1.44759e-07
-3.85214e-07
-1.50405e-07
-3.96042e-07
-1.56853e-07
-4.07374e-07
-1.64169e-07
-4.19333e-07
-1.72438e-07
-4.32025e-07
-1.81766e-07
-4.45546e-07
-1.92294e-07
-4.59988e-07
-2.04206e-07
-4.75446e-07
-2.17739e-07
-4.92023e-07
-2.33182e-07
-5.09829e-07
-2.50886e-07
-5.2899e-07
-2.71353e-07
-5.497e-07
-2.95038e-07
-5.72249e-07
-3.22004e-07
-5.97018e-07
-3.51667e-07
-6.24463e-07
-3.82332e-07
-6.54989e-07
-4.10903e-07
-6.88687e-07
-4.3343e-07
-7.25078e-07
-4.46733e-07
-7.63173e-07
-4.49966e-07
-8.01826e-07
-4.44571e-07
-8.40072e-07
-4.32929e-07
-8.77232e-07
-4.17147e-07
-9.12872e-07
-3.98695e-07
-9.46719e-07
-3.78445e-07
-9.786e-07
-3.56873e-07
-1.00839e-06
-3.3424e-07
-1.036e-06
-3.10701e-07
-1.06137e-06
-2.8636e-07
-1.08443e-06
-2.61299e-07
-1.10515e-06
-2.35588e-07
-1.12349e-06
-2.09295e-07
-1.13943e-06
-1.82485e-07
-1.15295e-06
-1.55222e-07
-1.16404e-06
-1.2757e-07
-1.17268e-06
-9.9591e-08
-1.17886e-06
-7.13491e-08
-1.18258e-06
-4.29063e-08
-1.43265e-08
6.57563e-07
-1.14137e-08
6.54662e-07
-3.41171e-08
6.49848e-07
-5.66294e-08
6.43142e-07
-7.88847e-08
6.34569e-07
-1.00816e-07
6.24162e-07
-1.22356e-07
6.11956e-07
-1.43434e-07
5.97995e-07
-1.6397e-07
5.82333e-07
-1.83875e-07
5.6503e-07
-2.03042e-07
5.46162e-07
-2.21332e-07
5.25822e-07
-2.38572e-07
5.04124e-07
-2.54535e-07
4.81207e-07
-2.68944e-07
4.57242e-07
-2.81477e-07
4.3243e-07
-2.91803e-07
4.06995e-07
-2.99643e-07
3.81171e-07
-3.04843e-07
3.55188e-07
-3.07444e-07
3.29249e-07
-3.07692e-07
3.03518e-07
-3.06005e-07
2.78115e-07
-3.02877e-07
2.5312e-07
-2.98793e-07
2.28577e-07
-2.94156e-07
2.04509e-07
-2.89262e-07
1.80923e-07
-2.84302e-07
1.57819e-07
-2.79383e-07
1.35193e-07
-2.74549e-07
1.1304e-07
-2.69807e-07
9.13578e-08
-2.65144e-07
7.01429e-08
-2.60535e-07
4.93944e-08
-2.55959e-07
2.91118e-08
-2.51396e-07
9.29436e-09
-2.46833e-07
-1.00589e-08
-2.42268e-07
-2.89491e-08
-2.37695e-07
-4.73753e-08
-2.33083e-07
-6.53377e-08
-2.28427e-07
-8.28383e-08
-2.23736e-07
-9.98811e-08
-2.19019e-07
-1.16471e-07
-2.14286e-07
-1.32615e-07
-2.09549e-07
-1.48321e-07
-2.04821e-07
-1.636e-07
-2.00114e-07
-1.78463e-07
-1.95442e-07
-1.92923e-07
-1.90819e-07
-2.06996e-07
-1.86255e-07
-2.20699e-07
-1.81765e-07
-2.34049e-07
-1.77359e-07
-2.47066e-07
-1.73049e-07
-2.59769e-07
-1.68845e-07
-2.72181e-07
-1.64758e-07
-2.84325e-07
-1.60799e-07
-2.96222e-07
-1.5698e-07
-3.07897e-07
-1.53314e-07
-3.19372e-07
-1.49816e-07
-3.30662e-07
-1.46516e-07
-3.41797e-07
-1.43464e-07
-3.52788e-07
-1.40622e-07
-3.63624e-07
-1.381e-07
-3.74262e-07
-1.35981e-07
-3.84477e-07
-1.34607e-07
-3.95069e-07
-1.3982e-07
-4.06154e-07
-1.45775e-07
-4.17796e-07
-1.52536e-07
-4.30068e-07
-1.60175e-07
-4.43052e-07
-1.68791e-07
-4.56832e-07
-1.78524e-07
-4.71495e-07
-1.89553e-07
-4.87138e-07
-2.02105e-07
-5.03871e-07
-2.16458e-07
-5.21814e-07
-2.32951e-07
-5.41111e-07
-2.52063e-07
-5.61982e-07
-2.74171e-07
-5.84724e-07
-2.99264e-07
-6.09708e-07
-3.26684e-07
-6.37339e-07
-3.54698e-07
-6.67923e-07
-3.80315e-07
-7.01417e-07
-3.99931e-07
-7.37255e-07
-4.10891e-07
-7.74463e-07
-4.12754e-07
-8.11998e-07
-4.07034e-07
-8.49014e-07
-3.95911e-07
-8.84932e-07
-3.81229e-07
-9.1938e-07
-3.64246e-07
-9.52127e-07
-3.45698e-07
-9.83017e-07
-3.25983e-07
-1.01194e-06
-3.05321e-07
-1.0388e-06
-2.83841e-07
-1.06352e-06
-2.61632e-07
-1.08606e-06
-2.38764e-07
-1.10635e-06
-2.15298e-07
-1.12435e-06
-1.91294e-07
-1.14002e-06
-1.6681e-07
-1.15334e-06
-1.41904e-07
-1.16428e-06
-1.16634e-07
-1.17281e-06
-9.10598e-08
-1.17892e-06
-6.52391e-08
-1.18259e-06
-3.92315e-08
-1.30986e-08
6.57565e-07
-1.04448e-08
6.5467e-07
-3.12223e-08
6.49867e-07
-5.1826e-08
6.43177e-07
-7.21946e-08
6.34627e-07
-9.2267e-08
6.24252e-07
-1.11981e-07
6.12089e-07
-1.31271e-07
5.98185e-07
-1.50065e-07
5.82593e-07
-1.68283e-07
5.65377e-07
-1.85826e-07
5.46614e-07
-2.02569e-07
5.26396e-07
-2.18354e-07
5.04836e-07
-2.32975e-07
4.82072e-07
-2.4618e-07
4.5827e-07
-2.57675e-07
4.33627e-07
-2.67159e-07
4.0836e-07
-2.74375e-07
3.82699e-07
-2.79181e-07
3.56868e-07
-2.81611e-07
3.31066e-07
-2.81888e-07
3.05455e-07
-2.80391e-07
2.80154e-07
-2.77574e-07
2.55241e-07
-2.73878e-07
2.30762e-07
-2.69675e-07
2.06739e-07
-2.65236e-07
1.83178e-07
-2.60739e-07
1.60078e-07
-2.5628e-07
1.37433e-07
-2.51902e-07
1.15239e-07
-2.47611e-07
9.34907e-08
-2.43393e-07
7.21849e-08
-2.39228e-07
5.13196e-08
-2.35092e-07
3.08939e-08
-2.30968e-07
1.0907e-08
-2.26845e-07
-8.64187e-09
-2.22717e-07
-2.77533e-08
-2.18582e-07
-4.64263e-08
-2.14408e-07
-6.46609e-08
-2.10191e-07
-8.24581e-08
-2.05937e-07
-9.98202e-08
-2.01654e-07
-1.16751e-07
-1.97353e-07
-1.33255e-07
-1.93042e-07
-1.4934e-07
-1.88734e-07
-1.65013e-07
-1.84439e-07
-1.80284e-07
-1.80169e-07
-1.95164e-07
-1.75936e-07
-2.09666e-07
-1.71751e-07
-2.23804e-07
-1.67625e-07
-2.37592e-07
-1.63569e-07
-2.51046e-07
-1.59592e-07
-2.64185e-07
-1.55704e-07
-2.77025e-07
-1.51916e-07
-2.89586e-07
-1.48236e-07
-3.01887e-07
-1.44677e-07
-3.13948e-07
-1.4125e-07
-3.25791e-07
-1.37971e-07
-3.37433e-07
-1.34872e-07
-3.48902e-07
-1.31993e-07
-3.60214e-07
-1.29308e-07
-3.71382e-07
-1.26931e-07
-3.82406e-07
-1.24953e-07
-3.92717e-07
-1.2435e-07
-4.03468e-07
-1.29075e-07
-4.14751e-07
-1.34497e-07
-4.26613e-07
-1.40679e-07
-4.39115e-07
-1.47678e-07
-4.52326e-07
-1.55585e-07
-4.66325e-07
-1.64529e-07
-4.81199e-07
-1.74683e-07
-4.97046e-07
-1.8626e-07
-5.13983e-07
-1.99522e-07
-5.32139e-07
-2.14794e-07
-5.51678e-07
-2.32521e-07
-5.72833e-07
-2.53011e-07
-5.95899e-07
-2.76189e-07
-6.21224e-07
-3.01348e-07
-6.49149e-07
-3.2676e-07
-6.79868e-07
-3.49584e-07
-7.13217e-07
-3.6657e-07
-7.48573e-07
-3.75526e-07
-7.84999e-07
-3.76322e-07
-8.21559e-07
-3.70471e-07
-8.57516e-07
-3.59952e-07
-8.9237e-07
-3.46374e-07
-9.25799e-07
-3.30817e-07
-9.57595e-07
-3.13901e-07
-9.87615e-07
-2.95963e-07
-1.01575e-06
-2.77186e-07
-1.04191e-06
-2.57679e-07
-1.06603e-06
-2.37518e-07
-1.08803e-06
-2.16762e-07
-1.10786e-06
-1.95464e-07
-1.12548e-06
-1.73678e-07
-1.14084e-06
-1.51454e-07
-1.1539e-06
-1.28845e-07
-1.16463e-06
-1.05903e-07
-1.173e-06
-8.26828e-08
-1.179e-06
-5.92372e-08
-1.18262e-06
-3.56211e-08
-1.18924e-08
6.57569e-07
-9.48e-09
6.54686e-07
-2.83392e-08
6.49901e-07
-4.70414e-08
6.43237e-07
-6.5531e-08
6.34723e-07
-8.37524e-08
6.24391e-07
-1.01649e-07
6.12281e-07
-1.19161e-07
5.98441e-07
-1.36225e-07
5.82924e-07
-1.52767e-07
5.65795e-07
-1.68697e-07
5.47129e-07
-1.83904e-07
5.27019e-07
-1.98243e-07
5.05575e-07
-2.11531e-07
4.82932e-07
-2.23538e-07
4.59256e-07
-2.33999e-07
4.34736e-07
-2.4264e-07
4.09587e-07
-2.49227e-07
3.84036e-07
-2.5363e-07
3.58302e-07
-2.55878e-07
3.32585e-07
-2.5617e-07
3.07043e-07
-2.5485e-07
2.81798e-07
-2.52328e-07
2.56926e-07
-2.49006e-07
2.32474e-07
-2.45222e-07
2.08462e-07
-2.41224e-07
1.84897e-07
-2.37173e-07
1.61777e-07
-2.33159e-07
1.39094e-07
-2.29219e-07
1.16844e-07
-2.2536e-07
9.50199e-08
-2.21569e-07
7.36186e-08
-2.17826e-07
5.26374e-08
-2.1411e-07
3.2075e-08
-2.10405e-07
1.19309e-08
-2.067e-07
-7.7954e-09
-2.0299e-07
-2.71048e-08
-1.99272e-07
-4.59962e-08
-1.95516e-07
-6.44686e-08
-1.91717e-07
-8.25218e-08
-1.87882e-07
-1.00157e-07
-1.84018e-07
-1.17376e-07
-1.80132e-07
-1.34183e-07
-1.76234e-07
-1.50583e-07
-1.72333e-07
-1.66582e-07
-1.68438e-07
-1.82187e-07
-1.64562e-07
-1.97409e-07
-1.60713e-07
-2.12255e-07
-1.56903e-07
-2.26739e-07
-1.5314e-07
-2.40872e-07
-1.49434e-07
-2.54668e-07
-1.45795e-07
-2.6814e-07
-1.4223e-07
-2.81305e-07
-1.3875e-07
-2.94176e-07
-1.35363e-07
-3.06772e-07
-1.3208e-07
-3.1911e-07
-1.28912e-07
-3.31207e-07
-1.25873e-07
-3.43084e-07
-1.22994e-07
-3.54765e-07
-1.20311e-07
-3.66272e-07
-1.178e-07
-3.77639e-07
-1.15562e-07
-3.88911e-07
-1.13678e-07
-3.99442e-07
-1.13851e-07
-4.10412e-07
-1.18108e-07
-4.21903e-07
-1.23008e-07
-4.33972e-07
-1.28612e-07
-4.4668e-07
-1.34972e-07
-4.60096e-07
-1.42169e-07
-4.74298e-07
-1.50326e-07
-4.89376e-07
-1.59603e-07
-5.05433e-07
-1.70198e-07
-5.22594e-07
-1.82355e-07
-5.40998e-07
-1.96382e-07
-5.60826e-07
-2.12681e-07
-5.82321e-07
-2.31501e-07
-6.05776e-07
-2.52717e-07
-6.31507e-07
-2.75596e-07
-6.59791e-07
-2.98455e-07
-6.90719e-07
-3.18635e-07
-7.24025e-07
-3.33248e-07
-7.59033e-07
-3.40505e-07
-7.94847e-07
-3.405e-07
-8.30613e-07
-3.34699e-07
-8.65686e-07
-3.24876e-07
-8.99629e-07
-3.12429e-07
-9.32163e-07
-2.98282e-07
-9.63105e-07
-2.82959e-07
-9.92325e-07
-2.66743e-07
-1.01972e-06
-2.49789e-07
-1.04521e-06
-2.32189e-07
-1.06872e-06
-2.14008e-07
-1.09019e-06
-1.95297e-07
-1.10955e-06
-1.76102e-07
-1.12676e-06
-1.5647e-07
-1.14177e-06
-1.36445e-07
-1.15454e-06
-1.16074e-07
-1.16503e-06
-9.54051e-08
-1.17323e-06
-7.44848e-08
-1.17911e-06
-5.33625e-08
-1.18264e-06
-3.20873e-08
-1.0712e-08
6.57573e-07
-8.51937e-09
6.54702e-07
-2.54683e-08
6.49938e-07
-4.2277e-08
6.43302e-07
-5.88954e-08
6.34824e-07
-7.52737e-08
6.24536e-07
-9.13609e-08
6.12478e-07
-1.07104e-07
5.98698e-07
-1.22445e-07
5.8325e-07
-1.37318e-07
5.66197e-07
-1.51644e-07
5.47615e-07
-1.65321e-07
5.27594e-07
-1.78222e-07
5.06244e-07
-1.90181e-07
4.83698e-07
-2.00993e-07
4.60118e-07
-2.10419e-07
4.35691e-07
-2.18214e-07
4.1063e-07
-2.24166e-07
3.85156e-07
-2.28158e-07
3.59489e-07
-2.30212e-07
3.33824e-07
-2.30508e-07
3.08324e-07
-2.29352e-07
2.83107e-07
-2.27112e-07
2.58251e-07
-2.24152e-07
2.33802e-07
-2.20774e-07
2.09781e-07
-2.17204e-07
1.86194e-07
-2.13587e-07
1.63038e-07
-2.10004e-07
1.40306e-07
-2.06488e-07
1.17992e-07
-2.03046e-07
9.60896e-08
-1.99666e-07
7.45936e-08
-1.9633e-07
5.35017e-08
-1.93018e-07
3.28127e-08
-1.89716e-07
1.2526e-08
-1.86413e-07
-7.35916e-09
-1.83105e-07
-2.68434e-08
-1.79788e-07
-4.59249e-08
-1.76434e-07
-6.46016e-08
-1.7304e-07
-8.28727e-08
-1.69611e-07
-1.00738e-07
-1.66152e-07
-1.18199e-07
-1.62671e-07
-1.35257e-07
-1.59175e-07
-1.51917e-07
-1.55673e-07
-1.68182e-07
-1.52173e-07
-1.84058e-07
-1.48685e-07
-1.99553e-07
-1.45217e-07
-2.14675e-07
-1.4178e-07
-2.29433e-07
-1.38381e-07
-2.43837e-07
-1.3503e-07
-2.57897e-07
-1.31733e-07
-2.71627e-07
-1.285e-07
-2.85039e-07
-1.25338e-07
-2.98146e-07
-1.22256e-07
-3.10962e-07
-1.19263e-07
-3.23504e-07
-1.16369e-07
-3.35788e-07
-1.13588e-07
-3.47833e-07
-1.10949e-07
-3.59664e-07
-1.0848e-07
-3.71303e-07
-1.06161e-07
-3.82786e-07
-1.04079e-07
-3.94138e-07
-1.02321e-07
-4.04905e-07
-1.03089e-07
-4.16109e-07
-1.06905e-07
-4.27814e-07
-1.11303e-07
-4.40084e-07
-1.1634e-07
-4.52988e-07
-1.22066e-07
-4.66596e-07
-1.28557e-07
-4.80992e-07
-1.35925e-07
-4.9627e-07
-1.44317e-07
-5.12541e-07
-1.53918e-07
-5.29936e-07
-1.64948e-07
-5.48606e-07
-1.77696e-07
-5.68745e-07
-1.92524e-07
-5.90604e-07
-2.09619e-07
-6.14467e-07
-2.28828e-07
-6.40618e-07
-2.49416e-07
-6.69269e-07
-2.69776e-07
-7.00413e-07
-2.87464e-07
-7.33696e-07
-2.99944e-07
-7.68412e-07
-3.05774e-07
-8.03704e-07
-3.05199e-07
-8.38797e-07
-2.99601e-07
-8.73117e-07
-2.90552e-07
-9.06284e-07
-2.79261e-07
-9.3805e-07
-2.66515e-07
-9.68252e-07
-2.52757e-07
-9.9677e-07
-2.38225e-07
-1.02351e-06
-2.23048e-07
-1.04839e-06
-2.07307e-07
-1.07135e-06
-1.91054e-07
-1.09231e-06
-1.74335e-07
-1.11122e-06
-1.57189e-07
-1.12804e-06
-1.39656e-07
-1.1427e-06
-1.21776e-07
-1.15519e-06
-1.03591e-07
-1.16545e-06
-8.5141e-08
-1.17347e-06
-6.64689e-08
-1.17921e-06
-4.7618e-08
-1.18267e-06
-2.8632e-08
-9.55806e-09
6.57577e-07
-7.56293e-09
6.54719e-07
-2.26096e-08
6.49974e-07
-3.75324e-08
6.43366e-07
-5.22871e-08
6.34921e-07
-6.68294e-08
6.24675e-07
-8.11144e-08
6.12666e-07
-9.5095e-08
5.9894e-07
-1.0872e-07
5.83552e-07
-1.21931e-07
5.66565e-07
-1.34657e-07
5.48054e-07
-1.4681e-07
5.28107e-07
-1.58276e-07
5.06833e-07
-1.68908e-07
4.84363e-07
-1.78524e-07
4.60856e-07
-1.86914e-07
4.36498e-07
-1.93858e-07
4.11498e-07
-1.99168e-07
3.86076e-07
-2.02739e-07
3.60451e-07
-2.04589e-07
3.34818e-07
-2.04877e-07
3.09337e-07
-2.03874e-07
2.84129e-07
-2.01907e-07
2.59272e-07
-1.99297e-07
2.34812e-07
-1.96317e-07
2.1077e-07
-1.93165e-07
1.87152e-07
-1.89971e-07
1.63954e-07
-1.86807e-07
1.41169e-07
-1.83705e-07
1.1879e-07
-1.80668e-07
9.68102e-08
-1.77687e-07
7.52249e-08
-1.74745e-07
5.40314e-08
-1.71825e-07
3.32282e-08
-1.68913e-07
1.28147e-08
-1.66e-07
-7.20972e-09
-1.63081e-07
-2.68451e-08
-1.60152e-07
-4.60891e-08
-1.5719e-07
-6.49391e-08
-1.5419e-07
-8.33932e-08
-1.51157e-07
-1.0145e-07
-1.48095e-07
-1.19111e-07
-1.45011e-07
-1.36375e-07
-1.41911e-07
-1.53246e-07
-1.38802e-07
-1.69726e-07
-1.35692e-07
-1.8582e-07
-1.3259e-07
-2.01534e-07
-1.29504e-07
-2.16873e-07
-1.26441e-07
-2.31846e-07
-1.23408e-07
-2.4646e-07
-1.20415e-07
-2.60726e-07
-1.17467e-07
-2.74653e-07
-1.14573e-07
-2.88252e-07
-1.11739e-07
-3.01536e-07
-1.08972e-07
-3.14516e-07
-1.06282e-07
-3.27208e-07
-1.03677e-07
-3.39626e-07
-1.0117e-07
-3.51789e-07
-9.8786e-08
-3.63719e-07
-9.65498e-08