/*--------------------------------*- C++ -*----------------------------------*\
  =========                 |
  \\      /  F ield         | OpenFOAM: The Open Source CFD Toolbox
   \\    /   O peration     | Website:  https://openfoam.org
    \\  /    A nd           | Version:  8
     \\/     M anipulation  |
\*---------------------------------------------------------------------------*/
FoamFile
{
    version     2.0;
    format      ascii;
    class       volScalarField;
    location    "580/fluid";
    object      Qdot;
}
// * * * * * * * * * * * * * * * * * * * * * * * * * * * * * * * * * * * * * //

dimensions      [1 -1 -3 0 0 0 0];

internalField   nonuniform List<scalar> 
4000
(
2.65775e-07
0
2.92025e-07
-1.2836e-20
0
1.31676e-11
0
0
0
1.44098e-10
2.39074e-10
0
0
0
-1.2423e-09
-3.42801e-17
-2.51374e-16
-2.71012e-15
9.44021e-09
2.48366e-07
3.62468e-06
4.80375e-05
0.000572442
0.00568896
0.0462165
0.306171
1.66792
7.57773
29.1806
96.7925
280.669
720.519
1655.47
3439.23
6518.69
11390.3
18589.2
28715
42564.7
61299.6
86579.3
120619
166312
227493
309268
418303
563651
757756
1.01645e+06
1.36055e+06
1.81738e+06
2.42282e+06
3.22395e+06
4.28268e+06
5.68052e+06
7.52517e+06
9.95948e+06
1.31347e+07
1.72779e+07
2.29057e+07
3.03806e+07
4.04856e+07
4.06897e+08
3.00542e+07
2.16291e+07
1.53811e+07
1.0787e+07
7.44609e+06
5.04884e+06
3.35658e+06
2.18645e+06
1.39996e+06
894896
577822
158948
12280.5
342.171
4.85935
0.0459192
0.000462746
8.53527e-06
3.96434e-07
4.46937e-08
8.95866e-09
2.74641e-09
1.02855e-09
4.58865e-10
1.99871e-10
6.9398e-11
3.82181e-11
1.44276e-11
6.26164e-12
2.45773e-12
1.04864e-12
4.12e-13
1.9216e-13
4.83173e-12
2.51736e-14
8.84855e-15
1.65457e-15
0
2.78625e-07
0
0
1.84373e-16
-3.23953e-07
0
1.22707e-10
-3.49609e-07
-1.41037e-10
-4.89046e-19
0
1.06784e-09
-3.76029e-07
-4.10264e-18
-3.8634e-07
-2.59867e-16
-2.67197e-15
9.13447e-09
2.40526e-07
3.37302e-06
4.42956e-05
0.000530298
0.00530138
0.0434655
0.291198
1.60555
7.38245
28.7563
96.4072
282.283
731.013
1691.69
3532.73
6723.7
11776.7
19233.6
29687
43914.7
63049.9
88722.5
123113
169107
230557
312262
421245
567242
761973
1.02141e+06
1.36652e+06
1.82487e+06
2.43272e+06
3.2378e+06
4.30304e+06
5.71172e+06
7.57433e+06
1.00384e+07
1.32597e+07
1.74798e+07
2.32413e+07
3.09402e+07
7.53228e+07
3.78124e+08
2.96093e+07
2.12672e+07
1.50915e+07
1.05576e+07
7.26592e+06
4.9091e+06
3.25024e+06
2.10784e+06
1.3446e+06
859522
531936
118260
7226.94
172.904
2.20052
0.0202935
0.000224727
4.97574e-06
2.79367e-07
3.58137e-08
8.59009e-09
2.86864e-09
9.84001e-10
3.85833e-10
1.92446e-10
7.03948e-11
3.37317e-11
1.50667e-11
1.18941e-11
2.415e-12
1.04543e-12
1.29341e-12
1.64867e-13
6.91618e-14
2.51121e-14
7.79243e-13
1.65524e-15
-4.86995e-18
0
0
0
0
3.188e-07
-5.868e-11
1.12832e-19
3.20473e-15
3.25737e-15
0
-3.55834e-07
0
3.62383e-07
-7.89773e-18
-3.71086e-07
-2.36209e-09
-2.69789e-15
8.77843e-09
2.39249e-07
3.04969e-06
4.25165e-05
0.00050567
0.00506543
0.0417743
0.282225
1.57164
7.30462
28.7674
97.4952
288.464
754.402
1761.1
3702.09
7080.64
12442.8
20346.5
31382.2
46310
66236.6
92768
128067
174987
237079
319814
430760
578692
775878
1.03848e+06
1.38776e+06
1.85175e+06
2.46739e+06
3.2835e+06
4.36466e+06
5.79662e+06
7.69361e+06
1.02085e+07
1.3502e+07
1.78269e+07
2.37457e+07
3.16548e+07
1.53369e+08
3.0642e+08
2.9488e+07
2.10433e+07
1.48348e+07
1.03086e+07
7.04548e+06
4.72588e+06
3.1058e+06
1.99995e+06
1.26952e+06
813596
453029
77243.1
3750.19
79.0579
0.946754
0.00907141
0.000115609
3.09343e-06
2.05826e-07
3.01745e-08
7.56928e-09
2.42862e-09
9.48976e-10
3.66956e-10
1.70071e-10
7.84842e-11
3.43902e-11
1.29152e-11
6.47986e-12
2.37093e-12
1.07762e-12
1.27724e-12
1.63471e-13
6.25089e-14
4.60439e-12
8.83689e-15
-7.43027e-13
3.71238e-13
2.91489e-21
-6.05741e-21
0
0
-1.26611e-11
0
0
0
3.38935e-07
3.43237e-07
-1.30313e-14
-5.53195e-10
2.64944e-14
-1.12376e-09
-3.47853e-17
5.4098e-14
-2.67452e-15
-3.61288e-07
2.23683e-07
3.13903e-06
4.11763e-05
0.000488841
0.00492043
0.0408846
0.278724
1.56766
7.36196
29.2975
100.319
299.792
791.486
1863.82
3944.28
7573.34
13347.9
21843.7
33650.8
49512.3
70515.9
98234.4
134722
182807
246660
332150
445930
597495
799373
1.06808e+06
1.42537e+06
1.89997e+06
2.52985e+06
3.36523e+06
4.47277e+06
5.94112e+06
7.88863e+06
1.0474e+07
1.38585e+07
1.83078e+07
2.44058e+07
3.25718e+07
2.45537e+08
2.16677e+08
2.94344e+07
2.08298e+07
1.45582e+07
1.00278e+07
6.79257e+06
4.5153e+06
2.94125e+06
1.87915e+06
1.18758e+06
765075
357892
46524.6
1845.87
34.5843
0.392676
0.00393344
5.77773e-05
1.86596e-06
1.46086e-07
2.34605e-08
6.07732e-09
2.352e-09
8.15683e-10
3.58285e-10
1.53934e-10
6.06165e-11
3.21979e-11
1.27099e-11
5.52359e-12
2.43812e-12
9.61541e-13
3.7675e-13
1.68307e-13
6.23302e-14
2.50188e-14
8.10557e-15
1.48236e-15
4.8566e-18
2.02217e-17
0
-7.28253e-12
1.49754e-11
1.2483e-11
3.13315e-11
0
0
2.37708e-10
-2.64767e-10
-5.33876e-10
9.74951e-10
1.84513e-18
-7.42802e-18
-3.74094e-17
-2.21246e-09
-1.08898e-13
8.20253e-09
4.2255e-07
3.0973e-06
4.01991e-05
0.000482028
0.00487693
0.0408163
0.280627
1.59299
7.55284
30.3481
104.91
316.417
842.73
2000.41
4258.21
8199.61
14480.7
23693.6
36423.6
53396.1
75637.3
104554
142344
192557
259406
348031
465852
622683
831451
1.1092e+06
1.47843e+06
1.96884e+06
2.61973e+06
3.48318e+06
4.62831e+06
6.14712e+06
8.16253e+06
1.08368e+07
1.43239e+07
1.8922e+07
2.52402e+07
3.36875e+07
3.36734e+08
1.25574e+08
2.91484e+07
2.04364e+07
1.41496e+07
9.65551e+06
6.48009e+06
4.26873e+06
2.7569e+06
1.7488e+06
1.1019e+06
713006
253166
26870.8
902.634
15.3201
0.168648
0.00180221
3.07359e-05
1.18693e-06
1.09262e-07
1.92304e-08
5.94942e-09
1.98306e-09
7.97285e-10
3.51243e-10
1.43163e-10
6.25621e-11
3.16242e-11
1.25124e-11
5.02438e-12
2.31543e-12
9.5263e-13
3.74141e-13
1.49216e-13
6.83444e-14
2.36479e-14
8.11964e-15
5.05617e-12
3.70177e-13
2.01357e-17
3.50463e-12
-5.87166e-12
0
-3.05961e-07
3.11748e-07
1.06863e-19
1.26951e-10
-1.04371e-10
0
-4.2365e-10
3.31206e-07
1.79401e-18
-8.60226e-10
-3.2648e-17
3.4058e-07
7.84449e-09
7.92918e-09
2.24649e-07
3.08731e-06
4.00568e-05
0.00048282
0.00491639
0.0414527
0.287389
1.6458
7.87368
31.9221
111.325
338.634
909.15
2173.52
4651.92
8977.38
15848.6
25898.9
39675.9
57814.5
81309.1
111826
152034
204829
274556
367023
489947
653541
871278
1.16094e+06
1.54603e+06
2.0576e+06
2.73675e+06
3.63791e+06
4.83325e+06
6.41858e+06
8.52137e+06
1.13056e+07
1.49288e+07
1.97238e+07
2.62662e+07
3.49564e+07
4.20562e+08
4.02889e+07
2.81772e+07
1.95488e+07
1.34164e+07
9.08425e+06
6.05325e+06
3.96098e+06
2.54275e+06
1.60578e+06
1.01165e+06
648585
186934
15247.9
447.829
7.00462
0.0758902
0.000872037
1.71969e-05
7.81959e-07
8.17158e-08
1.60241e-08
5.01107e-09
1.73745e-09
8.31222e-10
2.79619e-10
1.34824e-10
6.16154e-11
2.77986e-11
1.0674e-11
4.96874e-12
-3.60216e-12
1.71636e-12
3.21279e-13
1.36147e-13
-4.53814e-12
7.96535e-13
-5.16776e-12
1.31403e-15
0
0
0
0
0
0
5.50593e-11
0
0
0
-3.19392e-07
8.6576e-19
3.22385e-07
-1.85413e-09
-3.24901e-07
4.89397e-14
1.68759e-09
9.66056e-14
7.65845e-09
2.32273e-07
2.94743e-06
4.09049e-05
0.000491063
0.00503007
0.0427291
0.298649
1.72474
8.32169
34.0233
119.632
366.783
991.971
2386.57
5130.7
9909.92
17454.3
28414.7
43219.3
62496.2
87585.4
120218
162573
218018
291128
388021
516807
688202
916365
1.22002e+06
1.62398e+06
2.1611e+06
2.87499e+06
3.82351e+06
5.08351e+06
6.75705e+06
8.97961e+06
1.193e+07
1.57357e+07
2.09283e+07
2.7813e+07
3.68977e+07
4.53933e+08
3.52516e+07
2.50603e+07
1.75675e+07
1.2132e+07
8.24229e+06
5.49983e+06
3.59932e+06
2.30997e+06
1.46006e+06
925027
574981
134092
8804.24
231.436
3.3878
0.0366295
0.000455644
1.03335e-05
5.48101e-07
6.54347e-08
1.41742e-08
4.1069e-09
1.6146e-09
7.17346e-10
3.13022e-10
1.25412e-10
6.06915e-11
2.64244e-11
1.0546e-11
4.73016e-12
2.6868e-12
8.36137e-13
3.44607e-13
5.57352e-12
5.57924e-14
2.04872e-14
7.41327e-15
1.1401e-15
2.63307e-07
0
2.79586e-07
-7.08566e-12
-1.44701e-11
-1.19823e-11
-5.41985e-11
0
0
-3.10379e-07
0
0
0
-1.69444e-18
-9.95537e-10
-3.15432e-07
-1.63285e-09
7.32865e-09
1.80993e-08
2.32166e-07
3.01968e-06
4.14432e-05
0.000505359
0.00521313
0.0446137
0.314287
1.82975
8.89989
36.6779
129.967
401.424
1093.01
2644.31
5703.51
11002.2
19268.3
31164.1
47154.5
68075.2
94866.8
129233
173710
231833
308412
409852
544641
723996
962773
1.28067e+06
1.70389e+06
2.26728e+06
3.01735e+06
4.01626e+06
5.34729e+06
7.12235e+06
9.49241e+06
1.26582e+07
1.6787e+07
2.24907e+07
3.01639e+07
4.05038e+07
4.39919e+08
3.21747e+07
2.28826e+07
1.6058e+07
1.11011e+07
7.54727e+06
5.03779e+06
3.29749e+06
2.11751e+06
1.34192e+06
857568
502217
96183.2
5297.85
126.775
1.75712
0.019125
0.000257622
6.64927e-06
4.02439e-07
5.33145e-08
1.17725e-08
4.03818e-09
1.57747e-09
6.54365e-10
2.96443e-10
1.18558e-10
5.33357e-11
2.37983e-11
9.15518e-12
4.45709e-12
1.84566e-12
8.29856e-13
-4.97509e-13
5.51568e-12
4.96129e-14
2.04845e-14
6.69316e-15
-7.39601e-13
3.68573e-13
0
0
2.83851e-07
1.69937e-16
3.45141e-16
5.33457e-11
0
0
2.85537e-15
-5.72598e-15
0
0
1.64582e-18
-1.75084e-09
-3.05379e-07
-1.57842e-09
-2.88032e-15
1.42513e-08
4.00809e-07
3.13593e-06
4.31998e-05
0.000526056
0.00546164
0.0470848
0.334248
1.96117
9.61338
39.9216
142.513
443.278
1214.6
2952.66
6374.87
12229.1
21237.3
34226.4
51642.1
73996.2
102346
138468
185038
245763
325663
431384
571712
758252
1.00638e+06
1.33648e+06
1.77571e+06
2.36024e+06
3.13836e+06
4.17471e+06
5.55601e+06
7.39896e+06
9.86112e+06
1.31319e+07
1.74263e+07
2.33734e+07
3.13892e+07
7.9619e+07
4.0224e+08
3.03745e+07
2.1567e+07
1.51127e+07
1.04337e+07
7.08496e+06
4.72415e+06
3.08988e+06
1.98453e+06
1.26114e+06
813783
431983
70128.6
3347.66
73.9328
0.980503
0.0108096
0.000157361
4.57013e-06
3.08625e-07
4.49177e-08
1.08105e-08
3.77745e-09
1.40654e-09
6.43184e-10
2.51678e-10
1.21398e-10
4.62057e-11
2.10077e-11
1.41854e-11
4.01072e-12
1.62989e-12
7.24367e-13
3.02343e-13
1.22337e-13
-7.33628e-13
-7.47331e-13
6.70233e-15
-5.0331e-12
-2.02933e-13
1.66702e-12
0
0
0
0
0
-2.94784e-07
0
0
0
0
0
-2.95894e-07
-1.69646e-09
-2.97253e-07
3.49129e-10
-2.98226e-15
2.05794e-08
2.52529e-07
3.44049e-06
4.51248e-05
0.000552286
0.00577347
0.0501338
0.358568
2.11984
10.4697
43.8012
157.497
493.266
1359.61
3314.94
7144.86
13643.2
23627.4
37840.4
56527.5
80249.6
110068
147856
196401
259566
342520
452082
597233
789813
1.04547e+06
1.38496e+06
1.83583e+06
2.43471e+06
3.23039e+06
4.28798e+06
5.69441e+06
7.56609e+06
1.00592e+07
1.33558e+07
1.76604e+07
2.35897e+07
3.15177e+07
1.50644e+08
3.38158e+08
2.94435e+07
2.08499e+07
1.45765e+07
1.00433e+07
6.80785e+06
4.53276e+06
2.96185e+06
1.90246e+06
1.21214e+06
788427
383309
52530.9
2230.94
45.887
0.587099
0.00658695
0.000103194
3.32684e-06
2.5106e-07
3.89825e-08
9.69831e-09
3.32574e-09
1.23098e-09
5.77654e-10
2.48311e-10
1.01695e-10
5.18153e-11
2.23054e-11
9.38609e-12
3.96836e-12
1.61517e-12
6.69801e-13
2.89543e-13
1.21787e-13
4.63714e-14
1.89685e-14
-7.45786e-13
5.0303e-12
0
0
8.05006e-17
0
0
1.14956e-11
0
0
-1.36457e-15
0
0
1.08763e-14
0
2.15828e-14
-9.26492e-18
-3.69813e-17
-3.27674e-09
2.94592e-09
1.68224e-08
1.17892e-07
3.47139e-06
4.73826e-05
0.000583796
0.00614578
0.0537508
0.387275
2.30659
11.4763
48.3626
175.131
551.967
1527.64
3731.56
8044.9
15317.3
26259.8
41674.5
61650.2
86699.4
117927
157305
207729
273188
358958
471974
621328
818983
1.08071e+06
1.42739e+06
1.88663e+06
2.49511e+06
3.30151e+06
4.37055e+06
5.78844e+06
7.67016e+06
1.01694e+07
1.34608e+07
1.77465e+07
2.3633e+07
3.14821e+07
2.12428e+08
2.78847e+08
2.88282e+07
2.03867e+07
1.42347e+07
9.79663e+06
6.63415e+06
4.41385e+06
2.88328e+06
1.85318e+06
1.18402e+06
775418
336616
40620.4
1566.63
30.3239
0.376556
0.00430367
7.21588e-05
2.55415e-06
2.07937e-07
3.4566e-08
9.14618e-09
3.07418e-09
1.30257e-09
5.93746e-10
2.19779e-10
1.12294e-10
4.73484e-11
2.06084e-11
8.49273e-12
2.75083e-12
1.40545e-12
7.12851e-13
2.8764e-13
1.2117e-13
4.45883e-14
1.747e-14
7.55628e-13
1.01664e-15
-6.90168e-22
0
-5.73875e-21
0
0
0
-2.83231e-07
-2.84098e-07
1.33647e-15
0
2.83218e-07
1.05842e-14
0
-2.7807e-07
-1.58789e-09
-4.14745e-14
-3.32347e-16
-2.83176e-09
1.89787e-08
2.73051e-07
3.54291e-06
4.99354e-05
0.000620727
0.00657557
0.0579191
0.420365
2.52219
12.6416
53.6609
195.613
619.437
1720.45
4225.45
9129.01
17202.5
29115.6
45723.8
66944.1
93252.2
125828
166737
218980
286637
375067
491276
644420
846520
1.11339e+06
1.4659e+06
1.93163e+06
2.54708e+06
3.36061e+06
4.43638e+06
5.85962e+06
7.7436e+06
1.02381e+07
1.35135e+07
1.7775e+07
2.36169e+07
3.13827e+07
2.65445e+08
2.28078e+08
2.82584e+07
1.99906e+07
1.39611e+07
9.60992e+06
6.50874e+06
4.33135e+06
2.83076e+06
1.82171e+06
1.16786e+06
769436
287898
32428.7
1153.77
21.1903
0.257021
0.00299582
5.34177e-05
2.0497e-06
1.8014e-07
3.14228e-08
8.59568e-09
3.1936e-09
1.18771e-09
5.14163e-10
2.39587e-10
1.07694e-10
4.72012e-11
2.09962e-11
9.14847e-12
3.87899e-12
1.48759e-12
6.10767e-13
2.61698e-13
1.08615e-13
4.60541e-14
1.59745e-14
5.62176e-15
1.06786e-15
2.61419e-07
2.80739e-21
0
2.73491e-07
-1.62171e-16
1.37342e-11
0
0
0
0
-5.18315e-15
0
-2.72185e-07
-2.90641e-18
-8.652e-18
-4.58517e-17
-3.03447e-09
-3.33965e-09
1.81743e-08
2.91302e-07
3.76311e-06
5.30065e-05
0.000661614
0.00705685
0.0625983
0.45766
2.76655
13.9717
59.7512
219.206
698.931
1961.58
4836.21
10386.4
19277.5
32111.6
49856.5
72236.2
99721.5
133590
175991
230021
299826
390823
510061
666734
872880
1.14431e+06
1.50185e+06
1.97294e+06
2.59387e+06
3.41259e+06
4.49262e+06
5.91785e+06
7.79901e+06
1.02861e+07
1.35456e+07
1.77768e+07
2.35627e+07
3.12363e+07
3.09629e+08
1.86244e+08
2.76921e+07
1.96142e+07
1.37136e+07
9.44914e+06
6.40619e+06
4.26772e+06
2.79291e+06
1.80091e+06
1.15849e+06
765202
264288
26585.6
885.855
15.5751
0.185579
0.00220661
4.1562e-05
1.70991e-06
1.59867e-07
2.89546e-08
8.05379e-09
3.02361e-09
1.24873e-09
5.24326e-10
2.35733e-10
1.02522e-10
4.34497e-11
1.99383e-11
7.51569e-12
3.4532e-12
1.47184e-12
6.52683e-13
2.59748e-13
1.07982e-13
-5.11388e-12
1.44833e-14
5.61915e-15
7.38152e-13
-3.65937e-13
-2.97309e-12
7.88673e-17
0
0
3.21606e-16
2.73963e-07
1.84554e-19
1.95467e-10
0
2.68416e-07
0
0
-2.80999e-18
-5.56319e-18
-4.96326e-17
-3.5607e-16
-3.50184e-15
2.31561e-08
3.03489e-07
4.01981e-06
5.62495e-05
0.000705932
0.00757871
0.0677012
0.498597
3.03678
15.455
66.5632
246.031
793.001
2238.39
5527.55
11779.5
21434.3
35049.2
53822.8
77223.2
105789
140891
184755
240551
312465
405955
528090
688080
897953
1.17348e+06
1.53538e+06
2.01094e+06
2.63611e+06
3.45826e+06
4.5396e+06
5.96301e+06
7.83952e+06
1.03171e+07
1.3552e+07
1.77461e+07
2.34703e+07
3.10465e+07
3.45764e+08
1.52339e+08
2.71268e+07
1.92481e+07
1.34804e+07
9.30407e+06
6.31853e+06
4.21682e+06
2.76514e+06
1.78751e+06
1.15407e+06
763217
245828
22469.8
709.353
12.0263
0.141365
0.00171308
3.38549e-05
1.47874e-06
1.45984e-07
2.79435e-08
8.19506e-09
2.69846e-09
1.22014e-09
5.37827e-10
2.30255e-10
9.48196e-11
4.27e-11
1.88785e-11
8.15163e-12
3.03591e-12
1.45542e-12
6.46408e-13
4.63195e-12
1.073e-13
4.273e-14
-5.08085e-12
-5.05297e-12
8.92006e-16
-2.60674e-07
-1.4803e-12
0
0
0
-2.69692e-07
2.1675e-11
-2.68141e-07
2.66375e-07
-2.64034e-07
0
2.58038e-07
-2.55396e-07
-2.71342e-18
-8.03693e-18
-4.76774e-17
1.25204e-09
-3.64917e-15
2.75951e-08
3.1917e-07
4.27449e-06
5.94232e-05
0.000751816
0.0081243
0.0730767
0.542096
3.32701
17.0644
74.1027
276.706
898.271
2549.67
6298.07
13262
23492.5
37607.5
57204.6
81448.4
110979
147235
192520
250035
323997
419874
544747
707813
921067
1.2002e+06
1.56579e+06
2.04477e+06
2.6724e+06
3.4952e+06
4.57514e+06
5.9951e+06
7.86327e+06
1.03218e+07
1.35229e+07
1.76672e+07
2.33139e+07
3.07765e+07
3.74213e+08
1.25314e+08
2.65637e+07
1.88897e+07
1.32581e+07
9.17041e+06
6.24152e+06
4.17508e+06
2.74474e+06
1.77967e+06
1.1535e+06
762557
231536
19591.9
591.702
9.73371
0.113225
0.00139565
2.87353e-05
1.31783e-06
1.3634e-07
2.62372e-08
7.64239e-09
2.79925e-09
1.15168e-09
5.01287e-10
2.20341e-10
9.86208e-11
4.68567e-11
1.92173e-11
8.0299e-12
3.36385e-12
1.43839e-12
-4.50816e-12
2.55502e-13
-5.00005e-12
4.25156e-14
7.61798e-13
-5.03959e-12
8.92596e-16
-2.60303e-07
0
-5.93744e-12
0
2.66126e-07
2.38397e-11
0
9.43183e-11
0
-1.84773e-10
0
0
0
-1.82282e-14
-1.03046e-17
2.367e-07
-1.47148e-09
-3.78786e-15
2.38866e-08
2.1282e-07
4.51984e-06
6.27369e-05
0.000797349
0.00866897
0.0784772
0.586083
3.62199
18.7059
81.9376
308.903
1011.25
2886.83
7119.5
14717.7
25121.6
39292.2
59408.4
84265.2
114597
151895
198502
257629
333498
431576
558936
724755
940953
1.22305e+06
1.59124e+06
2.07207e+06
2.7006e+06
3.52368e+06
4.60189e+06
6.0141e+06
7.86554e+06
1.02951e+07
1.34486e+07
1.75173e+07
2.30388e+07
3.02996e+07
4.03214e+08
1.00881e+08
2.60019e+07
1.85374e+07
1.30438e+07
9.04528e+06
6.1725e+06
4.14025e+06
2.72993e+06
1.77603e+06
1.15577e+06
763950
221067
17609.9
513.134
8.23569
0.0950172
0.00118822
2.52961e-05
1.20714e-06
1.29256e-07
2.61096e-08
7.60876e-09
2.72295e-09
1.15996e-09
5.12966e-10
2.15413e-10
9.90808e-11
4.11315e-11
1.90328e-11
7.9049e-12
3.31699e-12
2.15923e-12
5.87179e-13
2.76276e-13
1.00049e-13
3.94065e-14
1.57879e-14
-5.02639e-12
8.9278e-16
4.77365e-18
2.6178e-07
0
0
0
3.0766e-16
6.11014e-16
0
-1.19625e-15
-2.50838e-07
-2.46787e-07
-4.55879e-15
2.3818e-07
-2.33948e-07
-9.89254e-18
2.25108e-07
1.14228e-09
-2.18933e-07
1.99067e-08
4.57667e-07
4.7442e-06
6.57643e-05
0.000839974
0.00918365
0.0836407
0.628778
3.914
20.382
90.0343
341.922
1127.52
3232.9
7929.54
15920.7
25779.1
39368.9
59640.9
84831.7
115730
153869
201587
262085
339569
439483
568861
736795
955066
1.23907e+06
1.60897e+06
2.0916e+06
2.72149e+06
3.54331e+06
4.61641e+06
6.01866e+06
7.85262e+06
1.02536e+07
1.3362e+07
1.73654e+07
2.27873e+07
2.99058e+07
4.21204e+08
8.43872e+07
2.54424e+07
1.81897e+07
1.28353e+07
8.92607e+06
6.10898e+06
4.11016e+06
2.71893e+06
1.7752e+06
1.15983e+06
766021
214042
16295.3
461.621
7.26476
0.0832769
0.00105331
2.30164e-05
1.13237e-06
1.24441e-07
2.49409e-08
7.51524e-09
2.80563e-09
1.12861e-09
5.09489e-10
2.10373e-10
9.45054e-11
4.4325e-11
1.93203e-11
8.16768e-12
3.44811e-12
1.44323e-12
6.011e-13
5.26684e-12
9.92999e-14
3.91814e-14
1.5726e-14
5.22697e-15
7.35483e-13
2.00625e-13
2.60673e-07
1.10111e-20
2.60679e-07
-2.59589e-07
0
0
4.06013e-11
1.16801e-15
-2.44327e-07
2.39562e-07
0
3.6323e-10
0
-1.26019e-09
-5.10727e-17
1.08722e-09
2.62996e-09
2.82273e-08
3.55773e-07
4.73928e-06
6.83805e-05
0.000876389
0.00962599
0.0881061
0.665869
4.16821
21.8535
97.2767
372.229
1235.69
3551.25
8605.96
16475.1
24671
36916.8
56962.8
82131.2
113254
151865
200262
261607
340066
441048
571529
740579
959995
1.24527e+06
1.61639e+06
2.09906e+06
2.72723e+06
3.54524e+06
4.61112e+06
6.00101e+06
7.8149e+06
1.01844e+07
1.32446e+07
1.71781e+07
2.24927e+07
2.94532e+07
4.34949e+08
7.26489e+07
2.48831e+07
1.78433e+07
1.26285e+07
8.80869e+06
6.04714e+06
4.08146e+06
2.70894e+06
1.77493e+06
1.16389e+06
768340
209935
15487.9
429.532
6.65906
0.0759542
0.000968671
2.15701e-05
1.0857e-06
1.2131e-07
2.47049e-08
7.58014e-09
2.8774e-09
1.09657e-09
5.17233e-10
2.20394e-10
9.77173e-11
4.22e-11
1.8265e-11
8.03053e-12
3.39645e-12
1.42412e-12
5.74067e-13
2.711e-13
1.04197e-13
3.89451e-14
1.56598e-14
5.5706e-15
-7.33015e-13
4.76005e-18
1.45546e-12
0
0
0
-2.98335e-16
-8.45846e-20
1.66609e-19
0
2.37617e-07
6.27188e-19
-6.1213e-19
3.49892e-10
0
5.40688e-10
-2.35242e-09
-4.15332e-16
-4.0886e-15
2.65916e-08
3.70692e-07
4.99942e-06
7.02051e-05
0.000903152
0.00995373
0.0914595
0.694236
4.36771
23.0161
102.961
396.09
1320.36
3785.57
8948.99
15755.8
23977.3
31475.9
50419.9
75102.4
105902
144326
192627
253914
332303
433167
563482
732260
951198
1.23532e+06
1.60431e+06
2.08373e+06
2.70694e+06
3.51742e+06
4.57202e+06
5.94505e+06
7.73395e+06
1.00665e+07
1.30726e+07
1.69292e+07
2.21266e+07
2.89156e+07
4.44275e+08
6.52983e+07
2.43188e+07
1.74905e+07
1.24147e+07
8.68433e+06
5.97882e+06
4.04707e+06
2.69415e+06
1.77063e+06
1.16439e+06
769459
207965
15064.9
411.767
6.31701
0.0717934
0.000920416
2.07464e-05
1.05959e-06
1.1956e-07
2.44013e-08
7.32294e-09
2.78597e-09
1.14187e-09
4.93426e-10
2.14784e-10
1.00659e-10
4.27683e-11
1.92018e-11
7.51191e-12
3.42185e-12
1.45326e-12
5.87232e-13
5.1695e-12
1.03356e-13
3.86999e-14
-7.17667e-13
4.84638e-15
9.35899e-16
3.62823e-13
1.44927e-12
-5.77267e-12
2.55564e-07
0
-2.49855e-07
0
-1.13558e-15
1.11195e-15
0
3.23104e-10
-4.11663e-15
-2.73807e-10
-2.2281e-18
-5.15991e-10
-1.003e-09
-9.76799e-10
4.25092e-09
2.26598e-08
2.76154e-07
5.08775e-06
7.11393e-05
0.000916912
0.0101241
0.0932133
0.709134
4.47224
23.6276
105.987
408.734
1362.49
3863.75
8722.19
16332.5
24979
32815.6
39494.2
63126.2
92795.1
130017
176994
236757
313335
411995
539573
704921
919505
1.1982e+06
1.56032e+06
2.031e+06
2.64299e+06
3.43892e+06
4.47447e+06
5.82232e+06
7.57752e+06
9.86452e+06
1.28088e+07
1.65817e+07
2.16569e+07
2.82712e+07
4.49212e+08
6.20284e+07
2.37345e+07
1.71094e+07
1.21694e+07
8.52916e+06
5.8828e+06
3.98926e+06
2.66041e+06
1.75148e+06
1.15335e+06
763741
206785
14913.1
404.653
6.17354
0.0700229
0.000899849
2.03982e-05
1.04729e-06
1.18616e-07
2.51421e-08
7.47523e-09
2.84016e-09
1.17812e-09
4.79234e-10
2.13568e-10
9.47666e-11
4.29925e-11
1.68943e-11
8.05214e-12
3.29022e-12
1.43286e-12
-1.49664e-13
2.43496e-13
1.02495e-13
-6.88507e-13
1.55189e-14
4.99198e-15
9.35091e-16
0
0
-2.57372e-07
0
0
0
0
8.66804e-11
-1.11194e-15
-2.31161e-07
-1.4495e-10
4.1166e-15
0
-2.22808e-18
-6.34175e-10
-1.9469e-07
-2.17731e-09
4.25087e-09
2.49526e-08
2.73485e-07
5.08767e-06
7.1138e-05
0.00091697
0.0101246
0.0932169
0.709151
4.47228
23.6276
105.987
408.735
1362.49
3863.73
8722.21
16332.5
24979
32815.6
39492.3
63124.2
92793
130015
176992
236754
313333
411993
539572
704920
919505
1.1982e+06
1.56032e+06
2.03101e+06
2.64299e+06
3.43893e+06
4.47449e+06
5.82234e+06
7.57754e+06
9.86455e+06
1.28088e+07
1.65818e+07
2.16569e+07
2.82713e+07
4.49217e+08
6.20224e+07
2.37345e+07
1.71094e+07
1.21694e+07
8.52916e+06
5.88281e+06
3.98926e+06
2.66042e+06
1.75149e+06
1.15335e+06
763740
206783
14912.8
404.645
6.17342
0.0700216
0.00089983
2.03984e-05
1.0473e-06
1.18617e-07
2.45825e-08
7.63357e-09
2.84012e-09
1.10635e-09
5.07445e-10
2.14594e-10
9.59341e-11
4.23345e-11
1.76268e-11
7.74899e-12
3.38486e-12
1.43292e-12
6.04347e-13
2.43503e-13
9.69037e-14
3.8449e-14
1.55193e-14
4.98462e-12
9.3512e-16
0
-6.52955e-13
-7.61656e-17
-2.58121e-07
0
-1.25561e-11
0
-2.46864e-07
1.63657e-19
0
-1.49614e-10
2.26747e-07
-3.49887e-10
2.15351e-07
-5.40678e-10
-5.75109e-17
-4.10996e-16
-4.09698e-15
2.21539e-07
3.66321e-07
5.08795e-06
7.02112e-05
0.000903269
0.00995561
0.0914755
0.694323
4.36762
23.0161
102.964
396.103
1320.39
3785.62
8948.89
15754.7
23977.3
31475.8
50416.9
75098.9
105898
144322
192623
253910
332300
433166
563482
732262
951203
1.23533e+06
1.60432e+06
2.08375e+06
2.70696e+06
3.51746e+06
4.57206e+06
5.94512e+06
7.73403e+06
1.00667e+07
1.30728e+07
1.69294e+07
2.21268e+07
2.89159e+07
4.44292e+08
6.528e+07
2.43189e+07
1.74905e+07
1.24147e+07
8.68434e+06
5.97883e+06
4.04707e+06
2.69415e+06
1.77063e+06
1.16439e+06
769458
207959
15064.1
411.743
6.31663
0.0717893
0.00092037
2.07464e-05
1.05733e-06
1.20191e-07
2.47183e-08
7.32298e-09
2.78598e-09
1.1419e-09
4.8812e-10
2.10201e-10
9.77787e-11
4.39613e-11
1.85947e-11
7.8204e-12
4.12489e-12
7.02621e-13
5.67278e-13
-4.67749e-12
1.03355e-13
4.15294e-14
1.70089e-14
-7.29055e-13
9.35899e-16
0
0
0
-2.19913e-20
2.59588e-07
-2.5779e-07
4.58115e-11
0
-2.48469e-07
-2.44325e-07
-2.39713e-07
0
1.23887e-18
-5.7792e-10
-2.19469e-07
-5.10717e-17
-3.21496e-14
2.62983e-09
2.35222e-08
3.55763e-07
4.84005e-06
6.83873e-05
0.000876515
0.00962838
0.0881343
0.666165
4.17096
21.8652
97.3115
372.327
1235.94
3551.83
8607
16476.1
24671.3
36917.6
56964.1
82133
113257
151868
200265
261611
340071
441052
571534
740587
960011
1.24529e+06
1.61642e+06
2.0991e+06
2.72729e+06
3.54531e+06
4.61122e+06
6.00113e+06
7.81505e+06
1.01846e+07
1.32448e+07
1.71784e+07
2.24931e+07
2.94537e+07
4.34979e+08
7.26179e+07
2.48832e+07
1.78433e+07
1.26285e+07
8.8087e+06
6.04715e+06
4.08146e+06
2.70894e+06
1.77493e+06
1.16389e+06
768334
209925
15486.5
429.488
6.65834
0.0759464
0.000968591
2.15704e-05
1.08808e-06
1.21313e-07
2.47048e-08
7.58008e-09
2.87741e-09
1.09657e-09
4.98177e-10
2.14619e-10
1.00659e-10
4.36975e-11
1.89612e-11
8.03056e-12
3.39646e-12
2.19362e-12
-4.36503e-12
9.89157e-13
9.85209e-14
-6.98354e-13
1.56603e-14
5.21464e-15
8.92196e-16
3.64379e-13
-2.76053e-21
0
1.54698e-16
-2.2175e-20
0
0
0
-2.54441e-07
0
6.66213e-19
-2.42411e-07
3.0636e-10
-1.75528e-14
-1.23655e-17
2.26529e-07
-2.54616e-09
-3.91487e-15
2.71153e-08
3.47539e-07
4.63758e-06
6.58872e-05
0.000840238
0.00918644
0.0836667
0.62897
3.91525
20.3892
90.0562
341.982
1127.68
3233.3
7930.36
15921.8
25780
39370.7
59643.2
84834.9
115734
153875
201594
262095
339581
439498
568880
736816
955091
1.2391e+06
1.60902e+06
2.09166e+06
2.72156e+06
3.54341e+06
4.61653e+06
6.01881e+06
7.85282e+06
1.02539e+07
1.33623e+07
1.73658e+07
2.27878e+07
2.99064e+07
4.21246e+08
8.43428e+07
2.54424e+07
1.81897e+07
1.28353e+07
8.92607e+06
6.10898e+06
4.11015e+06
2.71892e+06
1.77519e+06
1.15983e+06
766013
214027
16293.2
461.555
7.26365
0.0832645
0.00105318
2.30142e-05
1.13484e-06
1.24445e-07
2.49452e-08
7.51529e-09
2.8057e-09
1.13304e-09
5.09491e-10
2.21083e-10
9.69499e-11
4.30849e-11
1.7918e-11
8.16794e-12
3.44817e-12
6.36441e-12
5.80718e-13
2.50899e-13
8.41829e-13
3.91805e-14
-7.2384e-13
-5.01333e-12
9.37022e-16
2.01193e-13
0
7.77848e-17
0
0
-2.38399e-11
0
-2.62823e-07
-1.86904e-10
2.42029e-15
6.85696e-19
-4.70573e-15
0
6.24195e-10
6.14529e-10
-5.07966e-17
-2.66866e-09
-3.78778e-15
2.62404e-08
3.2876e-07
4.40205e-06
6.27613e-05
0.000797569
0.0086706
0.0784863
0.586083
3.6214
18.7003
81.9153
308.817
1011.05
2886.53
7119.24
14717.6
25121.8
39293.6
59410.7
84268.7
114602
151901
198511
257639
333512
431594
558959
724785
940990
1.22309e+06
1.59129e+06
2.07214e+06
2.70069e+06
3.52379e+06
4.60204e+06
6.01429e+06
7.86578e+06
1.02954e+07
1.3449e+07
1.75178e+07
2.30394e+07
3.03004e+07
4.03272e+08
1.00822e+08
2.60019e+07
1.85374e+07
1.30438e+07
9.04527e+06
6.17248e+06
4.14024e+06
2.72992e+06
1.77602e+06
1.15576e+06
763941
221047
17607
513.036
8.23401
0.0949983
0.00118802
2.52888e-05
1.20716e-06
1.28558e-07
2.54701e-08
7.75038e-09
2.72302e-09
1.15997e-09
5.12968e-10
2.14289e-10
1.00356e-10
4.39515e-11
1.82463e-11
7.90492e-12
3.39855e-12
-3.51123e-12
6.33108e-13
-4.78596e-12
5.1682e-12
3.94065e-14
1.57879e-14
5.23786e-15
-7.34297e-13
-2.60674e-07
1.4803e-12
5.9787e-12
0
2.69396e-07
-2.69715e-07
4.83146e-11
0
-1.25234e-15
0
4.91227e-15
-4.85254e-15
0
1.88992e-14
2.48088e-07
-2.81683e-09
2.79086e-09
-3.64909e-15
2.20757e-08
4.33455e-07
4.26945e-06
5.94495e-05
0.000752039
0.00812618
0.0730859
0.542103
3.32651
17.0591
74.0462
276.253
897.703
2549.13
6297.84
13262.3
23493.4
37609.7
57207.7
81452.5
110984
147242
192529
250046
324011
419893
544771
707844
921106
1.20025e+06
1.56586e+06
2.04485e+06
2.6725e+06
3.49533e+06
4.57531e+06
5.99532e+06
7.86354e+06
1.03221e+07
1.35234e+07
1.76678e+07
2.33146e+07
3.07774e+07
3.74286e+08
1.25238e+08
2.65637e+07
1.88897e+07
1.32581e+07
9.1704e+06
6.2415e+06
4.17506e+06
2.74473e+06
1.77966e+06
1.15349e+06
762548
231511
19587.9
591.559
9.73118
0.113195
0.00139533
2.87291e-05
1.31668e-06
1.36341e-07
2.6534e-08
7.8274e-09
2.6292e-09
1.19055e-09
5.26279e-10
2.2536e-10
9.8623e-11
4.351e-11
2.00177e-11
8.76886e-12
8.42368e-12
1.43839e-12
5.93435e-13
2.5551e-13
1.00769e-13
4.25166e-14
-5.05882e-12
5.60571e-15
-4.26913e-12
3.65937e-13
2.97308e-12
0
-1.21531e-11
-1.60243e-16
-2.45518e-11
9.24309e-20
-1.28563e-15
1.95466e-10
-2.54464e-15
7.24603e-19
-4.99845e-15
-7.55166e-10
-1.95747e-14
-2.57591e-07
-4.96317e-17
-2.54953e-07
-2.58362e-07
2.89446e-08
3.00886e-07
4.14568e-06
5.62827e-05
0.000706104
0.00758138
0.0677248
0.498774
3.03804
15.464
66.6333
246.51
793.746
2239.5
5529.17
11781.6
21436.9
35052.6
53827
77228.3
105795
140899
184765
240563
312481
405975
528116
688113
897995
1.17353e+06
1.53545e+06
2.01103e+06
2.63623e+06
3.45841e+06
4.53978e+06
5.96324e+06
7.83982e+06
1.03175e+07
1.35525e+07
1.77467e+07
2.34711e+07
3.10474e+07
3.45855e+08
1.52244e+08
2.71268e+07
1.92481e+07
1.34804e+07
9.30405e+06
6.3185e+06
4.21679e+06
2.76512e+06
1.78749e+06
1.15406e+06
763206
245798
22464.2
709.142
12.0225
0.141319
0.00171259
3.38475e-05
1.47905e-06
1.45984e-07
2.79439e-08
8.19511e-09
2.87289e-09
1.22018e-09
4.92806e-10
2.35379e-10
9.74159e-11
4.40113e-11
1.8134e-11
7.40892e-12
3.40936e-12
-2.93528e-12
6.46424e-13
2.57681e-13
1.13155e-13
4.273e-14
7.65095e-13
5.25407e-15
8.92036e-16
-3.66465e-13
0
-6.06148e-12
1.15361e-20
0
-3.26323e-16
-6.54835e-16
-1.88142e-19
0
0
-7.44036e-19
0
-1.02079e-14
-2.90636e-18
-8.65187e-18
-4.58509e-17
-2.64235e-07
-3.36589e-15
1.8174e-08
2.79159e-07
3.9076e-06
5.31743e-05
0.000661973
0.00706027
0.0626299
0.457907
2.76819
13.9811
59.7982
219.399
699.405
1962.55
4837.92
10388.9
19280.8
32115.9
49861.6
72242
99728.3
133598
176001
230034
299842
390844
510088
666769
872925
1.14437e+06
1.50192e+06
1.97304e+06
2.59399e+06
3.41274e+06
4.49281e+06
5.91808e+06
7.79932e+06
1.02865e+07
1.35461e+07
1.77774e+07
2.35635e+07
3.12373e+07
3.09743e+08
1.86126e+08
2.76921e+07
1.96142e+07
1.37136e+07
9.44911e+06
6.40616e+06
4.26768e+06
2.79288e+06
1.80088e+06
1.15848e+06
765189
264252
26577.8
885.538
15.569
0.185506
0.00220582
4.15518e-05
1.71121e-06
1.59872e-07
2.93395e-08
8.04923e-09
2.94269e-09
1.20736e-09
5.03688e-10
2.34995e-10
1.0178e-10
4.34508e-11
1.91816e-11
8.26957e-12
3.28343e-12
-3.64321e-12
6.527e-13
2.59756e-13
9.61877e-14
4.29268e-14
-5.1032e-12
5.2586e-15
1.06927e-15
0
2.67342e-07
2.72101e-07
2.76079e-07
-2.50521e-11
2.81619e-07
0
0
0
2.03697e-10
0
7.59677e-19
2.79759e-07
-3.00264e-18
-8.95853e-18
-4.16333e-17
-2.77952e-07
6.31202e-09
2.24665e-08
2.79395e-07
3.53711e-06
5.01061e-05
0.000620929
0.00657869
0.0579445
0.420537
2.52318
12.6465
53.6816
195.69
619.699
1721.06
4226.67
9131.07
17205.4
29119.7
45728.9
66950.2
93259.5
125837
166748
218994
286655
375089
491305
644458
846568
1.11345e+06
1.46598e+06
1.93173e+06
2.54721e+06
3.36078e+06
4.43659e+06
5.85989e+06
7.74393e+06
1.02385e+07
1.3514e+07
1.77756e+07
2.36176e+07
3.13835e+07
2.65587e+08
2.27931e+08
2.82584e+07
1.99905e+07
1.3961e+07
9.60985e+06
6.50867e+06
4.33129e+06
2.83071e+06
1.82168e+06
1.16784e+06
769429