/*--------------------------------*- C++ -*----------------------------------*\
  =========                 |
  \\      /  F ield         | OpenFOAM: The Open Source CFD Toolbox
   \\    /   O peration     | Website:  https://openfoam.org
    \\  /    A nd           | Version:  8
     \\/     M anipulation  |
\*---------------------------------------------------------------------------*/
FoamFile
{
    version     2.0;
    format      ascii;
    class       volScalarField;
    location    "580/fluid";
    object      rDeltaT;
}
// * * * * * * * * * * * * * * * * * * * * * * * * * * * * * * * * * * * * * //

dimensions      [0 0 -1 0 0 0 0];

internalField   nonuniform List<scalar> 
4000
(
513.439
539.377
564.144
587.882
610.532
631.997
652.151
670.857
687.988
703.444
717.189
729.274
739.873
749.304
758.047
766.606
775.375
784.548
794.043
803.489
812.297
819.781
825.282
828.266
828.393
825.471
819.385
810.098
797.642
782.096
763.579
742.235
748.318
788.065
831.313
873.739
915.266
955.826
995.366
1033.85
1071.24
1107.51
1142.66
1176.68
1209.55
1241.28
1271.86
1301.3
1329.59
1356.73
1382.72
1407.57
1431.26
1453.79
1475.15
1495.33
1514.32
1531.96
1548.23
1563.34
1577.12
1595.4
16290.6
1571.76
1535.92
1495.01
1449.55
1400.07
1347.03
1290.82
1231.85
1170.61
1107.7
1043.64
979.18
915.747
855.357
800.441
753.957
718.575
695.33
682.807
677.751
676.611
676.528
675.716
673.179
668.553
661.866
653.307
643.111
631.516
618.744
604.989
590.417
575.161
559.327
542.985
526.178
508.856
512.971
538.261
562.245
584.862
606.081
625.831
644.021
660.563
675.395
688.5
699.937
709.864
718.558
726.434
733.978
741.658
749.857
758.769
768.316
778.126
787.59
795.974
802.551
806.713
808.007
806.12
800.886
792.258
780.277
765.047
746.713
725.444
712.693
733.4
777.77
821.507
864.513
906.704
948.013
988.386
1027.78
1066.17
1103.54
1139.85
1175.11
1209.31
1242.44
1274.51
1305.5
1335.43
1364.3
1392.12
1418.87
1444.58
1469.25
1492.87
1515.44
1536.81
1557
1576.28
1594.5
2952.09
15177.2
1583.63
1542.65
1498.01
1449.56
1397.41
1341.73
1282.76
1220.77
1156.16
1089.4
1020.94
951.691
883.528
819.095
761.675
714.566
680.138
658.633
647.859
644.261
644.401
645.717
646.637
646.339
644.367
640.566
634.961
627.659
618.806
608.558
597.068
584.48
570.918
556.484
541.253
525.263
508.546
512.281
536.039
558.321
579.094
598.299
615.876
631.772
645.954
658.423
669.238
678.534
686.537
693.578
700.072
706.467
713.211
720.687
729.097
738.378
748.176
757.896
766.81
774.175
779.333
781.739
781.002
776.903
769.362
758.397
744.098
726.601
706.072
682.692
685.209
722.755
767.07
810.922
854.217
896.873
938.828
980.03
1020.44
1060.02
1098.76
1136.64
1173.64
1209.75
1244.99
1279.34
1312.82
1345.43
1377.19
1408.11
1438.21
1467.49
1495.95
1523.6
1550.22
1575.78
1600.41
1623.57
6052.65
12330.4
1603.49
1557.53
1507.83
1454.43
1397.41
1336.92
1273.14
1206.33
1136.91
1065.4
992.36
919.095
847.91
781.832
724.379
678.68
646.433
627.104
618.079
615.805
617.035
619.404
621.46
622.489
622.128
620.206
616.678
611.571
604.953
596.91
587.538
576.934
565.187
552.375
538.563
523.798
508.097
511.603
534
554.851
574.113
591.744
607.707
621.976
634.548
645.454
654.775
662.658
669.331
675.116
680.421
685.715
691.469
698.072
705.725
714.365
723.639
732.954
741.579
748.767
753.849
756.291
755.717
751.894
744.719
734.181
720.342
703.312
683.234
660.271
648.42
670.987
715.649
760.116
804.289
848.084
891.432
934.275
976.572
1018.28
1059.38
1099.83
1139.63
1178.77
1217.24
1255.03
1292.16
1328.61
1364.41
1399.54
1434
1467.77
1500.83
1533.08
1564.23
1594.1
1622.72
1649.32
9722.08
8746.06
1616.25
1566.27
1512.01
1453.76
1391.77
1326.3
1257.65
1186.23
1112.57
1037.37
961.399
886.321
814.683
749.537
694.107
651.055
621.516
604.472
597.111
595.982
598.077
601.24
604.136
606.052
606.645
605.778
603.417
599.581
594.314
587.675
579.723
570.523
560.132
548.605
535.987
522.317
507.615
510.876
531.793
551.114
568.803
584.826
599.158
611.788
622.733
632.044
639.824
646.24
651.538
656.053
660.201
664.45
669.269
675.035
681.943
689.929
698.642
707.498
715.77
722.708
727.637
730.014
729.451
725.703
718.651
708.273
694.615
677.773
657.876
635.072
611.577
622.061
666.957
711.91
756.821
801.604
846.19
890.521
934.542
978.208
1021.49
1064.36
1106.8
1148.79
1190.31
1231.35
1271.9
1311.94
1351.46
1390.43
1428.8
1466.52
1503.48
1539.53
1574.2
1607.32
1638.79
1667.59
13367.7
5091.35
1620.14
1567.09
1509.11
1446.76
1380.51
1310.81
1238.13
1163.02
1086.18
1008.38
930.567
854.668
783.302
719.476
666.19
625.695
598.611
583.516
577.482
577.202
579.905
583.643
587.208
589.938
591.49
591.709
590.531
587.95
583.985
578.669
572.044
564.152
555.037
544.74
533.298
520.743
507.099
510.147
529.606
547.459
563.67
578.213
591.074
602.254
611.782
619.72
626.182
631.34
635.446
638.832
641.909
645.14
648.983
653.812
659.82
666.946
674.85
682.96
690.56
696.91
701.338
703.3
702.401
698.391
691.138
680.607
666.831
649.892
629.905
607.005
581.34
582.995
621.167
666.509
712.041
757.677
803.344
848.974
894.515
939.924
985.162
1030.19
1074.99
1119.52
1163.76
1207.67
1251.23
1294.4
1337.13
1379.36
1421
1461.93
1502
1540.94
1578.21
1613.61
1646.86
1676.81
16741.7
1663.82
1615.7
1560.3
1499.22
1433.44
1363.7
1290.64
1214.87
1137.08
1058.08
978.693
900.06
824.269
753.97
692.085
641.373
603.689
579.198
566.147
561.525
562.148
565.445
569.643
573.656
576.892
579.043
579.962
579.585
577.893
574.892
570.598
565.036
558.231
550.214
541.012
530.655
519.168
506.576
509.409
527.395
543.775
558.519
571.605
583.025
592.79
600.935
607.533
612.702
616.624
619.551
621.817
623.831
626.05
628.924
632.819
637.923
644.174
651.237
658.545
665.39
671.039
674.823
676.201
674.775
670.291
662.61
651.691
637.558
620.284
599.972
576.747
550.746
545.841
577.517
623.177
669.231
715.592
762.182
808.938
855.805
902.731
949.67
996.579
1043.42
1090.15
1136.72
1183.09
1229.21
1275.01
1320.42
1365.34
1409.65
1453.16
1495.67
1536.84
1575.92
1613.06
1647.16
1677.16
18112.6
1657.62
1605.55
1546.95
1482.95
1414.44
1342.14
1266.74
1188.94
1109.5
1029.32
949.234
870.55
795.46
726.609
666.816
618.611
583.501
561.281
549.962
546.511
547.889
551.709
556.345
560.809
564.556
567.298
568.891
569.266
568.398
566.279
562.918
558.326
552.521
545.524
537.356
528.039
517.596
506.051
508.672
525.194
540.121
553.427
565.096
575.125
583.53
590.353
595.671
599.608
602.346
604.139
605.318
606.284
607.488
609.371
612.291
616.431
621.73
627.858
634.253
640.218
645.026
648.015
648.645
646.52
641.381
633.088
621.593
606.915
589.119
568.3
544.575
518.071
508.425
535.536
581.429
627.895
674.846
722.207
769.912
817.897
866.106
914.486
962.984
1011.55
1060.13
1108.66
1157.08
1205.33
1253.31
1300.91
1348.03
1394.48
1440.07
1484.52
1527.39
1567.94
1606.11
1640.55
1669.73
17594.4
1643.71
1588.73
1527.7
1461.56
1391.11
1317.1
1240.22
1161.22
1080.93
1000.27
920.113
841.908
767.922
700.778
643.193
597.487
564.863
544.802
535.125
532.8
534.913
539.24
544.283
549.142
553.321
556.557
558.716
559.729
559.567
558.216
555.677
551.955
547.06
541.006
533.808
525.483
516.05
505.532
507.936
522.997
536.479
548.36
558.628
567.284
574.349
579.87
583.927
586.646
588.212
588.878
588.97
588.887
589.069
589.95
591.879
595.035
599.353
604.504
609.933
614.95
618.833
620.927
620.696
617.744
611.816
602.768
590.552
575.18
556.715
535.246
510.882
483.746
470.721
494.701
540.739
587.511
634.929
682.913
731.392
780.298
829.569
879.144
928.961
978.956
1029.06
1079.21
1129.32
1179.3
1229.04
1278.41
1327.26
1375.41
1422.61
1468.56
1512.73
1554.45
1593.59
1628.81
3140.07
16125.1
1624.02
1567.01
1504.27
1436.67
1364.96
1289.89
1212.19
1132.61
1052.04
971.422
891.638
814.277
741.638
676.313
620.916
577.58
547.239
529.118
520.904
519.588
522.381
527.2
532.655
537.92
542.538
546.265
548.974
550.598
551.105
550.478
548.714
545.812
541.778
536.621
530.352
522.984
514.535
505.023
507.204
520.811
532.858
543.325
552.206
559.504
565.246
569.481
572.292
573.807
574.211
573.755
572.762
571.624
570.775
570.638
571.555
573.696
576.995
581.125
585.534
589.538
592.423
593.538
592.352
588.476
581.653
571.742
558.692
542.517
523.273
501.048
475.947
448.087
432.709
454.63
500.73
547.705
595.466
643.93
693.021
742.668
792.8
843.349
894.245
945.414
996.779
1048.25
1099.74
1151.14
1202.31
1253.13
1303.4
1352.93
1401.45
1448.64
1493.96
1536.74
1576.91
1613.22
5957.81
13582.8
1599.08
1541.14
1477.53
1409.16
1336.81
1261.25
1183.23
1103.57
1023.16
942.94
863.852
787.566
716.408
652.937
599.678
558.585
530.363
514.025
507.156
506.784
510.234
515.544
521.419
527.094
532.148
536.355
539.595
541.804
542.949
543.012
541.985
539.865
536.655
532.359
526.986
520.546
513.053
504.524
506.474
518.634
529.252
538.314
545.814
551.762
556.187
559.141
560.711
561.024
560.265
558.684
556.602
554.402
552.51
551.342
551.229
552.336
554.592
557.669
561.019
563.963
565.795
565.869
563.66
558.783
550.985
540.129
526.162
509.1
488.997
465.94
440.031
411.382
394.395
415.02
461.099
508.178
556.167
604.98
654.537
704.761
755.577
806.909
858.679
910.804
963.195
1015.76
1068.38
1120.94
1173.31
1225.31
1276.78
1327.46
1377.11
1425.36
1471.67
1515.38
1556.41
1593.53
8413.87
11219.9
1570.72
1512.46
1448.55
1379.91
1307.38
1231.76
1153.84
1074.44
994.506
914.96
836.778
761.715
692.108
630.48
579.267
540.269
513.99
499.272
493.629
494.134
498.217
504.023
510.335
516.441
521.948
526.647
530.423
533.215
534.991
535.73
535.424
534.066
531.658
528.2
523.7
518.164
511.605
504.037
505.748
516.467
525.662
533.322
539.447
544.05
547.161
548.837
549.165
548.276
546.352
543.642
540.462
537.191
534.246
532.034
530.876
530.93
532.12
534.117
536.376
538.223
538.957
537.941
534.655
528.72
519.887
508.023
493.079
475.069
454.051
430.108
403.343
373.865
355.794
375.647
421.624
468.715
516.827
565.871
615.763
666.423
717.769
769.719
822.188
875.085
928.312
981.763
1035.32
1088.85
1142.2
1195.21
1247.66
1299.32
1349.91
1399.07
1446.22
1490.73
1532.5
1570.24
10527.6
9190.38
1540.14
1481.92
1418.05
1349.5
1277.14
1201.79
1124.26
1045.41
966.195
887.508
810.375
736.629
668.599
608.773
559.504
522.456
497.962
484.724
480.21
481.541
486.244
492.554
499.322
505.881
511.862
517.066
521.388
524.769
527.174
528.586
528.991
528.385
526.764
524.129
520.484
515.834
510.188
503.56
505.025
514.307
522.083
528.346
533.098
536.357
538.156
538.553
537.638
535.542
532.448
528.603
524.318
519.967
515.959
512.69
510.474
509.46
509.566
510.462
511.605
512.326
511.929
509.784
505.38
498.344
488.433
475.516
459.55
440.551
418.577
393.714
366.063
335.733
316.926
336.347
382.148
429.166
477.306
526.477
576.591
627.563
679.307
731.735
784.756
838.271
892.176
946.356
1000.68
1055.02
1109.19
1163.04
1216.33
1268.83
1320.23
1370.18
1418.08
1463.29
1505.71
1544.02
12292.5
7513.34
1508.09
1450.12
1386.54
1318.35
1246.42
1171.6
1094.7
1016.6
938.258
860.571
784.599
712.223
645.768
587.686
540.252
505.011
482.151
470.265
466.793
468.909
474.223
481.049
488.296
495.332
501.809
507.541
512.425
516.405
519.449
521.535
522.652
522.793
521.952
520.13
517.327
513.548
508.8
503.093
504.304
512.154
518.515
523.382
526.763
528.678
529.163
528.279
526.118
522.811
518.543
513.555
508.158
502.719
497.638
493.303
490.018
487.923
486.931
486.709
486.716
486.286
484.732
481.431
475.879
467.709
456.687
442.686
425.668
405.651
382.697
356.893
328.339
297.145
277.82
297.005
342.562
389.431
437.515
486.721
536.957
588.136
640.165
692.953
746.402
800.409
854.861
909.637
964.603
1019.61
1074.48
1129.04
1183.06
1236.28
1288.4
1339.06
1387.62
1433.49
1476.53
1515.42
13738.5
6151.02
1475.06
1417.5
1354.39
1286.75
1215.44
1141.32
1065.22
988.026
910.703
834.124
759.388
688.412
623.513
567.108
521.403
487.833
466.47
455.822
453.318
456.184
462.104
469.461
477.209
484.747
491.747
498.027
503.492
508.087
511.778
514.547
516.379
517.267
517.204
516.189
514.22
511.301
507.437
502.635
503.585
510.006
514.954
518.427
520.438
521.007
520.177
518.01
514.599
510.077
504.627
498.492
491.976
485.44
479.279
473.87
469.507
466.321
464.22
462.867
461.722
460.124
457.393
452.914
446.191
436.866
424.709
409.603
391.512
370.461
346.512
319.756
290.293
258.235
238.506
257.545
302.796
349.448
397.402
446.562
496.836
548.129
600.348
653.396
707.171
761.563
816.456
871.722
927.218
982.79
1038.26
1093.44
1148.09
1201.95
1254.73
1306.03
1355.23
1401.72
1445.39
1484.89
14878.9
5062.97
1441.36
1384.31
1321.82
1254.86
1184.33
1111.07
1035.9
959.735
883.525
808.133
734.683
665.121
601.751
546.955
502.876
470.855
450.865
441.347
439.739
443.325
449.851
457.753
466.025
474.092
481.638
488.491
494.556
499.782
504.135
507.596
510.151
511.789
512.505
512.293
511.153
509.086
506.094
502.185
502.867
507.863
511.399
513.479
514.118
513.342
511.195
507.741
503.076
497.335
490.7
483.411
475.77
468.132
460.884
454.393
448.945
444.66
441.44
438.946
436.637
433.859
429.936
424.264
416.354
405.857
392.552
376.327
357.152
335.057
310.107
282.396
252.026
219.109
199.016
217.918
262.808
309.183
356.942
405.986
456.222
507.552
559.879
613.103
667.117
721.807
777.052
832.719
888.66
944.714
1000.7
1056.42
1111.64
1166.09
1219.46
1271.37
1321.18
1368.31
1412.64
1452.88
16040.2
4077.3
1407.08
1350.69
1288.94
1222.81
1153.18
1080.89
1006.78
931.726
856.705
782.557
710.427
642.279
580.403
527.148
484.604
454.033
435.319
426.831
426.029
430.307
437.441
445.905
454.724
463.345
471.461
478.908
485.594
491.468
496.498
500.663
503.948
506.343
507.839
508.432
508.118
506.897
504.769
501.74
502.151
505.723
507.848
508.536
507.803
505.68
502.212
497.469
491.548
484.583
476.757
468.31
459.539
450.794
442.453
434.876
428.337
422.947
418.602
414.958
411.477
407.508
402.384
395.508
386.401
374.722
360.26
342.909
322.645
299.502
273.553
244.889
213.619
179.855
159.381
178.101
222.58
268.623
316.128
364.996
415.128
466.428
518.793
572.12
626.299
681.214
736.738
792.733
849.049
905.523
961.968
1018.18
1073.91
1128.91
1182.84
1235.33
1285.74
1333.49
1378.47
1419.38
16763.1
3411.21
1372.5
1316.84
1255.92
1190.71
1122.08
1050.85
977.869
904.008
830.229
757.363
686.569
619.82
559.39
507.598
466.488
437.267
419.78
412.301
412.219
417.155
424.888
433.922
443.304
452.495
461.202
469.263
476.588
483.127
488.848
493.729
497.755
500.913
503.195
504.594
505.105
504.727
503.458
501.301
501.435
503.584
504.3
503.594
501.489
498.017
493.228
487.193
480.011
471.819
462.799
453.189
443.284
433.427
423.99
415.323
407.688
401.189
395.713
390.914
386.255
381.088
374.756
366.669
356.358
343.493
327.87
309.39
288.037
263.85
236.904
207.298
175.139
140.542
119.634
138.083
182.106
227.769
274.969
323.605
373.578
424.786
477.127
530.495
584.776
639.851
695.59
751.853
808.486
865.32
922.167
978.815
1035.03
1090.52
1144.99
1198.04
1249.04
1297.41
1343.04
1384.64
17315.7
2936.73
1337.7
1282.84
1222.83
1158.63
1091.07
1020.99
949.198
876.581
804.087
732.533
663.084
597.713
538.677
488.264
448.475
420.472
404.107
397.646
398.294
403.872
412.196
421.799
431.753
441.531
450.845
459.537
467.52
474.74
481.167
486.778
491.555
495.486
498.56
500.769
502.107
502.57
502.156
500.865
500.72
501.447
500.753
498.654
495.175
490.353
484.24
476.911
468.466
459.043
448.825
438.049
427.006
416.034
405.497
395.736
387.002
379.391
372.78
366.823
360.981
354.613
347.068
337.766
326.249
312.195
295.41
275.803
253.365
228.14
200.208
169.67
136.637
101.226
100
100
141.397
186.636
233.484
281.839
331.6
382.663
434.925
488.277
542.603
597.781
653.679
710.154
767.05
824.193
881.394
938.439
995.086
1051.06
1106.03
1159.63
1211.2
1260.19
1306.48
1348.81
17690.7
2639.41
1302.72
1248.73
1189.72
1126.59
1060.18
991.305
920.767
849.441
778.266
708.048
639.95
575.938
518.247
469.134
430.561
403.653
388.258
382.725
384.177
390.404
399.319
409.5
420.04
430.422
440.363
449.707
458.365
466.285
473.435
479.79
485.331
490.046
493.921
496.947
499.115
500.421
500.861
500.432
500.006
499.311
497.207
493.713
488.859
482.685
475.246
466.619
456.908
446.252
434.834
422.889
410.704
398.615
386.975
376.117
366.283
357.556
349.809
342.69
335.663
328.091
319.331
308.813
296.089
280.848
262.903
242.174
218.657
192.403
163.496
132.041
100
100
100
100
100.472
145.247
191.7
239.729
289.23
340.099
392.231
445.514
499.831
555.059
611.064
667.699
724.807
782.214
839.726
897.129
954.178
1010.6
1066.06
1120.18
1172.33
1221.94
1268.89
1311.95
17889.2
2507.12
1267.58
1214.56
1156.61
1094.63
1029.43
961.811
892.57
822.57
752.742
683.879
617.137
554.465
498.076
450.197
412.759
386.853
372.288
367.486
369.752
376.649
386.178
396.962
408.113
419.126
429.719
439.739
449.096
457.737
465.629
472.745
479.067
484.578
489.265
493.116
496.121
498.274
499.568
500
500.006
499.31
497.206
493.712
488.858
482.684
475.245
466.618
456.906
446.25
434.831
422.886
410.701
398.611
386.972
376.113
366.279
357.552
349.805
342.685
335.658
328.085
319.325
308.806
296.082
280.84
262.895
242.166
218.649
192.394
163.488
132.033
100
100
100
100
100.466
145.241
191.695
239.724
289.226
340.095
392.227
445.511
499.829
555.057
611.061
667.697
724.806
782.213
839.725
897.128
954.178
1010.6
1066.06
1120.18
1172.33
1221.94
1268.89
1311.95
17889.5
2506.87
1267.58
1214.56
1156.61
1094.63
1029.43
961.812
892.571
822.571
752.744
683.881
617.138
554.467
498.077
450.199
412.76
386.854
372.29
367.487
369.753
376.651
386.179
396.963
408.114
419.127
429.72
439.739
449.096
457.738
465.63
472.746
479.068
484.579
489.265
493.116
496.122
498.274
499.568
500
500.72
501.447
500.752
498.652
495.173
490.35
484.237
476.907
468.461
459.038
448.82
438.043
426.999
416.027
405.49
395.728
386.994
379.382
372.771
366.812
360.97
354.601
347.055
337.752
326.235
312.181
295.394
275.787
253.348
228.123
200.19
169.652
136.619
101.209
100
100
141.387
186.627
233.476
281.831
331.593
382.657
434.92
488.272
542.599
597.777
653.676
710.152
767.048
824.192
881.394
938.439
995.086
1051.06
1106.03
1159.63
1211.21
1260.19
1306.48
1348.81
17691.4
2638.66
1302.72
1248.73
1189.72
1126.59
1060.19
991.306
920.769
849.443
778.269
708.05
639.953
575.941
518.25
469.137
430.564
403.656
388.261
382.728
384.179
390.407
399.321
409.503
420.042
430.424
440.365
449.708
458.366
466.287
473.436
479.791
485.332
490.047
493.922
496.947
499.116
500.422
500.861
500.432
501.435
503.584
504.299
503.593
501.487
498.014
493.225
487.19
480.007
471.814
462.794
453.184
443.277
433.42
423.983
415.314
407.679
401.18
395.703
390.903
386.243
381.076
374.743
366.655
356.344
343.478
327.853
309.373
288.019
263.832
236.886
207.279
175.12
140.523
119.62
138.075
182.099
227.762
274.963
323.6
373.573
424.782
477.124
530.493
584.774
639.85
695.59
751.853
808.487
865.321
922.168
978.817
1035.03
1090.53
1144.99
1198.05
1249.04
1297.41
1343.04
1384.65
17316.9
2935.47
1337.7
1282.83
1222.83
1158.63
1091.07
1020.99
949.198
876.581
804.088
732.534
663.085
597.715
538.679
488.266
448.478
420.475
404.11
397.649
398.297
403.875
412.198
421.802
431.755
441.533
450.847
459.539
467.521
474.742
481.169
486.779
491.556
495.487
498.561
500.77
502.108
502.571
502.156
500.865
502.151
505.722
507.847
508.534
507.801
505.677
502.209
497.466
491.543
484.578
476.752
468.304
459.532
450.786
442.445
434.868
428.328
422.938
418.592
414.947
411.465
407.495
402.371
395.493
386.385
374.706
360.243
342.891
322.626
299.483
273.532
244.869
213.598
179.834
159.368
178.095
222.575
268.619
316.125
364.993
415.127
466.427
518.793
572.12
626.3
681.216
736.74
792.735
849.053
905.526
961.971
1018.18
1073.92
1128.91
1182.84
1235.33
1285.75
1333.5
1378.47
1419.38
16764.8
3409.41
1372.5
1316.83
1255.92
1190.71
1122.08
1050.85
977.867
904.006
830.228
757.362
686.569
619.82
559.391
507.599
466.49
437.269
419.783
412.303
412.221
417.158
424.891
433.924
443.306
452.497
461.204
469.264
476.59
483.129
488.849
493.73
497.756
500.914
503.196
504.595
505.106
504.727
503.458
501.301
502.867
507.862
511.398
513.478
514.116
513.34
511.191
507.737
503.072
497.33
490.694
483.405
475.763
468.125
460.876
454.385
448.936
444.651
441.43
438.935
436.625
433.846
429.923
424.249
416.338
405.84
392.534
376.308
357.132
335.036
310.086
282.374
252.003
219.086
199.003
217.916
262.806
309.182
356.941
405.987
456.223
507.554
559.882
613.106
667.121
721.812
777.057
832.724
888.665
944.72
1000.71
1056.43
1111.65
1166.1
1219.47
1271.37
1321.19
1368.31
1412.64
1452.88
16042.5
4074.9
1407.08
1350.68
1288.93
1222.8
1153.18
1080.89
1006.77
931.723
856.702
782.555
710.426
642.278
580.403
527.149
484.605
454.035
435.321
426.833
426.032
430.31
437.443
445.907
454.727
463.347
471.463
478.909
485.596
491.47
496.499
500.664
503.949
506.344
507.84
508.432
508.118
506.897
504.769
501.74
503.585
510.006
514.953
518.426
520.436
521.005
520.174
518.006
514.594
510.072
504.622
498.486
491.969
485.433
479.271
473.862
469.498
466.312
464.21
462.856
461.71
460.111
457.379
452.899
446.175
436.848
424.691
409.583
391.491
370.439
346.489
319.732
290.268
258.21
238.493
257.545
302.797
349.45
397.405
446.566
496.84
548.134
600.354
653.402
707.178
761.571
816.464
871.729
927.226
982.798
1038.27
1093.44
1148.09
1201.96
1254.73
1306.03
1355.23
1401.73
1445.39
1484.9
14881.8
5059.89
1441.35
1384.3
1321.81
1254.85
1184.32
1111.06
1035.9
959.729
883.52
808.129
734.68
665.119
601.75
546.955
502.876
470.857
450.867
441.349
439.742
443.328
449.853
457.755
466.028
474.094
481.64
488.492
494.558
499.783
504.137
507.598
510.152
511.79
512.505
512.294
511.154
509.086
506.094
502.185
504.304
512.154
518.514
523.381
526.761
528.675
529.16
528.275
526.114
522.806
518.537
513.549
508.151
502.711
497.63
493.294
490.009
487.913
486.921
486.698
486.704
486.273
484.718
481.416
475.862
467.691
456.667
442.665
425.645
405.628
382.673
356.867
328.312
297.118
277.808
297.008
342.566
389.436
437.521
486.727
536.965
588.144
640.174
692.963
746.412
800.419
854.872
909.648
964.613
1019.62
1074.49
1129.05
1183.07
1236.29
1288.41
1339.06
1387.63
1433.5
1476.53
1515.43
13742.2
6147.17
1475.05
1417.48
1354.38
1286.73
1215.43
1141.31
1065.21
988.018
910.695
834.118
759.383
688.408
623.511
567.107
521.402
487.834
466.472
455.824
453.321
456.187
462.107
469.463
477.211
484.75
491.749
498.029
503.494
508.088
511.78
514.548
516.38
517.268
517.205
516.189
514.22
511.301
507.437
502.635
505.025
514.307
522.082
528.345
533.097
536.355
538.153
538.549
537.634
535.537
532.443
528.597
524.312
519.96
515.951
512.681
510.465
509.45
509.556
510.451
511.594
512.313
511.914
509.769
505.363
498.325
488.412
475.494
459.527
440.526
418.552
393.687
366.035
335.704
316.914
336.353
382.155
429.174
477.315
526.487
576.602
627.575
679.319
731.748
784.769
838.285
892.19
946.369
1000.7
1055.03
1109.21
1163.05
1216.34
1268.84
1320.24
1370.19
1418.08
1463.3
1505.71
1544.02
12297.1
7508.55
1508.07
1450.11
1386.53
1318.34
1246.41
1171.58
1094.68
1016.58
938.248
860.563
784.592
712.218
645.764
587.683
540.251
505.011
482.153
470.267
466.796
468.912
474.226
481.052
488.299
495.334
501.812
507.543
512.427
516.407
519.45
521.536
522.653
522.793
521.953
520.13
517.327
513.548
508.8
503.093
505.748
516.466
525.661
533.321
539.445
544.048
547.159
548.834
549.162
548.271
546.347
543.637
540.456
537.184
534.238
532.025
530.867
530.92
532.11
534.106
536.364
538.21
538.943
537.925
534.638
528.701
519.867
508.001
493.055
475.043
454.023
430.08
403.313
373.834
355.782
375.657
421.635
468.727
516.84
565.884
615.778
666.438
717.785
769.736
822.205
875.102
928.329
981.78
1035.34
1088.87
1142.22
1195.22
1247.67
1299.34
1349.93
1399.08
1446.23
1490.74
1532.51
1570.24
10533.4
9184.38
1540.12
1481.9
1418.03
1349.48
1277.12
1201.78
1124.25
1045.4
966.182
887.497
810.365
736.621
668.593
608.769
559.502
522.456
497.963
484.726
480.212
481.544
486.247
492.557
499.325
505.883
511.864
517.068
521.39
524.77
527.176
528.587
528.992
528.386
526.765
524.13
520.484
515.834
510.188
503.56
506.474
518.634
529.252
538.313
545.812
551.76
556.185
559.138
560.707
561.019
560.26
558.679
556.595
554.394
552.502
551.333
551.22
552.327
554.582
557.658
561.007
563.951
565.781
565.853
563.643
558.764
550.964
540.105
526.137
509.073
488.968
465.91
439.999
411.349
394.385
415.034
461.114
508.194
556.184
604.997
654.555
704.78
755.597
806.929
858.699
910.824
963.215
1015.78
1068.4
1120.96
1173.33
1225.33
1276.79
1327.48
1377.12
1425.37
1471.68
1515.39
1556.42
1593.54
8420.9
11213
1570.69
1512.44
1448.52
1379.89
1307.36
1231.74
1153.82
1074.42
994.491
914.946
836.766
761.705
692.1
630.475
579.264
540.268
513.991
499.274
493.632
494.137
498.22
504.026
510.337
516.443
521.951
526.649
530.425
533.217
534.992
535.731
535.425
534.067
531.658
528.201
523.7
518.164
511.605
504.037
507.204
520.811
532.857
543.325
552.204
559.503
565.244
569.478
572.288
573.803
574.206
573.749
572.756
571.618
570.768
570.63
571.546
573.687
576.986
581.114
585.522
589.525
592.408
593.522
592.334
588.456
581.63
571.718
558.666
542.488
523.243
501.016
475.913
448.051
432.699
454.648
500.75
547.726
595.487
643.952
693.044
742.691
792.823
843.373
894.269
945.438
996.803
1048.28
1099.76
1151.16
1202.33
1253.15
1303.42
1352.95
1401.47
1448.66
1493.97
1536.75
1576.92
1613.23
5964.9
13575.3
1599.06
1541.11
1477.5
1409.13
1336.78
1261.23
1183.21
1103.55
1023.14
942.923
863.838
787.554
716.398
652.93
599.673
558.582
530.363
514.027
507.159
506.787
510.237
515.547
521.422
527.097
532.151
536.357
539.597
541.806
542.95
543.013
541.986
539.866
536.656
532.36
526.986
520.546
513.053
504.524
507.936
522.997
536.479
548.36
558.627
567.282
574.347
579.867
583.924
586.642
588.208
588.872
588.964
588.88
589.061
589.942
591.871
595.026
599.343
604.494
609.922
614.937
618.819
620.911
620.677
617.724
611.793
602.743
590.524
575.15
556.683
535.212
510.846
483.708
470.712
494.724
540.764
587.536
634.955
682.94
731.419
780.326
829.597
879.172
928.989
978.984
1029.09
1079.24
1129.35
1179.32
1229.06
1278.43
1327.29
1375.43
1422.63
1468.58
1512.74
1554.46
1593.6
1628.82
3148.35
16118.2
1624
1566.98
1504.25
1436.64
1364.94
1289.87
1212.16
1132.59
1052.02
971.402
891.621
814.262
741.626
676.304
620.91
577.577
547.238
529.12
520.906
519.591
522.385
527.204
532.659
537.923
542.541
546.268
548.976
550.6
551.106
550.479
548.715
545.813
541.779
536.621
530.352
522.984
514.535
505.023
508.672
525.194
540.121
553.427
565.095
575.124
583.528
590.351
595.669
599.605
602.342
604.134
605.312
606.278
607.481
609.363
612.283
616.423
621.721
627.848
634.242
640.205
645.012
647.999
648.627
646.499
641.357
633.062
621.565
606.884
589.085
568.264
544.536
518.03
508.418
535.565
581.459
627.925
674.877
722.239
769.944
817.929
866.139
914.518
963.016
1011.58
1060.16
1108.69
1157.11
1205.36
1253.33
1300.94
1348.05
1394.5
1440.09
1484.53
1527.4
1567.95
1606.12
1640.55
1669.73
17592.7
1643.69
1588.7
1527.67
1461.53
1391.08
1317.07
1240.2
1161.2
1080.9
1000.25
920.094
841.891
767.908
700.767
643.185
597.483
564.862
544.803
535.127
532.803
534.917
539.244
544.286
549.145
553.324
556.56
558.718
559.731
559.568
558.217
555.678
551.956
547.061
541.006
533.808
525.483
516.051
505.532
509.409
527.395
543.775
558.519
571.605
583.025
592.789
600.934
607.531
612.699
616.62
619.546
621.812
623.825
626.043
628.917
632.812
637.915
644.166
651.228
658.534
665.378
671.025
674.807
676.182
674.754
670.266
662.583
651.661
637.525
620.248
599.934
576.706
550.703
545.835
577.551
623.212
669.267
715.629
762.219
808.976
855.842
902.768
949.707
996.616
1043.45
1090.18
1136.75
1183.12
1229.24
1275.04
1320.45
1365.37
1409.67
1453.19
1495.69
1536.86
1575.93
1613.08
1647.17
1677.17
18112.3
1657.6
1605.52
1546.92
1482.92
1414.41
1342.11
1266.72
1188.91
1109.48
1029.3
949.213
870.53
795.443
726.596
666.807
618.606
583.499
561.282
549.964
546.515
547.894
551.713
556.349
560.813
564.559
567.3
568.893
569.268
568.399
566.281
562.918
558.326
552.521
545.524
537.356
528.039
517.596
506.051
510.147
529.607
547.459
563.67
578.213
591.073
602.253
611.78
619.718
626.179
631.337
635.442
638.827
641.903
645.134
648.976
653.805
659.812
666.937
674.841
682.95
690.548
696.896
701.321
703.28
702.379
698.366
691.11
680.575
666.796
649.854
629.864
606.961
581.293
582.99
621.207
666.55
712.082
757.719
803.387
849.017
894.558
939.967
985.204
1030.24
1075.03
1119.56
1163.79
1207.71
1251.27
1294.43
1337.16
1379.39
1421.02
1461.96
1502.02
1540.96
1578.23
1613.63
1646.87
1676.81
16745.6
1663.8
1615.67
1560.28
1499.19
1433.41
1363.68
1290.61
1214.84
1137.05
1058.06
978.67
900.039
824.25
753.954
692.073
641.366
603.686
579.198
566.15
561.529
562.152
565.449
569.647
573.66
576.895
579.046
579.964
579.587
577.895
574.893
570.599
565.036
558.231
550.214
541.012
530.655
519.168
506.576
510.877
531.793
551.114
568.804
584.827
599.158
611.788
622.732
632.043
639.822
646.237
651.535
656.049
660.196
664.445
669.263
675.028
681.936
689.921
698.634
707.488
715.758
722.694
727.62
729.995
729.428
725.677
718.621
708.239
694.578
677.732
657.832
635.024
611.574
622.107
667.003
711.957
756.869
801.653
846.239
890.569
934.59
978.255
1021.54
1064.41
1106.84
1148.83
1190.35
1231.39
1271.94
1311.98
1351.49
1390.46
1428.83
1466.55
1503.51
1539.55
1574.22
1607.34
1638.8
1667.6
13378.8
5077.44
1620.1
1567.06
1509.08
1446.73
1380.48
1310.78
1238.1
1162.99
1086.16
1008.35
930.543
854.647
783.284
719.462
666.181
625.691
598.61
583.518
577.486
577.207
579.91
583.648
587.212
589.941
591.493
591.711
590.533
587.951
583.985
578.669
572.044
564.152
555.037
544.74
533.298
520.743
507.099
511.603
534
554.852
574.114
591.745
607.708
621.977
634.548
645.454
654.774
662.656
669.329
675.113
680.417
685.71
691.464
698.066
705.719
714.358
723.63
732.944
741.568
748.753
753.832
756.271
755.693
751.867
744.688
734.146
720.303
703.269
683.187
660.22
648.418
671.04
715.702
760.17
804.344
848.139
891.487
934.33
976.625
1018.34
1059.43
1099.88
1139.68
1178.81
1217.28
1255.07
1292.2
1328.65
1364.44
1399.57
1434.02
1467.8
1500.85
1533.1
1564.24
1594.12
1622.73
1649.32
9734.28
8733.18
1616.23
1566.24
1511.98
1453.74
1391.75
1326.27
1257.62
1186.2
1112.54
1037.34
961.372
886.297
814.662
749.52
694.095
651.049
621.515
604.474
597.115
595.987
598.082
601.244
604.14
606.055
606.648
605.78
603.418
599.582
594.315
587.675
579.724
570.523
560.132
548.605
535.987
522.316
507.615
512.281
536.04
558.322
579.095
598.3
615.877
631.773
645.954
658.423
669.237
678.532
686.535
693.575
700.069
706.463
713.206
720.682
729.092
738.372