/*--------------------------------*- C++ -*----------------------------------*\
  =========                 |
  \\      /  F ield         | OpenFOAM: The Open Source CFD Toolbox
   \\    /   O peration     | Website:  https://openfoam.org
    \\  /    A nd           | Version:  8
     \\/     M anipulation  |
\*---------------------------------------------------------------------------*/
FoamFile
{
    version     2.0;
    format      ascii;
    class       volScalarField;
    location    "580/fluid";
    object      rho;
}
// * * * * * * * * * * * * * * * * * * * * * * * * * * * * * * * * * * * * * //

dimensions      [1 -3 0 0 0 0 0];

internalField   nonuniform List<scalar> 
4000
(
0.658526
0.6585
0.658456
0.658382
0.658259
0.658055
0.657719
0.657171
0.656287
0.654881
0.652679
0.649299
0.644239
0.636885
0.626576
0.612729
0.595014
0.573524
0.548855
0.522023
0.49424
0.466662
0.440198
0.41544
0.392683
0.371998
0.353313
0.336472
0.321288
0.307567
0.29513
0.283812
0.273476
0.264002
0.255292
0.247252
0.239776
0.232799
0.226271
0.220148
0.214392
0.208973
0.203863
0.19904
0.194484
0.190179
0.186112
0.182273
0.178651
0.175242
0.172039
0.16904
0.166246
0.16366
0.16129
0.159146
0.157248
0.155643
0.154362
0.15341
0.152903
0.152956
0.153757
0.162568
0.173
0.185262
0.199648
0.216549
0.236476
0.260095
0.288276
0.322138
0.363117
0.413159
0.474642
0.549765
0.639718
0.74298
0.853089
0.958146
1.045
1.10645
1.14413
1.16462
1.17488
1.17977
1.18202
1.18304
1.18348
1.18368
1.18376
1.1838
1.18381
1.18382
1.18382
1.18382
1.18382
1.18382
1.18382
1.18382
0.658526
0.6585
0.658455
0.658381
0.658257
0.658052
0.657713
0.657161
0.65627
0.654855
0.652645
0.649262
0.644214
0.636902
0.626681
0.612983
0.595481
0.574252
0.549855
0.523261
0.49565
0.468161
0.441707
0.416896
0.394044
0.373242
0.354429
0.337462
0.322158
0.308328
0.295792
0.284386
0.27397
0.264425
0.255653
0.247559
0.240034
0.233014
0.226448
0.220291
0.214504
0.209058
0.203923
0.199077
0.194501
0.190178
0.186095
0.182241
0.178607
0.175186
0.171973
0.168966
0.166165
0.163573
0.161197
0.159049
0.157148
0.155543
0.154263
0.153316
0.152819
0.152897
0.154377
0.163393
0.17405
0.186576
0.201287
0.218595
0.239043
0.263339
0.292405
0.327428
0.369938
0.422007
0.486064
0.564197
0.657187
0.762595
0.872695
0.97487
1.05685
1.11343
1.14763
1.16619
1.17554
1.18003
1.18212
1.18307
1.1835
1.18368
1.18376
1.1838
1.18381
1.18382
1.18382
1.18382
1.18382
1.18382
1.18382
1.18382
0.658526
0.658499
0.658455
0.65838
0.658255
0.658048
0.657707
0.657152
0.656257
0.654838
0.652622
0.649238
0.644196
0.636909
0.626747
0.613153
0.595804
0.574769
0.550589
0.524204
0.496766
0.469396
0.443001
0.418196
0.395306
0.374437
0.355539
0.338479
0.323079
0.309156
0.296529
0.285039
0.274545
0.264927
0.256088
0.247933
0.240353
0.233283
0.22667
0.220469
0.214643
0.20916
0.203991
0.199113
0.194508
0.19016
0.186053
0.182178
0.178525
0.175087
0.171859
0.168838
0.166026
0.163424
0.16104
0.158886
0.15698
0.155372
0.154092
0.153143
0.152647
0.152724
0.155629
0.16489
0.175852
0.18876
0.203945
0.221847
0.243041
0.268279
0.298534
0.335057
0.379453
0.433882
0.500694
0.581695
0.677046
0.783322
0.891861
0.990071
1.06706
1.11932
1.15063
1.1676
1.17617
1.1803
1.18224
1.18312
1.18352
1.18369
1.18377
1.1838
1.18381
1.18382
1.18382
1.18382
1.18382
1.18382
1.18382
1.18382
0.658526
0.658499
0.658455
0.65838
0.658255
0.658047
0.657706
0.657151
0.656257
0.65484
0.652633
0.649268
0.644262
0.637034
0.626961
0.613489
0.596293
0.575432
0.551424
0.52519
0.497863
0.470557
0.444181
0.419355
0.396418
0.375482
0.356508
0.339367
0.323887
0.309884
0.297183
0.285621
0.275059
0.265378
0.256479
0.24827
0.240639
0.233521
0.226864
0.220621
0.214756
0.209235
0.204031
0.199122
0.194488
0.190112
0.18598
0.182082
0.178408
0.174952
0.171708
0.168674
0.165849
0.163239
0.160848
0.158689
0.156781
0.155178
0.153906
0.15297
0.152489
0.152587
0.157267
0.166788
0.17809
0.191428
0.207149
0.225718
0.247743
0.274014
0.305553
0.343665
0.390037
0.446887
0.516454
0.600242
0.697792
0.804723
0.911525
1.0057
1.07771
1.12562
1.15396
1.16923
1.17692
1.18064
1.18238
1.18318
1.18354
1.1837
1.18377
1.1838
1.18381
1.18382
1.18382
1.18382
1.18382
1.18382
1.18382
1.18382
0.658526
0.658499
0.658455
0.65838
0.658255
0.658048
0.657707
0.657153
0.656262
0.654851
0.652654
0.649307
0.644332
0.637154
0.627154
0.613783
0.596713
0.575993
0.552127
0.526015
0.498779
0.471525
0.445162
0.420318
0.397339
0.376347
0.357308
0.340099
0.324551
0.310483
0.297718
0.286096
0.275478
0.265743
0.256793
0.248536
0.240862
0.233703
0.227006
0.220726
0.214824
0.209269
0.204035
0.199096
0.194435
0.190033
0.185878
0.181959
0.178266
0.174792
0.171534
0.168488
0.165656
0.163039
0.160645
0.158487
0.156584
0.154997
0.153739
0.152819
0.152367
0.152517
0.159039
0.168829
0.180484
0.194269
0.210548
0.229807
0.252683
0.280005
0.312839
0.352538
0.400878
0.460099
0.532288
0.618619
0.717977
0.825063
0.929705
1.01976
1.08707
1.13107
1.15682
1.17063
1.17757
1.18093
1.18251
1.18324
1.18357
1.18371
1.18377
1.1838
1.18381
1.18382
1.18382
1.18382
1.18382
1.18382
1.18382
1.18382
0.658526
0.658499
0.658455
0.65838
0.658256
0.65805
0.65771
0.657159
0.656272
0.654869
0.652687
0.649363
0.644423
0.637296
0.627369
0.614091
0.597131
0.576528
0.552772
0.526751
0.499576
0.472349
0.445984
0.421114
0.398092
0.377048
0.357951
0.340683
0.325077
0.310953
0.298135
0.286463
0.275797
0.266017
0.257025
0.248728
0.241017
0.233822
0.22709
0.220777
0.214846
0.209263
0.204002
0.199037
0.194352
0.189928
0.185752
0.181815
0.178106
0.174619
0.17135
0.168297
0.16546
0.162843
0.160453
0.158303
0.156414
0.154849
0.153607
0.152712
0.152291
0.152483
0.16071
0.170762
0.182783
0.197031
0.213879
0.23383
0.257551
0.285904
0.319999
0.361238
0.411479
0.472958
0.547607
0.636254
0.737134
0.844107
0.946483
1.03258
1.09556
1.13604
1.15946
1.17193
1.17819
1.18122
1.18264
1.18329
1.18359
1.18372
1.18378
1.1838
1.18381
1.18382
1.18382
1.18382
1.18382
1.18382
1.18382
1.18382
0.658526
0.6585
0.658455
0.658381
0.658257
0.658052
0.657714
0.657166
0.656284
0.654889
0.652721
0.649417
0.644509
0.637429
0.627565
0.614367
0.5975
0.576994
0.553326
0.527376
0.500245
0.473035
0.446661
0.421763
0.398701
0.377608
0.35846
0.341141
0.325485
0.311312
0.298449
0.286735
0.276029
0.266212
0.257183
0.248853
0.241111
0.233885
0.227125
0.220786
0.21483
0.209222
0.203938
0.198952
0.194246
0.189803
0.185611
0.181659
0.177938
0.174442
0.171166
0.16811
0.165273
0.162662
0.160283
0.158152
0.156288
0.154771
0.153545
0.152716
0.152369
0.152635
0.161564
0.172185
0.184735
0.199527
0.216976
0.237623
0.262169
0.291516
0.326817
0.369524
0.421573
0.485173
0.562094
0.652809
0.754915
0.861504
0.961518
1.04385
1.10291
1.1403
1.16171
1.17304
1.17872
1.18146
1.18275
1.18334
1.18361
1.18373
1.18378
1.1838
1.18381
1.18382
1.18382
1.18382
1.18382
1.18382
1.18382
1.18382
0.658526
0.6585
0.658456
0.658382
0.658258
0.658054
0.657718
0.657173
0.656296
0.65491
0.652754
0.649471
0.644593
0.637555
0.627746
0.614617
0.597827
0.5774
0.553803
0.527905
0.500804
0.4736
0.447212
0.422285
0.399184
0.378048
0.358855
0.341491
0.325792
0.311579
0.298678
0.286928
0.276188
0.26634
0.257282
0.248924
0.241154
0.233905
0.227122
0.220761
0.214783
0.209155
0.203851
0.198848
0.194125
0.189668
0.185463
0.1815
0.177769
0.174266
0.170987
0.16793
0.165098
0.162495
0.160132
0.158025
0.156206
0.154744
0.153604
0.152914
0.152793
0.153443
0.16271
0.173705
0.186667
0.201926
0.219915
0.241198
0.266507
0.296778
0.333202
0.377282
0.43102
0.496581
0.575567
0.668101
0.77117
0.87719
0.974862
1.05371
1.10927
1.14397
1.16365
1.17401
1.17917
1.18167
1.18284
1.18339
1.18363
1.18374
1.18379
1.18381
1.18382
1.18382
1.18382
1.18382
1.18382
1.18382
1.18382
1.18382
0.658526
0.6585
0.658456
0.658382
0.65826
0.658056
0.657723
0.65718
0.656308
0.654929
0.652785
0.649519
0.644667
0.637666
0.627905
0.614834
0.598108
0.577744
0.554202
0.528344
0.501263
0.474059
0.447655
0.4227
0.399564
0.378388
0.359156
0.341753
0.326017
0.31177
0.298837
0.287058
0.27629
0.266416
0.257332
0.248951
0.241162
0.233892
0.22709
0.22071
0.214715
0.209071
0.203751
0.198733
0.193998
0.189529
0.185314
0.181342
0.177605
0.174097
0.170816
0.16776
0.164931
0.162336
0.159985
0.157896
0.15611
0.154683
0.153591
0.152969
0.152945
0.154421
0.163961
0.175257
0.188564
0.204224
0.222688
0.244541
0.27054
0.301654
0.339107
0.384456
0.439752
0.507101
0.587943
0.682053
0.785851
0.891163
0.986561
1.06222
1.1147
1.14707
1.16529
1.17482
1.17956
1.18185
1.18293
1.18342
1.18365
1.18374
1.18379
1.18381
1.18382
1.18382
1.18382
1.18382
1.18382
1.18382
1.18382
1.18382
0.658526
0.6585
0.658456
0.658383
0.658261
0.658059
0.657726
0.657186
0.656319
0.654946
0.652812
0.649563
0.644733
0.637762
0.628042
0.615018
0.598345
0.578032
0.554533
0.528704
0.501635
0.474427
0.448006
0.423024
0.399856
0.378646
0.35938
0.341945
0.326178
0.311902
0.298943
0.287138
0.276348
0.266452
0.257349
0.24895
0.241143
0.233856
0.227038
0.220644
0.214634
0.208977
0.203645
0.198616
0.19387
0.189392
0.185169
0.181191
0.177449
0.173939
0.170656
0.167601
0.164775
0.162184
0.159841
0.157761
0.155988
0.154573
0.153489
0.152864
0.152813
0.155528
0.165261
0.176793
0.190384
0.206387
0.225266
0.247625
0.274243
0.306116
0.344499
0.391002
0.447708
0.516668
0.599161
0.694625
0.798956
0.90348
0.996729
1.06952
1.11931
1.1497
1.16667
1.1755
1.17989
1.182
1.183
1.18345
1.18366
1.18375
1.18379
1.18381
1.18382
1.18382
1.18382
1.18382
1.18382
1.18382
1.18382
1.18382
0.658526
0.6585
0.658457
0.658384
0.658262
0.658061
0.65773
0.657192
0.656328
0.654961
0.652836
0.6496
0.644789
0.637845
0.628157
0.615173
0.598542
0.578269
0.554803
0.528995
0.501932
0.474718
0.44828
0.423274
0.400078
0.378839
0.359544
0.342081
0.326289
0.311989
0.299007
0.287182
0.276373
0.26646
0.257341
0.248928
0.241106
0.233806
0.226975
0.220568
0.214547
0.20888
0.203539
0.198501
0.193747
0.189262
0.185034
0.181051
0.177306
0.173794
0.170511
0.167457
0.164634
0.162048
0.15971
0.157637
0.155873
0.154466
0.153388
0.152766
0.152714
0.156592
0.166493
0.178228
0.192067
0.20837
0.227616
0.250424
0.277594
0.310146
0.349364
0.396906
0.454881
0.525276
0.609218
0.705831
0.810536
0.914233
1.00549
1.07574
1.1232
1.1519
1.16782
1.17607
1.18016
1.18213
1.18305
1.18348
1.18367
1.18376
1.18379
1.18381
1.18382
1.18382
1.18382
1.18382
1.18382
1.18382
1.18382
1.18382
0.658526
0.6585
0.658457
0.658384
0.658263
0.658062
0.657732
0.657196
0.656336
0.654974
0.652857
0.649631
0.644837
0.637913
0.628253
0.615301
0.598703
0.578462
0.55502
0.529226
0.502167
0.474945
0.448491
0.423463
0.400243
0.378979
0.35966
0.342174
0.326361
0.312042
0.299042
0.2872
0.276377
0.266449
0.257318
0.248892
0.241059
0.233748
0.226907
0.220491
0.214461
0.208785
0.203437
0.198392
0.193633
0.189143
0.184911
0.180925
0.177179
0.173666
0.170384
0.167332
0.164512
0.161931
0.159599
0.157534
0.155779
0.15438
0.153308
0.152692
0.152644
0.157544
0.1676
0.179518
0.193576
0.210146
0.229715
0.252919
0.280576
0.313728
0.353684
0.402152
0.461258
0.532918
0.61812
0.715698
0.820649
0.92353
1.01298
1.08099
1.12646
1.15374
1.16878
1.17655
1.18039
1.18224
1.1831
1.1835
1.18368
1.18376
1.1838
1.18381
1.18382
1.18382
1.18382
1.18382
1.18382
1.18382
1.18382
1.18382
0.658526
0.6585
0.658457
0.658385
0.658264
0.658064
0.657735
0.6572
0.656342
0.654985
0.652874
0.649658
0.644876
0.63797
0.628331
0.615404
0.598833
0.578616
0.555193
0.529409
0.50235
0.475119
0.448651
0.423605
0.400364
0.379079
0.35974
0.342235
0.326404
0.31207
0.299055
0.287201
0.276366
0.266427
0.257285
0.248849
0.241007
0.233688
0.226839
0.220416
0.214379
0.208697
0.203343
0.198294
0.19353
0.189037
0.184802
0.180815
0.177068
0.173556
0.170276
0.167227
0.164411
0.161835
0.15951
0.157452
0.155705
0.154314
0.15325
0.152642
0.1526
0.158366
0.168563
0.180646
0.194898
0.211699
0.23155
0.255099
0.283182
0.31686
0.357466
0.406748
0.466841
0.539603
0.625889
0.72427
0.829374
0.931475
1.01931
1.0854
1.12918
1.15526
1.16958
1.17694
1.18058
1.18232
1.18314
1.18352
1.18369
1.18376
1.1838
1.18381
1.18382
1.18382
1.18382
1.18382
1.18382
1.18382
1.18382
1.18382
0.658526
0.658501
0.658457
0.658385
0.658265
0.658065
0.657737
0.657204
0.656348
0.654994
0.652888
0.649679
0.644908
0.638015
0.628394
0.615487
0.598936
0.578737
0.555328
0.52955
0.50249
0.475251
0.44877
0.423708
0.40045
0.379148
0.359793
0.342273
0.326428
0.312081
0.299056
0.287191
0.276346
0.266399
0.257249
0.248806
0.240956
0.233631
0.226776
0.220347
0.214305
0.208619
0.203261
0.198208
0.193442
0.188947
0.184711
0.180723
0.176977
0.173466
0.170188
0.167142
0.164331
0.161761
0.159442
0.15739
0.155653
0.154269
0.153213
0.152611
0.152577
0.15906
0.169384
0.181611
0.196031
0.213034
0.233129
0.256977
0.285427
0.319559
0.360726
0.410711
0.471655
0.545363
0.632568
0.731609
0.836798
0.938182
1.02461
1.08905
1.13142
1.15651
1.17023
1.17726
1.18073
1.18239
1.18317
1.18353
1.18369
1.18377
1.1838
1.18381
1.18382
1.18382
1.18382
1.18382
1.18382
1.18382
1.18382
1.18382
0.658526
0.658501
0.658458
0.658385
0.658265
0.658066
0.657739
0.657207
0.656352
0.655001
0.652899
0.649696
0.644933
0.638052
0.628444
0.615552
0.599017
0.578832
0.555431
0.529658
0.502595
0.47535
0.448857
0.423782
0.40051
0.379195
0.359826
0.342295
0.326439
0.312082
0.299048
0.287176
0.276323
0.266369
0.257213
0.248764
0.24091
0.233579
0.22672
0.220287
0.214241
0.208552
0.203191
0.198136
0.193368
0.188872
0.184636
0.180649
0.176903
0.173395
0.17012
0.167078
0.164272
0.161706
0.159392
0.157347
0.155617
0.15424
0.15319
0.152593
0.152568
0.159636
0.170072
0.182424
0.196989
0.214163
0.234464
0.258565
0.287325
0.321841
0.363483
0.414065
0.475728
0.550232
0.638204
0.737781
0.843007
0.943753
1.02898
1.09205
1.13325
1.15752
1.17076
1.17752
1.18086
1.18245
1.1832
1.18354
1.1837
1.18377
1.1838
1.18381
1.18382
1.18382
1.18382
1.18382
1.18382
1.18382
1.18382
1.18382
0.658526
0.658501
0.658458
0.658386
0.658266
0.658067
0.65774
0.657209
0.656356
0.655006
0.652908
0.649709
0.644953
0.63808
0.628482
0.615602
0.599078
0.578903
0.55551
0.529738
0.502673
0.475422
0.44892
0.423834
0.400551
0.379225
0.359847
0.342306
0.326442
0.312078
0.299037
0.287159
0.2763
0.266342
0.257181
0.248729
0.24087
0.233536
0.226673
0.220237
0.21419
0.208498
0.203135
0.198079
0.193311
0.188814
0.184578
0.180592
0.176849
0.173343
0.170071
0.167033
0.16423
0.16167
0.159361
0.15732
0.155595
0.154219
0.153166
0.152558
0.152509
0.160107
0.170639
0.183096
0.197781
0.215097
0.235569
0.259877
0.288893
0.323725
0.365759
0.416832
0.479088
0.554244
0.64284
0.742843
0.848079
0.948279
1.03251
1.09446
1.13471
1.15834
1.17118
1.17773
1.18096
1.1825
1.18322
1.18355
1.1837
1.18377
1.1838
1.18381
1.18382
1.18382
1.18382
1.18382
1.18382
1.18382
1.18382
1.18382
0.658526
0.658501
0.658458
0.658386
0.658266
0.658067
0.657741
0.65721
0.656359
0.655011
0.652914
0.64972
0.644968
0.638101
0.628511
0.615639
0.599124
0.578956
0.555567
0.529797
0.50273
0.475473
0.448964
0.42387
0.400579
0.379245
0.359859
0.342311
0.326441
0.312071
0.299026
0.287143
0.276281
0.266319
0.257156
0.2487
0.240839
0.233503
0.226638
0.2202
0.214151
0.208458
0.203094
0.198037
0.193269
0.188773
0.184538
0.180554
0.176813
0.173309
0.17004
0.167006
0.164207
0.161651
0.159347
0.157312
0.155591
0.154219
0.153168
0.152559
0.152508
0.160479
0.171091
0.183635
0.198417
0.215847
0.236454
0.260927
0.290146
0.325227
0.367571
0.419035
0.481759
0.557429
0.646512
0.74684
0.852068
0.951823
1.03526
1.09633
1.13584
1.15896
1.1715
1.17789
1.18103
1.18253
1.18324
1.18356
1.18371
1.18377
1.1838
1.18381
1.18382
1.18382
1.18382
1.18382
1.18382
1.18382
1.18382
1.18382
0.658526
0.658501
0.658458
0.658386
0.658266
0.658068
0.657742
0.657212
0.656361
0.655014
0.652919
0.649727
0.644978
0.638116
0.628531
0.615666
0.599156
0.578993
0.555607
0.529838
0.502769
0.475508
0.448994
0.423894
0.400597
0.379257
0.359865
0.342313
0.326439
0.312065
0.299016
0.287131
0.276266
0.266302
0.257137
0.24868
0.240818
0.23348
0.226614
0.220175
0.214125
0.208431
0.203067
0.198011
0.193242
0.188748
0.184514
0.180531
0.176792
0.173291
0.170025
0.166995
0.164201
0.161649
0.15935
0.157319
0.155603
0.154234
0.153183
0.15257
0.152511
0.160755
0.171434
0.184046
0.198904
0.216419
0.237128
0.261724
0.291093
0.32636
0.368935
0.420688
0.483761
0.559811
0.649249
0.749809
0.855017
0.954431
1.03728
1.0977
1.13667
1.15942
1.17174
1.17801
1.18109
1.18256
1.18325
1.18357
1.18371
1.18377
1.1838
1.18381
1.18382
1.18382
1.18382
1.18382
1.18382
1.18382
1.18382
1.18382
0.658526
0.658501
0.658458
0.658386
0.658266
0.658068
0.657742
0.657212
0.656362
0.655016
0.652922
0.649731
0.644985
0.638126
0.628545
0.615682
0.599177
0.579017
0.555633
0.529863
0.502793
0.47553
0.449012
0.423909
0.400607
0.379263
0.359869
0.342313
0.326436
0.312061
0.29901
0.287122
0.276257
0.266291
0.257126
0.248668
0.240805
0.233467
0.2266
0.220161
0.214111
0.208417
0.203053
0.197997
0.193229
0.188735
0.184502
0.180521
0.176784
0.173286
0.170024
0.166996
0.164206
0.161659
0.159364
0.157337
0.155625
0.154258
0.153206
0.152588
0.152516
0.160939
0.171669
0.184331
0.199241
0.216815
0.237593
0.26227
0.291739
0.327129
0.369856
0.4218
0.485101
0.561399
0.651068
0.751772
0.856957
0.956135
1.03859
1.09859
1.13721
1.15972
1.1719
1.17809
1.18113
1.18258
1.18326
1.18357
1.18371
1.18377
1.1838
1.18381
1.18382
1.18382
1.18382
1.18382
1.18382
1.18382
1.18382
1.18382
0.658526
0.658501
0.658458
0.658386
0.658266
0.658068
0.657742
0.657213
0.656362
0.655017
0.652924
0.649734
0.644988
0.63813
0.628551
0.61569
0.599187
0.579028
0.555645
0.529875
0.502805
0.47554
0.449021
0.423915
0.400612
0.379266
0.35987
0.342313
0.326435
0.312058
0.299006
0.287118
0.276252
0.266286
0.25712
0.248663
0.2408
0.233462
0.226595
0.220156
0.214105
0.208412
0.203048
0.197992
0.193225
0.188732
0.1845
0.18052
0.176785
0.173289
0.170028
0.167004
0.164217
0.161672
0.159381
0.157357
0.155647
0.154281
0.153228
0.152604
0.152519
0.16103
0.171793
0.184485
0.199423
0.217026
0.237837
0.262554
0.29207
0.32752
0.37032
0.422355
0.485762
0.562176
0.651951
0.752717
0.857882
0.95694
1.03921
1.099
1.13746
1.15986
1.17197
1.17812
1.18114
1.18259
1.18326
1.18357
1.18371
1.18377
1.1838
1.18381
1.18382
1.18382
1.18382
1.18382
1.18382
1.18382
1.18382
1.18382
0.658526
0.658501
0.658458
0.658386
0.658266
0.658068
0.657742
0.657213
0.656362
0.655017
0.652924
0.649734
0.644988
0.63813
0.628551
0.61569
0.599186
0.579028
0.555644
0.529875
0.502804
0.47554
0.44902
0.423915
0.400612
0.379266
0.35987
0.342313
0.326435
0.312058
0.299006
0.287118
0.276252
0.266286
0.25712
0.248663
0.2408
0.233462
0.226595
0.220156
0.214105
0.208412
0.203048
0.197992
0.193225
0.188732
0.1845
0.18052
0.176785
0.173289
0.170028
0.167004
0.164217
0.161672
0.159381
0.157357
0.155647
0.154281
0.153228
0.152604
0.152519
0.16103
0.171794
0.184485
0.199423
0.217026
0.237837
0.262554
0.292071
0.32752
0.37032
0.422355
0.485763
0.562177
0.651951
0.752718
0.857882
0.956941
1.03921
1.099
1.13746
1.15986
1.17197
1.17812
1.18114
1.18259
1.18326
1.18357
1.18371
1.18377
1.1838
1.18381
1.18382
1.18382
1.18382
1.18382
1.18382
1.18382
1.18382
1.18382
0.658526
0.658501
0.658458
0.658386
0.658266
0.658068
0.657742
0.657212
0.656362
0.655016
0.652922
0.649731
0.644985
0.638125
0.628544
0.615682
0.599176
0.579016
0.555632
0.529862
0.502792
0.475529
0.449011
0.423908
0.400606
0.379263
0.359868
0.342312
0.326436
0.31206
0.299009
0.287122
0.276256
0.266291
0.257125
0.248668
0.240805
0.233466
0.2266
0.220161
0.21411
0.208417
0.203053
0.197996
0.193229
0.188735
0.184502
0.180521
0.176784
0.173286
0.170024
0.166996
0.164206
0.161659
0.159364
0.157337
0.155625
0.154258
0.153206
0.152588
0.152516
0.160939
0.171669
0.184332
0.199242
0.216816
0.237593
0.26227
0.291739
0.32713
0.369857
0.421801
0.485102
0.561401
0.65107
0.751774
0.856958
0.956136
1.03859
1.09859
1.13721
1.15972
1.1719
1.17809
1.18113
1.18258
1.18326
1.18357
1.18371
1.18377
1.1838
1.18381
1.18382
1.18382
1.18382
1.18382
1.18382
1.18382
1.18382
1.18382
0.658526
0.658501
0.658458
0.658386
0.658266
0.658068
0.657742
0.657211
0.65636
0.655014
0.652919
0.649727
0.644978
0.638116
0.628531
0.615665
0.599155
0.578992
0.555606
0.529836
0.502767
0.475506
0.448992
0.423892
0.400595
0.379255
0.359864
0.342311
0.326438
0.312064
0.299015
0.28713
0.276265
0.266301
0.257136
0.24868
0.240817
0.233479
0.226613
0.220175
0.214124
0.208431
0.203067
0.19801
0.193242
0.188747
0.184513
0.180531
0.176791
0.173291
0.170025
0.166994
0.1642
0.161649
0.15935
0.157319
0.155603
0.154234
0.153183
0.15257
0.152511
0.160756
0.171434
0.184047
0.198904
0.21642
0.237129
0.261725
0.291094
0.326362
0.368937
0.42069
0.483763
0.559813
0.649252
0.749812
0.85502
0.954434
1.03728
1.0977
1.13667
1.15943
1.17174
1.17801
1.18109
1.18256
1.18325
1.18357
1.18371
1.18377
1.1838
1.18381
1.18382
1.18382
1.18382
1.18382
1.18382
1.18382
1.18382
1.18382
0.658526
0.658501
0.658458
0.658386
0.658266
0.658067
0.657741
0.65721
0.656359
0.655011
0.652914
0.649719
0.644967
0.6381
0.62851
0.615638
0.599122
0.578954
0.555565
0.529794
0.502727
0.475471
0.448962
0.423868
0.400577
0.379243
0.359857
0.342309
0.32644
0.31207
0.299024
0.287142
0.27628
0.266318
0.257155
0.248699
0.240838
0.233502
0.226637
0.2202
0.21415
0.208457
0.203094
0.198037
0.193268
0.188773
0.184538
0.180553
0.176812
0.173309
0.17004
0.167005
0.164207
0.161651
0.159347
0.157311
0.155591
0.154219
0.153168
0.152559
0.152508
0.160479
0.171092
0.183636
0.198418
0.215848
0.236456
0.260929
0.290147
0.325229
0.367574
0.419037
0.481763
0.557433
0.646516
0.746844
0.852071
0.951826
1.03526
1.09633
1.13584
1.15896
1.1715
1.17789
1.18103
1.18253
1.18324
1.18356
1.18371
1.18377
1.1838
1.18381
1.18382
1.18382
1.18382
1.18382
1.18382
1.18382
1.18382
1.18382
0.658526
0.658501
0.658458
0.658386
0.658266
0.658067
0.65774
0.657209
0.656356
0.655006
0.652907
0.649709
0.644952
0.638079
0.628481
0.6156
0.599076
0.578901
0.555507
0.529735
0.50267
0.475418
0.448917
0.423831
0.400549
0.379223
0.359844
0.342304
0.32644
0.312076
0.299035
0.287157
0.276299
0.26634
0.25718
0.248728
0.240869
0.233535
0.226673
0.220237
0.214189
0.208497
0.203135
0.198078
0.19331
0.188814
0.184578
0.180592
0.176849
0.173343
0.170071
0.167033
0.16423
0.161669
0.159361
0.15732
0.155594
0.154219
0.153166
0.152558
0.152509
0.160108
0.17064
0.183097
0.197783
0.215099
0.235571
0.259879
0.288896
0.323728
0.365762
0.416836
0.479093
0.554249
0.642845
0.742848
0.848084
0.948283
1.03251
1.09446
1.13471
1.15834
1.17118
1.17773
1.18096
1.1825
1.18322
1.18355
1.1837
1.18377
1.1838
1.18381
1.18382
1.18382
1.18382
1.18382
1.18382
1.18382
1.18382
1.18382
0.658526
0.658501
0.658458
0.658385
0.658265
0.658066
0.657738
0.657206
0.656352
0.655001
0.652899
0.649696
0.644932
0.638051
0.628442
0.61555
0.599014
0.578828
0.555428
0.529654
0.502591
0.475346
0.448853
0.423778
0.400507
0.379192
0.359823
0.342292
0.326437
0.31208
0.299046
0.287174
0.276321
0.266368
0.257212
0.248763
0.240909
0.233578
0.226719
0.220286
0.214241
0.208551
0.20319
0.198135
0.193367
0.188872
0.184635
0.180648
0.176903
0.173394
0.170119
0.167078
0.164271
0.161706
0.159392
0.157346
0.155617
0.15424
0.15319
0.152593
0.152568
0.159638
0.170074
0.182426
0.196991
0.214165
0.234467
0.258567
0.287328
0.321844
0.363487
0.414069
0.475734
0.550238
0.63821
0.737788
0.843014
0.943759
1.02898
1.09205
1.13325
1.15753
1.17076
1.17752
1.18086
1.18245
1.1832
1.18354
1.1837
1.18377
1.1838
1.18381
1.18382
1.18382
1.18382
1.18382
1.18382
1.18382
1.18382
1.18382
0.658526
0.658501
0.658457
0.658385
0.658265
0.658065
0.657737
0.657204
0.656348
0.654993
0.652887
0.649678
0.644907
0.638014
0.628392
0.615484
0.598933
0.578734
0.555323
0.529545
0.502485
0.475247
0.448765
0.423703
0.400446
0.379145
0.359789
0.34227
0.326426
0.312078
0.299053
0.287189
0.276344
0.266397
0.257247
0.248804
0.240955
0.233629
0.226774
0.220345
0.214304
0.208618
0.20326
0.198207
0.193441
0.188946
0.18471
0.180722
0.176976
0.173465
0.170187
0.167142
0.164331
0.161761
0.159441
0.157389
0.155652
0.154269
0.153213
0.15261
0.152576
0.159062
0.169386
0.181613
0.196034
0.213037
0.233132
0.25698
0.285431
0.319563
0.360731
0.410717
0.471662
0.54537
0.632576
0.731618
0.836806
0.938189
1.02462
1.08906
1.13142
1.15651
1.17023
1.17726
1.18073
1.18239
1.18317
1.18353
1.18369
1.18377
1.1838
1.18381
1.18382
1.18382
1.18382
1.18382
1.18382
1.18382
1.18382
1.18382
0.658526
0.6585
0.658457
0.658385
0.658264
0.658064
0.657735
0.6572
0.656342
0.654985
0.652873
0.649657
0.644875
0.637968
0.628329
0.615401
0.59883
0.578612
0.555188
0.529403
0.502344
0.475114
0.448645
0.423599
0.400359
0.379075
0.359736
0.342231
0.326401
0.312067
0.299053
0.287199
0.276363
0.266425
0.257283
0.248848
0.241005
0.233686
0.226838
0.220414
0.214378
0.208696
0.203342
0.198293
0.193529
0.189036
0.184801
0.180814
0.177068
0.173556
0.170275
0.167226
0.16441
0.161834
0.159509
0.157451
0.155705
0.154314
0.15325
0.152641
0.1526
0.158368
0.168565
0.180648
0.194901
0.211702
0.231554
0.255103
0.283186
0.316865
0.357472
0.406755
0.466849
0.539612
0.625899
0.72428
0.829383
0.931484
1.01932
1.0854
1.12918
1.15526
1.16958
1.17694
1.18058
1.18232
1.18314
1.18352
1.18369
1.18376
1.1838
1.18381
1.18382
1.18382
1.18382
1.18382
1.18382
1.18382
1.18382
1.18382
0.658526
0.6585
0.658457
0.658384
0.658263
0.658062
0.657732
0.657196
0.656336
0.654974
0.652856
0.649631
0.644836
0.637912
0.628251
0.615298
0.598699
0.578457
0.555015
0.529221
0.502161
0.474939
0.448485
0.423458
0.400238
0.378974
0.359655
0.34217
0.326357
0.312038
0.299039
0.287198
0.276374
0.266447
0.257316
0.24889
0.241057
0.233746
0.226905
0.220489
0.214459
0.208784
0.203435
0.198391
0.193632
0.189142
0.18491
0.180924
0.177178
0.173665
0.170383
0.167331
0.164511
0.16193
0.159598
0.157533
0.155779
0.154379
0.153307
0.152692
0.152644
0.157547
0.167602
0.179521
0.19358
0.210149
0.229719
0.252924
0.280581
0.313734
0.353691
0.40216
0.461267
0.532928
0.618131
0.71571
0.820661
0.923541
1.01299
1.081
1.12647
1.15374
1.16879
1.17655
1.18039
1.18224
1.1831
1.1835
1.18368
1.18376
1.1838
1.18381
1.18382
1.18382
1.18382
1.18382
1.18382
1.18382
1.18382
1.18382
0.658526
0.6585
0.658457
0.658384
0.658262
0.658061
0.657729
0.657191
0.656328
0.654961
0.652836
0.649599
0.644788
0.637843
0.628154
0.61517
0.598538
0.578264
0.554797
0.528988
0.501925
0.474711
0.448273
0.423268
0.400072
0.378833
0.359539
0.342076
0.326284
0.311985
0.299004
0.287179
0.27637
0.266457
0.257339
0.248925
0.241104
0.233804
0.226973
0.220566
0.214546
0.208878
0.203537
0.198499
0.193746
0.189261
0.185032
0.18105
0.177305
0.173793
0.17051
0.167456
0.164633
0.162047
0.159709
0.157636
0.155872
0.154466
0.153387
0.152765
0.152713
0.156595
0.166496
0.178232
0.192071
0.208374
0.227621
0.250429
0.277599
0.310152
0.349372
0.396915
0.454892
0.525287
0.609231
0.705846
0.81055
0.914246
1.0055
1.07575
1.12321
1.1519
1.16782
1.17607
1.18016
1.18213
1.18305
1.18348
1.18367
1.18376
1.18379
1.18381
1.18382
1.18382
1.18382
1.18382
1.18382
1.18382
1.18382
1.18382
0.658526
0.6585
0.658456
0.658383
0.658261
0.658059
0.657726
0.657186
0.656318
0.654946
0.652812
0.649562
0.644732
0.63776
0.628039
0.615015
0.59834
0.578026
0.554526
0.528697
0.501627
0.474419
0.447998
0.423017
0.399849
0.37864
0.359375
0.34194
0.326174
0.311898
0.298939
0.287135
0.276345
0.266448
0.257346
0.248947
0.24114
0.233854
0.227036
0.220641
0.214632
0.208975
0.203643
0.198614
0.193869
0.189391
0.185168
0.181189
0.177448
0.173938
0.170655
0.1676
0.164774
0.162184
0.15984
0.157761
0.155987
0.154573
0.153488
0.152864
0.152812
0.155531
0.165264
0.176796
0.190388
0.206392
0.225271
0.247631
0.27425
0.306123
0.344508
0.391012
0.44772
0.516681
0.599176
0.694642
0.798973
0.903495
0.996742
1.06953
1.11932
1.1497
1.16667
1.1755
1.17989
1.182
1.183
1.18345
1.18366
1.18375
1.18379
1.18381
1.18382
1.18382
1.18382
1.18382
1.18382
1.18382
1.18382
1.18382
0.658526
0.6585
0.658456
0.658382
0.65826
0.658056
0.657722
0.657179
0.656308
0.654928
0.652784
0.649518
0.644666
0.637663
0.627902
0.614829
0.598102
0.577737
0.554195
0.528336
0.501254
0.47405
0.447647
0.422692
0.399556
0.378381
0.35915
0.341747
0.326012
0.311766
0.298833
0.287053
0.276287
0.266412
0.257329
0.248948
0.241159
0.233889
0.227087
0.220708
0.214712
0.209069
0.203749
0.198732
0.193996
0.189527
0.185312
0.18134
0.177604
0.174096
0.170815
0.167759
0.16493
0.162335
0.159984
0.157895
0.156109
0.154683
0.153591
0.152968
0.152944
0.154424
0.163964
0.175261
0.188568
0.204229
0.222693
0.244547
0.270547
0.301662
0.339116
0.384467
0.439766
0.507116
0.58796
0.682072
0.785871
0.89118
0.986576
1.06223
1.11471
1.14708
1.16529
1.17482
1.17956
1.18185
1.18293
1.18342
1.18365
1.18375
1.18379
1.18381
1.18382
1.18382
1.18382
1.18382
1.18382
1.18382
1.18382
1.18382
0.658526
0.6585
0.658456
0.658382
0.658258
0.658054
0.657718
0.657173
0.656296
0.654909
0.652753
0.64947
0.644591
0.637552
0.627743
0.614613
0.597821
0.577392
0.553794
0.527896
0.500794
0.473591
0.447203
0.422277
0.399176
0.37804
0.358848
0.341485
0.325786
0.311574
0.298673
0.286923
0.276184
0.266336
0.257278
0.24892
0.241151
0.233902
0.227119
0.220758
0.21478
0.209153
0.203849
0.198846
0.194123
0.189666
0.185461
0.181498
0.177768
0.174265
0.170986
0.167929
0.165096
0.162494
0.160131
0.158024
0.156205
0.154744
0.153604
0.152914
0.152794
0.153445
0.162713
0.173708
0.186671
0.201931
0.219921
0.241205
0.266515
0.296787
0.333212
0.377294
0.431035
0.496598
0.575587
0.668122
0.771193
0.877211
0.97488
1.05372
1.10928
1.14397
1.16365
1.17401
1.17917
1.18167
1.18284
1.18339
1.18363
1.18374
1.18379
1.18381
1.18382
1.18382
1.18382
1.18382
1.18382
1.18382
1.18382
1.18382
0.658526
0.6585
0.658455
0.658381
0.658257
0.658052
0.657714
0.657165
0.656284
0.654889
0.65272
0.649416
0.644507
0.637427
0.627562
0.614362
0.597494
0.576986
0.553317
0.527366
0.500235
0.473025
0.446651
0.421754
0.398692
0.3776
0.358453
0.341134
0.325478
0.311307
0.298444
0.28673
0.276024
0.266208
0.257179
0.24885
0.241107
0.233882
0.227122
0.220783
0.214827
0.20922
0.203935
0.198949
0.194244
0.189801
0.18561
0.181657
0.177936
0.17444
0.171165
0.168108
0.165272
0.16266
0.160282
0.158151
0.156288
0.154771
0.153545
0.152716
0.152369
0.152637
0.161567
0.172189
0.184739
0.199532
0.216983
0.237631
0.262177
0.291526
0.326829
0.369537
0.421589
0.485192
0.562116
0.652833
0.75494
0.861529