/*--------------------------------*- C++ -*----------------------------------*\
  =========                 |
  \\      /  F ield         | OpenFOAM: The Open Source CFD Toolbox
   \\    /   O peration     | Website:  https://openfoam.org
    \\  /    A nd           | Version:  8
     \\/     M anipulation  |
\*---------------------------------------------------------------------------*/
FoamFile
{
    version     2.0;
    format      ascii;
    class       volScalarField;
    location    "580/fluid";
    object      T;
}
// * * * * * * * * * * * * * * * * * * * * * * * * * * * * * * * * * * * * * //

dimensions      [0 0 0 1 0 0 0];

internalField   nonuniform List<scalar> 
4000
(
293.004
293.017
293.039
293.075
293.136
293.237
293.403
293.675
294.114
294.817
295.923
297.637
300.242
304.112
309.71
317.569
328.236
342.202
359.817
381.228
406.367
434.985
466.717
501.158
537.922
576.672
617.137
659.106
702.421
746.958
792.619
839.312
886.947
935.42
984.613
1034.44
1084.95
1136.04
1187.63
1239.6
1291.85
1344.28
1396.77
1449.21
1501.47
1553.42
1604.94
1655.88
1706.1
1755.43
1803.71
1850.73
1896.27
1940.08
1981.85
2021.19
2057.62
2090.11
2118.01
2141.39
2158.15
2166.46
2163.5
2053.85
1936.9
1814.9
1689.65
1562.66
1435.25
1308.61
1183.84
1062.05
944.394
831.783
725.448
627.407
539.997
465.53
405.845
361.609
331.715
313.385
303.114
297.808
295.22
294.002
293.443
293.193
293.083
293.035
293.015
293.006
293.003
293.001
293
293
293
293
293
293
293.004
293.017
293.039
293.075
293.137
293.238
293.406
293.68
294.123
294.83
295.94
297.656
300.255
304.103
309.652
317.421
327.945
341.709
359.067
380.183
405.009
433.322
464.778
498.985
535.564
574.178
614.553
656.475
699.779
744.339
790.05
836.82
884.554
933.149
982.483
1032.47
1083.14
1134.41
1186.18
1238.35
1290.81
1343.45
1396.16
1448.81
1501.28
1553.46
1605.19
1656.34
1706.75
1756.28
1804.74
1851.93
1897.64
1941.61
1983.51
2022.97
2059.51
2092.05
2119.97
2143.34
2159.96
2167.92
2155.44
2044.09
1925.82
1802.69
1676.44
1548.55
1420.32
1292.93
1167.52
1045.25
927.29
814.603
708.616
611.527
525.77
453.646
396.787
355.441
328.014
311.43
302.195
297.408
295.056
293.937
293.419
293.184
293.08
293.034
293.014
293.006
293.003
293.001
293
293
293
293
293
293
293.004
293.017
293.039
293.076
293.138
293.24
293.409
293.685
294.129
294.838
295.952
297.669
300.265
304.099
309.616
317.322
327.745
341.36
358.519
379.39
403.941
431.962
463.128
497.063
533.397
571.802
612.007
653.797
697.009
741.514
787.207
833.996
881.786
930.47
979.928
1030.06
1080.91
1132.38
1184.38
1236.8
1289.53
1342.45
1395.45
1448.42
1501.22
1553.71
1605.76
1657.22
1707.95
1757.79
1806.54
1854.02
1899.99
1944.2
1986.33
2025.99
2062.69
2095.36
2123.36
2146.8
2163.43
2171.39
2139.13
2026.55
1907.04
1782.74
1655.43
1526.63
1397.66
1269.75
1144.1
1021.92
904.431
792.631
688.161
593.32
510.481
441.73
388.314
350.015
324.893
309.801
301.412
297.05
294.898
293.87
293.391
293.173
293.075
293.032
293.014
293.006
293.002
293.001
293
293
293
293
293
293
293.004
293.017
293.039
293.076
293.138
293.241
293.41
293.685
294.13
294.837
295.946
297.653
300.231
304.033
309.498
317.127
327.441
340.914
357.897
378.566
402.897
430.692
461.636
495.362
531.505
569.742
609.803
651.476
694.598
739.043
784.707
831.499
879.324
928.078
977.641
1027.91
1078.92
1130.58
1182.81
1235.48
1288.48
1341.71
1395.05
1448.35
1501.48
1554.33
1606.74
1658.57
1709.66
1759.84
1808.93
1856.72
1902.99
1947.46
1989.82
2029.68
2066.53
2099.22
2127.15
2150.45
2166.9
2174.58
2118.09
2004.67
1884.19
1758.95
1630.79
1501.32
1371.91
1243.86
1118.41
996.819
880.292
769.888
667.409
575.167
495.43
430.066
379.989
344.604
321.699
308.075
300.547
296.64
294.711
293.786
293.355
293.157
293.069
293.03
293.013
293.005
293.002
293.001
293
293
293
293
293
293
293.004
293.017
293.039
293.076
293.138
293.24
293.409
293.684
294.127
294.832
295.936
297.633
300.194
303.969
309.391
316.956
327.181
340.536
357.376
377.878
402.029
429.639
460.403
493.958
529.948
568.049
607.995
649.576
692.629
737.028
782.672
829.471
877.333
926.154
975.816
1026.21
1077.37
1129.23
1181.66
1234.58
1287.87
1341.39
1395.03
1448.66
1502.14
1555.34
1608.12
1660.31
1711.75
1762.27
1811.69
1859.78
1906.32
1951.03
1993.57
2033.56
2070.47
2102.98
2130.79
2153.94
2170.01
2176.87
2095.79
1981.67
1860.37
1734.3
1605.44
1475.48
1345.86
1217.92
1092.93
972.202
856.865
748.077
647.779
558.242
481.614
419.537
372.604
339.881
318.945
306.597
299.806
296.287
294.548
293.713
293.323
293.143
293.063
293.027
293.012
293.005
293.002
293.001
293
293
293
293
293
293
293.004
293.017
293.039
293.076
293.137
293.24
293.408
293.681
294.122
294.823
295.919
297.605
300.147
303.893
309.272
316.778
326.923
340.178
356.898
377.268
401.278
428.747
459.374
492.804
528.681
566.685
606.551
648.069
691.078
735.453
781.096
827.915
875.822
924.715
974.476
1025
1076.31
1128.34
1180.99
1234.15
1287.68
1341.48
1395.41
1449.35
1503.16
1556.7
1609.81
1662.33
1714.1
1764.93
1814.63
1862.98
1909.73
1954.59
1997.23
2037.23
2074.05
2106.32
2134.01
2156.85
2172.5
2178.66
2075.26
1960.43
1838.07
1711
1581.36
1450.92
1321.15
1193.41
1069
949.219
835.13
728.002
629.856
542.913
469.195
410.136
366.038
335.684
316.485
305.262
299.127
295.959
294.394
293.643
293.291
293.13
293.057
293.025
293.011
293.004
293.002
293.001
293
293
293
293
293
293
293.004
293.017
293.039
293.076
293.137
293.238
293.406
293.678
294.116
294.813
295.902
297.577
300.102
303.822
309.164
316.618
326.695
339.866
356.489
376.751
400.649
428.007
458.531
491.867
527.663
565.6
605.414
646.895
689.884
734.256
779.912
826.766
874.728
923.7
973.563
1024.21
1075.67
1127.88
1180.72
1234.09
1287.85
1341.91
1396.12
1450.34
1504.45
1558.29
1611.7
1664.53
1716.58
1767.68
1817.62
1866.16
1913.05
1957.99
2000.6
2040.46
2077.02
2108.59
2136.34
2158.2
2172.76
2177.79
2065.49
1945.34
1819.68
1690.53
1559.63
1428.5
1298.52
1170.98
1047.16
928.312
815.436
709.909
613.798
529.269
458.228
401.908
360.348
332.079
314.387
304.129
298.55
295.679
294.263
293.583
293.265
293.118
293.052
293.022
293.01
293.004
293.002
293.001
293
293
293
293
293
293
293.004
293.017
293.039
293.075
293.136
293.237
293.404
293.674
294.11
294.802
295.885
297.55
300.059
303.756
309.065
316.474
326.494
339.595
356.138
376.314
400.125
427.4
457.847
491.117
526.858
564.752
604.536
646.001
688.987
733.371
779.057
825.956
873.981
923.035
973.002
1023.77
1075.38
1127.75
1180.76
1234.33
1288.31
1342.6
1397.06
1451.55
1505.92
1560.03
1613.71
1666.79
1719.09
1770.41
1820.54
1869.23
1916.22
1961.17
2003.7
2043.33
2079.33
2110.19
2136.77
2156.67
2167.96
2167.51
2052.04
1929.34
1801.77
1671.28
1539.54
1407.98
1277.95
1150.7
1027.49
909.545
797.817
693.791
599.572
517.258
448.64
394.767
355.443
328.988
312.593
303.158
298.055
295.438
294.149
293.531
293.241
293.108
293.047
293.021
293.009
293.004
293.002
293.001
293
293
293
293
293
293
293.004
293.017
293.038
293.075
293.135
293.236
293.402
293.671
294.104
294.793
295.87
297.525
300.02
303.697
308.977
316.349
326.321
339.365
355.844
375.953
399.697
426.909
457.3
490.523
526.228
564.098
603.869
645.333
688.33
732.739
778.462
825.414
873.507
922.648
972.719
1023.61
1075.34
1127.85
1181.04
1234.79
1288.97
1343.47
1398.15
1452.87
1507.48
1561.82
1615.73
1669.03
1721.54
1773.05
1823.34
1872.16
1919.22
1964.19
2006.66
2046.14
2081.69
2112.1
2138.03
2156.95
2166.85
2154.81
2037.36
1913.15
1784.47
1653.22
1521.03
1389.31
1259.4
1132.52
1009.94
892.843
782.178
679.549
587.061
506.757
440.315
388.615
351.252
326.366
311.078
302.341
297.638
295.235
294.053
293.486
293.221
293.099
293.043
293.019
293.008
293.003
293.001
293.001
293
293
293
293
293
293
293.004
293.017
293.038
293.074
293.135
293.235
293.4
293.668
294.099
294.784
295.856
297.503
299.986
303.645
308.902
316.242
326.175
339.174
355.601
375.657
399.35
426.515
456.867
490.06
525.744
563.603
603.374
644.847
687.865
732.305
778.072
825.079
873.244
922.469
972.634
1023.63
1075.49
1128.14
1181.48
1235.39
1289.76
1344.44
1399.31
1454.23
1509.04
1563.59
1617.69
1671.19
1723.87
1775.54
1825.97
1874.89
1922.03
1967.03
2009.5
2048.92
2084.35
2114.61
2140.44
2159.39
2169.65
2140.4
2022.19
1897.32
1768.13
1636.54
1504.19
1372.51
1242.82
1116.38
994.429
878.133
768.475
667.118
576.18
497.656
433.139
383.348
347.688
324.149
309.802
301.654
297.287
295.064
293.972
293.449
293.204
293.091
293.04
293.017
293.007
293.003
293.001
293.001
293
293
293
293
293
293
293.004
293.017
293.038
293.074
293.134
293.234
293.398
293.665
294.094
294.777
295.844
297.484
299.957
303.602
308.839
316.153
326.054
339.016
355.404
375.419
399.073
426.205
456.53
489.704
525.378
563.236
603.014
644.504
687.547
732.023
777.836
824.901
873.134
922.434
972.688
1023.78
1075.76
1128.54
1182.02
1236.08
1290.59
1345.44
1400.48
1455.57
1510.56
1565.27
1619.55
1673.2
1726.03
1777.83
1828.36
1877.38
1924.57
1969.61
2012.07
2051.47
2086.8
2116.97
2142.72
2161.64
2171.88
2126.66
2007.98
1882.74
1753.27
1621.53
1489.16
1357.6
1228.18
1102.17
980.829
865.274
756.521
656.313
566.764
489.826
426.998
378.867
344.675
322.286
308.735
301.08
296.995
294.921
293.904
293.417
293.189
293.085
293.037
293.016
293.007
293.003
293.001
293.001
293
293
293
293
293
293
293.004
293.017
293.038
293.074
293.134
293.233
293.397
293.663
294.091
294.77
295.834
297.468
299.933
303.565
308.786
316.079
325.955
338.888
355.245
375.229
398.855
425.963
456.271
489.435
525.106
562.969
602.76
644.27
687.342
731.855
777.713
824.833
873.127
922.5
972.837
1024.03
1076.1
1129
1182.59
1236.78
1291.44
1346.43
1401.61
1456.85
1511.97
1566.83
1621.24
1675.02
1727.97
1779.87
1830.49
1879.56
1926.8
1971.84
2014.29
2053.63
2088.85
2118.94
2144.62
2163.44
2173.6
2114.51
1995.38
1869.81
1740.14
1608.31
1475.97
1344.57
1215.44
1089.85
969.074
854.17
746.205
647.01
558.681
483.129
421.774
375.078
342.143
320.727
307.845
300.603
296.752
294.803
293.848
293.391
293.178
293.079
293.035
293.015
293.007
293.003
293.001
293
293
293
293
293
293
293
293.004
293.016
293.038
293.074
293.133
293.233
293.395
293.661
294.087
294.765
295.825
297.455
299.912
303.535
308.743
316.02
325.876
338.786
355.119
375.08
398.686
425.778
456.076
489.235
524.909
562.78
602.586
644.119
687.22
731.768
777.669
824.838
873.19
922.63
973.041
1024.31
1076.48
1129.47
1183.17
1237.47
1292.24
1347.35
1402.65
1458.01
1513.26
1568.23
1622.75
1676.63
1729.67
1781.64
1832.32
1881.43
1928.68
1973.72
2016.13
2055.41
2090.54
2120.53
2146.1
2164.81
2174.84
2104.15
1984.53
1858.65
1728.8
1596.92
1464.64
1333.41
1204.54
1079.32
959.015
844.673
737.401
639.084
551.811
477.457
417.368
371.898
340.028
319.432
307.108
300.209
296.551
294.705
293.801
293.37
293.168
293.075
293.033
293.014
293.006
293.003
293.001
293
293
293
293
293
293
293
293.004
293.016
293.038
293.074
293.133
293.232
293.394
293.659
294.084
294.76
295.818
297.444
299.896
303.511
308.708
315.972
325.813
338.705
355.02
374.965
398.556
425.638
455.93
489.089
524.768
562.65
602.472
644.027
687.155
731.737
777.676
824.89
873.294
922.792
973.268
1024.61
1076.85
1129.93
1183.72
1238.11
1292.97
1348.18
1403.58
1459.04
1514.38
1569.45
1624.05
1678.01
1731.11
1783.14
1833.85
1882.98
1930.23
1975.23
2017.6
2056.84
2091.85
2121.74
2147.2
2165.81
2175.68
2095.47
1975.38
1849.2
1719.2
1587.27
1455.04
1323.94
1195.3
1070.4
950.509
836.65
729.973
632.41
546.04
472.706
413.691
369.256
338.279
318.365
306.503
299.886
296.387
294.624
293.763
293.352
293.16
293.071
293.031
293.014
293.006
293.003
293.001
293
293
293
293
293
293
293
293.004
293.016
293.038
293.073
293.133
293.232
293.394
293.658
294.082
294.757
295.812
297.435
299.883
303.492
308.681
315.935
325.763
338.643
354.945
374.877
398.459
425.534
455.824
488.985
524.67
562.563
602.401
643.976
687.128
731.739
777.713
824.966
873.415
922.963
973.492
1024.89
1077.2
1130.34
1184.21
1238.67
1293.62
1348.9
1404.38
1459.92
1515.34
1570.47
1625.14
1679.15
1732.3
1784.36
1835.08
1884.21
1931.43
1976.42
2018.75
2057.92
2092.84
2122.64
2148.01
2166.53
2176.23
2088.33
1967.78
1841.32
1711.17
1579.2
1447.01
1316.03
1187.59
1062.97
943.429
829.977
723.804
626.875
541.262
468.783
410.665
367.089
336.851
317.496
306.012
299.624
296.254
294.56
293.732
293.338
293.153
293.068
293.03
293.013
293.006
293.002
293.001
293
293
293
293
293
293
293
293.004
293.016
293.038
293.073
293.133
293.231
293.393
293.656
294.08
294.754
295.808
297.429
299.873
303.477
308.66
315.906
325.726
338.595
354.888
374.811
398.386
425.458
455.747
488.912
524.604
562.507
602.359
643.951
687.124
731.76
777.762
825.049
873.534
923.122
973.695
1025.14
1077.5
1130.7
1184.62
1239.15
1294.15
1349.49
1405.04
1460.63
1516.1
1571.29
1626
1680.05
1733.22
1785.29
1836.01
1885.14
1932.35
1977.3
2019.58
2058.7
2093.56
2123.33
2148.74
2167.41
2177.41
2082.52
1961.56
1834.85
1704.58
1572.58
1440.43
1309.57
1181.3
1056.91
937.664
824.551
718.793
622.385
537.395
465.613
408.225
365.348
335.706
316.802
305.62
299.416
296.148
294.508
293.708
293.326
293.148
293.066
293.029
293.013
293.005
293.002
293.001
293
293
293
293
293
293
293
293.004
293.016
293.038
293.073
293.132
293.231
293.392
293.656
294.079
294.752
295.805
297.423
299.865
303.466
308.644
315.885
325.698
338.56
354.846
374.764
398.334
425.404
455.694
488.861
524.559
562.472
602.335
643.942
687.132
731.788
777.813
825.125
873.638
923.257
973.864
1025.35
1077.75
1130.99
1184.95
1239.52
1294.57
1349.96
1405.54
1461.17
1516.69
1571.9
1626.64
1680.7
1733.88
1785.96
1836.68
1885.78
1932.96
1977.87
2020.09
2059.15
2093.94
2123.66
2149.04
2167.71
2177.71
2077.96
1956.62
1829.69
1699.32
1567.3
1435.2
1304.43
1176.32
1052.12
933.12
820.281
714.858
618.866
534.37
463.14
406.327
363.996
334.818
316.264
305.316
299.254
296.066
294.468
293.689
293.317
293.144
293.064
293.028
293.012
293.005
293.002
293.001
293
293
293
293
293
293
293
293.004
293.016
293.038
293.073
293.132
293.231
293.392
293.655
294.078
294.75
295.802
297.42
299.859
303.458
308.633
315.869
325.678
338.536
354.816
374.73
398.298
425.367
455.658
488.828
524.531
562.451
602.323
643.94
687.144
731.814
777.856
825.186
873.72
923.36
973.99
1025.5
1077.92
1131.19
1185.18
1239.78
1294.86
1350.28
1405.89
1461.55
1517.08
1572.32
1627.07
1681.14
1734.32
1786.39
1837.09
1886.16
1933.3
1978.15
2020.31
2059.3
2094.02
2123.7
2149.06
2167.77
2177.87
2074.58
1952.89
1825.77
1695.31
1563.29
1431.24
1300.57
1172.58
1048.54
929.73
817.104
711.937
616.262
532.137
461.32
404.935
363.007
334.17
315.871
305.094
299.136
296.006
294.439
293.675
293.311
293.141
293.063
293.028
293.012
293.005
293.002
293.001
293
293
293
293
293
293
293
293.004
293.016
293.038
293.073
293.132
293.23
293.392
293.655
294.078
294.749
295.801
297.417
299.856
303.452
308.626
315.86
325.665
338.52
354.798
374.71
398.276
425.344
455.636
488.809
524.515
562.439
602.318
643.942
687.154
731.833
777.886
825.228
873.774
923.428
974.072
1025.59
1078.04
1131.32
1185.33
1239.94
1295.04
1350.47
1406.1
1461.77
1517.32
1572.56
1627.31
1681.38
1734.55
1786.6
1837.27
1886.31
1933.4
1978.2
2020.3
2059.23
2093.89
2123.53
2148.89
2167.68
2177.93
2072.34
1950.33
1823.05
1692.54
1560.52
1428.52
1297.92
1170.04
1046.13
927.454
814.981
709.995
614.536
530.663
460.124
404.024
362.364
333.75
315.617
304.95
299.059
295.967
294.419
293.666
293.307
293.139
293.062
293.027
293.012
293.005
293.002
293.001
293
293
293
293
293
293
293
293.004
293.016
293.038
293.073
293.132
293.23
293.392
293.654
294.077
294.749
295.8
297.416
299.854
303.45
308.622
315.855
325.659
338.513
354.789
374.7
398.266
425.334
455.626
488.8
524.508
562.434
602.315
643.943
687.159
731.843
777.901
825.249
873.801
923.461
974.111
1025.64
1078.09
1131.37
1185.39
1240.01
1295.12
1350.56
1406.19
1461.87
1517.41
1572.65
1627.4
1681.46
1734.62
1786.65
1837.3
1886.31
1933.36
1978.12
2020.18
2059.06
2093.68
2123.29
2148.66
2167.52
2177.96
2071.22
1948.97
1821.59
1691.05
1559.04
1427.09
1296.55
1168.74
1044.9
926.312
813.926
709.039
613.695
529.951
459.551
403.591
362.061
333.554
315.5
304.884
299.023
295.949
294.411
293.661
293.305
293.138
293.062
293.027
293.012
293.005
293.002
293.001
293
293
293
293
293
293
293
293.004
293.016
293.038
293.073
293.132
293.23
293.392
293.654
294.077
294.749
295.8
297.416
299.854
303.45
308.622
315.855
325.659
338.513
354.789
374.7
398.266
425.334
455.626
488.8
524.508
562.435
602.316
643.944
687.16
731.844
777.902
825.249
873.802
923.462
974.112
1025.64
1078.09
1131.38
1185.39
1240.02
1295.12
1350.56
1406.19
1461.87
1517.41
1572.65
1627.4
1681.46
1734.62
1786.65
1837.3
1886.31
1933.36
1978.12
2020.18
2059.06
2093.68
2123.29
2148.66
2167.52
2177.96
2071.22
1948.97
1821.59
1691.05
1559.04
1427.09
1296.55
1168.73
1044.9
926.311
813.926
709.039
613.694
529.95
459.551
403.591
362.06
333.554
315.499
304.884
299.023
295.949
294.411
293.661
293.305
293.138
293.062
293.027
293.012
293.005
293.002
293.001
293
293
293
293
293
293
293
293.004
293.016
293.038
293.073
293.132
293.23
293.392
293.655
294.078
294.749
295.801
297.417
299.856
303.453
308.626
315.86
325.666
338.521
354.799
374.71
398.277
425.345
455.637
488.81
524.517
562.441
602.319
643.944
687.156
731.835
777.888
825.23
873.776
923.43
974.074
1025.6
1078.04
1131.32
1185.33
1239.95
1295.04
1350.48
1406.11
1461.78
1517.32
1572.56
1627.32
1681.38
1734.55
1786.6
1837.27
1886.31
1933.4
1978.2
2020.3
2059.23
2093.89
2123.53
2148.89
2167.68
2177.93
2072.33
1950.32
1823.05
1692.53
1560.51
1428.51
1297.92
1170.03
1046.13
927.451
814.979
709.993
614.534
530.662
460.123
404.024
362.363
333.75
315.617
304.95
299.059
295.967
294.419
293.666
293.307
293.139
293.062
293.027
293.012
293.005
293.002
293.001
293
293
293
293
293
293
293
293.004
293.016
293.038
293.073
293.132
293.231
293.392
293.655
294.078
294.75
295.802
297.42
299.859
303.458
308.633
315.87
325.678
338.537
354.818
374.732
398.3
425.369
455.66
488.831
524.534
562.454
602.326
643.943
687.147
731.817
777.859
825.189
873.723
923.364
973.994
1025.5
1077.93
1131.19
1185.19
1239.79
1294.86
1350.28
1405.9
1461.55
1517.09
1572.32
1627.07
1681.14
1734.33
1786.39
1837.09
1886.16
1933.3
1978.15
2020.32
2059.31
2094.03
2123.7
2149.06
2167.77
2177.87
2074.57
1952.88
1825.76
1695.31
1563.28
1431.23
1300.56
1172.57
1048.54
929.726
817.1
711.934
616.259
532.134
461.318
404.933
363.006
334.169
315.871
305.094
299.136
296.006
294.438
293.675
293.311
293.141
293.063
293.028
293.012
293.005
293.002
293.001
293
293
293
293
293
293
293
293.004
293.016
293.038
293.073
293.133
293.231
293.393
293.656
294.079
294.752
295.805
297.424
299.865
303.466
308.645
315.885
325.699
338.562
354.847
374.766
398.337
425.407
455.697
488.865
524.563
562.476
602.339
643.946
687.137
731.792
777.818
825.13
873.643
923.262
973.869
1025.35
1077.75
1130.99
1184.95
1239.52
1294.57
1349.96
1405.55
1461.18
1516.69
1571.91
1626.65
1680.71
1733.89
1785.96
1836.69
1885.79
1932.97
1977.87
2020.1
2059.15
2093.94
2123.66
2149.04
2167.71
2177.71
2077.95
1956.61
1829.68
1699.31
1567.29
1435.19
1304.43
1176.31
1052.12
933.114
820.276
714.853
618.862
534.366
463.138
406.325
363.994
334.817
316.264
305.316
299.254
296.066
294.468
293.689
293.317
293.144
293.064
293.028
293.012
293.005
293.002
293.001
293
293
293
293
293
293
293
293.004
293.016
293.038
293.073
293.133
293.231
293.393
293.656
294.081
294.754
295.808
297.429
299.873
303.477
308.661
315.907
325.727
338.597
354.89
374.814
398.39
425.462
455.751
488.916
524.608
562.512
602.364
643.956
687.13
731.766
777.768
825.055
873.54
923.128
973.702
1025.15
1077.51
1130.71
1184.63
1239.15
1294.16
1349.5
1405.05
1460.64
1516.11
1571.3
1626.01
1680.06
1733.22
1785.29
1836.02
1885.14
1932.35
1977.3
2019.58
2058.7
2093.56
2123.34
2148.74
2167.41
2177.41
2082.51
1961.55
1834.84
1704.57
1572.57
1440.42
1309.55
1181.29
1056.9
937.656
824.543
718.787
622.38
537.39
465.61
408.223
365.346
335.705
316.802
305.62
299.415
296.148
294.508
293.708
293.326
293.148
293.066
293.029
293.013
293.005
293.002
293.001
293
293
293
293
293
293
293
293.004
293.016
293.038
293.073
293.133
293.232
293.394
293.658
294.082
294.757
295.812
297.436
299.883
303.492
308.682
315.936
325.765
338.645
354.947
374.88
398.462
425.538
455.828
488.99
524.676
562.569
602.407
643.982
687.135
731.746
777.72
824.974
873.423
922.97
973.501
1024.9
1077.21
1130.35
1184.22
1238.68
1293.62
1348.91
1404.39
1459.92
1515.34
1570.48
1625.15
1679.16
1732.31
1784.36
1835.09
1884.22
1931.44
1976.42
2018.75
2057.92
2092.84
2122.64
2148.01
2166.53
2176.23
2088.31
1967.77
1841.31
1711.16
1579.19
1447
1316.02
1187.58
1062.95
943.418
829.968
723.796
626.868
541.257
468.778
410.661
367.087
336.849
317.496
306.011
299.624
296.254
294.559
293.732
293.338
293.153
293.068
293.03
293.013
293.006
293.002
293.001
293
293
293
293
293
293
293
293.004
293.016
293.038
293.074
293.133
293.232
293.394
293.659
294.085
294.761
295.818
297.444
299.896
303.512
308.709
315.974
325.814
338.708
355.023
374.969
398.561
425.643
455.936
489.096
524.775
562.657
602.48
644.035
687.163
731.745
777.685
824.899
873.303
922.802
973.278
1024.62
1076.86
1129.94
1183.73
1238.12
1292.98
1348.19
1403.6
1459.05
1514.39
1569.46
1624.06
1678.02
1731.12
1783.15
1833.86
1882.99
1930.23
1975.24
2017.61
2056.84
2091.86
2121.75
2147.21
2165.82
2175.69
2095.45
1975.36
1849.18
1719.18
1587.25
1455.02
1323.92
1195.28
1070.38
950.496
836.638
729.964
632.401
546.033
472.7
413.687
369.253
338.278
318.364
306.502
299.886
296.387
294.624
293.763
293.352
293.16
293.071
293.031
293.014
293.006
293.003
293.001
293
293
293
293
293
293
293
293.004
293.016
293.038
293.074
293.133
293.233
293.395
293.661
294.087
294.765
295.825
297.455
299.913
303.536
308.744
316.021
325.878
338.788
355.122
375.085
398.691
425.784
456.082
489.243
524.917
562.789
602.595
644.128
687.229
731.778
777.68
824.848
873.201
922.641
973.053
1024.32
1076.49
1129.48
1183.19
1237.48
1292.25
1347.36
1402.67
1458.02
1513.27
1568.24
1622.76
1676.64
1729.68
1781.65
1832.33
1881.44
1928.69
1973.73
2016.13
2055.42
2090.55
2120.54
2146.11
2164.81
2174.84
2104.12
1984.51
1858.62
1728.78
1596.9
1464.62
1333.39
1204.52
1079.3
959
844.659
737.389
639.074
551.803
477.451
417.363
371.894
340.026
319.431
307.108
300.209
296.551
294.705
293.801
293.37
293.168
293.075
293.033
293.014
293.006
293.003
293.001
293
293
293
293
293
293
293
293.004
293.017
293.038
293.074
293.134
293.233
293.397
293.663
294.091
294.77
295.834
297.469
299.933
303.566
308.787
316.081
325.958
338.891
355.249
375.234
398.861
425.97
456.279
489.443
525.115
562.979
602.77
644.281
687.353
731.866
777.725
824.845
873.139
922.513
972.85
1024.04
1076.12
1129.01
1182.61
1236.8
1291.45
1346.44
1401.62
1456.86
1511.99
1566.85
1621.26
1675.04
1727.98
1779.88
1830.5
1879.57
1926.81
1971.85
2014.3
2053.64
2088.86
2118.95
2144.63
2163.45
2173.6
2114.48
1995.34
1869.78
1740.11
1608.28
1475.94
1344.54
1215.42
1089.83
969.056
854.154
746.191
646.998
558.67
483.121
421.768
375.073
342.14
320.725
307.844
300.603
296.751
294.802
293.848
293.391
293.178
293.079
293.035
293.015
293.007
293.003
293.001
293
293
293
293
293
293
293
293.004
293.017
293.038
293.074
293.134
293.234
293.398
293.665
294.095
294.777
295.844
297.485
299.958
303.603
308.84
316.155
326.057
339.019
355.408
375.424
399.08
426.212
456.539
489.713
525.388
563.247
603.025
644.516
687.56
732.036
777.849
824.915
873.148
922.449
972.703
1023.8
1075.77
1128.55
1182.03
1236.09
1290.61
1345.46
1400.5
1455.59
1510.57
1565.29
1619.56
1673.21
1726.04
1777.84
1828.38
1877.39
1924.58
1969.62
2012.09
2051.48
2086.81
2116.98
2142.73
2161.65
2171.89
2126.63
2007.95
1882.7
1753.24
1621.5
1489.13
1357.58
1228.16
1102.15
980.808
865.255
756.504
656.299
566.751
489.816
426.991
378.861
344.672
322.283
308.734
301.08
296.994
294.921
293.904
293.417
293.189
293.085
293.037
293.016
293.007
293.003
293.001
293.001
293
293
293
293
293
293
293.004
293.017
293.038
293.074
293.135
293.235
293.4
293.668
294.099
294.784
295.856
297.504
299.987
303.646
308.904
316.244
326.178
339.177
355.606
375.663
399.357
426.524
456.877
490.07
525.755
563.615
603.386
644.861
687.879
732.319
778.086
825.095
873.26
922.485
972.65
1023.64
1075.5
1128.16
1181.5
1235.41
1289.77
1344.46
1399.33
1454.25
1509.06
1563.6
1617.71
1671.21
1723.89
1775.56
1825.98
1874.91
1922.04
1967.05
2009.51
2048.94
2084.36
2114.62
2140.45
2159.4
2169.66
2140.36
2022.15
1897.29
1768.1
1636.51
1504.16
1372.48
1242.79
1116.35
994.404
878.111
768.455
667.101
576.165
497.645
433.131
383.342
347.684
324.146
309.801
301.653
297.287
295.064
293.972
293.449
293.204
293.091
293.04
293.017
293.007
293.003
293.001
293.001
293
293
293
293
293
293
293.004
293.017
293.038
293.075
293.136
293.236
293.402
293.671
294.104
294.793
295.87
297.526
300.021
303.698
308.979
316.351
326.324
339.37
355.85
375.96
399.705
426.918
457.31
490.535
526.24
564.111
603.883
645.348
688.346
732.755
778.479
825.431
873.525
922.666
972.737
1023.63
1075.36
1127.87
1181.06
1234.81
1288.99
1343.49
1398.17
1452.89
1507.5
1561.84
1615.75
1669.05
1721.56
1773.07
1823.36
1872.18
1919.24
1964.21
2006.68
2046.15
2081.71
2112.11
2138.04
2156.96
2166.86
2154.78
2037.32
1913.11
1784.43
1653.19
1520.99
1389.28
1259.36
1132.49
1009.91
892.817
782.155
679.529
587.043
506.743
440.305
388.607
351.246
326.362
311.076
302.34
297.637
295.235
294.053
293.486
293.221
293.099
293.043
293.019
293.008
293.003
293.001
293.001
293
293
293
293
293
293
293.004
293.017
293.039
293.075
293.136
293.237
293.404
293.674
294.11
294.803
295.886
297.551
300.06
303.757
309.066
316.476
326.497
339.6
356.144
376.322
400.134
427.41
457.859
491.129
526.871
564.766
604.551
646.017
689.004
733.389
779.075
825.975
874.001
923.056
973.023
1023.79
1075.4
1127.77
1180.79
1234.35
1288.34
1342.62
1397.08
1451.57
1505.94
1560.05
1613.73
1666.81
1719.11
1770.43
1820.56
1869.25
1916.24
1961.19
2003.72
2043.34
2079.35
2110.2
2136.78
2156.67
2167.95
2167.48
2052.01
1929.31
1801.73
1671.24
1539.5
1407.94
1277.92
1150.67
1027.46
909.515
797.79
693.768
599.552
517.242
448.627
394.757
355.437
328.984
312.591
303.157
298.054
295.438
294.149
293.531
293.241
293.108
293.047
293.021
293.009
293.004
293.002
293.001
293
293
293
293
293
293
293.004
293.017
293.039
293.076
293.137
293.238
293.406
293.678
294.116
294.813
295.903
297.578
300.103
303.824
309.166
316.621
326.699
339.871
356.495
376.759
400.658
428.018
458.543
491.881
527.678
565.616
605.431
646.913
689.902
734.275
779.933
826.787
874.75
923.722
973.586
1024.23
1075.69
1127.9
1180.75
1234.11
1287.88
1341.93
1396.14
1450.37
1504.48
1558.32
1611.73
1664.55
1716.6
1767.7
1817.64
1866.18
1913.07
1958
2000.62
2040.47
2077.03
2108.6
2136.34
2158.2
2172.75
2177.77
2065.46
1945.31
1819.64
1690.49
1559.58
1428.46
1298.48
1170.94
1047.12
928.279
815.406
709.882
613.775
529.25
458.213
401.897
360.34
332.074
314.385
304.127
298.549
295.679
294.263
293.583
293.264
293.118
293.052
293.022
293.01
293.004
293.002
293.001
293
293
293
293
293
293
293.004
293.017
293.039
293.076
293.137
293.24
293.408
293.681
294.122
294.823
295.919
297.606
300.148
303.895
309.275
316.781
326.927
340.183
356.905
377.277
401.288
428.759
459.388
492.819
528.697
566.702
606.569
648.089
691.098
735.475
781.118
827.938
875.845
924.739
974.501
1025.02
1076.33
1128.37
1181.02
1234.18
1287.71
1341.5
1395.44
1449.38
1503.19
1556.73
1609.83
1662.36
1714.13
1764.96
1814.66
1863
1909.75
1954.62
1997.25
2037.25
2074.06
2106.34
2134.02
2156.85
2172.5
2178.66
2075.24
1960.4
1838.03
1710.95
1581.31
1450.87
1321.1
1193.36
1068.95
949.18
835.095
727.97
629.828
542.889
469.177
410.122
366.029
335.678
316.482
305.26
299.126
295.958
294.394
293.643
293.291
293.13
293.057
293.025
293.011
293.004
293.002
293.001
293
293
293
293
293
293
293.004
293.017
293.039
293.076
293.138
293.24
293.409
293.684
294.127
294.832
295.936
297.634
300.195
303.971
309.393
316.96
327.186
340.542
357.383
377.888
402.04
429.652
460.417
493.974
529.965
568.068
608.015
649.597
692.651
737.051
782.697
829.496
877.359
926.181
975.844
1026.24
1077.4
1129.26
1181.69
1234.61
1287.9
1341.43
1395.06
1448.69
1502.18
1555.38
1608.15
1660.34
1711.78
1762.3
1811.71
1859.81
1906.35
1951.05
1993.6
2033.59
2070.49
2103
2130.81
2153.95
2170.02
2176.87
2095.72
1981.61
1860.3
1734.23
1605.38
1475.42
1345.81
1217.87
1092.88
972.157
856.824
748.04
647.746
558.215
481.591
419.52
372.592
339.874
318.941
306.595
299.805
296.287
294.548
293.713
293.323
293.143
293.063
293.027
293.012
293.005
293.002
293.001
293
293
293
293
293
293
293.004
293.017
293.039
293.076
293.138
293.241
293.41
293.685
294.13
294.838
295.947
297.654
300.232
304.035
309.5
317.131
327.446
340.92
357.906
378.576
402.909
430.706
461.652
495.379
531.524
569.762
609.824
651.499
694.622
739.068
784.734
831.526
879.352
928.108
977.671
1027.94
1078.95
1130.62
1182.84
1235.51
1288.52
1341.75
1395.08
1448.38
1501.52
1554.36
1606.77
1658.6
1709.69
1759.87
1808.96
1856.75
1903.02
1947.49
1989.85
2029.7
2066.55
2099.24
2127.17
2150.46
2166.91
2174.58
2118.01
2004.59
1884.12
1758.88
1630.73
1501.25
1371.85
1243.8
1118.36
996.767
880.244
769.845
667.37
575.134
495.403
430.046
379.975
344.595
321.693
308.072
300.545
296.639
294.71
293.786
293.355
293.157
293.069
293.03
293.013
293.005
293.002
293.001
293
293
293
293
293
293
293.004
293.017
293.039
293.076
293.138
293.24
293.409
293.685
294.13
294.839
295.952
297.67
300.266
304.102
309.619
317.326
327.75
341.367
358.528
379.402
403.954
431.978
463.145
497.082
533.417
571.824
612.03
653.822
697.035
741.541
787.236
834.026
881.817
930.502
979.961
1030.1
1080.94
1132.42
1184.42
1236.83
1289.56
1342.49
1395.49
1448.46
1501.25
1553.74
1605.79
1657.26
1707.99
1757.82
1806.57
1854.05
1900.02
1944.23
1986.36
2026.01
2062.72
2095.38
2123.38
2146.82
2163.44
2171.4
2139.04
2026.46
1906.96
1782.66
1655.36
1526.56
1397.59
1269.69
1144.04
1021.86
904.377
792.582
688.117
593.281
510.449
441.706
388.297
350.003
324.886
309.798
301.41
297.049
294.898
293.869
293.391
293.173
293.075
293.032
293.014
293.006
293.002
293.001
293
293
293
293
293
293
293.004
293.017
293.039
293.075
293.137
293.239
293.406
293.68
294.123
294.83
295.941
297.657
300.257
304.105
309.655
317.425
327.951
341.717
359.077
380.194
405.023
433.338
464.796
499.005
535.585
574.201
614.578
656.502
699.807
744.368
790.08
836.851
884.587