/*--------------------------------*- C++ -*----------------------------------*\
  =========                 |
  \\      /  F ield         | OpenFOAM: The Open Source CFD Toolbox
   \\    /   O peration     | Website:  https://openfoam.org
    \\  /    A nd           | Version:  8
     \\/     M anipulation  |
\*---------------------------------------------------------------------------*/
FoamFile
{
    version     2.0;
    format      ascii;
    class       volVectorField;
    location    "580/fluid";
    object      U;
}
// * * * * * * * * * * * * * * * * * * * * * * * * * * * * * * * * * * * * * //

dimensions      [0 1 -1 0 0 0 0];

internalField   nonuniform List<vector> 
4000
(
(0.0999465 -0.00702257 0)
(0.0996557 -0.0208969 0)
(0.0991864 -0.0346564 0)
(0.0985381 -0.0483392 0)
(0.0977031 -0.0619634 0)
(0.096664 -0.0755311 0)
(0.0954008 -0.0890321 0)
(0.0938945 -0.102447 0)
(0.09213 -0.11575 0)
(0.0900989 -0.128912 0)
(0.0878029 -0.141907 0)
(0.0852574 -0.154717 0)
(0.0824955 -0.16733 0)
(0.0795738 -0.179737 0)
(0.0765696 -0.191973 0)
(0.073557 -0.204108 0)
(0.0705883 -0.216202 0)
(0.0676836 -0.228296 0)
(0.064822 -0.240403 0)
(0.0619426 -0.252495 0)
(0.0589555 -0.264511 0)
(0.0557604 -0.276362 0)
(0.0522668 -0.287942 0)
(0.0484138 -0.299128 0)
(0.0441734 -0.30982 0)
(0.0395363 -0.319957 0)
(0.0345063 -0.329479 0)
(0.0290987 -0.338331 0)
(0.0233375 -0.346469 0)
(0.0172521 -0.353861 0)
(0.0108746 -0.360485 0)
(0.00423815 -0.36633 0)
(-0.00262214 -0.371396 0)
(-0.0096707 -0.37569 0)
(-0.0168753 -0.379226 0)
(-0.024207 -0.382025 0)
(-0.0316393 -0.38411 0)
(-0.0391473 -0.385514 0)
(-0.046707 -0.386269 0)
(-0.0542959 -0.386413 0)
(-0.0618924 -0.385984 0)
(-0.0694761 -0.385025 0)
(-0.0770273 -0.383577 0)
(-0.084527 -0.381684 0)
(-0.0919567 -0.37939 0)
(-0.099298 -0.37674 0)
(-0.106533 -0.373781 0)
(-0.113642 -0.370558 0)
(-0.120609 -0.367119 0)
(-0.127412 -0.363513 0)
(-0.134033 -0.359788 0)
(-0.140451 -0.355997 0)
(-0.146644 -0.352195 0)
(-0.152587 -0.348441 0)
(-0.158256 -0.344797 0)
(-0.16362 -0.341335 0)
(-0.168638 -0.338135 0)
(-0.173256 -0.335282 0)
(-0.177441 -0.332871 0)
(-0.181217 -0.331048 0)
(-0.184674 -0.33007 0)
(-0.187338 -0.330312 0)
(-0.187186 -0.331731 0)
(-0.182732 -0.332648 0)
(-0.175886 -0.331831 0)
(-0.168555 -0.32937 0)
(-0.160989 -0.325571 0)
(-0.153121 -0.320593 0)
(-0.144965 -0.314504 0)
(-0.136592 -0.307345 0)
(-0.128081 -0.299155 0)
(-0.119518 -0.28997 0)
(-0.11099 -0.279837 0)
(-0.102592 -0.268807 0)
(-0.0944705 -0.256943 0)
(-0.0868659 -0.244357 0)
(-0.0801074 -0.23125 0)
(-0.0745673 -0.217901 0)
(-0.0706249 -0.20486 0)
(-0.0685811 -0.192648 0)
(-0.0684788 -0.181512 0)
(-0.070025 -0.171366 0)
(-0.0727058 -0.161894 0)
(-0.0759799 -0.152759 0)
(-0.079415 -0.143712 0)
(-0.0827264 -0.134607 0)
(-0.0857405 -0.125345 0)
(-0.0883881 -0.115968 0)
(-0.0906668 -0.106525 0)
(-0.0926012 -0.0970503 0)
(-0.0942255 -0.0875747 0)
(-0.0955752 -0.0781255 0)
(-0.0966848 -0.0687241 0)
(-0.0975862 -0.0593846 0)
(-0.0983083 -0.050114 0)
(-0.0988767 -0.0409122 0)
(-0.0993132 -0.0317722 0)
(-0.0996353 -0.0226804 0)
(-0.0998548 -0.0136154 0)
(-0.099982 -0.00454882 0)
(0.0999998 -0.00659256 0)
(0.0997972 -0.0197186 0)
(0.0993786 -0.0327584 0)
(0.0987203 -0.0456947 0)
(0.097824 -0.0585098 0)
(0.0966855 -0.0711813 0)
(0.0952956 -0.083682 0)
(0.0936465 -0.0959811 0)
(0.0917362 -0.108047 0)
(0.0895717 -0.119851 0)
(0.0871723 -0.131373 0)
(0.0845717 -0.142611 0)
(0.0818195 -0.153591 0)
(0.0789813 -0.164392 0)
(0.0761299 -0.175082 0)
(0.0733322 -0.185716 0)
(0.0706353 -0.196365 0)
(0.0680533 -0.207096 0)
(0.0655578 -0.217946 0)
(0.0630788 -0.228915 0)
(0.060515 -0.239957 0)
(0.0577525 -0.250992 0)
(0.0546854 -0.261928 0)
(0.0512308 -0.272679 0)
(0.047338 -0.283139 0)
(0.0429868 -0.293178 0)
(0.0381777 -0.302694 0)
(0.0329281 -0.311611 0)
(0.0272672 -0.319872 0)
(0.0212309 -0.327439 0)
(0.0148581 -0.334287 0)
(0.00818842 -0.340404 0)
(0.00126061 -0.345785 0)
(-0.00588755 -0.350438 0)
(-0.01322 -0.354376 0)
(-0.0207037 -0.357618 0)
(-0.0283083 -0.360189 0)
(-0.0360064 -0.362116 0)
(-0.0437724 -0.36343 0)
(-0.0515819 -0.364166 0)
(-0.0594126 -0.36436 0)
(-0.0672429 -0.364048 0)
(-0.0750527 -0.363272 0)
(-0.082823 -0.362071 0)
(-0.0905351 -0.360487 0)
(-0.0981707 -0.358561 0)
(-0.105712 -0.356337 0)
(-0.113141 -0.353857 0)
(-0.120441 -0.351168 0)
(-0.127595 -0.348313 0)
(-0.134583 -0.345338 0)
(-0.141389 -0.342292 0)
(-0.147994 -0.339223 0)
(-0.154379 -0.336182 0)
(-0.160524 -0.33322 0)
(-0.166408 -0.330393 0)
(-0.171994 -0.327755 0)
(-0.17724 -0.325359 0)
(-0.182134 -0.323257 0)
(-0.186761 -0.321503 0)
(-0.19125 -0.320153 0)
(-0.194851 -0.319204 0)
(-0.194968 -0.318189 0)
(-0.190084 -0.316464 0)
(-0.182672 -0.313836 0)
(-0.174915 -0.310196 0)
(-0.167029 -0.305501 0)
(-0.158875 -0.299733 0)
(-0.150427 -0.29288 0)
(-0.141732 -0.28494 0)
(-0.132852 -0.275917 0)
(-0.123852 -0.265831 0)
(-0.114794 -0.254726 0)
(-0.10575 -0.242685 0)
(-0.0968695 -0.229863 0)
(-0.0884292 -0.216543 0)
(-0.0808249 -0.203178 0)
(-0.0745231 -0.190401 0)
(-0.0699861 -0.178653 0)
(-0.0675124 -0.168199 0)
(-0.0670805 -0.159046 0)
(-0.0683342 -0.150916 0)
(-0.0707403 -0.143394 0)
(-0.0737776 -0.136111 0)
(-0.077045 -0.128826 0)
(-0.0802812 -0.121431 0)
(-0.0833432 -0.113917 0)
(-0.0861457 -0.1062 0)
(-0.088653 -0.0982541 0)
(-0.0908593 -0.0901079 0)
(-0.0927728 -0.0818016 0)
(-0.0944097 -0.073374 0)
(-0.0957907 -0.0648587 0)
(-0.0969381 -0.0562835 0)
(-0.097874 -0.0476698 0)
(-0.0986197 -0.0390327 0)
(-0.0991928 -0.0303812 0)
(-0.0996054 -0.0217191 0)
(-0.0998656 -0.0130448 0)
(-0.0999951 -0.00435378 0)
(0.0999791 -0.00631798 0)
(0.0997191 -0.0188852 0)
(0.0992097 -0.0313639 0)
(0.0984324 -0.043734 0)
(0.0973912 -0.0559742 0)
(0.096087 -0.0680613 0)
(0.0945191 -0.0799708 0)
(0.0926907 -0.0916785 0)
(0.0906115 -0.103162 0)
(0.0883014 -0.114402 0)
(0.085792 -0.12539 0)
(0.0831285 -0.136125 0)
(0.0803691 -0.146622 0)
(0.0775784 -0.156914 0)
(0.0748219 -0.167054 0)
(0.0721609 -0.177111 0)
(0.0696409 -0.187165 0)
(0.067276 -0.197284 0)
(0.0650379 -0.207513 0)
(0.0628559 -0.217856 0)
(0.060627 -0.22828 0)
(0.0582343 -0.238714 0)
(0.0555655 -0.249065 0)
(0.0525251 -0.259233 0)
(0.0490423 -0.269117 0)
(0.0450775 -0.278628 0)
(0.040621 -0.287686 0)
(0.0356843 -0.296224 0)
(0.0302935 -0.304187 0)
(0.0244832 -0.311534 0)
(0.0182922 -0.318236 0)
(0.0117605 -0.324275 0)
(0.00492784 -0.329643 0)
(-0.00216668 -0.334341 0)
(-0.00948579 -0.338376 0)
(-0.016995 -0.341764 0)
(-0.0246628 -0.344524 0)
(-0.0324603 -0.34668 0)
(-0.0403609 -0.348259 0)
(-0.0483396 -0.349291 0)
(-0.0563732 -0.349809 0)
(-0.0644399 -0.349847 0)
(-0.0725195 -0.349441 0)
(-0.0805925 -0.348628 0)
(-0.0886402 -0.347446 0)
(-0.0966448 -0.345933 0)
(-0.10459 -0.344129 0)
(-0.112459 -0.342074 0)
(-0.120236 -0.339808 0)
(-0.127907 -0.337371 0)
(-0.135457 -0.334805 0)
(-0.142873 -0.33215 0)
(-0.150139 -0.329448 0)
(-0.157244 -0.32674 0)
(-0.164175 -0.324064 0)
(-0.170915 -0.321461 0)
(-0.177434 -0.318962 0)
(-0.183691 -0.316597 0)
(-0.189694 -0.314384 0)
(-0.195545 -0.312344 0)
(-0.201264 -0.310487 0)
(-0.205522 -0.308751 0)
(-0.205317 -0.306501 0)
(-0.199735 -0.303389 0)
(-0.191775 -0.299563 0)
(-0.183429 -0.294955 0)
(-0.174888 -0.289468 0)
(-0.16604 -0.283042 0)
(-0.15687 -0.275652 0)
(-0.14742 -0.267296 0)
(-0.137745 -0.258 0)
(-0.127903 -0.247815 0)
(-0.117953 -0.236833 0)
(-0.107984 -0.225191 0)
(-0.0981862 -0.213096 0)
(-0.0889041 -0.200839 0)
(-0.0806038 -0.18879 0)
(-0.0738179 -0.177357 0)
(-0.0690163 -0.166911 0)
(-0.0664259 -0.157655 0)
(-0.0659233 -0.149531 0)
(-0.0670874 -0.142246 0)
(-0.0693731 -0.135422 0)
(-0.0722784 -0.128737 0)
(-0.0754258 -0.121982 0)
(-0.0785738 -0.115053 0)
(-0.0815917 -0.107918 0)
(-0.0844135 -0.100587 0)
(-0.0870018 -0.0930781 0)
(-0.0893383 -0.085413 0)
(-0.0914183 -0.077612 0)
(-0.0932449 -0.0696961 0)
(-0.0948267 -0.0616855 0)
(-0.0961744 -0.0535985 0)
(-0.0973008 -0.0454508 0)
(-0.0982185 -0.0372557 0)
(-0.0989387 -0.0290233 0)
(-0.0994681 -0.0207611 0)
(-0.0998108 -0.0124738 0)
(-0.0999871 -0.00416414 0)
(0.0999838 -0.00596922 0)
(0.0997188 -0.0178428 0)
(0.0991913 -0.0296235 0)
(0.0983819 -0.0412849 0)
(0.0972993 -0.0528007 0)
(0.0959501 -0.0641445 0)
(0.0943397 -0.07529 0)
(0.0924766 -0.0862123 0)
(0.0903751 -0.0968896 0)
(0.0880581 -0.107306 0)
(0.0855579 -0.117453 0)
(0.0829185 -0.127337 0)
(0.0801957 -0.136979 0)
(0.0774552 -0.146422 0)
(0.0747671 -0.155726 0)
(0.0721962 -0.164968 0)
(0.0697882 -0.174227 0)
(0.0675558 -0.183576 0)
(0.065469 -0.193062 0)
(0.0634549 -0.202696 0)
(0.0614078 -0.212451 0)
(0.059207 -0.222263 0)
(0.0567362 -0.232048 0)
(0.0538985 -0.241708 0)
(0.0506241 -0.251148 0)
(0.0468722 -0.260276 0)
(0.0426275 -0.269011 0)
(0.0378954 -0.277285 0)
(0.0326955 -0.285045 0)
(0.0270568 -0.292249 0)
(0.0210134 -0.298866 0)
(0.0146017 -0.304878 0)
(0.00785873 -0.310273 0)
(0.000821013 -0.315052 0)
(-0.00647569 -0.319218 0)
(-0.0139977 -0.322783 0)
(-0.0217143 -0.325763 0)
(-0.0295972 -0.328179 0)
(-0.0376203 -0.330055 0)
(-0.0457591 -0.331416 0)
(-0.0539911 -0.332292 0)
(-0.062295 -0.332712 0)
(-0.0706506 -0.332709 0)
(-0.0790387 -0.332314 0)
(-0.0874415 -0.331562 0)
(-0.0958425 -0.330486 0)
(-0.104226 -0.329122 0)
(-0.112576 -0.327504 0)
(-0.12088 -0.325666 0)
(-0.129122 -0.323644 0)
(-0.137291 -0.32147 0)
(-0.145374 -0.319177 0)
(-0.153357 -0.316798 0)
(-0.161229 -0.314361 0)
(-0.168977 -0.311893 0)
(-0.176582 -0.309416 0)
(-0.184004 -0.306947 0)
(-0.191192 -0.304492 0)
(-0.198163 -0.302051 0)
(-0.205029 -0.299629 0)
(-0.21165 -0.297223 0)
(-0.216005 -0.294766 0)
(-0.214979 -0.291511 0)
(-0.208581 -0.287355 0)
(-0.200142 -0.282562 0)
(-0.191246 -0.277105 0)
(-0.182015 -0.270892 0)
(-0.172386 -0.263867 0)
(-0.162384 -0.256008 0)
(-0.152073 -0.24732 0)
(-0.141525 -0.237839 0)
(-0.130818 -0.227631 0)
(-0.120035 -0.216798 0)
(-0.109306 -0.205488 0)
(-0.0988842 -0.193914 0)
(-0.0891681 -0.182363 0)
(-0.0806478 -0.171189 0)
(-0.0738274 -0.160766 0)
(-0.0691006 -0.151405 0)
(-0.0666042 -0.143234 0)
(-0.0661462 -0.136134 0)
(-0.0672804 -0.129797 0)
(-0.0694765 -0.123862 0)
(-0.072264 -0.118034 0)
(-0.0752946 -0.112127 0)
(-0.0783425 -0.106042 0)
(-0.0812779 -0.0997416 0)
(-0.0840333 -0.0932174 0)
(-0.0865767 -0.0864796 0)
(-0.0888943 -0.0795472 0)
(-0.0909816 -0.0724423 0)
(-0.0928392 -0.0651874 0)
(-0.0944704 -0.0578038 0)
(-0.0958803 -0.0503113 0)
(-0.0970748 -0.0427276 0)
(-0.0980601 -0.0350687 0)
(-0.0988414 -0.0273483 0)
(-0.0994198 -0.0195783 0)
(-0.099795 -0.0117692 0)
(-0.0999873 -0.00392977 0)
(0.0999808 -0.00561891 0)
(0.0997006 -0.0167944 0)
(0.0991472 -0.0278799 0)
(0.0983029 -0.0388487 0)
(0.0971784 -0.0496746 0)
(0.0957832 -0.0603319 0)
(0.0941256 -0.0707957 0)
(0.0922173 -0.0810437 0)
(0.0900764 -0.0910567 0)
(0.0877288 -0.100821 0)
(0.0852102 -0.110332 0)
(0.0825677 -0.119595 0)
(0.0798595 -0.12863 0)
(0.0771532 -0.137476 0)
(0.0745195 -0.146187 0)
(0.0720229 -0.154833 0)
(0.0697086 -0.163489 0)
(0.0675882 -0.172223 0)
(0.0656315 -0.18108 0)
(0.0637647 -0.190076 0)
(0.061881 -0.19919 0)
(0.0598574 -0.208368 0)
(0.0575741 -0.217536 0)
(0.0549299 -0.226607 0)
(0.0518504 -0.235494 0)
(0.0482902 -0.244113 0)
(0.0442298 -0.25239 0)
(0.0396704 -0.260262 0)
(0.0346281 -0.267678 0)
(0.0291286 -0.274596 0)
(0.0232031 -0.280987 0)
(0.0168856 -0.286831 0)
(0.0102106 -0.292115 0)
(0.00321237 -0.296836 0)
(-0.00407475 -0.300996 0)
(-0.0116186 -0.304603 0)
(-0.0193901 -0.307672 0)
(-0.0273622 -0.310218 0)
(-0.0355099 -0.312261 0)
(-0.04381 -0.313824 0)
(-0.0522406 -0.314932 0)
(-0.0607809 -0.31561 0)
(-0.0694113 -0.315886 0)
(-0.078114 -0.315788 0)
(-0.0868721 -0.315345 0)
(-0.0956694 -0.314587 0)
(-0.104491 -0.313543 0)
(-0.113321 -0.312241 0)
(-0.122146 -0.310712 0)
(-0.130952 -0.308982 0)
(-0.139725 -0.30708 0)
(-0.148451 -0.305028 0)
(-0.157116 -0.302852 0)
(-0.165703 -0.300572 0)
(-0.174195 -0.298203 0)
(-0.182563 -0.295757 0)
(-0.190751 -0.29324 0)
(-0.198699 -0.290647 0)
(-0.206434 -0.287969 0)
(-0.214076 -0.285206 0)
(-0.221292 -0.282349 0)
(-0.225349 -0.279339 0)
(-0.223255 -0.275378 0)
(-0.216065 -0.270584 0)
(-0.207215 -0.265218 0)
(-0.197827 -0.259261 0)
(-0.187953 -0.252642 0)
(-0.177591 -0.245324 0)
(-0.166813 -0.237303 0)
(-0.155713 -0.2286 0)
(-0.144386 -0.219265 0)
(-0.132931 -0.209376 0)
(-0.121453 -0.199043 0)
(-0.110121 -0.188419 0)
(-0.0992315 -0.177709 0)
(-0.0892122 -0.16718 0)
(-0.080557 -0.157138 0)
(-0.0737428 -0.147884 0)
(-0.069105 -0.139638 0)
(-0.0667069 -0.132444 0)
(-0.0662975 -0.126144 0)
(-0.0674097 -0.120443 0)
(-0.0695265 -0.115034 0)
(-0.0722059 -0.109676 0)
(-0.0751272 -0.104223 0)
(-0.078084 -0.0985978 0)
(-0.0809554 -0.0927719 0)
(-0.0836747 -0.0867414 0)
(-0.0862064 -0.0805148 0)
(-0.0885324 -0.0741068 0)
(-0.0906439 -0.0675343 0)
(-0.0925375 -0.0608146 0)
(-0.0942128 -0.0539653 0)
(-0.0956712 -0.0470031 0)
(-0.096915 -0.0399438 0)
(-0.0979475 -0.0328022 0)
(-0.0987705 -0.0255924 0)
(-0.0993825 -0.0183274 0)
(-0.0997811 -0.0110193 0)
(-0.0999861 -0.00367959 0)
(0.0999814 -0.00525338 0)
(0.0996982 -0.0157024 0)
(0.099138 -0.0260654 0)
(0.098283 -0.0363151 0)
(0.0971458 -0.0464251 0)
(0.0957378 -0.0563698 0)
(0.0940693 -0.0661254 0)
(0.0921539 -0.0756703 0)
(0.0900112 -0.0849868 0)
(0.0876686 -0.0940625 0)
(0.0851627 -0.102893 0)
(0.0825407 -0.111486 0)
(0.0798609 -0.119863 0)
(0.0771903 -0.128059 0)
(0.0745993 -0.136131 0)
(0.0721525 -0.144145 0)
(0.069895 -0.152175 0)
(0.0678395 -0.160287 0)
(0.0659567 -0.168527 0)
(0.0641742 -0.17691 0)
(0.062386 -0.18542 0)
(0.0604691 -0.194007 0)
(0.0583026 -0.202602 0)
(0.0557828 -0.211127 0)
(0.0528326 -0.219499 0)
(0.049403 -0.22764 0)
(0.0454707 -0.235481 0)
(0.0410331 -0.242962 0)
(0.0361027 -0.250034 0)
(0.0307017 -0.256658 0)
(0.0248585 -0.262805 0)
(0.018604 -0.268455 0)
(0.0119705 -0.273595 0)
(0.00499015 -0.27822 0)
(-0.0023051 -0.28233 0)
(-0.00988479 -0.285932 0)
(-0.0177211 -0.289037 0)
(-0.0257886 -0.291657 0)
(-0.0340636 -0.29381 0)
(-0.0425237 -0.295514 0)
(-0.0511475 -0.296791 0)
(-0.0599155 -0.297663 0)
(-0.0688092 -0.298153 0)
(-0.0778114 -0.298285 0)
(-0.0869053 -0.298083 0)
(-0.0960747 -0.297574 0)
(-0.105304 -0.296779 0)
(-0.114578 -0.295725 0)
(-0.123882 -0.294435 0)
(-0.133199 -0.29293 0)
(-0.142515 -0.291232 0)
(-0.151811 -0.28936 0)
(-0.161068 -0.28733 0)
(-0.170265 -0.285157 0)
(-0.179375 -0.282851 0)
(-0.188357 -0.280417 0)
(-0.197139 -0.277853 0)
(-0.205652 -0.27515 0)
(-0.213931 -0.272295 0)
(-0.222093 -0.269279 0)
(-0.229613 -0.266071 0)
(-0.233133 -0.262639 0)
(-0.229959 -0.25829 0)
(-0.222105 -0.253207 0)
(-0.212876 -0.247549 0)
(-0.20301 -0.241322 0)
(-0.192535 -0.234499 0)
(-0.181511 -0.227073 0)
(-0.170053 -0.219059 0)
(-0.158277 -0.210491 0)
(-0.146302 -0.201425 0)
(-0.134244 -0.191941 0)
(-0.122231 -0.182148 0)
(-0.110465 -0.172189 0)
(-0.0992805 -0.162255 0)
(-0.0891241 -0.152584 0)
(-0.0804858 -0.143445 0)
(-0.0738106 -0.135094 0)
(-0.0693735 -0.127702 0)
(-0.0671659 -0.121279 0)
(-0.0668825 -0.115657 0)
(-0.0680371 -0.110557 0)
(-0.070124 -0.1057 0)
(-0.0727256 -0.100872 0)
(-0.075546 -0.095945 0)
(-0.0783973 -0.0908497 0)
(-0.0811703 -0.0855596 0)
(-0.083805 -0.0800702 0)
(-0.086269 -0.0743885 0)
(-0.0885444 -0.068527 0)
(-0.0906216 -0.0625008 0)
(-0.0924952 -0.0563257 0)
(-0.0941624 -0.050018 0)
(-0.0956216 -0.0435934 0)
(-0.0968724 -0.0370673 0)
(-0.0979153 -0.0304546 0)
(-0.0987497 -0.0237698 0)
(-0.0993718 -0.0170267 0)
(-0.0997774 -0.0102388 0)
(-0.0999861 -0.00341908 0)
(0.0999809 -0.00488634 0)
(0.099695 -0.0146056 0)
(0.0991299 -0.0242444 0)
(0.0982685 -0.0337766 0)
(0.097124 -0.043177 0)
(0.0957088 -0.0524214 0)
(0.0940341 -0.0614876 0)
(0.0921148 -0.0703555 0)
(0.0899715 -0.079009 0)
(0.0876327 -0.0874373 0)
(0.0851356 -0.0956371 0)
(0.0825284 -0.103615 0)
(0.0798696 -0.111391 0)
(0.0772267 -0.119001 0)
(0.0746702 -0.126494 0)
(0.0722646 -0.133933 0)
(0.0700551 -0.141387 0)
(0.0680548 -0.148916 0)
(0.0662346 -0.156566 0)
(0.0645227 -0.164353 0)
(0.062813 -0.172263 0)
(0.0609819 -0.180253 0)
(0.0589073 -0.188263 0)
(0.0564836 -0.196219 0)
(0.0536312 -0.204047 0)
(0.0502984 -0.211676 0)
(0.0464592 -0.219041 0)
(0.042108 -0.226087 0)
(0.0372547 -0.232767 0)
(0.0319189 -0.239045 0)
(0.0261266 -0.244892 0)
(0.0199067 -0.250289 0)
(0.0132892 -0.255223 0)
(0.0063046 -0.259687 0)
(-0.00101708 -0.26368 0)
(-0.00864699 -0.267207 0)
(-0.0165587 -0.270276 0)
(-0.0247277 -0.272898 0)
(-0.0331313 -0.275087 0)
(-0.0417479 -0.276858 0)
(-0.0505575 -0.278229 0)
(-0.0595413 -0.279219 0)
(-0.0686812 -0.279848 0)
(-0.0779599 -0.280135 0)
(-0.0873606 -0.280101 0)
(-0.0968669 -0.279767 0)
(-0.106462 -0.279152 0)
(-0.116131 -0.278277 0)
(-0.125855 -0.27716 0)
(-0.135617 -0.27582 0)
(-0.145398 -0.274272 0)
(-0.155177 -0.272531 0)
(-0.16493 -0.270611 0)
(-0.174627 -0.268521 0)
(-0.184233 -0.266268 0)
(-0.193697 -0.263854 0)
(-0.202928 -0.261277 0)
(-0.21185 -0.258525 0)
(-0.220492 -0.255588 0)
(-0.228927 -0.25244 0)
(-0.236501 -0.249032 0)
(-0.239568 -0.245331 0)
(-0.235569 -0.240815 0)
(-0.227009 -0.235646 0)
(-0.217216 -0.229897 0)
(-0.206825 -0.223599 0)
(-0.195821 -0.216767 0)
(-0.18426 -0.209421 0)
(-0.172266 -0.201589 0)
(-0.159971 -0.193312 0)
(-0.147508 -0.184652 0)
(-0.135006 -0.175688 0)
(-0.122611 -0.166522 0)
(-0.110555 -0.157289 0)
(-0.0992007 -0.148165 0)
(-0.0890043 -0.139364 0)
(-0.0804458 -0.131119 0)
(-0.0739363 -0.123643 0)
(-0.0696958 -0.117057 0)
(-0.0676563 -0.111334 0)
(-0.067474 -0.106295 0)
(-0.0686551 -0.101683 0)
(-0.0707092 -0.0972555 0)
(-0.0732421 -0.0928338 0)
(-0.0759781 -0.0883105 0)
(-0.0787438 -0.083631 0)
(-0.0814379 -0.0787732 0)
(-0.0840042 -0.0737335 0)
(-0.0864113 -0.0685177 0)
(-0.0886413 -0.063136 0)
(-0.0906837 -0.057601 0)
(-0.0925318 -0.0519261 0)
(-0.0941814 -0.0461252 0)
(-0.0956294 -0.0402124 0)
(-0.096874 -0.0342017 0)
(-0.0979141 -0.0281067 0)
(-0.0987479 -0.0219412 0)
(-0.0993705 -0.0157188 0)
(-0.0997768 -0.00945284 0)
(-0.099986 -0.00315661 0)
(0.099981 -0.00451721 0)
(0.0996952 -0.0135027 0)
(0.09913 -0.0224138 0)
(0.0982687 -0.0312257 0)
(0.0971248 -0.0399145 0)
(0.0957111 -0.0484577 0)
(0.0940397 -0.0568341 0)
(0.0921258 -0.0650255 0)
(0.0899907 -0.0730168 0)
(0.0876631 -0.0807983 0)
(0.0851807 -0.0883671 0)
(0.0825914 -0.0957302 0)
(0.0799539 -0.102906 0)
(0.0773352 -0.109928 0)
(0.0748057 -0.116843 0)
(0.0724299 -0.12371 0)
(0.0702533 -0.130592 0)
(0.0682897 -0.137547 0)
(0.0665107 -0.144619 0)
(0.0648454 -0.151823 0)
(0.0631882 -0.159148 0)
(0.0614153 -0.166555 0)
(0.0594037 -0.17399 0)
(0.0570466 -0.181386 0)
(0.0542621 -0.188674 0)
(0.0509963 -0.195789 0)
(0.0472208 -0.202671 0)
(0.0429276 -0.209268 0)
(0.0381242 -0.215538 0)
(0.0328283 -0.221446 0)
(0.0270636 -0.226965 0)
(0.0208573 -0.232076 0)
(0.0142376 -0.236766 0)
(0.00723344 -0.241028 0)
(-0.000126706 -0.24486 0)
(-0.00781526 -0.248265 0)
(-0.0158066 -0.251249 0)
(-0.0240773 -0.25382 0)
(-0.0326056 -0.255991 0)
(-0.0413708 -0.257774 0)
(-0.0503536 -0.259184 0)
(-0.0595352 -0.260236 0)
(-0.0688978 -0.260947 0)
(-0.0784238 -0.261334 0)
(-0.0880961 -0.261413 0)
(-0.0978975 -0.261202 0)
(-0.107811 -0.260717 0)
(-0.117817 -0.259973 0)
(-0.127899 -0.258986 0)
(-0.138035 -0.257771 0)
(-0.148204 -0.25634 0)
(-0.158381 -0.254704 0)
(-0.168535 -0.252873 0)
(-0.178635 -0.250854 0)
(-0.188636 -0.248653 0)
(-0.198475 -0.24627 0)
(-0.20805 -0.243703 0)
(-0.217277 -0.240942 0)
(-0.226158 -0.237984 0)
(-0.234713 -0.234813 0)
(-0.242124 -0.23139 0)
(-0.244661 -0.227593 0)
(-0.239919 -0.222993 0)
(-0.230747 -0.21781 0)
(-0.220444 -0.212112 0)
(-0.209589 -0.205924 0)
(-0.198136 -0.199267 0)
(-0.186137 -0.192169 0)
(-0.173719 -0.184664 0)
(-0.161022 -0.176799 0)
(-0.14819 -0.168635 0)
(-0.135359 -0.160248 0)
(-0.122694 -0.151735 0)
(-0.110451 -0.143219 0)
(-0.0990144 -0.134862 0)
(-0.0888471 -0.126854 0)
(-0.0804173 -0.119402 0)
(-0.0741041 -0.112682 0)
(-0.0700778 -0.106785 0)
(-0.0682192 -0.101661 0)
(-0.0681513 -0.0971359 0)
(-0.0693745 -0.0929724 0)
(-0.0714117 -0.0889559 0)
(-0.0738888 -0.0849325 0)
(-0.0765488 -0.0808102 0)
(-0.0792314 -0.0765424 0)
(-0.0818441 -0.0721104 0)
(-0.0843351 -0.067511 0)
(-0.0866753 -0.0627492 0)
(-0.0888475 -0.0578338 0)
(-0.0908412 -0.0527758 0)
(-0.0926493 -0.0475871 0)
(-0.0942666 -0.04228 0)
(-0.0956891 -0.0368674 0)
(-0.0969142 -0.0313621 0)
(-0.0979396 -0.0257768 0)
(-0.0987626 -0.0201246 0)
(-0.0993778 -0.0144184 0)
(-0.0997795 -0.00867105 0)
(-0.0999862 -0.00289549 0)
(0.099981 -0.00414896 0)
(0.0996957 -0.0124024 0)
(0.0991318 -0.0205877 0)
(0.0982724 -0.0286819 0)
(0.0971313 -0.0366629 0)
(0.0957217 -0.0445098 0)
(0.0940557 -0.0522033 0)
(0.0921489 -0.0597265 0)
(0.0900228 -0.0670659 0)
(0.0877063 -0.0742125 0)
(0.0852372 -0.0811639 0)
(0.0826634 -0.0879266 0)
(0.0800436 -0.0945181 0)
(0.0774446 -0.100968 0)
(0.0749369 -0.107321 0)
(0.0725848 -0.11363 0)
(0.0704342 -0.119954 0)
(0.0684992 -0.126348 0)
(0.0667521 -0.13285 0)
(0.0651224 -0.139478 0)
(0.0635047 -0.14622 0)
(0.0617751 -0.153045 0)
(0.0598096 -0.159901 0)
(0.0575002 -0.166729 0)
(0.0547635 -0.173466 0)
(0.0515437 -0.180052 0)
(0.0478104 -0.186433 0)
(0.043554 -0.19256 0)
(0.03878 -0.198395 0)
(0.0335045 -0.203905 0)
(0.0277497 -0.209064 0)
(0.0215411 -0.213854 0)
(0.0149058 -0.218264 0)
(0.00787124 -0.222284 0)
(0.000464918 -0.225913 0)
(-0.00728645 -0.229152 0)
(-0.0153582 -0.232006 0)
(-0.0237277 -0.234481 0)
(-0.0323739 -0.236587 0)
(-0.0412768 -0.238334 0)
(-0.0504169 -0.239735 0)
(-0.0597758 -0.240803 0)
(-0.0693352 -0.24155 0)
(-0.0790774 -0.241992 0)
(-0.0889844 -0.242141 0)
(-0.0990382 -0.242012 0)
(-0.10922 -0.241618 0)
(-0.11951 -0.240972 0)
(-0.129887 -0.240087 0)
(-0.140329 -0.238973 0)
(-0.15081 -0.23764 0)
(-0.161301 -0.236098 0)
(-0.17177 -0.234353 0)
(-0.182177 -0.232411 0)
(-0.192473 -0.230277 0)
(-0.202585 -0.227949 0)
(-0.212405 -0.225426 0)
(-0.221852 -0.222705 0)
(-0.230941 -0.219789 0)
(-0.23965 -0.216692 0)
(-0.246824 -0.213405 0)
(-0.248675 -0.209615 0)
(-0.24316 -0.205027 0)
(-0.233513 -0.199928 0)
(-0.222822 -0.194396 0)
(-0.21159 -0.188443 0)
(-0.199767 -0.182086 0)
(-0.187412 -0.175351 0)
(-0.174658 -0.168277 0)
(-0.161651 -0.160911 0)
(-0.148538 -0.15331 0)
(-0.135466 -0.145547 0)
(-0.122611 -0.137712 0)
(-0.110253 -0.12992 0)
(-0.0987925 -0.122316 0)
(-0.0886931 -0.115073 0)
(-0.0804107 -0.10837 0)
(-0.0742938 -0.102354 0)
(-0.0704687 -0.0970888 0)
(-0.0687729 -0.0925101 0)
(-0.0688049 -0.0884466 0)
(-0.0700635 -0.084685 0)
(-0.0720853 -0.0810375 0)
(-0.0745144 -0.077373 0)
(-0.0771092 -0.0736144 0)
(-0.0797204 -0.0697228 0)
(-0.0822621 -0.065683 0)
(-0.0846861 -0.0614925 0)
(-0.0869651 -0.0571555 0)
(-0.0890826 -0.0526798 0)
(-0.0910283 -0.0480747 0)
(-0.0927949 -0.0433506 0)
(-0.0943768 -0.0385185 0)
(-0.0957698 -0.0335896 0)
(-0.0969706 -0.0285754 0)
(-0.0979765 -0.0234875 0)
(-0.0987845 -0.0183379 0)
(-0.0993887 -0.0131385 0)
(-0.0997833 -0.00790128 0)
(-0.0999865 -0.00263837 0)
(0.0999811 -0.00378184 0)
(0.099697 -0.0113053 0)
(0.0991352 -0.018767 0)
(0.0982792 -0.0261459 0)
(0.0971427 -0.0334217 0)
(0.0957388 -0.0405753 0)
(0.0940799 -0.0475891 0)
(0.0921817 -0.0544477 0)
(0.0900657 -0.0611388 0)
(0.0877607 -0.0676544 0)
(0.0853046 -0.0739923 0)
(0.0827451 -0.0801585 0)
(0.0801406 -0.0861691 0)
(0.0775579 -0.0920517 0)
(0.0750672 -0.097846 0)
(0.072733 -0.103602 0)
(0.0706014 -0.109372 0)
(0.0686867 -0.115208 0)
(0.0669622 -0.121145 0)
(0.0653574 -0.1272 0)
(0.0637674 -0.133364 0)
(0.0620679 -0.139607 0)
(0.0601345 -0.145884 0)
(0.0578578 -0.152142 0)
(0.0551533 -0.158322 0)
(0.0519635 -0.164371 0)
(0.0482568 -0.170239 0)
(0.0440217 -0.175882 0)
(0.0392626 -0.181264 0)
(0.0339941 -0.186354 0)
(0.028237 -0.19113 0)
(0.022016 -0.195574 0)
(0.0153569 -0.199674 0)
(0.00828618 -0.203422 0)
(0.000830694 -0.206815 0)
(-0.00698371 -0.209855 0)
(-0.0151331 -0.212543 0)
(-0.0235955 -0.214885 0)
(-0.0323502 -0.21689 0)
(-0.0413772 -0.218565 0)
(-0.0506572 -0.21992 0)
(-0.0601716 -0.220967 0)
(-0.0699019 -0.221716 0)
(-0.0798298 -0.222179 0)
(-0.0899365 -0.222368 0)
(-0.100203 -0.222293 0)
(-0.110609 -0.221966 0)
(-0.121133 -0.221398 0)
(-0.131752 -0.220597 0)
(-0.142441 -0.219574 0)
(-0.153171 -0.218337 0)
(-0.163912 -0.216893 0)
(-0.174626 -0.215247 0)
(-0.18527 -0.213404 0)
(-0.195792 -0.211368 0)
(-0.206111 -0.209141 0)
(-0.216117 -0.20672 0)
(-0.225744 -0.204105 0)
(-0.235038 -0.201308 0)
(-0.243915 -0.198348 0)
(-0.250713 -0.195235 0)
(-0.251655 -0.191499 0)
(-0.245372 -0.187023 0)
(-0.235415 -0.18211 0)
(-0.224481 -0.176837 0)
(-0.212977 -0.171206 0)
(-0.200872 -0.165231 0)
(-0.188242 -0.158937 0)
(-0.175228 -0.152359 0)
(-0.161982 -0.145544 0)
(-0.148659 -0.138545 0)
(-0.13541 -0.131429 0)
(-0.122424 -0.124279 0)
(-0.110001 -0.117199 0)
(-0.0985511 -0.110322 0)
(-0.088541 -0.103801 0)
(-0.0804132 -0.0977935 0)
(-0.074488 -0.0924228 0)
(-0.0708526 -0.0877307 0)
(-0.0693082 -0.0836465 0)
(-0.0694332 -0.0800077 0)
(-0.0707268 -0.0766227 0)
(-0.0727379 -0.0733275 0)
(-0.0751264 -0.0700099 0)
(-0.077664 -0.0666044 0)
(-0.0802112 -0.0630784 0)
(-0.0826879 -0.0594194 0)
(-0.0850493 -0.0556254 0)
(-0.0872698 -0.0517002 0)
(-0.089334 -0.0476505 0)
(-0.0912317 -0.0434845 0)
(-0.0929557 -0.0392114 0)
(-0.0945005 -0.0348407 0)
(-0.0958617 -0.0303826 0)
(-0.0970357 -0.0258472 0)
(-0.0980196 -0.0212452 0)
(-0.0988103 -0.0165872 0)
(-0.0994017 -0.011884 0)
(-0.0997879 -0.00714671 0)
(-0.0999868 -0.00238633 0)
(0.0999812 -0.00341636 0)
(0.0996983 -0.010213 0)
(0.0991389 -0.0169543 0)
(0.0982865 -0.0236209 0)
(0.0971547 -0.0301948 0)
(0.0957569 -0.0366586 0)
(0.0941051 -0.0429965 0)
(0.0922152 -0.0491946 0)
(0.0901085 -0.0552417 0)
(0.0878139 -0.0611307 0)
(0.0853691 -0.0668597 0)
(0.0828216 -0.0724342 0)
(0.0802298 -0.0778687 0)
(0.0776601 -0.0831881 0)
(0.0751829 -0.0884286 0)
(0.0728624 -0.0936348 0)
(0.070745 -0.0988558 0)
(0.0688456 -0.104137 0)
(0.0671376 -0.109512 0)
(0.065551 -0.114995 0)
(0.0639808 -0.120579 0)
(0.0623027 -0.12624 0)
(0.0603915 -0.131934 0)
(0.0581371 -0.137616 0)
(0.0554536 -0.143232 0)
(0.0522826 -0.148734 0)
(0.048591 -0.154076 0)
(0.0443665 -0.15922 0)
(0.039612 -0.164132 0)
(0.0343413 -0.168785 0)
(0.0285742 -0.173156 0)
(0.0223343 -0.17723 0)
(0.0156469 -0.180996 0)
(0.0085378 -0.184446 0)
(0.001033 -0.187576 0)
(-0.00684221 -0.190387 0)
(-0.0150643 -0.192881 0)
(-0.0236117 -0.195062 0)
(-0.0324637 -0.196935 0)
(-0.0416005 -0.198509 0)
(-0.0510028 -0.19979 0)
(-0.0606516 -0.200788 0)
(-0.0705281 -0.201513 0)
(-0.0806133 -0.201973 0)
(-0.0908877 -0.202178 0)
(-0.101331 -0.202137 0)
(-0.111922 -0.201861 0)
(-0.122638 -0.201356 0)
(-0.133453 -0.200632 0)
(-0.144341 -0.199696 0)
(-0.155272 -0.198555 0)
(-0.16621 -0.197214 0)
(-0.177116 -0.19568 0)
(-0.187946 -0.193956 0)
(-0.198643 -0.192044 0)
(-0.20912 -0.189948 0)
(-0.219268 -0.187665 0)
(-0.229036 -0.185198 0)
(-0.238488 -0.182555 0)
(-0.247462 -0.179753 0)
(-0.253783 -0.17682 0)
(-0.253813 -0.173232 0)
(-0.246887 -0.168991 0)
(-0.236722 -0.164372 0)
(-0.225627 -0.159446 0)
(-0.213923 -0.154212 0)
(-0.201602 -0.148684 0)
(-0.18876 -0.142886 0)
(-0.175546 -0.136853 0)
(-0.16212 -0.130625 0)
(-0.148639 -0.124255 0)
(-0.13526 -0.117801 0)
(-0.122185 -0.111339 0)
(-0.109728 -0.104964 0)
(-0.0983119 -0.0987943 0)
(-0.0884001 -0.092967 0)
(-0.0804233 -0.0876188 0)
(-0.0746765 -0.0828525 0)
(-0.0712125 -0.078694 0)
(-0.069802 -0.0750691 0)
(-0.0700084 -0.0718269 0)
(-0.0713322 -0.068797 0)
(-0.0733343 -0.0658374 0)
(-0.075688 -0.0628522 0)
(-0.0781766 -0.0597865 0)
(-0.0806683 -0.0566132 0)
(-0.0830882 -0.0533218 0)
(-0.0853942 -0.0499109 0)
(-0.0875622 -0.046384 0)
(-0.0895776 -0.0427468 0)
(-0.0914308 -0.0390066 0)
(-0.0931148 -0.0351713 0)
(-0.0946241 -0.0312494 0)
(-0.0959542 -0.0272496 0)
(-0.0971017 -0.0231811 0)
(-0.0980636 -0.0190532 0)
(-0.0988367 -0.0148753 0)
(-0.0994149 -0.0106572 0)
(-0.0997926 -0.00640876 0)
(-0.0999871 -0.00213985 0)
(0.0999813 -0.00305248 0)
(0.0996996 -0.00912548 0)
(0.0991426 -0.0151492 0)
(0.0982937 -0.0211066 0)
(0.0971665 -0.0269814 0)
(0.0957743 -0.0327583 0)
(0.0941292 -0.038423 0)
(0.0922469 -0.0439632 0)
(0.0901486 -0.0493689 0)
(0.0878632 -0.0546338 0)
(0.0854281 -0.0597563 0)
(0.0828907 -0.0647413 0)
(0.0803092 -0.0696016 0)
(0.0777499 -0.0743599 0)
(0.075283 -0.0790481 0)
(0.0729728 -0.0837066 0)
(0.0708659 -0.0883791 0)
(0.0689774 -0.0931066 0)
(0.0672811 -0.0979192 0)
(0.0657072 -0.102831 0)
(0.0641509 -0.107835 0)
(0.0624874 -0.11291 0)
(0.0605911 -0.118019 0)
(0.0583511 -0.123119 0)
(0.0556807 -0.128164 0)
(0.0525205 -0.133111 0)
(0.0488363 -0.137918 0)
(0.0446148 -0.14255 0)
(0.0398584 -0.146978 0)
(0.0345796 -0.151177 0)
(0.0287979 -0.155127 0)
(0.0225362 -0.158813 0)
(0.015819 -0.162225 0)
(0.00867168 -0.165356 0)
(0.00111971 -0.168202 0)
(-0.00681197 -0.170762 0)
(-0.0151001 -0.173039 0)
(-0.0237232 -0.175034 0)
(-0.0326609 -0.176754 0)
(-0.0418931 -0.178203 0)
(-0.0514005 -0.179388 0)
(-0.0611637 -0.180317 0)
(-0.0711636 -0.180997 0)
(-0.0813806 -0.181436 0)
(-0.0917943 -0.181642 0)
(-0.102384 -0.181622 0)
(-0.113126 -0.181385 0)
(-0.123997 -0.180937 0)
(-0.134971 -0.180284 0)
(-0.146018 -0.179434 0)
(-0.157106 -0.178393 0)
(-0.168199 -0.177164 0)
(-0.179256 -0.175752 0)
(-0.190228 -0.174162 0)
(-0.201057 -0.172395 0)
(-0.211652 -0.170453 0)
(-0.221902 -0.168336 0)
(-0.23177 -0.166044 0)
(-0.241336 -0.163587 0)
(-0.250357 -0.160975 0)
(-0.2562 -0.158266 0)
(-0.255406 -0.154913 0)
(-0.247941 -0.150995 0)
(-0.237618 -0.146746 0)
(-0.226404 -0.142229 0)
(-0.214547 -0.137446 0)
(-0.20206 -0.132412 0)
(-0.189055 -0.127151 0)
(-0.175691 -0.121694 0)
(-0.162129 -0.11608 0)
(-0.148531 -0.110354 0)
(-0.135058 -0.10457 0)
(-0.121922 -0.0987941 0)
(-0.109454 -0.0931128 0)
(-0.0980827 -0.0876319 0)
(-0.0882704 -0.0824717 0)
(-0.0804359 -0.0777507 0)
(-0.0748514 -0.0735538 0)
(-0.0715402 -0.0698955 0)
(-0.0702477 -0.0667018 0)
(-0.0705252 -0.0638357 0)
(-0.0718758 -0.0611469 0)
(-0.0738706 -0.0585132 0)
(-0.0761948 -0.0558533 0)
(-0.0786413 -0.0531208 0)
(-0.081085 -0.0502932 0)
(-0.0834553 -0.047362 0)
(-0.0857124 -0.0443261 0)
(-0.0878336 -0.0411886 0)
(-0.0898052 -0.0379546 0)
(-0.0916179 -0.0346303 0)
(-0.093265 -0.0312226 0)
(-0.0947413 -0.027739 0)
(-0.0960424 -0.0241869 0)
(-0.0971649 -0.0205745 0)