/*--------------------------------*- C++ -*----------------------------------*\
  =========                 |
  \\      /  F ield         | OpenFOAM: The Open Source CFD Toolbox
   \\    /   O peration     | Website:  https://openfoam.org
    \\  /    A nd           | Version:  8
     \\/     M anipulation  |
\*---------------------------------------------------------------------------*/
FoamFile
{
    version     2.0;
    format      ascii;
    class       volScalarField;
    location    "280/fluid";
    object      CH4;
}
// * * * * * * * * * * * * * * * * * * * * * * * * * * * * * * * * * * * * * //

dimensions      [0 0 0 0 0 0 0];

internalField   nonuniform List<scalar> 
4000
(
0.999997
0.999988
0.999972
0.999946
0.999903
0.999831
0.999713
0.999521
0.999211
0.998718
0.997943
0.996744
0.994921
0.992211
0.988276
0.982719
0.975109
0.965026
0.952121
0.936162
0.917074
0.894931
0.869941
0.842407
0.812694
0.781198
0.748316
0.714437
0.679932
0.645137
0.610358
0.575863
0.541884
0.508617
0.476223
0.444832
0.414543
0.385434
0.357556
0.330941
0.305604
0.281544
0.258749
0.237198
0.216859
0.197698
0.179673
0.162743
0.14686
0.131978
0.11805
0.10503
0.0928712
0.0815308
0.0709664
0.0611387
0.0520115
0.0435525
0.0357338
0.0286774
0.0222203
0.0162097
0.0108106
0.00604477
0.00302248
0.0021149
0.00145776
0.000988133
0.000657382
0.000428304
0.000272681
0.000169341
0.000102621
6.11477e-05
3.69059e-05
2.45585e-05
1.85035e-05
1.38405e-05
9.84742e-06
6.58071e-06
4.09167e-06
2.35622e-06
1.26005e-06
6.31335e-07
3.01668e-07
1.39592e-07
6.30085e-08
2.78865e-08
1.2148e-08
5.22411e-09
2.22285e-09
9.37553e-10
3.92521e-10
1.63243e-10
6.74113e-11
2.75592e-11
1.10501e-11
4.22893e-12
1.4135e-12
2.47785e-13
0.999997
0.999988
0.999972
0.999945
0.999901
0.999827
0.999706
0.999509
0.999192
0.998686
0.997892
0.996667
0.99481
0.992057
0.988075
0.982472
0.974824
0.964721
0.951818
0.935888
0.91685
0.894771
0.869848
0.842374
0.812705
0.781231
0.748352
0.714457
0.679915
0.645067
0.610221
0.575652
0.541595
0.508249
0.475779
0.444315
0.413959
0.384789
0.356858
0.330197
0.304822
0.280732
0.257914
0.236345
0.215995
0.196828
0.178803
0.161876
0.146
0.131129
0.117214
0.10421
0.0920691
0.0807483
0.0702049
0.0603993
0.0512947
0.0428576
0.0350583
0.0280179
0.0215831
0.0155972
0.0102076
0.0054304
0.00296674
0.00206318
0.00141361
0.00095252
0.000629905
0.000407895
0.000258053
0.000159239
9.59482e-05
5.70278e-05
3.47378e-05
2.38989e-05
1.79671e-05
1.32129e-05
9.22362e-06
6.04173e-06
3.68425e-06
2.0879e-06
1.10573e-06
5.52736e-07
2.65114e-07
1.2353e-07
5.6234e-08
2.51092e-08
1.103e-08
4.77855e-09
2.046e-09
8.67352e-10
3.64597e-10
1.52112e-10
6.29745e-11
2.57999e-11
1.0364e-11
3.97263e-12
1.32881e-12
2.33123e-13
0.999997
0.999987
0.999971
0.999944
0.999898
0.999823
0.999699
0.999497
0.999171
0.998653
0.997841
0.99659
0.9947
0.991905
0.987872
0.982212
0.974507
0.964351
0.951408
0.935454
0.91641
0.894341
0.869439
0.841991
0.812346
0.780886
0.748004
0.714088
0.679506
0.644603
0.60969
0.575041
0.540897
0.50746
0.474898
0.443343
0.4129
0.38365
0.355647
0.328923
0.303493
0.279358
0.256503
0.234908
0.21454
0.195363
0.177335
0.160412
0.144547
0.129691
0.115798
0.102818
0.0907073
0.0794196
0.0689134
0.059149
0.0500906
0.0417063
0.0339696
0.0270433
0.0205407
0.0146122
0.00926545
0.00454478
0.00283979
0.00195135
0.00132385
0.000884372
0.000580188
0.000372821
0.00023409
0.000143423
8.59421e-05
5.10761e-05
3.16349e-05
2.25278e-05
1.69476e-05
1.23168e-05
8.48177e-06
5.48072e-06
3.30332e-06
1.85727e-06
9.80267e-07
4.90307e-07
2.3582e-07
1.10301e-07
5.04259e-08
2.26124e-08
9.97334e-09
4.33623e-09
1.8622e-09
7.91324e-10
3.33229e-10
1.39195e-10
5.76704e-11
2.36375e-11
9.49809e-12
3.64106e-12
1.21808e-12
2.13729e-13
0.999997
0.999987
0.999971
0.999943
0.999896
0.999819
0.999693
0.999487
0.999156
0.998629
0.997806
0.996538
0.994625
0.9918
0.98773
0.982027
0.974273
0.964067
0.951074
0.935074
0.915988
0.893883
0.868948
0.841468
0.811789
0.78029
0.747363
0.713394
0.678751
0.643777
0.608784
0.574049
0.539815
0.506285
0.47363
0.441983
0.411454
0.382122
0.354045
0.327256
0.30177
0.277588
0.254697
0.233074
0.212689
0.193503
0.175475
0.15856
0.142709
0.127875
0.114009
0.101063
0.08899
0.0777452
0.0672861
0.0575736
0.0485719
0.0402501
0.0326061
0.0257197
0.0192656
0.0134196
0.00817784
0.00360885
0.00252045
0.00173675
0.00117866
0.00078622
0.000514321
0.000329203
0.000205764
0.000125526
7.50872e-05
4.49503e-05
2.87225e-05
2.11128e-05
1.58196e-05
1.13623e-05
7.71675e-06
4.9139e-06
2.92139e-06
1.62468e-06
8.51438e-07
4.24456e-07
2.04173e-07
9.56668e-08
4.3855e-08
1.97305e-08
8.73333e-09
3.81099e-09
1.64248e-09
7.00289e-10
2.95783e-10
1.23876e-10
5.14372e-11
2.1121e-11
8.49932e-12
3.26129e-12
1.09189e-12
1.91658e-13
0.999997
0.999987
0.99997
0.999942
0.999895
0.999816
0.999688
0.999479
0.999142
0.998608
0.997773
0.996489
0.994553
0.991697
0.987587
0.981836
0.974027
0.963759
0.950702
0.934637
0.915488
0.893322
0.868328
0.840789
0.811049
0.779488
0.746493
0.712451
0.677729
0.642671
0.60759
0.572764
0.538437
0.504815
0.472068
0.440333
0.40972
0.380312
0.352165
0.325315
0.299778
0.275554
0.252631
0.230986
0.210588
0.191399
0.173377
0.156475
0.140646
0.12584
0.112009
0.0991032
0.0870759
0.0758815
0.0654773
0.0558238
0.0468854
0.0386319
0.031137
0.0243747
0.0180391
0.0123393
0.00732634
0.00319633
0.0022397
0.00154465
0.00104723
0.000696822
0.000454201
0.000289445
0.000180068
0.000109435
6.54892e-05
3.97396e-05
2.65001e-05
1.98658e-05
1.47692e-05
1.04803e-05
7.02265e-06
4.41165e-06
2.59151e-06
1.42836e-06
7.44525e-07
3.70319e-07
1.78179e-07
8.36004e-08
3.83968e-08
1.73115e-08
7.67897e-09
3.3577e-09
1.44981e-09
6.19164e-10
2.61891e-10
1.09813e-10
4.5642e-11
1.87559e-11
7.55217e-12
2.89864e-12
9.70777e-13
1.70424e-13
0.999997
0.999987
0.99997
0.999941
0.999893
0.999814
0.999684
0.999472
0.999131
0.998591
0.997746
0.996448
0.994491
0.991608
0.987463
0.981666
0.9738
0.963467
0.950336
0.934193
0.914962
0.892713
0.867635
0.840012
0.810187
0.778539
0.745457
0.711325
0.676512
0.641361
0.606186
0.571266
0.536846
0.503133
0.470299
0.438482
0.407793
0.378315
0.350108
0.323205
0.297625
0.273367
0.25042
0.228761
0.208358
0.189173
0.171163
0.154282
0.138481
0.123711
0.109921
0.0970628
0.0850879
0.0739504
0.0636065
0.0540155
0.0451399
0.0369459
0.0295472
0.0228522
0.016595
0.0109861
0.00602907
0.00301986
0.00209046
0.00142668
0.000958226
0.00063213
0.000408714
0.00025848
0.000159702
9.6579e-05
5.78329e-05
3.57002e-05
2.49473e-05
1.8802e-05
1.38283e-05
9.68707e-06
6.40267e-06
3.96793e-06
2.30298e-06
1.25757e-06
6.51425e-07
3.22868e-07
1.55213e-07
7.28471e-08
3.34929e-08
1.51233e-08
6.72024e-09
2.94404e-09
1.27361e-09
5.449e-10
2.30862e-10
9.69434e-11
4.03423e-11
1.65946e-11
6.68698e-12
2.56772e-12
8.60233e-13
1.51037e-13
0.999997
0.999987
0.999969
0.99994
0.999892
0.999812
0.99968
0.999466
0.999121
0.998575
0.997721
0.996409
0.994434
0.991524
0.987342
0.981498
0.973574
0.963172
0.949962
0.933732
0.91441
0.892066
0.866891
0.839169
0.809246
0.777498
0.744316
0.710085
0.675172
0.639923
0.604651
0.569637
0.535126
0.501327
0.468411
0.436518
0.40576
0.376222
0.347962
0.321017
0.295402
0.27112
0.248158
0.226492
0.206093
0.186919
0.16893
0.152076
0.136311
0.121582
0.10784
0.0950359
0.0831205
0.0720477
0.0617739
0.0522586
0.043465
0.0353609
0.0280859
0.0214619
0.0152593
0.00968472
0.00477688
0.00288759
0.00197119
0.00132976
0.00088423
0.000578133
0.000370771
0.000232747
0.000142885
8.60634e-05
5.16621e-05
3.25319e-05
2.35065e-05
1.77422e-05
1.29368e-05
8.96528e-06
5.85551e-06
3.58624e-06
2.06013e-06
1.11621e-06
5.75227e-07
2.84264e-07
1.36546e-07
6.40884e-08
2.9482e-08
1.33236e-08
5.92657e-09
2.59923e-09
1.12572e-09
4.8216e-10
2.0449e-10
8.59476e-11
3.57938e-11
1.47326e-11
5.93939e-12
2.28119e-12
7.64348e-13
1.34214e-13
0.999997
0.999986
0.999969
0.99994
0.999891
0.99981
0.999676
0.99946
0.999112
0.99856
0.997698
0.996374
0.99438
0.991444
0.987227
0.981337
0.973354
0.962881
0.94959
0.933269
0.913848
0.891401
0.86612
0.838291
0.80826
0.776405
0.743117
0.708781
0.673766
0.638417
0.603049
0.567943
0.533346
0.499465
0.466474
0.434514
0.403696
0.374106
0.345804
0.318824
0.293184
0.268886
0.245917
0.224254
0.203865
0.18471
0.166747
0.149927
0.134202
0.11952
0.105831
0.0930844
0.0812322
0.0702279
0.0600279
0.0505922
0.0418854
0.0338771
0.0267446
0.0200399
0.0139574
0.00849485
0.00373509
0.00258991
0.00177417
0.00119854
0.00079689
0.000520384
0.000333057
0.000208568
0.000127792
7.70227e-05
4.66461e-05
3.02313e-05
2.24004e-05
1.68611e-05
1.21908e-05
8.36243e-06
5.40115e-06
3.27182e-06
1.86159e-06
1.00119e-06
5.13303e-07
2.52846e-07
1.21299e-07
5.69031e-08
2.61766e-08
1.18339e-08
5.26702e-09
2.31169e-09
1.00202e-09
4.29545e-10
1.82326e-10
7.66897e-11
3.19585e-11
1.31608e-11
5.30767e-12
2.03893e-12
6.83229e-13
1.19984e-13
0.999997
0.999986
0.999969
0.999939
0.99989
0.999808
0.999673
0.999455
0.999104
0.998546
0.997676
0.99634
0.994329
0.991368
0.987117
0.981181
0.97314
0.962596
0.949221
0.932807
0.913286
0.890732
0.865342
0.837402
0.807261
0.775296
0.7419
0.707459
0.672342
0.636895
0.601435
0.566242
0.531563
0.497607
0.46455
0.43253
0.401661
0.372028
0.343691
0.316686
0.29103
0.266724
0.243756
0.222102
0.201729
0.182599
0.164666
0.147884
0.132203
0.11757
0.103935
0.0912473
0.0794582
0.0685211
0.0583922
0.0490317
0.0404044
0.0325475
0.0255031
0.0188967
0.0129636
0.00771886
0.00329078
0.00230456
0.00158943
0.0010785
0.000718973
0.0004701
0.000300964
0.000188442
0.000115512
6.98768e-05
4.28918e-05
2.87611e-05
2.16402e-05
1.62026e-05
1.16121e-05
7.88459e-06
5.03741e-06
3.0196e-06
1.70259e-06
9.09267e-07
4.63817e-07
2.27847e-07
1.09126e-07
5.11435e-08
2.3516e-08
1.06298e-08
4.73174e-09
2.07742e-09
9.00871e-10
3.86384e-10
1.64093e-10
6.9055e-11
2.87893e-11
1.18598e-11
4.78424e-12
1.83803e-12
6.1594e-13
1.08179e-13
0.999997
0.999986
0.999968
0.999938
0.999889
0.999806
0.999671
0.99945
0.999096
0.998534
0.997656
0.996309
0.994281
0.991296
0.987011
0.98103
0.972933
0.962319
0.948863
0.932356
0.912735
0.890075
0.864576
0.836526
0.806275
0.774202
0.740699
0.706155
0.67094
0.6354
0.599852
0.564578
0.529824
0.495802
0.462685
0.430613
0.399701
0.370033
0.34167
0.314647
0.288982
0.264675
0.241714
0.220074
0.199723
0.180621
0.162723
0.145981
0.130344
0.115761
0.10218
0.0895504
0.0778223
0.066949
0.0568865
0.0475948
0.0390384
0.0313086
0.0243637
0.0178478
0.0120093
0.00687732
0.00311229
0.00216777
0.00148935
0.00100763
0.000670079
0.000437165
0.000279317
0.000174611
0.000107002
6.49554e-05
4.04204e-05
2.80466e-05
2.12157e-05
1.57623e-05
1.11882e-05
7.51721e-06
4.75096e-06
2.81898e-06
1.5757e-06
8.35806e-07
4.24216e-07
2.07809e-07
9.93428e-08
4.65019e-08
2.1366e-08
9.6543e-09
4.29706e-09
1.88677e-09
8.184e-10
3.51133e-10
1.49181e-10
6.28035e-11
2.61919e-11
1.07929e-11
4.3549e-12
1.6732e-12
5.60726e-13
9.84967e-14
0.999997
0.999986
0.999968
0.999938
0.999888
0.999805
0.999668
0.999446
0.999088
0.998522
0.997637
0.996279
0.994235
0.991227
0.986911
0.980888
0.972736
0.962054
0.948519
0.931923
0.912205
0.889443
0.863838
0.835681
0.805323
0.773146
0.739542
0.704901
0.669593
0.633966
0.598337
0.562988
0.528168
0.494086
0.460916
0.428801
0.397853
0.368158
0.339776
0.312742
0.287073
0.26277
0.23982
0.218199
0.197872
0.178801
0.160939
0.144238
0.128647
0.114113
0.100585
0.0880107
0.0763406
0.0655272
0.0555261
0.0462967
0.0378029
0.0301313
0.0232433
0.016783
0.0109846
0.00584737
0.00303657
0.00210327
0.00143791
0.000968555
0.000641571
0.000417103
0.000265684
0.00016569
0.000101434
6.17353e-05
3.88809e-05
2.76521e-05
2.09395e-05
1.54403e-05
1.08606e-05
7.22513e-06
4.52042e-06
2.65702e-06
1.47337e-06
7.76664e-07
3.92367e-07
1.9169e-07
9.14666e-08
4.27607e-08
1.96307e-08
8.86581e-09
3.94519e-09
1.73223e-09
7.51464e-10
3.22491e-10
1.37052e-10
5.77153e-11
2.40768e-11
9.92384e-12
4.00522e-12
1.53897e-12
5.15759e-13
9.0616e-14
0.999997
0.999986
0.999968
0.999938
0.999887
0.999803
0.999665
0.999442
0.999082
0.998511
0.99762
0.996252
0.994193
0.991164
0.986817
0.980754
0.97255
0.961806
0.948196
0.931515
0.911705
0.888846
0.863141
0.834884
0.804426
0.772151
0.738452
0.70372
0.668327
0.63262
0.596917
0.561502
0.526622
0.492488
0.459274
0.427122
0.396145
0.366429
0.338033
0.310993
0.285326
0.261031
0.238096
0.216495
0.196195
0.177155
0.15933
0.14267
0.127123
0.112637
0.0991592
0.0866377
0.0750223
0.0642649
0.0543209
0.0451489
0.0367161
0.0291217
0.0222991
0.0158952
0.0101469
0.00509006
0.00297438
0.00205336
0.00139922
0.000939542
0.000620525
0.000402337
0.000255678
0.000159176
9.7416e-05
5.94763e-05
3.78998e-05
2.74199e-05
2.07359e-05
1.5185e-05
1.05942e-05
6.98541e-06
4.33113e-06
2.52458e-06
1.39011e-06
7.2875e-07
3.66635e-07
1.78683e-07
8.51132e-08
3.97423e-08
1.82299e-08
8.2289e-09
3.66077e-09
1.60721e-09
6.97281e-10
2.99291e-10
1.27224e-10
5.3591e-11
2.23621e-11
9.21939e-12
3.7219e-12
1.43026e-12
4.79343e-13
8.42398e-14
0.999997
0.999986
0.999968
0.999937
0.999886
0.999802
0.999663
0.999438
0.999076
0.998501
0.997604
0.996226
0.994154
0.991105
0.986731
0.980631
0.972379
0.961576
0.947897
0.931139
0.911243
0.888294
0.862497
0.834147
0.803597
0.771232
0.737448
0.702633
0.667162
0.631384
0.595616
0.560142
0.52521
0.491031
0.45778
0.425597
0.394597
0.364865
0.336461
0.309418
0.283756
0.259472
0.236553
0.214974
0.194701
0.175693
0.157903
0.141282
0.125778
0.111337
0.0979074
0.0854357
0.0738716
0.0631666
0.053277
0.0441662
0.0357938
0.0282685
0.0214876
0.0151212
0.00941915
0.00445282
0.00287956
0.00198627
0.00135248
0.000907512
0.000598963
0.000388122
0.000246546
0.000153509
9.40875e-05
5.77318e-05
3.7265e-05
2.73084e-05
2.05937e-05
1.49855e-05
1.0379e-05
6.78972e-06
4.17661e-06
2.41692e-06
1.32277e-06
6.90145e-07
3.45956e-07
1.68242e-07
8.00143e-08
3.73193e-08
1.71049e-08
7.71704e-09
3.43202e-09
1.5066e-09
6.53648e-10
2.806e-10
1.19303e-10
5.02663e-11
2.09798e-11
8.65163e-12
3.49367e-12
1.34274e-12
4.50033e-13
7.91127e-14
0.999997
0.999986
0.999968
0.999937
0.999886
0.999801
0.999661
0.999434
0.99907
0.998492
0.997589
0.996204
0.994119
0.991052
0.986654
0.98052
0.972225
0.961369
0.947627
0.930799
0.910827
0.887797
0.861917
0.833483
0.802851
0.770406
0.736544
0.701656
0.666117
0.630275
0.59445
0.558925
0.523949
0.489731
0.456449
0.424241
0.393223
0.36348
0.33507
0.308029
0.282372
0.2581
0.235199
0.213642
0.193395
0.174417
0.156661
0.140077
0.124613
0.110215
0.0968296
0.0844051
0.0728902
0.0622379
0.0524052
0.0433397
0.0350038
0.0275482
0.0207968
0.014473
0.0088104
0.0039
0.00272832
0.00188689
0.00128793
0.000866131
0.000572835
0.000371924
0.000236737
0.000147766
9.09154e-05
5.62015e-05
3.68146e-05
2.72475e-05
2.04907e-05
1.48309e-05
1.02089e-05
6.63405e-06
4.05344e-06
2.33121e-06
1.26926e-06
6.59519e-07
3.29559e-07
1.59961e-07
7.59671e-08
3.53939e-08
1.62099e-08
7.30934e-09
3.24962e-09
1.4263e-09
6.18791e-10
2.65658e-10
1.12968e-10
4.76065e-11
1.98739e-11
8.19749e-12
3.3112e-12
1.2728e-12
4.26629e-13
7.50221e-14
0.999997
0.999986
0.999967
0.999936
0.999885
0.9998
0.999659
0.999432
0.999065
0.998484
0.997577
0.996184
0.994089
0.991006
0.986586
0.980422
0.97209
0.961187
0.947391
0.9305
0.910461
0.88736
0.861408
0.832901
0.802197
0.769681
0.735752
0.700801
0.665203
0.629307
0.593433
0.557865
0.52285
0.488602
0.455293
0.423066
0.392034
0.362283
0.33387
0.306831
0.281182
0.256923
0.234037
0.212501
0.192279
0.173328
0.155603
0.139052
0.123624
0.109264
0.0959196
0.0835374
0.0720677
0.0614643
0.0516739
0.0426611
0.0343902
0.0270755
0.0201935
0.0139693
0.00840498
0.00361231
0.00254855
0.00177459
0.00121812
0.000823112
0.000546674
0.0003563
0.000227636
0.000142658
8.82331e-05
5.50002e-05
3.6533e-05
2.72502e-05
2.04497e-05
1.47411e-05
1.00939e-05
6.52119e-06
3.96153e-06
2.26626e-06
1.22837e-06
6.35978e-07
3.16898e-07
1.53542e-07
7.28188e-08
3.38914e-08
1.55095e-08
6.98949e-09
3.10622e-09
1.36305e-09
5.91295e-10
2.53857e-10
1.0796e-10
4.55027e-11
1.8999e-11
7.83819e-12
3.1669e-12
1.21751e-12
4.08137e-13
7.1793e-14
0.999997
0.999986
0.999967
0.999936
0.999884
0.999799
0.999658
0.999429
0.999061
0.998478
0.997566
0.996167
0.994063
0.990967
0.986528
0.98034
0.971976
0.961033
0.94719
0.930247
0.910151
0.886991
0.860976
0.832408
0.801643
0.769068
0.735082
0.700078
0.66443
0.628489
0.592574
0.55697
0.521925
0.487651
0.454321
0.422079
0.391036
0.361279
0.332865
0.30583
0.280188
0.25594
0.23307
0.211553
0.191352
0.172425
0.154727
0.138205
0.122808
0.108481
0.0951709
0.0828253
0.0713948
0.0608249
0.0510748
0.0421039
0.033903
0.0266341
0.0197893
0.013622
0.00813076
0.00343077
0.00242591
0.00169397
0.00116643
0.000790797
0.000527001
0.000344687
0.000221046
0.000139133
8.65472e-05
5.44158e-05
3.664e-05
2.74459e-05
2.05352e-05
1.47401e-05
1.00467e-05
6.45727e-06
3.90181e-06
2.22142e-06
1.19918e-06
6.18817e-07
3.0753e-07
1.48742e-07
7.04451e-08
3.27508e-08
1.49748e-08
6.74418e-09
2.99582e-09
1.3142e-09
5.70008e-10
2.44703e-10
1.04069e-10
4.38666e-11
1.83181e-11
7.5585e-12
3.0546e-12
1.1745e-12
3.93755e-13
6.92838e-14
0.999997
0.999986
0.999967
0.999936
0.999884
0.999798
0.999657
0.999427
0.999058
0.998472
0.997558
0.996154
0.994042
0.990935
0.986481
0.980273
0.971883
0.960909
0.947028
0.930043
0.9099
0.886691
0.860627
0.832009
0.801194
0.768572
0.734541
0.699493
0.663806
0.627828
0.591881
0.556248
0.521179
0.486884
0.453539
0.421284
0.390234
0.360473
0.332059
0.305027
0.279393
0.255155
0.232298
0.210795
0.190612
0.171706
0.15403
0.137532
0.12216
0.107859
0.0945768
0.0822602
0.0708563
0.0603176
0.0505994
0.041661
0.0335244
0.0262902
0.0194836
0.0133613
0.00792431
0.00331702
0.0023496
0.00164409
0.00113479
0.000771389
0.000515573
0.000338301
0.000217731
0.000137616
8.60444e-05
5.44872e-05
3.70695e-05
2.78238e-05
2.07506e-05
1.48328e-05
1.00631e-05
6.4374e-06
3.87177e-06
2.19461e-06
1.18027e-06
6.07177e-07
3.00986e-07
1.45324e-07
6.87297e-08
3.19172e-08
1.45805e-08
6.562e-09
2.91336e-09
1.27756e-09
5.53981e-10
2.37792e-10
1.01126e-10
4.26271e-11
1.78018e-11
7.34634e-12
2.96942e-12
1.14189e-12
3.82851e-13
6.73827e-14
0.999997
0.999986
0.999967
0.999936
0.999884
0.999798
0.999656
0.999426
0.999055
0.998468
0.997551
0.996144
0.994026
0.990912
0.986446
0.980223
0.971813
0.960815
0.946906
0.929889
0.909712
0.886466
0.860364
0.831708
0.800856
0.768198
0.734132
0.699052
0.663334
0.627329
0.591357
0.555703
0.520616
0.486306
0.452949
0.420686
0.38963
0.359867
0.331453
0.304424
0.278796
0.254566
0.231719
0.210229
0.19006
0.17117
0.15351
0.137031
0.121678
0.107399
0.0941381
0.0818423
0.0704596
0.0599433
0.0502483
0.0413335
0.0332406
0.0260301
0.0192473
0.0131489
0.00773502
0.00324683
0.00230505
0.00161677
0.00111878
0.00076258
0.000511168
0.000336453
0.000217279
0.000137863
8.65991e-05
5.51503e-05
3.7758e-05
2.83448e-05
2.10659e-05
1.49975e-05
1.01311e-05
6.45211e-06
3.86422e-06
2.18199e-06
1.16955e-06
5.99982e-07
2.96737e-07
1.43038e-07
6.75579e-08
3.13389e-08
1.43038e-08
6.43303e-09
2.8546e-09
1.2513e-09
5.42455e-10
2.32808e-10
9.89986e-11
4.17301e-11
1.74279e-11
7.19265e-12
2.90774e-12
1.11827e-12
3.74961e-13
6.60076e-14
0.999997
0.999986
0.999967
0.999936
0.999884
0.999797
0.999655
0.999425
0.999054
0.998466
0.997547
0.996137
0.994016
0.990896
0.986423
0.98019
0.971767
0.960753
0.946826
0.929787
0.909586
0.886316
0.860189
0.831507
0.80063
0.767948
0.733858
0.698757
0.663019
0.626995
0.591007
0.555338
0.520239
0.48592
0.452555
0.420286
0.389227
0.359462
0.331049
0.304023
0.278398
0.254174
0.231334
0.209853
0.189693
0.170814
0.153166
0.1367
0.12136
0.107094
0.0938465
0.0815645
0.0701976
0.0596972
0.0500182
0.0411196
0.03305
0.0258536
0.0190825
0.0129925
0.0075811
0.0032083
0.00228338
0.00160565
0.00111397
0.000761342
0.000511775
0.000337867
0.000218904
0.000139392
8.79072e-05
5.6216e-05
3.86105e-05
2.8933e-05
2.14218e-05
1.51918e-05
1.0223e-05
6.48621e-06
3.87083e-06
2.17881e-06
1.16467e-06
5.9612e-07
2.94271e-07
1.41656e-07
6.68312e-08
3.09741e-08
1.41272e-08
6.35005e-09
2.81656e-09
1.23424e-09
5.34939e-10
2.2955e-10
9.76064e-11
4.11426e-11
1.7183e-11
7.092e-12
2.86737e-12
1.10283e-12
3.69804e-13
6.51092e-14
0.999997
0.999986
0.999967
0.999936
0.999883
0.999797
0.999655
0.999424
0.999053
0.998464
0.997545
0.996134
0.994011
0.990889
0.986412
0.980174
0.971746
0.960724
0.946787
0.929738
0.909526
0.886244
0.860105
0.83141
0.800521
0.767826
0.733725
0.698612
0.662864
0.626831
0.590834
0.555159
0.520053
0.485729
0.45236
0.420089
0.389027
0.359262
0.330849
0.303823
0.278201
0.253979
0.231143
0.209666
0.189511
0.170637
0.152995
0.136535
0.121202
0.106942
0.093702
0.0814281
0.0700694
0.0595773
0.0499066
0.0410163
0.0329562
0.0257664
0.0189995
0.0129104
0.00749396
0.00319079
0.00227664
0.00160456
0.00111562
0.000764078
0.000514712
0.00034056
0.000221169
0.00014119
8.92752e-05
5.72193e-05
3.93095e-05
2.93748e-05
2.1679e-05
1.53304e-05
1.02898e-05
6.51335e-06
3.87889e-06
2.17932e-06
1.1631e-06
5.94524e-07
2.93167e-07
1.41013e-07
6.64867e-08
3.07992e-08
1.40419e-08
6.30977e-09
2.79803e-09
1.22591e-09
5.31262e-10
2.27954e-10
9.69236e-11
4.08542e-11
1.70627e-11
7.04253e-12
2.84751e-12
1.09522e-12
3.67264e-13
6.46663e-14
0.999997
0.999986
0.999967
0.999936
0.999883
0.999797
0.999655
0.999424
0.999053
0.998464
0.997545
0.996134
0.994011
0.990888
0.986412
0.980174
0.971745
0.960723
0.946786
0.929737
0.909525
0.886242
0.860103
0.831409
0.800519
0.767824
0.733723
0.69861
0.662861
0.626829
0.590832
0.555156
0.520051
0.485727
0.452358
0.420086
0.389025
0.359259
0.330847
0.303821
0.278199
0.253977
0.231142
0.209664
0.18951
0.170636
0.152994
0.136533
0.1212
0.106941
0.0937009
0.081427
0.0700683
0.0595762
0.0499056
0.0410153
0.0329552
0.0257655
0.0189988
0.0129098
0.00749333
0.00319066
0.00227662
0.00160458
0.00111563
0.000764088
0.000514716
0.000340561
0.000221169
0.00014119
8.92751e-05
5.72192e-05
3.93094e-05
2.93745e-05
2.16786e-05
1.53299e-05
1.02894e-05
6.5131e-06
3.87874e-06
2.17924e-06
1.16306e-06
5.94503e-07
2.93157e-07
1.41009e-07
6.64849e-08
3.07985e-08
1.40416e-08
6.30963e-09
2.79797e-09
1.22588e-09
5.3125e-10
2.27949e-10
9.69212e-11
4.08531e-11
1.70622e-11
7.04232e-12
2.84741e-12
1.09519e-12
3.67253e-13
6.46632e-14
0.999997
0.999986
0.999967
0.999936
0.999884
0.999797
0.999655
0.999425
0.999054
0.998466
0.997547
0.996137
0.994015
0.990896
0.986423
0.980189
0.971766
0.960751
0.946823
0.929784
0.909583
0.886312
0.860184
0.831502
0.800625
0.767942
0.733852
0.69875
0.663012
0.626988
0.591
0.555332
0.520232
0.485913
0.452548
0.42028
0.38922
0.359456
0.331043
0.304017
0.278392
0.254168
0.231329
0.209848
0.189689
0.170809
0.153162
0.136696
0.121357
0.107091
0.0938431
0.0815612
0.0701944
0.0596941
0.0500153
0.0411169
0.0330474
0.0258514
0.0190807
0.0129911
0.00757945
0.00320783
0.0022832
0.00160557
0.00111391
0.000761283
0.000511727
0.000337833
0.000218883
0.00013938
8.79012e-05
5.6213e-05
3.86093e-05
2.89319e-05
2.14204e-05
1.51905e-05
1.02219e-05
6.48544e-06
3.87033e-06
2.17851e-06
1.16451e-06
5.96037e-07
2.94231e-07
1.41636e-07
6.6822e-08
3.09699e-08
1.41252e-08
6.34915e-09
2.81616e-09
1.23406e-09
5.34862e-10
2.29517e-10
9.75923e-11
4.11367e-11
1.71805e-11
7.09096e-12
2.86693e-12
1.10267e-12
3.69752e-13
6.50973e-14
0.999997
0.999986
0.999967
0.999936
0.999884
0.999798
0.999656
0.999426
0.999055
0.998468
0.997551
0.996143
0.994026
0.990911
0.986445
0.980221
0.971811
0.960812
0.946902
0.929884
0.909705
0.886459
0.860356
0.831699
0.800846
0.768187
0.734121
0.699041
0.663322
0.627317
0.591345
0.555691
0.520604
0.486294
0.452938
0.420675
0.389619
0.359856
0.331443
0.304414
0.278786
0.254556
0.23171
0.21022
0.190052
0.171162
0.153503
0.137024
0.121672
0.107393
0.0941325
0.081837
0.0704547
0.0599387
0.0502441
0.0413299
0.0332374
0.0260274
0.0192451
0.0131473
0.00773306
0.00324617
0.0023047
0.00161651
0.00111852
0.00076235
0.000510984
0.000336322
0.000217193
0.00013781
8.65691e-05
5.5134e-05
3.77497e-05
2.83397e-05
2.1062e-05
1.49945e-05
1.01289e-05
6.45059e-06
3.86325e-06
2.18144e-06
1.16924e-06
5.99826e-07
2.96659e-07
1.43001e-07
6.75405e-08
3.13309e-08
1.43001e-08
6.43139e-09
2.85386e-09
1.25098e-09
5.42314e-10
2.32747e-10
9.89729e-11
4.17193e-11
1.74234e-11
7.19079e-12
2.90696e-12
1.11799e-12
3.74868e-13
6.59867e-14
0.999997
0.999986
0.999967
0.999936
0.999884
0.999798
0.999657
0.999427
0.999058
0.998472
0.997557
0.996153
0.994041
0.990934
0.98648
0.980271
0.97188
0.960904
0.947023
0.930036
0.909892
0.886681
0.860616
0.831996
0.80118
0.768557
0.734525
0.699477
0.663789
0.627811
0.591864
0.556231
0.521162
0.486867
0.453522
0.421268
0.390218
0.360457
0.332044
0.305013
0.279379
0.255142
0.232285
0.210784
0.190601
0.171696
0.15402
0.137523
0.122151
0.107851
0.0945693
0.0822534
0.0708499
0.0603116
0.0505938
0.0416558
0.0335197
0.026286
0.0194802
0.0133587
0.00792194
0.003316
0.00234906
0.0016437
0.00113444
0.00077109
0.000515346
0.000338143
0.00021763
0.000137555
8.60098e-05
5.44688e-05
3.70596e-05
2.78168e-05
2.07449e-05
1.48283e-05
1.00598e-05
6.43512e-06
3.87037e-06
2.19379e-06
1.17981e-06
6.06943e-07
3.0087e-07
1.45268e-07
6.87031e-08
3.19047e-08
1.45747e-08
6.55938e-09
2.91219e-09
1.27704e-09
5.53755e-10
2.37696e-10
1.01085e-10
4.261e-11
1.77947e-11
7.34341e-12
2.96821e-12
1.14144e-12
3.82706e-13
6.73507e-14
0.999997
0.999986
0.999967
0.999936
0.999884
0.999799
0.999658
0.999429
0.999061
0.998477
0.997566
0.996167
0.994062
0.990966
0.986526
0.980337
0.971971
0.961028
0.947183
0.930238
0.91014
0.886978
0.860962
0.832392
0.801625
0.769049
0.735062
0.700057
0.664409
0.628467
0.592552
0.556948
0.521903
0.487629
0.4543
0.422058
0.391016
0.361259
0.332846
0.305811
0.280171
0.255923
0.233054
0.211537
0.191337
0.172412
0.154714
0.138193
0.122797
0.10847
0.0951609
0.0828159
0.0713862
0.0608171
0.0510679
0.0420977
0.0338978
0.0266295
0.0197856
0.0136192
0.00812846
0.0034295
0.00242511
0.00169327
0.00116577
0.000790224
0.000526555
0.000344369
0.000220835
0.000139001
8.64691e-05
5.4372e-05
3.66178e-05
2.74329e-05
2.05264e-05
1.47339e-05
1.00424e-05
6.45446e-06
3.90001e-06
2.22035e-06
1.1986e-06
6.18513e-07
3.07376e-07
1.48667e-07
7.04086e-08
3.27336e-08
1.49668e-08
6.74052e-09
2.99417e-09
1.31348e-09
5.69692e-10
2.44568e-10
1.04012e-10
4.38426e-11
1.83082e-11
7.55441e-12
3.05292e-12
1.17388e-12
3.93551e-13
6.92407e-14
0.999997
0.999986
0.999967
0.999936
0.999885
0.9998
0.999659
0.999431
0.999065
0.998484
0.997576
0.996183
0.994087
0.991004
0.986583
0.980419
0.972085
0.96118
0.947382
0.930489
0.910447
0.887345
0.86139
0.832881
0.802175
0.769658
0.735728
0.700776
0.665177
0.62928
0.593406
0.557837
0.522823
0.488575
0.455267
0.42304
0.392009
0.362258
0.333846
0.306808
0.28116
0.256901
0.234017
0.212482
0.19226
0.173311
0.155587
0.139037
0.12361
0.109251
0.0959075
0.0835263
0.0720577
0.061455
0.0516653
0.0426532
0.0343833
0.0270696
0.0201883
0.0139647
0.00840123
0.00361027
0.0025473
0.00177372
0.00121753
0.000822725
0.000546421
0.000356134
0.000227528
0.000142588
8.81874e-05
5.49714e-05
3.65169e-05
2.72403e-05
2.0442e-05
1.4735e-05
1.00894e-05
6.51801e-06
3.95946e-06
2.26502e-06
1.22767e-06
6.35602e-07
3.16704e-07
1.53445e-07
7.27716e-08
3.3869e-08
1.54991e-08
6.98473e-09
3.10408e-09
1.3621e-09
5.90884e-10
2.53681e-10
1.07885e-10
4.54714e-11
1.8986e-11
7.83284e-12
3.16471e-12
1.2167e-12
4.0787e-13
7.17377e-14
0.999997
0.999986
0.999968
0.999937
0.999885
0.999801
0.999661
0.999434
0.99907
0.998492
0.997589
0.996203
0.994118
0.99105
0.98665
0.980515
0.972219
0.961361
0.947617
0.930785
0.91081
0.887778
0.861896
0.83346
0.802825
0.770378
0.736514
0.701625
0.666085
0.630243
0.594417
0.558892
0.523916
0.489699
0.456417
0.42421
0.393193
0.36345
0.335041
0.308001
0.282346
0.258075
0.235175
0.213619
0.193373
0.174396
0.156642
0.140059
0.124596
0.110199
0.0968152
0.0843917
0.0728778
0.0622266
0.0523946
0.0433297
0.0349945
0.0275409
0.0207899
0.0144667
0.00880507
0.00389658
0.00272641
0.00188539
0.00128694
0.000865544
0.000572507
0.000371743
0.000236635
0.000147705
9.08774e-05
5.61772e-05
3.68002e-05
2.72384e-05
2.04829e-05
1.48243e-05
1.02038e-05
6.63044e-06
4.05109e-06
2.32976e-06
1.26843e-06
6.59062e-07
3.29321e-07
1.59841e-07
7.59087e-08
3.53661e-08
1.61969e-08
7.3034e-09
3.24695e-09
1.42512e-09
6.18276e-10
2.65437e-10
1.12873e-10
4.7567e-11
1.98576e-11
8.19073e-12
3.30844e-12
1.27177e-12
4.2629e-13
7.49535e-14
0.999997
0.999986
0.999968
0.999937
0.999886
0.999802
0.999663
0.999438
0.999075
0.998501
0.997603
0.996225
0.994152
0.991103
0.986728
0.980626
0.972372
0.961566
0.947884
0.931123
0.911225
0.888273
0.862473
0.83412
0.803567
0.7712
0.737413
0.702598
0.667126
0.631346
0.595578
0.560104
0.525172
0.490993
0.457743
0.425561
0.394562
0.364831
0.336427
0.309386
0.283724
0.259442
0.236525
0.214947
0.194675
0.175669
0.15788
0.141261
0.125758
0.111319
0.0978898
0.0854194
0.0738564
0.0631526
0.0532644
0.0441546
0.0357825
0.0282577
0.0214751
0.015112
0.00941193
0.00444752
0.0028784
0.00198486
0.0013514
0.000906822
0.000598562
0.000387897
0.000246419
0.000153434
9.40413e-05
5.77029e-05
3.72484e-05
2.72988e-05
2.05857e-05
1.49788e-05
1.03737e-05
6.78595e-06
4.17405e-06
2.4153e-06
1.32181e-06
6.89614e-07
3.45676e-07
1.681e-07
7.99444e-08
3.72857e-08
1.70892e-08
7.70982e-09
3.42876e-09
1.50516e-09
6.53014e-10
2.80326e-10
1.19186e-10
5.02172e-11
2.09594e-11
8.64317e-12
3.49021e-12
1.34144e-12
4.49603e-13
7.90279e-14
0.999997
0.999986
0.999968
0.999938
0.999887
0.999803
0.999665
0.999441
0.999081
0.998511
0.997619
0.99625
0.994191
0.991161
0.986813
0.980748
0.972542
0.961795
0.948181
0.931498
0.911684
0.888821
0.863113
0.834852
0.804391
0.772114
0.738413
0.703679
0.668284
0.632577
0.596874
0.561458
0.526579
0.492445
0.459232
0.42708
0.396104
0.36639
0.337995
0.310956
0.28529
0.260997
0.238063
0.216464
0.196166
0.177128
0.159304
0.142645
0.1271
0.112616
0.0991397
0.0866197
0.0750056
0.0642495
0.0543066
0.045136
0.0367051
0.0291138
0.0222946
0.015889
0.0101405
0.00508477
0.00297385
0.00205286
0.00139897
0.000939492
0.00062056
0.000402384
0.00025571
0.000159189
9.7415e-05
5.94691e-05
3.78931e-05
2.74149e-05
2.07294e-05
1.51785e-05
1.05887e-05
6.98123e-06
4.32823e-06
2.52272e-06
1.389e-06
7.28127e-07
3.66305e-07
1.78514e-07
8.50294e-08
3.97019e-08
1.82109e-08
8.22012e-09
3.65679e-09
1.60544e-09
6.96501e-10
2.98954e-10
1.2708e-10
5.353e-11
2.23366e-11
9.2088e-12
3.71757e-12