/*--------------------------------*- C++ -*----------------------------------*\
  =========                 |
  \\      /  F ield         | OpenFOAM: The Open Source CFD Toolbox
   \\    /   O peration     | Website:  https://openfoam.org
    \\  /    A nd           | Version:  8
     \\/     M anipulation  |
\*---------------------------------------------------------------------------*/
FoamFile
{
    version     2.0;
    format      ascii;
    class       volScalarField;
    location    "280/fluid";
    object      CO2;
}
// * * * * * * * * * * * * * * * * * * * * * * * * * * * * * * * * * * * * * //

dimensions      [0 0 0 0 0 0 0];

internalField   nonuniform List<scalar> 
4000
(
4.11248e-07
1.79605e-06
4.11997e-06
8.00434e-06
1.44655e-05
2.51495e-05
4.26912e-05
7.12508e-05
0.000117289
0.000190647
0.000305966
0.000484416
0.000755563
0.00115893
0.00174457
0.00257167
0.0037045
0.00520553
0.00712695
0.00950294
0.0123451
0.0156423
0.0193637
0.023464
0.027889
0.0325799
0.0374775
0.0425239
0.0476643
0.0528485
0.058031
0.0631719
0.0682367
0.0731961
0.0780262
0.0827077
0.0872256
0.0915684
0.0957281
0.0996996
0.103481
0.107071
0.110471
0.113684
0.116714
0.119564
0.12224
0.124746
0.127087
0.129267
0.131289
0.133155
0.134866
0.136419
0.137811
0.139033
0.140073
0.140911
0.141519
0.141851
0.141869
0.141491
0.140612
0.139082
0.133777
0.123071
0.112249
0.101469
0.0908577
0.0805199
0.0705418
0.0609967
0.0519482
0.0434548
0.0355734
0.02837
0.0218857
0.0162069
0.0114045
0.0075413
0.004641
0.00264563
0.00140081
0.000695084
0.000329063
0.000150949
6.75865e-05
2.96905e-05
1.28459e-05
5.49e-06
2.3229e-06
9.74821e-07
4.06294e-07
1.68303e-07
6.92614e-08
2.82328e-08
1.12932e-08
4.31406e-09
1.44013e-09
2.52259e-10
4.1748e-07
1.82425e-06
4.18882e-06
8.14896e-06
1.47493e-05
2.56831e-05
4.36602e-05
7.2954e-05
0.000120186
0.000195405
0.000313493
0.000495847
0.000772154
0.00118184
0.00177451
0.00260853
0.003747
0.00525112
0.00717214
0.00954397
0.0123788
0.0156666
0.0193782
0.0234697
0.0278884
0.0325761
0.0374736
0.0425228
0.047669
0.0528613
0.0580537
0.0632057
0.0682821
0.0732532
0.0780948
0.0827872
0.0873152
0.0916669
0.0958344
0.0998126
0.103599
0.107193
0.110597
0.113812
0.116843
0.119693
0.122369
0.124873
0.127212
0.129389
0.131407
0.133268
0.134973
0.136521
0.137906
0.13912
0.140152
0.140982
0.141583
0.141913
0.141933
0.141572
0.140734
0.139288
0.132382
0.121652
0.110797
0.0999811
0.0893372
0.0789729
0.0689766
0.0594237
0.0503805
0.0419087
0.0340815
0.026934
0.0205525
0.0150144
0.0103933
0.00674609
0.00407445
0.00228651
0.00119925
0.000593956
0.000282438
0.00013057
5.90157e-05
2.61818e-05
1.14347e-05
4.92818e-06
2.10034e-06
8.86768e-07
3.7144e-07
1.54497e-07
6.37997e-08
2.60846e-08
1.04621e-08
4.00597e-09
1.33913e-09
2.34843e-10
4.26783e-07
1.86553e-06
4.28628e-06
8.34507e-06
1.51164e-05
2.63406e-05
4.47991e-05
7.48691e-05
0.000123315
0.00020037
0.000321134
0.00050723
0.000788534
0.00120455
0.00180479
0.00264722
0.00379428
0.00530625
0.00723342
0.00960898
0.0124449
0.0157313
0.0194399
0.0235278
0.0279433
0.0326293
0.0375275
0.0425801
0.0477322
0.0529328
0.0581356
0.0632995
0.068389
0.0733738
0.0782292
0.0829351
0.087476
0.0918396
0.0960177
0.100005
0.103799
0.1074
0.110808
0.114027
0.117059
0.119911
0.122585
0.125087
0.127422
0.129594
0.131605
0.133459
0.135154
0.13669
0.138061
0.139259
0.14027
0.141076
0.141649
0.141947
0.141938
0.141553
0.140705
0.13929
0.130168
0.119405
0.108503
0.097649
0.0869843
0.0766205
0.0666485
0.0571452
0.0481787
0.0398133
0.0321448
0.0251702
0.0190027
0.0137144
0.00936911
0.00600279
0.00358607
0.00199824
0.00104538
0.000518431
0.000247338
0.00011482
5.21265e-05
2.32257e-05
1.01842e-05
4.40463e-06
1.88272e-06
7.96751e-07
3.34325e-07
1.39236e-07
5.75484e-08
2.35437e-08
9.44797e-09
3.61892e-09
1.21019e-09
2.12295e-10
4.35236e-07
1.90252e-06
4.37146e-06
8.51113e-06
1.54166e-05
2.68597e-05
4.56683e-05
7.62861e-05
0.000125568
0.000203866
0.000326426
0.000515038
0.000799747
0.0012202
0.00182594
0.00267488
0.00382916
0.0053487
0.00728333
0.00966588
0.0125081
0.0158002
0.0195139
0.0236069
0.0280277
0.0327198
0.037625
0.0426859
0.0478477
0.0530592
0.0582742
0.0634512
0.0685545
0.0735534
0.0784229
0.0831426
0.0876966
0.0920724
0.0962615
0.100259
0.104061
0.107668
0.111081
0.114303
0.117337
0.120188
0.122861
0.12536
0.12769
0.129855
0.131858
0.1337
0.135383
0.136902
0.138252
0.139423
0.1404
0.14116
0.141671
0.141888
0.141769
0.141237
0.140213
0.138637
0.127881
0.116884
0.105848
0.0949286
0.0842505
0.0739161
0.0640106
0.0546079
0.0457743
0.0375731
0.0301001
0.023351
0.0174383
0.0124266
0.00836929
0.00528314
0.00311288
0.00171564
0.000891177
0.000440492
0.000210188
9.77522e-05
4.45038e-05
1.9897e-05
8.75714e-06
3.80196e-06
1.63122e-06
6.92764e-07
2.91625e-07
1.21796e-07
5.04618e-08
2.06864e-08
8.31522e-09
3.18869e-09
1.06732e-09
1.87319e-10
4.42629e-07
1.93479e-06
4.44545e-06
8.65477e-06
1.56757e-05
2.73078e-05
4.64221e-05
7.75255e-05
0.000127564
0.000207015
0.000331285
0.000522361
0.000810501
0.00123555
0.00184718
0.00270331
0.00386596
0.00539471
0.00733902
0.0097313
0.012583
0.0158843
0.0196071
0.0237092
0.0281393
0.0328412
0.0377568
0.042829
0.0480029
0.0532273
0.0584558
0.0636468
0.0687642
0.0737774
0.0786607
0.0833939
0.0879604
0.0923477
0.0965471
0.100553
0.104363
0.107976
0.111393
0.114617
0.117652
0.120502
0.123172
0.125666
0.12799
0.130147
0.13214
0.13397
0.135637
0.137137
0.138464
0.139605
0.140542
0.141248
0.141678
0.141783
0.141481
0.140645
0.139085
0.136369
0.125299
0.114118
0.102987
0.0920383
0.0813829
0.0711139
0.0613112
0.0520449
0.0433798
0.0353784
0.0280997
0.0216045
0.0159638
0.011237
0.00746651
0.00464967
0.002707
0.00147871
0.000764036
0.000376832
0.000179877
8.37765e-05
3.82172e-05
1.71241e-05
7.55348e-06
3.28636e-06
1.41278e-06
6.01053e-07
2.53412e-07
1.05978e-07
4.39571e-08
1.80366e-08
7.25566e-09
2.78352e-09
9.32092e-10
1.63619e-10
4.48919e-07
1.96218e-06
4.50804e-06
8.77576e-06
1.58928e-05
2.7682e-05
4.70494e-05
7.85547e-05
0.000129221
0.000209631
0.000335337
0.000528508
0.000819618
0.00124874
0.00186578
0.0027288
0.00389985
0.00543842
0.0073937
0.0097978
0.0126618
0.0159757
0.0197112
0.0238261
0.0282691
0.0329842
0.0379133
0.0429992
0.0481871
0.0534258
0.0586687
0.0638741
0.0690057
0.0740327
0.0789293
0.083675
0.088253
0.0926507
0.0968592
0.100873
0.104689
0.108306
0.111726
0.114951
0.117986
0.120833
0.123499
0.125988
0.128304
0.130452
0.132433
0.13425
0.135901
0.137382
0.138687
0.139803
0.140711
0.141385
0.141778
0.141847
0.141515
0.140671
0.139163
0.13338
0.122316
0.111137
0.100023
0.0891163
0.078532
0.0683633
0.058689
0.049578
0.0410931
0.0333096
0.0262514
0.0200021
0.0146236
0.0101682
0.0066663
0.00409571
0.00235592
0.0012749
0.000654577
0.00032168
0.00015341
7.14699e-05
3.26378e-05
1.46469e-05
6.47277e-06
2.8218e-06
1.21552e-06
5.18147e-07
2.18855e-07
9.16746e-08
3.80777e-08
1.56424e-08
6.29832e-09
2.41769e-09
8.09932e-10
1.42202e-10
4.54436e-07
1.98623e-06
4.56302e-06
8.88219e-06
1.60844e-05
2.80132e-05
4.76074e-05
7.94765e-05
0.000130717
0.000212017
0.000339073
0.000534242
0.000828231
0.00126137
0.00188383
0.00275386
0.00393361
0.00548254
0.00744963
0.0098667
0.0127445
0.0160728
0.019823
0.0239527
0.0284108
0.033141
0.0380853
0.0431865
0.0483895
0.0536433
0.0589009
0.0641207
0.0692662
0.0743064
0.0792155
0.0839726
0.088561
0.0929678
0.097184
0.101204
0.105024
0.108645
0.112066
0.115291
0.118324
0.121168
0.123829
0.12631
0.128618
0.130754
0.132723
0.134524
0.136157
0.137617
0.138898
0.139987
0.140865
0.141507
0.141869
0.141918
0.141584
0.140777
0.139385
0.13041
0.119389
0.108241
0.0971677
0.0863238
0.0758268
0.0657709
0.056234
0.047283
0.0389792
0.031413
0.0245716
0.0185579
0.0134279
0.00922677
0.00597226
0.00362355
0.00206173
0.00110652
0.000565016
0.000276793
0.000131885
6.1443e-05
2.80753e-05
1.26112e-05
5.57949e-06
2.43542e-06
1.05044e-06
4.48349e-07
1.89602e-07
7.95074e-08
3.30551e-08
1.35898e-08
5.47518e-09
2.1025e-09
7.04502e-10
1.23707e-10
4.59364e-07
2.00771e-06
4.61217e-06
8.97739e-06
1.62559e-05
2.83102e-05
4.81089e-05
8.03073e-05
0.00013207
0.000214186
0.00034249
0.000539527
0.000836237
0.00127323
0.00190095
0.00277792
0.00396644
0.00552597
0.00750537
0.00993616
0.0128288
0.0161726
0.0199387
0.0240847
0.0285591
0.0333056
0.038266
0.043383
0.0486017
0.0538706
0.0591429
0.0643767
0.0695355
0.074588
0.0795085
0.0842759
0.0888733
0.0932878
0.0975102
0.101535
0.105359
0.108981
0.112402
0.115626
0.118655
0.121495
0.124149
0.126622
0.128919
0.131044
0.132998
0.134781
0.136393
0.137829
0.139079
0.14013
0.140962
0.141546
0.141837
0.141803
0.141369
0.140457
0.139001
0.128059
0.116864
0.105641
0.0945611
0.083759
0.0733415
0.0633955
0.0539939
0.0452002
0.0370728
0.0296948
0.0230634
0.0172732
0.0123753
0.00840827
0.00537745
0.00322486
0.00181652
0.000967453
0.00049141
0.00023996
0.000114201
5.31859e-05
2.43072e-05
1.09248e-05
4.83739e-06
2.11357e-06
9.12594e-07
3.89934e-07
1.65071e-07
6.92871e-08
2.88299e-08
1.18608e-08
4.78112e-09
1.83653e-09
6.15478e-10
1.0809e-10
4.63852e-07
2.02728e-06
4.657e-06
9.06436e-06
1.64128e-05
2.85828e-05
4.85707e-05
8.10755e-05
0.000133327
0.000216212
0.0003457
0.000544522
0.000843855
0.00128459
0.00191747
0.00280128
0.00399852
0.00556869
0.00756052
0.0100053
0.0129131
0.0162728
0.0200555
0.0242182
0.0287093
0.0334724
0.0384491
0.0435822
0.0488163
0.0541
0.0593864
0.0646335
0.0698047
0.0748685
0.0797992
0.0845756
0.0891808
0.0936016
0.0978289
0.101857
0.105683
0.109305
0.112726
0.115947
0.118972
0.121805
0.124452
0.126917
0.129203
0.131315
0.133253
0.135019
0.136609
0.138018
0.139234
0.140241
0.141015
0.141513
0.141687
0.141472
0.140757
0.139393
0.1372
0.125932
0.114564
0.103268
0.0921828
0.0814243
0.0710867
0.0612491
0.0519791
0.0433368
0.0353785
0.0281571
0.0217259
0.016144
0.0114593
0.00770451
0.00487307
0.00289164
0.00161425
0.00085386
0.00043164
0.000210272
9.99438e-05
4.65188e-05
2.12579e-05
9.55653e-06
4.23347e-06
1.85086e-06
7.9974e-07
3.41976e-07
1.4488e-07
6.08549e-08
2.53369e-08
1.04291e-08
4.20561e-09
1.61578e-09
5.41553e-10
9.51189e-11
4.67976e-07
2.04527e-06
4.69823e-06
9.14444e-06
1.65576e-05
2.88346e-05
4.89982e-05
8.17884e-05
0.000134498
0.000218104
0.000348711
0.000549228
0.000851065
0.00129539
0.00193326
0.00282372
0.00402949
0.00561012
0.00761423
0.0100728
0.0129957
0.0163714
0.0201704
0.0243497
0.0288575
0.033637
0.0386298
0.0437783
0.0490273
0.0543252
0.0596249
0.0648843
0.0700667
0.0751408
0.0800805
0.0848646
0.0894762
0.093902
0.0981331
0.102163
0.10599
0.109612
0.11303
0.116247
0.119268
0.122095
0.124734
0.12719
0.129465
0.131564
0.133488
0.135237
0.136808
0.138194
0.139384
0.140359
0.141093
0.141538
0.141649
0.141348
0.140512
0.138969
0.134996
0.123692
0.112309
0.101028
0.0899868
0.0792974
0.0690511
0.0593239
0.050181
0.0416804
0.0338769
0.0268195
0.0205647
0.0151677
0.0106728
0.00710597
0.00444911
0.00261498
0.00144812
0.000761308
0.000383179
0.000186257
8.84141e-05
4.11237e-05
1.87874e-05
8.44619e-06
3.74258e-06
1.63693e-06
7.07677e-07
3.02787e-07
1.28353e-07
5.39433e-08
2.24701e-08
9.25278e-09
3.73246e-09
1.43417e-09
4.80711e-10
8.44442e-11
4.71774e-07
2.06185e-06
4.73624e-06
9.21833e-06
1.66913e-05
2.90676e-05
4.93946e-05
8.2451e-05
0.000135588
0.000219873
0.000351533
0.000553652
0.000857866
0.00130561
0.00194824
0.00284508
0.00405905
0.00564975
0.00766572
0.0101377
0.0130752
0.0164663
0.0202812
0.0244766
0.0290004
0.0337956
0.0388037
0.043967
0.04923
0.054541
0.0598529
0.0651236
0.0703161
0.0753991
0.0803466
0.0851372
0.089754
0.0941838
0.0984173
0.102449
0.106275
0.109895
0.113311
0.116524
0.119539
0.12236
0.124991
0.127437
0.129702
0.131789
0.1337
0.135435
0.13699
0.138359
0.139532
0.14049
0.141208
0.141644
0.141759
0.141487
0.140734
0.139384
0.132785
0.121528
0.110195
0.09897
0.0879968
0.0773886
0.0672366
0.0576162
0.0485915
0.0402197
0.0325642
0.0256532
0.0195567
0.0143254
0.00999973
0.00659897
0.00409417
0.00238608
0.00131207
0.000686081
0.000343981
0.000166871
7.91133e-05
3.67706e-05
1.67924e-05
7.54856e-06
3.34517e-06
1.46349e-06
6.32924e-07
2.70918e-07
1.14895e-07
4.83077e-08
2.01299e-08
8.29169e-09
3.34566e-09
1.28565e-09
4.3093e-10
7.57114e-11
4.75255e-07
2.07705e-06
4.77111e-06
9.28615e-06
1.68142e-05
2.92819e-05
4.97598e-05
8.30623e-05
0.000136597
0.000221511
0.000354152
0.000557767
0.000864204
0.00131516
0.00196226
0.00286511
0.00408681
0.00568703
0.00771421
0.0101989
0.0131501
0.0165558
0.0203858
0.0245963
0.0291352
0.0339451
0.0389675
0.0441444
0.0494202
0.0547433
0.0600662
0.0653468
0.0705483
0.0756391
0.0805931
0.0853891
0.09001
0.0944426
0.0986777
0.102709
0.106535
0.110153
0.113565
0.116773
0.119782
0.122596
0.125219
0.127655
0.12991
0.131985
0.133884
0.135604
0.137144
0.138498
0.139653
0.140594
0.141295
0.141715
0.141816
0.141533
0.14077
0.139404
0.130845
0.11962
0.108328
0.0971552
0.0862463
0.075714
0.0656492
0.0561262
0.0472084
0.0389522
0.0314271
0.0246455
0.0186903
0.0136056
0.00942874
0.00617275
0.00379883
0.00219754
0.00120096
0.000625029
0.000312296
0.000151227
7.1612e-05
3.32593e-05
1.51824e-05
6.82352e-06
3.02386e-06
1.3231e-06
5.72349e-07
2.45066e-07
1.03966e-07
4.37266e-08
1.82261e-08
7.50927e-09
3.03064e-09
1.16465e-09
3.9036e-10
6.8597e-11
4.78412e-07
2.09083e-06
4.80274e-06
9.34772e-06
1.69258e-05
2.94768e-05
5.00923e-05
8.36196e-05
0.000137517
0.000223008
0.00035655
0.00056154
0.000870025
0.00132394
0.00197517
0.00288357
0.00411242
0.00572144
0.007759
0.0102554
0.0132194
0.0166386
0.0204824
0.0247069
0.0292595
0.0340829
0.0391183
0.0443075
0.0495949
0.0549287
0.0602614
0.0655508
0.0707599
0.0758573
0.0808168
0.0856171
0.0902411
0.0946756
0.0989114
0.102943
0.106766
0.110381
0.113789
0.116993
0.119996
0.122802
0.125417
0.127844
0.130087
0.132151
0.134036
0.135742
0.137265
0.138601
0.139737
0.140657
0.141337
0.141733
0.141812
0.141505
0.140716
0.139331
0.12927
0.118034
0.106752
0.0956095
0.0847472
0.0742763
0.0642851
0.0548465
0.0460221
0.0378669
0.0304486
0.0237788
0.0179482
0.0129931
0.00894672
0.0058162
0.00355415
0.00204277
0.00111044
0.000575565
0.000286717
0.000138618
6.55699e-05
3.04312e-05
1.38852e-05
6.23906e-06
2.76466e-06
1.20976e-06
5.23402e-07
2.24157e-07
9.51191e-08
4.00155e-08
1.66828e-08
6.87468e-09
2.77506e-09
1.06647e-09
3.57434e-10
6.28246e-11
4.81228e-07
2.10312e-06
4.83097e-06
9.40269e-06
1.70256e-05
2.96511e-05
5.03897e-05
8.41187e-05
0.000138342
0.000224351
0.000358704
0.000564933
0.000875263
0.00133185
0.00198681
0.00290023
0.00413552
0.00575251
0.00779944
0.0103064
0.013282
0.0167133
0.0205695
0.0248065
0.0293715
0.034207
0.0392539
0.044454
0.0497516
0.0550947
0.0604358
0.0657327
0.0709483
0.0760512
0.0810151
0.0858188
0.090445
0.0948806
0.0991164
0.103147
0.106968
0.11058
0.113984
0.117182
0.120178
0.122977
0.125583
0.128
0.130233
0.132284
0.134154
0.135844
0.13735
0.138664
0.139777
0.140671
0.141322
0.141686
0.141734
0.1414
0.140598
0.139246
0.128126
0.116796
0.105474
0.0943283
0.0834903
0.0730636
0.0631319
0.0537646
0.0450214
0.0369561
0.0296271
0.0230755
0.0173348
0.0124798
0.00854462
0.00552109
0.00335319
0.00191658
0.00103709
0.000535662
0.000266143
0.00012849
6.07197e-05
2.81614e-05
1.28439e-05
5.7697e-06
2.5564e-06
1.11864e-06
4.84023e-07
2.07323e-07
8.7992e-08
3.70239e-08
1.5438e-08
6.36266e-09
2.56879e-09
9.87222e-10
3.30862e-10
5.81668e-11
4.83683e-07
2.11384e-06
4.85558e-06
9.45063e-06
1.71126e-05
2.98032e-05
5.06495e-05
8.4555e-05
0.000139064
0.000225528
0.000360591
0.000567907
0.000879859
0.00133879
0.00199703
0.00291485
0.00415583
0.0057798
0.00783496
0.0103512
0.0133369
0.0167788
0.020646
0.0248939
0.0294697
0.0343156
0.0393725
0.044582
0.0498883
0.0552394
0.0605876
0.0658907
0.0711117
0.0762189
0.0811863
0.0859925
0.0906202
0.0950563
0.0992916
0.10332
0.107139
0.110748
0.114147
0.11734
0.12033
0.123121
0.125719
0.128126
0.130347
0.132385
0.13424
0.135912
0.137397
0.138688
0.139771
0.14063
0.141236
0.141542
0.14152
0.141087
0.140148
0.138602
0.127261
0.115808
0.104428
0.0932666
0.0824418
0.0720486
0.0621653
0.0528576
0.0441836
0.0361973
0.028954
0.0224795
0.0168445
0.012079
0.00822239
0.0052817
0.00319056
0.00181489
0.000978235
0.000503752
0.000249729
0.000120418
5.6856e-05
2.63534e-05
1.20144e-05
5.39566e-06
2.39036e-06
1.04595e-06
4.52593e-07
1.9388e-07
8.2297e-08
3.46324e-08
1.44425e-08
5.95303e-09
2.40375e-09
9.23806e-10
3.09598e-10
5.44407e-11
4.85756e-07
2.12289e-06
4.87637e-06
9.49113e-06
1.71861e-05
2.99318e-05
5.08693e-05
8.49241e-05
0.000139675
0.000226524
0.00036219
0.000570429
0.000883756
0.00134468
0.0020057
0.00292727
0.00417306
0.00580297
0.00786512
0.0103893
0.0133835
0.0168344
0.0207108
0.024968
0.0295529
0.0344075
0.0394728
0.0446901
0.0500037
0.0553613
0.0607154
0.0660235
0.0712487
0.0763593
0.0813292
0.0861371
0.0907656
0.0952017
0.0994361
0.103463
0.107279
0.110885
0.11428
0.117467
0.120451
0.123235
0.125824
0.128222
0.130432
0.132456
0.134297
0.135951
0.137415
0.138681
0.139734
0.140554
0.14111
0.141357
0.141255
0.140716
0.139635
0.137905
0.12646
0.114947
0.103539
0.0923756
0.0815676
0.0712057
0.0613648
0.0521093
0.0434959
0.0355748
0.0283831
0.0219786
0.016416
0.011738
0.00796496
0.00509162
0.0030605
0.00173395
0.000931623
0.000478569
0.000236804
0.000114068
5.38179e-05
2.49319e-05
1.13621e-05
5.10151e-06
2.25974e-06
9.88747e-07
4.27848e-07
1.83292e-07
7.781e-08
3.27474e-08
1.36577e-08
5.63003e-09
2.2736e-09
8.73801e-10
2.92832e-10
5.15032e-11
4.87429e-07
2.1302e-06
4.89315e-06
9.52383e-06
1.72455e-05
3.00356e-05
5.10468e-05
8.52224e-05
0.000140168
0.00022733
0.000363483
0.000572469
0.000886911
0.00134945
0.00201272
0.00293732
0.00418702
0.00582173
0.00788954
0.0104201
0.0134212
0.0168794
0.0207633
0.0250279
0.0296201
0.0344818
0.0395538
0.0447774
0.0500967
0.0554595
0.0608181
0.0661301
0.0713585
0.0764716
0.0814432
0.086252
0.0908808
0.0953165
0.0995498
0.103575
0.107389
0.110991
0.114382
0.117565
0.120543
0.12332
0.125901
0.12829
0.13049
0.132503
0.13433
0.135968
0.137414
0.138657
0.139684
0.140472
0.140987
0.141185
0.14102
0.140401
0.139213
0.137274
0.125768
0.114222
0.102805
0.09165
0.0808639
0.0705342
0.0607331
0.0515218
0.0429503
0.035069
0.0279296
0.0215809
0.0160763
0.0114568
0.00774838
0.00494148
0.00296035
0.00167149
0.000895689
0.000459189
0.000226869
0.00010919
5.14848e-05
2.38404e-05
1.08613e-05
4.87563e-06
2.15943e-06
9.44812e-07
4.08841e-07
1.75158e-07
7.43626e-08
3.12991e-08
1.30547e-08
5.38187e-09
2.17362e-09
8.35393e-10
2.79955e-10
4.92475e-11
4.8869e-07
2.13571e-06
4.90579e-06
9.54845e-06
1.72902e-05
3.01139e-05
5.11805e-05
8.54471e-05
0.00014054
0.000227937
0.000364458
0.000574007
0.000889289
0.00135304
0.00201802
0.00294491
0.00419755
0.0058359
0.00790798
0.0104433
0.0134497
0.0169134
0.0208029
0.0250732
0.0296709
0.0345379
0.0396149
0.0448432
0.0501668
0.0555333
0.0608953
0.0662101
0.0714406
0.0765553
0.081528
0.0863372
0.090966
0.095401
0.0996331
0.103656
0.107468
0.111067
0.114455
0.117633
0.120606
0.123378
0.125953
0.128334
0.130525
0.132529
0.134344
0.13597
0.137401
0.138627
0.139635
0.140401
0.140891
0.141064
0.14087
0.140221
0.139006
0.136769
0.125221
0.113657
0.10224
0.091096
0.0803298
0.070024
0.0602491
0.051065
0.0425277
0.0346868
0.027589
0.0212838
0.0158243
0.011251
0.00758883
0.00482527
0.00288525
0.00162553
0.000869284
0.000444936
0.000219564
0.000105606
4.9771e-05
2.30391e-05
1.04937e-05
4.70993e-06
2.08588e-06
9.12609e-07
3.94914e-07
1.69201e-07
7.18384e-08
3.02391e-08
1.26135e-08
5.20039e-09
2.10054e-09
8.07325e-10
2.70549e-10
4.76e-11
4.8953e-07
2.13937e-06
4.9142e-06
9.56484e-06
1.73199e-05
3.01658e-05
5.12692e-05
8.55961e-05
0.000140787
0.000228339
0.000365104
0.000575025
0.000890864
0.00135542
0.00202153
0.00294993
0.00420454
0.0058453
0.00792022
0.0104588
0.0134687
0.0169361
0.0208293
0.0251034
0.0297048
0.0345754
0.0396557
0.0448871
0.0502136
0.0555826
0.0609467
0.0662633
0.0714952
0.0766107
0.0815838
0.0863931
0.0910214
0.0954557
0.0996867
0.103709
0.107518
0.111115
0.1145
0.117675
0.120645
0.123412
0.125982
0.128357
0.130542
0.132538
0.134345
0.135962
0.137382
0.138598
0.139593
0.140347
0.140825
0.140989
0.140791
0.140147
0.138952
0.136416
0.124838
0.113263
0.101846
0.0907096
0.0799556
0.0696673
0.0599138
0.0507549
0.0422437
0.0344304
0.0273611
0.0210856
0.0156567
0.0111147
0.00748354
0.00474897
0.00283375
0.00159455
0.000851685
0.000435479
0.00021472
0.000103228
4.86344e-05
2.25078e-05
1.02502e-05
4.60024e-06
2.03722e-06
8.91322e-07
3.85715e-07
1.65268e-07
7.01735e-08
2.95404e-08
1.2323e-08
5.08096e-09
2.05248e-09
7.88877e-10
2.6437e-10
4.65179e-11
4.89946e-07
2.14119e-06
4.91835e-06
9.57289e-06
1.73344e-05
3.01911e-05
5.13123e-05
8.56681e-05
0.000140906
0.000228532
0.000365413
0.000575512
0.000891614
0.00135656
0.0020232
0.00295233
0.00420787
0.00584978
0.00792608
0.0104662
0.0134778
0.016947
0.0208421
0.025118
0.0297212
0.0345937
0.0396757
0.0449087
0.0502365
0.0556068
0.060972
0.0662894
0.0715219
0.0766379
0.0816111
0.0864202
0.0910481
0.0954819
0.0997122
0.103733
0.107542
0.111137
0.11452
0.117694
0.120661
0.123426
0.125993
0.128365
0.130546
0.132537
0.13434
0.135951
0.137365
0.138574
0.139563
0.140311
0.140784
0.140947
0.140753
0.140121
0.138954
0.136235
0.124636
0.113053
0.101636
0.0905062
0.0797619
0.0694849
0.059744
0.0505986
0.0421015
0.0343027
0.0272483
0.0209882
0.0155749
0.0110486
0.00743283
0.00471253
0.0028094
0.00157935
0.000843038
0.000430846
0.000212358
0.000102073
4.80842e-05
2.22512e-05
1.01328e-05
4.54735e-06
2.01376e-06
8.81054e-07
3.81274e-07
1.63368e-07
6.93677e-08
2.92018e-08
1.21819e-08
5.02286e-09
2.02904e-09
7.79861e-10
2.61346e-10
4.59877e-11
4.89958e-07
2.14124e-06
4.91847e-06
9.57312e-06
1.73349e-05
3.01919e-05
5.13135e-05
8.56702e-05
0.000140909
0.000228537
0.000365421
0.000575525
0.000891635
0.00135658
0.00202324
0.00295239
0.00420795
0.00584988
0.00792621
0.0104664
0.013478
0.0169472
0.0208423
0.0251183
0.0297215
0.0345939
0.0396759
0.0449089
0.0502368
0.0556071
0.0609723
0.0662897
0.0715222
0.0766381
0.0816114
0.0864205
0.0910484
0.0954821
0.0997124
0.103733
0.107542
0.111137
0.114521
0.117694
0.120661
0.123426
0.125993
0.128365
0.130546
0.132537
0.13434
0.135951
0.137365
0.138574
0.139563
0.140311
0.140784
0.140947
0.140752
0.140121
0.138954
0.136234
0.124635
0.113052
0.101635
0.0905055
0.0797612
0.0694843
0.0597434
0.050598
0.042101
0.0343022
0.0272479
0.0209878
0.0155746
0.0110483
0.00743261
0.00471236
0.00280928
0.00157928
0.000842999
0.000430826
0.000212348
0.000102068
4.80819e-05
2.22501e-05
1.01323e-05
4.54712e-06
2.01366e-06
8.81011e-07
3.81256e-07
1.6336e-07
6.93644e-08
2.92004e-08
1.21814e-08
5.02263e-09
2.02894e-09
7.79822e-10
2.61334e-10
4.5985e-11
4.89564e-07
2.13952e-06
4.91455e-06
9.5655e-06
1.73211e-05
3.01679e-05
5.12728e-05
8.5602e-05
0.000140797
0.000228354
0.000365128
0.000575063
0.000890921
0.00135551
0.00202165
0.0029501
0.00420476
0.00584559
0.00792059
0.0104592
0.0134692
0.0169366
0.0208299
0.0251041
0.0297055
0.0345762
0.0396565
0.044888
0.0502144
0.0555835
0.0609476
0.0662641
0.071496
0.0766116
0.0815846
0.0863939
0.0910222
0.0954564
0.0996874
0.103709
0.107519
0.111116
0.1145
0.117676
0.120645
0.123412
0.125982
0.128358
0.130542
0.132538
0.134345
0.135961
0.137382
0.138597
0.139592
0.140346
0.140824
0.140989
0.140791
0.140147
0.138951
0.136412
0.124835
0.113261
0.101843
0.0907074
0.0799536
0.0696654
0.0599121
0.0507532
0.0422422
0.034429
0.0273598
0.0210845
0.0156558
0.0111139
0.00748288
0.00474849
0.00283344
0.00159438
0.000851595
0.000435435
0.000214698
0.000103218
4.86297e-05
2.25056e-05
1.02492e-05
4.59979e-06
2.03702e-06
8.91236e-07
3.85678e-07
1.65252e-07
7.01669e-08
2.95377e-08
1.23218e-08
5.08047e-09
2.05225e-09
7.88786e-10
2.64342e-10
4.65115e-11
4.88747e-07
2.13596e-06
4.90636e-06
9.54957e-06
1.72922e-05
3.01174e-05
5.11865e-05
8.5457e-05
0.000140557
0.000227963
0.0003645
0.000574071
0.000889387
0.00135319
0.00201823
0.00294519
0.00419794
0.0058364
0.00790861
0.0104441
0.0134506
0.0169144
0.020804
0.0250744
0.0296722
0.0345393
0.0396163
0.0448446
0.0501682
0.0555348
0.0608967
0.0662115
0.0714421
0.0765567
0.0815293
0.0863386
0.0909673
0.0954022
0.0996343
0.103658
0.107469
0.111068
0.114456
0.117634
0.120607
0.123379
0.125953
0.128335
0.130526
0.132529
0.134344
0.13597
0.137401
0.138627
0.139634
0.1404
0.14089
0.141063
0.14087
0.140221
0.139004
0.136763
0.125216
0.113653
0.102235
0.0910921
0.0803261
0.0700205
0.0602459
0.0510622
0.0425251
0.0346845
0.0275869
0.0212819
0.0158226
0.0112496
0.00758774
0.00482449
0.00288476
0.00162525
0.000869127
0.000444853
0.000219522
0.000105586
4.97616e-05
2.30348e-05
1.04918e-05
4.70909e-06
2.08551e-06
9.12451e-07
3.94847e-07
1.69172e-07
7.18265e-08
3.02342e-08
1.26115e-08
5.19954e-09
2.10015e-09
8.07172e-10
2.70502e-10
4.75891e-11
4.87508e-07
2.13054e-06
4.89393e-06
9.52536e-06
1.72482e-05
3.00405e-05
5.1055e-05
8.5236e-05
0.000140191
0.000227365
0.00036354
0.000572557
0.000887044
0.00134964
0.00201301
0.00293772
0.00418755
0.00582243
0.00789041
0.0104211
0.0134224
0.0168808
0.0207648
0.0250296
0.0296219
0.0344837
0.0395557
0.0447794
0.0500987
0.0554615
0.0608202
0.0661322
0.0713605
0.0764736
0.0814452
0.086254
0.0908827
0.0953183
0.0995516
0.103577
0.10739
0.110992
0.114383
0.117566
0.120544
0.123321
0.125902
0.128291
0.130491
0.132504
0.13433
0.135969
0.137414
0.138657
0.139684
0.140471
0.140986
0.141185
0.14102
0.1404
0.13921
0.137267
0.125762
0.114217
0.1028
0.0916448
0.0808589
0.0705295
0.0607287
0.0515176
0.0429465
0.0350657
0.0279266
0.0215783
0.016074
0.0114549
0.007747
0.00494052
0.00295972
0.0016711
0.000895462
0.000459071
0.00022681
0.000109163
5.14719e-05
2.38346e-05
1.08587e-05
4.87449e-06
2.15894e-06
9.44601e-07
4.08752e-07
1.75121e-07
7.43469e-08
3.12926e-08
1.3052e-08
5.38074e-09
2.1731e-09
8.35187e-10
2.79891e-10
4.92327e-11
4.85854e-07
2.12333e-06
4.87736e-06
9.49306e-06
1.71896e-05
2.99379e-05
5.08796e-05
8.49413e-05
0.000139703
0.000226569
0.000362262
0.00057054
0.000883925
0.00134493
0.00200606
0.00292777
0.00417374
0.00580385
0.00786623
0.0103906
0.0133851
0.0168362
0.0207128
0.0249702
0.0295552
0.03441
0.0394753
0.0446927
0.0500063
0.055364
0.0607181
0.0660262
0.0712514
0.076362
0.0813318
0.0861396
0.0907681
0.0952041
0.0994384
0.103465
0.107282
0.110887
0.114282
0.117469
0.120453
0.123237
0.125826
0.128223
0.130433
0.132458
0.134298
0.135952
0.137416
0.138682
0.139734
0.140554
0.14111
0.141357
0.141254
0.140714
0.139631
0.137899
0.126455
0.114941
0.103533
0.0923691
0.0815612
0.0711995
0.061359
0.052104
0.0434911
0.0355709
0.02838
0.0219763
0.0164139
0.011736
0.00796323
0.00509027
0.00305955
0.00173337
0.000931304
0.000478405
0.000236725
0.000114032
5.38011e-05
2.49244e-05
1.13588e-05
5.10006e-06
2.25912e-06
9.88481e-07
4.27736e-07
1.83245e-07
7.77904e-08
3.27393e-08
1.36544e-08
5.62863e-09
2.27295e-09
8.73544e-10
2.92751e-10
5.14848e-11
4.83801e-07
2.11436e-06
4.85677e-06
9.45295e-06
1.71168e-05
2.98105e-05
5.06619e-05
8.45756e-05
0.000139097
0.000225582
0.000360677
0.000568041
0.000880062
0.00133909
0.00199746
0.00291546
0.00415665
0.00578087
0.00783631
0.0103529
0.0133388
0.016781
0.0206484
0.0248966
0.0294726
0.0343186
0.0393756
0.0445852
0.0498916
0.0552427
0.060591
0.0658941
0.071115
0.0762222
0.0811895
0.0859956
0.0906233
0.0950593
0.0992945
0.103323
0.107142
0.11075
0.11415
0.117343
0.120332
0.123124
0.125721
0.128128
0.130349
0.132387
0.134242
0.135914
0.137399
0.138689
0.139773
0.140631
0.141237
0.141542
0.141519
0.141084
0.140143
0.138597
0.127256
0.115802
0.104421
0.0932593
0.0824344
0.0720416
0.0621588
0.0528519
0.0441788
0.0361939
0.028953
0.0224835
0.0168439
0.0120769
0.00822012
0.00527989
0.00318933
0.00181414
0.000977823
0.000503542
0.000249629
0.000120372
5.68349e-05
2.6344e-05
1.20102e-05
5.39388e-06
2.3896e-06
1.04563e-06
4.52456e-07
1.93823e-07
8.22732e-08
3.46226e-08
1.44385e-08
5.95133e-09
2.40297e-09
9.23495e-10
3.095e-10
5.44185e-11
4.81366e-07
2.10373e-06
4.83235e-06
9.40538e-06
1.70304e-05
2.96596e-05
5.04041e-05
8.41427e-05
0.000138381
0.000224415
0.000358804
0.000565089
0.0008755
0.0013322
0.00198732
0.00290094
0.00413648
0.00575376
0.00780102
0.0103083
0.0132842
0.0167159
0.0205724
0.0248097
0.0293749
0.0342106
0.0392576
0.0444578
0.0497555
0.0550987
0.0604398
0.0657367
0.0709523
0.0760551
0.081019
0.0858226
0.0904488
0.0948843
0.09912
0.10315
0.106971
0.110583
0.113987
0.117185
0.120181
0.12298
0.125586
0.128003
0.130235
0.132286
0.134157
0.135846
0.137352
0.138667
0.139779
0.140673
0.141323
0.141687
0.141734
0.141398
0.140595
0.139243
0.128121
0.116787
0.105465
0.094319
0.0834813
0.073055
0.0631236
0.0537567
0.0450137
0.0369481
0.0296176
0.023062
0.0173269
0.0124747
0.00854109
0.00551864
0.00335159
0.00191563
0.00103657
0.0005354
0.000266019
0.000128433
6.06939e-05
2.815e-05
1.28389e-05
5.76755e-06
2.55549e-06
1.11825e-06
4.8386e-07
2.07255e-07
8.79638e-08
3.70123e-08
1.54333e-08
6.36065e-09
2.56787e-09
9.86856e-10
3.30746e-10
5.81409e-11
4.78569e-07
2.09151e-06
4.80431e-06
9.35079e-06
1.69314e-05
2.94865e-05
5.01087e-05
8.3647e-05
0.000137562
0.00022308
0.000356664
0.000561718
0.000870295
0.00132434
0.00197575
0.00288439
0.00411351
0.00572288
0.00776081
0.0102576
0.013222
0.0166416
0.0204857
0.0247106
0.0292635
0.0340871
0.0391226
0.044312
0.0495995
0.0549333
0.0602661
0.0655554
0.0707645
0.0758619
0.0808213
0.0856216
0.0902455
0.0946799
0.0989156
0.102947
0.10677
0.110385
0.113793
0.116997
0.119999
0.122805
0.12542
0.127847
0.13009
0.132154
0.134039
0.135744
0.137268
0.138604
0.13974
0.14066
0.141339
0.141735
0.141813
0.141505
0.140715
0.139331
0.129258
0.118021
0.10674
0.0955975
0.0847359
0.0742656
0.064275
0.0548367
0.0460125
0.0378572
0.0304388
0.0237686
0.0179406
0.0129876
0.00894259
0.00581326
0.00355221
0.00204161
0.00110981
0.000575247
0.000286566
0.000138549
6.55389e-05
3.04175e-05
1.38793e-05
6.2365e-06
2.76358e-06
1.20931e-06
5.23211e-07
2.24077e-07
9.50863e-08
4.0002e-08
1.66773e-08
6.87234e-09
2.774e-09
1.06605e-09
3.57298e-10
6.27945e-11
4.7543e-07
2.07781e-06
4.77287e-06
9.28958e-06
1.68204e-05
2.92927e-05
4.97782e-05
8.30929e-05
0.000136647
0.000221591
0.00035428
0.000557966
0.000864507
0.00131561
0.00196291
0.00286602
0.00408804
0.00568864
0.00771626
0.0102014
0.0131531
0.0165592
0.0203896
0.0246005
0.0291396