/*--------------------------------*- C++ -*----------------------------------*\
  =========                 |
  \\      /  F ield         | OpenFOAM: The Open Source CFD Toolbox
   \\    /   O peration     | Website:  https://openfoam.org
    \\  /    A nd           | Version:  8
     \\/     M anipulation  |
\*---------------------------------------------------------------------------*/
FoamFile
{
    version     2.0;
    format      ascii;
    class       volScalarField;
    location    "280/fluid";
    object      H2O;
}
// * * * * * * * * * * * * * * * * * * * * * * * * * * * * * * * * * * * * * //

dimensions      [0 0 0 0 0 0 0];

internalField   nonuniform List<scalar> 
4000
(
3.36685e-07
1.47041e-06
3.37298e-06
6.55308e-06
1.18428e-05
2.05896e-05
3.49509e-05
5.83324e-05
9.60237e-05
0.000156081
0.000250491
0.000396587
0.000618573
0.000948807
0.00142826
0.0021054
0.00303284
0.00426172
0.00583477
0.00777998
0.0101069
0.0128062
0.0158529
0.0192098
0.0228324
0.0266729
0.0306825
0.0348139
0.0390224
0.0432666
0.0475095
0.0517183
0.0558648
0.059925
0.0638793
0.0677121
0.0714108
0.0749663
0.0783717
0.0816232
0.0847187
0.0876578
0.0904415
0.0930721
0.0955525
0.0978862
0.100077
0.102129
0.104045
0.10583
0.107485
0.109013
0.110413
0.111685
0.112825
0.113825
0.114677
0.115362
0.11586
0.116132
0.116147
0.115838
0.115118
0.113865
0.109522
0.100757
0.0918975
0.0830717
0.0743844
0.0659209
0.057752
0.0499375
0.0425296
0.0355761
0.0291237
0.0232263
0.0179176
0.0132685
0.00933674
0.006174
0.00379955
0.00216595
0.00114683
0.000569059
0.000269401
0.000123581
5.53325e-05
2.43073e-05
1.05168e-05
4.49461e-06
1.90174e-06
7.98077e-07
3.32629e-07
1.37788e-07
5.67037e-08
2.3114e-08
9.24567e-09
3.53188e-09
1.17902e-09
2.06523e-10
3.41787e-07
1.4935e-06
3.42935e-06
6.67148e-06
1.20751e-05
2.10265e-05
3.57442e-05
5.97268e-05
9.83951e-05
0.000159976
0.000256654
0.000405946
0.000632156
0.000967562
0.00145278
0.00213558
0.00306764
0.00429905
0.00587177
0.00781357
0.0101344
0.0128261
0.0158647
0.0192145
0.022832
0.0266698
0.0306793
0.034813
0.0390262
0.043277
0.047528
0.0517459
0.0559019
0.0599718
0.0639355
0.0677772
0.0714841
0.0750469
0.0784588
0.0817157
0.0848156
0.0877582
0.0905446
0.0931769
0.0956581
0.0979919
0.100182
0.102233
0.104147
0.105929
0.107581
0.109105
0.110501
0.111768
0.112902
0.113897
0.114741
0.115421
0.115913
0.116183
0.1162
0.115904
0.115218
0.114034
0.10838
0.0995955
0.0907084
0.0818536
0.0731396
0.0646544
0.0564706
0.0486497
0.041246
0.0343103
0.0279023
0.0220506
0.0168262
0.0122922
0.00850891
0.00552296
0.00333571
0.00187194
0.000981816
0.000486267
0.00023123
0.000106897
4.83157e-05
2.14348e-05
9.36147e-06
4.03466e-06
1.71953e-06
7.25989e-07
3.04094e-07
1.26486e-07
5.22322e-08
2.13552e-08
8.56526e-09
3.27965e-09
1.09633e-09
1.92264e-10
3.49403e-07
1.52729e-06
3.50914e-06
6.83203e-06
1.23757e-05
2.15648e-05
3.66766e-05
6.12947e-05
0.000100957
0.000164041
0.00026291
0.000415265
0.000645566
0.000986156
0.00147756
0.00216726
0.00310634
0.00434418
0.00592193
0.00786679
0.0101885
0.0128791
0.0159153
0.019262
0.0228769
0.0267133
0.0307234
0.0348599
0.0390779
0.0433356
0.0475951
0.0518228
0.0559895
0.0600705
0.0640456
0.0678983
0.0716158
0.0751883
0.0786089
0.0818734
0.0849797
0.0879275
0.0907177
0.0933528
0.0958355
0.0981697
0.100359
0.102408
0.104319
0.106097
0.107744
0.109262
0.11065
0.111907
0.113029
0.11401
0.114838
0.115497
0.115967
0.116211
0.116204
0.115888
0.115194
0.114036
0.106567
0.0977556
0.0888306
0.0799444
0.0712133
0.0627285
0.0545646
0.0467843
0.0394435
0.0325948
0.0263167
0.0206066
0.0155573
0.0112278
0.00767041
0.00491443
0.00293589
0.00163594
0.000855846
0.000424435
0.000202494
9.4002e-05
4.26755e-05
1.90146e-05
8.33768e-06
3.60603e-06
1.54136e-06
6.52293e-07
2.73709e-07
1.13991e-07
4.71144e-08
1.9275e-08
7.73497e-09
2.96277e-09
9.90774e-10
1.73804e-10
3.56324e-07
1.55758e-06
3.57888e-06
6.96798e-06
1.26214e-05
2.19898e-05
3.73882e-05
6.24547e-05
0.000102801
0.000166903
0.000267242
0.000421657
0.000654746
0.000998966
0.00149488
0.0021899
0.0031349
0.00437893
0.0059628
0.00791337
0.0102402
0.0129354
0.0159758
0.0193268
0.022946
0.0267874
0.0308033
0.0349466
0.0391725
0.0434391
0.0477086
0.051947
0.0561249
0.0602175
0.0642041
0.0680681
0.0717964
0.0753788
0.0788084
0.0820808
0.0851937
0.0881468
0.090941
0.0935787
0.0960628
0.0983969
0.100585
0.102631
0.104538
0.106311
0.107951
0.109459
0.110837
0.11208
0.113186
0.114144
0.114944
0.115567
0.115985
0.116163
0.116065
0.11563
0.114791
0.113501
0.104695
0.0956923
0.086657
0.0777172
0.0689751
0.0605145
0.052405
0.044707
0.037475
0.0307608
0.0246427
0.0191173
0.0142766
0.0101736
0.00685186
0.00432526
0.00254849
0.00140458
0.000729598
0.000360627
0.000172079
8.00289e-05
3.64349e-05
1.62895e-05
7.16939e-06
3.11263e-06
1.33547e-06
5.6716e-07
2.38751e-07
9.97135e-08
4.13126e-08
1.69358e-08
6.8076e-09
2.61055e-09
8.73803e-10
1.53356e-10
3.62377e-07
1.58399e-06
3.63945e-06
7.08559e-06
1.28335e-05
2.23567e-05
3.80054e-05
6.34695e-05
0.000104436
0.000169481
0.00027122
0.000427653
0.00066355
0.00101153
0.00151227
0.00221318
0.00316503
0.0044166
0.00600839
0.00796693
0.0103016
0.0130044
0.0160522
0.0194105
0.0230374
0.0268868
0.0309112
0.0350637
0.0392995
0.0435767
0.0478572
0.0521071
0.0562967
0.0604009
0.0643989
0.0682738
0.0720124
0.0756042
0.0790422
0.0823219
0.0854408
0.0883986
0.0911962
0.0938359
0.0963205
0.0986538
0.10084
0.102882
0.104784
0.10655
0.108182
0.10968
0.111045
0.112273
0.113359
0.114293
0.11506
0.115638
0.11599
0.116076
0.11583
0.115145
0.113868
0.111644
0.102581
0.0934275
0.0843145
0.075351
0.0666275
0.0582204
0.0501949
0.0426087
0.0355147
0.028964
0.023005
0.0176874
0.0130694
0.00919961
0.00611277
0.00380664
0.0022162
0.00121061
0.000625509
0.000308509
0.000147264
6.85871e-05
3.12881e-05
1.40194e-05
6.18397e-06
2.69051e-06
1.15663e-06
4.92077e-07
2.07466e-07
8.6763e-08
3.59873e-08
1.47664e-08
5.94014e-09
2.27885e-09
7.63095e-10
1.33954e-10
3.67526e-07
1.60642e-06
3.6907e-06
7.18464e-06
1.30113e-05
2.2663e-05
3.85189e-05
6.43121e-05
0.000105792
0.000171623
0.000274538
0.000432685
0.000671014
0.00102233
0.0015275
0.00223405
0.00319278
0.00445239
0.00605316
0.00802137
0.0103661
0.0130792
0.0161374
0.0195062
0.0231437
0.0270039
0.0310393
0.0352031
0.0394504
0.0437393
0.0480315
0.0522931
0.0564944
0.0606099
0.0646187
0.0685039
0.072252
0.0758523
0.0792977
0.0825836
0.0857076
0.088669
0.091469
0.0941096
0.0965938
0.0989252
0.101108
0.103145
0.105042
0.1068
0.108422
0.109909
0.111261
0.112473
0.113542
0.114455
0.115199
0.115751
0.116072
0.116129
0.115857
0.115166
0.113932
0.109197
0.100139
0.0909867
0.0818877
0.0729587
0.0642935
0.0559684
0.0480482
0.0405891
0.0336425
0.0272702
0.0214918
0.0163755
0.0119722
0.00832464
0.00545764
0.00335312
0.00192877
0.00104375
0.000535896
0.000263356
0.000125596
5.85118e-05
2.67203e-05
1.19913e-05
5.2992e-06
2.31018e-06
9.95138e-07
4.24202e-07
1.79175e-07
7.50532e-08
3.11739e-08
1.28063e-08
5.15638e-09
1.97934e-09
6.63084e-10
1.16419e-10
3.72043e-07
1.62611e-06
3.73571e-06
7.27177e-06
1.31681e-05
2.29342e-05
3.89758e-05
6.50667e-05
0.000107017
0.000173576
0.000277596
0.000437379
0.000678065
0.00103268
0.00154227
0.00225456
0.00322041
0.0044885
0.00609894
0.00807778
0.0104338
0.0131587
0.0162289
0.0196099
0.0232597
0.0271323
0.0311801
0.0353564
0.0396161
0.0439173
0.0482216
0.0524951
0.0567077
0.060834
0.064853
0.0687476
0.0725041
0.0761119
0.0795637
0.0828547
0.0859824
0.0889464
0.0917475
0.0943879
0.0968706
0.0991991
0.101377
0.103409
0.105298
0.107047
0.108659
0.110134
0.11147
0.112666
0.113715
0.114606
0.115325
0.115851
0.116147
0.116187
0.115914
0.115253
0.114113
0.106765
0.0977429
0.0886156
0.0795504
0.0706725
0.0620787
0.0538461
0.0460382
0.0387102
0.0319119
0.0257175
0.0201165
0.0151932
0.0109933
0.00755387
0.00488944
0.00296657
0.00168792
0.000905895
0.000462574
0.000226608
0.000107973
5.03029e-05
2.2985e-05
1.03247e-05
4.56788e-06
1.99386e-06
8.5999e-07
3.67059e-07
1.55225e-07
6.5092e-08
2.70619e-08
1.11258e-08
4.48249e-09
1.7213e-09
5.76769e-10
1.01278e-10
3.76077e-07
1.64369e-06
3.77594e-06
7.34971e-06
1.33085e-05
2.31773e-05
3.93864e-05
6.57469e-05
0.000108125
0.000175352
0.000280394
0.000441706
0.00068462
0.00104238
0.00155629
0.00227425
0.00324729
0.00452406
0.00614458
0.00813465
0.0105028
0.0132404
0.0163237
0.019718
0.0233811
0.027267
0.031328
0.0355173
0.0397898
0.0441034
0.0484198
0.0527046
0.0569281
0.0610646
0.0650929
0.0689959
0.0727598
0.0763739
0.0798308
0.0831257
0.0862561
0.0892215
0.0920227
0.0946619
0.097142
0.0994666
0.101639
0.103665
0.105545
0.107284
0.108884
0.110344
0.111664
0.112839
0.113863
0.114723
0.115405
0.115883
0.116121
0.116093
0.115738
0.114991
0.113799
0.104841
0.0956758
0.0864874
0.0774164
0.0685728
0.060044
0.0519013
0.0442043
0.037005
0.0303512
0.0243109
0.0188818
0.0141414
0.0101315
0.00688378
0.00440247
0.00264016
0.00148717
0.000792045
0.000402313
0.000196453
9.34957e-05
4.35429e-05
1.99001e-05
8.94407e-06
3.96033e-06
1.73036e-06
7.47133e-07
3.19236e-07
1.35142e-07
5.67247e-08
2.36028e-08
9.71036e-09
3.91426e-09
1.50355e-09
5.03886e-10
8.84923e-11
3.79752e-07
1.65972e-06
3.81264e-06
7.42091e-06
1.34371e-05
2.34005e-05
3.97644e-05
6.63758e-05
0.000109154
0.000177011
0.000283022
0.000445795
0.000690857
0.00105168
0.00156981
0.00229338
0.00327356
0.00455904
0.00618973
0.00819124
0.0105718
0.0133224
0.0164192
0.0198272
0.023504
0.0274035
0.031478
0.0356803
0.0399655
0.0442912
0.0486192
0.0529149
0.0571485
0.0612942
0.0653309
0.0692413
0.0730115
0.0766308
0.0800917
0.0833894
0.0865215
0.0894872
0.0922875
0.0949245
0.0974012
0.0997211
0.101888
0.103906
0.105778
0.107506
0.109093
0.110539
0.111841
0.112994
0.11399
0.114814
0.115448
0.115855
0.115998
0.115822
0.115237
0.11412
0.112324
0.103099
0.0937929
0.0845445
0.0754693
0.0666613
0.0581981
0.0501441
0.0425548
0.0354795
0.028964
0.0230519
0.0177868
0.013217
0.00938167
0.00630762
0.00398954
0.00236736
0.00132157
0.000699048
0.00035338
0.000172148
8.18231e-05
3.80845e-05
1.74037e-05
7.82384e-06
3.46591e-06
1.51528e-06
6.5474e-07
2.79973e-07
1.18612e-07
4.98214e-08
2.07431e-08
8.53821e-09
3.4431e-09
1.32282e-09
4.43364e-10
7.7873e-11
3.83128e-07
1.67445e-06
3.8464e-06
7.48647e-06
1.35556e-05
2.36066e-05
4.01144e-05
6.69594e-05
0.000110112
0.00017856
0.000285487
0.000449648
0.00069676
0.00106053
0.00158274
0.00231176
0.00329891
0.00459295
0.0062337
0.00824654
0.0106395
0.0134031
0.0165133
0.0199349
0.0236254
0.0275383
0.0316259
0.0358409
0.0401383
0.0444756
0.0488144
0.0531202
0.057363
0.0615171
0.0655612
0.0694779
0.0732534
0.0768768
0.0803407
0.0836402
0.0867729
0.0897381
0.0925367
0.0951708
0.0976435
0.0999582
0.102119
0.104129
0.105992
0.10771
0.109286
0.110718
0.112004
0.113138
0.114113
0.114911
0.115511
0.115876
0.115967
0.11572
0.115036
0.113773
0.11052
0.101265
0.0919467
0.0827108
0.0736714
0.0649201
0.0565316
0.048568
0.0410827
0.0341234
0.0277347
0.0219569
0.0168362
0.0124177
0.00873773
0.00581759
0.00364245
0.00214086
0.00118557
0.000623276
0.000313706
0.000152487
7.23838e-05
3.36676e-05
1.53811e-05
6.91482e-06
3.06401e-06
1.34014e-06
5.79369e-07
2.47889e-07
1.05082e-07
4.41629e-08
1.8396e-08
7.57517e-09
3.05573e-09
1.17414e-09
3.93554e-10
6.91337e-11
3.86237e-07
1.68802e-06
3.87752e-06
7.54696e-06
1.3665e-05
2.37974e-05
4.0439e-05
6.75019e-05
0.000111005
0.000180008
0.000287797
0.00045327
0.000702327
0.00106889
0.001595
0.00232924
0.0033231
0.0046254
0.00627586
0.00829966
0.0107045
0.0134808
0.016604
0.0200388
0.0237424
0.0276681
0.0317683
0.0359954
0.0403041
0.0446523
0.0490011
0.0533161
0.0575672
0.0617286
0.065779
0.0697011
0.0734808
0.0771074
0.0805734
0.0838739
0.0870064
0.0899703
0.0927665
0.0953972
0.0978654
0.100175
0.102329
0.104331
0.106186
0.107894
0.109459
0.110879
0.112152
0.113273
0.114233
0.115018
0.115606
0.115963
0.116056
0.115834
0.115218
0.114113
0.10871
0.0994938
0.0902155
0.0810258
0.0720422
0.0633574
0.0550461
0.0471699
0.0397814
0.0329275
0.02666
0.0210021
0.0160109
0.0117281
0.0081867
0.00540252
0.00335186
0.00195347
0.00107418
0.000561688
0.000281615
0.000136616
6.47694e-05
3.01037e-05
1.37478e-05
6.17994e-06
2.73866e-06
1.19814e-06
5.18169e-07
2.21798e-07
9.40637e-08
3.9549e-08
1.64802e-08
6.78834e-09
2.73907e-09
1.05255e-09
3.52798e-10
6.19843e-11
3.89087e-07
1.70046e-06
3.90606e-06
7.60249e-06
1.37656e-05
2.39728e-05
4.07379e-05
6.80024e-05
0.00011183
0.000181349
0.000289941
0.000456639
0.000707517
0.00107671
0.00160649
0.00234564
0.00334583
0.00465592
0.00631556
0.00834974
0.0107659
0.0135541
0.0166897
0.0201368
0.0238527
0.0277906
0.0319023
0.0361406
0.0404599
0.0448178
0.0491757
0.0534989
0.0577572
0.061925
0.0659809
0.0699073
0.0736904
0.0773193
0.0807865
0.0840873
0.0872189
0.090181
0.0929744
0.0956013
0.0980647
0.100368
0.102515
0.10451
0.106356
0.108055
0.109609
0.111018
0.112279
0.113387
0.114333
0.115103
0.115677
0.116021
0.116103
0.115872
0.115247
0.114129
0.107121
0.0979315
0.0886869
0.0795401
0.0706091
0.0619864
0.0537464
0.04595
0.0386491
0.0318898
0.0257291
0.020177
0.0153016
0.0111388
0.00771922
0.00505357
0.00311007
0.00179911
0.000983214
0.000511705
0.000255674
0.000123808
5.86281e-05
2.72291e-05
1.24297e-05
5.58635e-06
2.47561e-06
1.08321e-06
4.68577e-07
2.00633e-07
8.5116e-08
3.57986e-08
1.49215e-08
6.14777e-09
2.48116e-09
9.53491e-10
3.19585e-10
5.61597e-11
3.91672e-07
1.71174e-06
3.93196e-06
7.6529e-06
1.3857e-05
2.41324e-05
4.10101e-05
6.84586e-05
0.000112584
0.000182575
0.000291904
0.000459728
0.000712282
0.0010839
0.00161706
0.00236076
0.0033668
0.00468409
0.00635223
0.00839601
0.0108226
0.0136219
0.0167687
0.0202273
0.0239545
0.0279034
0.0320258
0.0362742
0.0406029
0.0449696
0.0493355
0.0536658
0.0579305
0.0621037
0.066164
0.070094
0.0738796
0.0775101
0.0809779
0.0842782
0.0874085
0.0903683
0.0931584
0.0957812
0.0982395
0.100537
0.102677
0.104665
0.106501
0.108191
0.109734
0.11113
0.112378
0.113472
0.114402
0.115155
0.115711
0.116035
0.1161
0.115849
0.115203
0.114069
0.105832
0.0966333
0.0873972
0.0782747
0.0693818
0.0608093
0.0526297
0.0449023
0.0376778
0.0310013
0.024928
0.0194675
0.014694
0.0106374
0.0073246
0.00476168
0.00290975
0.0016724
0.000909108
0.00047121
0.000234733
0.000113485
5.36815e-05
2.49138e-05
1.13677e-05
5.10786e-06
2.26341e-06
9.90421e-07
4.28505e-07
1.83515e-07
7.78732e-08
3.27603e-08
1.3658e-08
5.62824e-09
2.27192e-09
8.73111e-10
2.92628e-10
5.1434e-11
3.93977e-07
1.72181e-06
3.95507e-06
7.6979e-06
1.39387e-05
2.42751e-05
4.12536e-05
6.88672e-05
0.000113259
0.000183675
0.000293668
0.000462506
0.00071657
0.00109037
0.00162658
0.00237439
0.00338572
0.00470953
0.00638533
0.00843778
0.0108738
0.013683
0.0168401
0.0203089
0.0240462
0.028005
0.0321368
0.0363941
0.0407312
0.0451055
0.0494783
0.0538148
0.0580848
0.0622624
0.0663263
0.0702591
0.0740465
0.0776779
0.0811458
0.0844452
0.0875738
0.0905309
0.0933176
0.095936
0.0983891
0.10068
0.102814
0.104793
0.106621
0.1083
0.109831
0.111214
0.112447
0.113523
0.114434
0.115166
0.115699
0.115997
0.116037
0.115763
0.115107
0.114
0.104896
0.0956195
0.0863504
0.0772258
0.0683528
0.0598165
0.0516855
0.0440166
0.0368586
0.0302557
0.0242554
0.0188917
0.0141919
0.0102171
0.0069954
0.00452007
0.00274523
0.00156909
0.000849059
0.000438542
0.000217889
0.000105194
4.97107e-05
2.30555e-05
1.05152e-05
4.7236e-06
2.0929e-06
9.15819e-07
3.96265e-07
1.69734e-07
7.20382e-08
3.03112e-08
1.2639e-08
5.20905e-09
2.10305e-09
8.0823e-10
2.70873e-10
4.76207e-11
3.95987e-07
1.73058e-06
3.97522e-06
7.73715e-06
1.40099e-05
2.43996e-05
4.14663e-05
6.92244e-05
0.00011385
0.000184638
0.000295213
0.000464941
0.000720332
0.00109605
0.00163495
0.00238636
0.00340234
0.00473187
0.00641441
0.00847447
0.0109188
0.0137367
0.0169027
0.0203805
0.0241266
0.0280939
0.0322339
0.0364989
0.0408431
0.045224
0.0496026
0.0539442
0.0582185
0.0623998
0.0664665
0.0704013
0.0741899
0.0778217
0.0812891
0.0845874
0.0877139
0.0906683
0.0934513
0.0960653
0.0985132
0.100798
0.102925
0.104896
0.106714
0.108382
0.109901
0.11127
0.112486
0.113542
0.11443
0.115132
0.115629
0.115879
0.115861
0.115507
0.114738
0.113472
0.104188
0.0948113
0.0854943
0.0763566
0.0674943
0.0589855
0.0508942
0.0432741
0.0361727
0.0296344
0.0237044
0.0184038
0.0137905
0.00988897
0.0067316
0.00432408
0.00261208
0.00148583
0.000800872
0.000412417
0.000204451
9.85853e-05
4.65475e-05
2.15753e-05
9.83605e-06
4.41738e-06
1.95697e-06
8.5631e-07
3.70534e-07
1.58728e-07
6.73759e-08
2.83532e-08
1.18239e-08
4.87369e-09
1.96793e-09
7.56312e-10
2.53465e-10
4.45701e-11
3.97684e-07
1.738e-06
3.99224e-06
7.7703e-06
1.40701e-05
2.45049e-05
4.16462e-05
6.95266e-05
0.00011435
0.000185453
0.000296522
0.000467005
0.000723523
0.00110088
0.00164205
0.00239653
0.00341645
0.00475084
0.0064391
0.00850561
0.0109569
0.0137822
0.0169557
0.0204411
0.0241947
0.0281691
0.032316
0.0365874
0.0409376
0.0453238
0.0497071
0.0540529
0.0583307
0.0625147
0.0665835
0.0705197
0.074309
0.0779408
0.0814075
0.0847043
0.0878287
0.0907802
0.0935598
0.0961695
0.0986123
0.100892
0.103011
0.104974
0.106783
0.108441
0.109948
0.111302
0.112501
0.113537
0.114399
0.11507
0.115526
0.115728
0.115644
0.115203
0.114318
0.112901
0.103532
0.0941059
0.0847665
0.0756271
0.0667787
0.0582955
0.0502388
0.0426614
0.0356097
0.0291248
0.023237
0.0179937
0.0134396
0.00960976
0.00652084
0.00416846
0.0025056
0.00141957
0.000762712
0.0003918
0.000193869
9.33868e-05
4.40603e-05
2.04116e-05
9.30206e-06
4.17656e-06
1.85003e-06
8.09478e-07
3.50276e-07
1.5006e-07
6.37024e-08
2.681e-08
1.11814e-08
4.60926e-09
1.86138e-09
7.15373e-10
2.39739e-10
4.21652e-11
3.99054e-07
1.74398e-06
4.00598e-06
7.79707e-06
1.41187e-05
2.45899e-05
4.17916e-05
6.97709e-05
0.000114755
0.000186113
0.000297581
0.000468676
0.000726106
0.00110478
0.0016478
0.00240476
0.00342788
0.0047662
0.0064591
0.00853083
0.0109878
0.013819
0.0169987
0.0204901
0.0242497
0.02823
0.0323823
0.0366589
0.0410137
0.0454042
0.0497912
0.0541401
0.0584205
0.0626066
0.0666768
0.0706138
0.0744034
0.0780348
0.0815006
0.0847959
0.0879183
0.0908671
0.0936433
0.0962491
0.0986872
0.100961
0.103074
0.10503
0.106831
0.108479
0.109975
0.111316
0.1125
0.113517
0.114358
0.115003
0.115424
0.115587
0.115452
0.114945
0.113973
0.112385
0.102965
0.0935127
0.0841657
0.0750331
0.0662025
0.0577458
0.0497217
0.0421804
0.035163
0.0287107
0.0228657
0.0176681
0.0131616
0.00937956
0.00634353
0.00404555
0.00242361
0.00136844
0.000733293
0.000375934
0.000185736
8.93933e-05
4.21502e-05
1.9518e-05
8.89204e-06
3.99163e-06
1.76791e-06
7.73509e-07
3.34715e-07
1.43401e-07
6.088e-08
2.56243e-08
1.06877e-08
4.40609e-09
1.77952e-09
6.83929e-10
2.29197e-10
4.03185e-11
4.00086e-07
1.74848e-06
4.01633e-06
7.81723e-06
1.41553e-05
2.4654e-05
4.1901e-05
6.99548e-05
0.000115059
0.00018661
0.000298379
0.000469935
0.000728053
0.00110772
0.00165214
0.00241097
0.0034365
0.0047778
0.00647419
0.00854987
0.0110112
0.0138469
0.0170311
0.0205272
0.0242913
0.0282759
0.0324324
0.0367127
0.0410711
0.0454647
0.0498544
0.0542056
0.0584878
0.0626752
0.0667462
0.0706835
0.074473
0.0781039
0.0815687
0.0848626
0.0879831
0.0909296
0.0937029
0.0963053
0.0987394
0.101009
0.103116
0.105066
0.10686
0.1085
0.109986
0.111317
0.112489
0.113493
0.114318
0.114945
0.115346
0.115487
0.115329
0.114798
0.113803
0.111972
0.102517
0.0930503
0.0837027
0.0745795
0.0657653
0.057328
0.0493254
0.0418065
0.034817
0.0283978
0.0225869
0.0174249
0.0129552
0.00921107
0.00621291
0.0039504
0.00236213
0.00133081
0.000711675
0.000364266
0.000179755
8.64584e-05
4.07471e-05
1.88619e-05
8.59114e-06
3.85598e-06
1.70769e-06
7.47145e-07
3.23313e-07
1.38523e-07
5.88134e-08
2.47565e-08
1.03266e-08
4.25751e-09
1.71969e-09
6.6095e-10
2.21496e-10
3.89697e-11
4.00774e-07
1.75149e-06
4.02321e-06
7.83065e-06
1.41796e-05
2.46965e-05
4.19737e-05
7.00768e-05
0.000115261
0.000186939
0.000298907
0.000470768
0.000729342
0.00110967
0.00165501
0.00241508
0.00344222
0.00478549
0.00648422
0.00856253
0.0110267
0.0138654
0.0170528
0.0205519
0.024319
0.0283066
0.0324658
0.0367487
0.0411094
0.045505
0.0498965
0.0542492
0.0585325
0.0627205
0.066792
0.0707293
0.0745185
0.0781488
0.0816127
0.0849054
0.0880243
0.0909689
0.09374
0.0963397
0.0987707
0.101036
0.10314
0.105085
0.106874
0.108508
0.109987
0.111311
0.112474
0.113469
0.114284
0.114901
0.115292
0.115427
0.115265
0.114737
0.113759
0.111682
0.102204
0.0927276
0.0833802
0.0742632
0.065459
0.057036
0.0490509
0.0415526
0.0345846
0.0281878
0.0224003
0.0172626
0.012818
0.0090995
0.00612671
0.00388794
0.00231997
0.00130544
0.000697267
0.000356523
0.000175789
8.45118e-05
3.98166e-05
1.84269e-05
8.39178e-06
3.76618e-06
1.66786e-06
7.29718e-07
3.15782e-07
1.35304e-07
5.74504e-08
2.41845e-08
1.00887e-08
4.15974e-09
1.68034e-09
6.45846e-10
2.16438e-10
3.80838e-11
4.01115e-07
1.75297e-06
4.02661e-06
7.83724e-06
1.41916e-05
2.47172e-05
4.20089e-05
7.01358e-05
0.000115358
0.000187097
0.00029916
0.000471166
0.000729957
0.0011106
0.00165638
0.00241704
0.00344494
0.00478917
0.00648901
0.0085686
0.0110341
0.0138744
0.0170632
0.0205639
0.0243325
0.0283215
0.0324821
0.0367663
0.0411282
0.0455248
0.0499172
0.0542705
0.0585543
0.0627427
0.0668143
0.0707515
0.0745403
0.0781702
0.0816335
0.0849255
0.0880435
0.090987
0.0937568
0.0963549
0.0987842
0.101048
0.103149
0.105091
0.106877
0.108507
0.109983
0.111302
0.11246
0.11345
0.114259
0.114872
0.115259
0.115392
0.115233
0.114716
0.11376
0.111534
0.102038
0.0925556
0.0832087
0.0740966
0.0653003
0.0568867
0.0489119
0.0414246
0.0344681
0.0280833
0.022308
0.0171828
0.012751
0.00904537
0.00608519
0.00385811
0.00230003
0.001293
0.000690188
0.00035273
0.000173855
8.35665e-05
3.93661e-05
1.82168e-05
8.2956e-06
3.72287e-06
1.64865e-06
7.21311e-07
3.12146e-07
1.33748e-07
5.67907e-08
2.39072e-08
9.97322e-09
4.11217e-09
1.66116e-09
6.38465e-10
2.13962e-10
3.76498e-11
4.01124e-07
1.75301e-06
4.02671e-06
7.83743e-06
1.41919e-05
2.47178e-05
4.20099e-05
7.01374e-05
0.000115361
0.000187101
0.000299167
0.000471177
0.000729973
0.00111062
0.00165641
0.00241709
0.00344501
0.00478925
0.00648912
0.00856873
0.0110343
0.0138745
0.0170634
0.0205641
0.0243327
0.0283217
0.0324823
0.0367665
0.0411284
0.045525
0.0499174
0.0542708
0.0585546
0.062743
0.0668145
0.0707517
0.0745405
0.0781704
0.0816337
0.0849256
0.0880437
0.0909872
0.093757
0.0963551
0.0987843
0.101048
0.103149
0.105091
0.106877
0.108507
0.109983
0.111302
0.11246
0.113449
0.114259
0.114872
0.115259
0.115392
0.115233
0.114716
0.11376
0.111533
0.102038
0.092555
0.0832081
0.0740961
0.0652998
0.0568862
0.0489114
0.0414241
0.0344677
0.0280829
0.0223076
0.0171825
0.0127508
0.00904514
0.00608501
0.00385797
0.00229993
0.00129294
0.000690156
0.000352714
0.000173847
8.35625e-05
3.93642e-05
1.82159e-05
8.29519e-06
3.72269e-06
1.64857e-06
7.21276e-07
3.12131e-07
1.33741e-07
5.6788e-08
2.39061e-08
9.97277e-09
4.11198e-09
1.66108e-09
6.38434e-10
2.13952e-10
3.76475e-11
4.00802e-07
1.75161e-06
4.0235e-06
7.83119e-06
1.41806e-05
2.46982e-05
4.19766e-05
7.00816e-05
0.000115269
0.000186951
0.000298927
0.000470799
0.000729389
0.00110974
0.00165511
0.00241522
0.0034424
0.00478573
0.00648452
0.00856289
0.0110271
0.0138659
0.0170533
0.0205525
0.0243196
0.0283072
0.0324665
0.0367494
0.0411101
0.0455057
0.0498972
0.0542498
0.0585331
0.0627212
0.0667926
0.0707299
0.0745191
0.0781494
0.0816132
0.0849059
0.0880248
0.0909694
0.0937405
0.0963401
0.0987711
0.101037
0.10314
0.105085
0.106874
0.108508
0.109987
0.11131
0.112473
0.113468
0.114283
0.1149
0.115291
0.115426
0.115264
0.114738
0.113758
0.111679
0.102201
0.0927254
0.0833782
0.0742614
0.0654573
0.0570344
0.0490495
0.0415512
0.0345833
0.0281867
0.0223993
0.0172617
0.0128172
0.00909882
0.00612617
0.00388755
0.00231972
0.0013053
0.000697193
0.000356486
0.000175771
8.45035e-05
3.98127e-05
1.84252e-05
8.39096e-06
3.76581e-06
1.66769e-06
7.29647e-07
3.15751e-07
1.35291e-07
5.7445e-08
2.41822e-08
1.00878e-08
4.15934e-09
1.68016e-09
6.45773e-10
2.16415e-10
3.80786e-11
4.00133e-07
1.74869e-06
4.01679e-06
7.81815e-06
1.4157e-05
2.46568e-05
4.19059e-05
6.99629e-05
0.000115072
0.000186631
0.000298413
0.000469987
0.000728133
0.00110784
0.00165231
0.0024112
0.00343682
0.00477821
0.00647471
0.00855049
0.0110119
0.0138477
0.017032
0.0205282
0.0242923
0.028277
0.0324335
0.0367139
0.0410723
0.0454658
0.0498556
0.0542068
0.058489
0.0626763
0.0667474
0.0706847
0.0744741
0.078105
0.0815697
0.0848636
0.087984
0.0909304
0.0937037
0.096306
0.0987401
0.101009
0.103117
0.105066
0.10686
0.1085
0.109986
0.111317
0.112489
0.113493
0.114317
0.114945
0.115345
0.115487
0.115329
0.114798
0.113801
0.111967
0.102513
0.0930466
0.0836993
0.0745763
0.0657623
0.0573252
0.0493228
0.0418042
0.034815
0.0283959
0.0225852
0.0174233
0.0129539
0.00920994
0.00621201
0.00394977
0.00236173
0.00133058
0.000711547
0.000364197
0.000179721
8.64419e-05
4.07394e-05
1.88584e-05
8.58957e-06
3.85529e-06
1.70739e-06
7.47016e-07
3.23258e-07
1.385e-07
5.88038e-08
2.47525e-08
1.03249e-08
4.25682e-09
1.71937e-09
6.60825e-10
2.21457e-10
3.89608e-11
3.99118e-07
1.74426e-06
4.00662e-06
7.79833e-06
1.4121e-05
2.45939e-05
4.17983e-05
6.9782e-05
0.000114773
0.000186142
0.000297627
0.000468748
0.000726215
0.00110494
0.00164803
0.00240508
0.00342831
0.00476677
0.00645981
0.00853169
0.0109888
0.0138202
0.017
0.0204915
0.0242512
0.0282315
0.0323839
0.0366605
0.0410154
0.0454059
0.0497929
0.0541418
0.0584222
0.0626082
0.0666784
0.0706154
0.0744049
0.0780363
0.081502
0.0847973
0.0879196
0.0908684
0.0936445
0.0962502
0.0986883
0.100962
0.103075
0.105031
0.106832
0.10848
0.109975
0.111316
0.1125
0.113517
0.114358
0.115003
0.115424
0.115587
0.115451
0.114944
0.11397
0.112379
0.10296
0.0935082
0.0841613
0.0750288
0.0661985
0.0577419
0.0497181
0.042177
0.0351599
0.028708
0.0228633
0.017666
0.0131597
0.00937804
0.0063424
0.00404476
0.0024231
0.00136811
0.000733107
0.000375837
0.000185688
8.93705e-05
4.21396e-05
1.95132e-05
8.88991e-06
3.9907e-06
1.7675e-06
7.73337e-07
3.34641e-07
1.4337e-07
6.08671e-08
2.5619e-08
1.06856e-08
4.40517e-09
1.7791e-09
6.8376e-10
2.29145e-10
4.03064e-11
3.97765e-07
1.73835e-06
3.99305e-06
7.77188e-06
1.4073e-05
2.45099e-05
4.16547e-05
6.95407e-05
0.000114373
0.00018549
0.00029658
0.000467096
0.000723662
0.00110108
0.00164234
0.00239694
0.003417
0.00475156
0.00644001
0.00850671
0.0109582
0.0137837
0.0169574
0.0204429
0.0241966
0.0281712
0.0323181
0.0365895
0.0409397
0.045326
0.0497093
0.0540551
0.0583329
0.0625169
0.0665857
0.0705217
0.074311
0.0779427
0.0814094
0.0847061
0.0878305
0.0907819
0.0935614
0.096171
0.0986137
0.100893
0.103012
0.104975
0.106784
0.108442
0.109949
0.111303
0.112501
0.113537
0.114399
0.115071
0.115526
0.115727
0.115643
0.115201
0.114315
0.112897
0.103527
0.094101
0.0847613
0.0756218
0.0667735
0.0582904
0.0502341
0.0426571
0.0356058
0.0291216
0.0232345
0.0179918
0.0134379
0.00960816
0.00651942
0.00416736
0.00250482
0.00141909
0.00076245
0.000391666
0.000193805
9.33567e-05
4.40465e-05
2.04054e-05
9.29934e-06
4.17537e-06
1.84952e-06
8.0926e-07
3.50183e-07
1.50021e-07
6.36863e-08
2.68034e-08
1.11787e-08
4.60811e-09
1.86085e-09
7.15163e-10
2.39672e-10
4.21502e-11
3.96084e-07
1.73101e-06
3.97619e-06
7.73904e-06
1.40133e-05
2.44056e-05
4.14765e-05
6.92413e-05
0.000113878
0.000184682
0.000295283
0.00046505
0.000720499
0.0010963
0.0016353
0.00238686
0.00340301
0.00473275
0.00641552
0.00847581
0.0109204
0.0137385
0.0169047
0.0203826
0.0241289
0.0280964
0.0322365
0.0365015
0.0408458
0.0452267
0.0496053
0.0539469
0.0582212
0.0624025
0.0664692
0.0704039
0.0741925
0.0778242
0.0812915
0.0845897
0.0877162
0.0906704
0.0934534
0.0960673
0.0985151
0.1008
0.102926
0.104897
0.106716
0.108384
0.109903
0.111271
0.112487
0.113544
0.114431
0.115133
0.115629
0.115879
0.11586
0.115505
0.114734
0.113468
0.104183
0.0948061
0.0854885
0.0763505
0.0674883
0.0589798
0.0508889
0.0432694
0.0361688
0.0296316
0.0237036
0.018407
0.0137899
0.00988723
0.00672974
0.0043226
0.00261108
0.00148522
0.000800535
0.000412246
0.000204369
9.85473e-05
4.65302e-05
2.15676e-05
9.83268e-06
4.41592e-06
1.95634e-06
8.56044e-07
3.70422e-07
1.58681e-07
6.73564e-08
2.83452e-08
1.18207e-08
4.8723e-09
1.96729e-09
7.56058e-10
2.53385e-10
4.45519e-11
3.9409e-07
1.7223e-06
3.9562e-06
7.7001e-06
1.39427e-05
2.4282e-05
4.12654e-05
6.88869e-05
0.000113292
0.000183726
0.00029375
0.000462633
0.000716764
0.00109066
0.001627
0.00237497
0.0033865
0.00471055
0.00638662
0.00843935
0.0108757
0.0136851
0.0168424
0.0203115
0.024049
0.0280079
0.0321399
0.0363972
0.0407344
0.0451088
0.0494816
0.0538181
0.058088
0.0622657
0.0663295
0.0702622
0.0740496
0.0776809
0.0811487
0.084448
0.0875765
0.0905335
0.0933201
0.0959384
0.0983914
0.100683
0.102816
0.104795
0.106623
0.108302
0.109833
0.111216
0.112449
0.113525
0.114436
0.115168
0.1157
0.115997
0.116036
0.115761
0.115104
0.113997
0.104891
0.0956128
0.0863429
0.0772182
0.0683454
0.0598095
0.0516788
0.0440101
0.0368523
0.0302491
0.0242476
0.0188806
0.0141854
0.0102129
0.00699251
0.00451806
0.00274392
0.00156831
0.000848633
0.000438328
0.000217788
0.000105147
4.96896e-05
2.30461e-05
1.05111e-05
4.72184e-06
2.09215e-06
9.15502e-07
3.96132e-07
1.69678e-07
7.20152e-08
3.03017e-08
1.26351e-08
5.20741e-09
2.1023e-09
8.07931e-10
2.70779e-10
4.75995e-11
3.918e-07
1.7123e-06
3.93325e-06
7.65541e-06
1.38616e-05
2.41403e-05
4.10235e-05
6.8481e-05
0.000112621
0.000182634
0.000291998
0.000459874
0.000712503
0.00108423
0.00161753
0.00236142
0.0033677
0.00468527
0.00635371
0.00839782
0.0108248
0.0136243
0.0167715
0.0202303
0.0239577
0.0279068
0.0320294
0.0362778
0.0406067
0.0449734
0.0493393
0.0536697
0.0579343
0.0621075
0.0661677
0.0700977
0.0738832
0.0775136
0.0809813
0.0842815
0.0874117
0.0903714
0.0931614
0.0957841
0.0982423
0.10054
0.10268
0.104667
0.106504
0.108193
0.109736
0.111133
0.11238
0.113474
0.114404
0.115157
0.115713
0.116037
0.116101
0.115849
0.115202
0.114069
0.105823
0.0966226
0.0873867
0.0782648
0.0693726
0.0608006
0.0526214
0.0448943
0.03767
0.0309934
0.02492
0.0194591
0.0146878
0.0106328
0.00732122
0.00475926
0.00290816
0.00167145
0.000908592
0.00047095
0.000234609
0.000113429
5.36561e-05
2.49026e-05
1.13628e-05
5.10577e-06
2.26252e-06
9.90048e-07
4.28348e-07
1.8345e-07
7.78463e-08
3.27493e-08
1.36535e-08
5.62633e-09
2.27105e-09
8.72764e-10
2.92517e-10