/*--------------------------------*- C++ -*----------------------------------*\
  =========                 |
  \\      /  F ield         | OpenFOAM: The Open Source CFD Toolbox
   \\    /   O peration     | Website:  https://openfoam.org
    \\  /    A nd           | Version:  8
     \\/     M anipulation  |
\*---------------------------------------------------------------------------*/
FoamFile
{
    version     2.0;
    format      ascii;
    class       volScalarField;
    location    "280/fluid";
    object      N2;
}
// * * * * * * * * * * * * * * * * * * * * * * * * * * * * * * * * * * * * * //

dimensions      [0 0 0 0 0 0 0];

internalField   nonuniform List<scalar> 
4000
(
2.0183e-06
8.81437e-06
2.02184e-05
3.92782e-05
7.09781e-05
0.00012339
0.000209432
0.000349497
0.000575252
0.00093492
0.00150024
0.00237492
0.00370376
0.00568033
0.00854966
0.0126015
0.0181505
0.0255023
0.0349123
0.0465475
0.0604647
0.076609
0.0948291
0.114903
0.136565
0.159528
0.183501
0.208199
0.233353
0.258717
0.284069
0.309213
0.333979
0.358225
0.381833
0.404709
0.42678
0.44799
0.4683
0.487689
0.506145
0.523669
0.54027
0.555964
0.570773
0.584725
0.597848
0.610176
0.621741
0.63258
0.642726
0.652217
0.661086
0.669369
0.677099
0.684308
0.691029
0.697292
0.703125
0.708449
0.713399
0.718117
0.722505
0.726587
0.730386
0.73407
0.737594
0.740961
0.744175
0.747234
0.750136
0.752877
0.755451
0.75785
0.760065
0.762082
0.763893
0.765479
0.766819
0.767897
0.768706
0.769263
0.76961
0.769806
0.769908
0.769958
0.769981
0.769992
0.769996
0.769998
0.769999
0.77
0.77
0.77
0.77
0.77
0.77
0.77
0.77
0.77
2.04864e-06
8.95182e-06
2.05544e-05
3.99846e-05
7.23657e-05
0.000126
0.000214174
0.000357835
0.000589435
0.00095822
0.0015371
0.0024309
0.00378501
0.0057925
0.00869625
0.0127819
0.0183583
0.025725
0.0351325
0.0467466
0.060627
0.0767242
0.0948949
0.114925
0.136555
0.159501
0.183471
0.20818
0.233361
0.258764
0.284164
0.309361
0.334184
0.358488
0.382151
0.405081
0.4272
0.448454
0.468804
0.488225
0.506709
0.524256
0.540874
0.556581
0.571399
0.585355
0.598479
0.610804
0.622365
0.633196
0.643334
0.652813
0.661671
0.66994
0.677656
0.68485
0.691556
0.697804
0.703625
0.708937
0.71387
0.718562
0.72293
0.726999
0.730817
0.734504
0.738032
0.741403
0.744619
0.74768
0.750583
0.753323
0.755892
0.758284
0.760482
0.762482
0.764265
0.765811
0.767101
0.768119
0.768864
0.769363
0.769666
0.769835
0.769921
0.769964
0.769984
0.769993
0.769997
0.769999
0.769999
0.77
0.77
0.77
0.77
0.77
0.77
0.77
0.77
0.77
2.09437e-06
9.15466e-06
2.10331e-05
4.09475e-05
7.41675e-05
0.000129226
0.000219761
0.000367226
0.000604775
0.000982554
0.00157454
0.00248665
0.0038652
0.00590364
0.00884431
0.012971
0.0185893
0.025994
0.0354311
0.0470628
0.0609474
0.0770368
0.0951913
0.115202
0.136814
0.159749
0.18372
0.208445
0.233653
0.259096
0.284545
0.3098
0.334686
0.359056
0.382787
0.405782
0.427965
0.449277
0.469679
0.489147
0.507671
0.525251
0.541895
0.557622
0.572453
0.586417
0.599544
0.611866
0.62342
0.634241
0.644364
0.653827
0.662664
0.670911
0.678602
0.68577
0.692446
0.69866
0.70444
0.709674
0.714667
0.719323
0.723661
0.727678
0.731531
0.735216
0.738739
0.742104
0.745312
0.748362
0.751249
0.753969
0.756513
0.758872
0.761024
0.762974
0.764697
0.766173
0.767386
0.768326
0.769
0.769443
0.769709
0.769856
0.769931
0.769968
0.769985
0.769994
0.769997
0.769999
0.769999
0.77
0.77
0.77
0.77
0.77
0.77
0.77
0.77
0.77
2.13589e-06
9.33633e-06
2.14514e-05
4.17628e-05
7.56409e-05
0.000131773
0.000224024
0.000374174
0.000615817
0.00099968
0.00160045
0.00252486
0.00392005
0.00598014
0.00894768
0.0131061
0.0187594
0.0262008
0.0356739
0.047339
0.0612534
0.077369
0.0955472
0.115581
0.137217
0.160179
0.184182
0.208944
0.234198
0.259691
0.285198
0.310515
0.335466
0.359902
0.383701
0.406762
0.429008
0.450379
0.470835
0.490351
0.508916
0.526529
0.543201
0.558947
0.573792
0.587763
0.60089
0.613208
0.624751
0.635557
0.645662
0.655102
0.663914
0.672134
0.679794
0.68693
0.693572
0.699751
0.705477
0.710702
0.715688
0.720323
0.72463
0.728576
0.732413
0.736082
0.739589
0.742937
0.746124
0.749148
0.752006
0.754689
0.757191
0.7595
0.761595
0.763482
0.765133
0.766532
0.767665
0.768526
0.769132
0.769522
0.769752
0.769877
0.769941
0.769973
0.769988
0.769994
0.769998
0.769999
0.77
0.77
0.77
0.77
0.77
0.77
0.77
0.77
0.77
0.77
2.1722e-06
9.49479e-06
2.18147e-05
4.2468e-05
7.69123e-05
0.000133972
0.00022772
0.000380249
0.000625598
0.0010151
0.00162424
0.00256069
0.00397264
0.00605514
0.00905141
0.0132448
0.0189388
0.0264249
0.0359447
0.0476568
0.0616167
0.0777763
0.0959971
0.116073
0.137752
0.16076
0.184812
0.209626
0.234936
0.26049
0.286059
0.311442
0.33646
0.360964
0.384828
0.407953
0.430259
0.451686
0.472192
0.491752
0.510354
0.527998
0.544693
0.560456
0.575311
0.589284
0.602408
0.614716
0.626246
0.637032
0.647113
0.656526
0.665307
0.673493
0.681118
0.688217
0.694822
0.700963
0.706598
0.711759
0.716705
0.721312
0.725593
0.72952
0.733344
0.736998
0.740486
0.743809
0.746968
0.749959
0.752777
0.755415
0.757864
0.760115
0.762153
0.763968
0.765544
0.766864
0.767917
0.768703
0.769245
0.769588
0.769787
0.769895
0.76995
0.769977
0.769989
0.769995
0.769998
0.769999
0.77
0.77
0.77
0.77
0.77
0.77
0.77
0.77
0.77
0.77
2.20309e-06
9.62931e-06
2.2122e-05
4.30617e-05
7.79777e-05
0.000135807
0.000230795
0.000385291
0.000633709
0.0010279
0.00164406
0.00259074
0.00401717
0.00611957
0.00914217
0.0133691
0.0191039
0.0266376
0.0362106
0.0479796
0.0619988
0.0782187
0.0965001
0.116637
0.138377
0.161447
0.185562
0.210441
0.235816
0.261437
0.287075
0.312525
0.33761
0.362179
0.386106
0.40929
0.431652
0.453129
0.473679
0.493277
0.51191
0.529579
0.546291
0.562065
0.576923
0.590894
0.60401
0.616304
0.627814
0.638576
0.648628
0.658008
0.666754
0.674901
0.682486
0.689544
0.696108
0.702214
0.707785
0.712906
0.717801
0.72234
0.726564
0.730487
0.734289
0.737918
0.741379
0.744672
0.747796
0.750748
0.753522
0.756111
0.758507
0.760693
0.762669
0.764415
0.765918
0.767162
0.76814
0.768857
0.769343
0.769644
0.769818
0.76991
0.769957
0.76998
0.769991
0.769996
0.769998
0.769999
0.77
0.77
0.77
0.77
0.77
0.77
0.77
0.77
0.77
0.77
2.23017e-06
9.7473e-06
2.23917e-05
4.35838e-05
7.89168e-05
0.00013743
0.000233528
0.000389804
0.000641028
0.00103957
0.00166231
0.00261875
0.00405922
0.0061812
0.00923015
0.0134912
0.0192683
0.0268522
0.0364824
0.0483141
0.0623998
0.0786886
0.0970403
0.117248
0.13906
0.162202
0.186388
0.211339
0.236786
0.262478
0.288185
0.313703
0.338854
0.363485
0.387471
0.41071
0.433121
0.454642
0.47523
0.494859
0.513517
0.531203
0.547927
0.563706
0.578562
0.592525
0.605626
0.617901
0.629386
0.640119
0.650139
0.659482
0.668187
0.67629
0.683828
0.690835
0.697345
0.70339
0.708875
0.713946
0.7188
0.723303
0.727459
0.731414
0.735193
0.738797
0.742229
0.74549
0.748578
0.751489
0.754218
0.756758
0.7591
0.761224
0.763138
0.764818
0.766251
0.767424
0.768333
0.768989
0.769425
0.769691
0.769842
0.769923
0.769963
0.769983
0.769992
0.769996
0.769998
0.769999
0.77
0.77
0.77
0.77
0.77
0.77
0.77
0.77
0.77
0.77
2.25434e-06
9.85263e-06
2.26327e-05
4.40503e-05
7.97568e-05
0.000138884
0.000235982
0.000393867
0.000647645
0.00105017
0.001679
0.00264454
0.00409828
0.006239
0.00931357
0.0136083
0.019428
0.0270634
0.0367531
0.0486512
0.0628083
0.0791718
0.0976003
0.117885
0.139775
0.162994
0.187257
0.212284
0.237805
0.263568
0.289345
0.314929
0.340142
0.364832
0.388871
0.412159
0.434614
0.456171
0.47679
0.496444
0.51512
0.532818
0.549547
0.565324
0.580173
0.594123
0.607206
0.619458
0.630915
0.641615
0.651598
0.660902
0.669564
0.677622
0.685113
0.692069
0.698526
0.704514
0.709909
0.715066
0.719856
0.724302
0.728362
0.732295
0.736046
0.739621
0.743021
0.746248
0.749298
0.752168
0.754853
0.757344
0.759634
0.761704
0.763558
0.765176
0.766544
0.767653
0.768499
0.7691
0.769493
0.76973
0.769863
0.769933
0.769968
0.769985
0.769993
0.769997
0.769999
0.769999
0.77
0.77
0.77
0.77
0.77
0.77
0.77
0.77
0.77
0.77
2.27633e-06
9.94853e-06
2.28522e-05
4.44761e-05
8.0525e-05
0.000140217
0.00023824
0.00039762
0.000653784
0.00106006
0.00169466
0.00266889
0.0041354
0.00629433
0.00939399
0.013722
0.019584
0.027271
0.037021
0.0489865
0.0632167
0.0796572
0.0981648
0.11853
0.1405
0.163798
0.188139
0.213242
0.238836
0.26467
0.290513
0.316161
0.341432
0.366176
0.390264
0.413595
0.436086
0.457675
0.478318
0.497991
0.516679
0.534382
0.551111
0.566882
0.581719
0.595652
0.608713
0.620938
0.632364
0.643031
0.652976
0.66224
0.67086
0.678874
0.686319
0.69323
0.699642
0.705538
0.710898
0.71603
0.720784
0.72519
0.729201
0.733104
0.736827
0.740372
0.743742
0.746936
0.74995
0.752781
0.755423
0.757868
0.760108
0.762133
0.763931
0.765491
0.7668
0.767849
0.76864
0.769193
0.76955
0.769762
0.76988
0.769941
0.769972
0.769987
0.769994
0.769997
0.769999
0.769999
0.77
0.77
0.77
0.77
0.77
0.77
0.77
0.77
0.77
0.77
2.29651e-06
1.00366e-05
2.30539e-05
4.48676e-05
8.12324e-05
0.000141447
0.000240327
0.000401099
0.000659494
0.00106928
0.00170933
0.00269182
0.00417051
0.0063469
0.00947078
0.0138311
0.0197345
0.0274722
0.0372816
0.0493141
0.0636171
0.0801342
0.0987208
0.119166
0.141216
0.164592
0.18901
0.214187
0.239852
0.265753
0.29166
0.317366
0.342691
0.367483
0.391614
0.414982
0.437504
0.459118
0.47978
0.499465
0.51816
0.535865
0.552588
0.568349
0.583171
0.597084
0.610121
0.622317
0.633712
0.644344
0.654252
0.663476
0.672054
0.680026
0.687427
0.694295
0.700664
0.706477
0.711779
0.716866
0.721581
0.725951
0.72995
0.733831
0.73753
0.741049
0.74439
0.747552
0.750533
0.753327
0.755929
0.758333
0.760528
0.762505
0.764254
0.765763
0.767019
0.768015
0.768758
0.76927
0.769596
0.769788
0.769893
0.769948
0.769975
0.769989
0.769995
0.769998
0.769999
0.77
0.77
0.77
0.77
0.77
0.77
0.77
0.77
0.77
0.77
0.77
2.31507e-06
1.01175e-05
2.32396e-05
4.52284e-05
8.18851e-05
0.000142584
0.00024226
0.000404328
0.000664806
0.00107789
0.00172307
0.00271334
0.00420358
0.00639659
0.00954359
0.0139349
0.019878
0.0276645
0.0375313
0.0496286
0.064002
0.0805935
0.0992566
0.119779
0.141906
0.165358
0.189849
0.215096
0.240828
0.266792
0.292757
0.318517
0.34389
0.368725
0.392894
0.416293
0.438841
0.460474
0.481151
0.500844
0.519541
0.537243
0.553959
0.569706
0.584511
0.598402
0.611413
0.623581
0.634944
0.645541
0.655412
0.664597
0.673136
0.681066
0.688425
0.69525
0.701575
0.707346
0.712603
0.717639
0.7223
0.726621
0.730622
0.734482
0.738157
0.741651
0.744965
0.748098
0.751048
0.753809
0.756376
0.758742
0.760894
0.76283
0.764535
0.765997
0.767206
0.768157
0.768857
0.769334
0.769634
0.769809
0.769904
0.769953
0.769978
0.76999
0.769995
0.769998
0.769999
0.77
0.77
0.77
0.77
0.77
0.77
0.77
0.77
0.77
0.77
0.77
2.33204e-06
1.01916e-05
2.34095e-05
4.55589e-05
8.24836e-05
0.000143627
0.000244037
0.000407303
0.000669709
0.00108586
0.00173579
0.00273333
0.00423437
0.00644296
0.00961167
0.0140321
0.0200127
0.0278453
0.0377664
0.049925
0.0643651
0.0810268
0.0997623
0.120358
0.142557
0.16608
0.190639
0.215952
0.241746
0.267767
0.293785
0.319593
0.34501
0.369882
0.394082
0.417508
0.440077
0.461726
0.482412
0.502109
0.520806
0.538502
0.555207
0.57094
0.585726
0.599594
0.61258
0.624719
0.63605
0.646614
0.65645
0.665599
0.6741
0.681991
0.689312
0.696097
0.70238
0.708096
0.713308
0.718303
0.722929
0.727193
0.731208
0.73505
0.738705
0.742178
0.745468
0.748575
0.751497
0.754228
0.756764
0.759096
0.761211
0.763111
0.764776
0.766198
0.767365
0.768276
0.768939
0.769386
0.769665
0.769826
0.769913
0.769958
0.76998
0.769991
0.769996
0.769998
0.769999
0.77
0.77
0.77
0.77
0.77
0.77
0.77
0.77
0.77
0.77
0.77
2.34741e-06
1.02587e-05
2.35634e-05
4.58583e-05
8.30264e-05
0.000144575
0.000245652
0.000410009
0.000674177
0.00109312
0.00174743
0.00275164
0.0042626
0.00648553
0.00967427
0.0141216
0.0201368
0.028012
0.0379833
0.0501985
0.0647002
0.081427
0.100229
0.120892
0.143157
0.166745
0.191367
0.21674
0.242589
0.268663
0.294728
0.320578
0.346032
0.370937
0.395165
0.418613
0.441198
0.462858
0.483551
0.50325
0.521943
0.539631
0.556325
0.572042
0.586809
0.600655
0.613615
0.625727
0.637029
0.647561
0.657364
0.666479
0.674945
0.682801
0.690085
0.69683
0.703073
0.708743
0.713928
0.718902
0.7235
0.7277
0.731718
0.735541
0.739178
0.742631
0.745901
0.748986
0.751883
0.754588
0.757096
0.759399
0.761484
0.763352
0.764983
0.766368
0.7675
0.768375
0.769007
0.769429
0.76969
0.769839
0.76992
0.769961
0.769982
0.769992
0.769996
0.769998
0.769999
0.77
0.77
0.77
0.77
0.77
0.77
0.77
0.77
0.77
0.77
0.77
2.36108e-06
1.03184e-05
2.37004e-05
4.6125e-05
8.351e-05
0.000145419
0.000247094
0.000412428
0.000678174
0.00109963
0.00175786
0.00276807
0.00428797
0.00652383
0.00973061
0.0142022
0.0202487
0.0281623
0.0381789
0.0504453
0.0650026
0.0817879
0.10065
0.121373
0.143699
0.167345
0.192023
0.217448
0.243347
0.269466
0.295573
0.321459
0.346946
0.371878
0.396128
0.419594
0.442193
0.463861
0.484558
0.504256
0.522945
0.540625
0.557306
0.573008
0.587756
0.601582
0.614518
0.626604
0.637879
0.648382
0.658154
0.667237
0.675671
0.683493
0.690739
0.697456
0.703679
0.709305
0.714476
0.719426
0.723997
0.728145
0.732151
0.735961
0.739583
0.743019
0.74627
0.749335
0.752211
0.754894
0.757377
0.759654
0.761713
0.763547
0.765153
0.766511
0.767612
0.768457
0.769063
0.769465
0.76971
0.76985
0.769926
0.769964
0.769983
0.769992
0.769996
0.769998
0.769999
0.77
0.77
0.77
0.77
0.77
0.77
0.77
0.77
0.77
0.77
0.77
2.37296e-06
1.03703e-05
2.38195e-05
4.6357e-05
8.39308e-05
0.000146155
0.00024835
0.000414536
0.000681661
0.00110532
0.00176698
0.00278244
0.00431018
0.00655737
0.00978
0.0142729
0.0203468
0.0282942
0.0383505
0.0506617
0.0652678
0.0821045
0.101019
0.121795
0.144173
0.16787
0.192596
0.218067
0.244009
0.270167
0.296309
0.322228
0.347741
0.372696
0.396965
0.420446
0.443054
0.464729
0.485427
0.505124
0.523808
0.541479
0.558149
0.573836
0.588568
0.602374
0.615289
0.627352
0.638602
0.64908
0.658826
0.667881
0.676285
0.684077
0.691299
0.697986
0.704171
0.709705
0.714997
0.719897
0.724432
0.728544
0.732528
0.736321
0.739927
0.743347
0.746582
0.749629
0.752487
0.75515
0.757612
0.759865
0.7619
0.763713
0.76529
0.766623
0.767701
0.768524
0.769108
0.769493
0.769727
0.769859
0.76993
0.769966
0.769984
0.769993
0.769997
0.769998
0.769999
0.77
0.77
0.77
0.77
0.77
0.77
0.77
0.77
0.77
0.77
0.77
2.38296e-06
1.04139e-05
2.39198e-05
4.65522e-05
8.42852e-05
0.000146774
0.000249409
0.000416314
0.000684604
0.00111012
0.00177469
0.0027946
0.00432896
0.00658576
0.00982181
0.0143327
0.0204299
0.0284059
0.0384959
0.0508451
0.0654925
0.0823726
0.101332
0.122153
0.144574
0.168314
0.193082
0.218591
0.244569
0.27076
0.296932
0.322876
0.348412
0.373385
0.39767
0.421161
0.443778
0.465456
0.486156
0.50585
0.524529
0.542192
0.558851
0.574526
0.589243
0.603032
0.615929
0.627973
0.639202
0.649658
0.659381
0.668414
0.676794
0.684566
0.691767
0.698432
0.704578
0.710093
0.715379
0.720265
0.724783
0.728876
0.732844
0.736622
0.740213
0.743619
0.746839
0.749872
0.752714
0.75536
0.757804
0.760039
0.762059
0.763852
0.765409
0.766718
0.767773
0.768577
0.769145
0.769515
0.76974
0.769866
0.769934
0.769968
0.769985
0.769993
0.769997
0.769999
0.769999
0.77
0.77
0.77
0.77
0.77
0.77
0.77
0.77
0.77
0.77
0.77
2.391e-06
1.0449e-05
2.40003e-05
4.67091e-05
8.457e-05
0.000147273
0.00025026
0.000417745
0.000686974
0.00111398
0.00178089
0.00280439
0.00434411
0.00660866
0.00985556
0.014381
0.020497
0.0284961
0.0386133
0.0509933
0.065674
0.0825893
0.101585
0.122442
0.144899
0.168673
0.193474
0.219015
0.245021
0.271239
0.297434
0.323399
0.348953
0.373941
0.398237
0.421737
0.444359
0.466041
0.486741
0.506433
0.525107
0.542763
0.559414
0.575078
0.589782
0.603558
0.61644
0.628468
0.639681
0.65012
0.659826
0.66884
0.677205
0.68496
0.692143
0.698793
0.704901
0.710403
0.715677
0.720551
0.725058
0.729138
0.733095
0.736861
0.740441
0.743836
0.747044
0.750064
0.752892
0.755525
0.757956
0.76018
0.762185
0.763963
0.765503
0.766796
0.767833
0.768618
0.769172
0.769533
0.76975
0.769872
0.769937
0.76997
0.769986
0.769993
0.769997
0.769999
0.769999
0.77
0.77
0.77
0.77
0.77
0.77
0.77
0.77
0.77
0.77
0.77
2.39702e-06
1.04753e-05
2.40607e-05
4.68267e-05
8.47834e-05
0.000147646
0.000250898
0.000418817
0.000688749
0.00111688
0.00178555
0.00281174
0.00435548
0.00662585
0.0098809
0.0144173
0.0205474
0.0285639
0.0387016
0.0511048
0.0658107
0.0827525
0.101775
0.12266
0.145144
0.168944
0.19377
0.219334
0.245363
0.2716
0.297813
0.323794
0.349361
0.37436
0.398665
0.422172
0.444798
0.466482
0.487181
0.506872
0.525541
0.543192
0.559836
0.575492
0.590187
0.603952
0.616823
0.628839
0.640039
0.650464
0.660157
0.669159
0.677512
0.685254
0.692425
0.699062
0.705144
0.710635
0.715899
0.720763
0.72526
0.729331
0.733281
0.737039
0.740611
0.743996
0.747195
0.750207
0.753027
0.755651
0.758073
0.760285
0.762279
0.764045
0.765573
0.766853
0.767878
0.768651
0.769193
0.769546
0.769757
0.769876
0.769939
0.769971
0.769986
0.769994
0.769997
0.769999
0.769999
0.77
0.77
0.77
0.77
0.77
0.77
0.77
0.77
0.77
0.77
0.77
2.40101e-06
1.04927e-05
2.41006e-05
4.69044e-05
8.49243e-05
0.000147892
0.000251319
0.000419524
0.000689918
0.00111879
0.00178861
0.00281657
0.00436296
0.00663716
0.00989758
0.0144413
0.0205806
0.0286087
0.03876
0.0511785
0.0659013
0.0828609
0.101902
0.122805
0.145307
0.169125
0.193968
0.219548
0.245592
0.271842
0.298067
0.324058
0.349634
0.374641
0.398951
0.422462
0.445091
0.466776
0.487476
0.507164
0.525832
0.543479
0.560118
0.575768
0.590456
0.604214
0.617078
0.629085
0.640277
0.650695
0.660379
0.669373
0.677717
0.68545
0.692612
0.69924
0.705307
0.71079
0.716046
0.720903
0.725392
0.729459
0.733403
0.737157
0.740724
0.744104
0.747299
0.750305
0.753119
0.755736
0.758151
0.760356
0.762341
0.764099
0.765619
0.766891
0.767907
0.768672
0.769208
0.769554
0.769762
0.769878
0.76994
0.769971
0.769986
0.769994
0.769997
0.769999
0.769999
0.77
0.77
0.77
0.77
0.77
0.77
0.77
0.77
0.77
0.77
0.77
2.40296e-06
1.05012e-05
2.41201e-05
4.69421e-05
8.49924e-05
0.000148011
0.00025152
0.000419861
0.000690475
0.00111969
0.00179006
0.00281886
0.00436649
0.0066425
0.00990546
0.0144526
0.0205964
0.0286299
0.0387878
0.0512138
0.0659447
0.082913
0.101963
0.122875
0.145386
0.169213
0.194064
0.219653
0.245704
0.271961
0.298192
0.324189
0.349769
0.374779
0.399093
0.422606
0.445236
0.466922
0.487622
0.50731
0.525976
0.543621
0.560258
0.575906
0.590591
0.604346
0.617206
0.629209
0.640397
0.650811
0.660491
0.669481
0.67782
0.685548
0.692706
0.699329
0.70539
0.710868
0.71612
0.720973
0.725458
0.729522
0.733465
0.737216
0.740781
0.744159
0.74735
0.750353
0.753164
0.755778
0.75819
0.76039
0.762372
0.764126
0.765642
0.766909
0.767921
0.768682
0.769214
0.769558
0.769764
0.76988
0.769941
0.769971
0.769987
0.769994
0.769997
0.769999
0.769999
0.77
0.77
0.77
0.77
0.77
0.77
0.77
0.77
0.77
0.77
0.77
2.403e-06
1.05014e-05
2.41204e-05
4.69427e-05
8.49936e-05
0.000148013
0.000251524
0.000419867
0.000690485
0.00111971
0.00179009
0.0028189
0.00436656
0.00664261
0.00990562
0.0144528
0.0205967
0.0286304
0.0387884
0.0512145
0.0659456
0.082914
0.101964
0.122876
0.145388
0.169215
0.194066
0.219655
0.245706
0.271963
0.298194
0.324191
0.349771
0.374781
0.399094
0.422607
0.445238
0.466924
0.487623
0.507311
0.525978
0.543623
0.560259
0.575907
0.590592
0.604347
0.617207
0.62921
0.640398
0.650812
0.660492
0.669482
0.677821
0.685549
0.692707
0.69933
0.705391
0.710869
0.716121
0.720973
0.725459
0.729523
0.733465
0.737216
0.740781
0.744159
0.747351
0.750354
0.753165
0.755779
0.75819
0.76039
0.762372
0.764126
0.765642
0.766909
0.767921
0.768682
0.769214
0.769558
0.769764
0.76988
0.769941
0.769971
0.769987
0.769994
0.769997
0.769999
0.769999
0.77
0.77
0.77
0.77
0.77
0.77
0.77
0.77
0.77
0.77
0.77
2.40111e-06
1.04932e-05
2.41016e-05
4.69064e-05
8.49279e-05
0.000147899
0.00025133
0.000419543
0.00068995
0.00111884
0.0017887
0.00281671
0.00436317
0.00663749
0.00989806
0.014442
0.0205816
0.02861
0.0387617
0.0511807
0.0659039
0.082864
0.101906
0.122809
0.145312
0.16913
0.193973
0.219553
0.245597
0.271848
0.298073
0.324064
0.34964
0.374646
0.398956
0.422467
0.445096
0.466781
0.48748
0.507169
0.525836
0.543483
0.560122
0.575772
0.59046
0.604218
0.617081
0.629089
0.64028
0.650697
0.660382
0.669376
0.67772
0.685453
0.692615
0.699243
0.70531
0.710792
0.716048
0.720904
0.725394
0.72946
0.733404
0.737158
0.740724
0.744105
0.7473
0.750305
0.753119
0.755737
0.758152
0.760356
0.762342
0.7641
0.76562
0.766891
0.767907
0.768672
0.769208
0.769554
0.769762
0.769878
0.76994
0.769971
0.769986
0.769994
0.769997
0.769999
0.769999
0.77
0.77
0.77
0.77
0.77
0.77
0.77
0.77
0.77
0.77
0.77
2.3972e-06
1.04761e-05
2.40625e-05
4.68303e-05
8.479e-05
0.000147657
0.000250918
0.000418852
0.000688806
0.00111697
0.0017857
0.00281198
0.00435586
0.00662643
0.00988176
0.0144186
0.0205491
0.0285662
0.0387047
0.0511086
0.0658153
0.082758
0.101782
0.122667
0.145152
0.168952
0.193778
0.219343
0.245372
0.27161
0.297823
0.323803
0.34937
0.374369
0.398674
0.42218
0.444806
0.46649
0.48719
0.50688
0.525549
0.5432
0.559843
0.575499
0.590193
0.603958
0.616829
0.628844
0.640044
0.650469
0.660162
0.669163
0.677516
0.685258
0.692429
0.699065
0.705147
0.710637
0.7159
0.720764
0.725262
0.729334
0.733282
0.737041
0.740612
0.743998
0.747197
0.750208
0.753028
0.755652
0.758074
0.760286
0.762279
0.764045
0.765573
0.766853
0.767878
0.768651
0.769193
0.769546
0.769757
0.769876
0.769939
0.769971
0.769986
0.769994
0.769997
0.769999
0.769999
0.77
0.77
0.77
0.77
0.77
0.77
0.77
0.77
0.77
0.77
0.77
2.39127e-06
1.04502e-05
2.4003e-05
4.67144e-05
8.45797e-05
0.00014729
0.00025029
0.000417795
0.000687057
0.00111412
0.00178112
0.00280475
0.00434466
0.00660949
0.00985679
0.0143828
0.0204994
0.0284994
0.0386176
0.0509986
0.0656805
0.0825969
0.101594
0.122452
0.14491
0.168685
0.193486
0.219027
0.245034
0.271252
0.297447
0.323412
0.348966
0.373954
0.39825
0.42175
0.444372
0.466053
0.486753
0.506444
0.525118
0.542774
0.559424
0.575087
0.589791
0.603566
0.616448
0.628475
0.639688
0.650126
0.659832
0.668846
0.677211
0.684965
0.692148
0.698797
0.704905
0.710406
0.71568
0.720554
0.725061
0.729141
0.733097
0.736863
0.740443
0.743837
0.747045
0.750065
0.752894
0.755526
0.757957
0.76018
0.762185
0.763963
0.765504
0.766796
0.767834
0.768619
0.769173
0.769533
0.76975
0.769872
0.769937
0.76997
0.769986
0.769993
0.769997
0.769999
0.769999
0.77
0.77
0.77
0.77
0.77
0.77
0.77
0.77
0.77
0.77
0.77
2.38331e-06
1.04155e-05
2.39233e-05
4.65592e-05
8.42979e-05
0.000146797
0.000249448
0.00041638
0.000684714
0.0011103
0.00177498
0.00279506
0.00432968
0.00658684
0.0098234
0.014335
0.020433
0.0284101
0.0385013
0.0508519
0.0655007
0.0823823
0.101343
0.122165
0.144588
0.168329
0.193097
0.218607
0.244586
0.270777
0.296949
0.322893
0.348429
0.373402
0.397686
0.421178
0.443794
0.465472
0.486171
0.505865
0.524543
0.542205
0.558864
0.574538
0.589254
0.603043
0.615939
0.627982
0.639211
0.649666
0.659389
0.668421
0.6768
0.684572
0.691772
0.698436
0.704582
0.710097
0.715382
0.720268
0.724786
0.728878
0.732846
0.736624
0.740216
0.743622
0.746842
0.749874
0.752716
0.755362
0.757806
0.76004
0.76206
0.763853
0.765409
0.766718
0.767774
0.768577
0.769145
0.769516
0.76974
0.769866
0.769934
0.769968
0.769985
0.769993
0.769997
0.769999
0.769999
0.77
0.77
0.77
0.77
0.77
0.77
0.77
0.77
0.77
0.77
0.77
2.37341e-06
1.03722e-05
2.3824e-05
4.63657e-05
8.39468e-05
0.000146183
0.000248399
0.000414618
0.000681798
0.00110554
0.00176734
0.00278302
0.00431106
0.0065587
0.00978196
0.0142757
0.0203506
0.0282993
0.0383572
0.0506701
0.0652779
0.0821164
0.101033
0.121811
0.14419
0.167888
0.192615
0.218087
0.24403
0.270188
0.296331
0.322249
0.347762
0.372717
0.396986
0.420466
0.443074
0.464748
0.485446
0.505142
0.523825
0.541495
0.558164
0.573851
0.588582
0.602387
0.615302
0.627364
0.638613
0.64909
0.658835
0.667889
0.676293
0.684083
0.691306
0.697992
0.704176
0.709709
0.715001
0.719902
0.724436
0.728546
0.73253
0.736324
0.739929
0.743349
0.746584
0.749631
0.752489
0.755151
0.757613
0.759866
0.7619
0.763712
0.76529
0.766623
0.767702
0.768524
0.769109
0.769493
0.769727
0.769859
0.76993
0.769966
0.769984
0.769993
0.769997
0.769998
0.769999
0.77
0.77
0.77
0.77
0.77
0.77
0.77
0.77
0.77
0.77
0.77
2.36162e-06
1.03207e-05
2.37058e-05
4.61356e-05
8.35294e-05
0.000145454
0.000247153
0.000412527
0.000678339
0.0010999
0.0017583
0.00276876
0.00428903
0.00652542
0.00973295
0.0142055
0.0202533
0.0281684
0.0381868
0.0504552
0.0650146
0.081802
0.100666
0.121392
0.143719
0.167366
0.192045
0.217471
0.243371
0.269491
0.295598
0.321485
0.346971
0.371903
0.396153
0.419618
0.442216
0.463884
0.48458
0.504278
0.522966
0.540644
0.557325
0.573026
0.587773
0.601597
0.614533
0.626618
0.637891
0.648393
0.658165
0.667247
0.67568
0.683501
0.690747
0.697464
0.703686
0.70931
0.714482
0.719431
0.724002
0.728148
0.732153
0.735965
0.739586
0.743022
0.746273
0.749338
0.752213
0.754896
0.757379
0.759656
0.761715
0.763551
0.765156
0.766513
0.767613
0.768458
0.769064
0.769465
0.76971
0.76985
0.769926
0.769964
0.769983
0.769992
0.769996
0.769998
0.769999
0.77
0.77
0.77
0.77
0.77
0.77
0.77
0.77
0.77
0.77
0.77
2.34804e-06
1.02615e-05
2.35698e-05
4.58709e-05
8.30493e-05
0.000144615
0.000245722
0.000410126
0.000674371
0.00109344
0.00174794
0.00275244
0.00426384
0.00648739
0.00967699
0.0141255
0.0201422
0.0280191
0.0379925
0.05021
0.0647142
0.0814434
0.100248
0.120913
0.143181
0.16677
0.191394
0.216767
0.242618
0.268692
0.294758
0.320608
0.346062
0.370966
0.395193
0.418641
0.441225
0.462885
0.483577
0.503275
0.521967
0.539654
0.556346
0.572063
0.586828
0.600673
0.613633
0.625743
0.637044
0.647575
0.657377
0.666491
0.674956
0.682812
0.690094
0.696838
0.703081
0.70875
0.713938
0.718909
0.723506
0.727704
0.731722
0.735546
0.739183
0.742635
0.745904
0.748989
0.751886
0.754591
0.757099
0.759402
0.761487
0.763355
0.764985
0.76637
0.767501
0.768376
0.769008
0.76943
0.76969
0.769839
0.76992
0.769961
0.769982
0.769992
0.769996
0.769998
0.769999
0.77
0.77
0.77
0.77
0.77
0.77
0.77
0.77
0.77
0.77
0.77
2.33278e-06
1.01949e-05
2.3417e-05
4.55734e-05
8.25102e-05
0.000143674
0.000244117
0.000407437
0.000669932
0.00108622
0.00173638
0.00273425
0.00423578
0.00644509
0.00961479
0.0140365
0.0200188
0.0278534
0.0377769
0.0499381
0.0643809
0.0810455
0.0997837
0.120382
0.142583
0.166108
0.190669
0.215983
0.241778
0.267801
0.293819
0.319627
0.345043
0.369915
0.394116
0.417541
0.440109
0.461757
0.482442
0.502138
0.520834
0.538528
0.555232
0.570964
0.585748
0.599615
0.612599
0.624737
0.636067
0.64663
0.656465
0.665612
0.674112
0.682003
0.689322
0.696106
0.702388
0.708102
0.713311
0.718308
0.722935
0.727197
0.731212
0.735055
0.73871
0.742182
0.745472
0.748579
0.7515
0.754231
0.756766
0.759098
0.761213
0.763112
0.764778
0.766199
0.767367
0.768276
0.76894
0.769387
0.769665
0.769826
0.769913
0.769958
0.76998
0.769991
0.769996
0.769998
0.769999
0.77
0.77
0.77
0.77
0.77
0.77
0.77
0.77
0.77
0.77
0.77
2.31591e-06
1.01212e-05
2.32481e-05
4.5245e-05
8.19154e-05
0.000142637
0.000242351
0.000404481
0.000665059
0.0010783
0.00172373
0.00271438
0.00420518
0.00639899
0.00954711
0.0139399
0.0198849
0.0276737
0.0375432
0.0496434
0.0640199
0.0806145
0.0992808
0.119806
0.141935
0.16539
0.189883
0.215132
0.240865
0.26683
0.292795
0.318555
0.343929
0.368763
0.392931
0.41633
0.438877
0.460509
0.481185
0.500876
0.519573
0.537273
0.553987
0.569733
0.584536
0.598426
0.611435
0.623602
0.634963
0.645559
0.655429
0.664613
0.673151
0.68108
0.688438
0.695262
0.701586
0.707356
0.712612
0.717647
0.722307
0.726626
0.730627
0.734487
0.738162
0.741656
0.74497
0.748103
0.751052
0.753813
0.756379
0.758745
0.760897
0.762833
0.764537
0.765999
0.767208
0.768158
0.768857
0.769334
0.769634
0.769809
0.769904
0.769953
0.769978
0.76999
0.769995
0.769998
0.769999
0.77
0.77
0.77
0.77
0.77
0.77
0.77
0.77
0.77
0.77
0.77
2.29747e-06
1.00407e-05
2.30635e-05
4.48864e-05
8.12666e-05
0.000141507
0.00024043
0.000401271
0.000659778
0.00106974
0.00171007
0.00269298
0.00417229
0.00634958
0.0094747
0.0138367
0.0197422
0.0274824
0.0372948
0.0493306
0.063637
0.0801577
0.0987477
0.119196
0.141249
0.164628
0.189048
0.214227
0.239893
0.265795
0.291702
0.317408
0.342734
0.367525
0.391656
0.415023
0.437544
0.459157
0.479818
0.499502
0.518195
0.535898
0.55262
0.568379
0.5832
0.597111
0.610146
0.622341
0.633734
0.644364
0.654271
0.663493
0.672071
0.680041
0.687441
0.694307
0.700674
0.706486
0.711787
0.716873
0.721587
0.725959
0.729959
0.733839
0.737537
0.741055
0.744396
0.747558
0.750538
0.753332
0.755934
0.758337
0.760531
0.762508
0.764257
0.765765
0.767021
0.768017
0.768759
0.769271
0.769596
0.769788
0.769893
0.769948
0.769975
0.769989
0.769995
0.769998
0.769999
0.77
0.77
0.77
0.77
0.77
0.77
0.77
0.77
0.77
0.77
0.77
2.2774e-06
9.95321e-06
2.2863e-05
4.44971e-05
8.05631e-05
0.000140284
0.000238354
0.000397811
0.000654099
0.00106057
0.00169548
0.00267018
0.00413737
0.00629729
0.00939832
0.0137282
0.0195925
0.0272823
0.0370356
0.0490048
0.0632388
0.0796831
0.0981945
0.118563
0.140537
0.163838
0.188181
0.213286
0.238882
0.264717
0.290561
0.316208
0.34148
0.366223
0.39031
0.41364
0.43613
0.457718
0.47836
0.498031
0.516717
0.534419
0.551146
0.566915
0.581751
0.595681
0.608741
0.620964
0.632389
0.643054
0.652998
0.66226
0.670878
0.678891
0.686334
0.693244
0.699654
0.705548
0.710907
0.716037
0.720791
0.7252
0.729211
0.733112
0.736834
0.740379
0.743748
0.746941
0.749955
0.752786
0.755428
0.757873
0.760112
0.762136
0.763934
0.765493
0.766802
0.76785
0.768641
0.769194
0.76955
0.769762
0.76988
0.769941
0.769972
0.769987
0.769994
0.769997
0.769999
0.769999
0.77
0.77
0.77
0.77
0.77
0.77
0.77
0.77
0.77
0.77
2.25552e-06
9.85782e-06
2.26446e-05
4.40735e-05
7.97989e-05
0.000138957
0.000236108
0.000394078
0.000647991
0.00105073
0.0016799
0.00264595
0.00410044
0.00624225
0.00931833
0.0136151
0.0194373
0.0270758
0.0367692
0.0486712
0.0628326
0.0792004
0.097633
0.117922
0.139816
0.163038
0.187304
0.212332
0.237855
0.263619
0.289396
0.314981
0.340194
0.364883
0.388922
0.412209
0.434662
0.456219
0.476836
0.496489
0.515163
0.532859
0.549586
0.565361
0.580208
0.594156
0.607237
0.619486
0.630942
0.641641
0.651622
0.660924
0.669584
0.677641
0.68513
0.692085
0.698541
0.704528
0.709923
0.715078
0.719867
0.724313
0.728369
0.732301
0.736054
0.739628
0.743028
0.746254
0.749304
0.752174
0.754858
0.757349
0.759638
0.761708
0.763562