/*--------------------------------*- C++ -*----------------------------------*\
  =========                 |
  \\      /  F ield         | OpenFOAM: The Open Source CFD Toolbox
   \\    /   O peration     | Website:  https://openfoam.org
    \\  /    A nd           | Version:  8
     \\/     M anipulation  |
\*---------------------------------------------------------------------------*/
FoamFile
{
    version     2.0;
    format      ascii;
    class       volScalarField;
    location    "280/fluid";
    object      O2;
}
// * * * * * * * * * * * * * * * * * * * * * * * * * * * * * * * * * * * * * //

dimensions      [0 0 0 0 0 0 0];

internalField   nonuniform List<scalar> 
4000
(
3.78567e-10
1.65225e-09
3.78458e-09
7.33567e-09
1.32141e-08
2.28774e-08
3.86327e-08
6.40758e-08
1.04708e-07
1.68766e-07
2.68252e-07
4.20113e-07
6.47338e-07
9.7959e-07
1.45276e-06
2.10683e-06
2.98156e-06
4.11041e-06
5.514e-06
7.19513e-06
9.13717e-06
1.13062e-05
1.36563e-05
1.61361e-05
1.86972e-05
2.12552e-05
2.37605e-05
2.61626e-05
2.84108e-05
3.05091e-05
3.24231e-05
3.4133e-05
3.56346e-05
3.6945e-05
3.81122e-05
3.92288e-05
4.04454e-05
4.19851e-05
4.41535e-05
4.73479e-05
5.20683e-05
5.89376e-05
6.87325e-05
8.24263e-05
0.000101248
0.000126765
0.000160984
0.0002065
0.000266678
0.000345889
0.00044982
0.000585878
0.000763711
0.0009959
0.00129887
0.0016941
0.00220975
0.00288286
0.00376233
0.00489009
0.00636452
0.00834468
0.0109555
0.0144211
0.023292
0.0399864
0.0568018
0.0735098
0.0899255
0.105897
0.121297
0.13602
0.149969
0.163058
0.175201
0.186297
0.196285
0.205032
0.21243
0.218381
0.222849
0.225923
0.227841
0.228929
0.229493
0.229767
0.229896
0.229954
0.22998
0.229992
0.229996
0.229998
0.229999
0.23
0.23
0.23
0.23
0.23
0.23
0.23
3.8882e-10
1.69842e-09
3.89621e-09
7.56726e-09
1.36631e-08
2.37128e-08
4.01396e-08
6.67205e-08
1.09228e-07
1.76283e-07
2.8041e-07
4.39209e-07
6.76424e-07
1.02251e-06
1.5141e-06
2.19174e-06
3.09553e-06
4.25896e-06
5.70247e-06
7.42836e-06
9.41905e-06
1.16387e-05
1.40368e-05
1.6553e-05
1.91195e-05
2.17091e-05
2.42676e-05
2.67483e-05
2.91174e-05
3.12996e-05
3.32761e-05
3.50349e-05
3.65764e-05
3.79217e-05
3.91234e-05
4.02808e-05
4.1554e-05
4.31777e-05
4.54721e-05
4.88506e-05
5.38307e-05
6.10533e-05
7.13145e-05
8.56091e-05
0.000105192
0.000131661
0.000167066
0.000214054
0.000276053
0.000357514
0.000464219
0.000603675
0.000785637
0.00102277
0.00133154
0.00173333
0.00225599
0.00293589
0.00382062
0.00494942
0.00641437
0.00836482
0.0109101
0.0142488
0.0254549
0.0421849
0.0590496
0.0758101
0.0922739
0.108284
0.123712
0.138445
0.152385
0.16544
0.177499
0.188509
0.198339
0.206869
0.213988
0.219606
0.223722
0.226477
0.228152
0.229085
0.229565
0.229799
0.229909
0.22996
0.229982
0.229992
0.229997
0.229999
0.229999
0.23
0.23
0.23
0.23
0.23
0.23
0.23
4.04099e-10
1.76602e-09
4.05493e-09
7.88455e-09
1.42534e-08
2.4766e-08
4.1963e-08
6.97987e-08
1.14306e-07
1.84471e-07
2.93317e-07
4.59088e-07
7.0633e-07
1.06644e-06
1.5771e-06
2.27993e-06
3.21607e-06
4.41992e-06
5.91259e-06
7.69695e-06
9.75586e-06
1.2054e-05
1.45421e-05
1.71626e-05
1.9855e-05
2.25601e-05
2.52222e-05
2.7791e-05
3.02223e-05
3.24781e-05
3.45303e-05
3.63623e-05
3.79728e-05
3.93839e-05
4.06531e-05
4.18887e-05
4.32647e-05
4.50336e-05
4.75385e-05
5.12185e-05
5.66188e-05
6.44104e-05
7.54219e-05
9.0686e-05
0.000111504
0.000139534
0.000176904
0.000226367
0.000291489
0.000376902
0.000488625
0.000634472
0.000824584
0.00107211
0.00139409
0.00181255
0.00235592
0.00306083
0.00397431
0.00512492
0.00665015
0.00862406
0.0111746
0.0144516
0.0288938
0.0456724
0.0626036
0.0794181
0.0959099
0.111916
0.127303
0.141958
0.155779
0.168669
0.180483
0.191227
0.200726
0.208872
0.215566
0.220752
0.224475
0.226921
0.228389
0.229201
0.229619
0.229823
0.22992
0.229964
0.229984
0.229993
0.229997
0.229999
0.229999
0.23
0.23
0.23
0.23
0.23
0.23
0.23
4.19601e-10
1.83393e-09
4.21164e-09
8.19115e-09
1.4811e-08
2.57391e-08
4.36151e-08
7.2544e-08
1.18783e-07
1.91647e-07
3.04624e-07
4.766e-07
7.32973e-07
1.10622e-06
1.6353e-06
2.36329e-06
3.33279e-06
4.5796e-06
6.12599e-06
7.97564e-06
1.01117e-05
1.24987e-05
1.50868e-05
1.7817e-05
2.06269e-05
2.34542e-05
2.62401e-05
2.89312e-05
3.1481e-05
3.38508e-05
3.60112e-05
3.79445e-05
3.96498e-05
4.11518e-05
4.25142e-05
4.38569e-05
4.53713e-05
4.73324e-05
5.01116e-05
5.41795e-05
6.01153e-05
6.86265e-05
8.05828e-05
9.70649e-05
0.000119435
0.000149431
0.00018929
0.000241909
0.000311053
0.000401629
0.000520033
0.000674611
0.000876257
0.0011392
0.00148203
0.00192904
0.00251199
0.00327235
0.00426114
0.00552792
0.00721267
0.00939037
0.0121878
0.0156769
0.0324916
0.0496045
0.0667267
0.0836313
0.100136
0.116092
0.131373
0.145871
0.159485
0.172121
0.183634
0.194029
0.203136
0.210856
0.217106
0.22186
0.225204
0.227356
0.228627
0.229321
0.229676
0.229849
0.229931
0.229969
0.229987
0.229994
0.229997
0.229999
0.23
0.23
0.23
0.23
0.23
0.23
0.23
0.23
4.34678e-10
1.89985e-09
4.36332e-09
8.48708e-09
1.53483e-08
2.66774e-08
4.52129e-08
7.52141e-08
1.23173e-07
1.98754e-07
3.15947e-07
4.94342e-07
7.60273e-07
1.14741e-06
1.69618e-06
2.45127e-06
3.45698e-06
4.75072e-06
6.35608e-06
8.27762e-06
1.04989e-05
1.29841e-05
1.56825e-05
1.85339e-05
2.14738e-05
2.44376e-05
2.73639e-05
3.01964e-05
3.2886e-05
3.53914e-05
3.76814e-05
3.97369e-05
4.15574e-05
4.31706e-05
4.46481e-05
4.61235e-05
4.78088e-05
5.00057e-05
5.31179e-05
5.76516e-05
6.42239e-05
7.35834e-05
8.66452e-05
0.000104545
0.000128715
0.000160984
0.00020371
0.000259955
0.000333706
0.000430171
0.000556163
0.000720611
0.00093525
0.00121554
0.00158191
0.00206153
0.0026907
0.00351829
0.00459692
0.00600664
0.00794456
0.010559
0.0141278
0.0192699
0.0365363
0.0539118
0.0711655
0.0881045
0.104567
0.120417
0.135537
0.149822
0.163176
0.175503
0.186715
0.19672
0.205408
0.212689
0.218497
0.222836
0.225829
0.227722
0.228823
0.229419
0.229723
0.229871
0.229941
0.229974
0.229988
0.229995
0.229998
0.229999
0.23
0.23
0.23
0.23
0.23
0.23
0.23
0.23
4.491e-10
1.96286e-09
4.50808e-09
8.7691e-09
1.58599e-08
2.75705e-08
4.67349e-08
7.77626e-08
1.27377e-07
2.0559e-07
3.26905e-07
5.11638e-07
7.87126e-07
1.18835e-06
1.75736e-06
2.54074e-06
3.58479e-06
4.92885e-06
6.59813e-06
8.59828e-06
1.09133e-05
1.3507e-05
1.63278e-05
1.9314e-05
2.23988e-05
2.55153e-05
2.85992e-05
3.15915e-05
3.444e-05
3.71007e-05
3.95399e-05
4.1737e-05
4.36919e-05
4.54361e-05
4.70503e-05
4.86847e-05
5.05745e-05
5.30519e-05
5.65567e-05
6.16338e-05
6.8941e-05
7.92703e-05
9.35858e-05
0.000113083
0.000139268
0.000174067
0.000219966
0.000280188
0.000358928
0.000461661
0.000595532
0.000769889
0.000996976
0.00129287
0.00167871
0.00218246
0.00284118
0.0037043
0.00481706
0.00626541
0.00823147
0.0108362
0.0143119
0.0239157
0.0411658
0.058532
0.0757527
0.0926208
0.10897
0.124662
0.139581
0.153625
0.1667
0.178691
0.189563
0.199188
0.207473
0.214336
0.21973
0.22369
0.22637
0.228036
0.228991
0.229504
0.229764
0.22989
0.22995
0.229977
0.22999
0.229996
0.229998
0.229999
0.23
0.23
0.23
0.23
0.23
0.23
0.23
0.23
4.63082e-10
2.02397e-09
4.64858e-09
9.04322e-09
1.63582e-08
2.8443e-08
4.82278e-08
8.02743e-08
1.31543e-07
2.12408e-07
3.37909e-07
5.29133e-07
8.14484e-07
1.23036e-06
1.82058e-06
2.6338e-06
3.71857e-06
5.11641e-06
6.85441e-06
8.93952e-06
1.13563e-05
1.40686e-05
1.70237e-05
2.01584e-05
2.34038e-05
2.66902e-05
2.99506e-05
3.31226e-05
3.61508e-05
3.89882e-05
4.15981e-05
4.39585e-05
4.60696e-05
4.79673e-05
4.97433e-05
5.15665e-05
5.36991e-05
5.65072e-05
6.04699e-05
6.61732e-05
7.43181e-05
8.57427e-05
0.000101465
0.000122745
0.000151176
0.000188794
0.000238226
0.000302883
0.000387194
0.000496927
0.000639588
0.000824954
0.00106575
0.00137855
0.00178492
0.00231293
0.0029991
0.00389092
0.00502311
0.00648677
0.00844236
0.0109819
0.0142662
0.0285234
0.0457034
0.0630169
0.0801685
0.0969356
0.113146
0.128661
0.143367
0.157163
0.169958
0.181613
0.192151
0.201413
0.209315
0.215786
0.220799
0.224417
0.226823
0.228295
0.229129
0.229573
0.229797
0.229905
0.229957
0.229981
0.229991
0.229996
0.229998
0.229999
0.23
0.23
0.23
0.23
0.23
0.23
0.23
0.23
4.76716e-10
2.08358e-09
4.78574e-09
9.3111e-09
1.68459e-08
2.92989e-08
4.96961e-08
8.27528e-08
1.3567e-07
2.19193e-07
3.48914e-07
5.46727e-07
8.42163e-07
1.27313e-06
1.88537e-06
2.72981e-06
3.8575e-06
5.31242e-06
7.12383e-06
9.30027e-06
1.18271e-05
1.46682e-05
1.77702e-05
2.1068e-05
2.44908e-05
2.79662e-05
3.14239e-05
3.47982e-05
3.80301e-05
4.1069e-05
4.38753e-05
4.64249e-05
4.87185e-05
5.07973e-05
5.27656e-05
5.48139e-05
5.72339e-05
6.04294e-05
6.49208e-05
7.13371e-05
8.04233e-05
9.30659e-05
0.00011034
0.00013358
0.000164474
0.000205187
0.00025852
0.000328109
0.000418694
0.000536448
0.000689427
0.00088814
0.0011463
0.00148177
0.00191786
0.00248486
0.00322206
0.00418019
0.00538831
0.00699883
0.00908043
0.0117554
0.0151029
0.0322153
0.0496393
0.0670522
0.0842044
0.1009
0.116983
0.132326
0.146821
0.160374
0.172895
0.184261
0.194474
0.203392
0.210937
0.217047
0.221716
0.225032
0.227201
0.228509
0.229243
0.22963
0.229824
0.229918
0.229963
0.229983
0.229993
0.229997
0.229999
0.229999
0.23
0.23
0.23
0.23
0.23
0.23
0.23
0.23
4.90069e-10
2.14198e-09
4.92024e-09
9.57414e-09
1.73257e-08
3.01429e-08
5.11482e-08
8.52122e-08
1.39782e-07
2.25981e-07
3.59974e-07
5.64493e-07
8.70253e-07
1.31676e-06
1.95181e-06
2.82877e-06
4.00143e-06
5.51652e-06
7.40577e-06
9.67963e-06
1.23247e-05
1.53049e-05
1.85664e-05
2.20429e-05
2.56612e-05
2.93463e-05
3.30247e-05
3.66272e-05
4.00908e-05
4.33611e-05
4.63948e-05
4.91658e-05
5.16752e-05
5.39703e-05
5.61699e-05
5.84887e-05
6.12499e-05
6.4898e-05
6.99957e-05
7.72147e-05
8.73429e-05
0.000101314
0.00012026
0.00014559
0.000179089
0.000223054
0.000280463
0.000355195
0.000452314
0.000578452
0.000742303
0.00095529
0.00123246
0.00159367
0.00206526
0.00268223
0.0034914
0.00454675
0.00591385
0.00777928
0.0102586
0.0135783
0.0179846
0.0355602
0.0532267
0.070737
0.0878868
0.104509
0.120464
0.135637
0.149928
0.163246
0.175506
0.18663
0.196535
0.205132
0.212348
0.218131
0.222493
0.225545
0.227513
0.228684
0.229335
0.229676
0.229846
0.229928
0.229967
0.229985
0.229993
0.229997
0.229999
0.229999
0.23
0.23
0.23
0.23
0.23
0.23
0.23
0.23
5.03122e-10
2.19909e-09
5.05186e-09
9.83188e-09
1.77966e-08
3.09728e-08
5.25797e-08
8.76439e-08
1.4386e-07
2.32737e-07
3.71027e-07
5.82323e-07
8.98569e-07
1.36095e-06
2.01941e-06
2.92997e-06
4.14935e-06
5.72734e-06
7.69848e-06
1.00755e-05
1.28465e-05
1.59762e-05
1.94103e-05
2.30814e-05
2.69146e-05
3.08322e-05
3.47576e-05
3.86177e-05
4.23457e-05
4.5883e-05
4.91823e-05
5.2215e-05
5.49828e-05
5.75403e-05
6.00227e-05
6.2671e-05
6.58416e-05
7.00216e-05
7.5816e-05
8.39365e-05
9.52111e-05
0.000110616
0.000131337
0.000158848
0.000195021
0.000242266
0.000303703
0.000383401
0.00048667
0.00062046
0.000793889
0.00101895
0.00131146
0.00169233
0.0021894
0.0028398
0.00369345
0.0048007
0.00624104
0.00821797
0.0108614
0.0144306
0.0214212
0.0390439
0.0567244
0.0742043
0.0912815
0.107793
0.123605
0.138607
0.1527
0.165798
0.17782
0.18869
0.198324
0.206636
0.213559
0.219053
0.223146
0.225971
0.227769
0.228827
0.22941
0.229713
0.229864
0.229937
0.229971
0.229987
0.229994
0.229997
0.229999
0.23
0.23
0.23
0.23
0.23
0.23
0.23
0.23
0.23
5.15809e-10
2.25461e-09
5.17992e-09
1.00829e-08
1.8256e-08
3.17841e-08
5.39823e-08
9.00328e-08
1.47879e-07
2.39418e-07
3.81994e-07
6.00082e-07
9.26888e-07
1.40533e-06
2.08761e-06
3.03252e-06
4.29997e-06
5.94305e-06
7.99949e-06
1.04847e-05
1.33888e-05
1.66776e-05
2.0297e-05
2.4179e-05
2.82472e-05
3.24217e-05
3.66227e-05
4.07739e-05
4.48042e-05
4.86506e-05
5.22619e-05
5.56066e-05
5.86876e-05
6.15678e-05
6.44016e-05
6.74581e-05
7.11274e-05
7.59413e-05
8.25452e-05
9.16888e-05
0.000104236
0.000121205
0.000143826
0.000173634
0.000212572
0.000263138
0.000328561
0.000413031
0.000521998
0.000662561
0.000843985
0.00107838
0.00138158
0.00177437
0.00228402
0.00294642
0.00380881
0.0049166
0.00633864
0.00825701
0.0107625
0.0140344
0.0248472
0.0423931
0.0599947
0.0773845
0.0943542
0.110739
0.126404
0.141239
0.15515
0.168049
0.179843
0.190487
0.199877
0.207934
0.214596
0.219835
0.223693
0.226324
0.227979
0.228943
0.22947
0.229743
0.229878
0.229943
0.229974
0.229988
0.229995
0.229998
0.229999
0.23
0.23
0.23
0.23
0.23
0.23
0.23
0.23
0.23
5.28014e-10
2.30805e-09
5.30324e-09
1.03249e-08
1.86995e-08
3.25688e-08
5.53419e-08
9.23542e-08
1.51795e-07
2.45947e-07
3.92749e-07
6.1756e-07
9.54863e-07
1.44934e-06
2.15554e-06
3.13513e-06
4.45138e-06
6.16099e-06
8.3052e-06
1.09026e-05
1.39458e-05
1.74022e-05
2.12187e-05
2.53272e-05
2.96504e-05
3.41068e-05
3.86141e-05
4.30928e-05
4.7468e-05
5.16724e-05
5.56508e-05
5.93692e-05
6.28322e-05
6.61125e-05
6.93867e-05
7.29541e-05
7.72411e-05
8.28217e-05
9.03809e-05
0.000100705
0.000114694
0.000133407
0.000158123
0.000190437
0.000232365
0.000286491
0.000356142
0.00044562
0.000560495
0.00070799
0.000897482
0.00114116
0.00145489
0.00185936
0.00238158
0.00305691
0.00393135
0.00504672
0.00647411
0.00839599
0.0109066
0.0141837
0.0278515
0.0453457
0.0628808
0.0801874
0.0970562
0.113322
0.128852
0.143536
0.157281
0.170003
0.181595
0.19204
0.201211
0.209043
0.215476
0.220491
0.224148
0.226615
0.22815
0.229037
0.229519
0.229767
0.22989
0.229949
0.229977
0.229989
0.229995
0.229998
0.229999
0.23
0.23
0.23
0.23
0.23
0.23
0.23
0.23
0.23
5.39589e-10
2.35873e-09
5.4203e-09
1.05549e-08
1.91215e-08
3.33167e-08
5.66404e-08
9.45767e-08
1.55554e-07
2.52233e-07
4.03135e-07
6.34496e-07
9.82069e-07
1.49232e-06
2.22213e-06
3.23617e-06
4.60118e-06
6.37768e-06
8.61078e-06
1.13227e-05
1.4509e-05
1.81396e-05
2.21629e-05
2.65115e-05
3.11083e-05
3.58707e-05
4.0715e-05
4.55592e-05
5.03252e-05
5.49423e-05
5.93515e-05
6.3517e-05
6.74462e-05
7.12245e-05
7.50534e-05
7.92632e-05
8.43159e-05
9.08266e-05
9.95194e-05
0.000111217
0.000126861
0.000147554
0.000174636
0.00020977
0.000255058
0.000313187
0.000387605
0.000482753
0.000604358
0.000759821
0.00095871
0.00121342
0.00154
0.00195935
0.00249837
0.00319164
0.00408564
0.00522052
0.00667236
0.00862239
0.0111614
0.014447
0.0303011
0.0478052
0.0653195
0.0825768
0.0993711
0.115541
0.130956
0.145509
0.15911
0.171675
0.183102
0.193375
0.202355
0.209986
0.216219
0.22104
0.224525
0.226853
0.228289
0.229113
0.229558
0.229786
0.229899
0.229953
0.229979
0.22999
0.229996
0.229998
0.229999
0.23
0.23
0.23
0.23
0.23
0.23
0.23
0.23
0.23
5.50357e-10
2.4059e-09
5.5293e-09
1.07692e-08
1.95153e-08
3.40159e-08
5.78568e-08
9.66632e-08
1.59091e-07
2.58165e-07
4.12966e-07
6.50577e-07
1.00799e-06
1.53341e-06
2.28607e-06
3.33361e-06
4.74631e-06
6.58869e-06
8.90998e-06
1.17364e-05
1.50671e-05
1.88751e-05
2.31112e-05
2.77099e-05
3.25949e-05
3.76842e-05
4.28935e-05
4.81398e-05
5.33432e-05
5.84302e-05
6.33397e-05
6.80352e-05
7.25293e-05
7.69231e-05
8.14456e-05
8.64559e-05
9.24488e-05
0.000100079
0.000110108
0.000123398
0.000140936
0.000163884
0.00019365
0.000231988
0.00028111
0.000343833
0.000423768
0.00052555
0.000655141
0.00082022
0.00103069
0.00129932
0.00164262
0.00208171
0.0026436
0.00336598
0.00429555
0.00546376
0.00695582
0.0089384
0.0114879
0.0147089
0.0320996
0.0497367
0.0673049
0.0845607
0.101314
0.117413
0.132735
0.147178
0.160652
0.173078
0.184368
0.194458
0.203299
0.210777
0.216838
0.221495
0.224834
0.227047
0.228402
0.229175
0.22959
0.229802
0.229906
0.229957
0.22998
0.229991
0.229996
0.229998
0.229999
0.23
0.23
0.23
0.23
0.23
0.23
0.23
0.23
0.23
5.60124e-10
2.44869e-09
5.62825e-09
1.0964e-08
1.98737e-08
3.46532e-08
5.89674e-08
9.85723e-08
1.62336e-07
2.6362e-07
4.22031e-07
6.6545e-07
1.03204e-06
1.57168e-06
2.34584e-06
3.42507e-06
4.88317e-06
6.78866e-06
9.19505e-06
1.21328e-05
1.56053e-05
1.95892e-05
2.40387e-05
2.88909e-05
3.40721e-05
3.95018e-05
4.50974e-05
5.0776e-05
5.6458e-05
6.20695e-05
6.7549e-05
7.2862e-05
7.80292e-05
8.31712e-05
8.85458e-05
9.45338e-05
0.000101656
0.000110602
0.000122172
0.000137269
0.000156935
0.000182399
0.000215156
0.000257066
0.000310474
0.000378364
0.00046455
0.000573924
0.000712772
0.000889179
0.00111357
0.00139939
0.00176392
0.00222916
0.00282596
0.00359112
0.00457403
0.00579825
0.00742909
0.00953964
0.0122775
0.0157697
0.0334747
0.0512844
0.0689327
0.0862068
0.102936
0.11898
0.134226
0.148576
0.161944
0.174248
0.185405
0.195376
0.204055
0.211394
0.217334
0.221864
0.225085
0.227204
0.228493
0.229224
0.229615
0.229814
0.229912
0.229959
0.229981
0.229992
0.229996
0.229998
0.229999
0.23
0.23
0.23
0.23
0.23
0.23
0.23
0.23
0.23
5.68687e-10
2.48622e-09
5.71508e-09
1.1135e-08
2.01889e-08
3.52144e-08
5.99474e-08
1.0026e-07
1.65211e-07
2.68464e-07
4.30103e-07
6.78731e-07
1.05359e-06
1.60607e-06
2.39974e-06
3.50788e-06
5.00762e-06
6.97136e-06
9.45686e-06
1.2499e-05
1.61055e-05
2.02573e-05
2.49127e-05
3.00127e-05
3.54869e-05
4.12587e-05
4.72482e-05
5.33758e-05
5.95643e-05
6.57424e-05
7.18518e-05
7.78636e-05
8.38111e-05
8.98394e-05
9.62325e-05
0.000103377
0.000111811
0.000122254
0.000135539
0.000152619
0.000174592
0.000202764
0.000238726
0.000284456
0.000342445
0.000415858
0.000508735
0.000626251
0.000775052
0.000963688
0.00120318
0.0015077
0.00189533
0.00239125
0.00302581
0.00383978
0.0048831
0.00618846
0.00793354
0.0101936
0.0131324
0.0168873
0.0347377
0.0526313
0.0703148
0.0875874
0.104287
0.120282
0.135461
0.14973
0.163004
0.175207
0.186284
0.196148
0.204715
0.21192
0.217731
0.222157
0.225285
0.227329
0.228565
0.229263
0.229635
0.229824
0.229917
0.229962
0.229982
0.229992
0.229997
0.229998
0.229999
0.23
0.23
0.23
0.23
0.23
0.23
0.23
0.23
0.23
5.75844e-10
2.5176e-09
5.78772e-09
1.12783e-08
2.04531e-08
3.56857e-08
6.07716e-08
1.01683e-07
1.67639e-07
2.72564e-07
4.36949e-07
6.90024e-07
1.07195e-06
1.63547e-06
2.44598e-06
3.57916e-06
5.11517e-06
7.12993e-06
9.68518e-06
1.282e-05
1.65466e-05
2.08502e-05
2.56937e-05
3.10226e-05
3.67714e-05
4.28681e-05
4.92382e-05
5.58074e-05
6.25043e-05
6.92639e-05
7.60357e-05
8.28022e-05
8.96162e-05
9.66523e-05
0.000104213
0.000112666
0.000122554
0.000134617
0.000149725
0.000168876
0.000193231
0.000224175
0.000263397
0.000312992
0.000375593
0.000454537
0.000554076
0.000679645
0.000838216
0.00103873
0.00129268
0.00161481
0.00202479
0.00254753
0.0032156
0.00407163
0.00516392
0.00653466
0.00836721
0.0107413
0.0138314
0.0178865
0.0358229
0.0537595
0.071453
0.08871
0.105374
0.121318
0.136435
0.150636
0.163844
0.175986
0.186983
0.196761
0.205238
0.212353
0.218065
0.222388
0.22544
0.227425
0.22862
0.229293
0.22965
0.229832
0.229921
0.229963
0.229983
0.229992
0.229997
0.229999
0.229999
0.23
0.23
0.23
0.23
0.23
0.23
0.23
0.23
0.23
5.81404e-10
2.54198e-09
5.84421e-09
1.13898e-08
2.0659e-08
3.60535e-08
6.14159e-08
1.02797e-07
1.69544e-07
2.75788e-07
4.42344e-07
6.98941e-07
1.08649e-06
1.6588e-06
2.48277e-06
3.63604e-06
5.20126e-06
7.25733e-06
9.86933e-06
1.30801e-05
1.69057e-05
2.13356e-05
2.63371e-05
3.18604e-05
3.78451e-05
4.42249e-05
5.09318e-05
5.78988e-05
6.5063e-05
7.23696e-05
7.97813e-05
8.72989e-05
9.50035e-05
0.000103106
0.000111917
0.000121757
0.000133152
0.000146858
0.000163774
0.000184946
0.000211596
0.000245187
0.000287496
0.000340724
0.00040763
0.000491691
0.000597324
0.000730154
0.000897358
0.00110813
0.00137427
0.0017112
0.0021388
0.00268212
0.00337421
0.00425805
0.00537916
0.00678406
0.00865516
0.0110688
0.014196
0.018681
0.0366761
0.0546364
0.0723284
0.0895658
0.106198
0.122105
0.137181
0.151339
0.164495
0.176575
0.187508
0.197218
0.205626
0.21267
0.218311
0.222567
0.225555
0.227496
0.228661
0.229315
0.229662
0.229837
0.229923
0.229964
0.229984
0.229993
0.229997
0.229999
0.229999
0.23
0.23
0.23
0.23
0.23
0.23
0.23
0.23
0.23
5.85196e-10
2.55862e-09
5.88276e-09
1.1466e-08
2.07998e-08
3.63053e-08
6.18576e-08
1.03561e-07
1.70853e-07
2.78006e-07
4.46062e-07
7.05097e-07
1.09654e-06
1.67496e-06
2.50831e-06
3.67562e-06
5.26132e-06
7.34645e-06
9.9986e-06
1.32634e-05
1.71598e-05
2.16807e-05
2.67968e-05
3.24625e-05
3.86218e-05
4.52137e-05
5.21762e-05
5.94498e-05
6.69805e-05
7.4725e-05
8.2661e-05
9.08109e-05
9.92868e-05
0.000108333
0.000118276
0.000129484
0.000142307
0.000157513
0.000176033
0.000198957
0.00022757
0.000263401
0.000308304
0.000364567
0.000435044
0.000523321
0.000633936
0.000772649
0.000946798
0.00116576
0.00144159
0.00178966
0.0022295
0.00278645
0.00349319
0.00439197
0.00552576
0.0069408
0.00881561
0.0112201
0.0143161
0.0192351
0.0372711
0.0552465
0.0729366
0.0901615
0.106775
0.122654
0.137697
0.151817
0.164933
0.17697
0.187859
0.197523
0.205885
0.21288
0.218473
0.222685
0.225635
0.227544
0.228688
0.229329
0.229669
0.229841
0.229925
0.229965
0.229984
0.229993
0.229997
0.229999
0.229999
0.23
0.23
0.23
0.23
0.23
0.23
0.23
0.23
0.23
5.87079e-10
2.56687e-09
5.90186e-09
1.15036e-08
2.08693e-08
3.64293e-08
6.20748e-08
1.03937e-07
1.71495e-07
2.79093e-07
4.47883e-07
7.08111e-07
1.10147e-06
1.68288e-06
2.52083e-06
3.69504e-06
5.29085e-06
7.39039e-06
1.00625e-05
1.33543e-05
1.72864e-05
2.18535e-05
2.70282e-05
3.27672e-05
3.90173e-05
4.57205e-05
5.28186e-05
6.02567e-05
6.79866e-05
7.59725e-05
8.42021e-05
9.27115e-05
0.00010163
0.000111218
0.000121864
0.000133993
0.000147982
0.000164273
0.000183878
0.00020795
0.000237825
0.000275084
0.000321638
0.000379831
0.00045258
0.000543543
0.000657334
0.000799796
0.000978349
0.00120244
0.00148409
0.00183867
0.00228577
0.00285054
0.00356524
0.00447136
0.00561026
0.00702649
0.00889507
0.01128
0.0143341
0.0195176
0.0375843
0.0555704
0.0732589
0.0904743
0.107073
0.122934
0.137959
0.152057
0.165151
0.177166
0.188032
0.197674
0.206011
0.212982
0.218551
0.222741
0.225672
0.227567
0.228701
0.229336
0.229673
0.229843
0.229926
0.229966
0.229984
0.229993
0.229997
0.229999
0.229999
0.23
0.23
0.23
0.23
0.23
0.23
0.23
0.23
0.23
5.87036e-10
2.56668e-09
5.90141e-09
1.15027e-08
2.08675e-08
3.64261e-08
6.20689e-08
1.03926e-07
1.71476e-07
2.79061e-07
4.47829e-07
7.08021e-07
1.10132e-06
1.68265e-06
2.52047e-06
3.69451e-06
5.29007e-06
7.38929e-06
1.0061e-05
1.33523e-05
1.72838e-05
2.18503e-05
2.70244e-05
3.27627e-05
3.90122e-05
4.57147e-05
5.28124e-05
6.02501e-05
6.79799e-05
7.59658e-05
8.41956e-05
9.27056e-05
0.000101625
0.000111214
0.000121861
0.000133992
0.000147982
0.000164276
0.000183885
0.000207961
0.000237841
0.000275108
0.000321671
0.000379877
0.000452642
0.000543626
0.000657444
0.000799939
0.000978534
0.00120267
0.00148439
0.00183903
0.00228621
0.00285106
0.00356583
0.00447199
0.00561087
0.00702695
0.00889528
0.01128
0.0143343
0.0195197
0.0375858
0.0555717
0.0732601
0.0904754
0.107074
0.122935
0.137959
0.152058
0.165152
0.177167
0.188033
0.197674
0.206011
0.212982
0.218551
0.222741
0.225672
0.227567
0.228701
0.229336
0.229673
0.229843
0.229926
0.229966
0.229984
0.229993
0.229997
0.229999
0.229999
0.23
0.23
0.23
0.23
0.23
0.23
0.23
0.23
0.23
5.85076e-10
2.55808e-09
5.8815e-09
1.14634e-08
2.07949e-08
3.62962e-08
6.18412e-08
1.03532e-07
1.70802e-07
2.77918e-07
4.45913e-07
7.04851e-07
1.09615e-06
1.67433e-06
2.50733e-06
3.67414e-06
5.25915e-06
7.34337e-06
9.99437e-06
1.32577e-05
1.71525e-05
2.16716e-05
2.67858e-05
3.24495e-05
3.86069e-05
4.5197e-05
5.2158e-05
5.94304e-05
6.69604e-05
7.47047e-05
8.26412e-05
9.07924e-05
9.92702e-05
0.000108319
0.000118265
0.000129477
0.000142306
0.000157518
0.000176047
0.000198983
0.000227611
0.00026346
0.000308388
0.000364684
0.000435203
0.000523534
0.000634219
0.000773021
0.000947281
0.00116638
0.00144238
0.00179063
0.00223068
0.00278784
0.00349475
0.0043936
0.00552731
0.00694196
0.00881612
0.0112201
0.0143172
0.0192412
0.0372758
0.0552505
0.0729402
0.0901648
0.106778
0.122657
0.1377
0.151819
0.164935
0.176972
0.187861
0.197525
0.205886
0.212881
0.218474
0.222685
0.225635
0.227544
0.228688
0.229329
0.229669
0.229841
0.229925
0.229965
0.229984
0.229993
0.229997
0.229999
0.229999
0.23
0.23
0.23
0.23
0.23
0.23
0.23
0.23
0.23
5.81217e-10
2.54115e-09
5.84224e-09
1.13858e-08
2.06514e-08
3.60394e-08
6.13906e-08
1.02751e-07
1.69465e-07
2.75653e-07
4.42116e-07
6.98564e-07
1.08588e-06
1.65783e-06
2.48127e-06
3.63378e-06
5.19796e-06
7.25264e-06
9.86289e-06
1.30715e-05
1.68946e-05
2.13218e-05
2.63203e-05
3.18406e-05
3.78223e-05
4.41994e-05
5.09039e-05
5.7869e-05
6.50318e-05
7.23379e-05
7.97499e-05
8.72689e-05
9.49759e-05
0.000103082
0.000111897
0.000121743
0.000133144
0.000146859
0.000163786
0.000184971
0.000211639
0.000245252
0.000287591
0.000340858
0.000407813
0.000491938
0.000597654
0.000730587
0.000897922
0.00110886
0.0013752
0.00171236
0.0021402
0.00268375
0.00337602
0.00425994
0.00538096
0.00678548
0.00865604
0.0110696
0.0141992
0.0186906
0.0366838
0.0546432
0.0723347
0.0895718
0.106204
0.12211
0.137186
0.151344
0.164499
0.176579
0.187511
0.197221
0.205629
0.212672
0.218312
0.222568
0.225556
0.227496
0.228661
0.229315
0.229662
0.229837
0.229923
0.229965
0.229984
0.229993
0.229997
0.229999
0.229999
0.23
0.23
0.23
0.23
0.23
0.23
0.23
0.23
0.23
5.75603e-10
2.51653e-09
5.78518e-09
1.12731e-08
2.04432e-08
3.56674e-08
6.07386e-08
1.01624e-07
1.67536e-07
2.72388e-07
4.36652e-07
6.89531e-07
1.07116e-06
1.6342e-06
2.44402e-06
3.57619e-06
5.11081e-06
7.12374e-06
9.67664e-06
1.28086e-05
1.65319e-05
2.08318e-05
2.56713e-05
3.09961e-05
3.67409e-05
4.28338e-05
4.92005e-05
5.57668e-05
6.24616e-05
6.92199e-05
7.59915e-05
8.27589e-05
8.9575e-05
9.66142e-05
0.000104179
0.000112637
0.00012253
0.0001346
0.000149717
0.000168877
0.000193246
0.000224207
0.000263451
0.000313074
0.000375712
0.000454703
0.000554301
0.000679946
0.00083861
0.00103924
0.00129332
0.0016156
0.00202581
0.00254878
0.00321708
0.00407331
0.00516573
0.00653651
0.00836918
0.010744
0.0138375
0.0178972
0.035832
0.053768
0.0714612
0.088718
0.105382
0.121325
0.136442
0.150642
0.16385
0.175991
0.186988
0.196765
0.205242
0.212356
0.218067
0.22239
0.225441
0.227426
0.22862
0.229293
0.229651
0.229832
0.229921
0.229963
0.229983
0.229992
0.229997
0.229999
0.229999
0.23
0.23
0.23
0.23
0.23
0.23
0.23
0.23
0.23
5.68406e-10
2.48498e-09
5.71211e-09
1.1129e-08
2.01773e-08
3.5193e-08
5.99086e-08
1.00191e-07
1.6509e-07
2.68256e-07
4.2975e-07
6.78146e-07
1.05263e-06
1.60455e-06
2.39739e-06
3.50432e-06
5.0024e-06
6.96392e-06
9.4466e-06
1.24853e-05
1.60878e-05
2.02351e-05
2.48856e-05
2.99805e-05
3.54498e-05
4.12168e-05
4.7202e-05
5.33258e-05
5.95114e-05
6.56875e-05
7.17958e-05
7.78076e-05
8.37563e-05
8.97866e-05
9.61822e-05
0.00010333
0.000111767
0.000122213
0.000135501
0.000152585
0.000174562
0.00020274
0.000238709
0.000284448
0.00034245
0.000415879
0.000508778
0.000626323
0.000775162
0.000963846
0.0012034
0.00150798
0.00189569
0.00239172
0.00302645
0.00384062
0.00488419
0.00618994
0.00793581
0.0101974
0.0131392
0.016896
0.0347464
0.0526406
0.0703246
0.0875974
0.104297
0.120291
0.13547
0.149738
0.163011
0.175213
0.186289
0.196152
0.204718
0.211923
0.217734
0.222159
0.225287
0.22733
0.228565
0.229263
0.229635
0.229824
0.229917
0.229962
0.229982
0.229992
0.229997
0.229998
0.229999
0.23
0.23
0.23
0.23
0.23
0.23
0.23
0.23
0.23
5.59818e-10
2.44734e-09
5.62501e-09
1.09574e-08
1.9861e-08
3.46296e-08
5.89246e-08
9.8496e-08
1.62202e-07
2.63388e-07
4.21638e-07
6.64797e-07
1.03098e-06
1.56998e-06
2.3432e-06
3.42107e-06
4.87729e-06
6.78027e-06
9.18346e-06
1.21173e-05
1.55852e-05
1.9564e-05
2.40079e-05
2.88544e-05
3.40298e-05
3.9454e-05
4.50444e-05
5.07185e-05
5.63967e-05
6.20053e-05
6.74829e-05
7.27949e-05
7.79621e-05
8.31048e-05
8.84804e-05
9.4469e-05
0.000101591
0.000110537
0.000122104
0.000137198
0.000156859
0.000182315
0.000215062
0.000256959
0.00031035
0.000378218
0.000464378
0.000573722
0.000712533
0.000888901
0.00111325
0.00139903
0.00176352
0.00222879
0.00282566
0.00359107
0.00457453
0.00579967
0.007432
0.00954472
0.0122852
0.0157779
0.0334833
0.0512945
0.0689437
0.0862182
0.102947
0.118991
0.134236
0.148585
0.161951
0.174253
0.185406
0.19537
0.204056
0.211398
0.217338
0.221867
0.225087
0.227205
0.228494
0.229224
0.229615
0.229815
0.229912
0.229959
0.229981
0.229992
0.229996
0.229998
0.229999
0.23
0.23
0.23
0.23
0.23
0.23
0.23
0.23
0.23
5.50041e-10
2.4045e-09
5.52595e-09
1.07623e-08
1.95021e-08
3.39913e-08
5.78119e-08
9.65828e-08
1.5895e-07
2.5792e-07
4.12549e-07
6.49881e-07
1.00685e-06
1.53159e-06
2.28324e-06
3.32931e-06
4.73998e-06
6.57965e-06
8.89747e-06
1.17196e-05
1.50454e-05
1.88478e-05
2.30779e-05
2.76703e-05
3.2549e-05
3.76322e-05
4.28358e-05
4.80769e-05
5.32758e-05
5.83592e-05
6.3266e-05
6.79597e-05
7.24529e-05
7.68463e-05
8.13684e-05
8.6378e-05
9.23691e-05
9.99956e-05
0.000110019
0.000123301
0.000140828
0.000163761
0.000193508
0.000231821
0.000280911
0.000343595
0.000423482
0.000525205
0.000654728
0.000819731
0.00103012
0.00129868
0.00164193
0.00208099
0.00264298
0.00336563
0.00429585
0.005465
0.00695866
0.00894327
0.0114946
0.0147144
0.0321083
0.0497496
0.0673191
0.084575
0.101328
0.117426
0.132748
0.14719
0.160664
0.173091
0.184383
0.194479
0.203312
0.210785
0.216844
0.221499
0.224837
0.227049
0.228403
0.229175
0.22959
0.229802
0.229906
0.229957
0.22998
0.229991
0.229996
0.229998
0.229999
0.23
0.23
0.23
0.23
0.23
0.23
0.23
0.23
0.23
5.39278e-10
2.35735e-09
5.41699e-09
1.05481e-08
1.91083e-08
3.3292e-08
5.65952e-08
9.44953e-08
1.5541e-07
2.51983e-07
4.02708e-07
6.33781e-07
9.80898e-07
1.49044e-06
2.2192e-06
3.23172e-06
4.5946e-06
6.36828e-06
8.59777e-06
1.13052e-05
1.44863e-05
1.81111e-05
2.21281e-05
2.64702e-05
3.10604e-05
3.58163e-05
4.06545e-05
4.54931e-05
5.02543e-05
5.48673e-05
5.92734e-05
6.34365e-05
6.73642e-05
7.11415e-05
7.49696e-05
7.91782e-05
8.42286e-05
9.07354e-05
9.94221e-05
0.000111111
0.000126742
0.00014742
0.000174481
0.000209589
0.000254845
0.000312934
0.000387303
0.00048239
0.000603922
0.000759298
0.000958086
0.00121268
0.00153915
0.00195839
0.00249737
0.0031907
0.00408498
0.00522044
0.00667376
0.00862452
0.0111647
0.0144493
0.0303189
0.0478253
0.0653393
0.0825954
0.0993885
0.115557
0.130971
0.145524
0.159125
0.17169
0.183117
0.19339
0.202366
0.209995
0.216225
0.221045
0.224528
0.226855
0.22829
0.229114
0.229558
0.229787
0.229899
0.229953
0.229979
0.22999
0.229996
0.229998
0.229999
0.23
0.23
0.23
0.23
0.23
0.23
0.23
0.23
0.23
5.27721e-10
2.30674e-09
5.3001e-09
1.03184e-08
1.86868e-08
3.2545e-08
5.52979e-08
9.22747e-08
1.51653e-07
2.457e-07
3.92326e-07
6.16849e-07
9.53695e-07
1.44747e-06
2.1526e-06
3.13066e-06
4.44476e-06
6.15151e-06
8.29206e-06
1.0885e-05
1.39229e-05
1.73734e-05
2.11836e-05
2.52855e-05
2.9602e-05
3.40518e-05
3.85529e-05
4.30259e-05
4.73961e-05
5.15963e-05