/*--------------------------------*- C++ -*----------------------------------*\
  =========                 |
  \\      /  F ield         | OpenFOAM: The Open Source CFD Toolbox
   \\    /   O peration     | Website:  https://openfoam.org
    \\  /    A nd           | Version:  8
     \\/     M anipulation  |
\*---------------------------------------------------------------------------*/
FoamFile
{
    version     2.0;
    format      ascii;
    class       surfaceScalarField;
    location    "280/fluid";
    object      phi;
}
// * * * * * * * * * * * * * * * * * * * * * * * * * * * * * * * * * * * * * //

dimensions      [1 0 -1 0 0 0 0];

internalField   nonuniform List<scalar> 
7860
(
6.57432e-07
-1.72122e-08
6.55104e-07
-5.15135e-08
6.5179e-07
-8.558e-08
6.474e-07
-1.1941e-07
6.41818e-07
-1.5303e-07
6.34905e-07
-1.86388e-07
6.265e-07
-2.19405e-07
6.16432e-07
-2.51986e-07
6.04519e-07
-2.84001e-07
5.90586e-07
-3.15264e-07
5.74467e-07
-3.45523e-07
5.56027e-07
-3.74456e-07
5.35189e-07
-4.01651e-07
5.11975e-07
-4.26602e-07
4.86626e-07
-4.48732e-07
4.59412e-07
-4.6738e-07
4.30694e-07
-4.81931e-07
4.00924e-07
-4.91946e-07
3.70605e-07
-4.97296e-07
3.4024e-07
-4.98231e-07
3.10273e-07
-4.9534e-07
2.81052e-07
-4.89419e-07
2.52819e-07
-4.81309e-07
2.25722e-07
-4.7176e-07
1.99876e-07
-4.61365e-07
1.75304e-07
-4.50532e-07
1.51966e-07
-4.39525e-07
1.29796e-07
-4.28501e-07
1.08718e-07
-4.1755e-07
8.866e-08
-4.06718e-07
6.95537e-08
-3.96031e-07
5.13381e-08
-3.85506e-07
3.39588e-08
-3.75161e-07
1.73662e-08
-3.65017e-07
1.51464e-09
-3.551e-07
-1.36308e-08
-3.4544e-07
-2.81017e-08
-3.36052e-07
-4.19334e-08
-3.2692e-07
-5.5159e-08
-3.18071e-07
-6.78096e-08
-3.09527e-07
-7.99149e-08
-3.01312e-07
-9.15028e-08
-2.93443e-07
-1.026e-07
-2.85934e-07
-1.13231e-07
-2.78796e-07
-1.23421e-07
-2.72035e-07
-1.3319e-07
-2.65654e-07
-1.42561e-07
-2.59655e-07
-1.51552e-07
-2.54034e-07
-1.60181e-07
-2.48786e-07
-1.68465e-07
-2.43906e-07
-1.76419e-07
-2.39385e-07
-1.84055e-07
-2.35214e-07
-1.91389e-07
-2.31385e-07
-1.98431e-07
-2.27891e-07
-2.05194e-07
-2.24729e-07
-2.11691e-07
-2.21896e-07
-2.17938e-07
-2.194e-07
-2.23954e-07
-2.17255e-07
-2.2977e-07
-2.15486e-07
-2.35421e-07
-2.14178e-07
-2.40952e-07
-2.1335e-07
-2.46445e-07
-2.13086e-07
-2.52097e-07
-2.13618e-07
-2.57604e-07
-2.15091e-07
-2.67323e-07
-2.22372e-07
-2.75853e-07
-2.35838e-07
-2.85606e-07
-2.50726e-07
-2.96371e-07
-2.66966e-07
-3.0822e-07
-2.8468e-07
-3.21307e-07
-3.04067e-07
-3.35831e-07
-3.25364e-07
-3.52055e-07
-3.48862e-07
-3.70329e-07
-3.74914e-07
-3.91121e-07
-4.03942e-07
-4.15045e-07
-4.3648e-07
-4.42891e-07
-4.73242e-07
-4.75624e-07
-5.14528e-07
-5.14234e-07
-5.59734e-07
-5.59387e-07
-6.06744e-07
-6.10924e-07
-6.51117e-07
-6.68066e-07
-6.86118e-07
-7.28803e-07
-7.05273e-07
-7.90105e-07
-7.05982e-07
-8.48958e-07
-6.90546e-07
-9.03265e-07
-6.63595e-07
-9.52024e-07
-6.29573e-07
-9.94917e-07
-5.91452e-07
-1.03182e-06
-5.50899e-07
-1.06301e-06
-5.08751e-07
-1.08912e-06
-4.65501e-07
-1.11078e-06
-4.21537e-07
-1.12858e-06
-3.77161e-07
-1.14306e-06
-3.32601e-07
-1.15469e-06
-2.87999e-07
-1.16388e-06
-2.43402e-07
-1.17101e-06
-1.98839e-07
-1.17636e-06
-1.54462e-07
-1.18021e-06
-1.10463e-07
-1.18274e-06
-6.66157e-08
-2.2365e-08
6.57982e-07
-1.66601e-08
6.56104e-07
-4.96361e-08
6.52838e-07
-8.23135e-08
6.48183e-07
-1.14755e-07
6.42081e-07
-1.46927e-07
6.34441e-07
-1.78748e-07
6.25163e-07
-2.10126e-07
6.14141e-07
-2.40963e-07
6.01273e-07
-2.71132e-07
5.86477e-07
-3.00464e-07
5.69691e-07
-3.28733e-07
5.50893e-07
-3.55651e-07
5.30103e-07
-3.80849e-07
5.07401e-07
-4.03883e-07
4.8296e-07
-4.24265e-07
4.56991e-07
-4.41374e-07
4.29772e-07
-4.54662e-07
4.01646e-07
-4.63755e-07
3.73e-07
-4.6857e-07
3.44225e-07
-4.69362e-07
3.15675e-07
-4.66684e-07
2.87639e-07
-4.61268e-07
2.60327e-07
-4.53877e-07
2.33881e-07
-4.45191e-07
2.08396e-07
-4.35758e-07
1.8392e-07
-4.25934e-07
1.60458e-07
-4.15945e-07
1.37995e-07
-4.05925e-07
1.16503e-07
-3.9595e-07
9.59486e-08
-3.8606e-07
7.62953e-08
-3.76278e-07
5.75067e-08
-3.66623e-07
3.95459e-08
-3.57111e-07
2.23764e-08
-3.47763e-07
5.96191e-09
-3.38605e-07
-9.73143e-09
-3.29669e-07
-2.47357e-08
-3.20968e-07
-3.90827e-08
-3.12491e-07
-5.28047e-08
-3.04264e-07
-6.59333e-08
-2.96311e-07
-7.84993e-08
-2.88656e-07
-9.05327e-08
-2.81317e-07
-1.02063e-07
-2.74309e-07
-1.13117e-07
-2.67644e-07
-1.23722e-07
-2.6133e-07
-1.33904e-07
-2.5537e-07
-1.43687e-07
-2.49768e-07
-1.53095e-07
-2.44522e-07
-1.62148e-07
-2.39627e-07
-1.70868e-07
-2.3508e-07
-1.79274e-07
-2.30872e-07
-1.87385e-07
-2.26996e-07
-1.95219e-07
-2.23445e-07
-2.02796e-07
-2.20211e-07
-2.10134e-07
-2.17289e-07
-2.17255e-07
-2.14676e-07
-2.24186e-07
-2.12374e-07
-2.30959e-07
-2.10391e-07
-2.37617e-07
-2.08742e-07
-2.44217e-07
-2.07497e-07
-2.50861e-07
-2.06624e-07
-2.57687e-07
-2.0618e-07
-2.64937e-07
-2.06285e-07
-2.724e-07
-2.07035e-07
-2.82253e-07
-2.15407e-07
-2.91115e-07
-2.2759e-07
-3.01343e-07
-2.41176e-07
-3.12874e-07
-2.56192e-07
-3.25731e-07
-2.72675e-07
-3.40021e-07
-2.9074e-07
-3.55911e-07
-3.10568e-07
-3.73618e-07
-3.324e-07
-3.9341e-07
-3.56542e-07
-4.15613e-07
-3.83361e-07
-4.4057e-07
-4.13383e-07
-4.68691e-07
-4.47247e-07
-5.00484e-07
-4.85123e-07
-5.36476e-07
-5.2634e-07
-5.77103e-07
-5.68795e-07
-6.22511e-07
-6.08241e-07
-6.72404e-07
-6.38348e-07
-7.25501e-07
-6.5372e-07
-7.79615e-07
-6.52843e-07
-8.32466e-07
-6.3824e-07
-8.82382e-07
-6.13957e-07
-9.28474e-07
-5.83616e-07
-9.70373e-07
-5.49615e-07
-1.0079e-06
-5.13398e-07
-1.04104e-06
-4.75626e-07
-1.06992e-06
-4.36626e-07
-1.09476e-06
-3.96696e-07
-1.11585e-06
-3.56081e-07
-1.13347e-06
-3.14973e-07
-1.14796e-06
-2.73507e-07
-1.15963e-06
-2.31742e-07
-1.16873e-06
-1.8973e-07
-1.17554e-06
-1.47652e-07
-1.18026e-06
-1.05751e-07
-1.18297e-06
-6.38995e-08
-2.15174e-08
6.57718e-07
-1.5844e-08
6.55355e-07
-4.72732e-08
6.51455e-07
-7.84142e-08
6.45988e-07
-1.09288e-07
6.38914e-07
-1.39853e-07
6.30186e-07
-1.7002e-07
6.19757e-07
-1.99696e-07
6.07585e-07
-2.2879e-07
5.9364e-07
-2.57187e-07
5.77914e-07
-2.84735e-07
5.6042e-07
-3.11236e-07
5.41206e-07
-3.3643e-07
5.20347e-07
-3.5998e-07
4.97944e-07
-3.81466e-07
4.74094e-07
-4.00393e-07
4.48979e-07
-4.16228e-07
4.22848e-07
-4.2849e-07
3.96003e-07
-4.36857e-07
3.6877e-07
-4.4127e-07
3.41468e-07
-4.41981e-07
3.14382e-07
-4.39509e-07
2.87741e-07
-4.34531e-07
2.61713e-07
-4.27747e-07
2.36403e-07
-4.19776e-07
2.11852e-07
-4.11102e-07
1.88082e-07
-4.02061e-07
1.65109e-07
-3.92871e-07
1.42939e-07
-3.83657e-07
1.21572e-07
-3.74488e-07
1.01002e-07
-3.65398e-07
8.1218e-08
-3.56406e-07
6.22039e-08
-3.47524e-07
4.39416e-08
-3.38768e-07
2.64101e-08
-3.30155e-07
9.58644e-09
-3.21709e-07
-6.5531e-09
-3.1346e-07
-2.20328e-08
-3.05418e-07
-3.68771e-08
-2.97573e-07
-5.11131e-08
-2.89951e-07
-6.47686e-08
-2.82576e-07
-7.78718e-08
-2.7547e-07
-9.04512e-08
-2.68652e-07
-1.02535e-07
-2.62137e-07
-1.14152e-07
-2.55937e-07
-1.2533e-07
-2.50059e-07
-1.36096e-07
-2.44509e-07
-1.46477e-07
-2.3929e-07
-1.565e-07
-2.344e-07
-1.66189e-07
-2.29837e-07
-1.75572e-07
-2.25596e-07
-1.84673e-07
-2.2167e-07
-1.93518e-07
-2.1805e-07
-2.02133e-07
-2.1473e-07
-2.10545e-07
-2.11701e-07
-2.18785e-07
-2.08955e-07
-2.26883e-07
-2.06489e-07
-2.34879e-07
-2.04299e-07
-2.42815e-07
-2.02388e-07
-2.50743e-07
-2.00766e-07
-2.58734e-07
-1.99486e-07
-2.66816e-07
-1.98475e-07
-2.75158e-07
-1.97808e-07
-2.83949e-07
-1.97498e-07
-2.93704e-07
-1.97562e-07
-3.03372e-07
-2.07101e-07
-3.13159e-07
-2.18403e-07
-3.24061e-07
-2.30945e-07
-3.36199e-07
-2.44812e-07
-3.4967e-07
-2.6006e-07
-3.64584e-07
-2.76796e-07
-3.81069e-07
-2.95185e-07
-3.99263e-07
-3.15457e-07
-4.19317e-07
-3.37912e-07
-4.41375e-07
-3.62923e-07
-4.65534e-07
-3.91068e-07
-4.91941e-07
-4.22922e-07
-5.20839e-07
-4.58525e-07
-5.5263e-07
-4.96998e-07
-5.8801e-07
-5.35865e-07
-6.27867e-07
-5.70621e-07
-6.72365e-07
-5.95659e-07
-7.20461e-07
-6.069e-07
-7.70136e-07
-6.03959e-07
-8.19274e-07
-5.89541e-07
-8.66305e-07
-5.6715e-07
-9.10334e-07
-5.39696e-07
-9.50965e-07
-5.09035e-07
-9.88155e-07
-4.76231e-07
-1.0219e-06
-4.41894e-07
-1.05214e-06
-4.06384e-07
-1.0789e-06
-3.69936e-07
-1.10226e-06
-3.32728e-07
-1.12233e-06
-2.94905e-07
-1.13926e-06
-2.5657e-07
-1.15324e-06
-2.17768e-07
-1.16441e-06
-1.78555e-07
-1.17295e-06
-1.39121e-07
-1.17897e-06
-9.97246e-08
-1.18259e-06
-6.0278e-08
-2.0289e-08
6.57721e-07
-1.50308e-08
6.55265e-07
-4.48174e-08
6.51163e-07
-7.43127e-08
6.45412e-07
-1.03536e-07
6.37997e-07
-1.32439e-07
6.28907e-07
-1.60929e-07
6.18125e-07
-1.88915e-07
6.05644e-07
-2.16308e-07
5.91458e-07
-2.43e-07
5.75576e-07
-2.68851e-07
5.58017e-07
-2.93674e-07
5.3882e-07
-3.17229e-07
5.18052e-07
-3.39205e-07
4.9581e-07
-3.59213e-07
4.72233e-07
-3.76799e-07
4.47509e-07
-3.9148e-07
4.21872e-07
-4.0282e-07
3.95591e-07
-4.10532e-07
3.68952e-07
-4.14578e-07
3.42235e-07
-4.152e-07
3.15689e-07
-4.12889e-07
2.89516e-07
-4.08278e-07
2.63869e-07
-4.02016e-07
2.38852e-07
-3.94672e-07
2.14526e-07
-3.86688e-07
1.90928e-07
-3.78374e-07
1.6807e-07
-3.69926e-07
1.45958e-07
-3.61459e-07
1.24586e-07
-3.53034e-07
1.03949e-07
-3.44681e-07
8.40342e-08
-3.36415e-07
6.483e-08
-3.28247e-07
4.63217e-08
-3.20189e-07
2.8493e-08
-3.12259e-07
1.13258e-08
-3.04478e-07
-5.19921e-09
-2.96873e-07
-2.11021e-08
-2.89453e-07
-3.64026e-08
-2.82207e-07
-5.11241e-08
-2.75161e-07
-6.52911e-08
-2.68337e-07
-7.89293e-08
-2.61757e-07
-9.20654e-08
-2.55439e-07
-1.04727e-07
-2.49395e-07
-1.16941e-07
-2.43639e-07
-1.28736e-07
-2.38178e-07
-1.40141e-07
-2.33016e-07
-1.51183e-07
-2.28157e-07
-1.61891e-07
-2.236e-07
-1.72294e-07
-2.1934e-07
-1.82419e-07
-2.15375e-07
-1.92297e-07
-2.11696e-07
-2.01956e-07
-2.08295e-07
-2.11427e-07
-2.05163e-07
-2.20743e-07
-2.02292e-07
-2.29935e-07
-1.99672e-07
-2.39041e-07
-1.97298e-07
-2.48097e-07
-1.95167e-07
-2.57143e-07
-1.93278e-07
-2.66213e-07
-1.91657e-07
-2.7535e-07
-1.90332e-07
-2.84573e-07
-1.89267e-07
-2.93894e-07
-1.88563e-07
-3.03311e-07
-1.88256e-07
-3.15953e-07
-1.88544e-07
-3.2553e-07
-1.97976e-07
-3.35992e-07
-2.08492e-07
-3.47462e-07
-2.20122e-07
-3.60075e-07
-2.32943e-07
-3.73943e-07
-2.47042e-07
-3.89167e-07
-2.62539e-07
-4.05849e-07
-2.79602e-07
-4.24089e-07
-2.98463e-07
-4.43992e-07
-3.1942e-07
-4.65652e-07
-3.42862e-07
-4.89147e-07
-3.6938e-07
-5.14665e-07
-3.99423e-07
-5.42531e-07
-4.32857e-07
-5.73241e-07
-4.6858e-07
-6.07451e-07
-5.03889e-07
-6.45718e-07
-5.34327e-07
-6.8798e-07
-5.54938e-07
-7.33194e-07
-5.62738e-07
-7.7965e-07
-5.58139e-07
-8.25657e-07
-5.43882e-07
-8.69961e-07
-5.23023e-07
-9.11793e-07
-4.97949e-07
-9.50741e-07
-4.70127e-07
-9.8661e-07
-4.40381e-07
-1.01933e-06
-4.09178e-07
-1.04891e-06
-3.76809e-07
-1.07538e-06
-3.43473e-07
-1.09878e-06
-3.09331e-07
-1.11917e-06
-2.74512e-07
-1.13663e-06
-2.39108e-07
-1.15124e-06
-2.03163e-07
-1.16306e-06
-1.66733e-07
-1.17217e-06
-1.30007e-07
-1.17865e-06
-9.32498e-08
-1.18253e-06
-5.63971e-08
-1.89952e-08
6.57656e-07
-1.41527e-08
6.55047e-07
-4.22088e-08
6.5072e-07
-6.99861e-08
6.44678e-07
-9.74937e-08
6.36922e-07
-1.24682e-07
6.27454e-07
-1.5146e-07
6.16279e-07
-1.7774e-07
6.03409e-07
-2.03437e-07
5.88861e-07
-2.28451e-07
5.72663e-07
-2.52652e-07
5.54858e-07
-2.75867e-07
5.35507e-07
-2.97875e-07
5.14694e-07
-3.18385e-07
4.92529e-07
-3.37039e-07
4.69157e-07
-3.53414e-07
4.44758e-07
-3.67062e-07
4.19548e-07
-3.77584e-07
3.93769e-07
-3.84721e-07
3.67677e-07
-3.88444e-07
3.41518e-07
-3.8899e-07
3.15509e-07
-3.86823e-07
2.8983e-07
-3.82535e-07
2.64614e-07
-3.7673e-07
2.39952e-07
-3.69938e-07
2.15904e-07
-3.62567e-07
1.92504e-07
-3.54901e-07
1.69769e-07
-3.47119e-07
1.47708e-07
-3.39326e-07
1.26321e-07
-3.31577e-07
1.05604e-07
-3.23896e-07
8.55522e-08
-3.16297e-07
6.61561e-08
-3.08787e-07
4.74055e-08
-3.01377e-07
2.92879e-08
-2.94083e-07
1.17886e-08
-2.86923e-07
-5.10811e-09
-2.79923e-07
-2.14198e-08
-2.73087e-07
-3.7163e-08
-2.66406e-07
-5.23581e-08
-2.59905e-07
-6.70273e-08
-2.53604e-07
-8.11943e-08
-2.47523e-07
-9.4884e-08
-2.41678e-07
-1.08122e-07
-2.36083e-07
-1.20937e-07
-2.30748e-07
-1.33354e-07
-2.25681e-07
-1.45403e-07
-2.20885e-07
-1.57112e-07
-2.16364e-07
-1.6851e-07
-2.12115e-07
-1.79627e-07
-2.08135e-07
-1.90491e-07
-2.0442e-07
-2.01135e-07
-2.00961e-07
-2.11588e-07
-1.9775e-07
-2.21883e-07
-1.94776e-07
-2.32052e-07
-1.92031e-07
-2.42131e-07
-1.89504e-07
-2.52155e-07
-1.87188e-07
-2.62163e-07
-1.85076e-07
-2.72194e-07
-1.8317e-07
-2.82278e-07
-1.81507e-07
-2.92475e-07
-1.80093e-07
-3.02812e-07
-1.78924e-07
-3.1325e-07
-1.78162e-07
-3.2369e-07
-1.77961e-07
-3.36711e-07
-1.79975e-07
-3.46685e-07
-1.88519e-07
-3.5765e-07
-1.98113e-07
-3.69625e-07
-2.08812e-07
-3.8268e-07
-2.20641e-07
-3.96904e-07
-2.33669e-07
-4.12383e-07
-2.48022e-07
-4.292e-07
-2.63873e-07
-4.47434e-07
-2.81458e-07
-4.67166e-07
-3.01075e-07
-4.8845e-07
-3.23142e-07
-5.11353e-07
-3.48232e-07
-5.3606e-07
-3.76655e-07
-5.62877e-07
-4.0812e-07
-5.9228e-07
-4.41302e-07
-6.24887e-07
-4.73298e-07
-6.61187e-07
-4.99752e-07
-7.01059e-07
-5.1637e-07
-7.43523e-07
-5.21141e-07
-7.87087e-07
-5.15087e-07
-8.30338e-07
-5.00909e-07
-8.72239e-07
-4.81262e-07
-9.12142e-07
-4.58114e-07
-9.49665e-07
-4.32636e-07
-9.84583e-07
-4.05478e-07
-1.01676e-06
-3.77011e-07
-1.04611e-06
-3.47462e-07
-1.07259e-06
-3.16993e-07
-1.09619e-06
-2.85731e-07
-1.11692e-06
-2.53785e-07
-1.13479e-06
-2.21233e-07
-1.14984e-06
-1.88113e-07
-1.1621e-06
-1.54477e-07
-1.17159e-06
-1.20511e-07
-1.17837e-06
-8.64726e-08
-1.18245e-06
-5.23153e-08
-1.7625e-08
6.57641e-07
-1.32598e-08
6.54973e-07
-3.95406e-08
6.50542e-07
-6.55558e-08
6.44361e-07
-9.13126e-08
6.36441e-07
-1.16761e-07
6.26794e-07
-1.41814e-07
6.15441e-07
-1.66386e-07
6.02401e-07
-1.90398e-07
5.87705e-07
-2.13754e-07
5.71389e-07
-2.36335e-07
5.53503e-07
-2.5798e-07
5.34111e-07
-2.78481e-07
5.133e-07
-2.97571e-07
4.91181e-07
-3.14914e-07
4.67896e-07
-3.30121e-07
4.43624e-07
-3.42777e-07
4.18574e-07
-3.52516e-07
3.92983e-07
-3.59105e-07
3.67096e-07
-3.62525e-07
3.41149e-07
-3.63005e-07
3.15349e-07
-3.60979e-07
2.89865e-07
-3.57001e-07
2.64822e-07
-3.51633e-07
2.40304e-07
-3.45363e-07
2.16366e-07
-3.38569e-07
1.93037e-07
-3.31512e-07
1.70333e-07
-3.24355e-07
1.48259e-07
-3.17193e-07
1.26816e-07
-3.10075e-07
1.05999e-07
-3.03022e-07
8.58031e-08
-2.96045e-07
6.62205e-08
-2.8915e-07
4.7242e-08
-2.82347e-07
2.88567e-08
-2.75648e-07
1.10519e-08
-2.69071e-07
-6.18619e-09
-2.62639e-07
-2.28734e-08
-2.56352e-07
-3.90242e-08
-2.50205e-07
-5.4657e-08
-2.44218e-07
-6.9792e-08
-2.38412e-07
-8.44509e-08
-2.32804e-07
-9.86573e-08
-2.27408e-07
-1.12436e-07
-2.22238e-07
-1.25812e-07
-2.17302e-07
-1.38812e-07
-2.12607e-07
-1.51464e-07
-2.08158e-07
-1.63795e-07
-2.03954e-07
-1.75835e-07
-1.99995e-07
-1.8761e-07
-1.96277e-07
-1.99151e-07
-1.92794e-07
-2.10487e-07
-1.89539e-07
-2.21647e-07
-1.86502e-07
-2.32662e-07
-1.83674e-07
-2.43563e-07
-1.81043e-07
-2.5438e-07
-1.786e-07
-2.65146e-07
-1.76336e-07
-2.75895e-07
-1.74243e-07
-2.86665e-07
-1.72317e-07
-2.97489e-07
-1.70599e-07
-3.08428e-07
-1.69068e-07
-3.19529e-07
-1.67723e-07
-3.30871e-07
-1.66697e-07
-3.41842e-07
-1.66093e-07
-3.54493e-07
-1.70568e-07
-3.65205e-07
-1.78353e-07
-3.7678e-07
-1.87137e-07
-3.89279e-07
-1.96982e-07
-4.02772e-07
-2.07897e-07
-4.17336e-07
-2.19947e-07
-4.3305e-07
-2.33256e-07
-4.49988e-07
-2.48002e-07
-4.68225e-07
-2.64422e-07
-4.87837e-07
-2.82812e-07
-5.08877e-07
-3.03617e-07
-5.31448e-07
-3.27351e-07
-5.5577e-07
-3.54181e-07
-5.8219e-07
-3.83655e-07
-6.11211e-07
-4.1424e-07
-6.43408e-07
-4.42914e-07
-6.79111e-07
-4.65556e-07
-7.17988e-07
-4.78598e-07
-7.58962e-07
-4.80881e-07
-8.00645e-07
-4.73821e-07
-8.41823e-07
-4.59954e-07
-8.8165e-07
-4.41548e-07
-9.19605e-07
-4.20214e-07
-9.55381e-07
-3.96886e-07
-9.8879e-07
-3.7208e-07
-1.01971e-06
-3.46094e-07
-1.04806e-06
-3.19112e-07
-1.07379e-06
-2.91268e-07
-1.09685e-06
-2.62672e-07
-1.11722e-06
-2.33417e-07
-1.13488e-06
-2.03571e-07
-1.14983e-06
-1.73168e-07
-1.16205e-06
-1.42254e-07
-1.17155e-06
-1.11007e-07
-1.17835e-06
-7.96735e-08
-1.18245e-06
-4.82176e-08
-1.62524e-08
6.57621e-07
-1.23468e-08
6.54899e-07
-3.68191e-08
6.50386e-07
-6.10425e-08
6.44095e-07
-8.5022e-08
6.36044e-07
-1.0871e-07
6.26252e-07
-1.32022e-07
6.14744e-07
-1.54878e-07
6.01551e-07
-1.77204e-07
5.86708e-07
-1.98912e-07
5.70262e-07
-2.19888e-07
5.52268e-07
-2.39985e-07
5.32798e-07
-2.5901e-07
5.11945e-07
-2.76715e-07
4.89824e-07
-2.92789e-07
4.66578e-07
-3.0687e-07
4.42385e-07
-3.18575e-07
4.17449e-07
-3.27568e-07
3.91998e-07
-3.33638e-07
3.66267e-07
-3.36772e-07
3.40479e-07
-3.37189e-07
3.14831e-07
-3.35298e-07
2.89482e-07
-3.31615e-07
2.6455e-07
-3.26659e-07
2.40116e-07
-3.20884e-07
2.16229e-07
-3.14636e-07
1.92918e-07
-3.08153e-07
1.70197e-07
-3.01585e-07
1.48071e-07
-2.95018e-07
1.2654e-07
-2.88495e-07
1.05599e-07
-2.82033e-07
8.52444e-08
-2.75643e-07
6.54684e-08
-2.69328e-07
4.62629e-08
-2.63097e-07
2.76182e-08
-2.5696e-07
9.52243e-09
-2.50935e-07
-8.03713e-09
-2.4504e-07
-2.50741e-08
-2.39274e-07
-4.16022e-08
-2.33633e-07
-5.76381e-08
-2.28135e-07
-7.32004e-08
-2.22799e-07
-8.83095e-08
-2.17641e-07
-1.02987e-07
-2.12673e-07
-1.17257e-07
-2.07908e-07
-1.31142e-07
-2.03353e-07
-1.44669e-07
-1.99014e-07
-1.57863e-07
-1.94894e-07
-1.7075e-07
-1.90994e-07
-1.83358e-07
-1.87312e-07
-1.95713e-07
-1.83844e-07
-2.07843e-07
-1.80584e-07
-2.19775e-07
-1.77526e-07
-2.31535e-07
-1.74659e-07
-2.43152e-07
-1.71975e-07
-2.54651e-07
-1.69462e-07
-2.66058e-07
-1.67112e-07
-2.774e-07
-1.64915e-07
-2.88703e-07
-1.62865e-07
-2.99995e-07
-1.60957e-07
-3.11301e-07
-1.5923e-07
-3.22681e-07
-1.57632e-07
-3.34173e-07
-1.56184e-07
-3.45919e-07
-1.54913e-07
-3.57876e-07
-1.53861e-07
-3.6979e-07
-1.59971e-07
-3.81336e-07
-1.67316e-07
-3.9355e-07
-1.75496e-07
-4.06565e-07
-1.84611e-07
-4.20479e-07
-1.94709e-07
-4.35377e-07
-2.05867e-07
-4.5134e-07
-2.18215e-07
-4.68447e-07
-2.31933e-07
-4.86777e-07
-2.47258e-07
-5.06408e-07
-2.64487e-07
-5.27411e-07
-2.84077e-07
-5.49921e-07
-3.06461e-07
-5.74178e-07
-3.31679e-07
-6.00528e-07
-3.59135e-07
-6.29435e-07
-3.87134e-07
-6.61357e-07
-4.12619e-07
-6.96443e-07
-4.31785e-07
-7.34217e-07
-4.41762e-07
-7.73629e-07
-4.42062e-07
-8.1347e-07
-4.3432e-07
-8.52737e-07
-4.20868e-07
-8.90733e-07
-4.03641e-07
-9.27023e-07
-3.83968e-07
-9.61333e-07
-3.62597e-07
-9.9348e-07
-3.39943e-07
-1.02334e-06
-3.16243e-07
-1.0508e-06
-2.91646e-07
-1.07581e-06
-2.66263e-07
-1.0983e-06
-2.40185e-07
-1.11822e-06
-2.13493e-07
-1.13554e-06
-1.86246e-07
-1.15024e-06
-1.58469e-07
-1.16229e-06
-1.30206e-07
-1.17168e-06
-1.01622e-07
-1.1784e-06
-7.29487e-08
-1.18246e-06
-4.41585e-08
-1.48904e-08
6.57612e-07
-1.14246e-08
6.5486e-07
-3.40679e-08
6.50298e-07
-5.64799e-08
6.43941e-07
-7.86648e-08
6.35808e-07
-1.00577e-07
6.25926e-07
-1.22139e-07
6.14322e-07
-1.43275e-07
6.01031e-07
-1.63914e-07
5.86095e-07
-1.83976e-07
5.69563e-07
-2.03355e-07
5.51494e-07
-2.21916e-07
5.31963e-07
-2.39479e-07
5.11064e-07
-2.55815e-07
4.88913e-07
-2.70637e-07
4.65656e-07
-2.83611e-07
4.41468e-07
-2.94384e-07
4.16553e-07
-3.02648e-07
3.91137e-07
-3.08212e-07
3.65449e-07
-3.11071e-07
3.39709e-07
-3.11432e-07
3.14109e-07
-3.09676e-07
2.88802e-07
-3.06281e-07
2.63901e-07
-3.01728e-07
2.39481e-07
-2.96431e-07
2.15589e-07
-2.90708e-07
1.92251e-07
-2.84777e-07
1.69478e-07
-2.78774e-07
1.47275e-07
-2.72775e-07
1.25639e-07
-2.66819e-07
1.04567e-07
-2.60922e-07
8.40522e-08
-2.5509e-07
6.4089e-08
-2.49327e-07
4.46691e-08
-2.4364e-07
2.57832e-08
-2.38039e-07
7.42041e-09
-2.32538e-07
-1.04311e-08
-2.27155e-07
-2.77839e-08
-2.21886e-07
-4.46508e-08
-2.16727e-07
-6.1047e-08
-2.11697e-07
-7.69898e-08
-2.06811e-07
-9.24982e-08
-2.02084e-07
-1.07593e-07
-1.97527e-07
-1.22294e-07
-1.93151e-07
-1.36627e-07
-1.88962e-07
-1.50613e-07
-1.84966e-07
-1.64277e-07
-1.81165e-07
-1.77645e-07
-1.77559e-07
-1.9074e-07
-1.74146e-07
-2.03589e-07
-1.70923e-07
-2.16216e-07
-1.67883e-07
-2.28646e-07
-1.6502e-07
-2.40903e-07
-1.62325e-07
-2.53011e-07
-1.59789e-07
-2.64992e-07
-1.57404e-07
-2.76868e-07
-1.55161e-07
-2.88657e-07
-1.53055e-07
-3.00377e-07
-1.51081e-07
-3.12035e-07
-1.49245e-07
-3.23646e-07
-1.47581e-07
-3.3523e-07
-1.46038e-07
-3.46774e-07
-1.44672e-07
-3.58325e-07
-1.43456e-07
-3.71807e-07
-1.42442e-07
-3.83357e-07
-1.48745e-07
-3.95413e-07
-1.55689e-07
-4.08092e-07
-1.63338e-07
-4.21517e-07
-1.71794e-07
-4.35789e-07
-1.81135e-07
-4.50991e-07
-1.91457e-07
-4.67206e-07
-2.02894e-07
-4.84516e-07
-2.15629e-07
-5.03006e-07
-2.29895e-07
-5.2276e-07
-2.45993e-07
-5.43874e-07
-2.6437e-07
-5.66517e-07
-2.85366e-07
-5.90945e-07
-3.08914e-07
-6.17502e-07
-3.3429e-07
-6.46604e-07
-3.59686e-07
-6.78586e-07
-3.82097e-07
-7.13414e-07
-3.98106e-07
-7.50481e-07
-4.05495e-07
-7.88749e-07
-4.04291e-07
-8.27141e-07
-3.96209e-07
-8.64815e-07
-3.83342e-07
-9.01199e-07
-3.67331e-07
-9.35937e-07
-3.49265e-07
-9.68802e-07
-3.29748e-07
-9.99638e-07
-3.09115e-07
-1.02833e-06
-2.87558e-07
-1.05477e-06
-2.65202e-07
-1.0789e-06
-2.42137e-07
-1.10064e-06
-2.18442e-07
-1.11995e-06
-1.94188e-07
-1.13677e-06
-1.69424e-07
-1.15107e-06
-1.44171e-07
-1.1628e-06
-1.18469e-07
-1.17196e-06
-9.24674e-08
-1.17852e-06
-6.63831e-08
-1.18249e-06
-4.01926e-08
-1.35592e-08
6.57603e-07
-1.04942e-08
6.54828e-07
-3.1293e-08
6.50228e-07
-5.1879e-08
6.43819e-07
-7.22561e-08
6.35624e-07
-9.2382e-08
6.25668e-07
-1.12184e-07
6.13985e-07
-1.31591e-07
6.0061e-07
-1.5054e-07
5.8559e-07
-1.68955e-07
5.68974e-07
-1.8674e-07
5.50826e-07
-2.03769e-07
5.31224e-07
-2.19878e-07
5.10263e-07
-2.34855e-07
4.88063e-07
-2.48437e-07
4.64768e-07
-2.60317e-07
4.40556e-07
-2.70172e-07
4.1563e-07
-2.7772e-07
3.90212e-07
-2.82791e-07
3.6453e-07
-2.85384e-07
3.388e-07
-2.85693e-07
3.13208e-07
-2.84071e-07
2.87904e-07
-2.8096e-07
2.62995e-07
-2.76798e-07
2.38555e-07
-2.71967e-07
2.14627e-07
-2.66754e-07
1.91236e-07
-2.61356e-07
1.6839e-07
-2.55898e-07
1.46094e-07
-2.50447e-07
1.24343e-07
-2.45037e-07
1.03135e-07
-2.39681e-07
8.24625e-08
-2.34385e-07
6.23196e-08
-2.29153e-07
4.26984e-08
-2.23988e-07
2.35899e-08
-2.18901e-07
4.98387e-09
-2.13904e-07
-1.31305e-08
-2.09013e-07
-3.07652e-08
-2.0422e-07
-4.79322e-08
-1.99526e-07
-6.46455e-08
-1.94946e-07
-8.09212e-08
-1.90495e-07
-9.67768e-08
-1.86185e-07
-1.12232e-07
-1.82026e-07
-1.27305e-07
-1.78028e-07
-1.4202e-07
-1.74195e-07
-1.56396e-07
-1.70534e-07
-1.70458e-07
-1.67044e-07
-1.84228e-07
-1.63727e-07
-1.97728e-07
-1.60581e-07
-2.10983e-07
-1.576e-07
-2.24016e-07
-1.54781e-07
-2.36848e-07
-1.52116e-07
-2.49504e-07
-1.49596e-07
-2.62003e-07
-1.47216e-07
-2.74368e-07
-1.44965e-07
-2.86617e-07
-1.42839e-07
-2.9877e-07
-1.40832e-07
-3.10841e-07
-1.38944e-07
-3.22837e-07
-1.37197e-07
-3.34777e-07
-1.35607e-07
-3.46654e-07
-1.34155e-07
-3.58432e-07
-1.32941e-07
-3.70019e-07
-1.3201e-07
-3.84094e-07
-1.31907e-07
-3.9563e-07
-1.37609e-07
-4.0786e-07
-1.43923e-07
-4.20794e-07
-1.50937e-07
-4.34495e-07
-1.58701e-07
-4.49038e-07
-1.6728e-07
-4.64501e-07
-1.76769e-07
-4.8096e-07
-1.87305e-07
-4.98498e-07
-1.99066e-07
-5.17207e-07
-2.12277e-07
-5.37179e-07
-2.27238e-07
-5.58534e-07
-2.44368e-07
-5.81466e-07
-2.63914e-07
-6.06233e-07
-2.85721e-07
-6.33158e-07
-3.08966e-07
-6.62576e-07
-3.31788e-07
-6.94679e-07
-3.51309e-07
-7.29267e-07
-3.64529e-07
-7.6565e-07
-3.69802e-07
-8.02848e-07
-3.67514e-07
-8.39927e-07
-3.59365e-07
-8.76186e-07
-3.47204e-07
-9.11154e-07
-3.32424e-07
-9.44534e-07
-3.15914e-07
-9.76128e-07
-2.98168e-07
-1.00579e-06
-2.79456e-07
-1.03342e-06
-2.59935e-07
-1.05891e-06
-2.39709e-07
-1.0822e-06
-2.18853e-07
-1.10321e-06
-1.97434e-07
-1.12188e-06
-1.75514e-07
-1.13817e-06
-1.53135e-07
-1.15203e-06
-1.30314e-07
-1.16341e-06
-1.07085e-07
-1.1723e-06
-8.35827e-08
-1.17867e-06
-6.00071e-08
-1.18253e-06
-3.63383e-08
-1.22641e-08
6.57598e-07
-9.55801e-09
6.54806e-07
-2.85009e-08
6.50176e-07
-4.72498e-08
6.43729e-07
-6.58084e-08
6.35484e-07
-8.4138e-08
6.25472e-07
-1.02171e-07
6.13725e-07
-1.19844e-07
6.00282e-07
-1.37097e-07
5.85189e-07
-1.53862e-07
5.68499e-07
-1.70051e-07
5.50278e-07
-1.85549e-07
5.30604e-07
-2.00206e-07
5.09575e-07
-2.13828e-07
4.8731e-07
-2.26175e-07
4.63957e-07
-2.36967e-07
4.39693e-07
-2.45912e-07
4.14723e-07
-2.52754e-07
3.89269e-07
-2.57339e-07
3.63557e-07
-2.59672e-07
3.378e-07
-2.59934e-07
3.12182e-07
-2.58448e-07
2.86848e-07
-2.55618e-07
2.61905e-07
-2.51843e-07
2.37422e-07
-2.47468e-07
2.13439e-07
-2.42753e-07
1.89979e-07
-2.37876e-07
1.67051e-07
-2.32947e-07
1.44656e-07
-2.28027e-07
1.2279e-07
-2.23146e-07
1.0145e-07
-2.18315e-07
8.0628e-08
-2.13538e-07
6.03185e-08
-2.08818e-07
4.05138e-08
-2.04158e-07
2.1205e-08
-1.99568e-07
2.3821e-09
-1.95058e-07
-1.59643e-08
-1.90643e-07
-3.38458e-08
-1.86313e-07
-5.12736e-08
-1.82069e-07
-6.82607e-08
-1.77927e-07
-8.48222e-08
-1.73898e-07
-1.00974e-07
-1.69994e-07
-1.16735e-07
-1.66224e-07
-1.32122e-07
-1.62595e-07
-1.47157e-07
-1.59113e-07
-1.61859e-07
-1.55781e-07
-1.76249e-07
-1.526e-07
-1.90348e-07
-1.49571e-07
-2.04178e-07
-1.46691e-07
-2.17759e-07
-1.43956e-07
-2.31114e-07
-1.41361e-07
-2.44262e-07
-1.389e-07
-2.57224e-07
-1.36565e-07
-2.7002e-07
-1.34349e-07
-2.82667e-07
-1.32246e-07
-2.95186e-07
-1.30248e-07
-3.07593e-07
-1.28352e-07
-3.19906e-07
-1.26559e-07
-3.32137e-07
-1.24893e-07
-3.44306e-07
-1.23365e-07
-3.56422e-07
-1.21962e-07
-3.68469e-07
-1.20806e-07
-3.80182e-07
-1.19985e-07
-3.94228e-07
-1.21317e-07
-4.05939e-07
-1.26335e-07
-4.18375e-07
-1.31971e-07
-4.31549e-07
-1.38304e-07
-4.45505e-07
-1.45349e-07
-4.60307e-07
-1.53152e-07
-4.76027e-07
-1.61806e-07
-4.92739e-07
-1.71438e-07
-5.1053e-07
-1.82219e-07
-5.295e-07
-1.94359e-07
-5.49753e-07
-2.08157e-07
-5.71434e-07
-2.23987e-07
-5.94749e-07
-2.42012e-07
-6.19954e-07
-2.62008e-07
-6.47337e-07
-2.83083e-07
-6.77146e-07
-3.03381e-07
-7.0943e-07
-3.20212e-07
-7.43852e-07
-3.31003e-07
-7.79668e-07
-3.34584e-07
-8.15963e-07
-3.3158e-07
-8.51924e-07
-3.23603e-07
-8.86965e-07
-3.12267e-07
-9.20695e-07
-2.98745e-07
-9.52865e-07
-2.83769e-07
-9.83307e-07
-2.67738e-07
-1.01189e-06
-2.50875e-07
-1.03852e-06
-2.33308e-07
-1.06311e-06
-2.15123e-07
-1.08558e-06
-1.96386e-07
-1.10586e-06
-1.77152e-07
-1.1239e-06
-1.57474e-07
-1.13964e-06
-1.3739e-07
-1.15305e-06
-1.16912e-07
-1.16406e-06
-9.607e-08
-1.17266e-06
-7.49837e-08
-1.17883e-06
-5.3834e-08
-1.18257e-06
-3.26046e-08
-1.10084e-08
6.57593e-07
-8.61685e-09
6.54786e-07
-2.56941e-08
6.50132e-07
-4.25965e-08
6.43651e-07
-5.93275e-08
6.35365e-07
-7.58519e-08
6.25303e-07
-9.21088e-08
6.13498e-07
-1.0804e-07
5.99992e-07
-1.23592e-07
5.84831e-07
-1.38702e-07
5.6807e-07
-1.53291e-07
5.49775e-07
-1.67255e-07
5.30027e-07
-1.80459e-07
5.08922e-07
-1.92727e-07
4.86585e-07
-2.03842e-07
4.63163e-07
-2.13551e-07
4.38836e-07
-2.21591e-07
4.13807e-07
-2.27732e-07
3.883e-07
-2.31839e-07
3.62541e-07
-2.33919e-07
3.36741e-07
-2.34137e-07
3.11081e-07
-2.3279e-07
2.85704e-07
-2.30239e-07
2.60712e-07
-2.26846e-07
2.36174e-07
-2.2292e-07
2.12128e-07
-2.18695e-07
1.88594e-07
-2.14327e-07
1.6558e-07
-2.09916e-07
1.43087e-07
-2.05515e-07
1.2111e-07
-2.01149e-07
9.96451e-08
-1.96829e-07
7.86855e-08
-1.92557e-07
5.82247e-08
-1.88336e-07
3.82554e-08
-1.84168e-07
1.87693e-08
-1.80062e-07
-2.42998e-10
-1.76026e-07
-1.87923e-08
-1.72073e-07
-3.68873e-08
-1.68195e-07
-5.45387e-08
-1.64393e-07
-7.1759e-08
-1.60678e-07
-8.85622e-08
-1.57064e-07
-1.04964e-07
-1.53559e-07
-1.2098e-07
-1.50171e-07
-1.36628e-07
-1.46906e-07
-1.51926e-07
-1.43771e-07
-1.66894e-07
-1.40766e-07
-1.81551e-07
-1.37894e-07
-1.95915e-07
-1.35154e-07
-2.10007e-07
-1.32543e-07
-2.23847e-07
-1.30059e-07
-2.37452e-07
-1.27695e-07
-2.50842e-07
-1.25447e-07
-2.64034e-07
-1.23308e-07
-2.77047e-07
-1.2127e-07
-2.89895e-07
-1.19329e-07
-3.02596e-07
-1.17477e-07
-3.15166e-07
-1.15712e-07
-3.27617e-07
-1.14034e-07
-3.39968e-07
-1.12469e-07
-3.52234e-07
-1.11022e-07
-3.64433e-07
-1.09683e-07
-3.76617e-07
-1.08534e-07
-3.88358e-07
-1.07603e-07
-4.01902e-07
-1.10042e-07
-4.14095e-07
-1.14565e-07
-4.26906e-07
-1.19628e-07
-4.40412e-07
-1.2532e-07
-4.54678e-07
-1.31665e-07
-4.69773e-07
-1.38708e-07
-4.85772e-07
-1.46534e-07
-5.02759e-07
-1.55264e-07
-5.2083e-07
-1.65057e-07
-5.40094e-07
-1.76108e-07
-5.60672e-07
-1.88706e-07
-5.82731e-07
-2.03174e-07
-6.06484e-07
-2.19608e-07
-6.32176e-07
-2.37731e-07
-6.60047e-07
-2.56619e-07
-6.90253e-07
-2.74473e-07
-7.22709e-07
-2.88836e-07
-7.56966e-07
-2.97545e-07
-7.92261e-07
-2.99815e-07
-8.27752e-07
-2.96401e-07
-8.62738e-07
-2.88789e-07
-8.96721e-07
-2.78371e-07
-9.29378e-07
-2.66133e-07
-9.60495e-07
-2.52672e-07
-9.89927e-07
-2.38317e-07
-1.01756e-06
-2.23247e-07
-1.0433e-06
-2.07571e-07
-1.06706e-06
-1.91359e-07
-1.08878e-06
-1.74666e-07
-1.10839e-06
-1.57541e-07
-1.12584e-06
-1.40029e-07
-1.14107e-06
-1.22161e-07
-1.15403e-06
-1.03947e-07
-1.16469e-06
-8.54119e-08
-1.17301e-06
-6.66624e-08
-1.17899e-06
-4.78592e-08
-1.1826e-06
-2.8989e-08
-9.79116e-09
6.57588e-07
-7.67141e-09
6.54769e-07
-2.28746e-08
6.50094e-07
-3.79221e-08
6.43584e-07
-5.28173e-08
6.35261e-07
-6.75286e-08
6.25153e-07
-8.20015e-08
6.13297e-07
-9.6184e-08
5.99733e-07
-1.10028e-07
5.84508e-07
-1.23478e-07
5.67679e-07
-1.36463e-07
5.49312e-07
-1.4889e-07
5.29488e-07
-1.60638e-07
5.08308e-07
-1.71551e-07
4.85894e-07
-1.81434e-07
4.62398e-07
-1.90062e-07
4.37998e-07
-1.972e-07
4.12903e-07
-2.02647e-07
3.87334e-07
-2.06282e-07
3.61518e-07
-2.08114e-07
3.35664e-07
-2.08293e-07
3.09953e-07
-2.07085e-07
2.84525e-07
-2.04814e-07
2.59479e-07
-2.01801e-07
2.34882e-07
-1.9832e-07
2.1077e-07
-1.94576e-07
1.87162e-07
-1.9071e-07
1.64066e-07
-1.86808e-07
1.41479e-07
-1.82915e-07
1.19399e-07
-1.79054e-07
9.78203e-08
-1.75234e-07
7.67365e-08
-1.71457e-07
5.61411e-08
-1.67724e-07
3.60269e-08
-1.64037e-07
1.63858e-08
-1.60404e-07
-2.79132e-09
-1.56833e-07
-2.1513e-08
-1.53335e-07
-3.97891e-08
-1.499e-07
-5.76295e-08
-1.4653e-07
-7.50457e-08
-1.43238e-07
-9.20507e-08
-1.40031e-07
-1.08659e-07
-1.3692e-07
-1.24886e-07
-1.3391e-07
-1.40747e-07
-1.31008e-07
-1.56261e-07
-1.28217e-07
-1.71445e-07
-1.2554e-07
-1.86315e-07
-1.22977e-07
-2.00892e-07
-1.20529e-07
-2.15192e-07
-1.18192e-07
-2.29234e-07
-1.15963e-07
-2.43034e-07
-1.13839e-07
-2.56611e-07
-1.11813e-07
-2.69979e-07
-1.0988e-07
-2.83155e-07
-1.08033e-07
-2.96155e-07
-1.06267e-07
-3.08992e-07
-1.04576e-07
-3.21681e-07
-1.02959e-07
-3.34238e-07
-1.01413e-07
-3.46678e-07
-9.99637e-08
-3.59025e-07
-9.86114e-08