/*--------------------------------*- C++ -*----------------------------------*\
  =========                 |
  \\      /  F ield         | OpenFOAM: The Open Source CFD Toolbox
   \\    /   O peration     | Website:  https://openfoam.org
    \\  /    A nd           | Version:  8
     \\/     M anipulation  |
\*---------------------------------------------------------------------------*/
FoamFile
{
    version     2.0;
    format      ascii;
    class       volScalarField;
    location    "280/fluid";
    object      Qdot;
}
// * * * * * * * * * * * * * * * * * * * * * * * * * * * * * * * * * * * * * //

dimensions      [1 -1 -3 0 0 0 0];

internalField   nonuniform List<scalar> 
4000
(
4.87735e-18
-2.78611e-07
0
0
0
0
5.67069e-20
0
-5.71394e-11
1.16949e-10
0
1.01909e-18
0
0
-1.24782e-09
-1.29293e-17
6.07077e-14
-8.92982e-16
5.25306e-09
7.28908e-08
9.57756e-07
1.19273e-05
0.000145005
0.00151279
0.0131359
0.0939497
0.553422
2.7163
11.2691
40.2396
125.419
345.723
852.465
1897.48
3838.97
7116.46
12231.3
19690.7
30023.8
43884.2
62172.2
86153.1
117499
158478
212133
282549
375173
497190
658027
870027
1.14935e+06
1.5172e+06
2.0014e+06
2.63852e+06
3.47678e+06
4.57987e+06
6.03227e+06
7.94662e+06
1.04742e+07
1.37554e+07
1.81026e+07
2.40244e+07
3.19779e+07
1.83482e+08
2.60588e+08
2.70943e+07
1.95828e+07
1.39487e+07
9.77142e+06
6.71847e+06
4.52472e+06
2.98033e+06
1.92117e+06
1.22149e+06
788753
385301
51806.7
1995.7
33.8784
0.325715
0.00267591
3.36491e-05
1.02692e-06
8.10108e-08
1.42707e-08
3.63997e-09
1.36968e-09
4.74053e-10
2.39338e-10
9.09459e-11
3.48561e-11
1.50243e-11
7.47615e-12
3.26099e-12
1.17984e-12
5.30642e-13
1.85224e-13
6.69975e-14
2.7517e-14
4.63542e-15
0
-2.78089e-07
-2.90206e-07
-1.27263e-20
1.40218e-11
3.22798e-07
-5.60621e-20
-1.15072e-19
-1.28688e-11
1.14669e-10
0
-2.91449e-10
3.7392e-07
3.78013e-07
-1.21101e-09
-3.87038e-07
-1.14227e-16
-3.96861e-07
-9.2386e-09
-1.28965e-07
8.37305e-07
1.29475e-05
0.000154811
0.00160096
0.013809
0.0981107
0.577472
2.84195
11.8582
42.4775
132.666
366.22
903.822
2012.4
4069.26
7525.28
12881.9
20663.6
31378.2
45665.5
64419.3
88899.7
120803
162447
216945
288485
382632
506716
670351
886126
1.17053e+06
1.54518e+06
2.03842e+06
2.68747e+06
3.54127e+06
4.66422e+06
6.14135e+06
8.08529e+06
1.06461e+07
1.3961e+07
1.83246e+07
2.4237e+07
3.21157e+07
2.66291e+08
1.89195e+08
2.6789e+07
1.92088e+07
1.35845e+07
9.45214e+06
6.45545e+06
4.31781e+06
2.8241e+06
1.80839e+06
1.14523e+06
742052
272240
28359.1
849.326
11.8893
0.10252
0.000881425
1.35872e-05
5.38712e-07
5.42409e-08
1.11877e-08
3.04196e-09
1.14974e-09
4.92132e-10
2.18872e-10
9.52652e-11
3.67506e-11
1.65758e-11
6.48564e-12
3.67196e-12
1.23152e-12
5.00148e-13
1.99199e-13
7.33227e-14
2.32769e-14
4.29596e-15
0
0
0
0
-6.21733e-12
-2.85403e-11
3.26507e-07
-5.37898e-11
1.22344e-10
0
-3.52511e-07
0
1.03709e-09
3.66139e-07
-1.16852e-09
-1.6117e-17
2.3903e-09
-1.14762e-15
8.89991e-09
9.02538e-08
1.38873e-06
1.44023e-05
0.000171316
0.00176437
0.0151711
0.107725
0.633173
3.11112
12.9544
46.3931
144.979
400.546
989.244
2203.03
4451.12
8206.81
13980.4
22325.7
33730.9
48829.7
68526.2
94100.6
127317
170606
227234
301602
399538
528725
699244
924330
1.22135e+06
1.61314e+06
2.12971e+06
2.81051e+06
3.70746e+06
4.88883e+06
6.44449e+06
8.49274e+06
1.11895e+07
1.46508e+07
1.9213e+07
2.53501e+07
3.34297e+07
3.71904e+08
9.16556e+07
2.60185e+07
1.84377e+07
1.2899e+07
8.8842e+06
6.0078e+06
3.97915e+06
2.5778e+06
1.63711e+06
1.03336e+06
659111
178440
12471.1
301.191
3.70186
0.0316669
0.000315669
6.27242e-06
3.23345e-07
3.96354e-08
8.9756e-09
2.71742e-09
1.04977e-09
4.45112e-10
1.83733e-10
7.84249e-11
3.32601e-11
1.52822e-11
6.3859e-12
2.33147e-12
1.05799e-12
4.231e-13
-5.33776e-12
6.73092e-14
2.17427e-14
3.96386e-15
4.86162e-18
0
0
0
-2.57984e-20
-3.69282e-16
2.59019e-11
0
1.57301e-15
1.34495e-10
-2.72628e-10
-3.48692e-07
-9.50398e-19
-3.56312e-07
-3.58711e-07
3.6222e-07
-4.31979e-10
-1.28021e-15
1.24877e-08
-9.41135e-08
1.32855e-06
1.57472e-05
0.000191793
0.00197113
0.0169202
0.120031
0.705157
3.46452
14.4297
51.7068
161.709
447.109
1104.76
2459.63
4961.56
9112.01
15436.2
24517.1
36821.2
52979.6
73920.6
100968
135995
181586
241229
319611
422935
559384
739732
978183
1.29348e+06
1.71042e+06
2.26183e+06
2.99122e+06
3.95636e+06
5.234e+06
6.92619e+06
9.1686e+06
1.21345e+07
1.59846e+07
2.1184e+07
2.80284e+07
3.69484e+07
4.44186e+08
3.32097e+07
2.3786e+07
1.68221e+07
1.1723e+07
8.03118e+06
5.39596e+06
3.5483e+06
2.28246e+06
1.44277e+06
914373
534673
99332.1
4860.39
96.79
1.06391
0.00926554
0.000109425
2.82454e-06
1.87317e-07
2.65936e-08
7.33303e-09
2.23241e-09
9.2156e-10
4.13026e-10
1.45341e-10
6.72747e-11
3.00856e-11
1.18504e-11
5.47991e-12
2.53128e-12
9.5082e-13
-5.17495e-12
9.46586e-13
-7.31482e-13
1.95806e-14
-5.06029e-12
4.85528e-18
-6.91893e-13
0
7.27429e-12
6.0871e-12
-3.10045e-07
-3.16843e-07
0
0
0
2.66164e-10
0
3.42913e-07
0
-1.99776e-09
-2.65257e-17
-4.06928e-09
-1.45484e-15
1.20704e-08
-7.8696e-08
1.50549e-06
1.83703e-05
0.000217619
0.00223397
0.0191526
0.135742
0.797055
3.91563
16.3126
58.4826
183.011
506.269
1251.06
2783
5599.25
10230.6
17219.1
27171.6
40526.1
57913.2
80297.7
109069
146241
194583
257846
341042
450802
595881
787836
1.04196e+06
1.37854e+06
1.82457e+06
2.41605e+06
3.20118e+06
4.24476e+06
5.63428e+06
7.4886e+06
9.97032e+06
1.32662e+07
1.7669e+07
2.38177e+07
3.22434e+07
5.24819e+07
3.98126e+08
3.00485e+07
2.15322e+07
1.52011e+07
1.05547e+07
7.19385e+06
4.80357e+06
3.13769e+06
2.0063e+06
1.26567e+06
810614
386449
49070.3
1805.58
30.5625
0.312106
0.00289556
4.17428e-05
1.39461e-06
1.15835e-07
2.03709e-08
5.50313e-09
1.98054e-09
7.97059e-10
3.56356e-10
1.50846e-10
6.26247e-11
2.48004e-11
1.08118e-11
5.01859e-12
1.98561e-12
6.47759e-12
3.21406e-13
1.48111e-13
4.96032e-14
1.75734e-14
5.06107e-12
2.64026e-07
-6.89225e-13
-5.97243e-21
0
-1.34236e-11
-1.51406e-11
-3.08772e-11
-1.07082e-19
3.2191e-07
2.40126e-11
3.28724e-07
-6.23148e-15
-3.34599e-07
1.81283e-18
1.06989e-09
-2.57306e-17
-2.17391e-09
-1.62525e-15
1.16711e-08
2.99907e-07
1.53774e-06
2.07576e-05
0.000249291
0.00255701
0.0219143
0.155247
0.911336
4.47687
18.6543
66.9021
209.446
579.544
1431.69
3179.91
6373.57
11570.7
19333
30276.9
44805
63555.7
87526.5
118211
157782
209218
276550
365131
482035
636585
841096
1.11186e+06
1.47048e+06
1.94569e+06
2.57579e+06
3.41196e+06
4.52283e+06
6.00087e+06
7.97122e+06
1.06045e+07
1.40738e+07
1.86893e+07
2.50785e+07
3.37564e+07
2.11687e+08
2.54571e+08
2.84551e+07
2.01603e+07
1.40856e+07
9.68453e+06
6.53827e+06
4.32564e+06
2.80114e+06
1.77884e+06
1.12059e+06
723198
243399
22692.1
665.978
9.82163
0.0960163
0.00097542
1.73028e-05
7.40386e-07
7.61797e-08
1.44474e-08
4.61388e-09
1.63227e-09
7.1122e-10
2.87703e-10
1.09042e-10
5.98805e-11
2.61212e-11
8.23823e-12
3.74959e-12
7.31626e-12
7.42881e-13
2.96791e-13
1.11545e-13
4.98693e-14
1.62237e-14
2.61878e-15
2.63668e-07
8.43793e-13
-8.26812e-17
-1.69882e-16
-1.4641e-11
3.02092e-07
-1.03717e-19
0
3.15633e-07
-2.28745e-10
0
4.16221e-10
-3.24819e-07
0
8.44804e-10
-2.49352e-17
-1.71188e-09
-1.8318e-15
1.55605e-08
1.49506e-07
1.62722e-06
2.40824e-05
0.000286694
0.00294811
0.0252683
0.178994
1.05069
5.16193
21.5144
77.1888
241.74
668.981
1651.61
3660.29
7299.12
13147.4
21790.7
33831.5
49632
69843.6
95511.6
128258
170433
225250
297038
391513
516221
681093
899239
1.18798e+06
1.57023e+06
2.07638e+06
2.7467e+06
3.63459e+06
4.81096e+06
6.36991e+06
8.43644e+06
1.11767e+07
1.47334e+07
1.94271e+07
2.58177e+07
3.42927e+07
3.70194e+08
1.09828e+08
2.71183e+07
1.8985e+07
1.31217e+07
8.93183e+06
5.97342e+06
3.91691e+06
2.51625e+06
1.5888e+06
1.00144e+06
631230
155757
10198.4
250.023
3.30428
0.0319358
0.00036423
7.97644e-06
4.26521e-07
5.30465e-08
1.15355e-08
3.34581e-09
1.41997e-09
5.70301e-10
2.64597e-10
9.49764e-11
4.82567e-11
2.1131e-11
8.66308e-12
4.74333e-12
1.47541e-12
7.1932e-13
2.72247e-13
1.11925e-13
4.27328e-14
1.33923e-14
5.04884e-12
-4.83492e-18
0
2.79582e-07
2.86548e-07
0
-2.9809e-07
0
1.0342e-19
0
1.23454e-10
4.23519e-19
0
0
-1.71206e-18
-3.4354e-18
-2.76013e-17
-1.65565e-09
-3.23802e-07
1.50101e-08
1.62607e-07
1.93355e-06
2.77136e-05
0.000332138
0.00341539
0.0292891
0.207539
1.21855
5.98855
24.9707
89.636
280.854
777.306
1917.41
4237.12
8393.96
14979.2
24609.6
37838.5
54985.9
76723.9
104162
139074
183998
242403
318924
419679
552728
728701
961646
1.27017e+06
1.67895e+06
2.22074e+06
2.93903e+06
3.89156e+06
5.15493e+06
6.8306e+06
9.05259e+06
1.19971e+07
1.57894e+07
2.09315e+07
2.77017e+07
3.65375e+07
4.6171e+08
3.47314e+07
2.46188e+07
1.7235e+07
1.18944e+07
8.07536e+06
5.3822e+06
3.51578e+06
2.25091e+06
1.42005e+06
901546
520979
93897.8
4652.4
98.3605
1.19456
0.0117101
0.000151983
4.07232e-06
2.67908e-07
3.79586e-08
9.08072e-09
3.12184e-09
1.20301e-09
5.13808e-10
2.25574e-10
9.42702e-11
4.3179e-11
1.92861e-11
7.72377e-12
3.49799e-12
1.47194e-12
5.91191e-13
2.23252e-13
8.79291e-14
3.52999e-14
1.05549e-14
2.1273e-15
-2.6294e-07
0
0
0
0
0
2.94806e-11
0
-2.85333e-15
0
-2.42486e-10
3.9551e-10
0
0
9.76109e-10
-3.33803e-17
-1.59925e-09
-2.31351e-15
7.22853e-09
1.8305e-07
2.27585e-06
3.18844e-05
0.000385126
0.00396641
0.0340506
0.241449
1.41854
6.97615
29.1113
104.587
327.939
907.852
2237.23
4926.16
9678.08
17081.9
27805.6
42295.4
60843.8
84133.1
113372
150489
198214
260264
341568
448628
590007
777032
1.02472e+06
1.35303e+06
1.7886e+06
2.36703e+06
3.13599e+06
4.15955e+06
5.52402e+06
7.3461e+06
9.78427e+06
1.3031e+07
1.73219e+07
2.32659e+07
3.13005e+07
4.25372e+07
4.32346e+08
3.08669e+07
2.20327e+07
1.54928e+07
1.07172e+07
7.28159e+06
4.85121e+06
3.1658e+06
2.02583e+06
1.28137e+06
823369
406282
55309.6
2209.2
41.276
0.471174
0.00477907
7.09985e-05
2.29759e-06
1.79728e-07
2.97571e-08
7.84799e-09
2.50235e-09
9.92152e-10
4.58395e-10
1.83386e-10
8.9936e-11
3.32154e-11
1.6025e-11
7.32095e-12
2.90445e-12
1.26875e-12
5.41023e-13
1.00956e-12
8.81589e-14
3.5446e-14
1.06318e-14
2.14479e-15
-2.02948e-13
-3.02398e-12
2.75937e-07
0
1.41566e-11
-1.43512e-11
0
0
0
0
0
0
1.12412e-14
0
3.00218e-07
4.49049e-14
-2.71641e-16
-2.60493e-15
1.70198e-08
6.77605e-08
2.68308e-06
3.70007e-05
0.000446335
0.00460848
0.039623
0.281296
1.65448
8.14586
34.0353
122.438
384.359
1064.63
2620.91
5745.82
11171.1
19468.1
31390.3
47196.2
67173
92022.9
123070
162395
212906
278536
364459
477483
626570
823565
1.08418e+06
1.42933e+06
1.88693e+06
2.49435e+06
3.30177e+06
4.37679e+06
5.81089e+06
7.72843e+06
1.02995e+07
1.37102e+07
1.82452e+07
2.45835e+07
3.32388e+07
1.18865e+08
3.4866e+08
2.8914e+07
2.05479e+07
1.44e+07
9.93255e+06
6.73021e+06
4.47227e+06
2.91197e+06
1.86148e+06
1.18057e+06
766653
300915
32885.6
1108.97
18.6813
0.204316
0.0021735
3.69076e-05
1.41672e-06
1.29805e-07
2.35272e-08
6.63077e-09
2.28442e-09
9.80885e-10
4.04209e-10
1.77061e-10
7.37864e-11
3.75548e-11
1.50412e-11
6.48609e-12
2.89037e-12
1.06835e-12
4.42426e-13
1.99071e-13
7.63059e-14
2.96362e-14
9.23546e-15
1.80104e-15
-2.62203e-07
1.35106e-12
0
0
0
-2.86131e-07
-5.17796e-11
0
-2.73906e-15
-1.15443e-10
0
-2.91026e-07
0
9.16115e-10
9.13881e-10
-3.7359e-17
-2.91784e-07
-2.90438e-15
2.00141e-08
3.91215e-07
3.30675e-06
4.25981e-05
0.000516679
0.00534648
0.0460604
0.32756
1.92981
9.51818
39.8443
143.614
451.635
1252.24
3079.68
6715.78
12888.5
22140.3
35361.5
52522.9
73943.8
100367
133245
174796
228099
297252
387626
506247
662341
868063
1.13949e+06
1.49792e+06
1.97167e+06
2.59845e+06
3.42852e+06
4.52903e+06
5.98985e+06
7.93143e+06
1.05155e+07
1.39118e+07
1.83718e+07
2.4499e+07
3.26698e+07
2.63506e+08
2.26995e+08
2.78442e+07
1.96892e+07
1.37349e+07
9.43373e+06
6.36722e+06
4.21599e+06
2.73692e+06
1.74673e+06
1.10992e+06
722093
229096
20069.9
591.195
9.1428
0.0973716
0.00109568
2.11438e-05
9.43903e-07
9.68403e-08
1.88861e-08
5.80919e-09
2.06308e-09
8.7386e-10
3.80463e-10
1.67373e-10
6.24269e-11
2.88031e-11
1.42225e-11
6.26664e-12
3.26829e-12
1.06432e-12
4.41417e-13
1.74864e-13
7.0429e-14
2.97097e-14
9.28118e-15
1.81238e-15
2.61832e-07
2.67433e-07
0
-2.76312e-07
0
2.82129e-07
-2.80836e-11
-5.637e-11
-1.12876e-10
1.12769e-10
0
-3.64458e-10
2.81995e-07
2.10657e-14
2.79666e-07
-3.60033e-17
-1.75659e-09
-3.24913e-15
1.91715e-08
2.82177e-07
3.64591e-06
4.89786e-05
0.000595356
0.00618101
0.0533833
0.380515
2.247
11.1099
46.6301
168.532
531.334
1475.54
3625.21
7853.33
14864.5
25167.9
39681.4
58228
81100.6
109133
143910
187783
243987
316768
411663
535883
698863
912990
1.19458e+06
1.56519e+06
2.0533e+06
2.69667e+06
3.54538e+06
4.66596e+06
6.1469e+06
8.10629e+06
1.07011e+07
1.4089e+07
1.85228e+07
2.45991e+07
3.2693e+07
3.51218e+08
1.39726e+08
2.69332e+07
1.89833e+07
1.31993e+07
9.03685e+06
6.08075e+06
4.01505e+06
2.60058e+06
1.65814e+06
1.05618e+06
677910
178877
12697.3
335.241
4.83722
0.0508259
0.000607459
1.31927e-05
6.7415e-07
7.88541e-08
1.65076e-08
4.6356e-09
1.85398e-09
7.6823e-10
3.46697e-10
1.54102e-10
6.61969e-11
3.07052e-11
1.25656e-11
5.23921e-12
2.4692e-12
9.63164e-13
-3.7918e-13
1.74563e-13
-5.11556e-12
2.6821e-14
8.59015e-15
1.64279e-15
0
3.9128e-17
0
0
2.33081e-20
0
0
0
-1.10456e-10
0
7.47035e-19
7.42105e-19
0
-2.92392e-18
-5.80683e-18
-5.19643e-17
3.97067e-14
-3.60047e-15
2.44331e-08
3.05839e-07
4.05937e-06
5.58068e-05
0.000682269
0.00710566
0.061556
0.440053
2.60642
12.9286
54.4521
197.514
624.812
1738.93
4267.5
9166.5
17057.5
28430.1
44241.5
64164.6
88499.1
118202
154984
201346
260664
337337
437069
567267
737595
960702
1.2532e+06
1.63694e+06
2.14072e+06
2.80258e+06
3.67274e+06
4.81773e+06
6.32523e+06
8.30995e+06
1.0928e+07
1.43328e+07
1.8787e+07
2.48782e+07
3.29669e+07
4.18229e+08
7.54157e+07
2.57737e+07
1.8145e+07
1.26006e+07
8.61597e+06
5.7905e+06
3.81947e+06
2.47261e+06
1.57783e+06
1.00931e+06
629546
139885
8392
202.57
2.76513
0.0289438
0.000367561
8.89018e-06
5.07822e-07
6.35489e-08
1.41567e-08
4.38834e-09
1.73538e-09
7.10805e-10
3.41703e-10
1.44588e-10
6.02941e-11
2.73687e-11
6.52243e-12
4.81772e-12
2.26134e-12
9.57689e-13
1.15476e-12
1.6228e-13
8.22159e-13
2.3124e-14
7.53668e-13
1.38232e-15
4.79484e-18
2.65205e-07
0
-5.45659e-12
0
1.10298e-11
0
0
2.72981e-07
0
-5.06308e-15
0
-7.5831e-10
-2.82317e-18
-8.3885e-18
-4.99181e-17
2.58143e-07
-3.21876e-09
2.33e-08
3.49157e-07
4.64323e-06
6.30669e-05
0.000774923
0.00810457
0.0704566
0.505449
3.00484
14.9646
63.3003
230.649
732.743
2044.93
5010.36
10639.6
19380.5
31764.5
48820
70053.9
95838
127265
166173
215214
277902
358803
463815
600586
779071
1.01228e+06
1.31725e+06
1.71635e+06
2.23898e+06
2.92382e+06
3.82185e+06
4.99977e+06
6.54472e+06
8.57522e+06
1.12494e+07
1.4697e+07
1.91964e+07
2.52856e+07
3.32632e+07
4.72255e+08
3.3956e+07
2.42392e+07
1.70915e+07
1.18851e+07
8.13635e+06
5.47416e+06
3.61502e+06
2.34398e+06
1.50013e+06
965794
575166
110655
5815.05
130.475
1.70502
0.0179002
0.000240917
6.407e-06
4.03121e-07
5.51698e-08
1.26952e-08
4.31103e-09
1.61647e-09
6.98951e-10
3.13461e-10
1.30928e-10
5.86706e-11
2.70382e-11
1.08239e-11
9.89631e-12
1.86865e-12
8.57528e-13
-4.76376e-12
1.38308e-13
5.85369e-14
4.36852e-12
7.51344e-13
1.29872e-15
-2.01513e-13
0
-5.98175e-12
0
-2.69643e-07
0
0
2.68549e-07
0
0
4.92338e-15
0
4.04293e-10
0
-6.41377e-10
-1.26876e-09
-1.25739e-09
5.56777e-09
3.32464e-08
5.0666e-07
4.98501e-06
7.05582e-05
0.000871215
0.00914847
0.0798411
0.575069
3.43341
17.1794
73.0415
267.578
854.364
2391.72
5843.87
12210.8
21640.6
34862.8
53009.1
75422.2
102598
135750
176855
228693
294922
380284
490900
634702
822012
1.06631e+06
1.38523e+06
1.80192e+06
2.34678e+06
3.05979e+06
3.99329e+06
5.21551e+06
6.82171e+06
8.93379e+06
1.17097e+07
1.52563e+07
2.00622e+07
2.64104e+07
3.47847e+07
4.66922e+08
3.11308e+07
2.23781e+07
1.58699e+07
1.10881e+07
7.62145e+06
5.14599e+06
3.4097e+06
2.21877e+06
1.42665e+06
925588
529904
89390.2
4236.06
89.589
1.13222
0.0119713
0.000169937
4.90372e-06
3.3638e-07
4.88358e-08
1.19578e-08
4.05391e-09
1.49855e-09
6.22307e-10
2.85695e-10
1.35316e-10
5.20848e-11
2.37818e-11
1.06979e-11
4.72473e-12
2.03769e-12
9.44055e-13
3.39744e-13
4.49185e-12
5.84005e-14
5.09406e-12
7.48665e-13
1.30288e-15
0
-2.77301e-21
0
-2.65944e-07
0
0
0
0
0
-8.29869e-11
-4.7828e-15
3.96664e-10
-9.27724e-15
2.42747e-07
7.56768e-10
-5.59973e-17
-1.19991e-09
-4.65262e-15
3.15407e-08
4.17786e-07
5.57151e-06
7.79238e-05
0.000966645
0.0101918
0.0893122
0.646065
3.87547
19.4924
83.3505
307.193
986.369
2769.51
6732.81
13738.1
23485.4
37233.3
56193.3
79572.7
107997
142783
186025
240606
310322
400082
516232
666998
863086
1.11848e+06
1.45147e+06
1.88608e+06
2.45388e+06
3.19626e+06
4.16727e+06
5.44226e+06
7.11579e+06
9.31602e+06
1.22064e+07
1.59167e+07
2.09633e+07
2.76356e+07
3.64585e+07
4.60823e+08
2.90474e+07
2.09345e+07
1.4889e+07
1.04341e+07
7.19388e+06
4.87245e+06
3.23912e+06
2.11585e+06
1.3675e+06
894269
484331
74604.6
3262.4
65.7485
0.809371
0.00863276
0.000128351
3.96664e-06
2.89751e-07
4.41768e-08
1.13592e-08
3.79696e-09
1.46651e-09
6.48451e-10
2.68274e-10
1.21854e-10
5.69061e-11
2.34446e-11
9.84175e-12
3.5752e-12
1.8351e-12
7.98434e-13
3.37551e-13
5.20358e-12
5.24558e-14
5.07246e-12
7.20201e-15
-7.33981e-13
-4.7741e-18
2.93642e-12
0
0
0
3.07799e-16
0
2.57614e-07
1.71784e-19
9.92981e-11
2.46849e-07
0
3.76621e-10
6.01207e-10
7.25248e-10
-2.2516e-07
-4.837e-16
2.25542e-09
3.48075e-08
4.52977e-07
6.11779e-06
8.49151e-05
0.00105559
0.0111725
0.0983009
0.714173
4.30461
21.7674
93.6349
347.282
1121.47
3155.42
7599.8
14952.9
24350.3
38158.3
57555.5
81597.9
111005
147183
192296
249306
322111
415762
536796
693692
897482
1.16257e+06
1.5078e+06
1.95789e+06
2.54519e+06
3.31223e+06
4.31635e+06
5.63196e+06
7.35809e+06
9.62665e+06
1.25966e+07
1.6421e+07
2.16292e+07
2.85224e+07
4.10546e+07
4.52267e+08
2.7527e+07
1.98744e+07
1.4164e+07
9.94878e+06
6.87648e+06
4.67036e+06
3.11439e+06
2.04173e+06
1.32563e+06
872581
452329
64638.5
2657.97
51.5579
0.622007
0.00668914
0.000103328
3.36923e-06
2.58472e-07
4.08266e-08
1.04345e-08
3.70311e-09
1.59711e-09
6.15363e-10
2.87146e-10
1.13574e-10
5.38677e-11
2.44867e-11
8.99098e-12
4.6145e-12
1.99647e-12
7.45908e-13
3.12296e-13
1.36365e-13
-6.87693e-13
2.23852e-14
-5.01082e-12
4.26375e-12
0
-2.60711e-07
-1.1013e-20
0
0
1.03767e-11
0
-9.0486e-11
0
-9.65987e-11
0
6.32661e-19
2.95177e-10
-2.41938e-18
-2.19137e-07
-3.23532e-14
-5.09426e-16
4.75761e-09
3.5405e-08
3.80344e-07
6.47426e-06
9.05826e-05
0.00113123
0.012014
0.106086
0.773772
4.6845
23.8074
102.987
384.235
1246.96
3507.57
8303.81
15403.8
23440
36737.4
56135.6
80427.2
110400
147511
193945
252706
327749
424217
548769
710041
919255
1.19103e+06
1.54445e+06
2.00448e+06
2.60384e+06
3.38635e+06
4.40899e+06
5.74604e+06
7.4968e+06
9.79287e+06
1.27851e+07
1.66367e+07
2.18673e+07
2.87694e+07
5.4944e+07
4.39881e+08
2.6392e+07
1.90919e+07
1.36346e+07
9.59843e+06
6.65022e+06
4.52824e+06
3.02807e+06
1.99151e+06
1.2981e+06
858609
433752
58227.1
2289.64
43.1457
0.512755
0.00555074
8.8249e-05
2.99543e-06
2.38401e-07
3.93749e-08
1.03103e-08
3.44597e-09
1.39584e-09
6.23458e-10
2.59253e-10
1.21978e-10
5.21988e-11
2.33221e-11
9.9489e-12
4.2007e-12
1.7953e-12
-3.42955e-12
-4.20698e-13
-6.09561e-13
-6.83611e-13
2.08981e-14
-7.28941e-13
1.22009e-15
0
-2.73736e-21
2.5922e-07
0
-1.03152e-11
-1.02131e-11
-2.47867e-11
0
0
-9.39024e-11
2.32097e-07
0
1.19036e-18
2.14727e-07
1.57286e-14
-6.61165e-17
-5.21304e-16
4.48834e-09
3.52417e-08
5.02019e-07
6.6367e-06
9.46939e-05
0.00118647
0.0126338
0.111866
0.818415
4.97193
25.3683
110.225
413.096
1344.33
3761.32
8618.27
15315.4
23402.6
32030.1
50986.6
74988.6
104898
142174
188993
248348
324200
421713
547579
710475
921674
1.19584e+06
1.55212e+06
2.01553e+06
2.61893e+06
3.40491e+06
4.42962e+06
5.7668e+06
7.5135e+06
9.79777e+06
1.27619e+07
1.6567e+07
2.17124e+07
2.84703e+07
7.13984e+07
4.27138e+08
2.55054e+07
1.84901e+07
1.32332e+07
9.33606e+06
6.48301e+06
4.42495e+06
2.96666e+06
1.95669e+06
1.27942e+06
848977
422057
54558.5
2083.01
38.4692
0.452438
0.00491931
7.97235e-05
2.7787e-06
2.27616e-07
3.7522e-08
1.01251e-08
3.49797e-09
1.35762e-09
5.8555e-10
2.62364e-10
1.14669e-10
5.11767e-11
2.15548e-11
1.01001e-11
4.1417e-12
1.77334e-12
1.27754e-14
3.07135e-13
1.23306e-13
5.17654e-14
2.08278e-14
6.47147e-15
1.13176e-15
0
-3.79721e-17
2.57344e-07
5.14186e-12
-2.26934e-11
-2.49688e-07
2.4315e-11
2.41263e-07
1.5934e-19
0
-2.2479e-07
0
1.14342e-18
-5.29169e-10
-5.13425e-10
1.22589e-09
9.70622e-10
-1.83732e-07
3.71047e-08
4.20162e-07
6.84851e-06
9.69612e-05
0.00121473
0.0129523
0.114857
0.841697
5.12309
26.1959
114.086
428.359
1392.15
3836.71
8614.24
15993.5
24418.7
32152.5
41484.1
64508.3
93420
129684
175438
233615
308117
404040
528005
688602
896988
1.16767e+06
1.51956e+06
1.97728e+06
2.57302e+06
3.3488e+06
4.35959e+06
5.67739e+06
7.39661e+06
9.64118e+06
1.25468e+07
1.62685e+07
2.12846e+07
2.78471e+07
8.21619e+07
4.19515e+08
2.47491e+07
1.79777e+07
1.28893e+07
9.10844e+06
6.33506e+06
4.33091e+06
2.90844e+06
1.92163e+06
1.25869e+06
836284
414815
52963.2
1995
36.4649
0.426602
0.00464839
7.60377e-05
2.68605e-06
2.21884e-07
3.64928e-08
9.78286e-09
3.53533e-09
1.3936e-09
5.69538e-10
2.55769e-10
1.07635e-10
5.1544e-11
2.24762e-11
9.62521e-12
4.07956e-12
1.82804e-12
7.4701e-13
1.03135e-12
8.56261e-13
-6.78386e-13
1.93321e-14
7.38463e-13
1.13147e-15
0
-2.58453e-07
3.18257e-12
-5.14182e-12
0
2.9347e-16
0
2.4125e-07
0
-2.30641e-07
2.24462e-07
0
2.11771e-07
2.066e-07
6.31002e-10
-6.27151e-17
2.78101e-14
4.21966e-09
4.12252e-08
5.07888e-07
6.84807e-06
9.68558e-05
0.00121449
0.0129499
0.114835
0.841538
5.12213
26.1912
114.067
428.291
1391.95
3836.19
8613.42
15992.3
24417.3
32151.3
41481.3
64506.1
93419.5
129687
175445
233629
308142
404080
528067
688694
897122
1.16786e+06
1.51982e+06
1.97764e+06
2.5735e+06
3.34942e+06
4.36036e+06
5.67832e+06
7.39766e+06
9.64229e+06
1.25478e+07
1.62692e+07
2.12847e+07
2.78467e+07
8.22274e+07
4.19447e+08
2.47486e+07
1.79775e+07
1.28892e+07
9.1083e+06
6.33492e+06
4.33079e+06
2.90835e+06
1.92157e+06
1.25866e+06
836269
414781
52953.3
1994.5
36.4539
0.426462
0.00464688
7.60104e-05
2.68397e-06
2.24131e-07
3.67445e-08
9.94259e-09
3.53553e-09
1.35951e-09
6.08608e-10
2.55774e-10
1.1203e-10
5.27174e-11
2.11461e-11
9.25233e-12
3.38617e-12
1.75001e-12
-3.16172e-14
3.04237e-13
1.33551e-13
5.02049e-14
7.5025e-13
-4.97299e-12
1.13147e-15
0
0
0
5.19434e-12
0
4.28124e-20
5.88915e-16
3.97112e-11
0
0
0
0
8.29173e-15
1.6149e-14
6.62291e-10
-6.17034e-17
-5.16947e-16
2.47452e-09
3.32619e-08
5.01962e-07
6.7284e-06
9.49075e-05
0.0011859
0.0126271
0.111805
0.817967
4.96924
25.3548
110.169
412.898
1343.74
3759.82
8614.95
15311.7
23398.4
32024.2
50981.1
74985.5
104900
142185
189018
248395
324279
421838
547768
710755
922079
1.19642e+06
1.55292e+06
2.01663e+06
2.6204e+06
3.4068e+06
4.43196e+06
5.76962e+06
7.51678e+06
9.80134e+06
1.27654e+07
1.65698e+07
2.17139e+07
2.84707e+07
7.15682e+07
4.26962e+08
2.55035e+07
1.84895e+07
1.32326e+07
9.33539e+06
6.48234e+06
4.42439e+06
2.96624e+06
1.95641e+06
1.27924e+06
848875
421931
54525.3
2081.31
38.4328
0.451979
0.00491453
7.96536e-05
2.77673e-06
2.27121e-07
3.77889e-08
9.99146e-09
3.49822e-09
1.35772e-09
6.25685e-10
2.4189e-10
1.14677e-10
5.30481e-11
2.09482e-11
9.41278e-12
3.94996e-12
2.48488e-12
7.75514e-13
3.07154e-13
-6.0492e-13
5.17678e-14
4.27426e-12
6.47153e-15
1.1318e-15
0
0
2.61087e-07
1.16956e-11
2.19023e-20
-1.03764e-11
-2.52582e-11
-1.1854e-15
0
0
-6.46181e-19
-2.34342e-07
0
2.24745e-07
-1.64924e-14
3.22207e-14
-5.04831e-16
4.75714e-09
-1.69197e-07
4.80984e-07
6.37422e-06
9.05127e-05
0.00113032
0.0120048
0.106002
0.77315
4.68073
23.7885
102.907
383.953
1246.1
3505.37
8299.04
15395
23429.5
36729.4
56128.1
80422.9
110402
147525
193976
252763
327844
424365
548992
710366
919721
1.19169e+06
1.54538e+06
2.00578e+06
2.60568e+06
3.38897e+06
4.41192e+06
5.7495e+06
7.50084e+06
9.79742e+06
1.27898e+07
1.66408e+07
2.18705e+07
2.87727e+07
5.51264e+07
4.39642e+08
2.63873e+07
1.90889e+07
1.36321e+07
9.59616e+06
6.64837e+06
4.52686e+06
3.02711e+06
1.99088e+06
1.29771e+06
858378
433524
58167.1
2286.51
43.0771
0.51188
0.0055416
8.8124e-05
2.99375e-06
2.38973e-07
3.87742e-08
1.01408e-08
3.44627e-09
1.39594e-09
6.23516e-10
2.68677e-10
1.27876e-10
5.07042e-11
2.4084e-11
1.02696e-11
4.20104e-12
1.7954e-12
-4.15565e-12
3.22308e-13
1.24166e-13
-6.83617e-13
2.08982e-14
5.01172e-12
1.17121e-15
6.85325e-22
0
0
-1.11076e-20
0
0
-2.57305e-11
-2.57605e-07
2.54626e-07
2.35888e-15
-3.54322e-10
0
0
-1.75579e-14
-5.90055e-10
-5.83476e-17
1.40396e-09
-2.18873e-07
2.9832e-08
4.52929e-07
6.10736e-06
8.49189e-05
0.00105443
0.0111608
0.0981958
0.713394
4.29987
21.7435
93.534
346.921
1120.36
3152.52
7593.38
14941.1
24334.9
38143.4
57538.8
81581.8
110992
147178
192303
249330
322161
415849
536935
693900
897781
1.16299e+06
1.50837e+06
1.95863e+06
2.54612e+06
3.3133e+06
4.31826e+06
5.63469e+06
7.36173e+06
9.63129e+06
1.26022e+07
1.6427e+07
2.16358e+07
2.85316e+07
4.11531e+07
4.52073e+08
2.75181e+07
1.98668e+07
1.41574e+07
9.94353e+06
6.87258e+06
4.66763e+06
3.11258e+06
2.04058e+06
1.32493e+06
872177
451992
64545.6
2652.93
51.4451
0.620552
0.00667404
0.000103132
3.36513e-06
2.58514e-07
4.0552e-08
1.04358e-08
3.61438e-09
1.51481e-09
6.15422e-10
2.74682e-10
1.13582e-10
5.24747e-11
2.37945e-11
1.00989e-11
3.69386e-12
-3.14493e-12
7.45952e-13
3.12316e-13
1.36374e-13
5.08617e-12
2.23858e-14
7.19988e-15
1.30783e-15
0
0
0
0
0
-2.38583e-11
0
0
0
3.47877e-19
2.54314e-07
2.50567e-07
0
-7.68474e-10
-7.74306e-18
1.49241e-09
-2.32889e-07
2.3764e-09
3.38957e-08
4.17743e-07
5.57664e-06
7.79251e-05
0.000965495
0.010179
0.0891958
0.6452
3.87019
19.4657
83.2373
306.784
985.101
2766.12
6725.1
13723.4
23464.2
37208.8
56162.7
79537.2
107958
142743
185985
240568
310290
400060
516226
667016
863141
1.11859e+06
1.45166e+06
1.8864e+06
2.4544e+06
3.19708e+06
4.16861e+06
5.44429e+06
7.11869e+06
9.31981e+06
1.22108e+07
1.59206e+07
2.097e+07
2.76492e+07
3.64813e+07
4.60826e+08
2.9044e+07
2.09312e+07
1.48861e+07
1.04318e+07
7.19208e+06
4.87109e+06
3.23813e+06
2.11514e+06
1.36701e+06
893960
483859
74486
3255.1
65.5742
0.807037
0.00860862
0.000128042
3.95716e-06
2.89231e-07
4.35397e-08
1.11809e-08
3.96333e-09
1.51327e-09
6.72225e-10
2.80377e-10
1.21867e-10
5.12762e-11
2.48722e-11
9.84277e-12
4.30867e-12
1.83527e-12
-4.2009e-12
3.3758e-13
1.3713e-13
5.24592e-14
2.09984e-14
7.91762e-15
1.25687e-15
0
-3.87994e-17
-2.66692e-07
0
2.41912e-11
1.33558e-11
0
9.63708e-11
-1.80082e-19
0
3.75786e-10
-2.58682e-07
4.04268e-10
0
-1.4296e-09
3.69895e-14
2.80257e-09
-4.31362e-15
2.77029e-08
3.75391e-07
5.09817e-06
7.07013e-05
0.000870055
0.00913547
0.0797231
0.574187
3.42801
17.152
72.9245
267.152
853.03
2388.09
5835.39
12194
21614.2
34828.4
52963.1
75364.6
102528
135668
176758
228579
294787
380123
490706
634466
821722
1.06595e+06
1.38479e+06
1.80138e+06
2.34613e+06
3.05903e+06
3.99243e+06
5.2147e+06
6.82112e+06
8.93381e+06
1.17111e+07
1.52602e+07
2.00702e+07
2.64244e+07
3.48065e+07
4.66881e+08
3.11203e+07
2.23662e+07
1.58604e+07
1.10817e+07
7.61742e+06
5.14357e+06
3.40825e+06
2.21789e+06
1.42611e+06
925251
529466
89227.4
4224.82
89.3056
1.12831
0.0119308
0.000169437
4.89428e-06
3.35129e-07
4.91416e-08
1.19597e-08
4.0545e-09
1.58522e-09
6.66381e-10
2.85027e-10
1.35334e-10
5.70147e-11
2.52336e-11
1.06989e-11
4.7251e-12
-3.22863e-12
8.51348e-13
3.39765e-13
1.37786e-13
5.8405e-14
-5.05061e-12
7.91641e-15
1.39192e-15
-2.61086e-07
0
0
-2.7114e-07
-3.20834e-16
2.74049e-07
2.74369e-07
0
-2.72972e-07
0
2.69257e-07
2.66789e-07
1.42601e-18
0
-2.58927e-07
3.85849e-14
-3.91301e-16
2.54148e-07
2.32981e-08
3.49125e-07
4.61953e-06
6.29728e-05
0.00077385
0.00809234
0.0703449
0.504612
2.99968
14.9383
63.1873
230.235
731.434
2041.32
5001.73
10621.9
19350.8
31722.7
48761.5
69977.4
95741.9
127146
166029
215038
277686
358538
463487
600177
778559
1.01163e+06
1.31644e+06
1.71532e+06
2.23769e+06
2.92222e+06
3.81992e+06
4.99752e+06
6.54248e+06
8.57368e+06
1.12501e+07
1.47026e+07
1.92065e+07
2.52995e+07
3.32825e+07
4.72273e+08
3.39366e+07
2.4221e+07
1.70784e+07
1.1877e+07
8.13173e+06
5.47164e+06
3.61365e+06
2.34321e+06
1.49967e+06
965520
574825
110440
5797.44
129.994
1.69807
0.0178281
0.000240069
6.38678e-06
4.03081e-07
5.54861e-08
1.28869e-08
4.13746e-09
1.70518e-09
6.99049e-10
3.135e-10
1.25987e-10
5.86789e-11
2.70411e-11
1.51779e-11
4.77413e-12
2.05605e-12
8.57607e-13
3.6512e-13
9.06002e-13
5.85433e-14
2.24822e-14
-5.04968e-12
1.29881e-15
6.89287e-22
0
0
2.73734e-07
0
-3.26837e-16
0
0
-8.98681e-11
-2.78269e-07
-2.76711e-07
0
0
-2.92374e-18
-1.54374e-09
-4.61873e-17
1.37202e-09
-3.59444e-15
2.44311e-08
3.18045e-07
4.04674e-06
5.57155e-05
0.000681074
0.00709494
0.0614572
0.439306
2.60179
12.9049
54.3495
197.136
623.607
1735.58
4259.34
9149.24
17027.2
28385.1
44176.5
64077.2
88387.1
118062
154812
201136
260409
337025
436689
566804
737031
960015
1.25236e+06
1.63592e+06
2.13948e+06
2.80106e+06
3.6709e+06
4.8155e+06
6.32258e+06
8.30697e+06
1.09253e+07
1.43313e+07
1.87888e+07
2.48848e+07
3.29786e+07
4.18667e+08
7.49122e+07
2.57672e+07
1.81414e+07
1.25993e+07
8.61584e+06
5.79073e+06
3.81969e+06
2.47269e+06
1.5778e+06
1.00924e+06
629271
139609
8363.54
201.718
2.75215
0.0288081
0.000366052
8.86055e-06
5.0656e-07
6.42622e-08
1.41594e-08
4.56738e-09
1.78549e-09
7.31493e-10
3.41744e-10
1.46268e-10
6.10534e-11
2.73722e-11
1.09396e-11
5.40458e-12
2.26164e-12
-4.24856e-12
3.66893e-13
1.62294e-13
6.44861e-14
2.39289e-14
7.89308e-15
1.38241e-15
-3.67044e-13
0
3.36698e-12
0
0
0
0
-1.02232e-10
0
2.67928e-15
7.67081e-19
0
-2.82343e-07
2.80067e-07
-9.0306e-18
-4.20011e-17
-3.18562e-09
-3.23691e-15
1.917e-08
4.08931e-07
3.50549e-06
4.89224e-05
0.000594637
0.00617212
0.0533009
0.379887
2.24308
11.0897
46.5422
168.206
530.289
1472.6
3617.98
7837.72
14836.2
25124
39616.4
58138.9
80985.2
108988
143733
187567
243727
316455
411288
535435
698330
912357
1.19383e+06
1.5643e+06
2.05225e+06
2.69544e+06
3.54393e+06
4.66428e+06
6.14503e+06
8.10438e+06
1.06994e+07
1.40883e+07
1.85242e+07
2.46037e+07
3.27007e+07
3.51707e+08
1.39129e+08
2.6928e+07
1.89789e+07
1.3196e+07
9.03444e+06
6.07898e+06
4.01375e+06
2.59962e+06
1.65745e+06
1.05571e+06
677473
178458
12645.9
333.581
4.81056
0.0505444
0.000604482
1.31434e-05
6.72126e-07
7.74393e-08
1.65111e-08
4.83823e-09
1.85429e-09
8.15163e-10
3.46755e-10
1.5337e-10
6.62058e-11
3.07093e-11
1.25673e-11
5.62299e-12
2.27778e-12
9.63277e-13
3.92143e-13
1.74585e-13