/*--------------------------------*- C++ -*----------------------------------*\
  =========                 |
  \\      /  F ield         | OpenFOAM: The Open Source CFD Toolbox
   \\    /   O peration     | Website:  https://openfoam.org
    \\  /    A nd           | Version:  8
     \\/     M anipulation  |
\*---------------------------------------------------------------------------*/
FoamFile
{
    version     2.0;
    format      ascii;
    class       volScalarField;
    location    "280/fluid";
    object      rDeltaT;
}
// * * * * * * * * * * * * * * * * * * * * * * * * * * * * * * * * * * * * * //

dimensions      [0 0 -1 0 0 0 0];

internalField   nonuniform List<scalar> 
4000
(
513.06
538.235
562.347
585.59
607.898
629.166
649.285
668.146
685.641
701.679
716.215
729.274
740.981
751.577
761.432
771.033
780.772
790.881
801.352
811.908
822.034
831.077
838.366
843.313
845.486
844.652
840.7
833.6
823.404
810.229
794.237
775.624
754.609
731.419
706.287
705.551
734.169
765.919
797.354
828.549
859.579
890.517
921.428
952.373
983.4
1014.55
1045.84
1077.28
1108.86
1140.57
1172.35
1204.16
1235.92
1267.54
1298.9
1329.87
1360.33
1390.1
1419.02
1446.75
1473.22
1498.39
1522.2
6755.43
10975.9
1537.78
1510.51
1477.28
1438.17
1393.51
1343.63
1288.9
1229.77
1166.9
1101.06
1033.07
964.354
897.175
834.365
779.213
735.205
704.479
686.473
678.042
675.111
674.11
672.703
669.606
664.295
656.759
647.21
635.927
623.192
609.256
594.313
578.5
561.966
544.932
527.526
509.44
512.641
537.228
560.631
582.857
603.866
623.574
641.902
658.78
674.155
688.004
700.367
711.364
721.22
730.267
738.953
747.703
756.877
766.679
777.081
787.779
798.23
807.745
815.608
821.182
823.996
823.725
820.19
813.346
803.255
790.052
773.924
755.093
733.798
710.285
684.801
676.138
697.438
730.573
763.434
796.086
828.599
861.041
893.477
925.967
958.564
991.308
1024.23
1057.35
1090.66
1124.16
1157.82
1191.59
1225.41
1259.22
1292.9
1326.37
1359.48
1392.11
1424.11
1455.16
1485.22
1514.38
1542.51
10154.8
8062.05
1545.98
1513.73
1476.59
1434.16
1386.38
1333.34
1275.25
1212.48
1145.54
1075.12
1002.04
928.188
856.473
790.648
734.859
692.449
664.659
649.741
643.848
642.893
643.668
644.201
643.465
640.932
636.407
629.927
621.628
611.687
600.287
587.582
573.689
558.744
542.964
526.475
509.079
512.021
535.236
557.106
577.662
596.836
614.553
630.765
645.447
658.602
670.272
680.564
689.666
697.86
705.512
713.044
720.848
729.277
738.536
748.595
759.148
769.651
779.406
787.683
793.819
797.28
797.669
794.752
788.455
778.819
765.971
750.097
731.416
710.169
686.607
660.978
645.937
661.382
695.861
730.194
764.431
798.629
832.848
867.145
901.577
936.193
971.036
1006.14
1041.53
1077.21
1113.19
1149.44
1185.95
1222.66
1259.53
1296.47
1333.39
1370.19
1406.71
1442.81
1478.03
1512.41
1545.81
1577.67
14510.6
4023.2
1563.5
1525.71
1482.51
1433.96
1380.12
1321.11
1257.13
1188.59
1116.1
1040.37
962.632
885.306
811.807
746.241
692.704
653.823
629.685
617.723
613.944
614.532
616.628
618.49
619.254
618.514
616.077
611.894
606.002
598.484
589.443
578.969
567.133
554.038
539.876
524.785
508.558
511.405
533.377
553.928
573.079
590.775
606.962
621.616
634.74
646.362
656.549
665.427
673.19
680.119
686.575
692.978
699.758
707.276
715.734
725.09
735.026
744.986
754.264
762.119
767.879
771.006
771.121
767.998
761.553
751.809
738.871
722.902
704.104
682.701
658.928
633.025
615.06
628.245
664.009
699.783
735.606
771.523
807.585
843.843
880.347
917.145
954.275
991.773
1029.66
1067.96
1106.66
1145.76
1185.23
1225.04
1265.12
1305.4
1345.77
1386.08
1426.15
1465.67
1504.13
1541.51
1576.87
1609.23
17837.8
1615.6
1577.3
1532.93
1483.02
1427.83
1367.52
1302.29
1232.5
1158.68
1081.64
1002.26
922.213
844.327
772.167
709.638
660.188
625.626
605.233
596.01
594.032
595.822
598.859
601.622
603.31
603.548
602.192
599.213
594.64
588.531
580.951
571.951
561.563
549.86
537.005
523.118
508.009
510.739
531.35
550.482
568.16
584.335
598.963
612.035
623.57
633.617
642.262
649.651
656
661.607
666.847
672.146
677.934
684.564
692.223
700.855
710.132
719.492
728.223
735.582
740.894
743.615
743.357
739.893
733.128
723.075
709.833
693.552
674.422
652.656
628.478
602.115
583.524
596.891
633.9
671.079
708.458
746.075
783.969
822.186
860.768
899.757
939.187
979.089
1019.48
1060.38
1101.78
1143.67
1186.01
1228.76
1271.86
1315.19
1358.63
1402
1445.03
1487.23
1528.14
1567.41
1603.56
1956.22
16196.3
1628.15
1582.92
1532.2
1476.17
1415.02
1349.01
1278.46
1203.87
1125.92
1045.55
963.792
882.695
805.293
735.156
675.943
630.541
599.973
582.822
575.82
575.208
577.861
581.583
585.061
587.591
588.819
588.586
586.837
583.572
578.82
572.62
565.001
555.978
545.604
534.028
521.362
507.427
510.061
529.316
547.067
563.337
578.086
591.279
602.918
613.034
621.685
628.972
635.049
640.14
644.547
648.646
652.86
657.615
663.256
669.962
677.67
686.05
694.537
702.427
708.98
713.529
715.531
714.603
710.513
703.163
692.558
678.784
661.983
642.332
620.03
595.288
568.321
551.269
567.082
605.243
643.731
682.566
721.777
761.396
801.46
842.004
883.061
924.659
966.82
1009.56
1052.87
1096.76
1141.18
1186.11
1231.47
1277.17
1323.1
1369.08
1414.91
1460.29
1504.63
1547.53
1588.63
1626.87
7884.8
10706.3
1625.68
1576.26
1521.09
1460.48
1394.77
1324.38
1249.8
1171.68
1090.9
1008.45
925.593
844.698
768.893
701.673
646.385
605.327
578.792
564.804
559.933
560.608
564.018
568.243
572.16
575.171
576.973
577.427
576.477
574.113
570.347
565.2
558.684
550.796
541.576
531.154
519.632
506.844
509.369
527.237
543.589
558.447
571.775
583.547
593.771
602.485
609.759
615.699
620.47
624.302
627.504
630.453
633.574
637.285
641.925
647.66
654.418
661.861
669.42
676.392
682.044
685.712
686.863
685.115
680.24
672.136
660.808
646.334
628.847
608.515
585.528
560.083
532.386
518.284
538.019
577.236
616.922
657.091
697.762
738.96
780.712
823.046
865.985
909.548
953.747
998.585
1044.05
1090.12
1136.76
1183.9
1231.46
1279.32
1327.34
1375.3
1422.96
1469.98
1515.7
1559.83
1602.07
1641.43
14469.4
4747.74
1612.86
1560.99
1502.66
1438.62
1369.48
1295.84
1218.37
1137.88
1055.36
971.855
888.876
808.993
735.357
671.335
619.926
582.87
559.847
548.482
545.314
547
551.021
555.688
560.026
563.51
565.871
566.977
566.77
565.23
562.359
558.168
552.655
545.813
537.669
528.341
517.925
506.266
508.669
525.145
540.1
553.557
565.487
575.868
584.714
592.07
598.01
602.649
606.153
608.761
610.779
612.588
614.606
617.246
620.838
625.539
631.268
637.679
644.205
650.145
654.772
657.432
657.599
654.897
649.102
640.113
627.931
612.631
594.34
573.217
549.442
523.203
494.695
484.558
509.244
549.395
590.145
631.498
673.466
716.066
759.316
803.233
847.833
893.123
939.104
985.768
1033.09
1081.04
1129.55
1178.55
1227.93
1277.54
1327.2
1376.67
1425.64
1473.69
1519.98
1564.59
1606.36
1644.27
18466.6
1643.06
1595.75
1540.78
1479.39
1412.43
1340.6
1264.58
1185.14
1103.19
1019.8
936.041
853.664
775.372
704.296
643.643
596.068
562.793
542.98
533.963
532.308
534.895
539.457
544.502
549.183
553.045
555.852
557.486
557.893
557.047
554.945
551.588
546.971
541.078
533.929
525.629
516.268
505.702
507.963
523.035
536.587
548.643
559.176
568.172
575.648
581.654
586.27
589.613
591.856
593.238
594.071
594.73
595.633
597.186
599.708
603.348
608.012
613.35
618.792
623.64
627.175
628.75
627.848
624.103
617.294
607.325
594.197
577.981
558.799
536.806
512.171
485.076
455.705
450.109
480.309
521.268
562.94
605.322
648.417
692.233
736.78
782.065
828.093
874.862
922.361
970.57
1019.45
1068.96
1119.01
1169.52
1220.36
1271.36
1322.3
1372.93
1422.86
1471.51
1518.15
1562.43
1602.82
1651.24
17450.8
1627.83
1575.76
1517.22
1452.9
1383.46
1309.54
1231.84
1151.17
1068.49
984.886
901.478
820.221
743.883
675.543
618.234
574.269
544.408
527.395
520.378
520
523.364
528.412
533.822
538.848
543.088
546.334
548.477
549.464
549.27
547.886
545.311
541.532
536.533
530.327
523.01
514.662
505.153
507.253
520.915
533.06
543.713
552.852
560.466
566.579
571.244
574.542
576.597
577.584
577.744
577.389
576.892
576.668
577.115
578.542
581.087
584.649
588.87
593.178
596.88
599.263
599.691
597.657
592.803
584.915
573.901
559.763
542.572
522.446
499.533
473.999
446.016
415.761
414.975
450.914
492.553
535.005
578.259
622.311
667.16
712.807
759.25
806.484
854.496
903.265
952.758
1002.93
1053.71
1105.02
1156.74
1208.73
1260.8
1312.74
1364.23
1414.9
1464.03
1511.03
1555.46
1595.76
4327.02
14345.7
1604.78
1549.97
1489.18
1422.96
1351.92
1276.72
1198.09
1116.88
1034.1
950.808
868.214
788.444
714.28
648.739
594.672
554.075
527.304
512.767
507.498
508.245
512.312
517.821
523.592
528.963
533.577
537.247
539.877
541.416
541.839
541.134
539.296
536.313
532.164
526.859
520.483
513.11
504.622
506.539
518.784
529.517
538.763
546.505
552.738
557.487
560.809
562.791
563.557
563.286
562.22
560.671
559.011
557.648
556.973
557.286
558.715
561.148
564.223
567.365
569.884
571.077
570.317
567.108
561.102
552.092
539.991
524.804
506.602
485.5
461.644
435.192
406.311
375.521
379.565
420.833
463.027
506.121
550.099
594.947
640.657
687.221
734.627
782.86
831.9
881.713
932.257
983.472
1035.28
1087.59
1140.27
1193.16
1246.08
1298.78
1350.96
1402.23
1451.94
1499.51
1544.67
1586.24
10137.2
9463.91
1574.21
1518.79
1457.2
1390.2
1318.48
1242.79
1163.91
1082.74
1000.35
917.776
836.338
758.285
686.399
623.621
572.627
535.118
511.103
498.735
494.99
496.73
501.442
507.404
513.551
519.287
524.294
528.403
531.526
533.615
534.644
534.601
533.48
531.267
527.94
523.506
518.04
511.609
504.108
505.822
516.644
525.96
533.796
540.137
544.985
548.369
550.349
551.012
550.488
548.957
546.661
543.913
541.082
538.57
536.76
535.945
536.238
537.521
539.425
541.375
542.685
542.66
540.684
536.272
529.086
518.929
505.717
489.46
470.23
448.14
423.333
395.963
366.192
339.457
348.308
389.925
432.553
476.161
520.723
566.219
612.631
659.944
708.138
757.189
807.067
857.729
909.124
961.182
1013.82
1066.92
1120.36
1173.97
1227.55
1280.85
1333.56
1385.3
1435.37
1483.27
1528.75
1570.51
13733.2
5879.87
1540.92
1485.36
1423.49
1356.2
1284.3
1208.56
1129.86
1049.13
967.459
885.886
805.826
729.618
660.029
599.92
551.797
517.097
495.539
485.081
482.681
485.319
490.643
497.061
503.603
509.73
515.153
519.72
523.347
525.99
527.626
528.239
527.823
526.363
523.839
520.254
515.673
510.156
503.61
505.103
514.495
522.39
528.81
533.748
537.208
539.224
539.858
539.201
537.384
534.589
531.061
527.109
523.1
519.432
516.478
514.521
513.666
513.783
514.499
515.239
515.322
514.062
510.853
505.222
496.843
485.526
471.195
453.862
433.601
410.526
384.775
356.5
325.858
302.911
316.23
358.094
401.048
445.05
490.069
536.078
583.052
630.965
679.792
729.499
780.048
831.389
883.46
936.183
989.464
1043.18
1097.2
1151.34
1205.39
1259.1
1312.13
1364.11
1414.32
1462.32
1507.81
1549.46
16427.6
3241.97
1506.81
1451.17
1389.2
1321.86
1250.03
1174.55
1096.3
1016.27
935.548
855.159
776.613
702.305
634.974
577.4
531.931
499.77
480.395
471.623
470.421
473.884
479.799
486.685
493.649
500.199
506.068
511.117
515.268
518.48
520.729
522.002
522.288
521.574
519.84
517.087
513.371
508.744
503.127
504.38
512.339
518.808
523.809
527.339
529.408
530.054
529.34
527.36
524.249
520.189
515.426
510.267
505.076
500.245
496.141
493.033
491.018
489.958
489.475
488.994
487.839
485.334
480.885
474.03
464.454
451.976
436.527
418.123
396.84
372.792
346.116
316.959
285.475
265.941
283.279
325.296
368.471
412.76
458.122
504.524
551.932
600.315
649.639
699.863
750.942
802.818
855.421
908.666
962.448
1016.64
1071.1
1125.62
1180
1233.95
1287.16
1339.21
1389.33
1437.13
1482.27
1523.46
18712.1
1521.73
1473.15
1417.1
1354.89
1287.54
1215.92
1140.88
1063.3
984.167
904.568
825.505
748.566
676.176
611.038
555.852
512.821
482.947
465.514
458.237
458.115
462.35
468.848
476.218
483.634
490.638
496.985
502.543
507.241
511.04
513.915
515.853
516.844
516.873
515.922
513.991
511.124
507.369
502.656
503.655
510.176
515.215
518.793
520.913
521.589
520.862
518.798
515.496
511.089
505.763
499.763
493.396
487.021
481.025
475.764
471.5
468.319
466.075
464.385
462.677
460.28
456.527
450.837
442.76
431.991
418.359
401.803
382.342
360.054
335.055
307.478
277.47
245.179
228.604
249.431
291.512
334.817
379.293
424.895
471.58
519.311
568.048
617.75
668.371
719.857
772.145
825.158
878.805
932.973
987.531
1042.32
1097.14
1151.76
1205.92
1259.26
1311.35
1361.3
1409.08
1453.5
1493.57
18666.1
1490.26
1440.01
1383.2
1320.72
1253.45
1182.19
1107.76
1031.01
952.918
874.55
796.897
721.607
651.11
588.072
535.116
494.314
466.497
450.792
444.834
445.693
450.66
457.739
465.615
473.513
481.004
487.86
493.957
499.227
503.633
507.15
509.764
511.465
512.24
512.069
510.951
508.923
506.024
502.197
502.928
508.008
511.613
513.765
514.472
513.754
511.653
508.24
503.615
497.913
491.322
484.086
476.511
468.952
461.788
455.37
449.947
445.595
442.163
439.263
436.326
432.687
427.689
420.763
411.472
399.522
384.751
367.104
346.606
323.337
297.414
268.968
238.144
205.085
190.959
214.684
256.748
300.097
344.672
390.419
437.293
485.247
534.236
584.213
635.127
686.919
739.518
792.845
846.802
901.274
956.123
1011.18
1066.25
1121.1
1175.44
1228.89
1280.98
1330.83
1378.42
1422.45
1461.73
18468
1457.25
1406.13
1348.92
1286.44
1219.48
1148.78
1075.12
999.361
922.446
845.409
769.237
695.617
626.975
565.936
515.052
476.281
450.313
436.166
431.361
433.116
438.784
446.446
454.849
463.258
471.269
478.665
485.329
491.196
496.229
500.405
503.709
506.13
507.654
508.264
507.956
506.759
504.704
501.746
502.199
505.834
508.003
508.728
508.022
505.908
502.434
497.673
491.726
484.731
476.877
468.408
459.627
450.885
442.555
434.978
428.395
422.872
418.251
414.142
409.977
405.101
398.866
390.714
380.222
367.107
351.215
332.5
310.99
286.769
259.953
230.674
199.072
165.29
153.061
179.055
221.027
264.341
308.931
354.74
401.713
449.8
498.95
549.11
600.223
652.226
705.046
758.597
812.778
867.47
922.532
977.795
1033.06
1088.08
1142.56
1196.12
1248.23
1298.08
1345.61
1389.44
1557.92
18210.1
1423.12
1371.67
1314.44
1252.23
1185.78
1115.81
1043.09
968.43
892.781
817.141
742.482
670.525
603.676
544.521
495.548
458.618
434.298
421.567
417.798
420.373
426.71
434.957
443.905
452.851
461.41
469.375
476.633
483.122
488.805
493.658
497.666
500.817
503.097
504.491
504.992
504.622
503.403
501.303
501.469
503.657
504.388
503.686
501.565
498.057
493.212
487.104
479.838
471.554
462.44
452.741
442.758
432.836
423.343
414.609
406.867
400.174
394.366
389.051
383.665
377.559
370.097
360.734
349.058
334.798
317.809
298.051
275.559
250.418
222.744
192.67
160.334
125.874
114.965
142.573
184.382
227.587
272.117
317.908
364.9
413.037
462.263
512.521
563.75
615.881
668.839
722.534
776.864
831.707
886.92
942.336
997.748
1052.91
1107.52
1161.22
1213.41
1263.39
1311.05
1355.03
2025.38
17782
1387.54
1336.28
1279.47
1217.86
1152.19
1083.18
1011.55
938.13
863.843
789.658
716.546
646.234
581.109
523.718
476.493
441.221
418.389
406.931
404.143
407.445
414.423
423.255
432.763
442.27
451.404
459.965
467.844
474.98
481.334
486.884
491.612
495.506
498.553
500.736
502.049
502.504
502.117
500.865
500.738
501.477
500.771
498.64
495.107
490.206
483.992
476.542
467.961
458.392
448.024
437.1
425.919
414.823
404.169
394.283
385.385
377.526
370.534
364.019
357.418
350.093
341.418
330.861
318.021
302.639
284.579
263.808
240.366
214.34
185.848
155.02
121.994
100
100
105.276
146.855
189.882
234.28
279.979
326.914
375.024
424.248
474.525
525.789
577.972
630.991
684.759
739.169
794.1
849.41
904.926
960.447
1015.73
1070.47
1124.3
1176.64
1226.82
1274.72
1319.05
2605.92
17318
1351
1300.29
1244.17
1183.41
1118.73
1050.84
980.458
908.39
835.552
762.885
691.348
622.663
559.193
503.443
457.795
423.977
402.448
392.101
390.307
394.33
401.93
411.339
421.414
431.499
441.23
450.412
458.937
466.743
473.792
480.059
485.526
490.179
494.003
496.984
499.114
500.396
500.839
500.43
500.006
499.296
497.153
493.595
488.652
482.361
474.783
465.994
456.104
445.255
433.639
421.497
409.125
396.859
385.051
374.016
363.967
354.945
346.776
339.067
331.262
322.73
312.858
301.126
287.145
270.666
251.565
229.813
205.455
178.582
149.312
117.775
100
100
100
100
108.495
151.277
195.474
241.011
287.816
335.825
384.971
435.192
486.418
538.576
591.585
645.355
699.779
754.736
810.085
865.655
921.247
976.619
1031.48
1085.46
1137.99
1188.42
1236.65
1281.41
2994.01
17054
1313.74
1263.81
1208.62
1148.92
1085.41
1018.8
949.792
879.182
807.871
736.777
666.842
599.769
537.889
483.665
439.432
406.876
386.43
376.975
376.075
380.889
389.129
399.129
409.794
420.484
430.843
440.677
449.878
458.382
466.152
473.16
479.387
484.815
489.433
493.224
496.178
498.291
499.567
500
500.006
499.296
497.15
493.592
488.647
482.356
474.776
465.986
456.095
445.245
433.628
421.485
409.111
396.844
385.035
373.999
363.949
354.926
346.756
339.046
331.241
322.708
312.836
301.103
287.122
270.644
251.542
229.79
205.433
178.561
149.291
117.754
100
100
100
100
108.489
151.272
195.47
241.007
287.813
335.822
384.969
435.19
486.416
538.574
591.584
645.353
699.778
754.735
810.083
865.654
921.246
976.618
1031.48
1085.46
1137.99
1188.42
1236.65
1281.41
2996.38
17051.7
1313.74
1263.81
1208.62
1148.92
1085.42
1018.8
949.799
879.19
807.88
736.787
666.853
599.781
537.901
483.677
439.445
406.89
386.443
376.989
376.088
380.902
389.141
399.141
409.805
420.494
430.852
440.686
449.886
458.39
466.159
473.166
479.392
484.82
489.436
493.227
496.181
498.293
499.57
500.002
500.738
501.475
500.766
498.633
495.098
490.195
483.979
476.526
467.943
458.371
448.001
437.075
425.892
414.793
404.137
394.249
385.349
377.488
370.494
363.977
357.375
350.048
341.372
330.814
317.974
302.591
284.531
263.76
240.318
214.293
185.801
154.975
121.949
100
100
105.268
146.849
189.878
234.278
279.979
326.915
375.026
424.251
474.529
525.795
577.978
630.998
684.766
739.176
794.107
849.416
904.933
960.453
1015.73
1070.47
1124.31
1176.65
1226.83
1274.73
1319.07
2611.93
17312.4
1351
1300.29
1244.17
1183.42
1118.74
1050.85
980.47
908.404
835.567
762.901
691.365
622.682
559.213
503.464
457.817
424.001
402.473
392.127
390.333
394.356
401.954
411.362
421.436
431.519
441.25
450.431
458.954
466.758
473.806
480.071
485.536
490.187
494.011
496.991
499.119
500.4
500.844
500.435
501.469
503.655
504.384
503.679
501.556
498.046
493.198
487.088
479.82
471.533
462.417
452.715
442.729
432.806
423.31
414.574
406.83
400.135
394.325
389.008
383.621
377.512
370.049
360.685
349.008
334.746
317.756
297.998
275.505
250.364
222.69
192.616
160.28
125.82
114.94
142.578
184.389
227.597
272.129
317.923
364.917
413.056
462.283
512.543
563.772
615.905
668.863
722.559
776.889
831.733
886.946
942.361
997.772
1052.93
1107.55
1161.24
1213.43
1263.41
1311.06
1355.04
2031.63
17774.8
1387.54
1336.29
1279.47
1217.86
1152.2
1083.18
1011.56
938.136
863.849
789.666
716.555
646.243
581.12
523.731
476.508
441.24
418.411
406.955
404.168
407.471
414.449
423.279
432.786
442.292
451.425
459.985
467.862
474.996
481.349
486.896
491.623
495.516
498.561
500.743
502.054
502.508
502.122
500.869
502.199
505.832
507.999
508.722
508.013
505.897
502.421
497.657
491.707
484.71
476.853
468.381
459.597
450.853
442.521
434.942
428.357
422.832
418.209
414.098
409.932
405.053
398.816
390.663
380.169
367.052
351.158
332.442
310.931
286.709
259.892
230.612
199.01
165.227
153.037
179.073
221.048
264.365
308.958
354.77
401.746
449.835
498.987
549.148
600.263
652.268
705.089
758.64
812.822
867.514
922.577
977.839
1033.1
1088.12
1142.6
1196.16
1248.26
1298.11
1345.63
1389.45
1560.94
18204.8
1423.13
1371.67
1314.44
1252.23
1185.77
1115.81
1043.08
968.427
892.778
817.138
742.481
670.525
603.678
544.526
495.558
458.632
434.318
421.59
417.823
420.399
426.736
434.982
443.929
452.873
461.431
469.395
476.651
483.139
488.82
493.671
497.677
500.826
503.105
504.498
504.998
504.626
503.408
501.307
502.928
508.006
511.609
513.759
514.464
513.743
511.64
508.225
503.596
497.892
491.298
484.06
476.482
468.92
461.754
455.333
449.908
445.555
442.12
439.219
436.279
432.638
427.638
420.709
411.416
399.463
384.69
367.041
346.541
323.271
297.346
268.899
238.073
205.013
190.936
214.715
256.783
300.135
344.714
390.465
437.341
485.297
534.289
584.269
635.185
686.978
739.579
792.906
846.864
901.336
956.185
1011.24
1066.32
1121.16
1175.5
1228.95
1281.04
1330.89
1378.47
1422.48
1461.73
18464.5
1457.26
1406.12
1348.91
1286.43
1219.46
1148.76
1075.11
999.346
922.432
845.396
769.225
695.607
626.968
565.933
515.055
476.292
450.33
436.188
431.386
433.144
438.811
446.473
454.875
463.282
471.291
478.686
485.348
491.213
496.245
500.419
503.721
506.139
507.662
508.271
507.961
506.763
504.709
501.75
503.655
510.175
515.211
518.787
520.905
521.579
520.849
518.783
515.478
511.068
505.739
499.737
493.367
486.989
480.99
475.728
471.462
468.278
466.032
464.34
462.629
460.23
456.474
450.781
442.701
431.929
418.295
401.736
382.272
359.982
334.981
307.402
277.392
245.099
228.584
249.475
291.561
334.87
379.35
424.955
471.644
519.378
568.118
617.822
668.445
719.934
772.223
825.238
878.885
933.055
987.614
1042.4
1097.22
1151.85
1206
1259.33
1311.43
1361.37
1409.14
1453.56
1493.61
18663.9
1490.25
1439.99
1383.16
1320.69
1253.41
1182.16
1107.73
1030.98
952.892
874.526
796.875
721.587
651.094
588.062
535.114
494.32
466.512
450.814
444.86
445.722
450.689
457.767
465.642
473.538
481.028
487.882
493.977
499.245
503.648
507.163
509.776
511.475
512.248
512.076
510.957
508.927
506.029
502.2
504.38
512.338
518.805
523.803
527.332
529.399
530.041
529.325
527.343
524.228
520.166
515.399
510.237
505.044
500.211
496.104
492.994
490.977
489.916
489.43
488.946
487.789
485.28
480.828
473.969
464.39
451.908
436.456
418.049
396.763
372.712
346.033
316.873
285.386
265.923
283.338
325.359
368.539
412.832
458.199
504.603
552.015
600.401
649.727
699.954
751.035
802.913
855.517
908.763
962.547
1016.74
1071.2
1125.73
1180.1
1234.05
1287.26
1339.3
1389.41
1437.22
1482.36
1523.54
18718.1
1521.72
1473.11
1417.06
1354.85
1287.49
1215.88
1140.84
1063.26
984.13
904.533
825.471
748.535
676.151
611.019
555.843
512.823
482.96
465.536
458.265
458.146
462.381
468.878
476.247
483.661
490.663
497.007
502.563
507.26
511.056
513.929
515.865
516.854
516.882
515.929
513.996
511.128
507.373
502.66
505.102
514.494
522.387
528.805
533.741
537.199
539.213
539.844
539.184
537.364
534.566
531.035
527.08
523.069
519.398
516.442
514.483
513.626
513.741
514.454
515.192
515.272
514.008
510.795
505.16
496.777
485.456
471.121
453.784
433.519
410.44
384.686
356.407
325.761
302.896
316.304
358.173
401.131
445.138
490.161
536.174
583.151
631.067
679.896
729.606
780.157
831.499
883.571
936.296
989.577
1043.3
1097.31
1151.46
1205.51
1259.21
1312.25
1364.23
1414.44
1462.43
1507.91
1549.54
16447.4
3220.93
1506.78
1451.14
1389.16
1321.82
1249.99
1174.5
1096.26
1016.22
935.503
855.116
776.574
702.271
634.948
577.385
531.929
499.781
480.417
471.652
470.454
473.917
479.832
486.716
493.678
500.225
506.092
511.138
515.287
518.497
520.744
522.014
522.298
521.582
519.847
517.092
513.375
508.748
503.13
505.822
516.642
525.958
533.791
540.131
544.977
548.359
550.335
550.996
550.469
548.934
546.636
543.885
541.051
538.536
536.725
535.907
536.199
537.48
539.381
541.328
542.634
542.605
540.625
536.208
529.018
518.855
505.639
489.378
470.142
448.048
423.237
395.862
366.087
339.445
348.397
390.019
432.652
476.265
520.831
566.33
612.746
660.062
708.258
757.312
807.191
857.854
909.25
961.308
1013.94
1067.05
1120.49
1174.1
1227.68
1280.98
1333.69
1385.42
1435.49
1483.39
1528.85
1570.6
13753.7
5855.49
1540.89
1485.33
1423.45
1356.17
1284.25
1208.52
1129.81
1049.08
967.41
885.837
805.779
729.576
659.995
599.898
551.79
517.106
495.561
485.111
482.716
485.355
490.677
497.093
503.633
509.758
515.178
519.742
523.366
526.007
527.64
528.251
527.833
526.372
523.846
520.259
515.676
510.159
503.613
506.539
518.783
529.515
538.76
546.5
552.73
557.477
560.797
562.776
563.539
563.265
562.196
560.644
558.981
557.615
556.938
557.25
558.677
561.108
564.179
567.318
569.834
571.023
570.258
567.043
561.032
552.016
539.91
524.717
506.509
485.402
461.541
435.084
406.199
375.512
379.67
420.943
463.142
506.241
550.223
595.075
640.788
687.354
734.762
782.998
832.038
881.853
932.396
983.611
1035.42
1087.73
1140.4
1193.3
1246.21
1298.91
1351.09
1402.36
1452.07
1499.63
1544.8
1586.37
10183.3
9419.75
1574.16
1518.75
1457.16
1390.15
1318.44
1242.74
1163.85
1082.68
1000.29
917.719
836.281
758.233
686.355
623.591
572.614
535.123
511.123
498.766
495.027
496.768
501.479
507.439
513.582
519.316
524.32
528.426
531.546
533.632
534.658
534.613
533.49
531.274
527.946
523.511
518.044
511.612
504.11
507.253
520.914
533.059
543.71
552.847
560.46
566.571
571.233
574.528
576.58
577.564
577.721
577.363
576.864
576.637
577.081
578.507
581.05
584.609
588.827
593.133
596.83
599.209
599.631
597.591
592.731
584.837
573.817
559.672
542.474
522.342
499.424
473.884
445.895
415.634
414.97
451.04
492.685
535.141
578.399
622.455
667.307
712.957
759.402
806.637
854.649
903.419
952.911
1003.08
1053.86
1105.16
1156.88
1208.87
1260.94
1312.87
1364.36
1415.02
1464.16
1511.15
1555.59
1595.9
4390.2
14283.7
1604.78
1549.98
1489.17
1422.94
1351.89
1276.68
1198.05
1116.83
1034.04
950.744
868.148
788.38
714.225
648.697
594.649
554.073
527.32
512.797
507.536
508.285
512.351
517.858
523.626
528.993
533.603
537.271
539.897
541.433
541.853
541.146
539.306
536.32
532.169
526.864
520.486
513.112
504.623
507.963
523.035
536.586
548.641
559.173
568.167
575.641
581.645
586.257
589.597
591.837
593.216
594.046
594.702
595.603
597.154
599.675
603.312
607.974
613.31
618.748
623.592
627.121
628.69
627.781
624.029
617.214
607.237
594.101
577.878
558.69
536.689
512.048
484.946
455.569
450.108
480.453
521.418
563.094
605.48
648.578
692.397
736.946
782.233
828.261
875.03
922.529
970.737
1019.62
1069.12
1119.17
1169.68
1220.51
1271.5
1322.44
1373.05
1422.98
1471.61
1518.24
1562.51
1602.86
1657.14
17423.2
1627.94
1575.83
1517.26
1452.92
1383.45
1309.51
1231.8
1151.11
1068.42
984.811
901.4
820.143
743.812
675.486
618.197
574.256
544.418
527.422
520.415
520.041
523.404
528.45
533.857
538.879
543.115
546.357
548.497
549.481
549.284
547.898
545.319
541.539
536.538
530.331
523.012
514.663
505.153
508.669
525.145
540.1
553.556
565.485
575.864
584.708
592.062
597.999
602.635
606.137
608.741
610.757
612.562
614.578
617.216
620.806
625.505
631.232
637.64
644.162
650.097
654.719
657.373
657.531
654.822
649.018
640.021
627.831
612.523
594.224
573.094
549.31
523.064
494.549
484.561
509.407
549.563
590.317
631.674
673.645
716.247
759.499
803.417
848.017
893.306
939.287
985.948
1033.27
1081.21
1129.72
1178.71
1228.08
1277.69
1327.34
1376.8
1425.76
1473.79
1520.07
1564.65
1606.4
1644.27
18457.8
1643.16
1595.81
1540.81
1479.4
1412.41
1340.56
1264.53
1185.07
1103.11
1019.71
935.945
853.567
775.281
704.219
643.588
596.041
562.793
543.001
533.998
532.348
534.936
539.496
544.537
549.214
553.072
555.875
557.506
557.908
557.06
554.955
551.596
546.977
541.082
533.932
525.631
516.268
505.701
509.368
527.237
543.589
558.447
571.774
583.545
593.767
602.479
609.75
615.687
620.455
624.284
627.483
630.43
633.548
637.257
641.894
647.628
654.384
661.824
669.379
676.346
681.992
685.653
686.795
685.039
680.154
672.042
660.704
646.221
628.725
608.384
585.388
559.935
532.229
518.291
538.202
577.424
617.114
657.286
697.96
739.16
780.914
823.248
866.186
909.748
953.945
998.779
1044.24
1090.31
1136.94
1184.07
1231.63
1279.48
1327.48
1375.44
1423.09
1470.09
1515.8
1559.91
1602.12
1641.44
14497.6
4710.26
1612.89
1560.99
1502.64
1438.59
1369.43
1295.78
1218.29
1137.78
1055.25
971.738
888.755
808.877
735.256
671.257
619.879
582.856
559.86
548.513
545.353
547.041
551.06
555.724
560.057
563.537
565.893
566.995
566.785
565.242
562.369
558.174
552.66
545.816
537.671
528.342
517.924
506.264
510.061
529.316
547.068
563.338
578.086
591.278
602.916
613.029
621.679
628.963
635.037
640.125
644.529
648.624
652.836
657.589
663.228
669.932
677.638
686.015
694.498
702.382
708.929
713.469
715.462
714.525
710.425
703.064
692.449
678.665
661.854
642.192
619.881
595.129
568.153
551.28
567.286
605.452
643.944
682.783
721.995
761.616
801.681
842.224
883.279
924.875
967.033
1009.77
1053.08
1096.95
1141.37
1186.29
1231.64
1277.34
1323.25
1369.23
1415.04
1460.4
1504.72
1547.61
1588.71
1626.96
7990.9
10609.9
1625.66
1576.24
1521.07
1460.44
1394.72
1324.3
1249.7
1171.56
1090.77
1008.31
925.445
844.554
768.763
701.568
646.315
605.295
578.794
564.829
559.97
560.648
564.057
568.278
572.191
575.196
576.994
577.443
576.49
574.123
570.354
565.206
558.687
550.798
541.577
531.154
519.63
506.841
510.738
531.351
550.485
568.163
584.337
598.965
612.035
623.568
633.612
642.255
649.641
655.987
661.591
666.828
672.125
677.911
684.539
692.196
700.825
710.1
719.455
728.18
735.532
740.835
743.545
743.278
739.802
733.025
722.961
709.707
693.414
674.273
652.496
628.307
601.934
583.539
597.118
634.131
671.314
708.697
746.315
784.21
822.427
861.008
899.994
939.421
979.319
1019.71
1060.6
1101.99
1143.86
1186.2
1228.94
1272.02
1315.35
1358.78
1402.13
1445.16
1487.35
1528.23
1567.48
1603.61
1982.23
16145.8
1628.19
1582.93
1532.2
1476.14
1414.97
1348.93
1278.36
1203.73
1125.77
1045.38
963.618
882.521
805.132
735.02
675.845
630.488
599.96
582.839
575.853
575.247
577.9
581.618
585.091
587.616
588.838
588.601
586.848
583.58
578.825
572.624
565.003
555.978
545.604
534.027
521.359
507.423
511.405
533.378
553.932
573.083
590.779
606.966
621.619
634.741
646.361
656.546
665.42
673.18
680.107
686.56
692.961
699.738
707.255
715.711
725.064
734.997
744.952
754.223
762.069
767.82
770.936
771.039
767.904
761.446
751.689
738.737
722.756
703.945
682.53
658.745
632.83
615.081
628.497
664.265
700.043
735.868
771.786
807.848
844.106
880.608
917.402
954.529
992.021
1029.9
1068.19
1106.88
1145.97
1185.43
1225.22
1265.29
1305.55
1345.9
1386.19
1426.23
1465.73
1504.18
1541.54
1576.86
1609.16
17821.1
1615.71
1577.35
1532.93
1482.99
1427.77
1367.42
1302.17
1232.35
1158.51
1081.45
1002.06
922.008
844.132
771.998
709.509
660.108
625.596
605.24
596.039
594.07
595.86
598.893
601.65
603.332
603.565
602.204
599.221
594.645
588.533
580.952
571.95
561.561
549.858
537.003
523.113
508.004
512.022
535.238
557.111
577.668
596.842
614.558
630.77
645.451
658.604
670.271
680.561
689.66
697.851
705.501
713.03
720.832
729.259
738.516
748.572
759.122
769.619
779.367