/*--------------------------------*- C++ -*----------------------------------*\
  =========                 |
  \\      /  F ield         | OpenFOAM: The Open Source CFD Toolbox
   \\    /   O peration     | Website:  https://openfoam.org
    \\  /    A nd           | Version:  8
     \\/     M anipulation  |
\*---------------------------------------------------------------------------*/
FoamFile
{
    version     2.0;
    format      ascii;
    class       volScalarField;
    location    "280/fluid";
    object      rho;
}
// * * * * * * * * * * * * * * * * * * * * * * * * * * * * * * * * * * * * * //

dimensions      [1 -3 0 0 0 0 0];

internalField   nonuniform List<scalar> 
4000
(
0.658527
0.658504
0.658465
0.6584
0.658292
0.658114
0.657822
0.657347
0.656583
0.65537
0.653473
0.650563
0.6462
0.639833
0.630848
0.618655
0.602836
0.583315
0.560462
0.535085
0.50827
0.48115
0.454704
0.429636
0.406359
0.385045
0.365693
0.348194
0.332391
0.318102
0.305149
0.293369
0.282615
0.272762
0.263703
0.255351
0.247619
0.240408
0.233662
0.227334
0.221382
0.215773
0.210477
0.20547
0.200729
0.196238
0.19198
0.187945
0.184122
0.180501
0.177078
0.173847
0.170807
0.167956
0.165297
0.162835
0.160579
0.158543
0.156748
0.155255
0.154073
0.153239
0.152876
0.153123
0.156864
0.166318
0.177483
0.190626
0.206099
0.224367
0.246039
0.271912
0.303021
0.340708
0.386731
0.443458
0.513428
0.598564
0.69882
0.809772
0.920838
1.01763
1.08943
1.13497
1.16017
1.17285
1.17888
1.18165
1.18288
1.18342
1.18365
1.18375
1.18379
1.18381
1.18382
1.18382
1.18382
1.18382
1.18382
1.18382
0.658527
0.658503
0.658464
0.658398
0.658288
0.658105
0.657806
0.657319
0.656535
0.655291
0.65335
0.650378
0.645935
0.639477
0.630397
0.618125
0.602263
0.582747
0.559953
0.534674
0.507974
0.480966
0.454611
0.429605
0.406364
0.385062
0.365708
0.348199
0.332378
0.318069
0.305096
0.293296
0.282523
0.272653
0.263579
0.255213
0.247469
0.240248
0.233493
0.227156
0.221198
0.215583
0.210282
0.205271
0.200527
0.196034
0.191775
0.187739
0.183916
0.180296
0.176875
0.173646
0.170609
0.167762
0.165108
0.162652
0.160402
0.158372
0.156582
0.155091
0.153906
0.15306
0.152663
0.152836
0.15803
0.167688
0.179128
0.192628
0.208565
0.227433
0.249888
0.276787
0.309253
0.348737
0.397167
0.457075
0.530979
0.620507
0.724676
0.837368
0.946338
1.03733
1.10205
1.14182
1.16346
1.17432
1.17951
1.1819
1.18298
1.18346
1.18367
1.18376
1.18379
1.18381
1.18382
1.18382
1.18382
1.18382
1.18382
1.18382
0.658527
0.658503
0.658462
0.658394
0.658282
0.658094
0.657787
0.657287
0.656483
0.65521
0.653225
0.650194
0.645674
0.639123
0.629942
0.61757
0.601626
0.582062
0.559263
0.534023
0.507394
0.480474
0.454206
0.429278
0.406097
0.384839
0.365511
0.348014
0.332196
0.317884
0.304902
0.293091
0.282306
0.272422
0.263336
0.254958
0.2472
0.239967
0.233201
0.226854
0.220886
0.215263
0.209955
0.204937
0.200188
0.195691
0.191429
0.187392
0.183568
0.179949
0.17653
0.173306
0.170275
0.167436
0.164792
0.16235
0.160117
0.158108
0.156344
0.154892
0.153712
0.152892
0.152507
0.152674
0.159907
0.169905
0.181796
0.195868
0.21252
0.232288
0.255877
0.284213
0.318504
0.360299
0.411681
0.475209
0.553155
0.646504
0.753016
0.864999
0.969522
1.05371
1.11189
1.14699
1.16595
1.17546
1.18001
1.18212
1.18307
1.1835
1.18368
1.18376
1.1838
1.18381
1.18382
1.18382
1.18382
1.18382
1.18382
1.18382
0.658526
0.658502
0.658461
0.658392
0.658277
0.658086
0.657773
0.657263
0.656446
0.655152
0.653138
0.650068
0.645496
0.638881
0.629625
0.617175
0.601158
0.581537
0.558704
0.533455
0.506841
0.479951
0.453722
0.428833
0.405688
0.384459
0.365153
0.347672
0.331863
0.317555
0.304574
0.29276
0.281969
0.272079
0.262985
0.254599
0.246832
0.239589
0.232813
0.226456
0.22048
0.214848
0.209533
0.204509
0.199754
0.195253
0.190988
0.186949
0.183125
0.179508
0.176093
0.172875
0.169852
0.167025
0.164397
0.161975
0.15977
0.157798
0.15609
0.154699
0.153605
0.152905
0.152672
0.153006
0.161887
0.172474
0.185008
0.199818
0.217348
0.238181
0.263083
0.293051
0.329374
0.373705
0.428274
0.495592
0.577618
0.674602
0.782984
0.893595
0.993118
1.0703
1.12193
1.15237
1.1686
1.17669
1.18056
1.18236
1.18318
1.18354
1.1837
1.18377
1.1838
1.18381
1.18382
1.18382
1.18382
1.18382
1.18382
1.18382
0.658526
0.658501
0.65846
0.658389
0.658272
0.658078
0.65776
0.657243
0.656413
0.6551
0.653059
0.649949
0.645325
0.638642
0.629307
0.616769
0.600664
0.580968
0.55808
0.532803
0.506187
0.479313
0.453114
0.428259
0.405148
0.38395
0.36467
0.34721
0.331416
0.317119
0.304144
0.292333
0.281543
0.271652
0.262555
0.254165
0.246393
0.239142
0.232358
0.225994
0.22001
0.214372
0.209051
0.204021
0.199262
0.194757
0.19049
0.186451
0.182628
0.179014
0.175603
0.172392
0.169379
0.166566
0.163956
0.161558
0.159385
0.157457
0.155828
0.154537
0.153597
0.153154
0.153385
0.15476
0.164224
0.175423
0.188636
0.204234
0.222701
0.244669
0.270963
0.302649
0.341095
0.38807
0.445908
0.516989
0.602873
0.702941
0.812261
0.920437
1.01432
1.08463
1.13035
1.15681
1.17077
1.17771
1.18102
1.18257
1.18327
1.18358
1.18372
1.18378
1.1838
1.18381
1.18382
1.18382
1.18382
1.18382
1.18382
1.18382
0.658526
0.658501
0.658459
0.658387
0.658269
0.658072
0.65775
0.657226
0.656386
0.655057
0.652993
0.64985
0.64518
0.638438
0.629029
0.616405
0.600211
0.580429
0.55747
0.532143
0.505501
0.478624
0.452436
0.427605
0.404522
0.383353
0.364099
0.346662
0.330888
0.316605
0.303642
0.291839
0.281054
0.271166
0.26207
0.253681
0.245905
0.238651
0.231862
0.225493
0.219504
0.213861
0.208535
0.203501
0.19874
0.194232
0.189965
0.185926
0.182105
0.178496
0.175091
0.171889
0.168888
0.166088
0.163495
0.161117
0.158967
0.157064
0.155471
0.15421
0.153297
0.152867
0.153056
0.157209
0.167055
0.178751
0.192583
0.20894
0.228335
0.251444
0.279142
0.312563
0.353148
0.402793
0.463887
0.538608
0.628061
0.730686
0.840224
0.945335
1.03345
1.09727
1.1377
1.16069
1.17267
1.1786
1.18143
1.18275
1.18335
1.18361
1.18373
1.18378
1.18381
1.18381
1.18382
1.18382
1.18382
1.18382
1.18382
1.18382
0.658526
0.658501
0.658458
0.658386
0.658265
0.658067
0.65774
0.657211
0.656361
0.655018
0.652932
0.649758
0.645044
0.638242
0.628759
0.616048
0.59976
0.579886
0.556848
0.531461
0.504783
0.477894
0.451712
0.426899
0.403841
0.3827
0.363474
0.346061
0.330309
0.316044
0.303096
0.291304
0.280528
0.270646
0.261555
0.25317
0.245394
0.238137
0.231346
0.224975
0.218983
0.213337
0.208008
0.202972
0.198209
0.193702
0.189436
0.185399
0.181583
0.177979
0.174583
0.171391
0.168403
0.165621
0.163048
0.160693
0.158571
0.156699
0.155143
0.153902
0.152994
0.152537
0.152649
0.15972
0.16994
0.182125
0.196569
0.213678
0.233995
0.258235
0.287326
0.322464
0.365164
0.417452
0.481702
0.559865
0.652518
0.757111
0.86615
0.967683
1.05005
1.10795
1.14379
1.16386
1.17422
1.17933
1.18177
1.1829
1.18341
1.18364
1.18374
1.18379
1.18381
1.18382
1.18382
1.18382
1.18382
1.18382
1.18382
1.18382
0.658526
0.6585
0.658457
0.658384
0.658263
0.658062
0.657732
0.657197
0.656339
0.654982
0.652876
0.649672
0.644917
0.638059
0.628503
0.615706
0.599323
0.579353
0.556229
0.530776
0.504055
0.477146
0.450965
0.426167
0.403132
0.382018
0.36282
0.345434
0.329705
0.315461
0.302529
0.290751
0.279987
0.270113
0.26103
0.252649
0.244876
0.23762
0.230829
0.224456
0.218464
0.212817
0.207487
0.202451
0.197689
0.193183
0.188919
0.184886
0.181076
0.17748
0.174095
0.170916
0.167945
0.165183
0.162637
0.160315
0.158234
0.156414
0.154929
0.15373
0.152913
0.152551
0.152753
0.16175
0.172514
0.185282
0.200384
0.21826
0.239494
0.264846
0.295298
0.332107
0.376869
0.431717
0.498965
0.580306
0.675745
0.781741
0.889714
0.987414
1.06431
1.11694
1.14885
1.16648
1.1755
1.17993
1.18204
1.18302
1.18347
1.18367
1.18375
1.18379
1.18381
1.18382
1.18382
1.18382
1.18382
1.18382
1.18382
1.18382
0.658526
0.6585
0.658456
0.658383
0.65826
0.658057
0.657724
0.657184
0.656318
0.654949
0.652824
0.649592
0.644796
0.637883
0.628257
0.615374
0.598896
0.57883
0.555618
0.530096
0.503329
0.476398
0.450216
0.42543
0.402418
0.381331
0.36216
0.344801
0.329097
0.314874
0.301961
0.290199
0.279447
0.269584
0.26051
0.252137
0.244367
0.237113
0.230324
0.223953
0.21796
0.212314
0.206986
0.201951
0.19719
0.192687
0.188428
0.1844
0.180597
0.17701
0.173636
0.170472
0.167519
0.16478
0.162262
0.159978
0.157946
0.15621
0.154822
0.153771
0.153194
0.153227
0.154111
0.163653
0.174954
0.18829
0.204027
0.222642
0.244756
0.271171
0.302924
0.341328
0.388066
0.445349
0.515393
0.599612
0.697411
0.804291
0.910764
1.00456
1.07638
1.12439
1.153
1.1686
1.17654
1.18042
1.18226
1.18312
1.18351
1.18369
1.18376
1.1838
1.18381
1.18382
1.18382
1.18382
1.18382
1.18382
1.18382
1.18382
0.658526
0.6585
0.658455
0.658381
0.658258
0.658053
0.657717
0.657172
0.656298
0.654918
0.652775
0.649516
0.644682
0.637716
0.628022
0.615056
0.598484
0.578324
0.555025
0.529434
0.50262
0.475666
0.44948
0.424707
0.401716
0.380655
0.361512
0.34418
0.328501
0.314301
0.301407
0.289661
0.278923
0.269072
0.260008
0.251644
0.243879
0.236629
0.229842
0.223474
0.217484
0.211839
0.206513
0.201481
0.196724
0.192224
0.187969
0.183948
0.180152
0.176575
0.173212
0.170061
0.167124
0.164404
0.161909
0.159653
0.157655
0.155974
0.154645
0.15367
0.153198
0.15339
0.155893
0.165758
0.177449
0.191249
0.207539
0.226819
0.249741
0.277144
0.310111
0.350006
0.398605
0.458161
0.530765
0.61754
0.717286
0.82461
0.929299
1.01928
1.08652
1.13054
1.15638
1.17032
1.17737
1.18081
1.18245
1.1832
1.18355
1.1837
1.18377
1.1838
1.18381
1.18382
1.18382
1.18382
1.18382
1.18382
1.18382
1.18382
0.658526
0.658499
0.658455
0.65838
0.658255
0.658049
0.657711
0.657161
0.65628
0.654889
0.652729
0.649445
0.644574
0.637559
0.627798
0.614753
0.598092
0.57784
0.554458
0.5288
0.501941
0.474964
0.448775
0.424012
0.401042
0.380007
0.360892
0.343586
0.327932
0.313753
0.300879
0.28915
0.278426
0.268588
0.259535
0.25118
0.24342
0.236175
0.229393
0.223028
0.217041
0.2114
0.206077
0.201048
0.196295
0.1918
0.187551
0.183536
0.179748
0.17618
0.172827
0.169689
0.166765
0.16406
0.161581
0.15934
0.157358
0.155686
0.154357
0.153362
0.152824
0.152852
0.157737
0.167854
0.179866
0.194064
0.210843
0.230722
0.254379
0.282689
0.316773
0.358045
0.408367
0.470006
0.544921
0.633933
0.735248
0.842664
0.945421
1.0318
1.09497
1.13559
1.15913
1.17171
1.17805
1.18113
1.18259
1.18327
1.18358
1.18371
1.18378
1.1838
1.18381
1.18382
1.18382
1.18382
1.18382
1.18382
1.18382
1.18382
0.658526
0.658499
0.658454
0.658379
0.658253
0.658046
0.657705
0.657151
0.656264
0.654862
0.652686
0.649378
0.644473
0.637411
0.62759
0.61447
0.597725
0.577386
0.553926
0.528204
0.501302
0.474303
0.448111
0.42336
0.40041
0.379399
0.36031
0.34303
0.327399
0.313243
0.300387
0.288675
0.277965
0.26814
0.259097
0.250752
0.242999
0.235759
0.228981
0.22262
0.216637
0.211
0.205681
0.200657
0.195908
0.191419
0.187176
0.183169
0.179389
0.17583
0.172488
0.169362
0.166451
0.16376
0.161297
0.159073
0.157107
0.155456
0.154144
0.153163
0.15264
0.1527
0.159383
0.169747
0.182059
0.196624
0.213849
0.234274
0.258601
0.287737
0.322841
0.365371
0.417266
0.480787
0.557756
0.648696
0.751247
0.858496
0.959289
1.04235
1.10197
1.13973
1.16136
1.17284
1.17859
1.18139
1.18271
1.18332
1.1836
1.18372
1.18378
1.1838
1.18381
1.18382
1.18382
1.18382
1.18382
1.18382
1.18382
1.18382
0.658526
0.658499
0.658454
0.658378
0.658252
0.658042
0.657699
0.657142
0.656249
0.654837
0.652647
0.649317
0.644381
0.637276
0.627398
0.614209
0.597386
0.576968
0.553435
0.527654
0.500714
0.473695
0.447501
0.42276
0.399828
0.378841
0.359776
0.34252
0.326912
0.312776
0.299939
0.288242
0.277547
0.267733
0.258701
0.250366
0.242619
0.235385
0.228612
0.222256
0.216277
0.210644
0.20533
0.20031
0.195567
0.191084
0.186847
0.182848
0.179077
0.175528
0.172198
0.169084
0.166188
0.163513
0.161067
0.158864
0.15692
0.155295
0.154003
0.153044
0.152547
0.15265
0.160736
0.17135
0.183954
0.198864
0.216503
0.237427
0.262362
0.292245
0.328268
0.371934
0.425246
0.490442
0.569214
0.661793
0.765298
0.872204
0.97109
1.05118
1.10774
1.1431
1.16317
1.17375
1.17903
1.1816
1.1828
1.18336
1.18362
1.18373
1.18378
1.18381
1.18381
1.18382
1.18382
1.18382
1.18382
1.18382
1.18382
1.18382
0.658526
0.658499
0.658453
0.658377
0.65825
0.658039
0.657694
0.657134
0.656235
0.654815
0.652612
0.649263
0.644298
0.637154
0.627225
0.613974
0.597081
0.576591
0.552993
0.52716
0.500184
0.473148
0.446952
0.422221
0.399307
0.37834
0.359298
0.342064
0.326477
0.31236
0.299539
0.287857
0.277175
0.267372
0.258351
0.250024
0.242284
0.235055
0.228288
0.221936
0.215963
0.210334
0.205025
0.20001
0.195273
0.190796
0.186567
0.182575
0.178814
0.175276
0.171958
0.168858
0.165979
0.163323
0.160899
0.158718
0.156798
0.155204
0.153937
0.153003
0.15252
0.15261
0.161734
0.172627
0.185529
0.20077
0.218791
0.240168
0.26565
0.296199
0.333039
0.377715
0.43228
0.498945
0.579272
0.673225
0.777452
0.883912
0.98102
1.0585
1.11246
1.14583
1.16463
1.17448
1.17939
1.18176
1.18288
1.1834
1.18363
1.18374
1.18379
1.18381
1.18382
1.18382
1.18382
1.18382
1.18382
1.18382
1.18382
1.18382
0.658526
0.658499
0.658453
0.658376
0.658248
0.658037
0.65769
0.657127
0.656223
0.654796
0.652581
0.649215
0.644226
0.637047
0.627073
0.613767
0.596813
0.576261
0.552605
0.526727
0.49972
0.47267
0.446472
0.42175
0.398851
0.377903
0.358881
0.341667
0.326099
0.311998
0.299192
0.287524
0.276853
0.267061
0.258049
0.249731
0.241996
0.234773
0.228011
0.221664
0.215695
0.210071
0.204767
0.199757
0.195026
0.190555
0.186333
0.182351
0.178599
0.175072
0.171767
0.168683
0.165822
0.163188
0.160789
0.15864
0.15676
0.155232
0.153992
0.153148
0.152789
0.153064
0.162486
0.173657
0.186839
0.202382
0.220744
0.242521
0.26848
0.29961
0.337159
0.382713
0.438365
0.506289
0.587936
0.68302
0.787782
0.893752
0.989257
1.06449
1.11629
1.14803
1.1658
1.17506
1.17967
1.18189
1.18294
1.18343
1.18365
1.18375
1.18379
1.18381
1.18382
1.18382
1.18382
1.18382
1.18382
1.18382
1.18382
1.18382
0.658526
0.658498
0.658452
0.658375
0.658247
0.658035
0.657686
0.65712
0.656213
0.65478
0.652555
0.649174
0.644164
0.636956
0.626944
0.613592
0.596586
0.575981
0.552276
0.526359
0.499327
0.472265
0.446067
0.421352
0.398466
0.377535
0.35853
0.341333
0.32578
0.311694
0.298901
0.287244
0.276584
0.266801
0.257798
0.249486
0.241757
0.23454
0.227782
0.22144
0.215475
0.209856
0.204556
0.199552
0.194825
0.190361
0.186147
0.182172
0.178429
0.174914
0.171622
0.168553
0.16571
0.163097
0.160724
0.158607
0.156774
0.155297
0.154121
0.153369
0.153135
0.153585
0.163201
0.174574
0.187974
0.203761
0.222404
0.244513
0.270872
0.302489
0.340635
0.38693
0.443495
0.51247
0.595208
0.691204
0.796351
0.901838
0.995952
1.06931
1.11934
1.14977
1.16672
1.17552
1.17989
1.182
1.18299
1.18345
1.18366
1.18375
1.18379
1.18381
1.18382
1.18382
1.18382
1.18382
1.18382
1.18382
1.18382
1.18382
0.658526
0.658498
0.658452
0.658375
0.658246
0.658033
0.657683
0.657115
0.656205
0.654766
0.652534
0.649141
0.644114
0.636883
0.62684
0.613451
0.596402
0.575754
0.552011
0.526063
0.49901
0.471938
0.445739
0.421031
0.398156
0.377238
0.358247
0.341064
0.325524
0.31145
0.298668
0.28702
0.276368
0.266594
0.257597
0.249292
0.241568
0.234355
0.227601
0.221263
0.215302
0.209687
0.204391
0.199392
0.194671
0.190212
0.186004
0.182037
0.178303
0.174797
0.171517
0.168462
0.165634
0.163039
0.160689
0.158599
0.156806
0.155368
0.154246
0.153563
0.153425
0.154072
0.163832
0.175358
0.188927
0.204906
0.223772
0.246146
0.272827
0.304836
0.343463
0.390356
0.447659
0.51748
0.601084
0.697791
0.803207
0.908256
1.00122
1.07307
1.12171
1.15112
1.16743
1.17587
1.18006
1.18208
1.18303
1.18346
1.18366
1.18375
1.18379
1.18381
1.18382
1.18382
1.18382
1.18382
1.18382
1.18382
1.18382
1.18382
0.658526
0.658498
0.658452
0.658375
0.658245
0.658032
0.657681
0.657112
0.656199
0.654756
0.652518
0.649117
0.644077
0.636828
0.626762
0.613344
0.596264
0.575583
0.55181
0.525839
0.498771
0.471691
0.445492
0.420788
0.397922
0.377014
0.358034
0.340861
0.325332
0.311266
0.298493
0.286853
0.276207
0.266439
0.257449
0.249148
0.241428
0.234219
0.227469
0.221134
0.215176
0.209565
0.204272
0.199277
0.19456
0.190106
0.185904
0.181943
0.178216
0.174718
0.171448
0.168403
0.165587
0.163007
0.160672
0.1586
0.156831
0.155416
0.154318
0.153662
0.15355
0.154469
0.16434
0.175982
0.189678
0.205799
0.224833
0.247407
0.274329
0.306634
0.345624
0.392972
0.450833
0.521292
0.605547
0.702775
0.80837
0.913062
1.00514
1.07585
1.12345
1.15211
1.16795
1.17613
1.18019
1.18214
1.18305
1.18348
1.18367
1.18375
1.18379
1.18381
1.18382
1.18382
1.18382
1.18382
1.18382
1.18382
1.18382
1.18382
0.658526
0.658498
0.658452
0.658374
0.658245
0.658031
0.65768
0.657109
0.656195
0.65475
0.652507
0.6491
0.644052
0.636791
0.62671
0.613273
0.596172
0.57547
0.551677
0.52569
0.498612
0.471527
0.445327
0.420627
0.397766
0.376865
0.357892
0.340726
0.325203
0.311144
0.298376
0.286741
0.276101
0.266337
0.257351
0.249054
0.241337
0.23413
0.227383
0.22105
0.215095
0.209486
0.204197
0.199204
0.19449
0.19004
0.185842
0.181886
0.178165
0.174673
0.171409
0.168372
0.165564
0.162993
0.160669
0.158606
0.156849
0.155441
0.154348
0.153688
0.153561
0.154753
0.164701
0.176422
0.190204
0.206422
0.225568
0.248275
0.275359
0.307863
0.347098
0.394752
0.452988
0.523874
0.608561
0.706131
0.811831
0.916266
1.00774
1.0777
1.12461
1.15276
1.1683
1.17631
1.18027
1.18217
1.18307
1.18348
1.18367
1.18376
1.18379
1.18381
1.18382
1.18382
1.18382
1.18382
1.18382
1.18382
1.18382
1.18382
0.658526
0.658498
0.658452
0.658374
0.658245
0.658031
0.657679
0.657108
0.656193
0.654747
0.652502
0.649092
0.64404
0.636773
0.626685
0.613239
0.596128
0.575415
0.551613
0.525619
0.498535
0.471448
0.445248
0.420549
0.39769
0.376792
0.357822
0.34066
0.32514
0.311084
0.298319
0.286687
0.276049
0.266287
0.257303
0.249008
0.241293
0.234088
0.227342
0.22101
0.215057
0.209449
0.204161
0.19917
0.194459
0.190011
0.185815
0.181861
0.178143
0.174655
0.171395
0.168362
0.16556
0.162994
0.160674
0.158617
0.156864
0.155458
0.154362
0.153692
0.153541
0.154898
0.164892
0.176656
0.190481
0.206748
0.225949
0.248723
0.275887
0.308488
0.347843
0.395646
0.454064
0.525155
0.610048
0.707774
0.813513
0.91781
1.00899
1.07857
1.12515
1.15308
1.16846
1.17639
1.18031
1.18219
1.18308
1.18349
1.18367
1.18376
1.18379
1.18381
1.18382
1.18382
1.18382
1.18382
1.18382
1.18382
1.18382
1.18382
0.658526
0.658498
0.658452
0.658374
0.658245
0.658031
0.657679
0.657108
0.656193
0.654746
0.652502
0.649092
0.644039
0.636773
0.626684
0.613239
0.596127
0.575414
0.551612
0.525617
0.498534
0.471446
0.445247
0.420548
0.397689
0.376791
0.357822
0.340659
0.32514
0.311084
0.298319
0.286686
0.276048
0.266286
0.257302
0.249008
0.241292
0.234087
0.227341
0.22101
0.215057
0.209449
0.204161
0.19917
0.194458
0.19001
0.185815
0.181861
0.178143
0.174655
0.171395
0.168362
0.16556
0.162994
0.160674
0.158617
0.156864
0.155458
0.154362
0.153692
0.153541
0.154899
0.164893
0.176657
0.190483
0.206749
0.225951
0.248724
0.275889
0.30849
0.347846
0.39565
0.454068
0.52516
0.610054
0.707781
0.81352
0.917818
1.00899
1.07857
1.12515
1.15308
1.16846
1.17639
1.18031
1.18219
1.18308
1.18349
1.18367
1.18376
1.18379
1.18381
1.18382
1.18382
1.18382
1.18382
1.18382
1.18382
1.18382
1.18382
0.658526
0.658498
0.658452
0.658374
0.658245
0.658031
0.65768
0.657109
0.656194
0.654749
0.652507
0.6491
0.644051
0.63679
0.626708
0.613271
0.596169
0.575466
0.551673
0.525686
0.498607
0.471523
0.445323
0.420623
0.397763
0.376862
0.357889
0.340724
0.325201
0.311142
0.298374
0.28674
0.276099
0.266335
0.257349
0.249053
0.241335
0.234129
0.227381
0.221049
0.215094
0.209485
0.204196
0.199203
0.19449
0.19004
0.185841
0.181885
0.178164
0.174673
0.171409
0.168372
0.165564
0.162993
0.160669
0.158607
0.156849
0.155441
0.154347
0.153688
0.153561
0.154756
0.164704
0.176425
0.190207
0.206425
0.225572
0.24828
0.275365
0.30787
0.347106
0.394762
0.453001
0.52389
0.60858
0.706152
0.811854
0.916288
1.00776
1.07771
1.12461
1.15277
1.1683
1.17631
1.18027
1.18217
1.18307
1.18348
1.18367
1.18376
1.18379
1.18381
1.18382
1.18382
1.18382
1.18382
1.18382
1.18382
1.18382
1.18382
0.658526
0.658498
0.658452
0.658375
0.658245
0.658032
0.657681
0.657112
0.656198
0.654756
0.652517
0.649116
0.644075
0.636825
0.626759
0.61334
0.596258
0.575577
0.551803
0.525831
0.498763
0.471684
0.445485
0.420782
0.397916
0.377009
0.358029
0.340857
0.325328
0.311263
0.29849
0.28685
0.276205
0.266436
0.257446
0.249146
0.241426
0.234216
0.227466
0.221132
0.215174
0.209563
0.20427
0.199275
0.194558
0.190105
0.185902
0.181941
0.178215
0.174718
0.171447
0.168402
0.165587
0.163006
0.160672
0.1586
0.156831
0.155416
0.154318
0.153661
0.153551
0.154474
0.164345
0.175987
0.189683
0.205806
0.22484
0.247415
0.274339
0.306645
0.345638
0.392989
0.450854
0.521317
0.605577
0.70281
0.808408
0.913097
1.00517
1.07587
1.12346
1.15212
1.16795
1.17614
1.18019
1.18214
1.18305
1.18348
1.18367
1.18375
1.18379
1.18381
1.18382
1.18382
1.18382
1.18382
1.18382
1.18382
1.18382
1.18382
0.658526
0.658498
0.658452
0.658375
0.658246
0.658033
0.657683
0.657115
0.656204
0.654766
0.652533
0.64914
0.644112
0.63688
0.626836
0.613445
0.596395
0.575745
0.552001
0.526052
0.498999
0.471927
0.445729
0.421021
0.398147
0.37723
0.35824
0.341058
0.325518
0.311445
0.298663
0.287016
0.276364
0.26659
0.257594
0.249289
0.241565
0.234352
0.227598
0.22126
0.215299
0.209685
0.204389
0.199389
0.194668
0.19021
0.186002
0.182035
0.178301
0.174796
0.171515
0.16846
0.165633
0.163038
0.160688
0.158598
0.156805
0.155368
0.154246
0.153564
0.153427
0.154077
0.163837
0.175364
0.188934
0.204914
0.223782
0.246158
0.27284
0.304852
0.343482
0.390379
0.447688
0.517515
0.601126
0.697839
0.803258
0.908303
1.00126
1.07309
1.12172
1.15113
1.16743
1.17588
1.18006
1.18208
1.18303
1.18346
1.18366
1.18375
1.18379
1.18381
1.18382
1.18382
1.18382
1.18382
1.18382
1.18382
1.18382
1.18382
0.658526
0.658498
0.658452
0.658375
0.658247
0.658035
0.657686
0.65712
0.656213
0.654779
0.652554
0.649172
0.644161
0.636952
0.626939
0.613585
0.596577
0.57597
0.552264
0.526346
0.499314
0.472251
0.446054
0.42134
0.398455
0.377525
0.358521
0.341325
0.325773
0.311687
0.298895
0.287238
0.276578
0.266796
0.257793
0.249482
0.241753
0.234535
0.227778
0.221436
0.215471
0.209852
0.204552
0.199548
0.194822
0.190358
0.186144
0.182169
0.178427
0.174911
0.17162
0.168551
0.165708
0.163095
0.160723
0.158606
0.156773
0.155296
0.154121
0.15337
0.153138
0.153589
0.163205
0.17458
0.187982
0.203771
0.222416
0.244527
0.270889
0.302508
0.340658
0.386959
0.443531
0.512515
0.595261
0.691265
0.796415
0.901898
0.996001
1.06934
1.11936
1.14978
1.16673
1.17552
1.17989
1.182
1.18299
1.18345
1.18366
1.18375
1.18379
1.18381
1.18382
1.18382
1.18382
1.18382
1.18382
1.18382
1.18382
1.18382
0.658526
0.658499
0.658453
0.658376
0.658248
0.658037
0.65769
0.657126
0.656222
0.654795
0.652579
0.649213
0.644222
0.637042
0.627067
0.613759
0.596802
0.576248
0.55259
0.52671
0.499703
0.472653
0.446457
0.421735
0.398837
0.377891
0.35887
0.341657
0.326089
0.31199
0.299185
0.287517
0.276846
0.267055
0.258043
0.249725
0.241991
0.234768
0.228006
0.221659
0.21569
0.210067
0.204762
0.199753
0.195022
0.190551
0.18633
0.182347
0.178595
0.175069
0.171764
0.16868
0.165819
0.163185
0.160787
0.158637
0.156758
0.155231
0.153991
0.153149
0.152792
0.153068
0.162491
0.173664
0.186848
0.202393
0.220758
0.242537
0.2685
0.299633
0.337188
0.382748
0.438408
0.506343
0.588001
0.683094
0.787861
0.893826
0.989317
1.06453
1.11631
1.14804
1.1658
1.17506
1.17967
1.18189
1.18294
1.18343
1.18365
1.18375
1.18379
1.18381
1.18382
1.18382
1.18382
1.18382
1.18382
1.18382
1.18382
1.18382
0.658526
0.658499
0.658453
0.658377
0.65825
0.658039
0.657694
0.657133
0.656234
0.654814
0.65261
0.64926
0.644295
0.637148
0.627217
0.613964
0.597068
0.576576
0.552975
0.527141
0.500164
0.473129
0.446934
0.422203
0.399291
0.378325
0.359285
0.342052
0.326466
0.312349
0.29953
0.287849
0.277166
0.267365
0.258344
0.250018
0.242277
0.235049
0.228282
0.221931
0.215957
0.210329
0.205019
0.200005
0.195268
0.190791
0.186562
0.182571
0.178809
0.175272
0.171954
0.168855
0.165975
0.16332
0.160896
0.158715
0.156795
0.155203
0.153937
0.153003
0.152522
0.152612
0.161738
0.172635
0.18554
0.200784
0.218807
0.240187
0.265673
0.296227
0.333073
0.377756
0.432332
0.499008
0.579349
0.673313
0.777547
0.884002
0.981094
1.05855
1.11249
1.14585
1.16464
1.17448
1.17939
1.18176
1.18288
1.1834
1.18363
1.18374
1.18379
1.18381
1.18382
1.18382
1.18382
1.18382
1.18382
1.18382
1.18382
1.18382
0.658526
0.658499
0.658454
0.658378
0.658251
0.658042
0.657699
0.657142
0.656248
0.654836
0.652645
0.649315
0.644377
0.63727
0.627389
0.614197
0.597371
0.57695
0.553415
0.527633
0.500691
0.473673
0.447479
0.42274
0.39981
0.378824
0.35976
0.342506
0.326899
0.312764
0.299928
0.288232
0.277537
0.267724
0.258693
0.250358
0.242611
0.235377
0.228605
0.222249
0.216271
0.210638
0.205324
0.200304
0.195561
0.191078
0.186842
0.182843
0.179072
0.175523
0.172193
0.169079
0.166183
0.163509
0.161063
0.15886
0.156917
0.155291
0.154
0.153042
0.152547
0.152649
0.160746
0.171363
0.18397
0.198882
0.216523
0.23745
0.26239
0.292278
0.328308
0.371983
0.425306
0.490516
0.569304
0.661897
0.765411
0.872312
0.971181
1.05124
1.10778
1.14312
1.16318
1.17375
1.17904
1.1816
1.18281
1.18336
1.18362
1.18373
1.18378
1.18381
1.18381
1.18382
1.18382
1.18382
1.18382
1.18382
1.18382
1.18382
0.658526
0.658499
0.658454
0.658379
0.658253
0.658045
0.657704
0.657151
0.656263
0.654861
0.652684
0.649375
0.644469
0.637404
0.62758
0.614457
0.597708
0.577366
0.553903
0.528179
0.501276
0.474278
0.448087
0.423337
0.400388
0.379379
0.360292
0.343013
0.327384
0.313229
0.300375
0.288663
0.277955
0.268129
0.259088
0.250743
0.24299
0.235751
0.228973
0.222612
0.21663
0.210993
0.205674
0.20065
0.195901
0.191412
0.18717
0.183163
0.179383
0.175824
0.172483
0.169357
0.166446
0.163756
0.161292
0.159069
0.157104
0.155454
0.154143
0.153162
0.152639
0.1527
0.159395
0.169762
0.182077
0.196644
0.213873
0.234302
0.258634
0.287776
0.322888
0.365428
0.417336
0.480874
0.557862
0.648819
0.75138
0.858626
0.959398
1.04243
1.10202
1.13975
1.16138
1.17284
1.1786
1.18139
1.18271
1.18332
1.1836
1.18372
1.18378
1.1838
1.18381
1.18382
1.18382
1.18382
1.18382
1.18382
1.18382
1.18382
0.658526
0.658499
0.658455
0.65838
0.658255
0.658049
0.65771
0.657161
0.656279
0.654887
0.652726
0.649441
0.644568
0.637551
0.627787
0.614739
0.598074
0.577818
0.554433
0.528772
0.501912
0.474935
0.448747
0.423986
0.401018
0.379985
0.360872
0.343568
0.327915
0.313738
0.300865
0.289137
0.278414
0.268576
0.259524
0.25117
0.24341
0.236166
0.229384
0.223019
0.217032
0.211391
0.206069
0.20104
0.196287
0.191793
0.187544
0.18353
0.179742
0.176174
0.172822
0.169683
0.16676
0.164055
0.161577
0.159337
0.157354
0.155684
0.154355
0.15336
0.152821
0.152848
0.157753
0.167873
0.179887
0.194088
0.210871
0.230755
0.254417
0.282734
0.316828
0.358112
0.408448
0.470106
0.545042
0.634074
0.735402
0.842816
0.945552
1.03189
1.09503
1.13563
1.15915
1.17172
1.17805
1.18113
1.18259
1.18327
1.18358
1.18371
1.18378
1.1838
1.18381
1.18382
1.18382
1.18382
1.18382
1.18382
1.18382
1.18382
0.658526
0.6585
0.658455
0.658381
0.658257
0.658053
0.657717
0.657172
0.656297
0.654916
0.652772
0.649512
0.644676
0.637708
0.62801
0.61504
0.598464
0.578299
0.554997
0.529404
0.502589
0.475635
0.44945
0.424678
0.401689
0.380631
0.36149
0.34416
0.328482
0.314283
0.301391
0.289646
0.278909
0.269059
0.259995
0.251632
0.243867
0.236618
0.229832
0.223464
0.217474
0.21183
0.206504
0.201472
0.196715
0.192216
0.187962
0.183941
0.180145
0.176568
0.173205
0.170055
0.167118
0.164399
0.161904
0.159648
0.157651
0.15597
0.154641
0.153665
0.153193
0.153385
0.155917
0.165782
0.177474
0.191277
0.207571
0.226856
0.249784
0.277196
0.310173
0.350081
0.398696
0.458272
0.5309
0.617699
0.717462
0.824787
0.929455
1.0194
1.08659
1.13058
1.1564
1.17033
1.17738
1.18082
1.18245
1.1832
1.18355
1.1837
1.18377
1.1838
1.18381
1.18382
1.18382
1.18382
1.18382
1.18382
1.18382
1.18382
0.658526
0.6585
0.658456
0.658382
0.65826
0.658057
0.657724
0.657183
0.656317
0.654947
0.652821
0.649587
0.644789
0.637874
0.628244
0.615357
0.598874
0.578803
0.555588
0.530063
0.503295
0.476364
0.450182
0.425398
0.402389
0.381304
0.362135
0.344778
0.329076
0.314855
0.301943
0.290182
0.279431
0.26957
0.260496
0.252124
0.244354
0.237101
0.230312
0.223941
0.21795
0.212304
0.206976
0.201941
0.197181
0.192678
0.188419
0.184392
0.180589
0.177002
0.173629
0.170465
0.167512
0.164774
0.162256
0.159973
0.157941
0.156206
0.154819
0.15377
0.153196
0.153237
0.154132
0.163674
0.174978
0.188318
0.204059
0.22268
0.244801
0.271226
0.30299
0.341408
0.388165
0.44547
0.515541
0.599787
0.697607
0.804492
0.910945
1.0047
1.07647
1.12444
1.15302
1.16861
1.17654
1.18042
1.18227
1.18312
1.18351
1.18369
1.18376
1.1838
1.18381
1.18382
1.18382
1.18382
1.18382
1.18382
1.18382
1.18382
0.658526
0.6585
0.658457
0.658384
0.658262
0.658061
0.657732
0.657196
0.656337
0.65498
0.652873
0.649668
0.64491
0.638049
0.628489
0.615687
0.599299
0.579324
0.556196
0.53074
0.504017
0.477109
0.450929
0.426132
0.4031
0.381989
0.362793
0.345408
0.329682
0.315439
0.302509
0.290733
0.279969
0.270097
0.261014
0.252635
0.244862
0.237607
0.230816
0.224444
0.218452
0.212805
0.207476
0.202441
0.197678
0.193173
0.188909
0.184877
0.181067
0.177472
0.174087
0.170909
0.167938
0.165177
0.162631
0.16031
0.158229
0.156411
0.154928
0.15373
0.152916
0.152559
0.152763
0.161764
0.172536
0.185311
0.200418
0.218301
0.239543
0.264905
0.295369
0.332193
0.376974
0.431846
0.499124
0.580496
0.675961
0.781967
0.889924
0.98758
1.06442
1.117
1.14888
1.16649
1.17551
1.17993
1.18204
1.18302
1.18347
1.18367
1.18375
1.18379
1.18381
1.18382
1.18382
1.18382
1.18382
1.18382
1.18382
1.18382
0.658526
0.658501
0.658458
0.658385
0.658265
0.658066
0.65774
0.65721
0.65636
0.655016
0.652929
0.649753
0.645036
0.638232
0.628744
0.616028
0.599734
0.579855
0.556812
0.531423
0.504743
0.477853
0.451673
0.426862
0.403807
0.382668
0.363444
0.346034
0.330284
0.316021
0.303074
0.291284
0.280509
0.270628
0.261538
0.253154
0.245378
0.238122
0.231332
0.224961
0.218969
0.213324
0.207996
0.20296
0.198198
0.193691
0.189425
0.185389
0.181573
0.177969
0.174574
0.171383
0.168395
0.165613
0.163041
0.160687
0.158565
0.156694
0.15514
0.1539
0.152994
0.152538
0.152649
0.159739
0.169966
0.182158
0.196608
0.213723
0.234048
0.258297
0.2874
0.322554