/*--------------------------------*- C++ -*----------------------------------*\
  =========                 |
  \\      /  F ield         | OpenFOAM: The Open Source CFD Toolbox
   \\    /   O peration     | Website:  https://openfoam.org
    \\  /    A nd           | Version:  8
     \\/     M anipulation  |
\*---------------------------------------------------------------------------*/
FoamFile
{
    version     2.0;
    format      ascii;
    class       volVectorField;
    location    "280/fluid";
    object      U;
}
// * * * * * * * * * * * * * * * * * * * * * * * * * * * * * * * * * * * * * //

dimensions      [0 1 -1 0 0 0 0];

internalField   nonuniform List<vector> 
4000
(
(0.0999528 -0.0068045 0)
(0.0996956 -0.0202182 0)
(0.0992804 -0.0335005 0)
(0.0987073 -0.0467175 0)
(0.0979697 -0.0598961 0)
(0.0970524 -0.0730317 0)
(0.0959377 -0.0861125 0)
(0.0946088 -0.0991247 0)
(0.0930523 -0.112049 0)
(0.09126 -0.124862 0)
(0.0892325 -0.137538 0)
(0.0869818 -0.150056 0)
(0.0845343 -0.162404 0)
(0.081934 -0.174577 0)
(0.0792477 -0.18656 0)
(0.0765532 -0.198413 0)
(0.0739103 -0.210178 0)
(0.0713528 -0.221878 0)
(0.0688802 -0.233507 0)
(0.0664543 -0.245022 0)
(0.0640059 -0.256345 0)
(0.0614482 -0.26737 0)
(0.0586943 -0.277982 0)
(0.0556735 -0.288059 0)
(0.0523461 -0.297479 0)
(0.0486971 -0.306169 0)
(0.0447255 -0.314088 0)
(0.0404408 -0.321202 0)
(0.0358605 -0.327497 0)
(0.0310075 -0.332974 0)
(0.0259078 -0.337652 0)
(0.0205882 -0.341562 0)
(0.0150749 -0.344749 0)
(0.00939229 -0.347265 0)
(0.00356327 -0.349172 0)
(-0.00238925 -0.350534 0)
(-0.00844367 -0.35142 0)
(-0.0145828 -0.351899 0)
(-0.0207929 -0.35204 0)
(-0.0270622 -0.351911 0)
(-0.0333801 -0.351577 0)
(-0.0397373 -0.351096 0)
(-0.0461253 -0.350523 0)
(-0.0525362 -0.349908 0)
(-0.0589625 -0.349294 0)
(-0.0653968 -0.348716 0)
(-0.0718314 -0.348207 0)
(-0.078258 -0.34779 0)
(-0.0846679 -0.347484 0)
(-0.0910509 -0.347302 0)
(-0.0973959 -0.347251 0)
(-0.10369 -0.347335 0)
(-0.109918 -0.347553 0)
(-0.116064 -0.347901 0)
(-0.122107 -0.348373 0)
(-0.128026 -0.348964 0)
(-0.133794 -0.349671 0)
(-0.13938 -0.350494 0)
(-0.144737 -0.351443 0)
(-0.149817 -0.352527 0)
(-0.154603 -0.353781 0)
(-0.159123 -0.355311 0)
(-0.163266 -0.357355 0)
(-0.16603 -0.360099 0)
(-0.166316 -0.362835 0)
(-0.163369 -0.364431 0)
(-0.158154 -0.363914 0)
(-0.152412 -0.361296 0)
(-0.14638 -0.356784 0)
(-0.139977 -0.350491 0)
(-0.133204 -0.342475 0)
(-0.126113 -0.332797 0)
(-0.11878 -0.321538 0)
(-0.111282 -0.308818 0)
(-0.103703 -0.294791 0)
(-0.0961574 -0.279645 0)
(-0.0888484 -0.263622 0)
(-0.0820939 -0.247061 0)
(-0.0762936 -0.230401 0)
(-0.0718768 -0.214207 0)
(-0.069245 -0.199224 0)
(-0.0686057 -0.185842 0)
(-0.0697993 -0.173994 0)
(-0.0723476 -0.163263 0)
(-0.075662 -0.153151 0)
(-0.0792327 -0.143278 0)
(-0.0827103 -0.133413 0)
(-0.085884 -0.123426 0)
(-0.0886592 -0.113329 0)
(-0.0910269 -0.103189 0)
(-0.0930145 -0.0930473 0)
(-0.094662 -0.0829418 0)
(-0.0960117 -0.072903 0)
(-0.0971037 -0.062947 0)
(-0.0979748 -0.053071 0)
(-0.0986573 -0.0432696 0)
(-0.0991792 -0.0335647 0)
(-0.0995637 -0.0239857 0)
(-0.0998263 -0.01447 0)
(-0.0999785 -0.00486738 0)
(0.0999996 -0.00642316 0)
(0.0998185 -0.0191731 0)
(0.0994448 -0.0318194 0)
(0.098858 -0.0443793 0)
(0.0980598 -0.0568461 0)
(0.097046 -0.0691937 0)
(0.0958084 -0.0813954 0)
(0.0943396 -0.0934274 0)
(0.0926369 -0.105265 0)
(0.0907055 -0.116882 0)
(0.0885611 -0.128257 0)
(0.0862322 -0.139381 0)
(0.0837618 -0.150263 0)
(0.0812065 -0.160944 0)
(0.0786351 -0.171519 0)
(0.0761131 -0.182015 0)
(0.0736924 -0.192478 0)
(0.0713976 -0.20295 0)
(0.0692175 -0.21345 0)
(0.0671024 -0.223958 0)
(0.0649708 -0.234413 0)
(0.0627245 -0.244723 0)
(0.0602656 -0.254774 0)
(0.057513 -0.264454 0)
(0.0544106 -0.27368 0)
(0.0509322 -0.282338 0)
(0.0470736 -0.29033 0)
(0.0428463 -0.297591 0)
(0.0382736 -0.304087 0)
(0.0333855 -0.309807 0)
(0.0282153 -0.314762 0)
(0.0227965 -0.318977 0)
(0.0171615 -0.322492 0)
(0.0113399 -0.325356 0)
(0.00535912 -0.327625 0)
(-0.000755565 -0.32936 0)
(-0.00698139 -0.330626 0)
(-0.0132994 -0.331491 0)
(-0.0196941 -0.332021 0)
(-0.0261528 -0.332283 0)
(-0.0326644 -0.332338 0)
(-0.0392194 -0.332244 0)
(-0.0458097 -0.332055 0)
(-0.0524281 -0.331818 0)
(-0.0590678 -0.331576 0)
(-0.0657228 -0.331366 0)
(-0.0723866 -0.331218 0)
(-0.0790528 -0.331157 0)
(-0.0857142 -0.331203 0)
(-0.0923631 -0.331369 0)
(-0.0989904 -0.331665 0)
(-0.105586 -0.332094 0)
(-0.112138 -0.332655 0)
(-0.118634 -0.333346 0)
(-0.125056 -0.334158 0)
(-0.131389 -0.335083 0)
(-0.137613 -0.336109 0)
(-0.143701 -0.337227 0)
(-0.149615 -0.338422 0)
(-0.155311 -0.339681 0)
(-0.160819 -0.340992 0)
(-0.166246 -0.342347 0)
(-0.171499 -0.343759 0)
(-0.174937 -0.345096 0)
(-0.174902 -0.345699 0)
(-0.171063 -0.344737 0)
(-0.165282 -0.342364 0)
(-0.159145 -0.338469 0)
(-0.152766 -0.332939 0)
(-0.146021 -0.325723 0)
(-0.138882 -0.316807 0)
(-0.131384 -0.306216 0)
(-0.123578 -0.294012 0)
(-0.115516 -0.280307 0)
(-0.107254 -0.265273 0)
(-0.0988965 -0.249172 0)
(-0.0906803 -0.2324 0)
(-0.0829948 -0.215543 0)
(-0.0763457 -0.199387 0)
(-0.0712813 -0.184727 0)
(-0.0682403 -0.171908 0)
(-0.0673529 -0.160977 0)
(-0.0683498 -0.151591 0)
(-0.070693 -0.143186 0)
(-0.0738008 -0.135233 0)
(-0.0772029 -0.127376 0)
(-0.080588 -0.119441 0)
(-0.0837826 -0.111389 0)
(-0.0866923 -0.10315 0)
(-0.0892742 -0.0946754 0)
(-0.0915229 -0.0859978 0)
(-0.0934497 -0.0771657 0)
(-0.095075 -0.0682256 0)
(-0.0964236 -0.0592117 0)
(-0.0975215 -0.0501414 0)
(-0.0983936 -0.0410283 0)
(-0.0990615 -0.0319119 0)
(-0.0995414 -0.0228428 0)
(-0.0998442 -0.0137907 0)
(-0.0999947 -0.00463656 0)
(0.0999813 -0.00617696 0)
(0.0997479 -0.0184263 0)
(0.0992909 -0.0305699 0)
(0.0985934 -0.0426219 0)
(0.0976587 -0.0545719 0)
(0.0964873 -0.0663926 0)
(0.0950782 -0.0780595 0)
(0.0934332 -0.0895533 0)
(0.09156 -0.100857 0)
(0.0894748 -0.111953 0)
(0.0872044 -0.122832 0)
(0.0847881 -0.133488 0)
(0.0822781 -0.143932 0)
(0.0797364 -0.154185 0)
(0.0772255 -0.164284 0)
(0.0748035 -0.174279 0)
(0.0725183 -0.184227 0)
(0.0703926 -0.194176 0)
(0.0684127 -0.204148 0)
(0.0665251 -0.214131 0)
(0.0646439 -0.224071 0)
(0.0626654 -0.233884 0)
(0.0604863 -0.243463 0)
(0.0580174 -0.252697 0)
(0.0551901 -0.26148 0)
(0.0519612 -0.269722 0)
(0.0483149 -0.277352 0)
(0.0442576 -0.284319 0)
(0.0398111 -0.290592 0)
(0.035006 -0.296158 0)
(0.0298772 -0.301021 0)
(0.0244607 -0.305203 0)
(0.0187914 -0.308734 0)
(0.0129021 -0.311658 0)
(0.00682302 -0.314024 0)
(0.000582024 -0.315887 0)
(-0.00579569 -0.317305 0)
(-0.0122889 -0.318342 0)
(-0.0188802 -0.319058 0)
(-0.0255554 -0.319516 0)
(-0.0323022 -0.319774 0)
(-0.0391105 -0.319886 0)
(-0.0459717 -0.319904 0)
(-0.0528786 -0.319872 0)
(-0.0598249 -0.319831 0)
(-0.0668053 -0.319817 0)
(-0.0738145 -0.319859 0)
(-0.0808476 -0.31998 0)
(-0.0878995 -0.320198 0)
(-0.094965 -0.320527 0)
(-0.102038 -0.320974 0)
(-0.109112 -0.321541 0)
(-0.11618 -0.322225 0)
(-0.123233 -0.32302 0)
(-0.13026 -0.323915 0)
(-0.13725 -0.324893 0)
(-0.144188 -0.325934 0)
(-0.151056 -0.327015 0)
(-0.157807 -0.328103 0)
(-0.164422 -0.329159 0)
(-0.170922 -0.330134 0)
(-0.177431 -0.330964 0)
(-0.183759 -0.331566 0)
(-0.187594 -0.331771 0)
(-0.186673 -0.331006 0)
(-0.181559 -0.32871 0)
(-0.175075 -0.325114 0)
(-0.168227 -0.320162 0)
(-0.16102 -0.313736 0)
(-0.153381 -0.305774 0)
(-0.145317 -0.296269 0)
(-0.13686 -0.285267 0)
(-0.128055 -0.272868 0)
(-0.118951 -0.259237 0)
(-0.109609 -0.24461 0)
(-0.100181 -0.22931 0)
(-0.090979 -0.213771 0)
(-0.0824831 -0.198532 0)
(-0.0752803 -0.184175 0)
(-0.0699565 -0.171225 0)
(-0.0668857 -0.159992 0)
(-0.0660532 -0.150427 0)
(-0.0670703 -0.142142 0)
(-0.0693607 -0.13461 0)
(-0.0723649 -0.127374 0)
(-0.0756523 -0.120135 0)
(-0.0789459 -0.11274 0)
(-0.0820953 -0.105137 0)
(-0.0850264 -0.0973301 0)
(-0.0876988 -0.0893443 0)
(-0.0900918 -0.0812043 0)
(-0.0922001 -0.0729362 0)
(-0.0940283 -0.0645651 0)
(-0.0955866 -0.0561093 0)
(-0.0968883 -0.0475764 0)
(-0.0979476 -0.0389758 0)
(-0.0987774 -0.0303457 0)
(-0.0993866 -0.0217387 0)
(-0.0997813 -0.013132 0)
(-0.099985 -0.00441769 0)
(0.0999851 -0.00586218 0)
(0.0997443 -0.0174863 0)
(0.0992653 -0.0290013 0)
(0.0985306 -0.0404147 0)
(0.0975477 -0.0517114 0)
(0.0963222 -0.0628609 0)
(0.0948582 -0.0738367 0)
(0.0931628 -0.084619 0)
(0.0912484 -0.0951905 0)
(0.0891344 -0.105537 0)
(0.0868496 -0.115648 0)
(0.0844331 -0.125526 0)
(0.0819354 -0.135184 0)
(0.0794169 -0.144654 0)
(0.0769431 -0.153984 0)
(0.0745771 -0.163232 0)
(0.0723672 -0.172459 0)
(0.0703336 -0.181718 0)
(0.0684585 -0.191034 0)
(0.0666841 -0.200399 0)
(0.0649194 -0.209766 0)
(0.063056 -0.219055 0)
(0.0609859 -0.228166 0)
(0.0586164 -0.236993 0)
(0.0558792 -0.245432 0)
(0.0527326 -0.253393 0)
(0.04916 -0.260803 0)
(0.0451646 -0.267608 0)
(0.0407641 -0.273774 0)
(0.0359853 -0.279286 0)
(0.0308603 -0.284145 0)
(0.0254229 -0.288369 0)
(0.0197067 -0.291984 0)
(0.0137437 -0.295028 0)
(0.00756391 -0.297547 0)
(0.00119527 -0.299589 0)
(-0.00533676 -0.30121 0)
(-0.0120104 -0.302465 0)
(-0.0188077 -0.303414 0)
(-0.0257136 -0.304112 0)
(-0.0327157 -0.304614 0)
(-0.0398033 -0.304972 0)
(-0.046968 -0.305232 0)
(-0.0542024 -0.305438 0)
(-0.0615008 -0.305626 0)
(-0.0688582 -0.30583 0)
(-0.0762705 -0.306076 0)
(-0.0837337 -0.306386 0)
(-0.0912443 -0.306777 0)
(-0.0987986 -0.307258 0)
(-0.106393 -0.307834 0)
(-0.114022 -0.308506 0)
(-0.12168 -0.309265 0)
(-0.129361 -0.310102 0)
(-0.137056 -0.310999 0)
(-0.144752 -0.311933 0)
(-0.152434 -0.312875 0)
(-0.160069 -0.313789 0)
(-0.167607 -0.314628 0)
(-0.174997 -0.315337 0)
(-0.182247 -0.315845 0)
(-0.189387 -0.31606 0)
(-0.196139 -0.315829 0)
(-0.200116 -0.314936 0)
(-0.198439 -0.3128 0)
(-0.19196 -0.309384 0)
(-0.184471 -0.304718 0)
(-0.176697 -0.298769 0)
(-0.168497 -0.29148 0)
(-0.159816 -0.282818 0)
(-0.150686 -0.272799 0)
(-0.141162 -0.261488 0)
(-0.131305 -0.249006 0)
(-0.121185 -0.235536 0)
(-0.110906 -0.221328 0)
(-0.100691 -0.206718 0)
(-0.0909336 -0.192139 0)
(-0.082165 -0.178107 0)
(-0.0749659 -0.165157 0)
(-0.0698355 -0.15373 0)
(-0.0670145 -0.144007 0)
(-0.0663715 -0.135826 0)
(-0.0674612 -0.128757 0)
(-0.0697154 -0.122302 0)
(-0.0726167 -0.116058 0)
(-0.0757784 -0.109771 0)
(-0.0789519 -0.103312 0)
(-0.0819959 -0.0966292 0)
(-0.0848377 -0.0897145 0)
(-0.0874429 -0.0825798 0)
(-0.0897975 -0.0752482 0)
(-0.0918971 -0.0677467 0)
(-0.0937429 -0.060102 0)
(-0.0953391 -0.0523341 0)
(-0.0966916 -0.0444533 0)
(-0.0978068 -0.036472 0)
(-0.09869 -0.0284314 0)
(-0.0993433 -0.0203877 0)
(-0.0997676 -0.0123261 0)
(-0.0999858 -0.00414936 0)
(0.0999824 -0.00554183 0)
(0.0997252 -0.0165286 0)
(0.099218 -0.0274094 0)
(0.0984439 -0.0381901 0)
(0.0974126 -0.0488547 0)
(0.0961322 -0.0593736 0)
(0.0946096 -0.0697214 0)
(0.0928549 -0.07988 0)
(0.0908837 -0.0898344 0)
(0.088719 -0.0995724 0)
(0.0863927 -0.109087 0)
(0.0839472 -0.118382 0)
(0.0814361 -0.12747 0)
(0.078922 -0.136382 0)
(0.076472 -0.145161 0)
(0.074149 -0.15386 0)
(0.0719998 -0.162539 0)
(0.070042 -0.171244 0)
(0.0682549 -0.180003 0)
(0.0665771 -0.188809 0)
(0.0649144 -0.19762 0)
(0.0631548 -0.206367 0)
(0.0611864 -0.214957 0)
(0.0589129 -0.223294 0)
(0.0562625 -0.231283 0)
(0.0531906 -0.238839 0)
(0.049678 -0.245895 0)
(0.0457255 -0.252401 0)
(0.041349 -0.258324 0)
(0.0365737 -0.263648 0)
(0.0314302 -0.268373 0)
(0.0259512 -0.272512 0)
(0.0201694 -0.27609 0)
(0.014116 -0.27914 0)
(0.00782071 -0.281701 0)
(0.00131119 -0.28382 0)
(-0.0053874 -0.285544 0)
(-0.0122534 -0.286926 0)
(-0.0192688 -0.288019 0)
(-0.0264185 -0.288874 0)
(-0.03369 -0.289542 0)
(-0.0410726 -0.290069 0)
(-0.0485577 -0.290498 0)
(-0.0561384 -0.290868 0)
(-0.063809 -0.291214 0)
(-0.0715647 -0.291565 0)
(-0.0794019 -0.291944 0)
(-0.087317 -0.292371 0)
(-0.0953069 -0.292858 0)
(-0.103368 -0.293412 0)
(-0.111498 -0.294036 0)
(-0.119691 -0.294724 0)
(-0.127943 -0.295468 0)
(-0.136244 -0.29625 0)
(-0.144585 -0.29705 0)
(-0.152953 -0.297838 0)
(-0.161322 -0.298581 0)
(-0.169652 -0.299235 0)
(-0.17787 -0.299751 0)
(-0.185923 -0.300073 0)
(-0.193791 -0.300147 0)
(-0.201405 -0.299925 0)
(-0.208084 -0.29926 0)
(-0.211252 -0.297617 0)
(-0.20839 -0.294245 0)
(-0.200899 -0.2898 0)
(-0.19251 -0.284285 0)
(-0.183812 -0.277633 0)
(-0.174652 -0.269799 0)
(-0.164985 -0.260781 0)
(-0.154864 -0.250614 0)
(-0.144364 -0.239384 0)
(-0.13357 -0.22723 0)
(-0.122574 -0.214346 0)
(-0.111523 -0.200988 0)
(-0.100704 -0.187489 0)
(-0.0905641 -0.174258 0)
(-0.0816535 -0.161754 0)
(-0.0745296 -0.15041 0)
(-0.0696163 -0.14053 0)
(-0.0670437 -0.132161 0)
(-0.0665815 -0.125065 0)
(-0.0677396 -0.118824 0)
(-0.069961 -0.113016 0)
(-0.0727674 -0.107322 0)
(-0.0758135 -0.10155 0)
(-0.0788803 -0.0956042 0)
(-0.0818419 -0.0894491 0)
(-0.0846297 -0.0830815 0)
(-0.0872071 -0.0765131 0)
(-0.0895555 -0.0697624 0)
(-0.0916663 -0.0628505 0)
(-0.093536 -0.0557983 0)
(-0.0951649 -0.0486217 0)
(-0.0965546 -0.041328 0)
(-0.0977078 -0.0339282 0)
(-0.0986263 -0.0264617 0)
(-0.0993089 -0.0189836 0)
(-0.0997543 -0.0114824 0)
(-0.0999844 -0.00386738 0)
(0.0999827 -0.00520431 0)
(0.0997198 -0.0155215 0)
(0.0992004 -0.0257369 0)
(0.0984079 -0.0358542 0)
(0.0973534 -0.0458571 0)
(0.0960468 -0.0557159 0)
(0.0944971 -0.0654058 0)
(0.0927163 -0.0749092 0)
(0.0907218 -0.0842121 0)
(0.0885382 -0.0933036 0)
(0.0861987 -0.102178 0)
(0.0837468 -0.11084 0)
(0.0812366 -0.119304 0)
(0.078731 -0.127602 0)
(0.0762969 -0.135776 0)
(0.0739969 -0.143881 0)
(0.071877 -0.151976 0)
(0.0699539 -0.160107 0)
(0.0682057 -0.168303 0)
(0.0665695 -0.176557 0)
(0.0649496 -0.184832 0)
(0.0632327 -0.193061 0)
(0.0613053 -0.20116 0)
(0.0590695 -0.209035 0)
(0.0564516 -0.216598 0)
(0.0534052 -0.223771 0)
(0.0499089 -0.230488 0)
(0.0459614 -0.236703 0)
(0.0415764 -0.242383 0)
(0.0367771 -0.247512 0)
(0.0315924 -0.25209 0)
(0.0260532 -0.256128 0)
(0.020191 -0.259646 0)
(0.014036 -0.262675 0)
(0.00761685 -0.265251 0)
(0.000960622 -0.267414 0)
(-0.00590818 -0.269209 0)
(-0.0129684 -0.270684 0)
(-0.0202024 -0.271885 0)
(-0.0275953 -0.272862 0)
(-0.0351345 -0.273659 0)
(-0.0428096 -0.274318 0)
(-0.0506119 -0.274879 0)
(-0.0585345 -0.275376 0)
(-0.0665716 -0.275841 0)
(-0.0747185 -0.276298 0)
(-0.082971 -0.276769 0)
(-0.0913255 -0.277269 0)
(-0.0997784 -0.277808 0)
(-0.108326 -0.27839 0)
(-0.116963 -0.279013 0)
(-0.125684 -0.279671 0)
(-0.134481 -0.280349 0)
(-0.143343 -0.281029 0)
(-0.152256 -0.281685 0)
(-0.161202 -0.282285 0)
(-0.170152 -0.282791 0)
(-0.179048 -0.283157 0)
(-0.187815 -0.283331 0)
(-0.196433 -0.283261 0)
(-0.20496 -0.282917 0)
(-0.213207 -0.282297 0)
(-0.219227 -0.281294 0)
(-0.22039 -0.27898 0)
(-0.215678 -0.274757 0)
(-0.207552 -0.26956 0)
(-0.198596 -0.263462 0)
(-0.189171 -0.256381 0)
(-0.179197 -0.248275 0)
(-0.168685 -0.239154 0)
(-0.15772 -0.22907 0)
(-0.146402 -0.218121 0)
(-0.134837 -0.206452 0)
(-0.123147 -0.194256 0)
(-0.111527 -0.18178 0)
(-0.100322 -0.16934 0)
(-0.0900182 -0.157311 0)
(-0.0811708 -0.146095 0)
(-0.0742988 -0.136051 0)
(-0.0697404 -0.127394 0)
(-0.0675145 -0.120102 0)
(-0.0673018 -0.113909 0)
(-0.0685789 -0.108422 0)
(-0.0708039 -0.103269 0)
(-0.0735359 -0.09818 0)
(-0.0764668 -0.0929946 0)
(-0.0794054 -0.0876342 0)
(-0.0822433 -0.0820696 0)
(-0.0849212 -0.0762979 0)
(-0.087407 -0.0703296 0)
(-0.0896833 -0.0641809 0)
(-0.0917405 -0.0578707 0)
(-0.0935733 -0.0514179 0)
(-0.0951789 -0.0448373 0)
(-0.096556 -0.0381359 0)
(-0.0977041 -0.0313246 0)
(-0.0986221 -0.0244418 0)
(-0.0993063 -0.0175412 0)
(-0.0997535 -0.0106144 0)
(-0.0999846 -0.00357701 0)
(0.099982 -0.00486138 0)
(0.0997137 -0.0144981 0)
(0.0991841 -0.0240388 0)
(0.098377 -0.0334866 0)
(0.0973042 -0.0428254 0)
(0.0959767 -0.0520272 0)
(0.0944044 -0.0610681 0)
(0.0926007 -0.0699319 0)
(0.0905841 -0.0786058 0)
(0.0883807 -0.0870801 0)
(0.086025 -0.0953506 0)
(0.0835616 -0.103421 0)
(0.0810457 -0.111308 0)
(0.0785411 -0.11904 0)
(0.0761153 -0.126659 0)
(0.0738306 -0.134216 0)
(0.0717324 -0.141765 0)
(0.0698362 -0.149351 0)
(0.068118 -0.157 0)
(0.0665132 -0.164709 0)
(0.0649241 -0.172442 0)
(0.0632353 -0.180139 0)
(0.0613319 -0.187722 0)
(0.0591145 -0.195106 0)
(0.056508 -0.202209 0)
(0.0534648 -0.208957 0)
(0.0499619 -0.215292 0)
(0.0459968 -0.221169 0)
(0.0415817 -0.226557 0)
(0.0367384 -0.231441 0)
(0.0314944 -0.23582 0)
(0.0258795 -0.239702 0)
(0.019924 -0.243107 0)
(0.013657 -0.246061 0)
(0.00710662 -0.248597 0)
(0.000299002 -0.25075 0)
(-0.0067419 -0.252563 0)
(-0.0139955 -0.254076 0)
(-0.0214446 -0.255335 0)
(-0.0290747 -0.256381 0)
(-0.0368732 -0.257256 0)
(-0.0448297 -0.257998 0)
(-0.0529356 -0.258641 0)
(-0.0611836 -0.259218 0)
(-0.0695677 -0.259754 0)
(-0.0780826 -0.260272 0)
(-0.0867236 -0.26079 0)
(-0.0954861 -0.261319 0)
(-0.104365 -0.261867 0)
(-0.113355 -0.262436 0)
(-0.12245 -0.263021 0)
(-0.131641 -0.263613 0)
(-0.140916 -0.264196 0)
(-0.150261 -0.264749 0)
(-0.159656 -0.265246 0)
(-0.169076 -0.265651 0)
(-0.178483 -0.265926 0)
(-0.1878 -0.266023 0)
(-0.196956 -0.265887 0)
(-0.205968 -0.265464 0)
(-0.214954 -0.264708 0)
(-0.223549 -0.263561 0)
(-0.228733 -0.26194 0)
(-0.227724 -0.259034 0)
(-0.221216 -0.254511 0)
(-0.212587 -0.249039 0)
(-0.203194 -0.24273 0)
(-0.193158 -0.235535 0)
(-0.182484 -0.227438 0)
(-0.171258 -0.218469 0)
(-0.159592 -0.208696 0)
(-0.14761 -0.198226 0)
(-0.135438 -0.187208 0)
(-0.123224 -0.175829 0)
(-0.111206 -0.164327 0)
(-0.0997786 -0.152998 0)
(-0.0894491 -0.142181 0)
(-0.0807628 -0.132223 0)
(-0.0741904 -0.123411 0)
(-0.069984 -0.115876 0)
(-0.068067 -0.109532 0)
(-0.0680561 -0.104095 0)
(-0.0694152 -0.0992092 0)
(-0.0716266 -0.0945589 0)
(-0.0742852 -0.0899273 0)
(-0.0771143 -0.0851899 0)
(-0.0799442 -0.0802868 0)
(-0.0826785 -0.0751967 0)
(-0.0852637 -0.0699188 0)
(-0.08767 -0.0644622 0)
(-0.0898801 -0.0588406 0)
(-0.0918835 -0.0530698 0)
(-0.0936739 -0.0471662 0)
(-0.095247 -0.0411419 0)
(-0.0965999 -0.0350026 0)
(-0.0977306 -0.0287578 0)
(-0.0986364 -0.0224434 0)
(-0.0993128 -0.0161102 0)
(-0.0997555 -0.00975158 0)
(-0.0999846 -0.00328794 0)
(0.0999819 -0.0045127 0)
(0.0997107 -0.0134579 0)
(0.0991753 -0.0223134 0)
(0.0983594 -0.0310818 0)
(0.0972755 -0.0397478 0)
(0.0959351 -0.0482845 0)
(0.0943489 -0.0566695 0)
(0.092531 -0.0648876 0)
(0.0905008 -0.0729269 0)
(0.0882851 -0.0807787 0)
(0.0859191 -0.0884393 0)
(0.0834482 -0.0959135 0)
(0.080928 -0.103217 0)
(0.0784227 -0.110377 0)
(0.0759998 -0.117433 0)
(0.0737216 -0.124436 0)
(0.0716328 -0.131435 0)
(0.0697481 -0.138475 0)
(0.0680422 -0.145578 0)
(0.0664492 -0.152743 0)
(0.0648699 -0.159938 0)
(0.0631877 -0.167105 0)
(0.0612866 -0.174174 0)
(0.0590661 -0.181065 0)
(0.0564504 -0.187702 0)
(0.0533906 -0.194019 0)
(0.0498627 -0.199959 0)
(0.0458631 -0.205481 0)
(0.0414028 -0.210557 0)
(0.0365025 -0.215173 0)
(0.0311884 -0.219326 0)
(0.0254894 -0.223024 0)
(0.0194347 -0.226283 0)
(0.0130525 -0.229128 0)
(0.0063702 -0.231588 0)
(-0.00058664 -0.233695 0)
(-0.00779469 -0.235487 0)
(-0.015234 -0.237001 0)
(-0.0228878 -0.238278 0)
(-0.0307416 -0.239355 0)
(-0.0387831 -0.24027 0)
(-0.0470017 -0.241056 0)
(-0.0553886 -0.241745 0)
(-0.0639363 -0.242363 0)
(-0.0726381 -0.242935 0)
(-0.0814879 -0.243479 0)
(-0.0904802 -0.244009 0)
(-0.099609 -0.244536 0)
(-0.108868 -0.245065 0)
(-0.118249 -0.245593 0)
(-0.127744 -0.246117 0)
(-0.137341 -0.246624 0)
(-0.147024 -0.247099 0)
(-0.156774 -0.24752 0)
(-0.166564 -0.24786 0)
(-0.176363 -0.248086 0)
(-0.186112 -0.248159 0)
(-0.195727 -0.24803 0)
(-0.205122 -0.247645 0)
(-0.214314 -0.24695 0)
(-0.223369 -0.245863 0)
(-0.23179 -0.244237 0)
(-0.236303 -0.241961 0)
(-0.233852 -0.238596 0)
(-0.225925 -0.234054 0)
(-0.216602 -0.228601 0)
(-0.206652 -0.222323 0)
(-0.196019 -0.215226 0)
(-0.184729 -0.20733 0)
(-0.172899 -0.198683 0)
(-0.16066 -0.189365 0)
(-0.148151 -0.179488 0)
(-0.135512 -0.169198 0)
(-0.122914 -0.158673 0)
(-0.11064 -0.148138 0)
(-0.0991164 -0.137865 0)
(-0.0888661 -0.128158 0)
(-0.0804164 -0.119313 0)
(-0.0741862 -0.111558 0)
(-0.0703458 -0.104965 0)
(-0.0687354 -0.099411 0)
(-0.068922 -0.0946175 0)
(-0.0703641 -0.0902634 0)
(-0.0725681 -0.0860809 0)
(-0.0751608 -0.0818908 0)
(-0.0778933 -0.0775925 0)
(-0.0806155 -0.0731385 0)
(-0.0832427 -0.0685125 0)
(-0.0857277 -0.0637147 0)
(-0.0880436 -0.0587533 0)
(-0.0901745 -0.0536403 0)
(-0.0921101 -0.0483897 0)
(-0.0938434 -0.0430158 0)
(-0.0953695 -0.0375293 0)
(-0.0966845 -0.031935 0)
(-0.0977853 -0.0262416 0)
(-0.0986685 -0.0204821 0)
(-0.0993285 -0.0147044 0)
(-0.0997609 -0.008903 0)
(-0.099985 -0.00300335 0)
(0.0999817 -0.00416095 0)
(0.0997081 -0.0124086 0)
(0.0991681 -0.0205733 0)
(0.0983456 -0.0286575 0)
(0.097253 -0.0366468 0)
(0.0959024 -0.0445161 0)
(0.094305 -0.0522446 0)
(0.0924752 -0.059818 0)
(0.0904331 -0.0672256 0)
(0.088206 -0.0744596 0)
(0.0858296 -0.0815168 0)
(0.0833501 -0.0884021 0)
(0.0808235 -0.0951302 0)
(0.0783145 -0.101727 0)
(0.0758907 -0.108231 0)
(0.0736145 -0.114686 0)
(0.07153 -0.121142 0)
(0.0696509 -0.127638 0)
(0.0679506 -0.134197 0)
(0.0663617 -0.140815 0)
(0.0647835 -0.147465 0)
(0.0630983 -0.154095 0)
(0.0611888 -0.160637 0)
(0.058954 -0.167021 0)
(0.0563173 -0.173176 0)
(0.053229 -0.179041 0)
(0.0496648 -0.184565 0)
(0.04562 -0.189709 0)
(0.041105 -0.194447 0)
(0.0361396 -0.198766 0)
(0.0307492 -0.202663 0)
(0.0249617 -0.206145 0)
(0.0188056 -0.209227 0)
(0.0123086 -0.211929 0)
(0.00549714 -0.214279 0)
(-0.00160337 -0.216305 0)
(-0.00897024 -0.21804 0)
(-0.0165841 -0.21952 0)
(-0.0244284 -0.220779 0)
(-0.0324888 -0.221852 0)
(-0.0407529 -0.222772 0)
(-0.0492101 -0.223568 0)
(-0.0578511 -0.224269 0)
(-0.0666678 -0.224897 0)
(-0.075653 -0.225474 0)
(-0.0847996 -0.226016 0)
(-0.0941008 -0.226533 0)
(-0.103549 -0.227034 0)
(-0.113137 -0.227522 0)
(-0.122854 -0.227993 0)
(-0.132689 -0.228441 0)
(-0.142627 -0.228855 0)
(-0.152649 -0.229217 0)
(-0.162732 -0.229507 0)
(-0.172845 -0.229698 0)
(-0.182944 -0.22976 0)
(-0.192965 -0.229655 0)
(-0.2028 -0.229338 0)
(-0.212361 -0.228764 0)
(-0.221604 -0.22789 0)
(-0.230483 -0.226648 0)
(-0.238352 -0.224879 0)
(-0.242045 -0.222308 0)
(-0.238623 -0.21859 0)
(-0.229828 -0.213979 0)
(-0.219791 -0.208585 0)
(-0.209227 -0.202444 0)
(-0.198026 -0.195575 0)
(-0.186199 -0.188012 0)
(-0.173865 -0.17981 0)
(-0.161164 -0.171055 0)
(-0.148243 -0.161856 0)
(-0.135251 -0.152351 0)
(-0.122384 -0.142709 0)
(-0.109959 -0.133139 0)
(-0.0984309 -0.12389 0)
(-0.0883252 -0.115231 0)
(-0.0801465 -0.107413 0)
(-0.0742601 -0.100611 0)
(-0.0707614 -0.0948512 0)
(-0.0694214 -0.0899851 0)
(-0.0697728 -0.0857476 0)
(-0.071278 -0.0818551 0)
(-0.0734682 -0.0780826 0)
(-0.0759989 -0.0742843 0)
(-0.0786448 -0.07038 0)
(-0.0812714 -0.066333 0)
(-0.083803 -0.0621314 0)
(-0.0861974 -0.0577763 0)
(-0.08843 -0.0532751 0)
(-0.0904859 -0.0486383 0)
(-0.0923553 -0.043878 0)
(-0.0940312 -0.0390065 0)
(-0.0955082 -0.034033 0)
(-0.0967822 -0.0289615 0)
(-0.0978496 -0.0237992 0)
(-0.0987065 -0.0185765 0)
(-0.0993474 -0.0133372 0)
(-0.0997674 -0.00807687 0)
(-0.0999853 -0.00272596 0)
(0.0999816 -0.00380654 0)
(0.0997063 -0.0113515 0)
(0.099163 -0.0188204 0)
(0.0983354 -0.0262158 0)
(0.0972363 -0.033524 0)
(0.0958779 -0.040722 0)
(0.0942716 -0.0477906 0)
(0.0924323 -0.0547166 0)
(0.0903803 -0.0614903 0)
(0.0881434 -0.0681045 0)
(0.0857578 -0.0745568 0)
(0.0832699 -0.0808517 0)
(0.0807362 -0.0870031 0)
(0.0782218 -0.0930356 0)
(0.0757944 -0.098984 0)
(0.0735163 -0.104891 0)
(0.0714311 -0.110801 0)
(0.0695516 -0.11675 0)
(0.0678502 -0.122761 0)
(0.0662581 -0.128829 0)
(0.0646732 -0.13493 0)
(0.0629768 -0.141015 0)
(0.0610508 -0.147025 0)
(0.0587934 -0.152892 0)
(0.0561276 -0.158555 0)
(0.0530035 -0.163956 0)
(0.0493961 -0.169048 0)
(0.0453003 -0.173797 0)
(0.040726 -0.178179 0)
(0.0356922 -0.18218 0)
(0.0302237 -0.185799 0)
(0.024348 -0.189042 0)
(0.0180928 -0.19192 0)
(0.0114851 -0.194454 0)
(0.00455109 -0.196665 0)
(-0.00268416 -0.198582 0)
(-0.0101983 -0.200233 0)
(-0.0179725 -0.20165 0)
(-0.0259904 -0.202863 0)
(-0.0342376 -0.203904 0)
(-0.0427017 -0.204802 0)
(-0.0513716 -0.205582 0)
(-0.0602378 -0.206269 0)
(-0.0692915 -0.206884 0)
(-0.0785246 -0.207444 0)
(-0.0879292 -0.207963 0)
(-0.097497 -0.20845 0)
(-0.107219 -0.20891 0)
(-0.117086 -0.209345 0)
(-0.127085 -0.209752 0)
(-0.137203 -0.210121 0)
(-0.147422 -0.210442 0)
(-0.157719 -0.210698 0)
(-0.168068 -0.210868 0)
(-0.178433 -0.210927 0)
(-0.188766 -0.210847 0)
(-0.19899 -0.210594 0)
(-0.208996 -0.210131 0)
(-0.218704 -0.209424 0)
(-0.228095 -0.208458 0)
(-0.237027 -0.207228 0)
(-0.244144 -0.205632 0)
(-0.246406 -0.203098 0)
(-0.24172 -0.199118 0)
(-0.232384 -0.194399 0)
(-0.221921 -0.189075 0)
(-0.210911 -0.183136 0)
(-0.199269 -0.176582 0)
(-0.187022 -0.169441 0)
(-0.174297 -0.161768 0)
(-0.161242 -0.153644 0)
(-0.14801 -0.145172 0)
(-0.134761 -0.136479 0)
(-0.121714 -0.127722 0)
(-0.109219 -0.119093 0)
(-0.0977494 -0.110815 0)
(-0.0878282 -0.103126 0)
(-0.0799349 -0.0962373 0)
(-0.0743832 -0.0902804 0)
(-0.071201 -0.0852475 0)
(-0.0701031 -0.0809817 0)
(-0.0705981 -0.0772361 0)
(-0.0721562 -0.0737633 0)
(-0.0743321 -0.070374 0)
(-0.0768065 -0.0669487 0)
(-0.0793738 -0.0634231 0)
(-0.0819131 -0.0597682 0)
(-0.0843566 -0.0559753 0)
(-0.0866661 -0.052046 0)
(-0.0888197 -0.0479871 0)
(-0.0908033 -0.0438078 0)
(-0.0926078 -0.0395186 0)
(-0.0942264 -0.0351302 0)
(-0.0956537 -0.0306507 0)
(-0.0968855 -0.0260832 0)
(-0.0979181 -0.021434 0)
(-0.0987474 -0.0167302 0)
(-0.0993677 -0.012012 0)
(-0.0997745 -0.00727555 0)
(-0.0999857 -0.0024566 0)
(0.0999815 -0.00345016 0)
(0.0997048 -0.0102885 0)
(0.0991586 -0.017058 0)
(0.0983268 -0.0237608 0)
(0.097222 -0.0303847 0)
(0.0958568 -0.0369086 0)
(0.0942427 -0.0433148 0)
(0.0923948 -0.0495915 0)
(0.0903337 -0.0557298 0)
(0.0880874 -0.0617234 0)
(0.0856926 -0.0675701 0)
(0.0831959 -0.0732745 0)
(0.0806543 -0.0788492 0)
(0.0781331 -0.0843171 0)
(0.0757003 -0.08971 0)
(0.0734179 -0.0950672 0)
(0.0713293 -0.100429 0)
(0.0694464 -0.105829 0)
(0.0677404 -0.111287 0)
(0.0661412 -0.1168 0)
(0.0645456 -0.122345 0)
(0.0628337 -0.127878 0)
(0.0608868 -0.133345 0)
(0.0586026 -0.138686 0)
(0.0559037 -0.143844 0)
(0.0527401 -0.148767 0)
(0.0490865 -0.153413 0)
(0.0449376 -0.157751 0)
(0.0403027 -0.161758 0)
(0.0352006 -0.165424 0)
(0.0296557 -0.168746 0)
(0.0236948 -0.171727 0)
(0.0173453 -0.174381 0)
(0.0106337 -0.176723 0)
(0.00358545 -0.178775 0)
(-0.00377354 -0.180559 0)
(-0.0114212 -0.182102 0)
(-0.0193401 -0.183432 0)
(-0.0275135 -0.184577 0)
(-0.0359269 -0.185563 0)
(-0.0445676 -0.186416 0)
(-0.0534242 -0.187159 0)
(-0.0624868 -0.187813 0)
(-0.0717458 -0.188396 0)
(-0.0811924 -0.188924 0)
(-0.0908175 -0.189406 0)
(-0.100612 -0.189851 0)
(-0.110564 -0.190262 0)
(-0.120664 -0.19064 0)
(-0.130897 -0.190981 0)
(-0.141246 -0.191275 0)
(-0.151692 -0.191513 0)
(-0.162209 -0.191677 0)
(-0.172767 -0.191749 0)
(-0.183329 -0.191706 0)
(-0.193841 -0.191522 0)
(-0.204222 -0.191169 0)
(-0.214365 -0.190616 0)
(-0.224232 -0.18984 0)
(-0.233885 -0.188832 0)
(-0.243068 -0.187602 0)
(-0.249242 -0.186084 0)
(-0.249544 -0.183484 0)
(-0.243369 -0.179536 0)
(-0.233766 -0.174948 0)
(-0.22315 -0.169862 0)
(-0.211877 -0.164259 0)
(-0.199925 -0.158132 0)
(-0.18737 -0.151508 0)
(-0.174354 -0.144442 0)
(-0.161035 -0.137007 0)
(-0.147576 -0.129301 0)
(-0.134145 -0.12144 0)
(-0.120987 -0.113566 0)
(-0.108478 -0.105855 0)
(-0.0971057 -0.098505 0)
(-0.0873868 -0.0917236 0)
(-0.0797749 -0.0856879 0)
(-0.0745348 -0.080494 0)
(-0.0716354 -0.0761106 0)
(-0.0707465 -0.0723799 0)
(-0.0713613 -0.0690778 0)
(-0.0729605 -0.0659904 0)
(-0.0751206 -0.0629595 0)
(-0.0775439 -0.0598876 0)
(-0.0800418 -0.0567229 0)
(-0.0825042 -0.053443 0)
(-0.0848696 -0.0500415 0)
(-0.0871036 -0.0465205 0)
(-0.0891859 -0.0428859 0)
(-0.0911037 -0.0391458 0)
(-0.0928485 -0.0353092 0)
(-0.0944136 -0.0313857 0)
(-0.0957941 -0.027382 0)
(-0.0969858 -0.0233005 0)
(-0.0979849 -0.0191465 0)
(-0.0987874 -0.0149443 0)
(-0.0993877 -0.0107297 0)
(-0.0997814 -0.00649972 0)
(-0.0999861 -0.00219551 0)
(0.0999815 -0.00309202 0)
(0.0997034 -0.00922042 0)
(0.0991548 -0.0152871 0)
(0.0983192 -0.0212941 0)
(0.0972096 -0.0272304 0)
(0.0958383 -0.033077 0)
(0.0942172 -0.038818 0)
(0.0923614 -0.0444428 0)
(0.0902919 -0.0499433 0)
(0.0880367 -0.0553141 0)
(0.0856328 -0.0605533 0)
(0.0831273 -0.065665 0)
(0.0805775 -0.0706611 0)
(0.0780487 -0.075562 0)
(0.0756094 -0.080397 0)
(0.0733212 -0.0852014 0)
(0.0712273 -0.0900116 0)
(0.0693387 -0.0948584 0)
(0.0676257 -0.0997588 0)
(0.0660169 -0.104711 0)
(0.064408 -0.109693 0)
(0.0626782 -0.114667 0)
(0.0607081 -0.119583 0)
(0.0583952 -0.124388 0)
(0.0556619 -0.12903 0)
(0.0524579 -0.133464 0)
(0.0487578 -0.137652 0)
(0.0445564 -0.141566 0)
(0.0398625 -0.145185 0)
(0.0346948 -0.1485 0)
(0.0290774 -0.151507 0)
(0.0230367 -0.154212 0)
(0.0165998 -0.156623 0)
(0.00979305 -0.158756 0)
(0.00264221 -0.160629 0)
(-0.00482819 -0.162262 0)
(-0.0125963 -0.163679 0)
(-0.0206437 -0.164904 0)
(-0.0289541 -0.165962 0)
(-0.0375129 -0.166875 0)
(-0.0463072 -0.167667 0)
(-0.0553253 -0.168357 0)
(-0.0645568 -0.168964 0)
(-0.0739914 -0.169503 0)
(-0.0836194 -0.169986 0)
(-0.0934308 -0.170422 0)
(-0.103415 -0.170819 0)
(-0.11356 -0.171178 0)
(-0.123853 -0.171498 0)
(-0.134277 -0.171775 0)
(-0.144815 -0.172002 0)
(-0.155444 -0.172167 0)
(-0.166137 -0.172255 0)
(-0.176861 -0.172249 0)
(-0.187576 -0.172128 0)
(-0.198228 -0.171869 0)
(-0.208725 -0.171448 0)
(-0.218966 -0.170838 0)
(-0.228936 -0.170019 0)
(-0.238744 -0.168976 0)
(-0.247968 -0.16769 0)
(-0.253237 -0.166097 0)
(-0.25182 -0.163505 0)
(-0.244489 -0.159831 0)
(-0.234667 -0.15559 0)
(-0.223922 -0.150901 0)
(-0.212436 -0.145755 0)
(-0.200234 -0.140153 0)
(-0.187433 -0.134127 0)
(-0.174189 -0.127729 0)
(-0.160668 -0.121028 0)
(-0.147038 -0.114114 0)
(-0.133479 -0.107093 0)
(-0.120257 -0.100094 0)
(-0.10777 -0.0932736 0)
(-0.0965144 -0.0868087 0)
(-0.0870004 -0.0808776 0)
(-0.0796547 -0.0756271 0)
(-0.0746974 -0.0711258 0)
(-0.0720471 -0.0673278 0)
(-0.0713376 -0.0640816 0)
(-0.0720526 -0.0611875 0)
(-0.0736843 -0.0584626 0)
(-0.0758287 -0.0557751 0)
(-0.0782067 -0.0530454 0)
(-0.0806436 -0.0502319 0)
(-0.0830385 -0.047317 0)
(-0.0853353 -0.0442961 0)
(-0.0875023 -0.0411713 0)
(-0.0895211 -0.0379482 0)
(-0.0913798 -0.0346335 0)
(-0.0930705 -0.0312353 0)
(-0.094587 -0.0277615 0)
(-0.0959246 -0.0242181 0)
(-0.0970792 -0.0206068 0)
(-0.0980472 -0.0169322 0)