/*--------------------------------*- C++ -*----------------------------------*\
  =========                 |
  \\      /  F ield         | OpenFOAM: The Open Source CFD Toolbox
   \\    /   O peration     | Website:  https://openfoam.org
    \\  /    A nd           | Version:  8
     \\/     M anipulation  |
\*---------------------------------------------------------------------------*/
FoamFile
{
    version     2.0;
    format      ascii;
    class       volScalarField;
    location    "480/fluid";
    object      CH4;
}
// * * * * * * * * * * * * * * * * * * * * * * * * * * * * * * * * * * * * * //

dimensions      [0 0 0 0 0 0 0];

internalField   nonuniform List<scalar> 
4000
(
0.999997
0.999987
0.99997
0.999941
0.999893
0.999813
0.999682
0.999468
0.999122
0.99857
0.997699
0.99635
0.994298
0.991247
0.986825
0.9806
0.972109
0.960925
0.94671
0.929266
0.908562
0.884727
0.858015
0.828776
0.797407
0.764331
0.72997
0.694731
0.658995
0.62311
0.587388
0.552101
0.517485
0.483732
0.451
0.419412
0.389065
0.360028
0.332344
0.306035
0.281106
0.257545
0.23533
0.214427
0.194796
0.176392
0.159164
0.14306
0.128026
0.114007
0.100949
0.0888001
0.0775099
0.0670307
0.057318
0.0483313
0.0400343
0.0324223
0.025595
0.0191915
0.0133906
0.00819209
0.00366975
0.00256387
0.00177044
0.00120601
0.000808731
0.000532708
0.000343873
0.000217052
0.000133785
8.06869e-05
4.82308e-05
2.99234e-05
2.12928e-05
1.62717e-05
1.20907e-05
8.53011e-06
5.65212e-06
3.489e-06
2.00099e-06
1.07065e-06
5.39299e-07
2.59817e-07
1.214e-07
5.53623e-08
2.47522e-08
1.08867e-08
4.72283e-09
2.02518e-09
8.59886e-10
3.62054e-10
1.51337e-10
6.28377e-11
2.59055e-11
1.05725e-11
4.23231e-12
1.61789e-12
5.40816e-13
9.48452e-14
0.999997
0.999987
0.999969
0.99994
0.999892
0.999811
0.999679
0.999462
0.999112
0.998554
0.997676
0.99632
0.994263
0.991216
0.986814
0.980634
0.972228
0.961172
0.947128
0.92989
0.909414
0.885808
0.859311
0.830255
0.799029
0.76605
0.731739
0.696505
0.660734
0.62478
0.588962
0.553559
0.518812
0.484919
0.452042
0.420309
0.38982
0.360645
0.332831
0.306401
0.28136
0.257694
0.235383
0.214397
0.194693
0.176225
0.158942
0.14279
0.127715
0.113662
0.100577
0.088406
0.0770991
0.0666079
0.0568876
0.0478973
0.0396003
0.0320187
0.0252009
0.0188171
0.0130528
0.0079125
0.00348037
0.00243928
0.00168772
0.00115066
0.000771533
0.000507696
0.000327134
0.000205976
0.000126605
7.61974e-05
4.56159e-05
2.8662e-05
2.07942e-05
1.58406e-05
1.16511e-05
8.12406e-06
5.3181e-06
3.24777e-06
1.84971e-06
9.88262e-07
4.99929e-07
2.42588e-07
1.14353e-07
5.26331e-08
2.37401e-08
1.0523e-08
4.59447e-09
1.97994e-09
8.43672e-10
3.56037e-10
1.49e-10
6.18879e-11
2.55065e-11
1.04027e-11
4.16093e-12
1.58938e-12
5.30984e-13
9.31101e-14
0.999997
0.999987
0.999969
0.99994
0.999891
0.999809
0.999675
0.999456
0.999103
0.998541
0.997659
0.996298
0.994239
0.991192
0.986799
0.980644
0.972289
0.961318
0.947395
0.930316
0.910027
0.886628
0.860342
0.831487
0.80044
0.767606
0.7334
0.698229
0.662478
0.626503
0.590629
0.555138
0.520276
0.48625
0.453225
0.421335
0.390685
0.361349
0.333376
0.30679
0.281596
0.257793
0.23536
0.21426
0.194453
0.175893
0.158528
0.142305
0.12717
0.113065
0.099937
0.0877319
0.0763985
0.0658884
0.056157
0.0471639
0.0388742
0.0313517
0.024564
0.0182128
0.0125005
0.00745033
0.00327566
0.00229796
0.00158941
0.00108214
0.000723958
0.000474955
0.000304923
0.000191221
0.000117097
7.03634e-05
4.23621e-05
2.72683e-05
2.02146e-05
1.53268e-05
1.11629e-05
7.70301e-06
4.9933e-06
3.02577e-06
1.71535e-06
9.15463e-07
4.63987e-07
2.25879e-07
1.06924e-07
4.94447e-08
2.24102e-08
9.98045e-09
4.37669e-09
1.8934e-09
8.09426e-10
3.42468e-10
1.43595e-10
5.97177e-11
2.4629e-11
1.00471e-11
4.01835e-12
1.53455e-12
5.12514e-13
8.98459e-14
0.999997
0.999986
0.999969
0.999939
0.99989
0.999808
0.999674
0.999454
0.9991
0.998537
0.997654
0.996294
0.99424
0.991206
0.986839
0.980725
0.972431
0.961543
0.947728
0.930777
0.910633
0.887386
0.861253
0.832543
0.801625
0.768898
0.734772
0.69965
0.663916
0.627927
0.592008
0.556446
0.521488
0.487346
0.45419
0.422159
0.391358
0.361866
0.333732
0.306992
0.281662
0.257727
0.235167
0.21395
0.194036
0.17538
0.15793
0.141632
0.126432
0.112273
0.0990999
0.0868588
0.0754977
0.0649676
0.055223
0.0462227
0.0379307
0.0304206
0.0236475
0.0173083
0.0116179
0.0065833
0.00318044
0.00221439
0.00152101
0.00102877
0.000683845
0.000445799
0.000284416
0.000177299
0.000108045
6.48375e-05
3.93854e-05
2.61628e-05
1.96752e-05
1.47988e-05
1.06574e-05
7.26654e-06
4.6552e-06
2.79195e-06
1.5708e-06
8.34713e-07
4.22551e-07
2.05945e-07
9.77277e-08
4.53375e-08
2.06231e-08
9.21952e-09
4.05843e-09
1.76219e-09
7.55926e-10
3.20825e-10
1.34884e-10
5.62237e-11
2.32313e-11
9.49083e-12
3.79999e-12
1.45225e-12
4.85236e-13
8.50737e-14
0.999997
0.999986
0.999969
0.999939
0.99989
0.999808
0.999673
0.999453
0.999099
0.998536
0.997654
0.996296
0.994248
0.991225
0.986876
0.980794
0.972547
0.961723
0.947991
0.931139
0.911107
0.887979
0.861964
0.833365
0.802544
0.769896
0.735827
0.700738
0.665011
0.629004
0.593041
0.557413
0.52237
0.488125
0.454851
0.422687
0.391746
0.362114
0.333851
0.306987
0.281527
0.257468
0.234791
0.213466
0.193454
0.174709
0.157181
0.140815
0.125557
0.111349
0.0981376
0.0858665
0.0744838
0.0639398
0.0541883
0.0451874
0.0369005
0.0294209
0.0226845
0.0163857
0.0107304
0.00572193
0.00312559
0.00215712
0.00146886
0.000985159
0.000649554
0.000420147
0.000266058
0.000164727
9.98538e-05
5.98616e-05
3.67643e-05
2.52895e-05
1.91254e-05
1.42488e-05
1.01485e-05
6.8427e-06
4.33806e-06
2.57936e-06
1.44263e-06
7.64313e-07
3.86729e-07
1.88727e-07
8.97498e-08
4.17432e-08
1.90392e-08
8.53385e-09
3.76589e-09
1.63886e-09
7.04433e-10
2.99494e-10
1.26104e-10
5.26286e-11
2.17674e-11
8.89949e-12
3.56515e-12
1.36299e-12
4.5548e-13
7.98511e-14
0.999997
0.999986
0.999969
0.999939
0.99989
0.999808
0.999673
0.999453
0.9991
0.998538
0.997658
0.996305
0.994265
0.991255
0.986926
0.980874
0.972667
0.961896
0.948228
0.931452
0.911501
0.888457
0.862523
0.833999
0.803241
0.770641
0.736604
0.701526
0.665791
0.629756
0.593747
0.558053
0.522927
0.488583
0.455199
0.422922
0.391872
0.362131
0.333752
0.306769
0.281196
0.25703
0.234252
0.212835
0.192738
0.173918
0.156324
0.139902
0.124598
0.110353
0.0971128
0.0848221
0.0734279
0.0628801
0.0531318
0.0441402
0.0358828
0.0284631
0.0217541
0.015469
0.00982986
0.00490516
0.00306132
0.002087
0.00140676
0.000935328
0.000611951
0.000393053
0.000247309
0.000152261
9.19369e-05
5.51461e-05
3.43267e-05
2.43309e-05
1.84472e-05
1.36412e-05
9.63071e-06
6.43394e-06
4.0427e-06
2.38544e-06
1.3267e-06
7.00515e-07
3.53935e-07
1.72779e-07
8.22597e-08
3.83224e-08
1.75127e-08
7.86583e-09
3.47838e-09
1.51683e-09
6.53236e-10
2.78218e-10
1.1733e-10
4.90333e-11
2.03032e-11
8.30823e-12
3.33043e-12
1.27378e-12
4.25751e-13
7.46332e-14
0.999997
0.999986
0.999969
0.999939
0.99989
0.999808
0.999673
0.999454
0.999102
0.998541
0.997664
0.996315
0.994282
0.991283
0.986971
0.980943
0.972768
0.962039
0.948421
0.931701
0.91181
0.888825
0.862947
0.834471
0.803751
0.771177
0.73715
0.702067
0.666312
0.630239
0.594175
0.558412
0.523205
0.488775
0.455306
0.422939
0.39179
0.361944
0.333461
0.306378
0.280709
0.256452
0.233591
0.212097
0.191932
0.173051
0.155406
0.138942
0.123603
0.109333
0.0960761
0.083777
0.0723827
0.061843
0.0521111
0.0431448
0.0349064
0.0275233
0.0208215
0.0145592
0.00894962
0.00407076
0.00281193
0.00192128
0.00129604
0.000861434
0.000562983
0.000361005
0.000226709
0.000139347
8.41317e-05
5.07072e-05
3.21327e-05
2.33506e-05
1.77386e-05
1.30546e-05
9.15907e-06
6.07614e-06
3.79133e-06
2.22366e-06
1.23124e-06
6.48347e-07
3.2716e-07
1.59722e-07
7.60899e-08
3.54804e-08
1.62313e-08
7.2987e-09
3.23137e-09
1.41074e-09
6.08227e-10
2.59319e-10
1.09464e-10
4.57844e-11
1.89712e-11
7.7674e-12
3.11478e-12
1.19156e-12
3.98289e-13
6.98066e-14
0.999997
0.999986
0.999969
0.999939
0.99989
0.999808
0.999674
0.999455
0.999104
0.998545
0.99767
0.996326
0.994299
0.99131
0.987012
0.981004
0.972855
0.962158
0.948577
0.931897
0.912047
0.889101
0.863258
0.834809
0.804107
0.77154
0.737508
0.702407
0.666618
0.630499
0.594379
0.558554
0.523282
0.488781
0.455229
0.422774
0.391534
0.361598
0.333028
0.30586
0.280112
0.25578
0.232851
0.211295
0.191077
0.172151
0.154467
0.137972
0.122611
0.108327
0.0950629
0.0827645
0.0713786
0.0608547
0.0511464
0.0422111
0.0340208
0.0267602
0.019948
0.0137983
0.00831634
0.0036068
0.00251742
0.00173307
0.0011754
0.000784185
0.000513781
0.000329981
0.000207453
0.000127678
7.73285e-05
4.70292e-05
3.04932e-05
2.26213e-05
1.71926e-05
1.26026e-05
8.79587e-06
5.79953e-06
3.59579e-06
2.09687e-06
1.15575e-06
6.06632e-07
3.05473e-07
1.49019e-07
7.09729e-08
3.30973e-08
1.51461e-08
6.81409e-09
3.01867e-09
1.31879e-09
5.68993e-10
2.42767e-10
1.02548e-10
4.29188e-11
1.77934e-11
7.28819e-12
2.9234e-12
1.1185e-12
3.73872e-13
6.55119e-14
0.999997
0.999986
0.999969
0.999939
0.99989
0.999809
0.999675
0.999457
0.999106
0.998548
0.997676
0.996335
0.994314
0.991333
0.987047
0.981054
0.972925
0.962251
0.948696
0.932044
0.912221
0.8893
0.863475
0.835038
0.80434
0.771765
0.737715
0.702585
0.666758
0.630596
0.594429
0.558547
0.523209
0.488634
0.455006
0.422473
0.391155
0.361143
0.332499
0.305262
0.279448
0.255056
0.232073
0.21047
0.190211
0.171251
0.15354
0.137025
0.121651
0.107361
0.0940977
0.0818066
0.0704346
0.0599317
0.0502521
0.041355
0.0332507
0.0260334
0.0192691
0.0132045
0.00785286
0.00334416
0.00233454
0.00160838
0.00109182
0.000729056
0.000478015
0.000307208
0.000193283
0.000119135
7.24385e-05
4.45276e-05
2.95983e-05
2.23022e-05
1.69327e-05
1.23541e-05
8.56911e-06
5.61263e-06
3.45671e-06
2.00357e-06
1.09887e-06
5.74623e-07
2.88576e-07
1.40572e-07
6.68863e-08
3.11733e-08
1.42611e-08
6.41529e-09
2.84217e-09
1.24192e-09
5.35978e-10
2.28759e-10
9.66661e-11
4.04719e-11
1.67843e-11
6.87652e-12
2.75867e-12
1.05553e-12
3.52814e-13
6.18012e-14
0.999997
0.999986
0.999969
0.99994
0.99989
0.999809
0.999675
0.999458
0.999107
0.998551
0.997681
0.996343
0.994326
0.991352
0.987075
0.981093
0.972979
0.962322
0.948786
0.932151
0.912344
0.889435
0.863617
0.83518
0.804473
0.771881
0.737807
0.702648
0.666787
0.630582
0.594361
0.55842
0.523019
0.488378
0.454683
0.422082
0.390698
0.360622
0.331917
0.304622
0.278755
0.254316
0.231291
0.209652
0.189363
0.170379
0.152651
0.136125
0.120745
0.106454
0.093196
0.0809151
0.0695578
0.0590736
0.0494159
0.0405427
0.0324877
0.0253155
0.0185817
0.01254
0.00719377
0.0032171
0.00224251
0.00154294
0.00104622
0.000697949
0.000457278
0.000293736
0.000184803
0.000114031
6.96005e-05
4.32342e-05
2.93812e-05
2.23265e-05
1.68987e-05
1.22704e-05
8.46033e-06
5.50093e-06
3.36391e-06
1.93724e-06
1.05681e-06
5.50305e-07
2.75474e-07
1.33924e-07
6.36308e-08
2.96246e-08
1.35426e-08
6.08904e-09
2.69686e-09
1.17828e-09
5.08518e-10
2.17062e-10
9.17388e-11
3.84163e-11
1.59348e-11
6.52939e-12
2.6196e-12
1.00234e-12
3.35022e-13
5.86594e-14
0.999997
0.999986
0.999969
0.99994
0.999891
0.999809
0.999676
0.999459
0.999109
0.998554
0.997685
0.99635
0.994336
0.991367
0.987097
0.981124
0.973019
0.962373
0.948848
0.932224
0.912424
0.889518
0.863699
0.835253
0.804531
0.771921
0.737823
0.702631
0.66673
0.630478
0.594206
0.558211
0.522753
0.488054
0.4543
0.421641
0.390201
0.360071
0.331316
0.303974
0.278065
0.25359
0.230532
0.208867
0.188557
0.169557
0.151818
0.135287
0.119906
0.10562
0.0923706
0.0801023
0.0687613
0.0582966
0.0486612
0.0398125
0.0317898
0.0246478
0.0179509
0.0119425
0.00662342
0.00317684
0.0022079
0.00151567
0.00102593
0.000683501
0.000447377
0.00028721
0.000180698
0.000111627
6.83884e-05
4.28833e-05
2.97353e-05
2.268e-05
1.70802e-05
1.23219e-05
8.43736e-06
5.44736e-06
3.30648e-06
1.89174e-06
1.02635e-06
5.32113e-07
2.65454e-07
1.28764e-07
6.1073e-08
2.83959e-08
1.29677e-08
5.82619e-09
2.57908e-09
1.12643e-09
4.86049e-10
2.07455e-10
8.76796e-11
3.6719e-11
1.52321e-11
6.24185e-12
2.50428e-12
9.58186e-13
3.20242e-13
5.60503e-14
0.999997
0.999987
0.999969
0.99994
0.999891
0.99981
0.999676
0.999459
0.99911
0.998556
0.997689
0.996355
0.994344
0.991379
0.987113
0.981146
0.973048
0.962409
0.94889
0.93227
0.912471
0.889562
0.863735
0.835278
0.80454
0.771908
0.737779
0.702553
0.666611
0.630316
0.593997
0.557953
0.522444
0.487694
0.453889
0.421181
0.389694
0.359519
0.330723
0.303344
0.277403
0.252898
0.229817
0.208133
0.187808
0.168799
0.151055
0.134523
0.119147
0.104868
0.0916295
0.0793757
0.0680522
0.0576079
0.0479954
0.0391724
0.0311885
0.0240789
0.0174055
0.011419
0.00612739
0.00314937
0.00218857
0.00150212
0.00101659
0.000677236
0.000443318
0.000284699
0.000179253
0.000110915
6.82168e-05
4.31835e-05
3.05223e-05
2.32652e-05
1.74117e-05
1.24738e-05
8.47855e-06
5.43383e-06
3.27519e-06
1.86185e-06
1.00483e-06
5.18748e-07
2.57909e-07
1.24815e-07
5.90915e-08
2.74347e-08
1.25144e-08
5.6176e-09
2.4851e-09
1.08487e-09
4.67964e-10
1.99697e-10
8.43923e-11
3.53412e-11
1.46607e-11
6.00777e-12
2.4103e-12
9.22166e-13
3.08157e-13
5.3922e-14
0.999997
0.999987
0.999969
0.99994
0.999891
0.99981
0.999677
0.99946
0.999111
0.998557
0.997691
0.996359
0.99435
0.991387
0.987124
0.981161
0.973067
0.962431
0.948914
0.932294
0.912493
0.889578
0.863742
0.83527
0.804512
0.771854
0.737696
0.702435
0.666457
0.630121
0.59376
0.557672
0.522119
0.487325
0.453477
0.420727
0.3892
0.35899
0.33016
0.302752
0.276785
0.252259
0.229161
0.207464
0.18713
0.168116
0.150371
0.133842
0.118471
0.104202
0.090976
0.0787374
0.0674317
0.0570074
0.0474177
0.0386219
0.0306689
0.0235798
0.0169304
0.0109723
0.00571175
0.00312612
0.00217487
0.00149429
0.00101234
0.000675095
0.00044238
0.000284428
0.000179349
0.000111226
6.868e-05
4.38007e-05
3.13036e-05
2.38659e-05
1.77796e-05
1.26658e-05
8.55515e-06
5.44706e-06
3.26328e-06
1.84457e-06
9.90576e-07
5.09373e-07
2.52439e-07
1.21894e-07
5.76036e-08
2.67044e-08
1.21668e-08
5.45632e-09
2.41195e-09
1.05234e-09
4.53742e-10
1.93571e-10
8.17879e-11
3.42466e-11
1.42057e-11
5.82106e-12
2.33528e-12
8.93374e-13
2.98483e-13
5.22204e-14
0.999997
0.999987
0.999969
0.99994
0.999891
0.99981
0.999677
0.999461
0.999112
0.998559
0.997693
0.996362
0.994354
0.991393
0.987132
0.981171
0.973078
0.962444
0.948927
0.932304
0.912498
0.889575
0.863726
0.835238
0.804459
0.771777
0.73759
0.702299
0.666286
0.629914
0.593515
0.557389
0.521798
0.486967
0.453083
0.420299
0.38874
0.3585
0.329644
0.302213
0.276226
0.251685
0.228574
0.206868
0.186529
0.167514
0.14977
0.133246
0.117883
0.103624
0.0904107
0.0781871
0.0668985
0.0564945
0.0469273
0.0381508
0.0302235
0.0231574
0.0165298
0.0105931
0.00537436
0.00310663
0.0021651
0.00149017
0.00101129
0.000675581
0.000443516
0.000285731
0.000180588
0.000112326
6.96577e-05
4.473e-05
3.22347e-05
2.4551e-05
1.82103e-05
1.29058e-05
8.66778e-06
5.48612e-06
3.26773e-06
1.83813e-06
9.82914e-07
5.03525e-07
2.48776e-07
1.19866e-07
5.65445e-08
2.61746e-08
1.19107e-08
5.33612e-09
2.3569e-09
1.02766e-09
4.4288e-10
1.88867e-10
7.97789e-11
3.33991e-11
1.38524e-11
5.67572e-12
2.27679e-12
8.70905e-13
2.90966e-13
5.09e-14
0.999997
0.999987
0.999969
0.99994
0.999891
0.99981
0.999677
0.999461
0.999113
0.99856
0.997694
0.996363
0.994357
0.991396
0.987137
0.981176
0.973085
0.96245
0.948931
0.932305
0.912492
0.88956
0.863698
0.835193
0.804395
0.771689
0.737477
0.702157
0.666115
0.629712
0.593281
0.557123
0.5215
0.486637
0.452723
0.419911
0.388326
0.358063
0.329186
0.301738
0.275736
0.251183
0.228064
0.206352
0.186011
0.166996
0.149256
0.132737
0.117382
0.103134
0.0899329
0.0777241
0.0664535
0.0560679
0.0465159
0.0377543
0.0298534
0.0228076
0.0162
0.0102839
0.00510333
0.00309058
0.00215867
0.00148905
0.00101282
0.000678184
0.000446317
0.000288293
0.000182745
0.000114069
7.10664e-05
4.59295e-05
3.33082e-05
2.53256e-05
1.87069e-05
1.31943e-05
8.81542e-06
5.5495e-06
3.28822e-06
1.84084e-06
9.8058e-07
5.00742e-07
2.46685e-07
1.18612e-07
5.58535e-08
2.58161e-08
1.17328e-08
5.25091e-09
2.31725e-09
1.00966e-09
4.34884e-10
1.85378e-10
7.82793e-11
3.27633e-11
1.35863e-11
5.56599e-12
2.23256e-12
8.53941e-13
2.85289e-13
4.99026e-14
0.999997
0.999987
0.999969
0.99994
0.999891
0.99981
0.999677
0.999461
0.999113
0.99856
0.997695
0.996365
0.994358
0.991399
0.98714
0.981179
0.973087
0.962451
0.94893
0.932299
0.91248
0.889537
0.863663
0.835143
0.804328
0.771602
0.737368
0.702024
0.665956
0.629527
0.59307
0.556884
0.521235
0.486347
0.452409
0.419575
0.38797
0.357688
0.328796
0.301334
0.275321
0.25076
0.227636
0.205921
0.185579
0.166566
0.14883
0.132317
0.11697
0.102731
0.0895432
0.0773488
0.06609
0.0557148
0.046177
0.0374324
0.0295504
0.0225208
0.0159265
0.0100201
0.00485998
0.00307752
0.00215514
0.00149053
0.00101658
0.000682608
0.000450549
0.000291942
0.000185699
0.000116376
7.28578e-05
4.73741e-05
3.45075e-05
2.61802e-05
1.92614e-05
1.35247e-05
8.99282e-06
5.63332e-06
3.32206e-06
1.85179e-06
9.82693e-07
5.00259e-07
2.45836e-07
1.17977e-07
5.54627e-08
2.55977e-08
1.16188e-08
5.19436e-09
2.29028e-09
9.97193e-10
4.29264e-10
1.82898e-10
7.72053e-11
3.23053e-11
1.33939e-11
5.48658e-12
2.20053e-12
8.41638e-13
2.81167e-13
4.91781e-14
0.999997
0.999987
0.999969
0.99994
0.999891
0.99981
0.999677
0.999461
0.999113
0.99856
0.997696
0.996366
0.994359
0.9914
0.987141
0.981181
0.973088
0.96245
0.948926
0.93229
0.912465
0.889514
0.863629
0.835096
0.804266
0.771524
0.737271
0.701908
0.665819
0.629369
0.59289
0.556684
0.521014
0.486107
0.45215
0.419299
0.387678
0.357382
0.328478
0.301006
0.274987
0.25042
0.227292
0.205575
0.185234
0.166223
0.148491
0.131984
0.116645
0.102416
0.0892364
0.0770494
0.065801
0.0554386
0.0459138
0.0371825
0.0293184
0.0223019
0.0157196
0.00982421
0.00468567
0.0030674
0.0021543
0.00149438
0.00102231
0.000688629
0.000456032
0.000296538
0.000189345
0.000119169
7.49698e-05
4.90043e-05
3.57933e-05
2.70874e-05
1.98531e-05
1.38823e-05
9.18997e-06
5.73114e-06
3.36526e-06
1.86856e-06
9.88229e-07
5.01603e-07
2.45885e-07
1.1777e-07
5.52753e-08
2.54779e-08
1.15517e-08
5.15944e-09
2.27308e-09
9.89064e-10
4.25543e-10
1.81239e-10
7.64824e-11
3.19963e-11
1.32639e-11
5.43276e-12
2.17875e-12
8.33239e-13
2.78349e-13
4.86826e-14
0.999997
0.999987
0.999969
0.99994
0.999891
0.99981
0.999678
0.999461
0.999113
0.998561
0.997696
0.996366
0.99436
0.991401
0.987142
0.981181
0.973087
0.962448
0.948921
0.932282
0.912451
0.889493
0.8636
0.835057
0.804215
0.77146
0.737194
0.701816
0.665712
0.629245
0.592751
0.556529
0.520844
0.485922
0.451952
0.419088
0.387456
0.35715
0.328238
0.300759
0.274734
0.250164
0.227034
0.205317
0.184977
0.165969
0.148241
0.131739
0.116406
0.102182
0.0890084
0.0768299
0.0655906
0.055238
0.0457234
0.0370024
0.0291526
0.022146
0.0155723
0.00968413
0.0045589
0.00305989
0.00215584
0.00150025
0.0010297
0.000695959
0.000462513
0.000301873
0.000193522
0.000122324
7.73073e-05
5.07441e-05
3.71047e-05
2.79987e-05
2.04452e-05
1.42409e-05
9.38992e-06
5.83275e-06
3.41206e-06
1.88806e-06
9.95526e-07
5.03994e-07
2.46548e-07
1.17882e-07
5.52492e-08
2.54357e-08
1.15214e-08
5.14186e-09
2.26388e-09
9.84544e-10
4.23421e-10
1.80275e-10
7.6055e-11
3.18106e-11
1.31847e-11
5.39954e-12
2.16519e-12
8.27976e-13
2.76575e-13
4.83706e-14
0.999997
0.999987
0.999969
0.99994
0.999891
0.99981
0.999678
0.999461
0.999113
0.998561
0.997696
0.996366
0.99436
0.991401
0.987142
0.981181
0.973087
0.962446
0.948917
0.932275
0.912441
0.889478
0.863579
0.83503
0.80418
0.771416
0.73714
0.701752
0.665637
0.629161
0.592656
0.556424
0.520728
0.485797
0.451818
0.418946
0.387307
0.356996
0.328078
0.300595
0.274567
0.249995
0.226864
0.205147
0.184808
0.165801
0.148076
0.131577
0.116246
0.102027
0.0888598
0.0766876
0.0654551
0.0551097
0.0456024
0.0368889
0.0290488
0.0220488
0.0154805
0.00959557
0.00447632
0.00305494
0.00215938
0.00150759
0.0010381
0.00070395
0.000469411
0.00030746
0.000197841
0.000125546
7.96538e-05
5.24342e-05
3.83151e-05
2.88168e-05
2.09674e-05
1.45536e-05
9.56363e-06
5.92145e-06
3.45355e-06
1.90581e-06
1.00246e-06
5.06447e-07
2.47393e-07
1.18144e-07
5.53149e-08
2.54434e-08
1.15163e-08
5.13645e-09
2.26034e-09
9.82586e-10
4.2243e-10
1.79802e-10
7.58374e-11
3.17135e-11
1.31424e-11
5.38154e-12
2.15776e-12
8.25062e-13
2.75584e-13
4.81967e-14
0.999997
0.999987
0.999969
0.99994
0.999891
0.99981
0.999678
0.999461
0.999114
0.998561
0.997696
0.996366
0.994361
0.991401
0.987142
0.981181
0.973086
0.962445
0.948915
0.932272
0.912435
0.889471
0.863569
0.835016
0.804162
0.771394
0.737113
0.70172
0.665601
0.629118
0.592608
0.556371
0.520671
0.485735
0.451751
0.418876
0.387233
0.356919
0.327999
0.300514
0.274484
0.249911
0.226779
0.205063
0.184724
0.165718
0.147994
0.131497
0.116169
0.101952
0.0887884
0.0766197
0.065391
0.0550495
0.0455463
0.0368369
0.0290022
0.0220057
0.0154396
0.00955508
0.00443585
0.00305251
0.00216377
0.00151458
0.00104549
0.000710676
0.000475052
0.000311937
0.000201249
0.000128055
8.14484e-05
5.36789e-05
3.91412e-05
2.93453e-05
2.12916e-05
1.47422e-05
9.66614e-06
5.9731e-06
3.4776e-06
1.91616e-06
1.00656e-06
5.0794e-07
2.47935e-07
1.18328e-07
5.53711e-08
2.54576e-08
1.15183e-08
5.13561e-09
2.25935e-09
9.81927e-10
4.22066e-10
1.79619e-10
7.57502e-11
3.16736e-11
1.31247e-11
5.37391e-12
2.15458e-12
8.23805e-13
2.75151e-13
4.81217e-14
0.999997
0.999987
0.999969
0.99994
0.999891
0.99981
0.999678
0.999461
0.999114
0.998561
0.997696
0.996366
0.99436
0.991401
0.987142
0.98118
0.973086
0.962445
0.948915
0.932272
0.912435
0.88947
0.863568
0.835015
0.804161
0.771393
0.737112
0.701719
0.6656
0.629118
0.592607
0.55637
0.52067
0.485734
0.451751
0.418875
0.387232
0.356918
0.327998
0.300513
0.274484
0.24991
0.226779
0.205062
0.184723
0.165717
0.147993
0.131496
0.116168
0.101952
0.0887881
0.0766194
0.0653907
0.0550492
0.0455461
0.0368367
0.0290021
0.0220055
0.0154394
0.00955495
0.00443574
0.00305251
0.00216377
0.00151458
0.00104549
0.000710677
0.000475052
0.000311937
0.000201249
0.000128055
8.14483e-05
5.36789e-05
3.91412e-05
2.93452e-05
2.12916e-05
1.47421e-05
9.66611e-06
5.97307e-06
3.47759e-06
1.91615e-06
1.00656e-06
5.07937e-07
2.47934e-07
1.18327e-07
5.53707e-08
2.54574e-08
1.15182e-08
5.13557e-09
2.25932e-09
9.81917e-10
4.22062e-10
1.79617e-10
7.57495e-11
3.16733e-11
1.31246e-11
5.37385e-12
2.15456e-12
8.23797e-13
2.75142e-13
4.81224e-14
0.999997
0.999987
0.999969
0.99994
0.999891
0.99981
0.999678
0.999461
0.999113
0.998561
0.997696
0.996366
0.99436
0.991401
0.987142
0.98118
0.973086
0.962445
0.948916
0.932274
0.912439
0.889477
0.863577
0.835027
0.804177
0.771414
0.737138
0.701749
0.665635
0.629158
0.592653
0.556421
0.520726
0.485794
0.451815
0.418944
0.387305
0.356993
0.328076
0.300593
0.274565
0.249993
0.226862
0.205146
0.184807
0.1658
0.148074
0.131575
0.116245
0.102026
0.0888588
0.0766867
0.0654543
0.0551089
0.0456017
0.0368883
0.0290483
0.0220483
0.01548
0.00959517
0.00447599
0.00305494
0.00215938
0.00150759
0.0010381
0.00070395
0.000469411
0.00030746
0.000197841
0.000125546
7.96536e-05
5.24342e-05
3.83152e-05
2.88168e-05
2.09673e-05
1.45535e-05
9.56354e-06
5.92137e-06
3.4535e-06
1.90578e-06
1.00244e-06
5.06435e-07
2.47387e-07
1.18141e-07
5.53134e-08
2.54427e-08
1.1516e-08
5.1363e-09
2.26027e-09
9.82555e-10
4.22417e-10
1.79796e-10
7.5835e-11
3.17125e-11
1.31419e-11
5.38137e-12
2.15771e-12
8.25038e-13
2.75556e-13
4.81986e-14
0.999997
0.999987
0.999969
0.99994
0.999891
0.99981
0.999678
0.999461
0.999113
0.998561
0.997696
0.996366
0.99436
0.9914
0.987141
0.98118
0.973086
0.962447
0.948919
0.93228
0.912448
0.88949
0.863597
0.835054
0.804211
0.771456
0.73719
0.701811
0.665707
0.629241
0.592746
0.556524
0.520839
0.485917
0.451947
0.419083
0.387452
0.357147
0.328234
0.300756
0.274731
0.250161
0.227031
0.205314
0.184974
0.165966
0.148239
0.131737
0.116404
0.10218
0.0890067
0.0768283
0.0655891
0.0552367
0.0457222
0.0370014
0.0291517
0.0221451
0.0155716
0.00968345
0.00455833
0.00305989
0.00215584
0.00150025
0.0010297
0.000695959
0.000462513
0.000301873
0.000193522
0.000122323
7.73072e-05
5.07442e-05
3.7105e-05
2.79989e-05
2.04452e-05
1.42408e-05
9.3898e-06
5.83264e-06
3.41198e-06
1.88801e-06
9.95493e-07
5.03976e-07
2.46538e-07
1.17877e-07
5.52467e-08
2.54345e-08
1.15208e-08
5.14161e-09
2.26376e-09
9.84492e-10
4.23397e-10
1.80265e-10
7.60507e-11
3.18088e-11
1.31839e-11
5.39925e-12
2.16511e-12
8.27936e-13
2.76529e-13
4.83736e-14
0.999997
0.999987
0.999969
0.99994
0.999891
0.99981
0.999677
0.999461
0.999113
0.99856
0.997696
0.996365
0.994359
0.991399
0.98714
0.98118
0.973086
0.962448
0.948923
0.932287
0.912461
0.88951
0.863625
0.835091
0.80426
0.771518
0.737265
0.701902
0.665813
0.629362
0.592884
0.556678
0.521008
0.4861
0.452144
0.419293
0.387672
0.357377
0.328473
0.301001
0.274982
0.250415
0.227287
0.205571
0.18523
0.166219
0.148488
0.131981
0.116642
0.102413
0.089234
0.0770472
0.065799
0.0554368
0.0459121
0.037181
0.0293171
0.0223007
0.0157185
0.00982325
0.00468486
0.00306739
0.0021543
0.00149438
0.00102231
0.000688629
0.000456031
0.000296537
0.000189345
0.000119168
7.49696e-05
4.90045e-05
3.57938e-05
2.70876e-05
1.98531e-05
1.38821e-05
9.1898e-06
5.73099e-06
3.36514e-06
1.86849e-06
9.88182e-07
5.01577e-07
2.45871e-07
1.17762e-07
5.52718e-08
2.54762e-08
1.15508e-08
5.15905e-09
2.2729e-09
9.88986e-10
4.25509e-10
1.81225e-10
7.64764e-11
3.19938e-11
1.32629e-11
5.43236e-12
2.17864e-12
8.33186e-13
2.78287e-13
4.86869e-14
0.999997
0.999987
0.999969
0.99994
0.999891
0.99981
0.999677
0.999461
0.999113
0.99856
0.997695
0.996364
0.994358
0.991398
0.987139
0.981178
0.973086
0.962449
0.948927
0.932295
0.912475
0.889532
0.863657
0.835137
0.804321
0.771595
0.73736
0.702016
0.665948
0.629518
0.593061
0.556876
0.521227
0.486339
0.452401
0.419567
0.387962
0.357681
0.328789
0.301327
0.275315
0.250754
0.22763
0.205916
0.185574
0.166561
0.148825
0.132313
0.116966
0.102728
0.0895401
0.0773459
0.0660873
0.0557124
0.0461748
0.0374305
0.0295487
0.0225192
0.0159251
0.0100188
0.00485891
0.00307751
0.00215514
0.00149053
0.00101657
0.000682606
0.000450547
0.00029194
0.000185698
0.000116375
7.28576e-05
4.73745e-05
3.45082e-05
2.61805e-05
1.92614e-05
1.35246e-05
8.99261e-06
5.63313e-06
3.32192e-06
1.85169e-06
9.82632e-07
5.00224e-07
2.45818e-07
1.17968e-07
5.5458e-08
2.55954e-08
1.16178e-08
5.19387e-09
2.29006e-09
9.97097e-10
4.29222e-10
1.8288e-10
7.71977e-11
3.23022e-11
1.33926e-11
5.48609e-12
2.20039e-12
8.41577e-13
2.81092e-13
4.91836e-14
0.999997
0.999987
0.999969
0.99994
0.999891
0.99981
0.999677
0.999461
0.999113
0.998559
0.997694
0.996363
0.994356
0.991396
0.987136
0.981175
0.973082
0.962447
0.948927
0.9323
0.912487
0.889553
0.86369
0.835185
0.804386
0.77168
0.737468
0.702147
0.666104
0.629701
0.593271
0.557112
0.521489
0.486627
0.452713
0.419902
0.388317
0.358054
0.329178
0.30173
0.275728
0.251176
0.228057
0.206346
0.186005
0.16699
0.149251
0.132732
0.117378
0.103129
0.089929
0.0777205
0.0664502
0.0560649
0.0465132
0.0377519
0.0298512
0.0228056
0.0161983
0.0102824
0.00510201
0.00309055
0.00215865
0.00148904
0.00101281
0.00067818
0.000446314
0.000288291
0.000182743
0.000114068
7.1066e-05
4.59298e-05
3.33089e-05
2.5326e-05
1.87069e-05
1.31941e-05
8.81516e-06
5.54926e-06
3.28804e-06
1.84072e-06
9.80504e-07
5.00701e-07
2.46663e-07
1.186e-07
5.58476e-08
2.58133e-08
1.17315e-08
5.25029e-09
2.31698e-09
1.00954e-09
4.34831e-10
1.85355e-10
7.82697e-11
3.27593e-11
1.35846e-11
5.56537e-12
2.23238e-12
8.53867e-13
2.85201e-13
4.99089e-14
0.999997
0.999987
0.999969
0.99994
0.999891
0.99981
0.999677
0.99946
0.999112
0.998559
0.997693
0.996361
0.994353
0.991392
0.987131
0.981169
0.973076
0.962441
0.948923
0.932299
0.912492
0.889568
0.863718
0.835229
0.804449
0.771766
0.737579
0.702287
0.666274
0.629902
0.593503
0.557377
0.521786
0.486955
0.453071
0.420288
0.388729
0.358489
0.329634
0.302203
0.276217
0.251676
0.228566
0.20686
0.186522
0.167507
0.149764
0.13324
0.117877
0.103619
0.090406
0.0781828
0.0668946
0.0564909
0.046924
0.0381479
0.0302209
0.023155
0.0165277
0.0105912
0.00537273
0.00310657
0.00216507
0.00149015
0.00101128
0.000675574
0.000443511
0.000285728
0.000180586
0.000112325
6.96575e-05
4.47306e-05
3.22358e-05
2.45516e-05
1.82104e-05
1.29056e-05
8.66749e-06
5.48584e-06
3.26751e-06
1.83798e-06
9.82826e-07
5.03474e-07
2.48748e-07
1.19852e-07
5.65374e-08
2.61711e-08
1.19091e-08
5.33537e-09
2.35656e-09
1.02751e-09
4.42815e-10
1.88839e-10
7.97672e-11
3.33942e-11
1.38503e-11
5.67497e-12
2.27656e-12
8.70811e-13
2.90863e-13
5.09063e-14
0.999997
0.999987
0.999969
0.99994
0.999891
0.99981
0.999677
0.99946
0.999111
0.998557
0.997691
0.996358
0.994349
0.991386
0.987123
0.981159
0.973064
0.962427
0.94891
0.932288
0.912486
0.88957
0.863732
0.835259
0.8045
0.771842
0.737683
0.702422
0.666443
0.630106
0.593745
0.557657
0.522104
0.487311
0.453463
0.420714
0.389188
0.358977
0.330148
0.302741
0.276774
0.252249
0.229151
0.207454
0.187121
0.168108
0.150364
0.133835
0.118465
0.104196
0.0909705
0.0787323
0.067427
0.0570031
0.0474138
0.0386183
0.0306658
0.023577
0.0169278
0.01097
0.00570976
0.00312604
0.00217483
0.00149427
0.00101232
0.000675082
0.000442371
0.000284422
0.000179345
0.000111224
6.8679e-05
4.38009e-05
3.13047e-05
2.38666e-05
1.77798e-05
1.26656e-05
8.55483e-06
5.44675e-06
3.26303e-06
1.84441e-06
9.90471e-07
5.09312e-07
2.52406e-07
1.21877e-07
5.75953e-08
2.67004e-08
1.21648e-08
5.45544e-09
2.41155e-09
1.05216e-09
4.53665e-10
1.93538e-10
8.17741e-11
3.42408e-11
1.42033e-11
5.82016e-12
2.33502e-12
8.93211e-13
2.98347e-13
5.22232e-14
0.999997
0.999987
0.999969
0.99994
0.999891
0.99981
0.999676
0.999459
0.99911
0.998556
0.997688
0.996354
0.994343
0.991377
0.987111
0.981143
0.973044
0.962404
0.948884
0.932263
0.912463
0.889553
0.863724
0.835266
0.804527
0.771894
0.737764
0.702537
0.666595
0.630299
0.59398
0.557936
0.522427
0.487678
0.453873
0.421166
0.389679
0.359505
0.330709
0.303331
0.27739
0.252887
0.229806
0.208122
0.187798
0.16879
0.151047
0.134515
0.119139
0.104861
0.0916231
0.0793698
0.0680468
0.057603
0.0479908
0.0391682
0.0311847
0.0240756
0.0174024
0.0114163
0.00612496
0.0031493
0.00218854
0.00150211
0.00101659
0.00067723
0.000443314
0.000284696
0.000179251
0.000110915
6.82169e-05
4.31847e-05
3.05249e-05
2.32667e-05
1.74123e-05
1.24738e-05
8.47828e-06
5.4335e-06
3.27492e-06
1.86165e-06
1.00471e-06
5.18678e-07
2.57871e-07
1.24795e-07
5.90819e-08
2.743e-08
1.25122e-08
5.61657e-09
2.48463e-09
1.08466e-09
4.67875e-10
1.99659e-10
8.43762e-11
3.53345e-11