/*--------------------------------*- C++ -*----------------------------------*\
  =========                 |
  \\      /  F ield         | OpenFOAM: The Open Source CFD Toolbox
   \\    /   O peration     | Website:  https://openfoam.org
    \\  /    A nd           | Version:  8
     \\/     M anipulation  |
\*---------------------------------------------------------------------------*/
FoamFile
{
    version     2.0;
    format      ascii;
    class       volScalarField;
    location    "480/fluid";
    object      CO2;
}
// * * * * * * * * * * * * * * * * * * * * * * * * * * * * * * * * * * * * * //

dimensions      [0 0 0 0 0 0 0];

internalField   nonuniform List<scalar> 
4000
(
4.53737e-07
1.98237e-06
4.55119e-06
8.85348e-06
1.60271e-05
2.79213e-05
4.75064e-05
7.94856e-05
0.000131182
0.000213769
0.000343875
0.000545521
0.000852119
0.00130804
0.00196887
0.00289928
0.00416818
0.00583952
0.00796396
0.0105709
0.0136651
0.0172274
0.0212195
0.0255896
0.0302781
0.0352217
0.0403576
0.0456249
0.0509667
0.056331
0.061671
0.0669461
0.0721212
0.0771673
0.082061
0.0867836
0.0913206
0.0956614
0.0997993
0.103731
0.107455
0.110972
0.114286
0.117401
0.120321
0.123051
0.125599
0.127967
0.130163
0.132189
0.134048
0.135742
0.137267
0.138619
0.139789
0.140762
0.141518
0.142026
0.142246
0.142134
0.141617
0.140602
0.13899
0.128578
0.1179
0.107164
0.0965302
0.0861222
0.0760365
0.0663507
0.0571293
0.0484282
0.040299
0.0328197
0.025982
0.0198807
0.0145811
0.0101479
0.00663239
0.0040378
0.00228386
0.00120541
0.000599181
0.000285052
0.000131633
5.93779e-05
2.62827e-05
1.14542e-05
4.92763e-06
2.09702e-06
8.84316e-07
3.70059e-07
1.5384e-07
6.35696e-08
2.60977e-08
1.06133e-08
4.2364e-09
1.61593e-09
5.39392e-10
9.45348e-11
4.56388e-07
1.9946e-06
4.5821e-06
8.92113e-06
1.61651e-05
2.8189e-05
4.80012e-05
8.03568e-05
0.000132637
0.000216058
0.00034723
0.000550003
0.000857345
0.00131274
0.00197058
0.00289415
0.00415031
0.00580255
0.00790143
0.0104776
0.0135378
0.0170657
0.0210258
0.0253684
0.0300354
0.0349646
0.040093
0.0453595
0.0507065
0.056081
0.0614353
0.0667277
0.0719224
0.0769895
0.0819048
0.086649
0.0912072
0.0955685
0.0997258
0.103675
0.107416
0.110949
0.114277
0.117403
0.120334
0.123073
0.125628
0.128003
0.130203
0.132233
0.134094
0.135787
0.137311
0.138659
0.139821
0.140783
0.14152
0.141996
0.142169
0.141985
0.141357
0.140179
0.138341
0.127745
0.116937
0.10611
0.0954107
0.0849554
0.0748365
0.0651297
0.0558992
0.0472015
0.0390906
0.0316564
0.0248783
0.0188667
0.0136894
0.00941022
0.00607095
0.00365345
0.00205084
0.0010806
0.000539566
0.000258704
0.000120631
5.49783e-05
2.45779e-05
1.08069e-05
4.68429e-06
2.00552e-06
8.49612e-07
3.56703e-07
1.4861e-07
6.14884e-08
2.52604e-08
1.02757e-08
4.10204e-09
1.56479e-09
5.2237e-10
9.15736e-11
4.60668e-07
2.01377e-06
4.62807e-06
9.01511e-06
1.63427e-05
2.85059e-05
4.85393e-05
8.12271e-05
0.000133974
0.000217996
0.000349853
0.000553254
0.00086095
0.00131624
0.00197276
0.00289255
0.00414116
0.00578078
0.00786142
0.0104139
0.0134459
0.016943
0.0208715
0.025184
0.0298244
0.0347318
0.0398445
0.0451016
0.0504456
0.0558231
0.0611859
0.0664915
0.0717031
0.0767902
0.0817275
0.0864951
0.0910773
0.0954626
0.0996435
0.103616
0.107379
0.110932
0.114278
0.117421
0.120366
0.123118
0.125684
0.128068
0.130275
0.13231
0.134175
0.135869
0.137391
0.138735
0.139889
0.140837
0.141552
0.141993
0.142113
0.14184
0.141062
0.139616
0.137048
0.126245
0.1153
0.10438
0.0936239
0.083139
0.0730147
0.0633254
0.0541349
0.0455012
0.0374798
0.0301602
0.0235301
0.0176976
0.012725
0.00866589
0.00554322
0.00331481
0.00185509
0.000977868
0.000489853
0.000235873
0.000110526
5.0632e-05
2.27503e-05
1.00516e-05
4.37602e-06
1.88073e-06
7.99306e-07
3.3644e-07
1.40435e-07
5.81825e-08
2.39215e-08
9.73507e-09
3.88684e-09
1.48273e-09
4.94956e-10
8.67543e-11
4.63349e-07
2.02545e-06
4.65475e-06
9.06632e-06
1.6433e-05
2.86563e-05
4.87772e-05
8.15822e-05
0.000134468
0.000218617
0.000350514
0.000553736
0.000860728
0.00131409
0.00196682
0.00288036
0.00411985
0.00574695
0.00781156
0.0103448
0.0133553
0.0168295
0.0207351
0.025026
0.029647
0.0345385
0.0396392
0.0448889
0.0502302
0.0556098
0.0609792
0.0662955
0.0715215
0.0766257
0.0815826
0.0863713
0.0909759
0.0953845
0.0995893
0.103585
0.107368
0.11094
0.114304
0.117464
0.120424
0.123189
0.125766
0.128159
0.130374
0.132414
0.134282
0.135978
0.1375
0.138841
0.13999
0.14093
0.141635
0.142063
0.142172
0.141893
0.141125
0.139737
0.135033
0.12419
0.113205
0.10226
0.091496
0.0810244
0.070936
0.061306
0.0521994
0.0436748
0.0357883
0.0286045
0.0221598
0.0165314
0.0117763
0.00793911
0.00502727
0.00297978
0.00165695
0.000870473
0.000435826
0.0002102
9.87697e-05
4.54018e-05
2.04771e-05
9.08269e-06
3.96964e-06
1.71249e-06
7.30362e-07
3.08397e-07
1.29089e-07
5.36088e-08
2.20844e-08
9.00163e-09
3.59838e-09
1.37392e-09
4.58882e-10
8.04436e-11
4.64674e-07
2.03113e-06
4.66737e-06
9.08973e-06
1.64726e-05
2.87191e-05
4.88712e-05
8.1715e-05
0.000134637
0.000218795
0.000350603
0.000553478
0.000859615
0.00131132
0.00196116
0.00287003
0.00410255
0.00572001
0.00777221
0.0102905
0.0132842
0.0167407
0.0206286
0.0249029
0.0295094
0.034389
0.0394811
0.0447259
0.0500661
0.0554485
0.0608243
0.0661504
0.0713891
0.0765087
0.0814831
0.0862916
0.0909171
0.0953465
0.0995703
0.103584
0.107386
0.110976
0.114357
0.117532
0.120505
0.123282
0.125869
0.12827
0.130491
0.132535
0.134405
0.136101
0.137621
0.138957
0.1401
0.141032
0.141727
0.142141
0.142235
0.141939
0.141151
0.139734
0.132775
0.121941
0.110959
0.100023
0.0892811
0.0788501
0.068823
0.0592763
0.0502756
0.0418795
0.0341476
0.0271231
0.0208695
0.015447
0.0109067
0.00728374
0.00457018
0.00268803
0.0014868
0.00077903
0.000389917
0.000188301
8.86634e-05
4.0856e-05
1.84741e-05
8.21483e-06
3.59886e-06
1.55593e-06
6.6489e-07
2.81237e-07
1.17897e-07
4.90227e-08
2.02162e-08
8.24694e-09
3.29874e-09
1.26006e-09
4.20948e-10
7.37891e-11
4.64996e-07
2.03245e-06
4.67004e-06
9.09394e-06
1.64778e-05
2.87225e-05
4.88639e-05
8.1673e-05
0.000134509
0.000218477
0.000349907
0.000552091
0.000857042
0.00130681
0.00195365
0.00285813
0.00408457
0.00569412
0.00773661
0.0102437
0.0132252
0.0166692
0.0205449
0.024808
0.0294049
0.0342772
0.0393646
0.0446076
0.049949
0.0553354
0.0607182
0.0660539
0.071305
0.0764393
0.0814302
0.0862555
0.0908972
0.0953427
0.0995836
0.103614
0.107433
0.111039
0.114433
0.117621
0.120605
0.123392
0.125986
0.128393
0.130618
0.132664
0.134533
0.136226
0.13774
0.139068
0.1402
0.141117
0.141795
0.142189
0.142263
0.141944
0.141128
0.139684
0.13057
0.119766
0.108793
0.0978686
0.0871538
0.0767697
0.0668109
0.0573539
0.0484631
0.0401962
0.0326302
0.0257675
0.019695
0.0144663
0.0101263
0.00669989
0.0041654
0.00243028
0.00133603
0.000697284
0.000348314
0.000168187
7.92534e-05
3.65692e-05
1.65641e-05
7.37977e-06
3.23957e-06
1.40343e-06
6.00897e-07
2.54634e-07
1.06921e-07
4.45237e-08
1.83836e-08
7.50682e-09
3.00495e-09
1.14843e-09
3.83755e-10
6.7264e-11
4.64702e-07
2.03109e-06
4.66657e-06
9.08622e-06
1.64615e-05
2.86889e-05
4.87966e-05
8.15416e-05
0.000134258
0.00021801
0.00034906
0.000550598
0.000854488
0.00130259
0.00194692
0.00284779
0.00406937
0.00567269
0.00770772
0.0102064
0.013179
0.0166139
0.0204813
0.0247371
0.0293283
0.0341968
0.0392825
0.0445261
0.0498705
0.0552625
0.0606533
0.0659994
0.0712626
0.0764097
0.0814132
0.0862518
0.0909082
0.095369
0.099625
0.103671
0.107503
0.111121
0.114528
0.117725
0.120718
0.123512
0.126111
0.128522
0.130747
0.132792
0.134657
0.136343
0.137846
0.13916
0.140273
0.141166
0.141815
0.142175
0.142215
0.141866
0.141043
0.139666
0.128995
0.117991
0.106909
0.0959366
0.0852194
0.0748682
0.064971
0.0555992
0.0468137
0.0386694
0.0312498
0.0245381
0.0186368
0.0135908
0.00943667
0.00618995
0.00381603
0.00221022
0.00120837
0.000628406
0.000313301
0.000151223
7.12812e-05
3.29148e-05
1.49237e-05
6.65655e-06
2.9257e-06
1.26906e-06
5.44042e-07
2.30817e-07
9.70286e-08
4.0445e-08
1.67139e-08
6.82979e-09
2.73531e-09
1.04572e-09
3.49478e-10
6.12446e-11
4.6404e-07
2.02813e-06
4.65951e-06
9.07166e-06
1.64333e-05
2.8636e-05
4.86994e-05
8.13659e-05
0.000133946
0.000217464
0.000348125
0.000549034
0.000851937
0.00129855
0.00194072
0.00283863
0.00405632
0.00565487
0.00768435
0.010177
0.0131434
0.0165724
0.0204346
0.0246862
0.0292747
0.034142
0.0392284
0.0444747
0.049824
0.0552228
0.060622
0.0659773
0.07125
0.0764076
0.0814234
0.0862751
0.0909447
0.0954187
0.0996875
0.103745
0.107588
0.111217
0.114633
0.117838
0.120837
0.123636
0.126238
0.128649
0.130873
0.132914
0.134773
0.136448
0.137937
0.139231
0.140315
0.14117
0.141764
0.142047
0.14198
0.141474
0.140423
0.138722
0.127666
0.116434
0.105225
0.0941979
0.0834754
0.073156
0.0633191
0.0540301
0.0453451
0.0373143
0.0300119
0.0234404
0.0176949
0.0128179
0.00883621
0.00575102
0.00351796
0.00202358
0.00110036
0.000570062
0.000283525
0.000136725
6.44302e-05
2.97569e-05
1.34988e-05
6.0254e-06
2.65063e-06
1.15086e-06
4.93871e-07
2.09743e-07
8.82547e-08
3.68203e-08
1.52277e-08
6.22628e-09
2.49469e-09
9.53983e-10
3.18847e-10
5.58631e-11
4.6325e-07
2.02464e-06
4.6513e-06
9.05515e-06
1.64022e-05
2.85793e-05
4.85982e-05
8.11886e-05
0.00013364
0.000216945
0.000347262
0.000547627
0.0008497
0.00129509
0.00193553
0.00283112
0.00404585
0.00564084
0.00766633
0.0101548
0.0131171
0.0165425
0.0204017
0.0246516
0.0292394
0.0341077
0.0391968
0.0444474
0.0498022
0.0552073
0.0606135
0.065977
0.0712595
0.076428
0.0814551
0.0863182
0.0909993
0.0954843
0.0997637
0.103831
0.107684
0.11132
0.114743
0.117954
0.120957
0.123758
0.126362
0.128772
0.130994
0.13303
0.134881
0.136545
0.138019
0.139293
0.14035
0.141167
0.141706
0.141915
0.141733
0.141048
0.139701
0.137489
0.126252
0.114907
0.10364
0.0925962
0.0818911
0.0716164
0.0618468
0.0526448
0.0440651
0.0361594
0.0289966
0.0225915
0.0169624
0.012196
0.00833603
0.00538324
0.00326829
0.00186754
0.0010102
0.000521371
0.000258645
0.000124581
5.86741e-05
2.70943e-05
1.22927e-05
5.48909e-06
2.41598e-06
1.04966e-06
4.50761e-07
1.91576e-07
8.06693e-08
3.36787e-08
1.39368e-08
5.70115e-09
2.28503e-09
8.73973e-10
2.92119e-10
5.11622e-11
4.62463e-07
2.02117e-06
4.6432e-06
9.03903e-06
1.63721e-05
2.85253e-05
4.85032e-05
8.10245e-05
0.000133361
0.000216481
0.000346502
0.000546411
0.000847804
0.00129221
0.00193131
0.00282512
0.00403768
0.00563014
0.0076529
0.0101386
0.0130985
0.016522
0.0203802
0.0246299
0.029219
0.0340898
0.0391823
0.0444371
0.0497969
0.0552084
0.0606223
0.0659945
0.0712863
0.0764645
0.0815014
0.0863744
0.0910651
0.0955594
0.0998475
0.103923
0.107782
0.111425
0.114853
0.118067
0.121074
0.123876
0.126479
0.128888
0.131106
0.133137
0.134981
0.136637
0.138099
0.139359
0.140399
0.141196
0.141712
0.1419
0.141703
0.141021
0.139726
0.136109
0.124816
0.113438
0.102162
0.0911315
0.0804599
0.0702372
0.0605367
0.0514199
0.0429411
0.0351541
0.0281041
0.0217969
0.0163219
0.0116881
0.00792769
0.00507329
0.00305759
0.00173607
0.000934379
0.00048047
0.000237743
0.00011437
5.3827e-05
2.48483e-05
1.12735e-05
5.03493e-06
2.21688e-06
9.63609e-07
4.14037e-07
1.76073e-07
7.41857e-08
3.09894e-08
1.28303e-08
5.2506e-09
2.10501e-09
8.05235e-10
2.69154e-10
4.71186e-11
4.61751e-07
2.01805e-06
4.63594e-06
9.02464e-06
1.63455e-05
2.84778e-05
4.84206e-05
8.08834e-05
0.000133125
0.000216091
0.000345874
0.00054542
0.000846281
0.00128994
0.00192803
0.00282057
0.00403159
0.00562235
0.0076434
0.0101276
0.0130863
0.0165092
0.0203676
0.0246186
0.0292097
0.0340831
0.0391791
0.0444385
0.0498042
0.0552225
0.0606438
0.066024
0.0713241
0.0765108
0.0815563
0.0864377
0.0911365
0.0956384
0.0999335
0.104015
0.10788
0.111527
0.114958
0.118176
0.121183
0.123986
0.126588
0.128994
0.131209
0.133235
0.135073
0.136721
0.138174
0.139422
0.140451
0.141237
0.14174
0.141919
0.141717
0.141038
0.139758
0.134688
0.123405
0.112046
0.100798
0.0898059
0.0791836
0.0690211
0.0593915
0.050356
0.0419654
0.034264
0.0272701
0.0210591
0.0156798
0.0111706
0.00755793
0.00480578
0.00287576
0.0016239
0.000870246
0.00044607
0.000220223
0.000105824
4.9772e-05
2.29685e-05
1.04196e-05
4.654e-06
2.04964e-06
8.9122e-07
3.83094e-07
1.6299e-07
6.87065e-08
2.87141e-08
1.18932e-08
4.86869e-09
1.95231e-09
7.46892e-10
2.4965e-10
4.36864e-11
4.61146e-07
2.01539e-06
4.62979e-06
9.01252e-06
1.63232e-05
2.84383e-05
4.83522e-05
8.07676e-05
0.000132932
0.000215778
0.000345374
0.000544643
0.000845105
0.00128822
0.00192559
0.00281724
0.00402726
0.00561698
0.00763707
0.0101206
0.013079
0.0165024
0.0203618
0.0246144
0.0292077
0.0340843
0.0391846
0.0444491
0.0498205
0.0552451
0.0606733
0.0660606
0.071368
0.0765621
0.0816149
0.0865033
0.0912088
0.0957169
0.100018
0.104104
0.107973
0.111623
0.115057
0.118275
0.121283
0.124085
0.126685
0.129089
0.131299
0.13332
0.135151
0.136792
0.138237
0.139476
0.140494
0.141269
0.141761
0.14193
0.14172
0.141035
0.139753
0.133409
0.122138
0.110802
0.0995874
0.0886412
0.0780768
0.0679807
0.0584236
0.0494512
0.041116
0.0334623
0.0265502
0.0204285
0.0151435
0.0107324
0.00721663
0.00457842
0.00272203
0.00152905
0.000816464
0.000417373
0.000205653
9.87256e-05
4.64045e-05
2.14071e-05
9.70986e-06
4.33707e-06
1.91034e-06
8.30855e-07
3.5726e-07
1.52053e-07
6.41209e-08
2.68077e-08
1.11074e-08
4.54823e-09
1.82409e-09
6.97874e-10
2.33242e-10
4.08039e-11
4.60657e-07
2.01325e-06
4.62483e-06
9.00277e-06
1.63053e-05
2.84067e-05
4.82981e-05
8.06765e-05
0.000132782
0.000215536
0.000344993
0.000544058
0.000844234
0.00128696
0.00192385
0.00281494
0.00402435
0.00561353
0.00763325
0.0101167
0.0130755
0.0164997
0.0203604
0.0246149
0.0292111
0.0340914
0.0391959
0.0444653
0.0498421
0.0552725
0.0607067
0.0661003
0.0714141
0.0766144
0.0816733
0.0865676
0.0912784
0.0957914
0.100096
0.104186
0.108058
0.111711
0.115145
0.118364
0.121371
0.124171
0.126769
0.129169
0.131376
0.133391
0.135216
0.136849
0.138285
0.139515
0.140523
0.141287
0.141768
0.141927
0.141707
0.141014
0.13973
0.132308
0.121041
0.109724
0.0985446
0.0876437
0.0771198
0.0670604
0.0575342
0.0486104
0.040338
0.0327635
0.0259307
0.0198909
0.0146903
0.0103652
0.0069339
0.00437366
0.00259823
0.00145197
0.000772145
0.00039375
0.000193676
9.28927e-05
4.36372e-05
2.01232e-05
9.12584e-06
4.07603e-06
1.79548e-06
7.81024e-07
3.35908e-07
1.43004e-07
6.03222e-08
2.52268e-08
1.04552e-08
4.28202e-09
1.71755e-09
6.57121e-10
2.19594e-10
3.84084e-11
4.60276e-07
2.01158e-06
4.62099e-06
8.99523e-06
1.62915e-05
2.83826e-05
4.82568e-05
8.06076e-05
0.00013267
0.000215356
0.000344713
0.000543636
0.000843616
0.00128609
0.00192268
0.00281344
0.00402256
0.00561155
0.0076313
0.010115
0.0130745
0.0164997
0.0203622
0.0246191
0.0292182
0.034102
0.0392105
0.0444843
0.049866
0.0553014
0.060741
0.0661399
0.071459
0.0766646
0.0817285
0.0866274
0.0913425
0.0958592
0.100167
0.10426
0.108133
0.111787
0.115222
0.11844
0.121446
0.124244
0.126839
0.129236
0.131437
0.133447
0.135265
0.136891
0.138319
0.139539
0.140538
0.141291
0.141761
0.141909
0.141679
0.140977
0.139692
0.13138
0.120109
0.108803
0.0976432
0.0867587
0.0762648
0.0662466
0.0567735
0.0479045
0.0396906
0.0321788
0.0254117
0.0194411
0.0143124
0.0100605
0.00670122
0.00420716
0.00248704
0.00139004
0.000736868
0.000374597
0.000183923
8.8148e-05
4.13864e-05
1.90786e-05
8.6503e-06
3.86326e-06
1.70177e-06
7.40318e-07
3.18446e-07
1.35595e-07
5.72092e-08
2.393e-08
9.9197e-09
4.06335e-09
1.63e-09
6.23626e-10
2.08404e-10
3.64467e-11
4.5999e-07
2.01033e-06
4.6181e-06
8.98959e-06
1.62813e-05
2.83646e-05
4.82263e-05
8.05572e-05
0.000132588
0.000215227
0.000344516
0.000543343
0.000843197
0.00128552
0.00192194
0.00281254
0.00402157
0.0056106
0.00763056
0.0101148
0.0130751
0.0165017
0.020366
0.0246252
0.0292271
0.0341141
0.0392262
0.044504
0.0498898
0.0553296
0.0607736
0.066177
0.0715005
0.0767103
0.081778
0.0866806
0.0913988
0.0959183
0.100228
0.104323
0.108197
0.111851
0.115286
0.118503
0.121507
0.124303
0.126895
0.129287
0.131484
0.133488
0.1353
0.136918
0.138338
0.13955
0.140539
0.141282
0.141742
0.141882
0.141643
0.140934
0.139646
0.130607
0.119327
0.108028
0.0968791
0.0860201
0.0755577
0.0655764
0.0561451
0.0473216
0.0391566
0.0316965
0.0249838
0.0190708
0.0140019
0.00981106
0.00651172
0.00407267
0.00239836
0.00133537
0.000708312
0.000359624
0.000176204
8.43597e-05
3.9585e-05
1.8241e-05
8.26832e-06
3.6921e-06
1.62627e-06
7.07488e-07
3.04349e-07
1.29609e-07
5.46917e-08
2.28807e-08
9.48619e-09
3.88627e-09
1.5591e-09
5.96538e-10
1.99356e-10
3.48609e-11
4.59783e-07
2.00943e-06
4.61602e-06
8.98552e-06
1.62739e-05
2.83518e-05
4.82047e-05
8.05216e-05
0.000132531
0.000215139
0.000344382
0.000543148
0.000842927
0.00128516
0.0019215
0.00281207
0.00402113
0.0056103
0.00763061
0.0101155
0.0130768
0.0165047
0.0203707
0.024632
0.0292364
0.0341261
0.0392414
0.0445224
0.0499117
0.0553551
0.0608027
0.0662096
0.0715366
0.0767496
0.0818203
0.0867255
0.091446
0.0959672
0.100279
0.104374
0.108249
0.111903
0.115336
0.118552
0.121555
0.124347
0.126936
0.129324
0.131516
0.133514
0.13532
0.136931
0.138343
0.139547
0.140528
0.141264
0.141717
0.141853
0.141616
0.14092
0.139667
0.129979
0.118687
0.107389
0.0962552
0.0854181
0.0749827
0.0650326
0.0556358
0.0468497
0.0387247
0.0313068
0.0246384
0.0187722
0.013752
0.00961077
0.00636014
0.00396566
0.00232834
0.00129276
0.000683827
0.000347404
0.000170283
8.14292e-05
3.817e-05
1.75786e-05
7.96562e-06
3.55637e-06
1.56637e-06
6.81433e-07
2.93158e-07
1.24857e-07
5.26934e-08
2.20479e-08
9.14226e-09
3.74595e-09
1.50297e-09
5.75098e-10
1.92195e-10
3.36063e-11
4.59639e-07
2.0088e-06
4.61456e-06
8.98268e-06
1.62688e-05
2.83429e-05
4.81898e-05
8.04973e-05
0.000132493
0.00021508
0.000344295
0.000543025
0.000842761
0.00128496
0.00192127
0.00281185
0.004021
0.00561039
0.0076311
0.0101166
0.0130788
0.0165079
0.0203754
0.0246385
0.0292449
0.034137
0.0392547
0.0445384
0.0499304
0.0553766
0.060827
0.0662366
0.071566
0.0767814
0.0818541
0.0867611
0.091483
0.0960054
0.100318
0.104413
0.108288
0.111941
0.115373
0.118588
0.121588
0.124378
0.126963
0.129347
0.131534
0.133526
0.135326
0.13693
0.138335
0.139531
0.140504
0.141232
0.141678
0.141807
0.141566
0.140868
0.139619
0.129497
0.118189
0.106889
0.095764
0.0849433
0.0745294
0.0646044
0.0552356
0.0464795
0.0383863
0.0310019
0.0243685
0.0185392
0.0135574
0.00945522
0.00624276
0.00388307
0.00227451
0.00126015
0.00066522
0.000337161
0.000165101
7.90406e-05
3.70567e-05
1.70623e-05
7.73004e-06
3.45083e-06
1.51991e-06
6.61275e-07
2.84523e-07
1.21198e-07
5.11589e-08
2.14101e-08
8.87951e-09
3.63884e-09
1.46014e-09
5.58734e-10
1.86731e-10
3.26495e-11
4.59542e-07
2.00837e-06
4.61359e-06
8.9808e-06
1.62654e-05
2.8337e-05
4.818e-05
8.04814e-05
0.000132468
0.000215042
0.00034424
0.00054295
0.000842665
0.00128485
0.00192116
0.00281178
0.00402104
0.00561065
0.00763172
0.0101177
0.0130807
0.0165107
0.0203794
0.0246439
0.0292519
0.0341457
0.0392653
0.044551
0.049945
0.0553932
0.0608455
0.066257
0.0715882
0.076805
0.081879
0.0867869
0.0915096
0.0960324
0.100345
0.10444
0.108314
0.111967
0.115398
0.11861
0.121608
0.124395
0.126977
0.129357
0.131539
0.133527
0.13532
0.136918
0.138316
0.139505
0.14047
0.141191
0.14163
0.141754
0.14151
0.140814
0.139576
0.129139
0.117814
0.106512
0.0953937
0.0845859
0.0741891
0.064284
0.0549368
0.0462039
0.0381351
0.0307761
0.024169
0.0183674
0.0134142
0.0093411
0.00615696
0.00382294
0.00223547
0.0012366
0.000651911
0.00033003
0.000161474
7.72374e-05
3.62277e-05
1.6688e-05
7.56124e-06
3.37564e-06
1.48685e-06
6.46924e-07
2.78369e-07
1.18588e-07
5.00628e-08
2.09538e-08
8.69121e-09
3.56199e-09
1.42939e-09
5.46981e-10
1.82804e-10
3.19624e-11
4.59485e-07
2.00812e-06
4.61301e-06
8.97966e-06
1.62633e-05
2.83335e-05
4.81741e-05
8.0472e-05
0.000132453
0.00021502
0.000344209
0.000542907
0.000842612
0.00128479
0.00192112
0.00281178
0.00402113
0.0056109
0.00763223
0.0101186
0.0130821
0.0165128
0.0203823
0.0246477
0.0292568
0.0341517
0.0392726
0.0445596
0.049955
0.0554045
0.060858
0.0662707
0.0716028
0.0768204
0.081895
0.0868031
0.091526
0.0960488
0.100361
0.104456
0.10833
0.111981
0.115411
0.118622
0.121617
0.124402
0.126981
0.129358
0.131536
0.133519
0.135308
0.1369
0.138292
0.139474
0.140433
0.141147
0.14158
0.141701
0.141457
0.140766
0.139544
0.128904
0.117561
0.106254
0.0951402
0.0843419
0.0739577
0.064067
0.0547356
0.0460191
0.0379673
0.0306259
0.0240369
0.0182539
0.0133199
0.00926631
0.00610099
0.00378393
0.00221027
0.00122145
0.000643351
0.000325448
0.000159182
7.61155e-05
3.56832e-05
1.64344e-05
7.4485e-06
3.32603e-06
1.46523e-06
6.3761e-07
2.74398e-07
1.16911e-07
4.93602e-08
2.06617e-08
8.57066e-09
3.51278e-09
1.4097e-09
5.39447e-10
1.80285e-10
3.15221e-11
4.59459e-07
2.00801e-06
4.61275e-06
8.97915e-06
1.62624e-05
2.83319e-05
4.81715e-05
8.04677e-05
0.000132447
0.00021501
0.000344195
0.000542889
0.00084259
0.00128477
0.0019211
0.00281179
0.00402118
0.00561104
0.0076325
0.0101191
0.0130828
0.0165138
0.0203837
0.0246496
0.0292592
0.0341548
0.0392762
0.0445638
0.0499599
0.05541
0.0608641
0.0662773
0.0716099
0.0768278
0.0819026
0.0868108
0.0915334
0.0960559
0.100368
0.104462
0.108336
0.111986
0.115415
0.118625
0.121619
0.124403
0.126979
0.129354
0.13153
0.13351
0.135295
0.136884
0.138271
0.139449
0.140403
0.141113
0.141542
0.141661
0.141417
0.140732
0.139526
0.128787
0.117429
0.106118
0.0950063
0.0842139
0.0738374
0.0639555
0.0546331
0.0459259
0.0378835
0.0305515
0.023972
0.0181987
0.0132744
0.00923047
0.00607439
0.00376555
0.0021985
0.00121442
0.000639394
0.000323332
0.000158131
7.56047e-05
3.54393e-05
1.632e-05
7.39539e-06
3.3022e-06
1.45478e-06
6.33101e-07
2.72476e-07
1.161e-07
4.90205e-08
2.05205e-08
8.51246e-09
3.48902e-09
1.40018e-09
5.35804e-10
1.79063e-10
3.13094e-11
4.59463e-07
2.00803e-06
4.6128e-06
8.97924e-06
1.62626e-05
2.83322e-05
4.81719e-05
8.04685e-05
0.000132448
0.000215012
0.000344198
0.000542894
0.000842598
0.00128478
0.00192112
0.00281181
0.00402121
0.00561108
0.00763255
0.0101192
0.0130829
0.0165139
0.0203838
0.0246497
0.0292593
0.0341549
0.0392764
0.044564
0.04996
0.0554101
0.0608643
0.0662775
0.07161
0.076828
0.0819027
0.0868109
0.0915335
0.096056
0.100368
0.104462
0.108336
0.111986
0.115415
0.118625
0.12162
0.124403
0.126979
0.129354
0.13153
0.13351
0.135295
0.136884
0.138271
0.139449
0.140403
0.141113
0.141542
0.141661
0.141417
0.140732
0.139526
0.128787
0.117428
0.106118
0.095006
0.0842136
0.0738372
0.0639553
0.0546329
0.0459257
0.0378833
0.0305513
0.0239719
0.0181986
0.0132744
0.00923041
0.00607434
0.00376552
0.00219848
0.00121441
0.000639387
0.000323328
0.000158129
7.56038e-05
3.54389e-05
1.63198e-05
7.3953e-06
3.30216e-06
1.45477e-06
6.33093e-07
2.72473e-07
1.16098e-07
4.902e-08
2.05203e-08
8.51236e-09
3.48898e-09
1.40017e-09
5.35798e-10
1.79057e-10
3.13102e-11
4.59498e-07
2.00818e-06
4.61314e-06
8.97991e-06
1.62638e-05
2.83343e-05
4.81754e-05
8.04742e-05
0.000132457
0.000215026
0.000344218
0.000542922
0.000842634
0.00128482
0.00192116
0.00281184
0.00402122
0.00561102
0.00763238
0.0101188
0.0130823
0.0165131
0.0203825
0.024648
0.0292571
0.0341521
0.039273
0.04456
0.0499554
0.0554049
0.0608584
0.0662711
0.0716032
0.0768208
0.0818953
0.0868035
0.0915264
0.0960491
0.100361
0.104456
0.10833
0.111981
0.115411
0.118622
0.121618
0.124402
0.126981
0.129358
0.131536
0.133519
0.135308
0.1369
0.138292
0.139474
0.140433
0.141147
0.14158
0.141701
0.141457
0.140766
0.139544
0.128903
0.11756
0.106253
0.0951394
0.0843411
0.073957
0.0640664
0.054735
0.0460186
0.0379669
0.0306255
0.0240365
0.0182536
0.0133197
0.00926613
0.00610086
0.00378384
0.00221022
0.00122142
0.000643331
0.000325437
0.000159177
7.61126e-05
3.56818e-05
1.64337e-05
7.44821e-06
3.32591e-06
1.46518e-06
6.37588e-07
2.74389e-07
1.16907e-07
4.93585e-08
2.06609e-08
8.57037e-09
3.51267e-09
1.40967e-09
5.39429e-10
1.80266e-10
3.15243e-11
4.59564e-07
2.00847e-06
4.61381e-06
8.98122e-06
1.62661e-05
2.83384e-05
4.81822e-05
8.04852e-05
0.000132474
0.000215052
0.000344256
0.000542974
0.000842701
0.0012849
0.00192124
0.00281189
0.00402119
0.00561085
0.00763197
0.0101181
0.013081
0.0165112
0.0203799
0.0246444
0.0292525
0.0341463
0.0392659
0.0445516
0.0499457
0.0553939
0.0608462
0.0662577
0.0715889
0.0768056
0.0818796
0.0867875
0.0915102
0.096033
0.100345
0.104441
0.108315
0.111967
0.115398
0.118611
0.121608
0.124396
0.126977
0.129357
0.13154
0.133527
0.135321
0.136919
0.138316
0.139505
0.14047
0.141191
0.14163
0.141754
0.14151
0.140814
0.139576
0.129138
0.117813
0.10651
0.0953923
0.0845847
0.074188
0.0642829
0.0549359
0.046203
0.0381343
0.0307754
0.0241685
0.0183669
0.0134138
0.00934079
0.00615672
0.00382278
0.00223536
0.00123654
0.000651874
0.00033001
0.000161463
7.72321e-05
3.62251e-05
1.66868e-05
7.56071e-06
3.37539e-06
1.48674e-06
6.46876e-07
2.78349e-07
1.1858e-07
5.00593e-08
2.09524e-08
8.69062e-09
3.56176e-09
1.42933e-09
5.46948e-10
1.82771e-10
3.19658e-11
4.59669e-07
2.00893e-06
4.61487e-06
8.98327e-06
1.62698e-05
2.83448e-05
4.81929e-05
8.05025e-05
0.000132501
0.000215093
0.000344317
0.000543058
0.000842812
0.00128503
0.00192138
0.00281201
0.00402121
0.00561067
0.00763146
0.010117
0.0130793
0.0165085
0.0203761
0.0246392
0.0292457
0.0341378
0.0392556
0.0445393
0.0499314
0.0553776
0.0608279
0.0662376
0.071567
0.0767823
0.081855
0.0867619
0.0914839
0.0960062
0.100318
0.104414
0.108289
0.111942
0.115374
0.118588
0.121588
0.124378
0.126963
0.129347
0.131534
0.133527
0.135326
0.13693
0.138335
0.139531
0.140504
0.141232
0.141678
0.141807
0.141566
0.140868
0.139619
0.129494
0.118187
0.106887
0.0957621
0.0849415
0.0745278
0.064603
0.0552342
0.0464783
0.0383852
0.031001
0.0243677
0.0185385
0.0135568
0.00945477
0.00624243
0.00388284
0.00227436
0.00126005
0.000665167
0.000337132
0.000165086
7.90332e-05
3.70534e-05
1.70607e-05
7.72929e-06
3.45048e-06
1.51975e-06
6.61207e-07
2.84494e-07
1.21186e-07
5.1154e-08
2.14081e-08
8.87869e-09
3.63852e-09
1.46004e-09
5.58689e-10
1.86685e-10
3.26541e-11
4.59822e-07
2.0096e-06
4.61641e-06
8.98627e-06
1.62753e-05
2.83541e-05
4.82087e-05
8.05282e-05
0.000132542
0.000215156
0.00034441
0.000543191
0.000842992
0.00128526
0.00192164
0.00281226
0.00402139
0.00561066
0.00763107
0.010116
0.0130774
0.0165055
0.0203716
0.024633
0.0292374
0.0341272
0.0392425
0.0445236
0.049913
0.0553563
0.0608039
0.0662109
0.0715378
0.0767508
0.0818215
0.0867266
0.0914471
0.0959683
0.10028
0.104375
0.10825
0.111904
0.115337
0.118553
0.121555
0.124348
0.126936
0.129325
0.131516
0.133515
0.13532
0.136931
0.138343
0.139547
0.140528
0.141264
0.141717
0.141853
0.141616
0.14092
0.139667
0.129976
0.118684
0.107387
0.0962527
0.0854157
0.0749805
0.0650306
0.0556341
0.0468481
0.0387233
0.0313056
0.0246373
0.0187713
0.0137512
0.00961018
0.00635969
0.00396535
0.00232814
0.00129264
0.000683759
0.000347369
0.000170266
8.1421e-05
3.81659e-05
1.75767e-05
7.96474e-06
3.55598e-06
1.56621e-06
6.8136e-07
2.93127e-07
1.24843e-07
5.26877e-08
2.20455e-08
9.14125e-09
3.74557e-09
1.50285e-09
5.75045e-10
1.92138e-10
3.36122e-11
4.60038e-07
2.01054e-06
4.61857e-06
8.9905e-06
1.62829e-05
2.83675e-05
4.82312e-05
8.05652e-05
0.000132601
0.000215249
0.00034455
0.000543395
0.000843276
0.00128564
0.00192211
0.00281278
0.0040219
0.00561103
0.00763111
0.0101155
0.0130759
0.0165027
0.0203671
0.0246264
0.0292284
0.0341154
0.0392276
0.0445054
0.0498913
0.0553311
0.0607751
0.0661785
0.071502
0.0767117
0.0817795
0.086682
0.0914002
0.0959195
0.10023
0.104324
0.108198
0.111852
0.115287
0.118504
0.121508
0.124304
0.126896
0.129288
0.131485
0.133488
0.1353
0.136918
0.138338
0.13955
0.140539
0.141283
0.141743
0.141882
0.141643
0.140934
0.139646
0.130603
0.119323
0.108025
0.0968759
0.0860172
0.0755551
0.065574
0.0561429
0.0473196
0.0391548
0.031695
0.0249825
0.0190697
0.014001
0.00981031
0.00651116
0.00407228
0.0023981
0.00133522
0.000708229
0.000359582
0.000176183
8.43492e-05
3.958e-05
1.82387e-05
8.26727e-06
3.69163e-06
1.62607e-06
7.07398e-07
3.04309e-07
1.29592e-07
5.46845e-08
2.28777e-08
9.48489e-09
3.88578e-09
1.55895e-09
5.96473e-10
1.99287e-10
3.48679e-11
4.60331e-07
2.01182e-06
4.62154e-06
8.9963e-06
1.62935e-05
2.83859e-05
4.82625e-05
8.06171e-05
0.000132685
0.000215381
0.000344753
0.000543697
0.000843709
0.00128623
0.00192288
0.00281372
0.00402295
0.00561206
0.00763193
0.0101158
0.0130754
0.0165008
0.0203634
0.0246205
0.0292197
0.0341036
0.0392122
0.0444861
0.0498678
0.0553032
0.0607428
0.0661417
0.0714608
0.0766664
0.0817302
0.0866291
0.0913441
0.0958607
0.100169
0.104261
0.108135
0.111788
0.115223
0.118441
0.121447
0.124245
0.12684
0.129237
0.131438
0.133448
0.135266
0.136892
0.138319
0.13954
0.140538
0.141291
0.141761
0.141909
0.141679
0.140977
0.139692
0.131375
0.120104
0.108798
0.0976394
0.0867552
0.0762616
0.0662437
0.0567709
0.0479021
0.0396885
0.0321769
0.02541
0.0194398
0.0143113
0.0100596
0.00670053
0.00420668
0.00248672
0.00138985
0.000736765
0.000374541
0.000183895
8.81342e-05
4.138e-05
1.90756e-05
8.64895e-06
3.86266e-06
1.7015e-06
7.40201e-07
3.18395e-07
1.35574e-07
5.71999e-08
2.39262e-08
9.91807e-09
4.06274e-09
1.6298e-09
6.23542e-10
2.08321e-10
3.64539e-11
4.6072e-07
2.01353e-06
4.62547e-06
9.00401e-06
1.63076e-05
2.84106e-05
4.83046e-05
8.06874e-05
0.0001328
0.000215564
0.000345038
0.000544129
0.000844341
0.00128712
0.00192408
0.00281526
0.0040248
0.00561412
0.00763399
0.0101176
0.0130766
0.0165009
0.0203618
0.0246165
0.0292129
0.0340932
0.0391979
0.0444673
0.0498442
0.0552746
0.0607088
0.0661024
0.0714162
0.0766165
0.0816753
0.0865695
0.0912803
0.0957932
0.100098
0.104188
0.10806
0.111712
0.115146
0.118365
0.121372
0.124172
0.12677
0.12917
0.131377
0.133392
0.135217
0.13685
0.138286
0.139516
0.140524
0.141288
0.141769
0.141927
0.141707
0.141014
0.139729
0.132303
0.121036
0.10972
0.0985401
0.0876395
0.0771159
0.0670569
0.0575311
0.0486075
0.0403355
0.0327613
0.0259287
0.0198892
0.0146889
0.0103641
0.00693306
0.00437306
0.00259784
0.00145174
0.00077201
0.000393676
0.00019364
9.28751e-05
4.36289e-05
2.01194e-05
9.12411e-06
4.07525e-06
1.79514e-06
7.80876e-07
3.35844e-07
1.42977e-07
6.03106e-08
2.52219e-08
1.04531e-08
4.28126e-09
1.71732e-09
6.56979e-10
2.19481e-10
3.84132e-11
4.61218e-07
2.01571e-06
4.63051e-06
9.01392e-06
1.63257e-05
2.84426e-05
4.83596e-05
8.07799e-05
0.000132952
0.00021581
0.000345425
0.000544723
0.000845227
0.0012884
0.00192585
0.00281761
0.00402776
0.00561765
0.00763792
0.0101216
0.0130803
0.0165038