/*--------------------------------*- C++ -*----------------------------------*\
  =========                 |
  \\      /  F ield         | OpenFOAM: The Open Source CFD Toolbox
   \\    /   O peration     | Website:  https://openfoam.org
    \\  /    A nd           | Version:  8
     \\/     M anipulation  |
\*---------------------------------------------------------------------------*/
FoamFile
{
    version     2.0;
    format      ascii;
    class       volScalarField;
    location    "480/fluid";
    object      H2O;
}
// * * * * * * * * * * * * * * * * * * * * * * * * * * * * * * * * * * * * * //

dimensions      [0 0 0 0 0 0 0];

internalField   nonuniform List<scalar> 
4000
(
3.7147e-07
1.62295e-06
3.72602e-06
7.24827e-06
1.31212e-05
2.28589e-05
3.88931e-05
6.50742e-05
0.000107398
0.000175011
0.000281528
0.000446613
0.000697622
0.00107088
0.00161189
0.00237362
0.00341245
0.00478076
0.00652003
0.00865434
0.0111875
0.0141039
0.0173722
0.02095
0.0247884
0.0288357
0.0330404
0.0373527
0.041726
0.0461177
0.0504895
0.0548082
0.059045
0.0631762
0.0671826
0.071049
0.0747633
0.0783171
0.0817048
0.0849235
0.0879723
0.0908521
0.0935652
0.0961151
0.0985056
0.100741
0.102826
0.104766
0.106563
0.108222
0.109744
0.11113
0.112379
0.113486
0.114444
0.115241
0.11586
0.116276
0.116455
0.116364
0.115941
0.115109
0.11379
0.105266
0.0965233
0.087734
0.0790284
0.0705075
0.0622504
0.0543208
0.0467713
0.0396478
0.0329925
0.0268692
0.0212712
0.0162761
0.0119374
0.00830801
0.00542988
0.00330571
0.00186977
0.000986861
0.000490545
0.000233369
0.000107767
4.86122e-05
2.15174e-05
9.37742e-06
4.03421e-06
1.71681e-06
7.23982e-07
3.02964e-07
1.25947e-07
5.20439e-08
2.1366e-08
8.68901e-09
3.4683e-09
1.32295e-09
4.41595e-10
7.73948e-11
3.73641e-07
1.63296e-06
3.75133e-06
7.30365e-06
1.32342e-05
2.30781e-05
3.92982e-05
6.57874e-05
0.000108589
0.000176885
0.000284274
0.000450283
0.000701901
0.00107473
0.00161329
0.00236941
0.00339782
0.0047505
0.00646883
0.00857788
0.0110832
0.0139715
0.0172136
0.0207689
0.0245897
0.0286252
0.0328238
0.0371354
0.041513
0.045913
0.0502965
0.0546294
0.0588823
0.0630306
0.0670547
0.0709388
0.0746705
0.0782411
0.0816446
0.0848781
0.0879404
0.0908328
0.0935575
0.0961171
0.0985161
0.100759
0.10285
0.104795
0.106596
0.108258
0.109781
0.111168
0.112415
0.113519
0.114471
0.115258
0.115861
0.116251
0.116392
0.116242
0.115728
0.114763
0.113259
0.104583
0.0957355
0.0868713
0.0781119
0.0695522
0.061268
0.0533211
0.0457641
0.0386435
0.0320031
0.0259168
0.0203676
0.015446
0.0112074
0.00770406
0.00497023
0.00299105
0.001679
0.000884677
0.000441738
0.000211799
9.87594e-05
4.50102e-05
2.01217e-05
8.84754e-06
3.83499e-06
1.6419e-06
6.9557e-07
2.92029e-07
1.21666e-07
5.034e-08
2.06804e-08
8.4126e-09
3.35831e-09
1.28108e-09
4.2766e-10
7.49705e-11
3.77145e-07
1.64865e-06
3.78896e-06
7.38059e-06
1.33796e-05
2.33375e-05
3.97387e-05
6.64999e-05
0.000109683
0.000178472
0.000286422
0.000452944
0.000704852
0.00107759
0.00161508
0.0023681
0.00339033
0.00473267
0.00643607
0.00852573
0.0110081
0.0138711
0.0170873
0.0206179
0.0244169
0.0284346
0.0326203
0.0369243
0.0412994
0.0457019
0.0500923
0.054436
0.0587027
0.0628674
0.0669096
0.0708128
0.0745642
0.0781544
0.0815773
0.0848296
0.0879104
0.0908194
0.0935585
0.0961316
0.0985425
0.100796
0.102896
0.104848
0.106655
0.108321
0.109848
0.111235
0.112481
0.113581
0.114526
0.115302
0.115888
0.116248
0.116347
0.116123
0.115486
0.114302
0.1122
0.103356
0.0943947
0.0854553
0.076649
0.0680651
0.0597765
0.0518439
0.0443198
0.0372515
0.0306844
0.0246919
0.0192639
0.0144889
0.0104178
0.00709469
0.00453819
0.00271381
0.00151875
0.000800572
0.000401038
0.000193107
9.04867e-05
4.1452e-05
1.86254e-05
8.22916e-06
3.58261e-06
1.53974e-06
6.54385e-07
2.7544e-07
1.14973e-07
4.76335e-08
1.95843e-08
7.97002e-09
3.18212e-09
1.2139e-09
4.05216e-10
7.1025e-11
3.79339e-07
1.65822e-06
3.8108e-06
7.42252e-06
1.34536e-05
2.34606e-05
3.99334e-05
6.67906e-05
0.000110088
0.00017898
0.000286963
0.000453339
0.00070467
0.00107583
0.00161022
0.00235812
0.00337288
0.00470498
0.00639526
0.0084692
0.0109339
0.0137782
0.0169756
0.0204885
0.0242718
0.0282764
0.0324523
0.0367502
0.0411231
0.0455273
0.0499231
0.0542755
0.058554
0.0627328
0.0667909
0.0707115
0.0744812
0.0780905
0.0815329
0.0848038
0.0879011
0.0908257
0.0935798
0.0961665
0.0985897
0.100854
0.102963
0.104923
0.106736
0.108406
0.109936
0.111324
0.11257
0.113668
0.114608
0.115378
0.115955
0.116306
0.116395
0.116166
0.115538
0.114402
0.11055
0.101673
0.0926803
0.0837197
0.074907
0.066334
0.0580747
0.0501907
0.0427352
0.0357561
0.0292996
0.0234183
0.018142
0.0135341
0.00964115
0.00649968
0.00411578
0.00243952
0.00135653
0.000712648
0.000356807
0.000172089
8.08619e-05
3.71701e-05
1.67645e-05
7.43592e-06
3.24991e-06
1.402e-06
5.97941e-07
2.52482e-07
1.05684e-07
4.3889e-08
1.80803e-08
7.36956e-09
2.94596e-09
1.12482e-09
3.75682e-10
6.58585e-11
3.80425e-07
1.66287e-06
3.82113e-06
7.44169e-06
1.3486e-05
2.3512e-05
4.00104e-05
6.68993e-05
0.000110226
0.000179125
0.000287036
0.000453128
0.000703759
0.00107357
0.00160559
0.00234967
0.00335872
0.00468292
0.00636304
0.00842477
0.0108757
0.0137055
0.0168885
0.0203878
0.0241591
0.0281539
0.0323228
0.0366167
0.0409887
0.0453952
0.0497963
0.0541567
0.0584456
0.062637
0.0667095
0.0706461
0.0744331
0.0780593
0.0815173
0.0848033
0.0879159
0.0908553
0.093623
0.0962222
0.0986564
0.10093
0.103048
0.105014
0.106832
0.108506
0.110037
0.111425
0.112669
0.113763
0.114699
0.115461
0.11603
0.11637
0.116447
0.116204
0.115559
0.114399
0.108702
0.0998318
0.0908413
0.0818879
0.0730936
0.0645538
0.0563447
0.048529
0.0411602
0.0342864
0.0279564
0.0222054
0.0170857
0.0126463
0.00892926
0.00596313
0.00374156
0.00220067
0.00121723
0.000637785
0.000319221
0.00015416
7.2588e-05
3.34485e-05
1.51246e-05
6.72541e-06
2.94635e-06
1.27382e-06
5.4434e-07
2.30246e-07
9.65208e-08
4.01345e-08
1.65508e-08
6.7517e-09
2.70065e-09
1.0316e-09
3.44626e-10
6.04105e-11
3.80688e-07
1.66395e-06
3.82332e-06
7.44513e-06
1.34903e-05
2.35149e-05
4.00044e-05
6.68649e-05
0.000110121
0.000178865
0.000286466
0.000451992
0.000701653
0.00106988
0.00159944
0.00233992
0.003344
0.00466172
0.0063339
0.00838646
0.0108274
0.0136469
0.0168199
0.0203101
0.0240736
0.0280625
0.0322275
0.0365198
0.0408928
0.0453026
0.0497094
0.0540778
0.0583767
0.0625802
0.0666662
0.0706166
0.0744167
0.0780562
0.0815282
0.0848283
0.0879543
0.0909063
0.0936857
0.0962952
0.0987386
0.10102
0.103144
0.105115
0.106936
0.108611
0.110141
0.111527
0.112766
0.113854
0.11478
0.115532
0.116086
0.116409
0.116469
0.116208
0.11554
0.114358
0.106897
0.0980512
0.0890677
0.0801242
0.071352
0.0628507
0.0546975
0.0469551
0.0396763
0.0329083
0.026714
0.0210957
0.0161241
0.0118434
0.00829028
0.00548514
0.00341018
0.00198965
0.00109379
0.00057086
0.000285162
0.000137694
6.4884e-05
2.99389e-05
1.35609e-05
6.04175e-06
2.65221e-06
1.14898e-06
4.91949e-07
2.08466e-07
8.75352e-08
3.64512e-08
1.50505e-08
6.14577e-09
2.46013e-09
9.40209e-10
3.14177e-10
5.50684e-11
3.80447e-07
1.66283e-06
3.82048e-06
7.43881e-06
1.34769e-05
2.34874e-05
3.99494e-05
6.67574e-05
0.000109916
0.000178483
0.000285772
0.000450769
0.000699562
0.00106642
0.00159392
0.00233146
0.00333155
0.00464418
0.00631024
0.0083559
0.0107895
0.0136017
0.0167678
0.020252
0.0240108
0.0279966
0.0321602
0.0364531
0.0408286
0.0452429
0.0496563
0.0540332
0.058342
0.0625559
0.0666523
0.0706136
0.0744257
0.0780778
0.0815621
0.0848742
0.0880115
0.0909739
0.0937627
0.0963805
0.098831
0.101118
0.103246
0.105219
0.107042
0.108715
0.110242
0.111623
0.112853
0.113929
0.11484
0.115572
0.116103
0.116398
0.11643
0.116144
0.115471
0.114343
0.105607
0.0965985
0.0875251
0.0785424
0.0697684
0.061294
0.0531912
0.0455186
0.038326
0.0316583
0.0255839
0.0200891
0.0152578
0.0111267
0.00772572
0.00506766
0.00312415
0.00180949
0.000989281
0.00051447
0.000256497
0.000123805
5.83573e-05
2.6947e-05
1.22179e-05
5.44966e-06
2.39525e-06
1.03897e-06
4.45403e-07
1.88968e-07
7.94365e-08
3.3112e-08
1.36836e-08
5.59149e-09
2.23938e-09
8.5612e-10
2.86115e-10
5.01404e-11
3.79905e-07
1.66041e-06
3.8147e-06
7.42689e-06
1.34538e-05
2.34441e-05
3.98698e-05
6.66135e-05
0.00010966
0.000178036
0.000285007
0.000449489
0.000697473
0.00106311
0.00158885
0.00232396
0.00332088
0.00462959
0.00629111
0.00833181
0.0107604
0.0135677
0.0167296
0.0202104
0.0239669
0.0279518
0.032116
0.036411
0.0407905
0.0452104
0.0496307
0.054015
0.0583317
0.0625542
0.0666606
0.0706326
0.0744556
0.0781184
0.0816133
0.0849352
0.0880817
0.0910525
0.0938487
0.0964729
0.0989284
0.101219
0.10335
0.105324
0.107145
0.108816
0.110337
0.111709
0.112928
0.113987
0.114875
0.115575
0.116061
0.116292
0.116238
0.115823
0.114963
0.113571
0.104519
0.0953234
0.0861471
0.077119
0.0683406
0.0598922
0.0518388
0.0442339
0.0371236
0.0305489
0.0245705
0.0191905
0.0144867
0.0104939
0.00723413
0.00470831
0.00288013
0.00165669
0.000900855
0.000466705
0.00023212
0.000111935
5.27484e-05
2.43617e-05
1.10513e-05
4.93295e-06
2.17005e-06
9.42202e-07
4.04328e-07
1.71715e-07
7.22533e-08
3.01445e-08
1.24668e-08
5.0974e-09
2.04238e-09
7.81017e-10
2.61037e-10
4.57346e-11
3.79259e-07
1.65756e-06
3.80798e-06
7.41337e-06
1.34283e-05
2.33976e-05
3.97869e-05
6.64684e-05
0.00010941
0.000177611
0.0002843
0.000448337
0.000695642
0.00106028
0.0015846
0.00231781
0.0033123
0.00461811
0.00627636
0.00831362
0.0107388
0.0135432
0.0167027
0.020182
0.0239381
0.0279237
0.0320901
0.0363887
0.0407726
0.0451978
0.0496238
0.0540148
0.0583396
0.062571
0.0666866
0.070668
0.0745003
0.0781722
0.0816757
0.0850057
0.0881597
0.091137
0.0939388
0.0965676
0.0990266
0.10132
0.103451
0.105425
0.107243
0.10891
0.110426
0.111789
0.112995
0.114038
0.114903
0.115572
0.116013
0.116184
0.116036
0.115475
0.114372
0.112561
0.103362
0.0940736
0.0848491
0.0758077
0.0670435
0.0586317
0.0506334
0.0430998
0.0360757
0.0296034
0.0237393
0.0184954
0.0138869
0.00998474
0.00682463
0.00440721
0.00267572
0.00152894
0.000827038
0.000426842
0.000211751
0.000101994
4.80359e-05
2.21819e-05
1.0064e-05
4.49387e-06
1.97795e-06
8.59344e-07
3.69034e-07
1.56841e-07
6.60432e-08
2.75724e-08
1.14099e-08
4.66748e-09
1.87074e-09
7.15514e-10
2.39155e-10
4.1886e-11
3.78614e-07
1.65472e-06
3.80135e-06
7.40017e-06
1.34037e-05
2.33534e-05
3.97091e-05
6.6334e-05
0.000109182
0.000177231
0.000283678
0.000447342
0.000694089
0.00105792
0.00158115
0.0023129
0.00330561
0.00460935
0.00626536
0.00830042
0.0107236
0.0135265
0.0166851
0.0201643
0.0239214
0.027909
0.0320782
0.0363803
0.0407683
0.0451986
0.0496309
0.0540291
0.0583615
0.0626008
0.0667244
0.0707139
0.0745542
0.0782336
0.0817442
0.0850808
0.0882405
0.0912229
0.0940288
0.0966608
0.0991219
0.101416
0.103547
0.105519
0.107336
0.108998
0.110508
0.111864
0.113061
0.114092
0.114943
0.115596
0.116018
0.116172
0.116011
0.115453
0.114392
0.111431
0.102185
0.0928708
0.0836391
0.0746085
0.0658718
0.0575026
0.0495608
0.042097
0.0351555
0.0287804
0.0230086
0.017845
0.0133626
0.00956895
0.00649033
0.00415346
0.00250322
0.0014213
0.000764968
0.000393357
0.000194638
9.36338e-05
4.40677e-05
2.03431e-05
9.22948e-06
4.12205e-06
1.81494e-06
7.88899e-07
3.38969e-07
1.44149e-07
6.07352e-08
2.53708e-08
1.05041e-08
4.29862e-09
1.72335e-09
6.59239e-10
2.20354e-10
3.85756e-11
3.78031e-07
1.65216e-06
3.7954e-06
7.3884e-06
1.33819e-05
2.33145e-05
3.96415e-05
6.62185e-05
0.000108988
0.000176912
0.000283164
0.000446531
0.000692843
0.00105606
0.00157846
0.00230917
0.00330062
0.00460297
0.00625758
0.00829136
0.0107136
0.0135159
0.0166748
0.020155
0.0239137
0.0279036
0.0320756
0.0363814
0.0407743
0.0452101
0.0496486
0.0540533
0.0583924
0.0626387
0.0667694
0.0707658
0.0746126
0.0782983
0.0818147
0.0851563
0.0883205
0.0913065
0.0941154
0.0967493
0.0992116
0.101506
0.103636
0.105607
0.10742
0.109078
0.110583
0.111932
0.113122
0.114144
0.114986
0.115629
0.116041
0.116188
0.116022
0.115466
0.114419
0.110268
0.10103
0.0917308
0.0825224
0.0735233
0.064827
0.056507
0.0486233
0.041226
0.0343567
0.0280517
0.0223258
0.0172409
0.0128369
0.00914524
0.00618761
0.00393445
0.00235436
0.00132948
0.000712463
0.000365194
0.000180295
8.66375e-05
4.07479e-05
1.88041e-05
8.53044e-06
3.81019e-06
1.67802e-06
7.29634e-07
3.13636e-07
1.33438e-07
5.62494e-08
2.3508e-08
9.73688e-09
3.98596e-09
1.59834e-09
6.11474e-10
2.04386e-10
3.57657e-11
3.77536e-07
1.64999e-06
3.79037e-06
7.37847e-06
1.33637e-05
2.32822e-05
3.95855e-05
6.61237e-05
0.000108831
0.000176655
0.000282755
0.000445894
0.00069188
0.00105465
0.00157646
0.00230645
0.00329708
0.00459857
0.0062524
0.00828562
0.0107077
0.0135103
0.01667
0.0201516
0.0239121
0.0279045
0.0320801
0.0363901
0.0407876
0.0452287
0.0496727
0.0540832
0.0584284
0.0626807
0.0668174
0.0708195
0.0746718
0.0783626
0.0818834
0.085229
0.0883965
0.0913851
0.0941958
0.0968308
0.0992933
0.101587
0.103716
0.105684
0.107494
0.109148
0.110647
0.11199
0.113173
0.114188
0.115021
0.115656
0.116059
0.116197
0.116025
0.115464
0.114415
0.109221
0.0999936
0.0907128
0.0815314
0.0725698
0.0639208
0.0556552
0.0478309
0.0404853
0.0336613
0.0273953
0.0217364
0.0167246
0.0123978
0.00878652
0.00590819
0.00374831
0.0022285
0.00125182
0.000668432
0.0003417
0.000168367
8.08258e-05
3.7991e-05
1.75258e-05
7.94938e-06
3.55072e-06
1.56398e-06
6.80214e-07
2.92485e-07
1.24485e-07
5.24952e-08
2.19472e-08
9.09356e-09
3.72359e-09
1.49336e-09
5.71343e-10
1.90954e-10
3.34058e-11
3.77136e-07
1.64823e-06
3.78631e-06
7.37049e-06
1.3349e-05
2.32564e-05
3.95412e-05
6.60492e-05
0.000108708
0.000176457
0.000282443
0.000445416
0.000691167
0.00105362
0.00157504
0.00230456
0.0032947
0.00459575
0.00624928
0.00828245
0.0107048
0.0135081
0.0166689
0.020152
0.0239149
0.0279103
0.0320894
0.0364033
0.0408053
0.0452511
0.0497
0.0541157
0.0584661
0.0627236
0.0668652
0.0708721
0.0747288
0.0784236
0.0819479
0.0852964
0.0884662
0.0914565
0.0942681
0.0969034
0.0993654
0.101658
0.103785
0.10575
0.107556
0.109206
0.1107
0.112037
0.113213
0.11422
0.115045
0.115671
0.116064
0.116194
0.116014
0.115447
0.114395
0.10832
0.0990956
0.0898305
0.0806776
0.0717531
0.0631373
0.0549018
0.0471028
0.0397969
0.0330244
0.0268232
0.0212292
0.0162845
0.0120268
0.00848587
0.00567673
0.00358067
0.00212715
0.00118871
0.000632149
0.000322359
0.000158561
7.60504e-05
3.57254e-05
1.64747e-05
7.47125e-06
3.33701e-06
1.46995e-06
6.39418e-07
2.75005e-07
1.17076e-07
4.93853e-08
2.0653e-08
8.55955e-09
3.50566e-09
1.40614e-09
5.37979e-10
1.79779e-10
3.14447e-11
3.76824e-07
1.64687e-06
3.78316e-06
7.36431e-06
1.33377e-05
2.32365e-05
3.95074e-05
6.59927e-05
0.000108616
0.00017631
0.000282214
0.00044507
0.000690661
0.00105291
0.00157408
0.00230334
0.00329323
0.00459413
0.00624767
0.0082811
0.010704
0.0135082
0.0166703
0.0201554
0.0239207
0.027919
0.0321013
0.0364189
0.0408249
0.0452748
0.0497281
0.0541482
0.0585029
0.0627646
0.0669104
0.0709211
0.0747813
0.0784791
0.082006
0.0853566
0.0885278
0.091519
0.094331
0.0969659
0.0994269
0.101718
0.103842
0.105804
0.107607
0.109252
0.110741
0.112071
0.11324
0.11424
0.115057
0.115674
0.116058
0.11618
0.115991
0.115417
0.114365
0.107559
0.0983318
0.0890757
0.0799396
0.0710286
0.0624374
0.0542355
0.04648
0.039219
0.0324944
0.0263445
0.0208043
0.0159163
0.0117175
0.00823646
0.00548623
0.00344437
0.00203612
0.00113802
0.000603267
0.000306679
0.000150576
7.2166e-05
3.38827e-05
1.56195e-05
7.08192e-06
3.16282e-06
1.39322e-06
6.06092e-07
2.60709e-07
1.11011e-07
4.68366e-08
1.95913e-08
8.12117e-09
3.32663e-09
1.33447e-09
5.10557e-10
1.70618e-10
2.98386e-11
3.7659e-07
1.64584e-06
3.7808e-06
7.3597e-06
1.33293e-05
2.32219e-05
3.94825e-05
6.59514e-05
0.000108549
0.000176205
0.000282052
0.00044483
0.000690318
0.00105244
0.00157347
0.0023026
0.00329243
0.00459335
0.00624707
0.00828089
0.0107045
0.0135098
0.0166735
0.0201605
0.023928
0.0279289
0.0321142
0.036435
0.0408443
0.0452979
0.0497548
0.0541785
0.0585368
0.062802
0.066951
0.0709646
0.0748274
0.0785274
0.0820561
0.085408
0.0885802
0.0915717
0.0943834
0.0970175
0.0994771
0.101766
0.103888
0.105846
0.107645
0.109285
0.110769
0.112094
0.113256
0.114248
0.115058
0.115667
0.116043
0.116157
0.115962
0.115381
0.114327
0.106927
0.0976916
0.0884418
0.0793141
0.0704239
0.0618584
0.0536869
0.0459655
0.0387418
0.0320571
0.0259497
0.020454
0.0156131
0.0114633
0.00803223
0.00533108
0.00333426
0.00196351
0.00109325
0.000579889
0.000294421
0.000144256
6.90645e-05
3.24079e-05
1.49337e-05
6.7692e-06
3.02269e-06
1.33141e-06
5.79214e-07
2.49168e-07
1.0611e-07
4.47756e-08
1.87322e-08
7.76626e-09
3.18165e-09
1.27642e-09
4.88381e-10
1.63211e-10
2.85403e-11
3.76421e-07
1.6451e-06
3.77909e-06
7.35636e-06
1.33233e-05
2.32114e-05
3.94647e-05
6.59223e-05
0.000108502
0.000176132
0.000281943
0.000444671
0.000690097
0.00105215
0.00157312
0.00230221
0.00329206
0.00459311
0.00624711
0.00828145
0.0107058
0.0135123
0.0166773
0.020166
0.0239356
0.0279388
0.0321266
0.0364501
0.0408623
0.0453187
0.0497786
0.0542053
0.0585664
0.0628342
0.0669856
0.0710014
0.074866
0.0785675
0.0820974
0.08545
0.0886224
0.0916138
0.0944248
0.0970577
0.0995157
0.101802
0.103921
0.105876
0.107671
0.109307
0.110785
0.112104
0.11326
0.114246
0.115049
0.115651
0.116023
0.116134
0.11594
0.11537
0.114345
0.106413
0.0971683
0.0879187
0.0788033
0.069931
0.0613877
0.0532416
0.0455486
0.0383555
0.0317036
0.0256306
0.0201712
0.0153686
0.0112586
0.00786826
0.00520699
0.00324665
0.00190619
0.00105837
0.000559843
0.000284417
0.000139409
6.66654e-05
3.12494e-05
1.43915e-05
6.52138e-06
2.91157e-06
1.28238e-06
5.57883e-07
2.40006e-07
1.02219e-07
4.31396e-08
1.80504e-08
7.48469e-09
3.06678e-09
1.23047e-09
4.70828e-10
1.57348e-10
2.75132e-11
3.76302e-07
1.64458e-06
3.7779e-06
7.35404e-06
1.33191e-05
2.32041e-05
3.94525e-05
6.59024e-05
0.000108471
0.000176084
0.000281871
0.00044457
0.000689961
0.00105198
0.00157293
0.00230204
0.00329196
0.00459318
0.00624752
0.00828237
0.0107075
0.0135149
0.0166811
0.0201713
0.0239426
0.0279476
0.0321375
0.0364632
0.0408776
0.0453363
0.0497985
0.0542273
0.0585905
0.0628602
0.0670133
0.0710305
0.0748963
0.0785987
0.0821292
0.085482
0.0886543
0.0916451
0.0944553
0.0970868
0.0995429
0.101827
0.103943
0.105895
0.107685
0.109317
0.11079
0.112103
0.113254
0.114233
0.115029
0.115625
0.11599
0.116097
0.115899
0.115327
0.114305
0.106018
0.0967607
0.0875093
0.0784012
0.0695423
0.0610166
0.0528911
0.0452209
0.0380523
0.0314265
0.025381
0.0199503
0.0151779
0.0110993
0.00774091
0.0051109
0.00317904
0.00186212
0.00103167
0.00054461
0.000276031
0.000135167
6.47099e-05
3.0338e-05
1.39687e-05
6.32852e-06
2.82517e-06
1.24433e-06
5.4138e-07
2.32936e-07
9.92238e-08
4.18833e-08
1.75283e-08
7.26958e-09
2.97908e-09
1.1954e-09
4.57431e-10
1.52875e-10
2.67299e-11
3.76223e-07
1.64424e-06
3.77711e-06
7.3525e-06
1.33163e-05
2.31993e-05
3.94445e-05
6.58894e-05
0.00010845
0.000176053
0.000281827
0.000444508
0.000689882
0.00105189
0.00157284
0.00230198
0.00329199
0.00459339
0.00624802
0.00828331
0.010709
0.0135172
0.0166844
0.0201757
0.0239483
0.0279548
0.0321461
0.0364735
0.0408896
0.0453499
0.0498137
0.0542441
0.0586086
0.0628796
0.0670336
0.0710517
0.0749181
0.0786209
0.0821514
0.0855042
0.0886761
0.0916662
0.0944752
0.0971053
0.0995595
0.101841
0.103955
0.105903
0.10769
0.109317
0.110786
0.112094
0.113238
0.114211
0.115002
0.115592
0.115951
0.116053
0.115853
0.115283
0.11427
0.105725
0.0964535
0.0872004
0.078098
0.0692498
0.060738
0.0526287
0.0449763
0.0378267
0.0312209
0.0251961
0.019787
0.0150372
0.0109821
0.00764748
0.00504065
0.00312981
0.00183016
0.00101239
0.000533714
0.000270193
0.000132197
6.32336e-05
2.96593e-05
1.36623e-05
6.19032e-06
2.76361e-06
1.21727e-06
5.29631e-07
2.27898e-07
9.70872e-08
4.0986e-08
1.71547e-08
7.11542e-09
2.91617e-09
1.17023e-09
4.47808e-10
1.4966e-10
2.61674e-11
3.76176e-07
1.64403e-06
3.77663e-06
7.35157e-06
1.33146e-05
2.31964e-05
3.94397e-05
6.58817e-05
0.000108438
0.000176035
0.000281801
0.000444473
0.000689839
0.00105185
0.0015728
0.00230198
0.00329206
0.00459359
0.00624844
0.00828404
0.0107102
0.0135189
0.0166868
0.0201788
0.0239523
0.0279597
0.0321521
0.0364805
0.0408977
0.0453591
0.0498239
0.0542552
0.0586206
0.0628922
0.0670467
0.071065
0.0749315
0.0786343
0.0821647
0.0855172
0.0886885
0.0916778
0.0944858
0.0971146
0.0995671
0.101847
0.103958
0.105904
0.107688
0.109311
0.110775
0.112079
0.113218
0.114186
0.114971
0.115556
0.11591
0.11601
0.11581
0.115244
0.114243
0.105532
0.0962461
0.0869894
0.0778904
0.0690499
0.0605485
0.0524511
0.0448115
0.0376754
0.0310835
0.0250731
0.0196788
0.0149443
0.0109049
0.00758625
0.00499483
0.00309787
0.00180953
0.000999991
0.000526706
0.000266442
0.000130321
6.23151e-05
2.92135e-05
1.34547e-05
6.09802e-06
2.72299e-06
1.19957e-06
5.22006e-07
2.24647e-07
9.57142e-08
4.04108e-08
1.69155e-08
7.01673e-09
2.87588e-09
1.15411e-09
4.41641e-10
1.47598e-10
2.58069e-11
3.76155e-07
1.64394e-06
3.77642e-06
7.35115e-06
1.33139e-05
2.31951e-05
3.94376e-05
6.58782e-05
0.000108433
0.000176027
0.000281789
0.000444458
0.000689821
0.00105183
0.00157279
0.00230198
0.00329211
0.00459371
0.00624866
0.00828442
0.0107108
0.0135197
0.016688
0.0201804
0.0239543
0.0279622
0.0321551
0.036484
0.0409017
0.0453637
0.0498289
0.0542607
0.0586264
0.0628983
0.067053
0.0710712
0.0749376
0.0786402
0.0821703
0.0855224
0.0886934
0.0916821
0.0944894
0.0971173
0.0995688
0.101847
0.103957
0.105901
0.107682
0.109304
0.110765
0.112066
0.113202
0.114166
0.114947
0.115528
0.115879
0.115977
0.115777
0.115216
0.114229
0.105437
0.0961379
0.0868779
0.0777808
0.0689452
0.0604501
0.0523598
0.0447276
0.0375991
0.0310149
0.0250122
0.0196256
0.0148991
0.0108677
0.0075569
0.00497305
0.00308282
0.0017999
0.000994237
0.000523466
0.000264709
0.00012946
6.18969e-05
2.90139e-05
1.33611e-05
6.05454e-06
2.70348e-06
1.19102e-06
5.18314e-07
2.23073e-07
9.50498e-08
4.01327e-08
1.68e-08
6.96907e-09
2.85643e-09
1.14632e-09
4.38658e-10
1.46598e-10
2.56328e-11
3.76159e-07
1.64395e-06
3.77646e-06
7.35122e-06
1.3314e-05
2.31953e-05
3.94379e-05
6.58789e-05
0.000108434
0.000176029
0.000281792
0.000444463
0.000689827
0.00105184
0.0015728
0.002302
0.00329213
0.00459374
0.0062487
0.00828447
0.0107108
0.0135198
0.016688
0.0201805
0.0239544
0.0279623
0.0321552
0.0364841
0.0409018
0.0453638
0.0498291
0.0542608
0.0586265
0.0628984
0.0670531
0.0710713
0.0749377
0.0786402
0.0821704
0.0855225
0.0886934
0.0916822
0.0944895
0.0971174
0.0995688
0.101847
0.103957
0.105901
0.107682
0.109304
0.110765
0.112066
0.113202
0.114166
0.114947
0.115528
0.115879
0.115977
0.115777
0.115216
0.114229
0.105437
0.0961376
0.0868776
0.0777806
0.068945
0.0604499
0.0523596
0.0447275
0.037599
0.0310147
0.0250121
0.0196256
0.014899
0.0108676
0.00755685
0.00497301
0.0030828
0.00179988
0.000994227
0.000523461
0.000264706
0.000129459
6.18961e-05
2.90135e-05
1.33609e-05
6.05446e-06
2.70345e-06
1.19101e-06
5.18308e-07
2.23071e-07
9.50488e-08
4.01322e-08
1.67998e-08
6.969e-09
2.8564e-09
1.14631e-09
4.38653e-10
1.46592e-10
2.56334e-11
3.76187e-07
1.64408e-06
3.77674e-06
7.35178e-06
1.3315e-05
2.3197e-05
3.94408e-05
6.58835e-05
0.000108441
0.00017604
0.000281808
0.000444485
0.000689857
0.00105187
0.00157284
0.00230203
0.00329214
0.00459369
0.00624856
0.00828419
0.0107104
0.0135191
0.016687
0.0201791
0.0239525
0.02796
0.0321524
0.0364809
0.040898
0.0453595
0.0498242
0.0542555
0.0586209
0.0628925
0.067047
0.0710653
0.0749318
0.0786346
0.082165
0.0855174
0.0886887
0.091678
0.094486
0.0971148
0.0995673
0.101847
0.103958
0.105904
0.107688
0.109311
0.110775
0.112079
0.113218
0.114186
0.114971
0.115556
0.11591
0.116009
0.11581
0.115244
0.114243
0.105532
0.0962453
0.0869887
0.0778898
0.0690493
0.0605479
0.0524506
0.0448111
0.037675
0.0310832
0.0250728
0.0196785
0.0149441
0.0109047
0.0075861
0.00499472
0.0030978
0.00180948
0.000999962
0.00052669
0.000266433
0.000130316
6.23128e-05
2.92124e-05
1.34542e-05
6.09778e-06
2.7229e-06
1.19953e-06
5.21988e-07
2.2464e-07
9.57109e-08
4.04094e-08
1.69149e-08
7.01649e-09
2.87579e-09
1.15408e-09
4.41626e-10
1.47582e-10
2.58087e-11
3.76241e-07
1.64432e-06
3.77729e-06
7.35285e-06
1.33169e-05
2.32004e-05
3.94464e-05
6.58925e-05
0.000108455
0.000176061
0.000281839
0.000444528
0.000689912
0.00105194
0.0015729
0.00230207
0.00329212
0.00459356
0.00624823
0.00828357
0.0107093
0.0135175
0.0166848
0.0201762
0.0239487
0.0279553
0.0321467
0.036474
0.0408901
0.0453505
0.0498143
0.0542446
0.0586092
0.0628801
0.0670341
0.0710522
0.0749186
0.0786213
0.0821519
0.0855046
0.0886765
0.0916665
0.0944755
0.0971056
0.0995598
0.101842
0.103955
0.105904
0.10769
0.109318
0.110786
0.112094
0.113238
0.114211
0.115002
0.115592
0.115951
0.116053
0.115853
0.115283
0.114269
0.105724
0.0964522
0.0871992
0.0780968
0.0692487
0.060737
0.0526279
0.0449755
0.037826
0.0312202
0.0251956
0.0197865
0.0150368
0.0109817
0.00764722
0.00504045
0.00312967
0.00183007
0.00101234
0.000533683
0.000270176
0.000132189
6.32292e-05
2.96572e-05
1.36613e-05
6.18989e-06
2.7634e-06
1.21718e-06
5.29592e-07
2.27882e-07
9.70803e-08
4.09831e-08
1.71535e-08
7.11494e-09
2.91598e-09
1.17018e-09
4.47781e-10
1.49633e-10
2.61701e-11
3.76327e-07
1.64469e-06
3.77815e-06
7.35453e-06
1.332e-05
2.32056e-05
3.94551e-05
6.59067e-05
0.000108478
0.000176095
0.000281889
0.000444597
0.000690003
0.00105205
0.00157302
0.00230216
0.00329213
0.00459341
0.00624781
0.00828273
0.0107079
0.0135154
0.0166817
0.0201719
0.0239432
0.0279483
0.0321382
0.0364639
0.0408784
0.0453371
0.0497993
0.0542281
0.0585913
0.062861
0.067014
0.0710312
0.074897
0.0785994
0.0821298
0.0854826
0.0886549
0.0916457
0.0944558
0.0970873
0.0995433
0.101827
0.103944
0.105895
0.107686
0.109317
0.11079
0.112104
0.113254
0.114233
0.115029
0.115625
0.11599
0.116097
0.115899
0.115327
0.114305
0.106016
0.0967589
0.0875076
0.0783996
0.0695409
0.0610152
0.0528899
0.0452198
0.0380513
0.0314257
0.0253802
0.0199496
0.0151773
0.0110988
0.00774054
0.00511062
0.00317885
0.00186199
0.0010316
0.000544566
0.000276007
0.000135155
6.47038e-05
3.03353e-05
1.39674e-05
6.3279e-06
2.82488e-06
1.24421e-06
5.41324e-07
2.32913e-07
9.92139e-08
4.18793e-08
1.75266e-08
7.2689e-09
2.97883e-09
1.19533e-09
4.57394e-10
1.52837e-10
2.67337e-11
3.76452e-07
1.64524e-06
3.77941e-06
7.35698e-06
1.33244e-05
2.32133e-05
3.9468e-05
6.59277e-05
0.000108511
0.000176146
0.000281965
0.000444706
0.00069015
0.00105223
0.00157323
0.00230237
0.00329228
0.0045934
0.00624749
0.00828191
0.0107064
0.0135129
0.016678
0.0201668
0.0239364
0.0279397
0.0321275
0.0364511
0.0408633
0.0453197
0.0497796
0.0542063
0.0585674
0.0628352
0.0669865
0.0710023
0.0748669
0.0785684
0.0820982
0.0854508
0.0886232
0.0916144
0.0944255
0.0970583
0.0995162
0.101803
0.103922
0.105877
0.107671
0.109307
0.110785
0.112104
0.11326
0.114246
0.115049
0.115652
0.116023
0.116134
0.11594
0.11537
0.114344
0.10641
0.0971659
0.0879165
0.0788012
0.0699291
0.0613859
0.05324
0.0455471
0.0383542
0.0317024
0.0256296
0.0201703
0.0153679
0.011258
0.00786777
0.00520662
0.00324639
0.00190603
0.00105827
0.000559788
0.000284388
0.000139395
6.66587e-05
3.12461e-05
1.43899e-05
6.52066e-06
2.91125e-06
1.28224e-06
5.57823e-07
2.3998e-07
1.02208e-07
4.31349e-08
1.80485e-08
7.48386e-09
3.06647e-09
1.23037e-09
4.70784e-10
1.57301e-10
2.7518e-11
3.76629e-07
1.64601e-06
3.78119e-06
7.36045e-06
1.33307e-05
2.32242e-05
3.94865e-05
6.5958e-05
0.00010856
0.000176222
0.00028208
0.000444873
0.000690383
0.00105254
0.00157361
0.0023028
0.00329269
0.0045937
0.00624753
0.00828145
0.0107052
0.0135106
0.0166743
0.0201614
0.023929
0.02793
0.0321153
0.0364362
0.0408456
0.0452991
0.049756
0.0541798
0.058538
0.0628032
0.0669521
0.0709658
0.0748285
0.0785285
0.0820571
0.085409
0.0885811
0.0915725
0.0943842
0.0970182
0.0994778
0.101767
0.103888
0.105847
0.107645
0.109286
0.110769
0.112094
0.113256
0.114248
0.115058
0.115667
0.116043
0.116157
0.115962
0.115381
0.114327
0.106923
0.0976887
0.088439
0.0793115
0.0704216
0.0618563
0.0536849
0.0459637
0.0387401
0.0320557
0.0259484
0.0204529
0.0156122
0.0114625
0.00803161
0.00533063
0.00333394
0.00196331
0.00109313
0.000579821
0.000294387
0.000144239
6.9056e-05
3.24038e-05
1.49318e-05
6.76834e-06
3.02231e-06
1.33125e-06
5.7914e-07
2.49135e-07
1.06096e-07
4.47697e-08
1.87297e-08
7.7652e-09
3.18126e-09
1.2763e-09
4.88327e-10
1.63155e-10
2.8546e-11
3.76869e-07
1.64706e-06
3.78361e-06
7.36519e-06
1.33393e-05
2.32393e-05
3.95121e-05
6.60005e-05
0.000108628
0.00017633
0.000282246
0.00044512
0.000690737
0.00105303
0.00157424
0.00230357
0.00329355
0.00459454
0.0062482
0.00828175
0.0107047
0.0135091
0.0166714
0.0201566
0.0239219
0.0279203
0.0321027
0.0364204
0.0408263
0.0452763
0.0497296
0.0541496
0.0585043
0.0627661
0.0669118
0.0709224
0.0747826
0.0784803
0.0820072
0.0853577
0.0885289
0.0915201
0.0943319
0.0969668
0.0994278
0.101719
0.103843
0.105805
0.107607
0.109252
0.110741
0.112072
0.113241
0.11424
0.115057
0.115674
0.116059
0.11618
0.115991
0.115417
0.114365
0.107556
0.0983282
0.0890723
0.0799365
0.0710257
0.0624347
0.0542331
0.0464778
0.039217
0.0324926
0.026343
0.020803
0.0159152
0.0117165
0.0082357
0.00548566
0.00344397
0.00203586
0.00113786
0.000603183
0.000306634
0.000150553
7.21547e-05
3.38774e-05
1.5617e-05
7.08082e-06
3.16233e-06
1.393e-06
6.05996e-07
2.60668e-07
1.10993e-07
4.68291e-08
1.95881e-08
8.11983e-09
3.32613e-09
1.33431e-09
5.10488e-10
1.70551e-10
2.98445e-11
3.77188e-07
1.64846e-06
3.78683e-06
7.3715e-06
1.33509e-05
2.32595e-05
3.95466e-05
6.60581e-05
0.000108722
0.000176481
0.00028248
0.000445474
0.000691255
0.00105376
0.00157523
0.00230483
0.00329507
0.00459623
0.00624988
0.0082832
0.0107057
0.0135092
0.01667
0.0201533
0.0239163
0.0279118
0.0320909
0.036405
0.040807
0.0452528
0.0497018
0.0541175
0.0584678
0.0627252
0.0668668
0.0708737
0.0747304
0.078425
0.0819493
0.0852978
0.0884675
0.0914577
0.0942693
0.0969045
0.0993664
0.101659
0.103786
0.105751
0.107557
0.109207
0.110701
0.112038
0.113213
0.11422
0.115046
0.115671
0.116065
0.116194
0.116014
0.115447
0.114395
0.108315
0.0990914
0.0898265
0.0806739
0.0717497
0.0631341
0.0548989
0.0471002
0.0397946
0.0330223
0.0268214
0.0212276
0.0162831
0.0120257
0.00848496
0.00567604
0.00358018
0.00212683
0.00118852
0.000632037
0.000322299
0.000158531
7.6036e-05
3.57186e-05
1.64715e-05
7.46983e-06
3.33638e-06
1.46967e-06
6.39296e-07
2.74952e-07
1.17054e-07
4.93758e-08
2.0649e-08
8.55789e-09