/*--------------------------------*- C++ -*----------------------------------*\
  =========                 |
  \\      /  F ield         | OpenFOAM: The Open Source CFD Toolbox
   \\    /   O peration     | Website:  https://openfoam.org
    \\  /    A nd           | Version:  8
     \\/     M anipulation  |
\*---------------------------------------------------------------------------*/
FoamFile
{
    version     2.0;
    format      ascii;
    class       volScalarField;
    location    "480/fluid";
    object      N2;
}
// * * * * * * * * * * * * * * * * * * * * * * * * * * * * * * * * * * * * * //

dimensions      [0 0 0 0 0 0 0];

internalField   nonuniform List<scalar> 
4000
(
2.21051e-06
9.6577e-06
2.21726e-05
4.31326e-05
7.80814e-05
0.000136028
0.000231444
0.000387243
0.000639102
0.00104145
0.00167532
0.00265771
0.00415143
0.00637263
0.00959212
0.014125
0.020307
0.0284496
0.0387997
0.0515006
0.0665749
0.0839296
0.103378
0.124667
0.147507
0.171589
0.196607
0.222264
0.248283
0.27441
0.300419
0.32611
0.351313
0.375888
0.399719
0.422717
0.444811
0.465952
0.486108
0.505262
0.523413
0.540568
0.556743
0.571965
0.586261
0.599665
0.612215
0.62395
0.63491
0.645135
0.654667
0.663546
0.671811
0.6795
0.686649
0.693295
0.699471
0.705189
0.710383
0.715345
0.719956
0.724243
0.728177
0.73195
0.735557
0.739004
0.742294
0.745427
0.748402
0.751217
0.753869
0.756351
0.758657
0.760769
0.762694
0.76441
0.7659
0.767146
0.768135
0.768865
0.769358
0.769661
0.769831
0.76992
0.769963
0.769983
0.769993
0.769997
0.769999
0.769999
0.77
0.77
0.77
0.77
0.77
0.77
0.77
0.77
0.77
0.77
2.22354e-06
9.71777e-06
2.23242e-05
4.3464e-05
7.87569e-05
0.000137337
0.000233863
0.0003915
0.00064621
0.00105264
0.00169171
0.00267963
0.00417701
0.00639569
0.00960068
0.0141003
0.0202202
0.0282698
0.0384955
0.051046
0.0659549
0.0831423
0.102435
0.12359
0.146325
0.170337
0.195319
0.220972
0.247017
0.273194
0.299272
0.325048
0.350347
0.375023
0.39896
0.422063
0.444262
0.465503
0.485753
0.504996
0.523228
0.540459
0.556705
0.571987
0.586336
0.599788
0.612378
0.624148
0.635138
0.645388
0.654941
0.663836
0.672115
0.679814
0.686971
0.693623
0.699804
0.705508
0.710708
0.715675
0.720289
0.724577
0.728505
0.73228
0.735891
0.739342
0.742636
0.745773
0.748751
0.751568
0.754219
0.756698
0.758998
0.761097
0.763004
0.764695
0.76615
0.767354
0.768293
0.768973
0.769423
0.769696
0.769848
0.769927
0.769966
0.769985
0.769993
0.769997
0.769999
0.769999
0.77
0.77
0.77
0.77
0.77
0.77
0.77
0.77
0.77
0.77
2.24445e-06
9.81139e-06
2.25487e-05
4.39231e-05
7.96243e-05
0.000138885
0.000236491
0.000395751
0.000652742
0.00106211
0.00170453
0.00269552
0.00419465
0.00641282
0.00961143
0.0140926
0.0201759
0.0281641
0.0383009
0.0507361
0.065508
0.0825449
0.101683
0.122692
0.145298
0.169204
0.194108
0.219716
0.245746
0.271938
0.298058
0.323898
0.349279
0.374053
0.398097
0.421315
0.443631
0.464989
0.485355
0.504712
0.523055
0.540387
0.556722
0.572086
0.586511
0.60003
0.61268
0.624502
0.635537
0.645825
0.65541
0.664332
0.672631
0.680346
0.687514
0.694172
0.700354
0.706022
0.711214
0.71618
0.720796
0.72509
0.729025
0.732809
0.736426
0.73988
0.743174
0.746308
0.749279
0.752086
0.754721
0.75718
0.759452
0.761517
0.763383
0.765023
0.766421
0.767563
0.768441
0.769068
0.769478
0.769725
0.769862
0.769934
0.769969
0.769986
0.769994
0.769997
0.769999
0.769999
0.77
0.77
0.77
0.77
0.77
0.77
0.77
0.77
0.77
0.77
2.25757e-06
9.86855e-06
2.26792e-05
4.41737e-05
8.00662e-05
0.000139621
0.000237655
0.000397489
0.00065516
0.00106515
0.00170778
0.0026979
0.0041936
0.0064024
0.00958259
0.0140334
0.0200723
0.0279996
0.0380584
0.0504002
0.0650669
0.0819925
0.10102
0.121923
0.144435
0.168263
0.193109
0.218681
0.244698
0.2709
0.297052
0.322945
0.348396
0.373254
0.397393
0.420714
0.443139
0.464612
0.485095
0.504564
0.523007
0.540434
0.556861
0.572311
0.586814
0.600403
0.613117
0.624994
0.636076
0.646405
0.656023
0.664973
0.673293
0.681024
0.688204
0.69487
0.701056
0.706718
0.711902
0.716861
0.721458
0.725723
0.729663
0.733449
0.737065
0.740516
0.743802
0.746923
0.749878
0.752663
0.755271
0.757696
0.759929
0.761954
0.763768
0.765351
0.766688
0.767767
0.768586
0.769162
0.769534
0.769755
0.769877
0.769941
0.769972
0.769987
0.769994
0.769997
0.769999
0.77
0.77
0.77
0.77
0.77
0.77
0.77
0.77
0.77
0.77
0.77
2.26407e-06
9.89643e-06
2.27412e-05
4.42886e-05
8.02607e-05
0.00013993
0.000238117
0.000398142
0.000655995
0.00106603
0.00170823
0.00269668
0.00418824
0.00638904
0.00955516
0.0139833
0.0199883
0.0278686
0.037867
0.0501362
0.0647213
0.0815606
0.100502
0.121324
0.143765
0.167535
0.19234
0.217888
0.2439
0.270116
0.296299
0.322239
0.347753
0.372686
0.396911
0.420329
0.442856
0.46443
0.485007
0.504567
0.523104
0.540622
0.557134
0.572663
0.587238
0.600892
0.613663
0.62559
0.636716
0.647081
0.656729
0.665701
0.674039
0.681782
0.688969
0.695638
0.701823
0.707465
0.712625
0.717558
0.722133
0.726386
0.730338
0.734124
0.737735
0.741177
0.744449
0.747553
0.750485
0.753242
0.755817
0.758204
0.760391
0.762371
0.76413
0.765655
0.766932
0.767951
0.768714
0.769244
0.769582
0.769781
0.76989
0.769947
0.769975
0.769989
0.769995
0.769998
0.769999
0.77
0.77
0.77
0.77
0.77
0.77
0.77
0.77
0.77
0.77
0.77
2.26568e-06
9.90301e-06
2.27546e-05
4.43098e-05
8.02872e-05
0.000139948
0.000238085
0.000397943
0.000655379
0.0010645
0.00170487
0.00268997
0.00417577
0.00636717
0.00951873
0.0139255
0.0199009
0.0277428
0.037694
0.0499088
0.0644345
0.0812127
0.100094
0.120863
0.143257
0.166992
0.191774
0.217313
0.243331
0.269567
0.295785
0.321772
0.347346
0.372351
0.396657
0.420157
0.442763
0.464417
0.485079
0.504724
0.523344
0.54094
0.557526
0.573124
0.58776
0.601469
0.614288
0.626257
0.637417
0.647811
0.657481
0.666469
0.674817
0.682566
0.689754
0.696419
0.702586
0.708188
0.713333
0.718261
0.722832
0.727029
0.731006
0.734788
0.738391
0.741819
0.745074
0.748157
0.751063
0.75379
0.756331
0.758679
0.760818
0.762751
0.76446
0.765931
0.767151
0.768115
0.768828
0.769316
0.769624
0.769804
0.769902
0.769953
0.769978
0.76999
0.769995
0.769998
0.769999
0.77
0.77
0.77
0.77
0.77
0.77
0.77
0.77
0.77
0.77
0.77
2.26428e-06
9.89656e-06
2.27381e-05
4.42729e-05
8.0209e-05
0.000139787
0.000237762
0.00039731
0.000654169
0.00106224
0.00170077
0.00268274
0.0041634
0.0063467
0.00948605
0.0138753
0.0198271
0.0276388
0.0375537
0.0497275
0.0642097
0.0809445
0.0997855
0.120519
0.142885
0.166602
0.191376
0.216919
0.242951
0.269215
0.295472
0.32151
0.347143
0.372211
0.396578
0.420143
0.442822
0.464552
0.485289
0.505008
0.523698
0.541361
0.558008
0.573661
0.588348
0.602102
0.614959
0.62696
0.638146
0.648559
0.658243
0.66724
0.675591
0.683337
0.690518
0.697171
0.703332
0.708915
0.714064
0.718983
0.723533
0.727675
0.731639
0.735413
0.739004
0.742417
0.745655
0.748715
0.751595
0.754292
0.7568
0.759111
0.761207
0.763097
0.764757
0.766177
0.767345
0.768259
0.768926
0.769378
0.76966
0.769823
0.769912
0.769957
0.76998
0.769991
0.769996
0.769998
0.769999
0.77
0.77
0.77
0.77
0.77
0.77
0.77
0.77
0.77
0.77
0.77
2.2611e-06
9.88234e-06
2.2704e-05
4.42028e-05
8.0073e-05
0.000139532
0.000237292
0.000396461
0.000652658
0.0010596
0.00169624
0.00267516
0.00415103
0.0063271
0.009456
0.0138309
0.0197638
0.0275523
0.0374403
0.0495847
0.064037
0.0807432
0.0995591
0.120272
0.142626
0.166337
0.191115
0.216671
0.242728
0.269025
0.295323
0.321406
0.347086
0.372205
0.396633
0.420263
0.443008
0.464803
0.485604
0.505385
0.524133
0.54185
0.558547
0.574245
0.588972
0.602759
0.615645
0.627669
0.638873
0.649299
0.65899
0.667989
0.676338
0.684077
0.691248
0.697888
0.704027
0.709538
0.714801
0.719678
0.724194
0.728297
0.732238
0.735994
0.739569
0.742964
0.746181
0.749219
0.752073
0.754741
0.757217
0.759494
0.761555
0.763405
0.765022
0.766394
0.767514
0.768382
0.76901
0.769431
0.76969
0.76984
0.76992
0.769962
0.769982
0.769992
0.769996
0.769998
0.769999
0.77
0.77
0.77
0.77
0.77
0.77
0.77
0.77
0.77
0.77
0.77
2.25728e-06
9.86548e-06
2.26644e-05
4.4123e-05
7.99225e-05
0.000139258
0.000236802
0.000395603
0.000651177
0.00105709
0.00169206
0.00266834
0.00414019
0.00631033
0.00943085
0.0137945
0.0197131
0.0274843
0.037353
0.0494772
0.0639098
0.0805985
0.0994006
0.120105
0.142456
0.166173
0.190964
0.216541
0.242625
0.268954
0.295287
0.321411
0.347139
0.372312
0.396795
0.420482
0.443283
0.465134
0.485989
0.50582
0.524616
0.542377
0.559114
0.574847
0.589604
0.603417
0.616323
0.628362
0.639577
0.650009
0.659701
0.668698
0.67704
0.68477
0.691926
0.698547
0.704635
0.710134
0.715392
0.720254
0.724752
0.728844
0.732775
0.736518
0.740077
0.743456
0.746653
0.749668
0.752497
0.755136
0.75758
0.75982
0.761841
0.763644
0.765227
0.766568
0.767654
0.768485
0.76908
0.769474
0.769716
0.769853
0.769927
0.769965
0.769983
0.769992
0.769997
0.769998
0.769999
0.77
0.77
0.77
0.77
0.77
0.77
0.77
0.77
0.77
0.77
0.77
2.25348e-06
9.84871e-06
2.26252e-05
4.4045e-05
7.97772e-05
0.000138996
0.000236343
0.000394808
0.000649829
0.00105484
0.00168838
0.00266246
0.00413101
0.0062964
0.00941039
0.0137655
0.0196735
0.0274326
0.0372881
0.0493993
0.0638203
0.0805002
0.0992972
0.120002
0.142359
0.166088
0.190897
0.216495
0.242604
0.268964
0.295335
0.321503
0.347277
0.372498
0.39703
0.420765
0.443615
0.465513
0.486412
0.506286
0.525121
0.542916
0.559684
0.575444
0.590223
0.604054
0.616974
0.629022
0.640242
0.650676
0.660366
0.669358
0.677692
0.685411
0.692555
0.699163
0.70522
0.71069
0.715929
0.720772
0.725252
0.729329
0.733248
0.73698
0.740527
0.74389
0.74707
0.750065
0.752871
0.755484
0.757897
0.760102
0.762091
0.763867
0.765407
0.766711
0.767769
0.768572
0.769139
0.769511
0.769737
0.769865
0.769933
0.769968
0.769985
0.769993
0.769997
0.769999
0.769999
0.77
0.77
0.77
0.77
0.77
0.77
0.77
0.77
0.77
0.77
0.77
2.25003e-06
9.83359e-06
2.25901e-05
4.39754e-05
7.96485e-05
0.000138766
0.000235943
0.000394126
0.000648683
0.00105295
0.00168534
0.00265766
0.00412364
0.00628542
0.00939454
0.0137434
0.0196441
0.027395
0.0372424
0.0493462
0.0637617
0.080439
0.0992378
0.119949
0.142316
0.166059
0.190885
0.216507
0.242646
0.26904
0.295448
0.321655
0.347471
0.372733
0.397309
0.421086
0.443977
0.465914
0.48685
0.506758
0.525623
0.543446
0.560237
0.576017
0.590812
0.604655
0.617583
0.629637
0.640858
0.651289
0.660975
0.669959
0.678284
0.685991
0.693121
0.699713
0.705749
0.711198
0.716411
0.721227
0.725682
0.729758
0.73367
0.737391
0.740925
0.744273
0.747436
0.750411
0.753195
0.755784
0.758172
0.760352
0.762325
0.764073
0.765587
0.766856
0.767873
0.768647
0.769191
0.769543
0.769755
0.769874
0.769938
0.76997
0.769986
0.769994
0.769997
0.769999
0.769999
0.77
0.77
0.77
0.77
0.77
0.77
0.77
0.77
0.77
0.77
0.77
2.24711e-06
9.82077e-06
2.25604e-05
4.39168e-05
7.95406e-05
0.000138575
0.000235612
0.000393565
0.000647752
0.00105144
0.00168293
0.0026539
0.00411796
0.00627708
0.00938276
0.0137274
0.0196233
0.0273693
0.0372121
0.0493128
0.0637275
0.0804071
0.0992112
0.11993
0.142309
0.166068
0.190916
0.216564
0.242732
0.269157
0.2956
0.321843
0.347695
0.372996
0.397608
0.421421
0.444346
0.466316
0.487282
0.507217
0.526107
0.54395
0.560759
0.576553
0.591359
0.60521
0.618142
0.630197
0.641417
0.651844
0.661523
0.670498
0.678811
0.686505
0.69362
0.700196
0.706205
0.711632
0.716829
0.72163
0.726064
0.730137
0.73404
0.73775
0.741271
0.744604
0.747749
0.750704
0.753467
0.756038
0.75841
0.760577
0.762526
0.76425
0.765737
0.766979
0.767968
0.768711
0.769234
0.76957
0.76977
0.769882
0.769942
0.769972
0.769987
0.769994
0.769997
0.769999
0.769999
0.77
0.77
0.77
0.77
0.77
0.77
0.77
0.77
0.77
0.77
0.77
2.24474e-06
9.8104e-06
2.25364e-05
4.38697e-05
7.94542e-05
0.000138423
0.00023535
0.000393125
0.000647028
0.00105027
0.00168109
0.00265108
0.00411376
0.00627105
0.00937441
0.0137164
0.0196094
0.0273529
0.0371941
0.0492948
0.0637116
0.0803954
0.0992063
0.119936
0.14233
0.166107
0.190977
0.216649
0.242844
0.269299
0.295773
0.322047
0.347932
0.373265
0.397908
0.421752
0.444706
0.466702
0.487693
0.507649
0.526557
0.544417
0.561239
0.577043
0.591856
0.605711
0.618645
0.630699
0.641914
0.652336
0.662008
0.670973
0.679275
0.686956
0.694056
0.700614
0.706603
0.712016
0.717198
0.72198
0.72639
0.730464
0.734358
0.738058
0.741567
0.744885
0.748018
0.750963
0.753717
0.756273
0.758628
0.760772
0.762699
0.7644
0.765864
0.767082
0.768048
0.768769
0.769268
0.769591
0.769783
0.769889
0.769945
0.769974
0.769988
0.769994
0.769997
0.769999
0.769999
0.77
0.77
0.77
0.77
0.77
0.77
0.77
0.77
0.77
0.77
0.77
2.2429e-06
9.80235e-06
2.25178e-05
4.38332e-05
7.93876e-05
0.000138306
0.000235151
0.000392792
0.000646484
0.0010494
0.00167974
0.00264905
0.00411079
0.00626688
0.00936881
0.0137093
0.019601
0.0273436
0.0371852
0.0492875
0.0637077
0.0803974
0.0992174
0.119959
0.142368
0.166164
0.191054
0.216749
0.242969
0.26945
0.295951
0.322253
0.348166
0.373525
0.398195
0.422064
0.445042
0.467059
0.48807
0.508043
0.526966
0.544838
0.561669
0.577479
0.592296
0.606153
0.619087
0.631138
0.64235
0.652765
0.662428
0.671384
0.679675
0.687343
0.694429
0.700975
0.706947
0.712346
0.717514
0.722281
0.72666
0.730739
0.734627
0.73832
0.74182
0.745133
0.748257
0.75119
0.753929
0.756471
0.758808
0.760936
0.762844
0.764526
0.76597
0.767167
0.768113
0.768815
0.7693
0.769609
0.769792
0.769894
0.769948
0.769975
0.769988
0.769995
0.769998
0.769999
0.77
0.77
0.77
0.77
0.77
0.77
0.77
0.77
0.77
0.77
0.77
0.77
2.24152e-06
9.79631e-06
2.25039e-05
4.38059e-05
7.9338e-05
0.000138219
0.000235004
0.000392549
0.000646091
0.00104878
0.00167879
0.00264765
0.00410879
0.00626415
0.0093653
0.0137051
0.0195964
0.0273394
0.0371822
0.0492872
0.0637121
0.0804089
0.0992383
0.119992
0.142415
0.166227
0.191136
0.216852
0.243093
0.269598
0.296122
0.322448
0.348384
0.373766
0.398458
0.422348
0.445344
0.467379
0.488404
0.508391
0.527325
0.545205
0.562043
0.577858
0.592677
0.606535
0.619467
0.631515
0.642721
0.65313
0.662786
0.671732
0.680012
0.687668
0.694745
0.701283
0.707237
0.712623
0.717777
0.722531
0.726881
0.730968
0.734851
0.738538
0.742033
0.745338
0.748453
0.751376
0.754104
0.756633
0.758957
0.76107
0.762963
0.764629
0.766056
0.767237
0.768166
0.768853
0.769324
0.769624
0.7698
0.769899
0.76995
0.769976
0.769989
0.769995
0.769998
0.769999
0.77
0.77
0.77
0.77
0.77
0.77
0.77
0.77
0.77
0.77
0.77
0.77
2.24052e-06
9.79193e-06
2.24938e-05
4.37863e-05
7.93023e-05
0.000138157
0.000234899
0.000392378
0.000645817
0.00104836
0.00167815
0.00264672
0.00410751
0.00626248
0.00936328
0.0137029
0.0195945
0.0273383
0.037183
0.0492914
0.0637214
0.0804251
0.0992635
0.120028
0.142464
0.166291
0.191216
0.216949
0.243209
0.269733
0.296276
0.322621
0.348577
0.373978
0.398687
0.422593
0.445605
0.467653
0.48869
0.508687
0.527629
0.545516
0.562358
0.578176
0.592997
0.606853
0.619783
0.631828
0.64303
0.653432
0.66308
0.672017
0.68029
0.687941
0.695009
0.701535
0.707477
0.712851
0.717995
0.722738
0.727062
0.731154
0.735033
0.738715
0.742205
0.745503
0.748611
0.751525
0.754244
0.756763
0.759077
0.761178
0.763059
0.764712
0.766126
0.767293
0.768208
0.768883
0.769344
0.769636
0.769807
0.769902
0.769952
0.769977
0.769989
0.769995
0.769998
0.769999
0.77
0.77
0.77
0.77
0.77
0.77
0.77
0.77
0.77
0.77
0.77
0.77
2.23982e-06
9.78887e-06
2.24868e-05
4.37726e-05
7.92775e-05
0.000138114
0.000234828
0.000392261
0.000645632
0.00104807
0.00167773
0.00264613
0.00410673
0.00626152
0.00936224
0.013702
0.0195941
0.0273391
0.0371859
0.0492976
0.0637323
0.0804422
0.0992883
0.120062
0.142509
0.166348
0.191286
0.217034
0.243309
0.269848
0.296407
0.322768
0.348738
0.374154
0.398877
0.422796
0.445819
0.467878
0.488924
0.508928
0.527876
0.545767
0.562612
0.578432
0.593253
0.607108
0.620036
0.632077
0.643274
0.653671
0.663314
0.672248
0.680514
0.688157
0.695218
0.701736
0.707666
0.713032
0.718168
0.722903
0.72721
0.731297
0.735173
0.738853
0.742338
0.745632
0.748734
0.751642
0.754353
0.756865
0.75917
0.761262
0.763134
0.764777
0.76618
0.767336
0.768241
0.768906
0.769359
0.769645
0.769813
0.769905
0.769953
0.769978
0.76999
0.769995
0.769998
0.769999
0.77
0.77
0.77
0.77
0.77
0.77
0.77
0.77
0.77
0.77
0.77
0.77
2.23935e-06
9.78682e-06
2.24821e-05
4.37634e-05
7.9261e-05
0.000138086
0.00023478
0.000392184
0.000645513
0.00104789
0.00167747
0.00264578
0.00410628
0.00626101
0.00936177
0.0137017
0.0195945
0.0273406
0.0371893
0.0493038
0.0637423
0.0804572
0.0993094
0.120091
0.142546
0.166394
0.191343
0.217101
0.243388
0.269938
0.296509
0.322881
0.348863
0.374289
0.399023
0.422951
0.445982
0.468048
0.489101
0.50911
0.528062
0.545956
0.562804
0.578624
0.593444
0.607299
0.620224
0.632263
0.643457
0.653851
0.663491
0.67242
0.680681
0.688319
0.695374
0.701886
0.707807
0.713167
0.718297
0.723026
0.727319
0.731403
0.735277
0.738954
0.742436
0.745726
0.748824
0.751727
0.754434
0.75694
0.759239
0.761324
0.763189
0.764824
0.76622
0.767368
0.768265
0.768923
0.76937
0.769652
0.769816
0.769907
0.769954
0.769978
0.76999
0.769995
0.769998
0.769999
0.77
0.77
0.77
0.77
0.77
0.77
0.77
0.77
0.77
0.77
0.77
0.77
2.23907e-06
9.78558e-06
2.24792e-05
4.37579e-05
7.9251e-05
0.000138069
0.000234752
0.000392138
0.000645441
0.00104779
0.00167732
0.00264558
0.00410603
0.00626076
0.00936159
0.0137018
0.019595
0.027342
0.0371921
0.0493086
0.0637497
0.0804681
0.0993247
0.120111
0.142572
0.166427
0.191382
0.217148
0.243442
0.27
0.296579
0.322959
0.348948
0.374381
0.399121
0.423055
0.446092
0.468163
0.489219
0.509232
0.528186
0.546082
0.562931
0.578751
0.593572
0.607425
0.62035
0.632387
0.64358
0.653972
0.663609
0.672534
0.680792
0.688426
0.695477
0.701986
0.707901
0.713257
0.718382
0.723107
0.727392
0.731472
0.735345
0.73902
0.742501
0.745789
0.748884
0.751784
0.754487
0.756989
0.759284
0.761365
0.763225
0.764855
0.766246
0.767388
0.768281
0.768934
0.769377
0.769656
0.769819
0.769908
0.769955
0.769979
0.76999
0.769995
0.769998
0.769999
0.77
0.77
0.77
0.77
0.77
0.77
0.77
0.77
0.77
0.77
0.77
0.77
2.23894e-06
9.78502e-06
2.24779e-05
4.37553e-05
7.92465e-05
0.000138061
0.000234739
0.000392118
0.000645409
0.00104774
0.00167726
0.00264549
0.00410593
0.00626066
0.00936154
0.0137019
0.0195953
0.0273428
0.0371935
0.049311
0.0637536
0.0804737
0.0993323
0.120121
0.142585
0.166443
0.191402
0.217171
0.243469
0.270031
0.296613
0.322997
0.34899
0.374427
0.39917
0.423107
0.446147
0.46822
0.489278
0.509292
0.528248
0.546145
0.562994
0.578815
0.593636
0.607489
0.620414
0.63245
0.643641
0.654032
0.663667
0.672591
0.680847
0.688479
0.695529
0.702035
0.707947
0.713301
0.718425
0.723148
0.727428
0.731507
0.735379
0.739053
0.742533
0.745819
0.748913
0.751812
0.754513
0.757013
0.759306
0.761385
0.763243
0.76487
0.766258
0.767398
0.768288
0.768939
0.76938
0.769658
0.76982
0.769909
0.769955
0.769979
0.76999
0.769995
0.769998
0.769999
0.77
0.77
0.77
0.77
0.77
0.77
0.77
0.77
0.77
0.77
0.77
0.77
2.23896e-06
9.7851e-06
2.24781e-05
4.37557e-05
7.92471e-05
0.000138062
0.000234741
0.000392121
0.000645414
0.00104775
0.00167727
0.00264551
0.00410597
0.00626071
0.00936161
0.013702
0.0195955
0.027343
0.0371938
0.0493113
0.0637539
0.0804741
0.0993328
0.120122
0.142586
0.166443
0.191402
0.217172
0.24347
0.270032
0.296614
0.322998
0.348991
0.374427
0.399171
0.423108
0.446147
0.46822
0.489279
0.509293
0.528249
0.546146
0.562995
0.578816
0.593636
0.60749
0.620414
0.63245
0.643642
0.654032
0.663667
0.672591
0.680847
0.68848
0.695529
0.702036
0.707947
0.713301
0.718425
0.723148
0.727428
0.731507
0.735379
0.739053
0.742533
0.745819
0.748913
0.751812
0.754513
0.757013
0.759306
0.761385
0.763243
0.76487
0.766258
0.767398
0.768288
0.768939
0.76938
0.769658
0.76982
0.769909
0.769955
0.769979
0.76999
0.769995
0.769998
0.769999
0.77
0.77
0.77
0.77
0.77
0.77
0.77
0.77
0.77
0.77
0.77
0.77
2.23912e-06
9.78581e-06
2.24797e-05
4.37589e-05
7.92529e-05
0.000138072
0.000234757
0.000392148
0.000645457
0.00104781
0.00167736
0.00264564
0.00410613
0.00626091
0.00936181
0.0137021
0.0195954
0.0273426
0.0371928
0.0493094
0.0637508
0.0804693
0.0993261
0.120113
0.142574
0.166428
0.191384
0.21715
0.243444
0.270002
0.296581
0.322961
0.34895
0.374383
0.399123
0.423057
0.446094
0.468164
0.489221
0.509233
0.528188
0.546084
0.562932
0.578753
0.593573
0.607426
0.620351
0.632388
0.643581
0.653973
0.663609
0.672535
0.680793
0.688427
0.695478
0.701986
0.707901
0.713257
0.718383
0.723108
0.727392
0.731473
0.735346
0.739021
0.742501
0.745789
0.748884
0.751784
0.754487
0.756989
0.759284
0.761365
0.763225
0.764855
0.766246
0.767388
0.768281
0.768934
0.769377
0.769656
0.769819
0.769908
0.769955
0.769979
0.76999
0.769995
0.769998
0.769999
0.77
0.77
0.77
0.77
0.77
0.77
0.77
0.77
0.77
0.77
0.77
0.77
2.23944e-06
9.78721e-06
2.24829e-05
4.37651e-05
7.92642e-05
0.000138092
0.00023479
0.0003922
0.000645539
0.00104794
0.00167754
0.00264588
0.00410644
0.00626126
0.00936214
0.0137023
0.0195952
0.0273416
0.0371906
0.0493053
0.0637441
0.0804593
0.0993118
0.120093
0.142549
0.166397
0.191346
0.217104
0.243391
0.269942
0.296512
0.322885
0.348866
0.374293
0.399026
0.422954
0.445985
0.468051
0.489104
0.509113
0.528065
0.545959
0.562806
0.578626
0.593446
0.6073
0.620226
0.632264
0.643458
0.653853
0.663492
0.672421
0.680682
0.68832
0.695375
0.701887
0.707808
0.713168
0.718298
0.723027
0.72732
0.731403
0.735278
0.738954
0.742437
0.745727
0.748824
0.751728
0.754434
0.75694
0.759239
0.761324
0.763189
0.764824
0.76622
0.767368
0.768265
0.768923
0.76937
0.769652
0.769816
0.769907
0.769955
0.769978
0.76999
0.769995
0.769998
0.769999
0.77
0.77
0.77
0.77
0.77
0.77
0.77
0.77
0.77
0.77
0.77
0.77
2.23994e-06
9.7894e-06
2.2488e-05
4.3775e-05
7.92819e-05
0.000138122
0.000234841
0.000392283
0.000645669
0.00104813
0.00167783
0.00264628
0.00410696
0.00626187
0.00936275
0.0137027
0.0195951
0.0273404
0.0371876
0.0492997
0.0637348
0.0804451
0.0992916
0.120066
0.142513
0.166352
0.191291
0.217038
0.243314
0.269853
0.296412
0.322773
0.348743
0.374158
0.398882
0.4228
0.445823
0.467882
0.488928
0.508931
0.527879
0.54577
0.562616
0.578435
0.593255
0.607111
0.620039
0.632079
0.643276
0.653673
0.663316
0.672249
0.680516
0.688159
0.695219
0.701738
0.707667
0.713033
0.718169
0.722904
0.727211
0.731297
0.735174
0.738853
0.742339
0.745632
0.748734
0.751642
0.754354
0.756865
0.75917
0.761263
0.763134
0.764777
0.76618
0.767336
0.768241
0.768906
0.769359
0.769645
0.769813
0.769905
0.769953
0.769978
0.76999
0.769995
0.769998
0.769999
0.77
0.77
0.77
0.77
0.77
0.77
0.77
0.77
0.77
0.77
0.77
0.77
2.24068e-06
9.79261e-06
2.24954e-05
4.37894e-05
7.9308e-05
0.000138167
0.000234916
0.000392406
0.000645864
0.00104843
0.00167827
0.00264691
0.0041078
0.00626292
0.00936393
0.0137038
0.0195957
0.02734
0.0371852
0.0492941
0.0637246
0.0804289
0.0992677
0.120033
0.142469
0.166296
0.191222
0.216955
0.243215
0.269739
0.296282
0.322628
0.348583
0.373984
0.398693
0.422599
0.445611
0.467659
0.488696
0.508692
0.527634
0.54552
0.562362
0.57818
0.593
0.606857
0.619786
0.631831
0.643032
0.653435
0.663082
0.672019
0.680292
0.687942
0.695011
0.701537
0.707478
0.712853
0.717996
0.722739
0.727063
0.731155
0.735034
0.738716
0.742206
0.745504
0.748611
0.751526
0.754245
0.756764
0.759077
0.761178
0.76306
0.764712
0.766126
0.767293
0.768208
0.768883
0.769344
0.769636
0.769807
0.769902
0.769952
0.769977
0.769989
0.769995
0.769998
0.769999
0.77
0.77
0.77
0.77
0.77
0.77
0.77
0.77
0.77
0.77
0.77
0.77
2.24172e-06
9.79715e-06
2.25058e-05
4.38097e-05
7.93449e-05
0.000138231
0.000235025
0.000392584
0.000646148
0.00104888
0.00167894
0.00264788
0.00410915
0.00626469
0.0093661
0.0137062
0.0195979
0.0273414
0.0371848
0.0492905
0.063716
0.0804135
0.0992435
0.119998
0.142422
0.166234
0.191143
0.216859
0.243101
0.269605
0.296129
0.322455
0.348391
0.373774
0.398465
0.422355
0.445351
0.467385
0.488411
0.508397
0.52733
0.545211
0.562048
0.577863
0.592682
0.606539
0.619471
0.631518
0.642725
0.653133
0.662789
0.671735
0.680014
0.687671
0.694747
0.701285
0.707239
0.712624
0.717779
0.722533
0.726882
0.730969
0.734852
0.738538
0.742034
0.745339
0.748454
0.751376
0.754104
0.756633
0.758958
0.76107
0.762964
0.764629
0.766057
0.767237
0.768166
0.768853
0.769325
0.769624
0.769801
0.769899
0.76995
0.769976
0.769989
0.769995
0.769998
0.769999
0.77
0.77
0.77
0.77
0.77
0.77
0.77
0.77
0.77
0.77
0.77
0.77
2.24313e-06
9.80335e-06
2.25201e-05
4.38377e-05
7.93958e-05
0.00013832
0.000235175
0.000392834
0.000646552
0.00104951
0.00167992
0.00264933
0.00411122
0.00626752
0.00936975
0.0137106
0.0196028
0.027346
0.0371882
0.0492914
0.0637123
0.0804028
0.0992235
0.119966
0.142376
0.166171
0.191062
0.216758
0.242978
0.269459
0.29596
0.322262
0.348175
0.373534
0.398204
0.422073
0.44505
0.467067
0.488077
0.50805
0.526973
0.544844
0.561675
0.577485
0.592302
0.606158
0.619092
0.631143
0.642354
0.652769
0.662432
0.671387
0.679678
0.687346
0.694432
0.700978
0.706949
0.712348
0.717515
0.722283
0.726661
0.73074
0.734628
0.738321
0.741821
0.745134
0.748258
0.751191
0.75393
0.756471
0.758809
0.760936
0.762845
0.764526
0.76597
0.767167
0.768113
0.768815
0.7693
0.769609
0.769792
0.769895
0.769948
0.769975
0.769988
0.769995
0.769998
0.769999
0.77
0.77
0.77
0.77
0.77
0.77
0.77
0.77
0.77
0.77
0.77
0.77
2.24501e-06
9.81157e-06
2.25391e-05
4.38749e-05
7.94637e-05
0.00013844
0.000235379
0.000393173
0.000647107
0.0010504
0.00168129
0.00265141
0.00411426
0.00627179
0.0093755
0.0137179
0.0196116
0.0273557
0.0371977
0.0492992
0.0637169
0.0804016
0.0992134
0.119944
0.142338
0.166116
0.190987
0.216659
0.242855
0.26931
0.295783
0.322058
0.347943
0.373275
0.397918
0.421762
0.444715
0.466711
0.487701
0.507658
0.526565
0.544425
0.561246
0.57705
0.591862
0.605717
0.61865
0.630704
0.641919
0.652341
0.662012
0.670976
0.679278
0.686959
0.694059
0.700617
0.706605
0.712019
0.7172
0.721981
0.726392
0.730465
0.73436
0.73806
0.741568
0.744887
0.748019
0.750964
0.753718
0.756274
0.758628
0.760773
0.7627
0.7644
0.765864
0.767082
0.768048
0.768769
0.769269
0.769591
0.769783
0.769889
0.769945
0.769974
0.769988
0.769994
0.769997
0.769999
0.769999
0.77
0.77
0.77
0.77
0.77
0.77
0.77
0.77
0.77
0.77
0.77
2.24742e-06
9.82211e-06
2.25635e-05
4.39228e-05
7.95516e-05
0.000138594
0.000235645
0.00039362
0.000647843
0.00105158
0.00168316
0.00265427
0.00411852
0.00627793
0.009384
0.0137292
0.0196257
0.0273725
0.0372162
0.0493178
0.0637335
0.0804141
0.0992192
0.119939
0.142319
0.166079
0.190927
0.216575
0.242744
0.26917
0.295612
0.321855
0.347707
0.373007
0.397619
0.421433
0.444357
0.466326
0.487292
0.507227
0.526116
0.543959
0.560768
0.576561
0.591366
0.605216
0.618149
0.630203
0.641422
0.651849
0.661528
0.670502
0.678815
0.686509
0.693624
0.700199
0.706208
0.711634
0.716831
0.721632
0.726066
0.730139
0.734042
0.737752
0.741273
0.744606
0.74775
0.750706
0.753469
0.756039
0.758411
0.760578
0.762527
0.76425
0.765738
0.766979
0.767969
0.768711
0.769234
0.76957
0.76977
0.769883
0.769942
0.769972
0.769987
0.769994
0.769997
0.769999
0.769999
0.77
0.77
0.77
0.77
0.77
0.77
0.77
0.77
0.77
0.77
0.77
2.25038e-06
9.83512e-06
2.25936e-05
4.39823e-05
7.9661e-05
0.000138788
0.00023598
0.000394188
0.000648786
0.00105312
0.00168561
0.00265808
0.00412428
0.00628637
0.00939594
0.0137454
0.0196468
0.0273986
0.0372469
0.0493518
0.0637685
0.0804469
0.0992467
0.119959
0.142327
0.16607
0.190897
0.21652
0.242659
0.269053
0.295462
0.321668
0.347484
0.372747
0.397322
0.421099
0.44399
0.465926
0.486862
0.506769
0.525634
0.543456
0.560247
0.576026
0.59082
0.604663
0.61759
0.629644
0.640864
0.651295
0.660981
0.669964
0.678288
0.685995
0.693125
0.699717
0.705752
0.711201
0.716413
0.72123
0.725684
0.72976
0.733673
0.737393
0.740926
0.744274
0.747437
0.750412
0.753196
0.755785
0.758172
0.760353
0.762326
0.764074
0.765588
0.766856
0.767873
0.768648
0.769191
0.769543
0.769755
0.769874
0.769938
0.76997
0.769986
0.769994
0.769997
0.769999
0.769999
0.77
0.77
0.77
0.77
0.77
0.77
0.77
0.77
0.77
0.77
0.77
2.25387e-06
9.85044e-06
2.26292e-05
4.40528e-05
7.97913e-05
0.000139021
0.000236385
0.000394879
0.000649945
0.00105503
0.00168868
0.00266293
0.00413172
0.00629747
0.00941195
0.0137677
0.0196765
0.0274366
0.0372932
0.0494056
0.0638279
0.080509
0.0993072
0.120013
0.142371
0.166101
0.19091
0.216509
0.242619
0.268979
0.295351
0.321518
0.347292
0.372513
0.397045
0.42078
0.443629
0.465526
0.486426
0.506299
0.525132
0.542927
0.559695
0.575454
0.590232
0.604062
0.616982
0.62903
0.640249
0.650682
0.660373
0.669363
0.677697
0.685416
0.692559
0.699167
0.705224
0.710693
0.715932
0.720775
0.725255
0.729331
0.733251
0.736982
0.740529
0.743892
0.747072
0.750066
0.752872
0.755485
0.757898
0.760103
0.762092
0.763867
0.765408
0.766711
0.767769
0.768572
0.76914
0.769511
0.769737
0.769865
0.769933
0.769968
0.769985
0.769993
0.769997
0.769999
0.769999
0.77
0.77
0.77
0.77
0.77
0.77
0.77
0.77
0.77
0.77
0.77
2.25773e-06
9.86742e-06
2.26688e-05
4.41317e-05
7.99384e-05
0.000139285
0.00023685
0.000395682
0.000651307
0.0010573
0.0016924
0.00266887
0.00414099
0.00631153
0.00943259
0.0137969
0.0197164
0.0274888
0.0373586
0.0494841
0.0639181
0.0806082
0.0994117
0.120117
0.14247
0.166187
0.190979
0.216557
0.242642
0.268971
0.295304
0.321428
0.347156
0.372329
0.396812
0.420498
0.443299
0.465149
0.486003
0.505834
0.52463
0.54239
0.559126
0.574858
0.589614
0.603427
0.616332
0.628371
0.639585
0.650016
0.659708
0.668704
0.677046
0.684775
0.691931
0.698551
0.704639
0.710137
0.715396
0.720257
0.724755
0.728847
0.732777
0.73652
0.740079
0.743457
0.746655
0.749669
0.752498
0.755137
0.757581
0.759821
0.761842
0.763645
0.765228
0.766569
0.767655
0.768486
0.769081
0.769475
0.769716
0.769853
0.769927
0.769965
0.769983
0.769992
0.769997
0.769998
0.769999
0.77
0.77
0.77
0.77
0.77
0.77
0.77
0.77
0.77
0.77
0.77
2.26159e-06
9.88451e-06
2.2709e-05
4.42125e-05
8.00908e-05
0.000139563
0.000237345
0.000396549
0.000652803
0.00105983
0.00169662
0.00267574
0.00415192
0.00632843
0.00945793
0.0138336
0.0197675
0.0275572
0.0374465
0.0495924
0.0640462
0.080754
0.0995712
0.120286
0.14264
0.166353
0.191132
0.216689
0.242746
0.269044
0.295342
0.321425
0.347105
0.372224
0.396652
0.420281
0.443025
0.46482
0.48562
0.5054
0.524148
0.541864
0.55856
0.574258
0.588983
0.60277
0.615656
0.627679
0.638882
0.649307
0.658997
0.667996
0.676344
0.684083
0.691253
0.697893
0.704031
0.709542
0.714805
0.719681
0.724197
0.728299
0.732241
0.735996
0.739571
0.742966
0.746183
0.74922
0.752075
0.754743
0.757218
0.759495
0.761556
0.763406
0.765022
0.766394
0.767514
0.768382
0.76901