/*--------------------------------*- C++ -*----------------------------------*\
  =========                 |
  \\      /  F ield         | OpenFOAM: The Open Source CFD Toolbox
   \\    /   O peration     | Website:  https://openfoam.org
    \\  /    A nd           | Version:  8
     \\/     M anipulation  |
\*---------------------------------------------------------------------------*/
FoamFile
{
    version     2.0;
    format      ascii;
    class       volScalarField;
    location    "480/fluid";
    object      O2;
}
// * * * * * * * * * * * * * * * * * * * * * * * * * * * * * * * * * * * * * //

dimensions      [0 0 0 0 0 0 0];

internalField   nonuniform List<scalar> 
4000
(
4.38983e-10
1.91654e-09
4.39294e-09
8.52344e-09
1.53735e-08
2.66557e-08
4.50851e-08
7.48965e-08
1.22567e-07
1.97771e-07
3.14553e-07
4.92595e-07
7.58301e-07
1.14522e-06
1.69314e-06
2.44532e-06
3.43919e-06
4.70921e-06
6.2695e-06
8.11332e-06
1.02128e-05
1.25225e-05
1.49848e-05
1.75366e-05
2.01135e-05
2.26543e-05
2.51033e-05
2.74117e-05
2.95386e-05
3.14519e-05
3.31297e-05
3.45633e-05
3.57627e-05
3.67665e-05
3.76548e-05
3.85641e-05
3.97008e-05
4.13529e-05
4.38999e-05
4.78273e-05
5.37518e-05
6.24599e-05
7.49699e-05
9.25113e-05
0.000116873
0.000150253
0.000195531
0.00025648
0.000338048
0.000446709
0.000590929
0.000781753
0.00103356
0.00136502
0.00180033
0.00237078
0.0031167
0.00408668
0.00532047
0.0069651
0.00909598
0.0118539
0.0153732
0.0316424
0.0482496
0.0648922
0.081339
0.097411
0.112967
0.127894
0.142097
0.155492
0.168004
0.179512
0.190031
0.199417
0.207569
0.214389
0.219797
0.223788
0.226487
0.228146
0.229078
0.229561
0.229797
0.229909
0.22996
0.229982
0.229992
0.229997
0.229999
0.229999
0.23
0.23
0.23
0.23
0.23
0.23
0.23
0.23
4.47632e-10
1.95561e-09
4.48798e-09
8.72217e-09
1.5762e-08
2.7385e-08
4.64112e-08
7.72375e-08
1.26582e-07
2.04459e-07
3.2536e-07
5.09475e-07
7.83675e-07
1.18176e-06
1.74329e-06
2.50853e-06
3.52729e-06
4.8267e-06
6.42161e-06
8.3062e-06
1.04534e-05
1.28182e-05
1.53429e-05
1.79634e-05
2.06143e-05
2.32324e-05
2.57601e-05
2.81465e-05
3.0349e-05
3.23338e-05
3.40776e-05
3.5571e-05
3.6824e-05
3.78769e-05
3.88131e-05
3.97756e-05
4.09805e-05
4.27289e-05
4.54161e-05
4.9545e-05
5.57538e-05
6.48105e-05
7.76874e-05
9.5911e-05
0.000121097
0.000155489
0.000202022
0.000264543
0.000348104
0.000459335
0.000606938
0.000802321
0.00106043
0.00140085
0.00184922
0.00243912
0.00321463
0.00422641
0.00552961
0.00728168
0.00957357
0.0125689
0.0164147
0.0329531
0.0497488
0.0665257
0.0830695
0.0992116
0.114817
0.129775
0.143991
0.15738
0.169863
0.181302
0.191729
0.200977
0.208941
0.215524
0.220661
0.22438
0.226845
0.228338
0.22917
0.229602
0.229814
0.229915
0.229962
0.229983
0.229993
0.229997
0.229999
0.229999
0.23
0.23
0.23
0.23
0.23
0.23
0.23
0.23
4.60616e-10
2.01313e-09
4.62326e-09
8.99267e-09
1.62634e-08
2.82695e-08
4.79132e-08
7.97065e-08
1.3052e-07
2.1056e-07
3.34529e-07
5.22693e-07
8.01691e-07
1.20838e-06
1.78485e-06
2.57843e-06
3.62594e-06
4.96043e-06
6.59855e-06
8.53607e-06
1.07471e-05
1.31871e-05
1.57984e-05
1.85161e-05
2.1273e-05
2.40043e-05
2.66498e-05
2.9156e-05
3.14776e-05
3.35784e-05
3.54329e-05
3.70301e-05
3.83799e-05
3.9524e-05
4.05511e-05
4.16131e-05
4.29409e-05
4.48571e-05
4.77809e-05
5.22247e-05
5.87871e-05
6.83355e-05
8.21038e-05
0.000101323
0.000127756
0.000163695
0.000212138
0.000277023
0.000363523
0.000478447
0.00063075
0.00083222
0.00109838
0.0014497
0.00191322
0.00252476
0.003332
0.00438586
0.0057627
0.00764334
0.0101557
0.0135414
0.0184516
0.0352919
0.0522907
0.069202
0.0858291
0.102013
0.117624
0.132554
0.146707
0.159997
0.172342
0.183603
0.193803
0.202775
0.210425
0.216669
0.221473
0.224901
0.227146
0.228496
0.229246
0.229637
0.22983
0.229922
0.229965
0.229985
0.229993
0.229997
0.229999
0.229999
0.23
0.23
0.23
0.23
0.23
0.23
0.23
0.23
4.73157e-10
2.06813e-09
4.75029e-09
9.24118e-09
1.6715e-08
2.90572e-08
4.92486e-08
8.19214e-08
1.34126e-07
2.16314e-07
3.43518e-07
5.36717e-07
8.26025e-07
1.24575e-06
1.8382e-06
2.6491e-06
3.72215e-06
5.09194e-06
6.77686e-06
8.77418e-06
1.10591e-05
1.35875e-05
1.63014e-05
1.91345e-05
2.20182e-05
2.48852e-05
2.76726e-05
3.03244e-05
3.27921e-05
3.50369e-05
3.7031e-05
3.87613e-05
4.02374e-05
4.1503e-05
4.26524e-05
4.38509e-05
4.53398e-05
4.7452e-05
5.05956e-05
5.53527e-05
6.24632e-05
7.29146e-05
8.7669e-05
0.000108129
0.000136101
0.000173931
0.000224684
0.000292379
0.00038229
0.000501352
0.00065868
0.000866256
0.00113985
0.00150022
0.00197475
0.0025996
0.00342264
0.00449262
0.00588371
0.00777145
0.0102619
0.0135544
0.0215739
0.0384731
0.0555278
0.0724756
0.0891115
0.105273
0.120827
0.135663
0.149686
0.162808
0.174944
0.185997
0.195911
0.204569
0.211884
0.217787
0.222266
0.225416
0.227451
0.228661
0.22933
0.229677
0.229848
0.22993
0.229968
0.229986
0.229994
0.229997
0.229999
0.23
0.23
0.23
0.23
0.23
0.23
0.23
0.23
0.23
4.84251e-10
2.1164e-09
4.86028e-09
9.45274e-09
1.70916e-08
2.96969e-08
5.02942e-08
8.36611e-08
1.3704e-07
2.2124e-07
3.51984e-07
5.51519e-07
8.48129e-07
1.27858e-06
1.88645e-06
2.71907e-06
3.82206e-06
5.23209e-06
6.96957e-06
9.03359e-06
1.14006e-05
1.4027e-05
1.68546e-05
1.98161e-05
2.28409e-05
2.58595e-05
2.88064e-05
3.16225e-05
3.42564e-05
3.66663e-05
3.88217e-05
4.07079e-05
4.23339e-05
4.37473e-05
4.50381e-05
4.63718e-05
4.79889e-05
5.02768e-05
5.37411e-05
5.90805e-05
6.70338e-05
7.83956e-05
9.43145e-05
0.000116242
0.000146038
0.000186115
0.000239613
0.000310644
0.000404594
0.000528523
0.000691688
0.000906232
0.00118809
0.00155817
0.00204401
0.00268186
0.00351963
0.00460304
0.00600824
0.00791321
0.0104268
0.0137588
0.0250591
0.0419464
0.0589954
0.0759274
0.0925266
0.108623
0.124081
0.138788
0.152647
0.165571
0.177468
0.188276
0.197896
0.206237
0.213222
0.218795
0.222969
0.225865
0.227713
0.228802
0.2294
0.22971
0.229864
0.229937
0.229972
0.229987
0.229994
0.229998
0.229999
0.23
0.23
0.23
0.23
0.23
0.23
0.23
0.23
0.23
4.94747e-10
2.16206e-09
4.96504e-09
9.65841e-09
1.74736e-08
3.0397e-08
5.15922e-08
8.59132e-08
1.40797e-07
2.27298e-07
3.61385e-07
5.6534e-07
8.6895e-07
1.31007e-06
1.93374e-06
2.78914e-06
3.92408e-06
5.3776e-06
7.17243e-06
9.3096e-06
1.17669e-05
1.45013e-05
1.7454e-05
2.05568e-05
2.37372e-05
2.69231e-05
3.00461e-05
3.30441e-05
3.58626e-05
3.84566e-05
4.0794e-05
4.28557e-05
4.46407e-05
4.61864e-05
4.75742e-05
4.90199e-05
5.08386e-05
5.35326e-05
5.76212e-05
6.36368e-05
7.23718e-05
8.47826e-05
0.00010206
0.000125711
0.000157666
0.000200422
0.000257234
0.00033235
0.000431327
0.000561432
0.000732167
0.000955959
0.00124906
0.00163273
0.00213484
0.00279196
0.00364985
0.00475114
0.00618114
0.00811793
0.0106701
0.0140241
0.0284663
0.0453084
0.0623422
0.079253
0.0958077
0.11183
0.127181
0.141749
0.155437
0.168161
0.179803
0.190361
0.199703
0.207746
0.214422
0.219693
0.223592
0.226261
0.227945
0.228927
0.229464
0.229741
0.229878
0.229944
0.229975
0.229989
0.229995
0.229998
0.229999
0.23
0.23
0.23
0.23
0.23
0.23
0.23
0.23
0.23
5.06261e-10
2.2127e-09
5.08242e-09
9.88882e-09
1.78923e-08
3.112e-08
5.27825e-08
8.78722e-08
1.43998e-07
2.32479e-07
3.69686e-07
5.78494e-07
8.89583e-07
1.34203e-06
1.98249e-06
2.86218e-06
4.03132e-06
5.53156e-06
7.38819e-06
9.60441e-06
1.21595e-05
1.5011e-05
1.81001e-05
2.1357e-05
2.47073e-05
2.80765e-05
3.13931e-05
3.45911e-05
3.76138e-05
4.04067e-05
4.2924e-05
4.51374e-05
4.70407e-05
4.87018e-05
5.02667e-05
5.20357e-05
5.43281e-05
5.74809e-05
6.20692e-05
6.87807e-05
7.84458e-05
9.20745e-05
0.000110917
0.000136554
0.000171006
0.000216896
0.000277634
0.000357679
0.000462856
0.000600784
0.000781417
0.00101776
0.00132677
0.0017306
0.00225804
0.00294656
0.00384374
0.00498904
0.00646999
0.00844779
0.0110036
0.0142447
0.030947
0.0480763
0.0652663
0.0822421
0.0987948
0.114762
0.130016
0.144451
0.157976
0.170511
0.181927
0.192252
0.20133
0.209093
0.215483
0.220478
0.22413
0.2266
0.228141
0.229033
0.229518
0.229767
0.22989
0.229949
0.229977
0.22999
0.229995
0.229998
0.229999
0.23
0.23
0.23
0.23
0.23
0.23
0.23
0.23
0.23
5.1688e-10
2.25904e-09
5.18862e-09
1.0095e-08
1.82645e-08
3.17666e-08
5.38806e-08
8.97113e-08
1.47046e-07
2.37483e-07
3.77819e-07
5.91571e-07
9.10347e-07
1.37453e-06
2.03253e-06
2.93779e-06
4.14316e-06
5.69317e-06
7.6159e-06
9.91698e-06
1.25774e-05
1.55555e-05
1.87921e-05
2.22165e-05
2.57525e-05
2.93225e-05
3.28531e-05
3.62671e-05
3.94922e-05
4.24624e-05
4.51238e-05
4.74573e-05
4.95939e-05
5.15786e-05
5.35582e-05
5.56686e-05
5.8276e-05
6.1865e-05
6.70456e-05
7.45538e-05
8.52695e-05
0.000100257
0.000120833
0.000148658
0.000185864
0.000235217
0.000300324
0.000385905
0.000498146
0.00064516
0.00083759
0.00108941
0.00141899
0.00185048
0.00241572
0.00315672
0.00412808
0.00536327
0.00703346
0.00922666
0.0121044
0.0158034
0.0330591
0.0505158
0.0678836
0.0849347
0.101489
0.117403
0.132562
0.146867
0.160237
0.172596
0.183832
0.193941
0.202779
0.210282
0.216407
0.221153
0.224588
0.226887
0.228307
0.229123
0.229564
0.22979
0.229901
0.229954
0.229979
0.229991
0.229996
0.229998
0.229999
0.23
0.23
0.23
0.23
0.23
0.23
0.23
0.23
0.23
5.26949e-10
2.30299e-09
5.28949e-09
1.02913e-08
1.86208e-08
3.23903e-08
5.49494e-08
9.15175e-08
1.50065e-07
2.42479e-07
3.86001e-07
6.04818e-07
9.31521e-07
1.40788e-06
2.08416e-06
3.0162e-06
4.25969e-06
5.86226e-06
7.85507e-06
1.02464e-05
1.30193e-05
1.61331e-05
1.95287e-05
2.31345e-05
2.68732e-05
3.06582e-05
3.44017e-05
3.80166e-05
4.14303e-05
4.45922e-05
4.75695e-05
5.03402e-05
5.28184e-05
5.50816e-05
5.7285e-05
5.96853e-05
6.26674e-05
6.6757e-05
7.26078e-05
8.1001e-05
9.28634e-05
0.000109311
0.000131724
0.000161841
0.000201901
0.000254808
0.000324354
0.000415507
0.000534786
0.000690758
0.000894695
0.00116145
0.00151065
0.00196826
0.00256884
0.00335849
0.00439483
0.00573387
0.00756908
0.0100191
0.0133217
0.017761
0.0352762
0.0528929
0.0703418
0.0874113
0.103934
0.119777
0.13483
0.149
0.162207
0.174373
0.185394
0.195247
0.203906
0.211239
0.217176
0.221719
0.224972
0.227127
0.228446
0.229198
0.229602
0.229808
0.22991
0.229958
0.229981
0.229992
0.229996
0.229998
0.229999
0.23
0.23
0.23
0.23
0.23
0.23
0.23
0.23
0.23
5.36706e-10
2.34563e-09
5.38751e-09
1.04826e-08
1.89692e-08
3.30025e-08
5.60032e-08
9.33066e-08
1.5307e-07
2.47475e-07
3.94222e-07
6.18193e-07
9.53002e-07
1.44187e-06
2.13704e-06
3.09687e-06
4.38008e-06
6.03764e-06
8.10409e-06
1.05907e-05
1.34828e-05
1.67411e-05
2.03074e-05
2.41047e-05
2.80446e-05
3.20309e-05
3.5978e-05
3.98169e-05
4.3568e-05
4.71772e-05
5.05106e-05
5.35517e-05
5.63109e-05
5.8862e-05
6.13737e-05
6.41339e-05
6.75638e-05
7.2232e-05
7.8836e-05
8.81994e-05
0.000101291
0.000119273
0.000143579
0.000176018
0.000218915
0.000275284
0.000349058
0.00044538
0.000570986
0.000734714
0.000948166
0.0012266
0.00159009
0.00206514
0.00268679
0.00350145
0.0045616
0.0059223
0.00777422
0.0102138
0.0134357
0.0199136
0.037508
0.0551682
0.072626
0.0896718
0.106141
0.121902
0.136847
0.150886
0.163937
0.17592
0.186767
0.196469
0.204892
0.21202
0.217805
0.222196
0.225296
0.227329
0.228563
0.229261
0.229634
0.229824
0.229917
0.229962
0.229983
0.229992
0.229997
0.229999
0.229999
0.23
0.23
0.23
0.23
0.23
0.23
0.23
0.23
0.23
5.46217e-10
2.38721e-09
5.48322e-09
1.06698e-08
1.93107e-08
3.36042e-08
5.70421e-08
9.5076e-08
1.56051e-07
2.5245e-07
4.02439e-07
6.31615e-07
9.74644e-07
1.47625e-06
2.19073e-06
3.17909e-06
4.50324e-06
6.21775e-06
8.36077e-06
1.0947e-05
1.39644e-05
1.73734e-05
2.11093e-05
2.50885e-05
2.92236e-05
3.34372e-05
3.77156e-05
4.19891e-05
4.61117e-05
5.00262e-05
5.36806e-05
5.70459e-05
6.01341e-05
6.30267e-05
6.59117e-05
6.9106e-05
7.3066e-05
7.84021e-05
8.58525e-05
9.62783e-05
0.000110685
0.000130274
0.000156526
0.000191308
0.000237013
0.00029674
0.00037452
0.000475608
0.000606869
0.000777272
0.000998552
0.00128607
0.00165997
0.00214667
0.00278093
0.00360848
0.00467956
0.0060478
0.00789919
0.0103263
0.0135185
0.02211
0.0396865
0.0573167
0.0747291
0.0917143
0.108106
0.123774
0.138609
0.152523
0.165438
0.177289
0.188049
0.197604
0.205879
0.212816
0.218373
0.222607
0.225576
0.227502
0.228661
0.229314
0.229661
0.229837
0.229923
0.229965
0.229984
0.229993
0.229997
0.229999
0.229999
0.23
0.23
0.23
0.23
0.23
0.23
0.23
0.23
0.23
5.55434e-10
2.42752e-09
5.57607e-09
1.08515e-08
1.96429e-08
3.41908e-08
5.8057e-08
9.6809e-08
1.5898e-07
2.57351e-07
4.10561e-07
6.44924e-07
9.96178e-07
1.51058e-06
2.24454e-06
3.26181e-06
4.62764e-06
6.40037e-06
8.62211e-06
1.13107e-05
1.44531e-05
1.80072e-05
2.19079e-05
2.60863e-05
3.05127e-05
3.51128e-05
3.97463e-05
4.4336e-05
4.88033e-05
5.30788e-05
5.71063e-05
6.0854e-05
6.43348e-05
6.76403e-05
7.09802e-05
7.47008e-05
7.92921e-05
8.54041e-05
9.38115e-05
0.000105408
0.000121233
0.000142522
0.0001708
0.000207983
0.000256526
0.000319596
0.000401303
0.000506987
0.000643601
0.000820198
0.00104859
0.00134417
0.00172709
0.00222368
0.00286846
0.00370668
0.00478617
0.00616192
0.00802057
0.0104514
0.0136407
0.0240826
0.0416393
0.0592329
0.0765935
0.0935076
0.10981
0.125375
0.140099
0.153915
0.166745
0.178522
0.189157
0.198574
0.206704
0.21349
0.218898
0.222957
0.225813
0.227648
0.228744
0.229358
0.229684
0.229848
0.229929
0.229967
0.229985
0.229993
0.229997
0.229999
0.229999
0.23
0.23
0.23
0.23
0.23
0.23
0.23
0.23
0.23
5.64251e-10
2.4661e-09
5.66499e-09
1.10258e-08
1.99618e-08
3.47546e-08
5.90345e-08
9.84818e-08
1.61813e-07
2.62107e-07
4.18464e-07
6.57916e-07
1.01727e-06
1.54433e-06
2.29763e-06
3.34371e-06
4.75132e-06
6.5828e-06
8.88334e-06
1.16719e-05
1.49339e-05
1.86371e-05
2.2762e-05
2.72483e-05
3.19786e-05
3.68705e-05
4.18353e-05
4.67872e-05
5.16447e-05
5.63341e-05
6.07954e-05
6.49943e-05
6.89461e-05
7.2754e-05
7.66521e-05
8.10151e-05
8.63628e-05
9.33806e-05
0.000102876
0.000115772
0.000133137
0.000156244
0.000186658
0.000226347
0.000277821
0.000344315
0.000430009
0.000540321
0.000682282
0.000865023
0.00110042
0.00140393
0.0017957
0.00230204
0.00295722
0.00380587
0.00489549
0.00628239
0.0081505
0.0105866
0.0137728
0.0257823
0.0433299
0.0608926
0.0781987
0.0950426
0.111283
0.126791
0.141467
0.155208
0.167941
0.179597
0.190109
0.199401
0.207401
0.214055
0.219333
0.223272
0.226003
0.227766
0.228812
0.229394
0.229702
0.229857
0.229933
0.229969
0.229986
0.229994
0.229997
0.229999
0.229999
0.23
0.23
0.23
0.23
0.23
0.23
0.23
0.23
0.23
5.72528e-10
2.50231e-09
5.7485e-09
1.11895e-08
2.02619e-08
3.52861e-08
5.99575e-08
1.00064e-07
1.64501e-07
2.66628e-07
4.25998e-07
6.70339e-07
1.0375e-06
1.57681e-06
2.34893e-06
3.42321e-06
4.87183e-06
6.76001e-06
9.13572e-06
1.20234e-05
1.54294e-05
1.93457e-05
2.36985e-05
2.84208e-05
3.34313e-05
3.86435e-05
4.39688e-05
4.93197e-05
5.46128e-05
5.97715e-05
6.47328e-05
6.94613e-05
7.39761e-05
7.83953e-05
8.29789e-05
8.8126e-05
9.43786e-05
0.000102453
0.000113184
0.000127521
0.000146564
0.000171624
0.000204307
0.000246634
0.000301174
0.000371226
0.000461042
0.000576113
0.000723548
0.000912551
0.00115506
0.0014666
0.0018673
0.00238327
0.00304868
0.00390892
0.00500996
0.00640782
0.00828679
0.0107315
0.0139082
0.0272151
0.0447675
0.062312
0.0795858
0.096404
0.112598
0.128042
0.142637
0.156294
0.168937
0.180496
0.190908
0.200092
0.207982
0.214523
0.219691
0.223528
0.226174
0.227862
0.228866
0.229424
0.229717
0.229864
0.229936
0.229971
0.229987
0.229994
0.229997
0.229999
0.23
0.23
0.23
0.23
0.23
0.23
0.23
0.23
0.23
0.23
5.80099e-10
2.53544e-09
5.82495e-09
1.13396e-08
2.05371e-08
3.57741e-08
6.08065e-08
1.01523e-07
1.66983e-07
2.70814e-07
4.32992e-07
6.81904e-07
1.0564e-06
1.60726e-06
2.3972e-06
3.49831e-06
4.98552e-06
6.9272e-06
9.37793e-06
1.23798e-05
1.59408e-05
2.00247e-05
2.45839e-05
2.95525e-05
3.48528e-05
4.04001e-05
4.61072e-05
5.18871e-05
5.7656e-05
6.33366e-05
6.88652e-05
7.4207e-05
7.93882e-05
8.4545e-05
8.99641e-05
9.60596e-05
0.000103384
0.000112678
0.000124798
0.000140723
0.000161584
0.000188731
0.000223819
0.000268921
0.000326669
0.000400426
0.000494513
0.000614492
0.000767538
0.00096292
0.00121262
0.00153206
0.00194118
0.00246631
0.00314227
0.00401376
0.00512395
0.0065308
0.00841808
0.0108694
0.0140416
0.0284081
0.0459719
0.0635034
0.0807609
0.0975396
0.113685
0.129073
0.143603
0.15719
0.169758
0.181238
0.191565
0.200662
0.20846
0.214907
0.219982
0.223735
0.22631
0.227946
0.22891
0.229447
0.229729
0.22987
0.229939
0.229972
0.229987
0.229994
0.229997
0.229999
0.23
0.23
0.23
0.23
0.23
0.23
0.23
0.23
0.23
0.23
5.86787e-10
2.56472e-09
5.89253e-09
1.14723e-08
2.07808e-08
3.62069e-08
6.15607e-08
1.02821e-07
1.69196e-07
2.74556e-07
4.3926e-07
6.92294e-07
1.07342e-06
1.63475e-06
2.44089e-06
3.56628e-06
5.08913e-06
7.08466e-06
9.61907e-06
1.27238e-05
1.64075e-05
2.06499e-05
2.54069e-05
3.06161e-05
3.62034e-05
4.20874e-05
4.81841e-05
5.44093e-05
6.06815e-05
6.69256e-05
7.30803e-05
7.91157e-05
8.50692e-05
9.10994e-05
9.75182e-05
0.000104737
0.000113303
0.000123974
0.000137628
0.00015527
0.000178069
0.000207418
0.000245025
0.000293021
0.000354098
0.000431686
0.000530174
0.000655193
0.000813959
0.00101573
0.00127235
0.00159935
0.00201732
0.00255224
0.00323744
0.0041169
0.00523263
0.00664097
0.00852201
0.0109521
0.0140656
0.0293771
0.0469562
0.0644859
0.0817199
0.0984648
0.114568
0.129909
0.144386
0.157915
0.170422
0.181837
0.192097
0.201121
0.208844
0.215215
0.220216
0.223899
0.226418
0.228011
0.228948
0.229466
0.229738
0.229875
0.229941
0.229973
0.229988
0.229995
0.229998
0.229999
0.23
0.23
0.23
0.23
0.23
0.23
0.23
0.23
0.23
0.23
5.92413e-10
2.58935e-09
5.94941e-09
1.15841e-08
2.09864e-08
3.65724e-08
6.21987e-08
1.03922e-07
1.71077e-07
2.77743e-07
4.44614e-07
7.01198e-07
1.08805e-06
1.65847e-06
2.4787e-06
3.62561e-06
5.18136e-06
7.22717e-06
9.82481e-06
1.30153e-05
1.68115e-05
2.11983e-05
2.61363e-05
3.15682e-05
3.74244e-05
4.36287e-05
5.01021e-05
5.67657e-05
6.35437e-05
7.03672e-05
7.71821e-05
8.39691e-05
9.07836e-05
9.78126e-05
0.000105387
0.000113889
0.00012384
0.000136011
0.000151299
0.000170741
0.000195545
0.000227155
0.000267334
0.000318275
0.000382739
0.000464217
0.000567153
0.000697213
0.000861631
0.00106978
0.00133379
0.00166942
0.00209635
0.00264042
0.00333509
0.0042238
0.00534715
0.00676179
0.00864681
0.0110772
0.0141801
0.0301216
0.0477224
0.0652545
0.0824743
0.0991939
0.115264
0.130566
0.145001
0.158484
0.170942
0.182306
0.192511
0.201479
0.209143
0.215454
0.220396
0.224026
0.226501
0.228061
0.228977
0.229481
0.229746
0.229878
0.229943
0.229974
0.229988
0.229995
0.229998
0.229999
0.23
0.23
0.23
0.23
0.23
0.23
0.23
0.23
0.23
0.23
5.96802e-10
2.60858e-09
5.99382e-09
1.16715e-08
2.11471e-08
3.68586e-08
6.26991e-08
1.04786e-07
1.72558e-07
2.80259e-07
4.48853e-07
7.0827e-07
1.09972e-06
1.67745e-06
2.50914e-06
3.67369e-06
5.25684e-06
7.33903e-06
9.98785e-06
1.32482e-05
1.71372e-05
2.16441e-05
2.67343e-05
3.23553e-05
3.84428e-05
4.49265e-05
5.17338e-05
5.87934e-05
6.60381e-05
7.3409e-05
8.0865e-05
8.84049e-05
9.61114e-05
0.000104208
0.000113035
0.000122914
0.000134321
0.00014803
0.000164963
0.000186188
0.000212958
0.000246768
0.000289438
0.000343219
0.000410926
0.000496118
0.000603296
0.00073822
0.000908288
0.00112304
0.00139456
0.00173814
0.00217371
0.00272694
0.00343101
0.0043289
0.00545972
0.00688007
0.00876728
0.0111933
0.014276
0.0306728
0.0482993
0.0658336
0.0830423
0.0997419
0.115786
0.131058
0.145459
0.158907
0.171328
0.182653
0.192818
0.201743
0.209363
0.215629
0.220528
0.224119
0.226561
0.228098
0.228997
0.229492
0.229752
0.229881
0.229944
0.229974
0.229988
0.229995
0.229998
0.229999
0.23
0.23
0.23
0.23
0.23
0.23
0.23
0.23
0.23
0.23
5.99799e-10
2.6217e-09
6.02413e-09
1.17311e-08
2.12568e-08
3.70539e-08
6.30406e-08
1.05377e-07
1.7357e-07
2.81979e-07
4.51754e-07
7.1312e-07
1.10774e-06
1.69058e-06
2.53036e-06
3.70754e-06
5.30831e-06
7.41611e-06
1.01011e-05
1.34112e-05
1.73667e-05
2.19603e-05
2.71611e-05
3.29208e-05
3.91798e-05
4.58731e-05
5.29344e-05
6.03e-05
6.79121e-05
7.57236e-05
8.37091e-05
9.18897e-05
0.000100381
0.000109444
0.000119409
0.000130647
0.000143444
0.000158575
0.000176985
0.000199782
0.000228264
0.000263981
0.000308808
0.000365058
0.000435617
0.00052412
0.000635183
0.000774654
0.000949978
0.00117053
0.00144841
0.0017991
0.00224244
0.00280394
0.00351646
0.00442242
0.00555958
0.00698385
0.0088704
0.0112875
0.0143448
0.0310363
0.0486883
0.0662283
0.0834304
0.100116
0.116141
0.13139
0.145768
0.159191
0.171586
0.182883
0.193021
0.201918
0.209508
0.215744
0.220614
0.224179
0.2266
0.228121
0.22901
0.229499
0.229755
0.229883
0.229945
0.229975
0.229989
0.229995
0.229998
0.229999
0.23
0.23
0.23
0.23
0.23
0.23
0.23
0.23
0.23
0.23
6.01309e-10
2.6283e-09
6.03936e-09
1.1761e-08
2.13117e-08
3.71514e-08
6.32106e-08
1.0567e-07
1.74072e-07
2.82833e-07
4.53193e-07
7.15525e-07
1.11172e-06
1.69708e-06
2.54077e-06
3.72375e-06
5.33317e-06
7.45357e-06
1.01565e-05
1.34913e-05
1.74801e-05
2.21175e-05
2.73747e-05
3.32057e-05
3.95538e-05
4.63571e-05
5.35532e-05
6.10832e-05
6.88953e-05
7.69499e-05
8.52322e-05
9.37772e-05
0.000102719
0.000112322
0.000122984
0.000135132
0.000149135
0.000165346
0.000184797
0.000208661
0.00023829
0.00027528
0.000321553
0.00037947
0.000451965
0.00054272
0.000656378
0.000798823
0.00097752
0.00120197
0.00148429
0.00183997
0.00228883
0.00285628
0.00357496
0.0044869
0.00562879
0.00705576
0.00894088
0.0113485
0.0143809
0.0312161
0.0488906
0.0664364
0.0836347
0.100311
0.116325
0.131561
0.145925
0.159334
0.171714
0.182998
0.193121
0.202003
0.209578
0.2158
0.220655
0.224207
0.226618
0.228132
0.229016
0.229503
0.229757
0.229884
0.229945
0.229975
0.229989
0.229995
0.229998
0.229999
0.23
0.23
0.23
0.23
0.23
0.23
0.23
0.23
0.23
0.23
6.01321e-10
2.62835e-09
6.03948e-09
1.17612e-08
2.13121e-08
3.71522e-08
6.32121e-08
1.05673e-07
1.74076e-07
2.8284e-07
4.53205e-07
7.15542e-07
1.11174e-06
1.69711e-06
2.5408e-06
3.72375e-06
5.33311e-06
7.45348e-06
1.01564e-05
1.34912e-05
1.74799e-05
2.21173e-05
2.73745e-05
3.32055e-05
3.95536e-05
4.63568e-05
5.3553e-05
6.1083e-05
6.8895e-05
7.69497e-05
8.52319e-05
9.37769e-05
0.000102718
0.000112322
0.000122984
0.000135132
0.000149136
0.000165346
0.000184797
0.000208662
0.000238291
0.000275281
0.000321554
0.000379472
0.000451967
0.000542722
0.000656382
0.000798828
0.000977527
0.00120198
0.0014843
0.00183998
0.00228885
0.0028563
0.00357499
0.00448694
0.00562883
0.00705581
0.00894095
0.0113486
0.014381
0.0312166
0.0488911
0.0664369
0.0836351
0.100311
0.116325
0.131561
0.145925
0.159334
0.171714
0.182998
0.193121
0.202003
0.209578
0.2158
0.220655
0.224207
0.226618
0.228132
0.229016
0.229503
0.229757
0.229884
0.229945
0.229975
0.229989
0.229995
0.229998
0.229999
0.23
0.23
0.23
0.23
0.23
0.23
0.23
0.23
0.23
0.23
5.99831e-10
2.62184e-09
6.02447e-09
1.17318e-08
2.12581e-08
3.70563e-08
6.30449e-08
1.05384e-07
1.73583e-07
2.82002e-07
4.51794e-07
7.13186e-07
1.10785e-06
1.69075e-06
2.53057e-06
3.70757e-06
5.308e-06
7.41575e-06
1.01007e-05
1.34108e-05
1.73662e-05
2.19597e-05
2.71605e-05
3.29201e-05
3.91791e-05
4.58723e-05
5.29336e-05
6.02992e-05
6.79112e-05
7.57227e-05
8.37082e-05
9.18889e-05
0.00010038
0.000109443
0.000119409
0.000130647
0.000143444
0.000158576
0.000176986
0.000199783
0.000228266
0.000263982
0.00030881
0.000365061
0.00043562
0.000524126
0.000635193
0.000774668
0.000949996
0.00117055
0.00144844
0.00179914
0.00224249
0.002804
0.00351654
0.00442253
0.0055597
0.006984
0.0088706
0.0112877
0.0143451
0.0310378
0.0486897
0.0662297
0.0834316
0.100117
0.116142
0.131391
0.145769
0.159192
0.171586
0.182884
0.193022
0.201918
0.209509
0.215745
0.220614
0.224179
0.2266
0.228121
0.22901
0.229499
0.229755
0.229883
0.229945
0.229975
0.229989
0.229995
0.229998
0.229999
0.23
0.23
0.23
0.23
0.23
0.23
0.23
0.23
0.23
0.23
5.96839e-10
2.60874e-09
5.99419e-09
1.16722e-08
2.11485e-08
3.6861e-08
6.27032e-08
1.04794e-07
1.7257e-07
2.80279e-07
4.48886e-07
7.08327e-07
1.09982e-06
1.67765e-06
2.50955e-06
3.67446e-06
5.25769e-06
7.33977e-06
9.98854e-06
1.32489e-05
1.7138e-05
2.1645e-05
2.67353e-05
3.23563e-05
3.84439e-05
4.49277e-05
5.17351e-05
5.87947e-05
6.60394e-05
7.34104e-05
8.08666e-05
8.84067e-05
9.61134e-05
0.00010421
0.000113038
0.000122918
0.000134325
0.000148035
0.000164968
0.000186194
0.000212965
0.000246777
0.000289448
0.000343231
0.00041094
0.000496133
0.000603313
0.00073824
0.000908317
0.00112308
0.00139461
0.00173821
0.00217379
0.00272704
0.00343114
0.00432906
0.00545992
0.00688031
0.00876759
0.0111937
0.0142765
0.0306754
0.0483017
0.0658358
0.0830444
0.0997438
0.115788
0.13106
0.145461
0.158909
0.171329
0.182654
0.192819
0.201744
0.209364
0.21563
0.220528
0.224119
0.226561
0.228098
0.228997
0.229492
0.229752
0.229881
0.229944
0.229974
0.229988
0.229995
0.229998
0.229999
0.23
0.23
0.23
0.23
0.23
0.23
0.23
0.23
0.23
0.23
5.92458e-10
2.58955e-09
5.94987e-09
1.1585e-08
2.0988e-08
3.65754e-08
6.22038e-08
1.0393e-07
1.71092e-07
2.77767e-07
4.44652e-07
7.01258e-07
1.08814e-06
1.65861e-06
2.47893e-06
3.62602e-06
5.18186e-06
7.2277e-06
9.82535e-06
1.30158e-05
1.68121e-05
2.1199e-05
2.61371e-05
3.1569e-05
3.74253e-05
4.36297e-05
5.01031e-05
5.67667e-05
6.35448e-05
7.03683e-05
7.71832e-05
8.39704e-05
9.0785e-05
9.78144e-05
0.000105389
0.000113891
0.000123843
0.000136015
0.000151304
0.000170747
0.000195553
0.000227165
0.000267346
0.000318289
0.000382757
0.000464239
0.00056718
0.000697244
0.000861667
0.00106982
0.00133385
0.0016695
0.00209644
0.00264054
0.00333525
0.004224
0.0053474
0.0067621
0.00864721
0.0110777
0.0141807
0.0301252
0.0477258
0.0652577
0.0824772
0.0991966
0.115267
0.130569
0.145003
0.158486
0.170944
0.182307
0.192513
0.20148
0.209144
0.215455
0.220397
0.224027
0.226501
0.228062
0.228977
0.229481
0.229746
0.229878
0.229943
0.229974
0.229988
0.229995
0.229998
0.229999
0.23
0.23
0.23
0.23
0.23
0.23
0.23
0.23
0.23
0.23
5.86837e-10
2.56494e-09
5.89304e-09
1.14733e-08
2.07827e-08
3.62102e-08
6.15665e-08
1.02831e-07
1.69213e-07
2.74582e-07
4.39303e-07
6.92362e-07
1.07352e-06
1.6349e-06
2.44109e-06
3.5667e-06
5.09025e-06
7.08563e-06
9.61982e-06
1.27243e-05
1.64078e-05
2.06503e-05
2.54073e-05
3.06167e-05
3.6204e-05
4.20881e-05
4.81848e-05
5.441e-05
6.06822e-05
6.69264e-05
7.30811e-05
7.91165e-05
8.50701e-05
9.11005e-05
9.75196e-05
0.000104739
0.000113306
0.000123977
0.000137632
0.000155276
0.000178076
0.000207427
0.000245037
0.000293035
0.000354116
0.00043171
0.000530204
0.00065523
0.000814006
0.00101579
0.00127242
0.00159944
0.00201743
0.00255238
0.00323763
0.00411713
0.00523292
0.00664133
0.00852247
0.0109527
0.0140663
0.0293817
0.0469607
0.0644901
0.0817238
0.0984684
0.114572
0.129912
0.144389
0.157918
0.170424
0.181839
0.192098
0.201123
0.208845
0.215216
0.220216
0.2239
0.226418
0.228011
0.228948
0.229466
0.229738
0.229875
0.229941
0.229973
0.229988
0.229995
0.229998
0.229999
0.23
0.23
0.23
0.23
0.23
0.23
0.23
0.23
0.23
0.23
5.80153e-10
2.53568e-09
5.8255e-09
1.13407e-08
2.05391e-08
3.57776e-08
6.08126e-08
1.01534e-07
1.67e-07
2.70842e-07
4.33038e-07
6.81974e-07
1.0565e-06
1.60739e-06
2.39734e-06
3.49839e-06
4.98565e-06
6.92778e-06
9.37776e-06
1.23789e-05
1.59404e-05
2.00248e-05
2.45843e-05
2.95532e-05
3.48535e-05
4.04009e-05
4.61079e-05
5.18877e-05
5.76566e-05
6.33372e-05
6.88656e-05
7.42075e-05
7.93887e-05
8.45456e-05
8.99649e-05
9.60608e-05
0.000103386
0.00011268
0.000124802
0.000140728
0.00016159
0.000188739
0.00022383
0.000268936
0.000326688
0.000400451
0.000494544
0.000614532
0.000767588
0.000962984
0.0012127
0.00153216
0.00194131
0.00246647
0.00314247
0.00401401
0.00512426
0.0065312
0.00841857
0.01087
0.0140423
0.028414
0.0459775
0.0635086
0.0807658
0.0975441
0.113689
0.129077
0.143606
0.157193
0.169761
0.18124
0.191568
0.200664
0.208461
0.214908
0.219983
0.223735
0.226311
0.227946
0.22891
0.229447
0.229729
0.22987
0.229939
0.229972
0.229987
0.229994
0.229997
0.229999
0.23
0.23
0.23
0.23
0.23
0.23
0.23
0.23
0.23
0.23
5.72585e-10
2.50256e-09
5.74909e-09
1.11907e-08
2.0264e-08
3.52898e-08
5.99639e-08
1.00075e-07
1.64519e-07
2.66657e-07
4.26045e-07
6.70411e-07
1.03761e-06
1.57697e-06
2.34915e-06
3.4235e-06
4.87227e-06
6.7611e-06
9.13842e-06
1.20275e-05
1.54331e-05
1.93486e-05
2.37009e-05
2.84227e-05
3.34329e-05
3.86447e-05
4.39698e-05
4.93205e-05
5.46134e-05
5.97719e-05
6.47332e-05
6.94616e-05
7.39763e-05
7.83956e-05
8.29793e-05
8.81268e-05
9.438e-05
0.000102455
0.000113187
0.000127525
0.000146571
0.000171633
0.000204319
0.000246649
0.000301194
0.000371252
0.000461075
0.000576156
0.000723602
0.00091262
0.00115515
0.00146671
0.00186744
0.00238344
0.0030489
0.0039092
0.00501029
0.00640824
0.00828732
0.0107321
0.0139089
0.0272221
0.0447741
0.0623182
0.0795916
0.0964094
0.112602
0.128047
0.142641
0.156297
0.16894
0.180499
0.19091
0.200095
0.207984
0.214525
0.219692
0.223529
0.226174
0.227862
0.228867
0.229424
0.229717
0.229864
0.229936
0.229971
0.229987
0.229994
0.229997
0.229999
0.23
0.23
0.23
0.23
0.23
0.23
0.23
0.23
0.23
0.23
5.64313e-10
2.46636e-09
5.66561e-09
1.1027e-08
1.9964e-08
3.47585e-08
5.90412e-08
9.84931e-08
1.61832e-07
2.62137e-07
4.18513e-07
6.57994e-07
1.01739e-06
1.54451e-06
2.29792e-06
3.34417e-06
4.75203e-06
6.58384e-06
8.88511e-06
1.16746e-05
1.49376e-05
1.86404e-05
2.27651e-05
2.72511e-05
3.19809e-05
3.68724e-05
4.18368e-05
4.67883e-05
5.16455e-05
5.63346e-05
6.07957e-05
6.49945e-05
6.89462e-05
7.27542e-05
7.66524e-05
8.10157e-05
8.6364e-05
9.33826e-05
0.000102879
0.000115776
0.000133143
0.000156254
0.000186671
0.000226364
0.000277843
0.000344344
0.000430046
0.000540369
0.000682343
0.000865101
0.00110052
0.00140405
0.00179586
0.00230224
0.00295747
0.00380617
0.00489586
0.00628284
0.00815107
0.0105872
0.0137735
0.0257905
0.0433378
0.0609001
0.0782056
0.095049
0.111289
0.126796
0.141472
0.155212
0.167945
0.179601
0.190112
0.199403
0.207403
0.214056
0.219334
0.223273
0.226004
0.227767
0.228812
0.229394
0.229702
0.229857
0.229933
0.229969
0.229986
0.229994
0.229997
0.229999
0.229999
0.23
0.23
0.23
0.23
0.23
0.23
0.23
0.23
0.23
5.555e-10
2.42781e-09
5.57674e-09
1.08528e-08
1.96453e-08
3.4195e-08
5.80641e-08
9.68209e-08
1.58999e-07
2.57383e-07
4.10611e-07
6.45002e-07
9.96297e-07
1.51076e-06
2.2448e-06
3.26217e-06
4.62815e-06
6.40106e-06
8.62294e-06
1.13119e-05
1.44551e-05
1.80108e-05
2.19125e-05
2.60902e-05
3.05161e-05
3.51157e-05
3.97486e-05
4.43377e-05
4.88045e-05
5.30794e-05
5.71065e-05
6.08539e-05
6.43347e-05
6.76403e-05
7.09803e-05
7.47013e-05
7.92933e-05
8.54061e-05
9.38148e-05
0.000105413
0.00012124
0.000142532
0.000170813