/*--------------------------------*- C++ -*----------------------------------*\
  =========                 |
  \\      /  F ield         | OpenFOAM: The Open Source CFD Toolbox
   \\    /   O peration     | Website:  https://openfoam.org
    \\  /    A nd           | Version:  8
     \\/     M anipulation  |
\*---------------------------------------------------------------------------*/
FoamFile
{
    version     2.0;
    format      ascii;
    class       surfaceScalarField;
    location    "480/fluid";
    object      phi;
}
// * * * * * * * * * * * * * * * * * * * * * * * * * * * * * * * * * * * * * //

dimensions      [1 0 -1 0 0 0 0];

internalField   nonuniform List<scalar> 
7860
(
6.57319e-07
-1.75724e-08
6.54753e-07
-5.26983e-08
6.51101e-07
-8.76434e-08
6.46258e-07
-1.22315e-07
6.40098e-07
-1.56714e-07
6.32465e-07
-1.90797e-07
6.23184e-07
-2.2449e-07
6.12063e-07
-2.57677e-07
5.98907e-07
-2.90202e-07
5.83527e-07
-3.21856e-07
5.65752e-07
-3.52362e-07
5.45456e-07
-3.81371e-07
5.22593e-07
-4.0844e-07
4.97282e-07
-4.33041e-07
4.69792e-07
-4.54558e-07
4.40457e-07
-4.72328e-07
4.09715e-07
-4.85778e-07
3.78081e-07
-4.94572e-07
3.46099e-07
-4.98733e-07
3.14277e-07
-4.98684e-07
2.83035e-07
-4.9516e-07
2.52675e-07
-4.89046e-07
2.23389e-07
-4.812e-07
1.95306e-07
-4.72338e-07
1.68499e-07
-4.62979e-07
1.42944e-07
-4.53448e-07
1.18576e-07
-4.43933e-07
9.532e-08
-4.3452e-07
7.31015e-08
-4.25238e-07
5.18548e-08
-4.16079e-07
3.15233e-08
-4.07023e-07
1.20585e-08
-3.98048e-07
-6.57713e-09
-3.89141e-07
-2.44105e-08
-3.80293e-07
-4.14699e-08
-3.71508e-07
-5.77842e-08
-3.62789e-07
-7.33753e-08
-3.54092e-07
-8.82635e-08
-3.45423e-07
-1.02468e-07
-3.368e-07
-1.16007e-07
-3.28239e-07
-1.28899e-07
-3.19762e-07
-1.41161e-07
-3.11388e-07
-1.52812e-07
-3.03136e-07
-1.63867e-07
-2.95029e-07
-1.74344e-07
-2.87086e-07
-1.84259e-07
-2.79326e-07
-1.93631e-07
-2.71769e-07
-2.02476e-07
-2.64434e-07
-2.10811e-07
-2.5734e-07
-2.18653e-07
-2.50506e-07
-2.26019e-07
-2.43953e-07
-2.32926e-07
-2.37702e-07
-2.39392e-07
-2.31777e-07
-2.45437e-07
-2.26206e-07
-2.51083e-07
-2.21023e-07
-2.56355e-07
-2.16266e-07
-2.61284e-07
-2.11984e-07
-2.65908e-07
-2.08247e-07
-2.70276e-07
-2.05154e-07
-2.74433e-07
-2.02725e-07
-2.78468e-07
-2.01167e-07
-2.82758e-07
-2.0064e-07
-2.88278e-07
-2.01102e-07
-2.95378e-07
-2.12004e-07
-3.03503e-07
-2.24263e-07
-3.12459e-07
-2.37778e-07
-3.22295e-07
-2.52714e-07
-3.3313e-07
-2.69299e-07
-3.45118e-07
-2.87792e-07
-3.58469e-07
-3.08508e-07
-3.73464e-07
-3.31827e-07
-3.90481e-07
-3.58206e-07
-4.10027e-07
-3.88169e-07
-4.3276e-07
-4.22414e-07
-4.59523e-07
-4.61654e-07
-4.91293e-07
-5.06027e-07
-5.29013e-07
-5.54645e-07
-5.73134e-07
-6.04861e-07
-6.23482e-07
-6.51508e-07
-6.79037e-07
-6.8752e-07
-7.37579e-07
-7.06882e-07
-7.96152e-07
-7.07929e-07
-8.5209e-07
-6.93559e-07
-9.03663e-07
-6.6844e-07
-9.50098e-07
-6.36737e-07
-9.91161e-07
-6.01202e-07
-1.02673e-06
-5.6336e-07
-1.0571e-06
-5.23958e-07
-1.08279e-06
-4.83437e-07
-1.10438e-06
-4.42138e-07
-1.12236e-06
-4.00324e-07
-1.13721e-06
-3.58201e-07
-1.14933e-06
-3.1593e-07
-1.15911e-06
-2.73626e-07
-1.16688e-06
-2.31365e-07
-1.17292e-06
-1.89182e-07
-1.17748e-06
-1.47079e-07
-1.18075e-06
-1.05044e-07
-1.1829e-06
-6.30385e-08
-2.1034e-08
6.57931e-07
-1.69695e-08
6.55877e-07
-5.06444e-08
6.52299e-07
-8.40654e-08
6.47196e-07
-1.17212e-07
6.40503e-07
-1.50021e-07
6.32125e-07
-1.82419e-07
6.21953e-07
-2.14317e-07
6.09873e-07
-2.45597e-07
5.95783e-07
-2.76111e-07
5.79601e-07
-3.05671e-07
5.61276e-07
-3.34034e-07
5.40803e-07
-3.60893e-07
5.18234e-07
-3.85864e-07
4.93702e-07
-4.08499e-07
4.67417e-07
-4.28258e-07
4.39648e-07
-4.44538e-07
4.10734e-07
-4.56837e-07
3.81071e-07
-4.64873e-07
3.51074e-07
-4.68693e-07
3.21129e-07
-4.68692e-07
2.91562e-07
-4.65542e-07
2.62612e-07
-4.60043e-07
2.34438e-07
-4.52974e-07
2.07144e-07
-4.44993e-07
1.80794e-07
-4.3658e-07
1.55404e-07
-4.28012e-07
1.30965e-07
-4.1945e-07
1.07454e-07
-4.10969e-07
8.48464e-08
-4.02593e-07
6.31153e-08
-3.94313e-07
4.22353e-08
-3.86111e-07
2.21819e-08
-3.77966e-07
2.93179e-09
-3.69864e-07
-1.55362e-08
-3.618e-07
-3.32418e-08
-3.53777e-07
-5.02039e-08
-3.45801e-07
-6.64396e-08
-3.37831e-07
-8.19659e-08
-3.29871e-07
-9.68002e-08
-3.21939e-07
-1.1096e-07
-3.14053e-07
-1.24464e-07
-3.06232e-07
-1.37329e-07
-2.98496e-07
-1.49574e-07
-2.90866e-07
-1.61216e-07
-2.83361e-07
-1.72275e-07
-2.76001e-07
-1.82771e-07
-2.68806e-07
-1.92722e-07
-2.61794e-07
-2.02148e-07
-2.54984e-07
-2.11071e-07
-2.48394e-07
-2.19511e-07
-2.42044e-07
-2.27489e-07
-2.35952e-07
-2.35031e-07
-2.30139e-07
-2.42161e-07
-2.24627e-07
-2.48909e-07
-2.1944e-07
-2.55307e-07
-2.14607e-07
-2.61394e-07
-2.10162e-07
-2.6722e-07
-2.06145e-07
-2.72834e-07
-2.02623e-07
-2.78321e-07
-1.99661e-07
-2.8378e-07
-1.97266e-07
-2.89366e-07
-1.9559e-07
-2.95285e-07
-1.94745e-07
-3.01951e-07
-1.94933e-07
-3.09259e-07
-2.04755e-07
-3.17722e-07
-2.15871e-07
-3.27274e-07
-2.2831e-07
-3.37915e-07
-2.42167e-07
-3.49725e-07
-2.57597e-07
-3.62833e-07
-2.74805e-07
-3.77418e-07
-2.94059e-07
-3.93706e-07
-3.15692e-07
-4.11978e-07
-3.40105e-07
-4.32569e-07
-3.67771e-07
-4.55845e-07
-3.99355e-07
-4.82263e-07
-4.35479e-07
-5.12358e-07
-4.76199e-07
-5.46668e-07
-5.20617e-07
-5.85596e-07
-5.66214e-07
-6.29303e-07
-6.08057e-07
-6.77363e-07
-6.39668e-07
-7.28351e-07
-6.5604e-07
-7.80113e-07
-6.56256e-07
-8.30576e-07
-6.43145e-07
-8.78288e-07
-6.20753e-07
-9.22509e-07
-5.92528e-07
-9.62936e-07
-5.6078e-07
-9.99406e-07
-5.26893e-07
-1.03189e-06
-4.91475e-07
-1.06049e-06
-4.54839e-07
-1.08537e-06
-4.17253e-07
-1.10677e-06
-3.78928e-07
-1.12493e-06
-3.40038e-07
-1.14014e-06
-3.00725e-07
-1.15266e-06
-2.61105e-07
-1.16276e-06
-2.21266e-07
-1.17067e-06
-1.81268e-07
-1.1766e-06
-1.41147e-07
-1.18071e-06
-1.00938e-07
-1.18308e-06
-6.06713e-08
-2.02896e-08
6.57644e-07
-1.60794e-08
6.55068e-07
-4.80688e-08
6.50818e-07
-7.9815e-08
6.4486e-07
-1.11254e-07
6.37153e-07
-1.42314e-07
6.27652e-07
-1.72917e-07
6.16307e-07
-2.02972e-07
6.03082e-07
-2.32371e-07
5.87953e-07
-2.60982e-07
5.70924e-07
-2.88641e-07
5.52027e-07
-3.15135e-07
5.31329e-07
-3.40191e-07
5.0893e-07
-3.63458e-07
4.84943e-07
-3.84503e-07
4.5952e-07
-4.02822e-07
4.32897e-07
-4.17897e-07
4.05376e-07
-4.29292e-07
3.77295e-07
-4.36763e-07
3.48996e-07
-4.4036e-07
3.20791e-07
-4.40448e-07
2.92934e-07
-4.37643e-07
2.65611e-07
-4.32677e-07
2.3894e-07
-4.26258e-07
2.12972e-07
-4.18982e-07
1.87715e-07
-4.11281e-07
1.63178e-07
-4.03436e-07
1.3937e-07
-3.95604e-07
1.16293e-07
-3.87858e-07
9.39478e-08
-3.80216e-07
7.2333e-08
-3.72669e-07
5.14444e-08
-3.65195e-07
3.12765e-08
-3.57773e-07
1.1822e-08
-3.50386e-07
-6.92699e-09
-3.43029e-07
-2.49785e-08
-3.35705e-07
-4.23439e-08
-3.28414e-07
-5.90323e-08
-3.2112e-07
-7.50549e-08
-3.13826e-07
-9.04247e-08
-3.06547e-07
-1.05155e-07
-2.993e-07
-1.19259e-07
-2.92105e-07
-1.32754e-07
-2.84979e-07
-1.45654e-07
-2.77943e-07
-1.57979e-07
-2.71013e-07
-1.69748e-07
-2.6421e-07
-1.8098e-07
-2.57551e-07
-1.91697e-07
-2.51054e-07
-2.01922e-07
-2.44737e-07
-2.11677e-07
-2.38617e-07
-2.2099e-07
-2.3271e-07
-2.29888e-07
-2.27034e-07
-2.38403e-07
-2.21605e-07
-2.46568e-07
-2.16442e-07
-2.54426e-07
-2.11565e-07
-2.6202e-07
-2.06996e-07
-2.69404e-07
-2.02762e-07
-2.76641e-07
-1.98893e-07
-2.83799e-07
-1.95452e-07
-2.9097e-07
-1.92478e-07
-2.98252e-07
-1.89974e-07
-3.05733e-07
-1.88101e-07
-3.13477e-07
-1.86994e-07
-3.20945e-07
-1.88077e-07
-3.28872e-07
-1.96898e-07
-3.37862e-07
-2.06957e-07
-3.47934e-07
-2.18322e-07
-3.59136e-07
-2.31059e-07
-3.71547e-07
-2.45291e-07
-3.85265e-07
-2.61203e-07
-4.00413e-07
-2.79041e-07
-4.17129e-07
-2.99122e-07
-4.35566e-07
-3.21831e-07
-4.55873e-07
-3.47646e-07
-4.78184e-07
-3.77247e-07
-5.02711e-07
-4.11178e-07
-5.29769e-07
-4.49384e-07
-5.59853e-07
-4.90786e-07
-5.93753e-07
-5.32559e-07
-6.32185e-07
-5.69842e-07
-6.75101e-07
-5.96921e-07
-7.21337e-07
-6.0992e-07
-7.68949e-07
-6.08715e-07
-8.1601e-07
-5.96123e-07
-8.6112e-07
-5.75663e-07
-9.03479e-07
-5.50178e-07
-9.42739e-07
-5.21525e-07
-9.78869e-07
-4.90765e-07
-1.01185e-06
-4.58491e-07
-1.04165e-06
-4.25044e-07
-1.06826e-06
-3.90638e-07
-1.09176e-06
-3.55434e-07
-1.11224e-06
-3.19561e-07
-1.12982e-06
-2.83136e-07
-1.14467e-06
-2.46256e-07
-1.15693e-06
-2.09005e-07
-1.16675e-06
-1.71449e-07
-1.17426e-06
-1.3364e-07
-1.17956e-06
-9.56346e-08
-1.18274e-06
-5.74907e-08
-1.92131e-08
6.57657e-07
-1.52028e-08
6.55006e-07
-4.54176e-08
6.50576e-07
-7.53848e-08
6.44363e-07
-1.05041e-07
6.36359e-07
-1.3431e-07
6.26552e-07
-1.6311e-07
6.14931e-07
-1.91351e-07
6.01492e-07
-2.18931e-07
5.86239e-07
-2.45728e-07
5.69189e-07
-2.7159e-07
5.50377e-07
-2.96321e-07
5.29863e-07
-3.19673e-07
5.07735e-07
-3.41326e-07
4.84127e-07
-3.60887e-07
4.59216e-07
-3.77901e-07
4.33235e-07
-3.91902e-07
4.06455e-07
-4.02493e-07
3.79173e-07
-4.09457e-07
3.51684e-07
-4.12843e-07
3.24256e-07
-4.12988e-07
2.97108e-07
-4.10462e-07
2.70406e-07
-4.05938e-07
2.44258e-07
-4.00075e-07
2.18732e-07
-3.9342e-07
1.93858e-07
-3.86374e-07
1.69652e-07
-3.79197e-07
1.46115e-07
-3.72036e-07
1.23245e-07
-3.64959e-07
1.01038e-07
-3.57982e-07
7.94901e-08
-3.51096e-07
5.85963e-08
-3.44278e-07
3.8353e-08
-3.37508e-07
1.87559e-08
-3.30769e-07
-2.00032e-10
-3.24055e-07
-1.85234e-08
-3.17364e-07
-3.62178e-08
-3.10702e-07
-5.32896e-08
-3.0403e-07
-6.97466e-08
-2.9735e-07
-8.55976e-08
-2.90677e-07
-1.00853e-07
-2.84026e-07
-1.15525e-07
-2.77414e-07
-1.29627e-07
-2.70857e-07
-1.43176e-07
-2.64374e-07
-1.56188e-07
-2.57981e-07
-1.68683e-07
-2.51695e-07
-1.8068e-07
-2.45534e-07
-1.92201e-07
-2.39514e-07
-2.03269e-07
-2.3365e-07
-2.13911e-07
-2.27957e-07
-2.24152e-07
-2.2245e-07
-2.34025e-07
-2.17142e-07
-2.43563e-07
-2.12049e-07
-2.52803e-07
-2.07185e-07
-2.61786e-07
-2.02565e-07
-2.7056e-07
-1.98206e-07
-2.79178e-07
-1.94128e-07
-2.877e-07
-1.90355e-07
-2.96192e-07
-1.86945e-07
-3.04733e-07
-1.83923e-07
-3.13405e-07
-1.81288e-07
-3.22308e-07
-1.79184e-07
-3.31533e-07
-1.777e-07
-3.39678e-07
-1.80354e-07
-3.48342e-07
-1.88299e-07
-3.57946e-07
-1.97425e-07
-3.68543e-07
-2.07804e-07
-3.80194e-07
-2.19497e-07
-3.9297e-07
-2.32613e-07
-4.06953e-07
-2.47329e-07
-4.22235e-07
-2.63882e-07
-4.38917e-07
-2.82576e-07
-4.57113e-07
-3.03787e-07
-4.76928e-07
-3.27999e-07
-4.98495e-07
-3.55867e-07
-5.22068e-07
-3.8781e-07
-5.48033e-07
-4.23637e-07
-5.76944e-07
-4.62096e-07
-6.09468e-07
-5.00246e-07
-6.46091e-07
-5.334e-07
-6.86644e-07
-5.56506e-07
-7.30054e-07
-5.66603e-07
-7.74682e-07
-5.64142e-07
-8.18952e-07
-5.51883e-07
-8.61703e-07
-5.32927e-07
-9.02218e-07
-5.09671e-07
-9.40107e-07
-4.8364e-07
-9.75186e-07
-4.55686e-07
-1.00739e-06
-4.26283e-07
-1.03673e-06
-3.95711e-07
-1.06321e-06
-3.64156e-07
-1.08688e-06
-3.31761e-07
-1.1078e-06
-2.98645e-07
-1.12602e-06
-2.64912e-07
-1.14162e-06
-2.30655e-07
-1.15468e-06
-1.95954e-07
-1.16525e-06
-1.60876e-07
-1.17341e-06
-1.25483e-07
-1.1792e-06
-8.98407e-08
-1.18267e-06
-5.40238e-08
-1.80574e-08
6.57594e-07
-1.42627e-08
6.54799e-07
-4.26231e-08
6.50163e-07
-7.07484e-08
6.4369e-07
-9.85681e-08
6.35385e-07
-1.26005e-07
6.25256e-07
-1.5298e-07
6.13313e-07
-1.79408e-07
5.99575e-07
-2.05193e-07
5.84068e-07
-2.30221e-07
5.66834e-07
-2.54355e-07
5.47932e-07
-2.77417e-07
5.2744e-07
-2.99179e-07
5.05468e-07
-3.19351e-07
4.82156e-07
-3.37569e-07
4.57681e-07
-3.53418e-07
4.32257e-07
-3.66467e-07
4.06133e-07
-3.76353e-07
3.79569e-07
-3.82876e-07
3.52827e-07
-3.86079e-07
3.2614e-07
-3.86275e-07
2.99696e-07
-3.83991e-07
2.7364e-07
-3.79853e-07
2.48065e-07
-3.74472e-07
2.23031e-07
-3.68357e-07
1.98568e-07
-3.61884e-07
1.74693e-07
-3.55296e-07
1.51411e-07
-3.48729e-07
1.28723e-07
-3.42248e-07
1.06628e-07
-3.35866e-07
8.51253e-08
-3.29572e-07
6.4213e-08
-3.23347e-07
4.38896e-08
-3.17167e-07
2.41526e-08
-3.11016e-07
4.99858e-09
-3.04886e-07
-1.35751e-08
-2.98776e-07
-3.15739e-08
-2.92688e-07
-4.90007e-08
-2.86588e-07
-6.58606e-08
-2.80475e-07
-8.21606e-08
-2.74361e-07
-9.791e-08
-2.6826e-07
-1.1312e-07
-2.62187e-07
-1.27804e-07
-2.56157e-07
-1.41976e-07
-2.50185e-07
-1.55652e-07
-2.44288e-07
-1.6885e-07
-2.38481e-07
-1.81588e-07
-2.32779e-07
-1.93888e-07
-2.27196e-07
-2.05773e-07
-2.21747e-07
-2.17269e-07
-2.16444e-07
-2.28402e-07
-2.113e-07
-2.39202e-07
-2.06326e-07
-2.497e-07
-2.01535e-07
-2.59933e-07
-1.96937e-07
-2.69938e-07
-1.92545e-07
-2.79759e-07
-1.88371e-07
-2.89441e-07
-1.84432e-07
-2.99036e-07
-1.80747e-07
-3.08598e-07
-1.7737e-07
-3.18198e-07
-1.7431e-07
-3.27904e-07
-1.71568e-07
-3.37796e-07
-1.69277e-07
-3.47841e-07
-1.67533e-07
-3.56734e-07
-1.71695e-07
-3.66194e-07
-1.78897e-07
-3.7645e-07
-1.87234e-07
-3.87571e-07
-1.96757e-07
-3.9963e-07
-2.07519e-07
-4.12704e-07
-2.19631e-07
-4.26871e-07
-2.33264e-07
-4.42212e-07
-2.48653e-07
-4.58815e-07
-2.66098e-07
-4.76776e-07
-2.85964e-07
-4.9618e-07
-3.08748e-07
-5.17153e-07
-3.35062e-07
-5.3994e-07
-3.65205e-07
-5.64906e-07
-3.98862e-07
-5.92572e-07
-4.34621e-07
-6.23545e-07
-4.6945e-07
-6.58248e-07
-4.98846e-07
-6.9649e-07
-5.18373e-07
-7.373e-07
-5.25866e-07
-7.79261e-07
-5.22224e-07
-8.21042e-07
-5.10125e-07
-8.61664e-07
-4.92316e-07
-9.00503e-07
-4.70837e-07
-9.37192e-07
-4.46954e-07
-9.71513e-07
-4.21366e-07
-1.00334e-06
-3.94461e-07
-1.03258e-06
-3.66465e-07
-1.05921e-06
-3.37529e-07
-1.0832e-06
-3.07768e-07
-1.10456e-06
-2.77283e-07
-1.12331e-06
-2.46163e-07
-1.13948e-06
-2.14491e-07
-1.15309e-06
-1.82344e-07
-1.16418e-06
-1.49788e-07
-1.17277e-06
-1.16885e-07
-1.1789e-06
-8.37096e-08
-1.18259e-06
-5.03408e-08
-1.68231e-08
6.57587e-07
-1.3316e-08
6.54755e-07
-3.97911e-08
6.5005e-07
-6.60435e-08
6.43487e-07
-9.2005e-08
6.35082e-07
-1.176e-07
6.24855e-07
-1.42753e-07
6.12829e-07
-1.67382e-07
5.99035e-07
-1.91398e-07
5.83511e-07
-2.14697e-07
5.66307e-07
-2.3715e-07
5.47487e-07
-2.58595e-07
5.27132e-07
-2.78823e-07
5.05352e-07
-2.97567e-07
4.82282e-07
-3.14495e-07
4.58094e-07
-3.29224e-07
4.32996e-07
-3.4136e-07
4.07223e-07
-3.50569e-07
3.81027e-07
-3.56666e-07
3.54656e-07
-3.59691e-07
3.28332e-07
-3.59932e-07
3.02236e-07
-3.57874e-07
2.76502e-07
-3.54098e-07
2.51221e-07
-3.49169e-07
2.26447e-07
-3.43561e-07
2.02209e-07
-3.37624e-07
1.78518e-07
-3.31584e-07
1.55378e-07
-3.2557e-07
1.32788e-07
-3.19639e-07
1.10745e-07
-3.13805e-07
8.92456e-08
-3.08057e-07
6.82888e-08
-3.02375e-07
4.78718e-08
-2.96736e-07
2.79927e-08
-2.91124e-07
8.64943e-09
-2.8553e-07
-1.01603e-08
-2.79955e-07
-2.84396e-08
-2.74398e-07
-4.61911e-08
-2.68825e-07
-6.34195e-08
-2.63234e-07
-8.01313e-08
-2.57636e-07
-9.63347e-08
-2.52044e-07
-1.12039e-07
-2.46469e-07
-1.27255e-07
-2.40926e-07
-1.41997e-07
-2.35429e-07
-1.56277e-07
-2.29993e-07
-1.70114e-07
-2.24629e-07
-1.83524e-07
-2.19354e-07
-1.96527e-07
-2.14178e-07
-2.09145e-07
-2.09114e-07
-2.21401e-07
-2.04174e-07
-2.33318e-07
-1.99368e-07
-2.44924e-07
-1.94706e-07
-2.56246e-07
-1.90199e-07
-2.67315e-07
-1.85855e-07
-2.78161e-07
-1.81685e-07
-2.88819e-07
-1.77701e-07
-2.99325e-07
-1.73914e-07
-3.09719e-07
-1.70342e-07
-3.20043e-07
-1.67036e-07
-3.30354e-07
-1.63989e-07
-3.40715e-07
-1.61198e-07
-3.5121e-07
-1.58772e-07
-3.61832e-07
-1.56819e-07
-3.71565e-07
-1.62089e-07
-3.81746e-07
-1.68773e-07
-3.92561e-07
-1.7648e-07
-4.04117e-07
-1.85269e-07
-4.16504e-07
-1.95208e-07
-4.29803e-07
-2.06415e-07
-4.44094e-07
-2.19065e-07
-4.5946e-07
-2.33389e-07
-4.75989e-07
-2.49682e-07
-4.93777e-07
-2.68299e-07
-5.12917e-07
-2.89743e-07
-5.33569e-07
-3.14558e-07
-5.56003e-07
-3.4293e-07
-5.8061e-07
-3.74418e-07
-6.07914e-07
-4.07478e-07
-6.38466e-07
-4.39044e-07
-6.72552e-07
-4.6488e-07
-7.09832e-07
-4.81179e-07
-7.49288e-07
-4.86466e-07
-7.89602e-07
-4.81942e-07
-8.29606e-07
-4.70138e-07
-8.6847e-07
-4.5346e-07
-9.05675e-07
-4.33636e-07
-9.40914e-07
-4.11717e-07
-9.74001e-07
-3.8828e-07
-1.00482e-06
-3.63644e-07
-1.03329e-06
-3.37996e-07
-1.05936e-06
-3.11463e-07
-1.08298e-06
-2.84144e-07
-1.10414e-06
-2.56126e-07
-1.12281e-06
-2.27489e-07
-1.13899e-06
-1.98307e-07
-1.15269e-06
-1.68651e-07
-1.16389e-06
-1.38586e-07
-1.1726e-06
-1.08172e-07
-1.17883e-06
-7.74828e-08
-1.18257e-06
-4.65993e-08
-1.55719e-08
6.57574e-07
-1.23566e-08
6.54711e-07
-3.69278e-08
6.4996e-07
-6.12924e-08
6.43339e-07
-8.5384e-08
6.3487e-07
-1.09131e-07
6.24579e-07
-1.32462e-07
6.12498e-07
-1.55301e-07
5.98664e-07
-1.77564e-07
5.83124e-07
-1.99156e-07
5.65934e-07
-2.1996e-07
5.47165e-07
-2.39825e-07
5.26905e-07
-2.58562e-07
5.05265e-07
-2.75925e-07
4.82382e-07
-2.91609e-07
4.58425e-07
-3.05263e-07
4.33594e-07
-3.16523e-07
4.08115e-07
-3.25082e-07
3.82226e-07
-3.30766e-07
3.56161e-07
-3.33614e-07
3.3013e-07
-3.33887e-07
3.04307e-07
-3.32035e-07
2.78818e-07
-3.28593e-07
2.53751e-07
-3.24085e-07
2.29157e-07
-3.18951e-07
2.05065e-07
-3.13515e-07
1.81484e-07
-3.07988e-07
1.58419e-07
-3.02489e-07
1.35866e-07
-2.97072e-07
1.13822e-07
-2.91748e-07
9.22838e-08
-2.86507e-07
7.12486e-08
-2.81328e-07
5.07145e-08
-2.76191e-07
3.06805e-08
-2.7108e-07
1.11449e-08
-2.65986e-07
-7.89491e-09
-2.60906e-07
-2.64426e-08
-2.55841e-07
-4.4501e-08
-2.50757e-07
-6.20737e-08
-2.45652e-07
-7.91656e-08
-2.40534e-07
-9.57832e-08
-2.35415e-07
-1.11935e-07
-2.30306e-07
-1.27629e-07
-2.2522e-07
-1.42879e-07
-2.20168e-07
-1.57697e-07
-2.15163e-07
-1.72096e-07
-2.10217e-07
-1.86095e-07
-2.05343e-07
-1.99709e-07
-2.00551e-07
-2.12958e-07
-1.95853e-07
-2.25862e-07
-1.91258e-07
-2.38442e-07
-1.86775e-07
-2.50721e-07
-1.82415e-07
-2.62722e-07
-1.78185e-07
-2.7447e-07
-1.74096e-07
-2.85989e-07
-1.70156e-07
-2.97303e-07
-1.66376e-07
-3.08438e-07
-1.6277e-07
-3.19417e-07
-1.59354e-07
-3.30262e-07
-1.56185e-07
-3.41019e-07
-1.53227e-07
-3.51691e-07
-1.50524e-07
-3.62342e-07
-1.48123e-07
-3.73136e-07
-1.46107e-07
-3.83629e-07
-1.51622e-07
-3.94483e-07
-1.57959e-07
-4.05844e-07
-1.65168e-07
-4.17843e-07
-1.73327e-07
-4.30583e-07
-1.82533e-07
-4.44153e-07
-1.92918e-07
-4.5864e-07
-2.04659e-07
-4.74131e-07
-2.17987e-07
-4.90723e-07
-2.33187e-07
-5.08522e-07
-2.50607e-07
-5.2764e-07
-2.70743e-07
-5.48263e-07
-2.94063e-07
-5.70671e-07
-3.20657e-07
-5.95247e-07
-3.4998e-07
-6.22463e-07
-3.80395e-07
-6.52762e-07
-4.08864e-07
-6.86283e-07
-4.31453e-07
-7.22592e-07
-4.44938e-07
-7.60705e-07
-4.48395e-07
-7.9946e-07
-4.43211e-07
-8.37861e-07
-4.3175e-07
-8.75206e-07
-4.16121e-07
-9.11044e-07
-3.97801e-07
-9.45095e-07
-3.77668e-07
-9.77177e-07
-3.56199e-07
-1.00716e-06
-3.33657e-07
-1.03496e-06
-3.10197e-07
-1.0605e-06
-2.85924e-07
-1.08372e-06
-2.6092e-07
-1.10459e-06
-2.35261e-07
-1.12306e-06
-2.09016e-07
-1.13912e-06
-1.82252e-07
-1.15274e-06
-1.55034e-07
-1.1639e-06
-1.27421e-07
-1.1726e-06
-9.94719e-08
-1.17883e-06
-7.12576e-08
-1.18257e-06
-4.28557e-08
-1.43192e-08
6.57574e-07
-1.13964e-08
6.54705e-07
-3.40591e-08
6.49944e-07
-5.65317e-08
6.43312e-07
-7.87517e-08
6.34833e-07
-1.00653e-07
6.24538e-07
-1.22167e-07
6.12462e-07
-1.43225e-07
5.98647e-07
-1.6375e-07
5.83144e-07
-1.83653e-07
5.66012e-07
-2.02827e-07
5.47323e-07
-2.21136e-07
5.27167e-07
-2.38405e-07
5.05653e-07
-2.54409e-07
4.82916e-07
-2.6887e-07
4.59122e-07
-2.81466e-07
4.34466e-07
-2.91863e-07
4.09168e-07
-2.99778e-07
3.8346e-07
-3.05052e-07
3.57571e-07
-3.07716e-07
3.31706e-07
-3.08013e-07
3.06035e-07
-3.06353e-07
2.80681e-07
-3.03228e-07
2.5573e-07
-2.99122e-07
2.31232e-07
-2.94441e-07
2.07212e-07
-2.89484e-07
1.8368e-07
-2.84445e-07
1.60637e-07
-2.79435e-07
1.38078e-07
-2.74503e-07
1.16e-07
-2.6966e-07
9.43973e-08
-2.64895e-07
7.32685e-08
-2.60191e-07
5.26108e-08
-2.55525e-07
3.24222e-08
-2.50884e-07
1.27e-08
-2.46256e-07
-6.55881e-09
-2.4164e-07
-2.53575e-08
-2.37035e-07
-4.36977e-08
-2.3241e-07
-6.15819e-08
-2.2776e-07
-7.90137e-08
-2.23094e-07
-9.59987e-08
-2.18422e-07
-1.12543e-07
-2.13753e-07
-1.28656e-07
-2.09098e-07
-1.44347e-07
-2.04468e-07
-1.59626e-07
-1.99874e-07
-1.74507e-07
-1.95326e-07
-1.89004e-07
-1.90836e-07
-2.03131e-07
-1.86413e-07
-2.16906e-07
-1.82067e-07
-2.30346e-07
-1.77807e-07
-2.43469e-07
-1.73642e-07
-2.56295e-07
-1.69579e-07
-2.68844e-07
-1.65626e-07
-2.81137e-07
-1.61793e-07
-2.93195e-07
-1.58089e-07
-3.05037e-07
-1.54525e-07
-3.16684e-07
-1.51116e-07
-3.28149e-07
-1.47884e-07
-3.39444e-07
-1.44886e-07
-3.50593e-07
-1.42077e-07
-3.61569e-07
-1.39551e-07
-3.72339e-07
-1.37362e-07
-3.83018e-07
-1.35635e-07
-3.93825e-07
-1.40843e-07
-4.05057e-07
-1.46764e-07
-4.16804e-07
-1.53464e-07
-4.2916e-07
-1.61022e-07
-4.42212e-07
-1.69538e-07
-4.56049e-07
-1.79145e-07
-4.70758e-07
-1.90021e-07
-4.86432e-07
-2.0239e-07
-5.03175e-07
-2.16528e-07
-5.21103e-07
-2.32771e-07
-5.40351e-07
-2.51594e-07
-5.6113e-07
-2.7339e-07
-5.83733e-07
-2.98165e-07
-6.08534e-07
-3.25291e-07
-6.35956e-07
-3.53079e-07
-6.66339e-07
-3.78574e-07
-6.99681e-07
-3.98184e-07
-7.35446e-07
-4.09224e-07
-7.72659e-07
-4.11213e-07
-8.1026e-07
-4.05628e-07
-8.47383e-07
-3.94637e-07
-8.83429e-07
-3.8008e-07
-9.18018e-07
-3.63215e-07
-9.5091e-07
-3.44777e-07
-9.81946e-07
-3.25164e-07
-1.01101e-06
-3.04595e-07
-1.03801e-06
-2.832e-07
-1.06286e-06
-2.61065e-07
-1.08552e-06
-2.38264e-07
-1.10592e-06
-2.14861e-07
-1.12402e-06
-1.90916e-07
-1.13978e-06
-1.66491e-07
-1.15317e-06
-1.41642e-07
-1.16417e-06
-1.16424e-07
-1.17275e-06
-9.08934e-08
-1.17889e-06
-6.51148e-08
-1.18259e-06
-3.9161e-08
-1.30837e-08
6.57573e-07
-1.04361e-08
6.54705e-07
-3.11908e-08
6.49946e-07
-5.17722e-08
6.43316e-07
-7.21225e-08
6.34844e-07
-9.21803e-08
6.24561e-07
-1.11883e-07
6.12504e-07
-1.31168e-07
5.98718e-07
-1.49964e-07
5.83255e-07
-1.6819e-07
5.66177e-07
-1.85749e-07
5.47557e-07
-2.02516e-07
5.27485e-07
-2.18332e-07
5.0607e-07
-2.32994e-07
4.83447e-07
-2.46246e-07
4.59778e-07
-2.57795e-07
4.35254e-07
-2.67337e-07
4.1009e-07
-2.74611e-07
3.84514e-07
-2.79471e-07
3.58749e-07
-2.81946e-07
3.32997e-07
-2.82255e-07
3.07423e-07
-2.80772e-07
2.82152e-07
-2.77949e-07
2.57265e-07
-2.74229e-07
2.32814e-07
-2.69982e-07
2.08821e-07
-2.65483e-07
1.85296e-07
-2.60913e-07
1.62239e-07
-2.5637e-07
1.39645e-07
-2.51902e-07
1.17509e-07
-2.47517e-07
9.5827e-08
-2.43207e-07
7.45942e-08
-2.38951e-07
5.38074e-08
-2.34732e-07
3.34636e-08
-2.30534e-07
1.35605e-08
-2.26348e-07
-5.90412e-09
-2.22171e-07
-2.49331e-08
-2.18001e-07
-4.35276e-08
-2.1381e-07
-6.16891e-08
-2.09592e-07
-7.94205e-08
-2.05356e-07
-9.67257e-08
-2.0111e-07
-1.1361e-07
-1.96861e-07
-1.30081e-07
-1.9262e-07
-1.46145e-07
-1.88396e-07
-1.61813e-07
-1.84198e-07
-1.77095e-07
-1.80036e-07
-1.92002e-07
-1.7592e-07
-2.06549e-07
-1.71858e-07
-2.20747e-07
-1.6786e-07
-2.34614e-07
-1.63932e-07
-2.48164e-07
-1.60083e-07
-2.61414e-07
-1.5632e-07
-2.74381e-07
-1.52651e-07
-2.87084e-07
-1.49082e-07
-2.9954e-07
-1.45625e-07
-3.11769e-07
-1.42289e-07
-3.23789e-07
-1.39089e-07
-3.35613e-07
-1.36054e-07
-3.47269e-07
-1.33227e-07
-3.58768e-07
-1.30576e-07
-3.70097e-07
-1.28222e-07
-3.81197e-07
-1.26267e-07
-3.91815e-07
-1.25242e-07
-4.0271e-07
-1.29978e-07
-4.14122e-07
-1.35387e-07
-4.26094e-07
-1.41533e-07
-4.3869e-07
-1.48473e-07
-4.51981e-07
-1.56297e-07
-4.66048e-07
-1.65134e-07
-4.80974e-07
-1.75155e-07
-4.96857e-07
-1.86573e-07
-5.13808e-07
-1.99648e-07
-5.31951e-07
-2.14704e-07
-5.51443e-07
-2.32185e-07
-5.72511e-07
-2.5241e-07
-5.95449e-07
-2.75316e-07
-6.20611e-07
-3.00219e-07
-6.48353e-07
-3.2542e-07
-6.78899e-07
-3.481e-07
-7.12118e-07
-3.6502e-07
-7.47401e-07
-3.73978e-07
-7.83814e-07
-3.74822e-07
-8.20404e-07
-3.69051e-07
-8.5642e-07
-3.58627e-07
-8.91351e-07
-3.45152e-07
-9.24867e-07
-3.297e-07
-9.56756e-07
-3.12888e-07
-9.86871e-07
-2.95049e-07
-1.0151e-06
-2.76365e-07
-1.04136e-06
-2.56944e-07
-1.06556e-06
-2.36861e-07
-1.08765e-06
-2.16178e-07
-1.10756e-06
-1.94949e-07
-1.12525e-06
-1.7323e-07
-1.14066e-06
-1.51073e-07
-1.15377e-06
-1.2853e-07
-1.16455e-06
-1.05649e-07
-1.17296e-06
-8.24827e-08
-1.17899e-06
-5.90899e-08
-1.18261e-06
-3.55367e-08
-1.18718e-08
6.57576e-07
-9.47817e-09
6.54714e-07
-2.83286e-08
6.49964e-07
-4.70225e-08
6.43348e-07
-6.55071e-08
6.34895e-07
-8.37265e-08
6.24635e-07
-1.01624e-07
6.12609e-07
-1.19142e-07
5.98862e-07
-1.36216e-07
5.83445e-07
-1.52774e-07
5.66423e-07
-1.68726e-07
5.47867e-07
-1.8396e-07
5.27868e-07
-1.98333e-07
5.06534e-07
-2.1166e-07
4.83997e-07
-2.23709e-07
4.60418e-07
-2.34215e-07
4.35984e-07
-2.42902e-07
4.10908e-07
-2.49533e-07
3.85413e-07
-2.53975e-07
3.59722e-07
-2.56252e-07
3.34032e-07
-2.56563e-07
3.0851e-07
-2.55247e-07
2.83277e-07
-2.52713e-07
2.58416e-07
-2.49364e-07
2.33975e-07
-2.45537e-07
2.09979e-07
-2.41483e-07
1.86435e-07
-2.37365e-07
1.63343e-07
-2.33274e-07
1.40699e-07
-2.29253e-07
1.18495e-07
-2.25309e-07
9.67248e-08
-2.21433e-07
7.53841e-08
-2.17607e-07
5.44691e-08
-2.13813e-07
3.39774e-08
-2.10039e-07
1.39069e-08
-2.06274e-07
-5.74463e-09
-2.02516e-07
-2.49796e-08
-1.98763e-07
-4.37986e-08
-1.94987e-07
-6.22022e-08
-1.91184e-07
-8.01923e-08
-1.87362e-07
-9.77717e-08
-1.83526e-07
-1.14944e-07
-1.79683e-07
-1.31716e-07
-1.75843e-07
-1.48092e-07
-1.72014e-07
-1.6408e-07
-1.68203e-07
-1.79689e-07
-1.6442e-07
-1.94929e-07
-1.60673e-07
-2.09811e-07
-1.5697e-07
-2.24344e-07
-1.53319e-07
-2.38543e-07
-1.49726e-07
-2.5242e-07
-1.46199e-07
-2.65989e-07
-1.42744e-07
-2.79264e-07
-1.39369e-07
-2.92259e-07
-1.3608e-07
-3.0499e-07
-1.32887e-07
-3.17474e-07
-1.298e-07
-3.29725e-07
-1.26831e-07
-3.41762e-07
-1.24012e-07
-3.53605e-07
-1.21378e-07
-3.6527e-07
-1.18907e-07
-3.76783e-07
-1.16704e-07
-3.88186e-07
-1.14848e-07
-3.99059e-07
-1.14694e-07
-4.10122e-07
-1.18952e-07
-4.21712e-07
-1.23834e-07
-4.33879e-07
-1.29406e-07
-4.46679e-07
-1.35715e-07
-4.60179e-07
-1.42841e-07
-4.74455e-07
-1.50906e-07
-4.89593e-07
-1.60068e-07
-5.05693e-07
-1.70527e-07
-5.22876e-07
-1.82524e-07
-5.41275e-07
-1.96366e-07
-5.61065e-07
-2.1246e-07
-5.82486e-07
-2.31057e-07
-6.05829e-07
-2.52043e-07
-6.31418e-07
-2.74698e-07
-6.59546e-07
-2.97355e-07
-6.90326e-07
-3.17372e-07
-7.23514e-07
-3.31871e-07
-7.58449e-07
-3.39069e-07
-7.94227e-07
-3.39059e-07
-8.2999e-07
-3.33297e-07
-8.65079e-07
-3.23542e-07
-8.99052e-07
-3.11181e-07
-9.31626e-07
-2.97128e-07
-9.62614e-07
-2.81901e-07
-9.91884e-07
-2.65779e-07
-1.01933e-06
-2.48916e-07
-1.04488e-06
-2.31401e-07
-1.06844e-06
-2.13299e-07
-1.08995e-06
-1.94663e-07
-1.10936e-06
-1.75541e-07
-1.12661e-06
-1.5598e-07
-1.14166e-06
-1.36026e-07
-1.15446e-06
-1.15726e-07
-1.16499e-06
-9.51234e-08
-1.17321e-06
-7.42637e-08
-1.1791e-06
-5.32011e-08
-1.18264e-06
-3.19944e-08
-1.06876e-08
6.57578e-07
-8.52269e-09
6.54723e-07
-2.54737e-08
6.49985e-07
-4.22846e-08
6.43386e-07
-5.89081e-08
6.34954e-07
-7.52938e-08
6.2472e-07
-9.13909e-08
6.12726e-07
-1.07147e-07
5.99015e-07
-1.22505e-07
5.83641e-07
-1.374e-07
5.66666e-07
-1.51751e-07
5.48164e-07
-1.65458e-07
5.28223e-07
-1.78393e-07
5.06951e-07
-1.90388e-07
4.84478e-07
-2.01237e-07
4.60964e-07
-2.10702e-07
4.36594e-07
-2.18532e-07
4.11577e-07
-2.24517e-07
3.86135e-07
-2.28534e-07
3.60488e-07
-2.30606e-07
3.34833e-07
-2.30909e-07
3.09335e-07
-2.29749e-07
2.84115e-07
-2.27493e-07
2.59255e-07
-2.24504e-07
2.34805e-07
-2.21086e-07
2.10788e-07
-2.17464e-07
1.87211e-07
-2.13787e-07
1.64074e-07
-2.10135e-07
1.41369e-07
-2.06546e-07
1.1909e-07
-2.03027e-07
9.7229e-08
-1.9957e-07
7.57826e-08
-1.96158e-07
5.47465e-08
-1.92775e-07
3.41184e-08
-1.89408e-07
1.38963e-08
-1.86049e-07
-5.92183e-09
-1.82696e-07
-2.5338e-08
-1.79344e-07
-4.43522e-08
-1.7597e-07
-6.29643e-08
-1.72569e-07
-8.11749e-08
-1.69148e-07
-9.89859e-08
-1.65711e-07
-1.164e-07
-1.62265e-07
-1.33421e-07
-1.58818e-07
-1.50054e-07
-1.55376e-07
-1.66304e-07
-1.51948e-07
-1.82178e-07
-1.4854e-07
-1.97685e-07
-1.45161e-07
-2.12833e-07
-1.41817e-07
-2.27631e-07
-1.38515e-07
-2.4209e-07
-1.35262e-07
-2.5622e-07
-1.32063e-07
-2.70032e-07
-1.28926e-07
-2.8354e-07
-1.25856e-07
-2.96755e-07
-1.2286e-07
-3.09691e-07
-1.19946e-07
-3.22361e-07
-1.17124e-07
-3.34781e-07
-1.14406e-07
-3.46969e-07
-1.1182e-07
-3.58947e-07
-1.09397e-07
-3.70735e-07
-1.07114e-07
-3.82371e-07
-1.05065e-07
-3.93881e-07
-1.03328e-07
-4.04918e-07
-1.03885e-07
-4.16208e-07
-1.07692e-07
-4.28006e-07
-1.12069e-07
-4.40372e-07
-1.17074e-07
-4.53368e-07
-1.22754e-07
-4.67063e-07
-1.29183e-07
-4.81537e-07
-1.36472e-07
-4.9688e-07
-1.44767e-07
-5.13199e-07
-1.54251e-07
-5.30623e-07
-1.65146e-07
-5.49296e-07
-1.77741e-07
-5.6941e-07
-1.92398e-07
-5.9121e-07
-2.09309e-07
-6.14981e-07
-2.28324e-07
-6.41015e-07
-2.48715e-07
-6.69534e-07
-2.68881e-07
-7.0055e-07
-2.86391e-07
-7.33725e-07
-2.98723e-07
-7.68359e-07
-3.04452e-07
-8.03594e-07
-3.03835e-07
-8.3865e-07
-2.98247e-07
-8.72948e-07
-2.89247e-07
-9.06103e-07
-2.78027e-07
-9.37866e-07
-2.65365e-07
-9.68072e-07
-2.51695e-07
-9.966e-07
-2.37251e-07
-1.02335e-06
-2.22161e-07
-1.04825e-06
-2.06502e-07
-1.07123e-06
-1.90327e-07
-1.09221e-06
-1.73682e-07
-1.11114e-06
-1.56609e-07
-1.12797e-06
-1.39149e-07
-1.14266e-06
-1.21342e-07
-1.15515e-06
-1.03228e-07
-1.16543e-06
-8.48468e-08
-1.17346e-06
-6.62385e-08
-1.17921e-06
-4.74509e-08
-1.18267e-06
-2.85356e-08
-9.5316e-09
6.57581e-07
-7.56985e-09
6.54733e-07
-2.26262e-08
6.50008e-07
-3.75588e-08
6.43425e-07
-5.23256e-08
6.35013e-07
-6.6882e-08
6.24805e-07
-8.11828e-08
6.1284e-07
-9.51815e-08
5.99162e-07
-1.08828e-07
5.83825e-07
-1.22063e-07
5.6689e-07
-1.34817e-07
5.48432e-07
-1.47e-07
5.28536e-07
-1.58498e-07
5.07311e-07
-1.69163e-07
4.84886e-07
-1.78813e-07
4.61417e-07
-1.87234e-07
4.37088e-07
-1.94206e-07
4.12108e-07
-1.99539e-07
3.86697e-07
-2.03125e-07
3.61072e-07
-2.04984e-07
3.35432e-07
-2.05271e-07
3.09939e-07
-2.04258e-07
2.84716e-07
-2.02272e-07
2.59844e-07
-1.99634e-07
2.35373e-07
-1.96616e-07
2.11325e-07
-1.93417e-07
1.87708e-07
-1.90169e-07
1.64518e-07
-1.86945e-07
1.4175e-07
-1.83777e-07
1.19395e-07
-1.80672e-07
9.7448e-08
-1.77622e-07
7.5903e-08
-1.74612e-07
5.47565e-08
-1.71627e-07
3.40059e-08
-1.68657e-07
1.36496e-08
-1.65692e-07
-6.31417e-09
-1.6273e-07
-2.5887e-08
-1.5977e-07
-4.50683e-08
-1.56787e-07
-6.3857e-08
-1.53779e-07
-8.2253e-08
-1.50749e-07
-1.00257e-07
-1.47704e-07
-1.17871e-07
-1.44649e-07
-1.35097e-07
-1.41589e-07
-1.51938e-07
-1.38531e-07
-1.684e-07
-1.35483e-07
-1.84488e-07
-1.32449e-07
-2.00207e-07
-1.29438e-07
-2.15565e-07
-1.26455e-07
-2.3057e-07
-1.23506e-07
-2.45229e-07
-1.20597e-07
-2.59554e-07
-1.17734e-07
-2.73552e-07
-1.14923e-07
-2.87236e-07
-1.12168e-07
-3.00614e-07
-1.09476e-07
-3.13701e-07
-1.06855e-07
-3.26508e-07
-1.04313e-07
-3.3905e-07
-1.0186e-07
-3.51344e-07
-9.95231e-08
-3.63411e-07