/*--------------------------------*- C++ -*----------------------------------*\
  =========                 |
  \\      /  F ield         | OpenFOAM: The Open Source CFD Toolbox
   \\    /   O peration     | Website:  https://openfoam.org
    \\  /    A nd           | Version:  8
     \\/     M anipulation  |
\*---------------------------------------------------------------------------*/
FoamFile
{
    version     2.0;
    format      ascii;
    class       volScalarField;
    location    "480/fluid";
    object      Qdot;
}
// * * * * * * * * * * * * * * * * * * * * * * * * * * * * * * * * * * * * * //

dimensions      [1 -1 -3 0 0 0 0];

internalField   nonuniform List<scalar> 
4000
(
2.65725e-07
-8.62788e-13
0
3.04031e-07
1.85535e-16
-1.61658e-11
3.37233e-07
1.24485e-10
3.55781e-07
0
2.38929e-10
-3.77367e-07
-2.06767e-18
-2.09465e-18
2.95321e-14
4.56056e-09
2.54403e-09
1.20161e-13
1.89113e-08
-8.35285e-09
2.77118e-06
3.73155e-05
0.000447939
0.00450984
0.0372224
0.250806
1.38989
6.42079
25.1233
84.6092
248.918
647.985
1508.59
3172.03
6082.09
10734.8
17663.5
27450.2
40841.9
58913.1
83204.1
115786
159384
217381
294809
398080
535717
718975
962602
1.28588e+06
1.71396e+06
2.27963e+06
3.02563e+06
4.00753e+06
5.29767e+06
6.99018e+06
9.20761e+06
1.21005e+07
1.5799e+07
2.07574e+07
2.72396e+07
3.57294e+07
4.21902e+08
3.25888e+07
2.34067e+07
1.66227e+07
1.16485e+07
8.03853e+06
5.45149e+06
3.62614e+06
2.36342e+06
1.51306e+06
964172
629267
198733
17898.7
538.708
8.0381
0.0766212
0.00073533
1.2339e-05
5.14199e-07
5.34412e-08
1.02818e-08
3.07815e-09
1.26921e-09
4.55142e-10
2.1554e-10
9.95494e-11
4.27307e-11
1.72278e-11
6.72745e-12
2.89065e-12
1.21232e-12
4.92386e-13
-5.54354e-12
7.25434e-14
2.80833e-14
-5.23622e-12
7.47462e-13
2.65488e-07
2.04582e-17
3.59676e-12
0
0
-1.3027e-11
0
6.76039e-11
1.64233e-15
-1.14701e-10
0
0
-5.88994e-10
2.03154e-18
-2.18354e-09
2.43375e-09
-3.93186e-07
1.16158e-13
1.41995e-08
1.85453e-07
2.4643e-06
3.55694e-05
0.000426795
0.00430984
0.0357981
0.24328
1.36113
6.34965
25.0816
85.224
252.784
662.903
1552.87
3279.3
6306.59
11150.2
18350.9
28486.4
42289.5
60815
85594.4
118584
162339
221005
299189
403439
542449
727709
974326
1.30214e+06
1.73722e+06
2.31377e+06
3.0768e+06
4.08555e+06
5.41816e+06
7.17802e+06
9.50244e+06
1.25539e+07
1.65148e+07
2.18858e+07
2.8996e+07
3.84039e+07
4.21105e+08
3.1399e+07
2.25514e+07
1.60084e+07
1.1207e+07
7.72085e+06
5.22327e+06
3.46331e+06
2.24896e+06
1.43496e+06
914091
582792
149238
10377.1
264.652
3.4927
0.0320089
0.000334403
6.74816e-06
3.4386e-07
4.14864e-08
9.18088e-09
2.84195e-09
1.09624e-09
4.97061e-10
1.91157e-10
8.9894e-11
3.72039e-11
1.498e-11
5.69045e-12
2.84223e-12
1.3048e-12
5.40492e-12
2.0141e-13
7.79163e-14
3.11012e-14
8.79135e-15
-7.43531e-13
-3.71678e-13
0
6.47879e-12
0
-1.81887e-16
0
-3.23365e-11
-1.12785e-19
-1.34848e-10
-1.11544e-10
-4.74209e-19
-5.6285e-10
1.35143e-14
-3.63931e-07
3.67363e-07
-3.1946e-17
-4.29231e-09
-2.29537e-15
1.3652e-08
3.90396e-07
2.43451e-06
3.51527e-05
0.000419061
0.00423342
0.0352915
0.24128
1.36026
6.39993
25.5065
87.4452
261.634
691.779
1632.76
3467.77
6690.37
11857.1
19523.9
30271.1
44817.1
64167.1
89701.1
123483
168696
228776
308728
415273
557347
746773
999157
1.33509e+06
1.78179e+06
2.37526e+06
3.16326e+06
4.20932e+06
5.59829e+06
7.44406e+06
9.90052e+06
1.31397e+07
1.74205e+07
2.33363e+07
3.13554e+07
5.43795e+07
3.98128e+08
3.02319e+07
2.16682e+07
1.53337e+07
1.06924e+07
7.33175e+06
4.93333e+06
3.25174e+06
2.09915e+06
1.33385e+06
851888
502883
97816.7
5243.31
116.252
1.42611
0.0134506
0.00016167
3.9883e-06
2.44949e-07
3.24838e-08
8.39716e-09
2.5092e-09
1.10921e-09
4.47757e-10
1.84836e-10
7.56975e-11
3.09888e-11
1.64869e-11
6.44841e-12
2.59709e-12
1.0725e-12
4.06336e-13
-6.65518e-13
7.47113e-14
2.79701e-14
9.53752e-15
1.83012e-15
-2.64794e-07
0
3.55044e-12
-2.97038e-07
1.51451e-11
2.82096e-11
0
0
3.34107e-07
-3.18767e-15
0
0
1.00437e-09
0
2.04143e-09
-2.71074e-17
-2.29301e-09
-2.35675e-15
8.51549e-09
1.89826e-07
2.43435e-06
3.50264e-05
0.000416931
0.00422584
0.035421
0.243854
1.38556
6.57337
26.4212
91.3512
275.589
734.439
1746.01
3728.33
7212.67
12808.2
21084.3
32597.8
47957.6
68133.9
94920.4
130468
177381
239504
322019
431857
578218
773270
1.03309e+06
1.37892e+06
1.83891e+06
2.45036e+06
3.26284e+06
4.34242e+06
5.77731e+06
7.68587e+06
1.02275e+07
1.35739e+07
1.79856e+07
2.40529e+07
3.21892e+07
1.66443e+08
2.99401e+08
2.97233e+07
2.11333e+07
1.48358e+07
1.02619e+07
6.97898e+06
4.65696e+06
3.04438e+06
1.95091e+06
1.23466e+06
793174
401217
58646.4
2500.31
48.6645
0.559796
0.00548088
7.60588e-05
2.287e-06
1.68492e-07
2.63089e-08
6.90451e-09
2.23411e-09
9.71915e-10
4.13046e-10
1.81137e-10
7.74533e-11
3.20423e-11
1.26484e-11
5.49848e-12
2.54561e-12
1.01549e-12
4.50106e-13
-5.42117e-12
-5.39396e-12
-5.31481e-12
8.81305e-15
5.06147e-12
0
-3.08637e-12
0
0
-3.0263e-07
-3.10067e-07
-3.16665e-07
1.08778e-19
0
-3.31581e-07
2.15575e-10
0
-3.40569e-07
0
-1.97855e-09
-2.99911e-17
-4.02215e-09
-2.41533e-15
1.27612e-08
3.98e-07
2.68569e-06
3.53844e-05
0.000422615
0.00429902
0.0362297
0.251051
1.43684
6.8689
27.8252
96.9564
294.732
791.158
1893.24
4064.35
7878.96
13968.2
22910.8
35240.9
51660.2
73393.7
101798
138999
187937
252592
338347
452366
604152
806245
1.07522e+06
1.43296e+06
1.90847e+06
2.54015e+06
3.37902e+06
4.49296e+06
5.97252e+06
7.93892e+06
1.05551e+07
1.39879e+07
1.85083e+07
2.47214e+07
3.30523e+07
2.71606e+08
1.95626e+08
2.94395e+07
2.07279e+07
1.44103e+07
9.87197e+06
6.65011e+06
4.39624e+06
2.84854e+06
1.81178e+06
1.14278e+06
738629
293787
33397.5
1180.04
20.567
0.227188
0.00236332
3.8262e-05
1.39276e-06
1.21342e-07
2.15117e-08
5.89771e-09
1.9695e-09
8.52416e-10
3.49362e-10
1.42421e-10
7.00967e-11
2.80741e-11
1.07587e-11
5.42876e-12
7.86354e-12
9.49493e-13
3.72936e-13
1.79554e-13
6.81583e-14
2.49331e-14
8.09557e-15
1.48347e-15
0
2.8904e-21
0
2.91714e-07
0
-2.74468e-11
3.08434e-11
0
0
-1.28349e-10
-3.27076e-07
3.29813e-07
1.24547e-14
0
1.92122e-09
-2.90845e-17
-1.74786e-09
-2.49247e-15
1.59045e-08
2.02035e-07
2.75555e-06
3.61098e-05
0.00043455
0.00444164
0.037647
0.26258
1.51331
7.28647
29.7302
104.335
319.381
862.879
2075.55
4467.8
8644.76
15253.9
24942.4
38342
56205.8
79434.6
109544
148742
200118
267856
357592
476800
635363
846317
1.12687e+06
1.49975e+06
1.99501e+06
2.65244e+06
3.52474e+06
4.68185e+06
6.21674e+06
8.25341e+06
1.09507e+07
1.44685e+07
1.91071e+07
2.54765e+07
3.39994e+07
3.68619e+08
9.57218e+07
2.876e+07
2.00392e+07
1.38002e+07
9.37093e+06
6.25996e+06
4.10549e+06
2.64074e+06
1.67001e+06
1.05191e+06
678092
210551
18583.1
563.888
8.95603
0.0965895
0.00107875
2.03297e-05
8.8347e-07
8.99302e-08
1.75597e-08
5.39812e-09
1.93877e-09
7.79691e-10
3.58521e-10
1.4168e-10
6.51025e-11
2.92708e-11
1.23157e-11
4.35098e-12
2.08022e-12
8.40313e-13
3.7107e-13
1.48297e-13
5.57727e-14
2.49465e-14
8.11833e-15
-5.04824e-12
-2.63676e-07
-2.00521e-17
0
-1.69881e-16
-1.73871e-16
2.70762e-11
0
1.04998e-19
0
0
0
-1.20754e-14
0
-2.43324e-14
-7.01257e-18
-3.87561e-17
1.69172e-09
-3.41158e-09
1.19157e-08
2.17463e-07
2.86115e-06
3.77279e-05
0.000452311
0.00465011
0.0396476
0.278312
1.61472
7.82742
32.1542
113.56
349.488
947.962
2284.88
4920.73
9514.46
16799.6
27545.2
42205.8
61425
86219.2
118143
159530
213637
284898
379243
504529
671130
892740
1.18745e+06
1.57917e+06
2.09955e+06
2.79048e+06
3.70739e+06
4.92363e+06
6.5362e+06
8.67321e+06
1.15005e+07
1.51709e+07
1.9991e+07
2.65169e+07
3.50683e+07
4.52433e+08
3.77054e+07
2.65855e+07
1.85342e+07
1.27527e+07
8.64306e+06
5.75838e+06
3.76488e+06
2.41451e+06
1.52465e+06
963553
606146
150441
10402.6
278.801
4.10703
0.0439771
0.000532485
1.16395e-05
5.94e-07
6.81698e-08
1.49006e-08
4.4946e-09
1.7001e-09
6.44987e-10
3.03192e-10
1.25031e-10
6.05324e-11
2.40484e-11
1.1347e-11
4.90511e-12
7.67087e-12
8.80179e-13
-4.76488e-13
1.35445e-13
5.57176e-14
2.1957e-14
7.40396e-15
1.22787e-15
0
0
-2.79562e-07
0
2.92527e-07
0
-2.98906e-11
1.09703e-10
0
1.00012e-10
-3.12093e-07
-8.98882e-10
-4.96715e-10
0
-1.85877e-10
-3.6303e-09
3.74919e-10
-2.68776e-15
1.48253e-08
2.24613e-07
2.8327e-06
3.93097e-05
0.000476679
0.00492304
0.0422283
0.29831
1.74209
8.49703
35.0876
124.417
383.951
1043.32
2528.72
5481.65
10651.8
18756.3
30555.7
46480.3
67139
93551.9
127354
171022
228009
303009
402272
534072
709339
942532
1.25281e+06
1.66562e+06
2.21477e+06
2.94527e+06
3.91714e+06
5.21046e+06
6.93238e+06
9.22641e+06
1.22825e+07
1.62391e+07
2.16634e+07
2.88975e+07
3.8507e+07
4.50936e+08
3.3706e+07
2.3948e+07
1.67842e+07
1.15883e+07
7.86947e+06
5.24768e+06
3.43184e+06
2.20167e+06
1.39315e+06
887429
526651
105966
6018.2
145.386
2.01524
0.021678
0.000285422
7.16837e-06
4.22575e-07
5.49617e-08
1.27275e-08
4.02936e-09
1.67366e-09
6.52646e-10
2.93135e-10
1.17497e-10
5.68147e-11
2.37624e-11
9.96193e-12
4.45202e-12
1.84379e-12
7.2906e-13
3.17536e-13
1.22752e-13
5.56349e-14
2.04733e-14
-5.13696e-12
1.2336e-15
0
2.85471e-21
0
0
0
-4.95528e-20
-2.97383e-07
0
-1.42187e-15
9.7852e-11
0
-1.14783e-14
0
0
-7.86932e-10
-3.96543e-17
-1.94443e-09
-9.57208e-14
1.429e-08
7.3735e-08
3.02912e-06
4.15971e-05
0.000506293
0.00525971
0.0453909
0.32254
1.8932
9.27167
38.4222
136.782
425.929
1172.4
2861.91
6213.22
12002.7
20967.6
33898.6
51131.2
73242.8
101259
136913
182831
242653
321314
425347
563393
746865
990889
1.31554e+06
1.74757e+06
2.32261e+06
3.08835e+06
4.10865e+06
5.46936e+06
7.28626e+06
9.71624e+06
1.29607e+07
1.72299e+07
2.31643e+07
3.12159e+07
4.28567e+07
4.34337e+08
3.1129e+07
2.21228e+07
1.55125e+07
1.07147e+07
7.27774e+06
4.85325e+06
3.1741e+06
2.0378e+06
1.29345e+06
831973
454546
75257.2
3650.69
80.7773
1.06619
0.0116182
0.000166252
4.73719e-06
3.16596e-07
4.58847e-08
1.06073e-08
3.76899e-09
1.3929e-09
5.92268e-10
2.52133e-10
1.15822e-10
5.25307e-11
2.09919e-11
9.93473e-12
-1.0755e-12
1.82841e-12
7.51521e-13
3.02329e-13
1.34511e-13
4.95056e-14
1.89906e-14
6.70304e-15
-7.38917e-13
0
2.69587e-07
0
-5.66019e-12
-2.41169e-20
0
2.35601e-11
0
1.39355e-15
-2.97337e-07
-2.97696e-07
-4.70661e-10
0
-9.38225e-10
-7.62405e-10
-3.83512e-17
-3.00964e-16
-2.95078e-15
2.06318e-08
8.47252e-08
3.38042e-06
4.42172e-05
0.000541565
0.0056571
0.0490569
0.349954
2.06178
10.1458
42.4496
153.138
480.796
1328.49
3251.38
7052.66
13537.1
23429.2
37547.2
56101.1
79636.9
109196
146622
194670
257157
339198
447540
591077
781543
1.03447e+06
1.37046e+06
1.81691e+06
2.41031e+06
3.19937e+06
4.24917e+06
5.64689e+06
7.50955e+06
9.99469e+06
1.32884e+07
1.75972e+07
2.35482e+07
3.15236e+07
1.19186e+08
3.70403e+08
2.96847e+07
2.10612e+07
1.47458e+07
1.01711e+07
6.89991e+06
4.59644e+06
3.0042e+06
1.92949e+06
1.22849e+06
797695
393030
54729.4
2334.01
47.8847
0.60834
0.00675206
0.000104639
3.34346e-06
2.50584e-07
3.92585e-08
9.68542e-09
3.13083e-09
1.22994e-09
5.65791e-10
2.61803e-10
1.00882e-10
4.5545e-11
2.23045e-11
9.38739e-12
3.57553e-12
1.81232e-12
6.70125e-13
2.89705e-13
-6.5799e-13
4.64068e-14
1.7507e-14
5.98468e-15
-7.38182e-13
0
2.83104e-21
3.3882e-12
0
2.38384e-20
0
-6.76992e-16
0
9.35062e-11
-2.90723e-07
1.86917e-10
0
2.88837e-07
7.40274e-10
-9.06915e-10
-1.81036e-09
1.81034e-09
8.31031e-14
1.98267e-08
2.68838e-07
3.46695e-06
4.72792e-05
0.000581593
0.00609676
0.053071
0.380606
2.26449
11.29
47.6364
172.671
544.834
1511.78
3708.04
8025.82
15272.2
26137.2
41469.6
61332.3
86228.6
117250
156352
206405
271368
356482
468639
616881
813114
1.07306e+06
1.41752e+06
1.87408e+06
2.47938e+06
3.28215e+06
4.34722e+06
5.76105e+06
7.63909e+06
1.01358e+07
1.34294e+07
1.77203e+07
2.36146e+07
3.14769e+07
1.90519e+08
3.02103e+08
2.89371e+07
2.04784e+07
1.43077e+07
9.85166e+06
6.67361e+06
4.44078e+06
2.9008e+06
1.86405e+06
1.19045e+06
778965
340850
41136.6
1579.35
30.3289
0.373192
0.00423285
7.06509e-05
2.50262e-06
2.0502e-07
3.42349e-08
9.14508e-09
3.07915e-09
1.30259e-09
5.72265e-10
2.44083e-10
1.12331e-10
4.41226e-11
2.13158e-11
8.49958e-12
3.9277e-12
1.54772e-12
6.65103e-13
2.63837e-13
1.21306e-13
4.33159e-14
1.74933e-14
5.2659e-15
9.77439e-16
-3.66992e-13
2.81925e-21
-2.72117e-07
1.2385e-11
-2.79282e-07
0
2.28065e-11
-2.84258e-07
1.33715e-15
0
0
-8.08635e-10
1.05336e-14
-3.00642e-18
-5.98095e-18
-1.42106e-09
-1.41827e-09
7.95845e-14
1.55231e-08
2.76507e-07
3.58357e-06
5.06646e-05
0.000624308
0.00658069
0.0578375
0.420014
2.51951
12.6232
53.5596
195.241
619.399
1726.32
4242.16
9148.03
17208
29058.2
45597.4
66721.6
92903.1
125315
166014
217981
285279
373243
488851
641232
842374
1.10806e+06
1.45915e+06
1.92321e+06
2.53676e+06
3.34821e+06
4.42183e+06
5.84308e+06
7.72572e+06
1.02213e+07
1.34998e+07
1.77631e+07
2.36109e+07
3.13931e+07
2.51177e+08
2.43459e+08
2.8328e+07
2.004e+07
1.3995e+07
9.63221e+06
6.52274e+06
4.33969e+06
2.83532e+06
1.82383e+06
1.16852e+06
769326
285922
31980
1124.85
20.4148
0.245084
0.00284222
5.07781e-05
1.96109e-06
1.76176e-07
3.07468e-08
8.60414e-09
2.83042e-09
1.18879e-09
5.14663e-10
2.39816e-10
1.04494e-10
4.12053e-11
1.94982e-11
6.85796e-12
3.50062e-12
2.36068e-12
6.38217e-13
-4.98722e-12
8.76617e-13
4.31817e-14
1.60057e-14
5.63157e-15
9.79924e-16
0
0
0
-1.15374e-20
-2.7602e-07
-2.49142e-11
0
0
-1.87908e-19
0
0
-7.39244e-19
-2.71654e-07
-2.69439e-07
-8.66254e-18
-4.01757e-17
-3.03916e-09
-3.45152e-15
3.03456e-08
2.97935e-07
3.8679e-06
5.40743e-05
0.000673851
0.00718443
0.0636302
0.464298
2.80087
14.1166
60.2683
221.077
705.556
1975.78
4862.19
10425.1
19313.3
32103.3
49793.7
72093.5
99476
133217
175460
229292
298844
389519
508350
664516
870039
1.14072e+06
1.49738e+06
1.9675e+06
2.58737e+06
3.40503e+06
4.48414e+06
5.90912e+06
7.79184e+06
1.02804e+07
1.3542e+07
1.77799e+07
2.35772e+07
3.12701e+07
3.0184e+08
1.94974e+08
2.7736e+07
1.96392e+07
1.3726e+07
9.45369e+06
6.40599e+06
4.26497e+06
2.78915e+06
1.79711e+06
1.15521e+06
762341
259864
25579.8
838.145
14.5171
0.171138
0.00203106
3.85681e-05
1.60932e-06
1.5344e-07
2.80156e-08
8.0649e-09
2.76977e-09
1.16e-09
5.0454e-10
2.12076e-10
9.68033e-11
4.6503e-11
1.92162e-11
1.3461e-11
3.08175e-12
1.47482e-12
5.59146e-13
1.02491e-12
8.73439e-13
4.30218e-14
1.59766e-14
5.2705e-15
9.81741e-16
-6.88206e-22
2.9732e-12
0
1.14289e-20
-1.34906e-11
-1.35402e-11
-4.91616e-11
9.81647e-11
1.28067e-15
0
-2.68732e-07
7.18092e-19
-9.90066e-15
0
2.57851e-07
-4.96889e-17
-3.67495e-16
-3.63786e-15
2.3191e-08
3.18749e-07
4.04424e-06
5.83061e-05
0.000731349
0.00783236
0.069743
0.511876
3.1071
15.7626
67.7526
250.244
803.855
2262.3
5571.54
11843
21499.7
35092.7
53824
77159.9
105645
140653
184407
240070
311824
405116
527011
686713
896251
1.17141e+06
1.53292e+06
2.00811e+06
2.63302e+06
3.45522e+06
4.53759e+06
5.96299e+06
7.84159e+06
1.03216e+07
1.35642e+07
1.77694e+07
2.35115e+07
3.11151e+07
3.42913e+08
1.56053e+08
2.71482e+07
1.92537e+07
1.34768e+07
9.29537e+06
6.30786e+06
4.20612e+06
2.75556e+06
1.77963e+06
1.14811e+06
757563
238722
21150.7
653.754
10.8917
0.126668
0.00153685
3.07815e-05
1.37065e-06
1.37195e-07
2.63776e-08
7.53032e-09
2.78371e-09
1.1342e-09
4.93954e-10
2.19336e-10
9.4317e-11
4.27999e-11
1.89229e-11
8.17079e-12
3.23091e-12
1.36532e-12
6.01002e-13
2.58313e-13
1.01711e-13
3.99242e-14
4.36153e-12
5.62721e-15
8.93937e-16
3.65425e-13
2.96075e-12
0
1.20393e-11
-2.27298e-20
4.55108e-20
-2.16793e-11
0
-1.25252e-15
0
-2.61316e-07
3.32497e-10
0
0
-8.04297e-18
-2.46771e-07
-2.44815e-07
-2.48989e-09
2.21021e-08
3.36083e-07
4.51032e-06
6.25517e-05
0.000788865
0.00849265
0.076065
0.561745
3.43227
17.5331
75.9106
282.455
913.698
2584.57
6362.34
13348.7
23581.8
37709.8
57278.4
81474.9
110948
147142
192361
249806
323693
419489
544277
707265
920463
1.19959e+06
1.56527e+06
2.04459e+06
2.6732e+06
3.49786e+06
4.58003e+06
6.00191e+06
7.87379e+06
1.03401e+07
1.35526e+07
1.77135e+07
2.33855e+07
3.08853e+07
3.75083e+08
1.25136e+08
2.65638e+07
1.88782e+07
1.32406e+07
9.15089e+06
6.22255e+06
4.15817e+06
2.73066e+06
1.76865e+06
1.14548e+06
755191
222253
18092.8
533.174
8.60234
0.0990315
0.00122576
2.5695e-05
1.20899e-06
1.27932e-07
2.49651e-08
7.33595e-09
2.80804e-09
1.10733e-09
4.82953e-10
2.20954e-10
9.88941e-11
3.98992e-11
1.6435e-11
8.05944e-12
3.37342e-12
1.44244e-12
5.95138e-13
2.32978e-13
1.01059e-13
3.68398e-14
1.5891e-14
4.90351e-15
8.94705e-16
-6.86245e-22
0
-5.9377e-12
0
-2.66153e-07
0
8.93053e-20
-2.62867e-07
8.38642e-11
-2.57595e-07
6.85873e-19
-6.75714e-19
-3.89984e-10
0
-1.03098e-17
-1.21249e-09
-2.3255e-07
-3.97983e-15
2.39062e-08
3.55152e-07
4.81884e-06
6.65641e-05
0.000844549
0.0091429
0.0823676
0.612093
3.76485
19.3689
84.4905
316.822
1032.37
2934.46
7205
14819.6
25223.2
39464.2
59569.6
84399.9
114700
151967
198552
257666
333541
431648
559073
725009
941425
1.22396e+06
1.59301e+06
2.07528e+06
2.70558e+06
3.53013e+06
4.61094e+06
6.02831e+06
7.88716e+06
1.03276e+07
1.34962e+07
1.7587e+07
2.31414e+07
3.04493e+07
4.07041e+08
9.77313e+07
2.59811e+07
1.85098e+07
1.3014e+07
9.01646e+06
6.14659e+06
4.11826e+06
2.71221e+06
1.76252e+06
1.1462e+06
753578
210073
16003.9
453.792
7.13287
0.0814814
0.00102585
2.23249e-05
1.09652e-06
1.20509e-07
2.46026e-08
7.2777e-09
2.73333e-09
1.16395e-09
4.71577e-10
2.20346e-10
9.51058e-11
4.00019e-11
1.83845e-11
7.92967e-12
3.14598e-12
1.33379e-12
1.33089e-12
2.30977e-13
5.16801e-12
3.9535e-14
7.57091e-13
5.25411e-15
-7.34283e-13
6.85266e-22
-2.61788e-07
-7.72483e-17
0
2.62874e-07
0
0
0
0
0
0
6.54491e-19
0
2.3339e-07
-7.25257e-10
-2.25178e-07
-4.11964e-16
5.03055e-09
2.26611e-08
3.7288e-07
4.88938e-06
7.0496e-05
0.000895877
0.00974844
0.0883052
0.660105
4.08617
21.1677
93.0248
351.53
1153.73
3292.35
8032.3
16018.6
25875
39627.2
59910.6
85098.4
115990
154131
201864
262400
339957
440004
569617
737954
956905
1.24193e+06
1.61316e+06
2.09708e+06
2.72855e+06
3.55362e+06
4.63138e+06
6.04042e+06
7.88414e+06
1.02991e+07
1.3426e+07
1.74566e+07
2.29185e+07
3.0093e+07
4.27046e+08
7.90635e+07
2.54031e+07
1.81481e+07
1.27951e+07
8.88953e+06
6.0774e+06
4.08405e+06
2.69828e+06
1.75966e+06
1.14893e+06
754189
201663
14617.1
402.119
6.19127
0.070307
0.000897287
2.01085e-05
1.02247e-06
1.14299e-07
2.3848e-08
7.09356e-09
2.65612e-09
1.13313e-09
4.6931e-10
2.00455e-10
9.18461e-11
4.19923e-11
1.66446e-11
7.09422e-12
3.28038e-12
1.36697e-12
5.57574e-12
-4.76399e-12
-4.1938e-12
4.21795e-14
1.43479e-14
5.24397e-15
8.95056e-16
0
0
2.61051e-07
-1.1694e-11
0
0
-4.58122e-11
0
0
-2.443e-07
0
6.33249e-19
8.6286e-15
-2.42258e-18
-1.26015e-09
-1.10761e-09
2.12136e-07
2.63015e-09
2.35248e-08
3.7854e-07
5.1478e-06
7.35382e-05
0.000939304
0.0102653
0.0934258
0.701983
4.36998
22.7786
100.783
383.552
1266.76
3621.14
8718.08
16536.7
24741.9
37287.7
57366.6
82554.9
113698
152344
200805
262262
340900
442156
573057
742709
962902
1.249e+06
1.62112e+06
2.10564e+06
2.73683e+06
3.55902e+06
4.63077e+06
6.02894e+06
7.85453e+06
1.02406e+07
1.3322e+07
1.7287e+07
2.26472e+07
2.9671e+07
4.42219e+08
6.58165e+07
2.48279e+07
1.77902e+07
1.25799e+07
8.76612e+06
6.01123e+06
4.05225e+06
2.68609e+06
1.75786e+06
1.15194e+06
756109
196490
13755.4
369.92
5.60678
0.0633835
0.000817065
1.8706e-05
9.73373e-07
1.11598e-07
2.30596e-08
7.3093e-09
2.66338e-09
1.10153e-09
4.88939e-10
2.00319e-10
9.2757e-11
3.96462e-11
1.76511e-11
8.3798e-12
3.23189e-12
1.30003e-12
5.76167e-13
2.2673e-13
9.88707e-14
4.19325e-14
1.42898e-14
4.87643e-15
8.94725e-16
2.59192e-07
0
2.5921e-07
0
-1.50633e-16
0
4.49744e-11
0
0
-2.37579e-07
0
0
-2.84612e-10
-2.15298e-07
-1.13299e-17
-5.74977e-17
1.26815e-09
4.50943e-09
3.147e-08
3.87987e-07
5.33207e-06
7.57489e-05
0.000971016
0.0106455
0.0972242
0.733344
4.58478
24.0123
106.799
408.638
1354.99
3861.98
9054.99
15795.3
24051
31481.2
50993.3
75720.7
106570
145064
193470
254911
333522
434690
565392
734678
954305
1.23954e+06
1.61023e+06
2.09202e+06
2.71857e+06
3.53376e+06
4.59495e+06
5.97724e+06
7.7791e+06
1.01298e+07
1.3159e+07
1.70496e+07
2.22961e+07
2.91527e+07
4.52413e+08
5.75357e+07
2.42518e+07
1.74292e+07
1.23604e+07
8.63779e+06
5.94015e+06
4.01595e+06
2.66997e+06
1.75265e+06
1.15183e+06
756534
193825
13291.6
351.933
5.27617
0.0594527
0.000771329
1.79035e-05
9.47704e-07
1.09761e-07
2.34051e-08
7.0688e-09
2.64791e-09
1.06922e-09
4.75656e-10
2.1009e-10
9.06136e-11
3.88087e-11
1.73139e-11
7.88625e-12
3.18235e-12
2.08175e-12
5.69469e-13
2.29525e-13
9.80832e-14
4.16747e-14
1.42281e-14
4.8644e-15
-4.9875e-12
1.6277e-13
1.89838e-17
-2.57369e-07
2.55563e-07
0
2.49847e-07
0
2.41538e-07
0
3.11712e-19
1.78091e-10
0
-3.36389e-10
2.06241e-07
-5.15736e-10
-5.4633e-17
9.76284e-10
1.90598e-09
3.74055e-08
3.98957e-07
5.35906e-06
7.69297e-05
0.000987097
0.0108398
0.0991823
0.749651
4.6975
24.6657
110.006
421.92
1398.66
3939.42
8843.78
16459.5
25053.9
32816
40216
63893.3
93616.9
130913
177997
237914
314714
413685
541695
707647
923088
1.20301e+06
1.56688e+06
2.04003e+06
2.65549e+06
3.4563e+06
4.49868e+06
5.85608e+06
7.62464e+06
9.93028e+06
1.28981e+07
1.67058e+07
2.18308e+07
2.85137e+07
4.57767e+08
5.38157e+07
2.36614e+07
1.70442e+07
1.21126e+07
8.48108e+06
5.8432e+06
3.95758e+06
2.63591e+06
1.73331e+06
1.14069e+06
750253
192403
13116.1
344.574
5.13632
0.057773
0.000751758
1.75599e-05
9.36888e-07
1.09765e-07
2.30792e-08
6.94623e-09
2.56002e-09
1.07414e-09
4.72839e-10
2.04384e-10
9.58352e-11
3.91263e-11
1.7703e-11
7.40786e-12
3.30347e-12
1.35144e-12
5.18668e-13
2.33323e-13
9.7274e-14
4.01484e-14
1.4553e-14
5.20558e-15
8.49194e-16
2.58821e-07
0
0
5.14292e-12
2.53037e-07
-1.00555e-11
-1.97997e-11
-2.41497e-07
2.36459e-07
-1.65746e-10
1.44898e-10
0
3.36384e-10
5.31253e-10
1.50496e-14
1.95591e-07
-1.19988e-09
4.24843e-09
3.13839e-08
4.85741e-07
5.26853e-06
7.69349e-05
0.000987054
0.0108401
0.0991853
0.749672
4.69762
24.6662
110.008
421.927
1398.68
3939.43
8843.86
16459.6
25054
32816.1
40213.1
63890.2
93613.5
130909
177993
237910
314710
413681
541691
707644
923086
1.20301e+06
1.56688e+06
2.04004e+06
2.6555e+06
3.45631e+06
4.4987e+06
5.85611e+06
7.62468e+06
9.93034e+06
1.28982e+07
1.67059e+07
2.18309e+07
2.85139e+07
4.57779e+08
5.38024e+07
2.36614e+07
1.70442e+07
1.21126e+07
8.48108e+06
5.84319e+06
3.95758e+06
2.63591e+06
1.73331e+06
1.14069e+06
750248
192396
13115.3
344.55
5.13593
0.0577686
0.000751709
1.75612e-05
9.33503e-07
1.08665e-07
2.30794e-08
6.94623e-09
2.64146e-09
1.07414e-09
4.7085e-10
2.10087e-10
8.84334e-11
4.20031e-11
1.69696e-11
7.40808e-12
3.30352e-12
1.43837e-12
5.18667e-13
2.44419e-13
9.72757e-14
3.85975e-14
-4.222e-12
-4.97496e-12
-4.9832e-12
0
0
7.61659e-17
-1.51692e-16
0
2.53813e-07
-8.45786e-20
-1.66591e-19
2.42461e-07
2.23389e-15
1.49578e-10
0
-1.19306e-18
-2.1529e-07
6.64337e-10
-5.74954e-17
-1.03176e-09
4.50922e-09
2.65827e-08
3.87965e-07
5.34033e-06
7.58563e-05
0.000971121
0.0106464
0.0972329
0.733404
4.58512
24.0139
106.806
408.659
1355.05
3862.08
9054.83
15795.6
24051.2
31481.3
50989.2
75716.1
106565
145058
193464
254905
333517
434684
565387
734675
954307
1.23954e+06
1.61024e+06
2.09205e+06
2.71861e+06
3.53381e+06
4.59502e+06
5.97735e+06
7.77925e+06
1.013e+07
1.31593e+07
1.70499e+07
2.22965e+07
2.91534e+07
4.52451e+08
5.74958e+07
2.42518e+07
1.74292e+07
1.23604e+07
8.63778e+06
5.94013e+06
4.01593e+06
2.66996e+06
1.75263e+06
1.15182e+06
756519
193806
13289.3
351.86
5.27499
0.0594394
0.000771171
1.78982e-05
9.46698e-07
1.09765e-07
2.31443e-08
7.0688e-09
2.64791e-09
1.06922e-09
4.75642e-10
2.05495e-10
9.29573e-11
4.14709e-11
1.73134e-11
7.54236e-12
3.1824e-12
1.28242e-12
5.49524e-13
2.35707e-13
9.55549e-14
4.01144e-14
1.49372e-14
5.21926e-15
8.49915e-16
2.59563e-07
-1.91466e-17
-7.67068e-17
0
-2.59593e-07
0
-2.0552e-11
0
0
2.44392e-07
-6.46667e-19
0
1.23878e-18
-5.77885e-10
-1.26012e-09
-1.36126e-09
1.33628e-09
-4.27887e-15
2.09296e-08
4.84339e-07
5.14749e-06
7.35738e-05
0.000939623
0.0102682
0.0934507
0.702154
4.37094
22.7831
100.801
383.615
1266.94
3621.59
8718.8
16536.6
24740.7
37287.7
57367.1
82555.9
113700
152347
200809
262268
340908
442167
573072
742727
962923
1.24903e+06
1.62116e+06
2.10571e+06
2.73692e+06
3.55914e+06
4.63093e+06
6.02916e+06
7.85482e+06
1.0241e+07
1.33225e+07
1.72876e+07
2.2648e+07
2.96721e+07
4.42284e+08
6.57482e+07
2.48279e+07
1.77902e+07
1.25799e+07
8.76609e+06
6.0112e+06
4.05222e+06
2.68607e+06
1.75784e+06
1.15192e+06
756086
196457
13751.5
369.79
5.60462
0.063359
0.000816767
1.87003e-05
9.73391e-07
1.12253e-07
2.36604e-08
7.00674e-09
2.57685e-09
1.10153e-09
4.68419e-10
2.108e-10
9.51514e-11
4.23628e-11
1.62727e-11
7.6746e-12
3.40857e-12
1.38921e-12
5.3122e-13
2.49348e-13
-4.15906e-12
3.90859e-14
1.42892e-14
4.87637e-15
8.50411e-16
2.59934e-07
0
5.89636e-12
1.54706e-16
0
0
0
2.57617e-07
-2.54459e-07
0
1.58938e-10
2.42436e-07
-2.38277e-07
-2.52014e-18
7.25248e-10
-2.58575e-09
3.29566e-14
5.03031e-09
2.266e-08
3.70139e-07
5.00002e-06
7.0526e-05
0.000896148
0.009752
0.0883353
0.66031
4.08732
21.1731
93.0463
351.604
1153.94
3292.87
8033.25
16019.4
25875.2
39629.1
59913.1
85101.7
115995
154137
201872
262411
339972
440024
569645
737991
956952
1.24199e+06
1.61324e+06
2.09717e+06
2.72868e+06
3.5538e+06
4.63162e+06
6.04073e+06
7.88455e+06
1.02996e+07
1.34267e+07
1.74575e+07
2.29196e+07
3.00944e+07
4.2714e+08
7.89665e+07
2.54031e+07
1.81481e+07
1.2795e+07
8.88949e+06
6.07735e+06
4.08401e+06
2.69824e+06
1.75963e+06
1.14891e+06
754160
201618
14611.2
401.922
6.18791
0.0702684
0.00089684
2.01016e-05
1.0225e-06
1.15528e-07
2.35698e-08
7.23537e-09
2.65617e-09
1.05074e-09
4.59877e-10
2.15981e-10
9.48506e-11
4.04664e-11
1.79818e-11
7.09419e-12
-1.64129e-12
1.31715e-12
6.28138e-13
2.28892e-13
-4.92995e-12
3.9316e-14
1.57783e-14
4.88705e-15
8.50733e-16
2.60305e-07
0
0
0
1.56411e-16
-3.12356e-16
0
-1.23584e-15
0
-3.47555e-19
-6.85857e-19
6.75696e-19
2.46353e-07
-2.61767e-18
-6.14824e-10
-2.35341e-07
2.33739e-07
-3.98959e-15
2.62613e-08
2.36217e-07
4.70081e-06
6.6724e-05
0.000844853
0.00914699
0.0824014
0.612324
3.76614
19.3749
84.5142
316.902
1032.6
2935.03
7206.11
14820.9
25224.5
39467.3
59573.6
84405
114706
151976
198563
257681
333561
431675
559109
725057
941488
1.22404e+06
1.59312e+06
2.07542e+06
2.70575e+06
3.53036e+06
4.61124e+06
6.0287e+06
7.88766e+06
1.03283e+07
1.3497e+07
1.7588e+07
2.31427e+07
3.04511e+07
4.07167e+08
9.76032e+07
2.5981e+07
1.85097e+07
1.3014e+07
9.01639e+06
6.14652e+06
4.11819e+06
2.71216e+06
1.76248e+06
1.14617e+06
753531
210013
15995.6
453.503
7.12782
0.0814226
0.00102519
2.2314e-05
1.09515e-06
1.20511e-07
2.39675e-08
7.45694e-09
2.64195e-09
1.12604e-09
4.71575e-10
2.21039e-10
9.13376e-11
3.84475e-11
1.83043e-11
7.20912e-12
3.1459e-12
1.33381e-12
5.89024e-13
-5.13062e-13
1.00366e-13
3.95348e-14
7.57086e-13
4.89626e-15
8.9518e-16
2.01487e-13
0
0
0
0
-1.33432e-11
0
0
1.25268e-15
-2.64117e-07
-3.75099e-10
0
-4.03327e-10
-2.71507e-18
-8.04268e-18
1.55443e-09
-2.7936e-09
-3.80957e-15
2.76262e-08
3.30556e-07
4.39044e-06
6.25918e-05
0.000789095
0.00849725
0.0761029
0.562001
3.43368
17.5396
75.936
282.54
913.941
2585.16
6363.54
13350.4
23583.9
37713.8
57283.7
81481.5
110956
147153
192376
249825
323717
419522
544321
707323
920539
1.19969e+06
1.5654e+06
2.04476e+06
2.67342e+06
3.49814e+06
4.58039e+06
6.00238e+06
7.87439e+06
1.03409e+07
1.35536e+07
1.77147e+07
2.33871e+07
3.08873e+07
3.7524e+08
1.24975e+08
2.65636e+07
1.88781e+07
1.32405e+07
9.15078e+06
6.22245e+06
4.15809e+06
2.73059e+06
1.76859e+06
1.14545e+06
755150
222178
18081.3
532.753
8.59474
0.0989419
0.00122475
2.56774e-05
1.20785e-06
1.27933e-07
2.50333e-08
7.15173e-09
2.80813e-09
1.10735e-09
4.82965e-10
2.0977e-10
9.88918e-11
3.91744e-11
1.79673e-11
7.32082e-12
3.37334e-12
1.53496e-12
5.95134e-13
-5.17863e-13
5.20114e-12
-7.09151e-13
1.58909e-14
5.26194e-15
9.43899e-16
0
0
0
0
-2.7271e-07
-1.35401e-11
-2.20546e-11
-1.28583e-15
8.77201e-11
0
2.68726e-07
0
0
-2.81232e-18
1.93845e-14
-4.9687e-17
-3.6748e-16
-3.62678e-15
2.57907e-08
4.48089e-07
4.17658e-06
5.83723e-05
0.000732127
0.00783779
0.0697864
0.512159
3.10863
15.7695
67.7792
250.331
804.105
2262.92
5572.8
11845
21502.4
35097.5
53830.4
77168.1
105656
140666
184424
240093
311854
405156
527064
686783
896343
1.17153e+06
1.53308e+06
2.00832e+06
2.63328e+06
3.45556e+06
4.53803e+06
5.96355e+06
7.84231e+06
1.03225e+07
1.35653e+07
1.77708e+07
2.35133e+07
3.11173e+07
3.43109e+08
1.55857e+08
2.71479e+07
1.92535e+07
1.34766e+07
9.29521e+06
6.30772e+06
4.206e+06
2.75547e+06
1.77957e+06
1.14807e+06
757513
238632
21134.7
653.135
10.88
0.126529
0.00153528
3.07569e-05
1.36949e-06
1.37198e-07
2.66822e-08
7.71963e-09
2.70552e-09
1.1342e-09
4.69148e-10
2.19338e-10
1.00826e-10
4.57225e-11
1.89223e-11
8.17099e-12
3.41758e-12
6.08867e-13
1.38462e-12
2.58311e-13
8.57935e-13
-7.13438e-13
5.11062e-12
5.2676e-15
9.83092e-16
-4.80101e-18
0
-7.94151e-17
-1.15373e-20
-1.11084e-11
2.77695e-07
-2.24303e-11
0
8.96491e-11
8.93081e-11
2.75789e-07
0
7.79881e-10
1.54702e-09
-8.66226e-18
-4.01742e-17
-3.48632e-16
-3.45137e-15
1.82066e-08
3.04001e-07
3.86771e-06
5.42774e-05
0.000674591
0.00719095
0.0636794
0.464613
2.80254
14.124
60.2961
221.168
705.811
1976.4
4863.5
10427.3
19316.6
32108.8
49801.1
72103.1
99488.4
133233
175481
229320
298881
389569
508416
664602
870153
1.14087e+06
1.49758e+06
1.96775e+06
2.58769e+06
3.40546e+06
4.48468e+06
5.90981e+06
7.79271e+06
1.02815e+07
1.35433e+07
1.77815e+07
2.35793e+07
3.12725e+07
3.0208e+08
1.94737e+08
2.77357e+07
1.96389e+07
1.37257e+07
9.45344e+06
6.40577e+06
4.26479e+06
2.78901e+06
1.79701e+06
1.15515e+06
762294
259756
25557.5
837.216
14.4988
0.170914
0.00202858
3.85307e-05
1.60506e-06
1.54065e-07
2.80162e-08
8.06504e-09
2.76974e-09
1.11935e-09
5.04536e-10
2.07079e-10
9.68046e-11
3.98056e-11
1.92166e-11
8.28502e-12
3.25144e-12
2.24042e-12
6.06563e-13
2.36628e-13
1.05566e-13
4.30216e-14
1.59765e-14
5.27046e-15
8.9276e-16
-3.66992e-13
2.67348e-07
-2.73809e-12
-2.76094e-07
-1.38154e-11
2.81693e-07
0
1.33619e-15
1.33713e-15
0
0
0
1.51206e-18
-3.00633e-18
-2.77807e-07
-4.76565e-17
-3.32929e-16
-8.61287e-14
1.90178e-08
4.22049e-07
3.59618e-06
5.05992e-05
0.000625291
0.00658779
0.0578916
0.420358
2.52131
12.6311
53.5889
195.335
619.662
1726.96
4243.52
9150.39
17211.7
29064.3
45605.9
66732.8
92917.9
125335
166039
218015
285325
373303
488931
641337
842513
1.10825e+06
1.45939e+06
1.92352e+06
2.53715e+06
3.34872e+06
4.42248e+06
5.84391e+06
7.72677e+06
1.02226e+07
1.35014e+07
1.7765e+07
2.36133e+07
3.13959e+07
2.51475e+08
2.43169e+08
2.83278e+07
2.00399e+07
1.39949e+07
9.63212e+06
6.52264e+06
4.3396e+06
2.83524e+06
1.82378e+06
1.16849e+06
769312