/*--------------------------------*- C++ -*----------------------------------*\
  =========                 |
  \\      /  F ield         | OpenFOAM: The Open Source CFD Toolbox
   \\    /   O peration     | Website:  https://openfoam.org
    \\  /    A nd           | Version:  8
     \\/     M anipulation  |
\*---------------------------------------------------------------------------*/
FoamFile
{
    version     2.0;
    format      ascii;
    class       volScalarField;
    location    "480/fluid";
    object      rDeltaT;
}
// * * * * * * * * * * * * * * * * * * * * * * * * * * * * * * * * * * * * * //

dimensions      [0 0 -1 0 0 0 0];

internalField   nonuniform List<scalar> 
4000
(
513.342
539.106
563.728
587.346
609.901
631.3
651.422
670.137
687.318
702.87
716.755
729.019
739.827
749.48
758.435
767.2
776.18
785.58
795.343
805.122
814.349
822.343
828.443
832.1
832.948
830.792
825.508
817.055
805.461
790.805
773.205
752.806
741.493
762.164
804.386
845.909
886.67
926.617
965.71
1003.92
1041.21
1077.58
1113
1147.48
1180.98
1213.51
1245.05
1275.58
1305.1
1333.58
1361
1387.35
1412.59
1436.7
1459.65
1481.41
1501.95
1521.21
1538.98
1555.58
1570.9
1585.68
16843.6
1572.68
1539.03
1499.84
1455.7
1407.23
1354.89
1299.13
1240.39
1179.18
1116.11
1051.75
986.819
922.708
861.41
805.369
757.525
720.677
696.097
682.6
677.007
675.688
675.654
675.001
672.666
668.231
661.703
653.263
643.149
631.607
618.865
605.124
590.554
575.291
559.435
543.058
526.217
508.87
512.885
538.012
561.865
584.382
605.533
625.248
643.441
660.027
674.943
688.174
699.774
709.895
718.804
726.899
734.66
742.552
750.955
760.078
769.859
779.948
789.753
798.552
805.619
810.337
812.25
811.037
806.522
798.652
787.464
773.059
755.582
735.202
712.108
715.493
753.018
795.766
837.905
879.37
920.106
960.072
999.234
1037.57
1075.07
1111.69
1147.44
1182.29
1216.24
1249.27
1281.38
1312.54
1342.75
1371.98
1400.23
1427.48
1453.7
1478.87
1502.96
1525.84
1547.36
1567.81
1586.94
1604.58
16843.3
1586.08
1547.09
1503.89
1456.51
1405.13
1349.98
1291.32
1229.46
1164.79
1097.81
1029
959.199
890.239
824.738
765.986
717.393
681.499
658.783
647.208
643.215
643.258
644.651
645.728
645.611
643.824
640.187
634.719
627.524
618.751
608.56
597.111
584.548
570.998
556.559
541.307
525.292
508.556
512.209
535.839
558.026
578.736
597.91
615.491
631.428
645.687
658.27
669.232
678.702
686.898
694.142
700.844
707.453
714.407
722.084
730.693
740.186
750.224
760.229
769.48
777.24
782.848
785.761
785.58
782.078
775.168
764.868
751.267
734.5
714.735
692.157
679.764
700.933
744.262
787.23
829.759
871.784
913.257
954.138
994.386
1033.97
1072.88
1111.09
1148.58
1185.36
1221.4
1256.69
1291.23
1325.01
1358.03
1390.28
1421.74
1452.42
1482.28
1511.26
1539.15
1565.8
1591.25
1614.73
2104.4
15995.4
1608.97
1563.97
1515.05
1462.25
1405.66
1345.43
1281.75
1214.89
1145.26
1073.41
999.907
925.968
853.866
786.625
727.797
680.656
647.088
626.738
617.074
614.507
615.689
618.152
620.369
621.573
621.388
619.629
616.245
611.259
604.739
596.775
587.467
576.91
565.196
552.399
538.583
523.809
508.102
511.544
533.837
554.616
573.836
591.456
607.44
621.763
634.423
645.448
654.918
662.975
669.843
675.834
681.349
686.849
692.801
699.594
707.435
716.271
725.762
735.329
744.247
751.772
757.232
760.092
759.97
756.631
749.967
739.97
726.7
710.271
690.828
668.539
643.767
652.109
695.834
739.448
782.87
826.032
868.873
911.338
953.394
995.013
1036.17
1076.84
1117.01
1156.66
1195.79
1234.36
1272.39
1309.84
1346.72
1383
1418.66
1453.66
1487.95
1521.43
1553.79
1584.83
1614.54
1642.16
6535.03
12077.2
1623.23
1573.67
1519.81
1461.88
1400.09
1334.7
1265.99
1194.36
1120.37
1044.7
968.127
892.255
819.621
753.305
696.595
652.275
621.632
603.776
595.935
594.607
596.694
599.961
603.012
605.098
605.858
605.145
602.919
599.199
594.031
587.473
579.59
570.445
560.096
548.593
535.983
522.312
507.615
510.831
531.668
550.94
568.608
584.639
599.006
611.703
622.743
632.179
640.108
646.695
652.18
656.891
661.237
665.683
670.689
676.635
683.72
691.885
700.793
709.867
718.385
725.6
730.838
733.551
733.347
729.982
723.334
713.383
700.176
683.815
664.429
642.173
617.21
615.887
650.049
694.213
738.415
782.58
826.65
870.577
914.321
957.848
1001.13
1044.13
1086.85
1129.24
1171.29
1212.99
1254.3
1295.2
1335.66
1375.65
1415.1
1453.94
1492.06
1529.3
1565.24
1599.6
1632.3
1662.45
10732.9
7921.67
1627.64
1574.75
1516.97
1454.76
1388.57
1318.81
1245.94
1170.5
1093.21
1014.85
936.345
859.591
787.224
722.289
667.856
626.283
598.308
582.592
576.212
575.807
578.531
582.371
586.078
588.961
590.666
591.026
589.978
587.509
583.642
578.41
571.857
564.026
554.96
544.696
533.27
520.725
507.094
510.112
529.514
547.334
563.54
578.102
591.007
602.257
611.881
619.94
626.544
631.864
636.145
639.714
642.978
646.394
650.416
655.416
661.591
668.884
676.964
685.263
693.071
699.647
704.321
706.546
705.926
702.209
695.265
685.06
671.631
655.063
635.474
613.006
587.811
579.61
606.962
651.58
696.449
741.499
786.67
831.909
877.172
922.419
967.615
1012.73
1057.73
1102.58
1147.26
1191.73
1235.95
1279.87
1323.43
1366.57
1409.19
1451.16
1492.31
1532.4
1570.9
1607.55
1642.15
1673.67
14611.4
3913.27
1623.12
1567.73
1506.76
1441.05
1371.29
1298.07
1222.01
1143.79
1064.25
984.224
904.841
828.181
756.923
694.032
642.335
603.774
578.596
565.095
560.243
560.803
564.143
568.443
572.585
575.957
578.243
579.288
579.026
577.437
574.526
570.312
564.819
558.075
550.108
540.944
530.609
519.139
506.567
509.384
527.33
543.694
558.444
571.558
583.027
592.864
601.103
607.815
613.118
617.188
620.276
622.712
624.898
627.287
630.328
634.383
639.642
646.046
653.265
660.734
667.75
673.579
677.554
679.129
677.91
673.64
666.184
655.501
641.62
624.619
604.608
581.714
556.081
543.04
565.766
610.772
656.226
702.053
748.191
794.583
841.181
887.94
934.819
981.778
1028.78
1075.78
1122.73
1169.58
1216.28
1262.75
1308.91
1354.65
1399.85
1444.32
1487.83
1530.1
1570.49
1608.69
1644.43
1676.53
18016.4
1662.58
1611.78
1553.86
1490.18
1421.75
1349.33
1273.66
1195.44
1115.47
1034.65
953.861
874.394
798.453
728.716
668.044
619.024
583.228
560.502
548.872
545.28
546.637
550.511
555.241
559.817
563.682
566.54
568.242
568.719
567.942
565.905
562.617
558.091
552.345
545.398
537.269
527.979
517.559
506.039
508.656
525.152
540.075
553.396
565.097
575.177
583.652
590.563
595.988
600.046
602.919
604.857
606.188
607.311
608.671
610.707
613.776
618.059
623.497
629.761
636.292
642.394
647.34
650.468
651.238
649.253
644.258
636.114
624.776
610.269
592.663
572.058
548.574
522.347
506.13
525.996
571.312
617.248
663.726
710.682
758.054
805.791
853.842
902.157
950.69
999.39
1048.2
1097.07
1145.92
1194.69
1243.27
1291.57
1339.44
1386.72
1433.19
1478.58
1522.48
1564.07
1603.41
1639.23
1670.18
18011.1
1649.03
1595.03
1534.51
1468.55
1398.05
1323.79
1246.51
1166.99
1086.08
1004.74
923.853
844.873
770.085
702.149
643.822
597.472
564.338
543.929
534.057
531.66
533.785
538.171
543.298
548.253
552.531
555.864
558.115
559.214
559.13
557.851
555.377
551.715
546.875
540.869
533.709
525.413
516.007
505.518
507.927
522.975
536.462
548.363
558.666
567.372
574.503
580.105
584.257
587.085
588.771
589.565
589.793
589.849
590.172
591.192
593.257
596.543
600.984
606.252
611.793
616.914
620.896
623.083
622.938
620.069
614.222
605.257
593.13
577.858
559.509
538.178
513.981
487.043
468.862
487.144
532.685
578.996
625.999
673.624
721.808
770.492
819.619
869.134
918.978
969.092
1019.41
1069.86
1120.35
1170.8
1221.09
1271.09
1320.64
1369.55
1417.56
1464.35
1509.41
1552
1591.96
1627.8
1683.56
17390.3
1630.19
1573.59
1511.02
1443.36
1371.42
1295.97
1217.77
1137.6
1056.37
975.048
894.541
816.434
743.066
677.058
621.064
577.245
546.555
528.221
519.906
518.571
521.396
526.274
531.802
537.146
541.844
545.649
548.433
550.127
550.699
550.133
548.425
545.576
541.592
536.479
530.247
522.909
514.487
505.007
507.2
520.804
532.862
543.353
552.269
559.615
565.417
569.723
572.618
574.228
574.736
574.391
573.517
572.502
571.777
571.765
572.804
575.061
578.469
582.697
587.193
591.271
594.218
595.383
594.237
590.392
583.596
573.71
560.689
544.552
525.363
503.212
478.211
450.48
431.224
448.842
494.517
541.096
588.498
636.649
685.483
734.935
784.94
835.436
886.356
937.63
989.179
1040.92
1092.75
1144.56
1196.23
1247.6
1298.49
1348.68
1397.91
1445.83
1491.89
1535.4
1576.27
1613.19
4685.1
14892.1
1605.72
1547.72
1483.98
1415.36
1342.65
1266.62
1188.05
1107.76
1026.68
945.764
865.972
788.998
717.198
653.165
599.448
558.023
529.594
513.155
506.261
505.909
509.404
514.77
520.705
526.442
531.558
535.826
539.124
541.388
542.585
542.697
541.717
539.642
536.474
532.219
526.88
520.469
513.004
504.508
506.475
518.639
529.272
538.358
545.893
551.884
556.362
559.379
561.019
561.413
560.742
559.256
557.274
555.18
553.397
552.338
552.333
553.542
555.891
559.048
562.462
565.453
567.313
567.4
565.188
560.297
552.477
541.596
527.608
510.531
490.429
467.391
441.524
412.947
393.225
410.794
456.514
503.258
550.941
599.487
648.824
698.88
749.588
800.876
852.669
904.888
957.445
1010.24
1063.17
1116.11
1168.91
1221.42
1273.43
1324.71
1374.98
1423.89
1470.87
1515.27
1556.97
1594.75
7523.97
12168.3
1577.09
1518.66
1454.49
1385.51
1312.55
1236.42
1157.91
1077.88
997.278
917.054
838.211
762.526
692.368
630.292
578.753
539.558
513.194
498.468
492.859
493.414
497.548
503.404
509.763
515.915
521.467
526.209
530.028
532.861
534.675
535.453
535.183
533.862
531.489
528.066
523.596
518.088
511.557
504.021
505.751
516.479
525.692
533.377
539.533
544.173
547.33
549.058
549.445
548.621
546.769
544.138
541.041
537.859
535.007
532.889
531.825
531.967
533.234
535.293
537.594
539.462
540.195
539.156
535.83
529.841
520.945
509.014
494.005
475.936
454.873
430.903
404.133
374.679
354.884
372.786
418.468
465.279
513.135
561.954
611.661
662.181
713.437
765.352
817.845
870.828
924.204
977.868
1031.7
1085.56
1139.31
1192.76
1245.71
1297.91
1349.07
1398.83
1446.6
1491.73
1534.13
1572.52
9941.36
9823.54
1546.04
1487.6
1423.42
1354.49
1281.66
1205.77
1127.65
1048.16
968.294
888.965
811.218
736.919
668.428
608.262
558.787
521.661
497.183
484.013
479.58
480.982
485.739
492.092
498.894
505.483
511.492
516.724
521.073
524.48
526.913
528.351
528.783
528.205
526.612
524.006
520.387
515.761
510.142
503.545
505.03
514.325
522.118
528.404
533.184
536.473
538.309
538.747
537.879
535.834
532.797
529.014
524.797
520.518
516.587
513.399
511.262
510.322
510.49
511.431
512.596
513.312
512.886
510.689
506.213
499.088
489.078
476.059
459.991
440.897
418.841
393.913
366.219
335.873
316.23
334.668
380.23
427.02
474.95
523.935
573.896
624.752
676.423
728.825
781.871
835.466
889.506
943.877
998.45
1053.08
1107.62
1161.86
1215.6
1268.58
1320.5
1370.98
1419.44
1465.22
1508.21
1547.1
11966.2
7878.98
1513.47
1455.26
1391.35
1322.74
1250.33
1174.95
1097.46
1018.75
939.785
861.492
784.955
712.092
645.26
586.936
539.402
504.183
481.426
469.668
466.312
468.512
473.881
480.741
488.009
495.06
501.551
507.296
512.193
516.187
519.244
521.346
522.481
522.641
521.821
520.021
517.239
513.482
508.758
503.079
504.31
512.174
518.551
523.438
526.842
528.781
529.293
528.44
526.313
523.044
518.818
513.877
508.532
503.15
498.131
493.863
490.644
488.608
487.664
487.47
487.479
487.024
485.417
482.036
476.383
468.097
456.946
442.813
425.663
405.523
382.457
356.558
327.931
296.691
277.297
296.335
341.704
388.392
436.307
485.362
535.474
586.558
638.529
691.299
744.774
798.853
853.427
908.374
963.559
1018.83
1074.02
1128.94
1183.35
1237.01
1289.59
1340.72
1389.79
1436.16
1479.7
1519.09
13611.1
6314.35
1479.95
1422.12
1358.67
1290.59
1218.8
1144.14
1067.46
989.668
911.752
834.604
759.352
687.952
622.754
566.193
520.478
487.016
465.826
455.353
452.99
455.949
461.921
469.303
477.06
484.6
491.598
497.878
503.343
507.939
511.634
514.408
516.249
517.147
517.097
516.097
514.145
511.243
507.399
502.623
503.591
510.026
514.988
518.478
520.504
521.091
520.28
518.133
514.744
510.247
504.826
498.723
492.244
485.752
479.639
474.283
469.972
466.833
464.764
463.423
462.263
460.621
457.815
453.234
446.387
436.92
424.613
409.351
391.106
369.908
345.826
318.953
289.395
257.267
238.12
257.721
302.831
349.342
397.164
446.205
496.379
547.596
599.769
652.805
706.604
761.062
816.062
871.477
927.168
982.978
1038.73
1094.22
1149.22
1203.47
1256.65
1308.38
1358.02
1404.95
1449.05
1488.98
14901.8
5068.81
1445.8
1388.47
1325.62
1258.24
1187.22
1113.42
1037.7
960.957
884.188
808.263
734.344
664.417
600.815
545.938
501.925
470.083
450.32
441.012
439.563
443.247
449.821
457.739
466.009
474.065
481.597
488.436
494.489
499.705
504.052
507.509
510.062
511.703
512.424
512.221
511.092
509.037
506.063
502.174
502.874
507.881
511.428
513.52
514.169
513.404
511.266
507.823
503.17
497.441
490.821
483.551
475.934
468.326
461.114
454.663
449.255
445.004
441.803
439.306
436.967
434.126
430.111
424.318
416.265
405.608
392.134
375.736
356.391
334.134
309.036
281.193
250.713
217.71
198.738
218.789
263.577
309.848
357.506
406.458
456.615
507.885
560.175
613.39
667.425
722.171
777.509
833.306
889.416
945.679
1001.91
1057.91
1113.44
1168.23
1221.95
1274.24
1324.43
1371.94
1416.65
1457.25
16182.8
3962.35
1411.12
1354.44
1292.33
1225.77
1155.67
1082.86
1008.21
932.615
857.067
782.422
709.867
641.405
579.355
526.082
483.665
453.327
434.886
426.633
426.003
430.381
437.557
446.028
454.834
463.432
471.523
478.945
485.608
491.462
496.475
500.627
503.903
506.292
507.787
508.381
508.072
506.859
504.744
501.732
502.156
505.737
507.87
508.564
507.836
505.716
502.251
497.509
491.589
484.626
476.804
468.364
459.604
450.877
442.56
435.011
428.5
423.132
418.794
415.134
411.609
407.563
402.331
395.319
386.054
374.203
359.558
342.023
321.579
298.266
272.16
243.357
211.969
178.11
159.187
179.523
223.934
269.905
317.336
366.134
416.205
467.455
519.79
573.108
627.305
682.265
737.866
793.971
850.432
907.082
963.736
1020.19
1076.2
1131.49
1185.74
1238.56
1289.3
1337.39
1382.69
1423.9
16987.9
3207.66
1376.18
1320.22
1258.95
1193.33
1124.24
1052.52
979.019
904.644
830.371
757.045
685.865
618.847
558.291
506.53
465.595
436.647
419.464
412.237
412.334
417.369
425.14
434.173
443.531
452.691
461.362
469.387
476.68
483.19
488.885
493.745
497.753
500.899
503.172
504.566
505.077
504.701
503.44
501.295
501.439
503.594
504.314
503.609
501.503
498.027
493.233
487.191
480.001
471.802
462.776
453.163
443.258
433.409
423.984
415.334
407.716
401.228
395.748
390.921
386.206
380.951
374.499
366.265
355.787
342.74
326.927
308.258
286.721
262.361
235.257
205.51
173.232
138.539
119.505
139.921
183.906
229.523
276.671
325.255
375.179
426.347
478.661
532.017
586.308
641.417
697.216
753.567
810.319
867.302
924.328
981.185
1037.63
1093.39
1148.13
1201.48
1252.77
1301.43
1347.34
1389.2
17598.8
2671.59
1341.06
1285.92
1225.57
1160.96
1092.97
1022.41
950.14
877.041
804.086
732.104
662.304
596.702
537.578
487.233
447.654
419.951
403.909
397.713
398.543
404.217
412.573
422.168
432.09
441.827
451.096
459.745
467.686
474.869
481.262
486.844
491.596
495.507
498.566
500.765
502.096
502.557
502.146
500.862
500.723
501.452
500.757
498.655
495.169
490.337
484.212
476.869
468.408
458.97
448.738
437.95
426.898
415.924
405.391
395.637
386.911
379.3
372.676
366.681
360.773
354.307
346.634
337.178
325.488
311.249
294.273
274.477
251.857
226.462
198.376
167.703
134.557
100
100
100
143.511
188.724
235.537
283.853
333.574
384.602
436.836
490.171
544.497
599.695
655.635
712.177
769.166
826.432
883.783
941.006
997.856
1054.05
1109.28
1163.13
1214.96
1264.21
1310.75
1353.3
18009.4
2336.26
1305.8
1251.55
1192.21
1128.7
1061.88
992.562
921.57
849.793
778.189
707.574
639.156
574.943
517.193
468.175
429.834
403.242
388.178
382.914
384.547
390.867
399.809
409.975
420.475
430.809
440.698
449.99
458.599
466.475
473.585
479.904
485.415
490.103
493.957
496.966
499.122
500.421
500.858
500.431
500.007
499.31
497.201
493.7
488.834
482.645
475.189
466.542
456.81
446.131
434.692
422.727
410.528
398.428
386.784
375.925
366.09
357.355
349.586
342.422
335.321
327.645
318.751
308.076
295.179
279.753
261.622
240.71
217.019
190.605
161.555
129.977
100
100
100
100
102.773
147.538
193.969
241.966
291.432
342.266
394.365
447.624
501.929
557.16
613.187
669.867
727.044
784.545
842.179
899.731
956.954
1013.57
1069.25
1123.61
1175.98
1225.83
1273.01
1316.26
18224.9
2185.55
1270.42
1217.15
1158.9
1096.57
1030.99
962.958
893.296
822.878
752.652
683.421
616.384
553.535
497.106
449.337
412.14
386.556
372.324
367.79
370.233
377.217
386.767
397.529
408.636
419.593
430.128
440.09
449.393
457.984
465.829
472.905
479.19
484.669
489.329
493.157
496.145
498.286
499.574
500.002
500.006
499.309
497.2
493.698
488.832
482.642
475.186
466.539
456.806
446.127
434.687
422.721
410.521
398.421
386.777
375.918
366.082
357.347
349.577
342.412
335.31
327.633
318.74
308.064
295.166
279.74
261.608
240.696
217.005
190.59
161.54
129.962
100
100
100
100
102.764
147.529
193.961
241.959
291.425
342.259
394.359
447.618
501.924
557.155
613.183
669.863
727.04
784.542
842.177
899.728
956.952
1013.57
1069.25
1123.6
1175.98
1225.82
1273.01
1316.26
18225.4
2185.01
1270.41
1217.14
1158.9
1096.57
1030.99
962.957
893.295
822.878
752.652
683.421
616.385
553.535
497.107
449.337
412.14
386.557
372.325
367.791
370.233
377.217
386.767
397.529
408.635
419.593
430.128
440.09
449.393
457.984
465.829
472.904
479.189
484.668
489.328
493.156
496.145
498.285
499.571
500
500.722
501.449
500.754
498.651
495.164
490.331
484.206
476.861
468.4
458.96
448.727
437.938
426.886
415.911
405.376
395.621
386.894
379.282
372.656
366.66
360.751
354.284
346.61
337.153
325.461
311.221
294.244
274.447
251.826
226.431
198.345
167.671
134.524
100
100
100
143.496
188.71
235.525
283.841
333.563
384.592
436.827
490.163
544.49
599.688
655.629
712.172
769.162
826.428
883.78
941.003
997.854
1054.05
1109.27
1163.13
1214.96
1264.21
1310.74
1353.29
18010.9
2334.62
1305.8
1251.54
1192.2
1128.7
1061.88
992.558
921.566
849.791
778.187
707.572
639.154
574.942
517.193
468.174
429.833
403.242
388.179
382.915
384.547
390.867
399.809
409.975
420.475
430.808
440.697
449.989
458.599
466.475
473.584
479.902
485.413
490.101
493.954
496.963
499.12
500.418
500.853
500.427
501.438
503.592
504.31
503.605
501.498
498.021
493.226
487.183
479.992
471.792
462.765
453.15
443.245
433.394
423.969
415.317
407.698
401.209
395.727
390.9
386.183
380.927
374.473
366.237
355.758
342.709
326.895
308.225
286.687
262.326
235.221
205.474
173.195
138.502
119.481
139.912
183.898
229.515
276.665
325.25
375.175
426.344
478.658
532.016
586.308
641.417
697.217
753.569
810.32
867.304
924.33
981.187
1037.63
1093.39
1148.14
1201.48
1252.77
1301.43
1347.34
1389.19
17601.3
2668.8
1341.05
1285.9
1225.56
1160.95
1092.96
1022.4
950.131
877.033
804.078
732.097
662.298
596.697
537.574
487.229
447.651
419.95
403.909
397.713
398.542
404.217
412.573
422.167
432.089
441.826
451.095
459.744
467.685
474.868
481.261
486.842
491.594
495.505
498.564
500.762
502.094
502.554
502.14
500.858
502.155
505.734
507.867
508.56
507.831
505.71
502.244
497.501
491.579
484.615
476.793
468.351
459.591
450.862
442.544
434.994
428.481
423.112
418.773
415.112
411.585
407.538
402.304
395.29
386.024
374.17
359.524
341.988
321.542
298.228
272.12
243.317
211.928
178.068
159.164
179.519
223.932
269.904
317.336
366.135
416.207
467.459
519.795
573.114
627.311
682.272
737.873
793.979
850.44
907.09
963.744
1020.2
1076.2
1131.49
1185.74
1238.56
1289.31
1337.39
1382.69
1423.89
16991.5
3203.69
1376.16
1320.21
1258.93
1193.31
1124.22
1052.5
979.003
904.63
830.358
757.032
685.853
618.837
558.282
506.523
465.589
436.643
419.462
412.235
412.333
417.368
425.139
434.172
443.53
452.689
461.36
469.386
476.679
483.189
488.884
493.743
497.751
500.896
503.169
504.564
505.074
504.698
503.434
501.291
502.872
507.878
511.425
513.516
514.165
513.398
511.259
507.815
503.16
497.431
490.81
483.538
475.92
468.311
461.097
454.645
449.236
444.984
441.782
439.283
436.942
434.1
430.083
424.288
416.233
405.574
392.097
375.698
356.351
334.092
308.993
281.148
250.667
217.663
198.715
218.792
263.582
309.854
357.513
406.467
456.625
507.896
560.187
613.402
667.438
722.185
777.523
833.32
889.431
945.693
1001.92
1057.92
1113.45
1168.24
1221.96
1274.24
1324.44
1371.95
1416.65
1457.25
16187.7
3957.09
1411.09
1354.41
1292.3
1225.75
1155.64
1082.84
1008.19
932.593
857.046
782.403
709.849
641.389
579.341
526.071
483.656
453.32
434.881
426.63
426.001
430.379
437.555
446.027
454.833
463.43
471.521
478.943
485.606
491.46
496.473
500.625
503.9
506.289
507.784
508.379
508.07
506.855
504.739
501.728
503.59
510.024
514.985
518.474
520.5
521.086
520.273
518.125
514.735
510.237
504.814
498.71
492.23
485.736
479.622
474.264
469.953
466.812
464.742
463.4
462.238
460.594
457.786
453.203
446.353
436.884
424.574
409.31
391.063
369.863
345.779
318.904
289.345
257.215
238.098
257.732
302.842
349.356
397.179
446.221
496.396
547.615
599.789
652.825
706.625
761.083
816.083
871.499
927.189
982.998
1038.75
1094.24
1149.24
1203.49
1256.66
1308.39
1358.02
1404.96
1449.05
1488.98
14908
5062.19
1445.76
1388.43
1325.58
1258.2
1187.19
1113.39
1037.67
960.927
884.159
808.236
734.319
664.394
600.795
545.922
501.912
470.073
450.313
441.007
439.56
443.244
449.818
457.737
466.006
474.062
481.594
488.433
494.487
499.703
504.049
507.506
510.059
511.7
512.421
512.218
511.089
509.034
506.057
502.171
504.309
512.172
518.549
523.435
526.837
528.775
529.287
528.432
526.304
523.034
518.806
513.864
508.517
503.134
498.114
493.844
490.624
488.588
487.642
487.446
487.454
486.996
485.386
482.004
476.348
468.059
456.906
442.77
425.618
405.475
382.407
356.505
327.876
296.634
277.275
296.353
341.724
388.413
436.33
485.387
535.5
586.585
638.557
691.328
744.803
798.883
853.456
908.403
963.587
1018.86
1074.05
1128.96
1183.38
1237.03
1289.6
1340.74
1389.8
1436.16
1479.7
1519.09
13618.8
6306.31
1479.91
1422.08
1358.62
1290.55
1218.76
1144.1
1067.42
989.629
911.715
834.568
759.318
687.922
622.727
566.17
520.459
487.002
465.815
455.346
452.984
455.945
461.918
469.3
477.057
484.597
491.595
497.875
503.34
507.936
511.631
514.405
516.245
517.143
517.094
516.094
514.142
511.239
507.394
502.62
505.029
514.323
522.116
528.401
533.179
536.468
538.302
538.739
537.87
535.824
532.786
529.001
524.782
520.502
516.57
513.38
511.243
510.301
510.468
511.406
512.57
513.284
512.856
510.656
506.176
499.049
489.036
476.014
459.943
440.846
418.787
393.857
366.16
335.811
316.21
334.694
380.258
427.05
474.981
523.968
573.93
624.788
676.46
728.863
781.91
835.505
889.544
943.914
998.487
1053.12
1107.65
1161.89
1215.63
1268.61
1320.52
1371
1419.45
1465.23
1508.21
1547.1
11975.7
7869.28
1513.42
1455.2
1391.29
1322.68
1250.27
1174.9
1097.41
1018.69
939.737
861.446
784.912
712.053
645.225
586.905
539.377
504.164
481.412
469.658
466.304
468.507
473.876
480.737
488.005
495.056
501.547
507.292
512.189
516.183
519.241
521.343
522.478
522.637
521.818
520.018
517.237
513.478
508.753
503.077
505.751
516.478
525.689
533.374
539.529
544.168
547.324
549.05
549.436
548.611
546.758
544.125
541.027
537.844
534.99
532.871
531.805
531.946
533.212
535.269
537.568
539.433
540.163
539.122
535.792
529.8
520.901
508.967
493.954
475.882
454.815
430.842
404.07
374.612
354.866
372.821
418.504
465.318
513.176
561.997
611.706
662.226
713.483
765.4
817.893
870.876
924.253
977.916
1031.75
1085.61
1139.35
1192.8
1245.74
1297.94
1349.1
1398.85
1446.61
1491.74
1534.13
1572.51
9952.99
9811.58
1545.98
1487.53
1423.36
1354.42
1281.59
1205.71
1127.58
1048.1
968.232
888.906
811.163
736.868
668.382
608.223
558.755
521.635
497.165
484
479.569
480.974
485.733
492.086
498.889
505.478
511.487
516.72
521.069
524.476
526.909
528.347
528.78
528.201
526.609
524.002
520.384
515.758
510.139
503.543
506.474
518.638
529.27
538.356
545.889
551.88
556.357
559.372
561.011
561.403
560.731
559.244
557.26
555.164
553.38
552.32
552.314
553.522
555.869
559.024
562.436
565.424
567.282
567.365
565.15
560.255
552.432
541.546
527.555
510.474
490.368
467.326
441.456
412.876
393.209
410.837
456.56
503.306
550.992
599.54
648.878
698.937
749.646
800.934
852.728
904.947
957.504
1010.3
1063.23
1116.17
1168.97
1221.47
1273.47
1324.75
1375.01
1423.92
1470.9
1515.28
1556.98
1594.75
7536.89
12152.5
1577.02
1518.58
1454.4
1385.42
1312.47
1236.34
1157.83
1077.8
997.199
916.979
838.14
762.461
692.31
630.242
578.712
539.525
513.169
498.45
492.846
493.404
497.54
503.397
509.757
515.909
521.462
526.205
530.023
532.856
534.671
535.448
535.179
533.858
531.486
528.063
523.594
518.085
511.554
504.02
507.2
520.804
532.861
543.351
552.266
559.611
565.412
569.717
572.611
574.219
574.726
574.38
573.504
572.487
571.761
571.748
572.785
575.041
578.447
582.673
587.167
591.243
594.187
595.348
594.199
590.35
583.549
573.659
560.634
544.493
525.299
503.144
478.139
450.404
431.21
448.895
494.573
541.154
588.559
636.713
685.549
735.002
785.009
835.506
886.427
937.701
989.251
1040.99
1092.82
1144.63
1196.3
1247.66
1298.55
1348.74
1397.96
1445.87
1491.93
1535.43
1576.28
1613.19
4701.45
14873.1
1605.63
1547.62
1483.87
1415.25
1342.54
1266.51
1187.95
1107.66
1026.58
945.669
865.883
788.917
717.126
653.103
599.397
557.983
529.564
513.133
506.245
505.897
509.394
514.762
520.698
526.436
531.553
535.82
539.119
541.383
542.58
542.693
541.713
539.638
536.471
532.216
526.877
520.466
513.003
504.508
507.927
522.975
536.461
548.361
558.663
567.369
574.498
580.099
584.25
587.077
588.761
589.554
589.78
589.835
590.157
591.176
593.239
596.524
600.963
606.23
611.768
616.886
620.865
623.048
622.899
620.026
614.174
605.205
593.073
577.797
559.442
538.107
513.905
486.963
468.851
487.207
532.751
579.065
626.071
673.698
721.885
770.571
819.7
869.216
919.062
969.176
1019.49
1069.94
1120.44
1170.89
1221.18
1271.18
1320.73
1369.63
1417.63
1464.42
1509.47
1552.06
1592.02
1627.85
1688.38
17393.6
1630.04
1573.44
1510.86
1443.2
1371.27
1295.83
1217.63
1137.47
1056.25
974.933
894.434
816.336
742.979
676.984
621.003
577.197
546.52
528.195
519.888
518.557
521.386
526.266
531.795
537.14
541.838
545.644
548.428
550.123
550.695
550.129
548.422
545.573
541.588
536.476
530.245
522.907
514.487
505.007
508.656
525.153
540.075
553.395
565.096
575.175
583.648
590.559
595.982
600.039
602.91
604.847
606.177
607.298
608.657
610.692
613.759
618.041
623.477
629.739
636.268
642.367
647.31
650.434
651.199
649.21
644.209
636.06
624.718
610.206
592.594
571.984
548.495
522.263
506.121
526.069
571.389
617.327
663.809
710.767
758.143
805.882
853.934
902.252
950.787
999.488
1048.3
1097.17
1146.03
1194.79
1243.38
1291.67
1339.54
1386.82
1433.29
1478.67
1522.57
1564.15
1603.49
1639.29
1670.22
18012.6
1648.89
1594.87
1534.35
1468.39
1397.88
1323.63
1246.36
1166.84
1085.94
1004.61
923.73
844.761
769.985
702.063
643.753
597.417
564.298
543.9
534.037
531.646
533.775
538.163
543.292
548.247
552.526
555.86
558.111
559.21
559.126
557.847
555.374
551.712
546.872
540.866
533.707
525.412
516.007
505.519
509.385
527.331
543.694
558.444
571.557
583.026
592.861
601.099
607.81
613.112
617.181
620.267
622.701
624.886
627.274
630.313
634.367
639.625
646.028
653.245
660.711
667.724
673.55
677.52
679.091
677.867
673.591
666.129
655.441
641.555
624.549
604.531
581.632
555.993
543.034
565.849
610.859
656.316
702.146
748.287
794.682
841.282
888.043
934.925
981.886
1028.89
1075.89
1122.84
1169.7
1216.39
1262.87
1309.03
1354.77
1399.97
1444.44
1487.96
1530.23
1570.6
1608.8
1644.53
1676.61
18026
1662.42
1611.6
1553.66
1489.99
1421.56
1349.16
1273.49
1195.28
1115.31
1034.51
953.728
874.273
798.346
728.624
667.968
618.965
583.185
560.473
548.852
545.267
546.628
550.504
555.236
559.813
563.678
566.536
568.239
568.715
567.938
565.902
562.614
558.089
552.343
545.397
537.268
527.978
517.56
506.041
510.113
529.515
547.335
563.54
578.102
591.006
602.256
611.879
619.936
626.539
631.857
636.137
639.705
642.967
646.382
650.403
655.402
661.575
668.867
676.945
685.242
693.046
699.619
704.288
706.508
705.883
702.161
695.211
684.999
671.564
654.99
635.396
612.922
587.721
579.608
607.056
651.677
696.549
741.602
786.776
832.018
877.283
922.532
967.73
1012.85
1057.85
1102.7
1147.39
1191.86
1236.07
1280
1323.56
1366.7
1409.32
1451.29
1492.46
1532.55
1571.05
1607.7
1642.32
1673.84
14639.2
3888.98
1622.89
1567.52
1506.56
1440.87
1371.11
1297.9
1221.85
1143.64
1064.11
984.089
904.718
828.071
756.827
693.954
642.275
603.731
578.568
565.077
560.232
560.797
564.139
568.44
572.583
575.955
578.241
579.286
579.023
577.434
574.524
570.31
564.817
558.074
550.107
540.943
530.609
519.142
506.57
510.832
531.67
550.941
568.61
584.64
599.007
611.702
622.742
632.176
640.104
646.69
652.173
656.883
661.228
665.672
670.678
676.623
683.706
691.87
700.777
709.847
718.362
725.574
730.806
733.514
733.304
729.933
723.279
713.321
700.108
683.74
664.348
642.086
617.117
615.888
650.153
694.32
738.526
782.694
826.765
870.695
914.441
957.97
1001.25
1044.26
1086.97
1129.37
1171.42
1213.12
1254.43
1295.33
1335.8
1375.79
1415.24
1454.08
1492.21
1529.45
1565.4
1599.77
1632.49
1662.64
10758.9
7904.17
1627.45
1574.57
1516.79
1454.6
1388.41
1318.65
1245.79
1170.36
1093.08
1014.72
936.227
859.484
787.131
722.212
667.797
626.242
598.282
582.577
576.205
575.805
578.53
582.372
586.078
588.961
590.666
591.026
589.977
587.508
583.641
578.409
571.856
564.026
554.959
544.695
533.27
520.729
507.098
511.545
533.839
554.618
573.838
591.458
607.442
621.764
634.423
645.447
654.916
662.972
669.838
675.828
681.342
686.84
692.792
699.584
707.423
716.258
725.748
735.311
744.226
751.747
757.202
760.057
759.928
756.583
749.912
739.907
726.631
710.195
690.745
668.449
643.773
652.219
695.948
739.565
782.989
826.154
868.997
911.464
953.521
995.141
1036.3
1076.97
1117.14
1156.79
1195.92
1234.49
1272.52
1309.97
1346.85
1383.13
1418.79
1453.8
1488.09
1521.56
1553.92
1584.96
1614.67
1642.28
6564.48
12054.7
1623.15
1573.58
1519.7
1461.76
1399.97
1334.57
1265.87
1194.24
1120.25
1044.59
968.02
892.157
819.535
753.233
696.54
652.238
621.61
603.766
595.933
594.609
596.698
599.965
603.015
605.101
605.861
605.146
602.92
599.199
594.031
587.473
579.59
570.445
560.096
548.593
535.984
522.317
507.619
512.211
535.842
558.029
578.739
597.913
615.494
631.43
645.689
658.271
669.232
678.7
686.895
694.138
700.839
707.447
714.4
722.076
730.684
740.176
750.212
760.214
769.462