/*--------------------------------*- C++ -*----------------------------------*\
  =========                 |
  \\      /  F ield         | OpenFOAM: The Open Source CFD Toolbox
   \\    /   O peration     | Website:  https://openfoam.org
    \\  /    A nd           | Version:  8
     \\/     M anipulation  |
\*---------------------------------------------------------------------------*/
FoamFile
{
    version     2.0;
    format      ascii;
    class       volScalarField;
    location    "480/fluid";
    object      rho;
}
// * * * * * * * * * * * * * * * * * * * * * * * * * * * * * * * * * * * * * //

dimensions      [1 -3 0 0 0 0 0];

internalField   nonuniform List<scalar> 
4000
(
0.658526
0.658501
0.658458
0.658386
0.658267
0.658068
0.657743
0.657211
0.656355
0.654992
0.652857
0.649581
0.644673
0.637533
0.627508
0.614009
0.596678
0.575572
0.551241
0.524657
0.497015
0.469473
0.44296
0.418094
0.395194
0.374352
0.355508
0.338515
0.323191
0.309343
0.29679
0.285369
0.274939
0.26538
0.256592
0.248485
0.24095
0.233918
0.227339
0.221168
0.215367
0.209904
0.204752
0.199887
0.195291
0.190948
0.186842
0.182964
0.179305
0.175857
0.172615
0.169576
0.16674
0.16411
0.16169
0.159491
0.157527
0.155826
0.154443
0.153351
0.152646
0.152411
0.152777
0.161302
0.171452
0.183424
0.197496
0.214044
0.233562
0.256699
0.2843
0.317459
0.357578
0.406543
0.466733
0.540417
0.628981
0.731307
0.841507
0.948054
1.03748
1.10166
1.14147
1.16328
1.17424
1.17948
1.1819
1.18298
1.18346
1.18367
1.18376
1.18379
1.18381
1.18382
1.18382
1.18382
1.18382
1.18382
1.18382
1.18382
0.658526
0.6585
0.658457
0.658385
0.658264
0.658064
0.657734
0.657197
0.656331
0.654954
0.652803
0.649509
0.644591
0.637461
0.627483
0.614082
0.596914
0.57602
0.551921
0.525554
0.49808
0.470638
0.444157
0.419264
0.396298
0.375366
0.35642
0.339324
0.323899
0.309959
0.297322
0.285826
0.275328
0.265708
0.256867
0.248713
0.241136
0.234067
0.227455
0.221255
0.215428
0.209941
0.204766
0.199883
0.19527
0.190911
0.186793
0.182904
0.179234
0.175777
0.172528
0.169485
0.166646
0.164015
0.161597
0.159404
0.157453
0.155779
0.15443
0.153395
0.152779
0.152682
0.153253
0.162031
0.172445
0.184712
0.199132
0.216108
0.236167
0.259999
0.288504
0.322847
0.364524
0.415558
0.478395
0.555222
0.647042
0.751835
0.862376
0.966236
1.05067
1.10961
1.14553
1.16514
1.17503
1.1798
1.18202
1.18303
1.18348
1.18367
1.18376
1.1838
1.18381
1.18382
1.18382
1.18382
1.18382
1.18382
1.18382
1.18382
0.658526
0.6585
0.658457
0.658383
0.658261
0.658059
0.657726
0.657183
0.656309
0.654922
0.65276
0.649457
0.644533
0.637407
0.62745
0.614105
0.597035
0.576284
0.552357
0.526168
0.498851
0.471527
0.445116
0.420247
0.397265
0.37629
0.357282
0.340114
0.324614
0.310598
0.297887
0.286321
0.275758
0.266077
0.257179
0.248973
0.24135
0.234238
0.227586
0.221348
0.215485
0.209966
0.204764
0.199855
0.195218
0.190838
0.1867
0.182793
0.179108
0.175638
0.172378
0.169325
0.166481
0.163846
0.16143
0.159243
0.157304
0.155664
0.154357
0.15339
0.152898
0.153026
0.154254
0.163383
0.174176
0.186877
0.201814
0.219418
0.240255
0.265061
0.294793
0.330681
0.3743
0.427775
0.493498
0.573383
0.667828
0.773786
0.882982
0.982858
1.06202
1.11624
1.14895
1.16676
1.17577
1.18012
1.18215
1.18308
1.1835
1.18368
1.18376
1.1838
1.18381
1.18382
1.18382
1.18382
1.18382
1.18382
1.18382
1.18382
0.658526
0.6585
0.658456
0.658383
0.65826
0.658056
0.657722
0.657177
0.6563
0.654912
0.652749
0.649449
0.644537
0.63744
0.627539
0.614277
0.597317
0.576695
0.552902
0.526836
0.499616
0.472354
0.445968
0.421094
0.398083
0.377062
0.357998
0.34077
0.325207
0.311129
0.298358
0.286734
0.276116
0.266383
0.257435
0.249184
0.241517
0.234364
0.227673
0.221398
0.215503
0.209955
0.204724
0.199788
0.195126
0.190723
0.186564
0.182638
0.178936
0.175451
0.172179
0.169116
0.166264
0.163624
0.161204
0.159017
0.157081
0.155446
0.154144
0.153178
0.152674
0.152751
0.155889
0.165303
0.176462
0.18962
0.205121
0.223422
0.245123
0.271001
0.302065
0.339603
0.385273
0.441278
0.50991
0.59279
0.689685
0.796547
0.904143
0.999899
1.07377
1.12327
1.15269
1.1686
1.17662
1.1805
1.18232
1.18316
1.18353
1.1837
1.18377
1.1838
1.18381
1.18382
1.18382
1.18382
1.18382
1.18382
1.18382
1.18382
0.658526
0.6585
0.658456
0.658382
0.658259
0.658055
0.65772
0.657175
0.656298
0.654909
0.652748
0.649453
0.644555
0.637483
0.627623
0.614424
0.597546
0.577022
0.553334
0.527363
0.500217
0.473003
0.446637
0.421757
0.398722
0.377662
0.358553
0.341275
0.325661
0.311532
0.298712
0.287041
0.276377
0.266601
0.257612
0.24932
0.241615
0.234427
0.227704
0.2214
0.215476
0.209899
0.204642
0.19968
0.194996
0.190571
0.186392
0.182449
0.178732
0.175234
0.171951
0.168879
0.16602
0.163377
0.160956
0.158769
0.156836
0.155211
0.153922
0.152971
0.152484
0.152584
0.15777
0.167465
0.178993
0.192617
0.208698
0.227718
0.250304
0.277277
0.309692
0.34889
0.396618
0.45512
0.526545
0.612179
0.711112
0.818321
0.923799
1.01525
1.08408
1.12933
1.15589
1.17016
1.17735
1.18083
1.18247
1.18322
1.18356
1.18371
1.18377
1.1838
1.18381
1.18382
1.18382
1.18382
1.18382
1.18382
1.18382
1.18382
0.658526
0.6585
0.658456
0.658382
0.658259
0.658055
0.65772
0.657175
0.6563
0.654914
0.652759
0.649476
0.644596
0.637553
0.627735
0.614592
0.597785
0.577338
0.553725
0.527818
0.500718
0.473528
0.447165
0.42227
0.399208
0.378113
0.358963
0.341642
0.325986
0.311815
0.298955
0.287245
0.276544
0.266731
0.257706
0.249382
0.241649
0.234434
0.227683
0.221353
0.215403
0.209802
0.204522
0.19954
0.194835
0.190392
0.186197
0.182239
0.178509
0.175001
0.17171
0.168634
0.165772
0.163129
0.160712
0.158532
0.156611
0.155008
0.153734
0.1528
0.152334
0.152482
0.159642
0.169609
0.181509
0.195605
0.212271
0.232007
0.255473
0.283525
0.317263
0.358079
0.407813
0.468714
0.542772
0.63092
0.731571
0.838789
0.941967
1.02924
1.09341
1.13481
1.15881
1.17161
1.17804
1.18115
1.18261
1.18328
1.18358
1.18372
1.18378
1.1838
1.18381
1.18382
1.18382
1.18382
1.18382
1.18382
1.18382
1.18382
0.658526
0.6585
0.658456
0.658382
0.658259
0.658056
0.657721
0.657177
0.656304
0.654922
0.652773
0.6495
0.644636
0.637618
0.627836
0.614739
0.597987
0.577599
0.554042
0.528182
0.501113
0.473935
0.447567
0.422655
0.399566
0.378438
0.359254
0.341897
0.326205
0.311999
0.299105
0.287362
0.276629
0.266787
0.257737
0.249389
0.241632
0.234392
0.227619
0.221266
0.215295
0.209674
0.204375
0.199375
0.194654
0.190196
0.185988
0.182019
0.178281
0.174766
0.171471
0.168394
0.165536
0.1629
0.160494
0.158331
0.156429
0.154852
0.1536
0.152687
0.152227
0.152335
0.160988
0.171397
0.183764
0.198382
0.215651
0.236101
0.260427
0.289522
0.324533
0.366902
0.418555
0.481721
0.55822
0.648618
0.750652
0.85755
0.958271
1.04153
1.10145
1.13948
1.16129
1.17284
1.17862
1.18141
1.18273
1.18333
1.18361
1.18373
1.18378
1.1838
1.18381
1.18382
1.18382
1.18382
1.18382
1.18382
1.18382
1.18382
0.658526
0.6585
0.658456
0.658383
0.65826
0.658057
0.657723
0.65718
0.656309
0.654931
0.652788
0.649525
0.644677
0.637681
0.627928
0.614869
0.59816
0.577817
0.5543
0.528469
0.501416
0.474241
0.447863
0.422932
0.399817
0.378661
0.359445
0.342058
0.326335
0.3121
0.299178
0.287409
0.276655
0.266792
0.25772
0.249351
0.241573
0.234313
0.227521
0.22115
0.215162
0.209525
0.20421
0.199196
0.194462
0.189993
0.185776
0.181799
0.178055
0.174537
0.171242
0.168168
0.165317
0.162694
0.160308
0.158174
0.156318
0.154816
0.15362
0.152843
0.152582
0.15299
0.162131
0.173
0.185837
0.200966
0.218816
0.239948
0.265087
0.295167
0.331374
0.375208
0.428664
0.493932
0.57266
0.665039
0.768156
0.874497
0.972742
1.05225
1.10839
1.14349
1.16341
1.17389
1.17912
1.18165
1.18283
1.18338
1.18363
1.18374
1.18379
1.18381
1.18382
1.18382
1.18382
1.18382
1.18382
1.18382
1.18382
1.18382
0.658526
0.6585
0.658456
0.658383
0.65826
0.658058
0.657725
0.657183
0.656314
0.65494
0.652802
0.649548
0.644712
0.637734
0.628006
0.614976
0.598299
0.577988
0.554499
0.528687
0.501641
0.474462
0.448072
0.423121
0.399983
0.378801
0.359559
0.342144
0.326397
0.31214
0.299198
0.287411
0.276637
0.266755
0.257665
0.249279
0.241484
0.234209
0.227401
0.221016
0.215014
0.209364
0.204038
0.199013
0.194269
0.189791
0.185567
0.181585
0.177837
0.174319
0.171025
0.167956
0.165114
0.162505
0.160139
0.158035
0.156231
0.154789
0.153684
0.153058
0.153052
0.153927
0.1634
0.174623
0.187852
0.203427
0.221797
0.243548
0.269432
0.300419
0.337733
0.382927
0.438056
0.505252
0.585986
0.680081
0.78401
0.889617
0.985426
1.0615
1.11429
1.14687
1.16519
1.17477
1.17954
1.18184
1.18292
1.18342
1.18364
1.18374
1.18379
1.18381
1.18382
1.18382
1.18382
1.18382
1.18382
1.18382
1.18382
1.18382
0.658526
0.6585
0.658456
0.658383
0.658261
0.658059
0.657726
0.657186
0.656319
0.654947
0.652815
0.649568
0.644742
0.637779
0.628069
0.615061
0.598408
0.578119
0.554647
0.528845
0.5018
0.474614
0.44821
0.42324
0.40008
0.378875
0.359611
0.342177
0.326413
0.312138
0.299179
0.287375
0.276585
0.266688
0.257585
0.249185
0.241377
0.234089
0.227269
0.220873
0.214861
0.2092
0.203865
0.198831
0.194081
0.189597
0.185368
0.181382
0.177633
0.174114
0.170822
0.167758
0.164922
0.162322
0.159968
0.157879
0.156095
0.154673
0.153581
0.152954
0.152907
0.155047
0.164757
0.176255
0.189805
0.20576
0.224586
0.246887
0.273443
0.305252
0.343572
0.390012
0.446668
0.515604
0.598124
0.693688
0.798202
0.902962
0.996446
1.06941
1.11929
1.14971
1.16669
1.17551
1.1799
1.18201
1.183
1.18345
1.18366
1.18375
1.18379
1.18381
1.18382
1.18382
1.18382
1.18382
1.18382
1.18382
1.18382
1.18382
0.658526
0.6585
0.658456
0.658383
0.658261
0.658059
0.657728
0.657188
0.656323
0.654954
0.652825
0.649584
0.644767
0.637814
0.628118
0.615126
0.598489
0.578215
0.554752
0.528953
0.501906
0.474709
0.44829
0.423303
0.400125
0.378902
0.359623
0.342174
0.326393
0.312104
0.299131
0.287314
0.276511
0.266603
0.257489
0.249079
0.24126
0.233963
0.227134
0.220729
0.214708
0.209041
0.203698
0.198659
0.193903
0.189415
0.185182
0.181195
0.177445
0.173927
0.170638
0.167577
0.164746
0.162153
0.159807
0.157727
0.155954
0.154539
0.153454
0.152826
0.152767
0.15622
0.166107
0.177826
0.191645
0.207927
0.227152
0.249941
0.277096
0.309641
0.348866
0.396434
0.454464
0.524956
0.609046
0.705854
0.810764
0.914623
1.00594
1.07613
1.12349
1.15209
1.16793
1.17613
1.18019
1.18214
1.18306
1.18348
1.18367
1.18376
1.18379
1.18381
1.18382
1.18382
1.18382
1.18382
1.18382
1.18382
1.18382
1.18382
0.658526
0.6585
0.658457
0.658384
0.658262
0.65806
0.657729
0.65719
0.656326
0.654959
0.652833
0.649596
0.644785
0.637841
0.628155
0.615174
0.598547
0.578281
0.554822
0.529022
0.501968
0.474761
0.448328
0.423327
0.400135
0.378898
0.359605
0.342142
0.326349
0.312048
0.299065
0.287238
0.276426
0.266509
0.257387
0.248968
0.241142
0.233837
0.227002
0.220589
0.214563
0.20889
0.203543
0.198499
0.193739
0.189249
0.185015
0.181027
0.177277
0.173761
0.170474
0.167418
0.164593
0.162006
0.159668
0.157596
0.155835
0.15443
0.153352
0.15273
0.152675
0.157292
0.167343
0.179258
0.193314
0.209885
0.229462
0.252683
0.28037
0.31357
0.3536
0.402174
0.461432
0.533296
0.618751
0.716597
0.821759
0.924706
1.01404
1.08181
1.12701
1.15406
1.16896
1.17664
1.18043
1.18226
1.18311
1.1835
1.18368
1.18376
1.1838
1.18381
1.18382
1.18382
1.18382
1.18382
1.18382
1.18382
1.18382
1.18382
0.658526
0.6585
0.658457
0.658384
0.658262
0.658061
0.65773
0.657192
0.656329
0.654963
0.65284
0.649606
0.644799
0.63786
0.628181
0.615206
0.598586
0.578323
0.554865
0.529061
0.501999
0.474781
0.448338
0.423324
0.400119
0.37887
0.359565
0.342092
0.32629
0.311981
0.298989
0.287155
0.276336
0.266413
0.257284
0.24886
0.241028
0.233718
0.226877
0.22046
0.214429
0.208752
0.203402
0.198355
0.193593
0.189102
0.184867
0.180879
0.177131
0.173617
0.170335
0.167282
0.164463
0.161884
0.159554
0.157492
0.155741
0.154345
0.153277
0.152664
0.152617
0.158224
0.168427
0.180519
0.194787
0.211612
0.231498
0.255096
0.283247
0.317021
0.357759
0.407222
0.467555
0.540618
0.627247
0.725952
0.831257
0.933329
1.02089
1.08655
1.12992
1.15569
1.16981
1.17706
1.18063
1.18235
1.18315
1.18352
1.18369
1.18376
1.1838
1.18381
1.18382
1.18382
1.18382
1.18382
1.18382
1.18382
1.18382
1.18382
0.658526
0.6585
0.658457
0.658384
0.658262
0.658061
0.65773
0.657193
0.65633
0.654966
0.652844
0.649613
0.644809
0.637874
0.628198
0.615228
0.59861
0.578348
0.554887
0.529078
0.502008
0.474781
0.448327
0.423302
0.400087
0.378828
0.359515
0.342034
0.326225
0.311909
0.298912
0.287072
0.276249
0.266321
0.257188
0.24876
0.240924
0.233609
0.226765
0.220344
0.214311
0.208631
0.203278
0.19823
0.193467
0.188975
0.184741
0.180755
0.177009
0.173498
0.170219
0.167172
0.164359
0.161787
0.159465
0.157411
0.155671
0.154285
0.153227
0.152623
0.152587
0.159012
0.169353
0.181603
0.196055
0.2131
0.233253
0.257179
0.285733
0.320004
0.361357
0.411589
0.472852
0.546944
0.634568
0.733975
0.839346
0.940606
1.02661
1.09048
1.13232
1.15703
1.1705
1.1774
1.1808
1.18243
1.18319
1.18354
1.1837
1.18377
1.1838
1.18381
1.18382
1.18382
1.18382
1.18382
1.18382
1.18382
1.18382
1.18382
0.658526
0.6585
0.658457
0.658384
0.658262
0.658061
0.657731
0.657194
0.656332
0.654968
0.652847
0.649617
0.644816
0.637883
0.628209
0.615241
0.598623
0.57836
0.554895
0.52908
0.502003
0.474767
0.448303
0.423269
0.400046
0.37878
0.35946
0.341974
0.32616
0.311839
0.298838
0.286995
0.276168
0.266237
0.257101
0.24867
0.240831
0.233514
0.226667
0.220245
0.214209
0.208528
0.203174
0.198125
0.193362
0.18887
0.184637
0.180653
0.176909
0.173402
0.170127
0.167086
0.164279
0.161714
0.159399
0.157353
0.155623
0.154245
0.153195
0.152599
0.152577
0.159667
0.170129
0.182516
0.197126
0.21436
0.23474
0.258943
0.287839
0.322533
0.364407
0.415294
0.477344
0.552303
0.640754
0.740729
0.846113
0.946649
1.03132
1.0937
1.13427
1.15811
1.17107
1.17768
1.18093
1.18249
1.18322
1.18355
1.1837
1.18377
1.1838
1.18381
1.18382
1.18382
1.18382
1.18382
1.18382
1.18382
1.18382
1.18382
0.658526
0.6585
0.658457
0.658384
0.658263
0.658061
0.657731
0.657194
0.656333
0.654969
0.65285
0.64962
0.64482
0.637888
0.628216
0.615248
0.598629
0.578363
0.554895
0.529074
0.501989
0.474745
0.448274
0.423233
0.400003
0.378732
0.359407
0.341917
0.3261
0.311777
0.298773
0.286927
0.276098
0.266165
0.257027
0.248595
0.240754
0.233435
0.226586
0.220163
0.214126
0.208444
0.203089
0.19804
0.193278
0.188787
0.184556
0.180573
0.176833
0.173329
0.17006
0.167023
0.164222
0.161662
0.159354
0.157314
0.15559
0.154216
0.153165
0.152561
0.152518
0.1602
0.170767
0.183269
0.198012
0.215402
0.23597
0.260403
0.289581
0.324623
0.366928
0.418356
0.481055
0.556725
0.645849
0.746271
0.85164
0.951553
1.03513
1.09628
1.13583
1.15897
1.17151
1.1779
1.18104
1.18254
1.18324
1.18356
1.18371
1.18377
1.1838
1.18381
1.18382
1.18382
1.18382
1.18382
1.18382
1.18382
1.18382
1.18382
0.658526
0.6585
0.658457
0.658384
0.658263
0.658062
0.657731
0.657195
0.656333
0.65497
0.652851
0.649622
0.644823
0.637892
0.62822
0.615251
0.598631
0.578362
0.55489
0.529063
0.501972
0.474722
0.448245
0.423199
0.399964
0.378689
0.359361
0.341868
0.326048
0.311724
0.298718
0.286871
0.27604
0.266106
0.256968
0.248535
0.240693
0.233373
0.226524
0.220099
0.214062
0.20838
0.203025
0.197977
0.193215
0.188726
0.184496
0.180517
0.176779
0.173279
0.170014
0.166982
0.164186
0.161632
0.15933
0.157296
0.155579
0.15421
0.153163
0.15256
0.152519
0.160622
0.171276
0.183873
0.198723
0.216238
0.236956
0.261571
0.290973
0.32629
0.368938
0.420794
0.484007
0.560237
0.649886
0.750649
0.855986
0.95539
1.03809
1.09828
1.13704
1.15963
1.17186
1.17807
1.18112
1.18257
1.18326
1.18357
1.18371
1.18377
1.1838
1.18381
1.18382
1.18382
1.18382
1.18382
1.18382
1.18382
1.18382
1.18382
0.658526
0.6585
0.658457
0.658384
0.658263
0.658062
0.657732
0.657195
0.656334
0.654971
0.652852
0.649624
0.644824
0.637893
0.628221
0.615252
0.598631
0.578359
0.554883
0.529052
0.501956
0.474702
0.44822
0.42317
0.399932
0.378654
0.359324
0.34183
0.326009
0.311683
0.298676
0.286828
0.275997
0.266063
0.256925
0.248491
0.240649
0.233329
0.226479
0.220054
0.214017
0.208335
0.202981
0.197933
0.193173
0.188685
0.184458
0.180481
0.176746
0.17325
0.169988
0.16696
0.164169
0.161621
0.159325
0.157297
0.155586
0.154221
0.153176
0.152572
0.152526
0.160935
0.17166
0.184332
0.199264
0.216875
0.237705
0.262456
0.292024
0.327547
0.370449
0.422625
0.486219
0.562864
0.652897
0.753902
0.8592
0.958214
1.04026
1.09974
1.13792
1.16012
1.17211
1.17819
1.18118
1.1826
1.18327
1.18357
1.18371
1.18377
1.1838
1.18381
1.18382
1.18382
1.18382
1.18382
1.18382
1.18382
1.18382
1.18382
0.658526
0.6585
0.658457
0.658384
0.658263
0.658062
0.657732
0.657195
0.656334
0.654971
0.652852
0.649624
0.644825
0.637894
0.628222
0.615252
0.59863
0.578356
0.554878
0.529044
0.501945
0.474687
0.448202
0.423149
0.399909
0.37863
0.359299
0.341803
0.325982
0.311655
0.298648
0.2868
0.275969
0.266035
0.256897
0.248463
0.240621
0.233301
0.226452
0.220027
0.21399
0.208309
0.202956
0.197909
0.19315
0.188663
0.184437
0.180462
0.17673
0.173237
0.169979
0.166955
0.164169
0.161625
0.159334
0.157311
0.155604
0.154243
0.153198
0.15259
0.152533
0.161142
0.171923
0.184649
0.199639
0.217314
0.23822
0.263061
0.292739
0.328398
0.371469
0.423855
0.4877
0.564616
0.654898
0.756053
0.861314
0.960059
1.04167
1.10069
1.13849
1.16044
1.17227
1.17827
1.18121
1.18262
1.18328
1.18358
1.18371
1.18378
1.1838
1.18381
1.18382
1.18382
1.18382
1.18382
1.18382
1.18382
1.18382
1.18382
0.658526
0.6585
0.658457
0.658384
0.658263
0.658062
0.657732
0.657195
0.656334
0.654972
0.652853
0.649625
0.644826
0.637895
0.628222
0.615252
0.598629
0.578355
0.554875
0.529039
0.501938
0.474679
0.448192
0.423139
0.399898
0.378618
0.359286
0.34179
0.325968
0.311641
0.298634
0.286786
0.275955
0.266021
0.256883
0.24845
0.240609
0.233289
0.22644
0.220016
0.213979
0.208298
0.202945
0.197899
0.19314
0.188655
0.18443
0.180457
0.176727
0.173236
0.16998
0.166959
0.164176
0.161636
0.159348
0.157328
0.155625
0.154265
0.15322
0.152607
0.152538
0.161245
0.172061
0.184818
0.199838
0.217546
0.238489
0.263374
0.293106
0.328829
0.371981
0.424468
0.488431
0.565473
0.655869
0.757088
0.862322
0.960931
1.04233
1.10113
1.13876
1.16059
1.17234
1.17831
1.18123
1.18263
1.18328
1.18358
1.18372
1.18378
1.1838
1.18381
1.18382
1.18382
1.18382
1.18382
1.18382
1.18382
1.18382
1.18382
0.658526
0.6585
0.658457
0.658384
0.658263
0.658062
0.657732
0.657195
0.656334
0.654971
0.652853
0.649625
0.644825
0.637894
0.628222
0.615251
0.598628
0.578354
0.554874
0.529038
0.501938
0.474678
0.448192
0.423138
0.399897
0.378618
0.359286
0.34179
0.325968
0.311641
0.298634
0.286786
0.275955
0.266021
0.256883
0.24845
0.240608
0.233289
0.22644
0.220016
0.213979
0.208298
0.202945
0.197899
0.19314
0.188655
0.18443
0.180457
0.176727
0.173235
0.16998
0.166959
0.164176
0.161635
0.159348
0.157328
0.155625
0.154265
0.15322
0.152607
0.152538
0.161245
0.172061
0.184818
0.199839
0.217546
0.238489
0.263374
0.293106
0.32883
0.371982
0.424469
0.488432
0.565475
0.655871
0.75709
0.862324
0.960933
1.04233
1.10113
1.13876
1.16059
1.17234
1.17831
1.18123
1.18263
1.18328
1.18358
1.18372
1.18378
1.1838
1.18381
1.18382
1.18382
1.18382
1.18382
1.18382
1.18382
1.18382
1.18382
0.658526
0.6585
0.658457
0.658384
0.658263
0.658062
0.657732
0.657195
0.656334
0.654971
0.652852
0.649624
0.644825
0.637894
0.628221
0.615251
0.598628
0.578355
0.554876
0.529042
0.501943
0.474685
0.4482
0.423147
0.399908
0.378629
0.359298
0.341802
0.325981
0.311654
0.298647
0.286799
0.275968
0.266034
0.256896
0.248463
0.240621
0.233301
0.226451
0.220027
0.21399
0.208308
0.202955
0.197908
0.193149
0.188663
0.184437
0.180462
0.17673
0.173237
0.169978
0.166955
0.164169
0.161625
0.159334
0.157311
0.155604
0.154243
0.153198
0.15259
0.152533
0.161143
0.171924
0.18465
0.19964
0.217315
0.238221
0.263063
0.292741
0.3284
0.371472
0.423858
0.487704
0.56462
0.654903
0.756058
0.861319
0.960063
1.04167
1.10069
1.13849
1.16044
1.17227
1.17827
1.18121
1.18262
1.18328
1.18358
1.18371
1.18378
1.1838
1.18381
1.18382
1.18382
1.18382
1.18382
1.18382
1.18382
1.18382
1.18382
0.658526
0.6585
0.658457
0.658384
0.658263
0.658062
0.657732
0.657195
0.656334
0.654971
0.652852
0.649623
0.644824
0.637892
0.62822
0.61525
0.598629
0.578357
0.55488
0.529049
0.501953
0.474698
0.448216
0.423167
0.399929
0.378652
0.359322
0.341828
0.326007
0.311681
0.298675
0.286827
0.275996
0.266062
0.256924
0.24849
0.240648
0.233328
0.226478
0.220054
0.214016
0.208334
0.202981
0.197933
0.193173
0.188685
0.184457
0.18048
0.176746
0.173249
0.169987
0.16696
0.164169
0.161621
0.159324
0.157296
0.155585
0.154221
0.153176
0.152572
0.152526
0.160936
0.171662
0.184334
0.199266
0.216877
0.237708
0.262459
0.292027
0.327551
0.370454
0.42263
0.486226
0.562871
0.652906
0.753911
0.859209
0.958222
1.04026
1.09975
1.13792
1.16012
1.17211
1.17819
1.18118
1.1826
1.18327
1.18357
1.18371
1.18377
1.1838
1.18381
1.18382
1.18382
1.18382
1.18382
1.18382
1.18382
1.18382
1.18382
0.658526
0.6585
0.658457
0.658384
0.658263
0.658062
0.657731
0.657195
0.656333
0.65497
0.652851
0.649622
0.644822
0.63789
0.628218
0.615248
0.598628
0.578359
0.554886
0.529059
0.501968
0.474718
0.44824
0.423194
0.39996
0.378686
0.359358
0.341865
0.326046
0.311721
0.298716
0.286869
0.276038
0.266105
0.256967
0.248533
0.240691
0.233372
0.226522
0.220098
0.214061
0.208379
0.203024
0.197976
0.193215
0.188725
0.184496
0.180516
0.176779
0.173279
0.170013
0.166981
0.164185
0.161631
0.159329
0.157296
0.155579
0.15421
0.153163
0.15256
0.15252
0.160624
0.171278
0.183875
0.198725
0.216241
0.23696
0.261575
0.290977
0.326295
0.368944
0.420802
0.484016
0.560248
0.649898
0.750662
0.855999
0.955401
1.0381
1.09828
1.13704
1.15964
1.17186
1.17807
1.18112
1.18257
1.18326
1.18357
1.18371
1.18377
1.1838
1.18381
1.18382
1.18382
1.18382
1.18382
1.18382
1.18382
1.18382
1.18382
0.658526
0.6585
0.658457
0.658384
0.658263
0.658061
0.657731
0.657194
0.656333
0.654969
0.652849
0.64962
0.644819
0.637887
0.628214
0.615245
0.598626
0.578359
0.55489
0.529068
0.501983
0.47474
0.448268
0.423228
0.399998
0.378728
0.359403
0.341913
0.326096
0.311773
0.29877
0.286924
0.276095
0.266162
0.257025
0.248593
0.240752
0.233433
0.226585
0.220161
0.214124
0.208442
0.203088
0.198039
0.193277
0.188786
0.184555
0.180572
0.176832
0.173328
0.170059
0.167022
0.164221
0.161661
0.159353
0.157313
0.155589
0.154216
0.153165
0.152561
0.152518
0.160203
0.17077
0.183272
0.198015
0.215406
0.235975
0.260408
0.289587
0.32463
0.366937
0.418365
0.481066
0.556738
0.645864
0.746288
0.851656
0.951567
1.03514
1.09628
1.13584
1.15897
1.17151
1.1779
1.18104
1.18254
1.18324
1.18356
1.18371
1.18377
1.1838
1.18381
1.18382
1.18382
1.18382
1.18382
1.18382
1.18382
1.18382
1.18382
0.658526
0.6585
0.658457
0.658384
0.658262
0.658061
0.657731
0.657194
0.656332
0.654968
0.652847
0.649616
0.644815
0.637881
0.628207
0.615237
0.598619
0.578354
0.554889
0.529074
0.501996
0.47476
0.448296
0.423263
0.40004
0.378775
0.359455
0.341969
0.326155
0.311836
0.298835
0.286992
0.276165
0.266234
0.257099
0.248668
0.240829
0.233512
0.226665
0.220243
0.214207
0.208526
0.203172
0.198123
0.193361
0.188869
0.184636
0.180651
0.176908
0.173401
0.170126
0.167085
0.164278
0.161713
0.159399
0.157352
0.155622
0.154245
0.153195
0.152599
0.152577
0.15967
0.170133
0.18252
0.19713
0.214365
0.234746
0.25895
0.287847
0.322542
0.364417
0.415306
0.477359
0.55232
0.640773
0.74075
0.846134
0.946667
1.03134
1.09371
1.13428
1.15811
1.17107
1.17768
1.18093
1.18249
1.18322
1.18355
1.1837
1.18377
1.1838
1.18381
1.18382
1.18382
1.18382
1.18382
1.18382
1.18382
1.18382
1.18382
0.658526
0.6585
0.658457
0.658384
0.658262
0.658061
0.65773
0.657193
0.65633
0.654965
0.652843
0.649612
0.644808
0.637872
0.628195
0.615224
0.598605
0.578342
0.55488
0.52907
0.502
0.474773
0.448319
0.423295
0.40008
0.378822
0.359509
0.342028
0.32622
0.311904
0.298908
0.287068
0.276245
0.266317
0.257185
0.248757
0.240921
0.233607
0.226762
0.220342
0.214309
0.208629
0.203276
0.198228
0.193466
0.188974
0.184739
0.180753
0.177007
0.173497
0.170218
0.167171
0.164358
0.161786
0.159464
0.157411
0.155671
0.154285
0.153227
0.152622
0.152587
0.159016
0.169357
0.181607
0.19606
0.213106
0.23326
0.257186
0.285742
0.320015
0.361369
0.411604
0.47287
0.546964
0.63459
0.734
0.83937
0.940629
1.02663
1.0905
1.13233
1.15703
1.17051
1.1774
1.1808
1.18243
1.18319
1.18354
1.1837
1.18377
1.1838
1.18381
1.18382
1.18382
1.18382
1.18382
1.18382
1.18382
1.18382
1.18382
0.658526
0.6585
0.658457
0.658384
0.658262
0.65806
0.65773
0.657192
0.656328
0.654962
0.652839
0.649604
0.644798
0.637858
0.628177
0.615202
0.59858
0.578316
0.554857
0.529052
0.501989
0.474772
0.448328
0.423316
0.400111
0.378863
0.359558
0.342086
0.326284
0.311975
0.298984
0.28715
0.276332
0.266409
0.257281
0.248857
0.241025
0.233715
0.226874
0.220458
0.214427
0.20875
0.2034
0.198353
0.193592
0.1891
0.184865
0.180878
0.17713
0.173616
0.170333
0.167281
0.164462
0.161883
0.159553
0.157491
0.15574
0.154345
0.153277
0.152663
0.152617
0.158229
0.168432
0.180525
0.194793
0.211619
0.231506
0.255105
0.283258
0.317033
0.357773
0.407238
0.467575
0.540642
0.627274
0.725981
0.831286
0.933356
1.02091
1.08657
1.12993
1.15569
1.16981
1.17706
1.18064
1.18235
1.18315
1.18352
1.18369
1.18376
1.1838
1.18381
1.18382
1.18382
1.18382
1.18382
1.18382
1.18382
1.18382
1.18382
0.658526
0.6585
0.658457
0.658384
0.658262
0.65806
0.657729
0.65719
0.656326
0.654958
0.652832
0.649595
0.644783
0.637838
0.628151
0.615168
0.59854
0.578273
0.554813
0.529012
0.501958
0.47475
0.448318
0.423317
0.400125
0.37889
0.359597
0.342135
0.326342
0.312042
0.299059
0.287232
0.276421
0.266505
0.257382
0.248965
0.241139
0.233834
0.226998
0.220587
0.21456
0.208887
0.20354
0.198496
0.193737
0.189247
0.185012
0.181025
0.177275
0.173759
0.170473
0.167416
0.164591
0.162005
0.159667
0.157595
0.155834
0.154429
0.153352
0.152729
0.152675
0.157298
0.167349
0.179265
0.193322
0.209893
0.229471
0.252694
0.280382
0.313584
0.353616
0.402193
0.461454
0.533323
0.618782
0.71663
0.821793
0.924737
1.01406
1.08182
1.12702
1.15407
1.16896
1.17664
1.18044
1.18226
1.18311
1.1835
1.18368
1.18376
1.1838
1.18381
1.18382
1.18382
1.18382
1.18382
1.18382
1.18382
1.18382
1.18382
0.658526
0.6585
0.658456
0.658383
0.658261
0.658059
0.657727
0.657188
0.656322
0.654953
0.652824
0.649582
0.644765
0.637811
0.628114
0.61512
0.598482
0.578206
0.554742
0.528942
0.501894
0.474697
0.448279
0.423292
0.400114
0.378893
0.359614
0.342166
0.326386
0.312097
0.299125
0.287308
0.276506
0.266598
0.257484
0.249074
0.241256
0.233959
0.22713
0.220725
0.214705
0.209037
0.203695
0.198656
0.1939
0.189412
0.18518
0.181193
0.177443
0.173925
0.170636
0.167575
0.164745
0.162152
0.159806
0.157726
0.155953
0.154538
0.153454
0.152826
0.152767
0.156227
0.166114
0.177833
0.191653
0.207936
0.227162
0.249952
0.277109
0.309656
0.348884
0.396455
0.454489
0.524985
0.609081
0.705892
0.810803
0.914659
1.00597
1.07615
1.1235
1.15209
1.16793
1.17613
1.18019
1.18214
1.18306
1.18348
1.18367
1.18376
1.18379
1.18381
1.18382
1.18382
1.18382
1.18382
1.18382
1.18382
1.18382
1.18382
0.658526
0.6585
0.658456
0.658383
0.658261
0.658058
0.657726
0.657186
0.656318
0.654947
0.652814
0.649566
0.64474
0.637775
0.628064
0.615055
0.5984
0.578109
0.554635
0.528832
0.501787
0.474601
0.448197
0.423228
0.400068
0.378864
0.359601
0.342168
0.326404
0.312131
0.299172
0.287369
0.276579
0.266683
0.25758
0.24918
0.241372
0.234085
0.227265
0.220869
0.214857
0.209197
0.203862
0.198828
0.194078
0.189594
0.185365
0.18138
0.17763
0.174112
0.17082
0.167756
0.16492
0.16232
0.159967
0.157877
0.156094
0.154672
0.15358
0.152953
0.152906
0.155054
0.164764
0.176263
0.189813
0.205769
0.224597
0.246899
0.273457
0.305268
0.343591
0.390035
0.446695
0.515636
0.598162
0.693731
0.798246
0.903004
0.99648
1.06943
1.11931
1.14972
1.16669
1.17552
1.1799
1.18201
1.183
1.18345
1.18366
1.18375
1.18379
1.18381
1.18382
1.18382
1.18382
1.18382
1.18382
1.18382
1.18382
1.18382
0.658526
0.6585
0.658456
0.658383
0.65826
0.658058
0.657724
0.657183
0.656314
0.654939
0.652801
0.649546
0.64471
0.63773
0.628001
0.614969
0.59829
0.577977
0.554486
0.528673
0.501627
0.474448
0.448058
0.423108
0.39997
0.378789
0.359548
0.342135
0.326388
0.312131
0.29919
0.287404
0.27663
0.266749
0.25766
0.249273
0.241479
0.234204
0.227397
0.221012
0.21501
0.20936
0.204034
0.199009
0.194266
0.189788
0.185564
0.181582
0.177835
0.174316
0.171023
0.167954
0.165112
0.162503
0.160138
0.158034
0.15623
0.154787
0.153683
0.153058
0.153052
0.153929
0.163404
0.174629
0.187859
0.203435
0.221807
0.24356
0.269447
0.300436
0.337753
0.382951
0.438085
0.505287
0.586027
0.680128
0.78406
0.889664
0.985465
1.06152
1.11431
1.14688
1.1652
1.17478
1.17954
1.18184
1.18292
1.18342
1.18364
1.18374
1.18379
1.18381
1.18382
1.18382
1.18382
1.18382
1.18382
1.18382
1.18382
1.18382
0.658526
0.6585
0.658456
0.658383
0.65826
0.658057
0.657723
0.65718
0.656309
0.65493
0.652787
0.649523
0.644674
0.637677
0.627923
0.614861
0.59815
0.577805
0.554286
0.528454
0.501401
0.474225
0.447848
0.422917
0.399803
0.378648
0.359434
0.342047
0.326325
0.312091
0.29917
0.287402
0.276647
0.266785
0.257714
0.249345
0.241567
0.234308
0.227516
0.221145
0.215158
0.209521
0.204206
0.199192
0.194459
0.18999
0.185772
0.181796
0.178052
0.174534
0.171239
0.168166
0.165315
0.162692
0.160306
0.158173
0.156317
0.154815
0.153619
0.152843
0.152583
0.152992
0.162135
0.173006
0.185844
0.200975
0.218826
0.23996
0.265102
0.295185
0.331396
0.375233
0.428695
0.49397
0.572705
0.665091
0.76821
0.874551
0.972787
1.05229
1.10841
1.1435
1.16342
1.17389
1.17912
1.18165
1.18283
1.18338
1.18363
1.18374
1.18379
1.18381
1.18382
1.18382
1.18382
1.18382
1.18382
1.18382
1.18382
1.18382
0.658526
0.6585
0.658456
0.658382
0.658259
0.658056
0.657721
0.657177
0.656303
0.654921
0.652772
0.649498
0.644633
0.637614
0.62783
0.614731
0.597976
0.577586
0.554027
0.528165
0.501095
0.473917
0.44755
0.422639
0.399551
0.378424
0.359241
0.341885
0.326194
0.311989
0.299096
0.287353
0.276621
0.26678
0.25773
0.249383
0.241625
0.234387
0.227613
0.221261
0.21529
0.209669
0.204371
0.19937
0.19465
0.190192
0.185985
0.182016
0.178277
0.174763
0.171468
0.168391
0.165533
0.162897
0.160491
0.158329
0.156428
0.154851
0.153599
0.152687
0.152227
0.152336
0.160991
0.171403
0.183772
0.198391
0.215662
0.236115
0.260443
0.289541
0.324556
0.36693
0.418588
0.481761
0.558269
0.648675
0.750713
0.85761
0.958324
1.04157
1.10148
1.1395
1.1613