/*--------------------------------*- C++ -*----------------------------------*\
  =========                 |
  \\      /  F ield         | OpenFOAM: The Open Source CFD Toolbox
   \\    /   O peration     | Website:  https://openfoam.org
    \\  /    A nd           | Version:  8
     \\/     M anipulation  |
\*---------------------------------------------------------------------------*/
FoamFile
{
    version     2.0;
    format      ascii;
    class       volScalarField;
    location    "480/fluid";
    object      T;
}
// * * * * * * * * * * * * * * * * * * * * * * * * * * * * * * * * * * * * * //

dimensions      [0 0 0 1 0 0 0];

internalField   nonuniform List<scalar> 
4000
(
293.004
293.016
293.038
293.073
293.132
293.23
293.391
293.655
294.081
294.761
295.833
297.494
300.017
303.767
309.196
316.826
327.203
340.819
358.034
379.012
403.705
431.88
463.184
497.219
533.597
571.979
612.089
653.714
696.691
740.895
786.228
832.599
879.921
928.094
977.004
1026.56
1076.79
1127.62
1178.98
1230.74
1282.82
1335.11
1387.49
1439.85
1492.07
1544.02
1595.58
1646.6
1696.94
1746.45
1794.94
1842.24
1888.13
1932.37
1974.66
2014.66
2051.94
2085.85
2115.19
2140.63
2160.28
2172.79
2176.06
2068.8
1953.34
1832.17
1707.26
1580.26
1452.57
1325.43
1199.99
1077.37
958.754
845.107
737.581
638.14
549.13
472.902
411.393
365.435
334.106
314.74
303.819
298.15
295.379
294.073
293.475
293.207
293.089
293.038
293.016
293.007
293.003
293.001
293
293
293
293
293
293
293.004
293.016
293.038
293.074
293.133
293.232
293.396
293.662
294.093
294.78
295.861
297.53
300.06
303.806
309.21
316.783
327.057
340.519
357.529
378.263
402.693
430.606
461.67
495.499
531.714
569.978
610.013
651.6
694.575
738.807
784.194
830.644
878.066
926.358
975.406
1025.11
1075.5
1126.51
1178.04
1230
1282.27
1334.75
1387.34
1439.91
1492.33
1544.48
1596.23
1647.45
1697.97
1747.64
1796.3
1843.74
1889.74
1934.07
1976.4
2016.39
2053.57
2087.13
2116.05
2140.71
2159.11
2169.65
2170
2060.17
1942.75
1820.02
1693.82
1565.72
1437.06
1309.07
1182.92
1059.77
940.814
827.053
719.829
621.306
533.94
460.089
401.504
358.598
329.935
312.497
302.746
297.675
295.181
293.994
293.444
293.195
293.085
293.036
293.015
293.006
293.003
293.001
293
293
293
293
293
293
293.004
293.017
293.038
293.074
293.135
293.235
293.4
293.669
294.104
294.796
295.882
297.557
300.09
303.834
309.228
316.77
326.983
340.342
357.205
377.752
401.963
429.639
460.464
494.066
530.077
568.167
608.063
649.548
692.455
736.655
782.045
828.531
876.022
924.415
973.595
1023.45
1074.02
1125.23
1176.99
1229.19
1281.74
1334.51
1387.38
1440.23
1492.95
1545.41
1597.46
1648.97
1699.78
1749.73
1798.65
1846.33
1892.54
1937.04
1979.49
2019.5
2056.6
2089.72
2118.1
2141.83
2158.51
2165.88
2157.04
2044.2
1924.47
1799.9
1672.22
1542.93
1413.37
1284.75
1158.28
1035.17
916.669
803.78
698.072
601.831
517.466
447.133
392.194
352.569
326.429
310.65
301.85
297.263
294.998
293.915
293.411
293.182
293.079
293.034
293.014
293.006
293.003
293.001
293
293
293
293
293
293
293.004
293.017
293.038
293.075
293.135
293.236
293.402
293.672
294.108
294.801
295.888
297.561
300.088
303.817
309.179
316.67
326.808
340.067
356.802
377.198
401.242
428.744
459.397
492.837
528.701
566.664
606.453
647.856
690.707
734.878
780.267
826.781
874.331
922.815
972.116
1022.12
1072.87
1124.29
1176.3
1228.77
1281.58
1334.64
1387.82
1441
1494.06
1546.85
1599.25
1651.1
1702.25
1752.53
1801.75
1849.72
1896.2
1940.92
1983.56
2023.73
2060.93
2094.07
2122.45
2146.23
2163.09
2171.14
2135.77
2021.75
1900.76
1775
1646.3
1516.22
1386.14
1257.33
1131.03
1008.51
890.995
779.534
675.871
582.325
501.205
434.448
383.072
346.594
322.875
308.717
300.875
296.8
294.786
293.821
293.37
293.164
293.072
293.031
293.013
293.006
293.002
293.001
293
293
293
293
293
293
293.004
293.017
293.038
293.075
293.136
293.237
293.403
293.673
294.109
294.803
295.888
297.559
300.079
303.794
309.132
316.586
326.667
339.847
356.484
376.763
400.676
428.044
458.564
491.88
527.633
565.5
605.214
646.56
689.376
733.534
778.935
825.487
873.101
921.677
971.102
1021.27
1072.2
1123.84
1176.06
1228.76
1281.85
1335.2
1388.7
1442.21
1495.61
1548.75
1601.5
1653.7
1705.19
1755.79
1805.33
1853.58
1900.31
1945.25
1988.08
2028.39
2065.68
2098.76
2127.02
2150.61
2167.23
2174.94
2111.72
1996.99
1875.14
1748.54
1619.14
1488.57
1358.28
1229.59
1103.79
982.172
865.92
756.148
654.763
564.059
486.225
422.97
374.971
341.381
319.818
307.069
300.046
296.403
294.603
293.738
293.334
293.148
293.065
293.028
293.012
293.005
293.002
293.001
293
293
293
293
293
293
293.004
293.017
293.038
293.075
293.136
293.237
293.403
293.673
294.108
294.8
295.883
297.548
300.058
303.757
309.071
316.488
326.52
339.637
356.196
376.387
400.207
427.479
457.909
491.141
526.822
564.631
604.301
645.62
688.426
732.594
778.023
824.627
872.318
921.002
970.562
1020.88
1071.97
1123.79
1176.23
1229.18
1282.54
1336.18
1389.98
1443.8
1497.53
1551
1604.08
1656.6
1708.41
1759.31
1809.12
1857.61
1904.55
1949.66
1992.59
2032.95
2070.17
2103
2131.09
2154.52
2170.86
2177.78
2088.35
1973.06
1850.37
1722.94
1592.9
1461.94
1331.58
1203.17
1078.02
957.435
842.519
734.506
635.404
547.459
472.734
412.718
367.783
336.767
317.105
305.593
299.293
296.039
294.432
293.661
293.299
293.133
293.058
293.025
293.011
293.005
293.002
293.001
293
293
293
293
293
293
293.004
293.017
293.038
293.075
293.136
293.236
293.402
293.672
294.106
294.796
295.876
297.535
300.037
303.722
309.015
316.403
326.396
339.462
355.962
376.087
399.838
427.043
457.411
490.59
526.228
564.005
603.657
644.972
687.79
731.987
777.465
824.14
871.923
920.713
970.389
1020.84
1072.1
1124.11
1176.76
1229.95
1283.56
1337.47
1391.55
1445.67
1499.69
1553.47
1606.84
1659.66
1711.74
1762.89
1812.92
1861.6
1908.67
1953.84
1996.76
2037.01
2074.08
2106.6
2134.48
2157.64
2173.89
2181.28
2072.2
1953.7
1828.79
1699.86
1568.85
1437.41
1306.96
1178.85
1054.37
934.825
821.225
714.929
618.009
532.656
460.81
403.749
361.562
332.816
314.8
304.345
298.658
295.731
294.287
293.594
293.269
293.12
293.053
293.023
293.01
293.004
293.002
293.001
293
293
293
293
293
293
293.004
293.017
293.038
293.075
293.135
293.236
293.401
293.67
294.104
294.792
295.868
297.522
300.016
303.689
308.964
316.328
326.289
339.317
355.773
375.851
399.555
426.716
457.045
490.194
525.811
563.579
603.233
644.564
687.412
731.656
777.196
823.943
871.807
920.694
970.494
1021.09
1072.52
1124.71
1177.57
1230.98
1284.82
1338.97
1393.31
1447.69
1501.98
1556.03
1609.67
1662.74
1715.05
1766.41
1816.61
1865.41
1912.54
1957.69
2000.47
2040.43
2076.96
2108.37
2135.75
2156.92
2170.26
2173.29
2058.81
1936.72
1809.41
1678.93
1546.98
1415.09
1284.61
1156.84
1033.05
914.49
802.145
697.475
602.591
519.621
450.388
395.975
356.214
329.441
312.839
303.284
298.116
295.467
294.162
293.537
293.243
293.109
293.048
293.021
293.009
293.004
293.002
293.001
293
293
293
293
293
293
293.004
293.017
293.038
293.075
293.135
293.236
293.4
293.669
294.101
294.788
295.861
297.511
299.997
303.66
308.922
316.267
326.204
339.203
355.627
375.673
399.345
426.479
456.788
489.924
525.538
563.312
602.985
644.346
687.235
731.528
777.124
823.942
871.897
920.895
970.819
1021.56
1073.14
1125.51
1178.55
1232.16
1286.22
1340.59
1395.16
1449.78
1504.31
1558.59
1612.46
1665.74
1718.25
1769.78
1820.12
1869.01
1916.17
1961.26
2003.88
2043.53
2079.34
2109.98
2136.1
2155.11
2164.78
2161.24
2043.93
1919.72
1790.92
1659.44
1526.92
1394.81
1264.44
1137.07
1013.97
896.355
785.177
682.016
589.012
508.22
441.344
389.287
351.655
326.587
311.19
302.394
297.662
295.246
294.058
293.488
293.222
293.099
293.044
293.019
293.008
293.003
293.001
293.001
293
293
293
293
293
293
293.004
293.017
293.038
293.074
293.135
293.235
293.4
293.668
294.099
294.784
295.855
297.501
299.981
303.637
308.887
316.218
326.137
339.116
355.519
375.543
399.197
426.318
456.619
489.755
525.378
563.172
602.871
644.265
687.193
731.537
777.2
824.099
872.148
921.251
971.294
1022.16
1073.89
1126.42
1179.64
1233.43
1287.67
1342.25
1397.02
1451.85
1506.59
1561.07
1615.13
1668.6
1721.28
1772.95
1823.41
1872.38
1919.58
1964.67
2007.24
2046.78
2082.33
2112.71
2138.66
2157.68
2167.92
2146.66
2028.05
1902.83
1773.3
1641.34
1508.6
1376.5
1246.37
1119.47
997.066
880.327
770.237
668.477
577.165
498.324
433.549
383.568
347.787
324.183
309.808
301.651
297.283
295.061
293.97
293.448
293.203
293.091
293.04
293.017
293.007
293.003
293.001
293.001
293
293
293
293
293
293
293.004
293.017
293.038
293.074
293.135
293.235
293.399
293.667
294.097
294.78
295.849
297.493
299.969
303.618
308.86
316.18
326.087
339.053
355.442
375.454
399.1
426.216
456.52
489.667
525.306
563.12
602.846
644.277
687.253
731.655
777.387
824.364
872.502
921.705
971.858
1022.85
1074.72
1127.39
1180.76
1234.71
1289.12
1343.87
1398.83
1453.83
1508.75
1563.4
1617.63
1671.25
1724.07
1775.87
1826.42
1875.47
1922.71
1967.81
2010.35
2049.84
2085.3
2115.58
2141.44
2160.46
2170.83
2131.45
2012.41
1886.81
1756.98
1624.86
1492.11
1360.16
1230.34
1103.94
982.209
866.288
757.205
656.707
566.92
489.809
426.877
378.707
344.524
322.168
308.655
301.032
296.968
294.907
293.897
293.414
293.188
293.084
293.037
293.016
293.007
293.003
293.001
293.001
293
293
293
293
293
293
293.004
293.017
293.038
293.074
293.135
293.234
293.398
293.666
294.095
294.778
295.845
297.486
299.959
303.604
308.84
316.153
326.052
339.009
355.39
375.397
399.042
426.162
456.474
489.634
525.29
563.13
602.889
644.361
687.386
731.845
777.642
824.693
872.914
922.209
972.463
1023.56
1075.55
1128.35
1181.85
1235.95
1290.51
1345.41
1400.52
1455.68
1510.74
1565.55
1619.91
1673.66
1726.59
1778.48
1829.1
1878.2
1925.47
1970.56
2013.07
2052.5
2087.82
2117.98
2143.75
2162.68
2172.96
2117.72
1998.29
1872.4
1742.41
1610.24
1477.55
1345.8
1216.31
1090.39
969.298
854.123
745.927
646.555
558.115
482.527
421.208
374.602
341.787
320.487
307.698
300.52
296.707
294.78
293.837
293.386
293.175
293.078
293.034
293.015
293.006
293.003
293.001
293
293
293
293
293
293
293
293.004
293.017
293.038
293.074
293.134
293.234
293.398
293.665
294.094
294.776
295.842
297.481
299.952
303.593
308.826
316.134
326.028
338.981
355.359
375.366
399.014
426.141
456.463
489.638
525.318
563.186
602.979
644.491
687.563
732.075
777.932
825.051
873.347
922.724
973.068
1024.27
1076.36
1129.27
1182.89
1237.11
1291.8
1346.83
1402.06
1457.35
1512.54
1567.46
1621.94
1675.78
1728.79
1780.76
1831.43
1880.56
1927.83
1972.9
2015.36
2054.69
2089.88
2119.94
2145.58
2164.36
2174.49
2105.93
1986.06
1859.9
1729.75
1597.56
1464.96
1333.42
1204.26
1078.78
958.242
843.704
736.288
637.897
550.628
476.359
416.429
371.163
339.506
319.094
306.907
300.098
296.493
294.675
293.787
293.363
293.165
293.074
293.032
293.014
293.006
293.003
293.001
293
293
293
293
293
293
293
293.004
293.017
293.038
293.074
293.134
293.234
293.398
293.664
294.093
294.774
295.84
297.478
299.947
303.586
308.816
316.122
326.013
338.965
355.343
375.353
399.005
426.141
456.478
489.671
525.373
563.268
603.094
644.643
687.758
732.318
778.23
825.409
873.771
923.221
973.642
1024.93
1077.11
1130.11
1183.84
1238.16
1292.95
1348.09
1403.43
1458.82
1514.11
1569.12
1623.69
1677.61
1730.68
1782.69
1833.4
1882.53
1929.78
1974.81
2017.2
2056.46
2091.52
2121.45
2146.95
2165.59
2175.5
2096.07
1975.74
1849.29
1719.01
1586.8
1454.29
1322.93
1194.05
1068.94
948.877
834.891
728.149
630.6
544.335
471.194
412.444
368.31
337.624
317.95
306.26
299.753
296.318
294.59
293.747
293.344
293.156
293.07
293.031
293.013
293.006
293.002
293.001
293
293
293
293
293
293
293
293.004
293.017
293.038
293.074
293.134
293.234
293.397
293.664
294.093
294.773
295.838
297.476
299.944
303.581
308.81
316.114
326.005
338.957
355.338
375.351
399.01
426.157
456.508
489.719
525.442
563.363
603.218
644.801
687.953
732.556
778.514
825.745
874.164
923.675
974.162
1025.52
1077.77
1130.86
1184.67
1239.07
1293.95
1349.18
1404.6
1460.08
1515.44
1570.53
1625.15
1679.13
1732.24
1784.28
1835
1884.12
1931.34
1976.32
2018.65
2057.83
2092.76
2122.57
2147.95
2166.46
2176.12
2087.96
1967.16
1840.44
1710.03
1577.8
1445.37
1314.16
1185.52
1060.73
941.078
827.558
721.385
624.548
539.127
466.931
409.167
365.973
336.089
317.02
305.736
299.474
296.176
294.521
293.714
293.329
293.149
293.067
293.029
293.013
293.005
293.002
293.001
293
293
293
293
293
293
293
293.004
293.017
293.038
293.074
293.134
293.234
293.397
293.664
294.092
294.773
295.837
297.474
299.941
303.579
308.806
316.11
326.001
338.954
355.338
375.356
399.024
426.181
456.545
489.772
525.515
563.458
603.338
644.949
688.133
732.771
778.769
826.043
874.509
924.07
974.61
1026.02
1078.34
1131.49
1185.36
1239.83
1294.78
1350.07
1405.56
1461.1
1516.52
1571.66
1626.33
1680.34
1733.48
1785.53
1836.23
1885.33
1932.52
1977.47
2019.74
2058.85
2093.7
2123.45
2148.83
2167.45
2177.36
2081.39
1960.17
1833.2
1702.68
1570.43
1438.06
1306.99
1178.56
1054.04
934.727
821.593
715.892
619.641
534.913
463.49
406.53
364.098
334.862
316.279
305.319
299.253
296.064
294.467
293.688
293.317
293.144
293.064
293.028
293.012
293.005
293.002
293.001
293
293
293
293
293
293
293
293.004
293.017
293.038
293.074
293.134
293.234
293.397
293.663
294.092
294.772
295.836
297.473
299.94
303.577
308.805
316.109
326
338.955
355.342
375.365
399.04
426.206
456.581
489.822
525.581
563.542
603.443
645.077
688.287
732.953
778.982
826.29
874.792
924.392
974.973
1026.43
1078.79
1131.99
1185.91
1240.43
1295.43
1350.77
1406.31
1461.89
1517.36
1572.53
1627.23
1681.25
1734.4
1786.44
1837.13
1886.21
1933.36
1978.25
2020.45
2059.48
2094.23
2123.91
2149.22
2167.81
2177.65
2076.22
1954.62
1827.44
1696.81
1564.56
1432.25
1301.31
1173.05
1048.77
929.725
816.902
711.58
615.797
531.62
460.808
404.479
362.644
333.912
315.706
304.996
299.082
295.978
294.424
293.668
293.308
293.139
293.062
293.027
293.012
293.005
293.002
293.001
293
293
293
293
293
293
293
293.004
293.017
293.038
293.074
293.134
293.234
293.397
293.663
294.092
294.772
295.836
297.472
299.939
303.576
308.804
316.108
326.001
338.957
355.347
375.375
399.055
426.228
456.613
489.865
525.635
563.61
603.527
645.178
688.407
733.095
779.146
826.479
875.007
924.635
975.245
1026.73
1079.13
1132.36
1186.31
1240.87
1295.9
1351.28
1406.85
1462.46
1517.94
1573.13
1627.84
1681.87
1735.01
1787.04
1837.71
1886.75
1933.86
1978.69
2020.82
2059.77
2094.42
2124.04
2149.31
2167.9
2177.8
2072.41
1950.45
1823.07
1692.37
1560.12
1427.87
1297.04
1168.92
1044.82
925.997
813.415
708.382
612.954
529.19
458.835
402.976
361.582
333.219
315.287
304.761
298.957
295.915
294.394
293.653
293.301
293.136
293.061
293.027
293.012
293.005
293.002
293.001
293
293
293
293
293
293
293
293.004
293.017
293.038
293.074
293.134
293.233
293.397
293.663
294.091
294.772
295.836
297.472
299.939
303.575
308.803
316.108
326.001
338.959
355.351
375.382
399.066
426.245
456.635
489.894
525.674
563.658
603.585
645.248
688.49
733.191
779.257
826.605
875.151
924.796
975.423
1026.92
1079.34
1132.59
1186.57
1241.15
1296.2
1351.59
1407.18
1462.8
1518.3
1573.49
1628.2
1682.23
1735.36
1787.37
1838.01
1887.01
1934.07
1978.84
2020.9
2059.79
2094.36
2123.93
2149.18
2167.83
2177.86
2069.88
1947.6
1820.06
1689.3
1557.06
1424.88
1294.13
1166.13
1042.17
923.498
811.088
706.257
611.071
527.587
457.539
401.994
360.891
332.771
315.017
304.609
298.875
295.874
294.374
293.644
293.296
293.134
293.06
293.026
293.011
293.005
293.002
293.001
293
293
293
293
293
293
293
293.004
293.017
293.038
293.074
293.134
293.233
293.397
293.663
294.091
294.772
295.836
297.472
299.939
303.575
308.803
316.108
326.002
338.96
355.353
375.386
399.072
426.253
456.647
489.909
525.693
563.682
603.614
645.283
688.53
733.238
779.312
826.668
875.221
924.874
975.509
1027.02
1079.44
1132.7
1186.69
1241.27
1296.34
1351.73
1407.33
1462.95
1518.45
1573.65
1628.36
1682.38
1735.5
1787.49
1838.1
1887.07
1934.09
1978.81
2020.83
2059.66
2094.18
2123.71
2148.97
2167.67
2177.87
2068.63
1946.1
1818.46
1687.67
1555.45
1423.31
1292.63
1164.71
1040.83
922.247
809.934
705.213
610.154
526.813
456.918
401.527
360.566
332.561
314.892
304.538
298.838
295.855
294.365
293.639
293.294
293.133
293.06
293.026
293.011
293.005
293.002
293.001
293
293
293
293
293
293
293
293.004
293.017
293.038
293.074
293.134
293.233
293.397
293.663
294.091
294.772
295.836
297.472
299.939
303.575
308.803
316.108
326.002
338.961
355.354
375.386
399.072
426.254
456.647
489.91
525.694
563.683
603.615
645.284
688.532
733.239
779.313
826.669
875.222
924.876
975.511
1027.02
1079.44
1132.7
1186.69
1241.28
1296.34
1351.74
1407.33
1462.96
1518.46
1573.65
1628.36
1682.38
1735.5
1787.49
1838.1
1887.07
1934.09
1978.81
2020.83
2059.66
2094.18
2123.71
2148.97
2167.67
2177.87
2068.63
1946.1
1818.45
1687.67
1555.45
1423.31
1292.62
1164.7
1040.82
922.245
809.932
705.211
610.152
526.811
456.917
401.526
360.565
332.561
314.892
304.538
298.838
295.855
294.365
293.639
293.294
293.133
293.06
293.026
293.011
293.005
293.002
293.001
293
293
293
293
293
293
293
293.004
293.017
293.038
293.074
293.134
293.233
293.397
293.663
294.091
294.772
295.836
297.472
299.939
303.576
308.804
316.109
326.002
338.96
355.352
375.383
399.068
426.247
456.638
489.897
525.676
563.661
603.588
645.251
688.493
733.194
779.261
826.609
875.154
924.799
975.426
1026.93
1079.35
1132.6
1186.57
1241.15
1296.2
1351.6
1407.18
1462.8
1518.3
1573.5
1628.21
1682.24
1735.37
1787.38
1838.02
1887.02
1934.07
1978.84
2020.91
2059.79
2094.36
2123.93
2149.19
2167.83
2177.86
2069.87
1947.59
1820.05
1689.29
1557.05
1424.87
1294.12
1166.12
1042.16
923.491
811.082
706.252
611.066
527.583
457.536
401.992
360.89
332.77
315.017
304.608
298.875
295.874
294.374
293.644
293.296
293.134
293.06
293.026
293.011
293.005
293.002
293.001
293
293
293
293
293
293
293
293.004
293.017
293.038
293.074
293.134
293.234
293.397
293.663
294.092
294.772
295.836
297.472
299.939
303.576
308.804
316.109
326.002
338.959
355.349
375.377
399.058
426.232
456.616
489.869
525.64
563.615
603.532
645.184
688.413
733.101
779.152
826.485
875.014
924.642
975.251
1026.74
1079.13
1132.37
1186.32
1240.88
1295.91
1351.28
1406.85
1462.46
1517.95
1573.14
1627.85
1681.88
1735.02
1787.05
1837.72
1886.76
1933.87
1978.69
2020.82
2059.78
2094.43
2124.04
2149.31
2167.91
2177.8
2072.39
1950.43
1823.05
1692.35
1560.1
1427.86
1297.02
1168.91
1044.81
925.986
813.405
708.373
612.946
529.183
458.829
402.972
361.579
333.217
315.286
304.76
298.956
295.914
294.394
293.653
293.301
293.136
293.061
293.027
293.012
293.005
293.002
293.001
293
293
293
293
293
293
293
293.004
293.017
293.038
293.074
293.134
293.234
293.397
293.663
294.092
294.772
295.837
297.473
299.94
303.578
308.805
316.11
326.002
338.957
355.345
375.369
399.044
426.211
456.587
489.828
525.587
563.549
603.45
645.085
688.295
732.961
778.99
826.298
874.801
924.401
974.982
1026.44
1078.8
1132
1185.92
1240.44
1295.44
1350.78
1406.32
1461.9
1517.37
1572.54
1627.24
1681.26
1734.41
1786.45
1837.14
1886.22
1933.37
1978.26
2020.46
2059.49
2094.23
2123.91
2149.23
2167.81
2177.65
2076.2
1954.59
1827.41
1696.79
1564.54
1432.23
1301.29
1173.03
1048.75
929.709
816.888
711.567
615.786
531.61
460.8
404.473
362.64
333.909
315.704
304.996
299.081
295.977
294.424
293.668
293.308
293.139
293.062
293.027
293.012
293.005
293.002
293.001
293
293
293
293
293
293
293
293.004
293.017
293.038
293.074
293.134
293.234
293.397
293.664
294.092
294.773
295.837
297.474
299.942
303.579
308.808
316.112
326.004
338.957
355.342
375.361
399.029
426.187
456.551
489.779
525.523
563.466
603.347
644.958
688.143
732.781
778.779
826.054
874.52
924.082
974.622
1026.03
1078.35
1131.5
1185.37
1239.85
1294.79
1350.09
1405.58
1461.11
1516.54
1571.67
1626.35
1680.35
1733.49
1785.54
1836.24
1885.34
1932.54
1977.48
2019.75
2058.86
2093.7
2123.46
2148.83
2167.45
2177.36
2081.36
1960.14
1833.17
1702.65
1570.4
1438.03
1306.97
1178.53
1054.02
934.707
821.573
715.874
619.626
534.9
463.48
406.522
364.093
334.858
316.277
305.317
299.252
296.064
294.466
293.688
293.317
293.144
293.064
293.028
293.012
293.005
293.002
293.001
293
293
293
293
293
293
293
293.004
293.017
293.038
293.074
293.134
293.234
293.397
293.664
294.093
294.774
295.839
297.476
299.944
303.582
308.811
316.116
326.008
338.96
355.342
375.356
399.017
426.164
456.516
489.728
525.452
563.374
603.229
644.812
687.965
732.568
778.527
825.759
874.178
923.69
974.177
1025.53
1077.79
1130.88
1184.68
1239.09
1293.97
1349.19
1404.62
1460.09
1515.46
1570.54
1625.17
1679.14
1732.26
1784.3
1835.01
1884.13
1931.35
1976.33
2018.66
2057.84
2092.77
2122.58
2147.95
2166.46
2176.12
2087.92
1967.12
1840.4
1710
1577.77
1445.33
1314.13
1185.49
1060.7
941.052
827.534
721.364
624.53
539.111
466.918
409.157
365.966
336.085
317.017
305.734
299.473
296.176
294.521
293.714
293.329
293.149
293.067
293.029
293.013
293.005
293.002
293.001
293
293
293
293
293
293
293
293.004
293.017
293.038
293.074
293.134
293.234
293.398
293.664
294.093
294.775
295.84
297.478
299.948
303.587
308.818
316.124
326.016
338.969
355.349
375.359
399.013
426.15
456.487
489.682
525.385
563.281
603.107
644.657
687.773
732.333
778.245
825.425
873.788
923.238
973.66
1024.94
1077.13
1130.13
1183.86
1238.18
1292.97
1348.11
1403.45
1458.84
1514.13
1569.14
1623.71
1677.63
1730.7
1782.71
1833.41
1882.54
1929.8
1974.83
2017.22
2056.47
2091.53
2121.46
2146.95
2165.6
2175.5
2096.02
1975.69
1849.24
1718.96
1586.75
1454.25
1322.89
1194.01
1068.9
948.846
834.862
728.123
630.577
544.315
471.178
412.432
368.301
337.618
317.946
306.258
299.752
296.317
294.59
293.746
293.344
293.156
293.07
293.031
293.013
293.006
293.002
293.001
293
293
293
293
293
293
293
293.004
293.017
293.038
293.074
293.134
293.234
293.398
293.665
294.094
294.776
295.843
297.482
299.953
303.595
308.828
316.137
326.031
338.985
355.365
375.374
399.022
426.151
456.475
489.651
525.331
563.2
602.994
644.507
687.58
732.092
777.95
825.07
873.366
922.744
973.089
1024.29
1076.38
1129.29
1182.92
1237.13
1291.82
1346.85
1402.09
1457.37
1512.56
1567.48
1621.96
1675.8
1728.82
1780.78
1831.45
1880.58
1927.85
1972.92
2015.38
2054.71
2089.89
2119.95
2145.59
2164.37
2174.5
2105.87
1986
1859.84
1729.7
1597.5
1464.91
1333.37
1204.22
1078.74
958.205
843.67
736.257
637.869
550.604
476.34
416.414
371.153
339.499
319.09
306.905
300.096
296.492
294.675
293.787
293.363
293.165
293.074
293.032
293.014
293.006
293.003
293.001
293
293
293
293
293
293
293
293.004
293.017
293.038
293.074
293.135
293.234
293.399
293.666
294.096
294.778
295.846
297.487
299.96
303.605
308.842
316.156
326.056
339.014
355.397
375.406
399.051
426.173
456.487
489.648
525.306
563.146
602.907
644.379
687.406
731.865
777.663
824.715
872.936
922.232
972.487
1023.59
1075.57
1128.38
1181.88
1235.98
1290.54
1345.44
1400.55
1455.71
1510.77
1565.57
1619.94
1673.68
1726.61
1778.5
1829.13
1878.22
1925.49
1970.58
2013.09
2052.52
2087.84
2117.99
2143.76
2162.69
2172.97
2117.65
1998.22
1872.34
1742.35
1610.18
1477.5
1345.74
1216.26
1090.34
969.255
854.083
745.891
646.523
558.088
482.505
421.19
374.59
341.778
320.482
307.695
300.518
296.706
294.78
293.837
293.386
293.175
293.078
293.034
293.015
293.006
293.003
293.001
293
293
293
293
293
293
293
293.004
293.017
293.038
293.074
293.135
293.235
293.399
293.667
294.097
294.781
295.85
297.493
299.97
303.62
308.863
316.184
326.092
339.059
355.449
375.463
399.111
426.229
456.534
489.682
525.323
563.139
602.866
644.297
687.275
731.678
777.41
824.388
872.527
921.731
971.885
1022.88
1074.74
1127.42
1180.78
1234.74
1289.15
1343.91
1398.86
1453.87
1508.78
1563.44
1617.66
1671.28
1724.1
1775.9
1826.45
1875.49
1922.73
1967.83
2010.37
2049.86
2085.32
2115.6
2141.45
2160.47
2170.84
2131.36
2012.33
1886.73
1756.91
1624.79
1492.04
1360.1
1230.29
1103.88
982.16
866.243
757.164
656.671
566.889
489.783
426.857
378.692
344.514
322.162
308.652
301.03
296.967
294.907
293.897
293.414
293.188
293.084
293.037
293.016
293.007
293.003
293.001
293.001
293
293
293
293
293
293
293.004
293.017
293.038
293.075
293.135
293.235
293.4
293.668
294.099
294.784
295.855
297.502
299.983
303.638
308.89
316.221
326.142
339.123
355.527
375.553
399.209
426.332
456.635
489.773
525.397
563.192
602.892
644.288
687.217
731.562
777.227
824.126
872.176
921.28
971.324
1022.19
1073.93
1126.45
1179.67
1233.46
1287.71
1342.28
1397.06
1451.89
1506.62
1561.1
1615.17
1668.63
1721.31
1772.99
1823.44
1872.41
1919.61
1964.7
2007.27
2046.8
2082.36
2112.73
2138.68
2157.7
2167.94
2146.57
2027.97
1902.76
1773.22
1641.27
1508.53
1376.43
1246.3
1119.41
997.012
880.277
770.191
668.435
577.13
498.294
433.525
383.55
347.775
324.175
309.804
301.648
297.281
295.06
293.97
293.448
293.203
293.091
293.04
293.017
293.007
293.003
293.001
293.001
293
293
293
293
293
293
293.004
293.017
293.038
293.075
293.135
293.236
293.401
293.669
294.101
294.788
295.862
297.512
299.998
303.662
308.925
316.271
326.209
339.211
355.637
375.684
399.359
426.495
456.805
489.943
525.559
563.335
603.008
644.371
687.261
731.556
777.153
823.972
871.929
920.927
970.852
1021.59
1073.18
1125.54
1178.59
1232.2
1286.25
1340.63
1395.2
1449.82
1504.35
1558.63
1612.5
1665.78
1718.29
1769.82
1820.16
1869.05
1916.2
1961.3
2003.91
2043.56
2079.37
2110
2136.12
2155.12
2164.79
2161.21
2043.88
1919.67
1790.86
1659.37
1526.85
1394.74
1264.37
1137.01
1013.91
896.3
785.126
681.97
588.971
508.185
441.317
389.266
351.641
326.578
311.185
302.392
297.661
295.245
294.057
293.488
293.222
293.099
293.044
293.019
293.008
293.003
293.001
293.001
293
293
293
293
293
293
293.004
293.017
293.038
293.075
293.135
293.236
293.401
293.671
294.104
294.792
295.869
297.523
300.017
303.691
308.968
316.333
326.295
339.325
355.783
375.864
399.569
426.733
457.064
490.215
525.834
563.604
603.259
644.592
687.441
731.686
777.228
823.977
871.842
920.73
970.53
1021.13
1072.56
1124.75
1177.61
1231.02
1284.86
1339.01
1393.35
1447.74
1502.03
1556.07
1609.71
1662.78
1715.09
1766.45
1816.65
1865.45
1912.58
1957.73
2000.51
2040.47
2076.99
2108.4
2135.77
2156.92
2170.25
2173.26
2058.77
1936.66
1809.35
1678.86
1546.91
1415.02
1284.54
1156.77
1032.98
914.429
802.087
697.423
602.544
519.581
450.356
395.951
356.198
329.431
312.833
303.28
298.114
295.466
294.162
293.537
293.243
293.109
293.048
293.021
293.009
293.004
293.002
293.001
293
293
293
293
293
293
293.004
293.017
293.038
293.075
293.136
293.236
293.402
293.672
294.107
294.797
295.876
297.536
300.038
303.724
309.019
316.408
326.403
339.471
355.973
376.101
399.854
427.062
457.432
490.613
526.253
564.032
603.686
645.003
687.822
732.02
777.5
824.176
871.961
920.752
970.43
1020.88
1072.14
1124.15
1176.81
1230
1283.61
1337.51
1391.59
1445.72
1499.74
1553.51
1606.89
1659.71
1711.78
1762.94
1812.97
1861.64
1908.71
1953.88
1996.8
2037.05
2074.11
2106.63
2134.5
2157.66
2173.9
2181.28
2072.16
1953.64
1828.72
1699.78
1568.77
1437.33
1306.88
1178.78
1054.3
934.756
821.16
714.869
617.956
532.611
460.773
403.721
361.542
332.803
314.793
304.341
298.656
295.73
294.287
293.594
293.269
293.12
293.053
293.023
293.01
293.004
293.002
293.001
293
293
293
293
293
293
293.004
293.017
293.038
293.075
293.136
293.237
293.403
293.673
294.109
294.801
295.883
297.549
300.059
303.759
309.074
316.494
326.527
339.646
356.208
376.402
400.224
427.499
457.931
491.166
526.85
564.661
604.332
645.653
688.461
732.63
778.062
824.667
872.36
921.045
970.606
1020.92
1072.02
1123.84
1176.28
1229.23
1282.59
1336.23
1390.03
1443.86
1497.58
1551.05
1604.13
1656.66
1708.46
1759.36
1809.17
1857.66
1904.6
1949.7
1992.64
2033
2070.21
2103.04
2131.13
2154.55
2170.9
2177.82
2088.24
1972.95
1850.26
1722.85
1592.8
1461.85
1331.49
1203.09
1077.93
957.356
842.445
734.438
635.342
547.406
472.691
412.685
367.759
336.752
317.096
305.588
299.291
296.038
294.431
293.66
293.299
293.133
293.058
293.025
293.011
293.005
293.002
293.001
293
293
293
293
293
293
293.004
293.017
293.038
293.075
293.136
293.237
293.403
293.674
294.11
294.803
295.889
297.56
300.081
303.797
309.136
316.592
326.675
339.858
356.497
376.779
400.695
428.065
458.589
491.907
527.662
565.532
605.247
646.596
689.414
733.574
778.977
825.53
873.146
921.724
971.15
1021.32
1072.25
1123.89
1176.11
1228.82
1281.91
1335.26
1388.76
1442.27
1495.67
1548.81
1601.56
1653.76
1705.25
1755.85
1805.38
1853.63
1900.36
1945.31
1988.13
2028.44
2065.73
2098.81
2127.07
2150.66
2167.28
2174.99
2111.62
1996.88
1875.03
1748.44
1619.04
1488.47
1358.18
1229.5
1103.7
982.083
865.835
756.07
654.692
563.997
486.174
422.93
374.943
341.363
319.808
307.063
300.043
296.402
294.602
293.738
293.334
293.148
293.065
293.028
293.012
293.005
293.002
293.001
293
293
293
293
293
293
293.004
293.017
293.038
293.075
293.135
293.236
293.402
293.672
294.108
294.802
295.889
297.563
300.09
303.82
309.183
316.677
326.817
340.078
356.816
377.216
401.262
428.767
459.423
492.866
528.733
566.698
606.49
647.895
690.748
734.921
780.312
826.829
874.38
922.866
972.169
1022.18
1072.92
1124.35
1176.36
1228.83
1281.65
1334.7
1387.88
1441.06
1494.12
1546.92
1599.32
1651.17
1702.31
1752.59
1801.81
1849.78
1896.25
1940.97
1983.61
2023.78
2060.98
2094.11
2122.5
2146.28
2163.14
2171.2
2135.68
2021.65
1900.65
1774.89
1646.19
1516.11
1386.03
1257.22
1130.92
1008.41
890.899
779.445
675.79
582.254
501.145
434.402
383.039
346.572
322.862
308.71
300.872
296.798
294.785
293.82
293.37
293.164
293.072
293.031
293.013
293.006
293.002
293.001
293
293
293
293
293
293
293.004
293.017
293.038
293.074
293.135
293.235
293.4
293.67
294.104
294.797
295.883
297.559
300.092
303.838
309.233
316.777
326.992
340.354
357.22
377.771
401.985
429.664
460.492
494.097
530.111
568.204
608.102
649.59
692.499
736.702
782.094
828.582
876.075
924.47
973.652
1023.51
1074.08
1125.3
1177.05
1229.26
1281.81
1334.58
1387.45
1440.3
1493.02
1545.48
1597.53
1649.04
1699.85
1749.8
1798.71
1846.39
1892.6
1937.09
1979.54
2019.56
2056.65
2089.76
2118.14
2141.87
2158.55
2165.91
2156.93
2044.09
1924.35
1799.78
1672.1
1542.81
1413.24
1284.63
1158.16
1035.06
916.561
803.679
697.98
601.749
517.397
447.079
392.154
352.543
326.413
310.642
301.846
297.261
294.997
293.915
293.411
293.182
293.079
293.034
293.014
293.006
293.003
293.001
293
293
293
293
293
293
293.004
293.016
293.038
293.074
293.133
293.232
293.396
293.662
294.093
294.781
295.862
297.532
300.063
303.809
309.215
316.791
327.067
340.532
357.545
378.283
402.716
430.633
461.7
495.533
531.751
570.017
610.054
651.645
694.621
738.856
784.246
830.698