/*--------------------------------*- C++ -*----------------------------------*\
  =========                 |
  \\      /  F ield         | OpenFOAM: The Open Source CFD Toolbox
   \\    /   O peration     | Website:  https://openfoam.org
    \\  /    A nd           | Version:  8
     \\/     M anipulation  |
\*---------------------------------------------------------------------------*/
FoamFile
{
    version     2.0;
    format      ascii;
    class       volVectorField;
    location    "480/fluid";
    object      U;
}
// * * * * * * * * * * * * * * * * * * * * * * * * * * * * * * * * * * * * * //

dimensions      [0 1 -1 0 0 0 0];

internalField   nonuniform List<vector> 
4000
(
(0.0999479 -0.0069689 0)
(0.0996644 -0.0207351 0)
(0.0992069 -0.034387 0)
(0.098575 -0.0479635 0)
(0.0977612 -0.0614819 0)
(0.0967488 -0.0749441 0)
(0.0955181 -0.0883409 0)
(0.0940508 -0.101654 0)
(0.0923321 -0.114859 0)
(0.0903537 -0.127928 0)
(0.0881172 -0.140835 0)
(0.0856372 -0.153562 0)
(0.0829452 -0.166098 0)
(0.0800949 -0.178435 0)
(0.0771614 -0.190598 0)
(0.0742202 -0.202656 0)
(0.0713263 -0.214668 0)
(0.068503 -0.226673 0)
(0.0657339 -0.238683 0)
(0.0629627 -0.250671 0)
(0.060103 -0.262575 0)
(0.0570562 -0.274308 0)
(0.053731 -0.285764 0)
(0.050062 -0.296826 0)
(0.0460182 -0.307386 0)
(0.0415884 -0.317385 0)
(0.036774 -0.326767 0)
(0.0315879 -0.335481 0)
(0.0260519 -0.343487 0)
(0.0201933 -0.350757 0)
(0.0140424 -0.357275 0)
(0.00763041 -0.363035 0)
(0.000989458 -0.368041 0)
(-0.00584728 -0.372307 0)
(-0.0128479 -0.375851 0)
(-0.0199843 -0.378698 0)
(-0.0272316 -0.380878 0)
(-0.0345666 -0.382422 0)
(-0.0419668 -0.383367 0)
(-0.0494112 -0.38375 0)
(-0.0568796 -0.38361 0)
(-0.0643529 -0.382988 0)
(-0.0718126 -0.381921 0)
(-0.0792407 -0.380451 0)
(-0.0866192 -0.378616 0)
(-0.0939303 -0.376456 0)
(-0.101156 -0.374009 0)
(-0.108279 -0.371315 0)
(-0.115281 -0.368412 0)
(-0.122141 -0.36534 0)
(-0.12884 -0.362141 0)
(-0.135358 -0.358858 0)
(-0.14167 -0.355535 0)
(-0.147753 -0.352224 0)
(-0.15358 -0.348978 0)
(-0.159121 -0.34586 0)
(-0.164338 -0.342944 0)
(-0.169178 -0.340307 0)
(-0.173602 -0.33804 0)
(-0.177636 -0.336271 0)
(-0.181382 -0.335241 0)
(-0.184464 -0.335324 0)
(-0.18489 -0.336543 0)
(-0.181059 -0.337446 0)
(-0.174655 -0.33662 0)
(-0.167675 -0.334097 0)
(-0.160409 -0.33018 0)
(-0.152799 -0.325035 0)
(-0.144865 -0.318734 0)
(-0.136677 -0.311327 0)
(-0.128319 -0.302858 0)
(-0.119876 -0.293375 0)
(-0.111438 -0.282934 0)
(-0.103098 -0.271598 0)
(-0.0949967 -0.259437 0)
(-0.0873654 -0.246567 0)
(-0.0805298 -0.233188 0)
(-0.0748661 -0.219583 0)
(-0.0707615 -0.206266 0)
(-0.0685367 -0.193787 0)
(-0.0682712 -0.182425 0)
(-0.0697039 -0.17211 0)
(-0.0723301 -0.162529 0)
(-0.0755992 -0.153325 0)
(-0.0790611 -0.144234 0)
(-0.0824158 -0.135095 0)
(-0.0854805 -0.125806 0)
(-0.0881768 -0.116394 0)
(-0.0904985 -0.106913 0)
(-0.0924695 -0.097398 0)
(-0.0941241 -0.0878809 0)
(-0.0954987 -0.0783906 0)
(-0.0966282 -0.06895 0)
(-0.0975456 -0.0595743 0)
(-0.0982802 -0.0502706 0)
(-0.0988581 -0.0410371 0)
(-0.0993019 -0.031865 0)
(-0.0996293 -0.0227427 0)
(-0.0998524 -0.0136536 0)
(-0.0999817 -0.0045647 0)
(0.0999997 -0.00654941 0)
(0.0998017 -0.0195858 0)
(0.0993925 -0.0325363 0)
(0.0987495 -0.0453857 0)
(0.0978741 -0.0581163 0)
(0.0967622 -0.0707063 0)
(0.095405 -0.0831298 0)
(0.0937946 -0.0953576 0)
(0.091929 -0.107359 0)
(0.0898147 -0.119106 0)
(0.0874704 -0.130578 0)
(0.0849287 -0.141772 0)
(0.082238 -0.152711 0)
(0.079462 -0.163465 0)
(0.0766728 -0.174111 0)
(0.0739372 -0.184698 0)
(0.0713039 -0.195294 0)
(0.0687898 -0.205962 0)
(0.0663707 -0.21674 0)
(0.0639807 -0.227626 0)
(0.0615221 -0.238573 0)
(0.0588834 -0.249505 0)
(0.0559592 -0.260324 0)
(0.0526655 -0.270942 0)
(0.0489486 -0.281265 0)
(0.0447865 -0.291164 0)
(0.0401772 -0.300537 0)
(0.0351356 -0.309309 0)
(0.0296887 -0.317429 0)
(0.0238701 -0.324862 0)
(0.0177169 -0.331587 0)
(0.0112666 -0.337597 0)
(0.00455601 -0.342893 0)
(-0.00237888 -0.347487 0)
(-0.00950364 -0.351395 0)
(-0.0167868 -0.354644 0)
(-0.0241999 -0.35726 0)
(-0.0317171 -0.359276 0)
(-0.0393146 -0.360724 0)
(-0.0469699 -0.361641 0)
(-0.0546624 -0.362062 0)
(-0.0623722 -0.362024 0)
(-0.0700804 -0.361564 0)
(-0.0777686 -0.36072 0)
(-0.0854192 -0.359529 0)
(-0.0930151 -0.358027 0)
(-0.100539 -0.356252 0)
(-0.107975 -0.354239 0)
(-0.115304 -0.352026 0)
(-0.12251 -0.349651 0)
(-0.129575 -0.347152 0)
(-0.13648 -0.344567 0)
(-0.143206 -0.341938 0)
(-0.149733 -0.339307 0)
(-0.156039 -0.33672 0)
(-0.162101 -0.334224 0)
(-0.167885 -0.331867 0)
(-0.173339 -0.329697 0)
(-0.178436 -0.327756 0)
(-0.183231 -0.326089 0)
(-0.187857 -0.324727 0)
(-0.191871 -0.323654 0)
(-0.192818 -0.322616 0)
(-0.188795 -0.320929 0)
(-0.181807 -0.318301 0)
(-0.174333 -0.31459 0)
(-0.166695 -0.30977 0)
(-0.15876 -0.30383 0)
(-0.150502 -0.296767 0)
(-0.141967 -0.288584 0)
(-0.133218 -0.279294 0)
(-0.12432 -0.268925 0)
(-0.115338 -0.257528 0)
(-0.106342 -0.245191 0)
(-0.0974702 -0.232071 0)
(-0.0889894 -0.218444 0)
(-0.0812908 -0.204759 0)
(-0.0748449 -0.191644 0)
(-0.0701284 -0.179598 0)
(-0.0674696 -0.16889 0)
(-0.0668828 -0.159546 0)
(-0.0680352 -0.151292 0)
(-0.070395 -0.143702 0)
(-0.0734285 -0.136387 0)
(-0.0767182 -0.129088 0)
(-0.07999 -0.121684 0)
(-0.0830915 -0.114159 0)
(-0.0859349 -0.106438 0)
(-0.0884802 -0.098485 0)
(-0.0907207 -0.0903261 0)
(-0.0926641 -0.0820023 0)
(-0.0943265 -0.0735541 0)
(-0.0957288 -0.0650171 0)
(-0.0968935 -0.0564203 0)
(-0.0978435 -0.0477855 0)
(-0.0986001 -0.0391268 0)
(-0.0991815 -0.0304519 0)
(-0.0996 -0.0217665 0)
(-0.0998637 -0.0130739 0)
(-0.099995 -0.00436647 0)
(0.0999796 -0.00628075 0)
(0.0997252 -0.0187706 0)
(0.0992268 -0.0311722 0)
(0.0984664 -0.0434678 0)
(0.0974477 -0.0556358 0)
(0.0961718 -0.0676536 0)
(0.0946377 -0.0794979 0)
(0.0928484 -0.0911454 0)
(0.0908132 -0.102574 0)
(0.088551 -0.113766 0)
(0.0860924 -0.124711 0)
(0.0834815 -0.135409 0)
(0.0807752 -0.145875 0)
(0.0780383 -0.156139 0)
(0.0753359 -0.166251 0)
(0.0727289 -0.176278 0)
(0.0702634 -0.186297 0)
(0.0679556 -0.196372 0)
(0.0657806 -0.206548 0)
(0.0636714 -0.216828 0)
(0.0615282 -0.227177 0)
(0.0592362 -0.237526 0)
(0.0566839 -0.247782 0)
(0.0537762 -0.257844 0)
(0.0504417 -0.267612 0)
(0.0466384 -0.276998 0)
(0.0423541 -0.285923 0)
(0.0375985 -0.294323 0)
(0.0323958 -0.302148 0)
(0.0267787 -0.30936 0)
(0.0207843 -0.315935 0)
(0.0144512 -0.32186 0)
(0.0078172 -0.327131 0)
(0.000919488 -0.331754 0)
(-0.00620576 -0.335743 0)
(-0.0135254 -0.339115 0)
(-0.0210099 -0.341895 0)
(-0.0286322 -0.34411 0)
(-0.0363678 -0.34579 0)
(-0.0441936 -0.346968 0)
(-0.052088 -0.347675 0)
(-0.0600304 -0.347946 0)
(-0.0680016 -0.347814 0)
(-0.0759837 -0.347313 0)
(-0.0839599 -0.346478 0)
(-0.0919137 -0.345343 0)
(-0.0998292 -0.343941 0)
(-0.107691 -0.342306 0)
(-0.115484 -0.340471 0)
(-0.123193 -0.33847 0)
(-0.130803 -0.336336 0)
(-0.138301 -0.334102 0)
(-0.145672 -0.331801 0)
(-0.152901 -0.329468 0)
(-0.159973 -0.327134 0)
(-0.16687 -0.324832 0)
(-0.17356 -0.322592 0)
(-0.179994 -0.320434 0)
(-0.186151 -0.318377 0)
(-0.192084 -0.316438 0)
(-0.197854 -0.314626 0)
(-0.202688 -0.312885 0)
(-0.203692 -0.310766 0)
(-0.199091 -0.307703 0)
(-0.191406 -0.303841 0)
(-0.183205 -0.299123 0)
(-0.174829 -0.293474 0)
(-0.166147 -0.286845 0)
(-0.157124 -0.279217 0)
(-0.147799 -0.270597 0)
(-0.138226 -0.261015 0)
(-0.128463 -0.25053 0)
(-0.118569 -0.23924 0)
(-0.108626 -0.227288 0)
(-0.0988152 -0.214883 0)
(-0.0894708 -0.20232 0)
(-0.0810564 -0.189974 0)
(-0.0741102 -0.178264 0)
(-0.0691235 -0.167569 0)
(-0.0663568 -0.158111 0)
(-0.0657164 -0.149842 0)
(-0.0667945 -0.142471 0)
(-0.0690427 -0.135606 0)
(-0.0719461 -0.128907 0)
(-0.0751137 -0.122151 0)
(-0.0782929 -0.115226 0)
(-0.0813454 -0.108092 0)
(-0.0842021 -0.100759 0)
(-0.0868243 -0.0932444 0)
(-0.0891926 -0.0855697 0)
(-0.0913012 -0.0777561 0)
(-0.0931532 -0.0698258 0)
(-0.0947568 -0.0618001 0)
(-0.0961231 -0.0536982 0)
(-0.0972648 -0.0455359 0)
(-0.098195 -0.0373254 0)
(-0.0989248 -0.0290756 0)
(-0.0994611 -0.0207957 0)
(-0.0998083 -0.0124954 0)
(-0.0999869 -0.00417425 0)
(0.099984 -0.00593915 0)
(0.0997241 -0.0177498 0)
(0.0992067 -0.029468 0)
(0.0984129 -0.0410697 0)
(0.0973511 -0.0525286 0)
(0.0960279 -0.0638188 0)
(0.0944484 -0.0749149 0)
(0.0926207 -0.0857933 0)
(0.0905589 -0.0964325 0)
(0.0882849 -0.106817 0)
(0.0858305 -0.116938 0)
(0.0832388 -0.126801 0)
(0.0805644 -0.136427 0)
(0.0778719 -0.145856 0)
(0.0752309 -0.155146 0)
(0.0727062 -0.164372 0)
(0.0703444 -0.173611 0)
(0.0681604 -0.182933 0)
(0.0661268 -0.192384 0)
(0.064174 -0.201973 0)
(0.0621989 -0.211671 0)
(0.0600827 -0.221416 0)
(0.0577101 -0.23112 0)
(0.0549839 -0.240689 0)
(0.0518335 -0.250026 0)
(0.0482167 -0.25904 0)
(0.0441172 -0.267653 0)
(0.0395386 -0.275798 0)
(0.0344993 -0.283426 0)
(0.0290269 -0.290497 0)
(0.0231545 -0.296987 0)
(0.016917 -0.30288 0)
(0.0103497 -0.308171 0)
(0.00348645 -0.312863 0)
(-0.00363532 -0.316965 0)
(-0.0109835 -0.320495 0)
(-0.0185319 -0.323472 0)
(-0.026253 -0.325921 0)
(-0.0341218 -0.327866 0)
(-0.0421154 -0.329338 0)
(-0.0502124 -0.330364 0)
(-0.058393 -0.330974 0)
(-0.0666392 -0.3312 0)
(-0.0749339 -0.331071 0)
(-0.0832607 -0.330619 0)
(-0.0916039 -0.329872 0)
(-0.0999488 -0.328862 0)
(-0.108281 -0.327616 0)
(-0.116587 -0.326163 0)
(-0.124852 -0.324531 0)
(-0.133065 -0.322746 0)
(-0.141211 -0.320835 0)
(-0.149278 -0.318822 0)
(-0.157252 -0.31673 0)
(-0.165118 -0.314579 0)
(-0.172855 -0.312388 0)
(-0.180425 -0.310168 0)
(-0.187774 -0.307926 0)
(-0.194893 -0.305661 0)
(-0.201868 -0.303382 0)
(-0.208658 -0.3011 0)
(-0.213778 -0.298752 0)
(-0.213977 -0.295641 0)
(-0.208354 -0.291454 0)
(-0.200074 -0.286547 0)
(-0.191261 -0.280928 0)
(-0.182154 -0.274519 0)
(-0.172658 -0.267264 0)
(-0.162775 -0.259148 0)
(-0.152562 -0.250183 0)
(-0.142091 -0.24041 0)
(-0.131437 -0.2299 0)
(-0.120683 -0.218763 0)
(-0.109953 -0.207151 0)
(-0.0994903 -0.195282 0)
(-0.0896885 -0.183447 0)
(-0.0810407 -0.172006 0)
(-0.0740624 -0.161341 0)
(-0.0691681 -0.151774 0)
(-0.066521 -0.143445 0)
(-0.06595 -0.136241 0)
(-0.0670162 -0.129847 0)
(-0.0691839 -0.123891 0)
(-0.0719717 -0.118063 0)
(-0.07502 -0.112165 0)
(-0.0780945 -0.106093 0)
(-0.0810601 -0.0998041 0)
(-0.0838461 -0.0932885 0)
(-0.0864188 -0.0865556 0)
(-0.0887635 -0.0796241 0)
(-0.0908755 -0.0725167 0)
(-0.0927552 -0.0652569 0)
(-0.0944058 -0.0578672 0)
(-0.0958324 -0.0503681 0)
(-0.0970409 -0.0427776 0)
(-0.0980378 -0.0351105 0)
(-0.0988282 -0.0273795 0)
(-0.0994132 -0.0195984 0)
(-0.0997926 -0.0117822 0)
(-0.0999871 -0.00393687 0)
(0.0999811 -0.00559508 0)
(0.0997057 -0.0167203 0)
(0.099162 -0.027756 0)
(0.0983323 -0.0386776 0)
(0.0972272 -0.0494589 0)
(0.0958561 -0.0600744 0)
(0.0942268 -0.0705004 0)
(0.0923509 -0.0807152 0)
(0.0902459 -0.0907004 0)
(0.0879371 -0.100442 0)
(0.0854594 -0.109936 0)
(0.082859 -0.119186 0)
(0.0801933 -0.128214 0)
(0.0775288 -0.137054 0)
(0.0749359 -0.145761 0)
(0.0724791 -0.154402 0)
(0.0702041 -0.16305 0)
(0.0681244 -0.17177 0)
(0.0662119 -0.180607 0)
(0.0643954 -0.189573 0)
(0.0625706 -0.198647 0)
(0.0606161 -0.207774 0)
(0.0584129 -0.216879 0)
(0.0558599 -0.225875 0)
(0.0528821 -0.234675 0)
(0.0494334 -0.243195 0)
(0.0454932 -0.251362 0)
(0.0410617 -0.259117 0)
(0.036154 -0.266409 0)
(0.0307949 -0.273202 0)
(0.0250147 -0.279469 0)
(0.0188463 -0.285195 0)
(0.0123231 -0.290373 0)
(0.00547805 -0.295003 0)
(-0.00165597 -0.299091 0)
(-0.00904806 -0.302652 0)
(-0.0166701 -0.305702 0)
(-0.0244963 -0.30826 0)
(-0.0325029 -0.31035 0)
(-0.0406679 -0.311996 0)
(-0.0489714 -0.313223 0)
(-0.0573949 -0.314058 0)
(-0.0659207 -0.314527 0)
(-0.0745323 -0.314657 0)
(-0.0832141 -0.314474 0)
(-0.091951 -0.314004 0)
(-0.100729 -0.313271 0)
(-0.109534 -0.3123 0)
(-0.118352 -0.311114 0)
(-0.12717 -0.309735 0)
(-0.135974 -0.308184 0)
(-0.144751 -0.30648 0)
(-0.153485 -0.30464 0)
(-0.162161 -0.302678 0)
(-0.170758 -0.300607 0)
(-0.179251 -0.298433 0)
(-0.187586 -0.296161 0)
(-0.1957 -0.293782 0)
(-0.203596 -0.291291 0)
(-0.211382 -0.288689 0)
(-0.218846 -0.28598 0)
(-0.223677 -0.283092 0)
(-0.222671 -0.27921 0)
(-0.21607 -0.274319 0)
(-0.207331 -0.268792 0)
(-0.198009 -0.262646 0)
(-0.188239 -0.255813 0)
(-0.177987 -0.248256 0)
(-0.167304 -0.239974 0)
(-0.156277 -0.230994 0)
(-0.145 -0.221372 0)
(-0.133573 -0.211191 0)
(-0.122099 -0.200568 0)
(-0.110741 -0.189661 0)
(-0.0997894 -0.178682 0)
(-0.0896713 -0.167902 0)
(-0.0808863 -0.157633 0)
(-0.073924 -0.148186 0)
(-0.0691387 -0.139785 0)
(-0.0666144 -0.132481 0)
(-0.0661145 -0.126115 0)
(-0.0671745 -0.120385 0)
(-0.0692709 -0.114971 0)
(-0.071952 -0.109622 0)
(-0.0748884 -0.104184 0)
(-0.0778672 -0.0985755 0)
(-0.0807634 -0.0927645 0)
(-0.0835083 -0.086746 0)
(-0.086065 -0.0805282 0)
(-0.0884145 -0.0741257 0)
(-0.0905477 -0.0675556 0)
(-0.0924608 -0.0608366 0)
(-0.0941535 -0.0539869 0)
(-0.0956269 -0.0470238 0)
(-0.0968836 -0.0399633 0)
(-0.0979267 -0.0328193 0)
(-0.0987582 -0.0256046 0)
(-0.0993763 -0.0183341 0)
(-0.0997788 -0.0110243 0)
(-0.0999859 -0.00368386 0)
(0.0999816 -0.00523543 0)
(0.0997028 -0.015646 0)
(0.099151 -0.0259711 0)
(0.098309 -0.0361853 0)
(0.0971891 -0.0462621 0)
(0.0958023 -0.0561764 0)
(0.0941588 -0.0659051 0)
(0.0922718 -0.0754274 0)
(0.0901605 -0.0847259 0)
(0.0878517 -0.0937886 0)
(0.0853814 -0.102611 0)
(0.082796 -0.1112 0)
(0.0801531 -0.119577 0)
(0.0775189 -0.127776 0)
(0.0749634 -0.135852 0)
(0.072551 -0.14387 0)
(0.0703274 -0.151901 0)
(0.0683064 -0.160009 0)
(0.0664607 -0.168239 0)
(0.0647198 -0.176605 0)
(0.0629797 -0.185088 0)
(0.0611187 -0.193637 0)
(0.0590166 -0.202183 0)
(0.0565703 -0.210646 0)
(0.0537021 -0.218943 0)
(0.0503626 -0.226997 0)
(0.046528 -0.23474 0)
(0.042195 -0.242114 0)
(0.0373753 -0.249071 0)
(0.0320907 -0.255577 0)
(0.0263686 -0.261607 0)
(0.0202394 -0.267143 0)
(0.0137342 -0.272177 0)
(0.00688417 -0.27671 0)
(-0.000279688 -0.280744 0)
(-0.00772765 -0.284291 0)
(-0.0154326 -0.287365 0)
(-0.0233701 -0.289983 0)
(-0.0315182 -0.292163 0)
(-0.0398563 -0.293928 0)
(-0.048365 -0.2953 0)
(-0.0570264 -0.2963 0)
(-0.0658235 -0.296952 0)
(-0.0747401 -0.297279 0)
(-0.083761 -0.297302 0)
(-0.0928713 -0.297043 0)
(-0.102057 -0.296523 0)
(-0.111302 -0.295761 0)
(-0.120595 -0.294776 0)
(-0.129918 -0.293586 0)
(-0.139257 -0.292204 0)
(-0.148595 -0.290646 0)
(-0.157912 -0.288922 0)
(-0.167187 -0.287041 0)
(-0.176394 -0.285008 0)
(-0.185494 -0.282824 0)
(-0.19442 -0.280486 0)
(-0.203097 -0.27798 0)
(-0.211547 -0.275293 0)
(-0.219894 -0.272424 0)
(-0.227732 -0.269366 0)
(-0.231991 -0.266074 0)
(-0.229708 -0.261718 0)
(-0.22226 -0.25647 0)
(-0.213113 -0.250623 0)
(-0.203316 -0.244202 0)
(-0.192936 -0.237169 0)
(-0.182003 -0.229512 0)
(-0.170615 -0.221249 0)
(-0.158888 -0.212419 0)
(-0.146937 -0.203083 0)
(-0.134881 -0.19333 0)
(-0.122847 -0.183272 0)
(-0.111034 -0.173059 0)
(-0.0997718 -0.162889 0)
(-0.0895106 -0.153005 0)
(-0.0807476 -0.143682 0)
(-0.0739398 -0.13518 0)
(-0.0693786 -0.127674 0)
(-0.0670704 -0.121177 0)
(-0.0667184 -0.115515 0)
(-0.0678358 -0.110403 0)
(-0.0699098 -0.105551 0)
(-0.0725151 -0.10074 0)
(-0.0753488 -0.0958319 0)
(-0.0782183 -0.0907567 0)
(-0.0810115 -0.0854853 0)
(-0.0836669 -0.0800121 0)
(-0.086151 -0.0743437 0)
(-0.0884456 -0.0684924 0)
(-0.0905406 -0.0624738 0)
(-0.0924304 -0.0563046 0)
(-0.0941119 -0.0500017 0)
(-0.0955838 -0.0435815 0)
(-0.0968455 -0.0370594 0)
(-0.0978975 -0.0304493 0)
(-0.0987391 -0.0237648 0)
(-0.0993665 -0.0170215 0)
(-0.0997754 -0.0102366 0)
(-0.0999859 -0.00342075 0)
(0.0999811 -0.00487348 0)
(0.0996989 -0.0145646 0)
(0.0991413 -0.0241757 0)
(0.0982912 -0.0336824 0)
(0.0971618 -0.0430594 0)
(0.095765 -0.0522827 0)
(0.094112 -0.0613308 0)
(0.0922173 -0.0701844 0)
(0.0901011 -0.0788276 0)
(0.0877913 -0.0872498 0)
(0.0853248 -0.0954476 0)
(0.082749 -0.103428 0)
(0.0801218 -0.111209 0)
(0.0775101 -0.118827 0)
(0.0749839 -0.12633 0)
(0.0726075 -0.133779 0)
(0.0704267 -0.14124 0)
(0.0684554 -0.148775 0)
(0.0666658 -0.156425 0)
(0.0649876 -0.164204 0)
(0.0633161 -0.172098 0)
(0.0615291 -0.180062 0)
(0.0595051 -0.188033 0)
(0.057139 -0.19594 0)
(0.0543511 -0.203705 0)
(0.0510894 -0.211258 0)
(0.0473277 -0.218536 0)
(0.0430601 -0.225485 0)
(0.0382958 -0.232061 0)
(0.0330544 -0.238229 0)
(0.027361 -0.243966 0)
(0.021244 -0.249254 0)
(0.0147331 -0.254086 0)
(0.00785803 -0.258458 0)
(0.000648147 -0.262374 0)
(-0.00686839 -0.265841 0)
(-0.014666 -0.268871 0)
(-0.0227217 -0.27148 0)
(-0.0310143 -0.273682 0)
(-0.0395239 -0.275497 0)
(-0.0482317 -0.276943 0)
(-0.0571202 -0.278039 0)
(-0.0661729 -0.278804 0)
(-0.0753737 -0.279257 0)
(-0.0847074 -0.279417 0)
(-0.0941587 -0.279302 0)
(-0.103713 -0.278928 0)
(-0.113353 -0.278311 0)
(-0.123065 -0.277466 0)
(-0.132831 -0.276406 0)
(-0.142632 -0.275143 0)
(-0.152448 -0.273686 0)
(-0.162254 -0.272042 0)
(-0.172022 -0.270218 0)
(-0.181718 -0.268215 0)
(-0.191292 -0.266032 0)
(-0.200661 -0.263661 0)
(-0.209741 -0.261088 0)
(-0.218561 -0.258297 0)
(-0.227245 -0.255272 0)
(-0.235217 -0.251972 0)
(-0.238852 -0.248369 0)
(-0.235412 -0.243774 0)
(-0.227158 -0.238434 0)
(-0.217535 -0.232504 0)
(-0.207263 -0.226021 0)
(-0.19635 -0.218988 0)
(-0.184852 -0.211421 0)
(-0.172897 -0.203353 0)
(-0.160618 -0.194831 0)
(-0.148148 -0.185921 0)
(-0.135621 -0.17671 0)
(-0.123182 -0.167306 0)
(-0.111061 -0.15785 0)
(-0.0996201 -0.148523 0)
(-0.0893195 -0.139545 0)
(-0.080647 -0.131154 0)
(-0.0740244 -0.123565 0)
(-0.0696839 -0.116901 0)
(-0.0675677 -0.111132 0)
(-0.0673355 -0.106074 0)
(-0.0684909 -0.101464 0)
(-0.0705372 -0.0970499 0)
(-0.073074 -0.0926479 0)
(-0.0758208 -0.0881464 0)
(-0.0786007 -0.0834885 0)
(-0.0813106 -0.0786509 0)
(-0.083893 -0.0736293 0)
(-0.086316 -0.068429 0)
(-0.0885612 -0.0630603 0)
(-0.0906177 -0.0575361 0)
(-0.0924788 -0.0518707 0)
(-0.09414 -0.0460785 0)
(-0.0955983 -0.040174 0)
(-0.0968518 -0.0341711 0)
(-0.0978994 -0.0280828 0)
(-0.0987391 -0.0219219 0)
(-0.0993661 -0.0157036 0)
(-0.0997752 -0.00944466 0)
(-0.0999858 -0.00315606 0)
(0.0999812 -0.00450875 0)
(0.0996985 -0.0134751 0)
(0.0991397 -0.0223674 0)
(0.098288 -0.0311623 0)
(0.0971567 -0.0398361 0)
(0.0957587 -0.048366 0)
(0.0941055 -0.0567319 0)
(0.0922123 -0.0649159 0)
(0.0901 -0.0729033 0)
(0.0877968 -0.0806845 0)
(0.08534 -0.0882567 0)
(0.0827771 -0.0956265 0)
(0.0801662 -0.102812 0)
(0.0775738 -0.109847 0)
(0.07507 -0.116775 0)
(0.072719 -0.123656 0)
(0.0705667 -0.130552 0)
(0.0686271 -0.137519 0)
(0.066873 -0.144597 0)
(0.0652345 -0.151801 0)
(0.063607 -0.159118 0)
(0.0618679 -0.166509 0)
(0.0598947 -0.173915 0)
(0.057581 -0.181271 0)
(0.0548453 -0.188506 0)
(0.0516336 -0.195556 0)
(0.0479174 -0.202361 0)
(0.0436888 -0.208871 0)
(0.0389549 -0.215046 0)
(0.0337332 -0.220853 0)
(0.0280474 -0.226268 0)
(0.0219245 -0.231277 0)
(0.0153923 -0.235869 0)
(0.0084791 -0.240041 0)
(0.00121267 -0.243796 0)
(-0.00638017 -0.247138 0)
(-0.0142748 -0.250079 0)
(-0.0224489 -0.25263 0)
(-0.030882 -0.254805 0)
(-0.0395547 -0.256618 0)
(-0.0484488 -0.258086 0)
(-0.0575469 -0.259225 0)
(-0.0668326 -0.260051 0)
(-0.0762897 -0.260579 0)
(-0.0859026 -0.260826 0)
(-0.0956552 -0.260805 0)
(-0.105531 -0.260529 0)
(-0.115514 -0.260013 0)
(-0.125586 -0.259266 0)
(-0.135727 -0.2583 0)
(-0.145917 -0.257121 0)
(-0.156129 -0.255739 0)
(-0.166336 -0.254156 0)
(-0.176503 -0.252378 0)
(-0.18659 -0.250404 0)
(-0.196534 -0.248231 0)
(-0.206235 -0.245853 0)
(-0.215602 -0.243254 0)
(-0.224648 -0.240423 0)
(-0.233418 -0.237333 0)
(-0.241193 -0.233923 0)
(-0.244223 -0.230149 0)
(-0.239955 -0.225489 0)
(-0.231036 -0.220199 0)
(-0.22088 -0.214353 0)
(-0.210124 -0.207988 0)
(-0.198737 -0.201132 0)
(-0.186773 -0.193817 0)
(-0.174367 -0.186084 0)
(-0.16166 -0.177985 0)
(-0.148799 -0.169588 0)
(-0.135924 -0.160975 0)
(-0.123199 -0.152248 0)
(-0.110881 -0.143537 0)
(-0.0993559 -0.135007 0)
(-0.0890909 -0.126855 0)
(-0.0805622 -0.119289 0)
(-0.0741573 -0.112487 0)
(-0.0700552 -0.106537 0)
(-0.0681417 -0.101389 0)
(-0.0680403 -0.0968595 0)
(-0.0692476 -0.092706 0)
(-0.0712811 -0.0887076 0)
(-0.0737623 -0.084706 0)
(-0.0764307 -0.0806067 0)
(-0.0791239 -0.0763613 0)
(-0.0817482 -0.0719505 0)
(-0.0842511 -0.0673705 0)
(-0.086603 -0.062626 0)
(-0.0887865 -0.0577257 0)
(-0.0907909 -0.0526811 0)
(-0.0926087 -0.0475045 0)
(-0.0942348 -0.0422091 0)
(-0.0956652 -0.0368079 0)
(-0.096897 -0.0313135 0)
(-0.0979282 -0.0257381 0)
(-0.0987559 -0.0200939 0)
(-0.0993744 -0.0143952 0)
(-0.0997781 -0.00865806 0)
(-0.0999861 -0.00289311 0)
(0.0999812 -0.00414413 0)
(0.0996985 -0.0123858 0)
(0.0991398 -0.0205596 0)
(0.0982883 -0.028644 0)
(0.0971577 -0.0366167 0)
(0.0957609 -0.044457 0)
(0.0941099 -0.052146 0)
(0.09222 -0.0596674 0)
(0.0901126 -0.0670078 0)
(0.0878162 -0.0741585 0)
(0.0853681 -0.0811171 0)
(0.0828161 -0.0878899 0)
(0.0802182 -0.0944941 0)
(0.077641 -0.10096 0)
(0.0751547 -0.107329 0)
(0.0728233 -0.113656 0)
(0.0706928 -0.119997 0)
(0.0687774 -0.126406 0)
(0.0670502 -0.13292 0)
(0.0654411 -0.139554 0)
(0.0638456 -0.146295 0)
(0.0621404 -0.15311 0)
(0.0602024 -0.159946 0)
(0.0579239 -0.166742 0)
(0.055222 -0.173435 0)
(0.052041 -0.179965 0)
(0.0483508 -0.186278 0)
(0.0441419 -0.192328 0)
(0.0394201 -0.198076 0)
(0.0342014 -0.203493 0)
(0.0285081 -0.208557 0)
(0.0223655 -0.213251 0)
(0.0158004 -0.217568 0)
(0.00883952 -0.221502 0)
(0.00150989 -0.225056 0)
(-0.0061625 -0.228233 0)
(-0.0141538 -0.231042 0)
(-0.0224422 -0.233491 0)
(-0.0310079 -0.235594 0)
(-0.0398318 -0.237361 0)
(-0.0488958 -0.238807 0)
(-0.0581827 -0.239945 0)
(-0.0676757 -0.240788 0)
(-0.0773583 -0.24135 0)
(-0.087214 -0.241642 0)
(-0.0972259 -0.241677 0)
(-0.107377 -0.241466 0)
(-0.117647 -0.241017 0)
(-0.128018 -0.240341 0)
(-0.138467 -0.239444 0)
(-0.14897 -0.238332 0)
(-0.159498 -0.237011 0)
(-0.170018 -0.235483 0)
(-0.180493 -0.233749 0)
(-0.190872 -0.231809 0)
(-0.201083 -0.229661 0)
(-0.211018 -0.227296 0)
(-0.220584 -0.224706 0)
(-0.229772 -0.221889 0)
(-0.238575 -0.218844 0)
(-0.246084 -0.215549 0)
(-0.248516 -0.211814 0)
(-0.243496 -0.207176 0)
(-0.234001 -0.201981 0)
(-0.223373 -0.19631 0)
(-0.212189 -0.190186 0)
(-0.200398 -0.183635 0)
(-0.188052 -0.176693 0)
(-0.175286 -0.169402 0)
(-0.162248 -0.161817 0)
(-0.149091 -0.154002 0)
(-0.135961 -0.146035 0)
(-0.123038 -0.13801 0)
(-0.110602 -0.130048 0)
(-0.0990552 -0.1223 0)
(-0.0888694 -0.11494 0)
(-0.0805059 -0.10815 0)
(-0.0743197 -0.102077 0)
(-0.0704416 -0.096781 0)
(-0.0687106 -0.0921931 0)
(-0.0687228 -0.0881359 0)
(-0.0699732 -0.0843898 0)
(-0.0719943 -0.0807629 0)
(-0.0744269 -0.0771211 0)
(-0.0770276 -0.0733855 0)
(-0.0796459 -0.0695164 0)
(-0.0821954 -0.0654978 0)
(-0.0846274 -0.0613271 0)
(-0.0869143 -0.0570082 0)
(-0.0890397 -0.0525487 0)
(-0.0909927 -0.0479586 0)
(-0.0927661 -0.0432485 0)
(-0.0943542 -0.03843 0)
(-0.0957528 -0.0335145 0)
(-0.0969583 -0.0285134 0)
(-0.0979684 -0.0234377 0)
(-0.0987797 -0.0182986 0)
(-0.0993863 -0.0131094 0)
(-0.0997824 -0.00788474 0)
(-0.0999863 -0.00263458 0)
(0.0999813 -0.00377995 0)
(0.0996992 -0.0112977 0)
(0.0991416 -0.0187539 0)
(0.0982919 -0.0261287 0)
(0.0971637 -0.0334016 0)
(0.09577 -0.0405537 0)
(0.0941231 -0.0475678 0)
(0.0922383 -0.0544289 0)
(0.0901371 -0.0611249 0)
(0.0878481 -0.0676478 0)
(0.0854087 -0.0739956 0)
(0.0828666 -0.0801743 0)
(0.0802797 -0.0861997 0)
(0.0777147 -0.0920993 0)
(0.0752415 -0.0979122 0)
(0.0729243 -0.103687 0)
(0.070809 -0.109478 0)
(0.0689102 -0.115332 0)
(0.067201 -0.121284 0)
(0.0656114 -0.127349 0)
(0.0640369 -0.133517 0)
(0.0623537 -0.139756 0)
(0.060438 -0.146019 0)
(0.0581811 -0.152252 0)
(0.0554988 -0.158396 0)
(0.0523343 -0.164396 0)
(0.0486564 -0.170205 0)
(0.0444541 -0.175779 0)
(0.039732 -0.181082 0)
(0.0345048 -0.186089 0)
(0.0287936 -0.190777 0)
(0.0226228 -0.195132 0)
(0.0160179 -0.199145 0)
(0.00900522 -0.202813 0)
(0.00161092 -0.206134 0)
(-0.00613967 -0.209113 0)
(-0.0142232 -0.211756 0)
(-0.0226186 -0.21407 0)
(-0.0313059 -0.216066 0)
(-0.0402665 -0.217753 0)
(-0.0494821 -0.219142 0)
(-0.0589354 -0.220246 0)
(-0.0686091 -0.221075 0)
(-0.0784861 -0.221639 0)
(-0.0885491 -0.221949 0)
(-0.0987801 -0.222015 0)
(-0.10916 -0.221845 0)
(-0.119668 -0.221447 0)
(-0.130283 -0.220828 0)
(-0.14098 -0.219992 0)
(-0.151732 -0.218946 0)
(-0.162506 -0.217692 0)
(-0.173267 -0.216232 0)
(-0.183972 -0.214567 0)
(-0.194566 -0.212697 0)
(-0.20497 -0.210619 0)
(-0.215071 -0.208329 0)
(-0.224794 -0.205824 0)
(-0.234166 -0.203112 0)
(-0.243135 -0.200218 0)
(-0.250279 -0.197148 0)
(-0.251813 -0.193451 0)
(-0.245932 -0.188901 0)
(-0.236034 -0.183872 0)
(-0.2251 -0.178455 0)
(-0.213603 -0.172658 0)
(-0.2015 -0.166498 0)
(-0.188855 -0.160008 0)
(-0.17581 -0.153231 0)
(-0.16252 -0.146215 0)
(-0.14914 -0.139023 0)
(-0.135825 -0.131726 0)
(-0.122767 -0.12441 0)
(-0.110265 -0.117185 0)
(-0.098738 -0.110188 0)
(-0.0886554 -0.103574 0)
(-0.0804655 -0.0975023 0)
(-0.0744927 -0.0920942 0)
(-0.0708255 -0.0873872 0)
(-0.0692629 -0.083305 0)
(-0.0693798 -0.079679 0)
(-0.0706713 -0.0763128 0)
(-0.0726836 -0.0730393 0)
(-0.0750749 -0.0697442 0)
(-0.0776161 -0.0663611 0)
(-0.0801673 -0.062857 0)
(-0.0826482 -0.0592188 0)
(-0.0850141 -0.0554444 0)
(-0.0872392 -0.0515374 0)
(-0.0893078 -0.0475046 0)
(-0.0912099 -0.0433543 0)
(-0.092938 -0.0390963 0)
(-0.0944866 -0.0347405 0)
(-0.0958511 -0.0302971 0)
(-0.0970281 -0.0257763 0)
(-0.0980146 -0.0211879 0)
(-0.0988074 -0.0165422 0)
(-0.0994002 -0.0118511 0)
(-0.0997873 -0.00712781 0)
(-0.0999867 -0.00238154 0)
(0.0999813 -0.00341673 0)
(0.0997 -0.0102124 0)
(0.0991438 -0.0169528 0)
(0.0982962 -0.0236198 0)
(0.0971708 -0.030195 0)
(0.0957806 -0.0366613 0)
(0.094138 -0.043003 0)
(0.0922583 -0.0492066 0)
(0.0901629 -0.0552613 0)
(0.0878805 -0.0611598 0)
(0.0854485 -0.0669006 0)
(0.0829144 -0.0724889 0)
(0.0803363 -0.0779393 0)
(0.0777806 -0.0832766 0)
(0.0753173 -0.0885365 0)
(0.0730104 -0.0937632 0)
(0.0709062 -0.0990049 0)
(0.0690191 -0.104306 0)
(0.0673223 -0.109698 0)
(0.0657461 -0.115194 0)
(0.0641855 -0.120787 0)
(0.0625165 -0.126447 0)
(0.0606144 -0.132132 0)
(0.0583698 -0.137794 0)
(0.0556977 -0.14338 0)
(0.0525402 -0.148841 0)
(0.048865 -0.154132 0)
(0.0446602 -0.159214 0)
(0.0399292 -0.164056 0)
(0.0346859 -0.168633 0)
(0.0289506 -0.172925 0)
(0.0227467 -0.176918 0)
(0.0160995 -0.180605 0)
(0.00903433 -0.18398 0)
(0.00157694 -0.187043 0)
(-0.00624785 -0.189797 0)
(-0.0144171 -0.192246 0)
(-0.0229099 -0.194397 0)
(-0.0317066 -0.196258 0)
(-0.0407884 -0.197837 0)
(-0.050137 -0.199144 0)
(-0.0597346 -0.200188 0)
(-0.0695637 -0.200978 0)
(-0.0796063 -0.201523 0)
(-0.0898443 -0.201831 0)
(-0.100259 -0.20191 0)
(-0.110829 -0.201768 0)
(-0.121533 -0.20141 0)
(-0.132347 -0.200842 0)
(-0.143244 -0.200068 0)
(-0.154195 -0.199092 0)
(-0.165165 -0.197917 0)
(-0.176116 -0.196544 0)
(-0.187001 -0.194974 0)
(-0.197764 -0.193208 0)
(-0.208319 -0.191243 0)
(-0.218555 -0.189078 0)
(-0.228411 -0.186711 0)
(-0.237945 -0.184152 0)
(-0.247024 -0.181423 0)
(-0.253656 -0.178537 0)
(-0.254153 -0.174954 0)
(-0.247508 -0.17061 0)
(-0.237367 -0.165862 0)
(-0.226255 -0.16079 0)
(-0.214539 -0.155398 0)
(-0.2022 -0.149699 0)
(-0.189327 -0.143722 0)
(-0.17607 -0.137508 0)
(-0.162588 -0.131102 0)
(-0.149043 -0.12456 0)
(-0.135593 -0.117947 0)
(-0.122444 -0.111343 0)
(-0.109914 -0.104846 0)
(-0.098429 -0.0985783 0)
(-0.0884595 -0.0926792 0)
(-0.0804395 -0.0872853 0)
(-0.0746655 -0.082497 0)
(-0.0711885 -0.0783353 0)
(-0.0697747 -0.0747199 0)
(-0.0699825 -0.0714946 0)
(-0.0713091 -0.0684849 0)
(-0.0733137 -0.0655468 0)
(-0.0756692 -0.0625834 0)
(-0.078159 -0.0595391 0)
(-0.0806519 -0.0563865 0)
(-0.0830729 -0.053115 0)
(-0.0853802 -0.0497231 0)
(-0.0875497 -0.046214 0)
(-0.0895667 -0.0425936 0)
(-0.0914216 -0.0388694 0)
(-0.0931071 -0.0350496 0)
(-0.094618 -0.0311431 0)
(-0.0959496 -0.0271586 0)
(-0.0970983 -0.0231052 0)
(-0.0980614 -0.0189917 0)
(-0.0988355 -0.0148271 0)
(-0.0994143 -0.0106222 0)
(-0.0997923 -0.00638861 0)
(-0.099987 -0.00213445 0)
(0.0999814 -0.0030545 0)
(0.0997008 -0.00912999 0)
(0.0991461 -0.0151563 0)
(0.0983006 -0.0211172 0)
(0.097178 -0.0269964 0)
(0.0957914 -0.0327785 0)
(0.0941527 -0.0384495 0)
(0.0922777 -0.0439974 0)
(0.0901875 -0.0494124 0)
(0.0879108 -0.0546882 0)
(0.085485 -0.0598234 0)
(0.0829575 -0.0648228 0)
(0.0803861 -0.0696994 0)
(0.0778375 -0.0744755 0)
(0.0753812 -0.0791831 0)
(0.0730817 -0.0838621 0)
(0.070985 -0.0885555 0)
(0.0691058 -0.0933034 0)
(0.0674173 -0.0981345 0)
(0.0658496 -0.103061 0)
(0.0642975 -0.108075 0)
(0.0626368 -0.113153 0)
(0.0607421 -0.118257 0)
(0.0585034 -0.123342 0)
(0.0558348 -0.128362 0)
(0.0526777 -0.133273 0)
(0.0489989 -0.138036 0)
(0.0447855 -0.142614 0)
(0.0400406 -0.146981 0)
(0.0347771 -0.151112 0)
(0.0290148 -0.154991 0)
(0.0227767 -0.158604 0)
(0.0160872 -0.161944 0)
(0.00897152 -0.165007 0)
(0.0014549 -0.167791 0)
(-0.00643814 -0.170298 0)
(-0.0146849 -0.172531 0)
(-0.0232647 -0.174497 0)
(-0.0321577 -0.176202 0)
(-0.0413451 -0.177653 0)
(-0.0508085 -0.178857 0)
(-0.0605296 -0.179822 0)
(-0.0704903 -0.180556 0)
(-0.0806722 -0.181065 0)
(-0.0910562 -0.181358 0)
(-0.101622 -0.18144 0)
(-0.112348 -0.181317 0)
(-0.123212 -0.180993 0)
(-0.134186 -0.180474 0)
(-0.145244 -0.179764 0)
(-0.156354 -0.178864 0)
(-0.167478 -0.177776 0)
(-0.178577 -0.176504 0)
(-0.189602 -0.175046 0)
(-0.200493 -0.173404 0)
(-0.211162 -0.171577 0)
(-0.221494 -0.169561 0)
(-0.231447 -0.167357 0)
(-0.241097 -0.164972 0)
(-0.250224 -0.162422 0)
(-0.256311 -0.159748 0)
(-0.25585 -0.156375 0)
(-0.248571 -0.152353 0)
(-0.238255 -0.14798 0)
(-0.227018 -0.143327 0)
(-0.215137 -0.138398 0)
(-0.202618 -0.133209 0)
(-0.18957 -0.127788 0)
(-0.176151 -0.122171 0)
(-0.162526 -0.116399 0)
(-0.148858 -0.110524 0)
(-0.135311 -0.104603 0)
(-0.122103 -0.0987073 0)
(-0.109567 -0.0929251 0)
(-0.0981372 -0.0873657 0)
(-0.0882819 -0.082151 0)
(-0.0804221 -0.077399 0)
(-0.074829 -0.0731917 0)
(-0.0715215 -0.0695381 0)
(-0.0702381 -0.0663587 0)
(-0.0705249 -0.0635114 0)
(-0.0718821 -0.060843 0)
(-0.0738802 -0.05823 0)
(-0.0762051 -0.0555904 0)
(-0.0786507 -0.0528778 0)
(-0.081093 -0.0500696 0)
(-0.0834616 -0.047157 0)
(-0.0857172 -0.044139 0)
(-0.0878372 -0.0410185 0)
(-0.0898078 -0.0378007 0)
(-0.0916198 -0.0344921 0)
(-0.0932664 -0.0310998 0)
(-0.0947422 -0.0276313 0)
(-0.096043 -0.0240946 0)
(-0.0971653 -0.0204974 0)
(-0.0981062 -0.0168473 0)