/*--------------------------------*- C++ -*----------------------------------*\
  =========                 |
  \\      /  F ield         | OpenFOAM: The Open Source CFD Toolbox
   \\    /   O peration     | Website:  https://openfoam.org
    \\  /    A nd           | Version:  8
     \\/     M anipulation  |
\*---------------------------------------------------------------------------*/
FoamFile
{
    version     2.0;
    format      ascii;
    class       volScalarField;
    location    "100/fluid";
    object      CH4;
}
// * * * * * * * * * * * * * * * * * * * * * * * * * * * * * * * * * * * * * //

dimensions      [0 0 0 0 0 0 0];

internalField   nonuniform List<scalar> 
4000
(
0.999995
0.999978
0.99995
0.999903
0.999827
0.999705
0.999507
0.999194
0.9987
0.997935
0.996764
0.995006
0.992423
0.988716
0.983539
0.976527
0.96733
0.955668
0.941372
0.92439
0.904812
0.882839
0.858748
0.832875
0.805551
0.777108
0.747861
0.718097
0.688074
0.658018
0.628109
0.598513
0.569368
0.540785
0.512858
0.485658
0.459242
0.433651
0.408915
0.385053
0.362078
0.339995
0.318798
0.298481
0.279029
0.260427
0.242654
0.225689
0.209511
0.194093
0.179412
0.165443
0.15216
0.139538
0.127553
0.116179
0.105393
0.0951727
0.0854958
0.0763415
0.0676904
0.0595247
0.0518282
0.044587
0.0377899
0.0314309
0.0255753
0.020145
0.0150774
0.0104722
0.0063499
0.00290529
0.00208871
0.00147653
0.00102452
0.000696139
0.000461963
0.000298547
0.000187398
0.000114119
6.7713e-05
4.0033e-05
2.54319e-05
1.88757e-05
1.4262e-05
1.02318e-05
6.85351e-06
4.23688e-06
2.40312e-06
1.25531e-06
6.16424e-07
2.91753e-07
1.36085e-07
6.25439e-08
2.90431e-08
1.30769e-08
5.96248e-09
2.48116e-09
9.61121e-10
1.84455e-10
0.999995
0.999978
0.99995
0.999904
0.999828
0.999706
0.999509
0.999196
0.998703
0.997939
0.996772
0.99502
0.992447
0.988758
0.98361
0.976638
0.967495
0.955889
0.941638
0.924702
0.905162
0.883213
0.859131
0.833223
0.805841
0.777319
0.74797
0.718087
0.687934
0.657719
0.627652
0.597902
0.568611
0.539892
0.511841
0.484531
0.458019
0.432345
0.407538
0.38362
0.3606
0.338483
0.317263
0.296932
0.277474
0.258872
0.241107
0.224156
0.207996
0.192601
0.177946
0.164006
0.150755
0.138167
0.126216
0.114879
0.10413
0.0939478
0.084309
0.0751929
0.0665797
0.0584514
0.0507914
0.0435856
0.0368219
0.0305008
0.0246804
0.0192885
0.0142766
0.00973195
0.0056989
0.00276779
0.00197499
0.00138754
0.000957054
0.000646209
0.000425842
0.000273049
0.000169914
0.000102576
6.05281e-05
3.60727e-05
2.3937e-05
1.791e-05
1.31576e-05
9.10996e-06
5.86095e-06
3.47208e-06
1.89402e-06
9.62086e-07
4.69909e-07
2.2331e-07
1.05213e-07
4.92013e-08
2.32983e-08
1.07048e-08
5.05381e-09
2.12955e-09
8.68423e-10
1.71288e-10
0.999995
0.999978
0.99995
0.999904
0.999829
0.999706
0.99951
0.999197
0.998704
0.99794
0.996773
0.995024
0.992458
0.988781
0.983652
0.976707
0.967593
0.956022
0.941817
0.92492
0.905407
0.883467
0.859368
0.833423
0.805972
0.777356
0.747879
0.71783
0.687468
0.657046
0.626768
0.596807
0.567308
0.538391
0.510153
0.482671
0.456003
0.430191
0.405264
0.381244
0.358141
0.335958
0.314688
0.294321
0.274843
0.256233
0.238472
0.221535
0.205397
0.190034
0.175417
0.161522
0.14832
0.135786
0.123893
0.112617
0.101931
0.0918138
0.0822414
0.0731929
0.0646483
0.0565893
0.0489993
0.0418639
0.0351712
0.0289277
0.0231813
0.0178683
0.0129041
0.00836015
0.00424087
0.0024515
0.00174916
0.00122527
0.000840928
0.000564051
0.000368722
0.000234252
0.000144345
8.63919e-05
5.08862e-05
3.10264e-05
2.18495e-05
1.63355e-05
1.17391e-05
7.93173e-06
4.98345e-06
2.8948e-06
1.55922e-06
7.87933e-07
3.84015e-07
1.82418e-07
8.62037e-08
4.04105e-08
1.91332e-08
8.80081e-09
4.22299e-09
1.80471e-09
6.8471e-10
1.44245e-10
0.999995
0.999978
0.99995
0.999905
0.99983
0.999708
0.999511
0.999199
0.998708
0.997945
0.996781
0.995035
0.992474
0.988804
0.983685
0.976752
0.967656
0.956107
0.941912
0.925017
0.905491
0.883518
0.859369
0.833343
0.805775
0.77699
0.747326
0.717082
0.686524
0.655894
0.625399
0.595217
0.565499
0.53637
0.507929
0.480257
0.453414
0.427445
0.40238
0.378241
0.355038
0.332774
0.311442
0.291031
0.271524
0.252902
0.235143
0.21822
0.202109
0.186783
0.172213
0.158372
0.145231
0.132765
0.120945
0.109745
0.099141
0.0891074
0.0796215
0.0706616
0.0622076
0.0542411
0.0467462
0.0397093
0.0331206
0.0270286
0.0214219
0.0161495
0.0113132
0.00694718
0.00310178
0.00219707
0.00154794
0.00107169
0.000727217
0.000482287
0.000311672
0.000195734
0.00011932
7.09269e-05
4.20577e-05
2.68048e-05
1.96749e-05
1.45535e-05
1.02371e-05
6.74942e-06
4.13237e-06
2.3427e-06
1.23739e-06
6.18605e-07
3.00755e-07
1.43164e-07
6.77742e-08
3.19119e-08
1.51575e-08
7.01732e-09
3.18831e-09
1.43307e-09
5.65575e-10
1.08686e-10
0.999995
0.999978
0.999951
0.999905
0.99983
0.999709
0.999513
0.999202
0.998711
0.99795
0.996787
0.995044
0.992484
0.988816
0.983697
0.976764
0.967664
0.956104
0.941895
0.924977
0.905406
0.883359
0.85909
0.832926
0.805205
0.776261
0.74642
0.71598
0.685216
0.654369
0.623652
0.593247
0.56331
0.533966
0.505322
0.477459
0.450439
0.424311
0.399105
0.374844
0.351539
0.329192
0.307797
0.28734
0.267805
0.249171
0.231414
0.21451
0.198429
0.183144
0.168626
0.154847
0.141776
0.129387
0.11765
0.106538
0.0960266
0.0860896
0.0767036
0.0678465
0.0594978
0.051639
0.0442537
0.037328
0.0308504
0.024936
0.0194848
0.0143711
0.00974664
0.00567685
0.00276172
0.00194474
0.00135181
0.000924415
0.000619878
0.000406289
0.000259481
0.000161096
9.72597e-05
5.76521e-05
3.48562e-05
2.37811e-05
1.77232e-05
1.2895e-05
8.88371e-06
5.72743e-06
3.43039e-06
1.90882e-06
9.95328e-07
4.9486e-07
2.40138e-07
1.14672e-07
5.4403e-08
2.57514e-08
1.21807e-08
5.62983e-09
2.59508e-09
1.11212e-09
4.67266e-10
8.82447e-11
0.999995
0.999979
0.999951
0.999906
0.999831
0.99971
0.999515
0.999204
0.998714
0.997953
0.996791
0.995047
0.992486
0.988815
0.98369
0.976747
0.967631
0.956045
0.941789
0.924789
0.90512
0.88296
0.858572
0.832269
0.804388
0.775269
0.745238
0.714596
0.68362
0.652556
0.62162
0.590998
0.560847
0.531298
0.502458
0.474412
0.447226
0.420946
0.395607
0.371233
0.347833
0.325409
0.303955
0.283458
0.2639
0.245259
0.227511
0.210628
0.194582
0.179345
0.164885
0.151172
0.138177
0.12587
0.114223
0.103207
0.0927954
0.0829628
0.0736849
0.0649394
0.0567058
0.048966
0.0417046
0.0349097
0.0285913
0.0228203
0.0174719
0.0124351
0.00782765
0.0036582
0.00229866
0.00163155
0.00113631
0.000775467
0.000517506
0.000336899
0.000213439
0.000131419
7.88676e-05
4.68965e-05
2.92605e-05
2.10799e-05
1.57741e-05
1.13219e-05
7.66019e-06
4.83814e-06
2.83881e-06
1.55221e-06
7.99558e-07
3.95463e-07
1.91798e-07
9.18433e-08
4.37068e-08
2.0738e-08
9.86458e-09
4.55863e-09
2.19322e-09
9.26879e-10
3.87496e-10
7.42804e-11
0.999995
0.999979
0.999951
0.999906
0.999832
0.999711
0.999516
0.999205
0.998716
0.997955
0.996791
0.995045
0.99248
0.988801
0.983665
0.9767
0.967544
0.955901
0.941574
0.924495
0.904727
0.882448
0.857921
0.831462
0.803409
0.774103
0.743873
0.713024
0.681836
0.650558
0.619407
0.588575
0.55822
0.528477
0.499455
0.47124
0.443899
0.417482
0.392024
0.367547
0.344064
0.321574
0.300071
0.279543
0.259969
0.241329
0.223595
0.20674
0.190735
0.175549
0.161151
0.14751
0.134595
0.122376
0.110822
0.0999045
0.0895967
0.079872
0.0707057
0.062075
0.0539591
0.0463397
0.0392015
0.0325327
0.0264333
0.0208205
0.0155371
0.0107392
0.00646603
0.00289235
0.00205175
0.0014352
0.000987502
0.000666593
0.000440246
0.000283698
0.000177972
0.000108658
6.49825e-05
3.91163e-05
2.56813e-05
1.91063e-05
1.41688e-05
1.00033e-05
6.63985e-06
4.10947e-06
2.36573e-06
1.2739e-06
6.4969e-07
3.20357e-07
1.55444e-07
7.45314e-08
3.55205e-08
1.68733e-08
8.15254e-09
3.79989e-09
1.82871e-09
7.75522e-10
3.31367e-10
6.23176e-11
0.999995
0.999979
0.999951
0.999906
0.999832
0.999712
0.999517
0.999206
0.998716
0.997955
0.99679
0.99504
0.992468
0.988777
0.983619
0.976622
0.967424
0.955723
0.941322
0.924148
0.904267
0.881856
0.857179
0.830553
0.80232
0.772822
0.742392
0.711337
0.67994
0.648454
0.617099
0.586067
0.555521
0.525598
0.496408
0.46804
0.440562
0.414023
0.388459
0.363895
0.340341
0.317797
0.296258
0.275707
0.256128
0.237495
0.219783
0.202962
0.187003
0.171873
0.157541
0.143974
0.131141
0.11901
0.107551
0.096734
0.0865309
0.0769148
0.0678606
0.059345
0.0513465
0.0438463
0.0368279
0.0302845
0.0243568
0.0188961
0.0137564
0.00911473
0.00502076
0.00261487
0.00183108
0.00126652
0.000862596
0.000576702
0.000377336
0.000240944
0.000149855
9.08902e-05
5.43623e-05
3.34041e-05
2.32666e-05
1.74976e-05
1.2811e-05
8.89543e-06
5.79511e-06
3.51802e-06
1.98962e-06
1.0563e-06
5.34145e-07
2.62429e-07
1.27049e-07
6.09529e-08
2.91222e-08
1.38945e-08
6.72787e-09
3.13518e-09
1.51677e-09
6.39743e-10
2.68709e-10
5.04094e-11
0.999995
0.999979
0.999952
0.999907
0.999833
0.999712
0.999518
0.999207
0.998717
0.997954
0.996786
0.995031
0.99245
0.988744
0.983563
0.976532
0.967287
0.955523
0.94104
0.923766
0.903765
0.881215
0.856383
0.829588
0.801173
0.771484
0.740856
0.709601
0.678002
0.646317
0.614768
0.58355
0.552828
0.52274
0.493398
0.464893
0.437293
0.410648
0.384994
0.360357
0.336746
0.314161
0.292595
0.272033
0.252455
0.233838
0.216153
0.199372
0.183462
0.168391
0.154127
0.140636
0.127885
0.115843
0.104478
0.0937603
0.0836605
0.0741518
0.0652087
0.0568082
0.0489297
0.0415557
0.0346725
0.0282973
0.0224953
0.0171346
0.0120819
0.00748447
0.00337586
0.00224647
0.00158511
0.00109911
0.000747876
0.000498386
0.000324537
0.000206056
0.000127441
7.7041e-05
4.63058e-05
2.92787e-05
2.12857e-05
1.60379e-05
1.16123e-05
7.94595e-06
5.09038e-06
3.03757e-06
1.69174e-06
8.87485e-07
4.46234e-07
2.18573e-07
1.05663e-07
5.06984e-08
2.42813e-08
1.15986e-08
5.60698e-09
2.61725e-09
1.27351e-09
5.34405e-10
2.2357e-10
4.1912e-11
0.999995
0.999979
0.999952
0.999907
0.999833
0.999713
0.999518
0.999207
0.998716
0.997951
0.99678
0.99502
0.992429
0.988707
0.983501
0.976434
0.967139
0.95531
0.940742
0.923365
0.903242
0.880553
0.855566
0.828602
0.800009
0.770134
0.739315
0.707867
0.676078
0.644206
0.612476
0.581086
0.550203
0.519966
0.490489
0.461862
0.434156
0.40742
0.381691
0.356994
0.333338
0.310722
0.28914
0.268575
0.249007
0.230411
0.212759
0.19602
0.180162
0.165152
0.150956
0.137541
0.124871
0.112916
0.101643
0.09102
0.0810192
0.0716124
0.0627739
0.0544802
0.0467106
0.0394473
0.0326765
0.0265208
0.0208689
0.0155415
0.0107183
0.00643674
0.00289463
0.00204727
0.00142923
0.000982657
0.000663763
0.00043936
0.000284262
0.000179395
0.000110421
6.67076e-05
4.05628e-05
2.67205e-05
1.9929e-05
1.49112e-05
1.06561e-05
7.18056e-06
4.52395e-06
2.65577e-06
1.45836e-06
7.56832e-07
3.78138e-07
1.8451e-07
8.89542e-08
4.26507e-08
2.03743e-08
9.71765e-09
4.70161e-09
2.1969e-09
1.06836e-09
4.48812e-10
1.87238e-10
3.51243e-11
0.999995
0.999979
0.999952
0.999907
0.999833
0.999713
0.999518
0.999207
0.998715
0.997949
0.996774
0.995007
0.992406
0.988667
0.983437
0.976334
0.966989
0.955093
0.940441
0.922962
0.902719
0.879893
0.854756
0.82763
0.798864
0.768812
0.737812
0.706183
0.674215
0.642169
0.610273
0.578727
0.547698
0.517327
0.48773
0.458997
0.431199
0.404387
0.378596
0.353851
0.33016
0.307524
0.285934
0.265373
0.24582
0.22725
0.209633
0.192939
0.177135
0.162185
0.148057
0.134714
0.122124
0.110251
0.099065
0.0885331
0.0786257
0.0693148
0.0605739
0.0523793
0.0447094
0.0375461
0.0308815
0.0248695
0.0193353
0.0141229
0.00942872
0.00530186
0.00267046
0.00187348
0.00129926
0.000888073
0.000596585
0.000392796
0.000252824
0.000158803
9.74385e-05
5.89688e-05
3.64224e-05
2.50674e-05
1.89239e-05
1.40286e-05
9.89538e-06
6.56881e-06
4.07342e-06
2.35558e-06
1.27735e-06
6.56752e-07
3.26049e-07
1.58492e-07
7.61577e-08
3.63824e-08
1.73144e-08
8.22589e-09
3.91705e-09
1.8229e-09
8.76889e-10
3.71071e-10
1.5195e-10
2.88189e-11
0.999995
0.999979
0.999952
0.999907
0.999833
0.999713
0.999518
0.999207
0.998714
0.997946
0.996767
0.994994
0.992383
0.988628
0.983374
0.976236
0.966843
0.954882
0.94015
0.922572
0.902214
0.879258
0.853977
0.826697
0.79777
0.767551
0.736382
0.704585
0.672453
0.640247
0.6082
0.576512
0.545353
0.514864
0.485161
0.456337
0.428461
0.401585
0.375743
0.35096
0.327245
0.304595
0.283003
0.262451
0.242918
0.224376
0.206797
0.190148
0.174396
0.159506
0.145442
0.132169
0.119653
0.107859
0.0967548
0.0863079
0.0764882
0.0672672
0.0586184
0.0505178
0.0429436
0.0358772
0.0293206
0.0234054
0.0179426
0.0127719
0.00806835
0.00385564
0.002347
0.00166669
0.00116387
0.000798345
0.000536988
0.000353466
0.000227237
0.000142532
8.7439e-05
5.31617e-05
3.34559e-05
2.39043e-05
1.81184e-05
1.33104e-05
9.27674e-06
6.07383e-06
3.71268e-06
2.11856e-06
1.13649e-06
5.79862e-07
2.86247e-07
1.38724e-07
6.65237e-08
3.17136e-08
1.50767e-08
7.15291e-09
3.38608e-09
1.58057e-09
7.54242e-10
3.26987e-10
1.20108e-10
2.49085e-11
0.999995
0.999979
0.999952
0.999907
0.999834
0.999713
0.999518
0.999206
0.998713
0.997943
0.996762
0.994983
0.992362
0.988593
0.983316
0.976145
0.966706
0.954686
0.939877
0.922208
0.901742
0.878665
0.85325
0.825827
0.796751
0.766378
0.735055
0.703104
0.670822
0.638473
0.606291
0.574476
0.543201
0.512609
0.482815
0.453913
0.425971
0.399041
0.373158
0.348346
0.324613
0.301956
0.280367
0.259828
0.240316
0.221804
0.204262
0.187657
0.171955
0.15712
0.143117
0.12991
0.117463
0.105741
0.0947125
0.0843438
0.0746048
0.065467
0.0569041
0.0488925
0.0414117
0.0344453
0.0280164
0.0221883
0.0168077
0.0117498
0.00718962
0.00319919
0.0022198
0.00156276
0.00108486
0.000740869
0.000496546
0.000325839
0.000208926
0.000130809
8.02743e-05
4.91064e-05
3.15524e-05
2.3123e-05
1.7503e-05
1.27431e-05
8.78188e-06
5.67714e-06
3.42533e-06
1.93169e-06
1.02663e-06
5.20462e-07
2.56083e-07
1.23979e-07
5.94358e-08
2.83472e-08
1.35128e-08
6.43628e-09
3.05968e-09
1.44163e-09
6.59097e-10
3.03347e-10
1.10821e-10
2.31802e-11
0.999995
0.999979
0.999952
0.999907
0.999834
0.999714
0.999519
0.999206
0.998712
0.997941
0.996757
0.994974
0.992345
0.988562
0.983265
0.976064
0.966585
0.95451
0.939633
0.921879
0.901316
0.878128
0.852593
0.82504
0.795828
0.765317
0.733854
0.701766
0.66935
0.636874
0.604571
0.572646
0.54127
0.510588
0.480716
0.451747
0.42375
0.396776
0.370861
0.346026
0.32228
0.299621
0.278038
0.257513
0.238023
0.21954
0.202034
0.18547
0.169815
0.155031
0.141084
0.127935
0.11555
0.103894
0.0929328
0.0826337
0.0729663
0.0639018
0.0554138
0.0474787
0.0400758
0.0331881
0.0269407
0.0212254
0.0158359
0.0109511
0.00659948
0.00295002
0.00209796
0.00147355
0.00102049
0.000695337
0.000465076
0.000304644
0.000195072
0.00012209
7.509e-05
4.63467e-05
3.04879e-05
2.27223e-05
1.7114e-05
1.23436e-05
8.41279e-06
5.3729e-06
3.20266e-06
1.78668e-06
9.41517e-07
4.74539e-07
2.32986e-07
1.12784e-07
5.41515e-08
2.59098e-08
1.23967e-08
5.91766e-09
2.81561e-09
1.35589e-09
6.19826e-10
2.86223e-10
1.04117e-10
2.14302e-11
0.999995
0.999979
0.999952
0.999908
0.999834
0.999714
0.999519
0.999207
0.998712
0.997939
0.996753
0.994966
0.992331
0.988537
0.983222
0.975997
0.966482
0.95436
0.939422
0.921595
0.900946
0.877661
0.852018
0.824351
0.795019
0.764385
0.732799
0.70059
0.668058
0.63547
0.603063
0.571042
0.53958
0.508821
0.478883
0.449859
0.421816
0.394806
0.368865
0.344013
0.320259
0.2976
0.276025
0.255514
0.236046
0.21759
0.200116
0.18359
0.167976
0.153238
0.139339
0.126243
0.113912
0.102313
0.0914097
0.0811706
0.0715645
0.0625626
0.0541383
0.0462682
0.0389318
0.0321223
0.025998
0.0203582
0.015045
0.0102591
0.00603236
0.00282114
0.00199996
0.00140142
0.000968774
0.000659184
0.000440448
0.000288333
0.000184621
0.000115682
7.14329e-05
4.45772e-05
3.00612e-05
2.26073e-05
1.69202e-05
1.20906e-05
8.15434e-06
5.14919e-06
3.03523e-06
1.67665e-06
8.76662e-07
4.39429e-07
2.15227e-07
1.04088e-07
4.99824e-08
2.39311e-08
1.14491e-08
5.46782e-09
2.60651e-09
1.26269e-09
5.76221e-10
2.65348e-10
9.63237e-11
1.97484e-11
0.999995
0.999979
0.999952
0.999908
0.999834
0.999714
0.999519
0.999207
0.998712
0.997939
0.996751
0.994961
0.992321
0.988519
0.983192
0.975945
0.9664
0.954239
0.939251
0.921362
0.900639
0.877271
0.851536
0.823771
0.794336
0.763597
0.731906
0.699594
0.666962
0.634279
0.601784
0.569683
0.538148
0.507326
0.477333
0.448262
0.420183
0.393144
0.367182
0.342318
0.318559
0.295901
0.274334
0.253837
0.234388
0.215956
0.198511
0.182017
0.166439
0.15174
0.137883
0.12483
0.112546
0.100994
0.0901392
0.0799499
0.0703944
0.0614437
0.0530711
0.0452529
0.0379687
0.0312241
0.025153
0.0195598
0.0142846
0.00952805
0.00531487
0.00265681
0.00188785
0.00132575
0.000918323
0.000626046
0.000419082
0.000274877
0.000176407
0.000110893
6.88658e-05
4.34694e-05
2.99539e-05
2.26436e-05
1.68529e-05
1.19486e-05
7.98344e-06
4.99117e-06
2.91319e-06
1.59516e-06
8.28129e-07
4.12873e-07
2.01579e-07
9.72572e-08
4.66149e-08
2.22804e-08
1.06404e-08
5.07836e-09
2.41648e-09
1.1655e-09
5.30032e-10
2.42762e-10
8.79717e-11
1.78495e-11
0.999995
0.999979
0.999952
0.999908
0.999835
0.999715
0.99952
0.999207
0.998712
0.997939
0.996751
0.994959
0.992315
0.988507
0.98317
0.975909
0.966342
0.95415
0.939121
0.921183
0.900401
0.876965
0.851155
0.823309
0.793789
0.762964
0.731186
0.698789
0.666074
0.633314
0.600748
0.56858
0.536987
0.506114
0.476077
0.44697
0.418861
0.3918
0.365822
0.340949
0.317186
0.294531
0.272971
0.252486
0.233053
0.214642
0.19722
0.180753
0.165205
0.150537
0.136714
0.123697
0.111449
0.0999352
0.0891198
0.07897
0.0694543
0.0605435
0.0522109
0.0444323
0.0371868
0.0304671
0.0244243
0.018854
0.0135896
0.0088263
0.00457778
0.00247866
0.00177401
0.00125347
0.000872893
0.000597895
0.00040197
0.000264749
0.000170641
0.000107822
6.74502e-05
4.30844e-05
3.02648e-05
2.28893e-05
1.69264e-05
1.19099e-05
7.89099e-06
4.88932e-06
2.82903e-06
1.5371e-06
7.92844e-07
3.93217e-07
1.91285e-07
9.19979e-08
4.39671e-08
2.09591e-08
9.98762e-09
4.75777e-09
2.25772e-09
1.08563e-09
4.91978e-10
2.24041e-10
8.10716e-11
1.62505e-11
0.999995
0.999979
0.999952
0.999908
0.999835
0.999715
0.99952
0.999208
0.998713
0.99794
0.996752
0.994959
0.992313
0.988501
0.983158
0.975887
0.966306
0.954093
0.939036
0.921059
0.900232
0.876744
0.850876
0.822968
0.793383
0.76249
0.730645
0.698182
0.665404
0.632585
0.599963
0.567746
0.536108
0.505196
0.475126
0.445991
0.417859
0.390781
0.364792
0.339912
0.316147
0.293494
0.27194
0.251465
0.232044
0.213649
0.196245
0.179799
0.164274
0.149631
0.135833
0.122843
0.110624
0.0991388
0.088353
0.078233
0.0687472
0.0598661
0.0515624
0.0438117
0.0365925
0.0298868
0.0238677
0.0183162
0.0130628
0.00830033
0.00404768
0.00235899
0.00169632
0.00120422
0.00084248
0.000579682
0.000391487
0.000259035
0.000167781
0.000106604
6.71487e-05
4.33085e-05
3.08129e-05
2.32715e-05
1.7106e-05
1.19522e-05
7.85998e-06
4.83222e-06
2.77508e-06
1.49772e-06
7.68116e-07
3.79179e-07
1.83772e-07
8.80863e-08
4.19632e-08
1.99445e-08
9.47822e-09
4.50455e-09
2.13177e-09
1.0221e-09
4.62296e-10
2.09532e-10
7.57792e-11
1.50154e-11
0.999995
0.999979
0.999953
0.999908
0.999835
0.999715
0.999521
0.999209
0.998714
0.997941
0.996753
0.994961
0.992314
0.988501
0.983154
0.975878
0.966287
0.954061
0.938986
0.920987
0.900131
0.876608
0.850701
0.822749
0.793119
0.762179
0.730288
0.697779
0.664957
0.632096
0.599437
0.567185
0.535518
0.50458
0.474487
0.445333
0.417186
0.390096
0.364099
0.339214
0.315448
0.292796
0.271246
0.250778
0.231366
0.212981
0.19559
0.179158
0.163648
0.149022
0.135242
0.122271
0.110071
0.0986053
0.0878396
0.0777401
0.0682749
0.0594144
0.051131
0.0434002
0.0362003
0.0295133
0.0235059
0.0179719
0.0127341
0.00798584
0.00376436
0.0023065
0.00166159
0.00118243
0.000829613
0.000572666
0.000388107
0.000257779
0.000167668
0.000107043
6.78041e-05
4.40079e-05
3.14626e-05
2.36982e-05
1.73267e-05
1.20351e-05
7.86521e-06
4.80545e-06
2.74324e-06
1.47251e-06
7.51573e-07
3.69619e-07
1.78514e-07
8.52819e-08
4.04929e-08
1.91838e-08
9.08874e-09
4.30694e-09
2.03295e-09
9.71607e-10
4.39013e-10
1.97954e-10
7.16398e-11
1.40539e-11
0.999995
0.999979
0.999953
0.999908
0.999835
0.999716
0.999521
0.99921
0.998715
0.997943
0.996755
0.994963
0.992316
0.988503
0.983155
0.975877
0.966282
0.95405
0.938967
0.920956
0.900086
0.876546
0.850619
0.822646
0.792993
0.76203
0.730114
0.697582
0.664738
0.631856
0.599177
0.566908
0.535226
0.504274
0.47417
0.445006
0.416849
0.389753
0.363751
0.338864
0.315096
0.292445
0.270897
0.250432
0.231025
0.212646
0.195261
0.178836
0.163334
0.148716
0.134945
0.121983
0.109793
0.0983377
0.0875824
0.0774935
0.0680391
0.0591894
0.0509171
0.0431975
0.0360089
0.0293338
0.0233284
0.0178074
0.0125825
0.00784777
0.00365029
0.00229166
0.00165279
0.00117783
0.00082779
0.000572553
0.000388931
0.000259013
0.000168981
0.000108248
6.88176e-05
4.48037e-05
3.2026e-05
2.40298e-05
1.74939e-05
1.21021e-05
7.87797e-06
4.79501e-06
2.72753e-06
1.45928e-06
7.42579e-07
3.643e-07
1.75523e-07
8.36262e-08
3.95897e-08
1.86981e-08
8.8316e-09
4.1726e-09
1.9646e-09
9.35783e-10
4.22607e-10
1.89644e-10
6.87211e-11
1.33351e-11
0.999995
0.999979
0.999953
0.999908
0.999835
0.999716
0.999521
0.99921
0.998715
0.997943
0.996755
0.994963
0.992316
0.988503
0.983155
0.975876
0.966282
0.95405
0.938966
0.920955
0.900084
0.876544
0.850617
0.822644
0.79299
0.762027
0.730111
0.697579
0.664734
0.631852
0.599173
0.566905
0.535222
0.50427
0.474166
0.445001
0.416845
0.389748
0.363747
0.338859
0.315092
0.292441
0.270893
0.250428
0.231021
0.212642
0.195257
0.178832
0.16333
0.148713
0.134942
0.12198
0.10979
0.0983346
0.0875795
0.0774908
0.0680367
0.0591873
0.0509152
0.0431958
0.0360075
0.0293323
0.0233266
0.0178057
0.0125808
0.00784593
0.00364953
0.00229173
0.00165262
0.00117744
0.000827308
0.000572104
0.000388572
0.000258756
0.000168812
0.000108144
6.87573e-05
4.47705e-05
3.20078e-05
2.40184e-05
1.74863e-05
1.2097e-05
7.87462e-06
4.79288e-06
2.72621e-06
1.45841e-06
7.4194e-07
3.63758e-07
1.75044e-07
8.32524e-08
3.93276e-08
1.85261e-08
8.72396e-09
4.10741e-09
1.92885e-09
9.14148e-10
4.12717e-10
1.83844e-10
6.68575e-11
1.27022e-11
0.999995
0.999979
0.999953
0.999908
0.999835
0.999715
0.999521
0.999209
0.998714
0.997941
0.996753
0.99496
0.992314
0.9885
0.983153
0.975876
0.966286
0.954059
0.938983
0.920984
0.900127
0.876603
0.850695
0.822743
0.793112
0.762172
0.73028
0.69777
0.664948
0.632087
0.599427
0.567175
0.535507
0.504568
0.474475
0.44532
0.417173
0.390083
0.364085
0.339201
0.315434
0.292783
0.271233
0.250765
0.231353
0.212969
0.195578
0.179147
0.163637
0.149011
0.135232
0.122261
0.110061
0.0985958
0.0878305
0.0777315
0.0682669
0.059407
0.0511243
0.0433941
0.0361948
0.0295083
0.0235004
0.0179665
0.0127286
0.00798024
0.00376148
0.00230647
0.00166128
0.00118172
0.000828732
0.00057184
0.000387452
0.000257316
0.000167369
0.000106862
6.77007e-05
4.39514e-05
3.143e-05
2.36746e-05
1.73091e-05
1.20223e-05
7.85628e-06
4.7996e-06
2.73954e-06
1.4701e-06
7.4983e-07
3.682e-07
1.77336e-07
8.43538e-08
3.9832e-08
1.87411e-08
8.80435e-09
4.13357e-09
1.93685e-09
9.07561e-10
4.11343e-10
1.79583e-10
6.59511e-11
1.22057e-11
0.999995
0.999979
0.999952
0.999908
0.999835
0.999715
0.99952
0.999208
0.998713
0.99794
0.996751
0.994959
0.992313
0.988501
0.983157
0.975885
0.966303
0.954089
0.939031
0.921053
0.900224
0.876734
0.850865
0.822955
0.793369
0.762475
0.73063
0.698166
0.665387
0.632567
0.599945
0.567726
0.536088
0.505175
0.475105
0.445969
0.417837
0.390759
0.36477
0.339889
0.316125
0.293472
0.271918
0.251443
0.232023
0.213628
0.196225
0.179779
0.164254
0.149612
0.135815
0.122826
0.110607
0.099123
0.0883378
0.0782185
0.0687335
0.059853
0.05155
0.0437998
0.036581
0.029876
0.0238578
0.0183069
0.013054
0.00829214
0.0040419
0.00235823
0.00169579
0.00120351
0.000841631
0.000578873
0.000390826
0.000258554
0.000167458
0.000106404
6.70331e-05
4.32453e-05
3.07772e-05
2.32433e-05
1.70825e-05
1.19335e-05
7.84619e-06
4.82306e-06
2.7692e-06
1.49398e-06
7.65513e-07
3.77266e-07
1.82228e-07
8.69053e-08
4.11312e-08
1.93906e-08
9.12733e-09
4.29446e-09
2.01884e-09
9.39224e-10
4.37147e-10
1.86181e-10
7.18965e-11
1.32805e-11
0.999995
0.999979
0.999952
0.999908
0.999835
0.999715
0.99952
0.999207
0.998712
0.997939
0.996751
0.994959
0.992314
0.988506
0.983168
0.975906
0.966339
0.954145
0.939114
0.921172
0.900388
0.87695
0.851138
0.82329
0.793769
0.762942
0.731164
0.698765
0.66605
0.633289
0.600721
0.568553
0.536959
0.506084
0.476047
0.446939
0.418829
0.391768
0.36579
0.340917
0.317155
0.2945
0.27294
0.252456
0.233023
0.214613
0.197192
0.180726
0.165178
0.150512
0.13669
0.123673
0.111427
0.0999137
0.0890993
0.0789504
0.0694357
0.0605258
0.0521939
0.0444161
0.0371711
0.0304522
0.0244099
0.018841
0.0135787
0.00881743
0.00456892
0.00247646
0.00177299
0.00125287
0.000872407
0.000597466
0.000401607
0.000264461
0.000170428
0.000107673
6.73525e-05
4.30267e-05
3.02384e-05
2.28656e-05
1.69027e-05
1.18888e-05
7.87479e-06
4.87778e-06
2.82167e-06
1.53265e-06
7.90114e-07
3.91453e-07
1.90057e-07
9.11227e-08
4.33682e-08
2.05594e-08
9.72796e-09
4.6e-09
2.19437e-09
1.01683e-09
4.80221e-10
2.01923e-10
8.00221e-11
1.49542e-11
0.999995
0.999979
0.999952
0.999908
0.999834
0.999714
0.999519
0.999207
0.998712
0.997939
0.996751
0.994961
0.99232
0.988518
0.983189
0.975941
0.966394
0.954231
0.93924
0.921348
0.900622
0.877251
0.851514
0.823746
0.79431
0.763569
0.731877
0.699563
0.666929
0.634246
0.60175
0.569647
0.538111
0.507287
0.477293
0.448222
0.420142
0.393103
0.367141
0.342277
0.318518
0.295861
0.274294
0.253799
0.23435
0.215919
0.198475
0.181982
0.166406
0.151708
0.137852
0.124801
0.112517
0.100966
0.0901129
0.0799246
0.07037
0.06142
0.0530481
0.0452305
0.0379474
0.0312055
0.0251361
0.0195456
0.0142742
0.00952065
0.0053048
0.00265294
0.00188586
0.00132471
0.000917776
0.000625746
0.000418902
0.000274756
0.000176317
0.000110823
6.88114e-05
4.34308e-05
2.9935e-05
2.26234e-05
1.6828e-05
1.19252e-05
7.96428e-06
4.97756e-06
2.90461e-06
1.59025e-06
8.25568e-07
4.11653e-07
2.01033e-07
9.69796e-08
4.64577e-08
2.21838e-08
1.05771e-08
5.02311e-09
2.42142e-09
1.11983e-09
5.35763e-10
2.23277e-10
9.03967e-11
1.68674e-11
0.999995
0.999979
0.999952
0.999908
0.999834
0.999714
0.999519
0.999206
0.998712
0.997939
0.996753
0.994966
0.99233
0.988535
0.983219
0.975992
0.966474
0.95435
0.939409
0.921578
0.900925
0.877636
0.85199
0.824319
0.794985
0.764349
0.732761
0.700551
0.668017
0.635427
0.603019
0.570997
0.539534
0.508774
0.478835
0.449809
0.421766
0.394755
0.368814
0.343963
0.32021
0.297551
0.275976
0.255467
0.236
0.217545
0.200073
0.183548
0.167936
0.153199
0.139302
0.126207
0.113878
0.10228
0.0913787
0.081141
0.0715362
0.0625354
0.0541121
0.0462429
0.038908
0.0321022
0.0259806
0.0203435
0.0150344
0.0102522
0.00602294
0.0028167
0.00199792
0.0014003
0.000968178
0.000658832
0.000440201
0.000288136
0.000184458
0.000115551
7.1334e-05
4.45079e-05
3.00229e-05
2.25776e-05
1.68896e-05
1.20627e-05
8.13225e-06
5.13368e-06
3.02547e-06
1.67127e-06
8.74293e-07
4.389e-07
2.15536e-07
1.04624e-07
5.04004e-08
2.41941e-08
1.16308e-08
5.53523e-09
2.68891e-09
1.24142e-09
5.98337e-10
2.47837e-10
1.00571e-10
1.88775e-11
0.999995
0.999979
0.999952
0.999907
0.999834
0.999714
0.999519
0.999206
0.998712
0.99794
0.996756
0.994973
0.992343
0.988559
0.983261
0.976058
0.966576
0.954498
0.939616
0.921858
0.90129
0.878098
0.852558
0.825002
0.795786
0.765272
0.733807
0.701717
0.669299
0.636822
0.604518
0.572591
0.541214
0.510531
0.480658
0.451688
0.42369
0.396716
0.370801
0.345967
0.322221
0.299563
0.277981
0.257458
0.237969
0.219488
0.201983
0.185421
0.169768
0.154986
0.14104
0.127894
0.115511
0.103857
0.0928978
0.0826007
0.0729353
0.0638727
0.0553866
0.0474531
0.0400518
0.0331661
0.0269245
0.02121
0.0158236
0.0109424
0.00659104
0.00294729
0.00209705
0.00147168
0.00101859
0.00069377
0.00046391
0.000303825
0.000194519
0.000121728
7.48602e-05
4.62084e-05
3.04178e-05
2.26797e-05
1.70774e-05
1.23126e-05
8.38883e-06
5.35592e-06
3.19186e-06
1.78087e-06
9.39341e-07
4.74714e-07
2.34513e-07
1.14329e-07
5.52644e-08
2.65943e-08
1.28441e-08
6.11296e-09
2.97709e-09
1.37382e-09
6.57973e-10
2.7343e-10
1.07924e-10
2.05613e-11
0.999995
0.999979
0.999952
0.999907
0.999834
0.999713
0.999518
0.999206
0.998713
0.997943
0.996761
0.994983
0.992361
0.98859
0.983311
0.976138
0.966696
0.954672
0.939858
0.922183
0.901712
0.878629
0.853209
0.825781
0.7967
0.766324
0.734998
0.703045
0.670761
0.638411
0.606227
0.574412
0.543135
0.512542
0.482747
0.453844
0.425902
0.398971
0.373089
0.348278
0.324545
0.30189
0.280302
0.259764
0.240254
0.221744
0.204204
0.187601
0.171901
0.157069
0.143068
0.129863
0.117418
0.105699
0.094673
0.0843067
0.0745701
0.0654347
0.0568742
0.0488646
0.0413853
0.0344192
0.0279908
0.0221665
0.0167884
0.0117329
0.00717591
0.00319604
0.0022212
0.00156231
0.00108365
0.000739534
0.000495381
0.000324935
0.000208272
0.00013036
7.99803e-05
4.89235e-05
3.14519e-05
2.30688e-05
1.74622e-05
1.27108e-05
8.75725e-06
5.6596e-06
3.41414e-06
1.92585e-06
1.02487e-06
5.21443e-07
2.58952e-07
1.26593e-07
6.12937e-08
2.94778e-08
1.42298e-08
6.75352e-09
3.29139e-09
1.52951e-09
6.99013e-10
3.0531e-10
1.17041e-10
2.2778e-11
0.999995
0.999979
0.999952
0.999907
0.999833
0.999713
0.999518
0.999207
0.998714
0.997945
0.996767
0.994993
0.992381
0.988625
0.983369
0.976228
0.966831
0.954866
0.940128
0.922544
0.902179
0.879216
0.853928
0.826642
0.79771
0.767487
0.736315
0.704515
0.672381
0.640174
0.608126
0.576437
0.545276
0.514786
0.485083
0.456259
0.428383
0.401506
0.375665
0.350882
0.327168
0.30452
0.282929
0.262379
0.242848
0.224309
0.206732
0.190085
0.174336
0.159448
0.145387
0.132117
0.119603
0.107812
0.0967105
0.0862663
0.0764492
0.0672309
0.0585847
0.0504866
0.0429147
0.0358503
0.0292959
0.0233833
0.0179223
0.0127532
0.00805179
0.00384516
0.00234669
0.00166611
0.00116314
0.00079762
0.000536351
0.000352946
0.000226836
0.000142236
8.72315e-05
5.30251e-05
3.33799e-05
2.38693e-05
1.80895e-05
1.32838e-05
9.25478e-06
6.05761e-06
3.7024e-06
2.11365e-06
1.13583e-06
5.8197e-07
2.90154e-07
1.42033e-07
6.87293e-08
3.29566e-08
1.58203e-08
7.50513e-09
3.54922e-09
1.70961e-09
7.72962e-10
3.51454e-10
1.27728e-10
2.7128e-11
0.999995
0.999979
0.999952
0.999907
0.999833
0.999713
0.999518
0.999207
0.998715
0.997948
0.996773
0.995006
0.992403
0.988663
0.983431
0.976325
0.966975
0.955074
0.940416
0.92293
0.902679
0.879845
0.8547
0.827566
0.798795
0.768738
0.737734
0.706102
0.674132
0.642085
0.610188
0.57864
0.54761
0.517239
0.487641
0.458908
0.431111
0.404298
0.378508
0.353764
0.330075
0.30744
0.285851