/*--------------------------------*- C++ -*----------------------------------*\
  =========                 |
  \\      /  F ield         | OpenFOAM: The Open Source CFD Toolbox
   \\    /   O peration     | Website:  https://openfoam.org
    \\  /    A nd           | Version:  8
     \\/     M anipulation  |
\*---------------------------------------------------------------------------*/
FoamFile
{
    version     2.0;
    format      ascii;
    class       volScalarField;
    location    "100/fluid";
    object      CO2;
}
// * * * * * * * * * * * * * * * * * * * * * * * * * * * * * * * * * * * * * //

dimensions      [0 0 0 0 0 0 0];

internalField   nonuniform List<scalar> 
4000
(
4.56007e-07
1.99058e-06
4.56158e-06
8.84868e-06
1.59585e-05
2.76723e-05
4.68175e-05
7.78116e-05
0.00012742
0.000205757
0.000327504
0.000513227
0.000790505
0.0011944
0.00176667
0.00255307
0.0035989
0.00494303
0.0066126
0.00861946
0.0109595
0.0136145
0.0165554
0.0197461
0.0231473
0.026719
0.0304222
0.0342203
0.0380799
0.0419707
0.0458712
0.0497582
0.0536114
0.057414
0.061152
0.0648138
0.0683905
0.0718748
0.0752615
0.0785468
0.0817288
0.0848071
0.0877817
0.0906535
0.0934237
0.0960938
0.0986656
0.101141
0.103522
0.105811
0.108008
0.110117
0.112139
0.114074
0.115923
0.117686
0.119363
0.120951
0.122447
0.123848
0.125146
0.126333
0.127395
0.128318
0.129079
0.129649
0.129987
0.13005
0.129771
0.129065
0.127825
0.125549
0.116171
0.106626
0.0970328
0.087497
0.0781065
0.0689383
0.0600613
0.0515401
0.0434375
0.0358176
0.0287857
0.0223436
0.0166259
0.0117274
0.00774074
0.00472439
0.00264933
0.00136984
0.000666451
0.000312812
0.000144783
6.60642e-05
3.04581e-05
1.36269e-05
6.17304e-06
2.55638e-06
9.86221e-07
1.8936e-07
4.57602e-07
1.9978e-06
4.57938e-06
8.88671e-06
1.60349e-05
2.78239e-05
4.70973e-05
7.82974e-05
0.000128221
0.000207002
0.00032933
0.000515743
0.000793733
0.00119821
0.00177081
0.00255694
0.00360213
0.00494494
0.00661304
0.00861887
0.010959
0.0136158
0.0165607
0.019758
0.0231684
0.0267518
0.0304699
0.034285
0.0381621
0.0420793
0.0460035
0.0499114
0.0537831
0.0576018
0.0613537
0.0650273
0.0686137
0.0721059
0.0754986
0.0787882
0.0819732
0.0850532
0.0880286
0.0909003
0.0936695
0.0963379
0.0989074
0.10138
0.103758
0.106042
0.108236
0.110341
0.112358
0.114288
0.116133
0.117891
0.119562
0.121145
0.122635
0.12403
0.125322
0.126501
0.127557
0.128472
0.129225
0.129785
0.13011
0.130154
0.129837
0.129047
0.127612
0.123884
0.114423
0.104788
0.0951126
0.0855021
0.0760458
0.0668216
0.0579005
0.0493508
0.041241
0.0336442
0.0266456
0.0203129
0.0147661
0.0101108
0.00643862
0.00377881
0.00204396
0.00103042
0.000499937
0.000236155
0.00011062
5.1448e-05
2.42243e-05
1.10732e-05
5.19848e-06
2.18353e-06
8.8584e-07
1.74914e-07
4.61742e-07
2.01647e-06
4.62457e-06
8.97972e-06
1.62105e-05
2.81297e-05
4.76222e-05
7.91669e-05
0.000129619
0.000209166
0.00033256
0.000520403
0.000800251
0.00120701
0.00178197
0.00257056
0.00361712
0.00496095
0.00663095
0.00863953
0.0109837
0.0136463
0.0165993
0.0198081
0.0232329
0.026831
0.0305707
0.0344152
0.0383313
0.0422801
0.0462347
0.0501718
0.0540711
0.0579155
0.0616908
0.0653855
0.0689905
0.0724986
0.0759045
0.0792048
0.0823982
0.0854847
0.0884645
0.0913389
0.0941093
0.0967773
0.0993452
0.101815
0.104189
0.106469
0.108657
0.110756
0.112766
0.114689
0.116525
0.118274
0.119936
0.121508
0.122988
0.12437
0.125647
0.126811
0.127848
0.128742
0.129472
0.130008
0.130314
0.130356
0.130084
0.129442
0.128373
0.1214
0.111689
0.101886
0.0920968
0.0824161
0.0729273
0.0637062
0.0548249
0.0463541
0.0383664
0.0309673
0.0241821
0.0181413
0.0129444
0.00868391
0.00541878
0.00312683
0.00167323
0.000840106
0.000406833
0.000192056
9.01995e-05
4.20389e-05
1.97853e-05
9.05282e-06
4.31891e-06
1.83778e-06
6.9604e-07
1.45923e-07
4.65628e-07
2.03362e-06
4.66464e-06
9.05925e-06
1.63565e-05
2.83843e-05
4.80399e-05
7.98424e-05
0.000130662
0.000210757
0.000334902
0.000523773
0.000805002
0.00121361
0.00179107
0.00258276
0.00363386
0.00498392
0.00665999
0.00867598
0.0110302
0.0137051
0.0166706
0.0198984
0.0233505
0.0269884
0.0307644
0.0346412
0.0385843
0.0425622
0.0465468
0.0505139
0.0544426
0.058315
0.0621166
0.0658354
0.0694619
0.0729888
0.0764106
0.0797244
0.082929
0.0860242
0.0890106
0.0918893
0.0946621
0.0973307
0.0998974
0.102365
0.104734
0.107009
0.109191
0.111282
0.113283
0.115197
0.117022
0.11876
0.120409
0.121967
0.12343
0.124794
0.12605
0.127187
0.128192
0.129044
0.129718
0.130176
0.130377
0.13027
0.129785
0.128852
0.127419
0.11793
0.108137
0.0982729
0.0884545
0.07878
0.069335
0.0601972
0.0514397
0.0431348
0.0353561
0.0282131
0.0217249
0.0160257
0.0112059
0.00734341
0.00446819
0.0025169
0.00132066
0.000655856
0.000316751
0.00014981
7.04729e-05
3.29849e-05
1.55717e-05
7.16992e-06
3.23956e-06
1.44943e-06
5.6995e-07
1.09567e-07
4.69556e-07
2.05101e-06
4.7057e-06
9.14259e-06
1.65157e-05
2.8677e-05
4.85562e-05
8.0713e-05
0.000132068
0.000212979
0.000338406
0.000529156
0.000812827
0.00122428
0.00180502
0.00260056
0.00365741
0.00501474
0.00670061
0.00872691
0.0110964
0.0137939
0.0167947
0.0200561
0.0235388
0.0272024
0.0310068
0.0349138
0.0388883
0.0428981
0.0469148
0.0509136
0.0548729
0.0587747
0.0626037
0.0663477
0.0699968
0.0735434
0.0769822
0.0803106
0.0835273
0.0866322
0.089626
0.09251
0.0952857
0.0979554
0.100521
0.102986
0.105351
0.10762
0.109795
0.111877
0.113869
0.115771
0.117584
0.119308
0.120941
0.122482
0.123925
0.125266
0.126495
0.1276
0.128566
0.12937
0.129982
0.130352
0.130432
0.130131
0.129309
0.127734
0.123743
0.114104
0.104261
0.0943777
0.0845772
0.0749604
0.0656135
0.0566141
0.0480353
0.0399496
0.0324377
0.02556
0.0194108
0.0140809
0.00965375
0.00618937
0.00368462
0.00203708
0.00105508
0.000521005
0.000251117
0.000119128
5.61572e-05
2.64205e-05
1.24208e-05
5.70672e-06
2.61637e-06
1.11718e-06
4.66778e-07
8.82504e-08
4.73177e-07
2.06688e-06
4.74226e-06
9.21312e-06
1.66394e-05
2.88924e-05
4.89272e-05
8.13277e-05
0.000133143
0.00021478
0.000341282
0.000533373
0.000818717
0.0012332
0.00181893
0.00262165
0.00368513
0.00505259
0.00675427
0.00880688
0.0112038
0.0139282
0.016952
0.0202395
0.0237509
0.0274449
0.031281
0.0352208
0.0392285
0.0432717
0.0473214
0.0513522
0.0553424
0.0592732
0.0631294
0.0668981
0.0705693
0.0741352
0.0775907
0.0809334
0.0841622
0.0872768
0.090278
0.093167
0.0959456
0.0986161
0.101181
0.103642
0.106003
0.108266
0.110432
0.112505
0.114486
0.116376
0.118175
0.119882
0.121498
0.123018
0.124437
0.12575
0.126947
0.128014
0.128934
0.129685
0.130236
0.130547
0.130592
0.130323
0.129703
0.12874
0.120371
0.110431
0.100444
0.0905147
0.0807394
0.0712027
0.061982
0.0531493
0.044774
0.0369254
0.029709
0.0231306
0.0173158
0.0123467
0.00829608
0.00520292
0.0030308
0.00164492
0.00084096
0.000412856
0.00019879
9.45366e-05
4.46927e-05
2.10731e-05
9.96127e-06
4.57784e-06
2.18976e-06
9.21642e-07
3.83762e-07
7.36205e-08
4.76884e-07
2.08315e-06
4.77987e-06
9.28717e-06
1.67804e-05
2.91392e-05
4.9346e-05
8.20695e-05
0.000134382
0.000216812
0.000344377
0.00053815
0.000826792
0.00124544
0.0018356
0.00264567
0.00372365
0.00510848
0.00682929
0.00890005
0.0113184
0.0140673
0.0171183
0.0204352
0.0239779
0.0277046
0.0315745
0.0355484
0.0395903
0.0436672
0.0477498
0.0518124
0.0558326
0.0597917
0.0636738
0.0674659
0.0711577
0.0747416
0.0782129
0.0815692
0.0848091
0.0879326
0.0909404
0.0938338
0.0966148
0.0992854
0.101848
0.104306
0.106662
0.108917
0.111075
0.113138
0.115107
0.116983
0.118766
0.120456
0.122052
0.123549
0.124942
0.126223
0.127382
0.128402
0.129262
0.129934
0.130368
0.130524
0.130325
0.129665
0.128401
0.126168
0.116439
0.106519
0.0965614
0.0866905
0.0770067
0.067596
0.0585348
0.049894
0.0417417
0.0341467
0.0271946
0.020925
0.0154424
0.0108235
0.0071305
0.00437914
0.00250101
0.0013359
0.000675801
0.000330616
0.000159213
7.57974e-05
3.58816e-05
1.69382e-05
8.1322e-06
3.77054e-06
1.80377e-06
7.62802e-07
3.24121e-07
6.10206e-08
4.80616e-07
2.09952e-06
4.81812e-06
9.36427e-06
1.69202e-05
2.93886e-05
4.97954e-05
8.28287e-05
0.000135637
0.000218778
0.000347544
0.000543588
0.00083513
0.00125775
0.0018558
0.00267588
0.00376495
0.00516394
0.00690216
0.00899355
0.0114356
0.0142111
0.0172911
0.020639
0.0242142
0.0279746
0.0318786
0.0358869
0.0399627
0.0440728
0.0481875
0.0522806
0.0563296
0.0603153
0.0642216
0.0680354
0.071746
0.0753463
0.0788319
0.0822003
0.0854501
0.0885813
0.0915947
0.0944915
0.0972738
0.0999439
0.102504
0.104958
0.107307
0.109555
0.111704
0.113755
0.115711
0.117573
0.11934
0.121011
0.122585
0.124058
0.125424
0.126673
0.127794
0.12877
0.129578
0.130186
0.130542
0.130606
0.13029
0.129467
0.127945
0.122487
0.112737
0.102819
0.0928962
0.0830951
0.0735155
0.0642415
0.0553474
0.046902
0.0389718
0.0316359
0.0249358
0.0189632
0.0137966
0.00950727
0.00614425
0.00369905
0.00207426
0.00109183
0.000547448
0.000266794
0.000128178
6.10578e-05
2.89766e-05
1.37398e-05
6.61252e-06
3.06562e-06
1.47441e-06
6.19952e-07
2.59001e-07
4.86481e-08
4.84599e-07
2.11708e-06
4.85902e-06
9.44426e-06
1.70683e-05
2.96597e-05
5.02646e-05
8.3624e-05
0.000136959
0.000220949
0.000351244
0.000549304
0.00084362
0.00127154
0.00187614
0.0027051
0.0038058
0.00521948
0.00697567
0.0090883
0.0115547
0.0143573
0.0174668
0.0208461
0.0244539
0.0282478
0.0321856
0.0362274
0.0403363
0.0444784
0.0486237
0.0527457
0.0568216
0.060832
0.0647606
0.0685939
0.0723215
0.0759365
0.0794348
0.0828137
0.0860721
0.0892097
0.0922274
0.0951265
0.0979092
0.100578
0.103135
0.105583
0.107926
0.110165
0.112304
0.114344
0.116287
0.118133
0.119883
0.121535
0.123087
0.124534
0.125869
0.127084
0.128163
0.129089
0.129838
0.130376
0.130664
0.13067
0.13034
0.129629
0.12854
0.119441
0.109472
0.0994683
0.089545
0.0798008
0.070321
0.0611812
0.0524502
0.0441932
0.0364738
0.0293896
0.0229408
0.0172432
0.0123695
0.00838394
0.00532011
0.0031447
0.00173507
0.000901904
0.00044949
0.000218354
0.000104747
4.99042e-05
2.37433e-05
1.12739e-05
5.41754e-06
2.516e-06
1.21722e-06
5.09156e-07
2.11841e-07
3.97706e-08
4.88662e-07
2.13494e-06
4.90034e-06
9.5263e-06
1.72231e-05
2.99342e-05
5.07382e-05
8.44227e-05
0.000138273
0.000223212
0.000354865
0.000555056
0.000852885
0.00128543
0.00189653
0.00273432
0.0038466
0.00527498
0.00704914
0.00918302
0.0116737
0.0145033
0.0176419
0.021052
0.0246919
0.0285182
0.0324887
0.0365629
0.0407032
0.0448756
0.0490497
0.0531987
0.0572995
0.0613324
0.065281
0.0691318
0.0728744
0.0765025
0.0800119
0.0833999
0.0866654
0.0898081
0.0928289
0.0957294
0.0985115
0.101178
0.103731
0.106174
0.108509
0.11074
0.112868
0.114896
0.116825
0.118656
0.120388
0.12202
0.12355
0.124971
0.126276
0.127454
0.128489
0.12936
0.130035
0.130465
0.130608
0.130384
0.129679
0.128342
0.125957
0.116194
0.10625
0.0962851
0.0864245
0.0767701
0.0674064
0.0584073
0.0498398
0.0417672
0.0342525
0.0273811
0.0211755
0.0157378
0.0111371
0.00743034
0.00463508
0.00269446
0.00146548
0.000753507
0.000373158
0.00018059
8.64038e-05
4.11413e-05
1.95285e-05
9.26045e-06
4.45443e-06
2.07176e-06
1.00186e-06
4.19623e-07
1.74129e-07
3.27148e-08
4.9275e-07
2.1529e-06
4.94227e-06
9.61058e-06
1.73783e-05
3.021e-05
5.12182e-05
8.5247e-05
0.000139677
0.000225481
0.000358477
0.00056066
0.00086184
0.001299
0.00191648
0.00276292
0.00388657
0.00532937
0.00712116
0.00927582
0.0117902
0.014646
0.0178128
0.0212527
0.0249232
0.0287807
0.0327823
0.0368869
0.0410568
0.0452575
0.0494582
0.053632
0.0577555
0.0618089
0.0657755
0.0696416
0.0733974
0.0770369
0.0805559
0.0839516
0.0872228
0.0903695
0.0933924
0.0962932
0.099074
0.101737
0.104286
0.106723
0.10905
0.111272
0.11339
0.115405
0.117321
0.119136
0.120851
0.122464
0.123971
0.125367
0.126644
0.12779
0.128788
0.129615
0.130239
0.130606
0.130674
0.130351
0.129504
0.127933
0.123055
0.113275
0.103338
0.0934076
0.0836105
0.0740454
0.0647945
0.0559297
0.0475163
0.0396166
0.0322934
0.0256075
0.019629
0.0144316
0.0100813
0.00662707
0.00406983
0.0023312
0.00125251
0.000638294
0.000314229
0.000151555
7.22956e-05
3.43054e-05
1.62237e-05
7.66248e-06
3.62783e-06
1.67989e-06
8.03697e-07
3.39108e-07
1.38227e-07
2.62668e-08
4.96709e-07
2.17031e-06
4.98292e-06
9.69046e-06
1.75256e-05
3.04718e-05
5.16734e-05
8.60251e-05
0.000140989
0.000227647
0.000362026
0.000566471
0.000870502
0.00131191
0.00193546
0.00279022
0.00392483
0.00538153
0.00719028
0.00936488
0.011902
0.0147827
0.0179764
0.0214444
0.0251439
0.0290307
0.0330612
0.0371942
0.0413915
0.0456182
0.0498433
0.0540396
0.0581835
0.0622551
0.0662376
0.0701172
0.0738846
0.077534
0.081061
0.0844631
0.0877389
0.0908885
0.0939127
0.0968132
0.0995921
0.102252
0.104796
0.107226
0.109546
0.111759
0.113866
0.11587
0.117771
0.119571
0.121269
0.122862
0.124347
0.125718
0.126967
0.128082
0.129045
0.129837
0.130426
0.130772
0.130849
0.130602
0.129971
0.128911
0.120874
0.110873
0.100843
0.0908976
0.081136
0.0716418
0.0624887
0.0537429
0.0454663
0.0377192
0.0305753
0.0240704
0.0182928
0.0133108
0.0091854
0.00595583
0.0036063
0.00203919
0.00108444
0.000548759
0.000268802
0.000129334
6.16072e-05
2.91874e-05
1.3795e-05
6.5091e-06
3.06541e-06
1.42383e-06
6.76105e-07
2.91965e-07
1.07023e-07
2.21256e-08
5.00439e-07
2.1867e-06
5.02086e-06
9.76501e-06
1.76626e-05
3.07145e-05
5.20932e-05
8.67384e-05
0.000142183
0.000229588
0.000365099
0.000571188
0.00087818
0.00132371
0.00195304
0.00281568
0.00396066
0.00543047
0.00725518
0.00944853
0.0120069
0.014911
0.0181298
0.021624
0.0253503
0.029264
0.0333212
0.0374803
0.0417025
0.0459527
0.0501998
0.0544162
0.0585783
0.0626659
0.0666621
0.0705535
0.074331
0.0779889
0.0815229
0.0849302
0.0882097
0.0913614
0.0943862
0.0972857
0.100062
0.102719
0.105257
0.107681
0.109994
0.112198
0.114295
0.116287
0.118175
0.11996
0.12164
0.123214
0.124676
0.126021
0.127239
0.128315
0.129233
0.129967
0.130482
0.130739
0.130697
0.130286
0.129428
0.128056
0.118506
0.10853
0.0985272
0.0886263
0.0789276
0.0695145
0.0604589
0.0518251
0.0436733
0.0360623
0.0290735
0.0227287
0.0171383
0.0123529
0.00842931
0.00539791
0.00322761
0.00180472
0.000951512
0.000478796
0.000233965
0.000112556
5.36458e-05
2.54457e-05
1.2067e-05
5.71925e-06
2.70585e-06
1.26857e-06
5.77626e-07
2.64756e-07
9.65864e-08
2.01534e-08
5.03761e-07
2.20126e-06
5.05468e-06
9.83222e-06
1.77859e-05
3.09322e-05
5.24674e-05
8.73679e-05
0.000143218
0.000231349
0.00036799
0.000575846
0.000885263
0.00133465
0.00196922
0.00283904
0.00399352
0.00547538
0.00731479
0.00952535
0.0121032
0.0150288
0.0182704
0.0217885
0.0255392
0.0294774
0.0335587
0.0377411
0.0419856
0.0462569
0.0505234
0.0547576
0.0589356
0.0630371
0.0670452
0.0709467
0.0747329
0.078398
0.0819377
0.0853493
0.0886316
0.0917848
0.0948096
0.097708
0.100482
0.103135
0.105669
0.108087
0.110392
0.112588
0.114675
0.116656
0.118532
0.120303
0.121968
0.123523
0.124963
0.126282
0.127468
0.128506
0.129374
0.130043
0.130464
0.130601
0.130381
0.129704
0.128439
0.126272
0.11645
0.106473
0.0964955
0.0866394
0.0770029
0.0676675
0.0587034
0.0501739
0.042138
0.0346544
0.027796
0.0216043
0.0161662
0.0115511
0.00780154
0.00493975
0.00292066
0.00161707
0.000846194
0.000423757
0.000206836
9.95913e-05
4.75828e-05
2.26626e-05
1.07959e-05
5.13138e-06
2.43133e-06
1.16553e-06
5.31078e-07
2.44147e-07
8.86889e-08
1.82181e-08
5.06687e-07
2.21408e-06
5.08416e-06
9.89015e-06
1.78939e-05
3.11248e-05
5.28012e-05
8.79349e-05
0.000144166
0.000232854
0.000370466
0.000579782
0.000891255
0.00134386
0.00198343
0.0028598
0.00402278
0.00551544
0.00736802
0.00959403
0.0121894
0.0151341
0.0183962
0.0219356
0.025708
0.0296678
0.0337704
0.0379733
0.0422374
0.0465269
0.0508104
0.0550599
0.0592516
0.0633651
0.0673833
0.0712933
0.0750869
0.078758
0.0823024
0.0857174
0.0890019
0.092156
0.0951806
0.0980777
0.100849
0.103499
0.106028
0.108441
0.11074
0.112928
0.115007
0.116979
0.118844
0.120603
0.122253
0.123793
0.125216
0.126513
0.127674
0.128681
0.12951
0.130129
0.130484
0.130537
0.1302
0.129358
0.127853
0.124521
0.11469
0.104721
0.0947681
0.0849529
0.0753718
0.0661049
0.0572216
0.0487845
0.0408532
0.033487
0.0267489
0.0207006
0.0153825
0.0108947
0.0072895
0.00456884
0.00267457
0.00146808
0.000763208
0.000380577
0.000185536
8.93534e-05
4.27416e-05
2.03897e-05
9.7197e-06
4.62469e-06
2.19649e-06
1.05956e-06
4.82018e-07
2.21021e-07
8.01347e-08
1.63977e-08
5.09185e-07
2.22505e-06
5.10967e-06
9.94032e-06
1.79849e-05
3.12873e-05
5.30863e-05
8.84231e-05
0.000144985
0.000234204
0.000372581
0.000583193
0.000896684
0.0013518
0.001995
0.0028772
0.00404789
0.00555001
0.007414
0.00965344
0.012264
0.0152254
0.0185053
0.0220631
0.0258542
0.0298326
0.0339534
0.0381739
0.0424545
0.0467596
0.0510573
0.0553198
0.0595229
0.0636463
0.0676729
0.0715901
0.0753897
0.0790658
0.0826139
0.0860316
0.0893178
0.0924724
0.0954967
0.0983924
0.101162
0.103808
0.106333
0.108742
0.111035
0.113217
0.115289
0.117253
0.11911
0.120859
0.1225
0.124028
0.125439
0.126724
0.127871
0.128863
0.129677
0.13028
0.130623
0.130669
0.130339
0.129526
0.128095
0.123253
0.113344
0.103339
0.0933822
0.0835858
0.0740412
0.0648249
0.0560035
0.047638
0.0397875
0.0325143
0.0258805
0.0199248
0.0147392
0.0103648
0.00687488
0.00427134
0.00247913
0.00135078
0.000698221
0.000346787
0.000168752
8.11789e-05
3.88015e-05
1.84957e-05
8.80788e-06
4.19066e-06
1.98768e-06
9.54913e-07
4.32947e-07
1.97475e-07
7.1476e-08
1.44775e-08
5.11212e-07
2.23392e-06
5.13018e-06
9.98077e-06
1.80597e-05
3.14185e-05
5.33125e-05
8.88137e-05
0.00014565
0.000235311
0.000374385
0.000585984
0.000901048
0.00135869
0.00200525
0.00289146
0.00406804
0.00557819
0.00745198
0.00970271
0.012326
0.0153013
0.0185959
0.0221691
0.0259757
0.0299696
0.0341053
0.0383401
0.0426343
0.0469519
0.051261
0.0555337
0.0597459
0.0638772
0.0679106
0.0718336
0.0756382
0.0793182
0.0828694
0.0862892
0.0895765
0.0927315
0.0957553
0.0986498
0.101417
0.104061
0.106583
0.108987
0.111276
0.113453
0.115519
0.117477
0.119328
0.12107
0.122704
0.124225
0.125629
0.126908
0.12805
0.129039
0.129855
0.130468
0.130832
0.130918
0.13066
0.129975
0.128765
0.122389
0.112362
0.102296
0.0923152
0.0825215
0.072998
0.0638161
0.0550399
0.04673
0.0389456
0.0317422
0.0251654
0.0192947
0.0141993
0.00994016
0.00654827
0.00403825
0.00232724
0.00126021
0.000648211
0.000320749
0.000155734
7.47741e-05
3.56775e-05
1.69777e-05
8.07383e-06
3.83645e-06
1.8155e-06
8.69767e-07
3.93018e-07
1.78259e-07
6.44285e-08
1.28944e-08
5.12784e-07
2.24082e-06
5.14612e-06
1.0012e-05
1.8117e-05
3.15205e-05
5.34892e-05
8.91104e-05
0.000146146
0.000236138
0.000375747
0.000588185
0.00090443
0.00136379
0.0020129
0.00290278
0.00408373
0.0055995
0.00748074
0.00974053
0.012374
0.0153605
0.0186668
0.022252
0.0260708
0.0300766
0.0342239
0.0384696
0.042774
0.0471009
0.0514183
0.0556984
0.0599169
0.0640534
0.0680919
0.07202
0.0758288
0.0795122
0.0830659
0.0864873
0.0897756
0.0929308
0.0959541
0.0988474
0.101613
0.104254
0.106774
0.109175
0.11146
0.113633
0.115695
0.117648
0.119494
0.121231
0.12286
0.124376
0.125775
0.127051
0.128191
0.129181
0.130002
0.130627
0.131009
0.131126
0.130919
0.130316
0.129242
0.121719
0.111619
0.101514
0.0915183
0.081728
0.0722216
0.0630676
0.0543276
0.0460591
0.0383142
0.0311496
0.0246286
0.0188201
0.0137925
0.00960611
0.00630131
0.00386319
0.00221374
0.00119283
0.000611053
0.000301417
0.00014601
6.99572e-05
3.33094e-05
1.58189e-05
7.50824e-06
3.56157e-06
1.68165e-06
8.03587e-07
3.62499e-07
1.63673e-07
5.91236e-08
1.16981e-08
5.13842e-07
2.24546e-06
5.15692e-06
1.00334e-05
1.81563e-05
3.159e-05
5.36092e-05
8.93154e-05
0.000146488
0.000236702
0.000376667
0.000589675
0.000906815
0.00136746
0.00201834
0.00291067
0.00409503
0.00561502
0.00750108
0.00976668
0.0124071
0.0154012
0.0187158
0.0223095
0.0261368
0.0301509
0.0343062
0.0385594
0.0428706
0.0472035
0.0515262
0.0558104
0.060032
0.0641717
0.0682138
0.0721459
0.0759583
0.0796446
0.0832003
0.086623
0.0899119
0.0930673
0.0960902
0.0989827
0.101747
0.104387
0.106904
0.109303
0.111586
0.113755
0.115814
0.117764
0.119605
0.121339
0.122963
0.124475
0.12587
0.127142
0.128279
0.129268
0.130088
0.130715
0.131101
0.131225
0.131029
0.13044
0.129387
0.121202
0.111081
0.100966
0.0909711
0.0811892
0.0716972
0.0625611
0.0538411
0.0455937
0.0378769
0.030748
0.0242657
0.0184998
0.0135184
0.0093813
0.00612678
0.0037417
0.00213559
0.00114648
0.000585411
0.000288082
0.000139233
6.65597e-05
3.16161e-05
1.49782e-05
7.09201e-06
3.35616e-06
1.58118e-06
7.53401e-07
3.3958e-07
1.52567e-07
5.51506e-08
1.08048e-08
5.1436e-07
2.24774e-06
5.1622e-06
1.00439e-05
1.81758e-05
3.16249e-05
5.36703e-05
8.94201e-05
0.000146666
0.000236996
0.000377147
0.000590446
0.000908032
0.00136935
0.00202121
0.00291488
0.00410101
0.00562325
0.00751211
0.00978089
0.0124248
0.0154228
0.0187414
0.0223394
0.0261709
0.0301892
0.0343486
0.0386055
0.0429199
0.0472557
0.0515804
0.0558658
0.0600886
0.0642299
0.0682738
0.0722081
0.0760231
0.0797114
0.0832684
0.086692
0.0899813
0.0931367
0.0961594
0.0990514
0.101815
0.104454
0.10697
0.109368
0.111649
0.113817
0.115873
0.117821
0.11966
0.121391
0.123012
0.124521
0.125914
0.127182
0.128316
0.129301
0.130119
0.130742
0.131126
0.131247
0.131046
0.130449
0.129382
0.12091
0.110785
0.100671
0.0906804
0.0809053
0.071422
0.0622966
0.0535892
0.0453569
0.0376565
0.0305458
0.0240833
0.0183391
0.0133814
0.00926949
0.00604099
0.003681
0.00209629
0.00112296
0.000572209
0.00028111
0.000135622
6.46908e-05
3.06505e-05
1.44811e-05
6.83772e-06
3.22696e-06
1.51679e-06
7.2042e-07
3.24581e-07
1.45152e-07
5.25379e-08
1.0183e-08
5.14354e-07
2.24771e-06
5.16214e-06
1.00437e-05
1.81756e-05
3.16246e-05
5.36697e-05
8.94192e-05
0.000146664
0.000236993
0.000377143
0.000590439
0.000908018
0.00136932
0.00202117
0.00291481
0.0041009
0.00562309
0.00751188
0.00978058
0.0124244
0.0154222
0.0187408
0.0223386
0.02617
0.0301882
0.0343475
0.0386044
0.0429188
0.0472545
0.0515792
0.0558646
0.0600875
0.0642288
0.0682728
0.072207
0.076022
0.0797102
0.0832672
0.0866907
0.0899801
0.0931355
0.0961582
0.0990502
0.101814
0.104453
0.106969
0.109366
0.111648
0.113815
0.115872
0.11782
0.119659
0.12139
0.123011
0.12452
0.125912
0.12718
0.128313
0.129298
0.130115
0.130738
0.131123
0.131245
0.131046
0.130449
0.129379
0.120904
0.110781
0.100667
0.0906771
0.0809021
0.0714186
0.0622929
0.0535853
0.0453531
0.0376528
0.0305423
0.0240801
0.0183362
0.013379
0.0092676
0.00603963
0.00368009
0.00209567
0.00112249
0.000571797
0.00028072
0.000135258
6.44009e-05
3.04455e-05
1.43461e-05
6.75323e-06
3.17593e-06
1.48883e-06
7.03616e-07
3.16913e-07
1.40696e-07
5.11059e-08
9.70202e-09
5.13826e-07
2.2454e-06
5.15677e-06
1.00331e-05
1.81559e-05
3.15894e-05
5.36078e-05
8.93126e-05
0.000146484
0.000236694
0.000376654
0.000589654
0.00090678
0.0013674
0.00201822
0.00291046
0.0040947
0.00561454
0.00750038
0.00976569
0.0124057
0.0153995
0.0187138
0.0223071
0.0261341
0.030148
0.0343031
0.0385562
0.0428673
0.0472003
0.0515229
0.0558071
0.0600288
0.0641684
0.0682105
0.0721426
0.0759549
0.079641
0.0831967
0.0866194
0.0899084
0.0930637
0.0960866
0.0989792
0.101744
0.104383
0.106901
0.1093
0.111582
0.113752
0.115811
0.11776
0.119602
0.121335
0.122959
0.124471
0.125866
0.127137
0.128274
0.129262
0.130082
0.130708
0.131096
0.131222
0.131028
0.130441
0.129379
0.121187
0.111068
0.100954
0.0909604
0.0811789
0.0716867
0.0625503
0.0538301
0.0455828
0.0378663
0.0307381
0.0242566
0.0184917
0.0135117
0.0093759
0.00612282
0.00373927
0.00213381
0.00114511
0.000584262
0.000287048
0.000138332
6.58347e-05
3.10964e-05
1.46295e-05
6.86803e-06
3.22002e-06
1.50568e-06
7.03507e-07
3.18001e-07
1.38396e-07
5.07546e-08
9.39358e-09
5.12763e-07
2.24073e-06
5.14592e-06
1.00116e-05
1.81161e-05
3.15187e-05
5.34864e-05
8.91064e-05
0.000146139
0.000236128
0.000375733
0.00058817
0.000904426
0.00136372
0.00201274
0.00290251
0.00408333
0.00559885
0.0074797
0.00973913
0.0123722
0.0153582
0.0186641
0.0222487
0.026067
0.0300723
0.0342193
0.0384648
0.042769
0.0470959
0.0514133
0.0556933
0.0599118
0.0640483
0.0680867
0.0720147
0.0758233
0.0795066
0.0830602
0.0864817
0.0897699
0.0929251
0.0959484
0.0988417
0.101608
0.104249
0.106768
0.109169
0.111455
0.113627
0.115689
0.117643
0.119488
0.121226
0.122854
0.12437
0.12577
0.127045
0.128185
0.129175
0.129996
0.130621
0.131004
0.131122
0.130916
0.130313
0.129233
0.121696
0.111597
0.101493
0.0914984
0.0817083
0.0722018
0.0630478
0.0543078
0.0460393
0.0382948
0.0311312
0.0246119
0.0188058
0.0137809
0.00959699
0.00629435
0.0038582
0.00221022
0.00119034
0.00060914
0.000299915
0.000144762
6.89942e-05
3.26313e-05
1.53686e-05
7.22422e-06
3.39267e-06
1.59092e-06
7.38028e-07
3.4229e-07
1.45425e-07
5.60116e-08
1.03523e-08
5.11187e-07
2.23381e-06
5.12988e-06
9.9801e-06
1.80586e-05
3.14168e-05
5.33096e-05
8.88085e-05
0.00014564
0.000235294
0.000374354
0.000585922
0.000900919
0.00135853
0.00200505
0.00289115
0.00406751
0.00557742
0.00745096
0.00970133
0.0123241
0.0152987
0.0185926
0.022165
0.0259709
0.0299641
0.0340994
0.0383337
0.0426276
0.0469451
0.0512541
0.0555268
0.059739
0.0638702
0.0679035
0.0718264
0.0756309
0.0793108
0.0828619
0.0862816
0.0895688
0.0927237
0.0957474
0.0986417
0.101409
0.104052
0.106575
0.108979
0.111268
0.113444
0.115511
0.117469
0.119319
0.121062
0.122696
0.124217
0.125622
0.126901
0.128043
0.129034
0.12985
0.130464
0.130827
0.130912
0.130651
0.129963
0.128753
0.122361
0.112333
0.102266
0.0922857
0.0824922
0.072969
0.0637874
0.0550119
0.0467028
0.0389197
0.0317181
0.0251433
0.0192751
0.0141826
0.00992657
0.00653822
0.00403071
0.00232224
0.001257
0.000646106
0.000319315
0.000154708
7.40363e-05
3.51723e-05
1.66413e-05
7.85629e-06
3.70534e-06
1.76164e-06
8.13765e-07
3.82686e-07
1.60498e-07
6.33702e-08
1.18503e-08
5.09157e-07
2.22493e-06
5.10941e-06
9.93986e-06
1.79842e-05
3.1286e-05
5.30837e-05
8.84185e-05
0.000144978
0.00023419
0.000372555
0.000583142
0.000896605
0.00135169
0.00199483
0.00287691
0.00404749
0.00554942
0.00741308
0.00965202
0.0122619
0.0152226
0.0185016
0.0220585
0.0258487
0.0298263
0.0339464
0.0381662
0.0424464
0.0467512
0.0510487
0.0553111
0.0595142
0.0636376
0.0676642
0.0715814
0.0753809
0.0790568
0.0826048
0.0860223
0.0893082
0.0924626
0.0954866
0.0983821
0.101151
0.103797
0.106322
0.10873
0.111024
0.113205
0.115277
0.117241
0.119098
0.120848
0.122489
0.124017
0.125429
0.126715
0.127863
0.128856
0.129671
0.130273
0.130614
0.130655
0.130317
0.129498
0.128077
0.123221
0.113309
0.103302
0.0933444
0.0835479
0.0740037
0.064788
0.0559677
0.0476038
0.0397552
0.0324843
0.0258528
0.0199001
0.0147178
0.0103478
0.00686139
0.00426168
0.00247283
0.001347
0.000696142
0.000345748
0.000168266
8.09208e-05
3.86518e-05
1.8403e-05
8.74687e-06
4.14042e-06
1.98787e-06
9.16114e-07
4.3626e-07
1.81312e-07
7.3066e-08
1.36462e-08
5.0668e-07
2.21405e-06
5.08411e-06
9.89002e-06
1.78935e-05
3.1124e-05
5.27999e-05
8.7933e-05
0.000144163
0.000232847
0.000370453
0.000579763
0.000891221
0.00134377
0.00198327
0.00285959
0.00402246
0.0055149
0.00736711
0.00959263
0.0121873
0.0151313
0.0183924
0.0219308
0.0257021
0.0296609
0.0337625
0.0379646
0.042228
0.0465171
0.0508003
0.0550497
0.0592413
0.0633548
0.067373
0.0712831
0.0750766
0.0787475
0.0822916
0.0857063
0.0889905
0.0921442
0.0951685
0.0980652
0.100836
0.103485
0.106014
0.108427
0.110725
0.112913
0.114992
0.116963
0.118828
0.120587
0.122237
0.123777
0.1252
0.126498
0.127659
0.128666
0.129496
0.130113
0.130466
0.130513
0.130167
0.129318
0.127825
0.124483
0.114646
0.104675
0.094722
0.084907
0.0753267
0.066061
0.057179
0.0487436
0.0408141
0.03345
0.0267144
0.0206705
0.0153565
0.0108734
0.00727337
0.00455741
0.0026671
0.00146379
0.000761229
0.000380108
0.000185779
8.97959e-05
4.30859e-05
2.06047e-05
9.86619e-06
4.67756e-06
2.26189e-06
1.04032e-06
4.98843e-07
2.06061e-07
8.32166e-08
1.56449e-08
5.03781e-07
2.20134e-06
5.05488e-06
9.83253e-06
1.77863e-05
3.09327e-05
5.24682e-05
8.73688e-05
0.000143219
0.00023135
0.000367991
0.00057585
0.000885245
0.00133464
0.00196922
0.00283898
0.00399332
0.00547496
0.00731402
0.00952411
0.0121013
0.015026
0.0182667
0.0217837
0.0255332
0.0294702
0.0335504
0.0377318
0.0419754
0.0462461
0.0505122
0.0547461
0.058924
0.0630255
0.0670336
0.070935
0.0747212
0.0783861
0.0819254
0.0853366
0.0886185
0.0917712
0.0947956
0.0976934
0.100467
0.103119
0.105652
0.10807
0.110375
0.11257
0.114656
0.116637
0.118512
0.120282
0.121946
0.1235
0.12494
0.126258
0.127444
0.12848
0.129347
0.130015
0.130434
0.130565
0.130339
0.129658
0.128399
0.126218
0.116391
0.106421
0.0964454
0.0865899
0.0769538
0.0676192
0.0586563
0.0501287
0.0420959
0.0346166
0.0277641
0.0215758
0.0161414
0.0115296
0.00778449
0.0049272
0.0029123
0.00161238
0.000844389
0.000423936
0.000208186
0.000100951
4.85555e-05
2.32571e-05
1.11794e-05
5.29755e-06
2.56722e-06
1.17982e-06
5.61968e-07
2.32859e-07
9.15268e-08
1.74737e-08
5.00472e-07
2.18685e-06
5.02115e-06
9.76556e-06
1.76637e-05
3.07166e-05
5.20965e-05
8.67434e-05
0.000142189
0.000229598
0.000365115
0.000571209
0.000878227
0.00132375
0.00195308
0.00281569
0.00396058
0.00543022
0.00725464
0.00944754
0.0120052
0.0149085
0.0181262
0.0216193
0.0253443
0.0292567
0.0333126
0.0374705
0.0416917
0.0459412
0.0501877
0.0544038
0.0585657
0.0626532
0.0666493
0.0705406
0.0743181
0.0779757
0.0815093
0.0849161
0.0881951
0.0913462
0.0943704
0.0972693
0.100045
0.102701
0.105239
0.107662
0.109974
0.112177
0.114273
0.116264
0.118151
0.119935
0.121614
0.123186
0.124647
0.125991
0.127207
0.128283
0.1292
0.129934
0.13045
0.130707
0.130667
0.130256
0.129394
0.12799
0.118427
0.108462
0.0984655
0.0885678
0.078871
0.0694595
0.0604054
0.0517735
0.043624
0.0360159
0.0290302
0.0226905
0.0171068
0.0123282
0.00841044
0.00538425
0.00321868
0.00179996
0.000950116
0.000479767
0.00023661
0.000114945
5.5329e-05
2.64642e-05
1.2706e-05
6.0007e-06
2.90904e-06
1.34609e-06
6.12026e-07
2.6635e-07
1.01821e-07
1.98545e-08
4.9678e-07
2.17062e-06
4.98366e-06
9.69193e-06
1.75282e-05
3.04763e-05
5.1681e-05
8.60376e-05
0.000141009
0.00022767
0.00036204
0.000566428
0.000870534
0.001312
0.00193559
0.00279035
0.00392492
0.0053815
0.00719002
0.00936422
0.0119007
0.0147806
0.0179732
0.02144
0.0251381
0.0290234
0.0330526
0.0371843
0.0413804
0.0456062
0.0498306
0.0540265
0.0581701
0.0622415
0.0662239
0.0701034
0.0738706
0.0775197
0.0810464
0.0844479
0.0877232
0.0908721
0.0938957
0.0967954
0.0995735
0.102233
0.104775
0.107205
0.109524
0.111736
0.113842
0.115844
0.117745
0.119543
0.12124
0.122831