/*--------------------------------*- C++ -*----------------------------------*\
  =========                 |
  \\      /  F ield         | OpenFOAM: The Open Source CFD Toolbox
   \\    /   O peration     | Website:  https://openfoam.org
    \\  /    A nd           | Version:  8
     \\/     M anipulation  |
\*---------------------------------------------------------------------------*/
FoamFile
{
    version     2.0;
    format      ascii;
    class       volScalarField;
    location    "100/fluid";
    object      H2O;
}
// * * * * * * * * * * * * * * * * * * * * * * * * * * * * * * * * * * * * * //

dimensions      [0 0 0 0 0 0 0];

internalField   nonuniform List<scalar> 
4000
(
3.73329e-07
1.62967e-06
3.73453e-06
7.24434e-06
1.30651e-05
2.26551e-05
3.83291e-05
6.37036e-05
0.000104318
0.000168451
0.000268125
0.000420175
0.000647179
0.000977845
0.00144636
0.00209017
0.00294639
0.00404682
0.00541368
0.00705667
0.00897248
0.0111461
0.0135537
0.016166
0.0189505
0.0218746
0.0249064
0.0280159
0.0311757
0.034361
0.0375544
0.0407366
0.0438912
0.0470044
0.0500646
0.0530625
0.0559907
0.0588433
0.061616
0.0643056
0.0669107
0.0694308
0.0718661
0.0742172
0.0764852
0.0786712
0.0807767
0.0828033
0.0847526
0.0866261
0.0884255
0.0901521
0.0918071
0.0933913
0.0949052
0.0963488
0.0977213
0.0990215
0.100247
0.101393
0.102456
0.103427
0.104298
0.105053
0.105676
0.106143
0.106419
0.10647
0.106243
0.105664
0.104649
0.102786
0.0951084
0.0872935
0.0794399
0.071633
0.0639451
0.0564391
0.0491716
0.0421954
0.0355619
0.0293236
0.0235666
0.0182925
0.0136115
0.00960109
0.00633728
0.00386782
0.00216898
0.00112148
0.000545617
0.000256096
0.000118533
5.40862e-05
2.49357e-05
1.11562e-05
5.05382e-06
2.09289e-06
8.0741e-07
1.55028e-07
3.74635e-07
1.63558e-06
3.7491e-06
7.27547e-06
1.31277e-05
2.27792e-05
3.85582e-05
6.41014e-05
0.000104973
0.000169471
0.00026962
0.000422234
0.000649822
0.000980964
0.00144974
0.00209334
0.00294903
0.00404838
0.00541404
0.0070562
0.00897203
0.0111471
0.0135581
0.0161757
0.0189678
0.0219015
0.0249454
0.0280689
0.031243
0.03445
0.0376627
0.040862
0.0440317
0.0471581
0.0502297
0.0532373
0.0561735
0.0590325
0.06181
0.0645032
0.0671107
0.0696323
0.0720683
0.0744192
0.0766864
0.078871
0.0809746
0.0829988
0.0849454
0.086816
0.0886121
0.0903352
0.0919865
0.0935668
0.0950767
0.0965161
0.0978844
0.09918
0.1004
0.101542
0.1026
0.103565
0.10443
0.105179
0.105795
0.106254
0.10652
0.106556
0.106296
0.10565
0.104475
0.101423
0.0936771
0.0857893
0.0778678
0.0699998
0.062258
0.0547062
0.0474026
0.0404031
0.0337636
0.0275442
0.0218145
0.01663
0.0120889
0.0082776
0.00527124
0.00309367
0.00167337
0.000843593
0.000409294
0.000193338
9.05636e-05
4.212e-05
1.98322e-05
9.06555e-06
4.25595e-06
1.78764e-06
7.25229e-07
1.432e-07
3.78024e-07
1.65087e-06
3.78609e-06
7.35162e-06
1.32714e-05
2.30295e-05
3.89879e-05
6.48132e-05
0.000106118
0.000171242
0.000272264
0.00042605
0.000655158
0.000988169
0.00145888
0.00210449
0.0029613
0.00406149
0.0054287
0.00707311
0.00899225
0.0111721
0.0135897
0.0162168
0.0190206
0.0219663
0.025028
0.0281754
0.0313815
0.0346143
0.037852
0.0410752
0.0442675
0.0474149
0.0505057
0.0535306
0.0564819
0.059354
0.0621423
0.0648442
0.0674587
0.0699855
0.0724251
0.0747784
0.0770464
0.0792308
0.081333
0.083355
0.0852984
0.0871651
0.0889567
0.0906747
0.0923204
0.0938945
0.0953978
0.09683
0.0981905
0.0994776
0.100689
0.10182
0.102866
0.103819
0.104668
0.1054
0.105997
0.106436
0.106687
0.106721
0.106499
0.105973
0.105098
0.099389
0.0914392
0.0834131
0.0753988
0.0674734
0.0597049
0.0521557
0.0448846
0.0379497
0.0314103
0.0253527
0.0197977
0.0148521
0.0105975
0.00710944
0.00443631
0.0025599
0.00136986
0.000687788
0.000333071
0.000157235
7.38455e-05
3.44169e-05
1.61981e-05
7.41146e-06
3.53585e-06
1.50458e-06
5.69842e-07
1.19466e-07
3.81205e-07
1.66491e-06
3.8189e-06
7.41673e-06
1.3391e-05
2.3238e-05
3.93298e-05
6.53663e-05
0.000106972
0.000172545
0.000274181
0.000428808
0.000659048
0.000993569
0.00146634
0.00211448
0.00297501
0.00408029
0.00545247
0.00710295
0.0090303
0.0112203
0.0136481
0.0162906
0.0191168
0.0220952
0.0251866
0.0283605
0.0315886
0.0348453
0.0381075
0.0413553
0.0445716
0.047742
0.0508543
0.0538989
0.0568679
0.0597553
0.0625567
0.0652697
0.0678932
0.0704272
0.0728722
0.075229
0.077499
0.0796838
0.0817852
0.083805
0.0857451
0.0876074
0.0893937
0.0911056
0.0927442
0.0943105
0.0958051
0.0972278
0.0985778
0.0998533
0.101051
0.102168
0.103196
0.104127
0.104949
0.105647
0.106199
0.106574
0.106738
0.106651
0.106254
0.10549
0.104317
0.0965479
0.0885309
0.0804552
0.0724169
0.0644965
0.056764
0.0492829
0.0421132
0.035314
0.0289458
0.0230978
0.017786
0.0131201
0.00917418
0.00601199
0.00365807
0.00206056
0.00108121
0.000536944
0.000259322
0.000122648
5.76956e-05
2.70045e-05
1.27484e-05
5.86995e-06
2.6522e-06
1.18664e-06
4.66613e-07
8.97013e-08
3.84422e-07
1.67914e-06
3.85252e-06
7.48496e-06
1.35213e-05
2.34776e-05
3.97525e-05
6.6079e-05
0.000108123
0.000174364
0.00027705
0.000433215
0.000665454
0.00100231
0.00147776
0.00212905
0.00299429
0.00410553
0.00548573
0.00714464
0.0090845
0.011293
0.0137497
0.0164198
0.019271
0.0222704
0.025385
0.0285836
0.0318375
0.0351203
0.0384088
0.0416825
0.044924
0.0481183
0.0512531
0.0543182
0.0573057
0.0602093
0.0630247
0.0657496
0.0683831
0.0709251
0.0733761
0.0757371
0.0780096
0.0801952
0.0822958
0.0843134
0.0862501
0.0881077
0.0898881
0.0915929
0.0932235
0.0947807
0.0962651
0.0976764
0.0990136
0.100275
0.101456
0.102554
0.10356
0.104465
0.105256
0.105914
0.106415
0.106718
0.106783
0.106537
0.105864
0.104574
0.101307
0.0934159
0.0853579
0.0772662
0.0692426
0.0613694
0.0537172
0.0463494
0.0393261
0.0327064
0.0265564
0.0209258
0.0158915
0.0115279
0.00790344
0.00506718
0.00301657
0.00166774
0.000863784
0.000426542
0.000205587
9.7529e-05
4.59754e-05
2.16302e-05
1.01688e-05
4.67204e-06
2.142e-06
9.14622e-07
3.82147e-07
7.22498e-08
3.87386e-07
1.69213e-06
3.88245e-06
7.5427e-06
1.36225e-05
2.3654e-05
4.00562e-05
6.65822e-05
0.000109003
0.000175838
0.000279405
0.000436668
0.000670276
0.00100961
0.00148914
0.00214633
0.00301699
0.00413651
0.00552966
0.00721011
0.00917246
0.0114029
0.0138785
0.0165699
0.0194446
0.0224689
0.0256095
0.028835
0.032116
0.0354261
0.0387416
0.0420416
0.0453083
0.0485265
0.0516835
0.0547689
0.0577745
0.0606938
0.0635228
0.0662595
0.0689028
0.0714528
0.0739098
0.076275
0.0785498
0.0807361
0.0828358
0.084851
0.0867838
0.0886361
0.09041
0.0921071
0.0937287
0.0952757
0.0967485
0.0981467
0.0994691
0.100713
0.101876
0.102951
0.10393
0.104804
0.105557
0.106172
0.106623
0.106878
0.106915
0.106694
0.106186
0.105399
0.0985467
0.0904091
0.0822324
0.0741036
0.0661006
0.058293
0.0507441
0.0435129
0.0366561
0.0302305
0.0243225
0.0189369
0.0141763
0.0101081
0.00679193
0.00425958
0.00248129
0.00134668
0.000688487
0.000338002
0.000162747
7.73963e-05
3.65895e-05
1.72524e-05
8.1552e-06
3.74784e-06
1.79274e-06
7.54541e-07
3.14183e-07
6.02725e-08
3.90421e-07
1.70546e-06
3.91324e-06
7.60332e-06
1.37379e-05
2.3856e-05
4.03991e-05
6.71896e-05
0.000110018
0.000177502
0.000281938
0.000440578
0.000676887
0.00101963
0.00150279
0.00216598
0.00304852
0.00418227
0.00559108
0.0072864
0.00926628
0.0115168
0.0140146
0.0167301
0.0196305
0.0226815
0.0258497
0.0291032
0.0324122
0.0357499
0.0390923
0.0424183
0.0457097
0.0489509
0.0521292
0.0552338
0.0582562
0.0611903
0.0640322
0.06678
0.0694325
0.0719897
0.0744521
0.0768209
0.0790977
0.0812841
0.0833824
0.0853946
0.087323
0.0891696
0.0909364
0.092625
0.0942368
0.0957726
0.0972327
0.0986166
0.0999226
0.101148
0.102289
0.103338
0.104287
0.105122
0.105826
0.106376
0.106731
0.106859
0.106696
0.106156
0.10512
0.103292
0.0953278
0.087206
0.079054
0.0709727
0.0630447
0.0553402
0.0479219
0.0408478
0.0341735
0.0279556
0.022264
0.0171311
0.0126425
0.00886112
0.00583768
0.00358516
0.00204756
0.00109369
0.000553272
0.000270672
0.000130346
6.20546e-05
2.9376e-05
1.38672e-05
6.65776e-06
3.08691e-06
1.47673e-06
6.24499e-07
2.65355e-07
4.9957e-08
3.93476e-07
1.71886e-06
3.94455e-06
7.66644e-06
1.38524e-05
2.40602e-05
4.0767e-05
6.78111e-05
0.000111045
0.000179112
0.000284531
0.000445031
0.000683714
0.00102971
0.00151933
0.00219072
0.00308233
0.00422767
0.00565074
0.00736294
0.00936225
0.0116345
0.014156
0.016897
0.019824
0.0229025
0.0260987
0.0293803
0.0327171
0.036082
0.0394507
0.0428017
0.0461165
0.0493796
0.0525777
0.0557
0.0587379
0.0616854
0.064539
0.0672966
0.0699573
0.0725208
0.0749878
0.0773594
0.0796372
0.0818232
0.0839194
0.0859281
0.0878515
0.0896917
0.0914508
0.0931303
0.0947317
0.0962556
0.0977022
0.0990708
0.10036
0.101565
0.102683
0.103706
0.104624
0.105423
0.106084
0.106582
0.106874
0.106926
0.106667
0.105993
0.104747
0.100279
0.0922968
0.0841767
0.0760533
0.0680292
0.0601865
0.0525939
0.0453124
0.0383982
0.0319058
0.0259001
0.0204147
0.015525
0.0112952
0.00778351
0.00503025
0.00302838
0.00169818
0.000893876
0.000448191
0.000218422
0.000104938
4.99875e-05
2.37229e-05
1.12487e-05
5.41362e-06
2.5098e-06
1.20709e-06
5.0755e-07
2.12042e-07
3.98278e-08
3.96737e-07
1.73324e-06
3.97804e-06
7.73193e-06
1.39736e-05
2.42822e-05
4.11512e-05
6.84622e-05
0.000112127
0.000180889
0.00028756
0.00044971
0.000690664
0.001041
0.00153598
0.00221464
0.00311577
0.00427314
0.00571092
0.00744051
0.00945976
0.0117542
0.0142999
0.0170665
0.0200202
0.0231262
0.02635
0.0296591
0.0330229
0.0364141
0.0398078
0.0431825
0.0465194
0.0498026
0.0530189
0.0561572
0.059209
0.0621685
0.0650326
0.0677989
0.0704665
0.0730352
0.0755057
0.0778793
0.0801574
0.0823421
0.0844356
0.0864402
0.0883581
0.0901915
0.0919423
0.0936124
0.0952028
0.0967143
0.0981468
0.0994994
0.10077
0.101955
0.103048
0.104042
0.104926
0.105684
0.106297
0.106738
0.106973
0.106978
0.106708
0.106126
0.105235
0.0977854
0.0896236
0.0814338
0.0733097
0.0653322
0.0575712
0.0500885
0.0429406
0.0361806
0.0298608
0.024061
0.0187814
0.0141169
0.0101268
0.00686385
0.00435553
0.00257454
0.00142048
0.00073838
0.000367993
0.000178764
8.57551e-05
4.08561e-05
1.94384e-05
9.22983e-06
4.4353e-06
2.05983e-06
9.96526e-07
4.16842e-07
1.73432e-07
3.25598e-08
4.00063e-07
1.74785e-06
4.01186e-06
7.7991e-06
1.41004e-05
2.45069e-05
4.15389e-05
6.91161e-05
0.000113203
0.000182742
0.000290525
0.000454419
0.00069825
0.00105237
0.00155267
0.00223856
0.00314918
0.00431858
0.00577107
0.00751806
0.00955718
0.0118737
0.0144433
0.0172351
0.020215
0.0233476
0.0265982
0.0299337
0.0333233
0.0367393
0.0401565
0.0435533
0.0469106
0.0502123
0.053445
0.0565976
0.0596616
0.0626319
0.065505
0.0682788
0.0709522
0.0735251
0.0759982
0.0783728
0.0806505
0.0828333
0.0849236
0.0869235
0.0888355
0.0906616
0.092404
0.0940642
0.0956434
0.0971423
0.0985605
0.0998969
0.101149
0.102312
0.103381
0.104346
0.105193
0.105906
0.106459
0.106811
0.106928
0.106744
0.106167
0.105072
0.10312
0.0951272
0.0869862
0.0788277
0.070755
0.062851
0.055185
0.0478176
0.0408034
0.0341944
0.0280422
0.0224166
0.0173362
0.0128844
0.00911785
0.00608315
0.0037947
0.00220593
0.00119978
0.000616889
0.000305501
0.000147848
7.0738e-05
3.3682e-05
1.59878e-05
7.58145e-06
3.6468e-06
1.69613e-06
8.20218e-07
3.43541e-07
1.42558e-07
2.67833e-08
4.0341e-07
1.76256e-06
4.0462e-06
7.8681e-06
1.42275e-05
2.47326e-05
4.19319e-05
6.97909e-05
0.000114352
0.000184599
0.000293482
0.000459007
0.000705581
0.00106348
0.001569
0.00226197
0.0031819
0.00436311
0.00583003
0.00759404
0.00965256
0.0119905
0.0145832
0.0173994
0.0204044
0.0235625
0.0268385
0.030199
0.0336128
0.0370519
0.040491
0.0439081
0.0472839
0.0506024
0.0538498
0.057015
0.0600898
0.0630695
0.0659504
0.0687304
0.0714085
0.0739847
0.0764595
0.0788344
0.081111
0.0832914
0.085378
0.0873729
0.0892787
0.0910974
0.0928311
0.0944814
0.0960494
0.0975356
0.0989396
0.10026
0.101494
0.102637
0.103682
0.10462
0.105437
0.106114
0.106625
0.106926
0.106982
0.106717
0.106024
0.104738
0.100744
0.0927375
0.0846017
0.076472
0.0684512
0.0606203
0.0530467
0.0457892
0.0389011
0.0324337
0.0264383
0.0209647
0.0160701
0.011815
0.0082535
0.00542552
0.00333194
0.00190853
0.00102542
0.000522566
0.000257257
0.000124077
5.91878e-05
2.80856e-05
1.32822e-05
6.2732e-06
2.97008e-06
1.37531e-06
6.5798e-07
2.77625e-07
1.13166e-07
2.15044e-08
4.06651e-07
1.77681e-06
4.07947e-06
7.93349e-06
1.4348e-05
2.4947e-05
4.23045e-05
7.0428e-05
0.000115426
0.000186372
0.000296388
0.000463765
0.000712673
0.00107405
0.00158455
0.00228433
0.00321323
0.00440581
0.00588662
0.00766694
0.00974403
0.0121025
0.0147171
0.0175564
0.0205851
0.0237671
0.0270669
0.0304506
0.0338868
0.0373472
0.0408063
0.0442417
0.0476343
0.0509677
0.0542281
0.0574044
0.0604887
0.0634764
0.066364
0.0691492
0.0718311
0.0744096
0.0768855
0.0792601
0.0815351
0.0837128
0.0857953
0.0877851
0.0896846
0.0914959
0.093221
0.0948614
0.0964182
0.0978918
0.0992816
0.100586
0.101802
0.102925
0.103947
0.104859
0.105648
0.106296
0.106779
0.107062
0.107125
0.106923
0.106406
0.105538
0.0989584
0.0907708
0.0825591
0.0744171
0.0664253
0.0586525
0.051159
0.0439988
0.0372229
0.0308804
0.0250317
0.0197062
0.0149762
0.0108974
0.00752001
0.00487599
0.00295244
0.00166946
0.000887818
0.000449264
0.000220066
0.000105884
5.04373e-05
2.38954e-05
1.12939e-05
5.32895e-06
2.50962e-06
1.16568e-06
5.53521e-07
2.39029e-07
8.76187e-08
1.8114e-08
4.09705e-07
1.79024e-06
4.11054e-06
7.99453e-06
1.44602e-05
2.51457e-05
4.26482e-05
7.1012e-05
0.000116404
0.000187961
0.000298903
0.000467627
0.000718958
0.00108371
0.00159894
0.00230517
0.00324256
0.00444587
0.00593975
0.00773543
0.00982992
0.0122075
0.0148427
0.0177034
0.0207541
0.0239582
0.0272798
0.0306848
0.0341414
0.0376211
0.0410981
0.0445501
0.0479575
0.051304
0.0545757
0.0577615
0.0608542
0.0638489
0.0667421
0.0695316
0.0722165
0.0747967
0.0772731
0.079647
0.0819201
0.0840948
0.0861732
0.0881579
0.0900512
0.0918552
0.0935719
0.0952028
0.0967488
0.0982101
0.0995858
0.100874
0.102071
0.103172
0.104169
0.10505
0.105802
0.106402
0.106825
0.107035
0.107001
0.106664
0.105962
0.104839
0.0970202
0.0888522
0.0806633
0.0725575
0.0646173
0.0569109
0.0494972
0.0424287
0.0357549
0.0295239
0.0238022
0.0186078
0.014031
0.0101132
0.006901
0.00441922
0.00264241
0.00147751
0.000778994
0.000391986
0.000191545
9.21487e-05
4.39194e-05
2.08322e-05
9.87915e-06
4.6823e-06
2.21525e-06
1.03857e-06
4.72897e-07
2.16753e-07
7.90745e-08
1.64994e-08
4.12425e-07
1.80215e-06
4.13823e-06
8.04955e-06
1.45612e-05
2.53239e-05
4.29546e-05
7.15273e-05
0.000117251
0.000189404
0.00030127
0.00047144
0.000724757
0.00109266
0.00161219
0.0023243
0.00326946
0.00448265
0.00598855
0.00779832
0.00990879
0.0123039
0.0149578
0.0178381
0.0209087
0.0241329
0.0274742
0.0308983
0.0343732
0.0378701
0.0413631
0.0448295
0.04825
0.0516079
0.0548893
0.0580834
0.0611832
0.0641838
0.0670817
0.0698747
0.0725619
0.0751434
0.0776198
0.0799927
0.0822639
0.0844355
0.08651
0.0884898
0.0903772
0.0921745
0.0938834
0.0955055
0.0970414
0.0984911
0.0998537
0.101127
0.102306
0.103386
0.104357
0.105207
0.105917
0.106465
0.10681
0.106922
0.106742
0.106188
0.105152
0.103378
0.0953363
0.0871686
0.079
0.0709309
0.0630416
0.0553988
0.04806
0.0410769
0.034498
0.0283712
0.0227563
0.0176873
0.0132352
0.00945678
0.00638705
0.00404413
0.00239112
0.00132388
0.000692772
0.000346926
0.000169334
8.15345e-05
3.89556e-05
1.85536e-05
8.83848e-06
4.20102e-06
1.99051e-06
9.54209e-07
4.34789e-07
1.99881e-07
7.26088e-08
1.4915e-08
4.14821e-07
1.81265e-06
4.16236e-06
8.09698e-06
1.46496e-05
2.54816e-05
4.32279e-05
7.19916e-05
0.000118027
0.000190635
0.000303297
0.000474662
0.000729663
0.00110021
0.00162381
0.0023413
0.00329342
0.00451544
0.00603213
0.00785455
0.00997933
0.0123902
0.0150608
0.0179585
0.0210469
0.0242888
0.0276475
0.0310884
0.0345794
0.0380912
0.041598
0.0450771
0.0485088
0.0518764
0.0551661
0.0583672
0.061473
0.0644785
0.0673802
0.0701761
0.0728651
0.0754473
0.0779236
0.0802953
0.0825645
0.0847333
0.0868042
0.0887796
0.0906618
0.092453
0.0941551
0.0957693
0.0972965
0.0987364
0.100088
0.101348
0.102513
0.103575
0.104526
0.10535
0.106029
0.106535
0.106826
0.10687
0.106594
0.105905
0.104672
0.101944
0.0938958
0.0857342
0.0775858
0.0695502
0.0617062
0.0541195
0.0468468
0.0399395
0.0334461
0.0274155
0.0218991
0.0169474
0.0125935
0.00891936
0.00596785
0.00374047
0.00218965
0.00120191
0.000624832
0.000311575
0.000151896
7.31529e-05
3.49922e-05
1.66929e-05
7.95743e-06
3.78619e-06
1.79825e-06
8.67454e-07
3.94624e-07
1.80948e-07
6.56056e-08
1.34246e-08
4.16865e-07
1.82163e-06
4.18324e-06
8.13805e-06
1.47241e-05
2.56147e-05
4.34612e-05
7.23912e-05
0.000118698
0.000191741
0.000305029
0.000477455
0.000734107
0.00110671
0.00163329
0.00235554
0.00331398
0.00454375
0.00606977
0.00790319
0.0100404
0.0124649
0.0151501
0.0180628
0.0211666
0.0244237
0.0277974
0.0312526
0.0347572
0.0382817
0.0418002
0.0452898
0.0487309
0.0521067
0.0554032
0.0586102
0.0617209
0.0647305
0.0676353
0.0704333
0.0731237
0.0757064
0.0781823
0.080553
0.0828203
0.0849866
0.0870543
0.0890258
0.0909035
0.0926896
0.094386
0.0959939
0.0975141
0.0989464
0.10029
0.101541
0.102696
0.103748
0.104686
0.105499
0.106165
0.106659
0.10694
0.106978
0.106707
0.106042
0.10487
0.100906
0.0927938
0.0846031
0.0764512
0.0684309
0.0606169
0.0530716
0.0458496
0.0390008
0.0325737
0.0266191
0.0211881
0.0163122
0.0120668
0.0084856
0.0056284
0.00349691
0.00202964
0.00110587
0.000571627
0.000283911
0.000138156
6.64604e-05
3.17664e-05
1.51423e-05
7.21093e-06
3.43086e-06
1.62729e-06
7.81779e-07
3.5445e-07
1.61671e-07
5.85167e-08
1.18526e-08
4.18525e-07
1.82889e-06
4.20003e-06
8.17117e-06
1.47853e-05
2.5722e-05
4.36465e-05
7.2711e-05
0.000119242
0.000192647
0.000306505
0.00047974
0.00073768
0.00111234
0.00164168
0.00236721
0.00333047
0.00456682
0.00610087
0.00794352
0.0100912
0.012527
0.0152243
0.0181496
0.0212661
0.0245358
0.0279217
0.0313887
0.0349043
0.0384391
0.0419669
0.0454649
0.0489135
0.0522957
0.0555978
0.0588095
0.0619243
0.0649371
0.0678445
0.0706442
0.0733355
0.0759185
0.078394
0.0807637
0.0830294
0.0851935
0.0872585
0.0892268
0.0911008
0.0928828
0.0945746
0.0961775
0.0976924
0.0991191
0.100457
0.101702
0.102851
0.103898
0.104833
0.105643
0.106311
0.106813
0.107111
0.107181
0.10697
0.10641
0.105418
0.100199
0.0919898
0.0837486
0.0755776
0.0675596
0.0597628
0.0522457
0.0450607
0.0382575
0.0318844
0.0259871
0.0206027
0.0157964
0.0116248
0.00813793
0.00536101
0.00330608
0.00190529
0.00103172
0.000530685
0.000262594
0.000127498
6.12169e-05
2.92089e-05
1.38995e-05
6.60997e-06
3.14087e-06
1.48633e-06
7.12071e-07
3.21761e-07
1.45939e-07
5.27471e-08
1.05566e-08
4.19812e-07
1.83454e-06
4.21308e-06
8.19674e-06
1.48322e-05
2.58056e-05
4.37912e-05
7.29539e-05
0.000119648
0.000193324
0.000307621
0.000481542
0.000740449
0.00111652
0.00164795
0.00237648
0.00334332
0.00458426
0.00612441
0.00797449
0.0101305
0.0125755
0.0152824
0.0182175
0.0213439
0.0246234
0.0280188
0.0314947
0.0350187
0.0385611
0.0420957
0.0455998
0.0490534
0.05244
0.0557463
0.0589621
0.0620804
0.065096
0.0680053
0.0708064
0.0734985
0.0760816
0.0785568
0.0809255
0.0831899
0.0853522
0.087415
0.0893806
0.0912517
0.0930304
0.0947186
0.0963177
0.0978285
0.0992509
0.100584
0.101825
0.102971
0.104015
0.104949
0.10576
0.106431
0.106943
0.107256
0.107351
0.107182
0.106688
0.105809
0.0996502
0.0913816
0.0831082
0.0749252
0.06691
0.0591272
0.0516329
0.0444776
0.0377082
0.0313675
0.0255019
0.0201632
0.0154079
0.0112918
0.00786444
0.00515883
0.00316276
0.00181237
0.000976557
0.000500263
0.000246768
0.000119537
5.72734e-05
2.72701e-05
1.29508e-05
6.14693e-06
2.91582e-06
1.37675e-06
6.5789e-07
2.96775e-07
1.33998e-07
4.84039e-08
9.57715e-09
4.20678e-07
1.83834e-06
4.22192e-06
8.21425e-06
1.48644e-05
2.58625e-05
4.38894e-05
7.31217e-05
0.000119929
0.000193786
0.000308374
0.000482762
0.000742402
0.00111953
0.0016524
0.00238294
0.00335256
0.00459697
0.00614107
0.0079959
0.0101576
0.0126089
0.0153225
0.0182646
0.021398
0.0246843
0.0280862
0.0315683
0.0350978
0.0386451
0.042184
0.0456915
0.0491477
0.0525368
0.055846
0.0590652
0.0621864
0.0652043
0.0681153
0.0709175
0.0736101
0.0761933
0.0786682
0.0810363
0.0832996
0.0854606
0.0875217
0.0894854
0.0913543
0.0931305
0.0948159
0.0964121
0.0979197
0.0993389
0.100669
0.101907
0.103049
0.10409
0.105021
0.10583
0.106502
0.107015
0.107331
0.107433
0.107273
0.10679
0.105928
0.0992274
0.0909413
0.0826599
0.0744772
0.0664689
0.0586978
0.0512182
0.0440792
0.0373272
0.0310095
0.0251732
0.0198661
0.0151456
0.0110674
0.00768039
0.00501594
0.0030633
0.00174839
0.000938613
0.000479271
0.00023585
0.000113989
5.44919e-05
2.58838e-05
1.22625e-05
5.80616e-06
2.74766e-06
1.2945e-06
6.16803e-07
2.78011e-07
1.24905e-07
4.51513e-08
8.84581e-09
4.21102e-07
1.8402e-06
4.22625e-06
8.22282e-06
1.48803e-05
2.5891e-05
4.39394e-05
7.32075e-05
0.000120074
0.000194026
0.000308767
0.000483393
0.000743398
0.00112107
0.00165475
0.00238639
0.00335746
0.00460371
0.0061501
0.00800753
0.0101721
0.0126265
0.0153435
0.0182891
0.0214259
0.0247157
0.0281209
0.031606
0.0351382
0.0386878
0.0422284
0.0457368
0.049194
0.0525844
0.0558952
0.0591162
0.0622395
0.065259
0.0681711
0.070974
0.0736669
0.0762502
0.0787249
0.0810925
0.0833553
0.0855155
0.0875756
0.0895383
0.0914058
0.0931806
0.0948645
0.0964589
0.0979646
0.0993817
0.100709
0.101945
0.103084
0.104123
0.105051
0.105858
0.106527
0.107037
0.107352
0.107451
0.107287
0.106798
0.105924
0.0989877
0.0906989
0.0824184
0.0742392
0.0662365
0.0584726
0.0510017
0.043873
0.0371333
0.030829
0.0250076
0.0197168
0.0150141
0.0109552
0.00758885
0.00494571
0.0030136
0.00171622
0.000919359
0.000468463
0.000230142
0.000111032
5.29618e-05
2.50933e-05
1.18555e-05
5.59798e-06
2.64188e-06
1.24178e-06
5.89801e-07
2.65732e-07
1.18834e-07
4.30123e-08
8.3367e-09
4.21097e-07
1.84018e-06
4.2262e-06
8.22272e-06
1.48802e-05
2.58908e-05
4.39389e-05
7.32067e-05
0.000120073
0.000194024
0.000308764
0.000483387
0.000743387
0.00112105
0.00165471
0.00238633
0.00335737
0.00460358
0.00614991
0.00800727
0.0101717
0.012626
0.0153429
0.0182884
0.0214252
0.0247148
0.02812
0.031605
0.0351372
0.0386869
0.0422275
0.0457359
0.0491931
0.0525835
0.0558943
0.0591153
0.0622385
0.065258
0.0681701
0.070973
0.0736659
0.0762492
0.0787239
0.0810916
0.0833543
0.0855145
0.0875747
0.0895373
0.0914049
0.0931797
0.0948636
0.096458
0.0979637
0.0993807
0.100708
0.101943
0.103083
0.104121
0.105049
0.105855
0.106524
0.107034
0.107349
0.107449
0.107286
0.106798
0.105922
0.0989832
0.0906953
0.0824154
0.0742366
0.0662338
0.0584698
0.0509986
0.0438698
0.0371302
0.030826
0.0250047
0.0197141
0.0150117
0.0109532
0.00758731
0.0049446
0.00301285
0.0017157
0.000918969
0.000468125
0.000229823
0.000110735
5.27244e-05
2.49255e-05
1.1745e-05
5.52881e-06
2.60011e-06
1.2189e-06
5.76045e-07
2.59453e-07
1.15186e-07
4.18399e-08
7.94296e-09
4.20665e-07
1.83829e-06
4.2218e-06
8.21403e-06
1.48641e-05
2.5862e-05
4.38882e-05
7.31195e-05
0.000119925
0.000193779
0.000308363
0.000482745
0.000742373
0.00111948
0.0016523
0.00238277
0.00335229
0.00459657
0.0061405
0.00799508
0.0101565
0.0126075
0.0153208
0.0182627
0.0213958
0.0246819
0.0280837
0.0315656
0.0350951
0.0386424
0.0421813
0.0456888
0.049145
0.0525341
0.0558434
0.0590625
0.0621836
0.0652014
0.0681124
0.0709146
0.0736072
0.0761904
0.0786653
0.0810334
0.0832968
0.0854577
0.0875189
0.0894826
0.0913515
0.0931278
0.0948133
0.0964095
0.0979171
0.0993362
0.100666
0.101904
0.103046
0.104086
0.105017
0.105825
0.106497
0.10701
0.107327
0.10743
0.107272
0.106791
0.105922
0.0992148
0.0909302
0.0826503
0.0744685
0.0664605
0.0586893
0.0512094
0.0440702
0.0373182
0.0310008
0.025165
0.0198587
0.015139
0.0110619
0.00767596
0.0050127
0.0030613
0.00174693
0.000937494
0.000478331
0.000235004
0.000113251
5.38983e-05
2.54584e-05
1.1977e-05
5.62279e-06
2.6362e-06
1.23269e-06
5.75955e-07
2.60345e-07
1.13304e-07
4.15523e-08
7.69044e-09
4.19794e-07
1.83446e-06
4.21292e-06
8.19644e-06
1.48315e-05
2.58041e-05
4.37889e-05
7.29506e-05
0.000119643
0.000193316
0.00030761
0.00048153
0.000740445
0.00111647
0.00164781
0.00237626
0.00334298
0.00458373
0.00612357
0.00797334
0.010129
0.0125737
0.0152801
0.0182148
0.0213408
0.0246199
0.028015
0.0314908
0.0350146
0.038557
0.0420916
0.0455956
0.0490492
0.0524358
0.055742
0.0589578
0.0620759
0.0650914
0.0680007
0.0708018
0.0734938
0.0760769
0.0785521
0.0809208
0.0831852
0.0853475
0.0874102
0.0893759
0.091247
0.0930258
0.094714
0.0963131
0.0978239
0.0992464
0.10058
0.101821
0.102966
0.10401
0.104944
0.105754
0.106427
0.106938
0.107252
0.107348
0.10718
0.106686
0.105802
0.0996316
0.0913636
0.0830913
0.0749089
0.0668939
0.059111
0.0516166
0.0444613
0.037692
0.0313516
0.0254868
0.0201495
0.0153961
0.0112823
0.00785697
0.00515313
0.00315867
0.00180949
0.000974521
0.000498698
0.000245538
0.000118516
5.64849e-05
2.67149e-05
1.25822e-05
5.9144e-06
2.77755e-06
1.30247e-06
6.04217e-07
2.8023e-07
1.19058e-07
4.58562e-08
8.47535e-09
4.18505e-07
1.8288e-06
4.19979e-06
8.17062e-06
1.47844e-05
2.57207e-05
4.36441e-05
7.27067e-05
0.000119234
0.000192633
0.00030648
0.000479689
0.000737575
0.00111221
0.00164152
0.00236696
0.00333003
0.00456619
0.00610004
0.00794239
0.0100896
0.0125249
0.0152216
0.0181463
0.0212622
0.0245314
0.0279168
0.0313835
0.0348988
0.0384335
0.0419613
0.0454593
0.0489078
0.05229
0.055592
0.0588037
0.0619183
0.0649311
0.0678383
0.070638
0.0733292
0.0759121
0.0783876
0.0807571
0.0830227
0.0851868
0.0872517
0.0892199
0.0910939
0.0928759
0.0945677
0.0961707
0.0976856
0.0991124
0.10045
0.101696
0.102845
0.103893
0.104828
0.105639
0.106307
0.10681
0.107107
0.107176
0.106962
0.106399
0.105409
0.100176
0.0919657
0.0837243
0.0755535
0.0675356
0.0597391
0.0522222
0.0450378
0.0382352
0.0318632
0.0259673
0.0205846
0.0157804
0.0116112
0.0081268
0.00535278
0.0032999
0.0019012
0.00102909
0.000528961
0.00026142
0.000126658
6.06129e-05
2.87953e-05
1.36241e-05
6.43187e-06
3.03353e-06
1.44224e-06
6.66222e-07
3.13302e-07
1.31398e-07
5.18806e-08
9.70174e-09
4.16843e-07
1.82153e-06
4.18303e-06
8.13768e-06
1.47235e-05
2.56135e-05
4.34592e-05
7.23874e-05
0.000118692
0.00019173
0.000305007
0.000477414
0.000734042
0.00110662
0.00163315
0.0023553
0.00331364
0.00454326
0.00606902
0.00790203
0.0100387
0.0124626
0.0151471
0.0180591
0.0211621
0.0244185
0.0277916
0.0312463
0.0347505
0.0382748
0.0417931
0.0452827
0.0487237
0.0520995
0.0553961
0.058603
0.0617137
0.0647231
0.0676278
0.0704257
0.0731158
0.0756983
0.0781741
0.0805445
0.0828117
0.0849778
0.0870453
0.0890166
0.0908942
0.0926802
0.0943765
0.0959844
0.0975046
0.098937
0.10028
0.101532
0.102687
0.10374
0.10468
0.105493
0.10616
0.106654
0.106932
0.106966
0.106689
0.106019
0.104855
0.10088
0.0927647
0.0845726
0.0764202
0.0683999
0.0605862
0.0530414
0.0458202
0.0389728
0.0325472
0.0265946
0.0211655
0.016292
0.0120493
0.00847167
0.00561736
0.003489
0.00202449
0.00110278
0.000569925
0.000283061
0.000137758
6.62491e-05
3.16439e-05
1.50664e-05
7.16098e-06
3.38972e-06
1.62745e-06
7.50015e-07
3.57162e-07
1.48438e-07
5.98185e-08
1.1172e-08
4.14814e-07
1.81262e-06
4.16231e-06
8.09687e-06
1.46493e-05
2.5481e-05
4.32268e-05
7.199e-05
0.000118025
0.00019063
0.000303287
0.000474647
0.000729635
0.00110013
0.00162368
0.00234112
0.00329315
0.004515
0.00603139
0.0078534
0.00997765
0.0123878
0.0150577
0.0179545
0.0210421
0.0242831
0.0276411
0.0310813
0.0345717
0.0380832
0.0415897
0.0450687
0.0485004
0.051868
0.0551577
0.0583588
0.0614645
0.0644699
0.0673714
0.070167
0.0728557
0.0754377
0.0779136
0.0802851
0.0825539
0.0847225
0.086793
0.088768
0.0906499
0.0924408
0.0941426
0.0957566
0.0972835
0.0987232
0.100075
0.101335
0.1025
0.103563
0.104513
0.105338
0.106017
0.106523
0.106811
0.10685
0.106567
0.105872
0.104649
0.101913
0.0938597
0.0856968
0.0775481
0.0695126
0.0616693
0.0540835
0.046812
0.0399059
0.0334142
0.0273853
0.0218708
0.0169228
0.0125722
0.00890197
0.00595464
0.00373111
0.00218353
0.00119839
0.000623211
0.000311191
0.000152096
7.35151e-05
3.52741e-05
1.68689e-05
8.07736e-06
3.82948e-06
1.85179e-06
8.51703e-07
4.08398e-07
1.687e-07
6.81287e-08
1.28084e-08
4.12441e-07
1.80222e-06
4.13839e-06
8.04981e-06
1.45615e-05
2.53243e-05
4.29552e-05
7.15281e-05
0.000117252
0.000189404
0.000301271
0.000471443
0.000724743
0.00109266
0.00161218
0.00232425
0.0032693
0.0044823
0.00598793
0.0077973
0.00990723
0.0123017
0.0149548
0.0178341
0.0209038
0.024127
0.0274674
0.0308907
0.0343649
0.0378612
0.0413539
0.0448202
0.0482406
0.0515984
0.0548798
0.0580739
0.0611736
0.064174
0.0670716
0.0698643
0.0725512
0.0751323
0.0776083
0.0799808
0.0822515
0.0844227
0.0864967
0.088476
0.090363
0.0921597
0.0938681
0.0954895
0.0970248
0.098474
0.0998359
0.101108
0.102287
0.103366
0.104337
0.105186
0.105896
0.106442
0.106785
0.106893
0.106708
0.10615
0.105119
0.103333
0.0952886
0.0871259
0.078959
0.0708904
0.0630014
0.0553592
0.0480214
0.04104
0.0344635
0.0283403
0.0227303
0.0176639
0.0132148
0.00943917
0.00637309
0.00403386
0.00238428
0.00132004
0.000691294
0.000347073
0.00017044
8.26479e-05
3.9752e-05
1.90404e-05
9.15244e-06
4.33706e-06
2.10176e-06
9.65905e-07
4.60078e-07
1.90639e-07
7.49322e-08
1.43055e-08
4.09732e-07
1.79035e-06
4.11077e-06
7.99497e-06
1.44611e-05
2.51474e-05
4.2651e-05
7.1016e-05
0.000116409
0.00018797
0.000298916
0.000467644
0.000718997
0.00108374
0.00159897
0.00230518
0.00324249
0.00444567
0.00593931
0.00773462
0.00982858
0.0122055
0.0148398
0.0176995
0.0207491
0.0239522
0.0272728
0.0306768
0.0341326
0.0376117
0.0410882
0.0445399
0.0479472
0.0512936
0.0545652
0.057751
0.0608435
0.063838
0.0667309
0.0695201
0.0722046
0.0747844
0.0772602
0.0796336
0.0819062
0.0840802
0.0861581
0.0881421
0.0900348
0.0918381
0.0935541
0.0951842
0.0967293
0.0981896
0.0995643
0.100852
0.102048
0.103148
0.104143
0.105024
0.105775
0.106376
0.106798
0.107009
0.106976
0.106639
0.105934
0.104784
0.0969555
0.0887967
0.0806128
0.0725096
0.064571
0.0568659
0.0494534
0.0423865
0.0357146
0.0294859
0.0237668
0.0185765
0.0140052
0.010093
0.00688556
0.00440803
0.0026351
0.00147361
0.000777852
0.000392781
0.00019371
9.41042e-05
4.52974e-05
2.1666e-05
1.04023e-05
4.91272e-06
2.3816e-06
1.10203e-06
5.01061e-07
2.18058e-07
8.33604e-08
1.62547e-08
4.0671e-07
1.77707e-06
4.08008e-06
7.93469e-06
1.43502e-05
2.49507e-05
4.23108e-05
7.04382e-05
0.000115443
0.000186392
0.000296399
0.00046373
0.000712699
0.00107412
0.00158465
0.00228443
0.0032133