/*--------------------------------*- C++ -*----------------------------------*\
  =========                 |
  \\      /  F ield         | OpenFOAM: The Open Source CFD Toolbox
   \\    /   O peration     | Website:  https://openfoam.org
    \\  /    A nd           | Version:  8
     \\/     M anipulation  |
\*---------------------------------------------------------------------------*/
FoamFile
{
    version     2.0;
    format      ascii;
    class       volScalarField;
    location    "100/fluid";
    object      N2;
}
// * * * * * * * * * * * * * * * * * * * * * * * * * * * * * * * * * * * * * //

dimensions      [0 0 0 0 0 0 0];

internalField   nonuniform List<scalar> 
4000
(
4.23939e-06
1.84472e-05
4.19861e-05
8.06178e-05
0.000143486
0.000244959
0.000407319
0.000664573
0.00106763
0.00169093
0.00264008
0.00405965
0.00613869
0.00911095
0.0132459
0.018828
0.026122
0.0353375
0.0465959
0.059927
0.0752475
0.0923905
0.111131
0.131198
0.152335
0.174281
0.196791
0.219644
0.242646
0.265624
0.288438
0.310962
0.333098
0.354763
0.375891
0.39643
0.416339
0.435592
0.454168
0.472053
0.489238
0.50572
0.521502
0.536591
0.550997
0.564733
0.577816
0.590261
0.602089
0.613317
0.623966
0.634056
0.643608
0.652643
0.661181
0.669242
0.676847
0.684015
0.690765
0.697116
0.703087
0.708694
0.713956
0.718889
0.72351
0.727832
0.731823
0.735552
0.739078
0.742356
0.745393
0.748164
0.750452
0.752657
0.754752
0.756716
0.758541
0.760223
0.761763
0.763162
0.764422
0.765547
0.766531
0.767387
0.768112
0.768706
0.76917
0.769507
0.769731
0.769865
0.769936
0.769971
0.769987
0.769994
0.769998
0.769999
0.77
0.77
0.77
0.77
4.21329e-06
1.83319e-05
4.1726e-05
8.01405e-05
0.0001427
0.000243714
0.000405428
0.000661735
0.00106331
0.00168416
0.00262912
0.0040415
0.0061086
0.00906194
0.0131679
0.0187093
0.025951
0.0351136
0.0463299
0.0596164
0.0748984
0.0920136
0.110738
0.130829
0.152006
0.17401
0.196594
0.219537
0.242637
0.265725
0.288653
0.311294
0.333543
0.355315
0.376541
0.397168
0.417157
0.436478
0.455113
0.473047
0.490271
0.506783
0.522587
0.537691
0.552105
0.565843
0.578922
0.591359
0.603173
0.614385
0.625015
0.635084
0.644612
0.653621
0.662132
0.670165
0.67774
0.684878
0.691598
0.697918
0.703858
0.709435
0.714666
0.719568
0.724158
0.728445
0.732404
0.736098
0.739582
0.742827
0.745843
0.7486
0.750897
0.753097
0.755174
0.757116
0.758918
0.760579
0.762099
0.763479
0.764722
0.765828
0.766797
0.767632
0.768332
0.768894
0.769319
0.769614
0.769799
0.769902
0.769954
0.769979
0.769991
0.769996
0.769998
0.769999
0.77
0.77
0.77
0.77
4.17909e-06
1.81881e-05
4.14184e-05
7.96001e-05
0.000141849
0.000242504
0.000403734
0.00065943
0.00106008
0.00167942
0.00262156
0.00402856
0.00608578
0.00902259
0.0131053
0.0186154
0.0258257
0.034951
0.0461183
0.0593607
0.0746082
0.0917042
0.110431
0.130538
0.151758
0.173828
0.196502
0.219557
0.242795
0.266033
0.289116
0.311916
0.334321
0.356245
0.377615
0.398376
0.418487
0.437917
0.456648
0.474664
0.491956
0.508523
0.524369
0.539502
0.553935
0.567682
0.58076
0.593187
0.604985
0.616174
0.626775
0.636809
0.646299
0.655267
0.663732
0.671718
0.679245
0.686332
0.693
0.699269
0.705157
0.710681
0.715861
0.720713
0.725253
0.729487
0.733392
0.737022
0.740444
0.743622
0.746562
0.749155
0.751491
0.753706
0.755781
0.757708
0.759485
0.761114
0.762597
0.763937
0.765136
0.766191
0.767113
0.767898
0.768546
0.769055
0.76943
0.769682
0.769836
0.769921
0.769963
0.769983
0.769992
0.769997
0.769998
0.769999
0.77
0.77
0.77
0.77
4.14021e-06
1.80211e-05
4.10491e-05
7.89226e-05
0.000140717
0.000240735
0.000401128
0.000655591
0.00105459
0.00167142
0.00261002
0.00401184
0.00606166
0.00898809
0.0130562
0.018548
0.0257319
0.034825
0.0459695
0.0591967
0.0744396
0.0915463
0.1103
0.130453
0.151741
0.173907
0.196701
0.219893
0.243277
0.266671
0.289918
0.312883
0.335454
0.357539
0.379064
0.399971
0.420217
0.439771
0.458611
0.476721
0.494093
0.510725
0.526621
0.54179
0.556246
0.570004
0.583082
0.595499
0.607277
0.618438
0.629003
0.638996
0.648438
0.657352
0.665762
0.673687
0.681151
0.688173
0.694775
0.700975
0.706795
0.712251
0.717363
0.722149
0.726626
0.730774
0.734614
0.738267
0.741675
0.744822
0.747651
0.750036
0.752321
0.754485
0.75651
0.758387
0.760115
0.761694
0.763126
0.764414
0.765559
0.766561
0.767428
0.768158
0.768751
0.769207
0.769533
0.769746
0.769871
0.769938
0.769971
0.769987
0.769994
0.769997
0.769999
0.769999
0.77
0.77
0.77
0.77
4.10209e-06
1.78577e-05
4.06882e-05
7.82559e-05
0.000139579
0.000238877
0.000398221
0.000651244
0.00104831
0.0016625
0.00259712
0.0039935
0.00603684
0.00895673
0.0130186
0.0185043
0.0256814
0.0347711
0.0459131
0.0591446
0.074404
0.0915431
0.110353
0.130583
0.151968
0.174246
0.197167
0.220498
0.244032
0.267585
0.290994
0.314124
0.33686
0.359105
0.380784
0.401837
0.422218
0.441895
0.460845
0.479051
0.496502
0.513199
0.529145
0.544351
0.558829
0.572596
0.585672
0.598076
0.609831
0.620959
0.631483
0.641428
0.650816
0.659671
0.668015
0.675872
0.683264
0.690212
0.696736
0.702858
0.708597
0.713971
0.719
0.7237
0.728092
0.73211
0.73584
0.739394
0.742707
0.745791
0.748582
0.750939
0.753187
0.755302
0.757271
0.75909
0.760759
0.762279
0.763652
0.76488
0.765965
0.766911
0.76772
0.768393
0.76893
0.769334
0.769615
0.769794
0.769896
0.76995
0.769977
0.769989
0.769995
0.769998
0.769999
0.77
0.77
0.77
0.77
0.77
4.06633e-06
1.77052e-05
4.03573e-05
7.76729e-05
0.000138673
0.000237504
0.000396183
0.000648343
0.00104388
0.00165603
0.00258827
0.00398257
0.00602409
0.00894121
0.0129998
0.0184831
0.0256632
0.0347619
0.0459218
0.0591865
0.0744944
0.0916977
0.110585
0.130907
0.152399
0.174797
0.19785
0.221324
0.245008
0.268717
0.292286
0.315576
0.338468
0.360866
0.382691
0.403881
0.424389
0.444182
0.463235
0.481528
0.499053
0.515808
0.531799
0.547035
0.561531
0.575303
0.588372
0.600758
0.612485
0.623576
0.634056
0.643948
0.653277
0.662067
0.670342
0.678126
0.685441
0.692309
0.698753
0.704793
0.710448
0.715739
0.720684
0.725298
0.729587
0.733512
0.737167
0.74064
0.743857
0.746811
0.749371
0.751738
0.75397
0.756052
0.757977
0.759746
0.761361
0.762825
0.764141
0.765312
0.766336
0.767226
0.76798
0.768599
0.769085
0.769442
0.769684
0.769833
0.769917
0.76996
0.769981
0.769991
0.769996
0.769998
0.769999
0.77
0.77
0.77
0.77
0.77
4.03372e-06
1.75663e-05
4.00558e-05
7.71309e-05
0.000137751
0.000236107
0.000394174
0.00064536
0.00103985
0.00165078
0.00258214
0.00397544
0.00601547
0.00893313
0.0129952
0.0184864
0.0256808
0.0348038
0.0459994
0.0593109
0.0746791
0.0919567
0.110933
0.131357
0.152965
0.17549
0.19868
0.222299
0.246134
0.269996
0.293719
0.317161
0.340202
0.362743
0.384703
0.40602
0.426644
0.446542
0.465685
0.484056
0.501644
0.518448
0.534475
0.549734
0.564241
0.578012
0.591068
0.603431
0.615126
0.626176
0.636607
0.646443
0.65571
0.664432
0.672635
0.680343
0.687579
0.694366
0.700726
0.706682
0.712253
0.717461
0.722325
0.726865
0.731026
0.734882
0.738564
0.741987
0.74515
0.747985
0.750361
0.752644
0.7548
0.756811
0.75867
0.760375
0.761928
0.763332
0.764589
0.765702
0.766673
0.767509
0.76821
0.768778
0.769216
0.769531
0.76974
0.769865
0.769933
0.769968
0.769985
0.769993
0.769997
0.769999
0.769999
0.77
0.77
0.77
0.77
0.77
4.00542e-06
1.74461e-05
3.97929e-05
7.665e-05
0.000136986
0.00023493
0.000392382
0.000642904
0.00103668
0.00164712
0.002578
0.00397103
0.00601279
0.00893412
0.0130037
0.0185091
0.0257256
0.0348804
0.0461195
0.0594875
0.0749257
0.0922873
0.11136
0.131895
0.153624
0.17628
0.199607
0.22337
0.247351
0.271361
0.29523
0.318816
0.341995
0.364668
0.386752
0.408182
0.428911
0.4489
0.468122
0.486558
0.504198
0.521042
0.537096
0.55237
0.566879
0.580642
0.59368
0.606016
0.617675
0.62868
0.639059
0.648837
0.658041
0.666695
0.674825
0.682456
0.689613
0.696318
0.702595
0.708465
0.71395
0.71907
0.723845
0.728291
0.732324
0.736063
0.739629
0.742935
0.746
0.748744
0.751134
0.7534
0.755519
0.757483
0.75929
0.760941
0.762439
0.763787
0.764989
0.766047
0.766968
0.767754
0.768408
0.76893
0.769326
0.769604
0.769783
0.769889
0.769945
0.769974
0.769988
0.769994
0.769997
0.769999
0.769999
0.77
0.77
0.77
0.77
0.77
3.97959e-06
1.73357e-05
3.95531e-05
7.62278e-05
0.000136303
0.000233867
0.000390886
0.000640922
0.00103425
0.00164437
0.00257518
0.00396958
0.00601441
0.00894194
0.0130227
0.0185457
0.0257883
0.0349797
0.0462676
0.0596975
0.0752112
0.0926616
0.111836
0.132483
0.154334
0.17712
0.200584
0.224486
0.248609
0.272759
0.296766
0.320485
0.343792
0.366585
0.38878
0.410312
0.431131
0.4512
0.470488
0.488978
0.50666
0.523533
0.539604
0.554885
0.569391
0.58314
0.596155
0.60846
0.620078
0.631037
0.641363
0.651083
0.660222
0.668808
0.676867
0.684424
0.691504
0.698131
0.704328
0.710119
0.715523
0.720562
0.725256
0.729604
0.733573
0.737266
0.740784
0.74403
0.746969
0.749492
0.751859
0.754089
0.756165
0.758082
0.75984
0.761441
0.762889
0.764188
0.765342
0.766349
0.767224
0.767966
0.768576
0.769058
0.769416
0.769663
0.769818
0.769908
0.769955
0.769979
0.76999
0.769995
0.769998
0.769999
0.77
0.77
0.77
0.77
0.77
0.77
3.95681e-06
1.72388e-05
3.93438e-05
7.58537e-05
0.000135688
0.000232959
0.000389633
0.000639326
0.00103244
0.00164248
0.00257404
0.00397041
0.00601929
0.00895442
0.0130478
0.0185902
0.0258614
0.0350922
0.0464316
0.0599261
0.0755175
0.0930581
0.112334
0.133093
0.155065
0.177978
0.201573
0.225608
0.249865
0.274146
0.298282
0.322124
0.345547
0.368447
0.390741
0.412362
0.43326
0.453396
0.472739
0.491272
0.508985
0.525879
0.541961
0.557241
0.571737
0.585468
0.598456
0.610726
0.622304
0.633215
0.643488
0.653149
0.662226
0.670746
0.678736
0.686222
0.693228
0.69978
0.705901
0.711615
0.716944
0.721908
0.72653
0.730739
0.734629
0.738346
0.741794
0.744982
0.747851
0.750261
0.752568
0.754741
0.756764
0.758629
0.760336
0.761889
0.763289
0.764541
0.76565
0.766615
0.767448
0.768149
0.76872
0.769166
0.769491
0.76971
0.769846
0.769922
0.769962
0.769982
0.769992
0.769996
0.769998
0.769999
0.77
0.77
0.77
0.77
0.77
0.77
3.93619e-06
1.71512e-05
3.91532e-05
7.55097e-05
0.000135143
0.000232161
0.000388546
0.00063796
0.00103089
0.00164117
0.00257372
0.00397239
0.00602588
0.00896915
0.0130758
0.0186385
0.0259389
0.0352097
0.0466011
0.06016
0.0758283
0.0934576
0.112833
0.133701
0.155788
0.178822
0.202541
0.226702
0.251083
0.275487
0.29974
0.323694
0.347221
0.370218
0.392599
0.414298
0.435263
0.455454
0.474842
0.493408
0.511145
0.528052
0.544137
0.559412
0.573894
0.587603
0.600562
0.612796
0.624331
0.635195
0.645416
0.655021
0.664038
0.672495
0.68042
0.687838
0.694776
0.701259
0.70731
0.712955
0.718214
0.72311
0.72766
0.731773
0.735585
0.739226
0.742597
0.745714
0.748513
0.750912
0.753189
0.75532
0.757296
0.759114
0.760775
0.762282
0.763639
0.76485
0.765917
0.766846
0.767642
0.768306
0.768843
0.769255
0.769552
0.769748
0.769867
0.769934
0.769968
0.769985
0.769993
0.769997
0.769998
0.769999
0.77
0.77
0.77
0.77
0.77
0.77
3.91745e-06
1.70714e-05
3.89796e-05
7.52048e-05
0.000134661
0.000231458
0.000387602
0.000636804
0.00102966
0.00164025
0.00257385
0.00397495
0.00603308
0.0089844
0.013104
0.0186867
0.0260157
0.0353253
0.0467669
0.0603879
0.07613
0.093844
0.113314
0.134284
0.15648
0.179628
0.203463
0.22774
0.252236
0.276752
0.301111
0.325165
0.348786
0.371867
0.394325
0.41609
0.437112
0.457349
0.476773
0.495365
0.513117
0.530032
0.546115
0.561381
0.575845
0.58953
0.602459
0.614657
0.626151
0.636969
0.64714
0.656691
0.665652
0.674051
0.681914
0.689271
0.696145
0.702565
0.708553
0.714134
0.719331
0.724166
0.72865
0.732702
0.736464
0.740057
0.74337
0.746387
0.749011
0.751408
0.753672
0.755782
0.75773
0.759517
0.761144
0.762617
0.763939
0.765115
0.766147
0.767044
0.767807
0.76844
0.768946
0.76933
0.769602
0.769779
0.769884
0.769942
0.769972
0.769987
0.769994
0.769997
0.769999
0.769999
0.77
0.77
0.77
0.77
0.77
0.77
3.89998e-06
1.69969e-05
3.88186e-05
7.49206e-05
0.00013421
0.000230801
0.000386714
0.000635715
0.0010285
0.00163936
0.00257391
0.00397715
0.00603959
0.00899838
0.0131301
0.0187312
0.0260868
0.0354326
0.0469211
0.0606
0.0764109
0.0942037
0.113762
0.134827
0.157123
0.180375
0.204317
0.2287
0.2533
0.277916
0.302371
0.326514
0.350217
0.373373
0.395896
0.417719
0.438788
0.459063
0.478514
0.497125
0.514889
0.531805
0.547884
0.563137
0.577583
0.591244
0.604142
0.616305
0.627759
0.638534
0.648658
0.658159
0.667068
0.675412
0.68322
0.690519
0.697335
0.703696
0.709625
0.715147
0.720285
0.725062
0.729473
0.733489
0.73723
0.7408
0.744087
0.747033
0.749536
0.751907
0.754137
0.75621
0.758121
0.759872
0.761466
0.762906
0.764197
0.765343
0.766346
0.767215
0.767949
0.768554
0.769034
0.769392
0.769643
0.769803
0.769898
0.769949
0.769975
0.769988
0.769994
0.769997
0.769999
0.769999
0.77
0.77
0.77
0.77
0.77
0.77
3.88385e-06
1.69284e-05
3.86694e-05
7.46525e-05
0.000133782
0.00023017
0.000385853
0.000634639
0.00102733
0.0016383
0.00257355
0.00397854
0.00604453
0.00900987
0.0131522
0.0187695
0.0261486
0.0355268
0.0470574
0.0607885
0.0766616
0.0945257
0.114163
0.135314
0.157702
0.181048
0.205084
0.229563
0.254256
0.278961
0.303501
0.327722
0.351496
0.374716
0.397296
0.419167
0.440275
0.46058
0.480053
0.498678
0.516448
0.533364
0.549436
0.564675
0.579103
0.592739
0.605608
0.617738
0.629156
0.639891
0.649971
0.659428
0.668289
0.676585
0.684342
0.69159
0.698355
0.704663
0.71054
0.716009
0.721094
0.725817
0.730107
0.734054
0.737821
0.741313
0.744546
0.747473
0.749938
0.75229
0.7545
0.75655
0.758438
0.760164
0.761731
0.763145
0.76441
0.765531
0.766509
0.767352
0.768063
0.768645
0.769103
0.769442
0.769675
0.769822
0.769908
0.769954
0.769978
0.769989
0.769995
0.769998
0.769999
0.769999
0.77
0.77
0.77
0.77
0.77
0.77
3.86843e-06
1.68626e-05
3.85275e-05
7.43995e-05
0.000133368
0.000229544
0.000384968
0.000633474
0.00102593
0.00163691
0.00257251
0.00397867
0.00604725
0.00901751
0.0131686
0.0187996
0.0261985
0.0356041
0.0471708
0.0609472
0.0768746
0.0948014
0.114508
0.135735
0.158203
0.181632
0.205753
0.230315
0.255089
0.279872
0.304485
0.328774
0.352609
0.375884
0.398511
0.420421
0.441561
0.461891
0.481382
0.500017
0.51779
0.534704
0.550766
0.565993
0.580402
0.594015
0.606858
0.618958
0.630343
0.641042
0.651085
0.660501
0.669322
0.677575
0.685289
0.692493
0.699215
0.70548
0.711314
0.716743
0.721789
0.726469
0.73069
0.734603
0.738343
0.741799
0.74499
0.747877
0.750316
0.752639
0.75482
0.756843
0.758705
0.760407
0.761952
0.763343
0.764586
0.765684
0.766641
0.767462
0.768154
0.768718
0.769158
0.769481
0.7697
0.769837
0.769916
0.769959
0.76998
0.76999
0.769995
0.769998
0.769999
0.77
0.77
0.77
0.77
0.77
0.77
0.77
3.85369e-06
1.67994e-05
3.83882e-05
7.41482e-05
0.000132964
0.000228923
0.000384061
0.000632225
0.00102431
0.001635
0.00257064
0.00397731
0.00604744
0.00902103
0.0131781
0.0188195
0.0262343
0.0356622
0.0472584
0.0610722
0.077045
0.0950247
0.114791
0.136083
0.158619
0.182119
0.206312
0.230945
0.255789
0.280638
0.305313
0.329659
0.353546
0.376866
0.399532
0.421474
0.44264
0.462989
0.482493
0.501135
0.51891
0.53582
0.551875
0.567088
0.581481
0.595074
0.607894
0.619968
0.631324
0.641992
0.652002
0.661385
0.67017
0.678386
0.686064
0.693231
0.699915
0.706143
0.711941
0.717334
0.722347
0.726987
0.731175
0.735063
0.738779
0.742208
0.745359
0.748185
0.750605
0.75291
0.755071
0.757075
0.758918
0.760601
0.762128
0.763502
0.764728
0.765808
0.766747
0.767552
0.768226
0.768775
0.769201
0.769511
0.76972
0.769849
0.769923
0.769962
0.769981
0.769991
0.769996
0.769998
0.769999
0.77
0.77
0.77
0.77
0.77
0.77
0.77
3.83988e-06
1.67403e-05
3.82579e-05
7.39092e-05
0.000132565
0.000228309
0.000383158
0.000630931
0.00102254
0.00163271
0.00256793
0.00397459
0.0060453
0.00902065
0.0131815
0.0188295
0.0262551
0.0356996
0.0473187
0.0611619
0.0771706
0.0951927
0.115007
0.136352
0.158945
0.182503
0.206755
0.231447
0.256348
0.281252
0.305977
0.33037
0.354299
0.377655
0.400353
0.422321
0.443507
0.46387
0.483383
0.50203
0.519806
0.536712
0.552759
0.567962
0.582341
0.595917
0.608718
0.62077
0.632102
0.642745
0.652729
0.662084
0.67084
0.679027
0.686674
0.693811
0.700465
0.706662
0.71243
0.717794
0.722778
0.727401
0.731571
0.735444
0.739151
0.742566
0.74568
0.748422
0.750826
0.753117
0.755264
0.757253
0.759082
0.760751
0.762264
0.763625
0.764837
0.765904
0.766832
0.767625
0.768287
0.768822
0.769236
0.769536
0.769736
0.769858
0.769928
0.769964
0.769983
0.769992
0.769996
0.769998
0.769999
0.77
0.77
0.77
0.77
0.77
0.77
0.77
3.82725e-06
1.66858e-05
3.8137e-05
7.36871e-05
0.00013219
0.000227709
0.000382245
0.000629618
0.00102071
0.00163023
0.00256469
0.00397066
0.00604112
0.00901689
0.0131793
0.0188309
0.026263
0.0357178
0.0473522
0.0612164
0.0772518
0.0953058
0.115157
0.136542
0.159178
0.182782
0.20708
0.231818
0.256763
0.281709
0.306475
0.330904
0.354865
0.378251
0.400971
0.422958
0.444158
0.464532
0.484052
0.502702
0.520477
0.53738
0.553421
0.568615
0.582983
0.596546
0.609332
0.621367
0.632682
0.643305
0.653269
0.662602
0.671336
0.679501
0.687126
0.69424
0.70087
0.707045
0.71279
0.718131
0.723095
0.727705
0.731858
0.735717
0.739416
0.742825
0.745912
0.748587
0.750982
0.753264
0.755402
0.757382
0.7592
0.760859
0.762362
0.763713
0.764915
0.765974
0.766894
0.767679
0.768333
0.768859
0.769263
0.769554
0.769748
0.769865
0.769931
0.769966
0.769984
0.769992
0.769996
0.769998
0.769999
0.77
0.77
0.77
0.77
0.77
0.77
0.77
3.81724e-06
1.66424e-05
3.80392e-05
7.3503e-05
0.000131875
0.000227199
0.000381453
0.00062842
0.00101897
0.0016278
0.00256142
0.00396637
0.00603577
0.00901078
0.0131732
0.018826
0.0262611
0.0357215
0.0473645
0.061241
0.077293
0.0953676
0.115243
0.136656
0.159322
0.182957
0.207287
0.232057
0.257034
0.28201
0.306804
0.331259
0.355245
0.37865
0.401386
0.423385
0.444594
0.464974
0.484497
0.503149
0.520923
0.537824
0.553861
0.569049
0.583409
0.596963
0.609739
0.621763
0.633065
0.643676
0.653626
0.662945
0.671665
0.679815
0.687425
0.694524
0.701139
0.707299
0.713029
0.718356
0.723304
0.7279
0.732042
0.735889
0.739577
0.742981
0.746051
0.748688
0.751078
0.753356
0.755489
0.757463
0.759276
0.760929
0.762426
0.763771
0.764968
0.766021
0.766935
0.767714
0.768362
0.768883
0.769282
0.769567
0.769755
0.76987
0.769934
0.769967
0.769984
0.769992
0.769996
0.769998
0.769999
0.77
0.77
0.77
0.77
0.77
0.77
0.77
3.81143e-06
1.66171e-05
3.79818e-05
7.33936e-05
0.000131683
0.000226878
0.000380937
0.00062762
0.00101776
0.00162604
0.00255894
0.00396302
0.00603141
0.00900538
0.013167
0.0188193
0.0262551
0.0357173
0.0473639
0.0612461
0.0773058
0.0953904
0.115278
0.136704
0.159386
0.183037
0.207384
0.23217
0.257163
0.282155
0.306965
0.331435
0.355433
0.378849
0.401594
0.423598
0.44481
0.465193
0.484719
0.503371
0.521145
0.538045
0.55408
0.569265
0.583621
0.597171
0.609941
0.62196
0.633256
0.643861
0.653804
0.663116
0.671829
0.679972
0.687575
0.694666
0.701275
0.707428
0.713151
0.718471
0.723412
0.727999
0.732138
0.735973
0.739651
0.743047
0.746117
0.748739
0.751126
0.7534
0.75553
0.757501
0.759311
0.760961
0.762455
0.763797
0.764992
0.766043
0.766954
0.76773
0.768376
0.768894
0.769289
0.769572
0.769759
0.769872
0.769935
0.769968
0.769985
0.769993
0.769996
0.769998
0.769999
0.77
0.77
0.77
0.77
0.77
0.77
0.77
3.81138e-06
1.66169e-05
3.79815e-05
7.33933e-05
0.000131683
0.000226879
0.000380939
0.000627624
0.00101777
0.00162605
0.00255896
0.00396307
0.00603151
0.00900558
0.0131673
0.0188199
0.0262559
0.0357184
0.0473654
0.061248
0.0773081
0.0953931
0.115281
0.136708
0.15939
0.183041
0.207388
0.232175
0.257168
0.282161
0.30697
0.331441
0.355439
0.378855
0.4016
0.423604
0.444817
0.4652
0.484725
0.503378
0.521152
0.538052
0.554086
0.569271
0.583627
0.597177
0.609947
0.621966
0.633262
0.643866
0.653809
0.663122
0.671834
0.679977
0.68758
0.694672
0.701281
0.707435
0.713159
0.71848
0.723421
0.728009
0.732147
0.735979
0.739652
0.743045
0.746123
0.748749
0.751132
0.753404
0.755533
0.757503
0.759313
0.760964
0.762459
0.763801
0.764996
0.766046
0.766957
0.767732
0.768377
0.768894
0.769289
0.769572
0.769759
0.769872
0.769935
0.769968
0.769985
0.769993
0.769997
0.769998
0.769999
0.77
0.77
0.77
0.77
0.77
0.77
0.77
3.81721e-06
1.66424e-05
3.80393e-05
7.35033e-05
0.000131875
0.0002272
0.000381458
0.000628434
0.001019
0.00162785
0.00256152
0.00396658
0.00603615
0.00901142
0.0131743
0.0188275
0.0262634
0.0357246
0.0473686
0.0612463
0.0772995
0.0953756
0.115253
0.136667
0.159334
0.18297
0.207301
0.232071
0.257049
0.282026
0.30682
0.331276
0.355262
0.378668
0.401405
0.423403
0.444613
0.464993
0.484517
0.503168
0.520943
0.537844
0.55388
0.569068
0.583428
0.596982
0.609757
0.62178
0.633082
0.643693
0.653642
0.662961
0.671681
0.679831
0.687441
0.69454
0.701156
0.707317
0.713048
0.718376
0.723326
0.727921
0.732061
0.735901
0.73958
0.742978
0.746068
0.748714
0.751098
0.753369
0.755498
0.757471
0.759283
0.760936
0.762434
0.763779
0.764976
0.766028
0.76694
0.767718
0.768364
0.768884
0.769281
0.769566
0.769755
0.76987
0.769934
0.769968
0.769984
0.769993
0.769996
0.769998
0.769999
0.77
0.77
0.77
0.77
0.77
0.77
0.77
3.82725e-06
1.66859e-05
3.81371e-05
7.36871e-05
0.000132192
0.000227716
0.000382255
0.000629633
0.00102074
0.00163031
0.00256488
0.003971
0.00604167
0.00901786
0.013181
0.0188334
0.0262667
0.0357228
0.0473589
0.0612253
0.0772632
0.0953198
0.115174
0.136561
0.159199
0.182804
0.207104
0.231843
0.256789
0.281736
0.306502
0.330932
0.354895
0.378281
0.401002
0.42299
0.44419
0.464565
0.484084
0.502734
0.520509
0.537412
0.553453
0.568647
0.583014
0.596577
0.609362
0.621396
0.63271
0.643333
0.653296
0.662629
0.671362
0.679526
0.687151
0.694264
0.700894
0.707069
0.712814
0.718156
0.723119
0.727727
0.731876
0.735731
0.739424
0.742834
0.745939
0.74862
0.751011
0.753287
0.755421
0.757399
0.759216
0.760875
0.762377
0.763726
0.764928
0.765986
0.766903
0.767685
0.768336
0.768861
0.769264
0.769554
0.769748
0.769866
0.769932
0.769967
0.769984
0.769992
0.769996
0.769998
0.769999
0.77
0.77
0.77
0.77
0.77
0.77
0.77
3.83988e-06
1.67403e-05
3.82583e-05
7.39107e-05
0.000132566
0.00022831
0.000383163
0.000630955
0.00102261
0.00163286
0.00256822
0.00397512
0.00604626
0.00902215
0.0131838
0.0188327
0.0262599
0.0357065
0.0473284
0.0611749
0.0771871
0.0952126
0.115031
0.136378
0.158974
0.182534
0.206788
0.231482
0.256384
0.281289
0.306016
0.33041
0.35434
0.377698
0.400396
0.422365
0.443551
0.463915
0.483429
0.502076
0.519851
0.536757
0.552804
0.568007
0.582384
0.59596
0.60876
0.620811
0.632143
0.642785
0.652767
0.662121
0.670875
0.679061
0.686707
0.693842
0.700494
0.706689
0.712455
0.717816
0.722798
0.727419
0.731589
0.735464
0.739176
0.7426
0.745713
0.748449
0.750857
0.753147
0.755293
0.757282
0.759109
0.760776
0.762287
0.763645
0.764853
0.765917
0.766842
0.767632
0.768292
0.768825
0.769237
0.769536
0.769736
0.769859
0.769928
0.769965
0.769983
0.769992
0.769996
0.769998
0.769999
0.77
0.77
0.77
0.77
0.77
0.77
0.77
3.85369e-06
1.67995e-05
3.83883e-05
7.41477e-05
0.000132963
0.000228925
0.000384074
0.000632265
0.00102441
0.00163519
0.00257099
0.00397795
0.00604852
0.00902271
0.0131807
0.0188236
0.0262406
0.0356714
0.0472711
0.0610889
0.0770658
0.0950498
0.11482
0.136116
0.158656
0.182159
0.206355
0.23099
0.255836
0.280687
0.305363
0.329711
0.353599
0.37692
0.399587
0.421531
0.442697
0.463047
0.48255
0.501193
0.518968
0.535878
0.551932
0.567145
0.581537
0.59513
0.607949
0.620022
0.631377
0.642044
0.652053
0.661434
0.670217
0.678432
0.686107
0.693272
0.699953
0.706177
0.711971
0.717361
0.72237
0.727009
0.731203
0.735101
0.738835
0.742277
0.745401
0.748204
0.750636
0.752945
0.755109
0.757112
0.758954
0.760634
0.762158
0.763528
0.764748
0.765824
0.766758
0.76756
0.768231
0.768778
0.769203
0.769512
0.769721
0.76985
0.769923
0.769962
0.769982
0.769991
0.769996
0.769998
0.769999
0.77
0.77
0.77
0.77
0.77
0.77
0.77
3.86828e-06
1.6862e-05
3.8526e-05
7.43973e-05
0.000133368
0.000229549
0.000384989
0.000633526
0.00102603
0.0016371
0.00257288
0.00397933
0.00604837
0.00901945
0.0131718
0.0188047
0.0262063
0.0356154
0.0471861
0.0609671
0.0768994
0.0948314
0.114544
0.135776
0.158248
0.181681
0.205805
0.23037
0.255147
0.279932
0.304547
0.328838
0.352674
0.37595
0.398578
0.420489
0.44163
0.46196
0.481451
0.500087
0.51786
0.534774
0.550836
0.566062
0.580471
0.594083
0.606926
0.619025
0.630409
0.641106
0.651148
0.660563
0.669382
0.677633
0.685346
0.692548
0.699267
0.705529
0.71136
0.716785
0.721829
0.726509
0.730735
0.734661
0.738418
0.741884
0.745037
0.747908
0.750363
0.752689
0.75487
0.756892
0.75875
0.760448
0.761987
0.763374
0.764611
0.765704
0.766655
0.767471
0.768159
0.76872
0.769158
0.769481
0.769701
0.769838
0.769917
0.769959
0.76998
0.769991
0.769995
0.769998
0.769999
0.77
0.77
0.77
0.77
0.77
0.77
0.77
3.88361e-06
1.69274e-05
3.86678e-05
7.46508e-05
0.000133783
0.000230178
0.000385877
0.000634695
0.00102744
0.00163854
0.00257399
0.00397931
0.00604584
0.0090122
0.0131561
0.0187758
0.0261579
0.0355399
0.047075
0.0608115
0.0766904
0.0945609
0.114204
0.135362
0.157755
0.181106
0.205147
0.229629
0.254325
0.279032
0.303574
0.327798
0.351573
0.374795
0.397375
0.419247
0.440355
0.460661
0.480135
0.498761
0.516531
0.533447
0.549518
0.564757
0.579184
0.592819
0.605688
0.617817
0.629234
0.639968
0.650048
0.659503
0.668364
0.676658
0.684415
0.691662
0.698427
0.704734
0.71061
0.716079
0.721165
0.725891
0.730183
0.734138
0.737914
0.741408
0.744611
0.747546
0.750018
0.752349
0.754549
0.756596
0.75848
0.760203
0.761767
0.763176
0.764436
0.765549
0.766521
0.767358
0.768064
0.768643
0.7691
0.76944
0.769675
0.769823
0.769909
0.769955
0.769978
0.76999
0.769995
0.769998
0.769999
0.77
0.77
0.77
0.77
0.77
0.77
0.77
3.89986e-06
1.69966e-05
3.88185e-05
7.49216e-05
0.000134215
0.000230813
0.000386745
0.00063578
0.00102863
0.00163962
0.00257441
0.00397802
0.00604128
0.00900124
0.0131348
0.0187384
0.0260973
0.0354474
0.0469411
0.0606261
0.0764439
0.0942441
0.113809
0.134882
0.157185
0.180443
0.204389
0.228777
0.25338
0.277999
0.302457
0.326602
0.350306
0.373463
0.395987
0.417811
0.43888
0.459156
0.478608
0.497219
0.514983
0.531899
0.547978
0.56323
0.577676
0.591336
0.604234
0.616396
0.627849
0.638623
0.648746
0.658248
0.667156
0.6755
0.683307
0.690607
0.697423
0.703784
0.709713
0.715234
0.720371
0.725146
0.729552
0.733559
0.73729
0.740849
0.744131
0.747145
0.74967
0.752004
0.754213
0.756274
0.758177
0.759921
0.761509
0.762943
0.764228
0.765367
0.766361
0.767222
0.767949
0.76855
0.769028
0.769389
0.769642
0.769804
0.769899
0.76995
0.769976
0.769988
0.769995
0.769997
0.769999
0.769999
0.77
0.77
0.77
0.77
0.77
0.77
3.91746e-06
1.70716e-05
3.89804e-05
7.52071e-05
0.000134668
0.000231476
0.000387642
0.00063689
0.00102984
0.0016406
0.00257451
0.00397608
0.00603508
0.00898773
0.0131093
0.0186947
0.0260274
0.0353417
0.0467892
0.0604172
0.0761673
0.0938897
0.113368
0.134347
0.15655
0.179705
0.203546
0.227828
0.252328
0.276846
0.301209
0.325265
0.348887
0.371969
0.394428
0.416194
0.437216
0.457454
0.476878
0.49547
0.513223
0.530137
0.54622
0.561485
0.575949
0.589634
0.602562
0.614759
0.626252
0.63707
0.647239
0.65679
0.665751
0.674149
0.682013
0.68937
0.696245
0.702665
0.708653
0.714235
0.719431
0.724264
0.728743
0.732788
0.73654
0.740124
0.743437
0.746502
0.749134
0.751505
0.753752
0.755852
0.757792
0.759571
0.761191
0.762656
0.76397
0.765138
0.766161
0.767049
0.767806
0.768435
0.76894
0.769326
0.769601
0.769779
0.769885
0.769943
0.769973
0.769987
0.769994
0.769997
0.769999
0.769999
0.77
0.77
0.77
0.77
0.77
0.77
3.93642e-06
1.71523e-05
3.91561e-05
7.55164e-05
0.000135158
0.000232194
0.000388615
0.000638096
0.00103114
0.00164162
0.0025745
0.00397375
0.0060283
0.00897305
0.0130818
0.0186476
0.025952
0.0352281
0.046626
0.0601927
0.0758699
0.0935088
0.112894
0.133771
0.155867
0.178909
0.202635
0.226801
0.251187
0.275594
0.29985
0.323805
0.347334
0.370332
0.392714
0.414413
0.435379
0.45557
0.474958
0.493524
0.511261
0.528168
0.544252
0.559527
0.574008
0.587716
0.600674
0.612907
0.624442
0.635305
0.645525
0.655129
0.664146
0.672603
0.680528
0.687946
0.694885
0.701369
0.707423
0.713072
0.718338
0.723243
0.727803
0.73193
0.735755
0.739403
0.742757
0.745813
0.748563
0.750961
0.753235
0.75537
0.757348
0.759164
0.760822
0.762322
0.763671
0.764873
0.765931
0.766851
0.767639
0.768299
0.768835
0.76925
0.76955
0.769749
0.769869
0.769935
0.769969
0.769985
0.769993
0.769997
0.769999
0.769999
0.77
0.77
0.77
0.77
0.77
0.77
3.9572e-06
1.72408e-05
3.93486e-05
7.58646e-05
0.000135712
0.000233006
0.000389726
0.000639506
0.00103276
0.00164307
0.00257504
0.0039721
0.0060221
0.00895888
0.0130545
0.0186003
0.0258759
0.0351125
0.0464592
0.0599624
0.0755636
0.0931149
0.112402
0.133172
0.155153
0.178075
0.201677
0.225719
0.24998
0.274266
0.298404
0.322248
0.345672
0.368573
0.390868
0.412489
0.433387
0.453523
0.472866
0.491398
0.509111
0.526005
0.542086
0.557365
0.57186
0.58559
0.598578
0.610847
0.622423
0.633333
0.643605
0.653265
0.662342
0.670861
0.67885
0.686334
0.693339
0.69989
0.706011
0.711724
0.717052
0.722018
0.726644
0.730858
0.734757
0.738479
0.741919
0.745059
0.747939
0.75037
0.752656
0.75482
0.756836
0.758695
0.760394
0.761938
0.763327
0.764569
0.765666
0.766621
0.767446
0.768141
0.768711
0.769158
0.769487
0.76971
0.769847
0.769924
0.769964
0.769983
0.769992
0.769996
0.769998
0.769999
0.77
0.77
0.77
0.77
0.77
0.77
3.98006e-06
1.73381e-05
3.95594e-05
7.62412e-05
0.000136331
0.000233924
0.000390994
0.000641129
0.00103464
0.00164505
0.00257641
0.00397156
0.00601757
0.00894717
0.0130305
0.018557
0.0258044
0.0350022
0.046298
0.0597374
0.075262
0.0927241
0.111911
0.13257
0.154432
0.177228
0.2007
0.224608
0.248737
0.272891
0.296901
0.320622
0.34393
0.366723
0.388918
0.41045
0.431269
0.451337
0.470626
0.489114
0.506796
0.523668
0.539739
0.555018
0.569523
0.583271
0.596285
0.608588
0.620206
0.631163
0.641488
0.651206
0.660345
0.66893
0.676988
0.684544
0.691622
0.698247
0.704442
0.710228
0.715628
0.720661
0.725348
0.729686
0.733646
0.737334
0.740854
0.744107
0.74712
0.749665
0.751992
0.754196
0.756255
0.758159
0.759906
0.761496
0.762932
0.764219
0.765359
0.766355
0.767221
0.767956
0.768564
0.769047
0.76941
0.769661
0.76982
0.76991
0.769957
0.76998
0.769991
0.769996
0.769998
0.769999
0.77
0.77
0.77
0.77
0.77
0.77
4.00589e-06
1.74484e-05
3.97995e-05
7.6666e-05
0.000137018
0.000234991
0.000392501
0.000643115
0.00103707
0.0016478
0.00257922
0.00397325
0.00601638
0.00893976
0.0130124
0.0185221
0.0257438