/*--------------------------------*- C++ -*----------------------------------*\
  =========                 |
  \\      /  F ield         | OpenFOAM: The Open Source CFD Toolbox
   \\    /   O peration     | Website:  https://openfoam.org
    \\  /    A nd           | Version:  8
     \\/     M anipulation  |
\*---------------------------------------------------------------------------*/
FoamFile
{
    version     2.0;
    format      ascii;
    class       volScalarField;
    location    "100/fluid";
    object      O2;
}
// * * * * * * * * * * * * * * * * * * * * * * * * * * * * * * * * * * * * * //

dimensions      [0 0 0 0 0 0 0];

internalField   nonuniform List<scalar> 
4000
(
5.55468e-10
2.41509e-09
5.48721e-09
1.05098e-08
1.86455e-08
3.17072e-08
5.24818e-08
8.51825e-08
1.36045e-07
2.14069e-07
3.31836e-07
5.06261e-07
7.58994e-07
1.1161e-06
1.60659e-06
2.25945e-06
3.0998e-06
4.14431e-06
5.39812e-06
6.85248e-06
8.48751e-06
1.02743e-05
1.21786e-05
1.41672e-05
1.62037e-05
1.82565e-05
2.02979e-05
2.23037e-05
2.4253e-05
2.61295e-05
2.79327e-05
2.96523e-05
3.12831e-05
3.28262e-05
3.42915e-05
3.57021e-05
3.70999e-05
3.85538e-05
4.01675e-05
4.20869e-05
4.45074e-05
4.76805e-05
5.19165e-05
5.75894e-05
6.51439e-05
7.51063e-05
8.81018e-05
0.00010488
0.000126349
0.000153617
0.000188053
0.000231349
0.00028561
0.00035346
0.000438177
0.000543858
0.000675643
0.000839984
0.001045
0.00130094
0.00162078
0.00202099
0.00252259
0.00315248
0.00394528
0.00494542
0.00619589
0.00778309
0.00983094
0.0124434
0.0157824
0.0205956
0.0361795
0.0519475
0.067751
0.0834577
0.0989457
0.114101
0.128817
0.142989
0.156511
0.169272
0.181091
0.191958
0.201636
0.209955
0.216745
0.221897
0.225448
0.227642
0.228851
0.22946
0.229749
0.229885
0.229947
0.229976
0.229989
0.229995
0.229998
0.23
5.51878e-10
2.40047e-09
5.45763e-09
1.04623e-08
1.85802e-08
3.16303e-08
5.24072e-08
8.51392e-08
1.36082e-07
2.14259e-07
3.32281e-07
5.07095e-07
7.60396e-07
1.11832e-06
1.61006e-06
2.26478e-06
3.10836e-06
4.15711e-06
5.41642e-06
6.87929e-06
8.52606e-06
1.03281e-05
1.22517e-05
1.4259e-05
1.63169e-05
1.83927e-05
2.04593e-05
2.24919e-05
2.4466e-05
2.63842e-05
2.82184e-05
2.99603e-05
3.16064e-05
3.31589e-05
3.46289e-05
3.60407e-05
3.74383e-05
3.88931e-05
4.05118e-05
4.24437e-05
4.48883e-05
4.81003e-05
5.23929e-05
5.8142e-05
6.5794e-05
7.58774e-05
8.90206e-05
0.000105978
0.000127667
0.000155207
0.000189982
0.000233709
0.000288524
0.000357092
0.000442743
0.000549648
0.000683034
0.000849471
0.00105722
0.00131672
0.00164114
0.00204722
0.00255628
0.00319561
0.00400045
0.00501524
0.00628574
0.00790344
0.0100081
0.0127449
0.0163714
0.0233251
0.0390284
0.0549382
0.0708882
0.0867354
0.102352
0.11762
0.132428
0.146664
0.160213
0.172948
0.184719
0.195407
0.2048
0.212708
0.218965
0.22351
0.226482
0.228223
0.229136
0.229591
0.229808
0.229911
0.229958
0.229981
0.229991
0.229996
0.229998
0.23
5.51154e-10
2.39782e-09
5.45448e-09
1.04644e-08
1.86011e-08
3.16937e-08
5.25615e-08
8.54618e-08
1.36698e-07
2.15351e-07
3.34117e-07
5.1008e-07
7.65142e-07
1.12572e-06
1.62112e-06
2.281e-06
3.13021e-06
4.18648e-06
5.45749e-06
6.93534e-06
8.60081e-06
1.04256e-05
1.23752e-05
1.44149e-05
1.65083e-05
1.86165e-05
2.07262e-05
2.28117e-05
2.48547e-05
2.6818e-05
2.86905e-05
3.0464e-05
3.21351e-05
3.37062e-05
3.51891e-05
3.66097e-05
3.80144e-05
3.94786e-05
4.11143e-05
4.30764e-05
4.55713e-05
4.88597e-05
5.32602e-05
5.91535e-05
6.69906e-05
7.73055e-05
9.07347e-05
0.000108045
0.000130169
0.000158253
0.000193714
0.000238314
0.000294248
0.000364264
0.000451796
0.000561153
0.000697743
0.000868364
0.00108157
0.00134816
0.00168174
0.00209953
0.00262329
0.00328057
0.00410612
0.00514111
0.00642586
0.00803345
0.0100691
0.012603
0.0157261
0.0276049
0.0436316
0.0597698
0.0758823
0.0918385
0.107514
0.12279
0.137549
0.151673
0.165037
0.177458
0.188885
0.199092
0.207901
0.215144
0.22071
0.224628
0.227119
0.228551
0.229297
0.229667
0.229844
0.229927
0.229966
0.229984
0.229992
0.229997
0.229999
0.23
5.49599e-10
2.3915e-09
5.44236e-09
1.04475e-08
1.85858e-08
3.16975e-08
5.26151e-08
8.56248e-08
1.37059e-07
2.16066e-07
3.35418e-07
5.12338e-07
7.68945e-07
1.13199e-06
1.63132e-06
2.29699e-06
3.15561e-06
4.22614e-06
5.51335e-06
7.01171e-06
8.7038e-06
1.05608e-05
1.25435e-05
1.46287e-05
1.67818e-05
1.89745e-05
2.11568e-05
2.33019e-05
2.53878e-05
2.73956e-05
2.93104e-05
3.11224e-05
3.28264e-05
3.44244e-05
3.59285e-05
3.7366e-05
3.87867e-05
4.02711e-05
4.19376e-05
4.39493e-05
4.65218e-05
4.99244e-05
5.44839e-05
6.05887e-05
6.86983e-05
7.93571e-05
9.32163e-05
0.000111063
0.00013386
0.000162792
0.000199335
0.000245324
0.000303061
0.000375429
0.000466052
0.000579488
0.000721485
0.0008993
0.00112211
0.00140156
0.00175244
0.00219362
0.0027492
0.00345012
0.00433616
0.00544882
0.00684912
0.00866215
0.0109725
0.0138899
0.0175114
0.0332897
0.0494633
0.0657148
0.0818911
0.0978538
0.113474
0.12863
0.143201
0.157066
0.170097
0.182102
0.193041
0.202682
0.210859
0.217431
0.222336
0.225674
0.227725
0.228868
0.229452
0.229741
0.229878
0.229943
0.229973
0.229987
0.229994
0.229997
0.229999
0.23
5.48406e-10
2.38682e-09
5.4342e-09
1.0439e-08
1.85872e-08
3.17344e-08
5.27405e-08
8.5935e-08
1.3772e-07
2.17373e-07
3.37883e-07
5.1672e-07
7.7616e-07
1.14305e-06
1.6476e-06
2.32032e-06
3.18995e-06
4.27512e-06
5.5834e-06
7.10634e-06
8.8341e-06
1.07413e-05
1.28003e-05
1.4959e-05
1.71792e-05
1.94259e-05
2.16663e-05
2.38718e-05
2.60177e-05
2.80836e-05
3.00534e-05
3.19155e-05
3.36639e-05
3.53001e-05
3.68367e-05
3.83032e-05
3.97535e-05
4.12741e-05
4.2992e-05
4.50811e-05
4.77682e-05
5.13342e-05
5.61171e-05
6.25168e-05
7.10057e-05
8.21446e-05
9.66064e-05
0.000115208
0.000138955
0.000169089
0.000207161
0.000255116
0.000315391
0.000391063
0.000486008
0.000605131
0.000754643
0.000942433
0.00117854
0.00147581
0.00185068
0.00232437
0.00292443
0.00368701
0.00466019
0.00588433
0.00746048
0.0095663
0.0123735
0.0162247
0.023606
0.0395965
0.0558417
0.0721299
0.0882898
0.104174
0.119651
0.134597
0.14889
0.162406
0.175006
0.186579
0.19696
0.205985
0.213504
0.219404
0.22368
0.226499
0.228184
0.229102
0.229566
0.229794
0.229903
0.229954
0.229978
0.22999
0.229995
0.229998
0.229999
0.23
5.47466e-10
2.38315e-09
5.42796e-09
1.04329e-08
1.85889e-08
3.17643e-08
5.28403e-08
8.618e-08
1.38299e-07
2.18557e-07
3.40091e-07
5.20397e-07
7.81986e-07
1.15308e-06
1.6649e-06
2.3489e-06
3.23072e-06
4.33543e-06
5.67417e-06
7.24784e-06
9.03116e-06
1.09956e-05
1.31059e-05
1.53234e-05
1.7609e-05
1.99254e-05
2.22386e-05
2.45181e-05
2.67376e-05
2.88753e-05
3.09134e-05
3.2839e-05
3.46451e-05
3.63329e-05
3.7916e-05
3.94266e-05
4.09236e-05
4.25015e-05
4.42971e-05
4.6498e-05
4.93448e-05
5.31328e-05
5.82145e-05
6.50053e-05
7.39956e-05
8.57686e-05
0.000101027
0.000120629
0.000145633
0.000177356
0.000217447
0.00026798
0.000331568
0.000411512
0.000511993
0.000638309
0.00079719
0.000997194
0.00124923
0.0015672
0.00196886
0.00247686
0.00312001
0.00393473
0.00496365
0.00624303
0.0078538
0.00990755
0.0124266
0.0153917
0.0294123
0.0457897
0.0622171
0.0785543
0.0946654
0.110421
0.125699
0.140381
0.15435
0.167485
0.179603
0.190686
0.200512
0.208935
0.21582
0.221091
0.224801
0.227173
0.228553
0.229288
0.229657
0.229837
0.229923
0.229963
0.229983
0.229992
0.229996
0.229998
0.229999
0.23
5.47123e-10
2.38213e-09
5.42798e-09
1.04397e-08
1.86179e-08
3.18424e-08
5.30227e-08
8.65945e-08
1.39119e-07
2.20107e-07
3.42758e-07
5.25065e-07
7.90817e-07
1.16762e-06
1.68635e-06
2.38241e-06
3.28819e-06
4.4234e-06
5.79815e-06
7.40863e-06
9.23741e-06
1.12561e-05
1.34288e-05
1.57162e-05
1.8078e-05
2.04759e-05
2.28739e-05
2.52402e-05
2.75468e-05
2.97701e-05
3.18907e-05
3.38944e-05
3.57733e-05
3.75284e-05
3.91745e-05
4.07473e-05
4.23121e-05
4.39724e-05
4.5878e-05
4.82316e-05
5.12905e-05
5.53669e-05
6.08309e-05
6.81177e-05
7.77402e-05
9.03103e-05
0.000106569
0.000127424
0.000154002
0.000187711
0.000230319
0.000284058
0.000351753
0.000436985
0.000544303
0.000679501
0.00084997
0.00106517
0.00133723
0.00168177
0.00211902
0.00267525
0.00338487
0.00429332
0.00544121
0.00691499
0.00887781
0.0114525
0.0148631
0.0196627
0.0358202
0.052196
0.0685967
0.084859
0.100839
0.116405
0.131437
0.145818
0.159431
0.172157
0.183843
0.194416
0.203691
0.211527
0.217809
0.2225
0.225709
0.227704
0.228837
0.22943
0.229725
0.229869
0.229938
0.229971
0.229986
0.229993
0.229997
0.229999
0.229999
0.23
5.47298e-10
2.38333e-09
5.43303e-09
1.04562e-08
1.86608e-08
3.19461e-08
5.32611e-08
8.70741e-08
1.40038e-07
2.21745e-07
3.45744e-07
5.30771e-07
8.0029e-07
1.18277e-06
1.71328e-06
2.42526e-06
3.35004e-06
4.511e-06
5.91942e-06
7.57229e-06
9.45272e-06
1.15324e-05
1.37752e-05
1.61411e-05
1.85888e-05
2.10785e-05
2.3573e-05
2.60387e-05
2.84459e-05
3.07691e-05
3.29876e-05
3.50856e-05
3.70541e-05
3.88943e-05
4.06227e-05
4.22793e-05
4.39366e-05
4.57091e-05
4.77617e-05
5.03145e-05
5.36435e-05
5.80804e-05
6.40161e-05
7.19083e-05
8.2297e-05
9.58283e-05
0.000113288
0.000135642
0.000164096
0.000200159
0.000245736
0.000303238
0.000375721
0.000467076
0.000582256
0.000727587
0.000911161
0.00114336
0.00143753
0.00181089
0.00228576
0.00289117
0.00366518
0.00465708
0.00590266
0.0075095
0.00965857
0.0124901
0.0162875
0.0258751
0.0420008
0.0583384
0.0746688
0.090816
0.106631
0.121983
0.136752
0.150822
0.164079
0.176384
0.187658
0.19774
0.206488
0.21377
0.219494
0.223665
0.226442
0.228125
0.229058
0.229541
0.229779
0.229895
0.22995
0.229976
0.229989
0.229995
0.229997
0.229999
0.23
0.23
5.48037e-10
2.38701e-09
5.44362e-09
1.04825e-08
1.87226e-08
3.20866e-08
5.35487e-08
8.76394e-08
1.41108e-07
2.23719e-07
3.49475e-07
5.37008e-07
8.10325e-07
1.2004e-06
1.74091e-06
2.46741e-06
3.41255e-06
4.60109e-06
6.04558e-06
7.74406e-06
9.6803e-06
1.18262e-05
1.41455e-05
1.65974e-05
1.91399e-05
2.17316e-05
2.43341e-05
2.6912e-05
2.94339e-05
3.18726e-05
3.42055e-05
3.64154e-05
3.84925e-05
4.04381e-05
4.22709e-05
4.4036e-05
4.58145e-05
4.77335e-05
4.99751e-05
5.27787e-05
5.64412e-05
6.13158e-05
6.78164e-05
7.64262e-05
8.77158e-05
0.00010237
0.000121225
0.000145311
0.00017592
0.000214672
0.000263615
0.000325346
0.000403166
0.000501274
0.000625029
0.000781273
0.000978763
0.00122872
0.00154552
0.00194762
0.00245865
0.00310881
0.00393641
0.00498531
0.00629465
0.0079512
0.010087
0.0127308
0.0158798
0.0310349
0.0474608
0.0639099
0.0802319
0.0962863
0.111943
0.127083
0.141592
0.155361
0.168277
0.180171
0.191032
0.200658
0.208916
0.215686
0.220903
0.224615
0.227024
0.228451
0.229227
0.229624
0.229819
0.229914
0.229959
0.22998
0.229991
0.229996
0.229998
0.229999
0.23
0.23
5.49159e-10
2.39233e-09
5.45783e-09
1.05163e-08
1.87993e-08
3.22457e-08
5.38665e-08
8.82502e-08
1.42238e-07
2.25884e-07
3.53246e-07
5.435e-07
8.21607e-07
1.2185e-06
1.76929e-06
2.51078e-06
3.47706e-06
4.69441e-06
6.17683e-06
7.92354e-06
9.91912e-06
1.21358e-05
1.45373e-05
1.70824e-05
1.97279e-05
2.24317e-05
2.51536e-05
2.78567e-05
3.0508e-05
3.30784e-05
3.55435e-05
3.78847e-05
4.00913e-05
4.2165e-05
4.41273e-05
4.60291e-05
4.79613e-05
5.0066e-05
5.25437e-05
5.56551e-05
5.97194e-05
6.51132e-05
7.22754e-05
8.17173e-05
9.40438e-05
0.000109983
0.000130425
0.000156475
0.000189515
0.000231288
0.000284
0.000350448
0.000434198
0.000539796
0.000673053
0.000841425
0.00105449
0.00132463
0.00166785
0.00210501
0.0026634
0.00337896
0.00429944
0.00546409
0.0069666
0.00898492
0.0116408
0.0151676
0.0201771
0.0363704
0.0527665
0.0691632
0.0853931
0.101311
0.116788
0.131707
0.145957
0.15943
0.172015
0.18356
0.19402
0.203214
0.211014
0.217314
0.222075
0.225387
0.227488
0.228707
0.229359
0.229689
0.229851
0.229929
0.229966
0.229984
0.229992
0.229996
0.229998
0.229999
0.23
0.23
5.50564e-10
2.39886e-09
5.47491e-09
1.05559e-08
1.88834e-08
3.24184e-08
5.42103e-08
8.89171e-08
1.43504e-07
2.28129e-07
3.57142e-07
5.50061e-07
8.32895e-07
1.23676e-06
1.79797e-06
2.55472e-06
3.54267e-06
4.78974e-06
6.3115e-06
8.1085e-06
1.01663e-05
1.24576e-05
1.49463e-05
1.75908e-05
2.03472e-05
2.31724e-05
2.60249e-05
2.88664e-05
3.16619e-05
3.43808e-05
3.6997e-05
3.94902e-05
4.18492e-05
4.40764e-05
4.61964e-05
4.82668e-05
5.03897e-05
5.27235e-05
5.54892e-05
5.89696e-05
6.35074e-05
6.95041e-05
7.74245e-05
8.78104e-05
0.000101303
0.000118678
0.000140883
0.000169101
0.00020481
0.000249876
0.000306661
0.00037816
0.000468186
0.000581595
0.000724589
0.00090511
0.00113335
0.00142244
0.00178937
0.00225621
0.00285189
0.00361453
0.00459404
0.0058258
0.00742457
0.00958266
0.0124466
0.0163127
0.0250165
0.0412015
0.0575726
0.073912
0.0900457
0.105828
0.121131
0.13584
0.149846
0.163041
0.175315
0.186556
0.19664
0.205433
0.212812
0.218685
0.223042
0.22601
0.227854
0.228905
0.22946
0.22974
0.229876
0.229941
0.229972
0.229987
0.229994
0.229997
0.229999
0.229999
0.23
0.23
5.5206e-10
2.40577e-09
5.4927e-09
1.05954e-08
1.89669e-08
3.25882e-08
5.45449e-08
8.95588e-08
1.44704e-07
2.30307e-07
3.61034e-07
5.56962e-07
8.43975e-07
1.25459e-06
1.82617e-06
2.59826e-06
3.60811e-06
4.88538e-06
6.44731e-06
8.29592e-06
1.04179e-05
1.27868e-05
1.53666e-05
1.81157e-05
2.09898e-05
2.39448e-05
2.69382e-05
2.99303e-05
3.28847e-05
3.5769e-05
3.85554e-05
4.12226e-05
4.37586e-05
4.61667e-05
4.84756e-05
5.07503e-05
5.3105e-05
5.57162e-05
5.88258e-05
6.27398e-05
6.78253e-05
7.45088e-05
8.32826e-05
9.47207e-05
0.000109504
0.000128458
0.000152596
0.000183181
0.000221797
0.00027044
0.000331637
0.00040859
0.000505363
0.000627119
0.000780428
0.000973648
0.00121743
0.00152535
0.00191471
0.00240755
0.00303197
0.00382363
0.00482458
0.00605909
0.0076198
0.00964689
0.0121845
0.0153086
0.0288101
0.0452815
0.0617622
0.0781049
0.0941716
0.109836
0.124981
0.139499
0.153284
0.166233
0.178213
0.189156
0.198906
0.207338
0.214339
0.219832
0.223836
0.22651
0.228142
0.229059
0.229539
0.229778
0.229894
0.22995
0.229976
0.229989
0.229995
0.229998
0.229999
0.229999
0.23
0.23
5.53507e-10
2.41242e-09
5.50953e-09
1.06327e-08
1.90451e-08
3.27462e-08
5.48546e-08
9.01492e-08
1.45801e-07
2.32272e-07
3.64447e-07
5.62679e-07
8.54108e-07
1.27142e-06
1.85324e-06
2.64048e-06
3.67206e-06
4.9794e-06
6.58154e-06
8.48212e-06
1.06691e-05
1.3117e-05
1.57904e-05
1.86477e-05
2.16444e-05
2.4736e-05
2.7879e-05
3.10325e-05
3.41591e-05
3.72248e-05
4.02006e-05
4.30638e-05
4.58021e-05
4.84204e-05
5.09516e-05
5.34693e-05
5.61008e-05
5.90408e-05
6.25525e-05
6.69652e-05
7.26696e-05
8.01173e-05
8.98286e-05
0.000102411
0.000118587
0.000139235
0.000165438
0.000198547
0.000240261
0.000292724
0.00035865
0.000441486
0.00054561
0.000676592
0.000841526
0.00104945
0.0013119
0.00164358
0.00206325
0.00259483
0.00326882
0.00412395
0.00520393
0.00654967
0.00826401
0.0105
0.0133334
0.0168725
0.0327176
0.049149
0.065588
0.0818656
0.0978373
0.113376
0.128369
0.142709
0.156295
0.169021
0.180747
0.191426
0.200864
0.208967
0.215627
0.220785
0.224484
0.226913
0.228371
0.22918
0.229599
0.229807
0.229908
0.229956
0.229979
0.22999
0.229995
0.229998
0.229999
0.23
0.23
0.23
5.54735e-10
2.41804e-09
5.52391e-09
1.06651e-08
1.91133e-08
3.28844e-08
5.51256e-08
9.0664e-08
1.46749e-07
2.34067e-07
3.67691e-07
5.68418e-07
8.63602e-07
1.28735e-06
1.87884e-06
2.68057e-06
3.7331e-06
5.06965e-06
6.71109e-06
8.66276e-06
1.09141e-05
1.34408e-05
1.6208e-05
1.91748e-05
2.22967e-05
2.55288e-05
2.88273e-05
3.21506e-05
3.54603e-05
3.87214e-05
4.19038e-05
4.49842e-05
4.79502e-05
5.08087e-05
5.35977e-05
5.63994e-05
5.93547e-05
6.26764e-05
6.66481e-05
7.16206e-05
7.80069e-05
8.62819e-05
9.69923e-05
0.000110778
0.000128402
0.000150795
0.000179107
0.000214776
0.00025961
0.000315898
0.000386543
0.000475238
0.000586694
0.000726926
0.000903642
0.00112673
0.00140893
0.00176667
0.00222123
0.00280025
0.00353977
0.004487
0.00567802
0.00719874
0.00922028
0.0118438
0.0152642
0.0199272
0.0361779
0.0525948
0.0689843
0.085184
0.101052
0.116465
0.13131
0.145482
0.158879
0.171397
0.182909
0.193334
0.202518
0.210335
0.2167
0.221569
0.22501
0.227235
0.228552
0.229274
0.229646
0.229829
0.229918
0.229961
0.229981
0.229991
0.229996
0.229998
0.229999
0.23
0.23
0.23
5.55713e-10
2.42255e-09
5.53539e-09
1.06909e-08
1.91695e-08
3.30011e-08
5.53592e-08
9.11179e-08
1.47607e-07
2.35583e-07
3.7046e-07
5.73263e-07
8.7173e-07
1.30106e-06
1.90188e-06
2.71728e-06
3.78949e-06
5.15363e-06
6.83237e-06
8.83284e-06
1.11461e-05
1.37489e-05
1.66078e-05
1.96822e-05
2.29282e-05
2.6301e-05
2.97569e-05
3.3254e-05
3.67535e-05
4.022e-05
4.36229e-05
4.69387e-05
5.01558e-05
5.32838e-05
5.63662e-05
5.94936e-05
6.28203e-05
6.65756e-05
7.10616e-05
7.66479e-05
8.37666e-05
9.29131e-05
0.000104658
0.000119669
0.000138747
0.000162867
0.000193236
0.000231362
0.000279143
0.000338979
0.000413912
0.000507813
0.000625617
0.000773635
0.00095996
0.001195
0.0014922
0.00186897
0.002348
0.00295896
0.00374088
0.00474405
0.00600213
0.0076318
0.00981803
0.0126794
0.0164526
0.0228361
0.039098
0.0555044
0.0718575
0.0879946
0.103776
0.11908
0.133795
0.147817
0.161043
0.173368
0.184681
0.194868
0.203853
0.211456
0.217577
0.222205
0.225432
0.227491
0.228695
0.229349
0.229683
0.229847
0.229927
0.229965
0.229983
0.229992
0.229996
0.229998
0.229999
0.23
0.23
0.23
5.56379e-10
2.42569e-09
5.54374e-09
1.07104e-08
1.92114e-08
3.30905e-08
5.55441e-08
9.14858e-08
1.48316e-07
2.36909e-07
3.72783e-07
5.77436e-07
8.79077e-07
1.31293e-06
1.92096e-06
2.74878e-06
3.83924e-06
5.22861e-06
6.94145e-06
8.9868e-06
1.13573e-05
1.40312e-05
1.6976e-05
2.01522e-05
2.35167e-05
2.70253e-05
3.06346e-05
3.43032e-05
3.79926e-05
4.16678e-05
4.52985e-05
4.88619e-05
5.23484e-05
5.57711e-05
5.91795e-05
6.26714e-05
6.64136e-05
7.06494e-05
7.56955e-05
8.1937e-05
8.98209e-05
9.98595e-05
0.000112643
0.000128864
0.000149352
0.000175118
0.000207412
0.000247793
0.000298217
0.000361152
0.000439717
0.000537867
0.000660627
0.000814397
0.00100735
0.00124995
0.00155565
0.00194176
0.00243071
0.00305163
0.00384258
0.00485048
0.00610926
0.00772996
0.00989044
0.0126955
0.0163605
0.0249997
0.0413691
0.057822
0.074177
0.090282
0.106005
0.121228
0.135843
0.149748
0.162842
0.175015
0.186154
0.196188
0.204951
0.212362
0.218287
0.222715
0.225768
0.227692
0.228807
0.229407
0.229711
0.229861
0.229934
0.229968
0.229985
0.229993
0.229997
0.229998
0.229999
0.23
0.23
0.23
5.56713e-10
2.42731e-09
5.54838e-09
1.07221e-08
1.92394e-08
3.31518e-08
5.56735e-08
9.17536e-08
1.4885e-07
2.37937e-07
3.74697e-07
5.80769e-07
8.8491e-07
1.32317e-06
1.93785e-06
2.77477e-06
3.87979e-06
5.29103e-06
7.03396e-06
9.11872e-06
1.15395e-05
1.42761e-05
1.72975e-05
2.0565e-05
2.40367e-05
2.76693e-05
3.14203e-05
3.52495e-05
3.91193e-05
4.2996e-05
4.68507e-05
5.06628e-05
5.44258e-05
5.81583e-05
6.19162e-05
6.58027e-05
6.99944e-05
7.47448e-05
8.0381e-05
8.72986e-05
9.59561e-05
0.000106879
0.000120673
0.000138051
0.000159864
0.00018715
0.000221187
0.000263566
0.000316272
0.000381802
0.000463295
0.000564711
0.000691054
0.000848654
0.00104554
0.0012919
0.00160071
0.00198849
0.00247637
0.0030914
0.0038684
0.00485067
0.00606215
0.00760309
0.00963034
0.0122226
0.0155588
0.0265112
0.0430478
0.0595855
0.0759706
0.0920679
0.107756
0.122922
0.137464
0.151279
0.164265
0.176323
0.187369
0.197261
0.205872
0.213088
0.218847
0.223115
0.226029
0.227848
0.228893
0.229452
0.229734
0.229872
0.229939
0.229971
0.229986
0.229993
0.229997
0.229999
0.229999
0.23
0.23
0.23
5.56764e-10
2.42767e-09
5.54989e-09
1.07271e-08
1.92536e-08
3.31876e-08
5.57554e-08
9.19263e-08
1.49203e-07
2.38637e-07
3.76045e-07
5.8328e-07
8.89291e-07
1.3306e-06
1.95031e-06
2.79528e-06
3.91137e-06
5.33856e-06
7.10485e-06
9.22156e-06
1.16837e-05
1.4472e-05
1.75564e-05
2.08997e-05
2.44607e-05
2.81977e-05
3.20694e-05
3.60369e-05
4.00644e-05
4.41202e-05
4.8178e-05
5.22205e-05
5.6246e-05
6.028e-05
6.43872e-05
6.86808e-05
7.3335e-05
7.86083e-05
8.48338e-05
9.24135e-05
0.000101814
0.000113572
0.000128305
0.000146744
0.000169757
0.000198402
0.000233978
0.000278094
0.000332753
0.000400458
0.000484348
0.000588359
0.00071744
0.00087782
0.00107735
0.00132593
0.00163606
0.00202357
0.00250849
0.00311623
0.0038791
0.00483833
0.00601038
0.00748952
0.0094204
0.0118701
0.0149887
0.0276843
0.0443208
0.06091
0.0773121
0.0934007
0.10906
0.124181
0.138665
0.152414
0.165336
0.177331
0.188284
0.19807
0.206566
0.213658
0.219269
0.223415
0.226224
0.227964
0.228957
0.229485
0.229751
0.229881
0.229943
0.229973
0.229987
0.229994
0.229997
0.229999
0.229999
0.23
0.23
0.23
5.5661e-10
2.42707e-09
5.54896e-09
1.07268e-08
1.92564e-08
3.31999e-08
5.57914e-08
9.20157e-08
1.49401e-07
2.39047e-07
3.76854e-07
5.84832e-07
8.92179e-07
1.33569e-06
1.95882e-06
2.80914e-06
3.93354e-06
5.37247e-06
7.15421e-06
9.29196e-06
1.17823e-05
1.46067e-05
1.7736e-05
2.11337e-05
2.47597e-05
2.8573e-05
3.25339e-05
3.66049e-05
4.07521e-05
4.49458e-05
4.91629e-05
5.339e-05
5.7631e-05
6.19187e-05
6.63302e-05
7.09956e-05
7.60854e-05
8.18407e-05
8.8597e-05
9.67608e-05
0.000106805
0.000119276
0.000134803
0.000154129
0.000178139
0.000207908
0.00024475
0.00029029
0.000346543
0.000416021
0.000501861
0.000607987
0.000739318
0.000902024
0.00110386
0.0013546
0.00166652
0.00205516
0.00254013
0.00314631
0.00390529
0.00485734
0.00601911
0.00748083
0.0093867
0.0118032
0.0148701
0.0285759
0.0452381
0.0618361
0.0782334
0.0943063
0.109941
0.125034
0.139486
0.153201
0.166078
0.178014
0.188902
0.198617
0.207034
0.214043
0.219568
0.223624
0.226358
0.228044
0.229001
0.229508
0.229762
0.229886
0.229946
0.229974
0.229988
0.229994
0.229997
0.229999
0.229999
0.23
0.23
0.23
5.56444e-10
2.42636e-09
5.54746e-09
1.07244e-08
1.92536e-08
3.31987e-08
5.57969e-08
9.20396e-08
1.49468e-07
2.39205e-07
3.77193e-07
5.85508e-07
8.93462e-07
1.33802e-06
1.96293e-06
2.81601e-06
3.94454e-06
5.38939e-06
7.17955e-06
9.32838e-06
1.18328e-05
1.46753e-05
1.78271e-05
2.12524e-05
2.49117e-05
2.87647e-05
3.27725e-05
3.68986e-05
4.11103e-05
4.53796e-05
4.96856e-05
5.40179e-05
5.83843e-05
6.2824e-05
6.74237e-05
7.23283e-05
7.7729e-05
8.38323e-05
9.09532e-05
9.95063e-05
0.000109972
0.000122903
0.000138939
0.000158831
0.000183477
0.000213962
0.000251612
0.000298062
0.00035534
0.000425965
0.000513077
0.000620604
0.000753456
0.000917794
0.00112135
0.00137387
0.00168761
0.00207806
0.00256486
0.0031729
0.0039339
0.00488839
0.00605529
0.00752144
0.00943391
0.0118585
0.0149264
0.0290719
0.0457374
0.0623327
0.0787227
0.0947846
0.110406
0.125482
0.139914
0.153604
0.166454
0.178359
0.189214
0.198892
0.20727
0.214236
0.219716
0.223728
0.226426
0.228085
0.229024
0.22952
0.229769
0.22989
0.229948
0.229975
0.229988
0.229994
0.229997
0.229999
0.229999
0.23
0.23
0.23
5.5649e-10
2.42655e-09
5.54787e-09
1.07251e-08
1.92546e-08
3.32001e-08
5.57985e-08
9.20409e-08
1.49468e-07
2.392e-07
3.77176e-07
5.85468e-07
8.93377e-07
1.33786e-06
1.96264e-06
2.81551e-06
3.94376e-06
5.38825e-06
7.17797e-06
9.32632e-06
1.18304e-05
1.46725e-05
1.78242e-05
2.12495e-05
2.49093e-05
2.87631e-05
3.27721e-05
3.68999e-05
4.11136e-05
4.53855e-05
4.96944e-05
5.40302e-05
5.84005e-05
6.28446e-05
6.74493e-05
7.23593e-05
7.77659e-05
8.38755e-05
9.10034e-05
9.95646e-05
0.000110039
0.00012298
0.000139027
0.000158932
0.00018359
0.000214087
0.000251748
0.000298207
0.000355487
0.000426106
0.0005132
0.000620687
0.000753473
0.000917706
0.00112111
0.00137341
0.00168686
0.00207696
0.00256336
0.00317101
0.00393172
0.00488622
0.00605379
0.00752129
0.00943576
0.0118617
0.0149265
0.0290719
0.0457389
0.0623356
0.0787264
0.0947886
0.11041
0.125486
0.139917
0.153607
0.166457
0.178362
0.189217
0.198896
0.207274
0.214239
0.219718
0.22373
0.226427
0.228086
0.229025
0.229521
0.229769
0.22989
0.229948
0.229976
0.229988
0.229995
0.229997
0.229999
0.229999
0.23
0.23
0.23
5.56728e-10
2.42756e-09
5.55e-09
1.07286e-08
1.92592e-08
3.32039e-08
5.57962e-08
9.20197e-08
1.494e-07
2.39033e-07
3.7681e-07
5.84723e-07
8.91945e-07
1.33523e-06
1.95799e-06
2.80774e-06
3.93132e-06
5.3692e-06
7.14973e-06
9.2861e-06
1.1775e-05
1.45985e-05
1.77273e-05
2.11251e-05
2.47521e-05
2.85675e-05
3.25317e-05
3.66072e-05
4.07601e-05
4.49611e-05
4.91867e-05
5.34237e-05
5.76758e-05
6.19759e-05
6.64012e-05
7.10817e-05
7.61877e-05
8.1961e-05
8.87375e-05
9.69242e-05
0.000106995
0.000119494
0.000135054
0.000154415
0.000178464
0.000208271
0.000245151
0.000290724
0.000347
0.000416484
0.0005023
0.000608359
0.00073956
0.000902051
0.00110356
0.00135383
0.00166513
0.00205299
0.00253708
0.00314241
0.00390082
0.00485301
0.00601635
0.00748107
0.00939126
0.0118103
0.0148688
0.0285774
0.045243
0.0618445
0.0782442
0.0943182
0.109954
0.125047
0.139498
0.153213
0.166089
0.178025
0.188913
0.198628
0.207045
0.214053
0.219575
0.223628
0.226361
0.228046
0.229003
0.22951
0.229764
0.229888
0.229947
0.229975
0.229988
0.229994
0.229997
0.229999
0.229999
0.23
0.23
0.23
5.56956e-10
2.42847e-09
5.55162e-09
1.07302e-08
1.92584e-08
3.31944e-08
5.57639e-08
9.1935e-08
1.49206e-07
2.38621e-07
3.75983e-07
5.83128e-07
8.88989e-07
1.32993e-06
1.94905e-06
2.79315e-06
3.90807e-06
5.33367e-06
7.09796e-06
9.21271e-06
1.1673e-05
1.44598e-05
1.75432e-05
2.08863e-05
2.44485e-05
2.81881e-05
3.20643e-05
3.60382e-05
4.00743e-05
4.41407e-05
4.82113e-05
5.22686e-05
5.6311e-05
6.03636e-05
6.44913e-05
6.88074e-05
7.34863e-05
7.87871e-05
8.50437e-05
9.26587e-05
0.0001021
0.000113904
0.00012869
0.000147188
0.000170268
0.000198987
0.000234641
0.000278838
0.000333578
0.000401359
0.000485309
0.000589354
0.000718431
0.000878749
0.00107814
0.00132648
0.00163628
0.00202336
0.0025078
0.00311513
0.00387786
0.00483754
0.00601089
0.00749227
0.00942571
0.0118752
0.0149848
0.0276934
0.0443328
0.0609251
0.0773297
0.09342
0.10908
0.124203
0.138687
0.152436
0.165359
0.177353
0.188305
0.19809
0.206583
0.213673
0.219281
0.223424
0.22623
0.227968
0.22896
0.229488
0.229753
0.229882
0.229944
0.229974
0.229988
0.229994
0.229997
0.229999
0.229999
0.23
0.23
0.23
5.56977e-10
2.42843e-09
5.55078e-09
1.07264e-08
1.92462e-08
3.31618e-08
5.56865e-08
9.17659e-08
1.48853e-07
2.37911e-07
3.74601e-07
5.8053e-07
8.84378e-07
1.32222e-06
1.93623e-06
2.7721e-06
3.87555e-06
5.28486e-06
7.02551e-06
9.10756e-06
1.15254e-05
1.42593e-05
1.72785e-05
2.0545e-05
2.40172e-05
2.76522e-05
3.14079e-05
3.52443e-05
3.9124e-05
4.30133e-05
4.68833e-05
5.07132e-05
5.44965e-05
5.82515e-05
6.20337e-05
6.59468e-05
7.01678e-05
7.49509e-05
8.06243e-05
8.75845e-05
9.62916e-05
0.000107272
0.000121134
0.00013859
0.000160494
0.000187886
0.000222044
0.00026456
0.000317422
0.000383128
0.000464816
0.000566447
0.000693025
0.000850882
0.00104804
0.0012947
0.00160383
0.00199196
0.00248021
0.00309564
0.00387303
0.00485554
0.00606692
0.0076071
0.00963239
0.012221
0.0155552
0.0265368
0.0430717
0.0596094
0.0759951
0.0920931
0.107782
0.12295
0.137493
0.15131
0.164297
0.176355
0.1874
0.19729
0.205897
0.21311
0.218864
0.223128
0.226037
0.227853
0.228896
0.229454
0.229735
0.229873
0.22994
0.229972
0.229987
0.229994
0.229997
0.229999
0.229999
0.23
0.23
0.23
5.56708e-10
2.42707e-09
5.54675e-09
1.07158e-08
1.92204e-08
3.31034e-08
5.55605e-08
9.15027e-08
1.48324e-07
2.36888e-07
3.72695e-07
5.77194e-07
8.78558e-07
1.31194e-06
1.91919e-06
2.74576e-06
3.83455e-06
5.22152e-06
6.93125e-06
8.97291e-06
1.13394e-05
1.40094e-05
1.69509e-05
2.01249e-05
2.34887e-05
2.69987e-05
3.06119e-05
3.42872e-05
3.79863e-05
4.16742e-05
4.53206e-05
4.89026e-05
5.24102e-05
5.58563e-05
5.929e-05
6.28093e-05
6.65815e-05
7.08506e-05
7.59346e-05
8.22195e-05
9.01543e-05
0.000100253
0.000113107
0.000129413
0.000150001
0.000175887
0.000208323
0.000248874
0.000299503
0.000362683
0.000441543
0.00054005
0.000663243
0.000817538
0.00101112
0.00125447
0.00156103
0.0019481
0.00243801
0.00305976
0.00385114
0.0048584
0.00611508
0.00773149
0.00988565
0.012686
0.0163616
0.0250417
0.0414051
0.0578551
0.0742089
0.090314
0.106038
0.121262
0.135878
0.149785
0.16288
0.175054
0.186194
0.196225
0.204985
0.212391
0.218311
0.222732
0.225779
0.227699
0.22881
0.229409
0.229712
0.229861
0.229934
0.229968
0.229985
0.229993
0.229997
0.229998
0.229999
0.23
0.23
0.23
5.5611e-10
2.42424e-09
5.5391e-09
1.06976e-08
1.918e-08
3.30165e-08
5.53796e-08
9.11409e-08
1.47626e-07
2.35583e-07
3.70396e-07
5.73063e-07
8.71253e-07
1.30005e-06
1.90002e-06
2.7141e-06
3.78426e-06
5.14557e-06
6.82067e-06
8.81674e-06
1.1125e-05
1.37228e-05
1.6577e-05
1.96475e-05
2.28912e-05
2.62638e-05
2.97219e-05
3.3224e-05
3.67316e-05
4.02093e-05
4.36264e-05
4.69592e-05
5.01959e-05
5.33457e-05
5.64515e-05
5.96039e-05
6.29576e-05
6.67425e-05
7.12616e-05
7.68856e-05
8.40481e-05
9.3246e-05
0.000105052
0.000120136
0.000139302
0.000163528
0.000194025
0.000232307
0.000280279
0.000340351
0.000415576
0.00050984
0.000628096
0.000776674
0.000963687
0.00119956
0.00149773
0.00187558
0.0023557
0.00296759
0.00374991
0.00475239
0.00600809
0.0076332
0.00981365
0.0126731
0.016465
0.0228794
0.0391338
0.0555386
0.0718913
0.0880296
0.103813
0.11912
0.133837
0.147861
0.161089
0.173417
0.18473
0.194913
0.203895
0.211493
0.217606
0.222226
0.225446
0.227498
0.228698
0.229349
0.229682
0.229846
0.229926
0.229965
0.229983
0.229992
0.229996
0.229998
0.229999
0.23
0.23
0.23
5.55188e-10
2.41996e-09
5.52805e-09
1.06725e-08
1.91253e-08
3.29023e-08
5.51504e-08
9.06955e-08
1.46784e-07
2.34084e-07
3.67658e-07
5.68254e-07
8.63167e-07
1.28646e-06
1.87707e-06
2.67733e-06
3.72767e-06
5.06114e-06
6.6985e-06
8.64513e-06
1.08907e-05
1.34111e-05
1.61722e-05
1.91335e-05
2.22512e-05
2.54809e-05
2.87793e-05
3.21052e-05
3.54203e-05
3.86898e-05
4.18835e-05
4.49777e-05
4.79599e-05
5.08365e-05
5.36448e-05
5.64668e-05
5.94435e-05
6.27878e-05
6.6784e-05
7.17833e-05
7.81996e-05
8.65089e-05
9.72589e-05
0.00011109
0.000128768
0.000151224
0.00017961
0.000215364
0.000260298
0.000316703
0.000387483
0.000476333
0.000587962
0.000728384
0.000905296
0.00112857
0.00141092
0.00176872
0.00222315
0.00280175
0.00354036
0.00448605
0.00567425
0.0071937
0.00921478
0.0118424
0.0152807
0.0199562
0.0362047
0.0526327
0.0690276
0.08523
0.1011
0.116515
0.131361
0.145533
0.15893
0.171448
0.182955
0.19338
0.202562
0.210376
0.216734
0.221594
0.225026
0.227243
0.228554
0.229274
0.229643
0.229827
0.229917
0.22996
0.229981
0.229991
0.229996
0.229998
0.229999
0.23
0.23
0.23
5.53985e-10
2.41443e-09
5.5139e-09
1.06406e-08
1.9058e-08
3.2766e-08
5.48829e-08
9.01859e-08
1.45842e-07
2.32305e-07
3.64436e-07
5.62562e-07
8.53737e-07
1.27053e-06
1.85146e-06
2.63727e-06
3.66663e-06
4.97078e-06
6.56859e-06
8.46368e-06
1.06442e-05
1.30849e-05
1.57509e-05
1.86011e-05
2.15917e-05