/*--------------------------------*- C++ -*----------------------------------*\
  =========                 |
  \\      /  F ield         | OpenFOAM: The Open Source CFD Toolbox
   \\    /   O peration     | Website:  https://openfoam.org
    \\  /    A nd           | Version:  8
     \\/     M anipulation  |
\*---------------------------------------------------------------------------*/
FoamFile
{
    version     2.0;
    format      ascii;
    class       volScalarField;
    location    "100/fluid";
    object      Qdot;
}
// * * * * * * * * * * * * * * * * * * * * * * * * * * * * * * * * * * * * * //

dimensions      [1 -1 -3 0 0 0 0];

internalField   nonuniform List<scalar> 
4000
(
-3.72878e-13
-1.40795e-12
0
1.28986e-20
0
0
0
-6.97212e-11
0
0
5.14625e-19
5.58835e-10
2.9822e-14
3.02931e-14
-1.29154e-09
-3.11497e-17
2.13825e-09
4.16648e-07
9.57192e-09
3.22071e-07
1.38799e-06
1.12504e-05
0.000104838
0.000851468
0.00589566
0.0346646
0.173769
0.749685
2.81687
9.33509
27.6484
74.0036
180.802
406.692
848.282
1649.87
3004.34
5135.94
8278.86
12694.9
18636.6
26313.1
35969.1
47924.4
62598.1
80593.2
102750
130189
164388
207235
261133
329125
415072
523884
661832
836949
1.05955e+06
1.34294e+06
1.70431e+06
2.16595e+06
2.75686e+06
3.51493e+06
4.48982e+06
5.74694e+06
7.37283e+06
9.48253e+06
1.21997e+07
1.57497e+07
2.04527e+07
2.66289e+07
5.32606e+07
3.28929e+08
2.19585e+07
1.67677e+07
1.26085e+07
9.31172e+06
6.73535e+06
4.75678e+06
3.27047e+06
2.18587e+06
1.42511e+06
924829
542312
101063
4913.85
90.0258
0.81129
0.00533715
4.92962e-05
1.15202e-06
8.0957e-08
1.45078e-08
3.75978e-09
1.36753e-09
6.39513e-10
2.5151e-10
1.15676e-10
4.61323e-11
2.05422e-11
4.45187e-12
0
0
0
-3.0451e-07
0
0
0
3.47834e-07
0
0
5.04215e-19
5.4637e-10
6.12472e-10
-1.01078e-09
1.02272e-09
-3.02919e-17
-2.09118e-16
-1.82809e-15
9.30796e-09
1.07199e-07
1.15304e-06
1.10778e-05
0.000104215
0.000849725
0.00592222
0.0350487
0.176826
0.767524
2.89893
9.66298
28.7387
77.1413
188.801
425.037
886.472
1722.34
3129.5
5330.96
8559.5
13081.4
19127.8
26905.9
36661.2
48724.2
63532
81716.9
104151
131992
166764
210409
265404
334885
422842
534356
675930
855907
1.08502e+06
1.37715e+06
1.75023e+06
2.22764e+06
2.83982e+06
3.62671e+06
4.6409e+06
5.95211e+06
7.65345e+06
9.86894e+06
1.27387e+07
1.65207e+07
2.16161e+07
2.848e+07
1.03707e+08
2.6566e+08
2.14989e+07
1.62357e+07
1.20924e+07
8.84982e+06
6.34208e+06
4.4353e+06
3.01787e+06
1.99586e+06
1.29101e+06
840722
378086
43210.9
1325.44
16.718
0.115298
0.000750725
9.40023e-06
3.50323e-07
3.78362e-08
8.86068e-09
2.73839e-09
1.0561e-09
4.90775e-10
2.25749e-10
9.44259e-11
4.23234e-11
1.59472e-11
4.49956e-12
-9.74934e-18
-4.08796e-17
2.90291e-07
1.27225e-20
0
-1.29723e-11
0
3.40492e-07
0
1.40862e-10
0
0
5.92538e-10
0
-3.84555e-07
-2.92379e-17
3.89462e-07
-1.84168e-15
1.79963e-08
3.08287e-07
9.49047e-07
1.10404e-05
0.00010562
0.000867186
0.00608808
0.0362997
0.18434
0.806048
3.0691
10.285
30.7168
82.7095
202.859
457.185
953.508
1850.14
3351.86
5681.28
9073.02
13806.9
20083.9
28117.2
38164.2
50577
65836
84628.5
107891
136866
173173
218882
276633
349780
442597
560546
710628
901845
1.14581e+06
1.45754e+06
1.85653e+06
2.36814e+06
3.02549e+06
3.87201e+06
4.96484e+06
6.37948e+06
8.21618e+06
1.06043e+07
1.36904e+07
1.77261e+07
2.30938e+07
3.01637e+07
3.06022e+08
1.36654e+08
2.01047e+07
1.50618e+07
1.11092e+07
8.04128e+06
5.69298e+06
3.929e+06
2.6366e+06
1.72132e+06
1.10584e+06
713113
197526
13567.1
296.663
3.04077
0.0206877
0.00017116
3.1976e-06
1.7377e-07
2.42714e-08
6.20726e-09
1.95133e-09
8.57145e-10
3.66707e-10
1.79417e-10
7.4246e-11
4.1032e-11
1.58035e-11
2.72159e-12
3.71624e-13
2.77262e-07
-1.6961e-16
0
0
-2.8558e-11
0
0
3.21625e-15
0
4.78623e-19
0
-2.74305e-14
-2.77454e-14
-1.17902e-09
5.64432e-14
2.39147e-09
-1.86702e-15
1.26316e-08
3.06555e-07
9.96845e-07
1.15609e-05
0.000110289
0.000912835
0.00645533
0.0387947
0.198823
0.87461
3.34229
11.237
33.6512
90.7977
222.987
502.745
1047.75
2028.45
3659.25
6167.3
9796.57
14820.5
21428.1
29835.7
40319.4
53262.1
69200.4
88894.2
113368
143975
182474
231114
292770
371105
470807
597889
760083
967373
1.23268e+06
1.57276e+06
2.00946e+06
2.57129e+06
3.29558e+06
4.23144e+06
5.44355e+06
7.01744e+06
9.06626e+06
1.17244e+07
1.5167e+07
1.97356e+07
2.56953e+07
3.41242e+07
3.91609e+08
2.85714e+07
1.85251e+07
1.36983e+07
9.96449e+06
7.10955e+06
4.95901e+06
3.37097e+06
2.22928e+06
1.43919e+06
925552
517264
83550.3
3457.36
56.3659
0.483811
0.00338439
3.66467e-05
1.02143e-06
8.12452e-08
1.48422e-08
4.3205e-09
1.58853e-09
6.25788e-10
3.10332e-10
1.52144e-10
7.06678e-11
2.84865e-11
1.14699e-11
2.73209e-12
0
0
0
7.33498e-12
-2.74181e-11
-3.13972e-07
-3.18235e-11
-6.50349e-11
-3.15016e-15
-3.4086e-07
-4.96407e-10
-3.5033e-07
0
-1.9319e-18
-1.14242e-09
-3.13912e-17
-4.19568e-09
3.66642e-07
1.68609e-08
-7.75804e-08
1.08115e-06
1.24099e-05
0.00011844
0.000992268
0.00707115
0.0427193
0.2196
0.969089
3.71416
12.5186
37.5646
101.501
249.45
562.301
1170.21
2258.41
4051.22
6784.51
10720.7
16107.7
23134.1
32020.8
43067.9
56696.5
73510.2
94354.7
120359
153012
194238
246507
312981
397705
505876
644186
821279
1.04836e+06
1.34e+06
1.71519e+06
2.19881e+06
2.82354e+06
3.63253e+06
4.68307e+06
6.05181e+06
7.84227e+06
1.01962e+07
1.32581e+07
1.7327e+07
2.29232e+07
3.06206e+07
1.03032e+08
2.57592e+08
2.29908e+07
1.69337e+07
1.23208e+07
8.82349e+06
6.19832e+06
4.2567e+06
2.8498e+06
1.85933e+06
1.1919e+06
773878
279360
28179
798.526
10.2921
0.0807043
0.000645923
9.79578e-06
4.06521e-07
4.42735e-08
9.50285e-09
3.14034e-09
1.2459e-09
5.6588e-10
2.2564e-10
1.11399e-10
5.46956e-11
2.89895e-11
8.10728e-12
2.03714e-12
0
-1.70102e-12
-2.86713e-12
1.72752e-16
1.21656e-11
1.24704e-11
0
0
3.08862e-15
-1.07346e-10
0
0
-1.86111e-18
-3.48417e-07
-5.26532e-14
5.29112e-14
4.05872e-09
3.65114e-09
1.62847e-08
2.95068e-07
1.3896e-06
1.32161e-05
0.000130944
0.0011004
0.00787823
0.0477901
0.246529
1.09117
4.19243
14.1587
42.5494
115.075
282.874
637.188
1323.31
2543.37
4530.1
7533.96
11848.2
17670.5
25199.7
34663.7
46392.6
60852.9
78723.6
100948
128773
163840
208269
264778
336859
428992
546955
698207
892421
1.14217e+06
1.46383e+06
1.87883e+06
2.41524e+06
3.10998e+06
4.01164e+06
5.18439e+06
6.7129e+06
8.70878e+06
1.13125e+07
1.46639e+07
1.90526e+07
2.48687e+07
3.23478e+07
3.90988e+08
8.67862e+07
1.99698e+07
1.47155e+07
1.06643e+07
7.58404e+06
5.27888e+06
3.58675e+06
2.37479e+06
1.53535e+06
983592
613835
141040
8273.25
175.297
1.87647
0.0143893
0.000140144
3.01999e-06
1.81436e-07
2.5673e-08
6.38648e-09
2.12019e-09
9.71083e-10
4.53673e-10
1.98717e-10
9.80468e-11
4.47956e-11
2.0463e-11
7.77952e-12
1.86832e-12
3.70115e-13
0
-2.8307e-07
-2.9135e-07
0
-1.51183e-11
3.11698e-07
1.07003e-19
0
1.04945e-10
2.60744e-10
-3.32418e-07
4.31394e-10
2.53538e-14
-8.72862e-10
-3.6746e-17
-2.43271e-16
-2.17078e-15
7.84923e-09
-3.73295e-08
1.50902e-06
1.50437e-05
0.000146104
0.00123455
0.00888212
0.0541015
0.28003
1.24286
4.78575
16.1899
48.7114
131.825
324.025
729.095
1510.17
2887.69
5110.14
8449.53
13187.1
19514.8
27625.9
37760.9
50280.6
65708
84806.1
108620
138532
176351
224407
285699
364079
464513
593416
759099
972371
1.24732e+06
1.60237e+06
2.06168e+06
2.65708e+06
3.43061e+06
4.43809e+06
5.75402e+06
7.47839e+06
9.74637e+06
1.27034e+07
1.65966e+07
2.18839e+07
2.89609e+07
4.76318e+07
3.51297e+08
2.45334e+07
1.8058e+07
1.31201e+07
9.3845e+06
6.59037e+06
4.53085e+06
3.04168e+06
1.99239e+06
1.28037e+06
827322
417921
59205.1
2307.72
38.5995
0.362788
0.00292395
3.65181e-05
1.12107e-06
9.19569e-08
1.61067e-08
4.82445e-09
1.80111e-09
7.98951e-10
3.45021e-10
1.52482e-10
7.81219e-11
3.87472e-11
1.73358e-11
6.34782e-12
7.81288e-13
0
-3.05994e-12
0
0
0
2.70416e-11
0
1.05051e-19
0
5.99067e-15
6.04154e-15
0
-4.18931e-10
1.87592e-09
-7.08021e-18
-3.54924e-17
-2.55954e-16
-2.33274e-15
1.17163e-08
1.42929e-07
1.50401e-06
1.68388e-05
0.000164374
0.00139727
0.0101009
0.0617699
0.320735
1.42712
5.50614
18.655
56.187
152.133
373.86
840.102
1734.55
3296.08
5791.86
9525.44
14747.6
21648.1
30415.5
41308.2
54719.1
71238.6
91719.7
117317
149556
190423
242476
309009
394261
503711
644452
825699
1.05946e+06
1.36142e+06
1.75215e+06
2.25865e+06
2.91658e+06
3.77312e+06
4.89108e+06
6.35453e+06
8.27703e+06
1.08126e+07
1.40998e+07
1.84756e+07
2.45157e+07
3.27879e+07
1.88083e+08
1.96895e+08
2.24244e+07
1.62916e+07
1.16982e+07
8.27438e+06
5.74721e+06
3.90846e+06
2.59672e+06
1.68655e+06
1.0816e+06
705207
237700
22334.2
643.424
8.86918
0.0773049
0.000693273
1.13815e-05
4.84226e-07
5.23747e-08
1.1026e-08
3.50935e-09
1.37e-09
6.31268e-10
2.91565e-10
1.32123e-10
6.23832e-11
2.92405e-11
1.34744e-11
4.89651e-12
-3.04904e-12
-6.94058e-22
3.9917e-17
-5.8902e-21
1.20644e-20
0
0
0
-3.05543e-07
0
1.00182e-10
5.88757e-15
3.14518e-07
0
2.37873e-14
-1.81861e-09
-3.76493e-17
-2.73799e-16
-2.50918e-15
1.45014e-08
1.55469e-07
1.39319e-06
1.88464e-05
0.000185953
0.00158952
0.0115468
0.0708825
0.369175
1.64663
6.3653
21.598
65.1194
176.412
433.424
972.469
2000.28
3775.02
6587.99
10771
16536.7
24072.8
33564.1
45291.1
59684.5
77408.3
99411.5
126963
161738
205904
262255
334384
426925
545871
698990
896389
1.15124e+06
1.48075e+06
1.90747e+06
2.46098e+06
3.18012e+06
4.116e+06
5.3358e+06
6.92769e+06
9.00677e+06
1.17153e+07
1.5186e+07
1.96958e+07
2.56449e+07
3.31899e+07
4.02429e+08
5.60574e+07
1.94414e+07
1.42012e+07
1.02047e+07
7.20125e+06
4.9795e+06
3.36657e+06
2.22281e+06
1.43728e+06
924316
577486
132335
8063.66
184.097
2.1829
0.0186115
0.000194217
4.22267e-06
2.42722e-07
3.24822e-08
7.9117e-09
2.78494e-09
1.15653e-09
5.30026e-10
2.37921e-10
1.00645e-10
5.25599e-11
2.30189e-11
1.28752e-11
3.63571e-12
-4.13782e-12
-2.03194e-13
-3.0342e-12
2.77357e-07
1.6651e-16
0
1.17893e-11
-2.96617e-07
-1.40868e-15
-3.01967e-07
-4.09907e-19
2.41274e-10
0
0
9.6809e-10
-6.59902e-18
-3.62477e-17
-2.89425e-16
-3.07554e-07
1.38906e-08
1.65609e-07
1.92315e-06
2.10479e-05
0.000210542
0.00181246
0.0132283
0.0815103
0.425804
1.90384
7.37414
25.0609
75.651
205.084
503.789
1128.45
2310.69
4332.67
7517.49
12190.5
18555.1
26782.3
37057.5
49683.3
65139.4
84169.9
107820
137481
174982
222676
283598
361650
461870
590783
756857
971130
1.24802e+06
1.6064e+06
2.07112e+06
2.67491e+06
3.46111e+06
4.48732e+06
5.83045e+06
7.59375e+06
9.91661e+06
1.29412e+07
1.69211e+07
2.23586e+07
2.96387e+07
5.06414e+07
3.38618e+08
2.44121e+07
1.78388e+07
1.28789e+07
9.16382e+06
6.40996e+06
4.39627e+06
2.9498e+06
1.93536e+06
1.24822e+06
809504
426657
67489.3
2956.86
55.7766
0.591184
0.00515291
6.42848e-05
1.83053e-06
1.35561e-07
2.22731e-08
5.85228e-09
2.27291e-09
9.92657e-10
4.48264e-10
2.01234e-10
9.3529e-11
4.28627e-11
2.36374e-11
1.06389e-11
3.46545e-12
8.43464e-13
0
0
-5.8085e-21
6.93987e-12
0
2.88607e-07
1.37055e-15
-4.72888e-11
-2.95268e-07
5.57e-15
0
-1.11496e-14
2.96435e-07
-1.69516e-09
-9.53423e-18
1.85699e-09
-1.50488e-09
-2.9195e-15
-2.75682e-07
1.90905e-07
2.16322e-06
2.37549e-05
0.000238718
0.0020651
0.0151445
0.0936688
0.490818
2.20011
8.54003
29.0759
87.8995
238.512
585.902
1309.92
2667.56
4966.28
8571.11
13781.1
20790.5
29752.3
40858.2
54431.9
71015
91435.1
116834
148730
189101
240487
306160
390321
498398
637418
816503
1.04754e+06
1.34604e+06
1.73234e+06
2.23318e+06
2.88384e+06
3.73113e+06
4.83744e+06
6.28662e+06
8.19224e+06
1.07087e+07
1.39725e+07
1.8331e+07
2.43725e+07
3.26378e+07
1.56944e+08
2.24191e+08
2.26328e+07
1.63956e+07
1.17477e+07
8.29999e+06
5.76613e+06
3.92857e+06
2.61989e+06
1.71107e+06
1.10376e+06
723918
292677
33192.2
1133.22
18.2428
0.179127
0.00165268
2.49648e-05
9.13959e-07
8.54931e-08
1.62752e-08
4.80982e-09
1.65503e-09
7.39593e-10
3.47762e-10
1.82205e-10
7.46974e-11
3.7175e-11
1.61746e-11
8.42544e-12
1.99194e-12
6.71702e-13
0
0
2.75143e-12
0
2.37418e-20
-2.55038e-11
0
1.35303e-15
-9.29036e-11
-2.8874e-07
-3.89034e-19
0
-2.86918e-07
-2.14117e-14
-6.11206e-18
-4.25288e-17
-1.44021e-09
2.77628e-07
1.89756e-08
2.06657e-07
2.29053e-06
2.66321e-05
0.000269627
0.00234585
0.0172822
0.107296
0.564011
2.53512
9.86408
33.6554
101.927
276.925
680.364
1517.75
3070.43
5673.64
9741.23
15524.9
23210.3
32933
44896.2
59451.1
77208.1
99080.9
126310
160541
203899
259111
329678
420099
536175
685406
877508
1.1251e+06
1.44461e+06
1.85742e+06
2.39148e+06
3.08334e+06
3.98088e+06
5.147e+06
6.66445e+06
8.64235e+06
1.12189e+07
1.45036e+07
1.8797e+07
2.45588e+07
3.20824e+07
3.62119e+08
1.03184e+08
2.00324e+07
1.4625e+07
1.05197e+07
7.44241e+06
5.16815e+06
3.51561e+06
2.3399e+06
1.52685e+06
988638
648430
196163
16384.7
460.691
6.51654
0.0612103
0.000612916
1.12217e-05
5.15321e-07
5.75587e-08
1.26733e-08
3.79465e-09
1.59215e-09
6.86049e-10
2.96276e-10
1.36469e-10
6.21459e-11
3.41564e-11
1.5529e-11
6.95601e-12
2.6407e-12
4.59409e-13
0
0
5.72512e-21
-2.75054e-07
0
2.79925e-07
0
0
0
0
0
-2.78626e-07
0
-2.95851e-18
8.60036e-10
-2.72407e-07
-2.66939e-07
-3.36986e-15
1.80356e-08
2.3164e-07
2.58926e-06
2.97536e-05
0.000302673
0.00264935
0.0196084
0.122211
0.644563
2.90579
11.337
38.7773
117.697
320.284
787.084
1750.86
3519.43
6461.72
11004.7
17380.6
25750.3
36238.7
49055.6
64598.7
83550
106903
136004
172622
219028
278140
353694
450500
574760
734488
940076
1.20501e+06
1.54681e+06
1.98828e+06
2.55912e+06
3.298e+06
4.25532e+06
5.49668e+06
7.10738e+06
9.19801e+06
1.18998e+07
1.53362e+07
1.97962e+07
2.57073e+07
3.329e+07
3.86973e+08
3.52481e+07
1.85749e+07
1.35111e+07
9.68663e+06
6.83179e+06
4.72983e+06
3.20819e+06
2.13031e+06
1.38936e+06
903806
571005
132617
8343.26
200.728
2.56178
0.0236429
0.000260926
5.74796e-06
3.21248e-07
4.23544e-08
9.50012e-09
3.37677e-09
1.2953e-09
5.33439e-10
2.64367e-10
1.35437e-10
6.18513e-11
2.85399e-11
1.32588e-11
7.00278e-12
-2.36525e-12
4.39939e-13
0
2.65809e-07
-7.91757e-17
1.59987e-16
-2.46054e-11
2.47166e-11
0
2.75813e-07
0
0
-2.14852e-10
2.69015e-07
0
-1.42167e-18
-8.43222e-18
-4.72297e-17
-3.7345e-16
-2.51269e-07
2.27896e-08
2.52682e-07
2.8836e-06
3.28005e-05
0.00033723
0.00296799
0.0220674
0.138081
0.730817
3.30524
12.9345
44.3681
135.016
368.121
904.827
2004.85
3998.14
7293.17
12316
19274.6
28304.5
39526.6
53161.6
69662
89780.2
114585
145522
184470
233840
296724
377085
480031
612155
782003
1.00068e+06
1.28263e+06
1.64673e+06
2.11766e+06
2.72777e+06
3.51955e+06
4.54895e+06
5.88983e+06
7.63992e+06
9.92898e+06
1.28886e+07
1.67263e+07
2.19125e+07
2.87689e+07
4.60878e+07
3.4956e+08
2.39813e+07
1.75376e+07
1.26821e+07
9.04924e+06
6.35701e+06
4.38649e+06
2.96735e+06
1.96722e+06
1.2841e+06
841311
491435
89077.2
4488.87
94.939
1.11781
0.0103375
0.0001265
3.29973e-06
2.18033e-07
3.1547e-08
8.28137e-09
2.95925e-09
1.22852e-09
5.28183e-10
2.42866e-10
1.16966e-10
5.80765e-11
2.78137e-11
1.90489e-11
5.48133e-12
2.38025e-12
4.4206e-13
-6.8779e-22
0
0
-1.1365e-20
0
6.37194e-16
0
0
-2.68314e-07
0
3.77604e-10
-4.11313e-10
1.92812e-14
0
-3.74546e-14
-5.03165e-17
-3.96617e-16
-3.81989e-15
2.44975e-08
2.75088e-07
3.17606e-06
3.60251e-05
0.000371856
0.00329048
0.0245753
0.154383
0.820058
3.72151
14.6117
50.2816
153.463
419.315
1030.54
2269.89
4480.51
8122.2
13597.9
21091.7
30718.8
42599.1
56977.5
74362.1
95564.1
121723
154367
195463
247538
313822
398462
506796
645723
824191
1.05383e+06
1.34983e+06
1.73204e+06
2.22655e+06
2.86767e+06
3.70081e+06
4.78617e+06
6.20405e+06
8.06192e+06
1.05044e+07
1.36481e+07
1.78078e+07
2.34884e+07
3.10682e+07
8.86866e+07
2.93771e+08
2.26798e+07
1.65419e+07
1.19324e+07
8.49455e+06
5.95478e+06
4.10163e+06
2.77122e+06
1.83696e+06
1.20212e+06
794705
410859
60885
2584.98
49.1683
0.544457
0.00511297
6.92553e-05
2.10164e-06
1.59988e-07
2.64927e-08
7.0679e-09
2.64977e-09
1.02916e-09
4.32472e-10
2.40482e-10
1.09431e-10
5.49889e-11
2.46725e-11
1.2331e-11
1.02224e-11
7.27449e-12
3.73756e-13
-6.8671e-22
0
0
-2.666e-07
-3.13827e-16
-2.66646e-07
2.65551e-07
0
0
0
-3.65535e-10
-9.42761e-15
3.17343e-10
-2.42749e-07
-7.52114e-10
-1.47676e-09
-4.10493e-16
2.277e-07
2.53381e-08
2.90719e-07
3.45158e-06
3.91313e-05
0.000405116
0.00360204
0.027018
0.170388
0.908356
4.13667
16.298
56.2771
172.307
471.826
1158.5
2527.48
4920.5
8873.48
14732.4
22665.8
32781.1
45196.7
60197.6
78341.1
100483
127821
161938
204867
259211
328291
416364
528903
672970
857704
1.09497e+06
1.40021e+06
1.79359e+06
2.30154e+06
2.95877e+06
3.81112e+06
4.91929e+06
6.36414e+06
8.25385e+06
1.07279e+07
1.39082e+07
1.81114e+07
2.38464e+07
3.14887e+07
1.72191e+08
2.33751e+08
2.12323e+07
1.549e+07
1.11787e+07
7.96198e+06
5.58429e+06
3.8488e+06
2.6029e+06
1.72865e+06
1.13598e+06
757803
350372
43267.4
1609.43
28.0823
0.297154
0.00285456
4.24584e-05
1.46229e-06
1.24639e-07
2.21312e-08
6.03762e-09
2.50806e-09
1.10235e-09
4.223e-10
2.14422e-10
9.67033e-11
4.87053e-11
2.3092e-11
1.08325e-11
4.74748e-12
2.58699e-12
3.53974e-13
-3.2711e-13
0
0
-1.11254e-20
0
0
2.60351e-07
0
-2.54451e-07
0
-2.46247e-07
6.93317e-10
0
-2.32681e-07
-2.26237e-07
-1.13979e-09
-4.2529e-16
2.18112e-09
2.11466e-08
2.07349e-07
3.49286e-06
4.1831e-05
0.000435042
0.00388501
0.0292557
0.185169
0.990567
4.52644
17.895
62.0039
190.439
522.418
1279.17
2745.35
5241.52
9432.51
15552.6
23776.6
34214.6
46997.4
62451.1
81169.2
104042
132303
167563
211894
267930
339031
429491
544810
692061
880363
1.1215e+06
1.43072e+06
1.82786e+06
2.3387e+06
2.9969e+06
3.84649e+06
4.94528e+06
6.3694e+06
8.21962e+06
1.06247e+07
1.36889e+07
1.76989e+07
2.31119e+07
3.04256e+07
2.66883e+08
1.73778e+08
1.9546e+07
1.43423e+07
1.03999e+07
7.43724e+06
5.23468e+06
3.61955e+06
2.45597e+06
1.63761e+06
1.08266e+06
728581
293067
32510.3
1093.16
17.7928
0.182145
0.00179295
2.89107e-05
1.10416e-06
1.04485e-07
1.92417e-08
5.958e-09
2.28338e-09
9.44199e-10
4.36211e-10
2.01059e-10
8.92549e-11
4.83561e-11
2.65571e-11
1.0077e-11
4.38184e-12
1.66866e-12
3.10869e-13
-4.01395e-13
-2.75126e-21
-5.51113e-21
0
-2.19092e-20
1.27503e-11
2.05316e-11
0
2.47626e-07
-7.82431e-11
2.37873e-07
-2.32368e-07
0
-1.19194e-18
5.53714e-10
2.09301e-07
6.09003e-14
4.56049e-09
2.22027e-08
3.19506e-07
3.70896e-06
4.39855e-05
0.000459663
0.00412029
0.0311322
0.197664
1.06062
4.86125
19.2782
67.0044
206.352
566.462
1377.86
2949.3
5559.62
9634.99
15839.2
24154
34692.2
47620
63297.1
82336.5
105651
134486
170463
215656
272704
344958
436689
553350
701921
891358
1.13317e+06
1.4422e+06
1.83756e+06
2.34397e+06
2.99344e+06
3.82744e+06
4.89993e+06
6.28113e+06
8.06286e+06
1.03647e+07
1.32663e+07
1.7028e+07
2.20562e+07
2.8606e+07
3.29915e+08
1.26653e+08
1.81401e+07
1.33799e+07
9.74808e+06
7.00165e+06
4.94833e+06
3.43526e+06
2.34063e+06
1.56812e+06
1.04304e+06
706677
255736
26124.6
814.447
12.5636
0.125499
0.00126201
2.16939e-05
8.99198e-07
9.00256e-08
1.78136e-08
5.29364e-09
2.06242e-09
8.37986e-10
4.09899e-10
1.86329e-10
8.64668e-11
4.14411e-11
1.99351e-11
9.31592e-12
4.21375e-12
1.85576e-12
3.00142e-13
-2.59239e-07
0
0
-1.51648e-16
3.00931e-16
0
-2.47161e-11
0
-1.72844e-10
0
0
2.23277e-07
3.43178e-10
-2.27012e-18
-1.16982e-09
-5.11641e-17
-4.4219e-16
4.26062e-09
2.06445e-08
3.35644e-07
3.86422e-06
4.54166e-05
0.00047714
0.00428831
0.0324851
0.206751
1.11198
5.10869
20.3083
70.7499
218.241
598.08
1456.96
3142.59
5923.11
9702.06
15333.1
23486.1
33855.2
46642.8
62232.1
81245.7
104601
133535
169659
215031
272264
344673
436472
553025
701177
889679
1.12973e+06
1.43571e+06
1.82607e+06
2.32454e+06
2.96169e+06
3.77694e+06
4.82124e+06
6.16059e+06
7.88071e+06
1.00932e+07
1.28671e+07
1.64441e+07
2.12019e+07
2.73699e+07
3.55463e+08
9.80076e+07
1.71487e+07
1.26853e+07
9.2694e+06
6.67812e+06
4.73449e+06
3.29752e+06
2.2546e+06
1.51647e+06
1.01362e+06
689519
238653
22537.3
667.08
9.90421
0.0972421
0.000992657
1.7839e-05
7.81063e-07
8.23102e-08
1.66735e-08
5.1589e-09
2.01499e-09
8.6933e-10
3.80805e-10
1.94747e-10
8.48636e-11
4.25054e-11
1.76358e-11
8.9542e-12
3.64128e-12
1.49332e-12
2.91235e-13
0
0
0
0
1.01586e-11
0
0
2.39674e-07
0
2.27872e-07
2.21231e-07
0
0
1.50236e-14
-8.31772e-18
-5.61185e-17
1.13293e-09
3.96209e-09
3.05491e-08
4.14462e-07
3.80024e-06
4.62052e-05
0.000485844
0.00437405
0.03318
0.211448
1.1387
5.23822
20.8501
72.7135
224.232
615.635
1505.05
3249.8
6127.85
10036.2
14433.4
21481.5
31361.4
43642.3
58719.1
77216.7
100038
128393
163862
208462
264756
335995
426308
540944
686590
871780
1.10742e+06
1.40747e+06
1.78983e+06
2.27744e+06
2.89983e+06
3.69498e+06
4.71187e+06
6.01382e+06
7.68282e+06
9.82539e+06
1.25141e+07
1.59643e+07
2.05427e+07
2.64576e+07
3.62418e+08
8.51677e+07
1.64813e+07
1.22034e+07
8.92636e+06
6.43823e+06
4.57025e+06
3.18778e+06
2.18331e+06
1.47152e+06
985870
671635
229059
20957.2
604.57
8.80062
0.0856393
0.000880607
1.61698e-05
7.27354e-07
7.83319e-08
1.61578e-08
4.94084e-09
1.96408e-09
8.07214e-10
3.85377e-10
1.69691e-10
8.1239e-11
3.85288e-11
1.90007e-11
8.83256e-12
3.63044e-12
1.45283e-12
2.81826e-13
0
-2.89807e-12
-3.18081e-12
0
2.12928e-20
0
0
4.74161e-11
1.57947e-19
0
3.1756e-10
2.14226e-07
-3.27698e-10
-1.07844e-18
4.96031e-10
2.1314e-09
-9.21767e-10
3.96203e-09
2.67304e-08
2.50767e-07
3.8732e-06
4.61758e-05
0.000485607
0.00437172
0.0331638
0.211359
1.13831
5.2369
20.8469
72.7106
224.249
615.754
1505.52
3251.16
6130.98
10042
14442.4
21500.5
31389.8
43683
58775.2
77292
100137
128521
164025
208667
265009
336305
426681
541383
687096
872345
1.10803e+06
1.40808e+06
1.79039e+06
2.27788e+06
2.90005e+06
3.69487e+06
4.71135e+06
6.01289e+06
7.68168e+06
9.82456e+06
1.25142e+07
1.59662e+07
2.05468e+07
2.64616e+07
3.62409e+08
8.51163e+07
1.64806e+07
1.2202e+07
8.92436e+06
6.43609e+06
4.56832e+06
3.18624e+06
2.18219e+06
1.47076e+06
985387
671314
228824
20920
603.292
8.78077
0.085452
0.000878943
1.61461e-05
7.26453e-07
7.83672e-08
1.61656e-08
5.01636e-09
1.96566e-09
8.50863e-10
3.74002e-10
1.69975e-10
8.13859e-11
3.70634e-11
1.76174e-11
8.13118e-12
-1.15853e-12
1.448e-12
2.8255e-13
0
0
5.46775e-21
0
1.03055e-11
0
8.42971e-20
-2.45669e-07
0
7.5798e-11
-4.31625e-15
-3.53411e-10
-3.43154e-10
-1.13498e-18
5.2474e-10
-2.97532e-14
-1.91346e-07
1.89761e-07
-1.54995e-07
3.31648e-07
3.68442e-06
4.54175e-05
0.000476258
0.0042814
0.0324377
0.206486
1.1108
5.10456
20.2977
70.7353
218.269
598.368
1458.15
3146.16
5931.44
9717.63
15366.8
23541.1
33938.9
46763.2
62398.6
81469.3
104895
133916
170145
215644
273028
345614
437617
554398
702796
891549
1.13184e+06
1.43802e+06
1.8285e+06
2.32696e+06
2.96393e+06
3.77882e+06
4.8226e+06
6.16141e+06
7.88128e+06
1.00945e+07
1.28702e+07
1.64504e+07
2.12118e+07
2.73777e+07
3.55568e+08
9.78126e+07
1.71437e+07
1.26785e+07
9.2612e+06
6.66987e+06
4.72731e+06
3.29189e+06
2.25053e+06
1.51372e+06
1.01187e+06
688375
237917
22422.8
663.083
9.84044
0.0966212
0.000986982
1.77521e-05
7.76714e-07
8.23911e-08
1.66915e-08
4.98291e-09
1.93405e-09
8.28227e-10
3.60044e-10
1.73226e-10
8.27222e-11
3.91929e-11
1.76805e-11
1.3274e-11
3.30268e-12
1.32646e-12
2.6043e-13
0
0
2.62924e-12
0
0
0
-2.05308e-11
0
1.67112e-19
9.61592e-11
2.38011e-07
0
-3.58703e-10
-1.66067e-14
-9.28408e-18
1.3252e-09
-1.05008e-09
4.56031e-09
2.66424e-08
3.19501e-07
3.60568e-06
4.37768e-05
0.000458493
0.00411028
0.0310618
0.197263
1.05878
4.8546
19.2599
66.972
206.356
566.775
1379.36
2953.99
5570.89
9661.86
15889.1
24237.3
34820.5
47806
63555.4
82684.3
106109
135081
171225
216624
273920
346474
438563
555645
704706
894702
1.13715e+06
1.44686e+06
1.84296e+06
2.35014e+06
3.00041e+06
3.83524e+06
4.9086e+06
6.29082e+06
8.07381e+06
1.03774e+07
1.3281e+07
1.70445e+07
2.20723e+07
2.86145e+07
3.30418e+08
1.26201e+08
1.8136e+07
1.33768e+07
9.74375e+06
6.99648e+06
4.94321e+06
3.43083e+06
2.33718e+06
1.56564e+06
1.04139e+06
705604
254746
25927.6
806.729
12.4304
0.124139
0.00124956
2.15172e-05
8.93758e-07
9.01285e-08
1.78362e-08
5.30195e-09
2.06673e-09
8.44933e-10
4.02001e-10
1.87224e-10
8.94786e-11
4.09179e-11
1.85779e-11
9.41854e-12
2.92026e-12
1.45973e-12
-3.95835e-12
-2.60069e-07
0
0
-1.55e-16
-2.22168e-20
0
2.57525e-11
5.09907e-11
-1.71718e-19
-1.79856e-10
1.9489e-10
-6.93278e-10
2.36773e-07
-5.95907e-10
2.26804e-07
1.13968e-09
-4.25266e-16
2.68066e-09
2.16342e-08
4.14518e-07
3.58214e-06
4.16816e-05
0.00043364
0.00387228
0.0291635
0.18463
0.988019
4.51672
17.8656
61.9373
190.354
522.535
1280.34
2749.64
5253.57
9461.41
15608.3
23872.2
34364.4
47217.1
62758.3
81585
104592
133019
168486
213070
269421
340909
431842
547738
695690
884835
1.12698e+06
1.4374e+06
1.83595e+06
2.34843e+06
3.0085e+06
3.86018e+06
4.9612e+06
6.38757e+06
8.23977e+06
1.06457e+07
1.37086e+07
1.77141e+07
2.31178e+07
3.03934e+07
2.67875e+08
1.72926e+08
1.95358e+07
1.4338e+07
1.03971e+07
7.43454e+06
5.23192e+06
3.61694e+06
2.45369e+06
1.63576e+06
1.08126e+06
727576
290962
32203.2
1079.79
17.5451
0.179515
0.00176874
2.85856e-05
1.09738e-06
1.01864e-07
1.92648e-08
5.77228e-09
2.10985e-09
9.5521e-10
4.16765e-10
1.89484e-10
9.02266e-11
4.51409e-11
1.93459e-11
9.44162e-12
4.38301e-12
7.70457e-13
3.42453e-13
0
-2.63367e-07
0
-1.19589e-11
2.25244e-20
-6.26745e-16
0
0
-2.61273e-07
-3.48526e-19
-4.78847e-15
9.42696e-15
0
-1.30641e-18
-3.5743e-14
-3.51333e-14
1.44987e-09
-4.00117e-15
2.53369e-08
2.90708e-07
3.32644e-06
3.89603e-05
0.000403513
0.00358723
0.0269096
0.16974
0.905196
4.12406
16.2569
56.1693
172.094
471.594
1158.82
2530.12
4929.71
8897.77
14782.1
22754.7
32924.4
45410.8
60500.5
78754
101032
128538
162864
206054
260722
330207
418786
531957
676811
862526
1.10101e+06
1.40776e+06
1.80299e+06
2.31318e+06
2.97307e+06
3.82842e+06
4.93977e+06
6.38754e+06
8.27911e+06
1.07523e+07
1.39277e+07
1.81202e+07
2.38396e+07
3.14725e+07
1.73299e+08
2.32627e+08
2.1213e+07
1.54786e+07
1.11708e+07
7.95587e+06
5.5794e+06
3.84492e+06
2.59989e+06
1.72639e+06
1.13436e+06
756681
348158
42780.6
1585.44
27.6036
0.291825
0.00280601
4.18504e-05
1.44864e-06
1.26222e-07
2.21546e-08
6.07956e-09
2.40885e-09
9.19099e-10
4.2252e-10
2.13954e-10
1.0318e-10
4.59364e-11
2.30708e-11
9.44308e-12
4.73664e-12
-3.28149e-12
-4.61208e-12
0
-2.64594e-07
-2.69085e-12
0
2.70633e-07
2.43199e-11
-9.13733e-20
0
0
2.65939e-07
0
-2.59816e-07
3.30088e-10
-1.90045e-14
-8.0632e-18
2.45229e-07
-3.91373e-16
-7.54289e-14
2.15286e-08
2.75075e-07
3.16555e-06
3.59673e-05
0.000370165
0.00327464
0.0244573
0.153663
0.816447
3.70654
14.56
50.1333
153.112
418.666
1029.75
2269.95
4484.48
8136.75
13631.8
21157.1
30829.6
42770
57223.9
74701.6
96017.3
122316
155132
196440
248779
315391
400439
509283
648846
828106
1.05874e+06
1.35595e+06
1.73966e+06
2.23597e+06
2.87922e+06
3.71474e+06
4.80261e+06
6.22276e+06
8.08211e+06
1.05245e+07
1.36649e+07
1.78173e+07
2.34895e+07
3.10701e+07
8.93569e+07
2.92901e+08
2.26708e+07
1.65397e+07
1.19333e+07
8.49582e+06
5.95542e+06
4.10147e+06
2.77051e+06
1.83602e+06
1.2012e+06
794006
408992
60148.9
2541.22
48.1993
0.532992
0.00500902
6.80362e-05
2.07259e-06
1.5809e-07
2.61135e-08
7.0714e-09
2.73315e-09
1.11728e-09
5.4255e-10
2.40332e-10
1.09125e-10
6.02284e-11
2.75809e-11
1.24282e-11
5.09154e-12
1.68184e-12
4.15481e-13
-9.59747e-18
0
0
0
-1.35667e-11
-1.10883e-11
2.22174e-11
4.44027e-11
2.74933e-07
0
0
0
7.64357e-10
-1.42156e-18
2.60275e-07
-2.57264e-07
-3.73424e-16
-3.59215e-15
1.70912e-08
2.52668e-07
2.99751e-06
3.28827e-05
0.000335586
0.00295214
0.0219474
0.137333
0.726975
3.2888
12.8754
44.1876
134.547
367.085
902.932
2002.15
3996.03
7295.73
12329
19306.8
28366.4
39629
53315.3
69878
90070.3
114963
146004
185076
234591
297647
378208
481385
613772
783912
1.0029e+06
1.28517e+06
1.64957e+06
2.12073e+06
2.73094e+06
3.52261e+06
4.55159e+06
5.89163e+06
7.6404e+06
9.92779e+06
1.28852e+07
1.67229e+07
2.19128e+07
2.8784e+07
4.64123e+07
3.48966e+08
2.39789e+07
1.75172e+07
1.26577e+07
9.02754e+06
6.34018e+06
4.37442e+06
2.95913e+06
1.9618e+06
1.28063e+06
839205
488678
87910.8
4403.95
92.8379
1.09109
0.0100942
0.000123878
3.24764e-06
2.17523e-07
3.15721e-08
8.2802e-09
2.95559e-09
1.22612e-09
5.79722e-10
2.41493e-10
1.21838e-10
5.53158e-11
2.76439e-11
1.16624e-11
5.83633e-12
2.03975e-12
-4.49457e-12
-2.61701e-07
0
5.72505e-21
-2.75056e-07
-1.11828e-11
1.12653e-11
-2.81223e-07
0
1.90143e-19
0
-4.01693e-10
-7.9859e-10
0
-2.95829e-18
-5.86658e-18
-4.36189e-17
-3.57404e-16
-3.36392e-15
1.80345e-08
2.31625e-07
2.57739e-06
2.94709e-05
0.000301177
0.00263436
0.0194933
0.12148
0.640725
2.88894
11.2744
38.5778
117.147
318.961
784.31
1745.81
3511.83
6452.89
10996.8
17378.1
25759.2
36264.8
49104.1
64673.3
83653
107035
136165
172808
219234
278353
353897
450664
574843
734433
939804
1.20442e+06
1.5458e+06
1.98673e+06
2.55696e+06
3.29525e+06
4.25223e+06
5.49387e+06
7.10613e+06
9.20053e+06
1.19105e+07
1.53601e+07
1.98396e+07
2.57756e+07
3.33767e+07
3.86427e+08
3.50992e+07
1.85783e+07
1.35024e+07
9.67399e+06
6.8196e+06
4.71984e+06
3.20071e+06
2.12504e+06
1.3858e+06
901555
568673
130958
8176.97
195.951
2.49479
0.0230219
0.000254781
5.63904e-06
3.17091e-07
4.16128e-08
1.02666e-08
3.36971e-09
1.33467e-09
6.05743e-10
2.8201e-10
1.40861e-10
6.78226e-11
2.90876e-11
1.39219e-11
6.23066e-12
2.2069e-12
5.42041e-13
0
-2.82829e-21
0
0
-3.30749e-16
-1.40619e-11
0
-1.35297e-15
-2.88514e-07
0
1.85596e-10
0
0
2.85334e-07
-6.11159e-18
4.22747e-14
1.76996e-09
-3.13558e-15
1.89744e-08
2.15714e-07
2.29036e-06
2.64841e-05
0.000268233
0.0023326
0.0171777
0.106621
0.560395
2.51888
9.80214
33.4518
101.344
275.451
677.058
1511.15
3058.88
5656.14
9716.64
15493.7
23173.9
32892.8
44852.3
59402
77149.3
99005
126205
160391
203681
258794
329220
419443
535248
684111
875724
1.12268e+06
1.44136e+06
1.85314e+06
2.38595e+06
3.07637e+06
3.97236e+06
5.13703e+06
6.65346e+06
8.63134e+06
1.12099e+07
1.44999e+07
1.88012e+07
2.45726e+07
3.20971e+07
3.63194e+08
1.02182e+08
2.00307e+07
1.46199e+07
1.05137e+07
7.43685e+06
5.16359e+06
3.5121e+06
2.33731e+06
1.525e+06
987379
647161
194100
16055.5
449.227
6.33504
0.0594643
0.000596963
1.09896e-05
5.07411e-07
5.7511e-08
1.26646e-08
4.29117e-09
1.54234e-09
6.82469e-10
3.20078e-10
1.4818e-10
6.73029e-11
2.87811e-11
2.06542e-11
6.97403e-12
1.7957e-12
5.66268e-12
0
3.95784e-17
0
0
0
-2.88613e-07
-2.34658e-11
1.38079e-15
2.95371e-07
1.17208e-10
-1.9096e-10
0
-3.81167e-10
9.34607e-10
-6.35567e-18
2.93252e-07
2.92081e-07
-2.913e-15
1.62493e-08
5.41741e-08
2.15721e-06
2.36501e-05
0.000237323
0.00205396
0.015055
0.0930779
0.487589
2.18531
8.48235
28.8818
87.3278
237.021
582.421
1302.61
2653.72
4942.99
8535.84
13730.5
20722.3
29664.5
40747.6
54293.5
70840.9
91213.4
116548
148358
188613
239845
305311
389201
496920
635469
813935
1.04415e+06
1.34156e+06
1.7264e+06
2.22526e+06