/*--------------------------------*- C++ -*----------------------------------*\
  =========                 |
  \\      /  F ield         | OpenFOAM: The Open Source CFD Toolbox
   \\    /   O peration     | Website:  https://openfoam.org
    \\  /    A nd           | Version:  8
     \\/     M anipulation  |
\*---------------------------------------------------------------------------*/
FoamFile
{
    version     2.0;
    format      ascii;
    class       volScalarField;
    location    "100/fluid";
    object      rDeltaT;
}
// * * * * * * * * * * * * * * * * * * * * * * * * * * * * * * * * * * * * * //

dimensions      [0 0 -1 0 0 0 0];

internalField   nonuniform List<scalar> 
4000
(
513.864
540.626
566.165
590.746
614.495
637.452
659.563
680.699
700.692
719.365
736.547
752.099
765.936
777.978
788.096
796.114
801.808
804.906
805.12
802.201
796.001
786.516
773.911
758.52
740.821
721.264
700.285
678.294
655.662
632.713
609.716
586.892
564.414
542.417
521.002
500.24
480.18
460.85
450.233
453.473
462.386
471.792
481.751
492.315
503.536
515.46
528.132
541.598
555.9
571.079
587.177
604.237
622.298
641.402
661.59
682.904
705.382
729.062
753.98
780.165
807.641
836.42
866.503
897.871
930.486
964.277
999.095
1034.86
1071.39
1108.28
1761.2
14012.7
1227.17
1245.45
1260.48
1271.41
1277.48
1277.64
1270.71
1255.75
1231.62
1197.53
1152.93
1098.05
1034.62
965.775
896.767
834.489
784.867
749.726
726.031
708.464
692.094
674.202
653.697
630.594
605.208
577.739
548.227
516.53
513.439
539.676
564.605
588.27
610.822
632.318
652.728
671.966
689.926
706.511
721.648
735.304
747.457
758.05
767.004
774.191
779.418
782.423
782.907
780.584
775.241
766.801
755.347
741.121
724.446
705.733
685.417
663.917
641.621
618.868
595.95
573.105
550.52
528.34
506.675
485.599
465.166
445.405
437.22
443.946
454.346
465.18
476.51
488.395
500.89
514.046
527.913
542.54
557.975
574.262
591.449
609.581
628.703
648.863
670.105
692.478
716.028
740.802
766.843
794.195
822.895
852.975
884.457
917.346
951.628
987.256
1024.1
1062.07
1101.04
1140.64
3266.42
11705.4
1252.86
1263.56
1272.34
1277.63
1278.11
1272.52
1259.53
1237.86
1206.38
1164.19
1110.78
1047.1
976.154
903.196
835.085
778.679
737.972
711.851
695.473
683.173
670.986
656.92
640.243
620.737
598.495
573.57
545.894
515.646
512.778
537.527
560.801
582.681
603.273
622.64
640.784
657.677
673.294
687.627
700.694
712.526
723.13
732.489
740.561
747.252
752.386
755.697
756.859
755.533
751.452
744.472
734.595
721.954
706.776
689.388
670.182
649.56
627.905
605.565
582.84
559.981
537.189
514.626
492.414
470.643
449.376
428.656
423.646
435.259
447.879
460.907
474.402
488.425
503.031
518.274
534.208
550.883
568.352
586.665
605.871
626.021
647.167
669.358
692.648
717.089
742.736
769.641
797.86
827.446
858.451
890.922
924.904
960.436
997.546
1036.24
1076.46
1118.2
1161.49
1206.48
10250.7
6610.65
1289.11
1293.98
1295.57
1292.87
1284.72
1269.94
1247.35
1215.8
1174.36
1122.4
1060.04
989.296
914.268
841.142
776.918
727.065
693.242
672.73
660.505
651.653
642.846
632.403
619.7
604.426
586.394
565.43
541.386
514.268
512.148
535.631
557.571
578.032
597.134
614.95
631.502
646.786
660.791
673.527
685.02
695.315
704.461
712.499
719.432
725.196
729.635
732.493
733.446
732.149
728.3
721.711
712.338
700.283
685.759
669.068
650.55
630.564
609.45
587.52
565.05
542.274
519.388
496.547
473.877
451.47
429.397
412.475
413.599
428.168
443.105
458.466
474.307
490.682
507.644
525.247
543.542
562.583
582.42
603.106
624.692
647.231
670.777
695.384
721.106
747.999
776.12
805.525
836.268
868.401
901.968
937.004
973.525
1011.52
1050.93
1091.6
1133.3
1175.81
1218.48
1289.53
16074.1
1535.83
1326.41
1321.74
1313.49
1300.84
1282.72
1258.01
1225.64
1184.75
1134.78
1075.51
1007.89
934.804
860.826
791.941
734.267
691.848
664.736
649.278
640.519
634.08
627.242
618.656
607.787
594.441
578.472
559.682
537.865
513.062
511.461
533.526
553.983
572.9
590.395
606.549
621.395
634.945
647.213
658.233
668.064
676.788
684.491
691.249
697.098
702.001
705.819
708.301
709.108
707.869
704.256
698.036
689.122
677.569
663.563
647.37
629.306
609.7
588.874
567.122
544.703
521.84
498.719
475.489
452.271
429.157
406.218
395.543
404.663
421.469
438.686
456.363
474.547
493.288
512.635
532.638
553.347
574.811
597.082
620.21
644.247
669.244
695.253
722.328
750.522
779.888
810.479
842.346
875.536
910.09
946.041
983.401
1022.16
1062.28
1103.65
1145.95
1189
1232.44
1275.26
3302.74
11406.8
1362.86
1352.74
1339.56
1322.48
1300.75
1273.53
1239.89
1199
1150.28
1093.39
1028.48
957.253
883.078
810.845
746.39
694.969
659.107
637.442
625.811
619.605
615.087
610.044
603.369
594.584
583.476
569.853
553.48
534.13
511.819
510.768
531.436
550.464
567.92
583.922
598.554
611.858
623.854
634.568
644.047
652.365
659.62
665.919
671.363
676.016
679.865
682.796
684.577
684.877
683.318
679.551
673.325
664.523
653.168
639.406
623.473
605.655
586.257
565.573
543.881
521.421
498.403
475.001
451.356
427.584
403.772
380.227
377.438
395.883
414.75
434.08
453.912
474.289
495.252
516.848
539.119
562.114
585.877
610.456
635.899
662.254
689.57
717.894
747.277
777.767
809.413
842.262
876.359
911.745
948.457
986.519
1025.94
1066.72
1108.81
1152.11
1196.38
1241.57
1287.46
1334.14
14501.5
4478.17
1368.49
1355.23
1337.45
1314.87
1286.97
1253.2
1212.95
1165.74
1111.3
1049.52
981.125
908.43
835.221
766.529
707.815
663.26
633.905
617.265
608.956
604.737
601.5
597.501
591.901
584.353
574.683
562.707
548.17
530.821
510.681
510.055
529.284
546.851
562.822
577.313
590.409
602.157
612.583
621.724
629.64
636.422
642.185
647.061
651.175
654.616
657.399
659.427
660.477
660.22
658.273
654.268
647.927
639.102
627.788
614.105
598.261
580.518
561.161
540.468
518.697
496.077
472.805
449.046
424.934
400.575
376.054
360.116
366.428
386.69
407.43
428.68
450.473
472.845
495.833
519.476
543.815
568.89
594.743
621.417
648.955
677.399
706.792
737.177
768.595
801.085
834.686
869.43
905.343
942.443
980.732
1020.19
1060.78
1102.39
1144.87
1187.86
1231.05
1274.06
1315.73
1681.21
15124.4
1396.9
1379.29
1358.06
1332.79
1303.12
1268.55
1228.51
1182.49
1130.12
1071.27
1006.03
935.626
862.803
791.593
727.004
673.963
635.549
611.555
598.796
592.975
590.296
588.181
585.218
580.736
574.455
566.223
555.856
543.089
527.664
509.602
509.333
527.112
543.218
557.712
570.71
582.296
592.519
601.411
609.015
615.403
620.673
624.957
628.405
631.161
633.338
634.972
635.989
636.183
635.231
632.745
628.346
621.735
612.74
601.327
587.59
571.712
553.932
534.515
513.72
491.793
468.949
445.375
421.227
396.63
371.686
346.477
338.843
354.868
376.757
399.169
422.133
445.674
469.823
494.613
520.076
546.248
573.165
600.863
629.378
658.749
689.012
720.201
752.353
785.5
819.671
854.892
891.184
928.556
967.009
1006.52
1047.06
1088.55
1130.86
1173.82
1216.97
1260.12
1302.93
1344.44
6028.12
9108.56
1397.62
1375.31
1349.13
1318.75
1283.88
1244.21
1199.32
1148.87
1092.65
1030.62
963.138
891.935
820.059
751.709
691.757
644.482
611.866
592.655
583.216
579.454
578.015
576.775
574.608
570.999
565.736
558.696
549.701
538.483
524.775
508.606
508.599
524.908
539.534
552.541
564.037
574.105
582.797
590.149
596.212
601.062
604.811
607.605
609.608
610.986
611.873
612.328
612.295
611.583
609.874
606.778
601.904
594.934
585.675
574.067
560.18
544.174
526.269
506.709
485.742
463.598
440.481
416.569
392.01
366.923
341.405
318.606
319.675
342.468
365.802
389.699
414.178
439.263
464.977
491.348
518.405
546.177
574.696
603.991
634.095
665.039
696.851
729.562
763.199
797.785
833.343
869.887
907.429
945.968
985.491
1025.97
1067.34
1109.52
1152.36
1195.65
1238.95
1282.05
1324.6
1366.45
16114.5
3000.39
1382.28
1357.45
1328.32
1294.86
1256.8
1213.87
1165.82
1112.47
1053.77
989.792
921.265
850.31
780.224
715.292
660.135
618.322
590.828
575.608
568.843
566.737
566.352
565.926
564.545
561.802
557.534
551.636
543.939
534.175
522.075
507.677
507.855
522.678
535.814
547.323
557.312
565.862
573.023
578.836
583.358
586.672
588.9
590.197
590.744
590.726
590.294
589.531
588.399
586.722
584.189
580.409
574.982
567.576
557.975
546.098
531.991
515.794
497.705
477.954
456.773
434.378
410.966
386.705
361.734
336.17
310.103
295.041
304.987
329.029
353.645
378.851
404.663
431.098
458.178
485.925
514.362
543.514
573.408
604.067
635.519
667.787
700.894
734.862
769.709
805.449
842.093
879.642
918.091
957.42
997.591
1038.54
1080.18
1122.35
1164.84
1207.19
1249.07
1290.11
1329.07
1757.12
14591.4
1398.31
1372.34
1342.46
1308.68
1270.94
1229.04
1182.69
1131.67
1075.83
1015.19
949.873
880.986
810.924
743.148
681.939
631.58
594.897
571.968
560.174
555.664
554.964
555.509
555.83
555.187
553.258
549.918
545.082
538.588
530.172
519.565
506.812
507.102
520.421
532.052
542.053
550.525
557.547
563.17
567.44
570.415
572.188
572.888
572.682
571.765
570.337
568.57
566.565
564.304
561.623
558.221
553.708
547.676
539.778
529.78
517.581
503.205
486.771
468.46
448.486
427.065
404.404
380.69
356.081
330.713
304.696
278.116
270.663
289.265
314.413
340.16
366.516
393.493
421.106
449.37
478.304
507.928
538.26
569.323
601.137
633.721
667.093
701.271
736.268
772.096
808.759
846.26
884.592
923.74
963.675
1004.35
1045.7
1087.63
1129.99
1172.57
1214.85
1256.61
1297.43
1336.1
4972.02
10164.4
1380.33
1351.52
1319.03
1282.65
1242.3
1197.88
1149.21
1096.15
1038.66
976.795
910.855
842.269
773.649
708.567
651.232
605.524
573.542
554.607
545.719
543.126
543.645
545.056
546.12
546.226
545.115
542.692
538.884
533.542
526.403
517.207
506.002
506.34
518.139
528.251
536.733
543.68
549.168
553.248
555.969
557.396
557.626
556.797
555.085
552.697
549.851
546.735
543.469
540.053
536.337
532.03
526.743
520.062
511.629
501.192
488.633
473.955
457.257
438.703
418.489
396.821
373.894
349.885
324.946
299.206
272.769
247.01
246.886
272.402
298.528
325.268
352.631
380.624
409.257
438.544
468.497
499.134
530.471
562.522
595.305
628.834
663.121
698.178
734.011
770.624
808.016
846.179
885.097
924.746
965.087
1006.07
1047.62
1089.65
1132.03
1174.59
1216.92
1258.98
1300.66
1341.9
13017.2
5234.01
1349.59
1321.25
1288.31
1251.04
1209.49
1163.73
1113.73
1059.48
1001.07
938.631
872.681
804.949
738.205
676.092
622.687
581.43
553.738
538.322
531.951
531.035
532.665
534.915
536.73
537.599
537.312
535.797
532.99
528.754
522.835
514.98
505.24
505.57
515.833
524.413
531.366
536.779
540.727
543.259
544.429
544.305
542.992
540.633
537.415
533.557
529.288
524.816
520.278
515.689
510.916
505.677
499.585
492.224
483.225
472.322
459.377
444.376
427.398
408.591
388.137
366.226
343.044
318.757
293.513
267.434
240.62
221.064
227.957
254.322
281.309
308.922
337.162
366.035
395.549
425.713
456.537
488.034
520.218
553.099
586.69
621
656.037
691.806
728.308
765.539
803.488
842.139
881.462
921.416
961.944
1002.96
1044.36
1085.99
1127.64
1169.01
1209.58
1249.08
1287.12
1322.78
15833.6
1896.07
1328.53
1296.49
1260.47
1220.68
1177.1
1129.65
1078.29
1023.02
963.974
901.28
835.695
769.154
704.542
645.519
595.973
558.891
535.072
522.749
518.579
519.158
521.837
524.927
527.521
529.184
529.743
529.14
527.323
524.165
519.424
512.857
504.516
504.791
513.504
520.542
525.956
529.83
532.232
533.215
532.832
531.159
528.304
524.42
519.699
514.373
508.683
502.852
497.034
491.261
485.416
479.224
472.305
464.241
454.654
443.264
429.919
414.584
397.322
378.264
357.576
335.437
312.02
287.485
261.971
235.594
208.452
194.575
207.869
234.982
262.724
291.095
320.096
349.728
379.996
410.906
442.468
474.69
507.583
541.154
575.413
610.364
646.012
682.357
719.394
757.112
795.494
834.514
874.131
914.292
954.921
995.917
1037.14
1078.42
1119.49
1159.91
1199.31
1237.44
1273.27
1592.73
14738
1336.61
1306.01
1271.19
1232.62
1190.52
1144.94
1095.86
1043.23
987.084
927.572
864.864
799.908
734.794
672.472
616.569
570.748
537.541
517.208
507.623
505.409
507.361
511.058
515.007
518.416
520.909
522.339
522.66
521.828
519.727
516.133
510.817
503.824
504.006
511.157
516.641
520.51
522.839
523.693
523.126
521.193
517.974
513.583
508.179
501.963
495.174
488.068
480.88
473.78
466.817
459.888
452.73
444.969
436.186
425.996
414.109
400.355
384.685
367.143
347.844
326.94
304.595
280.973
256.225
230.482
203.856
176.44
167.617
186.593
214.358
242.755
271.781
301.434
331.713
362.62
394.16
426.339
459.164
492.643
526.782
561.586
597.059
633.202
670.012
707.481
745.597
784.338
823.675
863.565
903.949
944.748
985.855
1027.12
1068.36
1109.3
1149.33
1188.21
1225.4
1259.62
2794.7
12802.2
1312.61
1279.05
1242
1201.56
1157.86
1110.96
1060.82
1007.44
950.888
891.319
828.977
764.991
701.563
641.681
588.904
546.65
517.026
499.837
492.7
492.263
495.512
500.224
505.066
509.335
512.7
515.034
516.296
516.452
515.398
512.931
508.838
503.156
503.214
508.792
512.716
515.034
515.816
515.123
513.007
509.528
504.769
498.851
491.936
484.234
475.993
467.477
458.937
450.557
442.402
434.383
426.25
417.636
408.123
397.322
384.933
370.771
354.771
336.961
317.439
296.342
273.821
250.031
225.112
199.189
172.368
144.737
140.263
164.116
192.442
221.4
250.984
281.188
312.009
343.448
375.508
408.193
441.509
475.46
510.053
545.29
581.174
617.704
654.875
692.679
731.101
770.12
809.705
849.814
890.389
931.353
972.602
1014
1055.35
1096.38
1136.54
1175.58
1213.01
1247.61
5389.67
10612.9
1279.58
1245.53
1207.94
1166.91
1122.59
1075.13
1024.55
970.936
914.409
855.165
793.543
730.827
669.297
611.955
562.264
523.394
497.067
482.719
477.796
479.007
483.513
489.259
495.038
500.219
504.504
507.777
510.003
511.155
511.144
509.791
506.904
502.506
502.417
506.413
508.771
509.536
508.771
506.532
502.872
497.853
491.564
484.128
475.715
466.539
456.856
446.941
437.057
427.401
418.054
408.943
399.83
390.356
380.108
368.694
355.803
341.239
324.921
306.861
287.14
265.88
243.221
219.305
194.263
168.214
141.258
113.478
112.582
140.44
169.241
198.669
228.716
259.375
290.64
322.51
354.986
388.071
421.769
456.085
491.021
526.581
562.765
599.572
636.995
675.026
713.649
752.844
792.579
832.815
873.498
914.555
955.892
997.385
1038.87
1080.09
1120.53
1160.02
1198.19
1241.86
8932.02
8373.24
1241.06
1207.56
1170.31
1129.47
1085.24
1037.81
987.33
933.921
877.81
819.231
758.634
697.43
637.953
583.191
536.498
500.798
477.481
465.695
462.788
465.554
471.302
478.112
484.879
491.025
496.277
500.528
503.744
505.903
506.935
506.69
504.999
501.869
501.617
504.025
504.813
504.024
501.713
497.933
492.736
486.187
478.378
469.437
459.538
448.901
437.789
426.487
415.267
404.34
393.804
383.599
373.504
363.169
352.184
340.156
326.77
311.816
295.197
276.911
257.021
235.636
212.881
188.886
163.775
137.657
110.627
100
100
115.572
144.765
174.577
205
236.02
267.634
299.836
332.628
366.011
399.987
434.56
469.733
505.507
541.881
578.853
616.417
654.562
693.272
732.525
772.291
812.529
853.184
894.188
935.448
976.842
1018.21
1059.34
1099.65
1139.05
1177.22
1213.39
11726.8
6417.07
1203.3
1169.75
1132.49
1091.7
1047.57
1000.28
950.035
897.017
841.517
783.809
724.43
664.89
607.543
555.346
511.525
478.776
458.199
448.712
447.61
451.865
458.857
466.768
474.573
481.735
488
493.263
497.493
500.674
502.754
503.614
503.114
501.24
500.813
501.629
500.847
498.505
494.654
489.34
482.614
474.545
465.228
454.794
443.423
431.34
418.812
406.133
393.585
381.393
369.67
358.372
347.292
336.094
324.374
311.739
297.867
282.54
265.644
247.162
227.142
205.674
182.871
158.851
133.727
107.6
100
100
100
100
119.041
149.156
179.866
211.16
243.029
275.468
308.477
342.056
376.208
410.934
446.237
482.117
518.572
555.6
593.192
631.337
670.018
709.21
748.882
788.989
829.476
870.268
911.269
952.352
993.352
1034.04
1073.85
1112.68
1150.29
1185.93
13320.7
5117.28
1167.69
1133.66
1095.98
1054.9
1010.63
963.371
913.324
860.724
805.903
749.165
691.111
633.311
578.112
528.412
487.309
457.294
439.244
431.894
432.429
438.074
446.27
455.283
464.147
472.357
479.666
485.97
491.237
495.453
498.585
500.551
501.24
500.617
500.009
499.231
496.88
492.99
487.604
480.764
472.52
462.942
452.129
440.216
427.386
413.868
399.935
385.887
372.018
358.565
345.655
333.262
321.197
309.139
296.69
283.461
269.123
253.448
236.31
217.672
197.568
176.071
153.278
129.294
104.22
100
100
100
100
100
100
122.476
153.387
184.862
216.891
249.47
282.595
316.268
350.49
385.263
420.587
456.464
492.894
529.869
567.382
605.42
643.965
682.991
722.464
762.34
802.558
843.043
883.694
924.379
964.929
1005.11
1044.36
1082.53
1119.34
1153.95
13938.9
4503.74
1133.51
1098.59
1060.26
1018.77
974.314
927.074
877.257
825.129
771.062
715.403
658.791
602.805
549.764
502.481
463.914
436.384
420.624
415.302
417.499
424.407
433.711
443.781
453.695
462.959
471.327
478.689
485.003
490.26
494.445
497.511
499.381
500
500.008
499.229
496.876
492.985
487.597
480.755
472.51
462.931
452.116
440.203
427.372
413.854
399.921
385.874
372.006
358.554
345.647
333.257
321.195
309.14
296.695
283.469
269.134
253.461
236.325
217.69
197.586
176.09
153.297
129.313
104.239
100
100
100
100
100
100
122.514
153.425
184.898
216.926
249.503
282.627
316.299
350.519
385.29
420.612
456.486
492.913
529.886
567.396
605.431
643.972
682.995
722.465
762.337
802.552
843.033
883.68
924.363
964.91
1005.09
1044.34
1082.51
1119.31
1153.91
13940.8
4501.07
1133.45
1098.53
1060.2
1018.71
974.257
927.022
877.212
825.094
771.04
715.397
658.803
602.84
549.823
502.564
464.019
436.505
420.755
415.434
417.628
424.529
433.823
443.884
453.787
463.041
471.398
478.749
485.053
490.299
494.473
497.529
499.391
500.003
500.812
501.624
500.839
498.495
494.64
489.323
482.594
474.522
465.202
454.767
443.395
431.31
418.783
406.105
393.56
381.372
369.653
358.36
347.287
336.094
324.38
311.751
297.885
282.561
265.67
247.19
227.171
205.704
182.901
158.881
133.755
107.627
100
100
100
100
119.134
149.248
179.957
211.249
243.116
275.554
308.56
342.137
376.286
411.009
446.308
482.184
518.635
555.658
593.245
631.384
670.059
709.244
748.908
789.008
829.487
870.271
911.264
952.341
993.336
1034.03
1073.83
1112.67
1150.26
1185.89
13331.1
5108.09
1167.56
1133.53
1095.84
1054.77
1010.5
963.255
913.222
860.639
805.841
749.133
691.116
633.36
578.211
528.562
487.506
457.527
439.5
432.156
432.688
438.321
446.499
455.491
464.334
472.521
479.809
486.092
491.336
495.531
498.642
500.588
501.26
500.623
501.615
504.02
504.805
504.013
501.699
497.916
492.716
486.164
478.352
469.408
459.508
448.87
437.759
426.457
415.239
404.316
393.784
383.584
373.494
363.164
352.184
340.161
326.778
311.827
295.211
276.926
257.037
235.651
212.895
188.898
163.784
137.662
110.628
100
100
115.693
144.887
174.7
205.122
236.143
267.756
299.958
332.749
366.131
400.105
434.677
469.847
505.618
541.99
578.958
616.518
654.658
693.363
732.61
772.369
812.599
853.247
894.243
935.496
976.886
1018.25
1059.38
1099.7
1139.09
1177.26
1213.42
11751.6
6396.57
1203.14
1169.6
1132.35
1091.56
1047.43
1000.16
949.917
896.911
841.429
783.745
724.397
664.899
607.602
555.458
511.692
478.988
458.443
448.972
447.871
452.116
459.09
466.981
474.763
481.903
488.144
493.385
497.593
500.752
502.811
503.651
503.134
501.246
502.416
506.409
508.764
509.525
508.757
506.515
502.851
497.83
491.537
484.099
475.684
466.507
456.824
446.91
437.027
427.374
418.031
408.924
399.815
390.346
380.102
368.691
355.802
341.241
324.924
306.864
287.142
265.881
243.219
219.3
194.254
168.2
141.238
113.453
112.64
140.589
169.392
198.822
228.871
259.531
290.797
322.667
355.144
388.229
421.927
456.242
491.178
526.736
562.919
599.723
637.143
675.171
713.79
752.979
792.709
832.94
873.616
914.667
956
997.49
1038.97
1080.19
1120.63
1160.12
1198.28
1240.8
8968.68
8339.25
1240.92
1207.43
1170.17
1129.33
1085.11
1037.68
987.2
933.798
877.698
819.137
758.566
697.4
637.971
583.266
536.632
500.986
477.709
465.947
463.047
465.806
471.538
478.327
485.072
491.194
496.423
500.65
503.843
505.98
506.992
506.727
505.019
501.875
503.213
508.787
512.709
515.024
515.802
515.105
512.986
509.503
504.742
498.821
491.904
484.201
475.959
467.444
458.905
450.528
442.376
434.36
426.231
417.62
408.11
397.312
384.924
370.764
354.763
336.952
317.428
296.328
273.804
250.009
225.084
199.155
172.328
144.69
140.323
164.292
192.622
221.583
251.169
281.375
312.199
343.64
375.702
408.388
441.705
475.657
510.25
545.487
581.37
617.899
655.068
692.87
731.289
770.304
809.885
849.989
890.559
931.519
972.763
1014.15
1055.51
1096.53
1136.69
1175.71
1213.11
1247.69
5423.54
10575.1
1279.48
1245.43
1207.83
1166.79
1122.46
1074.99
1024.41
970.795
914.274
855.042
793.441
730.759
669.276
611.991
562.363
523.554
497.277
482.961
478.051
479.259
483.751
489.475
495.232
500.388
504.649
507.898
510.102
511.231
511.199
509.827
506.923
502.512
504.004
511.152
516.634
520.5
522.826
523.676
523.105
521.169
517.946
513.553
508.146
501.928
495.139
488.032
480.846
473.747
466.787
459.861
452.707
444.948
436.167
425.978
414.092
400.338
384.666
367.122
347.82
326.911
304.562
280.934
256.18
230.43
203.796
176.372
167.679
186.796
214.565
242.966
271.996
301.653
331.934
362.844
394.387
426.568
459.396
492.876
527.016
561.821
597.295
633.438
670.247
707.715
745.829
784.568
823.903
863.789
904.171
944.967
986.071
1027.34
1068.57
1109.5
1149.52
1188.38
1225.55
1259.75
2813.12
12776.5
1312.52
1278.96
1241.9
1201.45
1157.74
1110.82
1060.68
1007.29
950.737
891.172
828.845
764.886
701.502
641.677
588.965
546.778
517.212
500.064
492.947
492.511
495.749
500.441
505.26
509.504
512.845
515.154
516.393
516.526
515.452
512.966
508.857
503.162
504.79
513.5
520.535
525.946
529.817
532.215
533.194
532.808
531.131
528.273
524.386
519.663
514.336
508.645
502.815
496.998
491.228
485.385
479.196
472.279
464.216
454.629
443.239
429.892
414.554
397.289
378.227
357.534
335.388
311.965
287.423
261.9
235.515
208.363
194.639
208.099
235.216
262.963
291.339
320.344
349.98
380.251
411.165
442.73
474.955
507.849
541.423
575.683
610.635
646.284
682.628
719.664
757.381
795.762
834.779
874.393
914.55
955.174
996.165
1037.38
1078.65
1119.72
1160.12
1199.51
1237.61
1273.42
1601.79
14718.7
1336.6
1305.99
1271.15
1232.55
1190.42
1144.82
1095.71
1043.07
986.912
927.397
864.697
799.764
734.689
672.423
616.588
570.839
537.698
517.416
507.859
505.652
507.596
511.274
515.2
518.583
521.051
522.457
522.753
521.899
519.778
516.166
510.834
503.829
505.568
515.829
524.407
531.356
536.767
540.71
543.239
544.405
544.277
542.96
540.598
537.378
533.518
529.249
524.777
520.239
515.652
510.881
505.644
499.553
492.193
483.193
472.288
459.341
444.335
427.353
408.54
388.079
366.162
342.971
318.677
293.424
267.335
240.512
221.13
228.213
254.583
281.576
309.194
337.439
366.316
395.834
426.001
456.829
488.329
520.515
553.399
586.991
621.302
656.34
692.109
728.61
765.84
803.787
842.434
881.753
921.702
962.224
1003.24
1044.63
1086.24
1127.88
1169.23
1209.78
1249.26
1287.27
1322.87
15815.7
1886.06
1328.58
1296.5
1260.44
1220.61
1176.99
1129.51
1078.12
1022.84
963.778
901.085
835.514
769.007
704.447
645.491
596.022
559.014
535.254
522.969
518.813
519.388
522.05
525.118
527.686
529.323
529.857
529.23
527.391
524.213
519.455
512.874
504.521
506.339
518.136
528.245
536.724
543.668
549.152
553.229
555.946
557.368
557.595
556.762
555.047
552.658
549.81
546.693
543.428
540.013
536.298
531.992
526.705
520.024
511.589
501.15
488.587
473.903
457.199
438.638
418.417
396.741
373.805
349.786
324.838
299.087
272.64
247.079
247.169
272.69
298.822
325.568
352.936
380.933
409.571
438.861
468.818
499.458
530.797
562.851
595.636
629.166
663.454
698.511
734.343
770.956
808.346
846.506
885.421
925.066
965.403
1006.38
1047.92
1089.94
1132.32
1174.87
1217.18
1259.23
1300.9
1342.13
13080.4
5182.44
1349.55
1321.2
1288.25
1250.94
1209.37
1163.58
1113.55
1059.28
1000.86
938.408
872.465
804.76
738.063
676.016
622.689
581.511
553.889
538.52
532.172
531.257
532.873
535.101
536.89
537.733
537.421
535.882
533.054
528.799
522.864
514.995
505.244
507.101
520.418
532.047
542.045
550.514
557.533
563.152
567.417
570.388
572.157
572.854
572.644
571.725
570.294
568.526
566.521
564.26
561.58
558.179
553.665
547.631
539.73
529.728
517.524
503.141
486.699
468.381
448.397
426.967
404.297
380.572
355.953
330.574
304.545
277.954
270.732
289.58
314.735
340.487
366.848
393.83
421.447
449.715
478.653
508.279
538.615
569.68
601.496
634.081
667.454
701.632
736.629
772.455
809.118
846.617
884.947
924.091
964.023
1004.7
1046.04
1087.96
1130.31
1172.87
1215.12
1256.86
1297.67
1336.35
5037.56
10096.5
1380.35
1351.52
1318.99
1282.57
1242.18
1197.72
1149.02
1095.94
1038.42
976.544
910.604
842.039
773.459
708.439
651.183
605.559
573.654
554.777
545.921
543.336
543.845
545.235
546.274
546.354
545.217
542.771
538.943
533.582
526.428
517.22
506.006
507.855
522.676
535.81
547.317
557.303
565.849
573.006
578.815
583.332
586.642
588.866
590.159
590.703
590.682
590.249
589.485
588.353
586.675
584.141
580.36
574.931
567.52
557.913
546.029
531.914
515.708
497.61
477.849
456.656
434.251
410.828
386.555
361.574
335.997
309.919
295.112
305.33
329.377
353.999
379.21
405.026
431.466
458.55
486.3
514.74
543.895
573.791
604.453
635.906
668.174
701.282
735.249
770.095
805.833
842.474
880.021
918.466
957.792
997.959
1038.91
1080.54
1122.71
1165.19
1207.54
1249.4
1290.42
1329.38
1775.23
14564.2
1398.39
1372.38
1342.46
1308.62
1270.84
1228.89
1182.51
1131.45
1075.58
1014.92
949.595
880.719
810.691
742.97
681.837
631.563
594.965
572.104
560.352
555.858
555.152
555.68
555.976
555.307
553.352
549.99
545.133
538.622
530.192
519.575
506.815
508.598
524.907
539.532
552.536
564.029
574.094
582.782
590.13
596.188
601.033
604.779
607.568
609.567
610.942
611.827
612.28
612.246
611.533
609.822
606.723
601.845
594.869
585.602
573.986
560.089
544.072
526.156
506.585
485.606
463.45
440.322
416.398
391.827
366.728
341.198
318.678
320.044
342.843
366.182
390.083
414.567
439.655
465.374
491.749
518.809
546.584
575.105
604.402
634.508
665.452
697.265
729.975
763.61
798.195
833.749
870.29
907.827
946.359
985.874
1026.34
1067.7
1109.87
1152.69
1195.96
1239.24
1282.3
1324.77
1366.52
16112.2
2974.01
1382.48
1357.57
1328.36
1294.83
1256.69
1213.71
1165.61
1112.22
1053.5
989.494
920.966
850.035
779.997
715.134
660.062
618.338
590.92
575.755
569.015
566.91
566.511
566.061
564.655
561.887
557.596
551.679
543.966
534.191
522.083
507.679
509.333
527.112
543.216
557.709
570.705
582.287
592.506
601.394
608.994
615.376
620.642
624.922
628.365
631.117
633.292
634.924
635.939
636.13
635.175
632.684
628.279
621.661
612.656
601.233
587.484
571.594
553.801
534.371
513.564
491.624
468.768
445.181
421.02
396.411
371.456
346.234
338.912
355.267
377.16
399.577
422.544
446.089
470.242
495.036
520.502
546.677
573.596
601.296
629.814
659.186
689.449
720.639
752.79
785.935
820.104
855.321
891.608
928.974
967.419
1006.92
1047.45
1088.92
1131.21
1174.15
1217.27
1260.39
1303.18
1344.71
6123.08
9026.53
1397.65
1375.35
1349.15
1318.71
1283.79
1244.06
1199.12
1148.62
1092.37
1030.31
962.818
891.626
819.787
751.498
691.626
644.44
611.909
592.763
583.359
579.607
578.159
576.898
574.706
571.072
565.788
558.729
549.72
538.493
524.779
508.607
510.056
529.285
546.851
562.821
577.31
590.403
602.147
612.569
621.706
629.617
636.394
642.152
647.023
651.134
654.571
657.35
659.375
660.421
660.16
658.207
654.194
647.844
639.007
627.681
613.984
598.125
580.369
560.997
540.29
518.505
495.873
472.589
448.817
424.693
400.322
375.79
360.184
366.846
387.113
407.857
429.11
450.906
473.282
496.273
519.92
544.262
569.339
595.195
621.872
649.411
677.857
707.251
737.636
769.052
801.541
835.138
869.877
905.783
942.875
981.154
1020.6
1061.17
1102.77
1145.23
1188.2
1231.36
1274.33
1315.99
1698.89
15065.9
1397.07
1379.4
1358.1
1332.76
1303.03
1268.4
1228.3
1182.23
1129.83
1070.95
1005.69
935.288
862.491
791.331
726.815
673.861
635.535
611.616
598.904
593.103
590.421
588.288
585.301
580.796
574.494
566.245
555.866
543.092
527.664
509.602
510.769
531.437
550.466
567.921
583.921
598.551
611.852
623.844
634.554
644.028
652.341
659.591
665.885
671.325
675.973
679.817
682.744
684.52
684.814
683.248
679.471
673.234
664.418
653.048
639.27
623.321
605.487
586.073
565.375
543.668
521.195
498.165
474.751
451.095
427.312
403.489
380.294
377.871
396.319
415.189
434.522
454.357
474.737
495.703
517.302
539.577
562.574
586.34
610.923
636.368
662.726
690.043
718.368
747.751
778.239
809.882
842.726
876.817
912.194
948.893
986.939
1026.34
1067.1
1109.16
1152.42
1196.66
1241.79
1287.6
1334.19
14549.5
4423.76
1368.66
1355.31
1337.43
1314.78
1286.82
1252.98
1212.69
1165.44
1110.96
1049.17
980.762
908.083
834.914
766.284
707.651
663.184
633.911
617.329
609.052
604.838
601.587
597.566
591.944
584.376
574.691
562.706
548.165
530.816
510.679
511.463
533.529
553.986
572.903
590.398
606.55
621.394
634.94
647.204
658.219
668.046
676.764
684.462
691.215
697.059
701.956
705.768
708.244
709.044
707.796
704.171
697.938
689.008
677.438
663.413
647.202
629.121
609.499
588.657
566.891
544.459
521.585
498.452
475.213
451.985
428.862
405.914
395.603
405.103
421.911
439.131
456.81
474.997
493.741
513.091
533.097
553.809
575.277
597.552
620.683
644.723
669.722
695.733
722.81
751.003
780.368
810.956
842.818
876
910.543
946.478
983.818
1022.55
1062.63
1103.96
1146.21
1189.2
1232.58
1275.38
3371.21
11310.4
1362.88
1352.73
1339.52
1322.38
1300.6
1273.32
1239.64
1198.71
1149.95
1093.04
1028.11
956.886
882.736
810.551
746.166
694.827
659.049
637.454
625.865
619.676
615.15
610.089
603.393
594.591
583.469
569.839
553.465
534.119
511.815
512.15
535.635
557.577
578.039
597.141
614.956
631.507
646.787
660.79
673.521
685.009
695.298
704.44
712.472
719.4
725.158
729.591
732.443
733.385
732.075
728.211
721.605
712.215
700.141
685.598
668.888
650.352
630.348
609.218
587.275
564.793
542.006
519.11
496.261
473.583
451.169
429.088
412.531
414.033
428.603
443.542
458.905
474.749
491.126
508.091
525.697
543.996
563.04
582.881
603.571
625.161
647.704
671.253
695.862
721.587
748.481
776.602
806.006
836.746
868.875
902.436
937.463
973.972
1011.95
1051.34
1091.98
1133.64
1176.1
1218.69
1294.37
16042.4
1518.17
1326.28
1321.6
1313.32
1300.65
1282.5
1257.75
1225.35
1184.43
1134.44
1075.15
1007.52
934.447
860.503
791.669
734.066
691.727
664.689
649.283
640.55
634.109
627.257
618.653
607.769
594.413
578.441
559.655
537.847
513.056
512.78
537.533
560.809
582.691
603.284
622.651
640.794
657.685
673.299
687.628
700.691
712.518
723.118
732.471
740.538
747.223
752.349
755.65
756.801
755.462
751.367
744.369
734.471
721.808
706.607
689.199