/*--------------------------------*- C++ -*----------------------------------*\
  =========                 |
  \\      /  F ield         | OpenFOAM: The Open Source CFD Toolbox
   \\    /   O peration     | Website:  https://openfoam.org
    \\  /    A nd           | Version:  8
     \\/     M anipulation  |
\*---------------------------------------------------------------------------*/
FoamFile
{
    version     2.0;
    format      ascii;
    class       volScalarField;
    location    "100/fluid";
    object      rho;
}
// * * * * * * * * * * * * * * * * * * * * * * * * * * * * * * * * * * * * * //

dimensions      [1 -3 0 0 0 0 0];

internalField   nonuniform List<scalar> 
4000
(
0.658523
0.658489
0.658432
0.658337
0.658182
0.65793
0.657524
0.656876
0.655854
0.654267
0.651845
0.64823
0.642972
0.63556
0.625489
0.612363
0.596028
0.576666
0.554812
0.531274
0.506968
0.482759
0.459338
0.437177
0.416543
0.397542
0.380161
0.364313
0.349874
0.336707
0.324674
0.313646
0.303504
0.294145
0.285479
0.277427
0.269924
0.262912
0.256344
0.250162
0.244315
0.238771
0.233504
0.228488
0.223705
0.219135
0.214764
0.210579
0.206567
0.202719
0.199027
0.195483
0.192083
0.18882
0.185693
0.182698
0.179833
0.177099
0.174497
0.172028
0.169698
0.167512
0.165481
0.163616
0.161935
0.160463
0.159245
0.158309
0.1577
0.157519
0.157873
0.159296
0.168221
0.178698
0.190984
0.205413
0.222426
0.242605
0.266714
0.295765
0.33109
0.374448
0.428286
0.495516
0.578755
0.679008
0.792913
0.909864
1.01343
1.09009
1.1374
1.16229
1.17425
1.17969
1.18207
1.18309
1.18352
1.18371
1.18378
1.18381
0.658523
0.658489
0.658432
0.658338
0.658183
0.657931
0.657524
0.656876
0.655853
0.654265
0.651844
0.648231
0.642982
0.635589
0.62555
0.612472
0.596194
0.576892
0.555087
0.531571
0.507258
0.483011
0.45953
0.437303
0.416605
0.397538
0.380089
0.364177
0.349681
0.336467
0.324396
0.313336
0.30317
0.293792
0.285111
0.277049
0.269538
0.262521
0.25595
0.249766
0.243918
0.238374
0.233107
0.228093
0.223312
0.218745
0.214376
0.210194
0.206186
0.202342
0.198654
0.195115
0.19172
0.188463
0.185341
0.182351
0.179493
0.176766
0.17417
0.17171
0.169387
0.16721
0.165188
0.163332
0.161661
0.1602
0.158996
0.15808
0.157511
0.157408
0.157946
0.1608
0.17003
0.180906
0.193699
0.208776
0.226629
0.247909
0.27348
0.304491
0.342466
0.389452
0.448261
0.521968
0.612957
0.720944
0.839585
0.954573
1.0487
1.11273
1.14934
1.16791
1.17672
1.18072
1.18248
1.18326
1.18359
1.18373
1.18379
1.18382
0.658523
0.658489
0.658432
0.658337
0.658182
0.65793
0.657522
0.656871
0.655844
0.654251
0.651822
0.648203
0.642947
0.635551
0.625514
0.612445
0.596183
0.576899
0.555109
0.531603
0.507288
0.483025
0.459511
0.43723
0.416463
0.397322
0.379805
0.363831
0.349281
0.336018
0.323903
0.312806
0.302609
0.293204
0.284501
0.276421
0.268896
0.26187
0.255292
0.2491
0.243246
0.237699
0.232429
0.227415
0.222633
0.218068
0.213702
0.209523
0.205519
0.20168
0.197998
0.194466
0.191078
0.187829
0.184716
0.181737
0.17889
0.176175
0.173594
0.171148
0.168842
0.166684
0.164682
0.162849
0.161203
0.159769
0.158587
0.15768
0.157075
0.156842
0.157041
0.163118
0.172969
0.184544
0.198163
0.214248
0.233352
0.256209
0.283788
0.31737
0.358635
0.409878
0.47401
0.553789
0.650638
0.762211
0.879466
0.987015
1.0704
1.12486
1.15535
1.1707
1.17796
1.18126
1.18272
1.18336
1.18363
1.18375
1.1838
1.18382
0.658524
0.658489
0.658432
0.658338
0.658183
0.65793
0.657522
0.65687
0.655842
0.654246
0.651815
0.648192
0.642933
0.635533
0.625492
0.612417
0.596145
0.57684
0.55502
0.531469
0.507097
0.482769
0.459187
0.436843
0.416019
0.396828
0.379264
0.363248
0.348658
0.335359
0.323213
0.312088
0.301865
0.292439
0.283718
0.275622
0.268085
0.261049
0.254463
0.248263
0.242402
0.236849
0.231577
0.22656
0.221777
0.217212
0.212848
0.208672
0.204672
0.200839
0.197163
0.193639
0.19026
0.187022
0.183921
0.180956
0.178124
0.175425
0.172863
0.170438
0.168158
0.166029
0.164062
0.162273
0.160683
0.159332
0.158253
0.157467
0.157054
0.157095
0.157684
0.166474
0.176958
0.18931
0.20388
0.221134
0.241688
0.266356
0.29621
0.332661
0.377557
0.433436
0.503183
0.589136
0.691578
0.805975
0.920783
1.02015
1.09264
1.13757
1.16174
1.17368
1.17929
1.18183
1.18296
1.18346
1.18367
1.18376
1.1838
1.18382
0.658524
0.658489
0.658432
0.658338
0.658183
0.65793
0.657521
0.656867
0.655837
0.654237
0.651799
0.648165
0.64289
0.635469
0.625399
0.612286
0.595968
0.576609
0.554726
0.531109
0.50667
0.482278
0.45864
0.436243
0.41537
0.396136
0.378535
0.362486
0.347868
0.334544
0.322376
0.311231
0.300991
0.29155
0.282815
0.274708
0.267162
0.260119
0.253528
0.24732
0.241453
0.235895
0.230619
0.225599
0.220816
0.216251
0.211889
0.207716
0.203721
0.199893
0.196225
0.19271
0.189341
0.186116
0.183029
0.180079
0.177265
0.174587
0.172048
0.16965
0.167401
0.165307
0.163383
0.161645
0.160117
0.158862
0.157906
0.157305
0.157213
0.157862
0.160971
0.170402
0.181588
0.194799
0.210417
0.228954
0.251089
0.277719
0.310024
0.34954
0.39832
0.459057
0.534434
0.626149
0.732977
0.848016
0.957879
1.04771
1.10987
1.14688
1.1663
1.17579
1.18023
1.18225
1.18314
1.18353
1.1837
1.18377
1.18381
1.18382
0.658524
0.658489
0.658432
0.658338
0.658183
0.65793
0.65752
0.656866
0.655833
0.654229
0.651784
0.648138
0.642845
0.635396
0.625287
0.61212
0.595732
0.576293
0.554322
0.530619
0.506097
0.481629
0.457924
0.435473
0.414556
0.395288
0.377659
0.361589
0.346954
0.333615
0.321434
0.310279
0.300029
0.29058
0.281838
0.273725
0.266175
0.25913
0.252534
0.246321
0.24045
0.234889
0.22961
0.224589
0.219806
0.215242
0.210882
0.206713
0.202723
0.198902
0.195242
0.191737
0.18838
0.185168
0.182098
0.179166
0.176373
0.173719
0.171207
0.168841
0.166627
0.164575
0.1627
0.161018
0.159558
0.158365
0.157446
0.156823
0.156555
0.156652
0.164119
0.174387
0.186446
0.200636
0.217397
0.237305
0.261113
0.289807
0.324677
0.367392
0.420227
0.485906
0.566801
0.663768
0.773852
0.887893
0.991443
1.07158
1.12434
1.15452
1.17002
1.17751
1.181
1.18258
1.18328
1.18359
1.18373
1.18378
1.18381
1.18382
0.658524
0.65849
0.658433
0.658338
0.658183
0.657929
0.657519
0.656863
0.655827
0.654217
0.651762
0.6481
0.642782
0.635297
0.625136
0.611902
0.595434
0.575902
0.553832
0.530028
0.505413
0.480864
0.457093
0.43459
0.413636
0.394339
0.376692
0.360608
0.345963
0.332618
0.320433
0.309274
0.299021
0.289569
0.280826
0.272712
0.265162
0.258119
0.251522
0.245306
0.239433
0.233871
0.228591
0.22357
0.218788
0.214227
0.20987
0.205705
0.201721
0.197908
0.194258
0.190764
0.187421
0.184224
0.181171
0.178259
0.175489
0.172862
0.170379
0.168048
0.165876
0.163874
0.162059
0.160455
0.159119
0.158074
0.15736
0.1571
0.157442
0.158812
0.168014
0.178894
0.191715
0.206834
0.224725
0.246015
0.271524
0.302328
0.339821
0.385828
0.442805
0.513383
0.599504
0.70096
0.812909
0.924236
1.02037
1.09106
1.13564
1.16032
1.17281
1.1788
1.18158
1.18283
1.18339
1.18364
1.18375
1.18379
1.18381
1.18382
0.658524
0.65849
0.658433
0.658338
0.658183
0.657929
0.657518
0.65686
0.65582
0.654203
0.651737
0.648056
0.64271
0.635183
0.624965
0.611656
0.595095
0.575456
0.553275
0.529363
0.50465
0.48002
0.456185
0.433635
0.412648
0.393331
0.375671
0.359581
0.344934
0.33159
0.319406
0.308249
0.297999
0.28855
0.27981
0.2717
0.264154
0.257115
0.250519
0.244304
0.238431
0.232869
0.227591
0.222572
0.217792
0.213234
0.208882
0.204723
0.200747
0.196943
0.193303
0.189821
0.186492
0.183312
0.180277
0.177387
0.174641
0.172041
0.169591
0.167296
0.165164
0.16321
0.16145
0.159911
0.15866
0.157713
0.157118
0.15702
0.157615
0.162187
0.171914
0.183438
0.197038
0.213097
0.232128
0.254812
0.282039
0.314971
0.355108
0.404456
0.46557
0.540884
0.631795
0.736855
0.849331
0.956644
1.04496
1.10693
1.14457
1.16485
1.17496
1.17979
1.18202
1.18303
1.18348
1.18367
1.18376
1.1838
1.18381
1.18382
0.658524
0.65849
0.658433
0.658338
0.658183
0.657928
0.657516
0.656855
0.655811
0.654187
0.651707
0.648007
0.642629
0.635056
0.624775
0.611385
0.594724
0.574974
0.552678
0.528655
0.503845
0.479135
0.455239
0.432646
0.411632
0.3923
0.374633
0.358543
0.343899
0.33056
0.318383
0.307233
0.29699
0.287548
0.278814
0.270711
0.263173
0.256141
0.249548
0.243335
0.237465
0.231905
0.22663
0.221614
0.216839
0.212286
0.20794
0.203788
0.19982
0.196025
0.192397
0.188928
0.185615
0.182452
0.179437
0.176569
0.173849
0.171278
0.168861
0.166604
0.164518
0.162615
0.160917
0.159453
0.15827
0.157377
0.156798
0.156605
0.156831
0.165063
0.175514
0.187787
0.202217
0.219239
0.239419
0.263496
0.292436
0.327488
0.370261
0.422941
0.488088
0.567881
0.663041
0.770755
0.882523
0.984887
1.06541
1.11962
1.15151
1.16831
1.1766
1.18054
1.18235
1.18318
1.18354
1.1837
1.18377
1.1838
1.18381
1.18382
0.658524
0.65849
0.658433
0.658338
0.658182
0.657927
0.657513
0.65685
0.655801
0.654169
0.651676
0.647954
0.642544
0.634923
0.624577
0.611101
0.594339
0.574475
0.552062
0.527929
0.503024
0.478238
0.454285
0.431655
0.410619
0.391276
0.373608
0.357521
0.342885
0.329555
0.317388
0.306248
0.296015
0.286582
0.277858
0.269765
0.262236
0.255213
0.248625
0.242416
0.236549
0.230994
0.225723
0.220712
0.215942
0.211395
0.207056
0.202912
0.198953
0.195169
0.191553
0.188098
0.1848
0.181655
0.17866
0.175815
0.17312
0.170579
0.168195
0.165977
0.163937
0.162092
0.160465
0.15912
0.158078
0.157376
0.157147
0.157548
0.159063
0.168326
0.179276
0.192167
0.207345
0.225272
0.246554
0.271985
0.302595
0.339719
0.385089
0.441032
0.510036
0.593963
0.692751
0.802182
0.912219
1.00911
1.08225
1.12973
1.15692
1.17098
1.17786
1.18111
1.18261
1.18329
1.18359
1.18372
1.18378
1.18381
1.18382
1.18382
0.658524
0.65849
0.658432
0.658338
0.658181
0.657925
0.65751
0.656844
0.655791
0.65415
0.651644
0.6479
0.642457
0.634788
0.624376
0.610815
0.593952
0.573976
0.551449
0.52721
0.502213
0.477355
0.453351
0.430688
0.409633
0.390284
0.372617
0.356537
0.341912
0.328594
0.316439
0.305311
0.29509
0.285669
0.276956
0.268874
0.261356
0.254343
0.247761
0.241557
0.235696
0.230146
0.22488
0.219875
0.215111
0.210571
0.20624
0.202105
0.198156
0.194383
0.190779
0.187339
0.184056
0.180929
0.177954
0.175131
0.172461
0.169948
0.167595
0.165412
0.163411
0.16161
0.160036
0.15876
0.157793
0.157187
0.157097
0.157724
0.161717
0.171397
0.182851
0.196344
0.212243
0.231041
0.253385
0.28012
0.312345
0.351471
0.399368
0.458446
0.531073
0.618738
0.720517
0.830808
0.938348
1.02961
1.09599
1.13776
1.16111
1.17303
1.17883
1.18155
1.18281
1.18338
1.18363
1.18374
1.18379
1.18381
1.18382
1.18382
0.658524
0.658489
0.658432
0.658337
0.658181
0.657924
0.657507
0.656839
0.655781
0.654132
0.651612
0.647847
0.642371
0.634656
0.624179
0.610537
0.593576
0.573493
0.550857
0.526517
0.501434
0.47651
0.452459
0.429766
0.408697
0.389344
0.371681
0.355611
0.340997
0.327692
0.315551
0.304437
0.294229
0.284821
0.27612
0.26805
0.260544
0.253541
0.246965
0.240768
0.234913
0.229369
0.224109
0.219111
0.214354
0.209821
0.205497
0.201371
0.197432
0.193671
0.19008
0.186653
0.183387
0.180277
0.177322
0.174521
0.171876
0.16939
0.167068
0.164919
0.162954
0.161191
0.159654
0.158403
0.157433
0.156761
0.156478
0.156647
0.163764
0.174024
0.186055
0.200173
0.216787
0.236429
0.259791
0.287774
0.321539
0.362577
0.412892
0.47493
0.550899
0.641869
0.746014
0.856442
0.960992
1.04676
1.10712
1.14411
1.16437
1.17461
1.17957
1.18189
1.18296
1.18344
1.18366
1.18375
1.18379
1.18381
1.18382
1.18382
0.658524
0.658489
0.658432
0.658337
0.65818
0.657923
0.657505
0.656834
0.655771
0.654114
0.651582
0.647797
0.642291
0.634531
0.623994
0.610275
0.593222
0.573039
0.550301
0.525868
0.500706
0.47572
0.451627
0.428909
0.407828
0.388473
0.370816
0.354755
0.340154
0.326863
0.314736
0.303636
0.293442
0.284046
0.275358
0.2673
0.259806
0.252813
0.246244
0.240053
0.234205
0.228667
0.223414
0.218422
0.213672
0.209147
0.204832
0.200715
0.196786
0.193035
0.189456
0.186044
0.182793
0.1797
0.176765
0.173986
0.171366
0.168909
0.166621
0.164511
0.162594
0.160888
0.159427
0.158259
0.157397
0.156876
0.156808
0.15731
0.166074
0.176685
0.189152
0.203796
0.221044
0.241454
0.265758
0.294901
0.330106
0.37294
0.425524
0.4903
0.569298
0.663128
0.769063
0.879055
0.980364
1.06096
1.1161
1.14914
1.16693
1.17585
1.18014
1.18216
1.18308
1.18349
1.18368
1.18376
1.1838
1.18381
1.18382
1.18382
0.658524
0.658489
0.658432
0.658337
0.65818
0.657921
0.657502
0.656829
0.655762
0.654099
0.651555
0.647752
0.642218
0.634418
0.623826
0.610037
0.5929
0.572625
0.549796
0.525277
0.500043
0.475003
0.450872
0.428131
0.40704
0.387685
0.370034
0.353983
0.339394
0.326116
0.314003
0.302917
0.292735
0.283352
0.274677
0.266631
0.259148
0.252164
0.245602
0.239418
0.233576
0.228045
0.222798
0.217813
0.21307
0.208552
0.204245
0.200137
0.196217
0.192477
0.18891
0.18551
0.182273
0.179197
0.17628
0.173522
0.170926
0.168496
0.166241
0.164171
0.162303
0.16066
0.159304
0.158253
0.157535
0.15727
0.157594
0.158886
0.168174
0.179126
0.191993
0.207114
0.224936
0.246047
0.271211
0.301419
0.337946
0.382443
0.437118
0.504381
0.586068
0.682319
0.789539
0.898689
0.996723
1.07263
1.1233
1.1531
1.16892
1.17681
1.18059
1.18236
1.18317
1.18353
1.1837
1.18377
1.1838
1.18381
1.18382
1.18382
0.658524
0.658489
0.658432
0.658337
0.658179
0.657921
0.6575
0.656825
0.655755
0.654086
0.651532
0.647713
0.642154
0.63432
0.62368
0.609829
0.592618
0.572262
0.54935
0.524756
0.499459
0.474369
0.450205
0.427445
0.406346
0.38699
0.369345
0.353303
0.338726
0.325461
0.31336
0.302286
0.292117
0.282746
0.274082
0.266047
0.258574
0.251598
0.245044
0.238866
0.233031
0.227506
0.222265
0.217286
0.212549
0.208038
0.203738
0.199638
0.195726
0.191996
0.188439
0.18505
0.181826
0.178764
0.175862
0.173122
0.170545
0.168139
0.16591
0.163871
0.162041
0.160447
0.159162
0.15819
0.157579
0.15747
0.158026
0.160483
0.170023
0.181273
0.194495
0.21004
0.228375
0.250111
0.276045
0.307208
0.344926
0.390924
0.447482
0.516952
0.600976
0.699231
0.807323
0.915393
1.01031
1.0821
1.12904
1.15621
1.17048
1.17756
1.18094
1.18252
1.18324
1.18357
1.18371
1.18377
1.1838
1.18381
1.18382
1.18382
0.658524
0.658489
0.658432
0.658337
0.658179
0.65792
0.657499
0.656822
0.655749
0.654075
0.651513
0.647681
0.642103
0.634239
0.623558
0.609655
0.592382
0.571956
0.548974
0.524314
0.498962
0.473831
0.449637
0.42686
0.405753
0.386398
0.368757
0.352724
0.338156
0.324902
0.312813
0.30175
0.291592
0.282231
0.273577
0.265552
0.258089
0.25112
0.244572
0.2384
0.23257
0.227051
0.221815
0.216842
0.212111
0.207606
0.203313
0.199219
0.195315
0.191592
0.188044
0.184664
0.18145
0.178399
0.175509
0.172781
0.170218
0.167826
0.165612
0.163589
0.161775
0.1602
0.158928
0.157964
0.157348
0.157214
0.157704
0.161662
0.171472
0.183015
0.196564
0.21249
0.231277
0.25356
0.280166
0.312163
0.350917
0.398231
0.456427
0.527798
0.6138
0.713674
0.822324
0.929239
1.02134
1.08964
1.13354
1.15864
1.17169
1.17813
1.18121
1.18264
1.18329
1.18359
1.18372
1.18378
1.1838
1.18381
1.18382
1.18382
0.658524
0.658489
0.658432
0.658337
0.658179
0.657919
0.657498
0.65682
0.655745
0.654068
0.651499
0.647657
0.642064
0.634177
0.623464
0.609518
0.592194
0.571712
0.548673
0.523959
0.498561
0.473394
0.449175
0.426383
0.40527
0.385914
0.368277
0.352251
0.337692
0.324447
0.312367
0.301314
0.291165
0.281813
0.273168
0.265151
0.257695
0.250733
0.244189
0.238023
0.232197
0.226682
0.221452
0.216484
0.211758
0.207258
0.202969
0.198881
0.194983
0.191267
0.187726
0.184354
0.181147
0.178104
0.175222
0.172503
0.169949
0.167564
0.165357
0.163338
0.161525
0.15994
0.158651
0.157651
0.156969
0.156716
0.157002
0.16247
0.172546
0.184356
0.198194
0.214445
0.233612
0.256354
0.283521
0.316213
0.355834
0.40425
0.463812
0.536756
0.624371
0.725516
0.834501
0.940321
1.03003
1.09549
1.137
1.16048
1.17261
1.17857
1.18141
1.18273
1.18334
1.18361
1.18373
1.18378
1.18381
1.18382
1.18382
1.18382
0.658524
0.658489
0.658432
0.658337
0.658179
0.657919
0.657498
0.656819
0.655743
0.654063
0.651491
0.647642
0.642037
0.634134
0.623398
0.609421
0.592058
0.571533
0.548449
0.523693
0.498258
0.473063
0.448825
0.42602
0.404901
0.385544
0.36791
0.351889
0.337337
0.3241
0.312027
0.300982
0.290841
0.281496
0.272857
0.264846
0.257396
0.250438
0.243899
0.237736
0.231914
0.226403
0.221177
0.216212
0.21149
0.206994
0.20271
0.198627
0.194733
0.191022
0.187486
0.18412
0.180919
0.177882
0.175006
0.172293
0.169745
0.167365
0.165161
0.163144
0.161327
0.159733
0.158429
0.157401
0.156672
0.156344
0.156509
0.163103
0.173368
0.185378
0.199433
0.215933
0.235393
0.258489
0.286091
0.319323
0.35962
0.408899
0.469533
0.543704
0.632566
0.734665
0.843846
0.948743
1.03656
1.09984
1.13955
1.16184
1.17328
1.1789
1.18156
1.1828
1.18337
1.18362
1.18373
1.18378
1.18381
1.18382
1.18382
1.18382
0.658524
0.658489
0.658432
0.658337
0.658179
0.657919
0.657497
0.656819
0.655742
0.654061
0.651487
0.647634
0.642023
0.634109
0.623359
0.609362
0.591974
0.571419
0.548304
0.523518
0.498058
0.472841
0.448588
0.425774
0.40465
0.385293
0.367661
0.351643
0.337096
0.323864
0.311798
0.300759
0.290624
0.281285
0.27265
0.264642
0.257195
0.250239
0.243703
0.237542
0.231723
0.226215
0.220991
0.216029
0.21131
0.206817
0.202536
0.198456
0.194566
0.190859
0.187326
0.183964
0.180768
0.177735
0.174864
0.172156
0.169612
0.167237
0.165037
0.163022
0.161207
0.159613
0.158305
0.157271
0.156533
0.156194
0.156348
0.163597
0.173973
0.186105
0.200301
0.216965
0.236622
0.259958
0.287858
0.321464
0.362231
0.412113
0.473494
0.548526
0.638258
0.741016
0.850316
0.954546
1.04104
1.10282
1.14129
1.16275
1.17374
1.17911
1.18166
1.18285
1.18339
1.18363
1.18374
1.18379
1.18381
1.18382
1.18382
1.18382
0.658524
0.658489
0.658432
0.658337
0.658179
0.65792
0.657498
0.656819
0.655742
0.654061
0.651485
0.647631
0.642018
0.6341
0.623343
0.609337
0.591937
0.571368
0.548237
0.523437
0.497962
0.472735
0.448473
0.425654
0.404527
0.385168
0.367537
0.35152
0.336975
0.323747
0.311684
0.300649
0.290517
0.281181
0.272548
0.264541
0.257095
0.25014
0.243605
0.237446
0.231628
0.226121
0.220898
0.215938
0.21122
0.206729
0.20245
0.198371
0.194483
0.190778
0.187248
0.183888
0.180694
0.177664
0.174796
0.172091
0.16955
0.167178
0.164982
0.162971
0.16116
0.159569
0.158262
0.157233
0.156501
0.15617
0.15634
0.163879
0.174306
0.186497
0.200761
0.217506
0.237262
0.260718
0.288768
0.322562
0.363568
0.413755
0.475511
0.550974
0.641139
0.744218
0.853565
0.957451
1.04328
1.10431
1.14216
1.16321
1.17397
1.17922
1.18171
1.18287
1.1834
1.18364
1.18374
1.18379
1.18381
1.18382
1.18382
1.18382
0.658524
0.658489
0.658432
0.658337
0.658179
0.65792
0.657498
0.656819
0.655742
0.654061
0.651486
0.647631
0.642018
0.6341
0.623343
0.609337
0.591937
0.571368
0.548238
0.523437
0.497963
0.472736
0.448475
0.425656
0.404529
0.38517
0.367538
0.351522
0.336977
0.323748
0.311685
0.30065
0.290518
0.281182
0.272549
0.264542
0.257097
0.250141
0.243606
0.237447
0.231629
0.226122
0.220899
0.215939
0.211221
0.20673
0.202451
0.198372
0.194484
0.190778
0.187248
0.183889
0.180695
0.177665
0.174797
0.172092
0.169551
0.167179
0.164983
0.162972
0.161162
0.159571
0.158264
0.157235
0.156502
0.156171
0.156343
0.163883
0.17431
0.186501
0.200766
0.217512
0.237269
0.260728
0.288781
0.322578
0.363588
0.41378
0.475543
0.551012
0.641183
0.744264
0.853608
0.957486
1.0433
1.10432
1.14217
1.16322
1.17397
1.17922
1.18172
1.18287
1.1834
1.18364
1.18374
1.18379
1.18381
1.18382
1.18382
1.18382
0.658524
0.658489
0.658432
0.658337
0.658179
0.657919
0.657497
0.656819
0.655742
0.654061
0.651487
0.647634
0.642023
0.63411
0.623359
0.609363
0.591975
0.571421
0.548306
0.523521
0.498061
0.472845
0.448593
0.42578
0.404656
0.385299
0.367666
0.351648
0.337101
0.323869
0.311802
0.300763
0.290627
0.281288
0.272653
0.264645
0.257199
0.250243
0.243706
0.237546
0.231726
0.226218
0.220994
0.216032
0.211313
0.20682
0.202539
0.198458
0.194569
0.190861
0.187329
0.183966
0.18077
0.177737
0.174866
0.172158
0.169614
0.167239
0.16504
0.163026
0.161212
0.159617
0.158309
0.157275
0.156536
0.156196
0.156354
0.16361
0.173986
0.186119
0.200317
0.216984
0.236647
0.259988
0.287896
0.321511
0.36229
0.412186
0.473585
0.548635
0.638384
0.74115
0.850445
0.954656
1.04112
1.10287
1.14132
1.16277
1.17374
1.17912
1.18167
1.18285
1.18339
1.18363
1.18374
1.18379
1.18381
1.18382
1.18382
1.18382
0.658524
0.658489
0.658432
0.658337
0.658179
0.657919
0.657498
0.656819
0.655743
0.654063
0.651491
0.647642
0.642038
0.634134
0.623398
0.609422
0.59206
0.571535
0.548451
0.523697
0.498264
0.473069
0.448832
0.426028
0.40491
0.385553
0.367919
0.351898
0.337345
0.324107
0.312035
0.300989
0.290847
0.281502
0.272863
0.264852
0.257402
0.250443
0.243904
0.237741
0.231919
0.226408
0.221182
0.216217
0.211495
0.206999
0.202715
0.198631
0.194738
0.191026
0.18749
0.184124
0.180923
0.177886
0.17501
0.172297
0.169748
0.167369
0.165165
0.163148
0.161332
0.159737
0.158433
0.157405
0.156675
0.156348
0.156516
0.163123
0.173391
0.185403
0.199462
0.215967
0.235435
0.25854
0.286153
0.319401
0.359718
0.409021
0.469684
0.543888
0.632779
0.734897
0.844075
0.948942
1.03671
1.09994
1.1396
1.16187
1.1733
1.1789
1.18157
1.1828
1.18337
1.18362
1.18373
1.18378
1.18381
1.18382
1.18382
1.18382
0.658524
0.658489
0.658432
0.658337
0.658179
0.65792
0.657498
0.65682
0.655745
0.654068
0.6515
0.647658
0.642064
0.634177
0.623464
0.609519
0.592195
0.571714
0.548676
0.523963
0.498567
0.473401
0.449184
0.426393
0.40528
0.385925
0.368288
0.352262
0.337702
0.324457
0.312377
0.301323
0.291174
0.281821
0.273176
0.265158
0.257703
0.25074
0.244196
0.23803
0.232204
0.226689
0.221459
0.21649
0.211764
0.207264
0.202976
0.198888
0.19499
0.191273
0.187732
0.18436
0.181153
0.17811
0.175228
0.172509
0.169954
0.167569
0.165362
0.163343
0.161529
0.159945
0.158656
0.157657
0.156976
0.156725
0.157011
0.162498
0.172578
0.184393
0.198237
0.214495
0.233672
0.256426
0.283609
0.316321
0.355967
0.404415
0.464017
0.537003
0.624659
0.725831
0.834817
0.940602
1.03025
1.09563
1.13708
1.16053
1.17263
1.17858
1.18142
1.18274
1.18334
1.18361
1.18373
1.18378
1.18381
1.18382
1.18382
1.18382
0.658524
0.658489
0.658432
0.658337
0.658179
0.65792
0.657499
0.656822
0.655749
0.654075
0.651513
0.647681
0.642103
0.634239
0.623558
0.609655
0.592382
0.571957
0.548977
0.524318
0.498968
0.473838
0.449646
0.42687
0.405765
0.38641
0.36877
0.352736
0.338169
0.324915
0.312825
0.301762
0.291603
0.282241
0.273587
0.265561
0.258098
0.251129
0.244581
0.238409
0.232579
0.227059
0.221824
0.216851
0.21212
0.207615
0.203321
0.199227
0.195323
0.191601
0.188052
0.184673
0.181459
0.178407
0.175517
0.17279
0.170227
0.167834
0.16562
0.163596
0.161782
0.160207
0.158936
0.157974
0.157363
0.157232
0.157719
0.161697
0.171513
0.183062
0.19662
0.212555
0.231354
0.253653
0.280278
0.312299
0.351085
0.398438
0.456681
0.528104
0.614157
0.714069
0.822724
0.929601
1.02163
1.08983
1.13366
1.1587
1.17172
1.17815
1.18122
1.18264
1.1833
1.18359
1.18372
1.18378
1.1838
1.18381
1.18382
1.18382
0.658524
0.658489
0.658432
0.658337
0.658179
0.657921
0.6575
0.656825
0.655755
0.654086
0.651532
0.647713
0.642154
0.634319
0.623679
0.609828
0.592618
0.572262
0.549352
0.524758
0.499463
0.474376
0.450214
0.427455
0.406357
0.387003
0.369358
0.353317
0.33874
0.325474
0.313373
0.302299
0.292129
0.282758
0.274093
0.266058
0.258585
0.251609
0.245054
0.238877
0.233041
0.227516
0.222275
0.217296
0.21256
0.208049
0.203749
0.199649
0.195737
0.192007
0.18845
0.185062
0.181838
0.178776
0.175874
0.173134
0.170558
0.168151
0.165922
0.163883
0.162053
0.160461
0.159177
0.158208
0.157602
0.157498
0.158051
0.160523
0.170071
0.18133
0.194562
0.210118
0.228468
0.250222
0.276178
0.30737
0.345124
0.391167
0.44778
0.517312
0.601397
0.699699
0.807805
0.915838
1.01067
1.08235
1.12919
1.1563
1.17053
1.17758
1.18095
1.18252
1.18324
1.18357
1.18371
1.18377
1.1838
1.18381
1.18382
1.18382
0.658524
0.658489
0.658432
0.658337
0.65818
0.657922
0.657502
0.656829
0.655762
0.654099
0.651555
0.647751
0.642217
0.634417
0.623825
0.610035
0.592899
0.572624
0.549795
0.525277
0.500046
0.475007
0.450879
0.428141
0.407051
0.387698
0.370048
0.353997
0.339409
0.326131
0.314017
0.302931
0.292749
0.283365
0.274689
0.266643
0.25916
0.252175
0.245614
0.23943
0.233588
0.228057
0.22281
0.217825
0.213082
0.208565
0.204258
0.20015
0.19623
0.19249
0.188924
0.185524
0.182288
0.179213
0.176296
0.173539
0.170944
0.168515
0.16626
0.164191
0.162324
0.160682
0.159329
0.158281
0.157567
0.157306
0.157629
0.158934
0.168231
0.179188
0.192065
0.207199
0.225038
0.24617
0.271359
0.3016
0.338169
0.382715
0.437453
0.504786
0.586545
0.682854
0.790098
0.899216
0.997159
1.07294
1.1235
1.15321
1.16898
1.17684
1.1806
1.18237
1.18317
1.18354
1.1837
1.18377
1.1838
1.18381
1.18382
1.18382
0.658524
0.658489
0.658432
0.658337
0.65818
0.657923
0.657505
0.656834
0.655771
0.654114
0.651582
0.647796
0.64229
0.63453
0.623992
0.610272
0.593219
0.573035
0.550298
0.525866
0.500706
0.475722
0.451632
0.428916
0.407838
0.388485
0.370829
0.35477
0.340169
0.326878
0.314751
0.303651
0.293456
0.28406
0.275372
0.267313
0.259819
0.252825
0.246257
0.240066
0.234218
0.22868
0.223427
0.218436
0.213686
0.209161
0.204846
0.20073
0.196801
0.193051
0.189473
0.186061
0.182811
0.179719
0.176784
0.174007
0.171388
0.168932
0.166644
0.164536
0.162619
0.160913
0.159453
0.158286
0.157425
0.156906
0.156843
0.157364
0.166144
0.176759
0.189235
0.203893
0.221158
0.241591
0.265922
0.295101
0.330349
0.373237
0.425889
0.490742
0.56982
0.66372
0.769692
0.879662
0.98088
1.06134
1.11634
1.14927
1.167
1.17588
1.18016
1.18216
1.18308
1.1835
1.18368
1.18376
1.1838
1.18381
1.18382
1.18382
0.658524
0.658489
0.658432
0.658337
0.658181
0.657924
0.657507
0.656839
0.655781
0.654132
0.651612
0.647846
0.64237
0.634654
0.624176
0.610533
0.59357
0.573487
0.550851
0.526512
0.501431
0.476509
0.452461
0.429771
0.408705
0.389354
0.371694
0.355624
0.341011
0.327707
0.315566
0.304452
0.294244
0.284835
0.276134
0.268064
0.260557
0.253554
0.246979
0.240781
0.234926
0.229383
0.224123
0.219125
0.214368
0.209836
0.205513
0.201388
0.197449
0.193688
0.190098
0.186672
0.183407
0.180298
0.177344
0.174544
0.1719
0.169415
0.167094
0.164946
0.162983
0.16122
0.159684
0.158433
0.157462
0.156791
0.156509
0.156688
0.163837
0.174104
0.186146
0.200278
0.216911
0.236577
0.259969
0.287988
0.321799
0.362893
0.413278
0.475399
0.551457
0.642508
0.746703
0.857122
0.961588
1.04721
1.10742
1.14429
1.16446
1.17466
1.17959
1.1819
1.18296
1.18344
1.18366
1.18375
1.18379
1.18381
1.18382
1.18382
0.658524
0.65849
0.658433
0.658338
0.658181
0.657925
0.65751
0.656844
0.655791
0.65415
0.651643
0.647899
0.642454
0.634785
0.624371
0.610809
0.593943
0.573967
0.551439
0.527201
0.502205
0.47735
0.453349
0.430689
0.409638
0.390292
0.372627
0.356549
0.341925
0.328608
0.316454
0.305326
0.295105
0.285684
0.276971
0.268888
0.26137
0.254357
0.247775
0.241571
0.23571
0.230161
0.224895
0.219891
0.215127
0.210587
0.206257
0.202122
0.198173
0.194401
0.190799
0.187359
0.184077
0.180951
0.177977
0.175155
0.172487
0.169974
0.167623
0.165443
0.163444
0.161646
0.160076
0.158804
0.157841
0.157238
0.157145
0.157761
0.161785
0.171473
0.182938
0.196447
0.212368
0.231192
0.253567
0.280341
0.312614
0.351798
0.399768
0.458933
0.531655
0.61941
0.721254
0.831554
0.939024
1.03015
1.09635
1.13798
1.16122
1.17309
1.17885
1.18157
1.18281
1.18338
1.18363
1.18374
1.18379
1.18381
1.18382
1.18382
0.658524
0.65849
0.658433
0.658338
0.658182
0.657927
0.657513
0.65685
0.655801
0.654168
0.651675
0.647952
0.642541
0.634919
0.62457
0.611092
0.594327
0.574462
0.552048
0.527915
0.503011
0.478228
0.454279
0.431652
0.410619
0.39128
0.373615
0.357531
0.342897
0.329568
0.317402
0.306263
0.29603
0.286597
0.277873
0.269779
0.26225
0.255227
0.248639
0.24243
0.236564
0.231009
0.225738
0.220728
0.215958
0.211411
0.207073
0.20293
0.198972
0.195188
0.191573
0.188119
0.184822
0.181678
0.178684
0.17584
0.173146
0.170605
0.168223
0.166006
0.163967
0.162123
0.160498
0.159157
0.158117
0.15742
0.157195
0.157593
0.15913
0.168408
0.179369
0.192276
0.207475
0.225428
0.246742
0.272211
0.30287
0.340053
0.385496
0.441528
0.510631
0.594657
0.693525
0.802984
0.91297
1.00973
1.08269
1.13001
1.15707
1.17105
1.1779
1.18113
1.18262
1.18329
1.18359
1.18372
1.18378
1.18381
1.18382
1.18382
0.658524
0.65849
0.658433
0.658338
0.658183
0.657928
0.657515
0.656855
0.65581
0.654186
0.651706
0.648004
0.642625
0.63505
0.624767
0.611373
0.594709
0.574957
0.552659
0.528635
0.503826
0.479119
0.455227
0.432638
0.411629
0.3923
0.374637
0.35855
0.343909
0.330572
0.318396
0.307247
0.297004
0.287562
0.278828
0.270725
0.263186
0.256154
0.249562
0.243349
0.237479
0.23192
0.226645
0.22163
0.216855
0.212302
0.207957
0.203806
0.199838
0.196045
0.192417
0.18895
0.185637
0.182475
0.179461
0.176594
0.173875
0.171305
0.168889
0.166632
0.164546
0.162644
0.160946
0.159483
0.158301
0.157412
0.156838
0.156653
0.156902
0.165159
0.175618
0.187904
0.202352
0.219398
0.239608
0.263724
0.292711
0.327821
0.370666
0.423435
0.488684
0.568583
0.663834
0.771598
0.883339
0.985586
1.06593
1.11995
1.15171
1.16841
1.17665
1.18056
1.18236
1.18318
1.18354
1.1837
1.18377
1.1838
1.18381
1.18382
0.658524
0.65849
0.658433
0.658338
0.658183
0.657929
0.657518
0.656859
0.655819
0.654202
0.651734
0.648053
0.642705
0.635175
0.624953
0.611641
0.595076
0.575434
0.553251
0.529337
0.504626
0.479998
0.456167
0.433621
0.412639
0.393327
0.375671
0.359584
0.344941
0.331599
0.319416
0.308261
0.298012
0.288563
0.279823
0.271713
0.264167
0.257129
0.250533
0.244318
0.238445
0.232883
0.227605
0.222587
0.217808
0.21325
0.208899
0.204741
0.200765
0.196962
0.193323
0.189843
0.186515
0.183335
0.180302
0.177413
0.174669
0.172071
0.169622
0.167329
0.1652
0.163248
0.161491
0.159956
0.15871
0.157766
0.157173
0.157074
0.157661
0.162275
0.17201
0.183547
0.197166
0.213249
0.232311
0.255033
0.282307
0.315297
0.355505
0.40494
0.466155
0.541579
0.632593
0.737722
0.850199
0.95742
1.04556
1.10734
1.14481
1.16497
1.17503
1.17982
1.18203
1.18303
1.18348
1.18368
1.18376
1.1838
1.18381
1.18382
0.658524
0.658489
0.658433
0.658338
0.658183
0.657929
0.657519
0.656863
0.655826
0.654216
0.651759
0.648096
0.642775
0.635287
0.625122
0.611884
0.595411
0.575874
0.553801
0.529996
0.505381
0.480835
0.457068
0.43457
0.41362
0.39433
0.376687
0.360607
0.345966
0.332624
0.320441
0.309284
0.299032
0.289581
0.280838
0.272725
0.265175
0.258131
0.251535
0.245319
0.239447
0.233884
0.228605
0.223585
0.218803
0.214242
0.209886
0.205722
0.201739
0.197927