/*--------------------------------*- C++ -*----------------------------------*\
  =========                 |
  \\      /  F ield         | OpenFOAM: The Open Source CFD Toolbox
   \\    /   O peration     | Website:  https://openfoam.org
    \\  /    A nd           | Version:  8
     \\/     M anipulation  |
\*---------------------------------------------------------------------------*/
FoamFile
{
    version     2.0;
    format      ascii;
    class       volScalarField;
    location    "100/fluid";
    object      T;
}
// * * * * * * * * * * * * * * * * * * * * * * * * * * * * * * * * * * * * * //

dimensions      [0 0 0 1 0 0 0];

internalField   nonuniform List<scalar> 
4000
(
293.005
293.023
293.052
293.099
293.178
293.305
293.511
293.839
294.359
295.168
296.411
298.286
301.054
305.043
310.636
318.241
328.248
340.968
356.587
375.137
396.498
420.434
446.636
474.774
504.533
535.631
567.831
600.95
634.847
669.415
704.577
740.273
776.459
813.095
850.149
887.587
925.372
963.464
1001.82
1040.46
1079.42
1118.66
1158.17
1197.92
1237.88
1278.02
1318.31
1358.71
1399.19
1439.7
1480.2
1520.65
1560.97
1601.12
1641.03
1680.61
1719.78
1758.44
1796.47
1833.74
1870.09
1905.31
1939.19
1971.43
2001.67
2029.44
2053.88
2074.58
2090.86
2101.14
2103.87
2092.03
1987.74
1877.32
1762.13
1643.39
1522.19
1399.58
1276.57
1154.21
1033.64
916.092
802.667
695.143
596.218
508.962
436.39
380.656
341.977
318.057
304.894
298.397
295.374
294.021
293.432
293.18
293.073
293.028
293.009
293.002
293.005
293.023
293.051
293.099
293.178
293.305
293.511
293.839
294.359
295.168
296.411
298.283
301.046
305.023
310.596
318.17
328.133
340.802
356.369
374.875
396.21
420.144
446.372
474.561
504.39
535.582
567.908
601.176
635.238
669.988
705.339
741.231
777.614
814.449
851.701
889.334
927.312
965.591
1004.13
1042.95
1082.09
1121.51
1161.19
1201.1
1241.22
1281.51
1321.95
1362.49
1403.11
1443.75
1484.37
1524.93
1565.36
1605.61
1645.6
1685.26
1724.5
1763.22
1801.29
1838.59
1874.95
1910.18
1944.05
1976.26
2006.45
2034.13
2058.43
2078.89
2094.63
2103.83
2104.09
2073.69
1967.76
1855.53
1738.5
1617.93
1494.92
1370.54
1245.82
1121.89
999.976
881.388
767.407
660.33
563.275
479.598
412.299
362.935
330.538
311.62
301.743
296.968
294.758
293.766
293.329
293.139
293.057
293.022
293.008
293.001
293.005
293.023
293.051
293.099
293.178
293.305
293.512
293.842
294.363
295.175
296.42
298.296
301.061
305.039
310.608
318.174
328.125
340.777
356.326
374.817
396.143
420.083
446.341
474.595
504.529
535.861
568.353
601.817
636.105
671.1
706.718
742.892
779.572
816.715
854.283
892.238
930.538
969.139
1008
1047.15
1086.61
1126.34
1166.34
1206.56
1246.97
1287.56
1328.28
1369.09
1409.96
1450.85
1491.71
1532.48
1573.12
1613.55
1653.71
1693.51
1732.87
1771.68
1809.83
1847.16
1883.52
1918.7
1952.47
1984.53
2014.51
2041.92
2065.98
2086.32
2102.52
2113.45
2118.18
2046.24
1936.23
1820.74
1701
1578.16
1453.27
1327.42
1201.71
1077.35
955.737
838.157
726.272
622.806
530.955
453.835
393.728
351.078
323.877
308.277
300.182
296.267
294.45
293.632
293.271
293.114
293.047
293.018
293.006
293.001
293.005
293.022
293.051
293.099
293.177
293.305
293.512
293.842
294.363
295.176
296.423
298.299
301.065
305.044
310.614
318.182
328.137
340.799
356.368
374.894
396.276
420.295
446.654
475.03
505.111
536.616
569.308
602.995
637.528
672.794
708.706
745.196
782.213
819.709
857.646
895.979
934.666
973.657
1012.91
1052.47
1092.33
1132.48
1172.87
1213.49
1254.29
1295.26
1336.34
1377.51
1418.73
1459.94
1501.1
1542.17
1583.07
1623.74
1664.11
1704.1
1743.61
1782.53
1820.74
1858.09
1894.39
1929.44
1962.97
1994.64
2024.03
2050.39
2073.09
2091.93
2105.53
2112.68
2111.97
2007.4
1894.84
1777
1655.24
1530.76
1404.72
1278.24
1152.51
1028.85
908.681
793.275
684.685
585.823
499.793
429.371
376.173
339.741
317.32
304.85
298.54
295.517
294.12
293.49
293.211
293.09
293.037
293.015
293.005
293.001
293.005
293.022
293.051
293.099
293.177
293.305
293.512
293.842
294.365
295.18
296.429
298.311
301.084
305.073
310.659
318.248
328.233
340.936
356.559
375.154
396.624
420.751
447.241
475.771
506.028
537.731
570.644
604.575
639.377
674.934
711.16
747.988
785.362
823.236
861.566
900.308
939.412
978.826
1018.51
1058.52
1098.83
1139.43
1180.28
1221.34
1262.59
1303.98
1345.49
1387.06
1428.67
1470.25
1511.76
1553.15
1594.35
1635.29
1675.89
1716.08
1755.74
1794.77
1833.03
1870.35
1906.56
1941.41
1974.62
2005.82
2034.54
2059.64
2080.71
2097.06
2106.27
2105.19
2071.6
1963.69
1848.91
1729.1
1605.79
1480.25
1353.69
1227.29
1102.32
980.13
862.088
749.612
645.109
551.527
471.793
408.232
361.693
330.852
312.418
302.387
297.379
294.99
293.886
293.388
293.167
293.071
293.029
293.012
293.004
293.001
293.005
293.022
293.051
293.099
293.177
293.305
293.512
293.843
294.366
295.183
296.436
298.323
301.105
305.108
310.715
318.336
328.367
341.131
356.834
375.53
397.121
421.39
448.041
476.752
507.209
539.13
572.281
606.472
641.553
677.412
713.961
751.133
788.873
827.131
865.862
905.017
944.546
984.391
1024.52
1064.99
1105.77
1146.84
1188.16
1229.69
1271.39
1313.24
1355.18
1397.19
1439.2
1481.17
1523.04
1564.77
1606.27
1647.48
1688.32
1728.69
1768.49
1807.59
1845.86
1883.11
1919.15
1953.72
1986.51
2017.14
2045.04
2069.34
2089.92
2106.53
2118.05
2124.19
2034.63
1921.38
1803.07
1680.93
1556.13
1429.84
1303.19
1177.36
1053.62
933.375
817.834
708.724
608.665
520.55
447.062
390.018
349.521
323.524
308.42
300.398
296.439
294.561
293.695
293.305
293.132
293.056
293.023
293.009
293.003
293.001
293.005
293.022
293.051
293.099
293.177
293.305
293.512
293.844
294.369
295.188
296.445
298.34
301.135
305.158
310.793
318.456
328.543
341.383
357.182
375.996
397.726
422.154
448.984
477.892
508.563
540.717
574.117
608.575
643.942
680.107
716.981
754.497
792.599
831.237
870.363
909.928
949.874
990.143
1030.72
1071.64
1112.89
1154.42
1196.2
1238.2
1280.36
1322.65
1365.03
1407.46
1449.87
1492.22
1534.46
1576.5
1618.3
1659.77
1700.82
1741.35
1781.26
1820.4
1858.64
1895.76
1931.56
1965.74
1997.95
2027.72
2053.98
2076.33
2094.33
2105.96
2109.11
2098.07
1990.11
1875.4
1755.72
1632.54
1507.16
1380.77
1254.56
1129.73
1007.61
889.535
776.735
671.248
575.797
493.164
425.738
374.778
339.667
317.778
305.367
298.902
295.737
294.242
293.554
293.243
293.105
293.045
293.019
293.007
293.002
293
293.005
293.022
293.051
293.099
293.177
293.305
293.513
293.845
294.372
295.194
296.457
298.361
301.17
305.215
310.884
318.594
328.747
341.673
357.58
376.524
398.406
423.006
450.026
479.14
510.032
542.423
576.075
610.801
646.453
682.919
720.112
757.965
796.42
835.427
874.935
914.893
955.24
995.916
1036.92
1078.29
1119.98
1161.96
1204.18
1246.62
1289.22
1331.95
1374.75
1417.57
1460.37
1503.08
1545.65
1588
1630.06
1671.76
1712.99
1753.66
1793.64
1832.8
1870.96
1907.92
1943.45
1977.24
2008.92
2037.96
2063.1
2084.14
2100.5
2109.84
2109.48
2057.09
1947.42
1831.18
1710.31
1586.36
1460.68
1334.49
1208.97
1085.38
965.056
849.221
739.271
637.507
546.647
469.333
407.607
362.159
331.721
313.246
302.996
297.748
295.197
293.996
293.444
293.195
293.085
293.036
293.015
293.006
293.002
293
293.005
293.022
293.051
293.099
293.177
293.305
293.513
293.847
294.376
295.202
296.471
298.385
301.21
305.28
310.986
318.747
328.97
341.988
358.009
377.09
399.13
423.906
451.12
480.442
511.557
544.184
578.086
613.075
649.005
685.764
723.265
761.44
800.233
839.592
879.463
919.793
960.519
1001.58
1042.99
1084.77
1126.88
1169.28
1211.93
1254.78
1297.79
1340.92
1384.11
1427.3
1470.45
1513.5
1556.37
1598.99
1641.3
1683.19
1724.57
1765.34
1805.35
1844.47
1882.51
1919.25
1954.43
1987.72
2018.72
2046.8
2071.06
2091.36
2107.46
2118
2122.38
2023.65
1909.67
1790.78
1668.31
1543.53
1417.62
1291.73
1167.03
1044.77
926.274
812.669
705.598
607.523
521.118
448.847
392.377
351.835
325.388
309.714
301.178
296.87
294.788
293.81
293.361
293.159
293.069
293.029
293.012
293.005
293.002
293
293.005
293.022
293.051
293.099
293.177
293.306
293.515
293.849
294.38
295.21
296.486
298.411
301.253
305.349
311.093
318.908
329.204
342.316
358.454
377.673
399.872
424.825
452.23
481.759
513.092
545.948
580.091
615.334
651.531
688.569
726.363
764.844
803.956
843.644
883.855
924.532
965.61
1007.03
1048.82
1090.98
1133.48
1176.27
1219.31
1262.54
1305.93
1349.42
1392.96
1436.5
1479.97
1523.31
1566.45
1609.31
1651.82
1693.88
1735.38
1776.21
1816.23
1855.28
1893.16
1929.65
1964.45
1997.18
2027.37
2053.82
2076.21
2094.13
2105.4
2107.82
2094.94
1986.6
1871.59
1751.77
1628.67
1503.62
1377.84
1252.49
1128.76
1007.91
891.215
779.816
675.604
581.118
498.96
431.391
379.686
343.437
320.352
306.956
299.777
296.197
294.475
293.668
293.298
293.131
293.057
293.024
293.01
293.004
293.001
293
293.005
293.022
293.051
293.099
293.177
293.306
293.516
293.852
294.385
295.219
296.501
298.437
301.296
305.419
311.201
319.071
329.439
342.645
358.898
378.254
400.608
425.733
453.325
483.052
514.594
547.67
582.043
617.527
653.974
691.275
729.343
768.11
807.518
847.512
888.037
929.033
970.434
1012.18
1054.32
1096.84
1139.69
1182.83
1226.22
1269.8
1313.53
1357.35
1401.21
1445.05
1488.8
1532.4
1575.78
1618.85
1661.52
1703.71
1745.3
1786.16
1826.16
1865.13
1902.86
1939.11
1973.57
2005.87
2035.47
2061.01
2082.38
2098.98
2108.31
2107.6
2062.67
1952.94
1836.75
1716.08
1592.49
1467.32
1341.78
1217.04
1094.31
974.853
859.871
750.604
649.151
558.075
479.89
416.632
369.178
336.638
316.357
304.8
298.702
295.682
294.235
293.559
293.249
293.11
293.048
293.02
293.009
293.003
293.001
293
293.005
293.022
293.051
293.099
293.178
293.307
293.517
293.854
294.39
295.227
296.516
298.463
301.339
305.487
311.307
319.229
329.668
342.964
359.329
378.815
401.318
426.608
454.376
484.291
516.03
549.312
583.9
619.608
656.289
693.832
732.154
771.183
810.863
851.137
891.948
933.233
974.927
1016.98
1059.43
1102.26
1145.43
1188.9
1232.6
1276.49
1320.52
1364.64
1408.78
1452.88
1496.88
1540.7
1584.28
1627.52
1670.33
1712.61
1754.25
1795.13
1835.07
1873.93
1911.48
1947.47
1981.61
2013.51
2042.66
2067.87
2089.28
2106.73
2118.61
2123.91
2038.72
1925.14
1806.65
1684.63
1560.34
1434.96
1309.63
1185.47
1063.69
945.545
832.147
724.897
626.048
538.151
463.618
404.247
360.532
331.155
313.193
303.117
297.869
295.285
294.051
293.475
293.212
293.093
293.041
293.017
293.007
293.003
293.001
293
293.005
293.022
293.051
293.099
293.178
293.308
293.518
293.857
294.394
295.236
296.531
298.487
301.38
305.552
311.407
319.378
329.884
343.264
359.733
379.342
401.984
427.427
455.36
485.448
517.37
550.842
585.628
621.54
658.435
696.2
734.751
774.019
813.944
854.47
895.537
937.082
979.039
1021.36
1064.09
1107.21
1150.66
1194.41
1238.39
1282.55
1326.85
1371.22
1415.61
1459.94
1504.15
1548.17
1591.91
1635.28
1678.2
1720.55
1762.22
1803.07
1842.93
1881.62
1918.92
1954.56
1988.2
2019.43
2047.58
2071.71
2091.68
2107.04
2115.91
2116.55
2011.96
1897.6
1778.39
1655.87
1531.35
1406.02
1281.03
1157.51
1036.66
919.74
807.816
702.463
606.033
521.054
449.829
393.916
353.449
326.744
310.686
301.799
297.221
294.976
293.908
293.411
293.183
293.081
293.035
293.015
293.006
293.002
293.001
293
293.005
293.022
293.051
293.099
293.178
293.308
293.519
293.859
294.398
295.243
296.544
298.509
301.416
305.61
311.497
319.514
330.08
343.538
360.102
379.822
402.591
428.173
456.256
486.502
518.589
552.233
587.197
623.294
660.38
698.344
737.101
776.58
816.724
857.472
898.765
940.54
982.727
1025.29
1068.26
1111.63
1155.33
1199.32
1243.55
1287.95
1332.48
1377.07
1421.67
1466.19
1510.59
1554.76
1598.64
1642.13
1685.13
1727.53
1769.21
1810.01
1849.77
1888.3
1925.34
1960.6
1993.71
2024.2
2050.87
2073.43
2091.63
2103.44
2106.96
2097.06
1988.23
1873.02
1753.23
1630.37
1505.75
1380.57
1255.95
1133.05
1013.08
897.276
786.701
683.09
588.869
506.525
438.249
385.366
347.682
323.208
308.704
300.766
296.715
294.737
293.797
293.36
293.161
293.071
293.031
293.013
293.005
293.002
293.001
293
293.005
293.022
293.051
293.099
293.178
293.309
293.52
293.861
294.402
295.249
296.555
298.528
301.448
305.661
311.576
319.632
330.251
343.778
360.426
380.246
403.127
428.832
457.048
487.434
519.667
553.463
588.584
624.844
662.098
700.235
739.171
778.836
819.169
860.111
901.6
943.572
985.959
1028.72
1071.92
1115.49
1159.41
1203.61
1248.04
1292.65
1337.37
1382.15
1426.92
1471.62
1516.16
1560.47
1604.47
1648.05
1691.12
1733.57
1775.25
1816.02
1855.7
1894.09
1930.92
1965.89
1998.6
2028.49
2054.19
2075.68
2092.44
2102.12
2102.49
2077.46
1967.78
1851.89
1731.63
1608.51
1483.84
1358.79
1234.52
1112.18
992.977
878.123
768.728
666.665
574.401
494.375
428.664
378.377
343.033
320.396
307.144
299.96
296.321
294.55
293.711
293.321
293.143
293.063
293.027
293.012
293.005
293.002
293.001
293
293.005
293.022
293.051
293.099
293.179
293.309
293.521
293.862
294.404
295.254
296.563
298.543
301.473
305.702
311.641
319.73
330.394
343.979
360.699
380.604
403.582
429.393
457.723
488.229
520.588
554.513
589.769
626.168
663.565
701.85
740.939
780.76
821.253
862.358
904.013
946.151
988.704
1031.64
1075.01
1118.77
1162.86
1207.24
1251.84
1296.61
1341.5
1386.44
1431.36
1476.19
1520.86
1565.28
1609.38
1653.04
1696.17
1738.66
1780.35
1821.12
1860.77
1899.1
1935.84
1970.7
2003.26
2032.94
2058.48
2079.87
2096.66
2106.65
2107.83
2063.34
1952.09
1835.13
1714.18
1590.66
1465.83
1340.84
1216.82
1094.91
976.344
862.27
753.865
653.123
562.513
484.45
420.899
372.774
339.348
318.191
305.93
299.336
296.018
294.407
293.645
293.291
293.13
293.057
293.025
293.011
293.004
293.002
293.001
293
293.005
293.022
293.051
293.099
293.179
293.309
293.521
293.863
294.406
295.257
296.57
298.555
301.492
305.733
311.69
319.806
330.506
344.138
360.917
380.891
403.948
429.847
458.271
488.877
521.339
555.371
590.737
627.249
664.764
703.169
742.381
782.329
822.952
864.19
905.978
948.25
990.939
1034.02
1077.53
1121.43
1165.67
1210.18
1254.92
1299.83
1344.85
1389.91
1434.95
1479.89
1524.66
1569.17
1613.34
1657.07
1700.26
1742.78
1784.5
1825.28
1864.93
1903.26
1940
1974.86
2007.47
2037.32
2063.1
2084.98
2102.67
2114.22
2118.07
2053.9
1940.68
1822.45
1700.68
1576.7
1451.65
1326.65
1202.78
1081.19
963.104
849.635
742.025
642.347
553.081
476.606
414.799
368.408
336.501
316.5
305.005
298.863
295.787
294.298
293.594
293.268
293.119
293.053
293.023
293.01
293.004
293.002
293.001
293
293.005
293.022
293.051
293.099
293.179
293.309
293.521
293.863
294.407
295.259
296.573
298.562
301.505
305.755
311.725
319.86
330.587
344.255
361.077
381.105
404.223
430.189
458.685
489.368
521.91
556.025
591.476
628.076
665.679
704.177
743.482
783.526
824.245
865.581
907.47
949.847
992.639
1035.83
1079.45
1123.46
1167.8
1212.42
1257.26
1302.27
1347.39
1392.54
1437.67
1482.69
1527.53
1572.11
1616.34
1660.12
1703.34
1745.89
1787.64
1828.43
1868.09
1906.42
1943.18
1978.08
2010.76
2040.79
2066.79
2089.05
2107.36
2119.91
2125.33
2046.53
1932.02
1812.9
1690.56
1566.23
1441.02
1315.99
1192.24
1070.88
953.148
840.127
733.106
634.232
545.986
470.72
410.237
365.158
334.393
315.254
304.326
298.516
295.619
294.218
293.557
293.251
293.112
293.049
293.021
293.009
293.004
293.002
293.001
293
293.005
293.022
293.051
293.099
293.178
293.309
293.521
293.863
294.407
295.26
296.575
298.565
301.511
305.766
311.745
319.892
330.637
344.327
361.18
381.243
404.403
430.416
458.963
489.698
522.296
556.468
591.977
628.636
666.3
704.859
744.226
784.332
825.114
866.513
908.472
950.921
993.786
1037.05
1080.75
1124.83
1169.24
1213.93
1258.85
1303.92
1349.1
1394.32
1439.5
1484.57
1529.46
1574.08
1618.35
1662.15
1705.4
1747.96
1789.71
1830.5
1870.16
1908.48
1945.23
1980.13
2012.81
2042.86
2068.94
2091.28
2109.7
2122.4
2127.9
2040.74
1925.67
1806.14
1683.53
1559.04
1433.76
1308.76
1185.09
1063.9
946.405
833.679
727.054
628.72
541.162
466.718
407.138
362.952
332.963
314.409
303.864
298.283
295.505
294.164
293.532
293.24
293.107
293.047
293.02
293.009
293.004
293.001
293
293
293.005
293.022
293.051
293.099
293.178
293.309
293.521
293.863
294.407
295.26
296.575
298.566
301.513
305.771
311.753
319.906
330.658
344.36
361.227
381.308
404.488
430.525
459.097
489.859
522.485
556.686
592.225
628.914
666.609
705.198
744.595
784.73
825.541
866.974
908.967
951.453
994.356
1037.66
1081.39
1125.51
1169.96
1214.69
1259.64
1304.75
1349.96
1395.2
1440.41
1485.51
1530.42
1575.06
1619.34
1663.16
1706.41
1748.98
1790.73
1831.51
1871.15
1909.45
1946.18
1981.04
2013.69
2043.69
2069.76
2092.03
2110.38
2122.95
2128.2
2037.44
1922.17
1802.51
1679.82
1555.3
1430.02
1305.05
1181.45
1060.35
942.988
830.422
724.01
625.957
538.754
464.726
405.6
361.857
332.252
313.986
303.632
298.165
295.447
294.137
293.52
293.234
293.104
293.046
293.02
293.009
293.004
293.001
293
293
293.005
293.022
293.051
293.099
293.178
293.309
293.521
293.863
294.407
295.26
296.575
298.566
301.513
305.771
311.753
319.906
330.658
344.36
361.227
381.307
404.488
430.524
459.095
489.858
522.483
556.684
592.223
628.912
666.606
705.196
744.593
784.727
825.54
866.972
908.965
951.451
994.354
1037.66
1081.39
1125.51
1169.96
1214.69
1259.64
1304.75
1349.96
1395.2
1440.41
1485.51
1530.42
1575.06
1619.34
1663.16
1706.41
1748.98
1790.72
1831.5
1871.14
1909.44
1946.16
1981.02
2013.67
2043.67
2069.74
2092.02
2110.37
2122.94
2128.17
2037.38
1922.13
1802.47
1679.78
1555.25
1429.97
1305
1181.4
1060.3
942.937
830.372
723.963
625.915
538.717
464.698
405.579
361.844
332.245
313.982
303.63
298.164
295.447
294.137
293.52
293.234
293.104
293.046
293.02
293.009
293.004
293.001
293
293
293.005
293.022
293.051
293.099
293.178
293.309
293.521
293.863
294.407
295.26
296.575
298.565
301.511
305.766
311.745
319.892
330.636
344.327
361.179
381.242
404.401
430.413
458.959
489.694
522.29
556.462
591.97
628.629
666.293
704.852
744.22
784.326
825.108
866.508
908.466
950.915
993.78
1037.04
1080.74
1124.82
1169.23
1213.93
1258.84
1303.92
1349.09
1394.31
1439.49
1484.56
1529.45
1574.08
1618.34
1662.15
1705.39
1747.95
1789.7
1830.49
1870.14
1908.46
1945.2
1980.09
2012.77
2042.81
2068.89
2091.24
2109.68
2122.39
2127.83
2040.59
1925.53
1806.01
1683.4
1558.9
1433.62
1308.61
1184.94
1063.75
946.254
833.532
726.916
628.596
541.057
466.634
407.077
362.91
332.937
314.394
303.856
298.279
295.503
294.163
293.532
293.24
293.107
293.047
293.02
293.009
293.004
293.001
293
293
293.005
293.022
293.051
293.099
293.178
293.309
293.521
293.863
294.407
295.259
296.573
298.561
301.504
305.755
311.725
319.86
330.587
344.254
361.076
381.103
404.22
430.185
458.68
489.362
521.902
556.016
591.467
628.066
665.669
704.167
743.472
783.516
824.236
865.572
907.461
949.838
992.63
1035.82
1079.44
1123.45
1167.79
1212.41
1257.26
1302.26
1347.38
1392.53
1437.65
1482.68
1527.52
1572.1
1616.33
1660.1
1703.33
1745.88
1787.62
1828.4
1868.06
1906.39
1943.15
1978.04
2010.72
2040.74
2066.75
2089.01
2107.33
2119.88
2125.25
2046.29
1931.78
1812.66
1690.32
1565.99
1440.77
1315.74
1191.98
1070.62
952.894
839.88
732.873
634.02
545.803
470.572
410.127
365.082
334.346
315.227
304.311
298.509
295.615
294.216
293.556
293.251
293.112
293.049
293.021
293.009
293.004
293.002
293.001
293
293.005
293.022
293.051
293.099
293.179
293.309
293.521
293.863
294.406
295.257
296.57
298.554
301.492
305.733
311.69
319.806
330.506
344.138
360.916
380.89
403.946
429.843
458.265
488.869
521.33
555.361
590.726
627.237
664.751
703.157
742.369
782.317
822.941
864.178
905.967
948.24
990.928
1034.01
1077.52
1121.42
1165.65
1210.17
1254.91
1299.82
1344.83
1389.89
1434.93
1479.87
1524.64
1569.15
1613.32
1657.05
1700.23
1742.75
1784.47
1825.25
1864.9
1903.22
1939.96
1974.83
2007.44
2037.28
2063.06
2084.93
2102.59
2114.11
2117.96
2053.56
1940.33
1822.09
1700.33
1576.34
1451.29
1326.28
1202.41
1080.83
962.75
849.292
741.702
642.055
552.829
476.401
414.644
368.299
336.431
316.459
304.983
298.851
295.782
294.295
293.593
293.268
293.119
293.053
293.023
293.01
293.004
293.002
293.001
293
293.005
293.022
293.051
293.099
293.178
293.309
293.521
293.862
294.404
295.254
296.563
298.543
301.473
305.702
311.641
319.73
330.395
343.979
360.699
380.603
403.58
429.39
457.718
488.223
520.58
554.503
589.757
626.155
663.551
701.836
740.924
780.746
821.24
862.346
904.001
946.139
988.693
1031.63
1075
1118.76
1162.85
1207.22
1251.82
1296.6
1341.48
1386.42
1431.33
1476.16
1520.83
1565.25
1609.34
1653
1696.13
1738.61
1780.3
1821.06
1860.71
1899.04
1935.79
1970.65
2003.21
2032.88
2058.4
2079.75
2096.48
2106.41
2107.64
2062.92
1951.64
1834.67
1713.71
1590.19
1465.35
1340.36
1216.34
1094.44
975.887
861.83
753.452
652.748
562.189
484.185
420.696
372.63
339.254
318.135
305.899
299.32
296.01
294.403
293.643
293.29
293.129
293.057
293.025
293.011
293.004
293.002
293.001
293
293.005
293.022
293.051
293.099
293.178
293.308
293.52
293.86
294.402
295.249
296.555
298.528
301.448
305.661
311.576
319.633
330.252
343.779
360.427
380.247
403.127
428.831
457.045
487.429
519.661
553.454
588.573
624.831
662.084
700.221
739.157
778.822
819.155
860.098
901.588
943.56
985.947
1028.71
1071.9
1115.48
1159.39
1203.59
1248.02
1292.62
1337.35
1382.12
1426.89
1471.58
1516.12
1560.43
1604.41
1647.99
1691.06
1733.49
1775.16
1815.93
1855.61
1893.99
1930.82
1965.79
1998.49
2028.36
2054.03
2075.47
2092.16
2101.77
2102.19
2076.97
1967.24
1851.33
1731.06
1607.93
1483.25
1358.21
1233.94
1111.6
992.418
877.587
768.225
666.207
574.003
494.047
428.41
378.195
342.912
320.323
307.102
299.939
296.311
294.545
293.709
293.32
293.143
293.063
293.027
293.012
293.005
293.002
293.001
293
293.005
293.022
293.051
293.099
293.178
293.308
293.519
293.859
294.398
295.243
296.544
298.51
301.417
305.611
311.498
319.515
330.082
343.54
360.105
379.825
402.594
428.175
456.256
486.5
518.585
552.227
587.188
623.284
660.368
698.331
737.087
776.567
816.71
857.46
898.754
940.528
982.716
1025.27
1068.25
1111.62
1155.32
1199.3
1243.52
1287.92
1332.45
1377.04
1421.63
1466.15
1510.53
1554.7
1598.57
1642.05
1685.04
1727.43
1769.09
1809.88
1849.63
1888.13
1925.16
1960.4
1993.49
2023.96
2050.58
2073.09
2091.23
2102.98
2106.51
2096.45
1987.57
1872.39
1752.59
1629.72
1505.09
1379.9
1255.28
1132.38
1012.43
896.645
786.105
682.547
588.395
506.132
437.942
385.142
347.531
323.115
308.65
300.738
296.701
294.73
293.794
293.359
293.16
293.07
293.031
293.013
293.005
293.002
293.001
293
293.005
293.022
293.051
293.099
293.178
293.308
293.518
293.857
294.394
295.236
296.531
298.488
301.38
305.553
311.408
319.381
329.887
343.269
359.738
379.348
401.99
427.431
455.363
485.45
517.37
550.839
585.623
621.533
658.426
696.19
734.741
774.008
813.933
854.459
895.527
937.072
979.029
1021.35
1064.08
1107.2
1150.65
1194.39
1238.37
1282.53
1326.82
1371.19
1415.56
1459.89
1504.09
1548.09
1591.82
1635.19
1678.09
1720.43
1762.08
1802.9
1842.75
1881.42
1918.7
1954.31
1987.94
2019.16
2047.29
2071.4
2091.35
2106.67
2115.48
2115.84
2011.12
1896.83
1777.63
1655.1
1530.57
1405.24
1280.25
1156.74
1035.91
919.018
807.135
701.838
605.483
520.593
449.465
393.647
353.265
326.627
310.619
301.762
297.202
294.968
293.904
293.409
293.182
293.08
293.035
293.015
293.006
293.002
293.001
293
293.005
293.022
293.051
293.099
293.178
293.307
293.517
293.854
294.39
295.228
296.517
298.463
301.34
305.489
311.309
319.233
329.673
342.97
359.336
378.823
401.327
426.617
454.384
484.297
516.035
549.314
583.9
619.605
656.284
693.827
732.147
771.176
810.855
851.13
891.941
933.226
974.921
1016.97
1059.42
1102.25
1145.42
1188.88
1232.58
1276.47
1320.49
1364.6
1408.73
1452.83
1496.81
1540.63
1584.19
1627.41
1670.21
1712.48
1754.1
1794.95
1834.88
1873.71
1911.23
1947.2
1981.31
2013.2
2042.32
2067.52
2088.92
2106.36
2118.22
2123.37
2037.84
1924.28
1805.79
1683.76
1559.47
1434.08
1308.75
1184.61
1062.84
944.733
831.379
724.19
625.422
537.621
463.194
403.928
360.309
331.011
313.108
303.07
297.845
295.273
294.045
293.473
293.211
293.093
293.04
293.017
293.007
293.003
293.001
293
293.005
293.022
293.051
293.099
293.177
293.306
293.516
293.852
294.385
295.219
296.502
298.438
301.298
305.421
311.204
319.075
329.446
342.653
358.909
378.266
400.621
425.747
453.339
483.064
514.605
547.679
582.05
617.53
653.976
691.275
729.341
768.108
807.515
847.509
888.035
929.03
970.432
1012.18
1054.32
1096.83
1139.68
1182.82
1226.2
1269.78
1313.5
1357.32
1401.17
1445
1488.74
1532.32
1575.68
1618.74
1661.4
1703.57
1745.13
1785.98
1825.95
1864.89
1902.59
1938.81
1973.23
2005.47
2035
2060.47
2081.77
2098.32
2107.68
2107.13
2061.83
1952.11
1835.91
1715.2
1591.58
1466.38
1340.83
1216.1
1093.38
973.958
859.021
749.816
648.448
557.474
479.403
416.26
368.914
336.464
316.252
304.741
298.672
295.667
294.228
293.556
293.248
293.109
293.047
293.02
293.008
293.003
293.001
293
293.005
293.022
293.051
293.099
293.177
293.306
293.515
293.85
294.381
295.21
296.486
298.412
301.255
305.352
311.097
318.914
329.213
342.327
358.468
377.689
399.89
424.844
452.25
481.778
513.11
545.964
580.105
615.346
651.54
688.576
726.368
764.848
803.959
843.647
883.859
924.535
965.613
1007.03
1048.82
1090.98
1133.48
1176.26
1219.29
1262.52
1305.91
1349.39
1392.92
1436.45
1479.91
1523.23
1566.36
1609.21
1651.7
1693.73
1735.22
1776.03
1816.02
1855.05
1892.91
1929.38
1964.14
1996.84
2027
2053.39
2075.73
2093.58
2104.79
2107.25
2094.09
1985.65
1870.64
1750.8
1627.67
1502.6
1376.81
1251.46
1127.75
1006.93
890.284
778.949
674.823
580.444
498.407
430.962
379.374
343.227
320.222
306.881
299.738
296.177
294.465
293.664
293.296
293.13
293.057
293.024
293.01
293.004
293.001
293
293.005
293.022
293.051
293.099
293.177
293.305
293.514
293.847
294.376
295.202
296.472
298.386
301.212
305.284
310.991
318.755
328.981
342.002
358.027
377.11
399.153
423.932
451.147
480.469
511.584
544.208
578.108
613.095
649.022
685.779
723.278
761.452
800.244
839.602
879.474
919.803
960.529
1001.59
1043
1084.78
1126.88
1169.28
1211.92
1254.77
1297.78
1340.89
1384.07
1427.26
1470.4
1513.43
1556.28
1598.89
1641.18
1683.05
1724.41
1765.16
1805.15
1844.25
1882.26
1918.99
1954.15
1987.43
2018.42
2046.47
2070.7
2090.94
2106.96
2117.39
2121.44
2022.48
1908.56
1789.68
1667.22
1542.43
1416.51
1290.63
1165.95
1043.72
925.271
811.728
704.744
606.778
520.498
448.359
392.016
351.586
325.229
309.621
301.127
296.845
294.775
293.804
293.359
293.158
293.069
293.029
293.012
293.005
293.002
293
293.005
293.022
293.051
293.099
293.177
293.305
293.513
293.845
294.372
295.195
296.458
298.363
301.173
305.22
310.891
318.604
328.76
341.69
357.601
376.55
398.436
423.039
450.06
479.175
510.068
542.457
576.107
610.831
646.481
682.944
720.135
757.985
796.439
835.445
874.953
914.911
955.258
995.933
1036.94
1078.3
1119.99
1161.96
1204.19
1246.62
1289.21
1331.93
1374.72
1417.53
1460.32
1503.02
1545.57
1587.9
1629.95
1671.63
1712.84
1753.48
1793.43
1832.56
1870.68
1907.61
1943.09
1976.83
2008.45
2037.42
2062.49
2083.46
2099.78
2109.15
2108.9
2056.01
1946.35
1830.12
1709.22
1585.25
1459.55
1333.35
1207.84
1084.27
963.988
848.214
738.347
636.692
545.961
468.783
407.191
361.866
331.529
313.13
302.932
297.715
295.181
293.989
293.441
293.194
293.084
293.036
293.015
293.006
293.002
293
293.005
293.022
293.051
293.099
293.177
293.305
293.512
293.844
294.369
295.189
296.447
298.343
301.139
305.163
310.802
318.468
328.559
341.404
357.209
376.027
397.762
422.195
449.028
477.937
508.608
540.761
574.16
608.615
643.98
680.142
717.013
754.527
792.627
831.264
870.39
909.954
949.9
990.168
1030.74
1071.66
1112.91
1154.44
1196.21
1238.2
1280.36
1322.65
1365.02
1407.43
1449.83
1492.17
1534.39
1576.42
1618.2
1659.65
1700.68
1741.19
1781.07
1820.19
1858.39
1895.48
1931.24
1965.38
1997.54
2027.25
2053.44
2075.72
2093.69
2105.29
2108.46
2097.01
1988.94
1874.25
1754.55
1631.35
1505.95
1379.56
1253.35
1128.56
1006.48
888.461
775.742
670.363
575.041
492.55
425.265
374.436
339.437
317.635
305.286
298.86
295.716
294.232
293.549
293.241
293.104
293.044
293.018
293.007
293.002
293
293.005
293.022
293.051
293.099
293.177
293.305
293.512
293.843
294.367
295.184
296.437
298.326
301.109
305.115
310.725
318.351
328.386
341.156
356.865
375.567
397.165
421.439
448.094
476.807
507.264
539.186
572.335
606.523
641.602
677.458
714.005
751.174
788.911
827.168
865.897
905.052
944.58
984.425
1024.55
1065.02
1105.8
1146.87
1188.18
1229.7
1271.4
1313.24
1355.18
1397.17
1439.17
1481.13
1523
1564.7
1606.19
1647.38
1688.2
1728.55
1768.33
1807.41
1845.66
1882.89
1918.91
1953.45
1986.22
2016.82
2044.68
2068.93
2089.41
2105.91
2117.33
2123.24
2033.34
1920.14
1801.84
1679.69
1554.88
1428.59
1301.94
1176.13
1052.44
932.244
816.782
707.776
607.846
519.874
446.533
389.626
349.249
323.35
308.318
300.343
296.411
294.548
293.689
293.302
293.131
293.056
293.023
293.009
293.003
293.001
293.005
293.022
293.051
293.099
293.177
293.305
293.512
293.843
294.366
295.181
296.432
298.314
301.09
305.082
310.671
318.265
328.255
340.965
356.595
375.198
396.675
420.808
447.303
475.836
506.095
537.798
570.709
604.638
639.437
674.991
711.214
748.039
785.41
823.283
861.611
900.351
939.454
978.867
1018.55
1058.56
1098.87
1139.47
1180.31
1221.37
1262.61
1304
1345.5
1387.07
1428.66
1470.23
1511.73
1553.11
1594.29
1635.21
1675.8
1715.97
1755.61
1794.61
1832.84
1870.14
1906.31
1941.11
1974.27
2005.4
2034.04
2059.03
2079.99
2096.24
2105.45
2104.5
2070.41
1962.52
1847.76
1727.94
1604.58
1479.02
1352.44
1226.05
1101.1
978.963
860.993
748.613
644.235
550.796
471.21
407.79
361.379
330.643
312.291
302.316
297.343
294.972
293.878
293.384
293.166
293.07
293.029
293.011
293.004
293.001
293.005
293.022
293.051
293.099
293.178
293.305
293.512
293.842
294.364
295.178
296.425
298.303
301.072
305.054
310.628
318.202
328.164
340.835
356.412
374.946
396.336
420.361
446.726
475.106
505.188
536.694
569.384
603.068
637.599
672.861
708.769
745.256
782.27
819.764
857.698
896.03
934.716
973.706
1012.96
1052.51
1092.38
1132.52
1172.91
1213.53
1254.33
1295.29
1336.37
1377.53
1418.74
1459.94
1501.1
1542.15
1583.03
1623.69
1664.05
1704.02
1743.51
1782.42
1820.61
1857.94
1894.22
1929.25
1962.75
1994.4
2023.77
2050.1
2072.76
2091.54
2105.08
2112.13
2110.95
2006.13
1893.58
1775.73
1653.95
1529.47
1403.42
1276.95
1151.26
1027.65
907.543
792.23
683.761
585.041
499.16
428.882
375.814
339.495
317.165
304.761
298.493
295.494
294.109
293.485
293.209
293.089
293.037
293.014
293.005
293.001
293.005
293.023
293.051
293.099
293.178
293.306
293.512
293.842
294.364
295.176
296.423
298.3
301.068
305.049
310.623
318.195
328.155
340.817
356.376
374.877
396.213
420.162
446.425
474.682
504.618
535.949
568.441
601.901