/*--------------------------------*- C++ -*----------------------------------*\
  =========                 |
  \\      /  F ield         | OpenFOAM: The Open Source CFD Toolbox
   \\    /   O peration     | Website:  https://openfoam.org
    \\  /    A nd           | Version:  8
     \\/     M anipulation  |
\*---------------------------------------------------------------------------*/
FoamFile
{
    version     2.0;
    format      ascii;
    class       volVectorField;
    location    "100/fluid";
    object      U;
}
// * * * * * * * * * * * * * * * * * * * * * * * * * * * * * * * * * * * * * //

dimensions      [0 1 -1 0 0 0 0];

internalField   nonuniform List<vector> 
4000
(
(0.0999443 -0.00717507 0)
(0.0996457 -0.0214599 0)
(0.0991635 -0.0356693 0)
(0.0984963 -0.0498479 0)
(0.0976339 -0.0640962 0)
(0.0965552 -0.0785012 0)
(0.0952348 -0.0931123 0)
(0.0936467 -0.10794 0)
(0.0917683 -0.122964 0)
(0.0895835 -0.138133 0)
(0.0870885 -0.153363 0)
(0.0843006 -0.168522 0)
(0.0812634 -0.18344 0)
(0.0780371 -0.197933 0)
(0.0746874 -0.211764 0)
(0.0712814 -0.224665 0)
(0.0678776 -0.236366 0)
(0.0645156 -0.246621 0)
(0.0612118 -0.25524 0)
(0.0579595 -0.262112 0)
(0.0547366 -0.267215 0)
(0.0515165 -0.270608 0)
(0.0482811 -0.272412 0)
(0.0450335 -0.272779 0)
(0.041782 -0.271949 0)
(0.0385333 -0.270146 0)
(0.0352944 -0.267582 0)
(0.0320739 -0.264445 0)
(0.0288817 -0.260903 0)
(0.025727 -0.257097 0)
(0.0226178 -0.253148 0)
(0.0195601 -0.249156 0)
(0.0165575 -0.2452 0)
(0.0136118 -0.241347 0)
(0.0107226 -0.237649 0)
(0.0078881 -0.234148 0)
(0.00510474 -0.230879 0)
(0.00236813 -0.227866 0)
(-0.000326116 -0.225132 0)
(-0.00298155 -0.222695 0)
(-0.00560273 -0.22057 0)
(-0.00819578 -0.218773 0)
(-0.0107679 -0.217315 0)
(-0.0133262 -0.216203 0)
(-0.015878 -0.215446 0)
(-0.0184303 -0.215049 0)
(-0.0209906 -0.215017 0)
(-0.0235657 -0.215353 0)
(-0.0261628 -0.216062 0)
(-0.0287885 -0.217147 0)
(-0.0314496 -0.218614 0)
(-0.0341524 -0.220466 0)
(-0.036903 -0.222709 0)
(-0.0397072 -0.22535 0)
(-0.0425704 -0.228395 0)
(-0.0454973 -0.231853 0)
(-0.0484924 -0.235733 0)
(-0.0515588 -0.240045 0)
(-0.0546991 -0.244802 0)
(-0.057914 -0.250015 0)
(-0.0612033 -0.255697 0)
(-0.0645636 -0.261862 0)
(-0.0679898 -0.268523 0)
(-0.071472 -0.275694 0)
(-0.0749975 -0.283386 0)
(-0.0785443 -0.291611 0)
(-0.0820892 -0.300377 0)
(-0.0855876 -0.309694 0)
(-0.0889899 -0.31956 0)
(-0.0921996 -0.329929 0)
(-0.0954193 -0.340754 0)
(-0.099395 -0.352192 0)
(-0.101701 -0.366591 0)
(-0.100271 -0.379702 0)
(-0.0984483 -0.39096 0)
(-0.0967743 -0.400371 0)
(-0.0950081 -0.407719 0)
(-0.0930296 -0.412569 0)
(-0.0908571 -0.414368 0)
(-0.0884348 -0.412653 0)
(-0.0858157 -0.406873 0)
(-0.0829907 -0.396592 0)
(-0.0799787 -0.381522 0)
(-0.0768728 -0.361632 0)
(-0.0738752 -0.337288 0)
(-0.0712794 -0.309327 0)
(-0.0694915 -0.279508 0)
(-0.069039 -0.250035 0)
(-0.0703021 -0.222647 0)
(-0.0732131 -0.19802 0)
(-0.0772581 -0.175761 0)
(-0.0817409 -0.155046 0)
(-0.086065 -0.135206 0)
(-0.089865 -0.115911 0)
(-0.0929767 -0.0970483 0)
(-0.0953968 -0.0787273 0)
(-0.0972154 -0.0608665 0)
(-0.0985291 -0.0432858 0)
(-0.0994127 -0.0257988 0)
(-0.0999232 -0.00846563 0)
(0.100003 -0.00674441 0)
(0.0998159 -0.0202725 0)
(0.099419 -0.033742 0)
(0.0987863 -0.0471439 0)
(0.0979163 -0.060539 0)
(0.0968009 -0.0739821 0)
(0.0954254 -0.0874974 0)
(0.0937749 -0.101078 0)
(0.091839 -0.114696 0)
(0.0896158 -0.128309 0)
(0.0871151 -0.141863 0)
(0.0843627 -0.155309 0)
(0.0814008 -0.168554 0)
(0.0782855 -0.181433 0)
(0.0750791 -0.19376 0)
(0.0718439 -0.205324 0)
(0.0686317 -0.215912 0)
(0.065475 -0.22532 0)
(0.0623813 -0.233381 0)
(0.0593351 -0.239986 0)
(0.0563053 -0.245097 0)
(0.0532564 -0.248751 0)
(0.0501585 -0.251058 0)
(0.0469946 -0.252182 0)
(0.0437671 -0.252243 0)
(0.0404849 -0.251396 0)
(0.0371626 -0.249806 0)
(0.0338184 -0.247633 0)
(0.0304709 -0.245026 0)
(0.0271379 -0.242116 0)
(0.0238343 -0.239015 0)
(0.0205715 -0.235817 0)
(0.0173578 -0.232602 0)
(0.0141978 -0.229435 0)
(0.0110934 -0.226368 0)
(0.00804401 -0.223444 0)
(0.00504686 -0.220699 0)
(0.00209777 -0.218159 0)
(-0.000807254 -0.215847 0)
(-0.00367184 -0.213785 0)
(-0.00650082 -0.211991 0)
(-0.00930109 -0.210482 0)
(-0.01208 -0.209271 0)
(-0.0148455 -0.20837 0)
(-0.0176051 -0.207787 0)
(-0.0203666 -0.207529 0)
(-0.0231378 -0.207603 0)
(-0.0259264 -0.208014 0)
(-0.0287398 -0.208767 0)
(-0.0315857 -0.209867 0)
(-0.0344711 -0.211319 0)
(-0.0374035 -0.21313 0)
(-0.0403895 -0.215304 0)
(-0.043436 -0.21785 0)
(-0.0465492 -0.220774 0)
(-0.0497355 -0.224086 0)
(-0.0530002 -0.227797 0)
(-0.0563488 -0.231917 0)
(-0.0597854 -0.236458 0)
(-0.0633137 -0.241436 0)
(-0.066936 -0.246863 0)
(-0.0706529 -0.252757 0)
(-0.0744631 -0.259133 0)
(-0.0783625 -0.266006 0)
(-0.0823428 -0.273394 0)
(-0.08639 -0.281305 0)
(-0.0904839 -0.289749 0)
(-0.0946045 -0.298727 0)
(-0.0987382 -0.308252 0)
(-0.102854 -0.318346 0)
(-0.106533 -0.328876 0)
(-0.110039 -0.339028 0)
(-0.111348 -0.349691 0)
(-0.109413 -0.35962 0)
(-0.107147 -0.368402 0)
(-0.105047 -0.375572 0)
(-0.102885 -0.380642 0)
(-0.100531 -0.383053 0)
(-0.0978966 -0.382289 0)
(-0.0949781 -0.377764 0)
(-0.0917486 -0.368962 0)
(-0.0881739 -0.355506 0)
(-0.0842497 -0.337278 0)
(-0.0801015 -0.314608 0)
(-0.0760396 -0.288513 0)
(-0.0725459 -0.26087 0)
(-0.0702383 -0.233625 0)
(-0.0696678 -0.208417 0)
(-0.0710243 -0.186216 0)
(-0.0740069 -0.166889 0)
(-0.0779866 -0.149558 0)
(-0.0822943 -0.133279 0)
(-0.0864284 -0.11744 0)
(-0.0900998 -0.1018 0)
(-0.0931762 -0.0863282 0)
(-0.0956334 -0.0708286 0)
(-0.0974999 -0.0552604 0)
(-0.0988149 -0.039559 0)
(-0.0996174 -0.0236657 0)
(-0.099997 -0.00776009 0)
(0.0999803 -0.00649247 0)
(0.0997352 -0.0194977 0)
(0.0992513 -0.0324347 0)
(0.0985087 -0.0452926 0)
(0.0975072 -0.0581275 0)
(0.0962426 -0.0709928 0)
(0.0947091 -0.0839156 0)
(0.0929038 -0.0968967 0)
(0.0908306 -0.109918 0)
(0.0885032 -0.122944 0)
(0.0859459 -0.135924 0)
(0.0831924 -0.148782 0)
(0.0802845 -0.161414 0)
(0.0772742 -0.173684 0)
(0.0742216 -0.185426 0)
(0.0711849 -0.196451 0)
(0.0682097 -0.206557 0)
(0.0653192 -0.215554 0)
(0.0625112 -0.223281 0)
(0.0597609 -0.229632 0)
(0.0570282 -0.234568 0)
(0.0542687 -0.238118 0)
(0.0514415 -0.240371 0)
(0.0485137 -0.241463 0)
(0.0454672 -0.241555 0)
(0.0423028 -0.240815 0)
(0.0390344 -0.239409 0)
(0.035683 -0.237486 0)
(0.0322726 -0.23518 0)
(0.0288265 -0.232607 0)
(0.0253657 -0.229866 0)
(0.021908 -0.227039 0)
(0.0184672 -0.224195 0)
(0.015053 -0.221391 0)
(0.011672 -0.218673 0)
(0.00832732 -0.21608 0)
(0.00501931 -0.213643 0)
(0.00174651 -0.211389 0)
(-0.00149249 -0.209337 0)
(-0.00469894 -0.207508 0)
(-0.00787675 -0.205922 0)
(-0.0110319 -0.204597 0)
(-0.0141716 -0.203545 0)
(-0.0173031 -0.202779 0)
(-0.0204341 -0.202307 0)
(-0.0235724 -0.202138 0)
(-0.0267263 -0.202277 0)
(-0.0299035 -0.202732 0)
(-0.0331124 -0.203508 0)
(-0.0363608 -0.204609 0)
(-0.039657 -0.206042 0)
(-0.0430087 -0.207812 0)
(-0.046424 -0.209926 0)
(-0.0499104 -0.21239 0)
(-0.0534758 -0.215213 0)
(-0.0571276 -0.218402 0)
(-0.0608733 -0.221967 0)
(-0.06472 -0.225919 0)
(-0.0686748 -0.230268 0)
(-0.0727444 -0.235026 0)
(-0.0769352 -0.240206 0)
(-0.0812536 -0.24582 0)
(-0.0857053 -0.251877 0)
(-0.0902968 -0.258385 0)
(-0.0950314 -0.265348 0)
(-0.0999076 -0.27276 0)
(-0.104926 -0.280602 0)
(-0.110142 -0.288839 0)
(-0.115728 -0.297409 0)
(-0.121479 -0.30623 0)
(-0.124338 -0.315256 0)
(-0.125157 -0.325166 0)
(-0.124557 -0.33409 0)
(-0.1223 -0.342152 0)
(-0.119627 -0.34912 0)
(-0.116812 -0.354521 0)
(-0.113747 -0.357844 0)
(-0.110346 -0.358583 0)
(-0.106572 -0.356239 0)
(-0.102402 -0.350349 0)
(-0.0978064 -0.340542 0)
(-0.0927579 -0.326616 0)
(-0.0873116 -0.308654 0)
(-0.0817062 -0.287144 0)
(-0.0763992 -0.263076 0)
(-0.0720446 -0.23792 0)
(-0.0693353 -0.213413 0)
(-0.0687012 -0.19105 0)
(-0.0700959 -0.17147 0)
(-0.0730492 -0.154313 0)
(-0.0769103 -0.138707 0)
(-0.0810801 -0.123838 0)
(-0.0851325 -0.109226 0)
(-0.0888222 -0.0946899 0)
(-0.0920353 -0.0802051 0)
(-0.0947196 -0.0657717 0)
(-0.0968497 -0.0513284 0)
(-0.0984201 -0.036765 0)
(-0.0994372 -0.0220005 0)
(-0.0999595 -0.00721169 0)
(0.0999863 -0.00616497 0)
(0.0997416 -0.0185099 0)
(0.0992481 -0.0307727 0)
(0.0984851 -0.042935 0)
(0.0974568 -0.0550449 0)
(0.0961646 -0.0671486 0)
(0.0946073 -0.0792682 0)
(0.0927861 -0.091402 0)
(0.0907076 -0.103532 0)
(0.0883856 -0.115629 0)
(0.0858434 -0.127651 0)
(0.0831152 -0.139539 0)
(0.0802465 -0.151211 0)
(0.0772926 -0.162555 0)
(0.0743132 -0.173433 0)
(0.0713638 -0.183682 0)
(0.0684862 -0.193127 0)
(0.0656999 -0.201596 0)
(0.0629987 -0.208942 0)
(0.0603523 -0.21506 0)
(0.0577157 -0.219906 0)
(0.0550405 -0.223495 0)
(0.0522837 -0.225901 0)
(0.0494144 -0.227238 0)
(0.0464157 -0.227646 0)
(0.0432845 -0.227277 0)
(0.0400289 -0.226279 0)
(0.0366644 -0.224791 0)
(0.0332098 -0.222939 0)
(0.0296858 -0.220828 0)
(0.0261121 -0.218552 0)
(0.0225064 -0.216185 0)
(0.0188837 -0.213791 0)
(0.0152557 -0.211421 0)
(0.0116309 -0.209117 0)
(0.00801489 -0.206915 0)
(0.00441055 -0.204844 0)
(0.000819274 -0.202925 0)
(-0.00275728 -0.201181 0)
(-0.00631836 -0.199631 0)
(-0.00986621 -0.198296 0)
(-0.0134057 -0.197191 0)
(-0.0169426 -0.196332 0)
(-0.0204834 -0.19573 0)
(-0.024035 -0.195394 0)
(-0.027605 -0.195333 0)
(-0.0312011 -0.195554 0)
(-0.0348312 -0.196063 0)
(-0.0385034 -0.196867 0)
(-0.0422262 -0.19797 0)
(-0.0460077 -0.199379 0)
(-0.0498564 -0.201098 0)
(-0.0537806 -0.203135 0)
(-0.0577889 -0.205495 0)
(-0.0618895 -0.208185 0)
(-0.0660908 -0.211213 0)
(-0.070401 -0.214587 0)
(-0.074828 -0.218314 0)
(-0.0793795 -0.222404 0)
(-0.0840622 -0.226865 0)
(-0.0888821 -0.231705 0)
(-0.0938429 -0.236929 0)
(-0.0989468 -0.242541 0)
(-0.10419 -0.248538 0)
(-0.109562 -0.254912 0)
(-0.115035 -0.261637 0)
(-0.120567 -0.268675 0)
(-0.126123 -0.275954 0)
(-0.131705 -0.283363 0)
(-0.137294 -0.29073 0)
(-0.142138 -0.297948 0)
(-0.143576 -0.306264 0)
(-0.140347 -0.313803 0)
(-0.136355 -0.320317 0)
(-0.132373 -0.325576 0)
(-0.128243 -0.32921 0)
(-0.123808 -0.330784 0)
(-0.119009 -0.329848 0)
(-0.113826 -0.325965 0)
(-0.108248 -0.318747 0)
(-0.102271 -0.307907 0)
(-0.0959275 -0.293343 0)
(-0.0893833 -0.275253 0)
(-0.0830023 -0.254256 0)
(-0.0773252 -0.231459 0)
(-0.0729821 -0.208397 0)
(-0.070518 -0.186688 0)
(-0.0701652 -0.167463 0)
(-0.0717234 -0.150925 0)
(-0.0746688 -0.136461 0)
(-0.0783802 -0.123188 0)
(-0.0823213 -0.110404 0)
(-0.086124 -0.0977253 0)
(-0.0895774 -0.0850196 0)
(-0.0925773 -0.0722704 0)
(-0.0950811 -0.0594671 0)
(-0.097074 -0.0465537 0)
(-0.0985466 -0.0334324 0)
(-0.0994951 -0.0200393 0)
(-0.0999733 -0.00656978 0)
(0.0999827 -0.00583992 0)
(0.0997205 -0.0175283 0)
(0.0991986 -0.0291301 0)
(0.0983981 -0.0406255 0)
(0.0973255 -0.0520594 0)
(0.0959847 -0.0634759 0)
(0.0943778 -0.0748964 0)
(0.0925095 -0.0863202 0)
(0.09039 -0.0977319 0)
(0.0880374 -0.109106 0)
(0.085479 -0.120404 0)
(0.0827525 -0.131574 0)
(0.0799065 -0.14254 0)
(0.0769972 -0.153204 0)
(0.074084 -0.163436 0)
(0.0712204 -0.173088 0)
(0.0684447 -0.181995 0)
(0.0657714 -0.189999 0)
(0.0631883 -0.196959 0)
(0.0606597 -0.20278 0)
(0.0581346 -0.207418 0)
(0.0555584 -0.210886 0)
(0.0528834 -0.213253 0)
(0.0500753 -0.214626 0)
(0.0471151 -0.215136 0)
(0.0439978 -0.214926 0)
(0.0407298 -0.214135 0)
(0.0373251 -0.212895 0)
(0.033802 -0.211321 0)
(0.0301804 -0.209512 0)
(0.0264796 -0.207553 0)
(0.0227174 -0.205512 0)
(0.0189091 -0.203446 0)
(0.015067 -0.201402 0)
(0.0112008 -0.199417 0)
(0.00731703 -0.197521 0)
(0.00342013 -0.195739 0)
(-0.000485988 -0.194093 0)
(-0.00439718 -0.1926 0)
(-0.00831146 -0.191282 0)
(-0.0122303 -0.190156 0)
(-0.0161573 -0.189238 0)
(-0.0200972 -0.188542 0)
(-0.0240554 -0.188078 0)
(-0.0280383 -0.187855 0)
(-0.0320525 -0.187883 0)
(-0.0361055 -0.188166 0)
(-0.0402047 -0.188713 0)
(-0.0443581 -0.189528 0)
(-0.0485738 -0.190617 0)
(-0.05286 -0.191986 0)
(-0.057225 -0.193638 0)
(-0.0616774 -0.195579 0)
(-0.0662254 -0.197816 0)
(-0.0708775 -0.200353 0)
(-0.075642 -0.203196 0)
(-0.0805266 -0.206353 0)
(-0.0855392 -0.209829 0)
(-0.0906862 -0.213632 0)
(-0.0959735 -0.217767 0)
(-0.101405 -0.222241 0)
(-0.106982 -0.227058 0)
(-0.112702 -0.232219 0)
(-0.118558 -0.237725 0)
(-0.124524 -0.243567 0)
(-0.130565 -0.24973 0)
(-0.136661 -0.256178 0)
(-0.142813 -0.262893 0)
(-0.148881 -0.269889 0)
(-0.154114 -0.277019 0)
(-0.157851 -0.283519 0)
(-0.157836 -0.289218 0)
(-0.153537 -0.294567 0)
(-0.148507 -0.299229 0)
(-0.143408 -0.302779 0)
(-0.138067 -0.304824 0)
(-0.132361 -0.304967 0)
(-0.126266 -0.302801 0)
(-0.119786 -0.297934 0)
(-0.112936 -0.290039 0)
(-0.105739 -0.278907 0)
(-0.0982842 -0.264527 0)
(-0.0908277 -0.247198 0)
(-0.0838106 -0.227616 0)
(-0.0778121 -0.206897 0)
(-0.0734401 -0.186441 0)
(-0.0711383 -0.167555 0)
(-0.0709854 -0.150968 0)
(-0.0726516 -0.136599 0)
(-0.0755671 -0.123809 0)
(-0.0791401 -0.111872 0)
(-0.0828944 -0.100266 0)
(-0.0865148 -0.0887252 0)
(-0.0898189 -0.0771709 0)
(-0.0927099 -0.0655997 0)
(-0.0951409 -0.0539985 0)
(-0.0970895 -0.0423013 0)
(-0.0985403 -0.0303997 0)
(-0.0994846 -0.0182256 0)
(-0.0999679 -0.00597084 0)
(0.0999834 -0.00549592 0)
(0.0997166 -0.016493 0)
(0.0991846 -0.0274004 0)
(0.0983689 -0.0381962 0)
(0.097278 -0.0489211 0)
(0.0959181 -0.0596157 0)
(0.0942933 -0.0702991 0)
(0.09241 -0.0809701 0)
(0.0902804 -0.091614 0)
(0.0879238 -0.102208 0)
(0.0853684 -0.112718 0)
(0.0826526 -0.123101 0)
(0.0798248 -0.133293 0)
(0.0769413 -0.143206 0)
(0.0740605 -0.152732 0)
(0.0712351 -0.161739 0)
(0.0685021 -0.170079 0)
(0.0658745 -0.177608 0)
(0.063338 -0.184195 0)
(0.0608544 -0.189746 0)
(0.0583705 -0.194214 0)
(0.0558297 -0.197606 0)
(0.0531815 -0.199979 0)
(0.0503887 -0.201427 0)
(0.0474297 -0.202072 0)
(0.0442973 -0.202044 0)
(0.0409959 -0.201473 0)
(0.0375375 -0.200482 0)
(0.0339387 -0.199179 0)
(0.030218 -0.197656 0)
(0.0263939 -0.195992 0)
(0.0224835 -0.19425 0)
(0.0185016 -0.192483 0)
(0.0144609 -0.190733 0)
(0.010371 -0.189034 0)
(0.00623917 -0.187412 0)
(0.00207069 -0.185891 0)
(-0.00212808 -0.184488 0)
(-0.00635074 -0.183221 0)
(-0.010595 -0.18211 0)
(-0.0148621 -0.181172 0)
(-0.0191545 -0.180421 0)
(-0.0234758 -0.17987 0)
(-0.0278307 -0.179527 0)
(-0.0322246 -0.179403 0)
(-0.0366636 -0.179504 0)
(-0.0411544 -0.179836 0)
(-0.0457039 -0.180407 0)
(-0.0503195 -0.181219 0)
(-0.0550089 -0.18228 0)
(-0.0597798 -0.183592 0)
(-0.0646403 -0.185161 0)
(-0.0695982 -0.186991 0)
(-0.0746618 -0.189085 0)
(-0.0798388 -0.191449 0)
(-0.0851372 -0.194086 0)
(-0.0905647 -0.197002 0)
(-0.0961282 -0.2002 0)
(-0.101834 -0.203683 0)
(-0.107688 -0.207456 0)
(-0.113694 -0.21152 0)
(-0.119854 -0.215872 0)
(-0.126165 -0.220511 0)
(-0.132618 -0.225424 0)
(-0.13918 -0.230595 0)
(-0.145822 -0.235991 0)
(-0.152631 -0.241558 0)
(-0.159746 -0.247218 0)
(-0.166528 -0.252902 0)
(-0.170082 -0.258595 0)
(-0.169977 -0.264779 0)
(-0.166966 -0.269593 0)
(-0.162271 -0.273741 0)
(-0.156983 -0.277152 0)
(-0.151273 -0.279487 0)
(-0.145102 -0.280383 0)
(-0.13846 -0.279481 0)
(-0.131374 -0.276418 0)
(-0.123886 -0.270856 0)
(-0.116042 -0.262523 0)
(-0.107908 -0.25127 0)
(-0.0996505 -0.237157 0)
(-0.0916149 -0.220555 0)
(-0.0843075 -0.202212 0)
(-0.0783271 -0.183243 0)
(-0.0742291 -0.164947 0)
(-0.0723226 -0.148409 0)
(-0.0725176 -0.134083 0)
(-0.0743683 -0.121699 0)
(-0.0772782 -0.110594 0)
(-0.0806949 -0.100121 0)
(-0.0842078 -0.0898544 0)
(-0.087559 -0.0795974 0)
(-0.0906035 -0.0693027 0)
(-0.0932653 -0.0589771 0)
(-0.0955068 -0.048609 0)
(-0.0973079 -0.0381312 0)
(-0.0986517 -0.0274347 0)
(-0.0995265 -0.016455 0)
(-0.0999727 -0.00538633 0)
(0.0999825 -0.00514728 0)
(0.0997091 -0.0154441 0)
(0.0991653 -0.0256512 0)
(0.0983334 -0.0357462 0)
(0.0972233 -0.0457671 0)
(0.0958423 -0.0557518 0)
(0.0941958 -0.0657182 0)
(0.0922919 -0.0756651 0)
(0.0901443 -0.0855792 0)
(0.0877738 -0.0954396 0)
(0.0852102 -0.105218 0)
(0.0824933 -0.114874 0)
(0.0796726 -0.124353 0)
(0.076805 -0.133578 0)
(0.0739488 -0.14245 0)
(0.0711557 -0.15085 0)
(0.0684605 -0.158645 0)
(0.0658739 -0.165701 0)
(0.0633787 -0.171896 0)
(0.0609333 -0.177142 0)
(0.0584811 -0.181391 0)
(0.0559622 -0.184648 0)
(0.053324 -0.186963 0)
(0.0505275 -0.188422 0)
(0.0475495 -0.189136 0)
(0.0443819 -0.189225 0)
(0.0410279 -0.18881 0)
(0.0374989 -0.188005 0)
(0.0338107 -0.186911 0)
(0.029981 -0.185613 0)
(0.0260278 -0.184186 0)
(0.0219677 -0.182686 0)
(0.0178152 -0.181164 0)
(0.0135827 -0.179655 0)
(0.00927993 -0.178191 0)
(0.00491448 -0.176797 0)
(0.000493094 -0.175491 0)
(-0.00397623 -0.17429 0)
(-0.00848664 -0.173212 0)
(-0.0130356 -0.172275 0)
(-0.0176238 -0.171494 0)
(-0.022253 -0.170882 0)
(-0.026926 -0.170449 0)
(-0.0316469 -0.170204 0)
(-0.0364201 -0.170156 0)
(-0.0412512 -0.17031 0)
(-0.0461461 -0.170672 0)
(-0.051111 -0.171249 0)
(-0.0561526 -0.172043 0)
(-0.0612778 -0.173059 0)
(-0.0664936 -0.174301 0)
(-0.0718071 -0.175772 0)
(-0.0772252 -0.177475 0)
(-0.082755 -0.179414 0)
(-0.0884029 -0.181592 0)
(-0.0941749 -0.18401 0)
(-0.100076 -0.186672 0)
(-0.106112 -0.189579 0)
(-0.112283 -0.192732 0)
(-0.118592 -0.196132 0)
(-0.125033 -0.199775 0)
(-0.1316 -0.203656 0)
(-0.138276 -0.207767 0)
(-0.145028 -0.212093 0)
(-0.151801 -0.216605 0)
(-0.158543 -0.22127 0)
(-0.165197 -0.22605 0)
(-0.171674 -0.230896 0)
(-0.177606 -0.23563 0)
(-0.182591 -0.239728 0)
(-0.183072 -0.244604 0)
(-0.177667 -0.248759 0)
(-0.171378 -0.252245 0)
(-0.164956 -0.254894 0)
(-0.158197 -0.256436 0)
(-0.150994 -0.256578 0)
(-0.143356 -0.255008 0)
(-0.135321 -0.251409 0)
(-0.126937 -0.245496 0)
(-0.118256 -0.237051 0)
(-0.109376 -0.225986 0)
(-0.10053 -0.212434 0)
(-0.0921249 -0.196831 0)
(-0.0847026 -0.179959 0)
(-0.0788521 -0.162896 0)
(-0.0750528 -0.146786 0)
(-0.0734805 -0.132447 0)
(-0.0739152 -0.120069 0)
(-0.0758481 -0.10927 0)
(-0.0786925 -0.0994416 0)
(-0.0819436 -0.0900613 0)
(-0.085244 -0.0808138 0)
(-0.088375 -0.0715671 0)
(-0.0912141 -0.0622993 0)
(-0.0936961 -0.053022 0)
(-0.0957881 -0.0437199 0)
(-0.0974717 -0.0343201 0)
(-0.0987306 -0.0247084 0)
(-0.0995525 -0.0148197 0)
(-0.0999734 -0.00484563 0)
(0.0999824 -0.00479107 0)
(0.0997049 -0.0143735 0)
(0.0991534 -0.0238677 0)
(0.0983103 -0.033251 0)
(0.0971866 -0.0425584 0)
(0.0957906 -0.0518249 0)
(0.0941289 -0.0610671 0)
(0.0922104 -0.0702835 0)
(0.0900498 -0.0794616 0)
(0.0876688 -0.0885827 0)
(0.0850981 -0.0976216 0)
(0.0823782 -0.106544 0)
(0.079559 -0.115302 0)
(0.0766974 -0.123828 0)
(0.0738514 -0.132037 0)
(0.0710721 -0.139823 0)
(0.0683935 -0.147066 0)
(0.0658247 -0.153643 0)
(0.0633464 -0.159441 0)
(0.0609149 -0.164376 0)
(0.0584711 -0.168402 0)
(0.055953 -0.171518 0)
(0.0533056 -0.173766 0)
(0.0504883 -0.175224 0)
(0.0474768 -0.175992 0)
(0.0442617 -0.17618 0)
(0.0408455 -0.1759 0)
(0.0372388 -0.175257 0)
(0.0334569 -0.174345 0)
(0.029517 -0.173245 0)
(0.0254365 -0.172022 0)
(0.0212317 -0.170732 0)
(0.0169168 -0.16942 0)
(0.0125041 -0.168119 0)
(0.0080032 -0.166857 0)
(0.00342194 -0.165657 0)
(-0.00123136 -0.164534 0)
(-0.00594706 -0.163505 0)
(-0.0107184 -0.162588 0)
(-0.0155433 -0.161798 0)
(-0.0204218 -0.161148 0)
(-0.0253552 -0.16065 0)
(-0.0303456 -0.160313 0)
(-0.0353964 -0.160146 0)
(-0.0405114 -0.160154 0)
(-0.0456954 -0.160344 0)
(-0.0509535 -0.16072 0)
(-0.0562912 -0.161287 0)
(-0.0617143 -0.162049 0)
(-0.0672289 -0.163009 0)
(-0.072841 -0.164169 0)
(-0.0785564 -0.165533 0)
(-0.0843811 -0.167103 0)
(-0.0903204 -0.16888 0)
(-0.0963792 -0.170868 0)
(-0.102562 -0.173068 0)
(-0.108871 -0.175481 0)
(-0.115309 -0.178109 0)
(-0.121875 -0.180951 0)
(-0.128566 -0.184008 0)
(-0.135375 -0.187277 0)
(-0.142292 -0.190754 0)
(-0.149297 -0.19443 0)
(-0.156348 -0.198289 0)
(-0.163403 -0.202305 0)
(-0.17046 -0.206445 0)
(-0.17757 -0.210708 0)
(-0.184472 -0.215107 0)
(-0.189457 -0.219604 0)
(-0.191703 -0.22404 0)
(-0.189901 -0.227155 0)
(-0.184167 -0.229894 0)
(-0.177509 -0.232269 0)
(-0.170505 -0.233948 0)
(-0.163058 -0.234632 0)
(-0.15513 -0.234038 0)
(-0.14676 -0.231875 0)
(-0.138007 -0.227853 0)
(-0.128935 -0.221717 0)
(-0.119612 -0.213286 0)
(-0.110183 -0.202523 0)
(-0.100943 -0.189613 0)
(-0.0923517 -0.175033 0)
(-0.0849735 -0.159576 0)
(-0.0793745 -0.144263 0)
(-0.0759479 -0.130082 0)
(-0.0747395 -0.117631 0)
(-0.0754176 -0.106919 0)
(-0.0774288 -0.0975102 0)
(-0.0802042 -0.0888536 0)
(-0.0832869 -0.0805193 0)
(-0.0863698 -0.0722654 0)
(-0.0892717 -0.0640014 0)
(-0.0918932 -0.0557221 0)
(-0.0941818 -0.0474426 0)
(-0.0961108 -0.0391459 0)
(-0.0976645 -0.0307568 0)
(-0.0988274 -0.0221592 0)
(-0.0995874 -0.0132904 0)
(-0.0999761 -0.00434034 0)
(0.099982 -0.00443013 0)
(0.0997004 -0.0132891 0)
(0.0991411 -0.0220628 0)
(0.0982871 -0.030729 0)
(0.09715 -0.0393197 0)
(0.095739 -0.0478675 0)
(0.0940613 -0.0563875 0)
(0.0921266 -0.0648782 0)
(0.0899505 -0.0733282 0)
(0.0875556 -0.0817205 0)
(0.0849735 -0.0900329 0)
(0.0822453 -0.0982357 0)
(0.0794217 -0.106287 0)
(0.0765598 -0.114129 0)
(0.0737178 -0.121685 0)
(0.0709461 -0.128862 0)
(0.0682776 -0.135552 0)
(0.0657197 -0.141643 0)
(0.063251 -0.147031 0)
(0.0608252 -0.151636 0)
(0.058381 -0.155415 0)
(0.055854 -0.158362 0)
(0.0531876 -0.160514 0)
(0.0503398 -0.161941 0)
(0.0472853 -0.162731 0)
(0.0440144 -0.162987 0)
(0.040529 -0.162811 0)
(0.0368395 -0.162299 0)
(0.0329609 -0.161537 0)
(0.0289101 -0.160601 0)
(0.0247045 -0.159552 0)
(0.0203599 -0.15844 0)
(0.0158906 -0.157306 0)
(0.0113086 -0.156181 0)
(0.00662348 -0.15509 0)
(0.00184363 -0.154053 0)
(-0.00302102 -0.153085 0)
(-0.00795984 -0.152201 0)
(-0.0129666 -0.151419 0)
(-0.0180394 -0.150751 0)
(-0.023178 -0.150209 0)
(-0.0283833 -0.149804 0)
(-0.0336567 -0.149543 0)
(-0.0390011 -0.149434 0)
(-0.0444197 -0.149482 0)
(-0.0499166 -0.149692 0)
(-0.0554961 -0.150067 0)
(-0.061163 -0.150613 0)
(-0.0669223 -0.151331 0)
(-0.072779 -0.152224 0)
(-0.0787381 -0.153295 0)
(-0.0848045 -0.154545 0)
(-0.0909828 -0.155976 0)
(-0.0972771 -0.15759 0)
(-0.103691 -0.159386 0)
(-0.110226 -0.161368 0)
(-0.116885 -0.163534 0)
(-0.123666 -0.165885 0)
(-0.130566 -0.16842 0)
(-0.137579 -0.171136 0)
(-0.144692 -0.174031 0)
(-0.151887 -0.177096 0)
(-0.15913 -0.180321 0)
(-0.16636 -0.183683 0)
(-0.173522 -0.187152 0)
(-0.180646 -0.190685 0)
(-0.18772 -0.194208 0)
(-0.194367 -0.197608 0)
(-0.19943 -0.200815 0)
(-0.200055 -0.204938 0)
(-0.19511 -0.207832 0)
(-0.188616 -0.210155 0)
(-0.181643 -0.211987 0)
(-0.174205 -0.213115 0)
(-0.16625 -0.213287 0)
(-0.1578 -0.212253 0)
(-0.148911 -0.209753 0)
(-0.139648 -0.205532 0)
(-0.130082 -0.199373 0)
(-0.120304 -0.191139 0)
(-0.110506 -0.180839 0)
(-0.101041 -0.168706 0)
(-0.0924068 -0.155248 0)
(-0.0851798 -0.141249 0)
(-0.0798879 -0.127645 0)
(-0.0768316 -0.115258 0)
(-0.0759405 -0.104485 0)
(-0.0768015 -0.095203 0)
(-0.0788449 -0.086969 0)
(-0.0815323 -0.0793065 0)
(-0.084453 -0.0718734 0)
(-0.0873413 -0.0644903 0)
(-0.090044 -0.057099 0)
(-0.0924782 -0.0497057 0)
(-0.0946005 -0.0423263 0)
(-0.0963889 -0.0349417 0)
(-0.0978301 -0.0274741 0)
(-0.0989099 -0.0198057 0)
(-0.0996163 -0.0118769 0)
(-0.0999777 -0.00387367 0)
(0.0999818 -0.00406411 0)
(0.0996965 -0.01219 0)
(0.0991303 -0.0202347 0)
(0.0982664 -0.0281765 0)
(0.0971169 -0.0360447 0)
(0.0956919 -0.0438691 0)
(0.093999 -0.0516635 0)
(0.0920487 -0.0594264 0)
(0.089857 -0.0671472 0)
(0.0874475 -0.0748105 0)
(0.0848522 -0.082397 0)
(0.0821132 -0.089881 0)
(0.0792813 -0.0972265 0)
(0.0764142 -0.104384 0)
(0.07357 -0.111286 0)
(0.0707986 -0.11785 0)
(0.0681322 -0.123981 0)
(0.0655767 -0.129578 0)
(0.0631088 -0.134545 0)
(0.0606802 -0.138808 0)
(0.0582272 -0.142324 0)
(0.0556835 -0.145086 0)
(0.052991 -0.147125 0)
(0.0501066 -0.148501 0)
(0.0470042 -0.149295 0)
(0.0436736 -0.149598 0)
(0.0401167 -0.149504 0)
(0.0363436 -0.149101 0)
(0.0323693 -0.148468 0)
(0.0282108 -0.147673 0)
(0.0238852 -0.146773 0)
(0.0194083 -0.145815 0)
(0.0147944 -0.144835 0)
(0.0100553 -0.143862 0)
(0.00520066 -0.142919 0)
(0.000240174 -0.142022 0)
(-0.00481483 -0.141186 0)
(-0.0099538 -0.140426 0)
(-0.0151712 -0.139758 0)
(-0.0204651 -0.139192 0)
(-0.0258349 -0.13874 0)
(-0.0312809 -0.13841 0)
(-0.0368043 -0.138209 0)
(-0.0424074 -0.138142 0)
(-0.0480928 -0.138215 0)
(-0.0538639 -0.138432 0)
(-0.0597244 -0.138796 0)
(-0.0656782 -0.13931 0)
(-0.0717295 -0.139976 0)
(-0.0778821 -0.140796 0)
(-0.0841402 -0.141773 0)
(-0.0905071 -0.142906 0)
(-0.0969861 -0.144197 0)
(-0.10358 -0.145646 0)
(-0.110289 -0.147255 0)
(-0.117115 -0.149024 0)
(-0.124056 -0.150952 0)
(-0.131107 -0.153038 0)
(-0.138262 -0.155283 0)
(-0.145509 -0.157683 0)
(-0.152829 -0.160237 0)
(-0.160196 -0.162941 0)
(-0.167559 -0.165786 0)
(-0.174848 -0.16876 0)
(-0.181989 -0.171847 0)
(-0.188911 -0.175032 0)
(-0.195458 -0.178265 0)
(-0.201441 -0.18128 0)
(-0.206567 -0.183469 0)
(-0.206808 -0.186461 0)
(-0.200476 -0.188806 0)
(-0.193039 -0.190679 0)
(-0.185416 -0.192055 0)
(-0.17738 -0.192752 0)
(-0.168851 -0.192556 0)
(-0.159861 -0.191235 0)
(-0.15047 -0.188553 0)
(-0.140744 -0.184287 0)
(-0.130752 -0.178251 0)
(-0.120605 -0.170345 0)
(-0.110535 -0.160623 0)
(-0.100943 -0.149351 0)
(-0.0923525 -0.137052 0)
(-0.0853387 -0.124479 0)
(-0.0803819 -0.112476 0)
(-0.0776885 -0.101704 0)
(-0.0770854 -0.0924004 0)
(-0.0780993 -0.0843632 0)
(-0.0801574 -0.0771681 0)
(-0.0827545 -0.0704092 0)
(-0.0855224 -0.063814 0)
(-0.0882311 -0.0572488 0)
(-0.0907515 -0.0506779 0)
(-0.0930146 -0.0441144 0)
(-0.094985 -0.0375741 0)
(-0.0966449 -0.0310368 0)
(-0.0979832 -0.0244235 0)
(-0.0989869 -0.0176173 0)
(-0.0996439 -0.0105624 0)
(-0.0999796 -0.00344039 0)
(0.0999815 -0.0036936 0)
(0.0996927 -0.0110778 0)
(0.0991197 -0.0183857 0)
(0.098246 -0.0255969 0)
(0.0970844 -0.0327375 0)
(0.0956454 -0.0398348 0)
(0.0939371 -0.0469013 0)
(0.0919706 -0.0539353 0)
(0.0897624 -0.0609272 0)
(0.0873369 -0.0678632 0)
(0.0847267 -0.0747266 0)
(0.0819744 -0.0814952 0)
(0.0791316 -0.0881384 0)
(0.0762562 -0.0946131 0)
(0.0734063 -0.100862 0)
(0.0706317 -0.106813 0)
(0.0679636 -0.11238 0)
(0.0654064 -0.117474 0)
(0.0629352 -0.122008 0)
(0.0604996 -0.125914 0)
(0.0580337 -0.12915 0)
(0.0554696 -0.131708 0)
(0.0527475 -0.133613 0)
(0.0498236 -0.134918 0)
(0.0466713 -0.135695 0)
(0.04328 -0.136025 0)
(0.0396516 -0.135993 0)
(0.0357963 -0.135678 0)
(0.0317294 -0.135153 0)
(0.0274677 -0.13448 0)
(0.0230286 -0.13371 0)
(0.0184279 -0.132885 0)
(0.0136798 -0.132039 0)
(0.00879625 -0.131199 0)
(0.00378712 -0.130383 0)
(-0.0013367 -0.129607 0)
(-0.00656243 -0.128886 0)
(-0.01188 -0.128233 0)
(-0.0172846 -0.127662 0)
(-0.0227743 -0.127183 0)
(-0.028348 -0.126805 0)
(-0.0340058 -0.126535 0)
(-0.0397484 -0.12638 0)
(-0.0455776 -0.126344 0)
(-0.0514957 -0.126431 0)
(-0.0575052 -0.126646 0)
(-0.0636093 -0.126989 0)
(-0.0698111 -0.127464 0)
(-0.0761139 -0.128073 0)
(-0.0825207 -0.128817 0)
(-0.0890344 -0.129697 0)
(-0.0956575 -0.130713 0)
(-0.102392 -0.131867 0)
(-0.109239 -0.133158 0)
(-0.116198 -0.134587 0)
(-0.123268 -0.136154 0)
(-0.130448 -0.137858 0)
(-0.13773 -0.1397 0)
(-0.145107 -0.141678 0)
(-0.152567 -0.143791 0)
(-0.160094 -0.146041 0)
(-0.167659 -0.148426 0)
(-0.175214 -0.150942 0)
(-0.182695 -0.153581 0)
(-0.190078 -0.156345 0)
(-0.197348 -0.159284 0)
(-0.204224 -0.162492 0)
(-0.209045 -0.165757 0)
(-0.211236 -0.168073 0)
(-0.20926 -0.169689 0)
(-0.202839 -0.171045 0)
(-0.195378 -0.172228 0)
(-0.187529 -0.173048 0)
(-0.179204 -0.173282 0)
(-0.170356 -0.172721 0)
(-0.161035 -0.171151 0)
(-0.151314 -0.168353 0)
(-0.141267 -0.164123 0)
(-0.130971 -0.158303 0)
(-0.120564 -0.150824 0)
(-0.110327 -0.141769 0)
(-0.100696 -0.131428 0)
(-0.0922168 -0.120318 0)
(-0.085455 -0.109147 0)
(-0.080837 -0.0986504 0)
(-0.0784786 -0.0893436 0)
(-0.0781216 -0.081339 0)
(-0.079253 -0.0743915 0)
(-0.0813081 -0.0681143 0)
(-0.083815 -0.0621687 0)
(-0.0864441 -0.05634 0)
(-0.0889952 -0.0505301 0)
(-0.0913578 -0.0447193 0)
(-0.0934738 -0.0389246 0)
(-0.0953138 -0.033161 0)
(-0.0968636 -0.0274073 0)
(-0.0981139 -0.0215846 0)
(-0.0990525 -0.0155785 0)
(-0.0996673 -0.00933781 0)
(-0.0999811 -0.00303745 0)
(0.0999813 -0.00331865 0)
(0.0996891 -0.00995255 0)
(0.0991097 -0.0165161 0)
(0.0982266 -0.0229899 0)
(0.0970532 -0.0293973 0)
(0.0956006 -0.035763 0)
(0.0938772 -0.042098 0)
(0.0918946 -0.0484006 0)
(0.0896699 -0.0546621 0)
(0.0872279 -0.0608705 0)
(0.084602 -0.0670109 0)
(0.0818354 -0.0730649 0)
(0.0789802 -0.0790062 0)
(0.0760946 -0.0847987 0)
(0.0732368 -0.090393 0)
(0.0704563 -0.0957264 0)
(0.0677836 -0.100725 0)
(0.0652219 -0.105308 0)
(0.0627445 -0.109398 0)
(0.0602991 -0.112934 0)
(0.057818 -0.115875 0)
(0.0552315 -0.118213 0)
(0.0524787 -0.119968 0)
(0.0495147 -0.121185 0)
(0.0463126 -0.121927 0)
(0.0428619 -0.122268 0)
(0.0391644 -0.122281 0)
(0.0352307 -0.122038 0)
(0.031076 -0.121605 0)
(0.0267176 -0.121037 0)
(0.0221729 -0.12038 0)
(0.017458 -0.119673 0)
(0.0125872 -0.118947 0)
(0.00757226 -0.118223 0)
(0.00242369 -0.11752 0)
(-0.00284634 -0.116851 0)
(-0.00822401 -0.11623 0)
(-0.0136998 -0.11567 0)
(-0.0192697 -0.115183 0)
(-0.0249314 -0.114778 0)
(-0.0306838 -0.114462 0)
(-0.0365265 -0.114241 0)
(-0.04246 -0.114122 0)
(-0.0484856 -0.114107 0)
(-0.0546051 -0.1142 0)
(-0.0608206 -0.114404 0)
(-0.0671345 -0.114721 0)
(-0.0735492 -0.115153 0)
(-0.0800673 -0.115701 0)
(-0.0866908 -0.116367 0)
(-0.0934217 -0.11715 0)
(-0.100261 -0.118051 0)
(-0.10721 -0.119071 0)
(-0.114268 -0.120208 0)
(-0.121434 -0.121463 0)
(-0.128705 -0.122835 0)
(-0.136076 -0.124322 0)
(-0.14354 -0.125922 0)
(-0.151089 -0.127631 0)
(-0.158711 -0.129445 0)
(-0.166389 -0.131357 0)
(-0.174099 -0.133355 0)
(-0.181789 -0.135423 0)
(-0.189424 -0.137538 0)
(-0.197072 -0.139681 0)
(-0.204931 -0.141857 0)
(-0.212338 -0.14406 0)
(-0.215495 -0.146292 0)
(-0.214414 -0.1491 0)
(-0.21029 -0.150773 0)
(-0.203892 -0.152062 0)
(-0.196599 -0.153125 0)
(-0.188705 -0.153796 0)
(-0.180219 -0.15388 0)
(-0.171169 -0.153201 0)
(-0.161626 -0.151579 0)
(-0.151674 -0.148826 0)
(-0.141392 -0.144774 0)
(-0.130872 -0.139294 0)
(-0.120284 -0.13235 0)
(-0.10995 -0.124052 0)
(-0.10034 -0.114699 0)
(-0.0920155 -0.104793 0)
(-0.0855239 -0.0949814 0)
(-0.0812357 -0.085891 0)
(-0.0791832 -0.0779091 0)
(-0.0790383 -0.0710588 0)
(-0.0802629 -0.0650818 0)
(-0.0823067 -0.0596357 0)
(-0.0847299 -0.0544417 0)
(-0.0872361 -0.0493315 0)
(-0.0896501 -0.0442336 0)
(-0.0918765 -0.039139 0)
(-0.0938659 -0.0340667 0)
(-0.0955942 -0.0290302 0)
(-0.0970498 -0.0240081 0)
(-0.0982251 -0.0189233 0)