/*--------------------------------*- C++ -*----------------------------------*\
  =========                 |
  \\      /  F ield         | OpenFOAM: The Open Source CFD Toolbox
   \\    /   O peration     | Website:  https://openfoam.org
    \\  /    A nd           | Version:  8
     \\/     M anipulation  |
\*---------------------------------------------------------------------------*/
FoamFile
{
    version     2.0;
    format      ascii;
    class       volScalarField;
    location    "540/fluid";
    object      CH4;
}
// * * * * * * * * * * * * * * * * * * * * * * * * * * * * * * * * * * * * * //

dimensions      [0 0 0 0 0 0 0];

internalField   nonuniform List<scalar> 
4000
(
0.999997
0.999986
0.999969
0.99994
0.999891
0.999809
0.999676
0.999457
0.999104
0.99854
0.99765
0.996272
0.994176
0.991061
0.986547
0.980196
0.971546
0.960168
0.945726
0.928034
0.907068
0.882968
0.855998
0.826513
0.794917
0.761637
0.727098
0.691707
0.655847
0.619865
0.584075
0.548747
0.514114
0.480368
0.447663
0.416123
0.385841
0.356884
0.329294
0.30309
0.278274
0.254834
0.232744
0.21197
0.19247
0.174196
0.157098
0.141122
0.126213
0.112316
0.099376
0.0873414
0.0761614
0.0657885
0.0561784
0.0472911
0.0390911
0.0316216
0.0248818
0.0185742
0.01288
0.00780361
0.00342531
0.00239878
0.00165949
0.00113193
0.000759714
0.000500639
0.000323186
0.000203939
0.000125653
7.57842e-05
4.53925e-05
2.83998e-05
2.04877e-05
1.57037e-05
1.16596e-05
8.21079e-06
5.42634e-06
3.33953e-06
1.9097e-06
1.01941e-06
5.12666e-07
2.46851e-07
1.15323e-07
5.25954e-08
2.35207e-08
1.03485e-08
4.49113e-09
1.92664e-09
8.18399e-10
3.44731e-10
1.44154e-10
5.98773e-11
2.46932e-11
1.00807e-11
4.03637e-12
1.54327e-12
5.15941e-13
9.04954e-14
0.999997
0.999986
0.999969
0.999939
0.99989
0.999808
0.999673
0.999452
0.999096
0.998527
0.997633
0.996251
0.994157
0.991054
0.986574
0.980287
0.971743
0.960519
0.946278
0.928821
0.908112
0.884267
0.857534
0.82825
0.79681
0.763635
0.72915
0.693765
0.657867
0.621812
0.585918
0.550465
0.515689
0.481791
0.44893
0.417231
0.386793
0.357686
0.329953
0.303614
0.278674
0.25512
0.232927
0.212058
0.192474
0.174126
0.156964
0.140932
0.125975
0.112038
0.0990642
0.0870018
0.0757993
0.0654088
0.0557858
0.0468901
0.0386865
0.03124
0.0245173
0.0182265
0.0125619
0.00753995
0.0033082
0.00232076
0.00160647
0.00109536
0.000734283
0.000482932
0.000310937
0.000195592
0.000120113
7.22743e-05
4.33668e-05
2.75056e-05
2.01798e-05
1.53911e-05
1.13061e-05
7.86746e-06
5.13698e-06
3.12867e-06
1.77755e-06
9.47926e-07
4.78914e-07
2.3226e-07
1.09455e-07
5.03737e-08
2.27218e-08
1.00728e-08
4.3987e-09
1.89597e-09
8.08073e-10
3.41087e-10
1.42771e-10
5.93099e-11
2.44467e-11
9.97117e-12
3.98838e-12
1.5234e-12
5.08891e-13
8.92458e-14
0.999997
0.999986
0.999969
0.999939
0.999889
0.999806
0.99967
0.999448
0.99909
0.998518
0.997622
0.996238
0.994144
0.991048
0.986587
0.980342
0.971871
0.960757
0.946667
0.929401
0.908913
0.885307
0.858815
0.82976
0.798522
0.765511
0.731145
0.695833
0.65996
0.623887
0.587934
0.552387
0.51749
0.483448
0.450427
0.418558
0.387945
0.358661
0.330753
0.304246
0.279145
0.255438
0.233099
0.212101
0.1924
0.173948
0.156692
0.140578
0.125549
0.11155
0.0985242
0.0864181
0.07518
0.0647612
0.0551164
0.0462049
0.0379908
0.0305469
0.0238248
0.0175316
0.011872
0.00685919
0.00320506
0.0022417
0.0015465
0.00105049
0.000701256
0.000459096
0.000294132
0.000184084
0.000112531
6.75673e-05
4.0771e-05
2.64999e-05
1.97851e-05
1.49903e-05
1.0895e-05
7.49859e-06
4.84678e-06
2.92862e-06
1.65621e-06
8.82267e-07
4.46614e-07
2.17307e-07
1.02846e-07
4.75605e-08
2.156e-08
9.60434e-09
4.21309e-09
1.82324e-09
7.79696e-10
3.29992e-10
1.38401e-10
5.75696e-11
2.37465e-11
9.68792e-12
3.8747e-12
1.47954e-12
4.94039e-13
8.66198e-14
0.999997
0.999986
0.999968
0.999939
0.999889
0.999806
0.999669
0.999447
0.999088
0.998518
0.997623
0.996244
0.994162
0.991088
0.986664
0.980475
0.972083
0.961075
0.947119
0.930011
0.909698
0.886276
0.859967
0.831084
0.8
0.767118
0.73285
0.697601
0.661756
0.625674
0.589679
0.55406
0.519063
0.484898
0.451737
0.419715
0.38894
0.359489
0.331415
0.304742
0.279476
0.255612
0.233135
0.212006
0.192184
0.173621
0.156267
0.140065
0.124959
0.110894
0.0978123
0.0856601
0.074385
0.0639376
0.0542721
0.0453473
0.0371269
0.029695
0.0229904
0.0167249
0.0110972
0.00610658
0.00315667
0.00219051
0.00149989
0.00101147
0.000670418
0.000435835
0.000277311
0.000172428
0.000104845
6.28493e-05
3.82632e-05
2.56513e-05
1.93556e-05
1.45308e-05
1.0437e-05
7.09606e-06
4.53299e-06
2.71165e-06
1.52255e-06
8.07974e-07
4.08709e-07
1.99164e-07
9.45205e-08
4.38619e-08
1.99594e-08
8.9266e-09
3.93121e-09
1.70768e-09
7.32832e-10
3.11132e-10
1.30847e-10
5.45527e-11
2.25442e-11
9.21086e-12
3.68787e-12
1.4092e-12
4.70705e-13
8.25429e-14
0.999997
0.999986
0.999968
0.999939
0.999889
0.999806
0.999669
0.999447
0.999089
0.99852
0.997628
0.996255
0.994184
0.991129
0.986734
0.98059
0.972263
0.961341
0.947493
0.930512
0.91034
0.887066
0.860904
0.832159
0.801197
0.768416
0.734224
0.699022
0.663196
0.627103
0.59107
0.555386
0.520301
0.48603
0.452746
0.420589
0.38967
0.360071
0.331842
0.305015
0.279607
0.255611
0.233003
0.211751
0.191816
0.173151
0.155704
0.139421
0.124245
0.11012
0.0969881
0.0847956
0.0734894
0.0630195
0.0533395
0.0444075
0.036189
0.028799
0.022128
0.015875
0.0102563
0.00531557
0.00310754
0.0021392
0.00145262
0.000971524
0.000638783
0.000412057
0.000260248
0.000160729
9.72267e-05
5.82341e-05
3.58779e-05
2.49273e-05
1.88508e-05
1.40073e-05
9.95e-06
6.69194e-06
4.23284e-06
2.51222e-06
1.40335e-06
7.43041e-07
3.75914e-07
1.83499e-07
8.73025e-08
4.06266e-08
1.85403e-08
8.31488e-09
3.67122e-09
1.59844e-09
6.8736e-10
2.92345e-10
1.23131e-10
5.13996e-11
2.12623e-11
8.69378e-12
3.48273e-12
1.33123e-12
4.44687e-13
7.79816e-14
0.999997
0.999986
0.999968
0.999939
0.999889
0.999806
0.99967
0.999449
0.999092
0.998526
0.997638
0.996274
0.994215
0.991179
0.986815
0.980713
0.972443
0.961594
0.947834
0.930953
0.91089
0.887727
0.861673
0.833028
0.802153
0.769441
0.735298
0.700124
0.664302
0.62819
0.592115
0.556369
0.521204
0.486836
0.453443
0.421167
0.39012
0.360386
0.332025
0.305076
0.279546
0.255429
0.232707
0.211349
0.191316
0.172563
0.155037
0.138685
0.123451
0.109276
0.096105
0.0838824
0.072555
0.0620726
0.0523886
0.043461
0.0352661
0.0279135
0.0212427
0.015003
0.00941463
0.00455228
0.00304611
0.00206488
0.00138604
0.00091857
0.000599396
0.000384111
0.00024119
0.000148224
8.93752e-05
5.35956e-05
3.34637e-05
2.3869e-05
1.81107e-05
1.33798e-05
9.43563e-06
6.29665e-06
3.95272e-06
2.33092e-06
1.29612e-06
6.84501e-07
3.46004e-07
1.69018e-07
8.05255e-08
3.75404e-08
1.71665e-08
7.71499e-09
3.41352e-09
1.48926e-09
6.41628e-10
2.73368e-10
1.15316e-10
4.82014e-11
1.99615e-11
8.16904e-12
3.27459e-12
1.25214e-12
4.183e-13
7.33554e-14
0.999997
0.999986
0.999969
0.999939
0.999889
0.999807
0.999672
0.999451
0.999096
0.998532
0.997649
0.996292
0.994245
0.991227
0.986888
0.980822
0.9726
0.961811
0.948122
0.931322
0.911343
0.888265
0.862291
0.833718
0.802903
0.770237
0.736121
0.700957
0.665125
0.628986
0.592865
0.557057
0.521817
0.487361
0.453868
0.421483
0.390324
0.360483
0.332017
0.304957
0.279319
0.255099
0.232281
0.210834
0.19072
0.171894
0.154305
0.137898
0.122617
0.108406
0.0952074
0.0829656
0.0716274
0.0611421
0.0514625
0.0425451
0.034349
0.0270646
0.0204109
0.014202
0.00865236
0.00384591
0.00268148
0.00184332
0.00124838
0.000831881
0.000544531
0.000349492
0.000219579
0.000134997
8.15383e-05
4.92177e-05
3.13345e-05
2.28962e-05
1.74128e-05
1.28179e-05
8.99386e-06
5.96654e-06
3.72312e-06
2.18413e-06
1.20988e-06
6.37491e-07
3.21913e-07
1.5728e-07
7.49809e-08
3.49868e-08
1.60152e-08
7.20543e-09
3.1916e-09
1.39396e-09
6.01203e-10
2.56399e-10
1.08256e-10
4.52867e-11
1.87672e-11
7.68439e-12
3.08144e-12
1.17848e-12
3.93666e-13
6.90311e-14
0.999997
0.999986
0.999969
0.999939
0.99989
0.999808
0.999673
0.999453
0.9991
0.998539
0.99766
0.99631
0.994274
0.991272
0.986955
0.980921
0.972738
0.961998
0.948366
0.931628
0.911713
0.888697
0.862781
0.834257
0.80348
0.770839
0.736735
0.701566
0.665715
0.629541
0.593373
0.557505
0.522192
0.487652
0.45407
0.421595
0.390346
0.360411
0.331848
0.304694
0.278966
0.254661
0.231763
0.210244
0.190065
0.171181
0.153542
0.137094
0.12178
0.107544
0.0943286
0.0820783
0.0707399
0.0602632
0.0506019
0.0417148
0.0335833
0.0263689
0.0196064
0.0135129
0.00810029
0.00348422
0.00243316
0.00167674
0.00113843
0.000760273
0.000498521
0.000320383
0.000201519
0.000124089
7.5221e-05
4.58467e-05
2.98879e-05
2.22845e-05
1.69592e-05
1.24367e-05
8.68198e-06
5.72647e-06
3.5519e-06
2.07232e-06
1.14293e-06
6.00327e-07
3.02519e-07
1.4768e-07
7.03801e-08
3.28397e-08
1.50359e-08
6.76759e-09
2.99925e-09
1.31075e-09
5.65689e-10
2.41414e-10
1.01995e-10
4.26933e-11
1.77017e-11
7.25111e-12
2.90847e-12
1.11243e-12
3.71557e-13
6.51478e-14
0.999997
0.999986
0.999969
0.999939
0.99989
0.999808
0.999674
0.999456
0.999104
0.998545
0.997671
0.996326
0.9943
0.991311
0.987014
0.981005
0.972855
0.962154
0.948567
0.931876
0.912009
0.889039
0.863162
0.83467
0.803915
0.771284
0.737178
0.701995
0.666118
0.629906
0.593689
0.55776
0.522378
0.487766
0.454111
0.421558
0.390227
0.360208
0.331564
0.304332
0.278529
0.254154
0.231192
0.209614
0.189384
0.170456
0.15278
0.136302
0.120966
0.106714
0.0934893
0.0812368
0.0699028
0.0594368
0.0497925
0.0409282
0.0328718
0.0256924
0.018962
0.0129259
0.00759467
0.00328369
0.00229142
0.00157806
0.0010709
0.000714915
0.000468657
0.000301153
0.000189462
0.000116797
7.10683e-05
4.37866e-05
2.9263e-05
2.21021e-05
1.67936e-05
1.22607e-05
8.50736e-06
5.57339e-06
3.43421e-06
1.99167e-06
1.09305e-06
5.71971e-07
2.87438e-07
1.40101e-07
6.66986e-08
3.11009e-08
1.42341e-08
6.40554e-09
2.83878e-09
1.24078e-09
5.35616e-10
2.28648e-10
9.66342e-11
4.04632e-11
1.67823e-11
6.87618e-12
2.75847e-12
1.05506e-12
3.52338e-13
6.17665e-14
0.999997
0.999986
0.999969
0.99994
0.99989
0.999809
0.999675
0.999458
0.999107
0.998551
0.99768
0.996341
0.994322
0.991345
0.987064
0.981076
0.972952
0.962282
0.948729
0.932074
0.912242
0.889303
0.863453
0.834979
0.804233
0.771602
0.737486
0.702283
0.666375
0.630123
0.593855
0.557871
0.522431
0.487758
0.454033
0.421409
0.390006
0.359917
0.331205
0.303907
0.278043
0.253612
0.230599
0.208976
0.188707
0.169746
0.152043
0.135544
0.120193
0.105932
0.0927048
0.0804546
0.0691279
0.0586741
0.0490462
0.0402021
0.0321779
0.0250314
0.0183266
0.0123097
0.00698486
0.00320411
0.00222943
0.00153182
0.00103757
0.000691606
0.000452826
0.000290731
0.000182851
0.000112814
6.88825e-05
4.28468e-05
2.92078e-05
2.22293e-05
1.68323e-05
1.22273e-05
8.43674e-06
5.48881e-06
3.35823e-06
1.93521e-06
1.05642e-06
5.50474e-07
2.75735e-07
1.34125e-07
6.3757e-08
2.96959e-08
1.35802e-08
6.10791e-09
2.70597e-09
1.18255e-09
5.10464e-10
2.17929e-10
9.21179e-11
3.85793e-11
1.60039e-11
6.55822e-12
2.63109e-12
1.00629e-12
3.35998e-13
5.88868e-14
0.999997
0.999987
0.999969
0.99994
0.999891
0.99981
0.999676
0.999459
0.99911
0.998555
0.997688
0.996353
0.994341
0.991374
0.987105
0.981134
0.97303
0.962385
0.948858
0.932229
0.912422
0.889504
0.863669
0.835204
0.804459
0.771821
0.737689
0.702461
0.66652
0.630227
0.593915
0.557883
0.522388
0.487656
0.453871
0.421186
0.389722
0.359574
0.330805
0.303454
0.277541
0.253065
0.230012
0.208354
0.188055
0.16907
0.151348
0.134836
0.119476
0.105212
0.091986
0.0797416
0.0684247
0.0579844
0.0483731
0.0395484
0.0315536
0.0244372
0.0177604
0.0117688
0.00646727
0.00317233
0.00220344
0.00151173
0.00102272
0.000681054
0.000445608
0.000285995
0.000179903
0.000111131
6.80986e-05
4.27374e-05
2.97006e-05
2.26698e-05
1.70781e-05
1.23252e-05
8.44371e-06
5.45596e-06
3.31386e-06
1.89735e-06
1.03016e-06
5.34467e-07
2.66804e-07
1.29484e-07
6.1442e-08
2.85786e-08
1.30556e-08
5.86748e-09
2.59805e-09
1.13498e-09
4.89831e-10
2.09103e-10
8.83875e-11
3.70192e-11
1.5358e-11
6.29403e-12
2.52517e-12
9.65716e-13
3.22396e-13
5.64923e-14
0.999997
0.999987
0.999969
0.99994
0.999891
0.99981
0.999677
0.999461
0.999113
0.99856
0.997694
0.996364
0.994357
0.991397
0.987139
0.981181
0.973093
0.962466
0.948958
0.932348
0.912557
0.889653
0.863826
0.835362
0.804613
0.771963
0.737811
0.702557
0.666584
0.630255
0.593902
0.557823
0.522279
0.487495
0.453657
0.42092
0.389405
0.359208
0.330392
0.302998
0.277045
0.252534
0.229449
0.207765
0.187445
0.168442
0.150708
0.134188
0.118825
0.104562
0.0913399
0.0791036
0.0677983
0.0573726
0.047779
0.0389768
0.0310144
0.0239179
0.0172577
0.0112886
0.00601304
0.00314739
0.00218705
0.00150097
0.00101575
0.000676652
0.000442927
0.000284444
0.000179095
0.00011083
6.81835e-05
4.31889e-05
3.05569e-05
2.33052e-05
1.74508e-05
1.25094e-05
8.50869e-06
5.45739e-06
3.29294e-06
1.87344e-06
1.01192e-06
5.22822e-07
2.6012e-07
1.2595e-07
5.9656e-08
2.77078e-08
1.26434e-08
5.6772e-09
2.51212e-09
1.09691e-09
4.73245e-10
2.01981e-10
8.53679e-11
3.57532e-11
1.48329e-11
6.07894e-12
2.43891e-12
9.32719e-13
3.11376e-13
5.45573e-14
0.999997
0.999987
0.999969
0.99994
0.999891
0.999811
0.999678
0.999462
0.999115
0.998563
0.9977
0.996372
0.99437
0.991416
0.987166
0.981218
0.973143
0.962529
0.949035
0.932438
0.912658
0.88976
0.863935
0.83547
0.804712
0.772047
0.737875
0.702595
0.666593
0.630229
0.593837
0.557716
0.522129
0.4873
0.453418
0.420637
0.389079
0.358841
0.329988
0.302559
0.276575
0.252036
0.228928
0.207224
0.186888
0.167874
0.150132
0.133608
0.118245
0.103985
0.0907694
0.0785425
0.0672492
0.0568382
0.0472637
0.038481
0.0305399
0.0234636
0.0168266
0.0108806
0.00563617
0.00312632
0.00217532
0.00149484
0.00101289
0.000675588
0.000442798
0.000284769
0.000179616
0.000111429
6.88319e-05
4.39153e-05
3.13955e-05
2.3947e-05
1.78518e-05
1.27273e-05
8.60459e-06
5.48406e-06
3.28883e-06
1.86131e-06
1.00049e-06
5.14883e-07
2.55365e-07
1.23374e-07
5.83306e-08
2.70524e-08
1.23296e-08
5.53102e-09
2.44559e-09
1.06724e-09
4.60251e-10
1.96376e-10
8.29825e-11
3.475e-11
1.44157e-11
5.90773e-12
2.37015e-12
9.06397e-13
3.02585e-13
5.30136e-14
0.999997
0.999987
0.999969
0.99994
0.999892
0.999811
0.999679
0.999463
0.999117
0.998566
0.997704
0.996379
0.99438
0.991431
0.987187
0.981247
0.97318
0.962576
0.949092
0.932503
0.91273
0.889835
0.86401
0.835538
0.80477
0.77209
0.737898
0.702595
0.666564
0.630169
0.593743
0.557585
0.521961
0.487094
0.453175
0.420356
0.388764
0.358493
0.329609
0.302152
0.276143
0.251583
0.228457
0.206739
0.186392
0.167371
0.149625
0.1331
0.117739
0.103484
0.0902759
0.0780589
0.0667786
0.0563841
0.046825
0.0380545
0.0301389
0.0230819
0.0164636
0.0105359
0.00532888
0.00310896
0.00216728
0.0014921
0.00101292
0.000676906
0.000444558
0.000286524
0.000181173
0.000112743
6.99471e-05
4.4925e-05
3.23701e-05
2.46657e-05
1.83103e-05
1.29893e-05
8.73364e-06
5.53454e-06
3.30064e-06
1.85878e-06
9.95184e-07
5.10297e-07
2.52307e-07
1.21636e-07
5.74076e-08
2.65851e-08
1.21017e-08
5.42329e-09
2.39599e-09
1.04492e-09
4.50394e-10
1.92098e-10
8.11521e-11
3.39768e-11
1.40931e-11
5.77497e-12
2.31673e-12
8.85923e-13
2.95743e-13
5.18092e-14
0.999997
0.999987
0.999969
0.99994
0.999892
0.999811
0.999679
0.999464
0.999118
0.998568
0.997708
0.996384
0.994388
0.991442
0.987203
0.981268
0.973209
0.962612
0.949134
0.932551
0.91278
0.889886
0.864058
0.835579
0.8048
0.772105
0.737896
0.70257
0.666514
0.630091
0.593636
0.557447
0.521791
0.486893
0.452943
0.420094
0.388473
0.358176
0.329267
0.301789
0.275761
0.251185
0.228046
0.206318
0.185963
0.166938
0.14919
0.132666
0.117308
0.103059
0.0898595
0.0776545
0.066388
0.0560043
0.0464553
0.0376999
0.0298063
0.0227664
0.0161649
0.0102547
0.00508114
0.00309485
0.0021624
0.00149219
0.00101539
0.000680219
0.000447883
0.000289463
0.000183593
0.000114664
7.14701e-05
4.61917e-05
3.34805e-05
2.54697e-05
1.88313e-05
1.32972e-05
8.89571e-06
5.60786e-06
3.32744e-06
1.8652e-06
9.94665e-07
5.08476e-07
2.50719e-07
1.20634e-07
5.68339e-08
2.62793e-08
1.19472e-08
5.34834e-09
2.3608e-09
1.02884e-09
4.43211e-10
1.8895e-10
7.97954e-11
3.34003e-11
1.38514e-11
5.67515e-12
2.27647e-12
8.70493e-13
2.90585e-13
5.08986e-14
0.999997
0.999987
0.999969
0.99994
0.999892
0.999812
0.99968
0.999465
0.999119
0.99857
0.99771
0.996388
0.994394
0.991451
0.987215
0.981285
0.97323
0.962637
0.949164
0.932584
0.912815
0.88992
0.864087
0.835602
0.804812
0.772104
0.737878
0.702533
0.666456
0.63001
0.593529
0.557315
0.521633
0.48671
0.452734
0.419862
0.388219
0.3579
0.328973
0.301478
0.275436
0.250848
0.227699
0.205964
0.185605
0.166577
0.148829
0.132307
0.116954
0.102712
0.0895211
0.0773241
0.066064
0.0556905
0.0461548
0.0374129
0.0295343
0.0225075
0.0159166
0.0100132
0.00485628
0.00308391
0.00216046
0.00149487
0.00102003
0.00068529
0.000452583
0.000293445
0.000186778
0.000117127
7.33599e-05
4.769e-05
3.47116e-05
2.63508e-05
1.9408e-05
1.36452e-05
9.08603e-06
5.70049e-06
3.36681e-06
1.87936e-06
9.98535e-07
5.08838e-07
2.50274e-07
1.20167e-07
5.65211e-08
2.60978e-08
1.18502e-08
5.29937e-09
2.33716e-09
1.01781e-09
4.38207e-10
1.86731e-10
7.88301e-11
3.29873e-11
1.36774e-11
5.60308e-12
2.2474e-12
8.59339e-13
2.86848e-13
5.02429e-14
0.999997
0.999987
0.999969
0.99994
0.999892
0.999812
0.99968
0.999465
0.99912
0.998571
0.997712
0.996391
0.994398
0.991458
0.987224
0.981297
0.973245
0.962656
0.949185
0.932607
0.912838
0.889941
0.864104
0.835612
0.804813
0.772094
0.737854
0.702493
0.666398
0.629934
0.593434
0.5572
0.521497
0.486554
0.452559
0.419668
0.388008
0.357674
0.328732
0.301225
0.275172
0.250575
0.22742
0.20568
0.185318
0.16629
0.148543
0.132025
0.116677
0.10244
0.0892539
0.0770624
0.065811
0.0554471
0.0459217
0.0371906
0.0293266
0.0223107
0.0157294
0.0098349
0.0046965
0.00307573
0.00216107
0.00149979
0.00102655
0.000691888
0.000458481
0.000298335
0.00019063
0.00012006
7.55649e-05
4.93805e-05
3.60326e-05
2.72852e-05
2.00212e-05
1.4019e-05
9.29485e-06
5.80608e-06
3.41477e-06
1.89886e-06
1.00553e-06
5.10922e-07
2.50668e-07
1.20126e-07
5.64091e-08
2.60114e-08
1.1798e-08
5.27103e-09
2.32278e-09
1.01086e-09
4.34978e-10
1.85274e-10
7.81887e-11
3.27111e-11
1.35607e-11
5.55471e-12
2.22782e-12
8.51799e-13
2.84316e-13
4.97988e-14
0.999997
0.999987
0.999969
0.99994
0.999892
0.999812
0.99968
0.999466
0.99912
0.998572
0.997714
0.996393
0.994402
0.991462
0.98723
0.981305
0.973255
0.962668
0.949199
0.932622
0.912852
0.889953
0.864113
0.835616
0.80481
0.772081
0.73783
0.702458
0.66635
0.629871
0.593356
0.557108
0.52139
0.486432
0.452423
0.419519
0.387846
0.357501
0.328549
0.301033
0.274973
0.250371
0.227212
0.205469
0.185106
0.166078
0.148333
0.131816
0.11647
0.102236
0.089055
0.0768704
0.0656265
0.0552705
0.0457535
0.0370309
0.0291786
0.022171
0.0155968
0.00970781
0.00458049
0.00307001
0.0021639
0.0015066
0.00103462
0.000699708
0.000465313
0.000303919
0.00019498
0.000123333
7.79797e-05
5.11667e-05
3.7373e-05
2.82197e-05
2.06315e-05
1.43914e-05
9.50457e-06
5.9141e-06
3.46547e-06
1.92054e-06
1.01398e-06
5.139e-07
2.51583e-07
1.2036e-07
5.64375e-08
2.59929e-08
1.17776e-08
5.25766e-09
2.31537e-09
1.0071e-09
4.33177e-10
1.84446e-10
7.78188e-11
3.25495e-11
1.34914e-11
5.52557e-12
2.2159e-12
8.47172e-13
2.82756e-13
4.95243e-14
0.999997
0.999987
0.999969
0.99994
0.999892
0.999812
0.99968
0.999466
0.999121
0.998572
0.997715
0.996395
0.994404
0.991465
0.987234
0.98131
0.973262
0.962676
0.949208
0.93263
0.912861
0.88996
0.864117
0.835616
0.804805
0.77207
0.737812
0.702432
0.666315
0.629827
0.593302
0.557044
0.521317
0.486349
0.452331
0.419418
0.387738
0.357385
0.328427
0.300906
0.274842
0.250236
0.227074
0.20533
0.184966
0.165937
0.148193
0.131677
0.116333
0.102103
0.0889264
0.0767467
0.0655083
0.0551581
0.0456472
0.0369309
0.0290866
0.0220845
0.0155145
0.00962771
0.00450488
0.00306643
0.00216843
0.00151464
0.00104353
0.000708063
0.000472472
0.000309692
0.00019943
0.000126646
8.03865e-05
5.28943e-05
3.86074e-05
2.90562e-05
2.11679e-05
1.47146e-05
9.68554e-06
6.0075e-06
3.50977e-06
1.93985e-06
1.02173e-06
5.16754e-07
2.52608e-07
1.20704e-07
5.65401e-08
2.60171e-08
1.17797e-08
5.25531e-09
2.31313e-09
1.0057e-09
4.32418e-10
1.84069e-10
7.76415e-11
3.24691e-11
1.34559e-11
5.51037e-12
2.20958e-12
8.4469e-13
2.81914e-13
4.93755e-14
0.999997
0.999987
0.999969
0.99994
0.999892
0.999812
0.99968
0.999466
0.999121
0.998573
0.997715
0.996395
0.994404
0.991466
0.987236
0.981312
0.973265
0.962679
0.949212
0.932634
0.912864
0.889963
0.864119
0.835616
0.804802
0.772064
0.737803
0.702418
0.666297
0.629805
0.593275
0.557012
0.52128
0.486308
0.452285
0.419368
0.387684
0.357328
0.328367
0.300843
0.274776
0.250168
0.227005
0.20526
0.184896
0.165867
0.148124
0.131609
0.116267
0.102039
0.0888649
0.0766881
0.0654527
0.0551059
0.0455985
0.0368856
0.0290458
0.0220466
0.0154783
0.00959137
0.00446781
0.00306472
0.00217333
0.001522
0.00105118
0.000714985
0.000478255
0.000314272
0.000202912
0.000129207
8.22176e-05
5.41639e-05
3.94492e-05
2.95959e-05
2.15004e-05
1.49089e-05
9.79195e-06
6.06161e-06
3.53526e-06
1.95098e-06
1.02623e-06
5.18443e-07
2.53242e-07
1.20929e-07
5.66153e-08
2.60398e-08
1.17854e-08
5.25608e-09
2.31282e-09
1.00533e-09
4.32175e-10
1.83936e-10
7.7575e-11
3.24377e-11
1.34417e-11
5.50416e-12
2.20696e-12
8.43651e-13
2.81558e-13
4.93125e-14
0.999997
0.999987
0.999969
0.99994
0.999892
0.999812
0.99968
0.999466
0.999121
0.998573
0.997715
0.996395
0.994404
0.991466
0.987236
0.981312
0.973265
0.962679
0.949211
0.932634
0.912864
0.889963
0.864118
0.835615
0.804802
0.772064
0.737802
0.702418
0.666297
0.629804
0.593275
0.557011
0.521279
0.486307
0.452285
0.419368
0.387683
0.357327
0.328366
0.300842
0.274776
0.250168
0.227005
0.20526
0.184896
0.165867
0.148123
0.131609
0.116267
0.102039
0.0888647
0.0766879
0.0654525
0.0551057
0.0455983
0.0368854
0.0290457
0.0220465
0.0154782
0.00959129
0.00446775
0.00306472
0.00217333
0.001522
0.00105118
0.000714985
0.000478254
0.000314271
0.000202912
0.000129207
8.22173e-05
5.41638e-05
3.94491e-05
2.95959e-05
2.15003e-05
1.49089e-05
9.79194e-06
6.0616e-06
3.53525e-06
1.95098e-06
1.02623e-06
5.18442e-07
2.53241e-07
1.20929e-07
5.66152e-08
2.60397e-08
1.17854e-08
5.25606e-09
2.31281e-09
1.00532e-09
4.32173e-10
1.83935e-10
7.75747e-11
3.24376e-11
1.34417e-11
5.50413e-12
2.20695e-12
8.43646e-13
2.81557e-13
4.93122e-14
0.999997
0.999987
0.999969
0.99994
0.999892
0.999812
0.99968
0.999466
0.999121
0.998572
0.997714
0.996395
0.994403
0.991465
0.987234
0.98131
0.973261
0.962675
0.949207
0.93263
0.91286
0.889959
0.864116
0.835615
0.804804
0.772069
0.737811
0.70243
0.666313
0.629825
0.593301
0.557042
0.521315
0.486347
0.452329
0.419417
0.387736
0.357383
0.328426
0.300905
0.27484
0.250234
0.227073
0.205329
0.184965
0.165936
0.148192
0.131676
0.116333
0.102102
0.0889257
0.0767462
0.0655077
0.0551576
0.0456468
0.0369305
0.0290862
0.0220842
0.0155142
0.00962747
0.00450468
0.00306643
0.00216843
0.00151464
0.00104353
0.000708062
0.000472471
0.000309691
0.000199429
0.000126645
8.0386e-05
5.28941e-05
3.86073e-05
2.90561e-05
2.11679e-05
1.47146e-05
9.68552e-06
6.00748e-06
3.50976e-06
1.93984e-06
1.02172e-06
5.1675e-07
2.52606e-07
1.20702e-07
5.65395e-08
2.60168e-08
1.17796e-08
5.25524e-09
2.3131e-09
1.00568e-09
4.32412e-10
1.84066e-10
7.76403e-11
3.24685e-11
1.34557e-11
5.51027e-12
2.20954e-12
8.44674e-13
2.81908e-13
4.93745e-14
0.999997
0.999987
0.999969
0.99994
0.999892
0.999812
0.99968
0.999466
0.99912
0.998572
0.997714
0.996393
0.994401
0.991462
0.98723
0.981304
0.973255
0.962667
0.949198
0.93262
0.91285
0.889951
0.864111
0.835613
0.804807
0.772078
0.737827
0.702455
0.666347
0.629868
0.593353
0.557104
0.521387
0.486429
0.45242
0.419516
0.387843
0.357498
0.328546
0.301031
0.274971
0.250368
0.227209
0.205467
0.185104
0.166076
0.148331
0.131815
0.116469
0.102235
0.0890539
0.0768694
0.0656256
0.0552697
0.0457527
0.0370302
0.029178
0.0221705
0.0155963
0.00970739
0.00458014
0.00307
0.0021639
0.0015066
0.00103462
0.000699705
0.000465311
0.000303917
0.000194979
0.000123332
7.7979e-05
5.11664e-05
3.7373e-05
2.82197e-05
2.06316e-05
1.43914e-05
9.50455e-06
5.91408e-06
3.46545e-06
1.92053e-06
1.01397e-06
5.13893e-07
2.51579e-07
1.20358e-07
5.64365e-08
2.59923e-08
1.17774e-08
5.25754e-09
2.31531e-09
1.00708e-09
4.33166e-10
1.84441e-10
7.78166e-11
3.25485e-11
1.34909e-11
5.5254e-12
2.21583e-12
8.47143e-13
2.82747e-13
4.95226e-14
0.999997
0.999987
0.999969
0.99994
0.999892
0.999812
0.99968
0.999465
0.99912
0.998571
0.997712
0.996391
0.994398
0.991457
0.987224
0.981296
0.973244
0.962654
0.949183
0.932605
0.912835
0.889938
0.864101
0.835608
0.804809
0.772089
0.737849
0.702489
0.666394
0.629929
0.593429
0.557195
0.521493
0.48655
0.452555
0.419664
0.388004
0.35767
0.328728
0.301221
0.275169
0.250572
0.227417
0.205678
0.185316
0.166287
0.148541
0.132023
0.116675
0.102438
0.0892524
0.077061
0.0658097
0.0554459
0.0459206
0.0371896
0.0293257
0.0223099
0.0157288
0.0098343
0.004696
0.00307571
0.00216106
0.00149978
0.00102654
0.000691884
0.000458478
0.000298333
0.000190629
0.000120059
7.55641e-05
4.93801e-05
3.60326e-05
2.72852e-05
2.00212e-05
1.4019e-05
9.29482e-06
5.80604e-06
3.41474e-06
1.89883e-06
1.00551e-06
5.10912e-07
2.50663e-07
1.20123e-07
5.64075e-08
2.60106e-08
1.17976e-08
5.27085e-09
2.3227e-09
1.01082e-09
4.3496e-10
1.85266e-10
7.81852e-11
3.27097e-11
1.35601e-11
5.55445e-12
2.22771e-12
8.51757e-13
2.84302e-13
4.97963e-14
0.999997
0.999987
0.999969
0.99994
0.999892
0.999812
0.99968
0.999465
0.999119
0.99857
0.99771
0.996388
0.994394
0.991451
0.987215
0.981284
0.973229
0.962636
0.949162
0.932581
0.912812
0.889916
0.864083
0.835597
0.804807
0.772098
0.737872
0.702527
0.66645
0.630004
0.593523
0.55731
0.521628
0.486704
0.452729
0.419857
0.388214
0.357895
0.328968
0.301474
0.275432
0.250844
0.227696
0.205961
0.185602
0.166574
0.148826
0.132305
0.116952
0.102709
0.0895191
0.0773222
0.0660623
0.055689
0.0461534
0.0374116
0.0295332
0.0225065
0.0159157
0.0100124
0.0048556
0.00308388
0.00216044
0.00149486
0.00102002
0.000685283
0.000452578
0.000293441
0.000186776
0.000117125
7.33588e-05
4.76896e-05
3.47116e-05
2.63508e-05
1.9408e-05
1.36451e-05
9.08598e-06
5.70044e-06
3.36676e-06
1.87933e-06
9.98512e-07
5.08824e-07
2.50266e-07
1.20163e-07
5.6519e-08
2.60968e-08
1.18497e-08
5.29912e-09
2.33704e-09
1.01775e-09
4.38183e-10
1.86721e-10
7.88255e-11
3.29854e-11
1.36765e-11
5.60273e-12
2.24726e-12
8.59284e-13
2.86828e-13
5.02399e-14
0.999997
0.999987
0.999969
0.99994
0.999892
0.999811
0.999679
0.999464
0.999118
0.998568
0.997707
0.996384
0.994387
0.991442
0.987202
0.981267
0.973207
0.96261
0.949131
0.932548
0.912777
0.889882
0.864053
0.835574
0.804794
0.772099
0.737889
0.702563
0.666507
0.630084
0.593628
0.55744
0.521784
0.486886
0.452936
0.420088
0.388467
0.35817
0.329261
0.301784
0.275756
0.25118
0.228041
0.206314
0.185959
0.166934
0.149187
0.132663
0.117305
0.103056
0.0898569
0.0776522
0.0663859
0.0560024
0.0464536
0.0376983
0.0298049
0.0227651
0.0161638
0.0102536
0.00508029
0.0030948
0.00216237
0.00149217
0.00101537
0.00068021
0.000447876
0.000289458
0.00018359
0.000114662
7.14688e-05
4.61911e-05
3.34806e-05
2.54698e-05
1.88313e-05
1.32972e-05
8.89564e-06
5.60779e-06
3.32738e-06
1.86516e-06
9.94635e-07
5.08458e-07
2.5071e-07
1.20629e-07
5.68312e-08
2.6278e-08
1.19466e-08
5.34803e-09
2.36066e-09
1.02877e-09
4.43181e-10
1.88937e-10
7.97895e-11
3.33978e-11
1.38503e-11
5.6747e-12
2.27629e-12
8.70423e-13
2.9056e-13
5.08938e-14
0.999997
0.999987
0.999969
0.99994
0.999892
0.999811
0.999679
0.999463
0.999116
0.998566
0.997704
0.996379
0.994379
0.99143
0.987186
0.981245
0.973179
0.962574
0.949089
0.9325
0.912725
0.88983
0.864004
0.835532
0.804763
0.772082
0.73789
0.702586
0.666556
0.63016
0.593734
0.557577
0.521952
0.487086
0.453167
0.420348
0.388756
0.358486
0.329602
0.302146
0.276137
0.251577
0.228452
0.206734
0.186387
0.167366
0.149621
0.133096
0.117735
0.10348
0.0902729
0.0780561
0.0667761
0.0563818
0.0468229
0.0380526
0.0301372
0.0230804
0.0164623
0.0105346
0.00532782
0.00310892
0.00216725
0.00149208
0.00101291
0.000676896
0.000444551
0.000286519
0.000181169
0.000112741
6.99455e-05
4.49244e-05
3.23702e-05
2.46657e-05
1.83103e-05
1.29892e-05
8.73355e-06
5.53444e-06
3.30056e-06
1.85873e-06
9.95149e-07
5.10276e-07
2.52295e-07
1.21629e-07
5.74042e-08
2.65834e-08
1.21009e-08
5.42291e-09
2.39581e-09
1.04483e-09
4.50357e-10
1.92081e-10
8.1145e-11
3.39737e-11
1.40917e-11
5.77441e-12
2.31651e-12
8.85837e-13
2.95713e-13
5.18034e-14
0.999997
0.999987
0.999969
0.99994
0.999891
0.999811
0.999678
0.999462
0.999115
0.998563
0.9977
0.996372
0.994369
0.991415
0.987165
0.981216
0.97314
0.962526
0.949031
0.932433
0.912652
0.889754
0.863929
0.835462
0.804703
0.772038
0.737866
0.702585
0.666583
0.630219
0.593827
0.557706
0.522119
0.487291
0.453409
0.420627
0.389071
0.358833
0.329979
0.302551
0.276567
0.252029
0.228921
0.207218
0.186882
0.167868
0.150127
0.133604
0.118241
0.103981
0.0907658
0.0785392
0.0672461
0.0568354
0.0472612
0.0384787
0.0305379
0.0234618
0.016825
0.0108791
0.00563495
0.00312628
0.00217529
0.00149482
0.00101288
0.000675576
0.000442788
0.000284761
0.000179611
0.000111426
6.88298e-05
4.39143e-05
3.13954e-05
2.3947e-05
1.78518e-05
1.27272e-05
8.60446e-06
5.48394e-06
3.28873e-06
1.86124e-06
1.00044e-06
5.14856e-07
2.5535e-07
1.23366e-07
5.83266e-08
2.70504e-08
1.23287e-08
5.53056e-09
2.44538e-09
1.06715e-09
4.60207e-10
1.96357e-10
8.29739e-11
3.47463e-11
1.44141e-11
5.90707e-12
2.36988e-12
9.06296e-13
3.02549e-13
5.30069e-14
0.999997
0.999987
0.999969
0.99994
0.999891
0.99981
0.999677
0.999461
0.999113
0.998559
0.997694
0.996363
0.994356
0.991396
0.987138
0.981179
0.973091
0.962463
0.948954
0.932343
0.912551
0.889646
0.863818
0.835354
0.804603
0.771952
0.737801
0.702546
0.666573
0.630244
0.593891
0.557811
0.522267
0.487484
0.453647
0.420909
0.389395
0.359198
0.330383
0.302989
0.277037
0.252526
0.229442
0.207758
0.187438
0.168436
0.150703
0.134183
0.11882
0.104557
0.0913357
0.0790998
0.0677948
0.0573694
0.0477761
0.0389742
0.0310121
0.0239158
0.0172558
0.0112869
0.00601158
0.00314733
0.00218701
0.00150094
0.00101573
0.000676635
0.000442914
0.000284434
0.000179088
0.000110825
6.81807e-05
4.31875e-05
3.05567e-05
2.33052e-05
1.74507e-05
1.25093e-05
8.50853e-06
5.45724e-06
3.29283e-06
1.87335e-06
1.01186e-06
5.2279e-07
2.60102e-07
1.25941e-07
5.96512e-08
2.77054e-08
1.26423e-08
5.67666e-09
2.51187e-09
1.09679e-09
4.73194e-10
2.01958e-10