/*--------------------------------*- C++ -*----------------------------------*\
  =========                 |
  \\      /  F ield         | OpenFOAM: The Open Source CFD Toolbox
   \\    /   O peration     | Website:  https://openfoam.org
    \\  /    A nd           | Version:  8
     \\/     M anipulation  |
\*---------------------------------------------------------------------------*/
FoamFile
{
    version     2.0;
    format      ascii;
    class       volScalarField;
    location    "540/fluid";
    object      CO2;
}
// * * * * * * * * * * * * * * * * * * * * * * * * * * * * * * * * * * * * * //

dimensions      [0 0 0 0 0 0 0];

internalField   nonuniform List<scalar> 
4000
(
4.62293e-07
2.01987e-06
4.63789e-06
9.02389e-06
1.63396e-05
2.84741e-05
4.8462e-05
8.11105e-05
0.000133905
0.000218266
0.000351188
0.000557203
0.000870425
0.00133609
0.00201075
0.00295999
0.00425284
0.00595351
0.00811198
0.0107565
0.0138902
0.0174926
0.021524
0.0259315
0.0306545
0.0356294
0.0407928
0.0460835
0.0514446
0.0568239
0.0621749
0.0674568
0.0726351
0.0776808
0.0825708
0.0872868
0.0918144
0.0961436
0.100268
0.104184
0.107891
0.11139
0.114685
0.11778
0.12068
0.12339
0.125917
0.128265
0.130439
0.132444
0.134281
0.135951
0.137451
0.138775
0.139912
0.140846
0.141554
0.141996
0.142134
0.14191
0.141238
0.140014
0.138131
0.127608
0.116876
0.106127
0.0955088
0.085135
0.0750968
0.0654675
0.0563086
0.0476741
0.0396144
0.0322122
0.0254474
0.0194217
0.0141997
0.00984538
0.00640736
0.00388373
0.00218793
0.00115112
0.000570925
0.000271348
0.00012525
5.64936e-05
2.50091e-05
1.09019e-05
4.69164e-06
1.99733e-06
8.42593e-07
3.52727e-07
1.46684e-07
6.06305e-08
2.48975e-08
1.01274e-08
4.04313e-09
1.5424e-09
5.14898e-10
9.02536e-11
4.64233e-07
2.02895e-06
4.6614e-06
9.07676e-06
1.64502e-05
2.8692e-05
4.88684e-05
8.18263e-05
0.000135089
0.000220086
0.000353728
0.000560268
0.000873256
0.00133697
0.00200665
0.00294624
0.00422324
0.00590093
0.00802948
0.0106386
0.0137341
0.0172982
0.0212942
0.0256715
0.0303712
0.0353303
0.0404855
0.0457754
0.051142
0.0565323
0.0618987
0.0671994
0.0723989
0.0774673
0.0823808
0.0871204
0.0916713
0.0960229
0.100168
0.104104
0.10783
0.111346
0.114656
0.117765
0.120677
0.123398
0.125933
0.128289
0.13047
0.132479
0.13432
0.135992
0.137494
0.138817
0.139953
0.140883
0.141582
0.142008
0.142119
0.141847
0.141087
0.139694
0.13738
0.126717
0.11589
0.105073
0.0944043
0.0839935
0.0739287
0.0642826
0.0551172
0.0464878
0.0384473
0.0310873
0.0243829
0.0184471
0.0133466
0.00914423
0.00587828
0.00352527
0.00197311
0.00103743
0.000517304
0.000247892
0.000115562
5.26652e-05
2.35451e-05
1.03539e-05
4.48856e-06
1.922e-06
8.14341e-07
3.41935e-07
1.4247e-07
5.89508e-08
2.42181e-08
9.85142e-09
3.93244e-09
1.49992e-09
5.00651e-10
8.77772e-11
4.6746e-07
2.04344e-06
4.69625e-06
9.14805e-06
1.65845e-05
2.89307e-05
4.92705e-05
8.24663e-05
0.000136046
0.000221418
0.000355446
0.000562302
0.000875239
0.00133798
0.00200469
0.00293798
0.00420409
0.00586525
0.00797113
0.0105518
0.0136141
0.0171425
0.0211024
0.0254455
0.0301149
0.0350495
0.0401868
0.0454657
0.0508284
0.0562215
0.0615966
0.0669112
0.0721288
0.0772187
0.082156
0.086921
0.0914981
0.095876
0.100047
0.104008
0.107758
0.111296
0.114628
0.117756
0.120684
0.12342
0.125968
0.128335
0.130525
0.132542
0.134389
0.136065
0.137569
0.138893
0.140028
0.140956
0.141651
0.142071
0.142175
0.141896
0.141133
0.139754
0.135861
0.125114
0.114219
0.103352
0.0926502
0.0822244
0.0721626
0.0625385
0.0534154
0.0448507
0.0368994
0.0296472
0.0230895
0.0173298
0.0124295
0.00844081
0.0053832
0.00321007
0.0017923
0.000943178
0.000471965
0.000227161
0.000106426
4.87533e-05
2.19079e-05
9.68069e-06
4.21519e-06
1.81189e-06
7.70159e-07
3.2421e-07
1.35341e-07
5.60739e-08
2.30543e-08
9.38158e-09
3.7453e-09
1.42847e-09
4.76721e-10
8.35733e-11
4.69045e-07
2.0503e-06
4.71181e-06
9.17765e-06
1.66358e-05
2.9013e-05
4.93923e-05
8.26306e-05
0.000136235
0.000221555
0.000355301
0.000561328
0.000872473
0.00133188
0.0019931
0.00291807
0.0041723
0.00581752
0.00790339
0.0104605
0.0134966
0.0169974
0.0209299
0.0252471
0.0298935
0.0348088
0.0399314
0.0452007
0.0505593
0.0559535
0.0613348
0.0666603
0.0718927
0.0770009
0.0819591
0.0867469
0.091348
0.0957507
0.0999468
0.103932
0.107706
0.111268
0.11462
0.117766
0.120711
0.123462
0.126024
0.128402
0.130602
0.132626
0.134479
0.136159
0.137664
0.138989
0.140122
0.141045
0.141734
0.142146
0.14224
0.141948
0.14117
0.139773
0.133874
0.1231
0.11218
0.101298
0.090596
0.0801875
0.0701631
0.0605982
0.0515575
0.0430998
0.0352815
0.0281564
0.0217802
0.016219
0.0115294
0.0077543
0.00489839
0.00289702
0.00160814
0.000843836
0.000422192
0.000203575
9.56518e-05
4.39707e-05
1.98337e-05
8.7984e-06
3.84589e-06
1.65931e-06
7.07747e-07
2.98868e-07
1.25104e-07
5.19533e-08
2.14012e-08
8.72233e-09
3.48623e-09
1.33076e-09
4.44301e-10
7.79084e-11
4.69446e-07
2.05199e-06
4.71548e-06
9.18411e-06
1.66456e-05
2.90248e-05
4.93991e-05
8.26079e-05
0.000136121
0.000221219
0.000354498
0.000559634
0.000869166
0.00132581
0.00198259
0.00290082
0.00414541
0.00577773
0.00784741
0.0103854
0.0134004
0.016879
0.0207895
0.0250861
0.0297141
0.0346142
0.0397253
0.0449875
0.0503432
0.0557389
0.0611259
0.066461
0.0717064
0.0768305
0.081807
0.0866149
0.0912373
0.0956621
0.0998811
0.103889
0.107684
0.111265
0.114635
0.117799
0.12076
0.123525
0.126099
0.128487
0.130694
0.132725
0.134581
0.136262
0.137767
0.139088
0.140215
0.14113
0.141807
0.142202
0.142277
0.141961
0.141151
0.139714
0.131717
0.120953
0.110037
0.0991629
0.0884818
0.078111
0.0681441
0.0586577
0.0497171
0.0413808
0.0337158
0.026749
0.0205543
0.0151901
0.0107065
0.00713636
0.00446929
0.00262438
0.00144981
0.000759044
0.000379747
0.000183368
8.63418e-05
3.97892e-05
1.79936e-05
8.00206e-06
3.50603e-06
1.51594e-06
6.47851e-07
2.74042e-07
1.14881e-07
4.77671e-08
1.9697e-08
8.0343e-09
3.21318e-09
1.22701e-09
4.0971e-10
7.18464e-11
4.68739e-07
2.04879e-06
4.70762e-06
9.16734e-06
1.66115e-05
2.89574e-05
4.92676e-05
8.23557e-05
0.000135647
0.000220347
0.000352931
0.000556896
0.000864522
0.00131819
0.00197051
0.00288239
0.00411842
0.00573982
0.00779631
0.0103192
0.013318
0.0167799
0.0206741
0.0249557
0.0295707
0.0344603
0.039564
0.044822
0.050177
0.0555755
0.0609686
0.0663128
0.0715702
0.0767085
0.0817012
0.0865268
0.0911684
0.0956131
0.0998516
0.103878
0.10769
0.111288
0.114675
0.117853
0.120828
0.123604
0.126187
0.128583
0.130796
0.132829
0.134686
0.136365
0.137865
0.139178
0.140293
0.141192
0.141849
0.142218
0.142266
0.141917
0.14107
0.139604
0.129644
0.118922
0.108009
0.097138
0.0864744
0.076142
0.0662356
0.0568315
0.0479937
0.0397793
0.0322691
0.0254576
0.0194366
0.014259
0.00996766
0.00658565
0.00408888
0.00238298
0.001309
0.000682866
0.000341041
0.000164674
7.76027e-05
3.58109e-05
1.62223e-05
7.22817e-06
3.1733e-06
1.37481e-06
5.88669e-07
2.49455e-07
1.04744e-07
4.36146e-08
1.80066e-08
7.35205e-09
2.9425e-09
1.12416e-09
3.75424e-10
6.58375e-11
4.67413e-07
2.04291e-06
4.69374e-06
9.13923e-06
1.65581e-05
2.88591e-05
4.90899e-05
8.20393e-05
0.000135091
0.000219384
0.000351292
0.000554157
0.000860049
0.00131108
0.00195953
0.00286602
0.00409487
0.00570726
0.00775305
0.010264
0.01325
0.0166992
0.0205813
0.024852
0.0294579
0.0343407
0.0394402
0.0446966
0.0500529
0.0554554
0.0608552
0.0662085
0.0714771
0.0766285
0.081636
0.0864778
0.091136
0.0955965
0.0998504
0.103892
0.10772
0.111333
0.114733
0.117923
0.120909
0.123694
0.126284
0.128685
0.1309
0.132934
0.134788
0.136462
0.137952
0.139251
0.140346
0.141219
0.141842
0.142167
0.142163
0.141755
0.140851
0.139367
0.128513
0.117432
0.106327
0.0953635
0.0846724
0.0743572
0.0645014
0.0551737
0.046433
0.038332
0.0309536
0.0242825
0.0184262
0.0134269
0.00931581
0.00610548
0.00376089
0.00217687
0.00118963
0.000618528
0.000308358
0.000148842
7.0164e-05
3.24015e-05
1.46921e-05
6.55375e-06
2.88069e-06
1.24959e-06
5.35705e-07
2.27278e-07
9.55371e-08
3.98204e-08
1.64543e-08
6.72292e-09
2.69205e-09
1.02876e-09
3.43567e-10
6.02488e-11
4.65793e-07
2.03577e-06
4.67705e-06
9.10594e-06
1.64959e-05
2.87467e-05
4.88911e-05
8.16933e-05
0.000134497
0.00021838
0.000349623
0.000551438
0.000855719
0.00130436
0.00194942
0.00285127
0.00407414
0.00567917
0.00771646
0.0102181
0.0131945
0.0166343
0.0205077
0.024771
0.0293711
0.03425
0.0393477
0.0446046
0.0499637
0.0553711
0.060778
0.0661402
0.0714195
0.0765832
0.0816041
0.0864592
0.0911305
0.0956047
0.0998727
0.103928
0.107769
0.111394
0.114804
0.118004
0.120997
0.123789
0.126384
0.128787
0.131003
0.133035
0.134884
0.13655
0.138027
0.139308
0.140377
0.141213
0.141781
0.142032
0.141917
0.141339
0.140173
0.138281
0.127185
0.115936
0.104732
0.093722
0.0830272
0.0727421
0.0629435
0.0536955
0.0450527
0.0370645
0.0298066
0.0232833
0.0175682
0.012713
0.00875514
0.00569501
0.00348191
0.00200207
0.00108842
0.000563824
0.000280423
0.000135234
6.37314e-05
2.94361e-05
1.33541e-05
5.96115e-06
2.62248e-06
1.13867e-06
4.88644e-07
2.07519e-07
8.73146e-08
3.64253e-08
1.5063e-08
6.15829e-09
2.46702e-09
9.4297e-10
3.14901e-10
5.52181e-11
4.64124e-07
2.02844e-06
4.66002e-06
9.07223e-06
1.64336e-05
2.86354e-05
4.86967e-05
8.13595e-05
0.000133933
0.000217441
0.000348086
0.000548972
0.00085185
0.00129844
0.00194063
0.00283864
0.00405662
0.00565576
0.00768634
0.0101808
0.0131499
0.0165829
0.0204503
0.0247087
0.0293055
0.0341827
0.0392805
0.0445394
0.0499022
0.0553152
0.0607292
0.0661004
0.0713899
0.0765644
0.0815959
0.0864624
0.0911457
0.0956321
0.0999118
0.103979
0.10783
0.111464
0.114883
0.11809
0.121089
0.123885
0.126483
0.128887
0.131102
0.133131
0.134975
0.136632
0.138098
0.139362
0.14041
0.141216
0.141743
0.141941
0.14175
0.14106
0.139724
0.137028
0.125797
0.114465
0.103217
0.0921997
0.0815252
0.0712842
0.0615505
0.052386
0.0438452
0.0359809
0.028859
0.0224906
0.0169053
0.0121485
0.00829384
0.00535051
0.00324752
0.00185531
0.00100348
0.000517904
0.00025694
0.000123766
5.82942e-05
2.69209e-05
1.2215e-05
5.45473e-06
2.40099e-06
1.04317e-06
4.47981e-07
1.90391e-07
8.01668e-08
3.34665e-08
1.38478e-08
5.66425e-09
2.26985e-09
8.67715e-10
2.89744e-10
5.07986e-11
4.62534e-07
2.02147e-06
4.64388e-06
9.04042e-06
1.6375e-05
2.85315e-05
4.85166e-05
8.10526e-05
0.000133418
0.000216592
0.000346712
0.000546791
0.000848468
0.00129333
0.00193314
0.002828
0.00404204
0.00563653
0.00766193
0.010151
0.0131148
0.016543
0.0204064
0.024662
0.0292572
0.0341342
0.0392334
0.0444952
0.0498624
0.0552814
0.0607027
0.0660821
0.0713801
0.0765635
0.0816051
0.086482
0.0911757
0.0956723
0.0999617
0.104038
0.107897
0.111539
0.114964
0.118177
0.12118
0.123978
0.126578
0.128982
0.131195
0.133221
0.13506
0.13671
0.138166
0.139419
0.140453
0.141245
0.141755
0.141938
0.141739
0.141058
0.13977
0.135643
0.12439
0.113049
0.101808
0.090811
0.0801732
0.0699846
0.0603179
0.051234
0.0427872
0.0350303
0.0279976
0.0217058
0.0162411
0.011646
0.00791896
0.005061
0.00304865
0.00173077
0.000931517
0.000479039
0.00023707
0.000114062
5.36893e-05
2.4788e-05
1.12475e-05
5.02383e-06
2.21217e-06
9.61614e-07
4.1319e-07
1.75711e-07
7.40306e-08
3.09227e-08
1.28018e-08
5.23851e-09
2.09978e-09
8.02765e-10
2.68029e-10
4.69801e-11
4.61097e-07
2.01518e-06
4.62933e-06
9.01186e-06
1.63227e-05
2.84391e-05
4.83571e-05
8.07825e-05
0.000132969
0.000215856
0.000345529
0.000544929
0.000845606
0.00128905
0.00192691
0.00281926
0.00403019
0.00562107
0.00764253
0.0101276
0.0130877
0.0165126
0.0203736
0.0246277
0.0292226
0.0341007
0.039202
0.0444673
0.0498393
0.0552641
0.060692
0.0660783
0.0713841
0.0765762
0.0816266
0.0865123
0.0912148
0.0957198
0.100017
0.1041
0.107966
0.111614
0.115044
0.11826
0.121266
0.124066
0.126665
0.129069
0.13128
0.133302
0.135136
0.136779
0.138228
0.139472
0.140496
0.141277
0.141776
0.14195
0.141744
0.141061
0.139778
0.134314
0.123065
0.111739
0.100523
0.0895629
0.078973
0.0688445
0.0592481
0.0502432
0.0418816
0.0341883
0.0272064
0.0210074
0.0156388
0.0111389
0.00753184
0.0048072
0.00287342
0.00162278
0.000869879
0.000446046
0.000220301
0.000105895
4.98191e-05
2.2996e-05
1.04342e-05
4.66133e-06
2.05313e-06
8.92817e-07
3.83799e-07
1.6329e-07
6.8831e-08
2.87643e-08
1.19132e-08
4.87649e-09
1.95509e-09
7.47481e-10
2.49543e-10
4.37322e-11
4.59843e-07
2.00969e-06
4.61668e-06
8.98705e-06
1.62774e-05
2.83593e-05
4.822e-05
8.05514e-05
0.000132586
0.000215233
0.000344534
0.000543374
0.000843234
0.00128553
0.00192184
0.0028122
0.00402071
0.00560884
0.00762739
0.0101096
0.0130671
0.01649
0.0203497
0.0246034
0.0291989
0.0340785
0.0391826
0.0444516
0.0498283
0.0552583
0.0606919
0.0660849
0.0713979
0.0765974
0.0816554
0.0865486
0.0912584
0.0957702
0.100074
0.104163
0.108034
0.111685
0.115119
0.118337
0.121345
0.124145
0.126744
0.129146
0.131354
0.133372
0.1352
0.136838
0.138279
0.139515
0.140529
0.1413
0.141788
0.141953
0.141739
0.14105
0.139763
0.133131
0.121888
0.11058
0.099394
0.0884793
0.0779441
0.0678738
0.0583292
0.0493696
0.0410435
0.0334124
0.0265167
0.0204071
0.0151305
0.0107243
0.00720983
0.00456954
0.00272349
0.00153035
0.00081788
0.000418485
0.000206364
9.91206e-05
4.66106e-05
2.15096e-05
9.75899e-06
4.3599e-06
1.92067e-06
8.3542e-07
3.59236e-07
1.52894e-07
6.44722e-08
2.69525e-08
1.11664e-08
4.57207e-09
1.83338e-09
7.01017e-10
2.34038e-10
4.10122e-11
4.58781e-07
2.00504e-06
4.60597e-06
8.9661e-06
1.62392e-05
2.82922e-05
4.81052e-05
8.03587e-05
0.000132268
0.000214718
0.000343716
0.000542104
0.000841309
0.00128269
0.00191779
0.0028066
0.00401328
0.00559936
0.00761579
0.010096
0.0130518
0.0164736
0.0203327
0.0245867
0.0291833
0.0340649
0.0391719
0.0444446
0.0498253
0.0552601
0.0606993
0.0660982
0.0714175
0.0766233
0.0816876
0.086587
0.0913026
0.0958199
0.100129
0.104222
0.108096
0.111751
0.115187
0.118407
0.121414
0.124214
0.126812
0.129211
0.131416
0.133429
0.135252
0.136883
0.138317
0.139544
0.140549
0.14131
0.141788
0.141943
0.141719
0.141023
0.139735
0.132118
0.120874
0.10958
0.0984274
0.0875417
0.0770334
0.0669873
0.0574826
0.0485762
0.0403183
0.0327567
0.025934
0.0199016
0.0147055
0.0103821
0.00695007
0.00438743
0.00260909
0.00146036
0.00077673
0.000396292
0.00019507
9.36056e-05
4.39887e-05
2.02913e-05
9.20413e-06
4.11165e-06
1.81136e-06
7.87974e-07
3.38899e-07
1.44273e-07
6.08533e-08
2.54465e-08
1.05451e-08
4.31855e-09
1.73197e-09
6.62289e-10
2.21115e-10
3.87454e-11
4.57902e-07
2.0012e-06
4.59713e-06
8.94882e-06
1.62077e-05
2.82372e-05
4.80113e-05
8.02014e-05
0.000132009
0.000214301
0.000343057
0.000541087
0.000839776
0.00128045
0.00191461
0.00280225
0.00400756
0.00559214
0.00760707
0.0100859
0.0130407
0.0164619
0.0203211
0.0245758
0.0291737
0.0340575
0.0391672
0.0444431
0.0498277
0.055267
0.060711
0.066115
0.0714395
0.0766506
0.08172
0.0866244
0.0913447
0.0958663
0.100179
0.104275
0.108152
0.111809
0.115246
0.118466
0.121473
0.124272
0.126868
0.129264
0.131465
0.133474
0.135291
0.136915
0.138341
0.13956
0.140556
0.141307
0.141774
0.14192
0.141687
0.140982
0.139696
0.131262
0.12001
0.108725
0.097578
0.0867118
0.0762345
0.0662313
0.0567723
0.0479156
0.0397121
0.0322083
0.0254466
0.0194788
0.01435
0.0100954
0.00673104
0.00423057
0.00250388
0.00140126
0.000744116
0.000378484
0.000185878
8.91126e-05
4.1852e-05
1.92975e-05
8.75095e-06
3.90864e-06
1.72186e-06
7.49073e-07
3.22206e-07
1.37189e-07
5.78765e-08
2.42066e-08
1.00332e-08
4.10954e-09
1.64832e-09
6.3034e-10
2.10454e-10
3.68734e-11
4.57192e-07
1.9981e-06
4.59e-06
8.93491e-06
1.61824e-05
2.8193e-05
4.7936e-05
8.00758e-05
0.000131804
0.000213971
0.000342538
0.000540288
0.00083858
0.00127871
0.00191216
0.00279893
0.00400323
0.00558674
0.00760064
0.0100786
0.0130329
0.0164539
0.0203134
0.024569
0.0291684
0.0340541
0.0391662
0.0444451
0.0498333
0.0552763
0.0607244
0.0661326
0.0714614
0.0766767
0.0817502
0.0866585
0.0913824
0.0959071
0.100222
0.104321
0.1082
0.111857
0.115295
0.118515
0.121521
0.124318
0.126911
0.129304
0.131501
0.133505
0.135316
0.136933
0.138352
0.139563
0.140551
0.141293
0.141751
0.141889
0.141649
0.140939
0.139651
0.130546
0.119281
0.107997
0.0968653
0.0860223
0.0755741
0.0656053
0.0561848
0.04737
0.0392115
0.0317556
0.0250444
0.0191301
0.0140572
0.00985961
0.00655152
0.00410276
0.00241924
0.00134876
0.000716443
0.000364553
0.000178673
8.55203e-05
4.0129e-05
1.8494e-05
8.38409e-06
3.74412e-06
1.64926e-06
7.17495e-07
3.08645e-07
1.31431e-07
5.54554e-08
2.31976e-08
9.61645e-09
3.93935e-09
1.58021e-09
6.04343e-10
2.01781e-10
3.53494e-11
4.56634e-07
1.99566e-06
4.58439e-06
8.92398e-06
1.61626e-05
2.81584e-05
4.78773e-05
7.9978e-05
0.000131644
0.000213715
0.000342138
0.000539675
0.000837667
0.00127739
0.00191031
0.00279644
0.00400002
0.00558279
0.007596
0.0100734
0.0130274
0.0164485
0.0203086
0.024565
0.0291658
0.0340533
0.0391676
0.0444491
0.0498401
0.0552863
0.0607377
0.0661492
0.0714813
0.0766999
0.0817765
0.0866876
0.0914141
0.095941
0.100258
0.104358
0.108238
0.111896
0.115333
0.118552
0.121557
0.124352
0.126942
0.129331
0.131524
0.133523
0.135328
0.136939
0.138351
0.139555
0.140535
0.14127
0.141723
0.141859
0.141622
0.140926
0.139675
0.12997
0.118694
0.107409
0.0962873
0.0854623
0.075038
0.0650975
0.0557085
0.0469281
0.0388065
0.0313896
0.0247195
0.0188487
0.0138211
0.00967004
0.00640761
0.00400076
0.0023521
0.00130745
0.000692147
0.000351643
0.0001726
8.26238e-05
3.87474e-05
1.78483e-05
8.08926e-06
3.6121e-06
1.59108e-06
6.92213e-07
2.97795e-07
1.26826e-07
5.35202e-08
2.23916e-08
9.28371e-09
3.80357e-09
1.52595e-09
5.83641e-10
1.94873e-10
3.41391e-11
4.56211e-07
1.99381e-06
4.58014e-06
8.9157e-06
1.61476e-05
2.81323e-05
4.78329e-05
7.99044e-05
0.000131524
0.000213524
0.000341839
0.00053922
0.000836991
0.00127642
0.00190896
0.00279464
0.00399772
0.00557998
0.00759275
0.0100699
0.0130238
0.0164451
0.0203056
0.0245629
0.0291648
0.0340538
0.03917
0.0444535
0.0498468
0.0552955
0.0607493
0.0661634
0.071498
0.0767189
0.0817977
0.0867107
0.0914388
0.0959672
0.100285
0.104386
0.108266
0.111924
0.11536
0.118578
0.121581
0.124374
0.126961
0.129346
0.131535
0.133529
0.135329
0.136933
0.138338
0.139535
0.140508
0.141236
0.141682
0.141812
0.141572
0.140876
0.13963
0.129523
0.118229
0.106942
0.0958291
0.0850192
0.0746146
0.0646971
0.0553338
0.0465811
0.038489
0.0311031
0.0244655
0.018629
0.0136373
0.00952279
0.00629623
0.00392219
0.00230077
0.00127635
0.000674497
0.000342152
0.000167672
8.03182e-05
3.76883e-05
1.73567e-05
7.86374e-06
3.51054e-06
1.54619e-06
6.72687e-07
2.89418e-07
1.23273e-07
5.20289e-08
2.17715e-08
9.02829e-09
3.69954e-09
1.48439e-09
5.67788e-10
1.89584e-10
3.32127e-11
4.55907e-07
1.99248e-06
4.57709e-06
8.90976e-06
1.61368e-05
2.81135e-05
4.78012e-05
7.98518e-05
0.000131439
0.000213388
0.000341627
0.000538898
0.000836515
0.00127573
0.00190802
0.00279339
0.00399613
0.00557806
0.00759056
0.0100675
0.0130214
0.0164429
0.0203039
0.0245619
0.0291647
0.0340549
0.0391724
0.0444575
0.0498525
0.0553029
0.0607585
0.0661743
0.0715106
0.076733
0.081813
0.0867272
0.0914562
0.0959852
0.100304
0.104405
0.108284
0.111942
0.115377
0.118594
0.121595
0.124385
0.126969
0.129351
0.131535
0.133524
0.135319
0.136918
0.138316
0.139506
0.140471
0.141193
0.141633
0.141759
0.141517
0.140824
0.139591
0.129192
0.117881
0.106591
0.0954834
0.0846852
0.0742962
0.064397
0.0550538
0.0463226
0.0382531
0.0308908
0.0242777
0.018467
0.013502
0.00941474
0.0062148
0.00386498
0.00226354
0.00125386
0.000661771
0.000335332
0.000164161
7.85502e-05
3.68453e-05
1.69805e-05
7.69752e-06
3.43696e-06
1.51394e-06
6.5872e-07
2.83436e-07
1.20738e-07
5.09649e-08
2.13286e-08
8.84554e-09
3.62498e-09
1.45457e-09
5.56402e-10
1.85785e-10
3.2547e-11
4.55712e-07
1.99163e-06
4.57513e-06
8.90595e-06
1.61299e-05
2.81015e-05
4.77809e-05
7.98181e-05
0.000131384
0.000213301
0.000341491
0.000538692
0.000836212
0.0012753
0.00190743
0.0027926
0.00399514
0.00557687
0.00758922
0.0100661
0.01302
0.0164417
0.020303
0.0245614
0.0291649
0.0340559
0.0391743
0.0444605
0.0498565
0.055308
0.0607647
0.0661816
0.0715188
0.076742
0.0818227
0.0867372
0.0914665
0.0959957
0.100314
0.104415
0.108294
0.111951
0.115385
0.1186
0.1216
0.124388
0.126969
0.129348
0.131529
0.133514
0.135303
0.136897
0.13829
0.139473
0.140433
0.141148
0.141583
0.141706
0.141465
0.140778
0.139561
0.128974
0.117645
0.10635
0.095246
0.0844564
0.0740791
0.0641935
0.0548649
0.046149
0.0380953
0.0307494
0.0241531
0.0183599
0.013413
0.00934392
0.00616169
0.00382788
0.00223952
0.00123938
0.000653572
0.000330938
0.000161957
7.74739e-05
3.63303e-05
1.67359e-05
7.58584e-06
3.38811e-06
1.49277e-06
6.49621e-07
2.79563e-07
1.19105e-07
5.02816e-08
2.10449e-08
8.72862e-09
3.57729e-09
1.43549e-09
5.49113e-10
1.83351e-10
3.21204e-11
4.55618e-07
1.99122e-06
4.57419e-06
8.90412e-06
1.61266e-05
2.80958e-05
4.77712e-05
7.98021e-05
0.000131358
0.00021326
0.000341428
0.000538596
0.000836071
0.0012751
0.00190715
0.00279224
0.00399468
0.00557632
0.0075886
0.0100655
0.0130194
0.0164411
0.0203026
0.0245613
0.0291651
0.0340564
0.0391753
0.044462
0.0498585
0.0553105
0.0607678
0.0661852
0.0715228
0.0767464
0.0818273
0.0867418
0.0914709
0.0959999
0.100318
0.104419
0.108297
0.111953
0.115387
0.118601
0.121599
0.124386
0.126966
0.129343
0.131521
0.133503
0.135289
0.136879
0.138268
0.139447
0.140402
0.141114
0.141545
0.141666
0.141426
0.140745
0.139546
0.128866
0.117521
0.106222
0.09512
0.0843359
0.073966
0.0640885
0.0547684
0.0460612
0.0380164
0.0306793
0.0240919
0.0183078
0.01337
0.00930998
0.00613645
0.00381039
0.0022283
0.00123266
0.000649783
0.000328908
0.000160949
7.69849e-05
3.60977e-05
1.6627e-05
7.53566e-06
3.3652e-06
1.48264e-06
6.45233e-07
2.7769e-07
1.18314e-07
4.99511e-08
2.09077e-08
8.67209e-09
3.55423e-09
1.42626e-09
5.45585e-10
1.82172e-10
3.19137e-11
4.55621e-07
1.99124e-06
4.57423e-06
8.90419e-06
1.61267e-05
2.8096e-05
4.77715e-05
7.98027e-05
0.000131359
0.000213261
0.00034143
0.0005386
0.000836076
0.00127511
0.00190716
0.00279226
0.0039947
0.00557635
0.00758864
0.0100655
0.0130195
0.0164412
0.0203027
0.0245614
0.0291652
0.0340565
0.0391754
0.0444621
0.0498586
0.0553106
0.0607679
0.0661853
0.0715229
0.0767465
0.0818273
0.0867419
0.091471
0.0959999
0.100318
0.104419
0.108297
0.111953
0.115387
0.118601
0.121599
0.124386
0.126966
0.129343
0.131521
0.133503
0.13529
0.136879
0.138268
0.139447
0.140402
0.141114
0.141545
0.141666
0.141426
0.140745
0.139546
0.128866
0.117521
0.106222
0.0951198
0.0843358
0.0739658
0.0640884
0.0547683
0.0460612
0.0380163
0.0306792
0.0240919
0.0183077
0.0133699
0.00930995
0.00613643
0.00381038
0.00222829
0.00123266
0.000649781
0.000328907
0.000160948
7.69846e-05
3.60975e-05
1.66269e-05
7.53563e-06
3.36519e-06
1.48263e-06
6.4523e-07
2.77689e-07
1.18314e-07
4.99509e-08
2.09076e-08
8.67205e-09
3.55422e-09
1.42626e-09
5.45583e-10
1.82171e-10
3.19136e-11
4.55721e-07
1.99167e-06
4.57523e-06
8.90613e-06
1.61303e-05
2.81021e-05
4.77818e-05
7.98197e-05
0.000131387
0.000213305
0.000341498
0.000538703
0.000836228
0.00127532
0.00190746
0.00279265
0.0039952
0.00557696
0.00758932
0.0100662
0.0130202
0.0164419
0.0203032
0.0245616
0.0291652
0.0340561
0.0391746
0.0444607
0.0498568
0.0553083
0.060765
0.0661819
0.0715191
0.0767423
0.081823
0.0867375
0.0914667
0.0959959
0.100314
0.104415
0.108294
0.111951
0.115385
0.1186
0.1216
0.124388
0.126969
0.129348
0.131529
0.133514
0.135304
0.136897
0.13829
0.139473
0.140433
0.141148
0.141583
0.141706
0.141465
0.140778
0.139561
0.128974
0.117644
0.106349
0.0952455
0.084456
0.0740787
0.0641931
0.0548645
0.0461487
0.0380951
0.0307492
0.0241529
0.0183598
0.0134129
0.00934383
0.00616163
0.00382784
0.00223949
0.00123936
0.000653564
0.000330934
0.000161955
7.74728e-05
3.63298e-05
1.67357e-05
7.58573e-06
3.38807e-06
1.49276e-06
6.49614e-07
2.7956e-07
1.19103e-07
5.0281e-08
2.10446e-08
8.7285e-09
3.57724e-09
1.43547e-09
5.49104e-10
1.83348e-10
3.21199e-11
4.55923e-07
1.99255e-06
4.57725e-06
8.91007e-06
1.61374e-05
2.81145e-05
4.78029e-05
7.98546e-05
0.000131443
0.000213395
0.000341638
0.000538915
0.000836542
0.00127577
0.00190808
0.00279347
0.00399624
0.00557821
0.00759074
0.0100678
0.0130217
0.0164432
0.0203042
0.0245622
0.0291651
0.0340553
0.0391729
0.044458
0.049853
0.0553034
0.060759
0.0661748
0.071511
0.0767335
0.0818135
0.0867276
0.0914566
0.0959856
0.100304
0.104405
0.108285
0.111942
0.115377
0.118594
0.121595
0.124385
0.126969
0.129351
0.131536
0.133524
0.135319
0.136918
0.138316
0.139506
0.140472
0.141193
0.141633
0.141759
0.141517
0.140824
0.13959
0.129191
0.11788
0.10659
0.0954825
0.0846844
0.0742955
0.0643964
0.0550533
0.0463221
0.0382526
0.0308904
0.0242774
0.0184667
0.0135018
0.00941459
0.0062147
0.00386491
0.0022635
0.00125383
0.000661756
0.000335324
0.000164157
7.85482e-05
3.68444e-05
1.698e-05
7.69732e-06
3.43687e-06
1.5139e-06
6.58702e-07
2.83428e-07
1.20735e-07
5.09634e-08
2.1328e-08
8.84527e-09
3.62487e-09
1.45452e-09
5.56384e-10
1.85778e-10
3.25459e-11
4.56233e-07
1.99391e-06
4.58036e-06
8.91613e-06
1.61484e-05
2.81336e-05
4.78352e-05
7.99082e-05
0.000131531
0.000213534
0.000341855
0.000539244
0.000837029
0.00127647
0.00190904
0.00279475
0.00399787
0.00558018
0.00759301
0.0100702
0.0130242
0.0164455
0.0203061
0.0245634
0.0291654
0.0340544
0.0391706
0.0444542
0.0498475
0.0552961
0.06075
0.0661641
0.0714986
0.0767196
0.0817983
0.0867113
0.0914394
0.0959677
0.100286
0.104387
0.108266
0.111924
0.115361
0.118578
0.121581
0.124374
0.126961
0.129347
0.131535
0.133529
0.135329
0.136934
0.138339
0.139535
0.140508
0.141236
0.141682
0.141812
0.141572
0.140876
0.13963
0.129521
0.118227
0.106941
0.0958278
0.085018
0.0746135
0.0646962
0.055333
0.0465804
0.0384884
0.0311026
0.024465
0.0186287
0.013637
0.00952257
0.00629608
0.00392208
0.0023007
0.00127631
0.000674474
0.00034214
0.000167665
8.03152e-05
3.76869e-05
1.73561e-05
7.86345e-06
3.51041e-06
1.54612e-06
6.72658e-07
2.89405e-07
1.23268e-07
5.20265e-08
2.17705e-08
9.02786e-09
3.69937e-09
1.48432e-09
5.6776e-10
1.89575e-10
3.32111e-11
4.56662e-07
1.99578e-06
4.58467e-06
8.92453e-06
1.61636e-05
2.81601e-05
4.78802e-05
7.99829e-05
0.000131652
0.000213728
0.000342158
0.000539707
0.000837715
0.00127746
0.00191042
0.00279659
0.00400022
0.00558305
0.00759633
0.0100739
0.0130279
0.0164491
0.0203092
0.0245657
0.0291665
0.0340541
0.0391684
0.04445
0.049841
0.0552872
0.0607386
0.0661501
0.0714822
0.0767008
0.0817774
0.0866884
0.0914148
0.0959418
0.100259
0.104359
0.108238
0.111896
0.115333
0.118553
0.121557
0.124352
0.126942
0.129332
0.131524
0.133523
0.135328
0.13694
0.138351
0.139555
0.140535
0.141271
0.141723
0.141859
0.141622
0.140926
0.139675
0.129969
0.118692
0.107407
0.0962856
0.0854607
0.0750366
0.0650962
0.0557074
0.0469272
0.0388057
0.0313889
0.0247189
0.0188482
0.0138208
0.00966975
0.0064074
0.00400061
0.002352
0.0013074
0.000692115
0.000351627
0.000172591
8.26201e-05
3.87456e-05
1.78474e-05
8.08883e-06
3.6119e-06
1.59099e-06
6.92173e-07
2.97777e-07
1.26818e-07
5.35169e-08
2.23902e-08
9.28312e-09
3.80332e-09
1.52585e-09
5.83604e-10
1.9486e-10
3.41371e-11
4.57226e-07
1.99825e-06
4.59034e-06
8.93557e-06
1.61836e-05
2.8195e-05
4.79395e-05
8.00817e-05
0.000131813
0.000213986
0.000342562
0.000540326
0.000838638
0.00127879
0.00191228
0.0027991
0.00400347
0.00558705
0.00760104
0.0100791
0.0130334
0.0164546
0.0203142
0.0245698
0.0291693
0.0340551
0.0391673
0.0444462
0.0498343
0.0552774
0.0607255
0.0661337
0.0714624
0.0766778
0.0817513
0.0866595
0.0913833
0.095908
0.100223
0.104322
0.108201
0.111858
0.115295
0.118515
0.121522
0.124319
0.126911
0.129304
0.131501
0.133505
0.135316
0.136934
0.138352
0.139563
0.140551
0.141293
0.141751
0.141889
0.141649
0.140939
0.139651
0.130544
0.119279
0.107995
0.096863
0.0860201
0.0755721
0.0656036
0.0561833
0.0473687
0.0392104
0.0317547
0.0250436
0.0191295
0.0140567
0.00985924
0.00655125
0.00410257
0.00241912
0.00134869
0.000716401
0.000364531
0.000178662
8.55148e-05
4.01262e-05
1.84927e-05
8.38349e-06
3.74385e-06
1.64914e-06
7.17442e-07
3.08622e-07
1.3142e-07
5.54511e-08
2.31958e-08
9.61569e-09
3.93903e-09
1.58008e-09
6.04295e-10
2.01764e-10
3.53461e-11
4.57942e-07
2.00138e-06
4.59753e-06
8.9496e-06
1.62091e-05
2.82396e-05
4.80154e-05
8.02082e-05
0.000132021
0.000214319
0.000343086
0.000541131
0.000839844
0.00128055
0.00191476
0.00280246
0.00400784
0.00559251
0.00760754
0.0100865
0.0130414
0.0164627
0.020322
0.0245768
0.0291748
0.0340586
0.0391684
0.0444443
0.049829
0.0552683
0.0607123
0.0661163
0.0714407
0.0766518
0.0817212
0.0866256
0.0913458
0.0958674
0.10018
0.104276
0.108153
0.11181
0.115247
0.118467
0.121474
0.124273
0.126868
0.129264
0.131465
0.133474
0.135291
0.136915
0.138341
0.13956
0.140556
0.141307
0.141774
0.14192
0.141687
0.140982
0.139695
0.131258
0.120007
0.108722
0.0975747
0.086709
0.0762321
0.0662293
0.0567706
0.0479141
0.0397108
0.0322072
0.0254457
0.019478
0.0143494
0.0100949
0.0067307
0.00423034
0.00250373
0.00140117
0.000744067
0.000378457
0.000185864
8.91054e-05
4.18485e-05
1.92959e-05
8.7502e-06
3.9083e-06
1.72171e-06
7.49005e-07
3.22176e-07
1.37176e-07
5.78711e-08
2.42043e-08
1.00322e-08
4.10913e-09
1.64816e-09
6.30279e-10
2.10433e-10
3.68693e-11
4.58826e-07
2.00524e-06
4.60643e-06
8.967e-06
1.62408e-05
2.8295e-05
4.811e-05
8.03666e-05
0.000132281
0.000214739
0.000343749
0.000542156
0.000841387
0.00128281
0.00191796
0.00280684
0.00401361
0.00559979
0.00761633
0.0100966
0.0130526
0.0164745
0.0203338
0.0245879
0.0291846
0.0340662
0.0391732
0.044446
0.0498268
0.0552616
0.0607008
0.0660997
0.0714189
0.0766248
0.081689
0.0865883
0.0913039
0.0958212
0.10013
0.104223
0.108098
0.111752
0.115188
0.118408
0.121415
0.124215
0.126812
0.129212
0.131417
0.13343
0.135253
0.136884
0.138317
0.139544
0.14055
0.14131
0.141788
0.141943
0.141719
0.141023
0.139735
0.132115
0.120871
0.109578
0.0984255
0.08754
0.0770317
0.0669855
0.057481
0.0485746
0.040317
0.0327555
0.025933
0.0199008
0.0147048
0.0103815
0.00694965
0.00438714
0.0026089
0.00146025
0.000776663
0.000396255
0.000195051
9.35962e-05
4.39843e-05
2.02892e-05
9.20317e-06
4.11122e-06
1.81117e-06
7.87888e-07
3.38862e-07
1.44257e-07
6.08465e-08
2.54436e-08
1.05439e-08
4.31805e-09
1.73177e-09
6.62214e-10
2.21089e-10
3.87404e-11
4.59895e-07
2.00992e-06
4.6172e-06
8.98806e-06
1.62792e-05
2.83624e-05
4.82254e-05
8.05604e-05
0.000132601
0.000215256
0.000344571
0.000543433
0.000843323
0.00128566
0.00192203
0.00281247
0.00402108
0.00560933
0.00762801
0.0101103
0.013068