/*--------------------------------*- C++ -*----------------------------------*\
  =========                 |
  \\      /  F ield         | OpenFOAM: The Open Source CFD Toolbox
   \\    /   O peration     | Website:  https://openfoam.org
    \\  /    A nd           | Version:  8
     \\/     M anipulation  |
\*---------------------------------------------------------------------------*/
FoamFile
{
    version     2.0;
    format      ascii;
    class       volScalarField;
    location    "540/fluid";
    object      H2O;
}
// * * * * * * * * * * * * * * * * * * * * * * * * * * * * * * * * * * * * * //

dimensions      [0 0 0 0 0 0 0];

internalField   nonuniform List<scalar> 
4000
(
3.78475e-07
1.65365e-06
3.797e-06
7.38778e-06
1.33771e-05
2.33115e-05
3.96754e-05
6.64045e-05
0.000109627
0.000178693
0.000287514
0.000456177
0.000712609
0.00109385
0.00164619
0.00242332
0.00348176
0.00487408
0.00664121
0.00880625
0.0113718
0.0143211
0.0176215
0.0212299
0.0250966
0.0291695
0.0333967
0.0377282
0.0421172
0.0465212
0.050902
0.0552263
0.0594657
0.0635966
0.0676
0.071461
0.0751677
0.0787119
0.0820883
0.0852943
0.0883292
0.0911942
0.0938919
0.0964256
0.0987996
0.101019
0.103087
0.105009
0.10679
0.108431
0.109935
0.111302
0.11253
0.113614
0.114545
0.11531
0.115889
0.116251
0.116364
0.11618
0.115631
0.114628
0.113087
0.104471
0.0956854
0.0868855
0.0781922
0.0696993
0.0614811
0.0535977
0.0460994
0.0390304
0.0324319
0.0263718
0.0208336
0.0159004
0.0116252
0.00806033
0.00524565
0.00317957
0.00179124
0.000942409
0.000467411
0.00022215
0.000102541
4.62508e-05
2.04747e-05
8.92533e-06
3.841e-06
1.6352e-06
6.89824e-07
2.88775e-07
1.20089e-07
4.96377e-08
2.03834e-08
8.29118e-09
3.31008e-09
1.26275e-09
4.21543e-10
7.38898e-11
3.80064e-07
1.66108e-06
3.81625e-06
7.43107e-06
1.34676e-05
2.34899e-05
4.00082e-05
6.69904e-05
0.000110596
0.000180182
0.000289594
0.000458686
0.000714927
0.00109457
0.00164283
0.00241206
0.00345753
0.00483104
0.00657366
0.00870975
0.011244
0.0141619
0.0174334
0.021017
0.0248646
0.0289246
0.0331452
0.0374759
0.0418695
0.0462825
0.0506759
0.0550156
0.0592723
0.0634218
0.0674445
0.0713247
0.0750505
0.0786131
0.082007
0.0852293
0.0882793
0.0911581
0.0938681
0.0964131
0.0987972
0.101025
0.1031
0.105029
0.106814
0.10846
0.109967
0.111336
0.112565
0.113649
0.114578
0.115339
0.115912
0.116261
0.116352
0.116129
0.115507
0.114366
0.112472
0.103742
0.0948782
0.0860224
0.077288
0.0687647
0.0605248
0.0526276
0.045124
0.0380592
0.0314765
0.0254509
0.0199621
0.0151025
0.0109268
0.0074863
0.00481249
0.00288611
0.00161537
0.000849337
0.000423512
0.000202947
9.46093e-05
4.31165e-05
1.92761e-05
8.47668e-06
3.67474e-06
1.57352e-06
6.66694e-07
2.79939e-07
1.16639e-07
4.82625e-08
1.98271e-08
8.06527e-09
3.21945e-09
1.22797e-09
4.09879e-10
7.18624e-11
3.82705e-07
1.67294e-06
3.84478e-06
7.48943e-06
1.35776e-05
2.36853e-05
4.03373e-05
6.75144e-05
0.00011138
0.000181273
0.000291001
0.000460351
0.000716551
0.00109539
0.00164122
0.0024053
0.00344185
0.00480183
0.0065259
0.00863866
0.0111458
0.0140344
0.0172763
0.020832
0.0246548
0.0286947
0.0329005
0.0372224
0.0416128
0.046028
0.0504286
0.0547796
0.0590512
0.0632183
0.0672604
0.0711615
0.0749087
0.0784928
0.0819079
0.0851508
0.0882202
0.0911174
0.093845
0.0964054
0.098803
0.101043
0.103129
0.105067
0.106859
0.108511
0.110023
0.111395
0.112626
0.113711
0.11464
0.115399
0.115968
0.116312
0.116397
0.116169
0.115544
0.114416
0.111228
0.10243
0.0935098
0.084613
0.0758519
0.0673164
0.0590789
0.0511997
0.0437307
0.0367189
0.0302092
0.0242719
0.0189032
0.0141878
0.010176
0.00691042
0.00440717
0.00262806
0.00146734
0.000772172
0.000386393
0.000185974
8.71298e-05
3.99139e-05
1.79358e-05
7.9255e-06
3.45094e-06
1.48338e-06
6.30523e-07
2.65428e-07
1.10803e-07
4.59072e-08
1.88743e-08
7.68062e-09
3.06625e-09
1.16948e-09
3.90287e-10
6.84207e-11
3.84003e-07
1.67856e-06
3.85752e-06
7.51366e-06
1.36196e-05
2.37527e-05
4.04371e-05
6.7649e-05
0.000111535
0.000181385
0.000290882
0.000459555
0.000714286
0.0010904
0.00163173
0.002389
0.00341582
0.00476276
0.00647044
0.00856388
0.0110495
0.0139156
0.0171351
0.0206696
0.0244736
0.0284977
0.0326915
0.0370055
0.0413924
0.0458086
0.0502143
0.0545742
0.0588579
0.0630399
0.0670992
0.0710189
0.0747858
0.0783902
0.0818256
0.0850885
0.0881779
0.091094
0.093838
0.0964137
0.0988254
0.101078
0.103175
0.105122
0.106922
0.10858
0.110097
0.111472
0.112705
0.113789
0.114716
0.115473
0.116037
0.116374
0.116451
0.116212
0.115574
0.114431
0.109601
0.100781
0.091841
0.0829317
0.0741701
0.0656488
0.0574419
0.0496112
0.0422097
0.0352855
0.0288847
0.0230514
0.0178313
0.0132784
0.00943898
0.00634838
0.00401027
0.00237177
0.00131657
0.000690841
0.000345645
0.000166665
7.83093e-05
3.59984e-05
1.62377e-05
7.20318e-06
3.14859e-06
1.35846e-06
5.79426e-07
2.44681e-07
1.02422e-07
4.25337e-08
1.7521e-08
7.14089e-09
2.85414e-09
1.08948e-09
3.63745e-10
6.3783e-11
3.84331e-07
1.67995e-06
3.86052e-06
7.51895e-06
1.36276e-05
2.37624e-05
4.04426e-05
6.76304e-05
0.000111441
0.00018111
0.000290224
0.000458167
0.000711578
0.00108543
0.00162313
0.00237487
0.00339381
0.00473018
0.00642461
0.00850244
0.0109708
0.0138187
0.0170202
0.0205377
0.0243267
0.0283383
0.0325228
0.0368309
0.0412155
0.045633
0.0500433
0.054411
0.0587054
0.0629004
0.0669747
0.0709108
0.0746952
0.0783177
0.0817718
0.0850533
0.0881598
0.0910916
0.0938508
0.0964408
0.0988653
0.101129
0.103236
0.105191
0.106998
0.108661
0.11018
0.111557
0.112788
0.11387
0.114793
0.115542
0.116096
0.116419
0.116481
0.116222
0.115559
0.114382
0.107835
0.099023
0.0900861
0.0811838
0.0724392
0.0639488
0.055789
0.0480225
0.0407029
0.0338781
0.0276028
0.0218992
0.0168277
0.012436
0.00876529
0.00584247
0.00365897
0.00214856
0.00118695
0.000621423
0.000310896
0.000150122
7.06872e-05
3.2575e-05
1.47312e-05
6.55122e-06
2.87036e-06
1.24109e-06
5.3039e-07
2.24356e-07
9.4052e-08
3.91065e-08
1.61258e-08
6.57761e-09
2.6306e-09
1.00454e-09
3.35426e-10
5.882e-11
3.83752e-07
1.67733e-06
3.85409e-06
7.50522e-06
1.35997e-05
2.37072e-05
4.03349e-05
6.74239e-05
0.000111053
0.000180396
0.000288942
0.000455926
0.000707776
0.00107919
0.00161324
0.00235979
0.00337172
0.00469914
0.00638277
0.00844828
0.0109033
0.0137376
0.0169257
0.020431
0.0242093
0.0282123
0.0323907
0.0366954
0.0410795
0.0454992
0.0499145
0.0542897
0.0585939
0.0628006
0.066888
0.0708387
0.0746387
0.0782776
0.0817476
0.0850438
0.0881647
0.0911106
0.0938832
0.0964852
0.0989206
0.101193
0.103308
0.10527
0.107081
0.108746
0.110266
0.111641
0.112869
0.113944
0.114857
0.115593
0.11613
0.116433
0.116472
0.116186
0.115492
0.114293
0.106138
0.0973604
0.0884263
0.079526
0.0707959
0.0623367
0.0542265
0.0465275
0.039292
0.0325669
0.0264184
0.0208419
0.0159126
0.0116737
0.00816043
0.00539161
0.00334753
0.00195093
0.00107166
0.000559056
0.000279207
0.000134817
6.35326e-05
2.93181e-05
1.32811e-05
5.91764e-06
2.59795e-06
1.12555e-06
4.81938e-07
2.04226e-07
8.57529e-08
3.57069e-08
1.47418e-08
6.01906e-09
2.40899e-09
9.20342e-10
3.07356e-10
5.39006e-11
3.82667e-07
1.67251e-06
3.84272e-06
7.48221e-06
1.3556e-05
2.36267e-05
4.01894e-05
6.71648e-05
0.000110598
0.000179608
0.000287599
0.000453683
0.000704114
0.00107337
0.00160425
0.00234638
0.00335244
0.00467248
0.00634735
0.00840305
0.0108477
0.0136715
0.0168497
0.0203461
0.024117
0.0281145
0.0322893
0.0365927
0.0409779
0.0454009
0.0498216
0.0542043
0.0585177
0.0627351
0.0668346
0.0707986
0.0746122
0.078264
0.0817466
0.0850559
0.0881895
0.0911473
0.0939309
0.0965428
0.0989868
0.101267
0.103388
0.105353
0.107167
0.108832
0.11035
0.11172
0.11294
0.114003
0.1149
0.115615
0.116125
0.116391
0.116388
0.116053
0.115313
0.114099
0.105213
0.0961403
0.0870488
0.0780732
0.0693205
0.0608756
0.0528068
0.0451703
0.0380143
0.0313821
0.0253415
0.0198799
0.0150853
0.0109925
0.00762677
0.0049985
0.00307901
0.00178218
0.000973938
0.000506384
0.00025245
0.000121856
5.74426e-05
2.65268e-05
1.20283e-05
5.3655e-06
2.35839e-06
1.02303e-06
4.38577e-07
1.86071e-07
7.82153e-08
3.26006e-08
1.3471e-08
5.504e-09
2.20396e-09
8.4224e-10
2.81275e-10
4.93252e-11
3.81341e-07
1.66667e-06
3.82906e-06
7.45495e-06
1.35051e-05
2.35347e-05
4.00267e-05
6.68816e-05
0.000110112
0.000178786
0.000286234
0.000451458
0.00070057
0.00106787
0.00159597
0.00233431
0.00333546
0.00464949
0.00631739
0.00836546
0.0108022
0.0136183
0.0167895
0.0202798
0.0240458
0.0280402
0.0322136
0.0365174
0.0409048
0.0453319
0.0497584
0.0541484
0.0584705
0.062698
0.0668086
0.0707834
0.0746077
0.0782708
0.0817649
0.0850852
0.0882293
0.0911969
0.0939893
0.0966089
0.0990594
0.101345
0.103469
0.105437
0.107251
0.108915
0.110429
0.111792
0.113002
0.11405
0.114925
0.11561
0.116075
0.11628
0.116186
0.115713
0.114758
0.11321
0.104125
0.094916
0.0857428
0.0767294
0.0679736
0.0595533
0.0515313
0.04396
0.0368842
0.0303444
0.0244024
0.0190618
0.0143829
0.010408
0.00716776
0.00466246
0.00285061
0.00163908
0.000891077
0.000461597
0.00022958
0.000110715
5.21763e-05
2.40991e-05
1.09329e-05
4.88034e-06
2.147e-06
9.32222e-07
4.00048e-07
1.69894e-07
7.14837e-08
2.98211e-08
1.23319e-08
5.04173e-09
2.01973e-09
7.72001e-10
2.57806e-10
4.52066e-11
3.79974e-07
1.66067e-06
3.81512e-06
7.42736e-06
1.3454e-05
2.34435e-05
3.98676e-05
6.66083e-05
0.00010965
0.000178017
0.000284975
0.000449439
0.000697402
0.00106302
0.00158878
0.00232397
0.00332112
0.00463032
0.00629274
0.00833493
0.0107657
0.0135763
0.0167425
0.0202288
0.0239921
0.0279851
0.0321586
0.036464
0.0408545
0.0452861
0.0497185
0.0541158
0.0584463
0.0626826
0.0668019
0.070786
0.0746202
0.0782932
0.0817969
0.0851264
0.0882791
0.0912545
0.0940537
0.0966793
0.0991346
0.101424
0.10355
0.105519
0.107332
0.108993
0.110503
0.111859
0.113059
0.114094
0.114952
0.115613
0.116044
0.116206
0.11605
0.115485
0.114391
0.112183
0.102989
0.0937113
0.0845032
0.0754831
0.0667439
0.0583598
0.0503909
0.042888
0.0358957
0.0294572
0.0236266
0.0184128
0.0138402
0.00994586
0.0067901
0.00438042
0.00265872
0.00151892
0.000821544
0.000424004
0.000210354
0.000101326
4.77249e-05
2.20399e-05
1.00003e-05
4.46574e-06
1.96567e-06
8.54038e-07
3.66758e-07
1.55871e-07
6.56318e-08
2.73987e-08
1.13371e-08
4.63727e-09
1.85831e-09
7.1039e-10
2.3721e-10
4.15884e-11
3.78672e-07
1.65496e-06
3.8019e-06
7.40131e-06
1.34061e-05
2.33585e-05
3.97201e-05
6.63571e-05
0.000109229
0.000177322
0.00028385
0.000447653
0.000694633
0.00105884
0.00158264
0.00231526
0.00330918
0.00461458
0.00627275
0.00831051
0.010737
0.0135436
0.0167066
0.0201905
0.0239526
0.0279454
0.03212
0.0364279
0.0408219
0.0452584
0.0496968
0.0541008
0.0584382
0.0626819
0.0668094
0.070802
0.0746448
0.0783261
0.0818378
0.0851747
0.0883343
0.0913157
0.0941202
0.0967501
0.0992088
0.1015
0.103628
0.105596
0.107409
0.109067
0.110572
0.111923
0.113115
0.114141
0.114988
0.115636
0.116053
0.116204
0.11604
0.115483
0.114429
0.11105
0.101837
0.0925525
0.0833491
0.0743462
0.0656371
0.0572958
0.0493817
0.0419448
0.0350295
0.028679
0.0229214
0.0177704
0.0132965
0.00953444
0.00648318
0.0041434
0.0024959
0.00141696
0.000762625
0.000392185
0.000194087
9.33813e-05
4.3955e-05
2.02937e-05
9.2082e-06
4.11297e-06
1.81108e-06
7.87265e-07
3.38275e-07
1.43853e-07
6.06082e-08
2.53162e-08
1.04807e-08
4.28872e-09
1.71907e-09
6.57216e-10
2.19433e-10
3.84622e-11
3.77496e-07
1.64981e-06
3.78999e-06
7.37793e-06
1.33632e-05
2.32828e-05
3.95896e-05
6.61359e-05
0.00010886
0.000176719
0.000282881
0.000446129
0.00069229
0.00105533
0.00157755
0.0023081
0.00329948
0.00460192
0.00625687
0.00829136
0.0107148
0.0135187
0.0166797
0.0201625
0.0239243
0.0279179
0.0320944
0.036405
0.040803
0.0452443
0.049688
0.0540977
0.0584416
0.0626922
0.0668269
0.0708269
0.0746768
0.078365
0.0818832
0.0852261
0.088391
0.0913771
0.0941855
0.0968184
0.0992793
0.101572
0.1037
0.105668
0.107478
0.109133
0.110634
0.11198
0.113166
0.114185
0.115023
0.115662
0.116071
0.116213
0.116045
0.115486
0.114435
0.109962
0.100752
0.0914795
0.0822971
0.0733243
0.0646545
0.0563624
0.0485059
0.0411337
0.0342881
0.0279897
0.0222736
0.0171985
0.0128033
0.00911935
0.00616625
0.00393561
0.00235244
0.00132855
0.000712162
0.000365174
0.000180359
8.6695e-05
4.07865e-05
1.88266e-05
8.54243e-06
3.81619e-06
1.68088e-06
7.30941e-07
3.14213e-07
1.33684e-07
5.63513e-08
2.35491e-08
9.7532e-09
3.99234e-09
1.60061e-09
6.11956e-10
2.04299e-10
3.58031e-11
3.76469e-07
1.64532e-06
3.77963e-06
7.35762e-06
1.33261e-05
2.32175e-05
3.94773e-05
6.59467e-05
0.000108547
0.000176209
0.000282067
0.000444856
0.000690348
0.00105245
0.0015734
0.00230232
0.00329172
0.00459191
0.00624448
0.00827662
0.0106979
0.0135002
0.0166601
0.0201426
0.0239049
0.0278998
0.0320784
0.0363921
0.040794
0.0452394
0.0496879
0.0541031
0.0584529
0.0627097
0.0668505
0.0708566
0.0747124
0.0784062
0.0819296
0.0852773
0.0884462
0.0914358
0.0942469
0.0968818
0.0993438
0.101637
0.103764
0.10573
0.107538
0.109191
0.110687
0.112028
0.113208
0.114219
0.11505
0.115681
0.116081
0.116216
0.116041
0.115476
0.114423
0.108993
0.0997887
0.0905309
0.081373
0.0724372
0.0638121
0.0555677
0.0477536
0.0404184
0.0336019
0.0273544
0.021709
0.0167071
0.0123872
0.00877987
0.00590263
0.00374104
0.00222969
0.00125288
0.000669591
0.00034261
0.000168949
8.11492e-05
3.81597e-05
1.76097e-05
7.9896e-06
3.56941e-06
1.57243e-06
6.83951e-07
2.94104e-07
1.25173e-07
5.27829e-08
2.20658e-08
9.14187e-09
3.74311e-09
1.50097e-09
5.73916e-10
1.91605e-10
3.35763e-11
3.756e-07
1.64151e-06
3.77087e-06
7.34047e-06
1.32949e-05
2.31626e-05
3.93833e-05
6.57889e-05
0.000108287
0.000175787
0.000281397
0.000443816
0.000688772
0.00105013
0.00157008
0.00229774
0.00328564
0.00458415
0.00623498
0.00826548
0.0106854
0.0134868
0.0166462
0.0201289
0.0238921
0.0278886
0.0320697
0.0363864
0.0407915
0.045241
0.049694
0.054114
0.0584688
0.0627308
0.0668769
0.070888
0.0747487
0.0784469
0.0819744
0.0853256
0.0884976
0.0914896
0.0943025
0.0969385
0.0994008
0.101693
0.10382
0.105784
0.107589
0.109238
0.11073
0.112065
0.113239
0.114243
0.115066
0.115689
0.11608
0.116208
0.116024
0.115454
0.1144
0.108164
0.0989585
0.0897126
0.0805817
0.0716697
0.0630666
0.0548419
0.0470605
0.0397689
0.0330083
0.0268176
0.021232
0.0162933
0.0120393
0.0084997
0.00568996
0.00359195
0.00213604
0.00119558
0.000635902
0.000324441
0.000159702
7.6634e-05
3.60132e-05
1.66123e-05
7.53534e-06
3.36617e-06
1.48295e-06
6.45107e-07
2.77454e-07
1.18115e-07
4.98201e-08
2.08328e-08
8.6332e-09
3.53556e-09
1.41795e-09
5.4221e-10
1.81025e-10
3.17205e-11
3.7488e-07
1.63837e-06
3.76363e-06
7.32632e-06
1.32691e-05
2.31175e-05
3.93064e-05
6.56601e-05
0.000108075
0.000175446
0.000280858
0.000442983
0.000687517
0.00104829
0.00156747
0.00229418
0.00328095
0.00457823
0.00622784
0.00825724
0.0106763
0.0134772
0.0166367
0.02012
0.0238843
0.0278825
0.0320658
0.0363851
0.0407935
0.0452466
0.0497036
0.0541277
0.0584869
0.0627531
0.0669034
0.0709186
0.0747831
0.0784849
0.0820154
0.0853693
0.0885434
0.0915369
0.0943508
0.0969871
0.0994492
0.101741
0.103865
0.105827
0.107629
0.109274
0.110761
0.112091
0.113259
0.114256
0.115072
0.115687
0.116069
0.116188
0.115998
0.115421
0.114368
0.107463
0.0982512
0.0890125
0.0798862
0.0709902
0.0624125
0.054223
0.046479
0.0392281
0.0325119
0.0263686
0.0208329
0.0159471
0.0117482
0.00826497
0.00551064
0.00346353
0.00204991
0.0011472
0.000609202
0.000309861
0.000152177
7.29557e-05
3.42639e-05
1.57987e-05
7.16433e-06
3.19997e-06
1.40967e-06
6.13259e-07
2.63787e-07
1.12315e-07
4.7383e-08
1.98177e-08
8.21408e-09
3.36444e-09
1.34947e-09
5.16054e-10
1.72297e-10
3.01879e-11
3.74299e-07
1.63583e-06
3.75779e-06
7.31493e-06
1.32484e-05
2.30813e-05
3.92448e-05
6.55573e-05
0.000107907
0.000175176
0.000280433
0.000442329
0.000686538
0.00104687
0.00156547
0.00229146
0.00327741
0.00457381
0.00622258
0.00825127
0.0106699
0.0134706
0.0166304
0.0201144
0.0238799
0.0278798
0.0320651
0.0363869
0.0407981
0.0452542
0.0497146
0.0541422
0.0585048
0.0627746
0.0669282
0.0709466
0.0748139
0.0785183
0.0820511
0.0854067
0.0885822
0.0915766
0.0943908
0.0970269
0.0994882
0.101778
0.103901
0.10586
0.107659
0.109299
0.110782
0.112106
0.113268
0.114259
0.115068
0.115675
0.116051
0.116163
0.115967
0.115385
0.114331
0.106877
0.0976544
0.0884161
0.0793028
0.0704257
0.0618718
0.0537105
0.045998
0.0387814
0.0321021
0.025998
0.0205036
0.0156616
0.0115085
0.00807198
0.00536367
0.0033589
0.00198061
0.00110422
0.000586545
0.000298456
0.000146278
7.00147e-05
3.28533e-05
1.51409e-05
6.86398e-06
3.06528e-06
1.35023e-06
5.87407e-07
2.52685e-07
1.07601e-07
4.54008e-08
1.89917e-08
7.87291e-09
3.22511e-09
1.29371e-09
4.9477e-10
1.65196e-10
2.89402e-11
3.73843e-07
1.63383e-06
3.7532e-06
7.30599e-06
1.32322e-05
2.3053e-05
3.91967e-05
6.54773e-05
0.000107776
0.000174967
0.000280105
0.000441827
0.00068579
0.00104579
0.00156396
0.00228942
0.00327479
0.00457058
0.00621878
0.00824704
0.0106654
0.0134663
0.0166264
0.0201112
0.0238778
0.0278791
0.0320662
0.0363901
0.0408037
0.0452624
0.0497254
0.0541558
0.0585211
0.0627936
0.0669497
0.0709704
0.0748399
0.0785461
0.0820804
0.0854371
0.0886133
0.091608
0.094422
0.0970575
0.0995175
0.101806
0.103926
0.105882
0.107677
0.109314
0.110792
0.112111
0.113267
0.114252
0.115055
0.115657
0.116028
0.116138
0.115945
0.115375
0.114351
0.106406
0.097174
0.0879346
0.0788295
0.0699672
0.061433
0.0532947
0.0456081
0.0384196
0.0317705
0.0256984
0.0202376
0.0154312
0.0113152
0.00791678
0.00524586
0.00327538
0.00192564
0.0010704
0.000566654
0.000287887
0.000141306
6.76434e-05
3.17222e-05
1.46122e-05
6.62261e-06
2.95719e-06
1.3026e-06
5.66708e-07
2.43802e-07
1.03831e-07
4.38165e-08
1.83318e-08
7.60049e-09
3.11395e-09
1.24928e-09
4.77822e-10
1.59541e-10
2.79494e-11
3.73496e-07
1.63232e-06
3.74972e-06
7.29921e-06
1.32199e-05
2.30316e-05
3.91604e-05
6.5417e-05
0.000107678
0.00017481
0.00027986
0.000441455
0.000685237
0.00104499
0.00156285
0.00228795
0.0032729
0.00456828
0.00621612
0.00824413
0.0106625
0.0134634
0.016624
0.0201094
0.023877
0.0278796
0.0320681
0.0363937
0.0408092
0.0452699
0.0497349
0.0541674
0.0585348
0.0628091
0.066967
0.0709893
0.0748601
0.0785675
0.0821026
0.0854599
0.0886363
0.0916309
0.0944443
0.0970788
0.0995374
0.101824
0.103942
0.105895
0.107686
0.109319
0.110792
0.112106
0.113256
0.114236
0.115032
0.115628
0.115994
0.1161
0.115904
0.115334
0.114314
0.106039
0.0967927
0.0875525
0.0784544
0.0696044
0.0610863
0.052967
0.0453013
0.0381355
0.0315106
0.0254638
0.0200297
0.0152514
0.0111648
0.00779622
0.00515467
0.00321106
0.00188362
0.00104494
0.000552205
0.000280117
0.000137271
6.57558e-05
3.0855e-05
1.42098e-05
6.43797e-06
2.87405e-06
1.26585e-06
5.50723e-07
2.36944e-07
1.00923e-07
4.25956e-08
1.78242e-08
7.39138e-09
3.02878e-09
1.21526e-09
4.64843e-10
1.55211e-10
2.7191e-11
3.73247e-07
1.63123e-06
3.74723e-06
7.29435e-06
1.32111e-05
2.30163e-05
3.91344e-05
6.5374e-05
0.000107608
0.000174699
0.000279687
0.000441191
0.000684847
0.00104443
0.00156208
0.00228692
0.0032716
0.00456671
0.00621432
0.00824221
0.0106605
0.0134617
0.0166226
0.0201086
0.0238769
0.0278804
0.0320701
0.036397
0.0408138
0.045276
0.0497425
0.0541763
0.0585451
0.0628206
0.0669796
0.0710028
0.0748744
0.0785823
0.0821178
0.0854752
0.0886514
0.0916455
0.0944582
0.0970915
0.0995485
0.101833
0.103948
0.105899
0.107687
0.109315
0.110784
0.112093
0.113238
0.114212
0.115003
0.115593
0.115953
0.116056
0.115859
0.115291
0.114282
0.105769
0.0965079
0.0872649
0.0781714
0.069331
0.0608257
0.0527213
0.0450721
0.0379239
0.0313174
0.02529
0.0198759
0.0151188
0.011054
0.00770776
0.00508801
0.00316423
0.00185314
0.00102652
0.000541786
0.000274533
0.000134397
6.43084e-05
3.0165e-05
1.39018e-05
6.3019e-06
2.81381e-06
1.23945e-06
5.39288e-07
2.32046e-07
9.88472e-08
4.17245e-08
1.74615e-08
7.24176e-09
2.96774e-09
1.19084e-09
4.55521e-10
1.521e-10
2.66459e-11
3.73087e-07
1.63053e-06
3.74562e-06
7.29122e-06
1.32054e-05
2.30065e-05
3.91178e-05
6.53464e-05
0.000107563
0.000174627
0.000279576
0.000441023
0.0006846
0.00104408
0.00156159
0.00228628
0.00327078
0.00456574
0.00621322
0.00824104
0.0106594
0.0134607
0.0166219
0.0201082
0.0238771
0.0278812
0.0320717
0.0363994
0.0408171
0.0452802
0.0497476
0.0541823
0.0585518
0.062828
0.0669875
0.071011
0.0748828
0.0785908
0.0821263
0.0854836
0.0886594
0.0916529
0.0944647
0.0970969
0.0995525
0.101835
0.103948
0.105896
0.107681
0.109306
0.110772
0.112076
0.113217
0.114185
0.114971
0.115557
0.115913
0.116013
0.115816
0.115253
0.114258
0.10559
0.0963145
0.0870676
0.0779771
0.0691437
0.0606479
0.0525546
0.0449174
0.0377818
0.0311883
0.0251743
0.0197739
0.0150311
0.0109811
0.00764978
0.00504452
0.00313385
0.00183347
0.00101467
0.000535074
0.000270936
0.000132593
6.34272e-05
2.97433e-05
1.37016e-05
6.21046e-06
2.77382e-06
1.22212e-06
5.31839e-07
2.28876e-07
9.751e-08
4.11651e-08
1.72293e-08
7.14604e-09
2.9287e-09
1.17522e-09
4.49554e-10
1.50108e-10
2.62967e-11
3.73011e-07
1.6302e-06
3.74485e-06
7.28973e-06
1.32027e-05
2.30018e-05
3.91099e-05
6.53333e-05
0.000107542
0.000174594
0.000279524
0.000440944
0.000684484
0.00104391
0.00156137
0.00228598
0.00327041
0.00456529
0.00621272
0.00824051
0.0106589
0.0134602
0.0166216
0.0201081
0.0238772
0.0278817
0.0320725
0.0364006
0.0408187
0.0452822
0.0497501
0.0541852
0.0585551
0.0628316
0.0669913
0.0710148
0.0748864
0.0785942
0.0821295
0.0854866
0.0886621
0.0916551
0.0944663
0.0970978
0.0995524
0.101834
0.103946
0.105892
0.107675
0.109298
0.11076
0.112062
0.113199
0.114164
0.114946
0.115528
0.115882
0.115981
0.115784
0.115227
0.114245
0.105501
0.0962132
0.0869628
0.0778739
0.0690451
0.0605553
0.0524687
0.0448384
0.0377099
0.0311237
0.0251169
0.0197239
0.0149884
0.0109459
0.007622
0.00502386
0.00311954
0.00182429
0.00100917
0.000531972
0.000269274
0.000131768
6.30269e-05
2.95528e-05
1.36124e-05
6.16938e-06
2.75506e-06
1.21382e-06
5.28246e-07
2.27343e-07
9.6863e-08
4.08945e-08
1.71169e-08
7.09976e-09
2.90982e-09
1.16767e-09
4.46666e-10
1.49143e-10
2.61275e-11
3.73013e-07
1.63021e-06
3.74488e-06
7.28978e-06
1.32028e-05
2.30019e-05
3.91101e-05
6.53338e-05
0.000107543
0.000174595
0.000279526
0.000440947
0.000684488
0.00104392
0.00156138
0.002286
0.00327043
0.00456531
0.00621275
0.00824055
0.0106589
0.0134603
0.0166216
0.0201082
0.0238773
0.0278818
0.0320726
0.0364007
0.0408188
0.0452823
0.0497502
0.0541853
0.0585551
0.0628317
0.0669913
0.0710148
0.0748865
0.0785943
0.0821296
0.0854866
0.0886622
0.0916552
0.0944664
0.0970978
0.0995524
0.101834
0.103946
0.105892
0.107675
0.109298
0.11076
0.112062
0.113199
0.114164
0.114946
0.115528
0.115882
0.115981
0.115784
0.115227
0.114245
0.105501
0.096213
0.0869626
0.0778738
0.069045
0.0605552
0.0524686
0.0448384
0.0377099
0.0311236
0.0251168
0.0197238
0.0149884
0.0109458
0.00762198
0.00502384
0.00311953
0.00182428
0.00100916
0.00053197
0.000269273
0.000131767
6.30266e-05
2.95527e-05
1.36123e-05
6.16936e-06
2.75505e-06
1.21382e-06
5.28245e-07
2.27342e-07
9.68627e-08
4.08943e-08
1.71169e-08
7.09973e-09
2.90981e-09
1.16766e-09
4.46664e-10
1.49142e-10
2.61274e-11
3.73095e-07
1.63056e-06
3.7457e-06
7.29137e-06
1.32057e-05
2.30069e-05
3.91186e-05
6.53477e-05
0.000107565
0.000174631
0.000279581
0.000441031
0.000684612
0.0010441
0.00156162
0.00228632
0.00327084
0.00456581
0.00621331
0.00824115
0.0106595
0.0134608
0.016622
0.0201084
0.0238773
0.0278815
0.0320719
0.0363996
0.0408173
0.0452804
0.0497478
0.0541825
0.058552
0.0628282
0.0669877
0.0710112
0.074883
0.078591
0.0821265
0.0854837
0.0886596
0.0916531
0.0944649
0.0970971
0.0995526
0.101835
0.103949
0.105896
0.107682
0.109306
0.110772
0.112076
0.113217
0.114185
0.114971
0.115557
0.115913
0.116013
0.115816
0.115253
0.114258
0.105589
0.0963141
0.0870672
0.0779767
0.0691434
0.0606476
0.0525543
0.0449171
0.0377815
0.0311881
0.0251741
0.0197738
0.015031
0.010981
0.00764971
0.00504447
0.00313382
0.00183345
0.00101465
0.000535067
0.000270933
0.000132591
6.34263e-05
2.97429e-05
1.37014e-05
6.21037e-06
2.77378e-06
1.22211e-06
5.31834e-07
2.28873e-07
9.75089e-08
4.11646e-08
1.72291e-08
7.14594e-09
2.92865e-09
1.1752e-09
4.49547e-10
1.50105e-10
2.62963e-11
3.7326e-07
1.63129e-06
3.74736e-06
7.2946e-06
1.32116e-05
2.30171e-05
3.91358e-05
6.53762e-05
0.000107611
0.000174705
0.000279696
0.000441205
0.00068487
0.00104446
0.00156213
0.00228699
0.00327169
0.00456683
0.00621447
0.00824239
0.0106607
0.0134619
0.0166229
0.0201089
0.0238772
0.0278808
0.0320705
0.0363974
0.0408142
0.0452764
0.0497429
0.0541767
0.0585455
0.062821
0.06698
0.0710031
0.0748747
0.0785826
0.0821181
0.0854755
0.0886517
0.0916458
0.0944584
0.0970917
0.0995487
0.101833
0.103948
0.105899
0.107687
0.109315
0.110785
0.112094
0.113238
0.114212
0.115003
0.115593
0.115953
0.116056
0.115859
0.115291
0.114281
0.105768
0.0965071
0.0872641
0.0781707
0.0693304
0.0608251
0.0527208
0.0450716
0.0379235
0.0313171
0.0252897
0.0198757
0.0151186
0.0110538
0.00770764
0.00508792
0.00316417
0.0018531
0.0010265
0.000541773
0.000274527
0.000134394
6.43067e-05
3.01642e-05
1.39014e-05
6.30173e-06
2.81373e-06
1.23942e-06
5.39273e-07
2.3204e-07
9.88444e-08
4.17233e-08
1.7461e-08
7.24154e-09
2.96765e-09
1.19081e-09
4.55506e-10
1.52095e-10
2.6645e-11
3.73514e-07
1.6324e-06
3.7499e-06
7.29956e-06
1.32205e-05
2.30327e-05
3.91623e-05
6.54201e-05
0.000107683
0.000174818
0.000279873
0.000441475
0.000685268
0.00104504
0.00156292
0.00228804
0.00327302
0.00456844
0.00621633
0.00824439
0.0106628
0.0134638
0.0166244
0.0201099
0.0238775
0.0278801
0.0320686
0.0363943
0.0408097
0.0452705
0.0497355
0.0541679
0.0585353
0.0628096
0.0669676
0.0709898
0.0748606
0.0785679
0.082103
0.0854603
0.0886367
0.0916312
0.0944447
0.0970791
0.0995377
0.101824
0.103942
0.105895
0.107687
0.109319
0.110792
0.112106
0.113257
0.114236
0.115032
0.115629
0.115994
0.1161
0.115904
0.115334
0.114314
0.106038
0.0967915
0.0875514
0.0784534
0.0696035
0.0610854
0.0529662
0.0453006
0.038135
0.0315101
0.0254634
0.0200293
0.0152511
0.0111645
0.00779605
0.00515454
0.00321098
0.00188357
0.00104491
0.000552186
0.000280107
0.000137266
6.57534e-05
3.08539e-05
1.42093e-05
6.43774e-06
2.87394e-06
1.2658e-06
5.50699e-07
2.36933e-07
1.00918e-07
4.25937e-08
1.78233e-08
7.39103e-09
3.02864e-09
1.2152e-09
4.6482e-10
1.55203e-10
2.71896e-11
3.73866e-07
1.63393e-06
3.75343e-06
7.30643e-06
1.3233e-05
2.30544e-05
3.91991e-05
6.54813e-05
0.000107782
0.000174977
0.000280122
0.000441853
0.00068583
0.00104584
0.00156404
0.00228954
0.00327495
0.00457079
0.00621905
0.00824738
0.0106658
0.0134667
0.0166269
0.0201117
0.0238784
0.0278798
0.0320669
0.0363908
0.0408044
0.0452631
0.0497261
0.0541565
0.0585218
0.0627943
0.0669504
0.0709711
0.0748405
0.0785467
0.0820809
0.0854377
0.0886138
0.0916085
0.0944225
0.0970579
0.0995179
0.101806
0.103926
0.105883
0.107678
0.109314
0.110792
0.112111
0.113267
0.114252
0.115055
0.115657
0.116028
0.116138
0.115944
0.115375
0.11435
0.106404
0.0971724
0.0879331
0.0788281
0.069966
0.0614318
0.0532937
0.0456072
0.0384188
0.0317699
0.0256978
0.0202371
0.0154309
0.0113149
0.00791654
0.00524568
0.00327527
0.00192556
0.00107036
0.000566629
0.000287874
0.000141299
6.76403e-05
3.17207e-05
1.46115e-05
6.62226e-06
2.95703e-06
1.30253e-06
5.66676e-07
2.43788e-07
1.03825e-07
4.38138e-08
1.83306e-08
7.60001e-09
3.11375e-09
1.2492e-09
4.77791e-10
1.5953e-10
2.79477e-11
3.74327e-07
1.63595e-06
3.75807e-06
7.31547e-06
1.32494e-05
2.3083e-05
3.92477e-05
6.55621e-05
0.000107914
0.000175189
0.000280453
0.00044236
0.000686585
0.00104694
0.00156557
0.0022916
0.0032776
0.00457407
0.0062229
0.00825168
0.0106704
0.0134712
0.0166311
0.0201151
0.0238806
0.0278806
0.0320659
0.0363877
0.0407989
0.0452551
0.0497154
0.0541431
0.0585057
0.0627754
0.066929
0.0709474
0.0748147
0.0785191
0.0820518
0.0854074
0.0885828
0.0915772
0.0943914
0.0970275
0.0994887
0.101779
0.103901
0.10586
0.107659
0.109299
0.110782
0.112106
0.113268
0.114259
0.115068
0.115676
0.116051
0.116163
0.115967
0.115385
0.114331
0.106875
0.0976524
0.0884142
0.0793009
0.0704239
0.0618702
0.0537091
0.0459967
0.0387803
0.0321012
0.0259973
0.020503
0.0156611
0.0115081
0.00807167
0.00536345
0.00335874
0.00198051
0.00110416
0.000586511
0.000298439
0.000146269
7.00102e-05
3.2851e-05
1.51398e-05
6.86349e-06
3.06506e-06
1.35014e-06
5.87363e-07
2.52666e-07
1.07593e-07
4.53973e-08
1.89902e-08
7.87228e-09
3.22485e-09
1.2936e-09
4.94731e-10
1.65182e-10
2.89376e-11
3.74913e-07
1.63851e-06
3.76396e-06
7.32696e-06
1.32703e-05
2.31195e-05
3.93098e-05
6.56658e-05
0.000108084
0.000175461
0.000280882
0.00044302
0.000687573
0.00104837
0.00156759
0.00229435
0.00328118
0.00457854
0.00622823
0.00825772
0.0106769
0.0134779
0.0166375
0.0201208
0.0238852
0.0278835
0.0320668
0.0363862
0.0407945
0.0452476
0.0497046
0.0541288
0.0584879
0.0627542
0.0669044
0.0709196
0.074784
0.0784858
0.0820163
0.0853701
0.0885441
0.0915376
0.0943514
0.0969878
0.0994498
0.101741
0.103866
0.105828
0.10763
0.109274
0.110762
0.112091
0.113259
0.114257
0.115072
0.115687
0.116069
0.116189
0.115998
0.115421
0.114367
0.10746
0.0982485
0.0890098
0.0798836
0.0709879
0.0624106
0.0542213
0.0464776
0.0392269
0.0325109
0.0263677
0.0208322
0.0159465
0.0117477
0.0082646
0.00551036
0.00346334
0.00204978
0.00114713
0.000609161
0.00030984
0.000152165
7.29498e-05
3.4261e-05
1.57973e-05
7.16371e-06
3.19969e-06
1.40955e-06
6.13204e-07
2.63763e-07
1.12305e-07
4.73785e-08
1.98158e-08
8.21329e-09
3.36411e-09
1.34933e-09
5.16004e-10
1.7228e-10
3.01846e-11
3.75637e-07
1.64167e-06
3.77125e-06
7.3412e-06
1.32962e-05
2.31649e-05
3.93872e-05
6.57954e-05
0.000108297
0.000175805
0.000281424
0.000443858
0.000688836
0.00105022
0.00157022
0.00229794
0.00328591
0.0045845
0.00623543
0.00826603
0.0106861
0.0134875
0.0166471
0.0201299
0.0238931
0.0278897
0.0320708
0.0363875
0.0407928
0.0452422
0.0496952
0.0541153
0.0584701
0.062732
0.066878
0.0708891
0.0747497
0.078448
0.0819754
0.0853266
0.0884985
0.0914904
0.0943033
0.0969392
0.0994015
0.101694
0.10382
0.105784
0.10759
0.109238
0.11073
0.112065
0.113239
0.114244
0.115067
0.11569
0.116081
0.116208
0.116024
0.115454
0.1144
0.108161
0.0989562
0.0897107
0.0805801
0.0716682
0.0630651
0.0548405
0.0470592
0.0397676
0.0330071
0.0268166
0.0212311
0.0162926
0.0120387
0.00849924
0.00568962
0.00359171
0.00213588
0.00119549
0.000635847
0.00032441
0.000159686
7.66264e-05
3.60095e-05
1.66106e-05
7.53455e-06
3.36582e-06
1.48279e-06
6.45037e-07
2.77424e-07
1.18102e-07
4.98145e-08