/*--------------------------------*- C++ -*----------------------------------*\
  =========                 |
  \\      /  F ield         | OpenFOAM: The Open Source CFD Toolbox
   \\    /   O peration     | Website:  https://openfoam.org
    \\  /    A nd           | Version:  8
     \\/     M anipulation  |
\*---------------------------------------------------------------------------*/
FoamFile
{
    version     2.0;
    format      ascii;
    class       volScalarField;
    location    "540/fluid";
    object      N2;
}
// * * * * * * * * * * * * * * * * * * * * * * * * * * * * * * * * * * * * * //

dimensions      [0 0 0 0 0 0 0];

internalField   nonuniform List<scalar> 
4000
(
2.25199e-06
9.83949e-06
2.25928e-05
4.39585e-05
7.95961e-05
0.000138707
0.000236074
0.000395115
0.000652293
0.00106324
0.00171073
0.00271427
0.00424003
0.00650838
0.00979472
0.0144186
0.0207161
0.0290001
0.039514
0.0523953
0.0676593
0.0852058
0.104841
0.126308
0.149312
0.173541
0.198688
0.224454
0.250562
0.276758
0.302815
0.328535
0.35375
0.378318
0.402128
0.425091
0.447138
0.468219
0.488306
0.507384
0.525452
0.542519
0.558603
0.57373
0.587931
0.601241
0.613697
0.62534
0.63621
0.646348
0.655795
0.664593
0.672781
0.680396
0.687476
0.694057
0.700173
0.7058
0.710951
0.71587
0.720443
0.724695
0.728595
0.732339
0.73592
0.739343
0.74261
0.745721
0.748675
0.75147
0.7541
0.756562
0.758847
0.760938
0.762843
0.764537
0.766006
0.767231
0.768198
0.768908
0.769385
0.769676
0.769839
0.769924
0.769965
0.769984
0.769993
0.769997
0.769999
0.769999
0.77
0.77
0.77
0.77
0.77
0.77
0.77
0.77
0.77
0.77
2.26152e-06
9.88405e-06
2.2708e-05
4.42175e-05
8.01369e-05
0.000139773
0.000238061
0.000398614
0.000658079
0.00107213
0.00172315
0.00272928
0.00425394
0.00651282
0.00977498
0.0143519
0.0205723
0.0287445
0.0391128
0.051822
0.0668996
0.0842598
0.103723
0.125044
0.147933
0.172086
0.197194
0.222956
0.249091
0.275341
0.301473
0.327285
0.352603
0.377282
0.401207
0.424284
0.446444
0.467635
0.487827
0.507003
0.525161
0.542311
0.55847
0.573667
0.587929
0.601293
0.613796
0.625479
0.636384
0.646552
0.656024
0.664843
0.673047
0.680676
0.687767
0.694356
0.700476
0.70609
0.711235
0.716155
0.72073
0.724988
0.728896
0.732649
0.736238
0.739667
0.74294
0.746055
0.749013
0.751809
0.754439
0.756898
0.759177
0.761254
0.763142
0.764811
0.766246
0.767428
0.768346
0.769008
0.769445
0.769708
0.769854
0.76993
0.769967
0.769985
0.769993
0.769997
0.769999
0.769999
0.77
0.77
0.77
0.77
0.77
0.77
0.77
0.77
0.77
0.77
2.27729e-06
9.95486e-06
2.28784e-05
4.45658e-05
8.07935e-05
0.000140939
0.000240025
0.00040174
0.000662753
0.00107864
0.00173155
0.00273923
0.00426366
0.00651781
0.00976557
0.0143119
0.0204794
0.0285713
0.0388293
0.0513999
0.0663165
0.0835028
0.10279
0.123944
0.146687
0.170721
0.195741
0.22145
0.247567
0.27383
0.300005
0.325885
0.351291
0.376075
0.400116
0.423318
0.445606
0.466926
0.487244
0.506543
0.524818
0.54208
0.558346
0.573636
0.587984
0.601424
0.613995
0.625739
0.636696
0.646909
0.656421
0.665272
0.673503
0.681153
0.688261
0.694863
0.700992
0.706606
0.711753
0.716677
0.721249
0.725495
0.729402
0.73316
0.736753
0.740185
0.743457
0.74657
0.749521
0.752307
0.754922
0.757361
0.759613
0.761659
0.763505
0.765125
0.766503
0.767625
0.768485
0.769097
0.769496
0.769735
0.769867
0.769936
0.76997
0.769986
0.769994
0.769997
0.769999
0.769999
0.77
0.77
0.77
0.77
0.77
0.77
0.77
0.77
0.77
0.77
2.28506e-06
9.98851e-06
2.29546e-05
4.47109e-05
8.10445e-05
0.000141342
0.000240623
0.000402547
0.000663687
0.00107933
0.00173087
0.00273454
0.00425027
0.00648823
0.00970931
0.0142152
0.0203249
0.0283393
0.0385
0.0509558
0.0657449
0.0827974
0.101952
0.12298
0.145611
0.169551
0.1945
0.220163
0.246259
0.272529
0.298735
0.324667
0.350146
0.37502
0.399162
0.422476
0.444881
0.466322
0.486762
0.506182
0.524578
0.541953
0.55832
0.573706
0.588142
0.601663
0.614307
0.626115
0.637129
0.647391
0.656943
0.665829
0.674088
0.681761
0.688885
0.695498
0.701634
0.707241
0.712377
0.717283
0.721835
0.726069
0.729996
0.733764
0.737361
0.740791
0.744058
0.747159
0.750095
0.75286
0.75545
0.757856
0.760069
0.762078
0.763872
0.765437
0.766756
0.767818
0.768622
0.769185
0.769548
0.769763
0.769881
0.769943
0.769973
0.769988
0.769994
0.769998
0.769999
0.77
0.77
0.77
0.77
0.77
0.77
0.77
0.77
0.77
0.77
0.77
2.28705e-06
9.99692e-06
2.29729e-05
4.47431e-05
8.10936e-05
0.000141402
0.00024066
0.000402444
0.000663145
0.00107771
0.001727
0.00272634
0.00423425
0.00645884
0.00965834
0.0141314
0.0201943
0.028146
0.038228
0.0505911
0.0652774
0.0822222
0.10127
0.122198
0.144739
0.168606
0.193499
0.219128
0.245211
0.271488
0.297722
0.323702
0.349245
0.374196
0.398428
0.421839
0.444349
0.465899
0.486451
0.505983
0.524482
0.541954
0.558417
0.573892
0.588411
0.602007
0.614719
0.626586
0.637652
0.647959
0.657549
0.666465
0.674748
0.682439
0.689576
0.696197
0.702335
0.707915
0.71303
0.717933
0.722487
0.726695
0.730639
0.734406
0.737999
0.741421
0.744675
0.74776
0.750675
0.753414
0.755972
0.758341
0.76051
0.762474
0.764217
0.765726
0.766988
0.767992
0.768742
0.769262
0.769592
0.769786
0.769893
0.769948
0.769976
0.769989
0.769995
0.769998
0.769999
0.77
0.77
0.77
0.77
0.77
0.77
0.77
0.77
0.77
0.77
0.77
2.28365e-06
9.98152e-06
2.29351e-05
4.46623e-05
8.09295e-05
0.000141077
0.000240025
0.000401224
0.000660849
0.00107349
0.0017194
0.00271306
0.00421172
0.00642183
0.00959969
0.014042
0.0200633
0.0279618
0.0379797
0.0502698
0.0648771
0.0817409
0.10071
0.121565
0.144044
0.167859
0.192717
0.218326
0.244406
0.270697
0.296961
0.322986
0.348587
0.373608
0.39792
0.421418
0.444022
0.46567
0.486318
0.505939
0.524527
0.542087
0.558633
0.574186
0.588776
0.602437
0.615207
0.627125
0.638235
0.648579
0.658199
0.667139
0.67544
0.683143
0.690286
0.696908
0.703034
0.708592
0.713715
0.718617
0.723158
0.727313
0.731268
0.735033
0.738619
0.74203
0.745269
0.748334
0.751225
0.753936
0.756461
0.758794
0.760918
0.762837
0.764531
0.765988
0.767195
0.768147
0.768849
0.769329
0.769632
0.769808
0.769904
0.769954
0.769978
0.76999
0.769995
0.769998
0.769999
0.77
0.77
0.77
0.77
0.77
0.77
0.77
0.77
0.77
0.77
0.77
2.27723e-06
9.95307e-06
2.28679e-05
4.45263e-05
8.06709e-05
0.000140601
0.000239164
0.000399691
0.000658154
0.00106882
0.00171145
0.00269977
0.00419001
0.0063873
0.00954639
0.0139624
0.0199489
0.0278037
0.0377697
0.0500016
0.0645473
0.0813492
0.100259
0.121062
0.143497
0.16728
0.192118
0.217719
0.243806
0.270118
0.296415
0.322485
0.348141
0.373226
0.39761
0.421189
0.443874
0.465599
0.486324
0.506026
0.524693
0.542328
0.558944
0.574563
0.589212
0.602927
0.615744
0.627703
0.638847
0.649219
0.658861
0.667817
0.676129
0.683838
0.690984
0.697605
0.703742
0.709259
0.714383
0.719279
0.723806
0.727923
0.731866
0.735622
0.739197
0.742594
0.745816
0.748862
0.751728
0.754411
0.756905
0.759204
0.761288
0.763167
0.764815
0.766222
0.767378
0.768282
0.768942
0.769387
0.769665
0.769826
0.769913
0.769958
0.76998
0.769991
0.769996
0.769998
0.769999
0.77
0.77
0.77
0.77
0.77
0.77
0.77
0.77
0.77
0.77
0.77
2.26939e-06
9.91848e-06
2.2787e-05
4.43649e-05
8.03694e-05
0.000140056
0.0002382
0.000398013
0.000655274
0.00106395
0.00170336
0.00268658
0.004169
0.00635469
0.00949728
0.0138909
0.0198483
0.0276675
0.0375922
0.0497789
0.064278
0.0810345
0.0999028
0.12067
0.143077
0.166842
0.191671
0.217276
0.243377
0.269713
0.296045
0.322159
0.347868
0.373014
0.397464
0.421107
0.443858
0.465652
0.486448
0.506218
0.524951
0.542648
0.559322
0.574994
0.589692
0.603449
0.616302
0.628293
0.639462
0.649854
0.65951
0.668476
0.676791
0.684499
0.691638
0.698246
0.704348
0.709833
0.715072
0.719926
0.724421
0.728506
0.73243
0.736169
0.739729
0.74311
0.746313
0.749337
0.752179
0.754834
0.757297
0.759562
0.761611
0.763448
0.765056
0.766422
0.767536
0.768397
0.76902
0.769436
0.769694
0.769841
0.769921
0.769962
0.769982
0.769992
0.769996
0.769998
0.769999
0.77
0.77
0.77
0.77
0.77
0.77
0.77
0.77
0.77
0.77
0.77
2.26129e-06
9.88293e-06
2.27044e-05
4.42015e-05
8.00671e-05
0.000139516
0.000237257
0.000396394
0.000652536
0.00105939
0.0016959
0.00267462
0.00415023
0.006326
0.00945467
0.0138296
0.0197634
0.0275539
0.0374463
0.0495982
0.0640624
0.0807859
0.0996254
0.120369
0.142761
0.166518
0.191348
0.216963
0.243084
0.269447
0.295815
0.321973
0.347733
0.372932
0.397434
0.421134
0.443945
0.4658
0.486655
0.506483
0.52527
0.543018
0.55974
0.575454
0.59019
0.603979
0.616861
0.628874
0.640061
0.650466
0.660131
0.6691
0.677416
0.68512
0.692252
0.698851
0.704906
0.710379
0.715615
0.720456
0.724936
0.729012
0.732928
0.736658
0.740206
0.743572
0.746758
0.749761
0.752579
0.755207
0.757639
0.759868
0.761878
0.763671
0.765242
0.766581
0.767666
0.768494
0.769086
0.769478
0.769718
0.769854
0.769928
0.769965
0.769984
0.769992
0.769997
0.769998
0.769999
0.77
0.77
0.77
0.77
0.77
0.77
0.77
0.77
0.77
0.77
0.77
2.25358e-06
9.84913e-06
2.26262e-05
4.40472e-05
7.97832e-05
0.000139012
0.000236384
0.000394905
0.000650041
0.00105527
0.00168923
0.00266404
0.00413383
0.00630122
0.00941834
0.0137781
0.0196927
0.0274608
0.0373281
0.049454
0.0638928
0.0805934
0.099414
0.120144
0.142529
0.166286
0.191124
0.216754
0.242897
0.26929
0.295694
0.321893
0.347695
0.372938
0.397491
0.421243
0.444106
0.466012
0.486917
0.506792
0.525624
0.543414
0.560173
0.575921
0.590685
0.6045
0.617401
0.629431
0.64063
0.651042
0.660711
0.66968
0.677993
0.685691
0.692814
0.699402
0.705437
0.710888
0.716107
0.720931
0.725392
0.729462
0.733371
0.737091
0.740627
0.74398
0.747149
0.750134
0.75293
0.755533
0.757938
0.760135
0.762119
0.763891
0.765429
0.766722
0.767771
0.768575
0.769142
0.769513
0.769738
0.769865
0.769933
0.769968
0.769985
0.769993
0.769997
0.769999
0.769999
0.77
0.77
0.77
0.77
0.77
0.77
0.77
0.77
0.77
0.77
0.77
2.24662e-06
9.8186e-06
2.25556e-05
4.39087e-05
7.95293e-05
0.000138564
0.00023561
0.000393596
0.000647859
0.0010517
0.0016835
0.00265501
0.00411995
0.00628047
0.00938819
0.0137357
0.0196354
0.027386
0.0372344
0.0493412
0.063762
0.0804473
0.0992566
0.119981
0.142364
0.166127
0.190977
0.216624
0.242791
0.269214
0.295651
0.321885
0.347726
0.373013
0.39761
0.421406
0.444313
0.466263
0.487209
0.507123
0.525991
0.543814
0.560602
0.576376
0.591163
0.604995
0.617911
0.629951
0.641157
0.651573
0.661243
0.670209
0.678517
0.686207
0.69332
0.699896
0.705911
0.711342
0.716541
0.721346
0.725788
0.729859
0.733762
0.737474
0.740999
0.744338
0.747491
0.750457
0.753232
0.755813
0.758193
0.760371
0.762341
0.764086
0.765597
0.766864
0.76788
0.768647
0.769191
0.769543
0.769755
0.769874
0.769938
0.76997
0.769986
0.769994
0.769997
0.769999
0.769999
0.77
0.77
0.77
0.77
0.77
0.77
0.77
0.77
0.77
0.77
0.77
2.24054e-06
9.79201e-06
2.24943e-05
4.37884e-05
7.93096e-05
0.000138177
0.000234946
0.000392475
0.000646004
0.00104868
0.00167868
0.00264748
0.00410846
0.00626342
0.00936365
0.0137016
0.0195896
0.0273271
0.0371614
0.0492545
0.0636632
0.0803391
0.0991426
0.119865
0.142253
0.166024
0.190888
0.216555
0.242745
0.269194
0.295661
0.321929
0.347806
0.373131
0.397766
0.4216
0.444545
0.466531
0.487511
0.507457
0.526354
0.544203
0.561014
0.576807
0.59161
0.605456
0.618382
0.630428
0.641638
0.652054
0.661722
0.670684
0.678985
0.686665
0.693768
0.700329
0.706323
0.711741
0.716929
0.721719
0.726142
0.73021
0.734105
0.737807
0.74132
0.744645
0.747782
0.750731
0.753491
0.756058
0.758428
0.760589
0.762534
0.764254
0.76574
0.76698
0.76797
0.768713
0.769233
0.769569
0.76977
0.769882
0.769942
0.769972
0.769987
0.769994
0.769997
0.769999
0.769999
0.77
0.77
0.77
0.77
0.77
0.77
0.77
0.77
0.77
0.77
0.77
2.23539e-06
9.76948e-06
2.24424e-05
4.36869e-05
7.91244e-05
0.000137852
0.00023439
0.000391541
0.000644463
0.00104619
0.00167472
0.00264133
0.00409915
0.0062497
0.00934406
0.0136746
0.0195538
0.0272814
0.0371057
0.0491893
0.0635903
0.080261
0.0990627
0.119787
0.142181
0.165963
0.190842
0.216527
0.242739
0.269213
0.295709
0.322007
0.347916
0.373273
0.397941
0.421807
0.444783
0.466798
0.487807
0.507778
0.526698
0.544568
0.561396
0.577204
0.592019
0.605874
0.618806
0.630856
0.642067
0.652482
0.662146
0.671103
0.679396
0.687068
0.694159
0.700708
0.706688
0.712093
0.717266
0.72204
0.72644
0.73051
0.734399
0.738092
0.741594
0.744909
0.748038
0.750979
0.753728
0.75628
0.758631
0.760772
0.762697
0.764396
0.765859
0.767076
0.768043
0.768764
0.769265
0.769589
0.769781
0.769888
0.769945
0.769974
0.769988
0.769994
0.769997
0.769999
0.769999
0.77
0.77
0.77
0.77
0.77
0.77
0.77
0.77
0.77
0.77
0.77
2.23113e-06
9.75087e-06
2.23995e-05
4.36032e-05
7.89721e-05
0.000137585
0.000233934
0.00039078
0.000643212
0.00104417
0.00167153
0.00263641
0.00409174
0.00623886
0.00932872
0.0136536
0.0195262
0.0272467
0.037064
0.0491414
0.0635378
0.0802062
0.0990086
0.119737
0.142139
0.165932
0.190825
0.216528
0.24276
0.269258
0.295778
0.322102
0.348039
0.373424
0.398119
0.422013
0.445014
0.467054
0.488084
0.508076
0.527015
0.5449
0.561742
0.577561
0.592384
0.606245
0.619181
0.631232
0.642442
0.652855
0.662515
0.671466
0.679752
0.687413
0.694494
0.701037
0.707001
0.712393
0.717555
0.722317
0.726687
0.730764
0.734647
0.738334
0.741832
0.745141
0.74826
0.75119
0.753926
0.756464
0.7588
0.760925
0.762833
0.764514
0.765958
0.767156
0.768104
0.768808
0.769295
0.769605
0.76979
0.769893
0.769948
0.769975
0.769988
0.769995
0.769998
0.769999
0.77
0.77
0.77
0.77
0.77
0.77
0.77
0.77
0.77
0.77
0.77
0.77
2.22769e-06
9.73585e-06
2.2365e-05
4.35358e-05
7.88496e-05
0.000137371
0.00023357
0.000390172
0.000642217
0.00104258
0.00166902
0.00263255
0.00408597
0.00623047
0.00931692
0.0136376
0.0195055
0.0272209
0.0370334
0.0491069
0.0635009
0.0801691
0.0989738
0.119708
0.142117
0.165921
0.190827
0.216546
0.242797
0.269315
0.295857
0.322204
0.348163
0.373571
0.398289
0.422205
0.445227
0.467286
0.488335
0.508342
0.527295
0.545192
0.562044
0.577871
0.592701
0.606565
0.619503
0.631555
0.642764
0.653173
0.662829
0.671772
0.680049
0.687705
0.69478
0.701313
0.707263
0.712645
0.717795
0.722546
0.726891
0.730976
0.734855
0.738539
0.74203
0.745332
0.748443
0.751363
0.754089
0.756616
0.758939
0.761051
0.762945
0.764611
0.76604
0.767222
0.768154
0.768844
0.769318
0.76962
0.769798
0.769897
0.76995
0.769976
0.769989
0.769995
0.769998
0.769999
0.77
0.77
0.77
0.77
0.77
0.77
0.77
0.77
0.77
0.77
0.77
0.77
2.22499e-06
9.72404e-06
2.23379e-05
4.34829e-05
7.87537e-05
0.000137204
0.000233286
0.000389699
0.000641445
0.00104134
0.00166708
0.00262959
0.00408157
0.00622411
0.00930805
0.0136257
0.0194902
0.0272022
0.0370115
0.0490827
0.0634758
0.0801449
0.0989525
0.119692
0.142108
0.165922
0.190841
0.216574
0.24284
0.269375
0.295935
0.3223
0.348279
0.373705
0.398442
0.422375
0.445414
0.467489
0.488551
0.508571
0.527535
0.545441
0.562301
0.578133
0.592966
0.606834
0.619772
0.631823
0.64303
0.653436
0.663085
0.672025
0.680299
0.687949
0.695016
0.701541
0.70748
0.712853
0.717994
0.722735
0.727057
0.731145
0.735021
0.738701
0.742189
0.745485
0.74859
0.751502
0.75422
0.756738
0.759051
0.761153
0.763035
0.764689
0.766106
0.767275
0.768194
0.768873
0.769337
0.769632
0.769805
0.769901
0.769951
0.769977
0.769989
0.769995
0.769998
0.769999
0.77
0.77
0.77
0.77
0.77
0.77
0.77
0.77
0.77
0.77
0.77
0.77
2.22294e-06
9.71508e-06
2.23173e-05
4.34428e-05
7.8681e-05
0.000137078
0.000233071
0.000389343
0.000640865
0.00104042
0.00166564
0.0026274
0.00407831
0.00621944
0.00930158
0.0136171
0.0194792
0.0271888
0.0369962
0.0490662
0.0634592
0.0801297
0.0989403
0.119684
0.142108
0.165929
0.190858
0.216603
0.242882
0.269431
0.296005
0.322385
0.348379
0.37382
0.398571
0.422518
0.445569
0.467656
0.488729
0.508758
0.52773
0.545643
0.562508
0.578344
0.59318
0.607048
0.619987
0.632036
0.64324
0.653643
0.663291
0.672228
0.680497
0.688142
0.695203
0.701721
0.707652
0.713017
0.718152
0.722886
0.727192
0.731277
0.735152
0.738829
0.742312
0.745604
0.748704
0.751611
0.754322
0.756833
0.759139
0.761232
0.763105
0.76475
0.766157
0.767316
0.768226
0.768895
0.769352
0.76964
0.76981
0.769904
0.769953
0.769977
0.769989
0.769995
0.769998
0.769999
0.77
0.77
0.77
0.77
0.77
0.77
0.77
0.77
0.77
0.77
0.77
0.77
2.22147e-06
9.70865e-06
2.23025e-05
4.3414e-05
7.86289e-05
0.000136987
0.000232918
0.000389088
0.000640452
0.00103976
0.00166462
0.00262584
0.00407602
0.00621616
0.00929706
0.0136111
0.0194716
0.0271798
0.036986
0.0490555
0.0634488
0.0801206
0.0989339
0.119682
0.14211
0.165939
0.190875
0.216629
0.242918
0.269477
0.296062
0.322453
0.348458
0.37391
0.398671
0.422628
0.445689
0.467784
0.488864
0.5089
0.527878
0.545795
0.562664
0.578503
0.59334
0.607208
0.620147
0.632196
0.643399
0.653801
0.663447
0.67238
0.680645
0.688286
0.695343
0.701856
0.707779
0.71314
0.71827
0.722999
0.727293
0.731374
0.735247
0.738922
0.742403
0.745692
0.748788
0.751691
0.754397
0.756903
0.759203
0.76129
0.763157
0.764795
0.766194
0.767346
0.768248
0.768911
0.769362
0.769647
0.769813
0.769905
0.769954
0.769978
0.76999
0.769995
0.769998
0.769999
0.77
0.77
0.77
0.77
0.77
0.77
0.77
0.77
0.77
0.77
0.77
0.77
2.22052e-06
9.70451e-06
2.2293e-05
4.33955e-05
7.85954e-05
0.000136929
0.000232819
0.000388925
0.000640187
0.00103934
0.00166396
0.00262485
0.00407456
0.00621409
0.00929422
0.0136074
0.019467
0.0271742
0.0369798
0.049049
0.0634427
0.0801156
0.0989308
0.119681
0.142114
0.165947
0.190889
0.216648
0.242943
0.269509
0.296101
0.3225
0.348512
0.373971
0.398739
0.422702
0.445769
0.46787
0.488955
0.508996
0.527976
0.545897
0.562767
0.578608
0.593446
0.607316
0.620254
0.632304
0.643506
0.653907
0.66355
0.672481
0.680744
0.688381
0.695435
0.701946
0.707864
0.713221
0.718347
0.723073
0.727359
0.731438
0.73531
0.738983
0.742463
0.745749
0.748843
0.751744
0.754447
0.756949
0.759245
0.761328
0.763191
0.764824
0.766219
0.767366
0.768263
0.768921
0.769369
0.769651
0.769816
0.769907
0.769954
0.769978
0.76999
0.769995
0.769998
0.769999
0.77
0.77
0.77
0.77
0.77
0.77
0.77
0.77
0.77
0.77
0.77
0.77
2.22007e-06
9.70252e-06
2.22884e-05
4.33866e-05
7.85794e-05
0.000136901
0.000232772
0.000388847
0.000640062
0.00103914
0.00166366
0.00262439
0.00407388
0.00621312
0.00929289
0.0136057
0.0194648
0.0271717
0.0369769
0.0490461
0.06344
0.0801135
0.0989296
0.119682
0.142116
0.165951
0.190896
0.216658
0.242956
0.269526
0.296121
0.322524
0.348539
0.374002
0.398773
0.42274
0.44581
0.467913
0.489001
0.509043
0.528026
0.545948
0.562819
0.578661
0.5935
0.60737
0.620309
0.632357
0.643559
0.653959
0.663601
0.672531
0.680793
0.688429
0.695481
0.70199
0.707906
0.713261
0.718386
0.72311
0.727392
0.73147
0.735341
0.739014
0.742492
0.745778
0.748871
0.751769
0.754471
0.756972
0.759266
0.761347
0.763207
0.764838
0.766231
0.767375
0.76827
0.768926
0.769372
0.769653
0.769817
0.769907
0.769955
0.769978
0.76999
0.769995
0.769998
0.769999
0.77
0.77
0.77
0.77
0.77
0.77
0.77
0.77
0.77
0.77
0.77
0.77
2.22008e-06
9.70258e-06
2.22886e-05
4.33869e-05
7.85799e-05
0.000136902
0.000232774
0.00038885
0.000640066
0.00103915
0.00166367
0.00262441
0.00407391
0.00621316
0.00929295
0.0136057
0.0194649
0.0271718
0.0369771
0.0490463
0.0634402
0.0801138
0.09893
0.119682
0.142116
0.165952
0.190896
0.216658
0.242957
0.269526
0.296122
0.322524
0.34854
0.374002
0.398774
0.42274
0.44581
0.467913
0.489001
0.509044
0.528026
0.545948
0.56282
0.578661
0.5935
0.60737
0.620309
0.632357
0.643559
0.653959
0.663601
0.672531
0.680793
0.688429
0.695481
0.701991
0.707906
0.713261
0.718386
0.72311
0.727392
0.73147
0.735341
0.739014
0.742492
0.745778
0.748871
0.751769
0.754471
0.756972
0.759266
0.761347
0.763207
0.764838
0.766231
0.767375
0.76827
0.768926
0.769372
0.769653
0.769817
0.769907
0.769955
0.769978
0.76999
0.769995
0.769998
0.769999
0.77
0.77
0.77
0.77
0.77
0.77
0.77
0.77
0.77
0.77
0.77
0.77
2.22056e-06
9.70469e-06
2.22934e-05
4.33963e-05
7.85968e-05
0.000136931
0.000232823
0.000388932
0.000640199
0.00103936
0.00166399
0.0026249
0.00407464
0.0062142
0.00929438
0.0136076
0.0194673
0.0271746
0.0369803
0.0490497
0.0634434
0.0801165
0.0989318
0.119683
0.142115
0.165948
0.19089
0.216649
0.242945
0.269511
0.296103
0.322502
0.348513
0.373972
0.39874
0.422704
0.44577
0.467871
0.488956
0.508997
0.527977
0.545898
0.562768
0.578609
0.593447
0.607316
0.620255
0.632304
0.643507
0.653907
0.663551
0.672481
0.680744
0.688382
0.695436
0.701946
0.707864
0.713221
0.718348
0.723073
0.727359
0.731438
0.73531
0.738983
0.742463
0.745749
0.748844
0.751744
0.754447
0.756949
0.759245
0.761328
0.763191
0.764824
0.766219
0.767366
0.768263
0.768921
0.769369
0.769651
0.769816
0.769907
0.769954
0.769978
0.76999
0.769995
0.769998
0.769999
0.77
0.77
0.77
0.77
0.77
0.77
0.77
0.77
0.77
0.77
0.77
0.77
2.22154e-06
9.70895e-06
2.23032e-05
4.34154e-05
7.86313e-05
0.000136991
0.000232925
0.0003891
0.000640472
0.00103979
0.00166467
0.00262593
0.00407615
0.00621635
0.00929734
0.0136115
0.0194722
0.0271805
0.0369869
0.0490566
0.0634501
0.0801221
0.0989355
0.119684
0.142112
0.165941
0.190878
0.216631
0.24292
0.269479
0.296064
0.322456
0.34846
0.373912
0.398673
0.42263
0.445691
0.467786
0.488866
0.508902
0.527879
0.545797
0.562665
0.578504
0.593341
0.60721
0.620148
0.632197
0.6434
0.653802
0.663448
0.672381
0.680646
0.688286
0.695343
0.701857
0.70778
0.71314
0.71827
0.722999
0.727293
0.731375
0.735247
0.738922
0.742403
0.745692
0.748788
0.751691
0.754397
0.756903
0.759203
0.76129
0.763157
0.764795
0.766194
0.767346
0.768248
0.768911
0.769362
0.769647
0.769813
0.769905
0.769954
0.769978
0.76999
0.769995
0.769998
0.769999
0.77
0.77
0.77
0.77
0.77
0.77
0.77
0.77
0.77
0.77
0.77
0.77
2.22304e-06
9.7155e-06
2.23182e-05
4.34446e-05
7.86844e-05
0.000137083
0.000233081
0.000389359
0.000640893
0.00104046
0.00166571
0.00262751
0.00407848
0.0062197
0.00930195
0.0136176
0.0194799
0.0271898
0.0369974
0.0490678
0.063461
0.0801318
0.0989427
0.119687
0.14211
0.165932
0.190861
0.216606
0.242885
0.269434
0.296008
0.322389
0.348382
0.373823
0.398574
0.422521
0.445572
0.467658
0.488731
0.508761
0.527732
0.545645
0.56251
0.578346
0.593182
0.60705
0.619988
0.632038
0.643242
0.653645
0.663292
0.672229
0.680498
0.688142
0.695204
0.701722
0.707652
0.713018
0.718152
0.722887
0.727193
0.731278
0.735152
0.738829
0.742313
0.745604
0.748704
0.751611
0.754322
0.756833
0.759139
0.761232
0.763105
0.76475
0.766157
0.767316
0.768226
0.768895
0.769352
0.76964
0.76981
0.769904
0.769953
0.769977
0.769989
0.769995
0.769998
0.769999
0.77
0.77
0.77
0.77
0.77
0.77
0.77
0.77
0.77
0.77
0.77
0.77
2.22511e-06
9.72457e-06
2.23391e-05
4.34852e-05
7.8758e-05
0.000137212
0.000233298
0.00038972
0.00064148
0.0010414
0.00166718
0.00262974
0.00408179
0.00622444
0.00930853
0.0136264
0.0194911
0.0272034
0.037013
0.0490847
0.0634781
0.0801476
0.0989555
0.119695
0.142112
0.165926
0.190845
0.216578
0.242844
0.269379
0.295939
0.322305
0.348283
0.37371
0.398446
0.422379
0.445418
0.467492
0.488554
0.508574
0.527538
0.545444
0.562303
0.578136
0.592969
0.606836
0.619774
0.631825
0.643032
0.653437
0.663087
0.672026
0.6803
0.68795
0.695017
0.701542
0.707481
0.712853
0.717995
0.722736
0.727057
0.731146
0.735022
0.738702
0.742189
0.745485
0.74859
0.751503
0.75422
0.756738
0.759051
0.761153
0.763035
0.764689
0.766106
0.767275
0.768195
0.768873
0.769337
0.769632
0.769805
0.769901
0.769951
0.769977
0.769989
0.769995
0.769998
0.769999
0.77
0.77
0.77
0.77
0.77
0.77
0.77
0.77
0.77
0.77
0.77
0.77
2.22784e-06
9.73649e-06
2.23665e-05
4.35387e-05
7.88548e-05
0.000137381
0.000233586
0.000390198
0.00064226
0.00104264
0.00166913
0.00263273
0.00408623
0.00623087
0.0093175
0.0136385
0.0195066
0.0272224
0.0370353
0.0491093
0.0635037
0.0801724
0.0989775
0.119712
0.142121
0.165925
0.190832
0.216551
0.242802
0.26932
0.295862
0.322209
0.348169
0.373576
0.398294
0.422209
0.445231
0.46729
0.488339
0.508346
0.527299
0.545196
0.562048
0.577875
0.592704
0.606568
0.619506
0.631557
0.642766
0.653175
0.66283
0.671774
0.680051
0.687706
0.694782
0.701315
0.707264
0.712646
0.717796
0.722546
0.726891
0.730976
0.734856
0.738539
0.742031
0.745332
0.748444
0.751364
0.754089
0.756616
0.758939
0.761052
0.762945
0.764611
0.76604
0.767222
0.768154
0.768844
0.769318
0.76962
0.769798
0.769897
0.76995
0.769976
0.769989
0.769995
0.769998
0.769999
0.77
0.77
0.77
0.77
0.77
0.77
0.77
0.77
0.77
0.77
0.77
0.77
2.23131e-06
9.75163e-06
2.24013e-05
4.36066e-05
7.89783e-05
0.000137596
0.000233953
0.00039081
0.000643263
0.00104425
0.00167166
0.00263662
0.00409206
0.00623933
0.0093294
0.0136546
0.0195276
0.0272485
0.0370662
0.0491442
0.0635411
0.0802101
0.099013
0.119742
0.142144
0.165937
0.190831
0.216534
0.242766
0.269264
0.295784
0.322109
0.348045
0.37343
0.398125
0.422018
0.445019
0.467059
0.488089
0.508081
0.527019
0.544904
0.561746
0.577565
0.592388
0.606248
0.619184
0.631235
0.642445
0.652858
0.662517
0.671468
0.679754
0.687415
0.694496
0.701038
0.707002
0.712395
0.717556
0.722318
0.726688
0.730765
0.734648
0.738335
0.741833
0.745141
0.748261
0.75119
0.753926
0.756465
0.7588
0.760926
0.762833
0.764514
0.765958
0.767157
0.768104
0.768808
0.769295
0.769605
0.76979
0.769893
0.769948
0.769975
0.769988
0.769995
0.769998
0.769999
0.77
0.77
0.77
0.77
0.77
0.77
0.77
0.77
0.77
0.77
0.77
0.77
2.23559e-06
9.77036e-06
2.24444e-05
4.36909e-05
7.91316e-05
0.000137865
0.000234411
0.000391577
0.000644522
0.00104629
0.00167487
0.00264157
0.00409952
0.00625024
0.00934486
0.0136757
0.0195553
0.0272834
0.0371083
0.0491926
0.0635941
0.0802655
0.0990677
0.119793
0.142187
0.165969
0.190848
0.216534
0.242746
0.269221
0.295716
0.322014
0.347923
0.37328
0.397947
0.421814
0.444789
0.466805
0.487812
0.507783
0.526704
0.544573
0.561401
0.577209
0.592024
0.605878
0.61881
0.630859
0.64207
0.652485
0.662149
0.671106
0.679399
0.68707
0.69416
0.700709
0.70669
0.712095
0.717268
0.722041
0.726441
0.730511
0.734399
0.738093
0.741594
0.744909
0.748038
0.75098
0.753728
0.75628
0.758631
0.760772
0.762697
0.764396
0.765859
0.767076
0.768043
0.768764
0.769265
0.769589
0.769781
0.769888
0.769945
0.769974
0.769988
0.769994
0.769997
0.769999
0.769999
0.77
0.77
0.77
0.77
0.77
0.77
0.77
0.77
0.77
0.77
0.77
2.24077e-06
9.79302e-06
2.24966e-05
4.3793e-05
7.93178e-05
0.000138191
0.00023497
0.000392516
0.000646071
0.00104879
0.00167885
0.00264775
0.00410888
0.00626404
0.00936456
0.0137029
0.0195914
0.0273294
0.0371644
0.0492582
0.0636676
0.0803442
0.0991484
0.119872
0.14226
0.166031
0.190895
0.216563
0.242753
0.269203
0.295669
0.321937
0.347814
0.373139
0.397774
0.421608
0.444552
0.466538
0.487518
0.507463
0.52636
0.544209
0.561019
0.576812
0.591615
0.60546
0.618386
0.630432
0.641641
0.652058
0.661725
0.670687
0.678987
0.686668
0.69377
0.700331
0.706324
0.711742
0.71693
0.72172
0.726143
0.730211
0.734106
0.737808
0.741321
0.744646
0.747783
0.750731
0.753491
0.756058
0.758428
0.760589
0.762534
0.764255
0.76574
0.766981
0.76797
0.768713
0.769233
0.769569
0.76977
0.769882
0.769942
0.769972
0.769987
0.769994
0.769997
0.769999
0.769999
0.77
0.77
0.77
0.77
0.77
0.77
0.77
0.77
0.77
0.77
0.77
2.24688e-06
9.81975e-06
2.25583e-05
4.39138e-05
7.95386e-05
0.00013858
0.000235638
0.000393642
0.000647936
0.00105183
0.00168369
0.00265532
0.00412042
0.00628117
0.00938921
0.0137372
0.0196373
0.0273886
0.0372377
0.0493453
0.0637669
0.0804531
0.0992631
0.119988
0.142372
0.166135
0.190986
0.216633
0.2428
0.269224
0.295661
0.321894
0.347735
0.373022
0.397619
0.421415
0.444322
0.466271
0.487217
0.50713
0.525998
0.543821
0.560609
0.576382
0.591168
0.605
0.617916
0.629956
0.641161
0.651577
0.661246
0.670213
0.67852
0.686209
0.693322
0.699898
0.705913
0.711344
0.716542
0.721347
0.72579
0.72986
0.733763
0.737475
0.740999
0.744339
0.747492
0.750458
0.753233
0.755813
0.758193
0.760372
0.762341
0.764087
0.765598
0.766864
0.76788
0.768647
0.769191
0.769543
0.769755
0.769874
0.769938
0.76997
0.769986
0.769994
0.769997
0.769999
0.769999
0.77
0.77
0.77
0.77
0.77
0.77
0.77
0.77
0.77
0.77
0.77
2.25388e-06
9.85042e-06
2.26291e-05
4.4053e-05
7.97937e-05
0.000139031
0.000236415
0.000394958
0.000650126
0.00105541
0.00168945
0.00266438
0.00413435
0.00630201
0.00941948
0.0137797
0.0196949
0.0274637
0.0373318
0.0494586
0.0638983
0.0805998
0.0994212
0.120152
0.142538
0.166295
0.191134
0.216764
0.242907
0.269301
0.295705
0.321904
0.347705
0.372949
0.397501
0.421253
0.444115
0.466022
0.486926
0.5068
0.525632
0.543422
0.56018
0.575927
0.590691
0.604505
0.617407
0.629436
0.640634
0.651046
0.660715
0.669684
0.677996
0.685693
0.692816
0.699404
0.705439
0.71089
0.716109
0.720933
0.725394
0.729463
0.733372
0.737092
0.740628
0.743981
0.74715
0.750134
0.752931
0.755534
0.757938
0.760136
0.76212
0.763891
0.765429
0.766722
0.767771
0.768575
0.769142
0.769513
0.769738
0.769865
0.769933
0.769968
0.769985
0.769993
0.769997
0.769999
0.769999
0.77
0.77
0.77
0.77
0.77
0.77
0.77
0.77
0.77
0.77
0.77
2.26162e-06
9.88438e-06
2.27078e-05
4.4208e-05
8.00788e-05
0.000139537
0.000237292
0.000396452
0.000652632
0.00105955
0.00169615
0.002675
0.00415082
0.00632688
0.00945595
0.0138314
0.0197658
0.0275572
0.0374504
0.0496033
0.0640685
0.080793
0.0996333
0.120378
0.14277
0.166528
0.191359
0.216975
0.243095
0.269459
0.295827
0.321985
0.347745
0.372943
0.397446
0.421145
0.443956
0.46581
0.486665
0.506492
0.525279
0.543027
0.559748
0.575462
0.590197
0.603986
0.616867
0.628879
0.640066
0.65047
0.660135
0.669104
0.677419
0.685122
0.692254
0.698852
0.704908
0.710381
0.715617
0.720459
0.724939
0.729014
0.73293
0.73666
0.740207
0.743573
0.746759
0.749762
0.75258
0.755208
0.75764
0.759868
0.761878
0.763671
0.765243
0.766581
0.767666
0.768494
0.769086
0.769478
0.769718
0.769854
0.769928
0.769965
0.769984
0.769992
0.769997
0.769998
0.769999
0.77
0.77
0.77
0.77
0.77
0.77
0.77
0.77
0.77
0.77
0.77
2.26976e-06
9.9201e-06
2.27907e-05
4.43722e-05
8.03826e-05
0.000140079
0.000238239
0.000398078
0.000655381
0.00106412
0.00170363
0.00268701
0.00416965
0.00635567
0.00949869
0.0138929
0.019851
0.027671
0.0375967
0.0497845
0.0642847
0.0810422
0.0999116
0.120679
0.143088
0.166853
0.191683
0.217288
0.24339
0.269726
0.296058
0.322172
0.347881
0.373027
0.397477
0.42112
0.443869
0.465664
0.486459
0.506228
0.52496
0.542657
0.559331
0.575002
0.5897
0.603456
0.616309
0.628299
0.639467
0.649858
0.659514
0.668478
0.676793
0.684499
0.691636
0.698243
0.704344
0.70983
0.715077
0.719934
0.724428
0.72851
0.732433
0.736172
0.739731
0.743112
0.746315
0.749338
0.75218
0.754835
0.757298
0.759563
0.761612
0.763449
0.765057
0.766423
0.767536
0.768397
0.76902
0.769437
0.769694