/*--------------------------------*- C++ -*----------------------------------*\
  =========                 |
  \\      /  F ield         | OpenFOAM: The Open Source CFD Toolbox
   \\    /   O peration     | Website:  https://openfoam.org
    \\  /    A nd           | Version:  8
     \\/     M anipulation  |
\*---------------------------------------------------------------------------*/
FoamFile
{
    version     2.0;
    format      ascii;
    class       volScalarField;
    location    "540/fluid";
    object      O2;
}
// * * * * * * * * * * * * * * * * * * * * * * * * * * * * * * * * * * * * * //

dimensions      [0 0 0 0 0 0 0];

internalField   nonuniform List<scalar> 
4000
(
4.46952e-10
1.95143e-09
4.47341e-09
8.68092e-09
1.56603e-08
2.71577e-08
4.59408e-08
7.63252e-08
1.24908e-07
2.01536e-07
3.20493e-07
5.01777e-07
7.72177e-07
1.1656e-06
1.72205e-06
2.48451e-06
3.49364e-06
4.77955e-06
6.35535e-06
8.21295e-06
1.03231e-05
1.2639e-05
1.51024e-05
1.76493e-05
2.02154e-05
2.27394e-05
2.51658e-05
2.74462e-05
2.95404e-05
3.1417e-05
3.30552e-05
3.44476e-05
3.56067e-05
3.65742e-05
3.74345e-05
3.83296e-05
3.94724e-05
4.11575e-05
4.37729e-05
4.78144e-05
5.39141e-05
6.28818e-05
7.57638e-05
9.39161e-05
0.000119108
0.000153557
0.000200408
0.000263624
0.000348426
0.00046168
0.000612404
0.000812422
0.00107722
0.00142704
0.00188834
0.00249561
0.00329385
0.0043315
0.00567018
0.00746594
0.0098082
0.0128585
0.0167622
0.0331828
0.0498586
0.0665119
0.0829291
0.0989438
0.114424
0.129261
0.143366
0.156658
0.169061
0.18045
0.190856
0.200125
0.208157
0.214855
0.220144
0.224026
0.226634
0.228229
0.229122
0.229583
0.229807
0.229913
0.229962
0.229983
0.229993
0.229997
0.229999
0.229999
0.23
0.23
0.23
0.23
0.23
0.23
0.23
0.23
4.55066e-10
1.9882e-09
4.56341e-09
8.87058e-09
1.6034e-08
2.78634e-08
4.72292e-08
7.86043e-08
1.28818e-07
2.08037e-07
3.30934e-07
5.17987e-07
7.96512e-07
1.20061e-06
1.7691e-06
2.54877e-06
3.57953e-06
4.89196e-06
6.5e-06
8.39656e-06
1.05533e-05
1.29238e-05
1.54496e-05
1.8066e-05
2.0707e-05
2.33096e-05
2.58162e-05
2.81764e-05
3.03477e-05
3.22971e-05
3.40023e-05
3.54552e-05
3.6668e-05
3.76837e-05
3.85902e-05
3.95354e-05
4.07414e-05
4.25159e-05
4.52615e-05
4.9491e-05
5.58533e-05
6.51748e-05
7.85202e-05
9.71933e-05
0.000122922
0.000158271
0.000206154
0.000270573
0.00035679
0.000471725
0.000624473
0.000826982
0.00109495
0.00144898
0.00191617
0.0025322
0.00334419
0.00440125
0.005776
0.00764158
0.010114
0.0134117
0.0179437
0.0345703
0.0513874
0.0681417
0.0846335
0.100704
0.116223
0.131086
0.1452
0.158483
0.170856
0.18218
0.192493
0.201624
0.20947
0.215934
0.220958
0.224577
0.226965
0.228404
0.229204
0.229619
0.229822
0.229919
0.229964
0.229984
0.229993
0.229997
0.229999
0.229999
0.23
0.23
0.23
0.23
0.23
0.23
0.23
0.23
4.66966e-10
2.04088e-09
4.68686e-09
9.1158e-09
1.64849e-08
2.86537e-08
4.85635e-08
8.07779e-08
1.32239e-07
2.13219e-07
3.38402e-07
5.29228e-07
8.13723e-07
1.22775e-06
1.81473e-06
2.6158e-06
3.67301e-06
5.01865e-06
6.66835e-06
8.6166e-06
1.08362e-05
1.32816e-05
1.58941e-05
1.86082e-05
2.13564e-05
2.40736e-05
2.66998e-05
2.91816e-05
3.14739e-05
3.35411e-05
3.53585e-05
3.69163e-05
3.82261e-05
3.93324e-05
4.03276e-05
4.13683e-05
4.26907e-05
4.46218e-05
4.75875e-05
5.21266e-05
5.8917e-05
6.87935e-05
8.27387e-05
0.000102205
0.000129202
0.000165915
0.000215421
0.000281758
0.00037023
0.000487806
0.000643642
0.000849764
0.00112197
0.00148102
0.00195419
0.00257744
0.00339819
0.00446449
0.00585024
0.00772741
0.0102028
0.0134757
0.0203039
0.037055
0.053972
0.0708
0.0873391
0.10343
0.118943
0.133771
0.147819
0.161002
0.173238
0.184395
0.194483
0.203343
0.21088
0.217016
0.221719
0.225062
0.227243
0.228549
0.229274
0.229651
0.229836
0.229925
0.229966
0.229985
0.229994
0.229997
0.229999
0.23
0.23
0.23
0.23
0.23
0.23
0.23
0.23
0.23
4.78154e-10
2.0898e-09
4.79941e-09
9.33515e-09
1.68816e-08
2.93397e-08
4.97108e-08
8.26443e-08
1.35393e-07
2.18696e-07
3.48262e-07
5.45029e-07
8.37554e-07
1.26189e-06
1.86055e-06
2.67931e-06
3.76175e-06
5.14197e-06
6.83754e-06
8.84472e-06
1.11376e-05
1.36711e-05
1.63863e-05
1.92166e-05
2.20928e-05
2.49473e-05
2.77175e-05
3.0347e-05
3.27879e-05
3.50014e-05
3.69604e-05
3.8653e-05
4.00901e-05
4.13182e-05
4.24351e-05
4.36086e-05
4.50924e-05
4.7237e-05
5.04984e-05
5.54339e-05
6.27106e-05
7.31857e-05
8.80444e-05
0.000108871
0.000137334
0.000175829
0.00022748
0.000296381
0.000387898
0.000509072
0.000669142
0.000880224
0.00115822
0.00152399
0.00200496
0.00263721
0.00346834
0.00454476
0.00594192
0.00783278
0.010324
0.0136198
0.0233719
0.0401639
0.0571179
0.0739677
0.0905059
0.106569
0.122023
0.136758
0.150678
0.163696
0.175727
0.186688
0.196497
0.205051
0.212265
0.218072
0.222465
0.225544
0.227526
0.228702
0.229351
0.229687
0.229853
0.229932
0.229969
0.229986
0.229994
0.229997
0.229999
0.23
0.23
0.23
0.23
0.23
0.23
0.23
0.23
0.23
4.88661e-10
2.13548e-09
4.90406e-09
9.53971e-09
1.7258e-08
3.00174e-08
5.09313e-08
8.48763e-08
1.39129e-07
2.246e-07
3.57022e-07
5.58287e-07
8.57624e-07
1.29203e-06
1.90526e-06
2.74474e-06
3.85593e-06
5.27509e-06
7.02195e-06
9.09471e-06
1.14689e-05
1.41e-05
1.69291e-05
1.98885e-05
2.29071e-05
2.59152e-05
2.88472e-05
3.16438e-05
3.42538e-05
3.66353e-05
3.87584e-05
4.0609e-05
4.21977e-05
4.35733e-05
4.48411e-05
4.61824e-05
4.78728e-05
5.02831e-05
5.38758e-05
5.92016e-05
6.70352e-05
7.84701e-05
9.46716e-05
0.000116958
0.000147234
0.00018796
0.000242341
0.000314566
0.000410119
0.000536181
0.000702159
0.000920369
0.00120695
0.00158304
0.00207643
0.00272363
0.00357251
0.00466517
0.00608373
0.00800829
0.0105467
0.0138938
0.026701
0.0434788
0.0604258
0.0772607
0.0937651
0.109768
0.125132
0.139745
0.153511
0.166341
0.178136
0.188853
0.198382
0.206634
0.213531
0.219022
0.223125
0.225963
0.22777
0.228832
0.229416
0.229718
0.229867
0.229939
0.229972
0.229988
0.229995
0.229998
0.229999
0.23
0.23
0.23
0.23
0.23
0.23
0.23
0.23
0.23
4.99958e-10
2.18518e-09
5.01932e-09
9.76612e-09
1.76701e-08
3.07323e-08
5.2121e-08
8.67619e-08
1.42151e-07
2.29427e-07
3.64678e-07
5.70341e-07
8.76419e-07
1.32099e-06
1.94928e-06
2.81054e-06
3.95248e-06
5.41383e-06
7.21675e-06
9.36154e-06
1.18252e-05
1.45639e-05
1.75184e-05
2.06199e-05
2.37955e-05
2.69731e-05
3.0084e-05
3.3066e-05
3.58644e-05
3.84341e-05
4.0742e-05
4.27721e-05
4.45345e-05
4.60815e-05
4.7528e-05
4.90685e-05
5.09836e-05
5.3649e-05
5.7605e-05
6.35451e-05
7.2387e-05
8.49575e-05
0.000102475
0.000126468
0.000158904
0.000202332
0.000260078
0.000336485
0.000437237
0.000569767
0.000743799
0.000972045
0.00127112
0.00166276
0.00217537
0.00284614
0.00372127
0.00484401
0.00630485
0.00827721
0.0108658
0.0142377
0.0299031
0.0466197
0.0635597
0.0803875
0.0968618
0.112803
0.128072
0.142557
0.156164
0.168806
0.180361
0.19084
0.200102
0.208066
0.214667
0.21987
0.22371
0.226334
0.227986
0.22895
0.229475
0.229747
0.229881
0.229945
0.229975
0.229989
0.229995
0.229998
0.229999
0.23
0.23
0.23
0.23
0.23
0.23
0.23
0.23
0.23
5.10142e-10
2.2296e-09
5.12103e-09
9.96329e-09
1.80254e-08
3.13479e-08
5.31624e-08
8.84962e-08
1.4501e-07
2.34098e-07
3.72236e-07
5.82437e-07
8.95546e-07
1.35082e-06
1.99507e-06
2.87958e-06
4.05452e-06
5.56128e-06
7.4247e-06
9.64739e-06
1.2208e-05
1.50635e-05
1.81544e-05
2.14107e-05
2.47579e-05
2.81211e-05
3.14288e-05
3.46152e-05
3.76224e-05
4.04015e-05
4.29164e-05
4.51484e-05
4.71074e-05
4.88489e-05
5.04789e-05
5.21889e-05
5.42972e-05
5.7284e-05
6.18379e-05
6.8654e-05
7.84437e-05
9.2239e-05
0.000111315
0.000137283
0.000172205
0.000218761
0.000280439
0.000361805
0.000468836
0.000609358
0.00079362
0.00103504
0.00135118
0.00176502
0.00230665
0.00301541
0.00394241
0.00511869
0.00665429
0.00871116
0.0113776
0.0147651
0.0317265
0.048963
0.0661793
0.083137
0.0996462
0.115556
0.130744
0.14511
0.158566
0.171033
0.182385
0.192648
0.201656
0.209346
0.21567
0.220608
0.224215
0.226651
0.22817
0.229049
0.229526
0.229771
0.229892
0.22995
0.229977
0.22999
0.229996
0.229998
0.229999
0.23
0.23
0.23
0.23
0.23
0.23
0.23
0.23
0.23
5.19629e-10
2.27099e-09
5.21589e-09
1.01476e-08
1.83591e-08
3.19304e-08
5.41577e-08
9.01726e-08
1.47803e-07
2.38705e-07
3.79759e-07
5.94589e-07
9.14936e-07
1.38133e-06
2.0423e-06
2.95137e-06
4.16135e-06
5.7166e-06
7.64486e-06
9.95131e-06
1.26164e-05
1.5598e-05
1.88366e-05
2.22611e-05
2.57951e-05
2.93611e-05
3.28846e-05
3.62963e-05
3.95345e-05
4.2547e-05
4.52942e-05
4.77564e-05
4.99303e-05
5.18524e-05
5.36264e-05
5.55231e-05
5.80386e-05
6.16568e-05
6.68745e-05
7.44448e-05
8.52537e-05
0.000100378
0.00012115
0.000149258
0.00018687
0.000236799
0.000302721
0.000389449
0.000503302
0.00065257
0.000848152
0.00110438
0.00144013
0.00188029
0.00245776
0.00321613
0.00421293
0.00548695
0.00721852
0.00950928
0.0125481
0.016519
0.0338273
0.0513015
0.0686584
0.0856783
0.102187
0.118047
0.133145
0.147386
0.16069
0.172983
0.18415
0.194185
0.202976
0.210444
0.216532
0.22124
0.224644
0.22692
0.228326
0.229133
0.229569
0.229792
0.229902
0.229955
0.229979
0.229991
0.229996
0.229998
0.229999
0.23
0.23
0.23
0.23
0.23
0.23
0.23
0.23
0.23
5.28793e-10
2.31102e-09
5.30783e-09
1.03269e-08
1.86851e-08
3.25023e-08
5.51405e-08
9.1838e-08
1.50595e-07
2.4334e-07
3.87376e-07
6.0697e-07
9.34811e-07
1.41278e-06
2.09125e-06
3.02613e-06
4.2731e-06
5.87969e-06
7.87685e-06
1.02726e-05
1.30494e-05
1.61664e-05
1.9564e-05
2.31705e-05
2.69073e-05
3.06946e-05
3.44546e-05
3.81143e-05
4.16082e-05
4.48801e-05
4.78844e-05
5.05773e-05
5.29372e-05
5.50516e-05
5.71165e-05
5.95025e-05
6.24766e-05
6.65735e-05
7.24467e-05
8.0881e-05
9.28091e-05
0.000109356
0.000131915
0.000162244
0.000202606
0.00025594
0.000326082
0.000418062
0.000538478
0.000696001
0.000902036
0.00117161
0.00152456
0.00198715
0.00259421
0.00339221
0.00443518
0.00578182
0.00762376
0.0100733
0.0133546
0.0184931
0.0359949
0.0535877
0.0710028
0.0880302
0.104505
0.120294
0.13529
0.149402
0.162549
0.17465
0.185607
0.195404
0.203995
0.211313
0.217242
0.22177
0.225004
0.227146
0.228456
0.229203
0.229605
0.22981
0.22991
0.229959
0.229981
0.229992
0.229996
0.229998
0.229999
0.23
0.23
0.23
0.23
0.23
0.23
0.23
0.23
0.23
5.3777e-10
2.35026e-09
5.3981e-09
1.05032e-08
1.90066e-08
3.30681e-08
5.6116e-08
9.34976e-08
1.53388e-07
2.47998e-07
3.95065e-07
6.19527e-07
9.55064e-07
1.44498e-06
2.1416e-06
3.10335e-06
4.38899e-06
6.04947e-06
8.11922e-06
1.06094e-05
1.35049e-05
1.67663e-05
2.03345e-05
2.41371e-05
2.80939e-05
3.21225e-05
3.61417e-05
4.00748e-05
4.38514e-05
4.73986e-05
5.06431e-05
5.35411e-05
5.61402e-05
5.86252e-05
6.11659e-05
6.39398e-05
6.73779e-05
7.20553e-05
7.86745e-05
8.80639e-05
0.000101198
0.000119245
0.000143648
0.00017623
0.000219328
0.000275979
0.00035014
0.000446985
0.000573289
0.00073793
0.000952556
0.00123246
0.00159776
0.00207494
0.00269892
0.00351589
0.00457743
0.00593861
0.00778731
0.0102187
0.0134239
0.0206409
0.0381722
0.0557755
0.073179
0.0901717
0.106588
0.122295
0.137188
0.151175
0.164176
0.176113
0.186932
0.196611
0.205017
0.212085
0.217819
0.222215
0.22531
0.227338
0.228567
0.229263
0.229635
0.229825
0.229917
0.229962
0.229983
0.229992
0.229997
0.229999
0.229999
0.23
0.23
0.23
0.23
0.23
0.23
0.23
0.23
0.23
5.46576e-10
2.38876e-09
5.48676e-09
1.06767e-08
1.93234e-08
3.3627e-08
5.70823e-08
9.51462e-08
1.56173e-07
2.52656e-07
4.02785e-07
6.32182e-07
9.75555e-07
1.47768e-06
2.19292e-06
3.18236e-06
4.50799e-06
6.22443e-06
8.36988e-06
1.09589e-05
1.39795e-05
1.73939e-05
2.1144e-05
2.5157e-05
2.93518e-05
3.36437e-05
3.79484e-05
4.21849e-05
4.62584e-05
5.0067e-05
5.3565e-05
5.68599e-05
5.99677e-05
6.28668e-05
6.57561e-05
6.89516e-05
7.29119e-05
7.82496e-05
8.57057e-05
9.61445e-05
0.000110575
0.000130205
0.000156519
0.000191393
0.00023723
0.000297141
0.000375171
0.000476593
0.000608291
0.000779255
0.00100124
0.00128962
0.00166454
0.00215242
0.00278797
0.00361686
0.00468853
0.00605712
0.00790953
0.0103382
0.0135321
0.0226927
0.0402166
0.0577961
0.0751589
0.092094
0.108435
0.12405
0.138834
0.152699
0.16557
0.177408
0.188149
0.197685
0.205943
0.212865
0.218414
0.222605
0.22558
0.227504
0.228662
0.229314
0.229661
0.229837
0.229923
0.229965
0.229984
0.229993
0.229997
0.229999
0.229999
0.23
0.23
0.23
0.23
0.23
0.23
0.23
0.23
0.23
5.55144e-10
2.42625e-09
5.57313e-09
1.08458e-08
1.96328e-08
3.41738e-08
5.80297e-08
9.67669e-08
1.58917e-07
2.57263e-07
4.10442e-07
6.44777e-07
9.96018e-07
1.51045e-06
2.24454e-06
3.26212e-06
4.62855e-06
6.40234e-06
8.62575e-06
1.13172e-05
1.44679e-05
1.80427e-05
2.19849e-05
2.62222e-05
3.0673e-05
3.52516e-05
3.98718e-05
4.4429e-05
4.88099e-05
5.29864e-05
5.70119e-05
6.07556e-05
6.42361e-05
6.75411e-05
7.08789e-05
7.45954e-05
7.91821e-05
8.52904e-05
9.36971e-05
0.000105299
0.000121136
0.000142452
0.000170771
0.000208019
0.000256656
0.000319859
0.000401747
0.000507675
0.000644608
0.000821617
0.00105053
0.00134676
0.00173047
0.002228
0.00287388
0.00371308
0.00479353
0.00617187
0.00803349
0.0104666
0.0136585
0.0245186
0.0420311
0.0595809
0.0768968
0.0937617
0.110019
0.125543
0.140248
0.154043
0.166859
0.178601
0.18921
0.198608
0.206725
0.213503
0.218909
0.222971
0.22581
0.227646
0.228742
0.229356
0.229683
0.229848
0.229928
0.229967
0.229985
0.229993
0.229997
0.229999
0.229999
0.23
0.23
0.23
0.23
0.23
0.23
0.23
0.23
0.23
5.63364e-10
2.46221e-09
5.65605e-09
1.10084e-08
1.99305e-08
3.47008e-08
5.89447e-08
9.83356e-08
1.61581e-07
2.61745e-07
4.17915e-07
6.57107e-07
1.01611e-06
1.54275e-06
2.29558e-06
3.34126e-06
4.74863e-06
6.58024e-06
8.88265e-06
1.16785e-05
1.49627e-05
1.87032e-05
2.28452e-05
2.73178e-05
3.20394e-05
3.69235e-05
4.18628e-05
4.67462e-05
5.15383e-05
5.62454e-05
6.07205e-05
6.49297e-05
6.88887e-05
7.27008e-05
7.65994e-05
8.09597e-05
8.6303e-05
9.33162e-05
0.000102809
0.000115706
0.00013308
0.000156207
0.000186655
0.000226396
0.000277949
0.000344553
0.000430401
0.00054092
0.000683156
0.000866258
0.00110212
0.00140623
0.00179875
0.00230598
0.00296196
0.00381199
0.00490377
0.0062926
0.00816322
0.0106022
0.0137887
0.0260817
0.0435937
0.0611197
0.0783841
0.095204
0.11142
0.126907
0.14155
0.155263
0.167974
0.17961
0.190106
0.199385
0.207379
0.214029
0.219309
0.223251
0.225986
0.227754
0.228805
0.22939
0.2297
0.229856
0.229932
0.229969
0.229986
0.229994
0.229997
0.229999
0.229999
0.23
0.23
0.23
0.23
0.23
0.23
0.23
0.23
0.23
5.71091e-10
2.49602e-09
5.73405e-09
1.11614e-08
2.02112e-08
3.51983e-08
5.981e-08
9.98223e-08
1.64111e-07
2.66013e-07
4.25051e-07
6.68915e-07
1.03542e-06
1.57388e-06
2.34495e-06
3.41809e-06
4.86568e-06
6.75437e-06
9.13522e-06
1.20354e-05
1.54541e-05
1.93626e-05
2.37092e-05
2.84248e-05
3.34294e-05
3.86243e-05
4.39001e-05
4.92058e-05
5.45238e-05
5.97048e-05
6.46857e-05
6.94307e-05
7.39586e-05
7.8387e-05
8.29756e-05
8.81239e-05
9.4375e-05
0.000102447
0.000113176
0.000127515
0.000146567
0.000171644
0.000204358
0.000246731
0.000301341
0.000371492
0.000461445
0.000576701
0.000724379
0.000913701
0.00115662
0.00146868
0.00186993
0.00238644
0.00305288
0.00391495
0.00501698
0.00641637
0.00829713
0.0107437
0.0139204
0.0274029
0.0449245
0.0624357
0.0796909
0.0964804
0.112648
0.128069
0.142642
0.156279
0.168906
0.180453
0.190855
0.200036
0.207925
0.21447
0.219646
0.223492
0.226148
0.227844
0.228855
0.229418
0.229714
0.229863
0.229936
0.22997
0.229987
0.229994
0.229997
0.229999
0.23
0.23
0.23
0.23
0.23
0.23
0.23
0.23
0.23
0.23
5.78161e-10
2.52697e-09
5.80546e-09
1.13016e-08
2.04686e-08
3.56553e-08
6.06062e-08
1.01193e-07
1.66448e-07
2.69966e-07
4.31677e-07
6.79909e-07
1.05345e-06
1.60304e-06
2.39138e-06
3.49061e-06
4.9766e-06
6.92013e-06
9.37682e-06
1.23786e-05
1.59291e-05
2.00038e-05
2.45547e-05
2.95155e-05
3.4805e-05
4.03181e-05
4.5996e-05
5.18016e-05
5.75955e-05
6.33e-05
6.8851e-05
7.42133e-05
7.94122e-05
8.4583e-05
9.00122e-05
9.61143e-05
0.000103442
0.000112736
0.000124858
0.000140787
0.000161657
0.000188821
0.000223937
0.000269082
0.000326892
0.000400736
0.000494941
0.000615078
0.000768332
0.000963972
0.00121392
0.00153348
0.00194288
0.00246901
0.00314606
0.00401813
0.00512883
0.00653641
0.0084243
0.0108759
0.0140468
0.0285067
0.0460468
0.0635563
0.0807864
0.0975403
0.113663
0.129032
0.143545
0.157118
0.169676
0.181149
0.191474
0.200572
0.208376
0.214833
0.219922
0.223689
0.226278
0.227925
0.228898
0.229439
0.229725
0.229868
0.229938
0.229972
0.229987
0.229994
0.229997
0.229999
0.23
0.23
0.23
0.23
0.23
0.23
0.23
0.23
0.23
0.23
5.844e-10
2.55428e-09
5.86852e-09
1.14255e-08
2.06962e-08
3.60599e-08
6.13122e-08
1.0241e-07
1.68529e-07
2.73493e-07
4.37603e-07
6.89769e-07
1.06967e-06
1.62936e-06
2.43342e-06
3.55655e-06
5.0779e-06
7.07221e-06
9.59962e-06
1.26968e-05
1.63722e-05
2.06058e-05
2.53536e-05
3.05525e-05
3.61212e-05
4.19884e-05
4.81073e-05
5.43556e-05
6.06518e-05
6.69204e-05
7.30996e-05
7.91587e-05
8.51339e-05
9.11831e-05
9.76178e-05
0.00010485
0.000113425
0.000124102
0.000137761
0.00015541
0.000178218
0.000207583
0.000245214
0.000293245
0.000354371
0.000432029
0.000530613
0.00065574
0.000814602
0.0010164
0.00127318
0.0016006
0.00201905
0.0025541
0.00323949
0.00411905
0.00523471
0.00664277
0.008523
0.0109514
0.0140616
0.0293946
0.0469498
0.0644603
0.0816745
0.0984004
0.114487
0.129812
0.144277
0.157797
0.170298
0.181711
0.191973
0.201005
0.208739
0.215124
0.220143
0.223845
0.226382
0.227989
0.228935
0.229459
0.229734
0.229873
0.22994
0.229973
0.229988
0.229994
0.229998
0.229999
0.23
0.23
0.23
0.23
0.23
0.23
0.23
0.23
0.23
0.23
5.89636e-10
2.57721e-09
5.92146e-09
1.15296e-08
2.08877e-08
3.64006e-08
6.19074e-08
1.03438e-07
1.70289e-07
2.76482e-07
4.42638e-07
6.98169e-07
1.08353e-06
1.65192e-06
2.46958e-06
3.61349e-06
5.16576e-06
7.20478e-06
9.79493e-06
1.29776e-05
1.6766e-05
2.11454e-05
2.60771e-05
3.15037e-05
3.73531e-05
4.35666e-05
5.00557e-05
5.67393e-05
6.35403e-05
7.0389e-05
7.72303e-05
8.40441e-05
9.08845e-05
9.79374e-05
0.000105535
0.000114058
0.000124026
0.000136209
0.000151506
0.000170956
0.00019577
0.000227393
0.000267593
0.00031856
0.000383048
0.000464543
0.000567469
0.000697466
0.000861839
0.00107002
0.00133424
0.00167
0.00209698
0.00264098
0.00333543
0.00422369
0.00534632
0.0067597
0.00864253
0.0110695
0.0141673
0.0300851
0.0476661
0.0651771
0.0823778
0.0990806
0.115137
0.130427
0.144852
0.15833
0.170786
0.182152
0.192364
0.201342
0.209021
0.215351
0.220314
0.223966
0.226461
0.228037
0.228962
0.229474
0.229742
0.229876
0.229942
0.229973
0.229988
0.229995
0.229998
0.229999
0.23
0.23
0.23
0.23
0.23
0.23
0.23
0.23
0.23
0.23
5.93711e-10
2.59505e-09
5.96269e-09
1.16107e-08
2.10369e-08
3.66664e-08
6.23724e-08
1.04242e-07
1.71668e-07
2.78829e-07
4.46599e-07
7.04792e-07
1.09448e-06
1.66981e-06
2.49835e-06
3.65896e-06
5.2362e-06
7.31153e-06
9.95295e-06
1.32058e-05
1.70878e-05
2.15883e-05
2.66726e-05
3.22876e-05
3.83756e-05
4.48767e-05
5.1703e-05
5.87841e-05
6.6053e-05
7.34505e-05
8.09352e-05
8.85048e-05
9.62406e-05
0.000104365
0.000113222
0.000123133
0.000134565
0.000148294
0.000165239
0.000186472
0.000213247
0.000247057
0.000289722
0.000343491
0.000411178
0.000496326
0.000603464
0.000738394
0.00090857
0.00112342
0.00139481
0.00173823
0.00217354
0.00272637
0.00342979
0.00432667
0.00545617
0.00687432
0.00875806
0.0111789
0.0142547
0.0305945
0.0482006
0.065716
0.0829077
0.0995925
0.115625
0.130887
0.145282
0.158727
0.171149
0.182478
0.192652
0.201591
0.209229
0.215517
0.220439
0.224054
0.226518
0.228071
0.228982
0.229484
0.229747
0.229879
0.229943
0.229974
0.229988
0.229995
0.229998
0.229999
0.23
0.23
0.23
0.23
0.23
0.23
0.23
0.23
0.23
0.23
5.96491e-10
2.60722e-09
5.99082e-09
1.16661e-08
2.11388e-08
3.68479e-08
6.269e-08
1.04792e-07
1.72611e-07
2.80435e-07
4.49312e-07
7.09337e-07
1.10201e-06
1.68213e-06
2.51821e-06
3.69043e-06
5.28511e-06
7.38593e-06
1.00635e-05
1.33663e-05
1.73153e-05
2.19038e-05
2.71016e-05
3.28614e-05
3.91301e-05
4.58372e-05
5.29163e-05
6.03032e-05
6.79399e-05
7.57789e-05
8.3794e-05
9.20055e-05
0.000100527
0.000109621
0.000119616
0.000130886
0.000143716
0.00015887
0.000177292
0.000200093
0.000228573
0.000264282
0.000309097
0.000365333
0.000435883
0.0005244
0.00063548
0.000774969
0.000950196
0.00117062
0.00144831
0.00179871
0.0022416
0.00280244
0.00351397
0.00441849
0.00555384
0.00697519
0.00885731
0.011268
0.0143171
0.0309313
0.0485629
0.0660847
0.0832708
0.0999424
0.115957
0.131199
0.145572
0.158993
0.171391
0.182695
0.192843
0.201756
0.209366
0.215626
0.220521
0.224111
0.226555
0.228093
0.228995
0.229491
0.229751
0.229881
0.229944
0.229974
0.229988
0.229995
0.229998
0.229999
0.23
0.23
0.23
0.23
0.23
0.23
0.23
0.23
0.23
0.23
5.97884e-10
2.61331e-09
6.00485e-09
1.16936e-08
2.11893e-08
3.69376e-08
6.28466e-08
1.05062e-07
1.73074e-07
2.81223e-07
4.50641e-07
7.11561e-07
1.1057e-06
1.68817e-06
2.52796e-06
3.70593e-06
5.30928e-06
7.42286e-06
1.01187e-05
1.3447e-05
1.74305e-05
2.20647e-05
2.73217e-05
3.31563e-05
3.95125e-05
4.63284e-05
5.35415e-05
6.10925e-05
6.89291e-05
7.70118e-05
8.53247e-05
9.39022e-05
0.000102877
0.000112513
0.000123208
0.000135393
0.000149439
0.000165679
0.000185148
0.000209022
0.000238653
0.000275641
0.000321909
0.000379817
0.0004523
0.000543036
0.000656663
0.000799048
0.00097764
0.00120192
0.00148399
0.00183929
0.0022876
0.00285423
0.00357174
0.00448197
0.00562179
0.00704545
0.00892561
0.0113262
0.0143497
0.0310979
0.0487522
0.06628
0.0834628
0.100126
0.11613
0.131359
0.145719
0.159128
0.171512
0.182803
0.192937
0.201836
0.209432
0.215678
0.22056
0.224138
0.226572
0.228104
0.229
0.229494
0.229752
0.229882
0.229944
0.229974
0.229988
0.229995
0.229998
0.229999
0.23
0.23
0.23
0.23
0.23
0.23
0.23
0.23
0.23
0.23
5.97888e-10
2.61333e-09
6.0049e-09
1.16937e-08
2.11895e-08
3.6938e-08
6.28473e-08
1.05064e-07
1.73076e-07
2.81226e-07
4.50647e-07
7.11571e-07
1.10572e-06
1.68819e-06
2.52801e-06
3.706e-06
5.30939e-06
7.42303e-06
1.0119e-05
1.34474e-05
1.74311e-05
2.20655e-05
2.73227e-05
3.31574e-05
3.95134e-05
4.63289e-05
5.35417e-05
6.10925e-05
6.8929e-05
7.70116e-05
8.53245e-05
9.39019e-05
0.000102877
0.000112513
0.000123208
0.000135393
0.000149439
0.000165679
0.000185148
0.000209022
0.000238654
0.000275642
0.000321909
0.000379818
0.000452302
0.000543039
0.000656666
0.000799052
0.000977645
0.00120193
0.001484
0.0018393
0.00228761
0.00285425
0.00357176
0.004482
0.00562181
0.00704548
0.00892565
0.0113263
0.0143498
0.0310982
0.0487524
0.0662803
0.0834631
0.100126
0.11613
0.131359
0.145719
0.159128
0.171512
0.182803
0.192937
0.201836
0.209432
0.215678
0.22056
0.224138
0.226572
0.228104
0.229
0.229494
0.229752
0.229882
0.229944
0.229974
0.229988
0.229995
0.229998
0.229999
0.23
0.23
0.23
0.23
0.23
0.23
0.23
0.23
0.23
0.23
5.96504e-10
2.60728e-09
5.99095e-09
1.16663e-08
2.11393e-08
3.68488e-08
6.26917e-08
1.04795e-07
1.72616e-07
2.80444e-07
4.49328e-07
7.09362e-07
1.10206e-06
1.6822e-06
2.51833e-06
3.69062e-06
5.2854e-06
7.38639e-06
1.00643e-05
1.33675e-05
1.73171e-05
2.19067e-05
2.71059e-05
3.28674e-05
3.9133e-05
4.58385e-05
5.29165e-05
6.03028e-05
6.79391e-05
7.57779e-05
8.3793e-05
9.20045e-05
0.000100527
0.00010962
0.000119615
0.000130885
0.000143716
0.000158869
0.000177292
0.000200093
0.000228574
0.000264283
0.000309098
0.000365335
0.000435887
0.000524406
0.000635487
0.000774979
0.000950209
0.00117064
0.00144834
0.00179873
0.00224164
0.00280248
0.00351402
0.00441855
0.00555391
0.00697529
0.00885743
0.0112681
0.0143172
0.0309322
0.0485637
0.0660855
0.0832715
0.0999431
0.115958
0.131199
0.145572
0.158994
0.171391
0.182695
0.192844
0.201756
0.209366
0.215626
0.220521
0.224111
0.226555
0.228093
0.228995
0.229491
0.229751
0.229881
0.229944
0.229974
0.229988
0.229995
0.229998
0.229999
0.23
0.23
0.23
0.23
0.23
0.23
0.23
0.23
0.23
0.23
5.93727e-10
2.59512e-09
5.96285e-09
1.16111e-08
2.10375e-08
3.66674e-08
6.23742e-08
1.04245e-07
1.71673e-07
2.78836e-07
4.4661e-07
7.0481e-07
1.09451e-06
1.66985e-06
2.4984e-06
3.65902e-06
5.23627e-06
7.31162e-06
9.95304e-06
1.32059e-05
1.70878e-05
2.15884e-05
2.6673e-05
3.22887e-05
3.83764e-05
4.48779e-05
5.17046e-05
5.87861e-05
6.60552e-05
7.34529e-05
8.09378e-05
8.85075e-05
9.62436e-05
0.000104369
0.000113226
0.000123137
0.00013457
0.000148299
0.000165245
0.000186479
0.000213254
0.000247065
0.00028973
0.000343499
0.000411186
0.000496334
0.000603474
0.00073841
0.000908591
0.00112345
0.00139484
0.00173827
0.0021736
0.00272644
0.00342988
0.00432678
0.0054563
0.00687448
0.00875825
0.0111792
0.014255
0.0305961
0.048202
0.0657174
0.082909
0.0995937
0.115626
0.130888
0.145283
0.158728
0.171149
0.182479
0.192653
0.201592
0.209229
0.215517
0.22044
0.224054
0.226518
0.228071
0.228982
0.229484
0.229747
0.229879
0.229943
0.229974
0.229988
0.229995
0.229998
0.229999
0.23
0.23
0.23
0.23
0.23
0.23
0.23
0.23
0.23
0.23
5.89657e-10
2.5773e-09
5.92167e-09
1.153e-08
2.08884e-08
3.64018e-08
6.19096e-08
1.03442e-07
1.70295e-07
2.76491e-07
4.42651e-07
6.9819e-07
1.08356e-06
1.65196e-06
2.46964e-06
3.61356e-06
5.16584e-06
7.20487e-06
9.79503e-06
1.29777e-05
1.6766e-05
2.11453e-05
2.60766e-05
3.15029e-05
3.73549e-05
4.35692e-05
5.00582e-05
5.67417e-05
6.35426e-05
7.03912e-05
7.72326e-05
8.40465e-05
9.0887e-05
9.79402e-05
0.000105538
0.000114062
0.00012403
0.000136213
0.000151511
0.000170962
0.000195777
0.000227402
0.000267604
0.000318573
0.000383063
0.00046456
0.000567489
0.000697486
0.000861863
0.00107005
0.00133428
0.00167006
0.00209705
0.00264107
0.00333554
0.00422383
0.0053465
0.00675992
0.00864281
0.0110698
0.0141677
0.0300873
0.0476683
0.0651791
0.0823797
0.0990823
0.115138
0.130428
0.144854
0.158331
0.170787
0.182153
0.192364
0.201343
0.209022
0.215351
0.220314
0.223966
0.226461
0.228037
0.228962
0.229474
0.229742
0.229876
0.229942
0.229973
0.229988
0.229995
0.229998
0.229999
0.23
0.23
0.23
0.23
0.23
0.23
0.23
0.23
0.23
0.23
5.84425e-10
2.55439e-09
5.86876e-09
1.1426e-08
2.06971e-08
3.60614e-08
6.13147e-08
1.02414e-07
1.68535e-07
2.73503e-07
4.37619e-07
6.89793e-07
1.06971e-06
1.62941e-06
2.43348e-06
3.55663e-06
5.07799e-06
7.07231e-06
9.59974e-06
1.2697e-05
1.63724e-05
2.06061e-05
2.53541e-05
3.05537e-05
3.61256e-05
4.19911e-05
4.81092e-05
5.43572e-05
6.06533e-05
6.69219e-05
7.31011e-05
7.91603e-05
8.51358e-05
9.11851e-05
9.76201e-05
0.000104853
0.000113429
0.000124106
0.000137766
0.000155415
0.000178225
0.000207591
0.000245224
0.000293257
0.000354386
0.000432047
0.000530636
0.000655767
0.000814635
0.00101644
0.00127323
0.00160066
0.00201913
0.00255421
0.00323963
0.00411923
0.00523492
0.00664305
0.00852335
0.0109519
0.0140621
0.0293976
0.0469528
0.0644632
0.0816771
0.0984028
0.114489
0.129814
0.144278
0.157799
0.1703
0.181713
0.191974
0.201005
0.208739
0.215125
0.220143
0.223846
0.226382
0.227989
0.228935
0.229459
0.229734
0.229873
0.22994
0.229973
0.229988
0.229994
0.229998
0.229999
0.23
0.23
0.23
0.23
0.23
0.23
0.23
0.23
0.23
0.23
5.7819e-10
2.52709e-09
5.80575e-09
1.13022e-08
2.04696e-08
3.5657e-08
6.06091e-08
1.01197e-07
1.66456e-07
2.69978e-07
4.31695e-07
6.79937e-07
1.05349e-06
1.6031e-06
2.39145e-06
3.4907e-06
4.9767e-06
6.92023e-06
9.3769e-06
1.23786e-05
1.5929e-05
2.00035e-05
2.45539e-05
2.95136e-05
3.48026e-05
4.03178e-05
4.59966e-05
5.18026e-05
5.75965e-05
6.3301e-05
6.88519e-05
7.42143e-05
7.94133e-05
8.45843e-05
9.00137e-05
9.61162e-05
0.000103444
0.000112739
0.000124862
0.000140792
0.000161663
0.000188828
0.000223946
0.000269093
0.000326905
0.000400753
0.000494962
0.000615105
0.000768366
0.000964014
0.00121397
0.00153354
0.00194296
0.00246912
0.00314619
0.0040183
0.00512904
0.00653667
0.00842464
0.0108764
0.0140473
0.0285106
0.0460505
0.0635599
0.0807899
0.0975436
0.113666
0.129034
0.143547
0.15712
0.169677
0.18115
0.191475
0.200573
0.208376
0.214833
0.219922
0.223689
0.226279
0.227925
0.228898
0.229439
0.229725
0.229868
0.229938
0.229972
0.229987
0.229994
0.229997
0.229999
0.23
0.23
0.23
0.23
0.23
0.23
0.23
0.23
0.23
0.23
5.71124e-10
2.49617e-09
5.73438e-09
1.11621e-08
2.02123e-08
3.52003e-08
5.98134e-08
9.98278e-08
1.6412e-07
2.66028e-07
4.25074e-07
6.68949e-07
1.03547e-06
1.57395e-06
2.34505e-06
3.41822e-06
4.86583e-06
6.75454e-06
9.1354e-06
1.20356e-05
1.54541e-05
1.93624e-05
2.37087e-05
2.8424e-05
3.34282e-05
3.86249e-05
4.39004e-05
4.92057e-05
5.4523e-05
5.97033e-05
6.46837e-05
6.94288e-05
7.39573e-05
7.83864e-05
8.29756e-05
8.81245e-05
9.43762e-05
0.000102449
0.000113179
0.000127519
0.000146572
0.00017165
0.000204365
0.000246741
0.000301354
0.000371508
0.000461464
0.000576725
0.00072441
0.00091374
0.00115667
0.00146874
0.00187
0.00238654
0.00305301
0.00391513
0.0050172
0.00641666
0.00829753
0.0107443
0.013921
0.0274079
0.0449295
0.0624409
0.0796958
0.0964846
0.112652
0.128073
0.142644
0.156282
0.168908
0.180455
0.190857
0.200037
0.207926
0.214471
0.219646
0.223492
0.226148
0.227845
0.228855
0.229418
0.229714
0.229863
0.229936
0.22997
0.229987
0.229994
0.229997
0.229999
0.23
0.23
0.23
0.23
0.23
0.23
0.23
0.23
0.23
0.23
5.63402e-10
2.46237e-09
5.65642e-09
1.10091e-08
1.99318e-08
3.47031e-08
5.89485e-08
9.83419e-08
1.61591e-07
2.61761e-07
4.17941e-07
6.57146e-07
1.01617e-06
1.54283e-06
2.29571e-06
3.34142e-06
4.74885e-06
6.58052e-06
8.88298e-06
1.16789e-05
1.49631e-05
1.87035e-05
2.28454e-05
2.73177e-05
3.20388e-05
3.69221e-05
4.1862e-05
4.67432e-05
5.15322e-05
5.62353e-05
6.07064e-05
6.49166e-05
6.88785e-05
7.26936e-05
7.65947e-05
8.0957e-05
8.63018e-05
9.33164e-05
0.00010281
0.000115709
0.000133084
0.000156212
0.000186662
0.000226405
0.000277959
0.000344567
0.000430418
0.000540942
0.000683184
0.000866293
0.00110217
0.00140628
0.00179883
0.00230607
0.00296207
0.00381213
0.00490394
0.00629282
0.0081635
0.0106025
0.013789
0.0260864
0.043598
0.0611233
0.078387
0.0952068
0.111422
0.12691
0.141552
0.155266
0.167976
0.179612
0.190107
0.199387
0.20738
0.21403
0.219309
0.223251
0.225987
0.227754
0.228805
0.22939
0.2297
0.229856
0.229932
0.229969
0.229986
0.229994
0.229997
0.229999
0.229999
0.23
0.23
0.23
0.23
0.23
0.23
0.23
0.23
0.23
5.55187e-10
2.42643e-09
5.57355e-09
1.08466e-08
1.96343e-08
3.41763e-08
5.8034e-08
9.6774e-08
1.58929e-07
2.57281e-07
4.10471e-07
6.44821e-07
9.96085e-07
1.51055e-06
2.24468e-06
3.26231e-06
4.62881e-06
6.40266e-06
8.62613e-06
1.13177e-05
1.44684e-05
1.80432e-05
2.19852e-05
2.62222e-05
3.06725e-05
3.525e-05
3.98682e-05
4.44231e-05
4.87961e-05
5.2952e-05
5.69361e-05
6.0719e-05
6.42178e-05
6.75317e-05
7.0874e-05
7.4593e-05
7.91813e-05
8.52907e-05
9.36983e-05
0.000105301
0.00012114
0.000142456
0.000170777
0.000208027
0.000256666