/*--------------------------------*- C++ -*----------------------------------*\
  =========                 |
  \\      /  F ield         | OpenFOAM: The Open Source CFD Toolbox
   \\    /   O peration     | Website:  https://openfoam.org
    \\  /    A nd           | Version:  8
     \\/     M anipulation  |
\*---------------------------------------------------------------------------*/
FoamFile
{
    version     2.0;
    format      ascii;
    class       surfaceScalarField;
    location    "540/fluid";
    object      phi;
}
// * * * * * * * * * * * * * * * * * * * * * * * * * * * * * * * * * * * * * //

dimensions      [1 0 -1 0 0 0 0];

internalField   nonuniform List<scalar> 
7860
(
6.57298e-07
-1.7653e-08
6.54688e-07
-5.29519e-08
6.50973e-07
-8.8071e-08
6.46046e-07
-1.22911e-07
6.39779e-07
-1.57474e-07
6.32012e-07
-1.91717e-07
6.22567e-07
-2.25562e-07
6.11249e-07
-2.58891e-07
5.9786e-07
-2.91544e-07
5.82207e-07
-3.23305e-07
5.64121e-07
-3.53895e-07
5.43477e-07
-3.82955e-07
5.20236e-07
-4.1004e-07
4.94538e-07
-4.34614e-07
4.66658e-07
-4.56049e-07
4.36941e-07
-4.73684e-07
4.05837e-07
-4.86952e-07
3.73872e-07
-4.95534e-07
3.41598e-07
-4.9948e-07
3.09522e-07
-4.99242e-07
2.78059e-07
-4.95574e-07
2.47504e-07
-4.89373e-07
2.18043e-07
-4.81498e-07
1.89805e-07
-4.72657e-07
1.62853e-07
-4.63354e-07
1.37158e-07
-4.53905e-07
1.12653e-07
-4.44485e-07
8.9262e-08
-4.35174e-07
6.69123e-08
-4.2599e-07
4.55397e-08
-4.16922e-07
2.50892e-08
-4.07945e-07
5.51391e-09
-3.99034e-07
-1.32182e-08
-3.90173e-07
-3.11333e-08
-3.81351e-07
-4.82619e-08
-3.72571e-07
-6.46302e-08
-3.63829e-07
-8.02586e-08
-3.55084e-07
-9.51664e-08
-3.46341e-07
-1.09372e-07
-3.3762e-07
-1.22893e-07
-3.2894e-07
-1.35747e-07
-3.20322e-07
-1.47953e-07
-3.11787e-07
-1.59526e-07
-3.03359e-07
-1.70486e-07
-2.95061e-07
-1.8085e-07
-2.86916e-07
-1.90636e-07
-2.78948e-07
-1.99862e-07
-2.71178e-07
-2.08546e-07
-2.63631e-07
-2.16706e-07
-2.56328e-07
-2.24361e-07
-2.49292e-07
-2.3153e-07
-2.42547e-07
-2.38233e-07
-2.36119e-07
-2.44491e-07
-2.30034e-07
-2.50326e-07
-2.24325e-07
-2.55763e-07
-2.19026e-07
-2.60832e-07
-2.14182e-07
-2.65571e-07
-2.09845e-07
-2.70024e-07
-2.06103e-07
-2.74241e-07
-2.03034e-07
-2.78279e-07
-2.00689e-07
-2.82225e-07
-1.99299e-07
-2.8646e-07
-1.99043e-07
-2.91767e-07
-2.00003e-07
-2.98746e-07
-2.1105e-07
-3.06776e-07
-2.23416e-07
-3.15652e-07
-2.37041e-07
-3.25421e-07
-2.52104e-07
-3.36203e-07
-2.68843e-07
-3.48155e-07
-2.87526e-07
-3.61489e-07
-3.08478e-07
-3.76495e-07
-3.32087e-07
-3.93558e-07
-3.58818e-07
-4.13197e-07
-3.89203e-07
-4.36086e-07
-4.23955e-07
-4.63079e-07
-4.63762e-07
-4.95154e-07
-5.08694e-07
-5.33237e-07
-5.57763e-07
-5.77695e-07
-6.08157e-07
-6.28319e-07
-6.54522e-07
-6.83998e-07
-6.89757e-07
-7.4243e-07
-7.08068e-07
-8.00668e-07
-7.08138e-07
-8.56121e-07
-6.93076e-07
-9.07152e-07
-6.67558e-07
-9.5305e-07
-6.35666e-07
-9.93609e-07
-6.00063e-07
-1.02871e-06
-5.62219e-07
-1.05867e-06
-5.22846e-07
-1.08403e-06
-4.82383e-07
-1.10534e-06
-4.41164e-07
-1.12309e-06
-3.99446e-07
-1.13775e-06
-3.57427e-07
-1.14973e-06
-3.15259e-07
-1.15939e-06
-2.73053e-07
-1.16707e-06
-2.30885e-07
-1.17305e-06
-1.88795e-07
-1.17755e-06
-1.46791e-07
-1.18079e-06
-1.04852e-07
-1.18291e-06
-6.29182e-08
-2.0979e-08
6.57922e-07
-1.70411e-08
6.55836e-07
-5.08665e-08
6.52202e-07
-8.44368e-08
6.47019e-07
-1.17727e-07
6.40219e-07
-1.50674e-07
6.31707e-07
-1.83205e-07
6.21372e-07
-2.15227e-07
6.09099e-07
-2.46618e-07
5.94786e-07
-2.7723e-07
5.7835e-07
-3.06868e-07
5.59744e-07
-3.35286e-07
5.38965e-07
-3.62173e-07
5.1607e-07
-3.8714e-07
4.91202e-07
-4.09738e-07
4.6458e-07
-4.29417e-07
4.36484e-07
-4.45572e-07
4.07263e-07
-4.57711e-07
3.77322e-07
-4.65567e-07
3.47079e-07
-4.69208e-07
3.16921e-07
-4.6905e-07
2.87166e-07
-4.65784e-07
2.58048e-07
-4.60217e-07
2.29717e-07
-4.5313e-07
2.02275e-07
-4.45179e-07
1.75779e-07
-4.36825e-07
1.50244e-07
-4.28339e-07
1.2566e-07
-4.19871e-07
1.02004e-07
-4.11491e-07
7.92535e-08
-4.03214e-07
5.73829e-08
-3.95028e-07
3.63686e-08
-3.8691e-07
1.61886e-08
-3.78835e-07
-3.17878e-09
-3.70787e-07
-2.17528e-08
-3.6276e-07
-3.95516e-08
-3.54755e-07
-5.65924e-08
-3.46771e-07
-7.28903e-08
-3.38769e-07
-8.84611e-08
-3.30753e-07
-1.03321e-07
-3.22743e-07
-1.17487e-07
-3.14757e-07
-1.30976e-07
-3.06816e-07
-1.43805e-07
-2.98941e-07
-1.55994e-07
-2.91154e-07
-1.67561e-07
-2.83478e-07
-1.78525e-07
-2.75936e-07
-1.88905e-07
-2.68551e-07
-1.98723e-07
-2.61345e-07
-2.07999e-07
-2.5434e-07
-2.16754e-07
-2.47558e-07
-2.25012e-07
-2.4102e-07
-2.32797e-07
-2.3475e-07
-2.40133e-07
-2.2877e-07
-2.4705e-07
-2.23105e-07
-2.5358e-07
-2.17784e-07
-2.5976e-07
-2.12836e-07
-2.65635e-07
-2.08298e-07
-2.71262e-07
-2.0421e-07
-2.76706e-07
-2.00652e-07
-2.82062e-07
-1.97673e-07
-2.87457e-07
-1.95291e-07
-2.93077e-07
-1.93677e-07
-2.99145e-07
-1.92977e-07
-3.05352e-07
-1.94158e-07
-3.12467e-07
-2.03976e-07
-3.20809e-07
-2.15121e-07
-3.30274e-07
-2.27628e-07
-3.40852e-07
-2.41584e-07
-3.52616e-07
-2.57142e-07
-3.65695e-07
-2.74517e-07
-3.80268e-07
-2.93982e-07
-3.96564e-07
-3.15876e-07
-4.1487e-07
-3.40606e-07
-4.35525e-07
-3.68653e-07
-4.58901e-07
-4.00696e-07
-4.85466e-07
-4.37326e-07
-5.15755e-07
-4.78545e-07
-5.503e-07
-5.23364e-07
-5.8947e-07
-5.6913e-07
-6.33392e-07
-6.10728e-07
-6.81561e-07
-6.41689e-07
-7.32485e-07
-6.57214e-07
-7.84007e-07
-6.56659e-07
-8.34108e-07
-6.42998e-07
-8.81404e-07
-6.20272e-07
-9.25206e-07
-5.9187e-07
-9.65234e-07
-5.60037e-07
-1.00133e-06
-5.26126e-07
-1.03347e-06
-4.90704e-07
-1.06176e-06
-4.54089e-07
-1.08638e-06
-4.16544e-07
-1.10755e-06
-3.78278e-07
-1.12553e-06
-3.39455e-07
-1.14057e-06
-3.00212e-07
-1.15297e-06
-2.60661e-07
-1.16296e-06
-2.20888e-07
-1.1708e-06
-1.80959e-07
-1.17667e-06
-1.40917e-07
-1.18074e-06
-1.00785e-07
-1.18308e-06
-6.05735e-08
-2.0242e-08
6.5763e-07
-1.61379e-08
6.55017e-07
-4.82528e-08
6.50704e-07
-8.01238e-08
6.44658e-07
-1.11681e-07
6.36838e-07
-1.42855e-07
6.27197e-07
-1.73564e-07
6.15688e-07
-2.03717e-07
6.02272e-07
-2.33202e-07
5.86929e-07
-2.61886e-07
5.69664e-07
-2.89601e-07
5.50512e-07
-3.16133e-07
5.29545e-07
-3.41203e-07
5.06867e-07
-3.64457e-07
4.82592e-07
-3.85457e-07
4.56883e-07
-4.03698e-07
4.29987e-07
-4.18664e-07
4.02214e-07
-4.29921e-07
3.73908e-07
-4.37241e-07
3.45414e-07
-4.40689e-07
3.17041e-07
-4.4065e-07
2.89039e-07
-4.37752e-07
2.61587e-07
-4.32735e-07
2.34795e-07
-4.26308e-07
2.08706e-07
-4.1906e-07
1.83325e-07
-4.11416e-07
1.58663e-07
-4.03649e-07
1.34726e-07
-3.95909e-07
1.11519e-07
-3.8826e-07
8.90434e-08
-3.80717e-07
6.72985e-08
-3.73263e-07
4.62824e-08
-3.65875e-07
2.59916e-08
-3.58527e-07
6.4209e-09
-3.51201e-07
-1.24359e-08
-3.43888e-07
-3.05868e-08
-3.3659e-07
-4.80396e-08
-3.29304e-07
-6.48017e-08
-3.21992e-07
-8.08827e-08
-3.14658e-07
-9.62936e-08
-3.07318e-07
-1.11047e-07
-2.99989e-07
-1.25157e-07
-2.92692e-07
-1.38638e-07
-2.85445e-07
-1.51507e-07
-2.78271e-07
-1.6378e-07
-2.7119e-07
-1.75478e-07
-2.64225e-07
-1.8662e-07
-2.57396e-07
-1.97227e-07
-2.50724e-07
-2.07324e-07
-2.4423e-07
-2.16936e-07
-2.37933e-07
-2.26088e-07
-2.31855e-07
-2.34812e-07
-2.26014e-07
-2.4314e-07
-2.2043e-07
-2.51109e-07
-2.15125e-07
-2.58761e-07
-2.10121e-07
-2.66145e-07
-2.05442e-07
-2.73319e-07
-2.01115e-07
-2.8035e-07
-1.97171e-07
-2.87317e-07
-1.93677e-07
-2.94318e-07
-1.90664e-07
-3.01467e-07
-1.88135e-07
-3.089e-07
-1.86237e-07
-3.16784e-07
-1.85067e-07
-3.23901e-07
-1.87392e-07
-3.31736e-07
-1.96186e-07
-3.40648e-07
-2.06257e-07
-3.50661e-07
-2.17667e-07
-3.61819e-07
-2.30482e-07
-3.74195e-07
-2.44827e-07
-3.87889e-07
-2.60889e-07
-4.03023e-07
-2.78921e-07
-4.19736e-07
-2.99243e-07
-4.38184e-07
-3.22245e-07
-4.58518e-07
-3.48416e-07
-4.80879e-07
-3.78441e-07
-5.05488e-07
-4.12833e-07
-5.32669e-07
-4.51486e-07
-5.62932e-07
-4.93227e-07
-5.97074e-07
-5.35107e-07
-6.35744e-07
-5.72162e-07
-6.78806e-07
-5.98706e-07
-7.25031e-07
-6.11042e-07
-7.72472e-07
-6.0925e-07
-8.19252e-07
-5.96236e-07
-8.64024e-07
-5.75509e-07
-9.06032e-07
-5.49866e-07
-9.44949e-07
-5.21122e-07
-9.80764e-07
-4.90312e-07
-1.01345e-06
-4.58016e-07
-1.04297e-06
-4.24568e-07
-1.06934e-06
-3.90179e-07
-1.09261e-06
-3.55005e-07
-1.1129e-06
-3.19172e-07
-1.13032e-06
-2.82788e-07
-1.14503e-06
-2.4595e-07
-1.15718e-06
-2.0874e-07
-1.16691e-06
-1.7123e-07
-1.17435e-06
-1.33477e-07
-1.1796e-06
-9.55288e-08
-1.18276e-06
-5.74211e-08
-1.91757e-08
6.57646e-07
-1.52501e-08
6.5496e-07
-4.55673e-08
6.50472e-07
-7.56357e-08
6.44179e-07
-1.05388e-07
6.3607e-07
-1.34746e-07
6.26135e-07
-1.63629e-07
6.14364e-07
-1.91946e-07
6.00753e-07
-2.19591e-07
5.85308e-07
-2.46441e-07
5.68047e-07
-2.7234e-07
5.49009e-07
-2.97093e-07
5.28255e-07
-3.20447e-07
5.05881e-07
-3.4208e-07
4.82025e-07
-3.61595e-07
4.56872e-07
-3.78538e-07
4.3066e-07
-3.92442e-07
4.03668e-07
-4.02916e-07
3.76198e-07
-4.09754e-07
3.48546e-07
-4.13017e-07
3.20978e-07
-4.1306e-07
2.9371e-07
-4.1046e-07
2.669e-07
-4.05899e-07
2.40652e-07
-4.00035e-07
2.15027e-07
-3.9341e-07
1.90054e-07
-3.8642e-07
1.65745e-07
-3.79318e-07
1.42101e-07
-3.72244e-07
1.19121e-07
-3.65261e-07
9.68015e-08
-3.58379e-07
7.51387e-08
-3.51584e-07
5.41305e-08
-3.44852e-07
3.37743e-08
-3.38157e-07
1.40675e-08
-3.31482e-07
-4.99328e-09
-3.24816e-07
-2.34123e-08
-3.18159e-07
-4.11938e-08
-3.11511e-07
-5.83416e-08
-3.04832e-07
-7.48619e-08
-2.98125e-07
-9.07627e-08
-2.91404e-07
-1.06054e-07
-2.84686e-07
-1.20747e-07
-2.77986e-07
-1.34854e-07
-2.71326e-07
-1.48389e-07
-2.64723e-07
-1.6137e-07
-2.58197e-07
-1.73815e-07
-2.51768e-07
-1.85744e-07
-2.45454e-07
-1.9718e-07
-2.39276e-07
-2.08146e-07
-2.33252e-07
-2.18669e-07
-2.27399e-07
-2.28778e-07
-2.21735e-07
-2.38505e-07
-2.16276e-07
-2.47884e-07
-2.1104e-07
-2.56957e-07
-2.06043e-07
-2.65765e-07
-2.01303e-07
-2.7436e-07
-1.96838e-07
-2.82796e-07
-1.9267e-07
-2.91139e-07
-1.88821e-07
-2.99455e-07
-1.85354e-07
-3.07831e-07
-1.82282e-07
-3.16356e-07
-1.79605e-07
-3.25128e-07
-1.7746e-07
-3.34229e-07
-1.75943e-07
-3.42204e-07
-1.79659e-07
-3.50847e-07
-1.87586e-07
-3.6042e-07
-1.96729e-07
-3.70979e-07
-2.07156e-07
-3.8259e-07
-2.18923e-07
-3.95327e-07
-2.32146e-07
-4.09275e-07
-2.47003e-07
-4.24527e-07
-2.63735e-07
-4.41189e-07
-2.82654e-07
-4.59377e-07
-3.04135e-07
-4.79201e-07
-3.28677e-07
-5.00805e-07
-3.56931e-07
-5.24453e-07
-3.89286e-07
-5.50541e-07
-4.25502e-07
-5.79625e-07
-4.64246e-07
-6.12354e-07
-5.02475e-07
-6.49165e-07
-5.35432e-07
-6.89824e-07
-5.58107e-07
-7.33212e-07
-5.67694e-07
-7.77698e-07
-5.64787e-07
-8.21742e-07
-5.52205e-07
-8.64222e-07
-5.33035e-07
-9.04449e-07
-5.09642e-07
-9.42053e-07
-4.8352e-07
-9.76859e-07
-4.55506e-07
-1.00881e-06
-4.26064e-07
-1.03791e-06
-3.9547e-07
-1.06418e-06
-3.63911e-07
-1.08766e-06
-3.31524e-07
-1.10841e-06
-2.98424e-07
-1.12648e-06
-2.64711e-07
-1.14196e-06
-2.30474e-07
-1.15491e-06
-1.95794e-07
-1.16539e-06
-1.60742e-07
-1.17349e-06
-1.25385e-07
-1.17924e-06
-8.97796e-08
-1.18268e-06
-5.3981e-08
-1.80298e-08
6.57583e-07
-1.42992e-08
6.54755e-07
-4.274e-08
6.50065e-07
-7.09448e-08
6.43515e-07
-9.88384e-08
6.35114e-07
-1.26344e-07
6.24867e-07
-1.53382e-07
6.12787e-07
-1.79866e-07
5.98893e-07
-2.05697e-07
5.83215e-07
-2.30761e-07
5.65794e-07
-2.54918e-07
5.46692e-07
-2.7799e-07
5.25993e-07
-2.99746e-07
5.0381e-07
-3.19893e-07
4.80287e-07
-3.38068e-07
4.55607e-07
-3.53852e-07
4.29991e-07
-3.66818e-07
4.03692e-07
-3.76606e-07
3.76976e-07
-3.83025e-07
3.50104e-07
-3.86129e-07
3.23305e-07
-3.86244e-07
2.96768e-07
-3.83903e-07
2.70627e-07
-3.79739e-07
2.44975e-07
-3.74362e-07
2.19863e-07
-3.68279e-07
1.95322e-07
-3.6186e-07
1.71365e-07
-3.55343e-07
1.47996e-07
-3.48859e-07
1.25217e-07
-3.42466e-07
1.03027e-07
-3.36174e-07
8.14258e-08
-3.29969e-07
6.04138e-08
-3.23827e-07
3.99906e-08
-3.17722e-07
2.01557e-08
-3.11636e-07
9.07786e-10
-3.05558e-07
-1.77559e-08
-2.99486e-07
-3.58373e-08
-2.9342e-07
-5.33389e-08
-2.87321e-07
-7.02651e-08
-2.81189e-07
-8.66218e-08
-2.75038e-07
-1.02416e-07
-2.68881e-07
-1.17657e-07
-2.62735e-07
-1.32356e-07
-2.56616e-07
-1.46528e-07
-2.50541e-07
-1.60188e-07
-2.44527e-07
-1.73353e-07
-2.38592e-07
-1.86042e-07
-2.32755e-07
-1.98278e-07
-2.27031e-07
-2.10083e-07
-2.21437e-07
-2.21483e-07
-2.15989e-07
-2.32507e-07
-2.10701e-07
-2.43185e-07
-2.05589e-07
-2.5355e-07
-2.00666e-07
-2.63639e-07
-1.95945e-07
-2.73493e-07
-1.91442e-07
-2.83154e-07
-1.8717e-07
-2.92671e-07
-1.83146e-07
-3.02096e-07
-1.7939e-07
-3.11485e-07
-1.75959e-07
-3.20909e-07
-1.72853e-07
-3.30437e-07
-1.70073e-07
-3.40147e-07
-1.67747e-07
-3.50095e-07
-1.65983e-07
-3.58899e-07
-1.70986e-07
-3.6835e-07
-1.78174e-07
-3.78578e-07
-1.86541e-07
-3.8966e-07
-1.96118e-07
-4.01673e-07
-2.06956e-07
-4.14699e-07
-2.1917e-07
-4.2882e-07
-2.32936e-07
-4.4412e-07
-2.48493e-07
-4.60692e-07
-2.66144e-07
-4.78637e-07
-2.86258e-07
-4.98043e-07
-3.09344e-07
-5.19048e-07
-3.36004e-07
-5.41906e-07
-3.66511e-07
-5.66988e-07
-4.00503e-07
-5.94814e-07
-4.36503e-07
-6.25972e-07
-4.71392e-07
-6.60838e-07
-5.00627e-07
-6.9917e-07
-5.19819e-07
-7.39964e-07
-5.26928e-07
-7.81814e-07
-5.22953e-07
-8.23419e-07
-5.10609e-07
-8.63827e-07
-4.92631e-07
-9.02438e-07
-4.71033e-07
-9.38897e-07
-4.47063e-07
-9.72993e-07
-4.2141e-07
-1.0046e-06
-3.94456e-07
-1.03364e-06
-3.66427e-07
-1.06009e-06
-3.37471e-07
-1.08391e-06
-3.07701e-07
-1.10512e-06
-2.77213e-07
-1.12374e-06
-2.46094e-07
-1.13979e-06
-2.14424e-07
-1.1533e-06
-1.8228e-07
-1.16431e-06
-1.49731e-07
-1.17285e-06
-1.16847e-07
-1.17894e-06
-8.36901e-08
-1.1826e-06
-5.03233e-08
-1.68049e-08
6.57578e-07
-1.33429e-08
6.54716e-07
-3.98789e-08
6.49963e-07
-6.61915e-08
6.43333e-07
-9.22079e-08
6.34842e-07
-1.17854e-07
6.24511e-07
-1.43052e-07
6.12366e-07
-1.6772e-07
5.98436e-07
-1.91767e-07
5.82763e-07
-2.15088e-07
5.65397e-07
-2.37552e-07
5.46405e-07
-2.58997e-07
5.25874e-07
-2.79213e-07
5.03912e-07
-2.9793e-07
4.80664e-07
-3.14816e-07
4.56304e-07
-3.29488e-07
4.31046e-07
-3.41553e-07
4.05129e-07
-3.50682e-07
3.78808e-07
-3.56694e-07
3.52332e-07
-3.59641e-07
3.25921e-07
-3.59819e-07
2.99751e-07
-3.5772e-07
2.73954e-07
-3.53927e-07
2.48614e-07
-3.49007e-07
2.23782e-07
-3.43432e-07
1.99484e-07
-3.37547e-07
1.75729e-07
-3.31574e-07
1.5252e-07
-3.25637e-07
1.29855e-07
-3.19789e-07
1.07733e-07
-3.14041e-07
8.61513e-08
-3.08377e-07
6.51093e-08
-3.02775e-07
4.46063e-08
-2.9721e-07
2.46417e-08
-2.91663e-07
5.21465e-09
-2.86123e-07
-1.36765e-08
-2.80588e-07
-3.20344e-08
-2.75055e-07
-4.98601e-08
-2.69488e-07
-6.71559e-08
-2.63886e-07
-8.3926e-08
-2.5826e-07
-1.00176e-07
-2.52623e-07
-1.15916e-07
-2.46987e-07
-1.31155e-07
-2.41369e-07
-1.45905e-07
-2.35782e-07
-1.60181e-07
-2.30242e-07
-1.73998e-07
-2.24767e-07
-1.87374e-07
-2.1937e-07
-2.00329e-07
-2.14067e-07
-2.12884e-07
-2.08873e-07
-2.25062e-07
-2.03802e-07
-2.3689e-07
-1.98865e-07
-2.48394e-07
-1.94077e-07
-2.59603e-07
-1.89449e-07
-2.70548e-07
-1.84993e-07
-2.81262e-07
-1.8072e-07
-2.91781e-07
-1.76645e-07
-3.02139e-07
-1.72781e-07
-3.12378e-07
-1.69146e-07
-3.22533e-07
-1.65801e-07
-3.32661e-07
-1.62721e-07
-3.42817e-07
-1.59916e-07
-3.53084e-07
-1.57479e-07
-3.63561e-07
-1.55513e-07
-3.73342e-07
-1.61245e-07
-3.83531e-07
-1.68018e-07
-3.94312e-07
-1.75794e-07
-4.05818e-07
-1.84648e-07
-4.18149e-07
-1.94664e-07
-4.3139e-07
-2.0597e-07
-4.45627e-07
-2.18744e-07
-4.60945e-07
-2.33223e-07
-4.77438e-07
-2.49704e-07
-4.95206e-07
-2.68546e-07
-5.1435e-07
-2.9026e-07
-5.35038e-07
-3.15379e-07
-5.57548e-07
-3.44066e-07
-5.82275e-07
-3.75842e-07
-6.09736e-07
-4.09104e-07
-6.40457e-07
-4.40724e-07
-6.74684e-07
-4.66443e-07
-7.12036e-07
-4.82498e-07
-7.51474e-07
-4.87508e-07
-7.91694e-07
-4.82743e-07
-8.31553e-07
-4.70755e-07
-8.70247e-07
-4.5394e-07
-9.0727e-07
-4.34011e-07
-9.42324e-07
-4.12009e-07
-9.75231e-07
-3.88504e-07
-1.00588e-06
-3.63812e-07
-1.03418e-06
-3.38121e-07
-1.06009e-06
-3.11557e-07
-1.08358e-06
-2.84216e-07
-1.10461e-06
-2.56182e-07
-1.12317e-06
-2.27531e-07
-1.13926e-06
-1.98337e-07
-1.15287e-06
-1.68669e-07
-1.16401e-06
-1.38597e-07
-1.17267e-06
-1.08185e-07
-1.17886e-06
-7.74991e-08
-1.18258e-06
-4.66035e-08
-1.5562e-08
6.57566e-07
-1.23751e-08
6.54677e-07
-3.69902e-08
6.49884e-07
-6.13981e-08
6.43204e-07
-8.55283e-08
6.34661e-07
-1.0931e-07
6.2428e-07
-1.32671e-07
6.12095e-07
-1.55535e-07
5.98145e-07
-1.77817e-07
5.82477e-07
-1.99419e-07
5.65149e-07
-2.20225e-07
5.46236e-07
-2.40083e-07
5.25827e-07
-2.58803e-07
5.04036e-07
-2.76138e-07
4.81005e-07
-2.91783e-07
4.56907e-07
-3.05387e-07
4.31946e-07
-3.16588e-07
4.06351e-07
-3.25081e-07
3.80363e-07
-3.30699e-07
3.54217e-07
-3.33486e-07
3.2812e-07
-3.33713e-07
3.02243e-07
-3.31831e-07
2.76708e-07
-3.28381e-07
2.51598e-07
-3.23886e-07
2.26962e-07
-3.18785e-07
2.02825e-07
-3.13399e-07
1.79196e-07
-3.07934e-07
1.56076e-07
-3.02507e-07
1.33464e-07
-2.97168e-07
1.11356e-07
-2.91924e-07
8.97498e-08
-2.86763e-07
6.86436e-08
-2.81662e-07
4.80364e-08
-2.76596e-07
2.79275e-08
-2.71548e-07
8.31561e-09
-2.66506e-07
-1.08008e-08
-2.61466e-07
-2.94234e-08
-2.56427e-07
-4.75521e-08
-2.51353e-07
-6.51887e-08
-2.46243e-07
-8.23367e-08
-2.41106e-07
-9.90018e-08
-2.35951e-07
-1.15191e-07
-2.30791e-07
-1.30913e-07
-2.2564e-07
-1.46178e-07
-2.2051e-07
-1.60999e-07
-2.15415e-07
-1.75389e-07
-2.1037e-07
-1.89364e-07
-2.05388e-07
-2.02942e-07
-2.00483e-07
-2.16141e-07
-1.95667e-07
-2.28982e-07
-1.90954e-07
-2.41487e-07
-1.86354e-07
-2.53679e-07
-1.81878e-07
-2.65584e-07
-1.77539e-07
-2.77225e-07
-1.73346e-07
-2.88629e-07
-1.69311e-07
-2.99821e-07
-1.65447e-07
-3.10828e-07
-1.6177e-07
-3.21673e-07
-1.58297e-07
-3.32378e-07
-1.55093e-07
-3.42979e-07
-1.52119e-07
-3.53468e-07
-1.49429e-07
-3.63875e-07
-1.47077e-07
-3.74325e-07
-1.45161e-07
-3.84812e-07
-1.50775e-07
-3.95662e-07
-1.57191e-07
-4.07009e-07
-1.64472e-07
-4.18981e-07
-1.72705e-07
-4.31684e-07
-1.81992e-07
-4.45215e-07
-1.92473e-07
-4.59664e-07
-2.04332e-07
-4.75124e-07
-2.17802e-07
-4.91695e-07
-2.33173e-07
-5.09489e-07
-2.50796e-07
-5.28624e-07
-2.7117e-07
-5.49294e-07
-2.94756e-07
-5.71787e-07
-3.21621e-07
-5.96484e-07
-3.51191e-07
-6.2385e-07
-3.81782e-07
-6.54302e-07
-4.10309e-07
-6.87945e-07
-4.32827e-07
-7.24314e-07
-4.46149e-07
-7.62417e-07
-4.49416e-07
-8.01104e-07
-4.44063e-07
-8.394e-07
-4.32463e-07
-8.76618e-07
-4.16723e-07
-9.12319e-07
-3.98311e-07
-9.46229e-07
-3.78099e-07
-9.78171e-07
-3.56562e-07
-1.00802e-06
-3.33961e-07
-1.03569e-06
-3.10453e-07
-1.06111e-06
-2.8614e-07
-1.08422e-06
-2.61105e-07
-1.10498e-06
-2.35419e-07
-1.12336e-06
-2.09149e-07
-1.13934e-06
-1.82361e-07
-1.15289e-06
-1.5512e-07
-1.164e-06
-1.27487e-07
-1.17265e-06
-9.95278e-08
-1.17885e-06
-7.13034e-08
-1.18258e-06
-4.28778e-08
-1.43165e-08
6.57567e-07
-1.1408e-08
6.54676e-07
-3.41e-08
6.4988e-07
-5.66015e-08
6.43198e-07
-7.88463e-08
6.34656e-07
-1.00769e-07
6.24286e-07
-1.22301e-07
6.12123e-07
-1.43372e-07
5.98211e-07
-1.63905e-07
5.82601e-07
-1.83809e-07
5.65355e-07
-2.02978e-07
5.46547e-07
-2.21275e-07
5.26268e-07
-2.38524e-07
5.04631e-07
-2.545e-07
4.81774e-07
-2.68925e-07
4.57867e-07
-2.81478e-07
4.33108e-07
-2.91826e-07
4.07719e-07
-2.99688e-07
3.81935e-07
-3.04911e-07
3.55985e-07
-3.0753e-07
3.30072e-07
-3.07793e-07
3.04362e-07
-3.06115e-07
2.78978e-07
-3.02989e-07
2.53998e-07
-2.98899e-07
2.29471e-07
-2.94251e-07
2.0542e-07
-2.8934e-07
1.81853e-07
-2.8436e-07
1.58769e-07
-2.79416e-07
1.36165e-07
-2.74557e-07
1.14036e-07
-2.69789e-07
9.23784e-08
-2.651e-07
7.11895e-08
-2.60467e-07
5.04673e-08
-2.55869e-07
3.02106e-08
-2.51287e-07
1.04184e-08
-2.46709e-07
-8.91032e-09
-2.42133e-07
-2.77768e-08
-2.37556e-07
-4.61814e-08
-2.32944e-07
-6.41253e-08
-2.28295e-07
-8.16115e-08
-2.23615e-07
-9.86438e-08
-2.18914e-07
-1.15228e-07
-2.14203e-07
-1.3137e-07
-2.09492e-07
-1.4708e-07
-2.04794e-07
-1.62368e-07
-2.00121e-07
-1.77246e-07
-1.95486e-07
-1.91727e-07
-1.90901e-07
-2.05827e-07
-1.86378e-07
-2.19561e-07
-1.81927e-07
-2.32947e-07
-1.77561e-07
-2.46005e-07
-1.7329e-07
-2.58755e-07
-1.69123e-07
-2.71218e-07
-1.65071e-07
-2.83414e-07
-1.61144e-07
-2.95368e-07
-1.57353e-07
-3.07101e-07
-1.53711e-07
-3.18634e-07
-1.50233e-07
-3.2998e-07
-1.46947e-07
-3.41165e-07
-1.43907e-07
-3.52211e-07
-1.41073e-07
-3.63093e-07
-1.38548e-07
-3.73769e-07
-1.36407e-07
-3.84145e-07
-1.34929e-07
-3.94796e-07
-1.4014e-07
-4.05924e-07
-1.46081e-07
-4.17597e-07
-1.5282e-07
-4.29893e-07
-1.60431e-07
-4.42896e-07
-1.69014e-07
-4.56689e-07
-1.78706e-07
-4.71361e-07
-1.89687e-07
-4.87008e-07
-2.02184e-07
-5.03736e-07
-2.16475e-07
-5.21666e-07
-2.32898e-07
-5.40937e-07
-2.51931e-07
-5.61769e-07
-2.73957e-07
-5.84457e-07
-2.98965e-07
-6.09375e-07
-3.26304e-07
-6.36936e-07
-3.54248e-07
-6.67455e-07
-3.79812e-07
-7.00902e-07
-3.99395e-07
-7.3672e-07
-4.10341e-07
-7.73931e-07
-4.12211e-07
-8.11487e-07
-4.0651e-07
-8.48535e-07
-3.95416e-07
-8.84491e-07
-3.80768e-07
-9.18982e-07
-3.63821e-07
-9.51772e-07
-3.45309e-07
-9.82704e-07
-3.25629e-07
-1.01167e-06
-3.05e-07
-1.03857e-06
-2.83553e-07
-1.06333e-06
-2.61374e-07
-1.0859e-06
-2.38535e-07
-1.10622e-06
-2.15097e-07
-1.12425e-06
-1.9112e-07
-1.13995e-06
-1.66661e-07
-1.15329e-06
-1.4178e-07
-1.16425e-06
-1.16534e-07
-1.17279e-06
-9.09826e-08
-1.17891e-06
-6.51835e-08
-1.18259e-06
-3.91971e-08
-1.30867e-08
6.57568e-07
-1.04419e-08
6.54682e-07
-3.12139e-08
6.49893e-07
-5.18124e-08
6.43222e-07
-7.21762e-08
6.34698e-07
-9.22445e-08
6.24353e-07
-1.11955e-07
6.12225e-07
-1.31244e-07
5.9836e-07
-1.50039e-07
5.82811e-07
-1.6826e-07
5.65641e-07
-1.85808e-07
5.46925e-07
-2.02559e-07
5.26755e-07
-2.18354e-07
5.05244e-07
-2.32988e-07
4.82527e-07
-2.46208e-07
4.5877e-07
-2.5772e-07
4.34167e-07
-2.67221e-07
4.08935e-07
-2.74454e-07
3.83303e-07
-2.79276e-07
3.57496e-07
-2.81719e-07
3.31711e-07
-2.82006e-07
3.06114e-07
-2.80513e-07
2.80825e-07
-2.77694e-07
2.55922e-07
-2.73992e-07
2.31453e-07
-2.69777e-07
2.07441e-07
-2.65323e-07
1.83892e-07
-2.60806e-07
1.60806e-07
-2.56326e-07
1.38178e-07
-2.51925e-07
1.16002e-07
-2.47609e-07
9.42735e-08
-2.43367e-07
7.29883e-08
-2.39179e-07
5.21443e-08
-2.35022e-07
3.17403e-08
-2.3088e-07
1.17756e-08
-2.26742e-07
-7.75103e-09
-2.22604e-07
-2.68414e-08
-2.18463e-07
-4.54955e-08
-2.14287e-07
-6.37136e-08
-2.10073e-07
-8.14973e-08
-2.05828e-07
-9.88491e-08
-2.01559e-07
-1.15773e-07
-1.97275e-07
-1.32275e-07
-1.92986e-07
-1.48362e-07
-1.88703e-07
-1.64042e-07
-1.84437e-07
-1.79325e-07
-1.80199e-07
-1.94223e-07
-1.75999e-07
-2.08747e-07
-1.71849e-07
-2.22912e-07
-1.67758e-07
-2.36733e-07
-1.63737e-07
-2.50225e-07
-1.59794e-07
-2.63405e-07
-1.55939e-07
-2.76291e-07
-1.52181e-07
-2.88902e-07
-1.48529e-07
-3.01257e-07
-1.44994e-07
-3.13376e-07
-1.41589e-07
-3.25278e-07
-1.38327e-07
-3.3698e-07
-1.35242e-07
-3.48511e-07
-1.32374e-07
-3.59885e-07
-1.29695e-07
-3.71108e-07
-1.27323e-07
-3.82154e-07
-1.25353e-07
-3.9258e-07
-1.24649e-07
-4.03366e-07
-1.2937e-07
-4.14683e-07
-1.3478e-07
-4.26575e-07
-1.40946e-07
-4.39102e-07
-1.47923e-07
-4.52334e-07
-1.558e-07
-4.66349e-07
-1.6471e-07
-4.81233e-07
-1.74823e-07
-4.97085e-07
-1.86353e-07
-5.1402e-07
-1.99561e-07
-5.32164e-07
-2.14774e-07
-5.51679e-07
-2.32436e-07
-5.72798e-07
-2.52857e-07
-5.95817e-07
-2.75964e-07
-6.21084e-07
-3.01052e-07
-6.48948e-07
-3.26396e-07
-6.79611e-07
-3.49157e-07
-7.1292e-07
-3.66091e-07
-7.48254e-07
-3.7501e-07
-7.84676e-07
-3.7579e-07
-8.21244e-07
-3.69943e-07
-8.57217e-07
-3.59442e-07
-8.92091e-07
-3.45893e-07
-9.25544e-07
-3.30369e-07
-9.57366e-07
-3.13487e-07
-9.87411e-07
-2.95583e-07
-1.01557e-06
-2.7684e-07
-1.04176e-06
-2.57365e-07
-1.0659e-06
-2.37235e-07
-1.08792e-06
-2.16509e-07
-1.10778e-06
-1.95242e-07
-1.12542e-06
-1.73484e-07
-1.14079e-06
-1.51288e-07
-1.15386e-06
-1.28706e-07
-1.1646e-06
-1.05791e-07
-1.17299e-06
-8.25962e-08
-1.179e-06
-5.91749e-08
-1.18261e-06
-3.55829e-08
-1.18793e-08
6.57571e-07
-9.47939e-09
6.54695e-07
-2.83376e-08
6.49922e-07
-4.7039e-08
6.43274e-07
-6.55282e-08
6.34779e-07
-8.37497e-08
6.2447e-07
-1.01647e-07
6.12388e-07
-1.19162e-07
5.98578e-07
-1.36229e-07
5.83095e-07
-1.52776e-07
5.66001e-07
-1.68714e-07
5.47371e-07
-1.8393e-07
5.27297e-07
-1.9828e-07
5.0589e-07
-2.1158e-07
4.83283e-07
-2.236e-07
4.59639e-07
-2.34075e-07
4.35148e-07
-2.4273e-07
4.10024e-07
-2.4933e-07
3.84493e-07
-2.53744e-07
3.58774e-07
-2.56e-07
3.33067e-07
-2.56297e-07
3.07534e-07
-2.54978e-07
2.82294e-07
-2.52453e-07
2.57427e-07
-2.49123e-07
2.3298e-07
-2.45328e-07
2.08974e-07
-2.41315e-07
1.85416e-07
-2.37247e-07
1.62305e-07
-2.33212e-07
1.39634e-07
-2.29251e-07
1.17397e-07
-2.2537e-07
9.55876e-08
-2.21556e-07
7.42024e-08
-2.17792e-07
5.32387e-08
-2.14056e-07
3.26952e-08
-2.10334e-07
1.25705e-08
-2.06615e-07
-7.13682e-09
-2.02895e-07
-2.64282e-08
-1.9917e-07
-4.53029e-08
-1.95411e-07
-6.37602e-08
-1.91614e-07
-8.18006e-08
-1.87785e-07
-9.94256e-08
-1.83931e-07
-1.16638e-07
-1.8006e-07
-1.33442e-07
-1.7618e-07
-1.49842e-07
-1.723e-07
-1.65846e-07
-1.6843e-07
-1.81461e-07
-1.64581e-07
-1.96697e-07
-1.60761e-07
-2.11562e-07
-1.5698e-07
-2.26069e-07
-1.53248e-07
-2.4023e-07
-1.49572e-07
-2.54058e-07
-1.45963e-07
-2.67567e-07
-1.42427e-07
-2.80772e-07
-1.38973e-07
-2.93687e-07
-1.3561e-07
-3.0633e-07
-1.32349e-07
-3.18716e-07
-1.29199e-07
-3.30865e-07
-1.26176e-07
-3.42794e-07
-1.2331e-07
-3.54529e-07
-1.20637e-07
-3.66088e-07
-1.18134e-07
-3.77506e-07
-1.15902e-07
-3.8883e-07
-1.14021e-07
-3.99455e-07
-1.1413e-07
-4.10454e-07
-1.18383e-07
-4.21975e-07
-1.23272e-07
-4.34072e-07
-1.28862e-07
-4.46806e-07
-1.35202e-07
-4.60245e-07
-1.42375e-07
-4.74466e-07
-1.50502e-07
-4.89557e-07
-1.59744e-07
-5.05623e-07
-1.703e-07
-5.22784e-07
-1.82412e-07
-5.41179e-07
-1.96389e-07
-5.60988e-07
-2.12636e-07
-5.82453e-07
-2.314e-07
-6.05867e-07
-2.52556e-07
-6.31548e-07
-2.75373e-07
-6.5978e-07
-2.98164e-07
-6.90662e-07
-3.18274e-07
-7.23931e-07
-3.32819e-07
-7.58915e-07
-3.40023e-07
-7.94716e-07
-3.39987e-07
-8.30478e-07
-3.34179e-07
-8.65551e-07
-3.24368e-07
-8.99499e-07
-3.11945e-07
-9.32041e-07
-2.97827e-07
-9.62992e-07
-2.82536e-07
-9.92223e-07
-2.66353e-07
-1.01963e-06
-2.49431e-07
-1.04513e-06
-2.31864e-07
-1.06865e-06
-2.13714e-07
-1.09013e-06
-1.95033e-07
-1.1095e-06
-1.75869e-07
-1.12672e-06
-1.56266e-07
-1.14174e-06
-1.3627e-07
-1.15452e-06
-1.15928e-07
-1.16502e-06
-9.52863e-08
-1.17323e-06
-7.4393e-08
-1.1791e-06
-5.32965e-08
-1.18264e-06
-3.2047e-08
-1.06983e-08
6.57575e-07
-8.52049e-09
6.54709e-07
-2.54718e-08
6.49953e-07
-4.22831e-08
6.43329e-07
-5.89043e-08
6.34865e-07
-7.52858e-08
6.24595e-07
-9.13769e-08
6.12558e-07
-1.07125e-07
5.98801e-07
-1.22472e-07
5.83376e-07
-1.37352e-07
5.66349e-07
-1.51686e-07
5.47793e-07
-1.65374e-07
5.27798e-07
-1.78286e-07
5.06474e-07
-1.90256e-07
4.83953e-07
-2.0108e-07
4.60395e-07
-2.10518e-07
4.35987e-07
-2.18323e-07
4.10941e-07
-2.24284e-07
3.85478e-07
-2.28283e-07
3.59819e-07
-2.30341e-07
3.34159e-07
-2.30638e-07
3.08661e-07
-2.2948e-07
2.83444e-07
-2.27236e-07
2.58588e-07
-2.24267e-07
2.3414e-07
-2.20879e-07
2.1012e-07
-2.17296e-07
1.86537e-07
-2.13662e-07
1.63386e-07
-2.10061e-07
1.40662e-07
-2.06526e-07
1.18357e-07
-2.03064e-07
9.64647e-08
-1.99663e-07
7.49817e-08
-1.96308e-07
5.39044e-08
-1.92978e-07
3.32311e-08
-1.8966e-07
1.29604e-08
-1.86344e-07
-6.90867e-09
-1.83025e-07
-2.63771e-08
-1.797e-07
-4.54435e-08
-1.76343e-07
-6.41065e-08
-1.7295e-07
-8.23655e-08
-1.69525e-07
-1.00221e-07
-1.66074e-07
-1.17675e-07
-1.62604e-07
-1.34729e-07
-1.59123e-07
-1.51388e-07
-1.55639e-07
-1.67656e-07
-1.5216e-07
-1.8354e-07
-1.48695e-07
-1.99047e-07
-1.45252e-07
-2.14184e-07
-1.4184e-07
-2.28962e-07
-1.38468e-07
-2.4339e-07
-1.35142e-07
-2.57478e-07
-1.31871e-07
-2.7124e-07
-1.28663e-07
-2.84687e-07
-1.25524e-07
-2.97832e-07
-1.22463e-07
-3.1069e-07
-1.19489e-07
-3.23276e-07
-1.16612e-07
-3.35605e-07
-1.13845e-07
-3.47697e-07
-1.11217e-07
-3.59576e-07
-1.08757e-07
-3.71264e-07
-1.06444e-07
-3.82798e-07
-1.04368e-07
-3.942e-07
-1.02612e-07
-4.05041e-07
-1.03351e-07
-4.16273e-07
-1.0716e-07
-4.28007e-07
-1.11547e-07
-4.40306e-07
-1.16571e-07
-4.53236e-07
-1.22279e-07
-4.66869e-07
-1.28749e-07
-4.81286e-07
-1.36092e-07
-4.9658e-07
-1.44455e-07
-5.12862e-07
-1.54023e-07
-5.30261e-07
-1.65016e-07
-5.48926e-07
-1.77725e-07
-5.69051e-07
-1.9251e-07
-5.90887e-07
-2.09561e-07
-6.14716e-07
-2.2872e-07
-6.40828e-07
-2.49252e-07
-6.69435e-07
-2.69546e-07
-7.00539e-07
-2.87159e-07
-7.33787e-07
-2.99561e-07
-7.68476e-07
-3.05326e-07
-8.03746e-07
-3.04712e-07
-8.38822e-07
-2.991e-07
-8.7313e-07
-2.90058e-07
-9.06287e-07
-2.78787e-07
-9.38046e-07
-2.66067e-07
-9.68243e-07
-2.52339e-07
-9.96758e-07
-2.37837e-07
-1.0235e-06
-2.22692e-07
-1.04838e-06
-2.06982e-07
-1.07133e-06
-1.90759e-07
-1.0923e-06
-1.7407e-07
-1.11121e-06
-1.56954e-07
-1.12803e-06
-1.3945e-07
-1.1427e-06
-1.216e-07
-1.15518e-06
-1.03443e-07
-1.16545e-06
-8.50206e-08
-1.17347e-06
-6.63757e-08
-1.17921e-06
-4.75511e-08
-1.18267e-06
-2.85912e-08
-9.54421e-09
6.57579e-07
-7.56523e-09
6.54723e-07
-2.26166e-08
6.49985e-07
-3.75444e-08
6.43384e-07
-5.23041e-08
6.3495e-07
-6.68518e-08
6.24716e-07
-8.11426e-08
6.12721e-07
-9.51296e-08
5.99011e-07
-1.08762e-07
5.83639e-07
-1.21981e-07
5.66669e-07
-1.34716e-07
5.48175e-07
-1.46879e-07
5.28244e-07
-1.58356e-07
5.06986e-07
-1.68998e-07
4.84531e-07
-1.78625e-07
4.61037e-07
-1.87024e-07
4.36689e-07
-1.93976e-07
4.11696e-07
-1.99293e-07
3.86278e-07
-2.02867e-07
3.60654e-07
-2.04719e-07
3.3502e-07
-2.05006e-07
3.09537e-07
-2.03999e-07
2.84325e-07
-2.02026e-07
2.59464e-07
-1.99408e-07
2.35e-07
-1.96417e-07
2.10956e-07
-1.93253e-07
1.87338e-07
-1.90045e-07
1.64141e-07
-1.86865e-07
1.4136e-07
-1.83746e-07
1.18987e-07
-1.80691e-07
9.70154e-08
-1.77692e-07
7.54402e-08
-1.74732e-07
5.42582e-08
-1.71796e-07
3.34675e-08
-1.68869e-07
1.30674e-08
-1.65943e-07
-6.94311e-09
-1.63014e-07
-2.65645e-08
-1.60079e-07
-4.57949e-08
-1.57112e-07
-6.46321e-08
-1.54112e-07
-8.30749e-08
-1.51081e-07
-1.01123e-07
-1.48026e-07
-1.18776e-07
-1.4495e-07
-1.36036e-07
-1.41863e-07
-1.52905e-07
-1.38769e-07
-1.69387e-07
-1.35677e-07
-1.85486e-07
-1.32594e-07
-2.01209e-07
-1.29528e-07
-2.16561e-07
-1.26487e-07
-2.3155e-07
-1.23477e-07
-2.46185e-07
-1.20506e-07
-2.60475e-07
-1.1758e-07
-2.74429e-07
-1.14707e-07
-2.8806e-07
-1.11892e-07
-3.01377e-07
-1.09144e-07
-3.14394e-07
-1.0647e-07
-3.27125e-07
-1.0388e-07
-3.39584e-07
-1.01384e-07
-3.51789e-07
-9.90104e-08
-3.63763e-07
-9.67818e-08