/*--------------------------------*- C++ -*----------------------------------*\
  =========                 |
  \\      /  F ield         | OpenFOAM: The Open Source CFD Toolbox
   \\    /   O peration     | Website:  https://openfoam.org
    \\  /    A nd           | Version:  8
     \\/     M anipulation  |
\*---------------------------------------------------------------------------*/
FoamFile
{
    version     2.0;
    format      ascii;
    class       volScalarField;
    location    "540/fluid";
    object      Qdot;
}
// * * * * * * * * * * * * * * * * * * * * * * * * * * * * * * * * * * * * * //

dimensions      [1 -1 -3 0 0 0 0];

internalField   nonuniform List<scalar> 
4000
(
4.88067e-18
2.05069e-17
-8.57875e-17
0
0
-1.61775e-11
0
0
3.56017e-07
3.64178e-07
0
3.77461e-07
-3.8359e-07
2.09436e-18
1.24254e-09
-2.57174e-17
-2.06847e-09
-2.51835e-15
1.36833e-08
2.48546e-07
3.34664e-06
4.40882e-05
0.000528797
0.00527751
0.0431032
0.287181
1.57348
7.18876
27.8313
92.7887
270.373
697.359
1609.41
3357.17
6388.14
11200.5
18331.5
28377.8
42124
60708.5
85759.4
119455
164639
225085
305811
413336
556997
748662
1.00394e+06
1.34332e+06
1.79365e+06
2.3901e+06
3.17874e+06
4.21994e+06
5.5929e+06
7.4017e+06
9.78346e+06
1.289e+07
1.69179e+07
2.23547e+07
2.95142e+07
3.89518e+07
4.14843e+08
3.06109e+07
2.20234e+07
1.56592e+07
1.0982e+07
7.5817e+06
5.14212e+06
3.41982e+06
2.22848e+06
1.42711e+06
911606
590897
169687
13699.7
390.238
5.62008
0.0532055
0.00052825
9.48074e-06
4.25955e-07
4.54645e-08
9.64967e-09
3.23974e-09
9.0018e-10
4.23331e-10
1.99454e-10
9.99671e-11
3.0894e-11
9.01934e-12
6.25056e-12
2.90224e-12
9.97545e-13
4.11255e-13
1.91861e-13
7.22118e-14
2.82074e-14
5.254e-12
1.65189e-15
-2.65518e-07
-2.04647e-17
6.13682e-21
1.77871e-16
0
-1.30349e-11
0
0
0
3.35064e-15
0
-9.91994e-19
-3.72001e-07
9.68848e-10
-9.79005e-10
5.77489e-14
-5.86694e-14
-2.51232e-15
1.82816e-08
2.40724e-07
3.11386e-06
4.13103e-05
0.000494652
0.00495904
0.0408402
0.274926
1.52328
7.03808
27.5435
92.7575
272.777
709.387
1648.31
3454.92
6599.4
11595.8
18988.4
29367.5
43500
62498.8
87966.2
122051
167609
228242
308879
417014
561344
753867
1.01037e+06
1.35159e+06
1.80482e+06
2.40595e+06
3.20227e+06
4.25621e+06
5.65043e+06
7.49487e+06
9.93661e+06
1.31351e+07
1.7328e+07
2.30703e+07
3.078e+07
4.65422e+07
4.02969e+08
2.99951e+07
2.15463e+07
1.52934e+07
1.07028e+07
7.36939e+06
4.98179e+06
3.30039e+06
2.14158e+06
1.36646e+06
872747
545808
126538
8018.69
195.32
2.51036
0.0230907
0.000251322
5.41899e-06
2.9581e-07
3.76611e-08
7.82503e-09
2.62104e-09
1.0363e-09
4.39421e-10
1.92076e-10
6.69138e-11
3.36708e-11
1.5042e-11
5.71592e-12
2.8526e-12
2.01584e-12
4.07095e-13
1.64604e-13
6.90589e-14
2.67649e-14
8.82838e-15
1.4727e-15
0
0
2.88959e-07
1.26417e-20
0
-3.1875e-07
-3.26973e-07
-1.12818e-19
0
3.46426e-07
4.74137e-19
-9.59549e-19
5.68473e-10
0
-1.15833e-09
-3.19111e-17
-4.28695e-09
-2.56127e-15
1.36303e-08
2.31489e-07
3.04281e-06
3.99093e-05
0.000476031
0.0047828
0.0395861
0.268507
1.5014
7.00662
27.7035
94.2509
279.906
734.706
1721.44
3631.15
6965.11
12274.7
20119
31087.4
45930
65735.1
92090
127079
173308
234752
317131
426947
573407
768678
1.02879e+06
1.37488e+06
1.83479e+06
2.44531e+06
3.25508e+06
4.32858e+06
5.75152e+06
7.63836e+06
1.01426e+07
1.34279e+07
1.77465e+07
2.3666e+07
3.15908e+07
1.2674e+08
3.32829e+08
2.96033e+07
2.11587e+07
1.49363e+07
1.03919e+07
7.11049e+06
4.77467e+06
3.14109e+06
2.02448e+06
1.28566e+06
823188
468238
82658.3
4123.51
88.125
1.06171
0.0101194
0.000126802
3.31552e-06
2.14911e-07
3.09677e-08
7.75194e-09
2.52523e-09
9.46774e-10
3.92053e-10
1.69737e-10
7.20594e-11
3.27288e-11
1.38722e-11
6.07732e-12
2.27029e-12
1.02842e-12
-4.14011e-13
1.00553e-12
-5.43748e-12
-7.64142e-13
8.08374e-15
1.47564e-15
0
-2.76392e-07
2.87174e-07
2.97137e-07
0
3.69685e-16
3.21983e-07
0
0
-3.18679e-15
4.63079e-19
0
4.50265e-10
0
-7.67011e-18
-3.48084e-17
-2.28974e-09
-3.65615e-07
8.0193e-14
2.23912e-07
2.9681e-06
3.87056e-05
0.00046452
0.00468839
0.039071
0.26723
1.5081
7.10621
28.3732
97.4661
292.18
773.785
1827.89
3879.69
7467.72
13194.2
21636.1
33381.9
49166.2
70035
97452.5
133472
181166
244900
329577
442296
592474
792540
1.05889e+06
1.41314e+06
1.88386e+06
2.5088e+06
3.33799e+06
4.43787e+06
5.89686e+06
7.83312e+06
1.04052e+07
1.37777e+07
1.82143e+07
2.42971e+07
3.24374e+07
2.22365e+08
2.41321e+08
2.95024e+07
2.09043e+07
1.46285e+07
1.00885e+07
6.84178e+06
4.55323e+06
2.96919e+06
1.8988e+06
1.20063e+06
773024
370663
49677.8
2008.39
37.9907
0.43244
0.0043008
6.21748e-05
1.97158e-06
1.50755e-07
2.38669e-08
6.94845e-09
2.2466e-09
8.75789e-10
4.14772e-10
1.81834e-10
7.45767e-11
2.86522e-11
1.4433e-11
4.1705e-12
7.24035e-12
9.60461e-13
4.56613e-13
1.76451e-13
6.22647e-14
8.13398e-13
-7.565e-13
1.48093e-15
0
0
0
0
-1.7789e-16
1.53409e-11
0
0
0
1.06659e-10
0
-5.34058e-10
9.75394e-10
-8.80758e-10
1.08958e-09
-3.74367e-17
-2.21427e-09
-2.60197e-15
8.21057e-09
2.16188e-07
2.76601e-06
3.83759e-05
0.00046251
0.00468798
0.0393242
0.271073
1.54293
7.33541
29.5533
102.429
309.729
827.032
1968.31
4200.95
8106.98
14343.2
23510.2
36179.9
53017.4
74950.8
103538
141337
191473
257686
345508
462282
617729
824663
1.09999e+06
1.46602e+06
1.95224e+06
2.59764e+06
3.45393e+06
4.58974e+06
6.09647e+06
8.09622e+06
1.07519e+07
1.42191e+07
1.87863e+07
2.50656e+07
3.34757e+07
3.18293e+08
1.46305e+08
2.92451e+07
2.05354e+07
1.42369e+07
9.72631e+06
6.5345e+06
4.30878e+06
2.78526e+06
1.76812e+06
1.11448e+06
721296
261541
28542.3
970.262
16.5603
0.182214
0.00193151
3.24863e-05
1.2369e-06
1.1136e-07
2.04171e-08
5.73735e-09
2.08131e-09
7.35767e-10
3.50708e-10
1.56682e-10
6.24808e-11
2.57047e-11
7.50134e-12
5.25288e-12
7.87066e-12
9.5181e-13
3.73841e-13
1.43452e-13
6.82984e-14
5.33785e-12
8.11415e-15
1.22663e-15
0
-2.01376e-17
2.83369e-07
-1.7146e-16
-1.75861e-16
0
-7.32844e-16
3.16764e-07
3.20831e-07
0
4.41244e-19
0
-5.23712e-10
0
-3.35031e-07
-3.6303e-17
2.14471e-09
-2.64314e-15
1.1498e-08
2.24893e-07
2.80016e-06
3.89696e-05
0.000467104
0.00476475
0.040246
0.279579
1.60443
7.69195
31.2504
109.207
332.864
895.486
2145.42
4602.35
8898.73
15725.3
25710.4
39343.7
57284.3
80636.1
111256
151189
203617
272814
364547
486471
648711
864618
1.15182e+06
1.53359e+06
2.0407e+06
2.71386e+06
3.60698e+06
4.79149e+06
6.3622e+06
8.44519e+06
1.12008e+07
1.47908e+07
1.95316e+07
2.60185e+07
3.46569e+07
4.08435e+08
5.13047e+07
2.84898e+07
1.97679e+07
1.35691e+07
9.18964e+06
6.12506e+06
4.00911e+06
2.57437e+06
1.62603e+06
1.02418e+06
657986
193140
16047.9
474.483
7.43834
0.0803837
0.000916393
1.78686e-05
8.06148e-07
8.31595e-08
1.68235e-08
5.00225e-09
1.82958e-09
7.7665e-10
2.91264e-10
1.41558e-10
5.8536e-11
2.19993e-11
1.06655e-11
9.66511e-12
2.08429e-12
8.41935e-13
3.2109e-13
-6.64478e-13
6.20081e-14
2.19761e-14
-5.16767e-12
1.31346e-15
0
1.68804e-12
-8.27062e-17
0
-1.73882e-16
0
0
6.15578e-11
0
1.02146e-10
2.0561e-10
0
4.14768e-10
-8.32299e-10
2.43867e-14
-4.22174e-17
3.76493e-09
-2.69105e-15
1.11053e-08
2.39478e-07
2.8811e-06
3.96268e-05
0.000479275
0.00491302
0.0417862
0.292472
1.69163
8.17452
33.4733
117.879
361.965
980.483
2362.82
5088.59
9834.68
17294.9
28109.2
42772.8
62109.6
87281.6
119718
161814
216907
289534
385763
513640
683793
910264
1.21162e+06
1.61244e+06
2.1453e+06
2.8534e+06
3.79404e+06
5.04331e+06
6.70227e+06
8.90514e+06
1.18292e+07
1.56024e+07
2.06015e+07
2.73875e+07
3.62995e+07
4.55543e+08
3.59433e+07
2.55028e+07
1.78528e+07
1.23166e+07
8.36167e+06
5.5766e+06
3.64819e+06
2.34061e+06
1.47889e+06
936282
583366
138004
9153.95
241.27
3.5304
0.0380301
0.00046986
1.05729e-05
5.56766e-07
6.53094e-08
1.41465e-08
4.51093e-09
1.49882e-09
6.64596e-10
3.12744e-10
1.31741e-10
5.88838e-11
2.97656e-11
1.13653e-11
4.5015e-12
1.86125e-12
8.35864e-13
3.30698e-13
1.35607e-13
5.57815e-14
2.19805e-14
5.16678e-12
-5.04304e-12
0
2.86676e-21
-8.21462e-17
0
-2.92517e-07
0
0
6.04753e-11
-9.93017e-11
-2.9192e-15
0
0
0
-1.69542e-18
-9.96222e-10
-3.19294e-07
-1.63416e-09
-2.77278e-15
1.81171e-08
3.93546e-07
3.1421e-06
4.1174e-05
0.000496876
0.00512852
0.0439218
0.309691
1.80476
8.7873
36.2518
128.595
397.63
1084.02
2624.67
5659.25
10891.4
19029.8
30874.7
46955
67821.1
94535.3
128768
173046
230885
307068
407962
542004
720342
957735
1.27376e+06
1.69441e+06
2.25431e+06
2.99958e+06
3.99184e+06
5.31352e+06
7.07516e+06
9.42547e+06
1.25639e+07
1.66461e+07
2.22707e+07
2.98262e+07
3.9969e+07
4.43097e+08
3.25691e+07
2.316e+07
1.62489e+07
1.123e+07
7.63285e+06
5.09361e+06
3.33319e+06
2.13983e+06
1.3555e+06
865553
508261
98175.3
5429.01
129.865
1.79612
0.0194742
0.000261053
6.70587e-06
4.05762e-07
5.36052e-08
1.21522e-08
4.03934e-09
1.4752e-09
6.08431e-10
2.82112e-10
1.17685e-10
5.80636e-11
2.37913e-11
1.04206e-11
4.45638e-12
2.04698e-12
7.29669e-13
3.17766e-13
1.22835e-13
5.23292e-14
5.25833e-12
-7.49443e-13
1.14511e-15
4.82793e-18
0
-8.15996e-17
-2.83854e-07
0
-3.45162e-16
0
3.00205e-07
0
-3.03748e-07
-5.72785e-15
0
0
-9.65613e-10
9.65968e-10
-3.62995e-17
1.94151e-09
-2.8562e-15
1.42646e-08
8.7984e-08
3.11824e-06
4.28952e-05
0.000520982
0.00540858
0.0466405
0.331231
1.94441
9.53626
39.6241
141.54
440.493
1206.65
2927.07
6308.98
12118.3
21167.4
34190.6
51549.4
73837
102102
138109
184520
245028
324630
429948
569736
755556
1.00273e+06
1.33159e+06
1.76919e+06
2.35162e+06
3.12708e+06
4.1601e+06
5.53737e+06
7.37564e+06
9.83289e+06
1.30999e+07
1.73946e+07
2.33524e+07
3.14053e+07
6.88241e+07
4.11303e+08
3.05405e+07
2.16935e+07
1.52056e+07
1.04999e+07
7.13064e+06
4.7548e+06
3.10984e+06
1.99712e+06
1.26879e+06
818194
436200
70859.5
3380.89
74.4715
0.984235
0.0108139
0.000157024
4.55163e-06
3.09996e-07
4.44674e-08
1.08448e-08
3.57912e-09
1.35144e-09
5.93066e-10
2.776e-10
1.2861e-10
4.62028e-11
2.34116e-11
9.49976e-12
4.0111e-12
1.82914e-12
7.46684e-13
2.91379e-13
-5.2262e-12
5.33574e-12
1.89923e-14
6.7043e-15
1.06001e-15
0
-3.02336e-12
0
0
-1.67991e-16
1.4328e-11
0
5.83383e-11
2.96297e-07
9.5663e-11
8.02652e-19
0
-4.69536e-10
-7.62577e-10
-6.38462e-18
-2.95582e-07
-3.06927e-16
-3.06236e-09
1.75175e-08
2.59682e-07
3.42996e-06
4.49611e-05
0.000550375
0.00575186
0.04994
0.357171
2.11163
10.4297
43.637
156.827
490.201
1346.43
3275.34
7084.2
13606.1
23574.9
37777.4
56441.9
80126
109888
147593
196027
259039
341789
451081
595879
788003
1.04309e+06
1.38185e+06
1.83183e+06
2.42965e+06
3.22411e+06
4.28037e+06
5.6855e+06
7.55613e+06
1.00488e+07
1.33466e+07
1.76553e+07
2.35929e+07
3.15352e+07
1.44568e+08
3.44701e+08
2.94943e+07
2.08944e+07
1.4612e+07
1.00699e+07
6.82675e+06
4.54559e+06
2.97018e+06
1.90765e+06
1.21523e+06
790263
383943
52488.8
2220.94
45.4938
0.579749
0.00648706
0.000101617
3.28214e-06
2.48086e-07
3.78153e-08
9.69774e-09
3.13403e-09
1.32777e-09
5.33959e-10
2.48327e-10
1.06267e-10
4.72844e-11
2.16037e-11
9.38845e-12
4.36353e-12
1.61571e-12
6.05068e-12
2.89659e-13
1.21834e-13
4.93819e-14
1.89772e-14
5.98336e-15
7.40413e-13
0
1.97215e-17
5.77805e-21
0
1.3977e-11
-1.14965e-11
2.31781e-11
0
-1.36483e-15
1.14951e-10
5.45551e-15
-2.89296e-07
0
9.08995e-10
2.87061e-07
-4.30062e-14
-3.14493e-16
-3.1082e-15
1.61579e-08
2.72065e-07
3.48788e-06
4.75075e-05
0.000585409
0.00615611
0.0538168
0.387597
2.30769
11.478
48.3099
174.334
547.002
1514.62
3718.36
8048.46
15320.5
26249.4
41651.8
61607.7
86627.2
117813
157135
207486
272846
358489
471342
620489
817887
1.07931e+06
1.42561e+06
1.88445e+06
2.49248e+06
3.29844e+06
4.36713e+06
5.78487e+06
7.66683e+06
1.01669e+07
1.34608e+07
1.77496e+07
2.36411e+07
3.14978e+07
2.09022e+08
2.82773e+08
2.88522e+07
2.04045e+07
1.42474e+07
9.80527e+06
6.63961e+06
4.41703e+06
2.88497e+06
1.85399e+06
1.18445e+06
775686
334896
40181.1
1539.73
29.6333
0.366357
0.00418118
7.02629e-05
2.49908e-06
2.06633e-07
3.39247e-08
9.14923e-09
3.26235e-09
1.30287e-09
5.24403e-10
2.44091e-10
1.17574e-10
4.79702e-11
2.13114e-11
9.2733e-12
3.92639e-12
1.50342e-12
6.64762e-13
2.63688e-13
1.09265e-13
4.32856e-14
5.18089e-12
5.62514e-15
9.7728e-16
0
2.67347e-07
2.73802e-12
0
1.64112e-16
0
0
0
0
1.12339e-10
0
0
0
-3.00395e-18
7.12685e-10
-4.16568e-17
-4.17006e-14
-3.24884e-15
1.89926e-08
1.41271e-07
3.5528e-06
5.05071e-05
0.000625164
0.00661842
0.0582544
0.422521
2.5336
12.6798
53.6407
194.999
619.22
1727
4246.18
9158.77
17237.4
29141.5
45740.5
66944.7
93230.5
125778
166654
218854
286459
374825
490955
644006
845998
1.11275e+06
1.46515e+06
1.93078e+06
2.54619e+06
3.35978e+06
4.43579e+06
5.85955e+06
7.74467e+06
1.02416e+07
1.352e+07
1.7786e+07
2.3635e+07
3.14116e+07
2.64579e+08
2.29309e+08
2.82719e+07
1.99974e+07
1.39636e+07
9.60994e+06
6.50749e+06
4.32958e+06
2.82891e+06
1.82008e+06
1.16661e+06
768556
284581
31771.1
1120.82
20.4431
0.246822
0.00287627
5.15168e-05
1.99171e-06
1.7674e-07
3.07369e-08
8.24054e-09
3.01233e-09
1.18415e-09
5.14472e-10
2.39715e-10
1.09596e-10
4.64651e-11
2.10086e-11
9.15415e-12
3.8814e-12
1.53175e-12
6.59165e-13
-5.09872e-13
1.08702e-13
4.31386e-14
1.74508e-14
5.6265e-15
9.79497e-16
-6.89184e-22
2.98565e-12
-5.69984e-21
0
-2.75967e-07
-1.3735e-11
0
0
1.87852e-19
2.60711e-15
-2.75676e-07
-7.38863e-19
-2.7149e-07
-2.90745e-18
2.67189e-07
-3.04908e-09
-3.48293e-16
-3.40212e-15
2.88185e-07
2.91497e-07
3.8144e-06
5.36056e-05
0.000669467
0.00713188
0.063197
0.461544
2.78458
14.0149
59.7803
219.79
702.74
1970.82
4855.67
10419.8
19321.9
32156.4
49899.7
72271.2
99744.7
133600
175989
230007
299801
390790
510025
666704
872874
1.14436e+06
1.502e+06
1.97329e+06
2.59454e+06
3.4138e+06
4.49467e+06
5.9214e+06
7.80502e+06
1.02951e+07
1.35589e+07
1.77966e+07
2.35923e+07
3.12801e+07
3.10709e+08
1.85454e+08
2.76975e+07
1.96136e+07
1.37099e+07
9.44406e+06
6.40079e+06
4.26268e+06
2.78861e+06
1.79752e+06
1.15606e+06
763339
260754
25815.7
851.612
14.8565
0.176219
0.00209758
3.97768e-05
1.65666e-06
1.57382e-07
2.79841e-08
8.05752e-09
2.94661e-09
1.15828e-09
5.50076e-10
2.11872e-10
9.6712e-11
4.34859e-11
1.91975e-11
7.5226e-12
-1.7418e-12
1.52547e-12
6.53257e-13
2.5999e-13
1.05438e-13
4.29679e-14
1.59551e-14
-5.06639e-12
8.91951e-16
6.88201e-22
0
-7.88695e-17
0
0
0
-9.24393e-20
9.8145e-11
1.28054e-15
0
0
-9.99985e-15
-2.63106e-07
2.60301e-07
-8.3476e-18
2.55451e-07
-3.67188e-16
-3.20003e-09
2.31684e-08
3.1264e-07
4.09157e-06
5.70008e-05
0.000716818
0.00768586
0.0685622
0.503861
3.05874
15.5257
66.9501
247.952
798.321
2251.14
5553.48
11822.1
21490.2
35114.8
53893.1
77293.3
105858
140963
184836
240650
312594
406130
528335
688427
898451
1.1742e+06
1.53643e+06
2.01246e+06
2.63831e+06
3.46156e+06
4.54475e+06
5.97049e+06
7.84994e+06
1.03319e+07
1.35728e+07
1.77755e+07
2.35126e+07
3.11069e+07
3.48243e+08
1.50019e+08
2.71256e+07
1.92419e+07
1.34719e+07
9.29502e+06
6.31001e+06
4.20941e+06
2.7591e+06
1.7829e+06
1.15085e+06
760201
241397
21651.7
675.832
11.3606
0.13296
0.00161495
3.21944e-05
1.42376e-06
1.43006e-07
2.66332e-08
7.51857e-09
2.70167e-09
1.08383e-09
5.38325e-10
2.07632e-10
9.4917e-11
4.27429e-11
1.8897e-11
3.05894e-12
3.41285e-12
1.45693e-12
6.00122e-13
2.57949e-13
1.07409e-13
4.27751e-14
1.59133e-14
5.61947e-15
-7.35601e-13
0
0
0
-1.20384e-11
0
4.5506e-20
0
0
1.79792e-19
0
2.61416e-07
0
2.54711e-07
-6.47423e-10
1.42488e-09
-2.48183e-07
-3.69489e-14
-3.71316e-15
2.20853e-08
2.02495e-07
4.36421e-06
6.06091e-05
0.00076588
0.00826369
0.0741815
0.548542
3.35757
17.2189
74.8033
279.156
905.36
2566.93
6332.74
13315.5
23560
37698.2
57306.6
81558.5
111099
147374
192689
250251
324282
420259
545274
708541
922077
1.20161e+06
1.56775e+06
2.04756e+06
2.67651e+06
3.50096e+06
4.58292e+06
6.00581e+06
7.87816e+06
1.03426e+07
1.35514e+07
1.77069e+07
2.33697e+07
3.08548e+07
3.77852e+08
1.21761e+08
2.65558e+07
1.88783e+07
1.32455e+07
9.1582e+06
6.23057e+06
4.16585e+06
2.73738e+06
1.77413e+06
1.14967e+06
759054
226387
18754.2
559.458
9.12
0.105651
0.00130675
2.7182e-05
1.26457e-06
1.31459e-07
2.5267e-08
7.65499e-09
2.80306e-09
1.10537e-09
4.82139e-10
2.14429e-10
9.87356e-11
4.19754e-11
1.85881e-11
8.03936e-12
3.36785e-12
6.92581e-13
5.94136e-13
2.55803e-13
-6.55531e-13
4.25656e-14
1.58637e-14
5.25339e-15
8.93711e-16
-2.01199e-13
0
0
0
1.56403e-16
0
-6.21971e-16
0
0
2.42049e-15
0
-2.50255e-07
-9.26253e-15
-6.24291e-10
-1.03064e-17
-5.08079e-17
2.66936e-09
5.28795e-09
2.33543e-08
2.20448e-07
4.5177e-06
6.40761e-05
0.000814645
0.0088391
0.0798163
0.594798
3.6746
18.9789
83.078
312.493
1021.13
2910.19
7164.58
14780.4
25196.8
39411.7
59546.7
84421
114775
152106
198763
257962
333938
432166
559735
725841
942459
1.22518e+06
1.59433e+06
2.07644e+06
2.70665e+06
3.53141e+06
4.61223e+06
6.02819e+06
7.88491e+06
1.03218e+07
1.34846e+07
1.75669e+07
2.31079e+07
3.03954e+07
4.07818e+08
9.64089e+07
2.59891e+07
1.85221e+07
1.30282e+07
9.03067e+06
6.15972e+06
4.12965e+06
2.72157e+06
1.76981e+06
1.15153e+06
759309
215368
16765.3
482.139
7.66502
0.0880938
0.0011065
2.38319e-05
1.15331e-06
1.24431e-07
2.48869e-08
7.43866e-09
2.72729e-09
1.16161e-09
5.13647e-10
2.20615e-10
9.92094e-11
4.24518e-11
1.82704e-11
3.36325e-12
3.3213e-12
1.42258e-12
5.87934e-13
2.53556e-13
1.00178e-13
3.94578e-14
1.58085e-14
5.60234e-15
8.93955e-16
0
0
0
-5.29759e-12
0
-1.29487e-11
0
1.21052e-15
0
0
-2.46794e-07
0
6.82944e-10
-1.75541e-14
7.25158e-10
1.15982e-09
-4.02286e-16
5.02917e-09
2.98654e-08
3.55264e-07
4.87211e-06
6.75062e-05
0.000860406
0.00938782
0.0852959
0.64045
3.98123
20.7044
91.312
346.174
1139.57
3261.56
7983.12
15984.8
25853.4
39520.4
59820.1
85038.4
115970
154155
201938
262529
340149
440262
569928
738283
957170
1.24197e+06
1.61289e+06
2.09649e+06
2.7278e+06
3.55227e+06
4.62882e+06
6.03573e+06
7.87607e+06
1.02858e+07
1.34051e+07
1.74243e+07
2.28688e+07
3.0018e+07
4.26434e+08
7.91987e+07
2.5426e+07
1.81715e+07
1.28174e+07
8.90973e+06
6.09488e+06
4.09856e+06
2.70984e+06
1.76847e+06
1.15528e+06
760237
207903
15445.7
431.565
6.72552
0.076819
0.000976712
2.16164e-05
1.0806e-06
1.2048e-07
2.40441e-08
7.53019e-09
2.6492e-09
1.17586e-09
5.00812e-10
2.15497e-10
1.00092e-10
4.0377e-11
1.79435e-11
7.78755e-12
3.63192e-12
1.49493e-12
-1.52459e-13
2.05586e-13
1.05156e-13
3.92357e-14
1.57471e-14
5.07396e-15
9.38256e-16
2.59562e-07
-2.74888e-21
-2.61049e-07
0
1.52557e-16
2.57793e-07
0
0
1.16816e-15
0
4.50504e-15
0
2.95529e-10
-2.24931e-07
-6.94838e-10
-5.57163e-17
1.08725e-09
2.13987e-09
2.61182e-08
3.67167e-07
5.09122e-06
7.01454e-05
0.000899559
0.00986164
0.0901308
0.680138
4.25164
22.2486
98.7944
377.242
1249.89
3584.71
8664.83
16527.1
24733.8
37105.6
57187.8
82393.2
113562
152235
200720
262194
340834
442068
572913
742434
962444
1.24836e+06
1.62037e+06
2.10462e+06
2.73488e+06
3.55574e+06
4.62549e+06
6.02065e+06
7.84172e+06
1.02211e+07
1.32933e+07
1.72445e+07
2.2584e+07
2.95783e+07
4.40615e+08
6.69643e+07
2.48642e+07
1.78231e+07
1.26091e+07
8.79122e+06
6.03217e+06
4.06919e+06
2.69933e+06
1.76781e+06
1.15902e+06
763152
203424
14630.3
400.024
6.14008
0.0697997
0.000895405
2.02152e-05
1.03497e-06
1.16982e-07
2.41698e-08
7.29001e-09
2.63949e-09
1.14277e-09
5.08208e-10
2.20742e-10
1.03205e-10
3.95507e-11
1.76101e-11
7.65718e-12
3.22469e-12
1.38617e-12
5.74911e-13
9.7936e-13
1.01792e-13
-6.93873e-13
1.42573e-14
4.86597e-15
8.49094e-16
0
2.7372e-21
0
0
1.50634e-16
2.27718e-11
0
-8.85893e-11
-1.14002e-15
2.37603e-07
0
-2.26731e-07
2.21648e-07
0
5.40639e-10
-5.30837e-17
-2.02612e-07
-1.93887e-07
2.41461e-08
2.75725e-07
5.05971e-06
7.2172e-05
0.000928371
0.0102147
0.0936883
0.709742
4.45594
23.4304
104.596
401.582
1336.05
3822.04
9006.59
15774.6
24034.1
31508.6
50699.7
75429.9
106288
144788
193194
254623
333205
434321
564952
734159
953664
1.2387e+06
1.6089e+06
2.08998e+06
2.71543e+06
3.52898e+06
4.58772e+06
5.96642e+06
7.76301e+06
1.01061e+07
1.3125e+07
1.70003e+07
2.2224e+07
2.90486e+07
4.50211e+08
5.92995e+07
2.42982e+07
1.74692e+07
1.23945e+07
8.66627e+06
5.96341e+06
4.03447e+06
2.68429e+06
1.76331e+06
1.15937e+06
764154
201222
14198.9
382.507
5.80927
0.0658122
0.000849062
1.94138e-05
1.00752e-06
1.14904e-07
2.38873e-08
7.34029e-09
2.63943e-09
1.14465e-09
5.14316e-10
2.15157e-10
9.84731e-11
4.13682e-11
1.80162e-11
6.8304e-12
2.47167e-12
1.27927e-12
6.12608e-13
4.44623e-12
1.03498e-13
-4.20236e-12
1.56126e-14
5.2086e-15
8.48508e-16
-6.82332e-22
0
2.57377e-07
0
-1.48689e-16
1.00558e-11
2.46013e-07
0
-2.36493e-07
-7.43714e-11
1.4493e-10
-2.18872e-07
-6.10248e-10
6.53148e-10
5.15903e-10
-5.46515e-17
-4.21687e-16
4.25018e-09
2.05987e-07
3.74738e-07
5.08006e-06
7.33109e-05
0.000943307
0.0103967
0.0955261
0.725136
4.56308
24.0557
107.686
414.47
1378.81
3900.05
8783.53
16405.1
25037.8
32848.3
39811.8
63490.5
93217.6
130516
177596
237498
314267
413185
541112
706936
922175
1.20177e+06
1.56513e+06
2.0375e+06
2.65178e+06
3.45084e+06
4.49062e+06
5.84424e+06
7.60729e+06
9.90497e+06
1.28622e+07
1.66542e+07
2.1756e+07
2.84063e+07
4.55281e+08
5.58745e+07
2.37132e+07
1.70878e+07
1.21491e+07
8.51106e+06
5.8674e+06
3.97669e+06
2.65059e+06
1.7442e+06
1.14837e+06
757866
199985
14041.4
375.443
5.67017
0.0641137
0.000829285
1.90714e-05
9.95423e-07
1.1466e-07
2.40953e-08
7.36489e-09
2.78e-09
1.18445e-09
5.19115e-10
2.19466e-10
9.83926e-11
4.18938e-11
1.75203e-11
8.06487e-12
3.20089e-12
1.34816e-12
5.85514e-13
9.60811e-13
-4.81297e-12
4.98402e-12
-4.95138e-12
4.84059e-15
4.98494e-12
0
1.89866e-17
-2.57371e-07
0
0
0
0
-4.77908e-11
2.36492e-07
0
2.25057e-07
-2.19152e-07
0
0
5.15897e-10
-5.46508e-17
-1.90543e-07
-4.22822e-15
2.49477e-08
3.76976e-07
4.99311e-06
7.33206e-05
0.000943383
0.0103974
0.09553
0.725157
4.56317
24.0561
107.687
414.475
1378.82
3900.06
8783.58
16405.2
25037.8
32848.4
39809.7
63488.2
93215.2
130513
177593
237496
314264
413183
541111
706935
922175
1.20177e+06
1.56513e+06
2.03751e+06
2.65179e+06
3.45085e+06
4.49064e+06
5.84427e+06
7.60732e+06
9.90501e+06
1.28623e+07
1.66542e+07
2.17561e+07
2.84064e+07
4.55288e+08
5.58666e+07
2.37132e+07
1.70878e+07
1.21491e+07
8.51107e+06
5.86741e+06
3.97669e+06
2.65059e+06
1.7442e+06
1.14837e+06
757866
199982
14041
375.432
5.66999
0.0641117
0.000829262
1.90726e-05
9.97613e-07
1.14661e-07
2.40953e-08
7.36483e-09
2.69865e-09
1.10861e-09
4.99631e-10
2.19467e-10
9.83929e-11
3.90183e-11
1.76569e-11
7.692e-12
3.29548e-12
6.46127e-13
-1.04857e-13
2.43868e-13
5.01267e-12
4.13202e-14
-7.14575e-13
4.84059e-15
8.47836e-16
0
-1.90679e-17
-3.20563e-12
0
-2.56318e-07
2.53819e-07
0
-4.88459e-11
0
9.40267e-11
2.32308e-07
-4.26378e-15
0
-2.3252e-18
-1.20507e-09
-2.04825e-07
1.26832e-09
4.51008e-09
2.41453e-08
2.75715e-07
4.9661e-06
7.22898e-05
0.00092867
0.0102172
0.0936966
0.70977
4.45606
23.4309
104.598
401.59
1336.07
3822.08
9006.46
15773.2
24034.2
31508.6
50696.4
75426.3
106284
144784
193190
254619
333201
434318
564951
734162
953669
1.23871e+06
1.60891e+06
2.09e+06
2.71547e+06
3.52902e+06
4.58779e+06
5.9665e+06
7.76312e+06
1.01062e+07
1.31252e+07
1.70005e+07
2.22243e+07
2.9049e+07
4.50233e+08
5.92754e+07
2.42982e+07
1.74693e+07
1.23945e+07
8.66628e+06
5.96341e+06
4.03447e+06
2.68429e+06
1.76331e+06
1.15937e+06
764151
201212
14197.8
382.472
5.80872
0.0658061
0.000848996
1.94106e-05
1.00754e-06
1.15535e-07
2.38875e-08
7.34046e-09
2.64354e-09
1.14405e-09
5.05349e-10
2.15161e-10
9.55941e-11
4.01736e-11
1.727e-11
8.21139e-12
3.07877e-12
1.27928e-12
5.68158e-13
2.4637e-13
1.035e-13
4.15878e-14
1.56126e-14
4.85368e-15
-7.32423e-13
0
-1.91465e-17
-2.61046e-07
0
2.18995e-20
0
-4.58115e-11
0
2.48466e-07
1.75288e-10
0
0
2.95515e-10
-2.42259e-18
-6.94822e-10
-5.1072e-17
-2.42348e-09
-4.10831e-15
2.56339e-08
3.65069e-07
4.99106e-06
7.0363e-05
0.000899615
0.00986258
0.0901072
0.680151
4.25214
22.2519
98.8097
377.299
1250.06
3585.15
8665.64
16527.7
24733.6
37106
57188.7
82394.8
113564
152238
200725
262200
340840
442076
572921
742444
962458
1.24838e+06
1.6204e+06
2.10467e+06
2.73495e+06
3.55583e+06
4.62561e+06
6.0208e+06
7.84192e+06
1.02213e+07
1.32936e+07
1.72449e+07
2.25845e+07
2.9579e+07
4.40653e+08
6.69235e+07
2.48642e+07
1.78232e+07
1.26091e+07
8.79122e+06
6.03216e+06
4.06918e+06
2.69933e+06
1.7678e+06
1.15901e+06
763145
203408
14628.3
399.962
6.13906
0.0697883
0.000895283
2.02119e-05
1.03499e-06
1.16984e-07
2.3839e-08
7.29008e-09
2.72179e-09
1.09854e-09
4.9901e-10
2.20747e-10
9.71937e-11
4.10475e-11
1.83063e-11
7.65721e-12
3.2247e-12
1.297e-12
6.19856e-13
2.48829e-13
1.0434e-13
3.90015e-14
7.5208e-13
4.86609e-15
8.9346e-16
-2.59933e-07
2.61783e-07
0
-1.54701e-16
1.54456e-16
-2.61786e-07
0
9.24117e-11
0
-3.38582e-19
6.6623e-19
-2.42419e-07
2.38186e-07
-6.0111e-10
-9.89313e-18
-2.25127e-07
2.24294e-07
2.25612e-09
2.21426e-08
3.53038e-07
4.77961e-06
6.76241e-05
0.000860492
0.0093917
0.0853616
0.640745
3.98251
20.7096
91.3317
346.24
1139.76
3262.05
7984.09
15985.9
25854.3
39522.3
59822.6
85041.6
115974
154161
201946
262539
340163
440280
569951
738312
957205
1.24201e+06
1.61294e+06
2.09656e+06
2.72789e+06
3.55239e+06
4.62898e+06
6.03595e+06
7.87634e+06
1.02862e+07
1.34055e+07
1.74249e+07
2.28696e+07
3.00189e+07
4.26491e+08
7.91402e+07
2.54259e+07
1.81715e+07
1.28174e+07
8.90972e+06
6.09486e+06
4.09854e+06
2.70982e+06
1.76846e+06
1.15527e+06
760228
207881
15442.8
431.469
6.72392
0.076801
0.000976513
2.16159e-05
1.08063e-06
1.20608e-07
2.43864e-08
7.21448e-09
2.73824e-09
1.13045e-09
4.91387e-10
2.15499e-10
9.46438e-11
4.03773e-11
1.79441e-11
7.78758e-12
4.17625e-12
2.22428e-12
-4.36618e-12
2.51235e-13
9.94347e-14
7.82204e-13
1.57471e-14
5.23401e-15
8.93852e-16
1.63702e-13
0
0
-2.24235e-20
0
2.65734e-07
-8.92964e-20
1.77387e-19
1.22437e-15
0
0
-2.50251e-07
0
-2.42351e-07
7.55397e-10
-1.21199e-09
-1.47176e-09
2.91559e-09
2.86032e-08
2.23319e-07
4.63059e-06
6.41057e-05
0.000814859
0.00884255
0.0798557
0.59503
3.67579
18.9841
83.0979
312.56
1021.33
2910.68
7165.58
14781.8
25198.4
39414.4
59550.2
84425.4
114781
152113
198772
257974
333954
432187
559762
725875
942504
1.22523e+06
1.5944e+06
2.07653e+06
2.70677e+06
3.53156e+06
4.61243e+06
6.02846e+06
7.88526e+06
1.03223e+07
1.34852e+07
1.75677e+07
2.31088e+07
3.03967e+07
4.07896e+08
9.63317e+07
2.5989e+07
1.8522e+07
1.30281e+07
9.03062e+06
6.15967e+06
4.12961e+06
2.72155e+06
1.76979e+06
1.15152e+06
759291
215339
16761.2
481.999
7.66261
0.0880663
0.00110619
2.38301e-05
1.15448e-06
1.23865e-07
2.51742e-08
7.2929e-09
2.81873e-09
1.07714e-09
5.13665e-10
2.20621e-10
9.60118e-11
3.83675e-11
1.68439e-11
7.91484e-12
3.32138e-12
-3.50925e-12
5.87936e-13
2.53556e-13
1.0018e-13
5.1043e-12
1.5808e-14
5.24465e-15
-7.3429e-13
-2.60675e-07
0
-2.66565e-07
-1.13199e-20
1.58303e-16
-3.17002e-16
4.83178e-11
0
1.91202e-10
-1.89526e-10
-7.05248e-19
0
-1.3752e-18
-7.95704e-10
-6.39218e-10
-2.81766e-09
-2.45903e-07
-7.63701e-14
2.76058e-08
3.24805e-07
4.36407e-06
6.0624e-05
0.000766177
0.00826636
0.0742072
0.548748
3.35878
17.2246
74.8255
279.229
905.571
2567.45
6333.81
13317.1
23562.1
37701.5
57310.8
81563.7
111106
147382
192699
250264
324299
420282
545303
708579
922127
1.20167e+06
1.56783e+06
2.04767e+06
2.67664e+06
3.50113e+06
4.58315e+06
6.00612e+06
7.87856e+06
1.03431e+07
1.35521e+07
1.77078e+07
2.3371e+07
3.08565e+07
3.77953e+08
1.21662e+08
2.65556e+07
1.88782e+07
1.32454e+07
9.15813e+06
6.23051e+06
4.1658e+06
2.73735e+06
1.77411e+06
1.14966e+06
759038
226350
18748.5
559.253
9.11637
0.105609
0.00130628
2.71746e-05
1.26199e-06
1.32768e-07
2.59264e-08
7.65595e-09
2.70932e-09
1.10538e-09
5.26177e-10
2.14431e-10
9.30649e-11
4.35585e-11
1.85882e-11
8.03939e-12
4.29574e-12
1.44008e-12
6.40571e-13
2.55803e-13
5.20725e-12
3.96671e-14
7.61791e-13
5.61202e-15
8.9374e-16
-4.79414e-18
2.97313e-12
1.13217e-20
1.14281e-20
-1.34892e-11
-2.45538e-11
2.73935e-07
0
1.28034e-15
2.70858e-07
0
0
0
0
8.15795e-10
-1.31602e-09
2.91405e-09
-5.80354e-09
2.31678e-08
3.12631e-07
3.95382e-06
5.72919e-05
0.000717064
0.00768922
0.0685906
0.5041
3.06004
15.5316
66.9731
248.027
798.535
2251.66
5554.57
11823.9
21492.7
35118.6
53897.9
77299.2
105865
140972
184847
240664
312613
406154
528366
688468
898504
1.17427e+06
1.53651e+06
2.01257e+06
2.63846e+06
3.46174e+06
4.54498e+06
5.97079e+06
7.85034e+06
1.03324e+07
1.35735e+07
1.77765e+07
2.35139e+07
3.11087e+07
3.48373e+08
1.49893e+08
2.71255e+07
1.92418e+07
1.34719e+07
9.29494e+06
6.30994e+06
4.20935e+06
2.75906e+06
1.78287e+06
1.15083e+06
760179
241352
21643.7
675.529
11.355
0.132895
0.00161422
3.21834e-05
1.42232e-06
1.41663e-07
2.73119e-08
7.86207e-09
2.70169e-09
1.13271e-09
5.38329e-10
2.19054e-10
1.00701e-10
4.27441e-11
1.88976e-11
7.41011e-12
3.41286e-12
2.21354e-12
6.00139e-13
2.57949e-13
1.01559e-13
4.43833e-14
1.73626e-14
5.2599e-15
9.82137e-16
-3.66466e-13
0
7.94065e-17
-1.22687e-11
1.6218e-16
0
0
0
0
0
5.18423e-15
-2.73692e-07
0
-2.9074e-18
2.68718e-07
3.04902e-09
-4.01167e-14
-3.40204e-15
2.42473e-08
2.91489e-07
3.82646e-06
5.36282e-05
0.000669629
0.0071358
0.0632302
0.461777
2.78606
14.0215
59.8058
219.873
702.971
1971.37
4856.82
10421.8
19324.8
32160.7
49905.2
72277.8
99752.7
133610
176000
230022
299821
390815
510057
666745
872927
1.14443e+06
1.50209e+06
1.9734e+06
2.59469e+06
3.41398e+06
4.49491e+06
5.9217e+06
7.8054e+06
1.02956e+07
1.35595e+07
1.77974e+07
2.35932e+07
3.12812e+07
3.1085e+08
1.85303e+08
2.76972e+07
1.96135e+07
1.37098e+07
9.44395e+06
6.4007e+06
4.2626e+06
2.78855e+06
1.79748e+06
1.15603e+06
763320
260699
25804.4
851.156
14.8477
0.176114
0.00209643
3.97586e-05
1.65114e-06
1.56624e-07
2.86812e-08
8.05771e-09
3.12538e-09
1.159e-09
5.2946e-10
2.11873e-10
9.67126e-11
4.85923e-11
1.91971e-11
8.27663e-12
3.45633e-12
1.56798e-12
6.53274e-13
2.59998e-13
5.28917e-12
4.29679e-14
1.59556e-14
-7.40248e-13
5.01576e-12
0
0
5.73888e-21
6.82851e-12
0
-3.30983e-16
5.08264e-11
4.57446e-11
1.33669e-15
-1.12336e-10
0
0
4.43013e-10
-3.0039e-18
8.75939e-10
-4.1656e-17
-3.32544e-16
-3.23688e-15
1.89922e-08
1.47622e-07
3.56546e-06
5.03848e-05
0.000625472
0.00662256
0.0582883
0.422744
2.53491
12.6871
53.6719
195.091
619.465
1727.58
4247.39
9160.85
17240.5
29146.3
45746.6
66952.2
93239.4
125789
166667
218870
286480
374851
490989
644051
846055
1.11283e+06
1.46524e+06
1.9309e+06
2.54634e+06
3.35997e+06
4.43602e+06
5.85984e+06
7.74501e+06
1.0242e+07
1.35205e+07
1.77866e+07
2.36356e+07
3.14122e+07
2.64747e+08
2.29129e+08
2.82714e+07
1.99971e+07
1.39634e+07
9.60976e+06
6.50734e+06
4.32946e+06
2.82882e+06
1.82002e+06
1.16657e+06
768534
284517
31755.2
1120.11
20.4288
0.246646
0.00287436
5.149e-05
1.98892e-06
1.77536e-07
3.1453e-08
8.24074e-09
3.0132e-09
1.27689e-09
5.1372e-10
2.39724e-10