/*--------------------------------*- C++ -*----------------------------------*\
  =========                 |
  \\      /  F ield         | OpenFOAM: The Open Source CFD Toolbox
   \\    /   O peration     | Website:  https://openfoam.org
    \\  /    A nd           | Version:  8
     \\/     M anipulation  |
\*---------------------------------------------------------------------------*/
FoamFile
{
    version     2.0;
    format      ascii;
    class       volScalarField;
    location    "540/fluid";
    object      rDeltaT;
}
// * * * * * * * * * * * * * * * * * * * * * * * * * * * * * * * * * * * * * //

dimensions      [0 0 -1 0 0 0 0];

internalField   nonuniform List<scalar> 
4000
(
513.409
539.292
564.012
587.711
610.33
631.773
651.917
670.626
687.774
703.263
717.055
729.201
739.87
749.377
758.192
766.823
775.665
784.917
794.507
804.071
813.027
820.691
826.404
829.627
830.011
827.363
821.565
812.577
800.43
785.204
767.016
746.008
746.297
779.706
822.668
864.85
906.179
946.592
986.038
1024.48
1061.89
1098.24
1133.52
1167.72
1200.83
1232.84
1263.75
1293.55
1322.24
1349.81
1376.26
1401.58
1425.75
1448.76
1470.6
1491.26
1510.7
1528.82
1545.52
1561.05
1575.23
1588.76
16596.9
1571.97
1536.72
1496.28
1451.16
1401.95
1349.09
1292.99
1234.08
1172.85
1109.9
1045.76
981.171
917.555
856.915
801.688
754.825
719.035
695.422
682.637
677.444
676.268
676.212
675.455
672.983
668.418
661.782
653.262
643.094
631.52
618.761
605.013
590.445
575.19
559.353
543.006
526.191
508.861
512.944
538.182
562.125
584.709
605.906
625.645
643.836
660.393
675.253
688.401
699.893
709.886
718.652
726.603
734.22
741.972
750.242
759.229
768.858
778.768
788.354
796.886
803.638
808
809.516
807.872
802.898
794.544
782.85
767.917
749.891
728.94
710.887
725.76
769.816
813.277
856.049
898.052
939.225
979.515
1018.88
1057.3
1094.74
1131.2
1166.65
1201.08
1234.5
1266.89
1298.25
1328.58
1357.87
1386.13
1413.35
1439.52
1464.66
1488.74
1511.75
1533.53
1554.05
1573.55
1591.78
1817.84
16158.1
1584.63
1544.05
1499.72
1451.5
1399.52
1343.95
1285.04
1223.07
1158.43
1091.6
1023.03
953.624
885.234
820.499
762.704
715.182
680.352
658.521
647.541
643.851
643.981
645.333
646.309
646.072
644.16
640.412
634.852
627.587
618.763
608.537
597.063
584.486
570.93
556.499
541.267
525.273
508.549
512.258
535.977
558.229
578.982
598.177
615.756
631.666
645.874
658.381
669.245
678.599
686.668
693.778
700.343
706.811
713.627
721.172
729.652
739.008
748.891
758.713
767.748
775.256
780.576
783.166
782.631
778.75
771.439
760.717
746.672
729.44
709.187
686.093
683.648
715.758
759.794
803.402
846.493
888.989
930.832
971.97
1012.37
1052
1090.83
1128.84
1166.03
1202.38
1237.88
1272.55
1306.37
1339.35
1371.5
1402.83
1433.33
1463.02
1491.89
1519.92
1546.9
1572.76
1597.65
1621
4979.48
13392.9
1605.27
1559.48
1509.92
1456.63
1399.69
1339.23
1275.44
1208.59
1139.08
1067.46
994.28
920.814
849.365
782.957
725.121
679.027
646.426
626.832
617.651
615.315
616.549
618.959
621.072
622.16
621.857
619.989
616.508
611.443
604.859
596.845
587.497
576.911
565.177
552.374
538.566
523.802
508.099
511.585
533.95
554.779
574.027
591.655
607.626
621.913
634.515
645.461
654.831
662.773
669.512
675.366
680.742
686.106
691.928
698.597
706.316
715.025
724.377
733.783
742.514
749.825
755.044
757.64
757.231
753.587
746.601
736.263
722.634
705.824
685.977
663.255
647.108
664.959
709.353
753.583
797.552
841.18
884.404
927.17
969.434
1011.15
1052.3
1092.85
1132.8
1172.13
1210.82
1248.88
1286.3
1323.08
1359.22
1394.71
1429.54
1463.69
1497.12
1529.74
1561.25
1591.49
1620.44
1647.35
8787.7
9743
1618.43
1568.48
1514.26
1456.05
1394.06
1328.57
1259.86
1188.34
1114.56
1039.21
963.044
887.729
815.804
750.331
694.552
651.165
621.343
604.1
596.63
595.468
597.579
600.785
603.736
605.709
606.358
605.542
603.226
599.43
594.198
587.588
579.662
570.482
560.108
548.592
535.983
522.316
507.615
510.863
531.756
551.062
568.745
584.771
599.114
611.767
622.744
632.097
639.927
646.4
651.761
656.342
660.557
664.874
669.757
675.585
682.555
690.605
699.389
708.323
716.685
723.724
728.767
731.269
730.84
727.235
720.335
710.117
696.628
679.964
660.255
637.649
612.311
618.839
661.614
706.346
751.064
795.689
840.154
884.395
928.362
972.019
1015.33
1058.28
1100.83
1142.98
1184.69
1225.95
1266.76
1307.08
1346.91
1386.2
1424.91
1462.98
1500.3
1536.71
1571.77
1605.26
1637.1
1666.33
12621.4
5931.39
1622.37
1569.3
1511.32
1448.96
1382.68
1312.92
1240.15
1164.91
1087.91
1009.92
931.895
855.743
784.093
719.964
666.378
625.611
598.312
583.077
576.976
576.684
579.411
583.192
586.807
589.588
591.192
591.457
590.323
587.781
583.85
578.565
571.966
564.096
555
544.717
533.285
520.737
507.097
510.137
529.579
547.423
563.633
578.183
591.058
602.262
611.822
619.801
626.31
631.522
635.687
639.135
642.275
645.569
649.474
654.362
660.429
667.615
675.583
683.762
691.438
697.872
702.392
704.453
703.66
699.762
692.627
682.221
668.577
651.778
631.94
609.198
583.702
582.101
616.711
661.856
707.215
752.703
798.245
843.785
889.273
934.665
979.923
1025.01
1069.9
1114.56
1158.96
1203.07
1246.85
1290.27
1333.27
1375.79
1417.74
1459
1499.4
1538.7
1576.35
1612.13
1645.76
1676.18
16238.6
2098.18
1617.78
1562.43
1501.36
1435.55
1365.76
1292.59
1216.68
1138.72
1059.53
979.93
901.063
825.016
754.45
692.3
641.343
603.454
578.813
565.676
561.021
561.65
564.976
569.216
573.275
576.557
578.753
579.714
579.376
577.72
574.751
570.486
564.948
558.166
550.168
540.982
530.636
519.158
506.573
509.402
527.377
543.753
558.5
571.595
583.032
592.821
600.998
607.634
612.847
616.819
619.8
622.123
624.196
626.473
629.404
633.355
638.514
644.82
651.94
659.307
666.216
671.932
675.789
677.243
675.898
671.498
663.906
653.08
639.046
621.877
601.679
578.577
552.707
545.128
573.876
619.362
665.258
711.48
757.96
804.635
851.45
898.357
945.309
992.266
1039.18
1086.02
1132.74
1179.28
1225.6
1271.63
1317.29
1362.47
1407.06
1450.88
1493.7
1535.23
1574.7
1611.99
1646.61
1677.25
18168
1659.26
1607.46
1548.98
1485
1416.43
1344.03
1268.5
1190.52
1110.88
1030.48
950.163
871.239
795.905
726.817
666.805
618.414
583.161
560.85
549.486
546.03
547.426
551.277
555.952
560.456
564.243
567.023
568.653
569.063
568.226
566.137
562.801
558.233
552.45
545.472
537.319
528.016
517.584
506.046
508.668
525.183
540.11
553.422
565.102
575.148
583.576
590.429
595.783
599.76
602.543
604.385
605.615
606.634
607.891
609.827
612.799
616.991
622.34
628.517
634.963
640.98
645.842
648.885
649.571
647.503
642.424
634.193
622.763
608.155
590.434
569.698
546.062
519.657
507.868
532.628
578.366
624.693
671.526
718.792
766.425
814.364
862.556
910.947
959.487
1008.12
1056.8
1105.46
1154.04
1202.47
1250.65
1298.49
1345.85
1392.56
1438.43
1483.16
1526.33
1567.16
1605.67
1640.49
1670.15
17717.9
1645.41
1590.61
1529.64
1463.47
1392.94
1318.79
1241.74
1162.53
1082.02
1001.13
920.742
842.305
768.097
700.752
642.997
597.162
564.454
544.351
534.666
532.355
534.495
538.854
543.931
548.825
553.037
556.306
558.496
559.538
559.403
558.078
555.562
551.862
546.987
540.95
533.768
525.456
516.036
505.527
507.934
522.993
536.478
548.366
558.645
567.318
574.405
579.953
584.042
586.797
588.404
589.112
589.25
589.214
589.445
590.374
592.351
595.553
599.916
605.111
610.582
615.639
619.563
621.695
621.501
618.586
612.695
603.686
591.51
576.182
557.765
536.351
512.05
484.984
470.292
492.443
538.352
585.008
632.325
680.228
728.646
777.515
826.772
876.358
926.213
976.274
1026.47
1076.74
1126.99
1177.13
1227.05
1276.63
1325.71
1374.1
1421.55
1467.75
1512.18
1554.15
1593.52
1628.89
2704.16
16491.9
1625.94
1568.93
1506.15
1438.44
1366.6
1291.35
1213.44
1133.65
1052.85
971.999
891.99
814.411
741.578
676.091
620.575
577.164
546.792
528.672
520.478
519.191
522.016
526.866
532.351
537.644
542.289
546.042
548.776
550.424
550.953
550.348
548.604
545.721
541.705
536.564
530.31
522.956
514.518
505.017
507.203
520.812
532.863
543.339
552.231
559.546
565.307
569.566
572.405
573.951
574.39
573.971
573.019
571.923
571.116
571.023
571.983
574.166
577.505
581.671
586.114
590.149
593.06
594.199
593.034
589.176
582.371
572.477
559.446
543.292
524.074
501.88
476.817
449.002
432.389
452.951
498.945
545.825
593.503
641.899
690.941
740.557
790.68
841.242
892.174
943.403
994.85
1046.43
1098.04
1149.59
1200.93
1251.93
1302.4
1352.14
1400.88
1448.28
1493.82
1536.82
1577.19
1613.7
5710.08
13850
1601
1542.96
1479.24
1410.73
1338.21
1262.46
1184.23
1104.34
1023.7
943.252
863.947
787.468
716.148
652.559
599.228
558.11
529.903
513.6
506.774
506.442
509.926
515.264
521.164
526.862
531.937
536.163
539.422
541.65
542.813
542.893
541.883
539.78
536.585
532.304
526.945
520.517
513.036
504.518
506.475
518.638
529.262
538.332
545.844
551.807
556.249
559.224
560.817
561.157
560.427
558.878
556.83
554.666
552.812
551.682
551.608
552.752
555.042
558.15
561.526
564.491
566.338
566.422
564.219
559.344
551.547
540.689
526.722
509.662
489.565
466.518
440.626
412.002
394.165
413.852
459.845
506.847
554.77
603.529
653.047
703.249
754.062
805.409
857.214
909.394
961.862
1014.52
1067.26
1119.95
1172.47
1224.64
1276.28
1327.15
1376.99
1425.44
1471.95
1515.86
1557.09
1594.4
8273.46
11382.2
1572.49
1514.12
1450.06
1381.26
1308.55
1232.73
1154.58
1074.96
994.8
915.038
836.657
761.424
691.688
629.98
578.74
539.763
513.536
498.882
493.298
493.85
497.968
503.8
510.131
516.254
521.776
526.489
530.278
533.084
534.873
535.626
535.333
533.989
531.593
528.148
523.66
518.136
511.588
504.031
505.75
516.473
525.675
533.343
539.479
544.094
547.221
548.914
549.261
548.393
546.494
543.81
540.658
537.418
534.505
532.326
531.202
531.288
532.507
534.529
536.807
538.665
539.404
538.386
535.092
529.145
520.297
508.416
493.456
475.431
454.401
430.452
403.686
374.215
355.634
374.923
420.834
467.865
515.925
564.929
614.793
665.439
716.786
768.754
821.258
874.207
927.505
981.044
1034.7
1088.35
1141.84
1194.99
1247.61
1299.44
1350.21
1399.54
1446.87
1491.56
1533.51
1571.43
10488.5
9244.29
1541.74
1483.39
1419.37
1350.64
1278.09
1202.53
1124.78
1045.71
966.278
887.387
810.072
736.181
668.052
608.183
558.927
521.937
497.528
484.376
479.934
481.318
486.055
492.388
499.171
505.74
511.73
516.943
521.273
524.662
527.077
528.498
528.913
528.317
526.706
524.081
520.446
515.807
510.172
503.554
505.027
514.315
522.098
528.368
533.129
536.398
538.209
538.62
537.72
535.641
532.566
528.742
524.48
520.154
516.172
512.932
510.745
509.759
509.889
510.804
511.959
512.682
512.28
510.123
505.699
498.638
488.699
475.752
459.756
440.728
418.729
393.845
366.178
335.839
316.822
336.004
381.757
428.731
476.834
525.976
576.071
627.036
678.786
731.235
784.29
837.856
891.827
946.087
1000.51
1054.95
1109.25
1163.23
1216.67
1269.32
1320.88
1370.99
1419.04
1464.42
1506.99
1545.45
12331.6
7485.91
1509.51
1451.41
1387.67
1319.3
1247.17
1172.14
1095.02
1016.71
938.164
860.287
784.151
711.652
645.127
587.034
539.647
504.497
481.748
469.965
466.576
468.747
474.093
480.939
488.195
495.237
501.718
507.453
512.341
516.325
519.372
521.464
522.588
522.735
521.902
520.088
517.293
513.523
508.785
503.088
504.306
512.162
518.529
523.403
526.791
528.714
529.208
528.334
526.184
522.89
518.635
513.663
508.284
502.864
497.805
493.495
490.234
488.162
487.189
486.98
486.992
486.558
484.99
481.666
476.084
467.879
456.818
442.776
425.716
405.659
382.668
356.831
328.249
297.034
277.758
296.986
342.51
389.349
437.409
486.596
536.823
588
640.04
692.85
746.334
800.389
854.902
909.753
964.805
1019.91
1074.9
1129.58
1183.72
1237.08
1289.34
1340.14
1388.84
1434.85
1478.02
1517.03
13834.2
6061.58
1476.32
1418.62
1355.35
1287.52
1216.02
1141.69
1065.39
987.984
910.466
833.71
758.825
687.748
622.805
566.418
520.788
487.337
466.105
455.574
453.159
456.081
462.033
469.404
477.158
484.697
491.695
497.974
503.438
508.032
511.724
514.495
516.33
517.221
517.163
516.153
514.191
511.279
507.423
502.63
503.587
510.014
514.967
518.446
520.461
521.037
520.212
518.051
514.647
510.134
504.693
498.569
492.066
485.545
479.401
474.012
469.669
466.501
464.414
463.068
461.922
460.313
457.561
453.051
446.29
436.92
424.715
409.559
391.418
370.317
346.322
319.523
290.024
257.935
238.474
257.794
303.026
349.661
397.601
446.753
497.023
548.322
600.555
653.626
707.436
761.874
816.823
872.157
927.733
983.396
1038.97
1094.25
1149.02
1203
1255.9
1307.33
1356.64
1403.26
1447.03
1486.63
15021.6
4923.61
1442.47
1385.29
1322.63
1255.49
1184.77
1111.3
1035.94
959.569
883.176
807.619
734.037
664.393
601.001
546.247
502.267
470.386
450.544
441.152
439.638
443.28
449.835
457.748
466.022
474.085
481.625
488.472
494.532
499.753
504.104
507.563
510.117
511.756
512.474
512.265
511.13
509.068
506.082
502.18
502.87
507.87
511.41
513.494
514.136
513.363
511.219
507.768
503.107
497.369
490.739
483.457
475.824
468.197
460.962
454.486
449.054
444.783
441.573
439.081
436.765
433.97
430.019
424.309
416.354
405.805
392.445
376.163
356.93
334.779
309.777
282.016
251.603
218.649
199.003
218.384
263.268
309.636
357.39
406.434
456.673
508.013
560.357
613.605
667.652
722.386
777.683
833.412
889.426
945.562
1001.64
1057.46
1112.78
1167.34
1220.81
1272.83
1322.75
1369.97
1414.39
1454.71
16222.2
3900.27
1408.07
1351.54
1289.63
1223.32
1153.5
1081.01
1006.7
931.467
856.274
781.972
709.724
641.51
579.631
526.438
484.012
453.597
435.044
426.69
425.984
430.318
437.478
445.95
454.767
463.379
471.485
478.922
485.6
491.466
496.489
500.649
503.93
506.323
507.819
508.412
508.1
506.882
504.76
501.737
502.153
505.728
507.856
508.546
507.814
505.692
502.225
497.482
491.56
484.595
476.771
468.326
459.559
450.821
442.489
434.923
428.396
423.016
418.676
415.03
411.538
407.546
402.389
395.469
386.311
374.575
360.052
342.639
322.313
299.11
273.103
244.387
213.069
179.262
159.381
178.735
223.218
269.264
316.772
365.646
415.787
467.099
519.483
572.835
627.047
682.002
737.574
793.626
850.007
906.553
963.078
1019.37
1075.2
1130.29
1184.32
1236.91
1287.41
1335.25
1380.29
1421.26
16970.8
3204.77
1373.38
1317.58
1256.5
1191.12
1122.3
1050.89
977.721
903.683
829.743
756.734
685.835
619.034
558.615
506.9
465.923
436.87
419.553
412.21
412.225
417.217
424.974
434.012
443.388
452.568
461.262
469.309
476.622
483.15
488.861
493.734
497.753
500.907
503.185
504.583
505.094
504.717
503.451
501.298
501.437
503.588
504.305
503.599
501.493
498.02
493.229
487.191
480.006
471.811
462.789
453.178
443.273
433.419
423.988
415.328
407.701
401.208
395.734
390.929
386.254
381.06
374.69
366.555
356.19
343.264
327.576
309.031
287.613
263.363
236.359
206.697
174.488
139.848
119.639
138.84
182.875
228.549
275.759
324.406
374.391
425.615
477.976
531.367
585.679
640.79
696.573
752.887
809.578
866.478
923.396
980.122
1036.41
1092
1146.55
1199.69
1250.76
1299.21
1344.89
1386.54
17541.3
2709.87
1338.48
1283.49
1223.33
1158.96
1091.23
1020.97
949
876.217
803.571
731.885
662.341
596.931
537.917
487.591
447.946
420.117
403.927
397.605
398.35
403.981
412.327
421.932
431.877
441.641
450.938
459.614
467.581
474.787
481.202
486.801
491.569
495.493
498.561
500.767
502.102
502.565
502.152
500.863
500.721
501.449
500.754
498.654
495.172
490.346
484.229
476.894
468.443
459.015
448.793
438.012
426.967
415.995
405.46
395.703
386.974
379.366
372.754
366.786
360.925
354.527
346.941
337.588
326.014
311.897
295.046
275.373
252.869
227.581
199.59
168.997
135.915
100.46
100
100
142.253
187.509
234.372
282.741
332.517
383.597
435.878
489.253
543.606
598.817
654.754
711.274
768.222
825.423
882.688
939.803
996.523
1052.57
1107.62
1161.3
1212.94
1261.99
1308.33
1350.69
17927.5
2399.62
1303.43
1249.31
1190.16
1126.87
1060.3
991.247
920.544
849.06
777.744
707.402
639.219
575.176
517.516
468.497
430.073
403.343
388.124
382.731
384.277
390.556
399.491
409.672
420.199
430.565
440.487
449.811
458.451
466.355
473.489
479.831
485.361
490.066
493.933
496.953
499.117
500.42
500.859
500.431
500.006
499.31
497.204
493.708
488.849
482.669
475.224
466.591
456.872
446.208
434.782
422.83
410.641
398.549
386.909
376.053
366.22
357.493
349.742
342.611
335.561
327.957
319.153
308.583
295.8
280.496
262.486
241.691
218.11
191.795
162.831
131.324
100
100
100
100
101.372
146.168
192.639
240.684
290.201
341.087
393.237
446.541
500.883
556.139
612.177
668.851
726.005
783.462
841.031
898.496
955.612
1012.1
1067.63
1121.83
1174.03
1223.7
1270.7
1313.79
18131.5
2260.95
1268.22
1215.08
1157
1094.87
1029.52
961.739
892.342
822.195
752.235
683.257
616.436
553.739
497.386
449.605
412.317
386.589
372.199
367.536
369.895
376.841
386.387
397.168
408.306
419.299
429.871
439.869
449.206
457.829
465.703
472.804
479.112
484.611
489.288
493.13
496.13
498.278
499.569
500
500.006
499.31
497.204
493.707
488.848
482.668
475.223
466.588
456.869
446.205
434.779
422.827
410.637
398.545
386.905
376.048
366.215
357.488
349.736
342.604
335.555
327.949
319.145
308.575
295.792
280.487
262.476
241.681
218.1
191.785
162.821
131.314
100
100
100
100
101.366
146.162
192.633
240.679
290.196
341.083
393.233
446.537
500.879
556.136
612.174
668.849
726.003
783.461
841.031
898.495
955.612
1012.1
1067.63
1121.83
1174.03
1223.7
1270.7
1313.79
18131.8
2260.63
1268.22
1215.08
1157
1094.88
1029.52
961.74
892.343
822.197
752.237
683.259
616.438
553.741
497.388
449.607
412.319
386.591
372.202
367.538
369.897
376.843
386.389
397.17
408.307
419.3
429.873
439.871
449.207
457.83
465.704
472.805
479.113
484.612
489.288
493.131
496.13
498.278
499.569
500
500.721
501.448
500.753
498.652
495.169
490.343
484.225
476.89
468.438
459.009
448.786
438.005
426.959
415.986
405.451
395.693
386.964
379.354
372.741
366.773
360.911
354.512
346.925
337.572
325.996
311.879
295.027
275.353
252.849
227.56
199.569
168.976
135.893
100.438
100
100
142.242
187.498
234.362
282.732
332.509
383.59
435.872
489.247
543.602
598.813
654.751
711.272
768.22
825.422
882.688
939.803
996.524
1052.57
1107.63
1161.3
1212.94
1261.99
1308.33
1350.69
17928.4
2398.64
1303.42
1249.31
1190.16
1126.87
1060.3
991.249
920.545
849.062
777.747
707.405
639.222
575.179
517.519
468.501
430.077
403.347
388.128
382.735
384.281
390.56
399.495
409.675
420.203
430.568
440.489
449.814
458.453
466.357
473.491
479.832
485.363
490.067
493.934
496.953
499.118
500.421
500.859
500.431
501.437
503.587
504.303
503.597
501.491
498.016
493.225
487.186
480.001
471.805
462.782
453.17
443.265
433.41
423.978
415.317
407.69
401.196
395.721
390.915
386.239
381.045
374.674
366.538
356.171
343.244
327.556
309.01
287.591
263.341
236.336
206.674
174.464
139.824
119.622
138.831
182.867
228.542
275.753
324.401
374.387
425.611
477.973
531.366
585.678
640.79
696.574
752.888
809.58
866.48
923.398
980.125
1036.42
1092
1146.55
1199.69
1250.77
1299.21
1344.89
1386.54
17542.8
2708.21
1338.48
1283.48
1223.33
1158.96
1091.23
1020.96
948.999
876.216
803.572
731.886
662.343
596.933
537.92
487.594
447.949
420.121
403.931
397.609
398.354
403.985
412.331
421.936
431.88
441.644
450.941
459.617
467.583
474.789
481.204
486.803
491.571
495.494
498.562
500.767
502.103
502.565
502.152
500.863
502.153
505.727
507.855
508.544
507.811
505.688
502.221
497.477
491.555
484.589
476.764
468.318
459.551
450.812
442.479
434.913
428.384
423.004
418.663
415.017
411.523
407.53
402.372
395.451
386.292
374.555
360.031
342.616
322.289
299.086
273.078
244.361
213.043
179.236
159.364
178.729
223.213
269.26
316.77
365.644
415.786
467.1
519.484
572.837
627.05
682.005
737.578
793.63
850.012
906.558
963.083
1019.38
1075.21
1130.3
1184.33
1236.91
1287.41
1335.25
1380.3
1421.26
16973
3202.39
1373.37
1317.57
1256.5
1191.11
1122.3
1050.89
977.718
903.68
829.741
756.733
685.834
619.035
558.617
506.902
465.926
436.873
419.557
412.214
412.229
417.221
424.978
434.016
443.392
452.572
461.265
469.312
476.625
483.152
488.863
493.736
497.755
500.908
503.186
504.584
505.095
504.717
503.451
501.298
502.869
507.869
511.409
513.492
514.134
513.36
511.215
507.763
503.101
497.363
490.732
483.449
475.815
468.188
460.952
454.476
449.042
444.771
441.56
439.067
436.751
433.954
430.002
424.291
416.334
405.784
392.423
376.139
356.906
334.753
309.75
281.989
251.574
218.62
198.987
218.382
263.267
309.636
357.391
406.436
456.676
508.017
560.362
613.611
667.659
722.393
777.691
833.421
889.435
945.571
1001.65
1057.46
1112.79
1167.35
1220.82
1272.84
1322.75
1369.98
1414.39
1454.71
16225.2
3897.15
1408.06
1351.53
1289.62
1223.31
1153.49
1081.01
1006.7
931.461
856.269
781.968
709.722
641.509
579.63
526.439
484.014
453.6
435.048
426.693
425.988
430.322
437.482
445.954
454.77
463.382
471.488
478.925
485.602
491.468
496.491
500.651
503.932
506.324
507.82
508.413
508.101
506.883
504.76
501.737
503.587
510.014
514.966
518.444
520.459
521.033
520.208
518.047
514.642
510.127
504.686
498.561
492.057
485.536
479.391
474.001
469.657
466.489
464.401
463.055
461.907
460.297
457.544
453.032
446.269
436.898
424.692
409.534
391.391
370.289
346.294
319.494
289.993
257.904
238.458
257.795
303.029
349.665
397.606
446.759
497.03
548.33
600.564
653.636
707.446
761.884
816.835
872.169
927.745
983.408
1038.98
1094.26
1149.03
1203.01
1255.91
1307.34
1356.65
1403.27
1447.04
1486.64
15025.4
4919.61
1442.46
1385.27
1322.62
1255.48
1184.76
1111.29
1035.93
959.561
883.169
807.613
734.032
664.39
600.999
546.246
502.268
470.388
450.547
441.156
439.642
443.285
449.839
457.752
466.026
474.089
481.628
488.475
494.535
499.756
504.106
507.565
510.119
511.757
512.475
512.266
511.13
509.068
506.083
502.18
504.306
512.162
518.528
523.401
526.789
528.711
529.204
528.33
526.179
522.884
518.628
513.656
508.275
502.855
497.795
493.484
490.223
488.15
487.176
486.967
486.977
486.542
484.972
481.647
476.064
467.857
456.793
442.75
425.688
405.63
382.638
356.799
328.216
297.001
277.743
296.991
342.517
389.357
437.418
486.606
536.834
588.012
640.053
692.864
746.348
800.404
854.918
909.768
964.821
1019.93
1074.91
1129.59
1183.74
1237.09
1289.35
1340.15
1388.86
1434.86
1478.02
1517.04
13839
6056.45
1476.3
1418.6
1355.34
1287.51
1216.01
1141.68
1065.37
987.972
910.456
833.701
758.818
687.743
622.802
566.416
520.788
487.338
466.108
455.578
453.163
456.086
462.037
469.409
477.162
484.701
491.698
497.977
503.441
508.034
511.726
514.497
516.332
517.223
517.164
516.154
514.192
511.28
507.423
502.63
505.027
514.314
522.097
528.367
533.127
536.395
538.205
538.615
537.715
535.635
532.559
528.734
524.471
520.144
516.162
512.922
510.734
509.747
509.876
510.79
511.944
512.666
512.262
510.103
505.678
498.615
488.673
475.725
459.727
440.697
418.697
393.811
366.143
335.802
316.808
336.014
381.768
428.744
476.847
525.99
576.087
627.053
678.804
731.253
784.309
837.875
891.846
946.106
1000.53
1054.97
1109.27
1163.25
1216.69
1269.34
1320.89
1371
1419.06
1464.43
1507
1545.46
12337.4
7479.82
1509.49
1451.39
1387.65
1319.28
1247.16
1172.12
1095.01
1016.69
938.151
860.276
784.141
711.644
645.121
587.03
539.646
504.497
481.75
469.969
466.58
468.751
474.098
480.943
488.199
495.24
501.721
507.456
512.343
516.327
519.375
521.466
522.589
522.736
521.903
520.088
517.294
513.524
508.785
503.088
505.75
516.473
525.674
533.342
539.477
544.092
547.217
548.91
549.256
548.387
546.487
543.803
540.65
537.409
534.495
532.315
531.191
531.276
532.495
534.515
536.792
538.649
539.386
538.366
535.07
529.121
520.271
508.388
493.426
475.399
454.367
430.417
403.649
374.176
355.621
374.937
420.85
467.882
515.944
564.948
614.814
665.46
716.808
768.776
821.281
874.23
927.528
981.067
1034.73
1088.38
1141.86
1195.02
1247.63
1299.46
1350.22
1399.56
1446.89
1491.57
1533.52
1571.44
10495.5
9237.12
1541.71
1483.36
1419.34
1350.62
1278.07
1202.51
1124.76
1045.69
966.262
887.373
810.06
736.17
668.044
608.178
558.924
521.937
497.53
484.379
479.939
481.323
486.06
492.392
499.175
505.744
511.733
516.946
521.276
524.665
527.079
528.499
528.914
528.318
526.707
524.082
520.447
515.807
510.172
503.554
506.475
518.638
529.262
538.331
545.842
551.804
556.246
559.22
560.812
561.151
560.421
558.871
556.821
554.657
552.802
551.672
551.597
552.74
555.03
558.136
561.511
564.475
566.32
566.402
564.197
559.32
551.52
540.66
526.691
509.628
489.529
466.48
440.586
411.96
394.153
413.871
459.866
506.87
554.793
603.554
653.073
703.276
754.088
805.436
857.241
909.422
961.889
1014.55
1067.28
1119.98
1172.49
1224.66
1276.3
1327.17
1377.01
1425.46
1471.97
1515.87
1557.1
1594.41
8281.87
11373.4
1572.46
1514.09
1450.03
1381.23
1308.52
1232.7
1154.56
1074.94
994.78
915.02
836.641
761.411
691.677
629.973
578.735
539.761
513.537
498.885
493.303
493.855
497.973
503.804
510.136
516.258
521.78
526.492
530.281
533.087
534.875
535.628
535.334
533.99
531.594
528.149
523.66
518.136
511.588
504.031
507.203
520.811
532.863
543.338
552.23
559.544
565.305
569.562
572.4
573.946
574.384
573.964
573.011
571.914
571.107
571.013
571.972
574.154
577.493
581.658
586.1
590.132
593.042
594.179
593.012
589.151
582.343
572.447
559.413
543.257
524.036
501.84
476.775
448.957
432.378
452.977
498.972
545.853
593.532
641.929
690.972
740.589
790.712
841.275
892.207
943.436
994.882
1046.46
1098.08
1149.62
1200.96
1251.95
1302.43
1352.16
1400.9
1448.3
1493.84
1536.84
1577.21
1613.71
5719.95
13839.7
1600.96
1542.93
1479.21
1410.7
1338.18
1262.43
1184.2
1104.31
1023.67
943.23
863.928
787.451
716.135
652.549
599.222
558.108
529.903
513.603
506.778
506.447
509.931
515.27
521.169
526.866
531.941
536.167
539.425
541.653
542.815
542.895
541.885
539.781
536.586
532.305
526.945
520.518
513.036
504.518
507.934
522.993
536.477
548.365
558.644
567.316
574.403
579.95
584.038
586.793
588.398
589.105
589.243
589.206
589.436
590.364
592.341
595.542
599.904
605.098
610.568
615.624
619.545
621.675
621.478
618.561
612.666
603.655
591.475
576.145
557.725
536.308
512.005
484.937
470.282
492.474
538.384
585.042
632.36
680.264
728.683
777.552
826.81
876.396
926.251
976.311
1026.51
1076.77
1127.02
1177.16
1227.09
1276.67
1325.74
1374.13
1421.58
1467.78
1512.2
1554.17
1593.53
1628.9
2716.06
16482.1
1625.91
1568.89
1506.11
1438.41
1366.56
1291.32
1213.41
1133.62
1052.82
971.973
891.967
814.391
741.561
676.078
620.567
577.16
546.791
528.674
520.482
519.196
522.021
526.871
532.356
537.649
542.293
546.046
548.779
550.426
550.955
550.35
548.605
545.722
541.706
536.565
530.31
522.956
514.518
505.017
508.668
525.183
540.11
553.422
565.101
575.147
583.574
590.426
595.779
599.756
602.538
604.379
605.608
606.626
607.883
609.818
612.789
616.98
622.329
628.505
634.949
640.964
645.824
648.865
649.548
647.477
642.394
634.16
622.728
608.116
590.392
569.652
546.014
519.606
507.86
532.666
578.405
624.733
671.567
718.834
766.468
814.408
862.6
910.991
959.53
1008.17
1056.84
1105.5
1154.08
1202.51
1250.69
1298.52
1345.88
1392.59
1438.46
1483.18
1526.35
1567.18
1605.68
1640.5
1670.15
17715.5
1645.38
1590.58
1529.6
1463.43
1392.9
1318.75
1241.7
1162.5
1081.99
1001.1
920.715
842.282
768.078
700.736
642.986
597.156
564.452
544.353
534.67
532.36
534.501
538.86
543.937
548.83
553.042
556.31
558.499
559.541
559.405
558.079
555.563
551.863
546.987
540.951
533.768
525.457
516.036
505.527
509.402
527.378
543.753
558.5
571.595
583.031
592.82
600.995
607.631
612.844
616.814
619.794
622.117
624.188
626.464
629.395
633.346
638.504
644.809
651.928
659.293
666.2
671.915
675.769
677.22
675.871
671.467
663.872
653.042
639.005
621.833
601.631
578.525
552.653
545.12
573.921
619.408
665.305
711.528
758.008
804.684
851.5
898.406
945.359
992.315
1039.23
1086.07
1132.79
1179.33
1225.65
1271.67
1317.33
1362.51
1407.09
1450.91
1493.73
1535.26
1574.72
1612
1646.62
1677.25
18168.2
1659.23
1607.42
1548.94
1484.96
1416.39
1343.99
1268.46
1190.48
1110.84
1030.45
950.132
871.211
795.882
726.798
666.792
618.405
583.158
560.851
549.49
546.035
547.432
551.284
555.958
560.461
564.247
567.027
568.656
569.065
568.228
566.138
562.803
558.234
552.451
545.472
537.32
528.016
517.584
506.046
510.137
529.58
547.423
563.633
578.183
591.058
602.261
611.82
619.798
626.307
631.518
635.682
639.129
642.268
645.561
649.466
654.354
660.42
667.604
675.572
683.749
691.423
697.854
702.371
704.429
703.633
699.731
692.592
682.181
668.533
651.731
631.889
609.143
583.644
582.096
616.763
661.909
707.27
752.758
798.302
843.841
889.329
934.721
979.978
1025.07
1069.96
1114.61
1159.01
1203.12
1246.9
1290.32
1333.31
1375.83
1417.78
1459.03
1499.44
1538.73
1576.38
1612.15
1645.78
1676.19
16250.6
2084.83
1617.74
1562.38
1501.31
1435.51
1365.71
1292.55
1216.64
1138.68
1059.5
979.896
901.032
824.989
754.428
692.284
641.333
603.449
578.814
565.679
561.027
561.656
564.983
569.222
573.281
576.562
578.757
579.717
579.378
577.722
574.752
570.487
564.949
558.166
550.168
540.982
530.636
519.158
506.573
510.863
531.756
551.062
568.745
584.771
599.115
611.767
622.743
632.096
639.925
646.397
651.757
656.337
660.551
664.867
669.749
675.577
682.547
690.596
699.378
708.311
716.67
723.707
728.747
731.245
730.811
727.202
720.298
710.075
696.582
679.914
660.2
637.591
612.249
618.836
661.674
706.407
751.126
795.753
840.218
884.459
928.425
972.081
1015.4
1058.34
1100.89
1143.03
1184.74
1226.01
1266.81
1307.13
1346.95
1386.24
1424.95
1463.01
1500.33
1536.74
1571.8
1605.28
1637.12
1666.34
12635.5
5916.66
1622.32
1569.25
1511.27
1448.91
1382.64
1312.88
1240.1
1164.87
1087.87
1009.88
931.859
855.711
784.067
719.944
666.364
625.604
598.311
583.08
576.982
576.691
579.418
583.198
586.813
589.593
591.196
591.46
590.325
587.783
583.851
578.566
571.966
564.096
555
544.717
533.285
520.737
507.097
511.585
533.951
554.78
574.028
591.656
607.626
621.914
634.515
645.46
654.83
662.77
669.508
675.362
680.737
686.1
691.922
698.59
706.308
715.017
724.367
733.771
742.5
749.807
755.023
757.615
757.202
753.554
746.562
736.219
722.585
705.77
685.918
663.192
647.108
665.026
709.422
753.653
797.622
841.251
884.475
927.241
969.504
1011.22
1052.37
1092.92
1132.87
1172.19
1210.88
1248.94
1286.36
1323.13
1359.27
1394.75
1429.58
1463.73
1497.15
1529.77
1561.28
1591.51
1620.46
1647.37
8805.08
9724.25
1618.38
1568.43
1514.21
1456
1394.01
1328.52
1259.81
1188.3
1114.52
1039.16
963.005
887.693
815.773
750.306
694.535
651.156
621.34
604.102
596.636
595.475
597.586
600.792
603.742
605.714
606.362
605.545
603.228
599.431
594.199
587.589
579.662
570.482
560.107
548.592
535.982
522.315
507.615
512.259
535.978
558.23
578.983
598.178
615.757
631.667
645.875
658.381
669.245
678.597
686.665
693.774
700.339
706.806
713.621
721.166
729.645
739
748.882
758.702
767.735
775.239
780.555
783.141