/*--------------------------------*- C++ -*----------------------------------*\
  =========                 |
  \\      /  F ield         | OpenFOAM: The Open Source CFD Toolbox
   \\    /   O peration     | Website:  https://openfoam.org
    \\  /    A nd           | Version:  8
     \\/     M anipulation  |
\*---------------------------------------------------------------------------*/
FoamFile
{
    version     2.0;
    format      ascii;
    class       volScalarField;
    location    "540/fluid";
    object      rho;
}
// * * * * * * * * * * * * * * * * * * * * * * * * * * * * * * * * * * * * * //

dimensions      [1 -3 0 0 0 0 0];

internalField   nonuniform List<scalar> 
4000
(
0.658526
0.6585
0.658456
0.658383
0.658261
0.658059
0.657727
0.657184
0.65631
0.654918
0.652738
0.649393
0.644383
0.6371
0.626885
0.613152
0.595563
0.574199
0.54964
0.522887
0.495148
0.46758
0.441098
0.416302
0.393497
0.37276
0.354021
0.33713
0.321899
0.308136
0.29566
0.284308
0.273941
0.264438
0.255703
0.247641
0.240144
0.233149
0.226604
0.220465
0.214695
0.209261
0.204137
0.1993
0.194731
0.190414
0.186335
0.182483
0.17885
0.175428
0.172213
0.169202
0.166397
0.163798
0.161414
0.159255
0.15734
0.155709
0.154399
0.153406
0.152837
0.152788
0.153409
0.162146
0.172503
0.184686
0.198984
0.215785
0.235594
0.259074
0.287087
0.320744
0.361472
0.4112
0.472308
0.547016
0.636575
0.739582
0.849742
0.955254
1.04287
1.1051
1.14339
1.16424
1.1747
1.17969
1.18199
1.18302
1.18348
1.18367
1.18376
1.1838
1.18381
1.18382
1.18382
1.18382
1.18382
1.18382
1.18382
1.18382
0.658526
0.6585
0.658456
0.658382
0.65826
0.658056
0.65772
0.657173
0.65629
0.654888
0.652696
0.649343
0.644338
0.637087
0.626946
0.613346
0.595952
0.574832
0.550531
0.52401
0.496442
0.468966
0.442502
0.417663
0.394772
0.373926
0.355069
0.338059
0.322716
0.308849
0.296279
0.284843
0.2744
0.26483
0.256035
0.247921
0.240379
0.233343
0.226761
0.22059
0.21479
0.20933
0.204182
0.199324
0.194735
0.190401
0.186306
0.182441
0.178796
0.175364
0.17214
0.169122
0.16631
0.163707
0.16132
0.159162
0.157249
0.155632
0.154343
0.153388
0.15289
0.152983
0.153988
0.162948
0.173543
0.186
0.20063
0.217844
0.238182
0.262345
0.29125
0.326078
0.368348
0.420121
0.483831
0.561598
0.654267
0.759521
0.869774
0.97245
1.05514
1.11238
1.14706
1.16591
1.1754
1.17997
1.1821
1.18306
1.18349
1.18368
1.18376
1.1838
1.18381
1.18382
1.18382
1.18382
1.18382
1.18382
1.18382
1.18382
0.658526
0.6585
0.658455
0.658381
0.658257
0.658052
0.657713
0.657162
0.656274
0.654866
0.652668
0.649311
0.644307
0.637071
0.626976
0.613463
0.596205
0.575262
0.551163
0.524841
0.497441
0.470084
0.443683
0.418856
0.395935
0.37503
0.356096
0.339
0.323568
0.309613
0.296959
0.285444
0.274927
0.265288
0.256429
0.248257
0.240663
0.233579
0.226953
0.22074
0.214902
0.209407
0.204226
0.199338
0.194723
0.190364
0.186247
0.182362
0.178699
0.175251
0.172013
0.168983
0.16616
0.163549
0.161156
0.158993
0.157078
0.155462
0.154174
0.153218
0.152719
0.152796
0.15521
0.164433
0.175347
0.188197
0.203311
0.221129
0.242222
0.267338
0.297446
0.33379
0.377969
0.432132
0.498644
0.579344
0.674459
0.780671
0.889418
0.988108
1.0657
1.1185
1.15018
1.16738
1.17606
1.18025
1.18222
1.18311
1.18351
1.18369
1.18376
1.1838
1.18381
1.18382
1.18382
1.18382
1.18382
1.18382
1.18382
1.18382
0.658526
0.6585
0.658455
0.658381
0.658256
0.65805
0.657711
0.657159
0.656271
0.654864
0.652671
0.649326
0.644351
0.637165
0.627148
0.613744
0.596624
0.575839
0.5519
0.525719
0.498426
0.471133
0.444753
0.41991
0.396948
0.375984
0.356981
0.339811
0.324303
0.310276
0.297551
0.285969
0.275389
0.265691
0.256775
0.248552
0.24091
0.23378
0.227112
0.220859
0.214983
0.209452
0.20424
0.199322
0.194678
0.190293
0.186153
0.182246
0.178563
0.175098
0.171845
0.168802
0.165969
0.16335
0.16095
0.158783
0.156867
0.155254
0.153972
0.153027
0.152539
0.152628
0.15685
0.166345
0.177609
0.190897
0.206558
0.225054
0.246989
0.273152
0.304562
0.342518
0.388701
0.445326
0.514648
0.598204
0.695598
0.802536
0.909576
1.00419
1.0767
1.12502
1.15364
1.16907
1.17684
1.1806
1.18237
1.18318
1.18354
1.1837
1.18377
1.1838
1.18381
1.18382
1.18382
1.18382
1.18382
1.18382
1.18382
1.18382
0.658526
0.6585
0.658455
0.658381
0.658256
0.65805
0.657711
0.65716
0.656273
0.654869
0.652684
0.649354
0.644403
0.637259
0.627304
0.613988
0.596979
0.576322
0.552511
0.526444
0.499236
0.471993
0.445628
0.420772
0.397774
0.37676
0.357698
0.340467
0.324897
0.310809
0.298026
0.286388
0.275755
0.266006
0.257043
0.248775
0.241092
0.233923
0.227217
0.220927
0.215018
0.209457
0.204215
0.199269
0.194599
0.19019
0.186028
0.1821
0.1784
0.174919
0.171652
0.168599
0.165758
0.163133
0.160731
0.158565
0.156653
0.155055
0.153789
0.15286
0.152395
0.152529
0.158666
0.168435
0.180057
0.193799
0.210025
0.22922
0.252019
0.279249
0.311974
0.351545
0.399729
0.458772
0.530775
0.616945
0.716218
0.823363
0.928241
1.01866
1.08635
1.13066
1.1566
1.17052
1.17752
1.18091
1.1825
1.18323
1.18356
1.18371
1.18377
1.1838
1.18381
1.18382
1.18382
1.18382
1.18382
1.18382
1.18382
1.18382
0.658526
0.6585
0.658455
0.658381
0.658257
0.658051
0.657713
0.657164
0.656281
0.654883
0.65271
0.649398
0.644477
0.637377
0.627484
0.614249
0.597336
0.576782
0.55307
0.527085
0.499932
0.472716
0.446351
0.421473
0.398438
0.377377
0.358263
0.340978
0.325356
0.311216
0.298384
0.2867
0.276023
0.266233
0.25723
0.248925
0.241206
0.234003
0.227264
0.220946
0.215009
0.20942
0.204153
0.199182
0.19449
0.19006
0.185879
0.181934
0.178219
0.174725
0.171449
0.168389
0.165544
0.162919
0.160521
0.158362
0.156465
0.154888
0.153638
0.152732
0.152297
0.152477
0.160457
0.170466
0.182444
0.196647
0.213444
0.233339
0.256995
0.285274
0.319284
0.360422
0.410547
0.471897
0.546421
0.634972
0.735826
0.842887
0.945474
1.03185
1.0951
1.13579
1.15933
1.17187
1.17816
1.1812
1.18263
1.18329
1.18359
1.18372
1.18378
1.1838
1.18381
1.18382
1.18382
1.18382
1.18382
1.18382
1.18382
1.18382
0.658526
0.6585
0.658455
0.658381
0.658258
0.658053
0.657716
0.657169
0.65629
0.654899
0.652736
0.649442
0.644548
0.637487
0.627648
0.614481
0.597648
0.577178
0.553545
0.527621
0.500509
0.473308
0.446936
0.422033
0.398962
0.377858
0.358698
0.341367
0.3257
0.311517
0.298644
0.286921
0.276207
0.266382
0.257346
0.249009
0.241261
0.234031
0.227267
0.220923
0.214962
0.209351
0.204061
0.19907
0.194359
0.189912
0.185715
0.181757
0.178031
0.174529
0.171247
0.168184
0.16534
0.162721
0.160333
0.158191
0.156313
0.154778
0.153565
0.152705
0.152317
0.152527
0.161395
0.171967
0.184473
0.199224
0.216631
0.237233
0.26173
0.291023
0.326263
0.368902
0.420875
0.484398
0.561252
0.65193
0.754056
0.860743
0.960923
1.04345
1.10267
1.14017
1.16165
1.17301
1.1787
1.18145
1.18275
1.18334
1.18361
1.18373
1.18378
1.1838
1.18381
1.18382
1.18382
1.18382
1.18382
1.18382
1.18382
1.18382
0.658526
0.6585
0.658456
0.658382
0.658259
0.658055
0.65772
0.657175
0.6563
0.654916
0.652764
0.649486
0.644617
0.637591
0.627799
0.61469
0.597924
0.57752
0.553947
0.528069
0.500981
0.473786
0.447401
0.422472
0.399367
0.378224
0.359025
0.341654
0.325948
0.311728
0.298821
0.287066
0.276322
0.266468
0.257404
0.249042
0.24127
0.234018
0.227232
0.220868
0.214887
0.209256
0.203949
0.198942
0.194216
0.189755
0.185546
0.181578
0.177843
0.174336
0.171052
0.16799
0.165151
0.162543
0.160173
0.158059
0.15623
0.154758
0.153605
0.152893
0.152734
0.153317
0.162556
0.173523
0.186458
0.20169
0.219652
0.240906
0.266184
0.296423
0.332814
0.376859
0.430563
0.496096
0.575071
0.66762
0.770743
0.876853
0.974635
1.05358
1.10921
1.14394
1.16364
1.174
1.17917
1.18167
1.18284
1.18339
1.18363
1.18374
1.18379
1.18381
1.18382
1.18382
1.18382
1.18382
1.18382
1.18382
1.18382
1.18382
0.658526
0.6585
0.658456
0.658383
0.65826
0.658057
0.657723
0.65718
0.656309
0.654931
0.652789
0.649526
0.644678
0.637682
0.62793
0.614869
0.598156
0.577806
0.554278
0.528433
0.501361
0.474164
0.447764
0.422811
0.399674
0.378497
0.359263
0.341857
0.326119
0.311869
0.298934
0.287151
0.276381
0.266504
0.257419
0.249037
0.241246
0.233975
0.227171
0.220789
0.214792
0.209146
0.203825
0.198804
0.194066
0.189595
0.185377
0.181402
0.177662
0.174151
0.170866
0.167806
0.164973
0.162374
0.16002
0.157927
0.156138
0.154708
0.153616
0.152997
0.152986
0.154298
0.163827
0.175112
0.188406
0.204053
0.222505
0.244346
0.270334
0.301438
0.338885
0.384232
0.439535
0.506905
0.587787
0.681956
0.785829
0.891211
0.986655
1.06232
1.11478
1.14713
1.16532
1.17484
1.17957
1.18186
1.18293
1.18342
1.18365
1.18375
1.18379
1.18381
1.18382
1.18382
1.18382
1.18382
1.18382
1.18382
1.18382
1.18382
0.658526
0.6585
0.658456
0.658383
0.658261
0.658058
0.657726
0.657186
0.656318
0.654945
0.652811
0.649561
0.644732
0.637762
0.628042
0.61502
0.59835
0.578041
0.554548
0.528724
0.501661
0.474459
0.448043
0.423066
0.399901
0.378694
0.35943
0.341996
0.326231
0.311956
0.298996
0.287191
0.276402
0.266506
0.257404
0.249005
0.241198
0.233911
0.227092
0.220697
0.214687
0.209029
0.203696
0.198666
0.193919
0.189439
0.185214
0.181234
0.17749
0.173977
0.170692
0.167634
0.164806
0.162213
0.159867
0.157785
0.15601
0.154593
0.153508
0.152882
0.152831
0.155431
0.165163
0.176693
0.190282
0.206284
0.225164
0.247526
0.274151
0.306037
0.344441
0.390976
0.44773
0.516755
0.599331
0.694891
0.799306
0.903871
0.997099
1.06982
1.11951
1.14982
1.16674
1.17554
1.17991
1.18201
1.183
1.18345
1.18366
1.18375
1.18379
1.18381
1.18382
1.18382
1.18382
1.18382
1.18382
1.18382
1.18382
1.18382
0.658526
0.6585
0.658457
0.658384
0.658262
0.65806
0.657729
0.65719
0.656325
0.654958
0.652831
0.649592
0.644777
0.637828
0.628135
0.615145
0.598508
0.578231
0.554762
0.528953
0.501894
0.474684
0.448252
0.423253
0.400063
0.378831
0.359542
0.342084
0.326296
0.312
0.299021
0.2872
0.276394
0.266483
0.257367
0.248954
0.241134
0.233835
0.227005
0.220599
0.214578
0.208911
0.20357
0.198531
0.193777
0.189292
0.185062
0.181078
0.177332
0.173819
0.170534
0.167479
0.164654
0.162066
0.159727
0.157652
0.155886
0.154479
0.153399
0.152776
0.152722
0.156534
0.166438
0.178179
0.192023
0.208335
0.227593
0.250418
0.277611
0.310196
0.349461
0.397065
0.455125
0.525626
0.609693
0.70643
0.81122
0.914925
1.0061
1.07619
1.1235
1.15208
1.16792
1.17612
1.18019
1.18214
1.18306
1.18348
1.18367
1.18376
1.18379
1.18381
1.18382
1.18382
1.18382
1.18382
1.18382
1.18382
1.18382
1.18382
0.658526
0.6585
0.658457
0.658384
0.658263
0.658061
0.657731
0.657194
0.656332
0.654968
0.652847
0.649617
0.644815
0.637883
0.628211
0.615245
0.598634
0.57838
0.554929
0.52913
0.50207
0.474852
0.448405
0.423386
0.400176
0.378922
0.359612
0.342134
0.326328
0.312016
0.299023
0.287187
0.276368
0.266445
0.257317
0.248894
0.241063
0.233754
0.226915
0.220501
0.214473
0.208798
0.20345
0.198406
0.193647
0.189157
0.184925
0.180939
0.177192
0.173678
0.170396
0.167343
0.164522
0.16194
0.159607
0.157541
0.155785
0.154385
0.153312
0.152696
0.152647
0.157529
0.167592
0.17952
0.19359
0.210175
0.229767
0.253001
0.280697
0.313901
0.353926
0.402485
0.461709
0.533513
0.618874
0.716596
0.82163
0.924481
1.01378
1.08158
1.12684
1.15395
1.1689
1.17661
1.18042
1.18225
1.18311
1.1835
1.18368
1.18376
1.1838
1.18381
1.18382
1.18382
1.18382
1.18382
1.18382
1.18382
1.18382
1.18382
0.658526
0.6585
0.658457
0.658384
0.658263
0.658062
0.657733
0.657197
0.656337
0.654976
0.65286
0.649637
0.644846
0.637926
0.628271
0.615325
0.598733
0.578497
0.555058
0.529264
0.502201
0.474974
0.448513
0.423478
0.400249
0.378978
0.359651
0.342157
0.326337
0.312012
0.299006
0.28716
0.27633
0.266398
0.257261
0.248829
0.240991
0.233675
0.226829
0.220408
0.214373
0.208693
0.203341
0.198293
0.19353
0.189038
0.184804
0.180817
0.17707
0.173558
0.170278
0.167228
0.164412
0.161836
0.15951
0.157452
0.155705
0.154314
0.15325
0.152642
0.152601
0.158389
0.168597
0.180694
0.194964
0.21179
0.231672
0.255262
0.283397
0.317144
0.35784
0.407239
0.46748
0.540419
0.626893
0.725434
0.830612
0.932645
1.02027
1.08609
1.12961
1.15551
1.16971
1.17701
1.18061
1.18234
1.18315
1.18352
1.18369
1.18376
1.1838
1.18381
1.18382
1.18382
1.18382
1.18382
1.18382
1.18382
1.18382
1.18382
0.658526
0.6585
0.658457
0.658385
0.658264
0.658063
0.657734
0.6572
0.656341
0.654983
0.652871
0.649654
0.64487
0.637961
0.628319
0.615387
0.59881
0.578585
0.555154
0.529363
0.502297
0.475061
0.448588
0.423538
0.400295
0.379009
0.359668
0.342163
0.326331
0.311996
0.298981
0.287125
0.276288
0.266348
0.257204
0.248766
0.240922
0.2336
0.226749
0.220323
0.214285
0.208601
0.203245
0.198194
0.193429
0.188936
0.1847
0.180714
0.176968
0.173458
0.170181
0.167135
0.164324
0.161755
0.159436
0.157384
0.155648
0.154265
0.153211
0.15261
0.152579
0.159115
0.169454
0.1817
0.196144
0.213178
0.233312
0.257211
0.285725
0.319941
0.361217
0.411342
0.472461
0.546373
0.63379
0.733004
0.838255
0.939536
1.0257
1.08982
1.1319
1.15678
1.17037
1.17734
1.18077
1.18241
1.18318
1.18354
1.1837
1.18377
1.1838
1.18381
1.18382
1.18382
1.18382
1.18382
1.18382
1.18382
1.18382
1.18382
0.658526
0.6585
0.658457
0.658385
0.658264
0.658064
0.657736
0.657202
0.656345
0.654989
0.65288
0.649667
0.644889
0.637988
0.628355
0.615434
0.598867
0.578651
0.555226
0.529435
0.502365
0.475121
0.448637
0.423576
0.400321
0.379023
0.359672
0.342157
0.326317
0.311973
0.298951
0.287089
0.276245
0.2663
0.257151
0.248709
0.24086
0.233534
0.226679
0.22025
0.214208
0.208522
0.203163
0.198111
0.193345
0.188851
0.184616
0.18063
0.176886
0.173379
0.170105
0.167064
0.164259
0.161694
0.159381
0.157337
0.155609
0.154233
0.153185
0.152592
0.152571
0.159718
0.170172
0.182546
0.19714
0.214351
0.234699
0.258859
0.287695
0.322308
0.364074
0.414815
0.476678
0.551409
0.639612
0.73937
0.844648
0.945258
1.03018
1.09289
1.13376
1.15782
1.17091
1.1776
1.18089
1.18247
1.18321
1.18355
1.1837
1.18377
1.1838
1.18381
1.18382
1.18382
1.18382
1.18382
1.18382
1.18382
1.18382
1.18382
0.658526
0.658501
0.658457
0.658385
0.658264
0.658065
0.657737
0.657203
0.656347
0.654993
0.652886
0.649677
0.644904
0.638009
0.628383
0.61547
0.59891
0.5787
0.555277
0.529486
0.502412
0.475161
0.448669
0.423599
0.400334
0.379027
0.359668
0.342145
0.326298
0.311949
0.298921
0.287055
0.276207
0.266257
0.257105
0.24866
0.240808
0.233479
0.226621
0.22019
0.214146
0.208458
0.203098
0.198045
0.193279
0.188785
0.184551
0.180566
0.176825
0.17332
0.17005
0.167013
0.164212
0.161652
0.159345
0.157306
0.155583
0.15421
0.15316
0.152556
0.152512
0.16021
0.170763
0.183246
0.197964
0.215321
0.235846
0.260221
0.289322
0.324262
0.366433
0.417683
0.480157
0.555559
0.644402
0.744591
0.849868
0.949903
1.03379
1.09534
1.13525
1.15864
1.17134
1.17781
1.18099
1.18252
1.18323
1.18356
1.18371
1.18377
1.1838
1.18381
1.18382
1.18382
1.18382
1.18382
1.18382
1.18382
1.18382
1.18382
0.658526
0.658501
0.658457
0.658385
0.658265
0.658065
0.657737
0.657205
0.656349
0.654996
0.652891
0.649684
0.644914
0.638024
0.628403
0.615495
0.598941
0.578735
0.555313
0.529521
0.502443
0.475187
0.448688
0.423611
0.400339
0.379026
0.35966
0.342132
0.326281
0.311927
0.298895
0.287025
0.276175
0.266223
0.257068
0.248621
0.240766
0.233436
0.226577
0.220144
0.214099
0.20841
0.20305
0.197996
0.19323
0.188737
0.184504
0.180522
0.176783
0.173281
0.170014
0.166981
0.164185
0.16163
0.159328
0.157295
0.155577
0.154208
0.153161
0.152556
0.152513
0.160599
0.171234
0.183807
0.198626
0.2161
0.236765
0.261311
0.290621
0.32582
0.368312
0.419965
0.482923
0.558855
0.648196
0.748714
0.853973
0.95354
1.03661
1.09725
1.13641
1.15928
1.17167
1.17797
1.18107
1.18255
1.18325
1.18356
1.18371
1.18377
1.1838
1.18381
1.18382
1.18382
1.18382
1.18382
1.18382
1.18382
1.18382
1.18382
0.658526
0.658501
0.658458
0.658385
0.658265
0.658065
0.657738
0.657206
0.656351
0.654998
0.652895
0.649689
0.644922
0.638034
0.628417
0.615513
0.598962
0.578758
0.555338
0.529544
0.502464
0.475203
0.448699
0.423617
0.40034
0.379022
0.359652
0.34212
0.326265
0.311909
0.298875
0.287003
0.27615
0.266197
0.257041
0.248593
0.240737
0.233406
0.226546
0.220112
0.214066
0.208377
0.203017
0.197964
0.193198
0.188706
0.184475
0.180495
0.176758
0.173259
0.169996
0.166967
0.164175
0.161626
0.159329
0.1573
0.155588
0.154222
0.153176
0.152569
0.152518
0.160888
0.171592
0.184235
0.199131
0.216694
0.237465
0.262137
0.291604
0.326995
0.369726
0.421679
0.484995
0.561318
0.651025
0.751777
0.857008
0.956216
1.03868
1.09865
1.13725
1.15975
1.17191
1.17809
1.18113
1.18258
1.18326
1.18357
1.18371
1.18377
1.1838
1.18381
1.18382
1.18382
1.18382
1.18382
1.18382
1.18382
1.18382
1.18382
0.658526
0.658501
0.658458
0.658385
0.658265
0.658066
0.657738
0.657206
0.656352
0.655
0.652897
0.649692
0.644927
0.638041
0.628426
0.615524
0.598975
0.578773
0.555353
0.529558
0.502476
0.475213
0.448705
0.423619
0.400339
0.379018
0.359646
0.342112
0.326255
0.311896
0.298861
0.286988
0.276135
0.26618
0.257025
0.248576
0.24072
0.233388
0.226528
0.220094
0.214048
0.208359
0.202999
0.197946
0.193182
0.188691
0.184461
0.180482
0.176748
0.173252
0.169992
0.166966
0.164179
0.161634
0.159341
0.157317
0.155609
0.154246
0.153199
0.152587
0.152524
0.161081
0.171837
0.184531
0.199481
0.217105
0.237946
0.262703
0.292273
0.327791
0.37068
0.422831
0.486383
0.562962
0.652904
0.753802
0.859003
0.957964
1.04002
1.09956
1.1378
1.16005
1.17207
1.17817
1.18117
1.1826
1.18327
1.18357
1.18371
1.18377
1.1838
1.18381
1.18382
1.18382
1.18382
1.18382
1.18382
1.18382
1.18382
1.18382
0.658526
0.658501
0.658458
0.658385
0.658265
0.658066
0.657738
0.657206
0.656352
0.655
0.652898
0.649694
0.644929
0.638044
0.628431
0.61553
0.598982
0.57878
0.55536
0.529564
0.502481
0.475217
0.448708
0.42362
0.400339
0.379016
0.359643
0.342107
0.326249
0.31189
0.298854
0.286981
0.276127
0.266172
0.257017
0.248568
0.240712
0.233381
0.22652
0.220086
0.214041
0.208352
0.202992
0.19794
0.193176
0.188686
0.184457
0.18048
0.176747
0.173253
0.169995
0.166973
0.164188
0.161646
0.159357
0.157336
0.155631
0.154269
0.153221
0.152604
0.152528
0.161176
0.171966
0.18469
0.199669
0.217324
0.238199
0.262997
0.292617
0.328196
0.37116
0.423405
0.487067
0.563766
0.653816
0.754776
0.859955
0.95879
1.04064
1.09998
1.13805
1.16019
1.17214
1.17821
1.18118
1.18261
1.18327
1.18358
1.18371
1.18377
1.1838
1.18381
1.18382
1.18382
1.18382
1.18382
1.18382
1.18382
1.18382
1.18382
0.658526
0.658501
0.658458
0.658385
0.658265
0.658066
0.657738
0.657206
0.656352
0.655
0.652898
0.649694
0.644929
0.638044
0.62843
0.615529
0.598981
0.578779
0.555359
0.529564
0.502481
0.475216
0.448707
0.42362
0.400338
0.379016
0.359642
0.342107
0.326249
0.31189
0.298854
0.28698
0.276127
0.266172
0.257016
0.248568
0.240712
0.233381
0.22652
0.220086
0.214041
0.208352
0.202992
0.19794
0.193176
0.188686
0.184457
0.18048
0.176747
0.173253
0.169995
0.166973
0.164188
0.161646
0.159357
0.157336
0.155631
0.154269
0.153221
0.152604
0.152528
0.161177
0.171966
0.18469
0.199669
0.217324
0.238199
0.262997
0.292617
0.328196
0.371161
0.423405
0.487068
0.563767
0.653817
0.754777
0.859955
0.95879
1.04064
1.09998
1.13805
1.16019
1.17214
1.17821
1.18118
1.18261
1.18327
1.18358
1.18371
1.18377
1.1838
1.18381
1.18382
1.18382
1.18382
1.18382
1.18382
1.18382
1.18382
1.18382
0.658526
0.658501
0.658458
0.658385
0.658265
0.658066
0.657738
0.657206
0.656352
0.655
0.652897
0.649692
0.644927
0.638041
0.628426
0.615524
0.598975
0.578772
0.555351
0.529557
0.502474
0.475211
0.448704
0.423618
0.400338
0.379017
0.359645
0.342111
0.326254
0.311896
0.298861
0.286987
0.276134
0.26618
0.257024
0.248575
0.240719
0.233388
0.226527
0.220093
0.214048
0.208358
0.202999
0.197946
0.193181
0.188691
0.184461
0.180482
0.176748
0.173252
0.169991
0.166966
0.164179
0.161634
0.159341
0.157317
0.155609
0.154245
0.153199
0.152587
0.152524
0.161081
0.171837
0.184532
0.199482
0.217106
0.237947
0.262704
0.292274
0.327792
0.370682
0.422832
0.486384
0.562964
0.652907
0.753804
0.859005
0.957966
1.04002
1.09956
1.1378
1.16005
1.17207
1.17817
1.18117
1.1826
1.18327
1.18357
1.18371
1.18377
1.1838
1.18381
1.18382
1.18382
1.18382
1.18382
1.18382
1.18382
1.18382
1.18382
0.658526
0.658501
0.658458
0.658385
0.658265
0.658065
0.657738
0.657206
0.656351
0.654998
0.652894
0.649689
0.644922
0.638034
0.628417
0.615512
0.598961
0.578756
0.555336
0.529542
0.502461
0.475201
0.448697
0.423614
0.400338
0.37902
0.359651
0.342119
0.326264
0.311908
0.298874
0.287002
0.276149
0.266196
0.257041
0.248592
0.240737
0.233405
0.226545
0.220111
0.214066
0.208377
0.203016
0.197963
0.193198
0.188706
0.184475
0.180495
0.176758
0.173259
0.169995
0.166967
0.164175
0.161625
0.159329
0.1573
0.155588
0.154222
0.153176
0.152569
0.152518
0.160889
0.171593
0.184236
0.199132
0.216696
0.237466
0.262139
0.291606
0.326997
0.369729
0.421682
0.484998
0.561322
0.651029
0.751781
0.857012
0.95622
1.03868
1.09865
1.13725
1.15975
1.17191
1.17809
1.18113
1.18258
1.18326
1.18357
1.18371
1.18377
1.1838
1.18381
1.18382
1.18382
1.18382
1.18382
1.18382
1.18382
1.18382
1.18382
0.658526
0.658501
0.658457
0.658385
0.658265
0.658065
0.657737
0.657205
0.656349
0.654996
0.652891
0.649684
0.644914
0.638023
0.628402
0.615494
0.598939
0.578732
0.55531
0.529518
0.50244
0.475184
0.448685
0.423608
0.400336
0.379023
0.359658
0.34213
0.326279
0.311925
0.298894
0.287024
0.276173
0.266221
0.257067
0.24862
0.240766
0.233435
0.226576
0.220143
0.214098
0.208409
0.203049
0.197995
0.19323
0.188736
0.184504
0.180521
0.176782
0.173281
0.170014
0.166981
0.164184
0.16163
0.159328
0.157294
0.155577
0.154208
0.153161
0.152556
0.152513
0.1606
0.171236
0.183808
0.198627
0.216102
0.236767
0.261313
0.290624
0.325823
0.368316
0.41997
0.482927
0.55886
0.648202
0.74872
0.853978
0.953545
1.03662
1.09726
1.13641
1.15928
1.17167
1.17797
1.18107
1.18255
1.18325
1.18356
1.18371
1.18377
1.1838
1.18381
1.18382
1.18382
1.18382
1.18382
1.18382
1.18382
1.18382
1.18382
0.658526
0.658501
0.658457
0.658385
0.658264
0.658065
0.657737
0.657203
0.656347
0.654993
0.652886
0.649676
0.644903
0.638008
0.628382
0.615467
0.598907
0.578697
0.555274
0.529482
0.502407
0.475157
0.448665
0.423595
0.40033
0.379024
0.359665
0.342143
0.326296
0.311947
0.298919
0.287053
0.276205
0.266256
0.257104
0.248658
0.240806
0.233478
0.22662
0.220189
0.214145
0.208457
0.203097
0.198044
0.193278
0.188784
0.18455
0.180566
0.176824
0.17332
0.170049
0.167013
0.164211
0.161652
0.159345
0.157306
0.155583
0.15421
0.15316
0.152556
0.152512
0.160212
0.170764
0.183248
0.197966
0.215324
0.235849
0.260224
0.289325
0.324266
0.366438
0.417688
0.480163
0.555567
0.64441
0.7446
0.849876
0.94991
1.0338
1.09535
1.13525
1.15864
1.17134
1.17781
1.18099
1.18252
1.18323
1.18356
1.18371
1.18377
1.1838
1.18381
1.18382
1.18382
1.18382
1.18382
1.18382
1.18382
1.18382
1.18382
0.658526
0.6585
0.658457
0.658385
0.658264
0.658064
0.657736
0.657202
0.656345
0.654988
0.652879
0.649666
0.644888
0.637987
0.628354
0.615432
0.598864
0.578648
0.555221
0.52943
0.50236
0.475116
0.448632
0.423572
0.400317
0.37902
0.359669
0.342154
0.326314
0.31197
0.298948
0.287087
0.276243
0.266298
0.25715
0.248707
0.240858
0.233533
0.226678
0.220249
0.214207
0.208521
0.203162
0.19811
0.193344
0.18885
0.184615
0.18063
0.176886
0.173378
0.170104
0.167063
0.164258
0.161694
0.159381
0.157336
0.155608
0.154233
0.153185
0.152591
0.152571
0.15972
0.170174
0.182549
0.197143
0.214354
0.234702
0.258862
0.287699
0.322313
0.36408
0.414822
0.476685
0.551417
0.639622
0.73938
0.844658
0.945266
1.03019
1.09289
1.13377
1.15782
1.17091
1.1776
1.18089
1.18247
1.18321
1.18355
1.1837
1.18377
1.1838
1.18381
1.18382
1.18382
1.18382
1.18382
1.18382
1.18382
1.18382
1.18382
0.658526
0.6585
0.658457
0.658385
0.658264
0.658063
0.657734
0.6572
0.656341
0.654983
0.652871
0.649653
0.644869
0.63796
0.628317
0.615384
0.598806
0.578581
0.555149
0.529357
0.502291
0.475055
0.448582
0.423533
0.40029
0.379004
0.359664
0.342159
0.326328
0.311992
0.298978
0.287123
0.276285
0.266345
0.257202
0.248764
0.24092
0.233598
0.226747
0.220322
0.214283
0.208599
0.203243
0.198192
0.193428
0.188934
0.184699
0.180713
0.176967
0.173457
0.17018
0.167135
0.164324
0.161754
0.159435
0.157384
0.155648
0.154265
0.15321
0.15261
0.152579
0.159118
0.169457
0.181703
0.196147
0.213181
0.233316
0.257215
0.285731
0.319947
0.361223
0.41135
0.472471
0.546383
0.633802
0.733017
0.838268
0.939546
1.02571
1.08983
1.1319
1.15678
1.17037
1.17734
1.18077
1.18241
1.18318
1.18354
1.1837
1.18377
1.1838
1.18381
1.18382
1.18382
1.18382
1.18382
1.18382
1.18382
1.18382
1.18382
0.658526
0.6585
0.658457
0.658384
0.658263
0.658062
0.657733
0.657197
0.656337
0.654976
0.65286
0.649636
0.644844
0.637925
0.628269
0.615321
0.598729
0.578491
0.555052
0.529257
0.502195
0.474967
0.448506
0.423472
0.400244
0.378972
0.359646
0.342153
0.326333
0.312008
0.299003
0.287157
0.276327
0.266395
0.257258
0.248827
0.240989
0.233673
0.226827
0.220406
0.214372
0.208692
0.203339
0.198291
0.193529
0.189037
0.184802
0.180816
0.177069
0.173557
0.170277
0.167227
0.164411
0.161835
0.15951
0.157451
0.155705
0.154314
0.15325
0.152642
0.152601
0.158392
0.1686
0.180697
0.194968
0.211794
0.231677
0.255268
0.283403
0.317151
0.357848
0.407248
0.467492
0.540431
0.626907
0.725449
0.830627
0.932658
1.02028
1.08609
1.12962
1.15551
1.16971
1.17701
1.18061
1.18234
1.18315
1.18352
1.18369
1.18376
1.1838
1.18381
1.18382
1.18382
1.18382
1.18382
1.18382
1.18382
1.18382
1.18382
0.658526
0.6585
0.658457
0.658384
0.658262
0.658061
0.657731
0.657194
0.656332
0.654967
0.652846
0.649616
0.644814
0.63788
0.628208
0.615241
0.598629
0.578374
0.554922
0.529123
0.502062
0.474844
0.448397
0.423379
0.400169
0.378916
0.359606
0.342129
0.326323
0.312011
0.299019
0.287183
0.276365
0.266442
0.257314
0.248891
0.241061
0.233752
0.226913
0.220499
0.214471
0.208796
0.203448
0.198404
0.193645
0.189156
0.184923
0.180937
0.177191
0.173677
0.170395
0.167342
0.164521
0.161939
0.159606
0.15754
0.155785
0.154385
0.153312
0.152695
0.152647
0.157533
0.167595
0.179524
0.193594
0.21018
0.229772
0.253007
0.280704
0.313909
0.353935
0.402496
0.461722
0.533527
0.61889
0.716614
0.821648
0.924497
1.01379
1.08159
1.12684
1.15396
1.1689
1.17661
1.18042
1.18225
1.18311
1.1835
1.18368
1.18376
1.1838
1.18381
1.18382
1.18382
1.18382
1.18382
1.18382
1.18382
1.18382
1.18382
0.658526
0.6585
0.658457
0.658384
0.658262
0.65806
0.657729
0.65719
0.656325
0.654957
0.65283
0.64959
0.644776
0.637826
0.628132
0.61514
0.598502
0.578224
0.554754
0.528945
0.501885
0.474675
0.448243
0.423245
0.400056
0.378824
0.359535
0.342078
0.326291
0.311995
0.299017
0.287196
0.276391
0.26648
0.257363
0.248951
0.241131
0.233832
0.227003
0.220597
0.214576
0.208909
0.203568
0.19853
0.193776
0.18929
0.185061
0.181077
0.177331
0.173818
0.170533
0.167478
0.164653
0.162065
0.159726
0.157652
0.155886
0.154478
0.153399
0.152776
0.152722
0.156537
0.166442
0.178183
0.192028
0.208341
0.227599
0.250425
0.277619
0.310206
0.349471
0.397078
0.45514
0.525643
0.609712
0.70645
0.811241
0.914944
1.00611
1.0762
1.12351
1.15208
1.16792
1.17612
1.18019
1.18214
1.18306
1.18348
1.18367
1.18376
1.18379
1.18381
1.18382
1.18382
1.18382
1.18382
1.18382
1.18382
1.18382
1.18382
0.658526
0.6585
0.658456
0.658383
0.658261
0.658058
0.657726
0.657185
0.656318
0.654945
0.652811
0.64956
0.64473
0.637759
0.628038
0.615016
0.598344
0.578034
0.554539
0.528715
0.501651
0.474449
0.448034
0.423057
0.399893
0.378686
0.359423
0.341989
0.326225
0.31195
0.298991
0.287187
0.276397
0.266502
0.2574
0.249002
0.241194
0.233908
0.22709
0.220695
0.214684
0.209027
0.203694
0.198664
0.193917
0.189437
0.185212
0.181232
0.177488
0.173976
0.170691
0.167633
0.164805
0.162212
0.159866
0.157784
0.156009
0.154593
0.153507
0.152881
0.15283
0.155435
0.165167
0.176698
0.190288
0.20629
0.225171
0.247534
0.27416
0.306047
0.344453
0.39099
0.447747
0.516774
0.599354
0.694915
0.79933
0.903894
0.997118
1.06983
1.11952
1.14983
1.16674
1.17554
1.17991
1.18201
1.183
1.18345
1.18366
1.18375
1.18379
1.18381
1.18382
1.18382
1.18382
1.18382
1.18382
1.18382
1.18382
1.18382
0.658526
0.6585
0.658456
0.658383
0.65826
0.658057
0.657723
0.65718
0.656309
0.654931
0.652788
0.649525
0.644676
0.63768
0.627926
0.614864
0.59815
0.577798
0.554269
0.528422
0.50135
0.474154
0.447754
0.422801
0.399665
0.378489
0.359255
0.34185
0.326113
0.311863
0.298928
0.287146
0.276376
0.266499
0.257415
0.249033
0.241242
0.233971
0.227168
0.220786
0.214789
0.209143
0.203822
0.198802
0.194064
0.189593
0.185375
0.1814
0.17766
0.174149
0.170864
0.167805
0.164972
0.162373
0.160019
0.157926
0.156137
0.154708
0.153615
0.152996
0.152985
0.154302
0.163831
0.175116
0.188412
0.20406
0.222512
0.244355
0.270344
0.30145
0.338898
0.384248
0.439553
0.506927
0.587812
0.681984
0.785857
0.891237
0.986677
1.06234
1.11479
1.14714
1.16533
1.17484
1.17957
1.18186
1.18293
1.18342
1.18365
1.18375
1.18379
1.18381
1.18382
1.18382
1.18382
1.18382
1.18382
1.18382
1.18382
1.18382
0.658526
0.6585
0.658456
0.658382
0.658259
0.658055
0.65772
0.657175
0.6563
0.654915
0.652763
0.649485
0.644615
0.637588
0.627795
0.614684
0.597916
0.577512
0.553937
0.528057
0.50097
0.473774
0.447389
0.422462
0.399357
0.378215
0.359016
0.341646
0.32594
0.311722
0.298815
0.28706
0.276316
0.266463
0.257399
0.249038
0.241266
0.234014
0.227229
0.220865
0.214883
0.209253
0.203946
0.198939
0.194213
0.189752
0.185543
0.181576
0.177841
0.174334
0.17105
0.167988
0.165151
0.162542
0.160173
0.15806
0.156231
0.154759
0.153604
0.152891
0.152734
0.15332
0.162559
0.173527
0.186464
0.201697
0.219659
0.240915
0.266195
0.296436
0.332828
0.376877
0.430583
0.49612
0.575099
0.667651
0.770775
0.876884
0.974661
1.0536
1.10922
1.14395
1.16365
1.17401
1.17918
1.18167
1.18285
1.18339
1.18363
1.18374
1.18379
1.18381
1.18382
1.18382
1.18382
1.18382
1.18382
1.18382
1.18382
1.18382
0.658526
0.6585
0.658455
0.658381
0.658258
0.658053
0.657716
0.657169
0.65629
0.654899
0.652735
0.649441
0.644546
0.637484
0.627643
0.614475
0.59764
0.577169
0.553533
0.527609
0.500496
0.473295
0.446923
0.422021
0.398951
0.377848
0.358689
0.341358
0.325692
0.311509
0.298637
0.286915
0.276201
0.266377
0.257341
0.249005
0.241256
0.234026
0.227263
0.22092
0.214959
0.209347
0.204058
0.199067
0.194357
0.189909
0.185713
0.181755
0.178029
0.174527
0.171245
0.168183
0.16534
0.162721
0.160334
0.158194
0.15632
0.154791
0.15355
0.152697
0.152314
0.152527
0.161398
0.171972
0.184479
0.199231
0.21664
0.237243
0.261741
0.291036
0.326279
0.368921
0.420898
0.484424
0.561283
0.651965
0.754093
0.860779
0.960954
1.04347
1.10268
1.14018