/*--------------------------------*- C++ -*----------------------------------*\
  =========                 |
  \\      /  F ield         | OpenFOAM: The Open Source CFD Toolbox
   \\    /   O peration     | Website:  https://openfoam.org
    \\  /    A nd           | Version:  8
     \\/     M anipulation  |
\*---------------------------------------------------------------------------*/
FoamFile
{
    version     2.0;
    format      ascii;
    class       volScalarField;
    location    "540/fluid";
    object      T;
}
// * * * * * * * * * * * * * * * * * * * * * * * * * * * * * * * * * * * * * //

dimensions      [0 0 0 1 0 0 0];

internalField   nonuniform List<scalar> 
4000
(
293.004
293.017
293.038
293.074
293.135
293.235
293.399
293.668
294.103
294.798
295.893
297.59
300.168
303.997
309.539
317.323
327.894
341.745
359.229
380.498
405.492
433.966
465.559
499.87
536.51
575.143
615.496
657.357
700.566
745
790.56
837.156
884.696
933.079
982.189
1031.94
1082.36
1133.39
1184.9
1236.82
1289.03
1341.42
1393.89
1446.31
1498.57
1550.53
1602.07
1653.05
1703.31
1752.7
1801.04
1848.15
1893.8
1937.73
1979.64
2019.15
2055.81
2088.7
2117.01
2140.99
2158.65
2168.43
2168.01
2058.84
1942.17
1820.29
1695.05
1567.99
1440.45
1313.62
1188.63
1066.57
948.613
835.683
728.987
630.525
542.639
467.652
407.433
362.697
332.39
313.765
303.311
297.903
295.264
294.021
293.452
293.197
293.085
293.036
293.015
293.006
293.003
293.001
293
293
293
293
293
293
293.004
293.017
293.038
293.075
293.136
293.236
293.403
293.674
294.113
294.813
295.914
297.615
300.191
304.005
309.506
317.21
327.652
341.318
358.562
379.554
404.251
432.435
463.764
497.85
534.313
572.815
613.083
654.9
698.101
742.559
788.171
834.843
882.483
930.987
980.237
1030.14
1080.73
1131.92
1183.63
1235.74
1288.15
1340.75
1393.43
1446.06
1498.53
1550.71
1602.46
1653.63
1704.09
1753.67
1802.19
1849.46
1895.26
1939.32
1981.33
2020.92
2057.59
2090.31
2118.36
2141.85
2158.51
2166.29
2160.5
2049.34
1931.15
1808.02
1681.71
1553.69
1425.29
1297.69
1172.04
1049.49
931.22
818.205
711.844
614.328
528.096
455.468
398.111
356.32
328.545
311.722
302.345
297.48
295.089
293.952
293.426
293.187
293.081
293.035
293.015
293.006
293.003
293.001
293
293
293
293
293
293
293.004
293.017
293.039
293.075
293.137
293.238
293.406
293.68
294.121
294.824
295.928
297.632
300.207
304.013
309.49
317.142
327.496
341.028
358.091
378.857
403.298
431.208
462.265
496.094
532.325
570.63
610.738
652.433
695.55
739.961
785.562
832.259
879.958
928.556
977.932
1027.98
1078.75
1130.15
1182.08
1234.44
1287.11
1340
1392.98
1445.92
1498.7
1551.19
1603.25
1654.74
1705.5
1755.38
1804.19
1851.73
1897.78
1942.07
1984.29
2024.05
2060.87
2093.66
2121.76
2145.31
2162.04
2170.03
2144.57
2031.88
1912.26
1787.85
1660.39
1531.41
1402.24
1274.1
1148.19
1025.72
907.923
795.794
690.956
595.703
512.422
443.219
389.374
350.706
325.305
310.027
301.528
297.106
294.924
293.881
293.396
293.175
293.076
293.033
293.014
293.006
293.002
293.001
293
293
293
293
293
293
293.004
293.017
293.039
293.076
293.137
293.239
293.407
293.681
294.123
294.825
295.927
297.624
300.184
303.963
309.394
316.979
327.236
340.64
357.543
378.125
402.363
430.065
460.917
494.552
530.607
568.758
608.735
650.324
693.363
737.724
783.305
830.013
877.756
926.43
975.917
1026.11
1077.04
1128.64
1180.8
1233.41
1286.37
1339.57
1392.86
1446.13
1499.25
1552.09
1604.51
1656.35
1707.47
1757.69
1806.82
1854.68
1901.01
1945.57
1988.01
2027.96
2064.92
2097.75
2125.83
2149.28
2165.84
2173.65
2123.4
2009.74
1889.07
1763.63
1635.28
1505.6
1375.98
1247.68
1121.97
1000.09
883.267
772.549
669.723
577.106
496.979
431.23
380.799
345.12
322
308.238
300.629
296.68
294.729
293.795
293.358
293.159
293.069
293.03
293.013
293.005
293.002
293.001
293
293
293
293
293
293
293.004
293.017
293.039
293.076
293.137
293.239
293.407
293.681
294.122
294.823
295.921
297.61
300.157
303.913
309.308
316.838
327.017
340.316
357.091
377.523
401.598
429.132
459.819
493.3
529.216
567.245
607.119
648.628
691.609
735.936
781.507
828.233
876.021
924.771
974.364
1024.69
1075.78
1127.57
1179.96
1232.83
1286.06
1339.54
1393.14
1446.74
1500.21
1553.41
1606.18
1658.38
1709.85
1760.41
1809.87
1858.02
1904.62
1949.41
1992.04
2032.12
2069.15
2101.82
2129.72
2153
2169.28
2176.42
2100.45
1986.07
1864.57
1738.33
1609.3
1479.14
1349.31
1221.13
1095.89
974.897
859.288
750.212
649.604
559.743
482.787
420.397
373.188
340.245
319.154
306.708
299.862
296.314
294.56
293.719
293.325
293.145
293.063
293.027
293.012
293.005
293.002
293.001
293
293
293
293
293
293
293.004
293.017
293.039
293.076
293.137
293.239
293.406
293.679
294.118
294.816
295.908
297.587
300.119
303.85
309.209
316.687
326.796
340.008
356.678
376.992
400.943
428.351
458.917
492.286
528.103
566.048
605.855
647.313
690.261
734.575
780.155
826.911
874.755
923.586
973.286
1023.75
1075
1126.98
1179.58
1232.68
1286.17
1339.92
1393.82
1447.74
1501.53
1555.06
1608.17
1660.71
1712.5
1763.36
1813.11
1861.51
1908.33
1953.27
1996.01
2036.12
2073.04
2105.48
2133.25
2156.25
2172.11
2178.49
2078.3
1963.64
1841.32
1714.2
1584.46
1453.87
1323.92
1195.98
1071.34
951.326
836.997
729.617
631.209
543.999
470.022
410.725
366.427
335.919
316.616
305.33
299.16
295.975
294.402
293.647
293.293
293.13
293.057
293.025
293.011
293.005
293.002
293.001
293
293
293
293
293
293
293.004
293.017
293.039
293.075
293.136
293.238
293.405
293.676
294.113
294.808
295.894
297.565
300.082
303.792
309.119
316.552
326.604
339.743
356.328
376.548
400.402
427.714
458.191
491.48
527.228
565.118
604.884
646.317
689.256
733.577
779.181
825.982
873.891
922.809
972.622
1023.22
1074.64
1126.79
1179.58
1232.89
1286.62
1340.64
1394.82
1449.02
1503.12
1556.95
1610.36
1663.19
1715.26
1766.39
1816.37
1864.96
1911.92
1956.95
1999.68
2039.69
2076.47
2108.35
2135.67
2158.05
2173.22
2179.1
2067.45
1947.64
1822.12
1692.98
1562.02
1430.77
1300.64
1172.92
1048.9
929.849
816.767
711.031
614.709
529.976
458.746
402.261
360.57
332.207
314.455
304.162
298.566
295.687
294.266
293.585
293.265
293.118
293.052
293.023
293.01
293.004
293.002
293.001
293
293
293
293
293
293
293.004
293.017
293.039
293.075
293.136
293.237
293.403
293.673
294.108
294.799
295.88
297.542
300.047
303.736
309.036
316.432
326.434
339.514
356.032
376.18
399.96
427.202
457.615
490.849
526.555
564.413
604.16
645.587
688.533
732.876
778.519
825.375
873.357
922.371
972.299
1023.03
1074.58
1126.9
1179.88
1233.4
1287.35
1341.61
1396.04
1450.5
1504.86
1558.96
1612.64
1665.72
1718.04
1769.38
1819.54
1868.27
1915.31
1960.32
2002.93
2042.65
2078.8
2109.79
2136.55
2156.77
2168.61
2169.12
2053.85
1931.24
1803.69
1673.15
1541.31
1409.64
1279.46
1152.05
1028.67
910.549
798.655
694.465
600.087
517.628
448.887
394.918
355.526
329.028
312.61
303.164
298.056
295.439
294.149
293.531
293.241
293.107
293.047
293.021
293.009
293.004
293.002
293.001
293
293
293
293
293
293
293.004
293.017
293.038
293.075
293.135
293.236
293.401
293.67
294.104
294.792
295.868
297.522
300.015
303.688
308.963
316.328
326.291
339.324
355.788
375.88
399.605
426.796
457.165
490.365
526.046
563.89
603.634
645.069
688.036
732.413
778.102
825.021
873.084
922.19
972.221
1023.07
1074.76
1127.24
1180.39
1234.1
1288.26
1342.73
1397.38
1452.08
1506.67
1561
1614.91
1668.22
1720.73
1772.26
1822.57
1871.41
1918.51
1963.52
2006.03
2045.55
2081.16
2111.6
2137.54
2156.42
2166.14
2156.42
2038.92
1914.66
1785.9
1654.55
1522.23
1390.39
1260.33
1133.31
1010.59
893.357
782.567
679.812
587.217
506.829
440.329
388.594
351.218
326.334
311.054
302.325
297.628
295.23
294.051
293.485
293.22
293.098
293.043
293.019
293.008
293.003
293.001
293.001
293
293
293
293
293
293
293.004
293.017
293.038
293.075
293.135
293.235
293.4
293.668
294.099
294.785
295.856
297.504
299.987
303.646
308.902
316.241
326.172
339.168
355.591
375.641
399.326
426.481
456.822
490.002
525.671
563.513
603.265
644.719
687.715
732.132
777.875
824.859
872.996
922.187
972.32
1023.28
1075.11
1127.74
1181.05
1234.93
1289.27
1343.93
1398.78
1453.68
1508.47
1563.01
1617.11
1670.6
1723.29
1774.97
1825.41
1874.35
1921.51
1966.54
2009.03
2048.48
2083.94
2114.22
2140.08
2159.06
2169.32
2141.66
2023.33
1898.35
1769.04
1637.33
1504.85
1373.05
1243.23
1116.66
994.593
878.189
768.433
667.006
576.016
497.468
432.951
383.184
347.56
324.06
309.746
301.621
297.269
295.055
293.967
293.447
293.203
293.091
293.04
293.017
293.007
293.003
293.001
293.001
293
293
293
293
293
293
293.004
293.017
293.038
293.074
293.135
293.234
293.398
293.666
294.096
294.779
295.847
297.489
299.963
303.611
308.851
316.169
326.075
339.042
355.434
375.453
399.11
426.242
456.565
489.735
525.403
563.253
603.02
644.498
687.528
731.99
777.786
824.83
873.038
922.315
972.546
1023.62
1075.57
1128.32
1181.78
1235.81
1290.31
1345.14
1400.16
1455.23
1510.2
1564.91
1619.18
1672.82
1725.66
1777.46
1828
1877.03
1924.23
1969.29
2011.77
2051.19
2086.55
2116.73
2142.5
2161.44
2171.71
2127.41
2008.61
1883.24
1753.66
1621.8
1489.31
1357.64
1228.11
1102
980.563
864.931
756.12
655.88
566.326
489.414
426.641
378.582
344.47
322.15
308.653
301.035
296.97
294.909
293.898
293.415
293.188
293.084
293.037
293.016
293.007
293.003
293.001
293.001
293
293
293
293
293
293
293.004
293.017
293.038
293.074
293.134
293.234
293.397
293.664
294.093
294.773
295.838
297.476
299.944
303.582
308.809
316.111
325.998
338.942
355.312
375.308
398.946
426.063
456.378
489.546
525.219
563.081
602.868
644.374
687.44
731.943
777.788
824.893
873.172
922.529
972.849
1024.02
1076.08
1128.95
1182.53
1236.7
1291.33
1346.31
1401.48
1456.7
1511.81
1566.66
1621.06
1674.84
1727.78
1779.69
1830.31
1879.39
1926.63
1971.69
2014.15
2053.5
2088.74
2118.84
2144.53
2163.37
2173.54
2114.7
1995.47
1869.8
1740.03
1608.1
1475.65
1344.15
1214.93
1089.27
968.425
853.475
745.485
646.297
558.007
482.528
421.275
374.695
341.874
320.555
307.743
300.547
296.722
294.788
293.841
293.388
293.176
293.079
293.035
293.015
293.006
293.003
293.001
293
293
293
293
293
293
293
293.004
293.017
293.038
293.074
293.134
293.233
293.396
293.662
294.09
294.769
295.832
297.465
299.928
303.558
308.776
316.066
325.937
338.865
355.218
375.199
398.824
425.933
456.245
489.417
525.099
562.976
602.785
644.319
687.418
731.962
777.856
825.017
873.36
922.789
973.188
1024.45
1076.6
1129.58
1183.26
1237.55
1292.3
1347.39
1402.69
1458.03
1513.27
1568.23
1622.74
1676.62
1729.65
1781.63
1832.3
1881.42
1928.67
1973.72
2016.13
2055.41
2090.55
2120.55
2146.11
2164.82
2174.84
2103.86
1984.16
1858.18
1728.24
1596.26
1463.89
1332.58
1203.64
1078.37
958.032
843.671
736.405
638.13
550.936
476.697
416.75
371.434
339.709
319.231
306.991
300.145
296.518
294.688
293.793
293.366
293.166
293.074
293.033
293.014
293.006
293.003
293.001
293
293
293
293
293
293
293
293.004
293.016
293.038
293.074
293.134
293.233
293.396
293.661
294.088
294.766
295.826
297.457
299.915
303.54
308.75
316.03
325.89
338.806
355.147
375.118
398.736
425.842
456.155
489.332
525.025
562.918
602.749
644.309
687.44
732.022
777.961
825.172
873.572
923.064
973.532
1024.87
1077.1
1130.16
1183.94
1238.32
1293.17
1348.37
1403.76
1459.21
1514.54
1569.6
1624.2
1678.15
1731.24
1783.27
1833.98
1883.11
1930.35
1975.36
2017.72
2056.95
2091.96
2121.84
2147.28
2165.86
2175.68
2094.78
1974.61
1848.34
1718.25
1586.24
1453.93
1322.77
1194.08
1069.14
949.241
835.386
728.744
631.253
544.996
471.813
412.977
368.727
337.92
318.141
306.374
299.816
296.351
294.607
293.755
293.348
293.158
293.07
293.031
293.014
293.006
293.002
293.001
293
293
293
293
293
293
293
293.004
293.016
293.038
293.074
293.133
293.232
293.395
293.66
294.086
294.763
295.822
297.45
299.905
303.525
308.73
316.003
325.855
338.762
355.095
375.06
398.673
425.778
456.094
489.279
524.983
562.893
602.743
644.328
687.488
732.104
778.081
825.336
873.785
923.33
973.856
1025.25
1077.56
1130.69
1184.55
1239
1293.94
1349.21
1404.69
1460.21
1515.62
1570.75
1625.41
1679.41
1732.55
1784.61
1835.33
1884.45
1931.67
1976.64
2018.97
2058.13
2093.02
2122.8
2148.14
2166.61
2176.24
2087.31
1966.69
1840.14
1709.91
1577.87
1445.61
1314.58
1186.1
1061.46
941.925
828.498
722.381
625.551
540.081
467.783
409.872
366.508
336.46
317.255
305.873
299.549
296.215
294.541
293.723
293.333
293.151
293.067
293.03
293.013
293.006
293.002
293.001
293
293
293
293
293
293
293
293.004
293.016
293.038
293.074
293.133
293.232
293.395
293.659
294.085
294.761
295.819
297.445
299.898
303.515
308.714
315.982
325.829
338.73
355.058
375.018
398.63
425.736
456.056
489.248
524.964
562.887
602.756
644.361
687.546
732.19
778.2
825.491
873.98
923.569
974.142
1025.59
1077.95
1131.14
1185.05
1239.57
1294.57
1349.91
1405.44
1461.03
1516.49
1571.67
1626.38
1680.42
1733.58
1785.64
1836.36
1885.47
1932.68
1977.62
2019.88
2058.98
2093.81
2123.55
2148.92
2167.53
2177.44
2081.26
1960.21
1833.42
1703.07
1571
1438.79
1307.88
1179.59
1055.19
935.969
822.896
717.214
620.927
536.103
464.528
407.372
364.727
335.291
316.547
305.474
299.337
296.108
294.488
293.698
293.322
293.146
293.065
293.029
293.012
293.005
293.002
293.001
293
293
293
293
293
293
293
293.004
293.016
293.038
293.073
293.133
293.232
293.394
293.658
294.084
294.759
295.816
297.442
299.892
303.507
308.703
315.967
325.81
338.707
355.031
374.99
398.601
425.709
456.033
489.232
524.957
562.893
602.775
644.398
687.603
732.27
778.306
825.625
874.145
923.767
974.376
1025.86
1078.26
1131.5
1185.46
1240.02
1295.06
1350.45
1406.03
1461.65
1517.16
1572.37
1627.1
1681.15
1734.33
1786.39
1837.1
1886.19
1933.36
1978.25
2020.46
2059.49
2094.24
2123.92
2149.24
2167.84
2177.73
2076.49
1955.07
1828.06
1697.61
1565.52
1433.37
1302.57
1174.44
1050.25
931.276
818.49
713.157
617.304
532.993
461.989
405.427
363.344
334.385
315.999
305.165
299.173
296.025
294.448
293.679
293.313
293.142
293.063
293.028
293.012
293.005
293.002
293.001
293
293
293
293
293
293
293
293.004
293.016
293.038
293.073
293.133
293.232
293.394
293.658
294.083
294.758
295.814
297.439
299.888
303.501
308.696
315.957
325.797
338.692
355.014
374.971
398.582
425.692
456.02
489.225
524.957
562.902
602.796
644.432
687.651
732.336
778.389
825.73
874.271
923.918
974.551
1026.06
1078.49
1131.76
1185.75
1240.34
1295.42
1350.83
1406.44
1462.09
1517.62
1572.85
1627.59
1681.65
1734.82
1786.88
1837.57
1886.63
1933.75
1978.58
2020.72
2059.69
2094.35
2123.98
2149.28
2167.91
2177.87
2072.96
1951.18
1823.98
1693.46
1561.37
1429.27
1298.57
1170.57
1046.55
927.776
815.213
710.148
614.624
530.698
460.122
404
362.333
333.724
315.599
304.94
299.053
295.964
294.418
293.665
293.306
293.139
293.062
293.027
293.012
293.005
293.002
293.001
293
293
293
293
293
293
293
293.004
293.016
293.038
293.073
293.133
293.232
293.394
293.658
294.083
294.757
295.813
297.437
299.886
303.497
308.691
315.951
325.789
338.682
355.003
374.96
398.571
425.682
456.013
489.221
524.959
562.91
602.812
644.456
687.686
732.381
778.447
825.8
874.356
924.017
974.665
1026.19
1078.64
1131.92
1185.93
1240.54
1295.64
1351.07
1406.69
1462.36
1517.89
1573.13
1627.87
1681.93
1735.09
1787.13
1837.79
1886.81
1933.88
1978.66
2020.74
2059.64
2094.24
2123.83
2149.12
2167.81
2177.92
2070.61
1948.52
1821.17
1690.58
1558.5
1426.46
1295.84
1167.95
1044.06
925.428
813.024
708.147
612.848
529.184
458.895
403.068
361.676
333.296
315.34
304.793
298.975
295.924
294.399
293.656
293.302
293.137
293.061
293.027
293.012
293.005
293.002
293.001
293
293
293
293
293
293
293
293.004
293.016
293.038
293.073
293.133
293.232
293.394
293.658
294.082
294.757
295.813
297.436
299.885
303.496
308.688
315.948
325.785
338.678
354.998
374.954
398.566
425.678
456.01
489.221
524.96
562.915
602.82
644.469
687.703
732.404
778.475
825.835
874.397
924.065
974.72
1026.25
1078.7
1131.99
1186.01
1240.63
1295.73
1351.17
1406.8
1462.47
1518.01
1573.24
1627.98
1682.03
1735.18
1787.2
1837.84
1886.83
1933.86
1978.6
2020.63
2059.48
2094.04
2123.59
2148.89
2167.65
2177.94
2069.45
1947.12
1819.66
1689.04
1556.98
1424.99
1294.43
1166.61
1042.79
924.251
811.937
707.163
611.983
528.452
458.307
402.625
361.366
333.096
315.22
304.726
298.939
295.906
294.39
293.651
293.3
293.136
293.061
293.027
293.012
293.005
293.002
293.001
293
293
293
293
293
293
293
293.004
293.016
293.038
293.073
293.133
293.232
293.394
293.658
294.082
294.757
295.813
297.436
299.885
303.496
308.689
315.948
325.785
338.678
354.998
374.955
398.567
425.679
456.011
489.221
524.961
562.915
602.821
644.47
687.704
732.404
778.476
825.836
874.398
924.066
974.721
1026.25
1078.7
1131.99
1186.01
1240.63
1295.73
1351.17
1406.8
1462.47
1518.01
1573.24
1627.98
1682.04
1735.18
1787.2
1837.84
1886.83
1933.87
1978.6
2020.63
2059.48
2094.04
2123.59
2148.89
2167.65
2177.94
2069.45
1947.11
1819.65
1689.04
1556.98
1424.99
1294.43
1166.6
1042.79
924.25
811.936
707.162
611.982
528.452
458.307
402.625
361.366
333.096
315.22
304.726
298.939
295.906
294.39
293.651
293.3
293.136
293.061
293.027
293.012
293.005
293.002
293.001
293
293
293
293
293
293
293
293.004
293.016
293.038
293.073
293.133
293.232
293.394
293.658
294.083
294.758
295.813
297.437
299.886
303.498
308.691
315.951
325.789
338.683
355.004
374.961
398.572
425.684
456.015
489.223
524.961
562.912
602.814
644.458
687.688
732.383
778.449
825.803
874.358
924.019
974.668
1026.19
1078.64
1131.92
1185.93
1240.55
1295.64
1351.07
1406.69
1462.36
1517.89
1573.13
1627.87
1681.93
1735.09
1787.13
1837.79
1886.81
1933.88
1978.66
2020.74
2059.64
2094.24
2123.83
2149.12
2167.81
2177.92
2070.6
1948.51
1821.16
1690.58
1558.5
1426.46
1295.84
1167.94
1044.05
925.425
813.021
708.144
612.846
529.182
458.894
403.067
361.675
333.295
315.34
304.793
298.975
295.924
294.399
293.656
293.302
293.137
293.061
293.027
293.012
293.005
293.002
293.001
293
293
293
293
293
293
293
293.004
293.016
293.038
293.073
293.133
293.232
293.394
293.658
294.083
294.758
295.815
297.439
299.889
303.501
308.696
315.958
325.798
338.693
355.015
374.973
398.584
425.694
456.023
489.228
524.96
562.905
602.799
644.435
687.655
732.34
778.394
825.734
874.276
923.922
974.556
1026.07
1078.49
1131.76
1185.75
1240.35
1295.42
1350.84
1406.45
1462.1
1517.62
1572.85
1627.59
1681.65
1734.83
1786.88
1837.57
1886.63
1933.75
1978.58
2020.73
2059.69
2094.36
2123.98
2149.28
2167.91
2177.87
2072.95
1951.17
1823.97
1693.45
1561.36
1429.26
1298.56
1170.56
1046.54
927.77
815.208
710.143
614.619
530.695
460.119
403.999
362.332
333.723
315.598
304.939
299.053
295.963
294.418
293.665
293.306
293.139
293.062
293.027
293.012
293.005
293.002
293.001
293
293
293
293
293
293
293
293.004
293.016
293.038
293.073
293.133
293.232
293.394
293.658
294.084
294.759
295.816
297.442
299.893
303.507
308.704
315.968
325.811
338.709
355.033
374.992
398.604
425.712
456.037
489.236
524.962
562.897
602.78
644.404
687.609
732.276
778.312
825.631
874.151
923.774
974.382
1025.87
1078.27
1131.5
1185.46
1240.03
1295.07
1350.45
1406.04
1461.66
1517.16
1572.37
1627.11
1681.16
1734.33
1786.4
1837.11
1886.2
1933.37
1978.26
2020.46
2059.49
2094.24
2123.92
2149.24
2167.85
2177.73
2076.48
1955.05
1828.04
1697.59
1565.51
1433.36
1302.56
1174.43
1050.24
931.267
818.482
713.151
617.298
532.988
461.986
405.424
363.342
334.383
315.998
305.165
299.173
296.024
294.447
293.679
293.313
293.142
293.063
293.028
293.012
293.005
293.002
293.001
293
293
293
293
293
293
293
293.004
293.016
293.038
293.074
293.133
293.232
293.395
293.659
294.085
294.761
295.819
297.446
299.898
303.515
308.715
315.983
325.83
338.732
355.06
375.022
398.634
425.74
456.061
489.254
524.97
562.893
602.762
644.368
687.553
732.198
778.208
825.499
873.988
923.577
974.15
1025.6
1077.95
1131.15
1185.06
1239.58
1294.58
1349.92
1405.45
1461.04
1516.5
1571.68
1626.38
1680.42
1733.59
1785.65
1836.37
1885.48
1932.68
1977.62
2019.89
2058.98
2093.82
2123.56
2148.92
2167.53
2177.44
2081.24
1960.19
1833.4
1703.05
1570.98
1438.78
1307.87
1179.57
1055.18
935.957
822.886
717.205
620.919
536.097
464.523
407.368
364.724
335.289
316.546
305.473
299.337
296.108
294.488
293.698
293.322
293.146
293.065
293.029
293.012
293.005
293.002
293.001
293
293
293
293
293
293
293
293.004
293.016
293.038
293.074
293.133
293.232
293.395
293.66
294.086
294.763
295.822
297.451
299.906
303.526
308.731
316.004
325.857
338.765
355.098
375.064
398.678
425.784
456.1
489.285
524.991
562.9
602.751
644.336
687.496
732.113
778.09
825.346
873.795
923.34
973.867
1025.26
1077.57
1130.7
1184.56
1239.01
1293.95
1349.22
1404.7
1460.22
1515.63
1570.76
1625.42
1679.42
1732.56
1784.62
1835.34
1884.46
1931.68
1976.65
2018.97
2058.13
2093.03
2122.81
2148.14
2166.62
2176.24
2087.29
1966.66
1840.12
1709.89
1577.85
1445.59
1314.56
1186.08
1061.44
941.91
828.485
722.37
625.541
540.073
467.776
409.867
366.505
336.458
317.253
305.872
299.549
296.215
294.54
293.723
293.333
293.151
293.067
293.03
293.013
293.006
293.002
293.001
293
293
293
293
293
293
293
293.004
293.016
293.038
293.074
293.134
293.233
293.396
293.661
294.088
294.766
295.827
297.457
299.916
303.541
308.751
316.032
325.893
338.809
355.151
375.123
398.741
425.848
456.162
489.339
525.033
562.927
602.759
644.319
687.45
732.033
777.972
825.184
873.584
923.076
973.545
1024.88
1077.11
1130.18
1183.96
1238.34
1293.19
1348.38
1403.78
1459.22
1514.55
1569.61
1624.21
1678.16
1731.26
1783.28
1833.99
1883.12
1930.36
1975.37
2017.73
2056.96
2091.97
2121.85
2147.29
2165.87
2175.69
2094.75
1974.58
1848.31
1718.23
1586.22
1453.91
1322.75
1194.06
1069.12
949.223
835.37
728.73
631.241
544.986
471.805
412.971
368.723
337.917
318.139
306.373
299.815
296.35
294.606
293.754
293.348
293.158
293.07
293.031
293.014
293.006
293.002
293.001
293
293
293
293
293
293
293
293.004
293.017
293.038
293.074
293.134
293.233
293.396
293.662
294.09
294.769
295.832
297.466
299.929
303.559
308.777
316.067
325.94
338.869
355.222
375.205
398.83
425.941
456.254
489.426
525.108
562.986
602.796
644.33
687.43
731.974
777.869
825.03
873.374
922.803
973.203
1024.46
1076.61
1129.59
1183.28
1237.56
1292.32
1347.41
1402.7
1458.05
1513.28
1568.25
1622.76
1676.63
1729.67
1781.64
1832.32
1881.43
1928.68
1973.73
2016.14
2055.43
2090.56
2120.55
2146.12
2164.82
2174.84
2103.82
1984.12
1858.15
1728.2
1596.23
1463.86
1332.55
1203.62
1078.35
958.01
843.651
736.388
638.116
550.924
476.687
416.743
371.429
339.706
319.229
306.99
300.145
296.518
294.688
293.793
293.366
293.166
293.074
293.033
293.014
293.006
293.003
293.001
293
293
293
293
293
293
293
293.004
293.017
293.038
293.074
293.134
293.234
293.397
293.664
294.093
294.774
295.839
297.476
299.945
303.583
308.811
316.114
326.001
338.946
355.317
375.315
398.953
426.072
456.387
489.557
525.23
563.093
602.881
644.387
687.453
731.957
777.803
824.908
873.188
922.545
972.865
1024.04
1076.09
1128.97
1182.55
1236.72
1291.35
1346.32
1401.49
1456.71
1511.83
1566.68
1621.08
1674.86
1727.8
1779.7
1830.32
1879.4
1926.64
1971.7
2014.16
2053.52
2088.75
2118.85
2144.54
2163.38
2173.55
2114.66
1995.43
1869.76
1739.99
1608.06
1475.62
1344.12
1214.9
1089.24
968.4
853.452
745.465
646.279
557.992
482.516
421.266
374.688
341.87
320.552
307.742
300.547
296.722
294.788
293.841
293.388
293.176
293.079
293.035
293.015
293.006
293.003
293.001
293
293
293
293
293
293
293
293.004
293.017
293.038
293.074
293.135
293.234
293.399
293.666
294.096
294.779
295.847
297.489
299.964
303.612
308.853
316.172
326.079
339.046
355.44
375.46
399.118
426.251
456.576
489.747
525.416
563.266
603.034
644.513
687.543
732.006
777.803
824.847
873.056
922.334
972.565
1023.64
1075.59
1128.34
1181.8
1235.83
1290.33
1345.16
1400.18
1455.25
1510.22
1564.93
1619.2
1672.84
1725.68
1777.48
1828.02
1877.04
1924.25
1969.3
2011.79
2051.2
2086.56
2116.74
2142.51
2161.45
2171.72
2127.36
2008.56
1883.19
1753.61
1621.76
1489.27
1357.6
1228.08
1101.97
980.534
864.904
756.096
655.859
566.308
489.4
426.63
378.574
344.464
322.147
308.651
301.034
296.97
294.909
293.898
293.415
293.188
293.084
293.037
293.016
293.007
293.003
293.001
293.001
293
293
293
293
293
293
293.004
293.017
293.038
293.075
293.135
293.235
293.4
293.668
294.1
294.785
295.857
297.505
299.988
303.647
308.904
316.244
326.176
339.172
355.597
375.649
399.335
426.492
456.834
490.015
525.685
563.528
603.281
644.735
687.732
732.15
777.894
824.879
873.016
922.207
972.341
1023.3
1075.13
1127.76
1181.07
1234.95
1289.29
1343.95
1398.8
1453.7
1508.5
1563.03
1617.13
1670.63
1723.31
1774.99
1825.43
1874.37
1921.53
1966.55
2009.05
2048.5
2083.95
2114.24
2140.09
2159.07
2169.33
2141.61
2023.28
1898.3
1768.99
1637.28
1504.81
1373
1243.19
1116.62
994.559
878.158
768.405
666.981
575.996
497.451
432.938
383.174
347.553
324.056
309.744
301.62
297.269
295.055
293.967
293.447
293.203
293.091
293.04
293.017
293.007
293.003
293.001
293.001
293
293
293
293
293
293
293.004
293.017
293.038
293.075
293.135
293.236
293.401
293.671
294.104
294.792
295.868
297.523
300.016
303.689
308.966
316.331
326.295
339.329
355.795
375.889
399.615
426.808
457.178
490.379
526.061
563.906
603.651
645.087
688.055
732.433
778.123
825.043
873.106
922.213
972.244
1023.09
1074.79
1127.26
1180.42
1234.13
1288.28
1342.75
1397.41
1452.11
1506.7
1561.03
1614.94
1668.24
1720.76
1772.28
1822.59
1871.43
1918.53
1963.53
2006.05
2045.57
2081.17
2111.61
2137.56
2156.44
2166.16
2156.37
2038.87
1914.61
1785.85
1654.5
1522.18
1390.34
1260.29
1133.27
1010.55
893.321
782.534
679.783
587.193
506.809
440.313
388.583
351.211
326.329
311.051
302.324
297.628
295.23
294.05
293.485
293.22
293.098
293.043
293.019
293.008
293.003
293.001
293.001
293
293
293
293
293
293
293.004
293.017
293.039
293.075
293.136
293.237
293.403
293.673
294.108
294.8
295.881
297.543
300.048
303.738
309.038
316.435
326.439
339.52
356.04
376.189
399.971
427.214
457.629
490.865
526.571
564.431
604.179
645.607
688.554
732.899
778.542
825.399
873.382
922.396
972.326
1023.05
1074.61
1126.93
1179.9
1233.43
1287.38
1341.64
1396.07
1450.53
1504.89
1558.99
1612.66
1665.75
1718.06
1769.4
1819.56
1868.29
1915.32
1960.33
2002.93
2042.64
2078.78
2109.78
2136.57
2156.8
2168.62
2169.09
2053.81
1931.2
1803.64
1673.1
1541.26
1409.58
1279.41
1152
1028.62
910.508
798.618
694.432
600.058
517.604
448.868
394.904
355.516
329.022
312.606
303.162
298.056
295.438
294.149
293.531
293.241
293.107
293.047
293.021
293.009
293.004
293.002
293.001
293
293
293
293
293
293
293.004
293.017
293.039
293.075
293.136
293.238
293.405
293.676
294.113
294.808
295.895
297.565
300.083
303.793
309.121
316.556
326.609
339.749
356.336
376.558
400.414
427.728
458.206
491.497
527.247
565.138
604.905
646.339
689.279
733.601
779.207
826.009
873.918
922.837
972.651
1023.25
1074.67
1126.82
1179.61
1232.93
1286.66
1340.67
1394.85
1449.06
1503.15
1556.98
1610.39
1663.22
1715.29
1766.42
1816.39
1864.98
1911.93
1956.94
1999.65
2039.62
2076.32
2108.06
2136.01
2158.22
2173.3
2179.11
2067.43
1947.6
1822.07
1692.93
1561.96
1430.71
1300.58
1172.87
1048.85
929.802
816.724
710.992
614.676
529.948
458.724
402.244
360.558
332.2
314.451
304.16
298.565
295.686
294.266
293.585
293.265
293.118
293.052
293.023
293.01
293.004
293.002
293.001
293
293
293
293
293
293
293.004
293.017
293.039
293.076
293.137
293.239
293.406
293.679
294.118
294.816
295.908
297.588
300.12
303.852
309.212
316.691
326.802
340.015
356.687
377.003
400.955
428.365
458.933
492.305
528.123
566.069
605.878
647.337
690.287
734.602
780.183
826.94
874.785
923.617
973.318
1023.78
1075.03
1127.02
1179.62
1232.72
1286.2
1339.96
1393.86
1447.78
1501.57
1555.1
1608.21
1660.74
1712.53
1763.39
1813.13
1861.53
1908.34
1953.28
1996.01
2036.1
2073.02
2105.48
2133.3
2156.31
2172.14
2178.5
2078.23
1963.57
1841.25
1714.13
1584.39
1453.8
1323.86
1195.92
1071.28
951.272
836.947
729.572
631.169
543.965
469.996
410.705
366.413
335.91
316.611
305.328
299.159
295.974
294.401
293.647
293.293
293.13
293.057
293.025
293.011
293.004
293.002
293.001
293
293
293
293
293
293
293.004
293.017
293.039
293.076
293.137
293.239
293.407
293.681
294.122
294.823
295.921
297.611
300.159
303.915
309.311
316.842
327.023
340.324
357.101
377.534
401.612
429.148
459.837
493.32
529.237
567.268
607.144
648.655
691.637
735.965
781.538
828.264
876.054
924.805
974.399
1024.73
1075.82
1127.61
1180
1232.87
1286.1
1339.58
1393.18
1446.78
1500.25
1553.45
1606.22
1658.42
1709.89
1760.45
1809.9
1858.05
1904.65
1949.43
1992.06
2032.14
2069.16
2101.83
2129.75
2153.02
2169.3
2176.43
2100.37
1985.99
1864.49
1738.25
1609.22
1479.06
1349.23
1221.06
1095.83
974.835
859.231
750.16
649.558
559.704
482.755
420.373
373.171
340.234
319.147
306.705
299.86
296.313
294.56
293.719
293.325
293.145
293.063
293.027
293.012
293.005
293.002
293.001
293
293
293
293
293
293
293.004
293.017
293.039
293.076
293.137
293.239
293.407
293.681
294.123
294.826
295.928
297.625
300.186
303.965
309.398
316.984
327.243
340.648
357.554
378.137
402.378
430.082
460.936
494.574
530.631
568.783
608.761
650.353
693.393
737.756
783.338
830.047
877.791
926.467
975.955
1026.15
1077.08
1128.68
1180.84
1233.45
1286.42
1339.61
1392.9
1446.17
1499.3
1552.14
1604.55
1656.4
1707.51
1757.73
1806.87
1854.72
1901.05
1945.6
1988.05
2027.99
2064.95
2097.77
2125.86
2149.3
2165.86
2173.67
2123.3
2009.65
1888.97
1763.54
1635.2
1505.52
1375.9
1247.61
1121.89
1000.02
883.201
772.489
669.669
577.06
496.941
431.2
380.778
345.107
321.992
308.234
300.627
296.679
294.729
293.795
293.358
293.159
293.069
293.03
293.013
293.005
293.002
293.001
293
293
293
293
293
293
293.004
293.017
293.039
293.075
293.137
293.238
293.406
293.68
294.121
294.825
295.929
297.633
300.209
304.015
309.493
317.147
327.503
341.037
358.102
378.871
403.314
431.227
462.286
496.117
532.35
570.658
610.767
652.464
695.582
739.995
785.597
832.296
879.997
928.596
977.973
1028.03
1078.79
1130.19
1182.13
1234.48
1287.16
1340.04
1393.03
1445.97
1498.75
1551.24
1603.3
1654.79
1705.55
1755.42
1804.23
1851.77
1897.82
1942.11
1984.33
2024.09
2060.9
2093.69
2121.79
2145.34
2162.06
2170.06
2144.47
2031.78
1912.17
1787.75
1660.3
1531.32
1402.15
1274.01
1148.11
1025.64
907.849
795.726
690.894
595.649
512.377
443.185
389.349
350.69
325.295
310.022
301.525
297.105
294.923
293.881
293.396
293.175
293.076
293.033
293.014
293.006
293.002
293.001
293
293
293
293
293
293
293.004
293.017
293.038
293.075
293.136
293.237
293.403
293.674
294.113
294.814
295.915
297.616
300.193
304.007
309.51
317.215
327.66
341.327
358.574
379.568
404.269
432.455
463.786
497.875
534.339
572.844
613.114
654.933
698.136
742.595