/*--------------------------------*- C++ -*----------------------------------*\
  =========                 |
  \\      /  F ield         | OpenFOAM: The Open Source CFD Toolbox
   \\    /   O peration     | Website:  https://openfoam.org
    \\  /    A nd           | Version:  8
     \\/     M anipulation  |
\*---------------------------------------------------------------------------*/
FoamFile
{
    version     2.0;
    format      ascii;
    class       volVectorField;
    location    "540/fluid";
    object      U;
}
// * * * * * * * * * * * * * * * * * * * * * * * * * * * * * * * * * * * * * //

dimensions      [0 1 -1 0 0 0 0];

internalField   nonuniform List<vector> 
4000
(
(0.099947 -0.00700457 0)
(0.0996587 -0.0208438 0)
(0.0991933 -0.0345685 0)
(0.0985505 -0.0482163 0)
(0.0977227 -0.0618054 0)
(0.0966926 -0.0753379 0)
(0.0954403 -0.0888041 0)
(0.0939471 -0.102185 0)
(0.0921981 -0.115455 0)
(0.0901848 -0.128586 0)
(0.087909 -0.141551 0)
(0.0853856 -0.154333 0)
(0.0826474 -0.16692 0)
(0.0797499 -0.179303 0)
(0.0767698 -0.191514 0)
(0.0737818 -0.203623 0)
(0.0708389 -0.215689 0)
(0.0679622 -0.227753 0)
(0.0651325 -0.239827 0)
(0.0622904 -0.251885 0)
(0.0593471 -0.263864 0)
(0.0562027 -0.275678 0)
(0.0527664 -0.28722 0)
(0.0489758 -0.298369 0)
(0.0448017 -0.309024 0)
(0.0402342 -0.319123 0)
(0.0352762 -0.328608 0)
(0.0299421 -0.337426 0)
(0.0242552 -0.345533 0)
(0.0182441 -0.352899 0)
(0.0119404 -0.359503 0)
(0.00537641 -0.365337 0)
(-0.00141367 -0.370401 0)
(-0.00839513 -0.374703 0)
(-0.0155357 -0.378259 0)
(-0.0228068 -0.381091 0)
(-0.0301825 -0.383224 0)
(-0.0376383 -0.384689 0)
(-0.0451508 -0.38552 0)
(-0.0526978 -0.385754 0)
(-0.0602581 -0.38543 0)
(-0.0678117 -0.384588 0)
(-0.0753391 -0.383268 0)
(-0.0828217 -0.381514 0)
(-0.0902411 -0.379368 0)
(-0.097579 -0.376873 0)
(-0.104817 -0.374073 0)
(-0.111937 -0.37101 0)
(-0.118921 -0.367731 0)
(-0.125749 -0.364281 0)
(-0.1324 -0.360708 0)
(-0.138856 -0.35706 0)
(-0.145091 -0.35339 0)
(-0.151084 -0.349754 0)
(-0.156807 -0.346214 0)
(-0.162231 -0.342838 0)
(-0.167315 -0.339705 0)
(-0.172005 -0.336897 0)
(-0.176265 -0.334509 0)
(-0.180116 -0.33268 0)
(-0.183652 -0.331655 0)
(-0.18643 -0.33181 0)
(-0.186474 -0.333158 0)
(-0.182227 -0.334064 0)
(-0.175504 -0.333239 0)
(-0.168269 -0.330748 0)
(-0.160788 -0.326902 0)
(-0.152994 -0.321863 0)
(-0.144903 -0.315702 0)
(-0.136584 -0.308463 0)
(-0.128118 -0.300185 0)
(-0.11959 -0.290911 0)
(-0.111089 -0.280688 0)
(-0.102709 -0.269571 0)
(-0.0945939 -0.257624 0)
(-0.0869821 -0.244961 0)
(-0.080202 -0.23178 0)
(-0.0746271 -0.218361 0)
(-0.0706393 -0.205245 0)
(-0.0685452 -0.192959 0)
(-0.0683983 -0.181761 0)
(-0.0699148 -0.171568 0)
(-0.0725828 -0.162067 0)
(-0.0758581 -0.152913 0)
(-0.0793032 -0.143854 0)
(-0.082629 -0.134738 0)
(-0.0856593 -0.125468 0)
(-0.0883223 -0.11608 0)
(-0.0906144 -0.106626 0)
(-0.0925603 -0.0971403 0)
(-0.094194 -0.0876534 0)
(-0.0955514 -0.0781933 0)
(-0.0966672 -0.0687815 0)
(-0.0975736 -0.0594324 0)
(-0.0982995 -0.0501529 0)
(-0.0988709 -0.040943 0)
(-0.0993097 -0.0317954 0)
(-0.0996334 -0.0226962 0)
(-0.0998541 -0.0136243 0)
(-0.0999819 -0.00455164 0)
(0.0999998 -0.00657811 0)
(0.0997987 -0.0196753 0)
(0.0993832 -0.0326864 0)
(0.0987301 -0.0455942 0)
(0.0978408 -0.0583814 0)
(0.0967112 -0.0710259 0)
(0.0953323 -0.0835008 0)
(0.0936962 -0.0957761 0)
(0.0918009 -0.10782 0)
(0.0896534 -0.119605 0)
(0.0872726 -0.13111 0)
(0.084692 -0.142333 0)
(0.0819606 -0.1533 0)
(0.0791435 -0.164085 0)
(0.0763133 -0.174759 0)
(0.0735368 -0.185377 0)
(0.0708619 -0.196008 0)
(0.0683034 -0.206718 0)
(0.0658344 -0.217544 0)
(0.0633862 -0.228485 0)
(0.0608586 -0.239496 0)
(0.0581387 -0.250499 0)
(0.0551205 -0.261399 0)
(0.0517206 -0.272109 0)
(0.0478875 -0.28253 0)
(0.0436 -0.292529 0)
(0.0388579 -0.302006 0)
(0.0336778 -0.310885 0)
(0.0280879 -0.319111 0)
(0.0221233 -0.326646 0)
(0.0158224 -0.333468 0)
(0.00922395 -0.339564 0)
(0.002366 -0.344933 0)
(-0.00471418 -0.349582 0)
(-0.011981 -0.353526 0)
(-0.0194021 -0.356786 0)
(-0.0269477 -0.359387 0)
(-0.0345908 -0.361357 0)
(-0.0423064 -0.362728 0)
(-0.0500708 -0.363534 0)
(-0.0578617 -0.363811 0)
(-0.0656585 -0.363596 0)
(-0.0734414 -0.362927 0)
(-0.0811914 -0.361844 0)
(-0.0888901 -0.360386 0)
(-0.0965193 -0.358594 0)
(-0.104061 -0.356508 0)
(-0.111499 -0.35417 0)
(-0.118815 -0.351622 0)
(-0.125991 -0.348907 0)
(-0.133009 -0.346068 0)
(-0.139852 -0.343151 0)
(-0.146501 -0.340202 0)
(-0.152935 -0.337269 0)
(-0.159136 -0.334402 0)
(-0.165079 -0.331655 0)
(-0.17073 -0.32908 0)
(-0.176042 -0.326728 0)
(-0.180996 -0.324649 0)
(-0.185656 -0.322894 0)
(-0.190155 -0.321516 0)
(-0.193901 -0.320514 0)
(-0.194342 -0.319515 0)
(-0.189754 -0.317783 0)
(-0.182444 -0.315139 0)
(-0.174746 -0.311465 0)
(-0.166921 -0.306722 0)
(-0.158825 -0.300893 0)
(-0.150428 -0.29397 0)
(-0.141777 -0.285953 0)
(-0.132933 -0.276848 0)
(-0.123961 -0.266678 0)
(-0.114924 -0.255488 0)
(-0.105893 -0.243362 0)
(-0.0970141 -0.230456 0)
(-0.0885614 -0.21705 0)
(-0.0809296 -0.203595 0)
(-0.0745867 -0.190724 0)
(-0.0699993 -0.178893 0)
(-0.0674747 -0.16837 0)
(-0.0670014 -0.159166 0)
(-0.0682295 -0.151003 0)
(-0.0706256 -0.143465 0)
(-0.0736647 -0.136173 0)
(-0.0769408 -0.128886 0)
(-0.0801892 -0.121489 0)
(-0.0832641 -0.113972 0)
(-0.0860798 -0.106254 0)
(-0.0885991 -0.0983067 0)
(-0.0908161 -0.0901577 0)
(-0.0927389 -0.0818476 0)
(-0.0943838 -0.0734154 0)
(-0.0957715 -0.0648952 0)
(-0.0969242 -0.0563149 0)
(-0.0978645 -0.047696 0)
(-0.0986136 -0.0390539 0)
(-0.0991893 -0.0303974 0)
(-0.0996037 -0.0217303 0)
(-0.099865 -0.013051 0)
(-0.0999951 -0.00435567 0)
(0.0999793 -0.00630552 0)
(0.0997211 -0.018848 0)
(0.0992154 -0.031302 0)
(0.0984438 -0.0436478 0)
(0.0974101 -0.0558642 0)
(0.0961153 -0.0679283 0)
(0.0945589 -0.0798162 0)
(0.0927435 -0.0915038 0)
(0.0906791 -0.102969 0)
(0.0883851 -0.114193 0)
(0.0858928 -0.125166 0)
(0.0832471 -0.135889 0)
(0.0805057 -0.146375 0)
(0.0777334 -0.156658 0)
(0.0749954 -0.166788 0)
(0.0723528 -0.176835 0)
(0.0698517 -0.186876 0)
(0.0675065 -0.196981 0)
(0.0652904 -0.207192 0)
(0.0631336 -0.217515 0)
(0.0609343 -0.227914 0)
(0.0585763 -0.238322 0)
(0.0559474 -0.248644 0)
(0.0529522 -0.25878 0)
(0.0495197 -0.268631 0)
(0.0456095 -0.278107 0)
(0.0412108 -0.287129 0)
(0.0363346 -0.295631 0)
(0.0310063 -0.303558 0)
(0.0252599 -0.310873 0)
(0.0191333 -0.317546 0)
(0.0126662 -0.323561 0)
(0.00589769 -0.328912 0)
(-0.00113384 -0.3336 0)
(-0.00839159 -0.337634 0)
(-0.0158415 -0.341032 0)
(-0.0234526 -0.343812 0)
(-0.0311966 -0.346001 0)
(-0.0390474 -0.347625 0)
(-0.0469807 -0.348714 0)
(-0.0549739 -0.349302 0)
(-0.0630058 -0.349423 0)
(-0.0710564 -0.34911 0)
(-0.0791061 -0.348401 0)
(-0.0871368 -0.34733 0)
(-0.0951312 -0.345937 0)
(-0.103073 -0.344257 0)
(-0.110945 -0.342329 0)
(-0.118734 -0.340191 0)
(-0.126422 -0.337881 0)
(-0.133997 -0.335438 0)
(-0.141443 -0.3329 0)
(-0.148747 -0.330308 0)
(-0.155894 -0.327698 0)
(-0.162871 -0.325111 0)
(-0.169662 -0.322581 0)
(-0.176234 -0.320142 0)
(-0.182546 -0.31782 0)
(-0.188597 -0.315635 0)
(-0.19448 -0.313609 0)
(-0.200236 -0.311758 0)
(-0.204706 -0.310023 0)
(-0.204885 -0.307799 0)
(-0.199579 -0.304675 0)
(-0.191683 -0.300815 0)
(-0.183367 -0.296157 0)
(-0.174867 -0.290608 0)
(-0.166061 -0.284111 0)
(-0.156929 -0.276642 0)
(-0.147512 -0.268203 0)
(-0.137863 -0.258818 0)
(-0.128041 -0.248544 0)
(-0.118105 -0.237472 0)
(-0.108141 -0.225741 0)
(-0.0983375 -0.213558 0)
(-0.0890362 -0.201215 0)
(-0.0807026 -0.189084 0)
(-0.0738713 -0.177576 0)
(-0.0690185 -0.167063 0)
(-0.0663806 -0.157753 0)
(-0.0658422 -0.149592 0)
(-0.0669853 -0.142286 0)
(-0.0692635 -0.135453 0)
(-0.072171 -0.128766 0)
(-0.0753263 -0.122012 0)
(-0.078485 -0.115085 0)
(-0.0815143 -0.107951 0)
(-0.0843473 -0.10062 0)
(-0.0869464 -0.0931102 0)
(-0.0892929 -0.0854434 0)
(-0.0913818 -0.0776402 0)
(-0.0932164 -0.0697217 0)
(-0.0948049 -0.0617083 0)
(-0.0961585 -0.0536182 0)
(-0.0972896 -0.0454675 0)
(-0.0982112 -0.0372693 0)
(-0.0989344 -0.0290338 0)
(-0.099466 -0.0207682 0)
(-0.09981 -0.0124777 0)
(-0.0999871 -0.00416527 0)
(0.0999839 -0.00595916 0)
(0.0997206 -0.0178128 0)
(0.0991964 -0.0295737 0)
(0.0983922 -0.0412157 0)
(0.0973166 -0.0527129 0)
(0.0959761 -0.064039 0)
(0.094376 -0.0751682 0)
(0.0925247 -0.0860759 0)
(0.0904366 -0.0967404 0)
(0.088134 -0.107146 0)
(0.0856492 -0.117284 0)
(0.0830259 -0.127161 0)
(0.0803195 -0.136798 0)
(0.0775953 -0.146236 0)
(0.0749233 -0.155535 0)
(0.0723683 -0.164771 0)
(0.0699764 -0.174023 0)
(0.0677608 -0.183363 0)
(0.0656927 -0.192838 0)
(0.0636999 -0.202457 0)
(0.0616778 -0.212194 0)
(0.0595062 -0.221986 0)
(0.0570691 -0.231746 0)
(0.0542695 -0.24138 0)
(0.0510372 -0.25079 0)
(0.0473309 -0.259886 0)
(0.0431351 -0.268588 0)
(0.0384543 -0.276828 0)
(0.0333077 -0.284554 0)
(0.0277239 -0.291725 0)
(0.0217365 -0.298312 0)
(0.0153814 -0.304297 0)
(0.00869509 -0.309672 0)
(0.00171353 -0.314436 0)
(-0.00552789 -0.318594 0)
(-0.012996 -0.322161 0)
(-0.0206605 -0.325153 0)
(-0.0284937 -0.327592 0)
(-0.0364702 -0.329501 0)
(-0.0445662 -0.330908 0)
(-0.0527596 -0.331841 0)
(-0.0610292 -0.332329 0)
(-0.0693551 -0.332404 0)
(-0.0777188 -0.332097 0)
(-0.0861031 -0.331442 0)
(-0.0944917 -0.33047 0)
(-0.102869 -0.329215 0)
(-0.11122 -0.327709 0)
(-0.11953 -0.325985 0)
(-0.127786 -0.324076 0)
(-0.135975 -0.322013 0)
(-0.144083 -0.319828 0)
(-0.152098 -0.317549 0)
(-0.160007 -0.315205 0)
(-0.167796 -0.31282 0)
(-0.175446 -0.310416 0)
(-0.182918 -0.30801 0)
(-0.190161 -0.305606 0)
(-0.197182 -0.303206 0)
(-0.204087 -0.300814 0)
(-0.21077 -0.298435 0)
(-0.215365 -0.295997 0)
(-0.21471 -0.292762 0)
(-0.208536 -0.288571 0)
(-0.200134 -0.283723 0)
(-0.191255 -0.278201 0)
(-0.182054 -0.271916 0)
(-0.172459 -0.264812 0)
(-0.162486 -0.256868 0)
(-0.152199 -0.248093 0)
(-0.141669 -0.238522 0)
(-0.130973 -0.228223 0)
(-0.120194 -0.217301 0)
(-0.109461 -0.205905 0)
(-0.0990253 -0.194247 0)
(-0.089283 -0.182618 0)
(-0.0807261 -0.17137 0)
(-0.0738621 -0.160883 0)
(-0.0690905 -0.151468 0)
(-0.0665552 -0.143256 0)
(-0.0660693 -0.136132 0)
(-0.067188 -0.129783 0)
(-0.0693793 -0.123844 0)
(-0.0721695 -0.118019 0)
(-0.0752071 -0.112116 0)
(-0.0782642 -0.106036 0)
(-0.0812095 -0.0997395 0)
(-0.0839748 -0.0932187 0)
(-0.0865275 -0.0864834 0)
(-0.0888536 -0.0795527 0)
(-0.0909486 -0.0724488 0)
(-0.0928131 -0.0651942 0)
(-0.0944504 -0.0578106 0)
(-0.0958654 -0.0503177 0)
(-0.0970643 -0.0427334 0)
(-0.0980532 -0.0350737 0)
(-0.0988373 -0.0273522 0)
(-0.0994178 -0.0195809 0)
(-0.0997943 -0.0117704 0)
(-0.0999873 -0.00393003 0)
(0.0999809 -0.00561094 0)
(0.0997023 -0.0167707 0)
(0.0991522 -0.0278406 0)
(0.0983127 -0.0387943 0)
(0.0971947 -0.0496056 0)
(0.0958074 -0.0602491 0)
(0.0941593 -0.0707006 0)
(0.0922619 -0.0809376 0)
(0.090133 -0.0909413 0)
(0.0877984 -0.100698 0)
(0.0852936 -0.110203 0)
(0.0826653 -0.119462 0)
(0.0799715 -0.128494 0)
(0.0772794 -0.137338 0)
(0.0746596 -0.146048 0)
(0.0721768 -0.154692 0)
(0.0698762 -0.163345 0)
(0.0677701 -0.172074 0)
(0.0658289 -0.180925 0)
(0.0639797 -0.189912 0)
(0.0621165 -0.199013 0)
(0.0601168 -0.208176 0)
(0.0578611 -0.217325 0)
(0.0552481 -0.226375 0)
(0.0522032 -0.235237 0)
(0.0486807 -0.243829 0)
(0.0446607 -0.252077 0)
(0.040144 -0.259918 0)
(0.0351464 -0.267302 0)
(0.0296932 -0.274189 0)
(0.0238152 -0.28055 0)
(0.017546 -0.286367 0)
(0.0109197 -0.291628 0)
(0.00397017 -0.296332 0)
(-0.00326864 -0.300481 0)
(-0.010765 -0.304085 0)
(-0.0184903 -0.307159 0)
(-0.0264181 -0.30972 0)
(-0.0345241 -0.311788 0)
(-0.0427852 -0.313388 0)
(-0.0511796 -0.314542 0)
(-0.0596871 -0.315276 0)
(-0.0682891 -0.315618 0)
(-0.0769682 -0.315596 0)
(-0.0857078 -0.315236 0)
(-0.094492 -0.314568 0)
(-0.103306 -0.31362 0)
(-0.112134 -0.312418 0)
(-0.120963 -0.31099 0)
(-0.129779 -0.309362 0)
(-0.138568 -0.307559 0)
(-0.147317 -0.305604 0)
(-0.156009 -0.30352 0)
(-0.16463 -0.301324 0)
(-0.17316 -0.299033 0)
(-0.181572 -0.296657 0)
(-0.189811 -0.2942 0)
(-0.197814 -0.291658 0)
(-0.205602 -0.289022 0)
(-0.213294 -0.286293 0)
(-0.220594 -0.283467 0)
(-0.224893 -0.280481 0)
(-0.223115 -0.27652 0)
(-0.216081 -0.271672 0)
(-0.207254 -0.26624 0)
(-0.197881 -0.260214 0)
(-0.188033 -0.253521 0)
(-0.177698 -0.246123 0)
(-0.166943 -0.238018 0)
(-0.155859 -0.229229 0)
(-0.144541 -0.219806 0)
(-0.133089 -0.20983 0)
(-0.121608 -0.199413 0)
(-0.110264 -0.188707 0)
(-0.099354 -0.177922 0)
(-0.0893054 -0.167324 0)
(-0.080614 -0.157222 0)
(-0.0737603 -0.147918 0)
(-0.0690849 -0.139633 0)
(-0.066656 -0.132414 0)
(-0.0662259 -0.1261 0)
(-0.0673275 -0.120395 0)
(-0.0694418 -0.114987 0)
(-0.0721241 -0.109634 0)
(-0.0750515 -0.104187 0)
(-0.0780159 -0.0985681 0)
(-0.0808955 -0.0927477 0)
(-0.083623 -0.0867217 0)
(-0.0861626 -0.080499 0)
(-0.0884959 -0.0740942 0)
(-0.0906141 -0.0675242 0)
(-0.0925138 -0.0608067 0)
(-0.0941945 -0.0539591 0)
(-0.0956575 -0.0469983 0)
(-0.0969054 -0.0399401 0)
(-0.0979411 -0.0327996 0)
(-0.0987667 -0.0255905 0)
(-0.0993806 -0.0183258 0)
(-0.0997804 -0.011018 0)
(-0.0999861 -0.00367905 0)
(0.0999815 -0.00524738 0)
(0.0996998 -0.0156846 0)
(0.0991423 -0.0260359 0)
(0.0982916 -0.0362744 0)
(0.0971602 -0.0463736 0)
(0.0957592 -0.0563085 0)
(0.094099 -0.0660553 0)
(0.0921931 -0.0755927 0)
(0.0900609 -0.0849032 0)
(0.0877297 -0.0939745 0)
(0.0852357 -0.102803 0)
(0.0826261 -0.111394 0)
(0.0799587 -0.11977 0)
(0.0773005 -0.127968 0)
(0.0747218 -0.136041 0)
(0.0722869 -0.144056 0)
(0.0700412 -0.152086 0)
(0.0679979 -0.160197 0)
(0.0661282 -0.168434 0)
(0.0643604 -0.176812 0)
(0.0625891 -0.185314 0)
(0.0606916 -0.19389 0)
(0.0585474 -0.202471 0)
(0.0560528 -0.210979 0)
(0.0531305 -0.21933 0)
(0.0497314 -0.227447 0)
(0.0458319 -0.235262 0)
(0.0414291 -0.242715 0)
(0.0365353 -0.249758 0)
(0.0311725 -0.256353 0)
(0.0253687 -0.262471 0)
(0.0191546 -0.268095 0)
(0.0125622 -0.273211 0)
(0.00562315 -0.277817 0)
(-0.00163086 -0.281914 0)
(-0.00916991 -0.285509 0)
(-0.0169666 -0.288614 0)
(-0.0249957 -0.291244 0)
(-0.0332337 -0.293415 0)
(-0.0416585 -0.295147 0)
(-0.0502496 -0.296461 0)
(-0.0589882 -0.297379 0)
(-0.0678562 -0.297925 0)
(-0.0768367 -0.298121 0)
(-0.0859132 -0.297991 0)
(-0.0950699 -0.29756 0)
(-0.104292 -0.296849 0)
(-0.113563 -0.295883 0)
(-0.122869 -0.294682 0)
(-0.132195 -0.293267 0)
(-0.141524 -0.291659 0)
(-0.15084 -0.289874 0)
(-0.160122 -0.287927 0)
(-0.169349 -0.285832 0)
(-0.178495 -0.283597 0)
(-0.187519 -0.281226 0)
(-0.196352 -0.278718 0)
(-0.20492 -0.276061 0)
(-0.213254 -0.273241 0)
(-0.221476 -0.270252 0)
(-0.229095 -0.267072 0)
(-0.232826 -0.263666 0)
(-0.229894 -0.259293 0)
(-0.222154 -0.254146 0)
(-0.212957 -0.248419 0)
(-0.203112 -0.242123 0)
(-0.192659 -0.235228 0)
(-0.181654 -0.227725 0)
(-0.170207 -0.219631 0)
(-0.158437 -0.21098 0)
(-0.146461 -0.201831 0)
(-0.134397 -0.192267 0)
(-0.122372 -0.182397 0)
(-0.110588 -0.172366 0)
(-0.0993789 -0.162366 0)
(-0.0891922 -0.152638 0)
(-0.0805205 -0.143451 0)
(-0.0738119 -0.135063 0)
(-0.0693453 -0.127645 0)
(-0.0671154 -0.121207 0)
(-0.0668181 -0.115578 0)
(-0.0679668 -0.110479 0)
(-0.0700533 -0.105626 0)
(-0.0726583 -0.100806 0)
(-0.075484 -0.0958859 0)
(-0.0783416 -0.0907979 0)
(-0.0811213 -0.0855145 0)
(-0.0837626 -0.0800311 0)
(-0.0862328 -0.0743547 0)
(-0.0885141 -0.0684979 0)
(-0.0905968 -0.0624758 0)
(-0.0924754 -0.0563045 0)
(-0.094147 -0.0500001 0)
(-0.09561 -0.0435785 0)
(-0.0968642 -0.0370552 0)
(-0.0979099 -0.0304451 0)
(-0.0987465 -0.0237626 0)
(-0.0993702 -0.0170214 0)
(-0.0997769 -0.0102353 0)
(-0.099986 -0.00341782 0)
(0.099981 -0.00488205 0)
(0.0996963 -0.0145928 0)
(0.0991336 -0.0242234 0)
(0.098276 -0.0337476 0)
(0.0971365 -0.0431405 0)
(0.0957274 -0.0523782 0)
(0.0940599 -0.0614385 0)
(0.0921488 -0.0703018 0)
(0.0900146 -0.0789519 0)
(0.0876854 -0.0873781 0)
(0.0851987 -0.0955772 0)
(0.082602 -0.103556 0)
(0.079954 -0.111334 0)
(0.0773217 -0.118946 0)
(0.0747756 -0.126442 0)
(0.0723802 -0.133885 0)
(0.0701808 -0.141341 0)
(0.0681908 -0.148872 0)
(0.0663816 -0.156522 0)
(0.0646817 -0.164307 0)
(0.0629855 -0.172213 0)
(0.0611698 -0.180196 0)
(0.0591127 -0.188195 0)
(0.0567089 -0.196138 0)
(0.0538784 -0.203949 0)
(0.0505697 -0.211558 0)
(0.0467564 -0.2189 0)
(0.042433 -0.225921 0)
(0.037609 -0.232575 0)
(0.032304 -0.238825 0)
(0.0265437 -0.244645 0)
(0.0203568 -0.250016 0)
(0.0137732 -0.254927 0)
(0.0068228 -0.259371 0)
(-0.000464663 -0.263349 0)
(-0.00806061 -0.266867 0)
(-0.0159386 -0.269934 0)
(-0.0240744 -0.27256 0)
(-0.0324457 -0.274762 0)
(-0.0410319 -0.276554 0)
(-0.0498133 -0.277955 0)
(-0.0587715 -0.278983 0)
(-0.0678889 -0.279658 0)
(-0.0771485 -0.28 0)
(-0.0865338 -0.280028 0)
(-0.0960288 -0.279762 0)
(-0.105617 -0.27922 0)
(-0.115283 -0.278422 0)
(-0.12501 -0.277384 0)
(-0.13478 -0.276124 0)
(-0.144574 -0.274656 0)
(-0.154371 -0.272994 0)
(-0.164146 -0.271149 0)
(-0.17387 -0.26913 0)
(-0.183511 -0.266942 0)
(-0.193015 -0.264587 0)
(-0.202294 -0.26206 0)
(-0.211262 -0.259349 0)
(-0.219949 -0.256442 0)
(-0.228459 -0.253317 0)
(-0.236157 -0.249926 0)
(-0.239397 -0.246237 0)
(-0.235558 -0.241686 0)
(-0.227077 -0.236458 0)
(-0.217325 -0.230642 0)
(-0.206961 -0.224275 0)
(-0.195974 -0.217371 0)
(-0.184422 -0.209949 0)
(-0.172431 -0.202038 0)
(-0.160132 -0.193683 0)
(-0.14766 -0.184945 0)
(-0.135144 -0.175906 0)
(-0.122731 -0.166671 0)
(-0.110653 -0.157374 0)
(-0.0992722 -0.148194 0)
(-0.0890473 -0.139347 0)
(-0.0804602 -0.131066 0)
(-0.0739246 -0.123563 0)
(-0.069663 -0.116962 0)
(-0.0676092 -0.111232 0)
(-0.067419 -0.106193 0)
(-0.0685976 -0.101585 0)
(-0.0706528 -0.0971645 0)
(-0.0731889 -0.0927508 0)
(-0.0759294 -0.0882356 0)
(-0.0787 -0.0835638 0)
(-0.0813993 -0.0787132 0)
(-0.0839706 -0.0736802 0)
(-0.0863826 -0.0684704 0)
(-0.0886172 -0.0630943 0)
(-0.0906639 -0.0575645 0)
(-0.0925159 -0.0518944 0)
(-0.0941689 -0.0460981 0)
(-0.09562 -0.0401895 0)
(-0.0968673 -0.0341827 0)
(-0.0979097 -0.0280916 0)
(-0.0987453 -0.0219296 0)
(-0.0993692 -0.0157104 0)
(-0.0997764 -0.00944757 0)
(-0.099986 -0.00315475 0)
(0.0999811 -0.00451439 0)
(0.0996963 -0.0134944 0)
(0.0991332 -0.0224002 0)
(0.098275 -0.0312069 0)
(0.0971353 -0.039891 0)
(0.0957268 -0.04843 0)
(0.0940614 -0.0568032 0)
(0.0921544 -0.0649922 0)
(0.0900269 -0.0729823 0)
(0.0877075 -0.0807636 0)
(0.0852336 -0.0883336 0)
(0.0826533 -0.0956989 0)
(0.0800247 -0.102878 0)
(0.077415 -0.109904 0)
(0.0748945 -0.116824 0)
(0.0725274 -0.123695 0)
(0.0703594 -0.130582 0)
(0.0684044 -0.137541 0)
(0.0666344 -0.144615 0)
(0.0649788 -0.15182 0)
(0.0633322 -0.159143 0)
(0.0615712 -0.166547 0)
(0.0595731 -0.173974 0)
(0.057231 -0.18136 0)
(0.0544631 -0.188634 0)
(0.0512156 -0.195732 0)
(0.0474599 -0.202594 0)
(0.043188 -0.209169 0)
(0.0384074 -0.215415 0)
(0.0331356 -0.221297 0)
(0.0273962 -0.226791 0)
(0.0212161 -0.231877 0)
(0.0146236 -0.236544 0)
(0.0076469 -0.240787 0)
(0.000314665 -0.244603 0)
(-0.00734562 -0.247997 0)
(-0.0153086 -0.250976 0)
(-0.0235514 -0.253548 0)
(-0.0320528 -0.255727 0)
(-0.0407926 -0.257526 0)
(-0.0497516 -0.25896 0)
(-0.0589116 -0.260044 0)
(-0.0682551 -0.260794 0)
(-0.0777649 -0.261227 0)
(-0.0874244 -0.261359 0)
(-0.0972165 -0.261206 0)
(-0.107124 -0.260784 0)
(-0.11713 -0.260107 0)
(-0.127215 -0.25919 0)
(-0.13736 -0.258045 0)
(-0.147541 -0.256684 0)
(-0.157735 -0.255117 0)
(-0.167912 -0.253353 0)
(-0.178039 -0.251398 0)
(-0.188072 -0.249255 0)
(-0.197947 -0.246926 0)
(-0.207563 -0.244403 0)
(-0.216831 -0.241679 0)
(-0.225761 -0.238749 0)
(-0.23438 -0.235595 0)
(-0.241895 -0.232165 0)
(-0.244574 -0.228359 0)
(-0.239965 -0.223728 0)
(-0.230852 -0.218499 0)
(-0.220579 -0.212742 0)
(-0.209742 -0.206488 0)
(-0.198299 -0.19976 0)
(-0.186301 -0.192588 0)
(-0.173878 -0.185008 0)
(-0.161171 -0.177069 0)
(-0.148323 -0.168833 0)
(-0.135474 -0.160378 0)
(-0.122787 -0.151803 0)
(-0.11052 -0.143232 0)
(-0.0990578 -0.134828 0)
(-0.0888655 -0.126784 0)
(-0.0804131 -0.119305 0)
(-0.0740817 -0.112568 0)
(-0.0700427 -0.106663 0)
(-0.0681769 -0.101539 0)
(-0.0681063 -0.0970171 0)
(-0.06933 -0.0928604 0)
(-0.0713694 -0.0888521 0)
(-0.0738497 -0.0848373 0)
(-0.0765132 -0.0807234 0)
(-0.0791995 -0.0764636 0)
(-0.0818158 -0.0720392 0)
(-0.0843105 -0.0674469 0)
(-0.0866541 -0.0626917 0)
(-0.0888297 -0.0577826 0)
(-0.0908265 -0.0527304 0)
(-0.0926375 -0.0475473 0)
(-0.0942573 -0.0422457 0)
(-0.0956822 -0.0368382 0)
(-0.0969092 -0.0313378 0)
(-0.0979362 -0.0257573 0)
(-0.0987607 -0.0201096 0)
(-0.0993768 -0.0144076 0)
(-0.0997791 -0.00866434 0)
(-0.0999862 -0.00289317 0)
(0.0999811 -0.00414735 0)
(0.0996967 -0.0123977 0)
(0.0991344 -0.02058 0)
(0.0982776 -0.0286714 0)
(0.0971399 -0.03665 0)
(0.0957345 -0.0444949 0)
(0.0940735 -0.0521872 0)
(0.0921723 -0.0597099 0)
(0.0900524 -0.0670497 0)
(0.0877426 -0.0741977 0)
(0.0852805 -0.0811515 0)
(0.0827141 -0.0879176 0)
(0.0801017 -0.0945133 0)
(0.0775103 -0.100969 0)
(0.07501 -0.107327 0)
(0.0726652 -0.113642 0)
(0.0705218 -0.119972 0)
(0.068594 -0.126371 0)
(0.0668542 -0.132877 0)
(0.0652321 -0.139507 0)
(0.0636225 -0.146251 0)
(0.0619016 -0.153073 0)
(0.0599459 -0.159925 0)
(0.0576472 -0.166745 0)
(0.0549223 -0.173471 0)
(0.0517156 -0.180043 0)
(0.0479967 -0.186406 0)
(0.0437559 -0.192514 0)
(0.0389988 -0.198327 0)
(0.0337414 -0.203813 0)
(0.0280057 -0.208949 0)
(0.0218173 -0.213717 0)
(0.015203 -0.218104 0)
(0.00819022 -0.222105 0)
(0.000806405 -0.225718 0)
(-0.00692205 -0.228945 0)
(-0.0149708 -0.231792 0)
(-0.0233178 -0.234266 0)
(-0.0319422 -0.236376 0)
(-0.0408242 -0.238136 0)
(-0.0499448 -0.239555 0)
(-0.0592858 -0.240649 0)
(-0.0688296 -0.241429 0)
(-0.0785586 -0.241909 0)
(-0.0884553 -0.242103 0)
(-0.098502 -0.242024 0)
(-0.10868 -0.241684 0)
(-0.118971 -0.241096 0)
(-0.129352 -0.24027 0)
(-0.139803 -0.239216 0)
(-0.150296 -0.237944 0)
(-0.160805 -0.236461 0)
(-0.171295 -0.234774 0)
(-0.181728 -0.232885 0)
(-0.192055 -0.230799 0)
(-0.202201 -0.228515 0)
(-0.212059 -0.226029 0)
(-0.221543 -0.223337 0)
(-0.230662 -0.220442 0)
(-0.239396 -0.217354 0)
(-0.246657 -0.214059 0)
(-0.248669 -0.210273 0)
(-0.243288 -0.205653 0)
(-0.23367 -0.200509 0)
(-0.222983 -0.194921 0)
(-0.211754 -0.188905 0)
(-0.199931 -0.18248 0)
(-0.187569 -0.175676 0)
(-0.174802 -0.168531 0)
(-0.161779 -0.161096 0)
(-0.148646 -0.153429 0)
(-0.135552 -0.145606 0)
(-0.122674 -0.137717 0)
(-0.110292 -0.129878 0)
(-0.0988081 -0.122236 0)
(-0.0886885 -0.114964 0)
(-0.0803905 -0.108242 0)
(-0.0742634 -0.102218 0)
(-0.0704334 -0.0969503 0)
(-0.0687369 -0.0923752 0)
(-0.0687705 -0.0883185 0)
(-0.0700318 -0.0845651 0)
(-0.0720566 -0.0809264 0)
(-0.0744885 -0.0772706 0)
(-0.0770859 -0.0735204 0)
(-0.0796995 -0.0696368 0)
(-0.0822436 -0.0656046 0)
(-0.0846699 -0.0614213 0)
(-0.0869511 -0.0570912 0)
(-0.0890708 -0.052622 0)
(-0.0910185 -0.0480233 0)
(-0.0927869 -0.0433053 0)
(-0.0943706 -0.0384791 0)
(-0.0957651 -0.0335559 0)
(-0.0969672 -0.0285473 0)
(-0.0979743 -0.0234649 0)
(-0.0987832 -0.0183204 0)
(-0.099388 -0.0131259 0)
(-0.0997831 -0.00789356 0)
(-0.0999864 -0.00263572 0)
(0.0999812 -0.00378121 0)
(0.0996977 -0.0113035 0)
(0.0991373 -0.0187642 0)
(0.0982833 -0.0261422 0)
(0.0971495 -0.0334173 0)
(0.095749 -0.0405707 0)
(0.094094 -0.0475848 0)
(0.0922003 -0.0544444 0)
(0.0900891 -0.0611372 0)
(0.0877895 -0.0676552 0)
(0.0853389 -0.0739965 0)
(0.0827853 -0.0801669 0)
(0.0801868 -0.0861824 0)
(0.0776102 -0.0920706 0)
(0.0751257 -0.0978712 0)
(0.0727975 -0.103633 0)
(0.0706719 -0.109411 0)
(0.0687631 -0.115253 0)
(0.0670443 -0.121195 0)
(0.0654453 -0.127254 0)
(0.0638611 -0.13342 0)
(0.0621676 -0.139663 0)
(0.0602406 -0.145938 0)
(0.0579709 -0.15219 0)
(0.055274 -0.158361 0)
(0.0520928 -0.164398 0)
(0.0483955 -0.170251 0)
(0.044171 -0.175877 0)
(0.0394235 -0.181239 0)
(0.0341676 -0.186309 0)
(0.0284243 -0.191063 0)
(0.022218 -0.195485 0)
(0.0155747 -0.199565 0)
(0.0085207 -0.203294 0)
(0.00108257 -0.206672 0)
(-0.00671413 -0.209698 0)
(-0.0148457 -0.212378 0)
(-0.0232903 -0.214718 0)
(-0.0320276 -0.216725 0)
(-0.0410378 -0.218408 0)
(-0.0503022 -0.219779 0)
(-0.0598024 -0.220846 0)
(-0.0695202 -0.221622 0)
(-0.0794377 -0.222117 0)
(-0.0895366 -0.222344 0)
(-0.0997979 -0.222311 0)
(-0.110202 -0.22203 0)
(-0.120727 -0.22151 0)
(-0.131351 -0.220761 0)
(-0.142049 -0.21979 0)
(-0.152792 -0.218604 0)
(-0.163548 -0.21721 0)
(-0.174282 -0.215613 0)
(-0.18495 -0.213815 0)
(-0.195498 -0.21182 0)
(-0.205846 -0.209628 0)
(-0.215884 -0.207237 0)
(-0.225544 -0.204646 0)
(-0.234867 -0.201866 0)
(-0.243777 -0.19892 0)
(-0.250661 -0.195815 0)
(-0.251737 -0.192077 0)
(-0.245538 -0.187563 0)
(-0.235589 -0.182599 0)
(-0.224648 -0.177269 0)
(-0.213138 -0.171578 0)
(-0.201024 -0.165539 0)
(-0.188381 -0.15918 0)
(-0.17535 -0.152538 0)
(-0.162085 -0.14566 0)
(-0.148739 -0.138602 0)
(-0.135466 -0.131433 0)
(-0.122456 -0.124236 0)
(-0.11001 -0.117117 0)
(-0.0985407 -0.110209 0)
(-0.088516 -0.103667 0)
(-0.0803795 -0.0976478 0)
(-0.0744518 -0.0922734 0)
(-0.0708186 -0.0875839 0)
(-0.069279 -0.0835061 0)
(-0.0694093 -0.0798758 0)
(-0.0707073 -0.0764997 0)
(-0.0727218 -0.0732134 0)
(-0.0751127 -0.0699043 0)
(-0.0776521 -0.0665069 0)
(-0.0802006 -0.0629887 0)
(-0.0826785 -0.0593371 0)
(-0.085041 -0.0555503 0)
(-0.0872626 -0.051632 0)
(-0.0893277 -0.047589 0)
(-0.0912264 -0.0434295 0)
(-0.0929514 -0.0391627 0)
(-0.0944972 -0.0347983 0)
(-0.0958591 -0.0303462 0)
(-0.0970338 -0.0258168 0)
(-0.0980184 -0.0212206 0)
(-0.0988096 -0.0165681 0)
(-0.0994013 -0.0118703 0)
(-0.0997878 -0.00713836 0)
(-0.0999867 -0.00238348 0)
(0.0999813 -0.00341649 0)
(0.0996988 -0.0102135 0)
(0.0991405 -0.0169552 0)
(0.0982896 -0.0236224 0)
(0.0971599 -0.0301971 0)
(0.0957645 -0.0366619 0)
(0.0941157 -0.0430013 0)
(0.0922291 -0.0492013 0)
(0.0901262 -0.055251 0)
(0.0878357 -0.0611432 0)
(0.0853951 -0.0668762 0)
(0.0828522 -0.0724553 0)
(0.080265 -0.0778951 0)
(0.0777003 -0.0832206 0)
(0.0752279 -0.0884675 0)
(0.0729124 -0.0936807 0)
(0.0707999 -0.0989086 0)
(0.0689052 -0.104197 0)
(0.0672015 -0.109577 0)
(0.0656191 -0.115065 0)
(0.0640527 -0.120654 0)
(0.0623782 -0.126315 0)
(0.0604705 -0.132009 0)
(0.0582196 -0.137686 0)
(0.0555401 -0.143295 0)
(0.0523736 -0.148787 0)
(0.0486872 -0.154117 0)
(0.0444686 -0.159246 0)
(0.0397211 -0.16414 0)
(0.0344582 -0.168774 0)
(0.0287001 -0.173125 0)
(0.0224704 -0.17718 0)
(0.0157941 -0.180926 0)
(0.00869691 -0.184359 0)
(0.00120469 -0.187474 0)
(-0.00665742 -0.190273 0)
(-0.0148661 -0.192758 0)
(-0.0233999 -0.194934 0)
(-0.0322385 -0.196808 0)
(-0.0413624 -0.198388 0)
(-0.0507525 -0.19968 0)
(-0.0603904 -0.200695 0)
(-0.0702574 -0.201441 0)
(-0.0803349 -0.201928 0)
(-0.0906038 -0.202165 0)
(-0.101044 -0.20216 0)
(-0.111635 -0.201922 0)
(-0.122353 -0.201459 0)
(-0.133174 -0.200778 0)
(-0.144071 -0.199886 0)
(-0.155013 -0.198789 0)
(-0.165967 -0.197492 0)
(-0.176892 -0.195999 0)
(-0.187744 -0.194313 0)
(-0.198464 -0.192437 0)
(-0.208969 -0.190372 0)
(-0.219147 -0.188116 0)
(-0.228944 -0.18567 0)
(-0.238426 -0.183044 0)
(-0.247433 -0.180255 0)
(-0.253822 -0.177328 0)
(-0.253939 -0.173727 0)
(-0.24706 -0.169443 0)
(-0.236893 -0.164774 0)
(-0.225787 -0.159793 0)
(-0.214072 -0.154503 0)
(-0.201737 -0.148917 0)
(-0.188877 -0.14306 0)
(-0.175643 -0.136969 0)
(-0.162194 -0.130686 0)
(-0.148689 -0.124264 0)
(-0.135286 -0.117764 0)
(-0.122187 -0.111263 0)
(-0.10971 -0.104855 0)
(-0.098278 -0.0986616 0)
(-0.0883572 -0.0928192 0)
(-0.0803786 -0.0874643 0)
(-0.0746363 -0.0826985 0)
(-0.0711809 -0.0785456 0)
(-0.0697799 -0.0749289 0)
(-0.0699944 -0.0716959 0)
(-0.0713241 -0.0686751 0)
(-0.0733298 -0.065724 0)
(-0.0756854 -0.062747 0)
(-0.0781749 -0.059689 0)
(-0.0806669 -0.0565231 0)
(-0.0830869 -0.0532388 0)
(-0.0853929 -0.0498348 0)
(-0.087561 -0.0463146 0)
(-0.0895765 -0.0426841 0)
(-0.0914298 -0.0389504 0)
(-0.0931139 -0.0351214 0)
(-0.0946233 -0.0312058 0)
(-0.0959536 -0.0272122 0)
(-0.0971012 -0.0231497 0)
(-0.0980633 -0.0190277 0)
(-0.0988365 -0.0148556 0)
(-0.0994149 -0.0106431 0)
(-0.0997926 -0.00640014 0)
(-0.0999871 -0.00213692 0)
(0.0999813 -0.00305315 0)
(0.0997 -0.0091276 0)
(0.0991437 -0.0151528 0)
(0.0982958 -0.0211118 0)
(0.0971702 -0.0269884 0)
(0.0957797 -0.0327672 0)
(0.0941367 -0.0384342 0)
(0.0922567 -0.043977 0)
(0.0901611 -0.0493859 0)
(0.0878786 -0.0546546 0)
(0.0854465 -0.0597813 0)
(0.0829125 -0.0647711 0)
(0.0803345 -0.0696369 0)
(0.0777789 -0.0744012 0)
(0.0753159 -0.0790959 0)
(0.0730097 -0.0837613 0)
(0.0709067 -0.0884409 0)
(0.0690218 -0.0931753 0)
(0.0673287 -0.0979945 0)
(0.0657575 -0.102912 0)
(0.0642032 -0.10792 0)
(0.0625412 -0.112997 0)
(0.0606458 -0.118106 0)
(0.0584065 -0.123203 0)
(0.0557368 -0.128243 0)
(0.0525774 -0.133181 0)
(0.0488946 -0.137977 0)
(0.0446752 -0.142597 0)
(0.0399216 -0.147009 0)
(0.0346467 -0.151191 0)
(0.0288699 -0.155124 0)
(0.022614 -0.158792 0)
(0.0159037 -0.162186 0)
(0.008764 -0.165301 0)
(0.00122049 -0.168132 0)
(-0.00670208 -0.170681 0)
(-0.0149807 -0.172949 0)
(-0.0235939 -0.174939 0)
(-0.0325218 -0.176658 0)
(-0.0417445 -0.178111 0)
(-0.0512429 -0.179305 0)
(-0.0609982 -0.180247 0)
(-0.0709913 -0.180945 0)
(-0.0812029 -0.181406 0)
(-0.0916132 -0.181638 0)
(-0.102201 -0.181648 0)
(-0.112944 -0.181443 0)
(-0.123819 -0.181029 0)
(-0.134799 -0.180414 0)
(-0.145855 -0.179601 0)
(-0.156955 -0.178597 0)
(-0.168063 -0.177404 0)
(-0.179137 -0.176028 0)
(-0.19013 -0.17447 0)
(-0.200982 -0.172733 0)
(-0.211602 -0.170817 0)
(-0.22188 -0.168722 0)
(-0.231776 -0.166448 0)
(-0.241371 -0.164005 0)
(-0.250424 -0.161403 0)
(-0.256308 -0.158697 0)
(-0.255557 -0.155325 0)
(-0.24811 -0.151365 0)
(-0.23778 -0.147069 0)
(-0.226553 -0.142502 0)
(-0.214681 -0.137669 0)
(-0.202176 -0.132582 0)
(-0.189151 -0.127269 0)
(-0.175763 -0.121761 0)
(-0.162176 -0.116099 0)
(-0.148553 -0.110328 0)
(-0.135055 -0.104505 0)
(-0.121897 -0.0986962 0)
(-0.109411 -0.0929889 0)
(-0.0980279 -0.0874896 0)
(-0.0882121 -0.0823191 0)
(-0.0803821 -0.0775953 0)
(-0.0748085 -0.0734019 0)
(-0.0715114 -0.0697509 0)
(-0.0702324 -0.0665664 0)
(-0.0705204 -0.0637095 0)
(-0.071878 -0.0610295 0)
(-0.0738765 -0.0584039 0)
(-0.0762022 -0.0557515 0)
(-0.0786487 -0.0530262 0)
(-0.0810919 -0.0502055 0)
(-0.0834612 -0.0472809 0)
(-0.0857174 -0.0442516 0)
(-0.0878378 -0.0411205 0)
(-0.0898085 -0.0378928 0)
(-0.0916205 -0.0345748 0)
(-0.0932671 -0.0311733 0)
(-0.0947429 -0.0276958 0)
(-0.0960436 -0.0241498 0)