/*--------------------------------*- C++ -*----------------------------------*\
  =========                 |
  \\      /  F ield         | OpenFOAM: The Open Source CFD Toolbox
   \\    /   O peration     | Website:  https://openfoam.org
    \\  /    A nd           | Version:  8
     \\/     M anipulation  |
\*---------------------------------------------------------------------------*/
FoamFile
{
    version     2.0;
    format      ascii;
    class       volScalarField;
    location    "260/fluid";
    object      CH4;
}
// * * * * * * * * * * * * * * * * * * * * * * * * * * * * * * * * * * * * * //

dimensions      [0 0 0 0 0 0 0];

internalField   nonuniform List<scalar> 
4000
(
0.999997
0.999988
0.999973
0.999947
0.999904
0.999833
0.999717
0.999527
0.999222
0.998736
0.997972
0.99679
0.994995
0.992325
0.98845
0.982975
0.975474
0.965531
0.952795
0.937034
0.918166
0.896262
0.871523
0.844247
0.814797
0.783562
0.750939
0.717314
0.683053
0.648489
0.613927
0.579631
0.545833
0.512727
0.480473
0.4492
0.419007
0.38997
0.362142
0.335555
0.310225
0.286151
0.263323
0.241721
0.221315
0.202072
0.183953
0.166915
0.150916
0.135909
0.121849
0.108692
0.096392
0.0849072
0.0741964
0.0642212
0.0549462
0.0463391
0.0383717
0.031082
0.0244767
0.0183097
0.0127262
0.00772877
0.00338577
0.00237274
0.00164093
0.00111764
0.000748044
0.000490857
0.000315023
0.000197307
0.000120494
7.20094e-05
4.28835e-05
2.70577e-05
1.98395e-05
1.50554e-05
1.09509e-05
7.5062e-06
4.79694e-06
2.8386e-06
1.55542e-06
7.94901e-07
3.84289e-07
1.79294e-07
8.1407e-08
3.61849e-08
1.58143e-08
6.818e-09
2.90708e-09
1.22832e-09
5.15068e-10
2.14522e-10
8.87081e-11
3.63104e-11
1.45741e-11
5.58198e-12
1.86658e-12
3.27319e-13
0.999997
0.999988
0.999972
0.999946
0.999902
0.999829
0.99971
0.999515
0.999201
0.998702
0.997918
0.996708
0.994875
0.992157
0.988226
0.982693
0.97514
0.965158
0.952404
0.936648
0.917807
0.895944
0.871251
0.844019
0.814599
0.783377
0.750748
0.717098
0.682794
0.648175
0.613547
0.579181
0.54531
0.512132
0.479809
0.44847
0.418219
0.389131
0.36126
0.334637
0.309279
0.285184
0.262342
0.240732
0.220324
0.201083
0.182971
0.165944
0.149959
0.134969
0.120928
0.107792
0.0955144
0.0840532
0.0733672
0.0634177
0.0541696
0.0455915
0.0376567
0.0304521
0.0238816
0.017746
0.0122267
0.00734092
0.00321129
0.00225616
0.00156132
0.00106253
0.0007097
0.000464254
0.000296759
0.000185001
0.000112446
6.70108e-05
4.0101e-05
2.59484e-05
1.92918e-05
1.44436e-05
1.03109e-05
6.92206e-06
4.32949e-06
2.51253e-06
1.35745e-06
6.89155e-07
3.33543e-07
1.56434e-07
7.15679e-08
3.20839e-08
1.41412e-08
6.14427e-09
2.63761e-09
1.12084e-09
4.72217e-10
1.97439e-10
8.19097e-11
3.36221e-11
1.35287e-11
5.19248e-12
1.73867e-12
3.05186e-13
0.999997
0.999988
0.999971
0.999944
0.999899
0.999824
0.999702
0.999501
0.999179
0.998666
0.997863
0.996625
0.994755
0.99199
0.988
0.982401
0.974776
0.964724
0.951907
0.936104
0.91723
0.895351
0.870653
0.843421
0.814
0.782771
0.750122
0.716438
0.682086
0.647405
0.612704
0.578257
0.544299
0.511033
0.478622
0.4472
0.41687
0.387711
0.359777
0.333102
0.3077
0.283572
0.260705
0.23908
0.218665
0.199426
0.181322
0.16431
0.148344
0.13338
0.119369
0.106265
0.094024
0.0826014
0.0719556
0.0620477
0.0528413
0.0443039
0.0364076
0.0292866
0.0227764
0.0167224
0.0112891
0.00651371
0.00305746
0.00213169
0.00146466
0.000989843
0.000656562
0.000426447
0.000270609
0.00016748
0.000101168
6.01768e-05
3.64396e-05
2.45887e-05
1.84539e-05
1.36231e-05
9.56418e-06
6.31418e-06
3.89011e-06
2.23188e-06
1.198e-06
6.07125e-07
2.94258e-07
1.38418e-07
6.35582e-08
2.86037e-08
1.26544e-08
5.51673e-09
2.37496e-09
1.01151e-09
4.26876e-10
1.7869e-10
7.41878e-11
3.04672e-11
1.22633e-11
4.70751e-12
1.57672e-12
2.76812e-13
0.999997
0.999987
0.999971
0.999943
0.999897
0.999821
0.999695
0.999491
0.999162
0.99864
0.997823
0.996566
0.994669
0.991868
0.987834
0.98218
0.974493
0.964372
0.951485
0.935612
0.916672
0.894729
0.869972
0.842683
0.813204
0.781915
0.749202
0.715448
0.68102
0.646258
0.61147
0.576932
0.542882
0.509523
0.477021
0.445512
0.4151
0.385867
0.357868
0.331137
0.305689
0.281526
0.258634
0.236993
0.216572
0.197336
0.179243
0.16225
0.146311
0.131379
0.117406
0.104345
0.0921514
0.0807803
0.0701897
0.06034
0.0511943
0.0427186
0.0348814
0.027834
0.0213928
0.0153834
0.00995927
0.00513846
0.00289648
0.00199626
0.00135742
0.000908571
0.000597173
0.000384463
0.000241887
0.000148516
8.91716e-05
5.30392e-05
3.27259e-05
2.31101e-05
1.73704e-05
1.26484e-05
8.73776e-06
5.67094e-06
3.43678e-06
1.94461e-06
1.03355e-06
5.2087e-07
2.52142e-07
1.18711e-07
5.46287e-08
2.46576e-08
1.09455e-08
4.78878e-09
2.06892e-09
8.84161e-10
3.74292e-10
1.57107e-10
6.53793e-11
2.69017e-11
1.0845e-11
4.16783e-12
1.39704e-12
2.45372e-13
0.999997
0.999987
0.99997
0.999942
0.999895
0.999817
0.999689
0.999482
0.999147
0.998616
0.997786
0.99651
0.994586
0.991748
0.987666
0.981954
0.974196
0.963997
0.951025
0.935064
0.916037
0.894008
0.869167
0.841794
0.812232
0.780858
0.748058
0.714215
0.679695
0.644838
0.609953
0.575317
0.54117
0.507716
0.475124
0.443529
0.413038
0.383734
0.355674
0.32889
0.3034
0.279204
0.256291
0.234638
0.214216
0.194988
0.176912
0.159943
0.144037
0.129143
0.115215
0.102206
0.0900687
0.0787595
0.0682365
0.0584612
0.0493989
0.0410203
0.0333024
0.026379
0.0198685
0.013929
0.00857802
0.00386969
0.00263406
0.00180521
0.00122073
0.000812446
0.000530814
0.000339611
0.000212317
0.000129617
7.75947e-05
4.64261e-05
2.95058e-05
2.15824e-05
1.61806e-05
1.16461e-05
7.93513e-06
5.0754e-06
3.03422e-06
1.69828e-06
8.962e-07
4.50018e-07
2.17742e-07
1.02608e-07
4.7295e-08
2.13888e-08
9.51358e-09
4.17038e-09
1.805e-09
7.72615e-10
3.27531e-10
1.37644e-10
5.73355e-11
2.36102e-11
9.52379e-12
3.66163e-12
1.22761e-12
2.15659e-13
0.999997
0.999987
0.99997
0.999941
0.999893
0.999814
0.999685
0.999474
0.999134
0.998596
0.997754
0.996461
0.994513
0.991643
0.987517
0.981747
0.97392
0.963638
0.950574
0.934512
0.915379
0.893244
0.868294
0.840814
0.811146
0.779666
0.74676
0.712812
0.678186
0.643225
0.608237
0.573501
0.539257
0.505711
0.473031
0.441355
0.410792
0.381423
0.353307
0.326478
0.300953
0.276732
0.253804
0.232147
0.21173
0.192516
0.174463
0.157525
0.141657
0.126809
0.112933
0.09998
0.0879046
0.0766615
0.0662083
0.0565057
0.047518
0.0392139
0.0316388
0.0248135
0.0184193
0.0126677
0.00757729
0.00326525
0.00229099
0.00158114
0.00107254
0.000714073
0.000465799
0.000297142
0.000185102
0.00011267
6.7514e-05
4.09477e-05
2.7149e-05
2.03009e-05
1.51097e-05
1.07438e-05
7.21939e-06
4.55122e-06
2.68435e-06
1.48596e-06
7.78026e-07
3.88786e-07
1.87797e-07
8.84707e-08
4.08037e-08
1.84752e-08
8.23034e-09
3.61411e-09
1.56703e-09
6.7193e-10
2.85313e-10
1.20075e-10
5.00789e-11
2.06425e-11
8.33298e-12
3.20544e-12
1.07489e-12
1.88875e-13
0.999997
0.999987
0.999969
0.99994
0.999892
0.999812
0.99968
0.999466
0.999122
0.998577
0.997724
0.996416
0.994445
0.991542
0.987371
0.981544
0.973646
0.963279
0.950116
0.933947
0.914701
0.892447
0.867378
0.839778
0.809991
0.778392
0.74537
0.711307
0.67657
0.6415
0.606407
0.571571
0.537232
0.503596
0.470835
0.439085
0.408456
0.379031
0.350868
0.324002
0.29845
0.274212
0.251277
0.229623
0.209218
0.190025
0.172001
0.155101
0.139277
0.124479
0.110659
0.0977686
0.0857595
0.0745867
0.0642073
0.0545814
0.0456731
0.0374514
0.0300353
0.0233269
0.0170487
0.0114247
0.0064908
0.00304934
0.00211569
0.0014473
0.000974377
0.0006443
0.000417579
0.000264741
0.000163994
9.94323e-05
5.96649e-05
3.68036e-05
2.5576e-05
1.92549e-05
1.4181e-05
9.95509e-06
6.59811e-06
4.10284e-06
2.39025e-06
1.31036e-06
6.81468e-07
3.39123e-07
1.6356e-07
7.70182e-08
3.55291e-08
1.60967e-08
7.17682e-09
3.15457e-09
1.3692e-09
5.87703e-10
2.4979e-10
1.05216e-10
4.39137e-11
1.81115e-11
7.31422e-12
2.81422e-12
9.43699e-13
1.65852e-13
0.999997
0.999986
0.999969
0.99994
0.999891
0.999809
0.999676
0.99946
0.999112
0.998559
0.997697
0.996373
0.99438
0.991446
0.987233
0.981349
0.973379
0.962926
0.949664
0.933383
0.914018
0.89164
0.866444
0.838717
0.808803
0.77708
0.743936
0.709755
0.674904
0.639725
0.604529
0.569595
0.535166
0.501447
0.468611
0.436794
0.406107
0.376635
0.348434
0.321539
0.295968
0.271722
0.248788
0.227144
0.206757
0.187591
0.169603
0.152745
0.13697
0.122227
0.108468
0.0956428
0.0837038
0.072605
0.0623029
0.0527571
0.0439307
0.0357949
0.0284828
0.0218656
0.0156477
0.0100517
0.0051035
0.00290723
0.00199369
0.00135011
0.00090084
0.000590882
0.000380133
0.000239374
0.000147418
8.90553e-05
5.35515e-05
3.36338e-05
2.41565e-05
1.82313e-05
1.33152e-05
9.24836e-06
6.05725e-06
3.72148e-06
2.14476e-06
1.16571e-06
6.0254e-07
2.98645e-07
1.43796e-07
6.76602e-08
3.1207e-08
1.41419e-08
6.30841e-09
2.77471e-09
1.20524e-09
5.17737e-10
2.20221e-10
9.28247e-11
3.87636e-11
1.59942e-11
6.46099e-12
2.48626e-12
8.33636e-13
1.46535e-13
0.999997
0.999986
0.999969
0.999939
0.999889
0.999807
0.999673
0.999454
0.999101
0.998543
0.997671
0.996333
0.994318
0.991354
0.987099
0.98116
0.97312
0.962581
0.949219
0.932827
0.913341
0.890837
0.865513
0.837657
0.807615
0.775766
0.742501
0.708202
0.673239
0.637953
0.602658
0.567632
0.533118
0.499323
0.46642
0.434545
0.403809
0.374297
0.346066
0.319151
0.293569
0.269321
0.246395
0.224767
0.204405
0.185271
0.167322
0.15051
0.134787
0.120102
0.106405
0.0936477
0.0817807
0.0707581
0.0605369
0.0510771
0.0423432
0.0343009
0.0270911
0.0205066
0.0143446
0.00881013
0.00396848
0.00267407
0.00183106
0.00123742
0.000823549
0.000538594
0.000345381
0.000216787
0.000133162
8.04316e-05
4.87112e-05
3.13707e-05
2.31005e-05
1.73939e-05
1.25985e-05
8.66345e-06
5.61221e-06
3.4106e-06
1.94667e-06
1.05e-06
5.39759e-07
2.66539e-07
1.28119e-07
6.02251e-08
2.77644e-08
1.258e-08
5.61216e-09
2.46908e-09
1.07286e-09
4.61054e-10
1.9619e-10
8.27253e-11
3.45557e-11
1.42604e-11
5.76112e-12
2.2169e-12
7.43155e-13
1.30652e-13
0.999997
0.999986
0.999968
0.999938
0.999888
0.999805
0.999669
0.999448
0.999092
0.998528
0.997647
0.996295
0.99426
0.991267
0.986972
0.980979
0.972871
0.962248
0.948788
0.932287
0.912683
0.890055
0.864604
0.836621
0.806453
0.774482
0.741098
0.706686
0.671615
0.636228
0.600839
0.565728
0.531137
0.497274
0.46431
0.432385
0.401608
0.372064
0.343811
0.316883
0.291298
0.267054
0.244141
0.222534
0.2022
0.183102
0.165194
0.14843
0.13276
0.118133
0.1045
0.0918085
0.0800117
0.069063
0.0589187
0.0495389
0.0408876
0.0329686
0.0259139
0.0192887
0.0133058
0.00797589
0.0034086
0.00238555
0.00164555
0.00111753
0.000746059
0.000488766
0.000313672
0.000196946
0.000121072
7.33923e-05
4.49944e-05
2.98845e-05
2.23705e-05
1.67722e-05
1.20512e-05
8.20867e-06
5.263e-06
3.16611e-06
1.79109e-06
9.59273e-07
4.90551e-07
2.41397e-07
1.15813e-07
5.43718e-08
2.50455e-08
1.13425e-08
5.05878e-09
2.22544e-09
9.67031e-10
4.15621e-10
1.76881e-10
7.45926e-11
3.11605e-11
1.28592e-11
5.19471e-12
1.99868e-12
6.69803e-13
1.17776e-13
0.999997
0.999986
0.999968
0.999938
0.999887
0.999803
0.999666
0.999442
0.999083
0.998514
0.997624
0.996259
0.994205
0.991184
0.986851
0.980808
0.972634
0.961931
0.948378
0.931772
0.912054
0.889307
0.863735
0.835629
0.805341
0.773253
0.739756
0.705237
0.670065
0.634584
0.599109
0.56392
0.52926
0.495336
0.462321
0.430353
0.399542
0.369974
0.341705
0.31477
0.289186
0.264952
0.242055
0.220472
0.200169
0.181108
0.163243
0.146527
0.130909
0.116339
0.102766
0.0901386
0.0784088
0.0675301
0.0574591
0.0481563
0.0395872
0.0318316
0.0248656
0.0183303
0.0124756
0.00732474
0.00316567
0.00221329
0.00152625
0.00103643
0.000691865
0.000453177
0.000290759
0.000182552
0.000112332
6.8382e-05
4.24675e-05
2.90756e-05
2.19786e-05
1.63858e-05
1.16771e-05
7.87923e-06
5.00155e-06
2.97998e-06
1.67171e-06
8.89369e-07
4.52505e-07
2.22012e-07
1.06286e-07
4.98225e-08
2.29243e-08
1.03735e-08
4.62401e-09
2.03341e-09
8.83378e-10
3.79613e-10
1.61541e-10
6.81171e-11
2.84519e-11
1.17395e-11
4.74156e-12
1.82394e-12
6.11028e-13
1.07463e-13
0.999997
0.999986
0.999968
0.999937
0.999886
0.999802
0.999663
0.999437
0.999075
0.9985
0.997603
0.996226
0.994154
0.991107
0.986738
0.980647
0.972412
0.961634
0.947993
0.931288
0.911464
0.888605
0.862918
0.834698
0.804297
0.7721
0.738498
0.70388
0.668615
0.633049
0.597497
0.562237
0.527516
0.493539
0.46048
0.428476
0.397639
0.368052
0.339772
0.312835
0.287256
0.263035
0.240158
0.2186
0.198329
0.179305
0.161482
0.144812
0.129245
0.114728
0.101212
0.0886434
0.0769749
0.0661592
0.0561524
0.0469145
0.0384101
0.0307383
0.0238394
0.0173623
0.0115528
0.00642279
0.00305346
0.00212731
0.0014627
0.000990883
0.000660115
0.00043164
0.000276561
0.000173497
0.000106816
6.52833e-05
4.10569e-05
2.89206e-05
2.1892e-05
1.62001e-05
1.14452e-05
7.6511e-06
4.81051e-06
2.8404e-06
1.58108e-06
8.35942e-07
4.23298e-07
2.07078e-07
9.8922e-08
4.62945e-08
2.12743e-08
9.61765e-09
4.28401e-09
1.88288e-09
8.17657e-10
3.51265e-10
1.49442e-10
6.30014e-11
2.6309e-11
1.08526e-11
4.38231e-12
1.68537e-12
5.64404e-13
9.92881e-14
0.999997
0.999986
0.999967
0.999937
0.999885
0.9998
0.99966
0.999433
0.999068
0.998488
0.997583
0.996195
0.994107
0.991037
0.986635
0.9805
0.972208
0.961361
0.947639
0.930844
0.910921
0.887959
0.862167
0.833842
0.803339
0.771041
0.737344
0.702636
0.667288
0.631646
0.596024
0.560703
0.525928
0.491906
0.458809
0.426776
0.395917
0.366317
0.338031
0.311095
0.285524
0.261317
0.238461
0.21693
0.19669
0.177701
0.159918
0.143292
0.127772
0.113305
0.0998401
0.0873258
0.0757126
0.0649533
0.0550038
0.0458236
0.0373773
0.0297534
0.0229089
0.0164804
0.0107045
0.00558773
0.00299771
0.00208264
0.00142854
0.000965721
0.00064219
0.000419278
0.000268321
0.000168223
0.000103627
6.35505e-05
4.03833e-05
2.89318e-05
2.19067e-05
1.61166e-05
1.13009e-05
7.4924e-06
4.67101e-06
2.73612e-06
1.51261e-06
7.95337e-07
4.01006e-07
1.95641e-07
9.32638e-08
4.35755e-08
1.99991e-08
9.03195e-09
4.01991e-09
1.7657e-09
7.66396e-10
3.29116e-10
1.39974e-10
5.89927e-11
2.46279e-11
1.01561e-11
4.10018e-12
1.57656e-12
5.27773e-13
9.28737e-14
0.999997
0.999986
0.999967
0.999936
0.999884
0.999799
0.999658
0.999429
0.999061
0.998477
0.997566
0.996168
0.994065
0.990973
0.986542
0.980367
0.972024
0.961115
0.947321
0.930443
0.910432
0.887378
0.861492
0.833073
0.802477
0.770091
0.736309
0.701522
0.6661
0.63039
0.594708
0.559334
0.524513
0.490452
0.457325
0.425268
0.394393
0.364783
0.336494
0.309562
0.284
0.259809
0.236973
0.215467
0.195257
0.176302
0.158556
0.14197
0.126492
0.11207
0.0986522
0.086186
0.0746218
0.0639119
0.0540118
0.0448804
0.0364821
0.0289147
0.0221199
0.0157379
0.0100105
0.00497323
0.00293689
0.00204007
0.00139903
0.000945566
0.000628702
0.000410468
0.00026274
0.000164834
0.000101716
6.26469e-05
4.02145e-05
2.91782e-05
2.2054e-05
1.61306e-05
1.12374e-05
7.39458e-06
4.5753e-06
2.66125e-06
1.46233e-06
7.65141e-07
3.84288e-07
1.87013e-07
8.89742e-08
4.15053e-08
1.90246e-08
8.58294e-09
3.81687e-09
1.6754e-09
7.26812e-10
3.11983e-10
1.32639e-10
5.58835e-11
2.33228e-11
9.61533e-12
3.88127e-12
1.49212e-12
4.99326e-13
8.78985e-14
0.999997
0.999986
0.999967
0.999936
0.999884
0.999797
0.999656
0.999425
0.999055
0.998468
0.997551
0.996144
0.994028
0.990918
0.98646
0.980251
0.971864
0.9609
0.947042
0.930093
0.910004
0.886869
0.860901
0.8324
0.801724
0.76926
0.735405
0.700548
0.665063
0.629296
0.593562
0.558143
0.523283
0.489191
0.456038
0.423962
0.393075
0.363458
0.335169
0.308241
0.28269
0.258513
0.235697
0.214215
0.194032
0.175108
0.157395
0.140845
0.125406
0.111024
0.0976471
0.0852234
0.0737025
0.0630362
0.0531807
0.0440969
0.0357467
0.0282347
0.0214824
0.0151383
0.00945064
0.00448849
0.00286462
0.00199135
0.00136699
0.000924981
0.000615798
0.000402612
0.000258133
0.000162283
0.000100459
6.22264e-05
4.03673e-05
2.95689e-05
2.22966e-05
1.62245e-05
1.12353e-05
7.34759e-06
4.51601e-06
2.61065e-06
1.42699e-06
7.43434e-07
3.72095e-07
1.80659e-07
8.57907e-08
3.99592e-08
1.82929e-08
8.24433e-09
3.6632e-09
1.60684e-09
6.96686e-10
2.98918e-10
1.27038e-10
5.35071e-11
2.23258e-11
9.20236e-12
3.71408e-12
1.42763e-12
4.7759e-13
8.41024e-14
0.999997
0.999986
0.999967
0.999935
0.999883
0.999796
0.999654
0.999422
0.99905
0.99846
0.997538
0.996124
0.993997
0.990871
0.986391
0.980152
0.971727
0.960718
0.946805
0.929796
0.909642
0.886439
0.860401
0.83183
0.801087
0.768558
0.734641
0.699726
0.664188
0.628372
0.592596
0.55714
0.522249
0.488131
0.454957
0.422867
0.39197
0.362349
0.334061
0.307139
0.281597
0.257435
0.234636
0.213175
0.193016
0.174118
0.156435
0.139917
0.12451
0.110163
0.0968226
0.084436
0.0729533
0.0623279
0.0525144
0.0434697
0.0351554
0.0276825
0.0209595
0.0146416
0.00896831
0.00402551
0.00275277
0.00192614
0.00132885
0.000902801
0.000603113
0.000395568
0.000254411
0.000160494
9.97834e-05
6.21925e-05
4.0741e-05
3.00569e-05
2.26122e-05
1.63825e-05
1.12871e-05
7.3403e-06
4.48716e-06
2.58016e-06
1.40385e-06
7.28627e-07
3.63562e-07
1.76139e-07
8.34982e-08
3.8835e-08
1.77568e-08
7.99472e-09
3.54937e-09
1.55587e-09
6.74225e-10
2.89159e-10
1.22853e-10
5.17331e-11
2.15815e-11
8.89397e-12
3.58921e-12
1.37947e-12
4.61348e-13
8.12705e-14
0.999997
0.999986
0.999967
0.999935
0.999883
0.999796
0.999653
0.99942
0.999046
0.998453
0.997528
0.996107
0.993972
0.990833
0.986335
0.980073
0.971617
0.96057
0.946614
0.929556
0.909349
0.886091
0.859996
0.83137
0.800571
0.76799
0.734023
0.699062
0.663481
0.627627
0.591816
0.55633
0.521415
0.487277
0.454088
0.421986
0.391082
0.361459
0.333172
0.306256
0.280723
0.256573
0.233789
0.212346
0.192207
0.173332
0.155674
0.139182
0.123803
0.109485
0.0961748
0.0838197
0.07237
0.0617764
0.0519913
0.0429732
0.0346873
0.0272812
0.0205895
0.0143076
0.0086808
0.00381185
0.0026953
0.00188519
0.00130193
0.000886218
0.000593522
0.000390427
0.000251957
0.000159573
9.96874e-05
6.25497e-05
4.13728e-05
3.06575e-05
2.30042e-05
1.66005e-05
1.13856e-05
7.36821e-06
4.48207e-06
2.56591e-06
1.39055e-06
7.19321e-07
3.57936e-07
1.73077e-07
8.19142e-08
3.8047e-08
1.7377e-08
7.81646e-09
3.46761e-09
1.51912e-09
6.58003e-10
2.82113e-10
1.19831e-10
5.04511e-11
2.1043e-11
8.67068e-12
3.49877e-12
1.34459e-12
4.49579e-13
7.92218e-14
0.999997
0.999985
0.999967
0.999935
0.999882
0.999795
0.999651
0.999418
0.999043
0.998448
0.99752
0.996095
0.993953
0.990804
0.986293
0.980013
0.971534
0.960459
0.94647
0.929375
0.909128
0.885828
0.859691
0.831022
0.800182
0.767561
0.733556
0.69856
0.662947
0.627064
0.591228
0.55572
0.520786
0.486633
0.453432
0.421323
0.390415
0.36079
0.332505
0.305593
0.280067
0.255927
0.233155
0.211726
0.191604
0.172747
0.155108
0.138636
0.12328
0.108985
0.0956996
0.0833698
0.0719444
0.061374
0.0516142
0.0426225
0.0343604
0.0270202
0.0203376
0.0140819
0.0084908
0.00366754
0.00261161
0.0018369
0.00127463
0.00087138
0.000585993
0.000387057
0.000250829
0.000159568
0.000100194
6.32545e-05
4.21455e-05
3.13115e-05
2.34361e-05
1.68533e-05
1.1514e-05
7.42034e-06
4.49491e-06
2.56322e-06
1.38448e-06
7.14149e-07
3.54514e-07
1.7113e-07
8.08785e-08
3.75223e-08
1.71209e-08
7.69547e-09
3.41195e-09
1.49408e-09
6.46935e-10
2.77291e-10
1.17757e-10
4.95687e-11
2.06717e-11
8.51661e-12
3.43634e-12
1.32051e-12
4.4145e-13
7.78087e-14
0.999997
0.999985
0.999967
0.999935
0.999882
0.999795
0.999651
0.999417
0.999041
0.998445
0.997515
0.996087
0.99394
0.990785
0.986265
0.979973
0.971479
0.960385
0.946374
0.929254
0.908981
0.885652
0.859487
0.83079
0.799922
0.767273
0.733243
0.698224
0.662589
0.626687
0.590833
0.555311
0.520365
0.486202
0.452995
0.42088
0.389969
0.360343
0.33206
0.305151
0.279631
0.255497
0.232734
0.211315
0.191204
0.17236
0.154734
0.138278
0.122937
0.108659
0.0953903
0.0830781
0.0716718
0.0611239
0.0513898
0.0424286
0.0342051
0.0269388
0.0200964
0.0139037
0.00836175
0.0035839
0.00256039
0.00180722
0.00125857
0.00086355
0.00058287
0.000386441
0.000251411
0.000160609
0.000101309
6.42727e-05
4.30175e-05
3.19676e-05
2.38591e-05
1.71019e-05
1.16449e-05
7.47938e-06
4.51582e-06
2.56731e-06
1.38297e-06
7.11752e-07
3.52663e-07
1.70017e-07
8.02708e-08
3.72101e-08
1.69675e-08
7.62237e-09
3.37803e-09
1.47869e-09
6.40087e-10
2.74293e-10
1.16463e-10
4.90168e-11
2.04391e-11
8.42e-12
3.3972e-12
1.30541e-12
4.36353e-13
7.69228e-14
0.999997
0.999985
0.999966
0.999935
0.999882
0.999794
0.99965
0.999416
0.99904
0.998444
0.997512
0.996083
0.993934
0.990776
0.986252
0.979954
0.971453
0.96035
0.946328
0.929196
0.90891
0.885568
0.859388
0.830677
0.799795
0.767133
0.73309
0.698059
0.662413
0.626501
0.590639
0.555109
0.520157
0.48599
0.452778
0.420661
0.389748
0.360122
0.331839
0.304931
0.279414
0.255284
0.232525
0.211111
0.191006
0.172168
0.154549
0.1381
0.122767
0.108498
0.0952383
0.0829362
0.0715411
0.0610049
0.0512828
0.0423338
0.034124
0.0268658
0.0200194
0.0138354
0.00830653
0.00354248
0.00253795
0.00179612
0.00125404
0.000862622
0.00058373
0.000388024
0.00025313
0.000162173
0.000102604
6.52796e-05
4.37543e-05
3.24549e-05
2.41542e-05
1.7269e-05
1.17314e-05
7.51891e-06
4.53092e-06
2.5715e-06
1.38315e-06
7.10932e-07
3.51882e-07
1.69528e-07
7.99969e-08
3.70668e-08
1.68961e-08
7.58808e-09
3.36203e-09
1.4714e-09
6.36833e-10
2.72865e-10
1.15845e-10
4.87529e-11
2.03277e-11
8.37369e-12
3.37843e-12
1.29815e-12
4.33906e-13
7.64959e-14
0.999997
0.999985
0.999966
0.999935
0.999882
0.999794
0.99965
0.999416
0.99904
0.998444
0.997512
0.996083
0.993934
0.990776
0.986252
0.979953
0.971452
0.960349
0.946327
0.929195
0.908908
0.885566
0.859386
0.830675
0.799792
0.767131
0.733088
0.698056
0.66241
0.626498
0.590636
0.555107
0.520154
0.485987
0.452776
0.420658
0.389745
0.360119
0.331836
0.304929
0.279411
0.255281
0.232522
0.211108
0.191003
0.172165
0.154547
0.138098
0.122765
0.108496
0.0952365
0.0829345
0.0715395
0.0610035
0.0512816
0.0423329
0.0341236
0.0268656
0.0200194
0.0138355
0.00830663
0.00354259
0.00253789
0.001796
0.00125393
0.00086253
0.000583661
0.000387973
0.000253093
0.000162147
0.000102586
6.52675e-05
4.37469e-05
3.24509e-05
2.4152e-05
1.72678e-05
1.17308e-05
7.5186e-06
4.53077e-06
2.57143e-06
1.38313e-06
7.10921e-07
3.51877e-07
1.69526e-07
7.99964e-08
3.70667e-08
1.6896e-08
7.58807e-09
3.36203e-09
1.4714e-09
6.36831e-10
2.72864e-10
1.15844e-10
4.87524e-11
2.03275e-11
8.37358e-12
3.37838e-12
1.29811e-12
4.33906e-13
7.64918e-14
0.999997
0.999985
0.999967
0.999935
0.999882
0.999795
0.999651
0.999417
0.999041
0.998445
0.997514
0.996087
0.99394
0.990785
0.986265
0.979972
0.971477
0.960383
0.946371
0.92925
0.908976
0.885647
0.859481
0.830783
0.799915
0.767266
0.733236
0.698216
0.662581
0.626679
0.590825
0.555303
0.520357
0.486194
0.452987
0.420872
0.389961
0.360336
0.332052
0.305143
0.279623
0.25549
0.232727
0.211308
0.191198
0.172354
0.154729
0.138273
0.122932
0.108655
0.0953864
0.0830745
0.0716685
0.0611208
0.0513867
0.0424257
0.0342027
0.0269369
0.0200946
0.0139021
0.00836057
0.00358321
0.00255982
0.00180678
0.00125828
0.000863365
0.000582742
0.000386345
0.000251336
0.000160551
0.000101265
6.42413e-05
4.29971e-05
3.1955e-05
2.38514e-05
1.70974e-05
1.16423e-05
7.478e-06
4.51512e-06
2.56697e-06
1.38281e-06
7.11681e-07
3.52632e-07
1.70004e-07
8.02651e-08
3.72076e-08
1.69664e-08
7.62189e-09
3.37782e-09
1.4786e-09
6.40044e-10
2.74274e-10
1.16454e-10
4.9013e-11
2.04374e-11
8.41927e-12
3.39691e-12
1.30525e-12
4.36333e-13
7.69074e-14
0.999997
0.999985
0.999967
0.999935
0.999882
0.999795
0.999651
0.999418
0.999043
0.998448
0.997519
0.996095
0.993952
0.990803
0.986292
0.98001
0.971531
0.960455
0.946465
0.929368
0.90912
0.885819
0.859681
0.831011
0.80017
0.767548
0.733543
0.698547
0.662933
0.62705
0.591214
0.555706
0.520772
0.486619
0.453419
0.421309
0.390401
0.360777
0.332492
0.30558
0.280055
0.255915
0.233144
0.211715
0.191593
0.172737
0.155098
0.138627
0.123272
0.108978
0.0956926
0.0833634
0.0719384
0.0613684
0.0516089
0.0426174
0.0343557
0.027017
0.0203346
0.0140791
0.00848851
0.0036663
0.0026108
0.00183638
0.00127445
0.000871388
0.000586052
0.000387102
0.000250842
0.000159558
0.000100173
6.32319e-05
4.21268e-05
3.12974e-05
2.34259e-05
1.68465e-05
1.15099e-05
7.41799e-06
4.49366e-06
2.56259e-06
1.3842e-06
7.14018e-07
3.54456e-07
1.71105e-07
8.08679e-08
3.75177e-08
1.71189e-08
7.69456e-09
3.41154e-09
1.49389e-09
6.46851e-10
2.77254e-10
1.1774e-10
4.95613e-11
2.06685e-11
8.51523e-12
3.4358e-12
1.32023e-12
4.41409e-13
7.7782e-14
0.999997
0.999986
0.999967
0.999935
0.999883
0.999796
0.999653
0.99942
0.999046
0.998453
0.997527
0.996107
0.993971
0.990831
0.986333
0.98007
0.971613
0.960565
0.946607
0.929547
0.909338
0.886078
0.859982
0.831355
0.800555
0.767972
0.734004
0.699043
0.663461
0.627607
0.591796
0.556311
0.521395
0.487257
0.454068
0.421967
0.391063
0.36144
0.333154
0.306238
0.280705
0.256556
0.233773
0.21233
0.192192
0.173318
0.15566
0.139169
0.123791
0.109474
0.0961641
0.0838098
0.0723608
0.0617679
0.0519834
0.0429658
0.0346802
0.0272761
0.020585
0.0143035
0.00867738
0.00380985
0.00269402
0.00188393
0.00130105
0.000885688
0.000593217
0.000390246
0.00025184
0.000159491
9.96299e-05
6.25094e-05
4.13468e-05
3.06405e-05
2.29926e-05
1.65929e-05
1.1381e-05
7.3655e-06
4.48058e-06
2.56515e-06
1.39017e-06
7.19142e-07
3.57856e-07
1.73042e-07
8.18986e-08
3.804e-08
1.73738e-08
7.81502e-09
3.46695e-09
1.51882e-09
6.57867e-10
2.82052e-10
1.19804e-10
5.0439e-11
2.10377e-11
8.66845e-12
3.49788e-12
1.34415e-12
4.49502e-13
7.91822e-14
0.999997
0.999986
0.999967
0.999935
0.999883
0.999796
0.999654
0.999422
0.99905
0.998459
0.997537
0.996123
0.993996
0.990869
0.986388
0.980148
0.971722
0.960711
0.946796
0.929784
0.909628
0.886423
0.860383
0.831811
0.801065
0.768535
0.734616
0.699701
0.664162
0.628346
0.59257
0.557114
0.522223
0.488105
0.454932
0.422842
0.391945
0.362325
0.334037
0.307115
0.281575
0.257413
0.234615
0.213154
0.192997
0.1741
0.156418
0.139901
0.124495
0.110149
0.0968096
0.0844239
0.0729421
0.0623174
0.0525046
0.0434601
0.0351456
0.027673
0.0209514
0.0146337
0.00896256
0.00402212
0.00275185
0.00192495
0.00132789
0.000902158
0.000602703
0.000395307
0.00025424
0.000160378
9.97027e-05
6.21385e-05
4.07077e-05
3.00369e-05
2.25994e-05
1.63744e-05
1.12821e-05
7.33737e-06
4.48555e-06
2.57931e-06
1.40342e-06
7.28421e-07
3.63467e-07
1.76096e-07
8.34781e-08
3.88256e-08
1.77524e-08
7.99268e-09
3.54842e-09
1.55544e-09
6.74027e-10
2.8907e-10
1.22813e-10
5.17156e-11
2.15739e-11
8.89071e-12
3.58789e-12
1.37883e-12
4.61223e-13
8.12167e-14
0.999997
0.999986
0.999967
0.999936
0.999884
0.999797
0.999656
0.999425
0.999055
0.998467
0.99755
0.996143
0.994027
0.990915
0.986457
0.980246
0.971857
0.960892
0.94703
0.930079
0.909988
0.88685
0.860879
0.832376
0.801697
0.769232
0.735375
0.700518
0.665032
0.629264
0.59353
0.558111
0.523251
0.489159
0.456007
0.423931
0.393044
0.363428
0.33514
0.308213
0.282662
0.258487
0.235671
0.21419
0.194008
0.175085
0.157374
0.140825
0.125387
0.111006
0.0976307
0.0852082
0.0736885
0.0630235
0.0531694
0.0440874
0.0357389
0.0282293
0.0214769
0.0151336
0.00944536
0.00448412
0.00286431
0.00199108
0.00136688
0.000924957
0.000615791
0.000402589
0.000258091
0.000162232
0.000100408
6.21847e-05
4.03387e-05
2.95511e-05
2.22848e-05
1.62168e-05
1.12305e-05
7.34468e-06
4.51436e-06
2.60974e-06
1.42654e-06
7.43216e-07
3.7199e-07
1.80608e-07
8.57659e-08
3.99472e-08
1.82871e-08
8.24159e-09
3.66191e-09
1.60625e-09
6.96411e-10
2.98793e-10
1.26982e-10
5.34826e-11
2.23151e-11
9.19775e-12
3.71221e-12
1.42675e-12
4.77394e-13
8.40317e-14
0.999997
0.999986
0.999967
0.999936
0.999884
0.999799
0.999658
0.999429
0.999061
0.998477
0.997565
0.996167
0.994063
0.990971
0.986538
0.980361
0.972017
0.961105
0.947308
0.930427
0.910413
0.887355
0.861466
0.833044
0.802446
0.770057
0.736274
0.701485
0.666062
0.630352
0.594669
0.559295
0.524474
0.490414
0.457287
0.425231
0.394356
0.364747
0.336459
0.309528
0.283967
0.259777
0.236942
0.215438
0.195229
0.176275
0.158531
0.141946
0.12647
0.11205
0.0986328
0.086168
0.0746051
0.0638965
0.0539976
0.0448673
0.0364701
0.0289043
0.0221104
0.0157294
0.0100032
0.00496771
0.00293607
0.00203925
0.00139831
0.000944982
0.000628247
0.000410125
0.000262488
0.000164655
0.000101594
6.25676e-05
4.01672e-05
2.91533e-05
2.20404e-05
1.61229e-05
1.12329e-05
7.39203e-06
4.57383e-06
2.66045e-06
1.46191e-06
7.6492e-07
3.84174e-07
1.86953e-07
8.89438e-08
4.14901e-08
1.9017e-08
8.57929e-09
3.81513e-09
1.67458e-09
7.26435e-10
3.11811e-10
1.32562e-10
5.58494e-11
2.33079e-11
9.60882e-12
3.87863e-12
1.49092e-12
4.99027e-13
8.78061e-14
0.999997
0.999986
0.999967
0.999937
0.999885
0.9998
0.99966
0.999433
0.999067
0.998488
0.997583
0.996194
0.994105
0.991034
0.98663
0.980493
0.972199
0.961349
0.947624
0.930825
0.910898
0.887933
0.862137
0.833809
0.803302
0.771002
0.737303
0.702594
0.667244
0.631601
0.595979
0.560658
0.525883
0.491861
0.458765
0.426733
0.395875
0.366275
0.337991
0.311056
0.285486
0.261281
0.238426
0.216896
0.196658
0.177671
0.159889
0.143265
0.127746
0.113281
0.0998178
0.087305
0.0756933
0.0649353
0.0549871
0.0458082
0.0373632
0.0297411
0.0228982
0.0164711
0.0106963
0.00558097
0.00299793
0.00208253
0.00142824
0.00096535
0.00064183
0.000418971
0.000268079
0.000168044
0.000103502
6.34685e-05
4.03344e-05
2.89068e-05
2.18937e-05
1.61095e-05
1.1297e-05
7.49019e-06
4.66972e-06
2.73536e-06
1.51217e-06
7.95088e-07
4.00868e-07
1.95566e-07
9.32243e-08
4.35552e-08
1.99889e-08
9.02699e-09
4.01753e-09
1.76458e-09
7.65877e-10
3.2888e-10
1.39867e-10
5.89455e-11
2.46072e-11
1.01471e-11
4.0965e-12
1.57494e-12
5.27335e-13
9.27545e-14
0.999997
0.999986
0.999968
0.999937
0.999886
0.999802
0.999663
0.999437
0.999075
0.9985
0.997602
0.996224
0.994152
0.991104
0.986733
0.98064
0.972402
0.961621
0.947976
0.931267
0.911438
0.888575
0.862884
0.83466
0.804256
0.772056
0.738452
0.703831
0.668565
0.632999
0.597445
0.562186
0.527464
0.493488
0.46043
0.428427
0.39759
0.368004
0.339726
0.31279
0.287212
0.262993
0.240117
0.218562
0.198293
0.17927
0.161449
0.144781
0.129216
0.114701
0.101186
0.08862
0.0769532
0.0661392
0.056134
0.0468978
0.038395
0.030724
0.0238266
0.017351
0.0115422
0.00641077
0.00305385
0.00212764
0.00146283
0.000990833
0.000659957
0.000431443
0.00027637
0.000173337
0.000106694
6.51978e-05
4.10031e-05
2.8891e-05
2.18754e-05
1.61908e-05
1.14399e-05
7.64808e-06
4.80877e-06
2.83938e-06
1.58048e-06
8.35604e-07
4.23111e-07
2.06976e-07
9.88682e-08
4.62668e-08
2.12605e-08
9.61084e-09
4.28074e-09
1.88134e-09
8.16944e-10
3.5094e-10
1.49296e-10
6.29365e-11
2.62806e-11
1.08402e-11
4.37718e-12
1.68317e-12