/*--------------------------------*- C++ -*----------------------------------*\
  =========                 |
  \\      /  F ield         | OpenFOAM: The Open Source CFD Toolbox
   \\    /   O peration     | Website:  https://openfoam.org
    \\  /    A nd           | Version:  8
     \\/     M anipulation  |
\*---------------------------------------------------------------------------*/
FoamFile
{
    version     2.0;
    format      ascii;
    class       volScalarField;
    location    "260/fluid";
    object      CO2;
}
// * * * * * * * * * * * * * * * * * * * * * * * * * * * * * * * * * * * * * //

dimensions      [0 0 0 0 0 0 0];

internalField   nonuniform List<scalar> 
4000
(
4.0518e-07
1.76949e-06
4.05878e-06
7.88461e-06
1.4247e-05
2.47652e-05
4.203e-05
7.01305e-05
0.000115416
0.000187552
0.000300921
0.000476316
0.000742781
0.00113917
0.00171471
0.00252777
0.00364186
0.00511894
0.00701109
0.00935284
0.0121565
0.0154117
0.0190885
0.0231427
0.0275206
0.0321644
0.037015
0.0420153
0.0471111
0.0522527
0.0573951
0.0624989
0.0675299
0.072459
0.0772626
0.0819214
0.0864206
0.0907488
0.0948977
0.0988625
0.102641
0.106231
0.109636
0.112857
0.115897
0.118761
0.121453
0.123977
0.126339
0.128541
0.130588
0.13248
0.13422
0.135804
0.13723
0.138489
0.139569
0.140455
0.14112
0.141528
0.141641
0.141405
0.140742
0.139558
0.137762
0.12716
0.116359
0.105539
0.0948416
0.0843792
0.0742446
0.064515
0.0552573
0.0465317
0.0383956
0.0309481
0.0241633
0.0181625
0.0130179
0.00879885
0.00554865
0.00324195
0.00175508
0.000886778
0.000424179
0.000195993
8.82066e-05
3.88944e-05
1.68756e-05
7.22805e-06
3.06379e-06
1.2877e-06
5.3743e-07
2.22904e-07
9.18398e-08
3.74758e-08
1.50035e-08
5.73511e-09
1.91516e-09
3.35556e-10
4.11826e-07
1.79954e-06
4.13201e-06
8.0381e-06
1.45477e-05
2.53295e-05
4.30539e-05
7.19304e-05
0.00011848
0.000192599
0.000308939
0.000488566
0.000760713
0.00116422
0.001748
0.00256965
0.00369158
0.0051745
0.00706946
0.00941055
0.0122104
0.0154597
0.0191298
0.0231778
0.0275515
0.0321935
0.0370453
0.0420496
0.0471518
0.0523018
0.0574541
0.0625685
0.0676104
0.0725504
0.0773643
0.0820328
0.0865407
0.0908764
0.0950317
0.0990017
0.102784
0.106377
0.109784
0.113005
0.116045
0.118908
0.121598
0.124121
0.126479
0.128678
0.13072
0.132608
0.134341
0.135919
0.137336
0.138585
0.139653
0.14052
0.141159
0.141527
0.141579
0.141239
0.140403
0.138936
0.136592
0.125834
0.114927
0.104033
0.0932813
0.0827803
0.0726201
0.0628777
0.0536208
0.0449119
0.0368121
0.0294151
0.0227241
0.0168556
0.0118857
0.00788159
0.00486989
0.00279277
0.0014919
0.000749503
0.000359304
0.000167085
7.58615e-05
3.37789e-05
1.47985e-05
6.39522e-06
2.73219e-06
1.1561e-06
4.85262e-07
2.0224e-07
8.36729e-08
3.42691e-08
1.37651e-08
5.27669e-09
1.76555e-09
3.09764e-10
4.21725e-07
1.84345e-06
4.23559e-06
8.24633e-06
1.49371e-05
2.60269e-05
4.42621e-05
7.39642e-05
0.00012181
0.000197898
0.000317127
0.000500835
0.0007785
0.00118912
0.00178159
0.00261322
0.00374583
0.00523923
0.00714351
0.00949192
0.0122967
0.0155486
0.0192197
0.023268
0.027642
0.0322855
0.0371406
0.0421502
0.0472599
0.0524194
0.0575828
0.0627095
0.0677644
0.0727176
0.0775446
0.0822257
0.0867453
0.0910916
0.0952561
0.0992338
0.103022
0.10662
0.11003
0.113253
0.116293
0.119155
0.121843
0.124362
0.126715
0.128908
0.130944
0.132823
0.134548
0.136115
0.137521
0.138756
0.139808
0.140657
0.141273
0.141608
0.141617
0.141208
0.140254
0.138563
0.134339
0.123504
0.112534
0.101594
0.090818
0.0803149
0.0701765
0.0604812
0.0512992
0.0426967
0.0347394
0.0274881
0.0210158
0.015401
0.0107141
0.00700612
0.00427466
0.00242899
0.0012917
0.000648835
0.000311872
0.000145581
6.63767e-05
2.96792e-05
1.30529e-05
5.66016e-06
2.42506e-06
1.02848e-06
4.32438e-07
1.80449e-07
7.47233e-08
3.0624e-08
1.23078e-08
4.71988e-09
1.58002e-09
2.77303e-10
4.30904e-07
1.88363e-06
4.32816e-06
8.42699e-06
1.52642e-05
2.65936e-05
4.52139e-05
7.55218e-05
0.000124299
0.000201784
0.000323055
0.000509658
0.000791305
0.0012072
0.00180638
0.00264615
0.00378811
0.00529173
0.00720661
0.00956554
0.0123804
0.0156419
0.0193221
0.0233792
0.0277622
0.032415
0.0372801
0.0423005
0.047422
0.052594
0.0577708
0.0629114
0.0679805
0.0729479
0.0777888
0.0824831
0.087015
0.0913723
0.0955466
0.0995325
0.103327
0.10693
0.110343
0.113568
0.116608
0.119469
0.122153
0.124667
0.127015
0.1292
0.131227
0.133096
0.134808
0.136362
0.137751
0.13897
0.140003
0.140833
0.141433
0.141758
0.141774
0.141412
0.140581
0.139163
0.131505
0.120638
0.109638
0.0986837
0.087918
0.0774535
0.0673832
0.0577861
0.0487329
0.0402892
0.0325474
0.0255138
0.0192945
0.0139597
0.00957022
0.00616022
0.00370123
0.00207596
0.00109384
0.000546646
0.00026252
0.000122684
5.60716e-05
2.51506e-05
1.11008e-05
4.83181e-06
2.07796e-06
8.84446e-07
3.73108e-07
1.56149e-07
6.48243e-08
2.66237e-08
1.07187e-08
4.11593e-09
1.3791e-09
2.42163e-10
4.3909e-07
1.91937e-06
4.4102e-06
8.58646e-06
1.55523e-05
2.7093e-05
4.6056e-05
7.69108e-05
0.000126544
0.000205342
0.000328575
0.000518031
0.000803691
0.00122503
0.00183129
0.00267988
0.0038323
0.00534773
0.00727532
0.00964741
0.0124755
0.01575
0.0194431
0.0235129
0.0279087
0.0325745
0.0374529
0.0424871
0.0476229
0.0528096
0.0580013
0.0631569
0.0682409
0.0732228
0.0780775
0.0827849
0.0873288
0.0916968
0.0958803
0.099874
0.103675
0.107282
0.110698
0.113923
0.116963
0.119821
0.122501
0.125009
0.12735
0.129526
0.131541
0.133397
0.135093
0.136628
0.137995
0.139186
0.140187
0.140977
0.141528
0.141799
0.141758
0.141342
0.140485
0.139146
0.128662
0.117674
0.106605
0.0956315
0.0848895
0.0744878
0.0645162
0.0550512
0.0461609
0.0379096
0.0303955
0.0236085
0.0176623
0.0126193
0.00853028
0.00541091
0.00320717
0.00177961
0.000931133
0.000463717
0.000222622
0.000104146
4.7682e-05
2.14315e-05
9.47951e-06
4.13465e-06
1.78157e-06
7.5962e-07
3.20944e-07
1.34497e-07
5.58983e-08
2.29788e-08
9.25808e-09
3.55701e-09
1.19218e-09
2.09394e-10
4.46211e-07
1.95041e-06
4.48122e-06
8.72398e-06
1.57997e-05
2.75205e-05
4.67751e-05
7.80952e-05
0.000128459
0.000208381
0.000333308
0.000525253
0.000814472
0.00124075
0.0018536
0.00271067
0.00387355
0.00540131
0.00734282
0.00973001
0.012574
0.0158647
0.0195741
0.0236602
0.0280722
0.0327542
0.0376489
0.0426993
0.0478512
0.0530539
0.0582613
0.0634324
0.0685312
0.0735273
0.0783954
0.0831151
0.0876701
0.0920479
0.0962397
0.10024
0.104046
0.107657
0.111074
0.114299
0.117337
0.120191
0.122866
0.125367
0.127698
0.129864
0.131866
0.133706
0.135384
0.136897
0.138237
0.139393
0.140348
0.141076
0.141535
0.141677
0.141431
0.140689
0.139301
0.137091
0.125994
0.114779
0.103606
0.0926086
0.0819022
0.071582
0.0617298
0.0524173
0.0437097
0.0356694
0.0283615
0.0218341
0.016163
0.0114058
0.00760339
0.00475369
0.00277992
0.00152569
0.000792096
0.000392602
0.000188185
8.80226e-05
4.03313e-05
1.81524e-05
8.04298e-06
3.51484e-06
1.51752e-06
6.48294e-07
2.74409e-07
1.15185e-07
4.79396e-08
1.97301e-08
7.95643e-09
3.05887e-09
1.02553e-09
1.80173e-10
4.52573e-07
1.97816e-06
4.54474e-06
8.84717e-06
1.60219e-05
2.79056e-05
4.74257e-05
7.91731e-05
0.000130214
0.00021119
0.000337723
0.000532059
0.000824738
0.00125587
0.0018753
0.00274094
0.00391452
0.00545506
0.0074112
0.00981449
0.0126756
0.0159841
0.0197115
0.0238159
0.028246
0.032946
0.0378584
0.0429264
0.0480954
0.0533148
0.0585383
0.0637248
0.0688382
0.0738479
0.0787286
0.0834596
0.0880246
0.0924109
0.0966097
0.100615
0.104425
0.108038
0.111455
0.114679
0.117714
0.120563
0.123232
0.125724
0.128046
0.130199
0.132187
0.134012
0.135671
0.137161
0.138476
0.139601
0.140519
0.1412
0.141595
0.141657
0.141296
0.140381
0.138714
0.134121
0.123003
0.111774
0.100613
0.0896605
0.079031
0.0688183
0.0591018
0.0499509
0.0414287
0.0336042
0.0265141
0.0202331
0.0148225
0.0103339
0.00679743
0.00419256
0.00242192
0.0013164
0.000678877
0.000335115
0.000160405
7.50051e-05
3.43794e-05
1.54857e-05
6.86856e-06
3.00516e-06
1.29908e-06
5.55662e-07
2.35478e-07
9.89493e-08
4.12204e-08
1.69774e-08
6.85025e-09
2.63456e-09
8.83356e-10
1.55226e-10
4.58342e-07
2.00332e-06
4.60238e-06
8.959e-06
1.62238e-05
2.8256e-05
4.80189e-05
8.01585e-05
0.000131824
0.000213777
0.00034181
0.000538396
0.000834365
0.00127016
0.00189599
0.00277006
0.00395431
0.00550777
0.00747891
0.00989889
0.0127779
0.0161052
0.0198518
0.0239754
0.0284247
0.0331436
0.0380745
0.0431605
0.0483469
0.053583
0.0588224
0.0640237
0.069151
0.0741735
0.0790656
0.0838068
0.0883806
0.0927741
0.0969786
0.100988
0.1048
0.108414
0.11183
0.115051
0.118082
0.120925
0.123586
0.12607
0.12838
0.130521
0.132494
0.134302
0.135942
0.137411
0.138702
0.139802
0.140694
0.141351
0.141728
0.141791
0.14147
0.140671
0.139274
0.131181
0.120097
0.1089
0.0977842
0.0868991
0.0763611
0.0662641
0.056686
0.0476945
0.0393508
0.0317414
0.0248625
0.0188111
0.0136425
0.00940136
0.00610618
0.00371888
0.0021242
0.00114434
0.00058644
0.00028831
0.000137776
6.43819e-05
2.95101e-05
1.32981e-05
5.90256e-06
2.58487e-06
1.11853e-06
4.78937e-07
2.0317e-07
8.54527e-08
3.56263e-08
1.46827e-08
5.9271e-09
2.28015e-09
7.64525e-10
1.34372e-10
4.63653e-07
2.02649e-06
4.65551e-06
9.06223e-06
1.64104e-05
2.85807e-05
4.857e-05
8.10769e-05
0.00013333
0.000216208
0.000345669
0.00054441
0.000843548
0.00128387
0.00191593
0.00279828
0.00399307
0.00555936
0.00754545
0.00998218
0.0128793
0.0162255
0.0199915
0.0241347
0.0286033
0.0333414
0.0382908
0.0433946
0.0485981
0.0538504
0.059105
0.0643205
0.0694607
0.0744948
0.0793973
0.0841474
0.0887286
0.0931281
0.0973368
0.101349
0.105162
0.108776
0.11219
0.115408
0.118433
0.121269
0.123922
0.126395
0.128693
0.13082
0.132778
0.134566
0.136185
0.137629
0.138891
0.139958
0.14081
0.141423
0.141753
0.141773
0.141418
0.140616
0.139302
0.128717
0.117545
0.10632
0.0952225
0.0843923
0.0739397
0.0639536
0.0545083
0.0456684
0.0374931
0.0300686
0.0233906
0.0175555
0.0126118
0.00859734
0.00551913
0.00332303
0.00187913
0.00100443
0.000511896
0.00025075
0.000119643
5.58672e-05
2.56019e-05
1.15388e-05
5.12372e-06
2.24508e-06
9.72158e-07
4.16567e-07
1.7684e-07
7.44278e-08
3.10473e-08
1.28011e-08
5.16909e-09
1.98884e-09
6.66783e-10
1.17216e-10
4.6857e-07
2.04796e-06
4.70474e-06
9.15795e-06
1.65837e-05
2.88826e-05
4.90834e-05
8.19342e-05
0.000134739
0.000218489
0.000349301
0.000550089
0.000852251
0.0012969
0.00193498
0.00282533
0.00403034
0.00560915
0.00760988
0.010063
0.0129779
0.0163428
0.020128
0.0242903
0.028778
0.0335347
0.0385021
0.0436232
0.0488431
0.0541107
0.0593796
0.0646081
0.0697601
0.0748047
0.0797163
0.0844741
0.0890614
0.0934655
0.0976775
0.101692
0.105505
0.109116
0.112528
0.115741
0.11876
0.121589
0.124233
0.126696
0.128981
0.131094
0.133034
0.134803
0.136398
0.137814
0.139041
0.140063
0.140857
0.141388
0.141608
0.14147
0.140881
0.139728
0.137895
0.12668
0.115333
0.104036
0.092935
0.082149
0.0717751
0.0618939
0.0525739
0.0438753
0.0358536
0.0285666
0.0220791
0.0164557
0.011722
0.00791248
0.00502605
0.00299522
0.00167875
0.00089112
0.0004519
0.000220664
0.000105129
4.90485e-05
2.24687e-05
1.01261e-05
4.4973e-06
1.97131e-06
8.54005e-07
3.6613e-07
1.55511e-07
6.54829e-08
2.73269e-08
1.12705e-08
4.55191e-09
1.7515e-09
5.87116e-10
1.03232e-10
4.73121e-07
2.06783e-06
4.75035e-06
9.2467e-06
1.67445e-05
2.91631e-05
4.95611e-05
8.27334e-05
0.000136056
0.000220625
0.000352708
0.00055543
0.000860456
0.00130923
0.00195301
0.00285101
0.0040658
0.00565658
0.00767134
0.0101403
0.0130722
0.0164551
0.0202586
0.0244394
0.0289453
0.0337196
0.0387042
0.0438415
0.0490767
0.0543586
0.0596406
0.064881
0.0700436
0.0750974
0.0800168
0.0847811
0.0893734
0.0937811
0.0979951
0.10201
0.105822
0.109432
0.112839
0.116048
0.11906
0.121882
0.124516
0.126968
0.129242
0.13134
0.133265
0.135015
0.136588
0.137978
0.139172
0.140154
0.140895
0.14135
0.141473
0.141186
0.140366
0.138837
0.135963
0.124639
0.113239
0.101935
0.0908646
0.0801397
0.0698516
0.0600765
0.05088
0.0423207
0.0344532
0.0273292
0.0210058
0.0155416
0.0109773
0.00734042
0.00461723
0.00272613
0.00151586
0.000799726
0.000403744
0.000196687
9.35649e-05
4.3613e-05
1.99684e-05
8.99729e-06
3.99592e-06
1.75181e-06
7.59115e-07
3.25556e-07
1.38326e-07
5.82654e-08
2.43212e-08
1.00326e-08
4.05238e-09
1.55931e-09
5.22582e-10
9.19066e-11
4.77309e-07
2.08611e-06
4.79233e-06
9.32843e-06
1.68927e-05
2.94218e-05
5.00021e-05
8.34722e-05
0.000137274
0.000222604
0.000355872
0.000560397
0.000868099
0.00132072
0.00196987
0.00287502
0.004099
0.00570104
0.00772901
0.0102128
0.0131608
0.0165605
0.0203812
0.0245793
0.0291022
0.0338931
0.0388935
0.0440459
0.0492951
0.05459
0.0598837
0.0651347
0.0703066
0.0753684
0.0802945
0.0850641
0.0896604
0.0940706
0.0982858
0.1023
0.106111
0.109718
0.113122
0.116325
0.119331
0.122145
0.124771
0.127213
0.129475
0.131561
0.133471
0.135206
0.136762
0.138133
0.139307
0.140266
0.140984
0.141415
0.14152
0.141226
0.140428
0.138986
0.133969
0.122654
0.111278
0.100015
0.0890037
0.0783537
0.0681552
0.058483
0.0494013
0.0409676
0.0332355
0.0262671
0.0200995
0.0147576
0.0103439
0.00685986
0.00427792
0.00250536
0.00138355
0.000726037
0.000365109
0.000177495
8.43191e-05
3.92682e-05
1.79692e-05
8.09412e-06
3.59444e-06
1.57587e-06
6.82977e-07
2.92965e-07
1.24507e-07
5.2456e-08
2.18998e-08
9.03456e-09
3.64948e-09
1.40427e-09
4.70528e-10
8.27749e-11
4.81116e-07
2.10274e-06
4.83051e-06
9.4028e-06
1.70276e-05
2.96575e-05
5.04044e-05
8.41465e-05
0.000138387
0.000224415
0.000358769
0.00056495
0.000875111
0.00133128
0.00198535
0.00289711
0.00412955
0.00574197
0.0077821
0.0102795
0.0132424
0.0166575
0.0204941
0.024708
0.0292465
0.0340524
0.0390672
0.0442331
0.049495
0.0548014
0.0601056
0.0653659
0.0705458
0.0756144
0.080546
0.0853199
0.0899192
0.0943311
0.0985469
0.102561
0.10637
0.109973
0.113373
0.11657
0.11957
0.122377
0.124994
0.127427
0.129679
0.131753
0.133652
0.135374
0.136916
0.138273
0.139433
0.140379
0.141088
0.141516
0.141629
0.141363
0.140627
0.139307
0.13213
0.120856
0.109526
0.0983175
0.0873706
0.0767954
0.0666815
0.0571033
0.0481245
0.0398021
0.0321989
0.0253545
0.0193002
0.0141168
0.00981705
0.00646026
0.00399794
0.00232484
0.00127626
0.000666676
0.000334126
0.000162138
7.6929e-05
3.57968e-05
1.63719e-05
7.37225e-06
3.27337e-06
1.43507e-06
6.21997e-07
2.66841e-07
1.13422e-07
4.77922e-08
1.99546e-08
8.23245e-09
3.32567e-09
1.2797e-09
4.28691e-10
7.54404e-11
4.84522e-07
2.11761e-06
4.86467e-06
9.46934e-06
1.71484e-05
2.98686e-05
5.07647e-05
8.47511e-05
0.000139386
0.00022604
0.000361372
0.000569043
0.000881417
0.00134077
0.0019993
0.002917
0.00415707
0.00577883
0.00782991
0.0103396
0.0133158
0.0167449
0.0205956
0.0248237
0.0293761
0.0341955
0.039223
0.0444009
0.0496738
0.0549903
0.0603036
0.0655718
0.0707585
0.0758328
0.0807689
0.0855461
0.0901476
0.0945606
0.0987762
0.102789
0.106596
0.110196
0.113591
0.116783
0.119777
0.122576
0.125186
0.12761
0.129852
0.131916
0.133803
0.135513
0.137043
0.138386
0.139533
0.140466
0.141161
0.141577
0.141679
0.141402
0.140654
0.139317
0.130591
0.119332
0.108033
0.0968689
0.0859767
0.075466
0.0654252
0.0559278
0.0470366
0.0388078
0.0313131
0.0245507
0.018611
0.0135431
0.00938437
0.00612932
0.00376771
0.00217785
0.00118963
0.00061904
0.000309367
0.000149891
7.10413e-05
3.30323e-05
1.50998e-05
6.79722e-06
3.0175e-06
1.3228e-06
5.73343e-07
2.45985e-07
1.04567e-07
4.40648e-08
1.83995e-08
7.59115e-09
3.0669e-09
1.18013e-09
3.95247e-10
6.95799e-11
4.87497e-07
2.13061e-06
4.89452e-06
9.52751e-06
1.7254e-05
3.00532e-05
5.108e-05
8.52802e-05
0.000140261
0.000227464
0.000363652
0.000572631
0.000886948
0.00134911
0.00201153
0.00293446
0.00418122
0.00581118
0.00787186
0.0103924
0.0133801
0.0168214
0.0206846
0.024925
0.0294895
0.0343205
0.039359
0.0445472
0.0498297
0.0551548
0.0604757
0.0657505
0.0709429
0.0760217
0.0809614
0.0857411
0.0903441
0.0947575
0.0989726
0.102984
0.106788
0.110385
0.113776
0.116963
0.119951
0.122743
0.125345
0.127761
0.129994
0.132047
0.133924
0.135622
0.137139
0.13847
0.139603
0.140522
0.141203
0.141604
0.141692
0.141401
0.140634
0.139278
0.129385
0.118112
0.106819
0.0956783
0.0848234
0.0743613
0.0643782
0.0549458
0.0461273
0.0379848
0.0305545
0.0238834
0.0180388
0.013068
0.00900613
0.00586009
0.00358054
0.00205924
0.00112027
0.000581109
0.000289723
0.00014019
6.63821e-05
3.08455e-05
1.40936e-05
6.34229e-06
2.81501e-06
1.23392e-06
5.34811e-07
2.29462e-07
9.75491e-08
4.11106e-08
1.71676e-08
7.08345e-09
2.86206e-09
1.10132e-09
3.68771e-10
6.49423e-11
4.90017e-07
2.14162e-06
4.9198e-06
9.57677e-06
1.73434e-05
3.02096e-05
5.13471e-05
8.57286e-05
0.000141002
0.000228671
0.000365586
0.000575674
0.000891641
0.00135618
0.00202191
0.00294927
0.00420171
0.00583862
0.00790744
0.0104371
0.0134347
0.0168862
0.0207599
0.0250107
0.0295854
0.0344262
0.039474
0.0446708
0.0499611
0.0552934
0.0606205
0.0659007
0.0710975
0.07618
0.0811223
0.0859038
0.0905076
0.094921
0.0991352
0.103145
0.106946
0.11054
0.113927
0.117109
0.120091
0.122877
0.125472
0.127879
0.130103
0.132147
0.134013
0.135699
0.137204
0.13852
0.139638
0.140542
0.141208
0.141596
0.141677
0.141391
0.140657
0.139395
0.128572
0.117205
0.105874
0.0947297
0.083894
0.0734664
0.0635289
0.0541514
0.0453958
0.0373044
0.0299392
0.0233429
0.0175768
0.0126872
0.00870787
0.00564352
0.00343477
0.00196603
0.00106572
0.000551365
0.000274351
0.000132607
6.27414e-05
2.9137e-05
1.33075e-05
5.98688e-06
2.6568e-06
1.16448e-06
5.04706e-07
2.16554e-07
9.2071e-08
3.88076e-08
1.62078e-08
6.68793e-09
2.70248e-09
1.03994e-09
3.4815e-10
6.13318e-11
4.92058e-07
2.15053e-06
4.94027e-06
9.61666e-06
1.74158e-05
3.03363e-05
5.15635e-05
8.60917e-05
0.000141603
0.000229649
0.000367153
0.00057814
0.000895444
0.00136191
0.00203033
0.00296127
0.00421831
0.00586086
0.00793627
0.0104733
0.0134789
0.0169388
0.0208209
0.0250801
0.029663
0.0345116
0.0395669
0.0447705
0.0500672
0.055405
0.060737
0.0660214
0.0712216
0.0763067
0.0812509
0.0860335
0.0906376
0.0950507
0.0992638
0.103271
0.107071
0.110661
0.114044
0.117222
0.120199
0.122979
0.125567
0.127966
0.130182
0.132216
0.134071
0.135745
0.137236
0.138537
0.139637
0.14052
0.141161
0.141518
0.141562
0.141225
0.140416
0.139046
0.127821
0.116442
0.105106
0.09397
0.0831536
0.072755
0.0628557
0.0535224
0.0448068
0.0367679
0.0294559
0.022919
0.0172149
0.0123891
0.00847354
0.00546933
0.00331986
0.00189517
0.00102419
0.000528654
0.00026261
0.000126814
5.99603e-05
2.7832e-05
1.27072e-05
5.71558e-06
2.53611e-06
1.11153e-06
4.81786e-07
2.06747e-07
8.79148e-08
3.70608e-08
1.54799e-08
6.38807e-09
2.58152e-09
9.93425e-10
3.32525e-10
5.85971e-11
4.93601e-07
2.15727e-06
4.95574e-06
9.64681e-06
1.74705e-05
3.04319e-05
5.17269e-05
8.63661e-05
0.000142056
0.000230387
0.000368337
0.000580004
0.000898318
0.00136624
0.00203669
0.00297035
0.00423087
0.00587767
0.00795806
0.0105007
0.0135123
0.0169785
0.020867
0.0251326
0.0297216
0.0345762
0.039637
0.0448458
0.0501471
0.0554891
0.0608248
0.0661121
0.0713147
0.0764016
0.0813469
0.08613
0.0907342
0.0951466
0.0993586
0.103364
0.107162
0.110749
0.114129
0.117303
0.120275
0.12305
0.125631
0.128024
0.130232
0.132257
0.134102
0.135764
0.137242
0.138527
0.139609
0.140469
0.141084
0.141407
0.141413
0.141027
0.14016
0.138723
0.127364
0.115915
0.10455
0.0934076
0.0826022
0.0722253
0.0623521
0.0530459
0.0443668
0.0363674
0.0290971
0.0226044
0.0169468
0.0121686
0.00830067
0.00534177
0.00323184
0.00184148
0.000993496
0.000511972
0.000253986
0.000122563
5.7922e-05
2.68772e-05
1.22688e-05
5.51792e-06
2.44844e-06
1.07321e-06
4.65227e-07
1.99666e-07
8.49142e-08
3.57999e-08
1.49546e-08
6.17173e-09
2.49428e-09
9.59888e-10
3.21262e-10
5.66263e-11
4.94633e-07
2.16177e-06
4.96609e-06
9.66695e-06
1.75071e-05
3.04958e-05
5.18359e-05
8.65489e-05
0.000142358
0.000230879
0.000369125
0.000581243
0.00090023
0.00136912
0.00204092
0.00297639
0.00423923
0.00588888
0.0079726
0.0105189
0.0135346
0.017005
0.0208978
0.0251677
0.0297609
0.0346194
0.039684
0.0448963
0.0502006
0.0555454
0.0608833
0.0661726
0.0713767
0.0764645
0.0814104
0.0861936
0.0907975
0.0952093
0.0994203
0.103425
0.10722
0.110805
0.114182
0.117353
0.120322
0.123093
0.125669
0.128057
0.130258
0.132276
0.134112
0.135765
0.137231
0.138503
0.139569
0.14041
0.141003
0.141299
0.141274
0.140849
0.139934
0.138441
0.127027
0.115546
0.104167
0.0930249
0.0822273
0.0718635
0.0620078
0.0527249
0.0440713
0.0360992
0.0288577
0.0223952
0.0167688
0.0120227
0.00818684
0.00525833
0.00317492
0.00180527
0.000972857
0.000500832
0.000248258
0.000119753
5.65816e-05
2.62521e-05
1.1983e-05
5.38939e-06
2.39147e-06
1.04829e-06
4.54456e-07
1.95059e-07
8.29619e-08
3.49796e-08
1.46129e-08
6.03105e-09
2.43758e-09
9.38092e-10
3.13947e-10
5.5346e-11
4.95146e-07
2.16401e-06
4.97121e-06
9.67688e-06
1.7525e-05
3.0527e-05
5.1889e-05
8.66378e-05
0.000142505
0.000231117
0.000369505
0.000581839
0.000901148
0.0013705
0.00204295
0.00297928
0.00424324
0.00589426
0.0079796
0.0105278
0.0135454
0.0170179
0.0209128
0.0251848
0.02978
0.0346406
0.039707
0.044921
0.0502269
0.055573
0.0609122
0.0662024
0.0714071
0.0764954
0.0814415
0.0862247
0.0908283
0.0952396
0.0994499
0.103454
0.107248
0.110832
0.114207
0.117377
0.120343
0.123111
0.125685
0.128069
0.130267
0.132281
0.134111
0.135758
0.137217
0.13848
0.139536
0.140366
0.140945
0.141226
0.141184
0.14074
0.139806
0.138297
0.126846
0.115348
0.103963
0.0928216
0.08203
0.0716757
0.0618321
0.0525625
0.0439229
0.0359655
0.028739
0.0222921
0.0166818
0.0119518
0.00813193
0.00521842
0.00314796
0.00178836
0.000962865
0.000495408
0.00024547
0.000118397
5.59379e-05
2.59527e-05
1.18462e-05
5.32787e-06
2.3642e-06
1.03635e-06
4.49289e-07
1.92845e-07
8.2022e-08
3.45838e-08
1.44477e-08
5.9629e-09
2.41006e-09
9.27482e-10
3.10383e-10
5.47207e-11
4.95157e-07
2.16406e-06
4.97132e-06
9.67711e-06
1.75255e-05
3.05278e-05
5.18903e-05
8.66399e-05
0.000142508
0.000231123
0.000369514
0.000581854
0.000901169
0.00137054
0.00204299
0.00297935
0.00424332
0.00589437
0.00797974
0.0105279
0.0135456
0.0170181
0.020913
0.025185
0.0297803
0.0346408
0.0397073
0.0449213
0.0502273
0.0555734
0.0609125
0.0662027
0.0714075
0.0764957
0.0814418
0.086225
0.0908286
0.0952399
0.0994502
0.103454
0.107248
0.110832
0.114208
0.117377
0.120343
0.123112
0.125686
0.12807
0.130267
0.132281
0.134112
0.135759
0.137217
0.138481
0.139536
0.140367
0.140945
0.141227
0.141184
0.14074
0.139806
0.138296
0.126845
0.115347
0.103962
0.0928207
0.0820292
0.071675
0.0618315
0.052562
0.0439224
0.035965
0.0287387
0.0222918
0.0166815
0.0119516
0.00813175
0.00521829
0.00314787
0.0017883
0.000962834
0.000495393
0.000245463
0.000118394
5.59362e-05
2.59519e-05
1.18458e-05
5.32768e-06
2.36411e-06
1.03631e-06
4.4927e-07
1.92837e-07
8.20182e-08
3.45822e-08
1.4447e-08
5.9626e-09
2.40993e-09
9.27421e-10
3.1037e-10
5.47159e-11
4.94667e-07
2.16192e-06
4.96643e-06
9.66762e-06
1.75083e-05
3.04979e-05
5.18396e-05
8.65551e-05
0.000142368
0.000230896
0.000369151
0.000581285
0.000900293
0.00136921
0.00204105
0.00297658
0.00423948
0.0058892
0.00797301
0.0105194
0.0135352
0.0170056
0.0208985
0.0251684
0.0297617
0.0346203
0.0396849
0.0448972
0.0502016
0.0555463
0.0608843
0.0661736
0.0713777
0.0764655
0.0814114
0.0861946
0.0907985
0.0952103
0.0994212
0.103426
0.107221
0.110806
0.114183
0.117354
0.120323
0.123093
0.12567
0.128058
0.130259
0.132277
0.134113
0.135766
0.137232
0.138504
0.139569
0.140411
0.141003
0.141299
0.141273
0.140848
0.139932
0.138438
0.127024
0.115544
0.104165
0.0930229
0.0822254
0.0718617
0.0620061
0.0527233
0.0440699
0.036098
0.0288565
0.0223941
0.0167679
0.012022
0.00818628
0.00525794
0.00317467
0.00180514
0.000972798
0.000500808
0.000248247
0.000119748
5.65793e-05
2.6251e-05
1.19825e-05
5.38912e-06
2.39134e-06
1.04822e-06
4.54426e-07
1.95044e-07
8.29552e-08
3.49765e-08
1.46115e-08
6.03043e-09
2.43731e-09
9.37943e-10
3.13917e-10
5.53335e-11
4.93658e-07
2.15751e-06
4.95632e-06
9.64793e-06
1.74726e-05
3.04356e-05
5.17331e-05
8.63766e-05
0.000142074
0.000230416
0.000368382
0.000580074
0.000898426
0.0013664
0.00203692
0.00297067
0.0042313
0.00587824
0.00795877
0.0105015
0.0135133
0.0169796
0.0208682
0.0251339
0.0297231
0.0345777
0.0396386
0.0448475
0.0501488
0.0554908
0.0608264
0.0661138
0.0713164
0.0764033
0.0813486
0.0861317
0.0907358
0.0951483
0.0993602
0.103366
0.107163
0.110751
0.11413
0.117304
0.120277
0.123051
0.125633
0.128026
0.130234
0.132259
0.134103
0.135766
0.137243
0.138528
0.13961
0.140471
0.141085
0.141408
0.141413
0.141026
0.140157
0.138719
0.12736
0.115911
0.104546
0.0934039
0.0825987
0.0722219
0.0623489
0.0530429
0.044364
0.0363649
0.0290949
0.0226026
0.0169452
0.0121673
0.0082997
0.0053411
0.00323144
0.00184127
0.000993393
0.000511917
0.000253958
0.000122549
5.79156e-05
2.68741e-05
1.22673e-05
5.51725e-06
2.44813e-06
1.07307e-06
4.65163e-07
1.99637e-07
8.49012e-08
3.57941e-08
1.4952e-08
6.17062e-09
2.49381e-09
9.59634e-10
3.21211e-10
5.66052e-11
4.92136e-07
2.15087e-06
4.94106e-06
9.61821e-06
1.74187e-05
3.03412e-05
5.1572e-05
8.61061e-05
0.000141626
0.000229687
0.000367215
0.000578237
0.000895592
0.00136213
0.00203064
0.00296172
0.00421891
0.00586164
0.00793725
0.0104745
0.0134803
0.0169403
0.0208226
0.025082
0.029665
0.0345138
0.0395691
0.0447729
0.0500695
0.0554074
0.0607394
0.0660238
0.071224
0.0763091
0.0812533
0.0860358
0.09064
0.095053
0.0992661
0.103274
0.107073
0.110663
0.114046
0.117224
0.120201
0.122981
0.125569
0.127968
0.130184
0.132218
0.134073
0.135747
0.137238
0.138539
0.139639
0.140521
0.141162
0.141519
0.141561
0.141223
0.140414
0.139044
0.127818
0.116436
0.1051
0.093964
0.0831478
0.0727496
0.0628506
0.0535179
0.0448028
0.0367644
0.0294528
0.0229163
0.0172127
0.0123873
0.00847217
0.00546844
0.00331933
0.00189485
0.001024
0.00052856
0.000262567
0.000126794
5.99513e-05
2.7828e-05
1.27054e-05
5.71473e-06
2.53572e-06
1.11136e-06
4.81705e-07
2.0671e-07
8.78983e-08
3.70534e-08
1.54766e-08
6.38665e-09
2.58091e-09
9.93093e-10
3.32459e-10
5.8569e-11
4.90116e-07
2.14205e-06
4.9208e-06
9.57873e-06
1.7347e-05
3.02159e-05
5.13579e-05
8.57468e-05
0.000141032
0.00022872
0.000365665
0.000575797
0.000891829
0.00135646
0.00202231
0.00294983
0.00420247
0.00583962
0.00790869
0.0104386
0.0134365
0.0168883
0.0207622
0.0250132
0.029588
0.034429
0.0394769
0.0446738
0.0499642
0.0552964
0.0606236
0.0659038
0.0711006
0.0761831
0.0811254
0.0859068
0.0905106
0.094924
0.0991381
0.103147
0.106949
0.110543
0.113929
0.117112
0.120094
0.12288
0.125474
0.127882
0.130106
0.13215
0.134015
0.135701
0.137206
0.138523
0.139641
0.140544
0.14121
0.141598
0.141678
0.14139
0.140654
0.139393
0.128563
0.117196
0.105865
0.0947213
0.0838864
0.0734596
0.0635228
0.0541457
0.0453906
0.0372998
0.0299352
0.0233395
0.017574
0.0126849
0.00870618
0.0056423
0.00343392
0.00196551
0.00106546
0.000551243
0.000274295
0.000132581
6.27302e-05
2.9132e-05
1.33052e-05
5.98585e-06
2.65634e-06
1.16426e-06
5.04609e-07
2.1651e-07
9.20512e-08
3.87987e-08
1.62038e-08
6.68622e-09
2.70174e-09
1.03953e-09
3.4807e-10
6.12971e-11
4.87616e-07
2.13113e-06
4.89572e-06
9.52987e-06
1.72583e-05
3.00608e-05
5.1093e-05
8.53021e-05
0.000140297
0.000227522
0.000363746
0.000572778
0.000887173
0.00134944
0.00201201
0.00293514
0.00418214
0.00581238
0.00787338
0.0103942
0.0133823
0.0168239
0.0206873
0.024928
0.0294927
0.0343239
0.0393626
0.0445509
0.0498334
0.0551586
0.0604795
0.0657544
0.0709467
0.0760255
0.0809652
0.0857449
0.0903478
0.0947612
0.0989762
0.102987
0.106791
0.110388
0.113779
0.116966
0.119954
0.122746
0.125348
0.127763
0.129996
0.13205
0.133926
0.135625
0.137142
0.138473
0.139606
0.140524
0.141205
0.141606
0.141693
0.1414
0.140632
0.139276
0.129373
0.1181
0.106808
0.0956675
0.0848135
0.0743523
0.0643701
0.0549384
0.0461205
0.0379785
0.0305489
0.0238786
0.0180348
0.0130649
0.0090038
0.00585838
0.0035794
0.00205862
0.00111995
0.000580957
0.000289654
0.00014016
6.63685e-05
3.08395e-05
1.40909e-05
6.34109e-06
2.81446e-06
1.23367e-06
5.34699e-07
2.2941e-07
9.75258e-08
4.11002e-08
1.7163e-08
7.08143e-09
2.86119e-09
1.10084e-09
3.68674e-10
6.49007e-11
4.8466e-07
2.11822e-06
4.86607e-06
9.4721e-06
1.71534e-05
2.98775e-05
5.07799e-05
8.47765e-05
0.000139428
0.000226108
0.000361481
0.000569214
0.000881679
0.00134116
0.00199986
0.00291779
0.00415814
0.00578024
0.00783169
0.0103418
0.0133183
0.0167478
0.0205989
0.0248273
0.0293799
0.0341995
0.0392272
0.0444052
0.0496783
0.0549949
0.0603081
0.0655763
0.0707631
0.0758373
0.0807734
0.0855506
0.090152
0.0945649
0.0987805
0.102793
0.1066
0.1102
0.113595
0.116787
0.119781
0.12258
0.125189
0.127613
0.129855
0.131919
0.133806
0.135516
0.137046
0.138389
0.139536
0.140469
0.141164
0.141579
0.14168
0.141402
0.140652
0.139317
0.130577
0.119318
0.108019
0.0968559
0.0859646
0.0754547
0.0654146
0.0559176
0.0470268
0.0387983
0.0313041
0.0245425
0.0186045
0.0135383
0.00938094
0.00612697
0.00376639
0.00217711
0.00118924
0.00061885
0.000309282
0.000149853
7.10249e-05
3.30251e-05
1.50966e-05
6.79582e-06
3.01687e-06
1.32252e-06
5.73215e-07
2.45927e-07
1.0454e-07
4.40529e-08
1.83942e-08
7.58877e-09
3.06591e-09
1.17957e-09
3.95129e-10
6.95314e-11
4.81275e-07
2.10343e-06
4.83211e-06
9.40594e-06
1.70333e-05
2.96676e-05
5.04216e-05
8.41755e-05
0.000138435
0.000224492
0.000358893
0.000565144
0.000875408
0.00133172
0.001986
0.00289801
0.00413078
0.00574357
0.00778412
0.010282
0.0132453
0.0166609
0.0204979
0.0247121
0.0292509
0.0340571
0.0390721
0.0442382
0.0495001
0.0548067
0.0601109
0.0653712
0.0705511
0.0756197
0.0805513
0.0853251
0.0899243
0.0943362
0.0985518
0.102565
0.106374
0.109978
0.113377
0.116575
0.119575
0.122381
0.124998
0.127431
0.129682
0.131757
0.133655
0.135377
0.136919
0.138276
0.139435
0.140382
0.141089
0.141518
0.14163
0.141363
0.140628
0.139309
0.132113
0.120838
0.109509
0.0983017
0.0873557
0.0767815
0.0666685
0.0570911
0.0481126
0.0397896
0.0321837
0.0253317
0.0192886
0.0141103
0.0098127
0.00645768
0.00399631
0.00232389
0.00127576
0.000666436
0.000334019
0.000162092
7.6909e-05
3.57882e-05
1.63681e-05
7.37063e-06
3.27265e-06
1.43475e-06
6.21853e-07
2.66776e-07
1.13392e-07
4.77791e-08
1.99488e-08
8.22976e-09
3.32454e-09
1.27906e-09
4.28554e-10
7.53859e-11
4.77486e-07
2.08689e-06
4.79412e-06
9.33194e-06
1.68991e-05
2.9433e-05
5.00214e-05
8.35045e-05
0.000137328
0.000222691
0.000356011
0.000560614
0.00086843
0.00132121
0.00197058
0.00287603
0.00410037
0.00570284
0.00773128
0.0102155
0.0131641
0.0165643
0.0203855
0.0245839
0.0291072