/*--------------------------------*- C++ -*----------------------------------*\
  =========                 |
  \\      /  F ield         | OpenFOAM: The Open Source CFD Toolbox
   \\    /   O peration     | Website:  https://openfoam.org
    \\  /    A nd           | Version:  8
     \\/     M anipulation  |
\*---------------------------------------------------------------------------*/
FoamFile
{
    version     2.0;
    format      ascii;
    class       volScalarField;
    location    "260/fluid";
    object      H2O;
}
// * * * * * * * * * * * * * * * * * * * * * * * * * * * * * * * * * * * * * //

dimensions      [0 0 0 0 0 0 0];

internalField   nonuniform List<scalar> 
4000
(
3.31717e-07
1.44867e-06
3.32289e-06
6.45506e-06
1.16639e-05
2.0275e-05
3.44096e-05
5.74152e-05
9.44898e-05
0.000153548
0.000246362
0.000389956
0.000608108
0.000932625
0.00140382
0.00206947
0.00298156
0.00419083
0.00573992
0.00765709
0.00995241
0.0126174
0.0156276
0.0189467
0.0225309
0.0263327
0.0303039
0.0343976
0.0385695
0.0427788
0.0469889
0.0511673
0.0552861
0.0593216
0.0632542
0.0670683
0.0707518
0.0742952
0.0776919
0.0809379
0.0840309
0.0869706
0.0897579
0.0923946
0.0948837
0.0972283
0.0994322
0.101499
0.103432
0.105236
0.106911
0.108461
0.109885
0.111182
0.112349
0.113379
0.114264
0.114989
0.115534
0.115868
0.115961
0.115767
0.115224
0.114255
0.112785
0.104105
0.0952621
0.0864041
0.077646
0.0690805
0.0607834
0.0528179
0.0452387
0.0380951
0.0314341
0.0253369
0.0197823
0.0148694
0.0106576
0.00720354
0.00454263
0.00265415
0.00143687
0.000725997
0.000347272
0.000160458
7.2214e-05
3.18425e-05
1.38159e-05
5.91754e-06
2.50829e-06
1.05423e-06
4.39989e-07
1.8249e-07
7.51884e-08
3.06811e-08
1.22832e-08
4.69529e-09
1.56792e-09
2.74717e-10
3.37158e-07
1.47327e-06
3.38284e-06
6.58072e-06
1.19101e-05
2.07371e-05
3.52478e-05
5.88888e-05
9.69988e-05
0.000157679
0.000252925
0.000399984
0.000622789
0.000953138
0.00143107
0.00210375
0.00302227
0.00423632
0.00578771
0.00770433
0.00999654
0.0126567
0.0156614
0.0189755
0.0225561
0.0263565
0.0303287
0.0344256
0.0386028
0.042819
0.0470372
0.0512243
0.055352
0.0593963
0.0633374
0.0671595
0.0708501
0.0743997
0.0778016
0.0810518
0.0841482
0.0870902
0.0898789
0.0925163
0.0950053
0.0973491
0.0995516
0.101616
0.103547
0.105347
0.107019
0.108565
0.109984
0.111275
0.112436
0.113458
0.114332
0.115043
0.115566
0.115867
0.115909
0.115631
0.114947
0.113745
0.111827
0.103019
0.0940899
0.0851708
0.0763686
0.0677715
0.0594535
0.0514774
0.0438989
0.036769
0.0301377
0.0240819
0.018604
0.0137996
0.00973074
0.00645259
0.00398694
0.00228641
0.0012214
0.000613612
0.000294159
0.000136791
6.21072e-05
2.76545e-05
1.21154e-05
5.23571e-06
2.23682e-06
9.4649e-07
3.9728e-07
1.65573e-07
6.85023e-08
2.80558e-08
1.12694e-08
4.31998e-09
1.44544e-09
2.53601e-10
3.45263e-07
1.50922e-06
3.46764e-06
6.7512e-06
1.22289e-05
2.1308e-05
3.6237e-05
6.05538e-05
9.97245e-05
0.000162017
0.000259629
0.000410029
0.000637351
0.000973523
0.00145857
0.00213942
0.00306668
0.00428932
0.00584833
0.00777096
0.0100672
0.0127295
0.015735
0.0190493
0.0226302
0.0264318
0.0304066
0.034508
0.0386913
0.0429153
0.0471425
0.0513397
0.0554781
0.0595333
0.0634851
0.0673175
0.0710177
0.0745759
0.0779853
0.0812418
0.0843432
0.0872891
0.0900804
0.0927191
0.0952083
0.0975512
0.0997518
0.101814
0.103741
0.105536
0.107202
0.108741
0.110153
0.111436
0.112587
0.113599
0.11446
0.115155
0.115659
0.115933
0.11594
0.115605
0.114824
0.11344
0.109982
0.101112
0.0921308
0.0831743
0.0743519
0.0657531
0.0574529
0.0495154
0.0419982
0.0349554
0.0284408
0.0225043
0.0172055
0.0126087
0.00877151
0.00573584
0.00349963
0.00198859
0.0010575
0.000531196
0.000255327
0.000119186
5.4342e-05
2.42981e-05
1.06863e-05
4.63392e-06
1.98538e-06
8.42007e-07
3.54033e-07
1.47732e-07
6.11753e-08
2.50716e-08
1.00763e-08
3.86413e-09
1.29355e-09
2.27026e-10
3.52777e-07
1.54211e-06
3.54343e-06
6.8991e-06
1.24967e-05
2.1772e-05
3.70163e-05
6.18291e-05
0.000101762
0.000165199
0.000264482
0.000417252
0.000647834
0.000988327
0.00147887
0.00216638
0.00310129
0.0043323
0.00589999
0.00783122
0.0101357
0.0128059
0.0158189
0.0191404
0.0227287
0.0265379
0.0305209
0.034631
0.0388239
0.0430583
0.0472964
0.051505
0.0556551
0.0597218
0.063685
0.0675282
0.0712384
0.0748057
0.0782231
0.0814864
0.0845932
0.0875431
0.090337
0.0929771
0.0954662
0.0978079
0.100006
0.102064
0.103986
0.105775
0.107434
0.108964
0.110366
0.111638
0.112776
0.113773
0.114619
0.115299
0.11579
0.116056
0.116069
0.115773
0.115093
0.113932
0.107662
0.0987656
0.0897594
0.0807915
0.0719777
0.0634105
0.055166
0.047309
0.0398972
0.0329844
0.0266463
0.0208879
0.0157962
0.0114287
0.00783506
0.00504331
0.00303016
0.00169957
0.000895517
0.000447534
0.000214923
0.00010044
4.59053e-05
2.05905e-05
9.08814e-06
3.95576e-06
1.70121e-06
7.24088e-07
3.0546e-07
1.27838e-07
5.30711e-08
2.17966e-08
8.77529e-09
3.36968e-09
1.12906e-09
1.98257e-10
3.59479e-07
1.57137e-06
3.61059e-06
7.02966e-06
1.27325e-05
2.21808e-05
3.77056e-05
6.29662e-05
0.000103601
0.000168112
0.000269002
0.000424107
0.000657975
0.00100292
0.00149927
0.00219399
0.00313747
0.00437814
0.00595624
0.00789825
0.0102136
0.0128944
0.0159179
0.0192498
0.0228486
0.0266685
0.0306624
0.0347839
0.0389885
0.0432348
0.0474851
0.051706
0.0558682
0.0599468
0.0639214
0.0677752
0.0714953
0.0750714
0.0784964
0.0817659
0.0848777
0.0878312
0.0906273
0.0932681
0.0957566
0.0980962
0.100291
0.102344
0.10426
0.106042
0.107691
0.109211
0.110599
0.111856
0.112975
0.113951
0.11477
0.115416
0.115868
0.116089
0.116056
0.115715
0.115014
0.113918
0.105334
0.0963388
0.0872768
0.0782927
0.0694983
0.0609825
0.0528189
0.0450699
0.0377915
0.0310362
0.0248846
0.0193281
0.0144599
0.0103313
0.00698366
0.00442986
0.00262568
0.00145695
0.00076231
0.000379641
0.000182258
8.52632e-05
3.90368e-05
1.75458e-05
7.76079e-06
3.385e-06
1.45856e-06
6.21894e-07
2.62754e-07
1.10112e-07
4.57634e-08
1.88126e-08
7.57951e-09
2.91209e-09
9.76027e-10
1.71429e-10
3.65309e-07
1.59678e-06
3.66873e-06
7.14225e-06
1.29351e-05
2.25308e-05
3.82943e-05
6.39358e-05
0.000105168
0.0001706
0.000272876
0.00043002
0.000666801
0.00101579
0.00151753
0.0022192
0.00317124
0.00442201
0.0060115
0.00796587
0.0102942
0.0129883
0.0160251
0.0193704
0.0229825
0.0268156
0.0308228
0.0349575
0.0391753
0.0434348
0.047698
0.0519315
0.0561059
0.0601962
0.0641816
0.0680456
0.0717748
0.0753588
0.0787906
0.0820656
0.0851815
0.0881376
0.090935
0.0935756
0.0960625
0.0983992
0.100589
0.102637
0.104546
0.106318
0.107957
0.109464
0.110838
0.112076
0.113173
0.11412
0.114902
0.115498
0.115873
0.115989
0.115788
0.115181
0.114044
0.112235
0.10315
0.0939689
0.084821
0.0758178
0.0670526
0.0586036
0.0505377
0.0429136
0.0357848
0.0292023
0.0232193
0.0178754
0.0132325
0.00933779
0.00622483
0.0038918
0.00227589
0.00124907
0.000648482
0.000321419
0.000154066
7.20633e-05
3.30189e-05
1.48612e-05
6.58472e-06
2.87757e-06
1.24238e-06
5.30753e-07
2.24656e-07
9.4301e-08
3.92478e-08
1.61529e-08
6.51386e-09
2.50427e-09
8.39595e-10
1.47506e-10
3.70518e-07
1.6195e-06
3.72074e-06
7.2431e-06
1.3117e-05
2.28461e-05
3.8827e-05
6.48183e-05
0.000106605
0.0001729
0.000276491
0.000435592
0.000675206
0.00102817
0.0015353
0.00224398
0.00320478
0.00446601
0.00606748
0.00803504
0.0103774
0.013086
0.0161377
0.0194978
0.0231248
0.0269726
0.0309944
0.0351434
0.0393753
0.0436483
0.0479248
0.0521709
0.0563572
0.0604586
0.0644544
0.0683277
0.072065
0.075656
0.0790935
0.0823729
0.0854918
0.0884496
0.0912472
0.0938868
0.0963711
0.0987038
0.100889
0.102929
0.10483
0.106593
0.108221
0.109714
0.111072
0.112293
0.113369
0.11429
0.115042
0.115599
0.115922
0.115973
0.115678
0.114928
0.113564
0.109804
0.100702
0.0915087
0.082371
0.0734043
0.0647019
0.0563409
0.0483861
0.0408944
0.0339173
0.0275114
0.0217069
0.0165646
0.0121351
0.00846031
0.005565
0.00343241
0.0019828
0.00107772
0.00055579
0.000274356
0.000131322
6.1406e-05
2.81461e-05
1.2678e-05
5.62323e-06
2.46029e-06
1.06354e-06
4.54916e-07
1.92784e-07
8.10089e-08
3.37468e-08
1.38993e-08
5.60824e-09
2.15689e-09
7.23196e-10
1.27082e-10
3.7524e-07
1.6401e-06
3.76793e-06
7.33466e-06
1.32822e-05
2.31329e-05
3.93126e-05
6.5625e-05
0.000107923
0.000175018
0.000279837
0.00044078
0.000683087
0.00103987
0.00155223
0.00226782
0.00323736
0.00450917
0.00612291
0.00810413
0.0104612
0.0131852
0.0162525
0.0196284
0.023271
0.0271344
0.0311713
0.0353351
0.0395812
0.0438679
0.0481573
0.0524157
0.0566133
0.0607252
0.0647303
0.0686119
0.0723564
0.0759534
0.0793955
0.0826782
0.085799
0.0887574
0.0915543
0.0941916
0.0966725
0.0990004
0.101179
0.103212
0.105104
0.106856
0.108472
0.109952
0.111294
0.112497
0.113554
0.114455
0.115185
0.115723
0.116031
0.116083
0.11582
0.115166
0.114022
0.107397
0.0983224
0.0891553
0.0800551
0.0711435
0.0625161
0.0542498
0.0464083
0.039047
0.0322162
0.0259864
0.0203547
0.0154005
0.011169
0.00769681
0.00499908
0.00304461
0.00173906
0.000936863
0.000480113
0.000236037
0.000112796
5.27089e-05
2.41596e-05
1.08871e-05
4.83238e-06
2.11621e-06
9.15728e-07
3.92101e-07
1.66333e-07
6.99594e-08
2.91669e-08
1.20206e-08
4.85247e-09
1.86674e-09
6.2591e-10
1.10009e-10
3.79588e-07
1.65907e-06
3.81143e-06
7.41917e-06
1.3435e-05
2.33988e-05
3.97639e-05
6.6377e-05
0.000109156
0.000177008
0.000282996
0.000445703
0.000690605
0.00105109
0.00156856
0.00229093
0.00326909
0.0045514
0.0061774
0.00817232
0.0105442
0.0132837
0.0163669
0.0197588
0.0234173
0.0272963
0.0313483
0.0355268
0.0397869
0.0440869
0.0483888
0.0526586
0.0568669
0.0609882
0.0650019
0.0688908
0.0726414
0.0762431
0.0796888
0.0829738
0.0860956
0.0890536
0.0918487
0.0944831
0.0969597
0.0992819
0.101454
0.103479
0.10536
0.107101
0.108704
0.110168
0.111493
0.112676
0.113709
0.114582
0.11528
0.115782
0.116052
0.116069
0.115778
0.115121
0.114045
0.105379
0.0962334
0.0870434
0.0779578
0.0690913
0.0605338
0.0523583
0.0446255
0.0373883
0.0306953
0.0246169
0.0191497
0.0143726
0.0103252
0.00703856
0.00451846
0.00272053
0.00153843
0.000822316
0.000419085
0.000205287
9.79509e-05
4.5738e-05
2.096e-05
9.44668e-06
4.19474e-06
1.83803e-06
7.95897e-07
3.4104e-07
1.44777e-07
6.09334e-08
2.54181e-08
1.04801e-08
4.23189e-09
1.62825e-09
5.45889e-10
9.59635e-11
3.83614e-07
1.67664e-06
3.85173e-06
7.49754e-06
1.35769e-05
2.36459e-05
4.01841e-05
6.70788e-05
0.00011031
0.000178875
0.000285969
0.000450353
0.00069773
0.00106176
0.00158415
0.00231307
0.00329961
0.00459216
0.00623014
0.00823852
0.0106249
0.0133797
0.0164786
0.0198863
0.0235603
0.0274545
0.0315213
0.0357139
0.0399874
0.0443
0.0486135
0.0528941
0.057112
0.061242
0.065263
0.0691582
0.0729138
0.0765194
0.0799677
0.083254
0.0863758
0.0893326
0.0921253
0.0947561
0.0972278
0.099544
0.101708
0.103725
0.105596
0.107325
0.108914
0.110362
0.111668
0.112827
0.113831
0.114668
0.115318
0.115753
0.115934
0.115821
0.115338
0.114394
0.112894
0.103712
0.0944222
0.0851734
0.0760851
0.0672547
0.0587616
0.050672
0.0430418
0.0359203
0.029353
0.0233872
0.018076
0.0134722
0.00959668
0.00647788
0.00411479
0.00245216
0.00137437
0.000729552
0.000369967
0.000180656
8.6068e-05
4.01556e-05
1.83949e-05
8.29019e-06
3.6819e-06
1.61389e-06
6.99167e-07
2.99748e-07
1.27315e-07
5.36102e-08
2.23723e-08
9.22703e-09
3.72661e-09
1.43394e-09
4.80667e-10
8.45151e-11
3.8734e-07
1.69291e-06
3.88907e-06
7.57019e-06
1.37086e-05
2.38756e-05
4.05752e-05
6.77331e-05
0.000111387
0.000180623
0.000288759
0.000454726
0.000704448
0.00107185
0.00159892
0.00233409
0.00332863
0.00463099
0.00628046
0.00830175
0.0107021
0.0134716
0.0165855
0.0200083
0.0236973
0.027606
0.0316868
0.0358927
0.0401787
0.0445029
0.0488272
0.0531175
0.057344
0.0614816
0.0655091
0.0694095
0.0731692
0.0767777
0.0802277
0.0835145
0.0866357
0.0895907
0.0923805
0.0950072
0.0974737
0.0997835
0.10194
0.103948
0.105809
0.107527
0.109103
0.110536
0.111824
0.112961
0.113939
0.114743
0.115349
0.115722
0.115823
0.115588
0.114916
0.113665
0.111312
0.102041
0.0927077
0.0834531
0.07439
0.0656097
0.0571869
0.0491841
0.041655
0.0346475
0.0282065
0.0223742
0.0171973
0.0127238
0.008987
0.00600954
0.00378008
0.00223186
0.00124102
0.000654729
0.000330542
0.000161026
7.66008e-05
3.57056e-05
1.63479e-05
7.366e-06
3.27142e-06
1.43419e-06
6.21481e-07
2.6653e-07
1.13246e-07
4.77013e-08
1.99116e-08
8.21357e-09
3.31765e-09
1.27659e-09
4.27834e-10
7.52431e-11
3.90768e-07
1.70788e-06
3.92343e-06
7.6371e-06
1.38299e-05
2.40874e-05
4.09363e-05
6.83379e-05
0.000112385
0.000182244
0.00029135
0.000458792
0.000710705
0.00108126
0.00161271
0.00235376
0.00335582
0.00466739
0.00632767
0.00836111
0.0107746
0.0135579
0.0166859
0.0201229
0.0238257
0.027748
0.0318418
0.03606
0.0403575
0.0446923
0.0490263
0.0533252
0.0575594
0.0617034
0.0657364
0.0696412
0.0734042
0.0770148
0.0804657
0.0837524
0.0868724
0.0898252
0.0926117
0.0952341
0.0976953
0.0999989
0.102149
0.104148
0.106
0.107708
0.109272
0.110692
0.111966
0.113088
0.114049
0.114835
0.115422
0.115775
0.115861
0.115621
0.114967
0.113787
0.109679
0.100416
0.0911022
0.0818816
0.0728665
0.0641475
0.0557981
0.0478795
0.0404444
0.0335398
0.0272096
0.0215046
0.0164553
0.0120819
0.00846847
0.00561611
0.0035023
0.00205112
0.0011327
0.0005944
0.000298911
0.000145313
6.90313e-05
3.21485e-05
1.47112e-05
6.62659e-06
2.94274e-06
1.29015e-06
5.59147e-07
2.39848e-07
1.01933e-07
4.29452e-08
1.79291e-08
7.39651e-09
2.98779e-09
1.14966e-09
3.85217e-10
6.7767e-11
3.93886e-07
1.7215e-06
3.9547e-06
7.69799e-06
1.39404e-05
2.42804e-05
4.12656e-05
6.889e-05
0.000113297
0.000183726
0.000293721
0.00046252
0.000716445
0.0010899
0.00162539
0.00237184
0.00338083
0.0047009
0.00637113
0.00841576
0.0108414
0.0136374
0.0167784
0.0202282
0.0239438
0.0278784
0.031984
0.0362133
0.0405211
0.0448654
0.0492079
0.0535144
0.0577552
0.0619048
0.0659423
0.0698506
0.0736161
0.0772281
0.0806794
0.0839655
0.0870839
0.0900341
0.0928172
0.0954352
0.0978912
0.100189
0.102332
0.104323
0.106167
0.107865
0.109419
0.110829
0.112092
0.113203
0.114152
0.114927
0.115507
0.115858
0.11595
0.115732
0.11513
0.114049
0.108173
0.0989433
0.0896676
0.0804917
0.0715295
0.0628717
0.0545915
0.0467499
0.0393991
0.0325856
0.026361
0.0207575
0.0158009
0.0115573
0.00803714
0.00528896
0.00327308
0.00190333
0.00104486
0.000545802
0.000273546
0.000132741
6.29811e-05
2.93065e-05
1.34035e-05
6.03559e-06
2.67988e-06
1.17488e-06
5.09223e-07
2.1846e-07
9.28574e-08
3.91271e-08
1.63367e-08
6.73983e-09
2.72269e-09
1.04768e-09
3.50966e-10
6.17624e-11
3.96674e-07
1.73367e-06
3.98266e-06
7.75247e-06
1.40392e-05
2.44532e-05
4.15606e-05
6.93849e-05
0.000114114
0.000185057
0.000295852
0.00046587
0.000721609
0.00109768
0.00163681
0.00238812
0.00340336
0.00473108
0.00641028
0.00846498
0.0109015
0.0137089
0.0168615
0.0203229
0.02405
0.0279955
0.0321115
0.0363506
0.0406675
0.0450201
0.04937
0.053683
0.0579294
0.0620836
0.0661248
0.0700359
0.0738031
0.0774159
0.0808672
0.0841523
0.0872688
0.0902163
0.0929959
0.0956096
0.0980606
0.100352
0.102489
0.104473
0.106309
0.107998
0.109543
0.110943
0.112196
0.113296
0.114234
0.114998
0.115567
0.115908
0.115991
0.115765
0.115152
0.114058
0.106913
0.0976961
0.0884458
0.0793057
0.0703884
0.0617833
0.053563
0.0457876
0.0385084
0.0317716
0.0256357
0.0200994
0.0152366
0.0110876
0.0076829
0.00501802
0.00308459
0.00178299
0.000973937
0.000506802
0.000253276
0.000122714
5.81609e-05
2.70433e-05
1.23621e-05
5.56483e-06
2.4704e-06
1.08296e-06
4.69391e-07
2.01386e-07
8.56077e-08
3.60755e-08
1.50635e-08
6.21481e-09
2.51085e-09
9.66166e-10
3.23585e-10
5.69645e-11
3.9911e-07
1.74431e-06
4.0071e-06
7.80009e-06
1.41257e-05
2.46043e-05
4.18187e-05
6.98181e-05
0.00011483
0.000186222
0.000297719
0.000468808
0.000726137
0.0011045
0.00164682
0.00240241
0.00342312
0.00475756
0.00644462
0.00850814
0.0109542
0.0137715
0.0169343
0.0204059
0.0241428
0.0280979
0.0322229
0.0364704
0.0407951
0.0451548
0.0495109
0.0538294
0.0580803
0.0622383
0.0662824
0.0701955
0.0739639
0.0775771
0.081028
0.0843118
0.0874263
0.0903711
0.0931471
0.0957566
0.0982027
0.100489
0.102619
0.104596
0.106425
0.108106
0.109642
0.111032
0.112275
0.113364
0.114292
0.115044
0.115601
0.11593
0.116002
0.115764
0.115136
0.114026
0.105926
0.0966977
0.0874521
0.078331
0.0694441
0.0608789
0.0527059
0.0449836
0.037764
0.0310978
0.0250147
0.0195532
0.0147682
0.0106987
0.00737324
0.0047976
0.00293136
0.00168588
0.000917153
0.000475749
0.000237194
0.000114773
5.43465e-05
2.52529e-05
1.15383e-05
5.19238e-06
2.30462e-06
1.0102e-06
4.37845e-07
1.87858e-07
7.98626e-08
3.36569e-08
1.4055e-08
5.79916e-09
2.34314e-09
9.01643e-10
3.0191e-10
5.31677e-11
4.01173e-07
1.75332e-06
4.0278e-06
7.84042e-06
1.41989e-05
2.47324e-05
4.20374e-05
7.01852e-05
0.000115437
0.000187211
0.000299302
0.000471299
0.000729979
0.00111029
0.00165532
0.00241454
0.0034399
0.00478003
0.00647375
0.00854474
0.0109989
0.0138246
0.016996
0.0204761
0.0242213
0.0281844
0.032317
0.0365716
0.0409027
0.0452682
0.0496295
0.0539523
0.0582069
0.0623679
0.0664141
0.0703287
0.0740978
0.077711
0.0811611
0.0844435
0.087556
0.090498
0.0932706
0.0958762
0.0983176
0.100598
0.102723
0.104693
0.106514
0.108188
0.109715
0.111096
0.112327
0.113405
0.11432
0.11506
0.115606
0.115924
0.11599
0.115756
0.115154
0.114122
0.105261
0.095955
0.0866783
0.0775544
0.0686833
0.0601463
0.0520106
0.0443332
0.0371651
0.0305408
0.0245109
0.0191107
0.01439
0.0103869
0.00712905
0.0046203
0.00281202
0.00160957
0.000872496
0.000451398
0.000224609
0.000108564
5.13659e-05
2.38542e-05
1.08947e-05
4.9014e-06
2.1751e-06
9.53346e-07
4.13198e-07
1.77291e-07
7.53777e-08
3.17714e-08
1.32692e-08
5.47535e-09
2.21249e-09
8.51389e-10
2.85027e-10
5.02118e-11
4.02844e-07
1.76062e-06
4.04456e-06
7.87307e-06
1.42582e-05
2.4836e-05
4.22145e-05
7.04825e-05
0.000115929
0.000188011
0.000300585
0.000473318
0.000733092
0.00111498
0.00166221
0.00242437
0.00345349
0.00479823
0.00649735
0.00857439
0.011035
0.0138676
0.0170459
0.0205329
0.0242848
0.0282544
0.032393
0.0366533
0.0409895
0.0453596
0.0497249
0.0540512
0.0583085
0.0624716
0.0665194
0.0704348
0.0742042
0.0778172
0.0812664
0.0845474
0.0876578
0.0905972
0.0933667
0.0959686
0.0984057
0.100682
0.1028
0.104765
0.106579
0.108244
0.109763
0.111133
0.112354
0.113419
0.11432
0.115042
0.115567
0.11586
0.115896
0.115619
0.114958
0.113835
0.104646
0.0953298
0.0860498
0.0769324
0.0680771
0.0595639
0.0514594
0.0438183
0.0366829
0.0301016
0.0241153
0.0187636
0.0140937
0.0101428
0.00693721
0.00447769
0.00271794
0.00155156
0.000838495
0.000432805
0.000214997
0.000103821
4.9089e-05
2.27858e-05
1.04033e-05
4.67929e-06
2.07629e-06
9.10003e-07
3.94434e-07
1.69262e-07
7.1975e-08
3.03414e-08
1.26733e-08
5.22985e-09
2.11347e-09
8.13308e-10
2.72235e-10
4.79729e-11
4.04107e-07
1.76614e-06
4.05722e-06
7.89775e-06
1.4303e-05
2.49144e-05
4.23483e-05
7.07071e-05
0.0001163
0.000188616
0.000301554
0.000474844
0.000735445
0.00111853
0.00166742
0.0024318
0.00346377
0.004812
0.0065152
0.00859681
0.0110624
0.0139001
0.0170836
0.0205758
0.0243328
0.0283072
0.0324505
0.0367149
0.041055
0.0454285
0.0497967
0.0541254
0.0583847
0.0625493
0.066598
0.0705139
0.0742833
0.0778957
0.081344
0.0846236
0.0877322
0.0906694
0.0934361
0.0960347
0.0984681
0.10074
0.102853
0.104812
0.10662
0.108278
0.109788
0.111149
0.112359
0.113411
0.114296
0.115001
0.115504
0.115769
0.115774
0.115458
0.114748
0.113571
0.104271
0.0948984
0.0855938
0.076472
0.0676257
0.0591302
0.0510471
0.0434283
0.0363227
0.0297736
0.0238215
0.018506
0.0138742
0.00996229
0.00679568
0.00437326
0.00264588
0.0015076
0.000813366
0.000419147
0.000207936
0.000100341
4.74202e-05
2.20041e-05
1.00443e-05
4.51747e-06
2.00452e-06
8.78624e-07
3.80877e-07
1.63464e-07
6.95185e-08
2.93091e-08
1.22432e-08
5.05274e-09
2.04205e-09
7.85851e-10
2.63015e-10
4.63594e-11
4.04952e-07
1.76982e-06
4.06569e-06
7.91425e-06
1.43329e-05
2.49666e-05
4.24376e-05
7.08568e-05
0.000116547
0.000189019
0.000302199
0.000475859
0.00073701
0.00112089
0.00167088
0.00243674
0.00347062
0.00482117
0.0065271
0.00861177
0.0110807
0.0139218
0.0171089
0.0206046
0.024365
0.0283426
0.0324889
0.0367562
0.0410988
0.0454745
0.0498447
0.0541749
0.0584355
0.0626008
0.06665
0.070566
0.0743351
0.077947
0.0813945
0.084673
0.0877801
0.0907155
0.0934801
0.0960761
0.0985065
0.100775
0.102884
0.104839
0.106641
0.108294
0.109797
0.11115
0.11235
0.113391
0.114264
0.114953
0.115438
0.11568
0.11566
0.115312
0.114563
0.11334
0.103996
0.0945966
0.0852809
0.0761587
0.0673187
0.058834
0.0507652
0.0431654
0.0360808
0.0295541
0.0236255
0.0183347
0.0137285
0.00984286
0.00670249
0.00430495
0.00259928
0.00147796
0.00079647
0.000410027
0.000203246
9.80408e-05
4.63228e-05
2.14924e-05
9.81038e-06
4.41224e-06
1.95788e-06
8.58224e-07
3.72059e-07
1.59693e-07
6.79202e-08
2.86375e-08
1.19634e-08
4.93757e-09
1.99563e-09
7.68008e-10
2.57026e-10
4.53113e-11
4.05372e-07
1.77165e-06
4.06988e-06
7.92238e-06
1.43476e-05
2.49922e-05
4.24811e-05
7.09296e-05
0.000116667
0.000189213
0.00030251
0.000476347
0.000737762
0.00112202
0.00167254
0.00243911
0.0034739
0.00482558
0.00653283
0.00861899
0.0110895
0.0139324
0.0171211
0.0206185
0.0243807
0.0283599
0.0325078
0.0367764
0.0411203
0.0454972
0.0498683
0.0541993
0.0584604
0.0626261
0.0666754
0.0705914
0.0743603
0.0779718
0.0814188
0.0846966
0.0878029
0.0907372
0.0935005
0.0960951
0.0985238
0.10079
0.102897
0.104849
0.106648
0.108297
0.109796
0.111144
0.112338
0.113373
0.114237
0.114917
0.11539
0.115621
0.115586
0.115222
0.114458
0.113223
0.103848
0.0944343
0.0851135
0.0759922
0.0671573
0.0586803
0.0506214
0.0430324
0.0359593
0.0294446
0.0235284
0.0182504
0.0136572
0.00978484
0.00665754
0.00427228
0.00257721
0.00146412
0.000788289
0.000405586
0.000200964
9.69309e-05
4.57958e-05
2.12473e-05
9.6984e-06
4.36188e-06
1.93555e-06
8.4845e-07
3.67829e-07
1.57881e-07
6.71507e-08
2.83135e-08
1.18282e-08
4.88177e-09
1.97309e-09
7.59321e-10
2.54108e-10
4.47994e-11
4.05381e-07
1.7717e-06
4.06998e-06
7.92256e-06
1.43479e-05
2.49928e-05
4.24821e-05
7.09313e-05
0.00011667
0.000189218
0.000302518
0.000476359
0.00073778
0.00112205
0.00167258
0.00243917
0.00347397
0.00482567
0.00653294
0.00861912
0.0110897
0.0139326
0.0171213
0.0206188
0.0243809
0.0283602
0.032508
0.0367767
0.0411206
0.0454974
0.0498685
0.0541996
0.0584607
0.0626264
0.0666757
0.0705917
0.0743606
0.0779721
0.081419
0.0846968
0.0878031
0.0907374
0.0935008
0.0960954
0.0985241
0.10079
0.102898
0.10485
0.106649
0.108297
0.109796
0.111144
0.112339
0.113373
0.114237
0.114917
0.115391
0.115621
0.115586
0.115222
0.114458
0.113222
0.103847
0.0944335
0.0851127
0.0759915
0.0671566
0.0586797
0.0506209
0.043032
0.0359589
0.0294443
0.0235281
0.0182501
0.013657
0.00978465
0.00665739
0.00427217
0.00257713
0.00146407
0.000788263
0.000405574
0.000200959
9.69281e-05
4.57945e-05
2.12466e-05
9.69807e-06
4.36172e-06
1.93547e-06
8.48416e-07
3.67814e-07
1.57874e-07
6.71476e-08
2.83121e-08
1.18276e-08
4.88153e-09
1.97299e-09
7.59271e-10
2.54097e-10
4.47954e-11
4.04979e-07
1.76995e-06
4.06597e-06
7.91479e-06
1.43339e-05
2.49684e-05
4.24406e-05
7.08619e-05
0.000116556
0.000189032
0.000302221
0.000475893
0.000737062
0.00112096
0.00167099
0.0024369
0.00347082
0.00482144
0.00652743
0.00861217
0.0110811
0.0139224
0.0171094
0.0206052
0.0243656
0.0283433
0.0324896
0.0367569
0.0410996
0.0454753
0.0498454
0.0541757
0.0584363
0.0626016
0.0666508
0.0705668
0.0743359
0.0779478
0.0813953
0.0846737
0.0877809
0.0907162
0.0934808
0.0960769
0.0985073
0.100776
0.102885
0.10484
0.106642
0.108294
0.109797
0.11115
0.112351
0.113392
0.114264
0.114953
0.115438
0.11568
0.115659
0.115311
0.114561
0.113338
0.103993
0.0945946
0.0852791
0.076157
0.0673172
0.0588325
0.0507638
0.0431641
0.0360796
0.0295531
0.0236246
0.0183339
0.0137278
0.00984227
0.00670203
0.00430463
0.00259907
0.00147785
0.000796421
0.000410007
0.000203238
9.80369e-05
4.6321e-05
2.14915e-05
9.80995e-06
4.41203e-06
1.95777e-06
8.58172e-07
3.72035e-07
1.59681e-07
6.79147e-08
2.86349e-08
1.19623e-08
4.93706e-09
1.99541e-09
7.67886e-10
2.57001e-10
4.53011e-11
4.04153e-07
1.76634e-06
4.05769e-06
7.89868e-06
1.43047e-05
2.49173e-05
4.23535e-05
7.07157e-05
0.000116314
0.000188639
0.000301591
0.000474902
0.000735534
0.00111866
0.00166761
0.00243206
0.00346413
0.00481246
0.00651578
0.00859751
0.0110632
0.0139011
0.0170846
0.0205769
0.024334
0.0283085
0.0324518
0.0367162
0.0410564
0.0454298
0.0497981
0.0541268
0.0583861
0.0625507
0.0665994
0.0705153
0.0742846
0.077897
0.0813453
0.0846249
0.0877335
0.0906707
0.0934374
0.096036
0.0984693
0.100741
0.102855
0.104814
0.106621
0.108279
0.109789
0.11115
0.11236
0.113412
0.114297
0.115002
0.115505
0.115769
0.115773
0.115457
0.114746
0.113568
0.104269
0.0948952
0.0855906
0.0764689
0.0676228
0.0591275
0.0510445
0.0434258
0.0363204
0.0297716
0.0238198
0.0185045
0.0138729
0.00996126
0.00679489
0.00437271
0.00264555
0.00150743
0.000813282
0.000419102
0.000207913
0.00010033
4.7415e-05
2.20016e-05
1.00432e-05
4.51693e-06
2.00427e-06
8.78509e-07
3.80825e-07
1.63441e-07
6.95079e-08
2.93043e-08
1.22411e-08
5.05183e-09
2.04166e-09
7.85644e-10
2.62973e-10
4.63422e-11
4.02908e-07
1.7609e-06
4.0452e-06
7.87434e-06
1.42605e-05
2.48401e-05
4.22216e-05
7.04943e-05
0.000115948
0.000188043
0.000300636
0.000473398
0.000733214
0.00111516
0.00166247
0.00242473
0.00345399
0.00479888
0.00649816
0.00857536
0.0110362
0.0138689
0.0170473
0.0205344
0.0242865
0.0282561
0.0323949
0.0366551
0.0409915
0.0453615
0.0497268
0.0540531
0.0583105
0.0624736
0.0665214
0.0704368
0.0742062
0.0778191
0.0812683
0.0845492
0.0876596
0.090599
0.0933685
0.0959703
0.0984074
0.100683
0.102802
0.104767
0.10658
0.108246
0.109764
0.111135
0.112355
0.11342
0.114321
0.115044
0.115568
0.11586
0.115895
0.115618
0.114956
0.113834
0.104644
0.0953253
0.0860448
0.0769275
0.0680724
0.0595594
0.0514552
0.0438146
0.0366797
0.0300987
0.0241128
0.0187614
0.0140919
0.0101414
0.00693609
0.00447696
0.00271751
0.0015513
0.000838338
0.000432727
0.000214961
0.000103805
4.90816e-05
2.27825e-05
1.04018e-05
4.6786e-06
2.07597e-06
9.09858e-07
3.94368e-07
1.69232e-07
7.19616e-08
3.03353e-08
1.26706e-08
5.22869e-09
2.11297e-09
8.13036e-10
2.72182e-10
4.79499e-11
4.01254e-07
1.75368e-06
4.02862e-06
7.84202e-06
1.42018e-05
2.47375e-05
4.20463e-05
7.02001e-05
0.000115462
0.000187251
0.000299366
0.0004714
0.000730132
0.00111052
0.00165565
0.002415
0.00344053
0.00478085
0.00647478
0.00854598
0.0110003
0.0138263
0.0169978
0.0204781
0.0242235
0.0281867
0.0323194
0.036574
0.0409052
0.0452707
0.049632
0.0539549
0.0582095
0.0623704
0.0664167
0.0703312
0.0741003
0.0777134
0.0811635
0.0844459
0.0875583
0.0905003
0.0932729
0.0958783
0.0983197
0.100601
0.102725
0.104696
0.106516
0.10819
0.109717
0.111098
0.112329
0.113407
0.114322
0.115062
0.115607
0.115925
0.11599
0.115755
0.115152
0.114119
0.105254
0.095947
0.0866707
0.0775475
0.068677
0.0601407
0.0520056
0.0443286
0.0371609
0.0305371
0.0245077
0.0191079
0.0143877
0.0103851
0.00712767
0.0046193
0.00281132
0.00160915
0.000872284
0.000451297
0.000224563
0.000108543
5.13566e-05
2.38501e-05
1.08929e-05
4.90056e-06
2.17472e-06
9.53172e-07
4.13119e-07
1.77255e-07
7.53615e-08
3.17641e-08
1.32659e-08
5.47395e-09
2.21189e-09
8.51056e-10
2.84962e-10
5.01834e-11
3.99207e-07
1.74474e-06
4.00809e-06
7.80202e-06
1.41292e-05
2.46105e-05
4.18294e-05
6.9836e-05
0.00011486
0.000186271
0.000297796
0.000468928
0.000726321
0.00110478
0.00164722
0.00240297
0.00342388
0.00475855
0.00644586
0.00850965
0.010956
0.0137736
0.0169366
0.0204083
0.0241454
0.0281007
0.0322258
0.0364734
0.0407982
0.0451579
0.0495141
0.0538325
0.0580834
0.0622414
0.0662855
0.0701986
0.0739669
0.0775801
0.0810309
0.0843147
0.0874291
0.0903738
0.0931498
0.0957592
0.0982052
0.100491
0.102621
0.104599
0.106427
0.108108
0.109644
0.111035
0.112277
0.113366
0.114294
0.115046
0.115603
0.115931
0.116003
0.115763
0.115134
0.114024
0.105916
0.0966876
0.0874426
0.0783221
0.0694361
0.0608716
0.0526992
0.0449775
0.0377584
0.0310927
0.0250101
0.0195492
0.0147649
0.0106961
0.00737133
0.0047962
0.00293043
0.00168537
0.000916895
0.000475625
0.000237137
0.000114747
5.43353e-05
2.5248e-05
1.15361e-05
5.19139e-06
2.30418e-06
1.01e-06
4.37753e-07
1.87816e-07
7.98436e-08
3.36484e-08
1.40512e-08
5.7975e-09
2.34243e-09
9.01246e-10
3.0183e-10
5.31337e-11
3.96787e-07
1.73417e-06
3.98381e-06
7.75472e-06
1.40433e-05
2.44604e-05
4.1573e-05
6.94058e-05
0.000114149
0.000185113
0.000295941
0.00046601
0.000721823
0.001098
0.00163727
0.00238877
0.00340424
0.00473223
0.00641173
0.00846675
0.0109036
0.0137113
0.0168641
0.0203259
0.0240531
0.0279988
0.032115
0.0363542
0.0406712
0.0450238
0.0493738
0.0536868
0.0579331
0.0620873
0.0661285
0.0700395
0.0738067
0.0774195
0.0808707
0.0841557
0.0872721
0.0902196
0.092999
0.0956126
0.0980635
0.100355
0.102491
0.104476
0.106311
0.108001
0.109546
0.110946
0.112198
0.113298
0.114237
0.115
0.115569
0.11591
0.115992
0.115765
0.115151
0.114057
0.106902
0.0976845
0.0884345
0.0792951
0.0703785
0.0617741
0.0535543
0.0457793
0.0385004
0.0317639
0.0256284
0.0200927
0.0152313
0.0110837
0.0076801
0.0050161
0.00308351
0.00178238
0.000973617
0.000506647
0.000253206
0.000122684
5.81475e-05
2.70374e-05
1.23595e-05
5.56368e-06
2.46989e-06
1.08273e-06
4.69286e-07
2.01338e-07
8.55861e-08
3.60658e-08
1.50592e-08
6.21286e-09
2.51003e-09
9.65703e-10
3.23489e-10
5.69248e-11
3.94015e-07
1.72206e-06
3.95601e-06
7.70056e-06
1.3945e-05
2.42886e-05
4.12797e-05
6.89137e-05
0.000113336
0.00018379
0.000293823
0.000462679
0.000716689
0.00109027
0.00162592
0.00237258
0.00338183
0.00470221
0.00637279
0.00841778
0.0108438
0.0136401
0.0167814
0.0202316
0.0239475
0.0278823
0.031988
0.0362174
0.0405253
0.0448697
0.0492123
0.0535188
0.0577595
0.0619092
0.0659466
0.0698549
0.0736202
0.0772322
0.0806835
0.0839695
0.0870877
0.0900378
0.0928208
0.0954387
0.0978946
0.100192
0.102335
0.104326
0.10617
0.107868
0.109422
0.110832
0.112094
0.113205
0.114155
0.114929
0.115509
0.115859
0.115951
0.115733
0.115131
0.114051
0.10816
0.0989294
0.089654
0.0804787
0.0715173
0.0628603
0.054581
0.04674
0.0393894
0.0325754
0.0263485
0.0207388
0.0157914
0.011552
0.00803357
0.00528685
0.00327175
0.00190255
0.00104445
0.000545605
0.000273459
0.000132703
6.29647e-05
2.92995e-05
1.34005e-05
6.03427e-06
2.67929e-06
1.17462e-06
5.09106e-07
2.18407e-07
9.28334e-08
3.91163e-08
1.63319e-08
6.73763e-09
2.72178e-09
1.04716e-09