/*--------------------------------*- C++ -*----------------------------------*\
  =========                 |
  \\      /  F ield         | OpenFOAM: The Open Source CFD Toolbox
   \\    /   O peration     | Website:  https://openfoam.org
    \\  /    A nd           | Version:  8
     \\/     M anipulation  |
\*---------------------------------------------------------------------------*/
FoamFile
{
    version     2.0;
    format      ascii;
    class       volScalarField;
    location    "260/fluid";
    object      N2;
}
// * * * * * * * * * * * * * * * * * * * * * * * * * * * * * * * * * * * * * //

dimensions      [0 0 0 0 0 0 0];

internalField   nonuniform List<scalar> 
4000
(
1.99629e-06
8.71787e-06
1.99952e-05
3.88391e-05
7.01713e-05
0.000121959
0.000206947
0.000345249
0.000568081
0.000922967
0.00148059
0.00234312
0.00365323
0.00560175
0.00843046
0.0124258
0.0178994
0.0251553
0.0344488
0.045949
0.0597158
0.0756978
0.0937478
0.113647
0.135133
0.15792
0.181719
0.206247
0.231239
0.256449
0.281657
0.306669
0.331315
0.355455
0.378972
0.401771
0.42378
0.444944
0.465224
0.484597
0.503052
0.520588
0.537215
0.552947
0.567805
0.581815
0.595005
0.607407
0.619053
0.629978
0.640215
0.6498
0.658765
0.667145
0.674973
0.68228
0.689097
0.695453
0.701379
0.706855
0.711887
0.716679
0.721141
0.725298
0.729123
0.732849
0.736415
0.739826
0.743085
0.746191
0.749144
0.751939
0.754571
0.757033
0.759315
0.761396
0.763285
0.764954
0.766384
0.767557
0.76846
0.769101
0.769513
0.769754
0.769883
0.769946
0.769976
0.769989
0.769995
0.769998
0.769999
0.77
0.77
0.77
0.77
0.77
0.77
0.77
0.77
0.77
2.02865e-06
8.86436e-06
2.03527e-05
3.95893e-05
7.16423e-05
0.000124722
0.000211964
0.000354072
0.000583109
0.000947719
0.00151991
0.0024032
0.00374119
0.00572462
0.00859361
0.0126309
0.0181428
0.0254269
0.0347336
0.0462296
0.0599766
0.0759281
0.0939436
0.113812
0.135275
0.158052
0.181854
0.206401
0.231423
0.256673
0.281928
0.306991
0.331691
0.355884
0.379451
0.402297
0.424349
0.44555
0.465862
0.48526
0.503736
0.521288
0.537925
0.553663
0.568523
0.582531
0.595716
0.608111
0.619747
0.63066
0.640884
0.650453
0.659403
0.667767
0.675578
0.682868
0.689667
0.696007
0.701914
0.707335
0.712357
0.717153
0.721613
0.725764
0.729579
0.733305
0.736873
0.740286
0.743547
0.746655
0.749609
0.752403
0.755031
0.757486
0.759757
0.761822
0.763684
0.765317
0.766699
0.767811
0.768648
0.769225
0.769586
0.769792
0.7699
0.769954
0.769979
0.769991
0.769996
0.769998
0.769999
0.77
0.77
0.77
0.77
0.77
0.77
0.77
0.77
0.77
2.07736e-06
9.08033e-06
2.08621e-05
4.06129e-05
7.35563e-05
0.000128148
0.000217899
0.00036406
0.000599455
0.000973727
0.00156009
0.00246338
0.0038284
0.00584665
0.00875815
0.0128442
0.0184081
0.0257432
0.0350949
0.0466259
0.060396
0.0763592
0.0943778
0.114245
0.135708
0.15849
0.182306
0.206877
0.231933
0.257228
0.282536
0.307658
0.33242
0.356677
0.380307
0.403215
0.425324
0.446577
0.466934
0.486372
0.504879
0.522455
0.53911
0.554859
0.569725
0.583732
0.596912
0.609296
0.620919
0.631814
0.642017
0.651563
0.660488
0.668825
0.676608
0.683869
0.690641
0.696955
0.702839
0.708206
0.713193
0.717945
0.722372
0.7265
0.730322
0.734047
0.737611
0.741018
0.744271
0.747369
0.750307
0.753081
0.755684
0.758106
0.760334
0.762357
0.764158
0.76572
0.767024
0.768054
0.768813
0.769326
0.769642
0.76982
0.769914
0.76996
0.769982
0.769992
0.769996
0.769998
0.769999
0.77
0.77
0.77
0.77
0.77
0.77
0.77
0.77
0.77
2.12246e-06
9.27773e-06
2.13169e-05
4.15003e-05
7.51626e-05
0.000130931
0.000222572
0.000371704
0.000611667
0.000992788
0.00158915
0.00250662
0.00389112
0.00593517
0.00887943
0.0130052
0.0186146
0.0259993
0.0354022
0.0469839
0.0608022
0.0768106
0.0948719
0.11478
0.136284
0.159109
0.182972
0.207592
0.232703
0.258056
0.283427
0.308614
0.333443
0.357767
0.381463
0.404433
0.426601
0.447908
0.468312
0.48779
0.506331
0.523933
0.540607
0.556367
0.571237
0.585243
0.598415
0.610786
0.62239
0.633262
0.643439
0.652955
0.661847
0.670148
0.677893
0.685114
0.691845
0.698116
0.703959
0.709272
0.714204
0.718909
0.723295
0.727382
0.731231
0.734945
0.738496
0.741888
0.745121
0.748194
0.751104
0.753843
0.756405
0.758779
0.760945
0.762905
0.764636
0.76612
0.767341
0.768289
0.768972
0.769424
0.769697
0.769848
0.769927
0.769966
0.769984
0.769993
0.769997
0.769999
0.769999
0.77
0.77
0.77
0.77
0.77
0.77
0.77
0.77
0.77
2.16267e-06
9.45329e-06
2.17197e-05
4.22834e-05
7.65768e-05
0.000133382
0.000226704
0.000378518
0.000622679
0.00101023
0.00161621
0.00254764
0.00395177
0.00602243
0.00900129
0.01317
0.0188304
0.0262724
0.0357369
0.0473821
0.0612639
0.0773346
0.0954568
0.115425
0.136989
0.159875
0.1838
0.208484
0.233661
0.259083
0.284523
0.309781
0.33468
0.359071
0.382833
0.405865
0.42809
0.449448
0.469897
0.489413
0.507984
0.52561
0.542299
0.558068
0.57294
0.58694
0.6001
0.612454
0.624035
0.63488
0.645025
0.654506
0.663359
0.671618
0.679317
0.686489
0.693165
0.699373
0.705139
0.710371
0.715372
0.720039
0.724376
0.728356
0.732221
0.735914
0.739442
0.742808
0.746012
0.749051
0.751922
0.754616
0.757127
0.759444
0.761544
0.763435
0.76509
0.766493
0.76763
0.768497
0.76911
0.769506
0.769742
0.769871
0.769938
0.769971
0.769987
0.769994
0.769997
0.769999
0.77
0.77
0.77
0.77
0.77
0.77
0.77
0.77
0.77
0.77
2.19763e-06
9.60567e-06
2.20683e-05
4.29583e-05
7.77909e-05
0.000135479
0.00023023
0.000384324
0.000632062
0.00102512
0.00163938
0.00258299
0.00400451
0.00609925
0.0091103
0.0133204
0.0190316
0.0265336
0.0360656
0.0477837
0.0617418
0.0778902
0.0960903
0.116136
0.137777
0.160739
0.18474
0.209501
0.234753
0.26025
0.285764
0.311094
0.336063
0.360521
0.384345
0.407436
0.429713
0.451117
0.471606
0.491155
0.509752
0.527396
0.544096
0.559868
0.574736
0.588726
0.601871
0.614202
0.625756
0.63657
0.646679
0.65612
0.66493
0.673145
0.680798
0.687924
0.694556
0.700723
0.706405
0.711598
0.716567
0.721181
0.725467
0.729386
0.733222
0.736887
0.740387
0.743721
0.74689
0.74989
0.752715
0.75536
0.757814
0.760069
0.76211
0.763928
0.765506
0.76683
0.767887
0.768679
0.769228
0.769577
0.76978
0.769891
0.769948
0.769976
0.769989
0.769995
0.769998
0.769999
0.77
0.77
0.77
0.77
0.77
0.77
0.77
0.77
0.77
0.77
2.22885e-06
9.74179e-06
2.238e-05
4.35625e-05
7.88802e-05
0.000137367
0.000233419
0.000389605
0.000640658
0.00103887
0.00166099
0.00261628
0.00405471
0.00617315
0.00921628
0.0134681
0.0192314
0.0267954
0.0363983
0.0481943
0.062235
0.0784689
0.0967557
0.116888
0.138616
0.161663
0.185748
0.21059
0.235924
0.261499
0.287089
0.31249
0.337528
0.36205
0.385933
0.409077
0.431402
0.452846
0.473369
0.492945
0.511561
0.529217
0.545922
0.561692
0.576551
0.590527
0.60365
0.615956
0.627479
0.638256
0.648326
0.657724
0.666489
0.674655
0.682259
0.689335
0.695916
0.702034
0.707612
0.712738
0.717651
0.722215
0.726458
0.730374
0.734185
0.737823
0.741292
0.744592
0.747723
0.750681
0.75346
0.756054
0.758453
0.760645
0.762623
0.764372
0.765878
0.767127
0.768111
0.768835
0.769327
0.769635
0.769812
0.769907
0.769956
0.769979
0.76999
0.769996
0.769998
0.769999
0.77
0.77
0.77
0.77
0.77
0.77
0.77
0.77
0.77
0.77
2.25713e-06
9.86515e-06
2.26625e-05
4.41106e-05
7.98694e-05
0.000139084
0.000236324
0.000394429
0.000648536
0.00105153
0.00168098
0.00264726
0.00410174
0.00624294
0.00931723
0.0136101
0.0194253
0.0270521
0.0367276
0.0486044
0.0627316
0.0790557
0.0974343
0.117659
0.139478
0.162615
0.186787
0.211715
0.237131
0.262784
0.288449
0.31392
0.339022
0.363605
0.387542
0.410733
0.433099
0.454578
0.475129
0.494725
0.513354
0.531016
0.54772
0.563484
0.57833
0.592286
0.605384
0.61766
0.629148
0.639887
0.649914
0.659266
0.667982
0.676098
0.683649
0.690671
0.697196
0.703255
0.708758
0.713814
0.718668
0.723179
0.72736
0.731296
0.735083
0.738693
0.742131
0.745398
0.748492
0.751408
0.754142
0.756687
0.759034
0.761163
0.763082
0.764767
0.766206
0.767386
0.768303
0.768967
0.76941
0.769682
0.769837
0.76992
0.769962
0.769982
0.769992
0.769996
0.769998
0.769999
0.77
0.77
0.77
0.77
0.77
0.77
0.77
0.77
0.77
0.77
2.28315e-06
9.97869e-06
2.29227e-05
4.46161e-05
8.07832e-05
0.000140673
0.000239021
0.000398922
0.000655902
0.00106341
0.00169983
0.00267663
0.00414657
0.00630982
0.0094145
0.0137477
0.0196141
0.0273031
0.0370511
0.0490088
0.0632233
0.0796386
0.0981103
0.118428
0.14034
0.163568
0.187828
0.212841
0.238337
0.264067
0.289803
0.315341
0.340504
0.365141
0.389126
0.41236
0.434761
0.456269
0.47684
0.496451
0.515088
0.532751
0.54945
0.565201
0.58003
0.593963
0.607034
0.619276
0.630728
0.641426
0.65141
0.660716
0.669383
0.677447
0.684944
0.691909
0.698375
0.704374
0.709812
0.714854
0.719676
0.724141
0.728218
0.732157
0.735914
0.739494
0.7429
0.746133
0.749189
0.752066
0.754757
0.757255
0.759552
0.761629
0.763491
0.765116
0.766492
0.767609
0.768466
0.769077
0.769478
0.769721
0.769858
0.76993
0.769967
0.769985
0.769993
0.769997
0.769999
0.769999
0.77
0.77
0.77
0.77
0.77
0.77
0.77
0.77
0.77
0.77
2.30722e-06
1.00837e-05
2.31637e-05
4.50845e-05
8.16309e-05
0.000142149
0.00024153
0.000403112
0.000662787
0.00107455
0.00171757
0.00270435
0.00418903
0.00637339
0.0095073
0.0138794
0.0197955
0.0275452
0.0373641
0.0494012
0.0637015
0.0802066
0.0987702
0.11918
0.141183
0.164499
0.188845
0.21394
0.239514
0.265317
0.29112
0.31672
0.341938
0.366624
0.390652
0.413922
0.436352
0.457882
0.47847
0.49809
0.516729
0.534389
0.551079
0.566815
0.581623
0.595531
0.608572
0.620781
0.632195
0.642853
0.652793
0.662053
0.670673
0.678688
0.686136
0.693053
0.699471
0.705399
0.710748
0.715866
0.720616
0.725022
0.729033
0.732941
0.736668
0.740218
0.743593
0.746793
0.749814
0.752652
0.755302
0.757758
0.760009
0.762046
0.763855
0.765421
0.766739
0.767799
0.768603
0.769167
0.769534
0.769752
0.769875
0.769939
0.769971
0.769986
0.769994
0.769997
0.769999
0.769999
0.77
0.77
0.77
0.77
0.77
0.77
0.77
0.77
0.77
0.77
2.32948e-06
1.01809e-05
2.33866e-05
4.55183e-05
8.24167e-05
0.00014352
0.000243864
0.000407014
0.000669213
0.00108497
0.00173419
0.00273039
0.00422902
0.00643341
0.00959511
0.0140043
0.0199678
0.0277756
0.0376625
0.0497758
0.0641585
0.0807499
0.0994016
0.1199
0.141989
0.165391
0.189818
0.21499
0.240637
0.266507
0.292373
0.318028
0.343296
0.368026
0.392091
0.415392
0.437846
0.459394
0.479992
0.499617
0.518256
0.535909
0.552586
0.568306
0.583091
0.596973
0.609983
0.622158
0.633536
0.644154
0.654052
0.663268
0.671842
0.679812
0.687213
0.694081
0.700451
0.706275
0.711584
0.716675
0.721391
0.725764
0.729753
0.733637
0.737339
0.740862
0.744208
0.747376
0.750364
0.753166
0.755778
0.758192
0.760399
0.76239
0.764152
0.765674
0.766945
0.767958
0.768716
0.769242
0.769579
0.769778
0.769888
0.769945
0.769974
0.769988
0.769994
0.769998
0.769999
0.77
0.77
0.77
0.77
0.77
0.77
0.77
0.77
0.77
0.77
0.77
2.34993e-06
1.02702e-05
2.35916e-05
4.59172e-05
8.314e-05
0.000144782
0.000246015
0.000410618
0.000675154
0.00109462
0.0017496
0.00275458
0.00426623
0.00648935
0.00967706
0.014121
0.0201291
0.0279914
0.0379421
0.0501271
0.0645872
0.0812597
0.0999942
0.120576
0.142746
0.166227
0.19073
0.215973
0.241687
0.267619
0.29354
0.319246
0.344558
0.369326
0.393423
0.416749
0.439223
0.460783
0.481389
0.501016
0.51965
0.537294
0.553958
0.569658
0.584422
0.598277
0.611257
0.623399
0.634741
0.645322
0.65518
0.664355
0.672887
0.680813
0.688171
0.694996
0.701323
0.707089
0.712352
0.717401
0.722076
0.72641
0.730391
0.734253
0.737931
0.741429
0.744748
0.747888
0.750845
0.753615
0.756192
0.758569
0.760738
0.762684
0.764403
0.765892
0.767121
0.768091
0.76881
0.769303
0.769615
0.769798
0.769899
0.769951
0.769977
0.769989
0.769995
0.769998
0.769999
0.77
0.77
0.77
0.77
0.77
0.77
0.77
0.77
0.77
0.77
0.77
2.3685e-06
1.03513e-05
2.37778e-05
4.62798e-05
8.37977e-05
0.000145931
0.000247975
0.000413902
0.000680575
0.00110343
0.0017637
0.00277673
0.00430031
0.00654064
0.00975228
0.0142283
0.0202773
0.0281898
0.0381993
0.0504502
0.0649815
0.0817286
0.100539
0.121196
0.143442
0.166994
0.191566
0.216874
0.242648
0.268635
0.294606
0.320357
0.345707
0.370507
0.394631
0.417978
0.440467
0.462038
0.482648
0.502273
0.520902
0.538536
0.555184
0.570866
0.585607
0.599437
0.612389
0.6245
0.635808
0.646354
0.656175
0.665313
0.673807
0.681693
0.689011
0.695795
0.70208
0.70781
0.713029
0.718033
0.722666
0.726956
0.730942
0.734784
0.738441
0.741918
0.745214
0.748328
0.751259
0.754001
0.756548
0.758894
0.761025
0.762937
0.764625
0.766069
0.767267
0.768202
0.768888
0.769353
0.769645
0.769815
0.769907
0.769955
0.769979
0.76999
0.769995
0.769998
0.769999
0.77
0.77
0.77
0.77
0.77
0.77
0.77
0.77
0.77
0.77
0.77
2.38508e-06
1.04237e-05
2.3944e-05
4.66036e-05
8.43852e-05
0.000146958
0.000249727
0.000416841
0.000685429
0.00111133
0.00177634
0.0027966
0.00433092
0.00658672
0.00981989
0.0143247
0.0204106
0.0283682
0.0384305
0.0507407
0.0653361
0.0821501
0.101029
0.121754
0.144066
0.167683
0.192316
0.217682
0.243509
0.269545
0.295559
0.321347
0.346731
0.371559
0.395705
0.419069
0.44157
0.463147
0.483759
0.503382
0.522004
0.539626
0.55626
0.571924
0.586644
0.600449
0.613375
0.625458
0.636736
0.64725
0.657039
0.666143
0.674603
0.682455
0.689739
0.696489
0.702742
0.708432
0.713616
0.718587
0.723187
0.727421
0.731414
0.735238
0.738877
0.742334
0.74561
0.748703
0.751611
0.754329
0.756851
0.75917
0.761271
0.763159
0.764816
0.766228
0.767387
0.768294
0.768951
0.769394
0.769669
0.769828
0.769914
0.769958
0.76998
0.769991
0.769996
0.769998
0.769999
0.77
0.77
0.77
0.77
0.77
0.77
0.77
0.77
0.77
0.77
0.77
2.39954e-06
1.04868e-05
2.4089e-05
4.68861e-05
8.48979e-05
0.000147854
0.000251257
0.000419408
0.000689671
0.00111823
0.00178739
0.00281398
0.00435772
0.00662706
0.00987909
0.0144091
0.0205273
0.0285245
0.0386331
0.0509952
0.0656465
0.082519
0.101457
0.122242
0.144612
0.168285
0.192971
0.218386
0.244259
0.270337
0.296388
0.322209
0.347621
0.372471
0.396636
0.420013
0.442523
0.464105
0.484717
0.504336
0.522951
0.540563
0.557183
0.57283
0.58753
0.601314
0.614216
0.626273
0.637525
0.648011
0.657771
0.666846
0.675276
0.683099
0.690352
0.69707
0.703289
0.708942
0.714097
0.719043
0.723617
0.7278
0.731802
0.735612
0.739237
0.742679
0.745939
0.749015
0.751904
0.754603
0.757104
0.759398
0.761481
0.763344
0.764974
0.76636
0.767492
0.768368
0.769003
0.769427
0.769688
0.769838
0.769919
0.769961
0.769982
0.769991
0.769996
0.769998
0.769999
0.77
0.77
0.77
0.77
0.77
0.77
0.77
0.77
0.77
0.77
0.77
2.41175e-06
1.05402e-05
2.42115e-05
4.71247e-05
8.5331e-05
0.000148611
0.00025255
0.000421577
0.000693256
0.00112407
0.00179674
0.00282869
0.00438039
0.00666121
0.00992921
0.0144806
0.0206261
0.0286568
0.0388045
0.0512105
0.0659092
0.0828312
0.10182
0.122655
0.145073
0.168793
0.193524
0.218982
0.244893
0.271005
0.297088
0.322935
0.348369
0.373239
0.397418
0.420806
0.443322
0.464907
0.485519
0.505134
0.523742
0.541343
0.557951
0.573583
0.588266
0.602031
0.614912
0.626948
0.638177
0.648638
0.658374
0.667424
0.675828
0.683624
0.690849
0.697541
0.703737
0.709363
0.714498
0.719423
0.723978
0.728119
0.732111
0.735912
0.739527
0.742958
0.746205
0.749268
0.752142
0.754824
0.757307
0.759586
0.761651
0.763493
0.765101
0.766465
0.767574
0.768428
0.769044
0.769453
0.769703
0.769847
0.769924
0.769963
0.769983
0.769992
0.769996
0.769998
0.769999
0.77
0.77
0.77
0.77
0.77
0.77
0.77
0.77
0.77
0.77
0.77
2.42161e-06
1.05832e-05
2.43104e-05
4.73173e-05
8.56805e-05
0.000149222
0.000253593
0.000423328
0.000696151
0.00112878
0.00180429
0.00284057
0.00439869
0.00668879
0.00996969
0.0145383
0.020706
0.0287637
0.0389431
0.0513845
0.0661214
0.0830834
0.102113
0.122988
0.145447
0.169205
0.193972
0.219462
0.245405
0.271545
0.297652
0.323521
0.348973
0.373857
0.398047
0.421443
0.443964
0.465551
0.486162
0.505773
0.524375
0.541968
0.558564
0.574184
0.588853
0.602602
0.615466
0.627484
0.638693
0.649136
0.658851
0.66788
0.676263
0.684038
0.691246
0.697924
0.704106
0.70969
0.714811
0.719723
0.724263
0.728378
0.732362
0.736155
0.73976
0.743181
0.746418
0.749469
0.75233
0.754999
0.75747
0.759734
0.761784
0.76361
0.765201
0.766547
0.767639
0.768477
0.769076
0.769472
0.769715
0.769853
0.769927
0.769965
0.769983
0.769992
0.769996
0.769998
0.769999
0.77
0.77
0.77
0.77
0.77
0.77
0.77
0.77
0.77
0.77
0.77
2.42903e-06
1.06156e-05
2.43848e-05
4.74622e-05
8.59435e-05
0.000149682
0.000254378
0.000424645
0.000698327
0.00113233
0.00180997
0.0028495
0.00441246
0.00670954
0.0100002
0.0145818
0.0207661
0.0288442
0.0390474
0.0515156
0.0662814
0.0832737
0.102334
0.12324
0.145728
0.169515
0.194309
0.219826
0.245791
0.271952
0.298078
0.323963
0.349428
0.374322
0.398521
0.421923
0.444448
0.466035
0.486645
0.506253
0.52485
0.542436
0.559024
0.574634
0.589291
0.603028
0.61588
0.627883
0.639078
0.649504
0.659204
0.668217
0.676584
0.684346
0.69154
0.698205
0.704375
0.709918
0.715043
0.719949
0.724478
0.728577
0.732552
0.736337
0.739935
0.743348
0.746576
0.749618
0.752471
0.755131
0.757591
0.759845
0.761883
0.763696
0.765275
0.766608
0.767687
0.768512
0.7691
0.769487
0.769723
0.769858
0.769929
0.769966
0.769984
0.769993
0.769997
0.769998
0.769999
0.77
0.77
0.77
0.77
0.77
0.77
0.77
0.77
0.77
0.77
0.77
2.43398e-06
1.06372e-05
2.44343e-05
4.75586e-05
8.61182e-05
0.000149987
0.000254899
0.000425518
0.000699768
0.00113467
0.00181372
0.00285541
0.00442157
0.00672326
0.0100203
0.0146105
0.0208059
0.0288976
0.0391167
0.0516028
0.0663879
0.0834004
0.102481
0.123408
0.145917
0.169723
0.194536
0.220069
0.24605
0.272225
0.298363
0.324259
0.349733
0.374634
0.398838
0.422244
0.444771
0.466359
0.486968
0.506574
0.525167
0.542748
0.55933
0.574933
0.589583
0.603311
0.616153
0.628147
0.639331
0.649747
0.659436
0.668438
0.676794
0.684543
0.691722
0.698368
0.704515
0.710009
0.715266
0.720134
0.724639
0.728719
0.732685
0.736461
0.740053
0.743459
0.746682
0.749718
0.752565
0.755219
0.757672
0.759918
0.761948
0.763754
0.765324
0.766648
0.767718
0.768535
0.769116
0.769497
0.769729
0.769861
0.769931
0.769967
0.769984
0.769993
0.769997
0.769999
0.769999
0.77
0.77
0.77
0.77
0.77
0.77
0.77
0.77
0.77
0.77
0.77
2.43642e-06
1.06478e-05
2.44587e-05
4.76058e-05
8.62034e-05
0.000150135
0.00025515
0.000425938
0.00070046
0.00113579
0.00181552
0.00285822
0.00442591
0.00672979
0.0100299
0.0146242
0.0208249
0.0289231
0.0391499
0.0516446
0.0664392
0.0834617
0.102553
0.12349
0.146008
0.169824
0.194646
0.220188
0.246177
0.27236
0.298504
0.324405
0.349883
0.374788
0.398995
0.422403
0.444931
0.46652
0.487129
0.506733
0.525324
0.542904
0.559483
0.575082
0.589728
0.603453
0.61629
0.628278
0.639458
0.649868
0.659551
0.668548
0.676897
0.684639
0.691812
0.698452
0.704593
0.710084
0.715349
0.720216
0.724716
0.72879
0.732752
0.736525
0.740113
0.743516
0.746736
0.749769
0.752613
0.755262
0.757712
0.759954
0.761981
0.763782
0.765348
0.766668
0.767733
0.768546
0.769123
0.769502
0.769732
0.769862
0.769932
0.769967
0.769984
0.769993
0.769997
0.769999
0.769999
0.77
0.77
0.77
0.77
0.77
0.77
0.77
0.77
0.77
0.77
0.77
2.43646e-06
1.0648e-05
2.44591e-05
4.76067e-05
8.6205e-05
0.000150138
0.000255155
0.000425946
0.000700474
0.00113582
0.00181555
0.00285828
0.004426
0.00672993
0.0100301
0.0146245
0.0208253
0.0289237
0.0391506
0.0516456
0.0664404
0.083463
0.102554
0.123491
0.14601
0.169826
0.194648
0.22019
0.24618
0.272362
0.298506
0.324407
0.349885
0.37479
0.398997
0.422405
0.444933
0.466522
0.487131
0.506735
0.525326
0.542906
0.559485
0.575084
0.58973
0.603454
0.616291
0.62828
0.639459
0.64987
0.659553
0.668549
0.676898
0.68464
0.691813
0.698453
0.704593
0.710084
0.715349
0.720216
0.724716
0.72879
0.732752
0.736525
0.740113
0.743517
0.746736
0.749769
0.752613
0.755262
0.757712
0.759954
0.761981
0.763782
0.765348
0.766668
0.767733
0.768546
0.769123
0.769502
0.769732
0.769862
0.769932
0.769967
0.769984
0.769993
0.769997
0.769999
0.769999
0.77
0.77
0.77
0.77
0.77
0.77
0.77
0.77
0.77
0.77
0.77
2.43412e-06
1.06378e-05
2.44357e-05
4.75613e-05
8.61232e-05
0.000149995
0.000254914
0.000425543
0.000699811
0.00113474
0.00181384
0.00285559
0.00442185
0.00672369
0.0100209
0.0146114
0.0208072
0.0288993
0.0391189
0.0516055
0.0663913
0.0834043
0.102486
0.123413
0.145922
0.169728
0.194541
0.220075
0.246056
0.272231
0.298369
0.324265
0.349739
0.37464
0.398844
0.42225
0.444777
0.466365
0.486974
0.50658
0.525172
0.542754
0.559336
0.574938
0.589588
0.603316
0.616157
0.62815
0.639335
0.64975
0.659439
0.668441
0.676797
0.684545
0.691724
0.69837
0.704517
0.71001
0.715267
0.720136
0.72464
0.728721
0.732686
0.736463
0.740054
0.74346
0.746683
0.749719
0.752566
0.755219
0.757672
0.759918
0.761949
0.763754
0.765324
0.766648
0.767718
0.768535
0.769116
0.769497
0.769729
0.769861
0.769931
0.769967
0.769984
0.769993
0.769997
0.769999
0.769999
0.77
0.77
0.77
0.77
0.77
0.77
0.77
0.77
0.77
0.77
0.77
2.42928e-06
1.06167e-05
2.43873e-05
4.7467e-05
8.59523e-05
0.000149697
0.000254405
0.00042469
0.000698403
0.00113245
0.00181017
0.00284982
0.00441296
0.0067103
0.0100013
0.0145834
0.0207683
0.0288472
0.0390513
0.0515204
0.0662872
0.0832804
0.102342
0.123248
0.145737
0.169525
0.19432
0.219836
0.245802
0.271963
0.298089
0.323974
0.349439
0.374333
0.398532
0.421933
0.444458
0.466046
0.486655
0.506263
0.524859
0.542445
0.559033
0.574642
0.5893
0.603036
0.615887
0.627889
0.639084
0.64951
0.659209
0.668221
0.676589
0.684351
0.691545
0.698208
0.704379
0.70992
0.715046
0.719952
0.724481
0.728579
0.732554
0.736339
0.739936
0.743349
0.746577
0.749619
0.752472
0.755131
0.757592
0.759845
0.761884
0.763697
0.765276
0.766608
0.767687
0.768512
0.7691
0.769487
0.769723
0.769858
0.769929
0.769966
0.769984
0.769993
0.769997
0.769998
0.769999
0.77
0.77
0.77
0.77
0.77
0.77
0.77
0.77
0.77
0.77
0.77
2.42196e-06
1.05847e-05
2.43139e-05
4.73242e-05
8.56931e-05
0.000149244
0.000253632
0.000423393
0.000696259
0.00112896
0.00180458
0.00284102
0.0043994
0.00668986
0.00997127
0.0145405
0.0207091
0.0287679
0.0389484
0.0513912
0.0661295
0.0830929
0.102124
0.123
0.14546
0.169218
0.193986
0.219477
0.24542
0.27156
0.297668
0.323536
0.348988
0.373872
0.398062
0.421458
0.443979
0.465566
0.486176
0.505787
0.524388
0.541981
0.558577
0.574196
0.588864
0.602613
0.615477
0.627493
0.638702
0.649144
0.658859
0.667888
0.676269
0.684044
0.691252
0.69793
0.704111
0.709694
0.714815
0.719727
0.724266
0.72838
0.732364
0.736157
0.739762
0.743183
0.746419
0.74947
0.752332
0.755
0.757471
0.759735
0.761785
0.763611
0.765202
0.766548
0.767639
0.768477
0.769076
0.769472
0.769715
0.769853
0.769927
0.769965
0.769983
0.769992
0.769996
0.769998
0.769999
0.77
0.77
0.77
0.77
0.77
0.77
0.77
0.77
0.77
0.77
0.77
2.41221e-06
1.05422e-05
2.42161e-05
4.71337e-05
8.53475e-05
0.00014864
0.0002526
0.000421662
0.000693398
0.0011243
0.00179712
0.00282928
0.0043813
0.00666259
0.00993124
0.0144834
0.0206301
0.0286622
0.0388114
0.0512191
0.0659195
0.0828433
0.101834
0.12267
0.14509
0.168811
0.193543
0.219001
0.244913
0.271025
0.297108
0.322956
0.34839
0.373259
0.397438
0.420825
0.443342
0.464926
0.485538
0.505152
0.523759
0.541361
0.557967
0.573599
0.588281
0.602045
0.614926
0.62696
0.638188
0.648649
0.658384
0.667433
0.675836
0.683631
0.690856
0.697548
0.703745
0.70937
0.714505
0.71943
0.723983
0.728123
0.732115
0.735916
0.739531
0.742961
0.746208
0.74927
0.752144
0.754826
0.757308
0.759588
0.761652
0.763494
0.765102
0.766466
0.767575
0.768429
0.769044
0.769453
0.769704
0.769847
0.769924
0.769963
0.769983
0.769992
0.769996
0.769998
0.769999
0.77
0.77
0.77
0.77
0.77
0.77
0.77
0.77
0.77
0.77
0.77
2.4001e-06
1.04893e-05
2.40948e-05
4.68974e-05
8.49185e-05
0.00014789
0.000251319
0.000419513
0.000689845
0.00111852
0.00178785
0.00281471
0.00435883
0.00662875
0.00988157
0.0144126
0.0205322
0.028531
0.0386415
0.0510056
0.0656591
0.0825338
0.101474
0.122261
0.144632
0.168307
0.192994
0.218411
0.244284
0.270362
0.296414
0.322235
0.347646
0.372496
0.39666
0.420038
0.442547
0.464128
0.484741
0.504359
0.522973
0.540584
0.557203
0.572849
0.587548
0.601331
0.614232
0.626289
0.637539
0.648024
0.657784
0.666858
0.675286
0.683108
0.69036
0.697077
0.703295
0.708945
0.714101
0.719047
0.723622
0.727804
0.731805
0.735616
0.73924
0.742682
0.745942
0.749017
0.751907
0.754605
0.757106
0.7594
0.761482
0.763345
0.764975
0.766361
0.767492
0.768369
0.769004
0.769427
0.769688
0.769838
0.769919
0.769961
0.769982
0.769991
0.769996
0.769998
0.769999
0.77
0.77
0.77
0.77
0.77
0.77
0.77
0.77
0.77
0.77
0.77
2.38576e-06
1.04267e-05
2.39509e-05
4.66172e-05
8.44099e-05
0.000147001
0.000249802
0.000416966
0.000685637
0.00111167
0.00177688
0.00279746
0.00433225
0.00658871
0.00982282
0.0143288
0.0204163
0.0283759
0.0384404
0.0507531
0.065351
0.0821676
0.101049
0.121776
0.14409
0.167709
0.192344
0.21771
0.243538
0.269575
0.295589
0.321378
0.346761
0.371589
0.395735
0.419098
0.441599
0.463175
0.483787
0.503408
0.52203
0.539651
0.556284
0.571947
0.586665
0.60047
0.613394
0.625476
0.636753
0.647266
0.657054
0.666157
0.674615
0.682467
0.689749
0.696499
0.70275
0.70844
0.713623
0.718594
0.723193
0.727426
0.731418
0.735243
0.738882
0.742338
0.745614
0.748707
0.751614
0.754332
0.756854
0.759172
0.761274
0.763162
0.764817
0.76623
0.767388
0.768294
0.768952
0.769394
0.769669
0.769828
0.769914
0.769958
0.76998
0.769991
0.769996
0.769998
0.769999
0.77
0.77
0.77
0.77
0.77
0.77
0.77
0.77
0.77
0.77
0.77
2.3693e-06
1.03548e-05
2.37859e-05
4.62956e-05
8.38265e-05
0.000145982
0.000248062
0.000414048
0.000680817
0.00110383
0.00176433
0.00277772
0.00430185
0.00654294
0.00975566
0.0142331
0.0202839
0.0281986
0.0382107
0.0504644
0.0649987
0.0817488
0.100562
0.121222
0.14347
0.167024
0.191598
0.216908
0.242683
0.26867
0.294642
0.320392
0.345743
0.370542
0.394666
0.418012
0.440501
0.46207
0.48268
0.502304
0.520932
0.538564
0.555212
0.570892
0.585632
0.59946
0.612411
0.624521
0.635828
0.646372
0.656192
0.665329
0.673821
0.681707
0.689023
0.695807
0.702091
0.70782
0.713037
0.71804
0.722672
0.726961
0.730946
0.734789
0.738447
0.741923
0.745218
0.748333
0.751263
0.754005
0.756552
0.758897
0.76103
0.762943
0.764628
0.766071
0.767268
0.768203
0.768888
0.769354
0.769645
0.769815
0.769907
0.769955
0.769979
0.76999
0.769995
0.769998
0.769999
0.77
0.77
0.77
0.77
0.77
0.77
0.77
0.77
0.77
0.77
0.77
2.35085e-06
1.02742e-05
2.36009e-05
4.59354e-05
8.31731e-05
0.00014484
0.000246115
0.000410785
0.000675431
0.00109507
0.00175032
0.00275572
0.00426797
0.00649196
0.0096809
0.0141265
0.0201366
0.0280014
0.037955
0.0501432
0.0646067
0.0812826
0.10002
0.120605
0.142778
0.166261
0.190766
0.216011
0.241726
0.267659
0.293581
0.319286
0.344599
0.369366
0.393462
0.416788
0.439261
0.460821
0.481426
0.501051
0.519684
0.537327
0.553989
0.569688
0.58445
0.598303
0.611282
0.623423
0.634763
0.645342
0.655199
0.664373
0.672904
0.680829
0.688185
0.695009
0.701335
0.7071
0.712361
0.717408
0.722083
0.726418
0.730399
0.73426
0.737937
0.741434
0.744753
0.747892
0.750849
0.753619
0.756195
0.758572
0.760738
0.762681
0.764403
0.765892
0.767122
0.768092
0.768811
0.769304
0.769616
0.769798
0.769899
0.769951
0.769977
0.769989
0.769995
0.769998
0.769999
0.77
0.77
0.77
0.77
0.77
0.77
0.77
0.77
0.77
0.77
0.77
2.33052e-06
1.01855e-05
2.33972e-05
4.55388e-05
8.24542e-05
0.000143585
0.000243976
0.000407203
0.000669524
0.00108548
0.001735
0.00273166
0.00423097
0.00643634
0.0095994
0.0140104
0.0199762
0.0277868
0.0376769
0.0497938
0.0641802
0.0807754
0.0994309
0.119933
0.142025
0.165429
0.189859
0.215033
0.240681
0.266552
0.292418
0.318074
0.343342
0.368071
0.392136
0.415435
0.437889
0.459435
0.480033
0.499656
0.518294
0.535945
0.552621
0.568339
0.583123
0.597003
0.610011
0.622185
0.63356
0.644176
0.654073
0.663288
0.67186
0.679827
0.687227
0.694093
0.700462
0.706283
0.71159
0.71668
0.721396
0.725774
0.729764
0.733646
0.737347
0.740869
0.744214
0.747382
0.750369
0.753171
0.755782
0.758196
0.760402
0.762392
0.764154
0.765676
0.766947
0.767959
0.768717
0.769243
0.769579
0.769778
0.769888
0.769945
0.769974
0.769988
0.769994
0.769998
0.769999
0.77
0.77
0.77
0.77
0.77
0.77
0.77
0.77
0.77
0.77
0.77
2.30839e-06
1.00889e-05
2.31754e-05
4.51075e-05
8.16727e-05
0.000142223
0.000241655
0.000403322
0.000663133
0.00107511
0.00171846
0.00270575
0.00419119
0.00637663
0.00951203
0.0138861
0.0198047
0.0275576
0.0373801
0.0494211
0.0637256
0.0802349
0.0988026
0.119217
0.141222
0.164542
0.188891
0.213987
0.239563
0.265367
0.291171
0.31677
0.341988
0.366674
0.390701
0.41397
0.4364
0.457929
0.478515
0.498133
0.516771
0.534429
0.551117
0.566852
0.581658
0.595564
0.608603
0.62081
0.632222
0.642878
0.652816
0.662074
0.670692
0.678706
0.686152
0.693067
0.699484
0.70541
0.710758
0.715875
0.720624
0.725032
0.729041
0.732947
0.736675
0.740225
0.7436
0.746799
0.749819
0.752657
0.755307
0.757762
0.760013
0.76205
0.763858
0.765423
0.766741
0.767801
0.768603
0.769168
0.769534
0.769753
0.769875
0.769939
0.769971
0.769986
0.769994
0.769997
0.769999
0.769999
0.77
0.77
0.77
0.77
0.77
0.77
0.77
0.77
0.77
0.77
2.28445e-06
9.98435e-06
2.29357e-05
4.46415e-05
8.08293e-05
0.000140754
0.000239158
0.000399152
0.000656281
0.00106403
0.00170082
0.00267817
0.00414894
0.00631337
0.00941969
0.0137551
0.0196242
0.0273166
0.0370686
0.0490307
0.0632497
0.0796696
0.0981459
0.118468
0.140383
0.163615
0.187878
0.212893
0.238391
0.264122
0.289859
0.315397
0.34056
0.365196
0.389181
0.412413
0.434814
0.45632
0.47689
0.496498
0.515134
0.532795
0.549492
0.565241
0.580067
0.593999
0.607067
0.619307
0.630757
0.641453
0.651434
0.660738
0.669403
0.677465
0.68496
0.691923
0.698386
0.704385
0.709823
0.714865
0.719686
0.724149
0.728219
0.732161
0.735921
0.739502
0.742908
0.74614
0.749196
0.752072
0.754762
0.75726
0.759557
0.761633
0.763494
0.765118
0.766494
0.767611
0.768467
0.769077
0.769478
0.769721
0.769858
0.76993
0.769967
0.769985
0.769993
0.769997
0.769999
0.769999
0.77
0.77
0.77
0.77
0.77
0.77
0.77
0.77
0.77
0.77
2.25855e-06
9.87134e-06
2.26767e-05
4.41383e-05
7.99197e-05
0.000139172
0.000236474
0.00039468
0.000648949
0.0010522
0.00168204
0.00264893
0.00410431
0.00624679
0.00932286
0.0136181
0.0194364
0.0270668
0.0367467
0.0486281
0.0627604
0.0790895
0.097473
0.117702
0.139525
0.162666
0.186842
0.211772
0.23719
0.262845
0.288509
0.313981
0.339083
0.363665
0.387601
0.410792
0.433157
0.454634
0.475183
0.494777
0.513404
0.531064
0.547766
0.563527
0.578371
0.592324
0.60542
0.617693
0.629179
0.639916
0.64994
0.659291
0.668005
0.676118
0.683667
0.690687
0.697211
0.703268
0.70877
0.713825
0.71868
0.723191
0.727371
0.731307
0.735093
0.738703