/*--------------------------------*- C++ -*----------------------------------*\
  =========                 |
  \\      /  F ield         | OpenFOAM: The Open Source CFD Toolbox
   \\    /   O peration     | Website:  https://openfoam.org
    \\  /    A nd           | Version:  8
     \\/     M anipulation  |
\*---------------------------------------------------------------------------*/
FoamFile
{
    version     2.0;
    format      ascii;
    class       volScalarField;
    location    "260/fluid";
    object      O2;
}
// * * * * * * * * * * * * * * * * * * * * * * * * * * * * * * * * * * * * * //

dimensions      [0 0 0 0 0 0 0];

internalField   nonuniform List<scalar> 
4000
(
3.73488e-10
1.63025e-09
3.7349e-09
7.24127e-09
1.3048e-08
2.25969e-08
3.81699e-08
6.33228e-08
1.03494e-07
1.66819e-07
2.65152e-07
4.15214e-07
6.39678e-07
9.67787e-07
1.43493e-06
2.08054e-06
2.9439e-06
4.0582e-06
5.44406e-06
7.10465e-06
9.02389e-06
1.11684e-05
1.34918e-05
1.59401e-05
1.84567e-05
2.09861e-05
2.34768e-05
2.58829e-05
2.81647e-05
3.02898e-05
3.22337e-05
3.39809e-05
3.55288e-05
3.68931e-05
3.81184e-05
3.9291e-05
4.05535e-05
4.21183e-05
4.42799e-05
4.74238e-05
5.20371e-05
5.87266e-05
6.82475e-05
8.15433e-05
9.9802e-05
0.000124532
0.000157667
0.000201697
0.00025985
0.000336317
0.000436546
0.000567621
0.000738755
0.000961919
0.00125267
0.00163119
0.00212366
0.00276397
0.00359591
0.00466684
0.00603477
0.00784029
0.0101679
0.0131611
0.0169443
0.0335133
0.0503229
0.067113
0.0836796
0.099858
0.115513
0.130531
0.144812
0.158268
0.170812
0.182292
0.19275
0.201999
0.209929
0.216433
0.221444
0.225
0.227293
0.228632
0.229346
0.229698
0.229864
0.22994
0.229974
0.229989
0.229995
0.229998
0.229999
0.23
0.23
0.23
0.23
0.23
0.23
0.23
3.84356e-10
1.67911e-09
3.85277e-09
7.48508e-09
1.35191e-08
2.34703e-08
3.97401e-08
6.60697e-08
1.08174e-07
1.74581e-07
2.7767e-07
4.34822e-07
6.69464e-07
1.01162e-06
1.49738e-06
2.16668e-06
3.05904e-06
4.20759e-06
5.63267e-06
7.33708e-06
9.30437e-06
1.15007e-05
1.3879e-05
1.63848e-05
1.89603e-05
2.15489e-05
2.40979e-05
2.656e-05
2.88944e-05
3.10677e-05
3.30546e-05
3.48395e-05
3.64199e-05
3.78134e-05
3.90677e-05
4.02748e-05
4.15856e-05
4.32229e-05
4.54942e-05
4.87993e-05
5.36401e-05
6.06381e-05
7.05634e-05
8.43753e-05
0.00010328
0.00012881
0.000162927
0.000208166
0.000267808
0.000346123
0.000448666
0.000582679
0.00075761
0.000985798
0.00128338
0.0016715
0.00217793
0.00283924
0.00370372
0.00481901
0.00627328
0.00823156
0.0108096
0.0142143
0.0187906
0.0355857
0.0525488
0.0694479
0.0860936
0.102329
0.118021
0.133057
0.147337
0.160766
0.173253
0.184655
0.194968
0.204014
0.211675
0.217847
0.222491
0.225693
0.227699
0.228844
0.229446
0.229742
0.229883
0.229948
0.229977
0.22999
0.229996
0.229998
0.229999
0.23
0.23
0.23
0.23
0.23
0.23
0.23
4.00459e-10
1.75031e-09
4.0197e-09
7.81806e-09
1.4137e-08
2.45696e-08
4.16373e-08
6.92623e-08
1.13422e-07
1.83015e-07
2.90918e-07
4.55151e-07
6.99924e-07
1.05617e-06
1.56095e-06
2.25521e-06
3.17934e-06
4.36715e-06
5.83944e-06
7.59918e-06
9.62981e-06
1.18971e-05
1.43534e-05
1.69429e-05
1.96067e-05
2.22867e-05
2.49281e-05
2.74819e-05
2.99053e-05
3.21633e-05
3.42292e-05
3.60864e-05
3.77329e-05
3.91881e-05
4.05042e-05
4.17819e-05
4.31847e-05
4.49519e-05
4.74115e-05
5.09861e-05
5.62014e-05
6.37036e-05
7.42878e-05
8.89409e-05
0.000108901
0.000135741
0.000171475
0.000218699
0.000280781
0.000362093
0.000468324
0.000606884
0.000787439
0.00102262
0.00132895
0.00172819
0.00224901
0.00292954
0.00382078
0.00496675
0.00647367
0.00851942
0.0112609
0.0149839
0.0222983
0.0392046
0.0562595
0.0732233
0.0899023
0.106137
0.121793
0.136755
0.150917
0.164182
0.176449
0.187626
0.197602
0.206256
0.213481
0.219197
0.223408
0.226254
0.228008
0.228999
0.229519
0.229775
0.229898
0.229954
0.22998
0.229991
0.229996
0.229998
0.229999
0.23
0.23
0.23
0.23
0.23
0.23
0.23
4.16895e-10
1.82227e-09
4.18554e-09
8.14192e-09
1.47245e-08
2.5592e-08
4.33672e-08
7.21259e-08
1.18074e-07
1.90437e-07
3.02554e-07
4.73075e-07
7.27036e-07
1.09639e-06
1.61943e-06
2.33837e-06
3.29493e-06
4.52411e-06
6.04765e-06
7.86907e-06
9.97197e-06
1.23218e-05
1.487e-05
1.75597e-05
2.03302e-05
2.31216e-05
2.5877e-05
2.85451e-05
3.10811e-05
3.34479e-05
3.56171e-05
3.75711e-05
3.93079e-05
4.08491e-05
4.22529e-05
4.36305e-05
4.51613e-05
4.71054e-05
4.98168e-05
5.37466e-05
5.94507e-05
6.76066e-05
7.90435e-05
9.47864e-05
0.000116121
0.000144678
0.000182548
0.000232428
0.000297809
0.00038322
0.000494541
0.000639408
0.000827734
0.00107239
0.00139011
0.00180259
0.00233807
0.0030333
0.00393623
0.00508096
0.0065605
0.00852289
0.0110715
0.0143846
0.0267059
0.0436543
0.0607494
0.0777286
0.0943861
0.110557
0.126105
0.140913
0.154876
0.167895
0.179829
0.19067
0.200256
0.208479
0.215245
0.220502
0.224293
0.226799
0.228313
0.229157
0.229595
0.229811
0.229913
0.229961
0.229983
0.229993
0.229997
0.229999
0.229999
0.23
0.23
0.23
0.23
0.23
0.23
0.23
4.32921e-10
1.8923e-09
4.34639e-09
8.455e-09
1.52912e-08
2.65777e-08
4.50384e-08
7.49047e-08
1.22618e-07
1.9775e-07
3.14134e-07
4.91101e-07
7.54584e-07
1.13767e-06
1.67997e-06
2.4252e-06
3.41656e-06
4.69042e-06
6.2696e-06
8.15833e-06
1.03404e-05
1.27811e-05
1.5431e-05
1.82321e-05
2.11222e-05
2.40391e-05
2.69241e-05
2.97234e-05
3.23899e-05
3.48841e-05
3.71758e-05
3.9246e-05
4.10931e-05
4.27412e-05
4.42554e-05
4.57599e-05
4.7453e-05
4.96194e-05
5.26434e-05
5.70091e-05
6.33071e-05
7.22519e-05
8.47132e-05
0.000101765
0.000124752
0.000155388
0.000195869
0.000249033
0.000318564
0.000409244
0.000527293
0.000680798
0.000880274
0.00113938
0.00147583
0.00191255
0.0024791
0.00321331
0.00416308
0.00536151
0.00694433
0.00897528
0.0115467
0.0147099
0.0311483
0.0482678
0.0654553
0.0824554
0.0990695
0.115139
0.130531
0.145133
0.158843
0.171564
0.183147
0.193607
0.202772
0.210545
0.216848
0.221657
0.225055
0.227256
0.228564
0.229285
0.229657
0.229839
0.229926
0.229967
0.229985
0.229994
0.229997
0.229999
0.23
0.23
0.23
0.23
0.23
0.23
0.23
0.23
4.48258e-10
1.95924e-09
4.49991e-09
8.75321e-09
1.58301e-08
2.75141e-08
4.66258e-08
7.7547e-08
1.26948e-07
2.04743e-07
3.25262e-07
5.08532e-07
7.81432e-07
1.17827e-06
1.74014e-06
2.51246e-06
3.54019e-06
4.86136e-06
6.50012e-06
8.46158e-06
1.07299e-05
1.32699e-05
1.60316e-05
1.89556e-05
2.19779e-05
2.50345e-05
2.80642e-05
3.10108e-05
3.38247e-05
3.64641e-05
3.88965e-05
4.11018e-05
4.30784e-05
4.48539e-05
4.65019e-05
4.81614e-05
5.0053e-05
5.24896e-05
5.58893e-05
6.0773e-05
6.77692e-05
7.76334e-05
9.12812e-05
0.000109842
0.000134735
0.000167767
0.000211263
0.000268238
0.00034261
0.000439492
0.000565564
0.000729572
0.000942995
0.00122094
0.00158333
0.0020566
0.00267592
0.00348843
0.00454773
0.00592225
0.00779419
0.0102821
0.0136111
0.0180235
0.0353424
0.0527831
0.070114
0.087138
0.103689
0.119628
0.134832
0.149197
0.162624
0.175018
0.186282
0.196343
0.205083
0.212416
0.218277
0.22267
0.225713
0.227647
0.228778
0.229394
0.22971
0.229864
0.229938
0.229972
0.229988
0.229995
0.229998
0.229999
0.23
0.23
0.23
0.23
0.23
0.23
0.23
0.23
4.63081e-10
2.02396e-09
4.64836e-09
9.04184e-09
1.63524e-08
2.84238e-08
4.81725e-08
8.01315e-08
1.31203e-07
2.11653e-07
3.36324e-07
5.25972e-07
8.08472e-07
1.21943e-06
1.80155e-06
2.60207e-06
3.66792e-06
5.03897e-06
6.74095e-06
8.78002e-06
1.11408e-05
1.3788e-05
1.6671e-05
1.97289e-05
2.28961e-05
2.61065e-05
2.92965e-05
3.24073e-05
3.53866e-05
3.819e-05
4.07828e-05
4.31434e-05
4.52707e-05
4.71965e-05
4.90043e-05
5.08507e-05
5.29812e-05
5.57407e-05
5.95844e-05
6.5072e-05
7.2873e-05
8.37858e-05
9.87754e-05
0.000119032
0.000146052
0.000181744
0.000228565
0.000289701
0.000369297
0.000472757
0.000607147
0.00078172
0.00100864
0.00130392
0.0016888
0.00219152
0.00284994
0.00371523
0.00483552
0.00630485
0.0083263
0.0110514
0.0147736
0.0226524
0.0399949
0.057447
0.0747501
0.0916987
0.108126
0.123895
0.138888
0.153002
0.166141
0.178203
0.189131
0.198811
0.20715
0.214069
0.21952
0.223536
0.226266
0.22797
0.228953
0.229483
0.229753
0.229884
0.229947
0.229976
0.229989
0.229995
0.229998
0.229999
0.23
0.23
0.23
0.23
0.23
0.23
0.23
0.23
4.77455e-10
2.08672e-09
4.79239e-09
9.32203e-09
1.68599e-08
2.9309e-08
4.96806e-08
8.26578e-08
1.35376e-07
2.18455e-07
3.4726e-07
5.43299e-07
8.35484e-07
1.26079e-06
1.86364e-06
2.69327e-06
3.79875e-06
5.22204e-06
6.99066e-06
9.11206e-06
1.15715e-05
1.43338e-05
1.73476e-05
2.05508e-05
2.38761e-05
2.72553e-05
3.06224e-05
3.39157e-05
3.70803e-05
4.00689e-05
4.28441e-05
4.53832e-05
4.76857e-05
4.97883e-05
5.17863e-05
5.38566e-05
5.62722e-05
5.94136e-05
6.37758e-05
6.99594e-05
7.86765e-05
9.07709e-05
0.000107261
0.000129404
0.00015878
0.000197406
0.00024788
0.000313562
0.000398811
0.000509294
0.000652376
0.000837644
0.00107758
0.00138847
0.00179153
0.00231453
0.00299378
0.0038764
0.00499996
0.00644696
0.00839302
0.0109317
0.0142408
0.0272185
0.0445043
0.0619016
0.0791284
0.0959683
0.112251
0.127838
0.142616
0.156482
0.169346
0.181075
0.191677
0.201003
0.208969
0.215507
0.220586
0.224266
0.226725
0.228235
0.229096
0.229555
0.229787
0.229901
0.229954
0.229979
0.229991
0.229996
0.229998
0.229999
0.23
0.23
0.23
0.23
0.23
0.23
0.23
0.23
4.91424e-10
2.14773e-09
4.93247e-09
9.59477e-09
1.73546e-08
3.01732e-08
5.11564e-08
8.51369e-08
1.39485e-07
2.25176e-07
3.58111e-07
5.60568e-07
8.62533e-07
1.30241e-06
1.92643e-06
2.78596e-06
3.9324e-06
5.41001e-06
7.24834e-06
9.45642e-06
1.20204e-05
1.49054e-05
1.80594e-05
2.14196e-05
2.49169e-05
2.84809e-05
3.20432e-05
3.55395e-05
3.89117e-05
4.21094e-05
4.50928e-05
4.78373e-05
5.03437e-05
5.26546e-05
5.48788e-05
5.72159e-05
5.99689e-05
6.35571e-05
6.8517e-05
7.54915e-05
8.52364e-05
9.86441e-05
0.000116792
0.000141011
0.000172981
0.000214849
0.00026938
0.000340157
0.000431823
0.00055041
0.000703751
0.000902017
0.00115841
0.00149005
0.0019191
0.00247417
0.00319206
0.00412029
0.00529157
0.006797
0.00878265
0.011312
0.0144668
0.0310725
0.0484763
0.065905
0.0830956
0.0998449
0.115992
0.131405
0.145976
0.159608
0.172211
0.183654
0.193946
0.202939
0.210558
0.216746
0.221491
0.224877
0.227103
0.228451
0.229211
0.229613
0.229815
0.229914
0.229961
0.229982
0.229992
0.229997
0.229998
0.229999
0.23
0.23
0.23
0.23
0.23
0.23
0.23
0.23
5.04953e-10
2.20682e-09
5.06822e-09
9.85931e-09
1.7835e-08
3.10137e-08
5.25943e-08
8.75582e-08
1.43509e-07
2.3178e-07
3.68811e-07
5.77664e-07
8.89425e-07
1.34398e-06
1.98944e-06
2.87944e-06
4.06787e-06
5.60151e-06
7.51222e-06
9.81088e-06
1.24849e-05
1.54998e-05
1.88037e-05
2.23326e-05
2.60162e-05
2.97823e-05
3.35597e-05
3.72815e-05
4.08864e-05
4.43209e-05
4.75423e-05
5.05244e-05
5.3269e-05
5.58258e-05
5.83192e-05
6.09731e-05
6.41221e-05
6.82265e-05
7.38643e-05
8.17201e-05
9.25924e-05
0.000107422
0.000127348
0.00015378
0.000188503
0.000233805
0.000292644
0.000368854
0.000467427
0.000594866
0.00075966
0.000972904
0.00124912
0.00160736
0.00207263
0.00267792
0.00346677
0.00449234
0.00579624
0.00755421
0.0098582
0.0128802
0.016769
0.0342817
0.0519308
0.0694545
0.0866403
0.103315
0.119336
0.134585
0.148961
0.162373
0.174739
0.18597
0.195968
0.204635
0.21193
0.217802
0.222251
0.225382
0.227412
0.228626
0.229303
0.22966
0.229838
0.229924
0.229965
0.229984
0.229993
0.229997
0.229999
0.229999
0.23
0.23
0.23
0.23
0.23
0.23
0.23
0.23
5.17966e-10
2.26368e-09
5.19888e-09
1.01141e-08
1.82982e-08
3.18255e-08
5.39857e-08
8.99064e-08
1.47421e-07
2.38222e-07
3.79283e-07
5.94456e-07
9.15945e-07
1.38515e-06
2.05213e-06
2.97287e-06
4.20392e-06
5.79481e-06
7.77999e-06
1.01725e-05
1.29614e-05
1.6113e-05
1.95757e-05
2.32852e-05
2.71699e-05
3.1156e-05
3.517e-05
3.91423e-05
4.30085e-05
4.67117e-05
5.02062e-05
5.34641e-05
5.64886e-05
5.93372e-05
6.21522e-05
6.51829e-05
6.87951e-05
7.34914e-05
7.98888e-05
8.87104e-05
0.000100793
0.000117124
0.000138897
0.000167596
0.000205105
0.000253841
0.000316931
0.000398439
0.000503662
0.000639517
0.000815066
0.0010422
0.00133658
0.0017189
0.00221663
0.0028664
0.0037174
0.00482078
0.00625425
0.00822062
0.010851
0.0144086
0.0198064
0.0374691
0.0551882
0.0727135
0.0898452
0.106421
0.122307
0.13739
0.151574
0.164771
0.176898
0.187878
0.197623
0.206044
0.213079
0.218684
0.222882
0.225797
0.227663
0.228767
0.229377
0.229697
0.229856
0.229933
0.229969
0.229986
0.229994
0.229997
0.229999
0.229999
0.23
0.23
0.23
0.23
0.23
0.23
0.23
0.23
5.30346e-10
2.31777e-09
5.32325e-09
1.03568e-08
1.87398e-08
3.26006e-08
5.53168e-08
9.21577e-08
1.51182e-07
2.4443e-07
3.89409e-07
6.10752e-07
9.4178e-07
1.42542e-06
2.11372e-06
3.06511e-06
4.33891e-06
5.98762e-06
8.04853e-06
1.05372e-05
1.34448e-05
1.67389e-05
2.03687e-05
2.42699e-05
2.83704e-05
3.25948e-05
3.68681e-05
4.11181e-05
4.52774e-05
4.92859e-05
5.30948e-05
5.66743e-05
6.00297e-05
6.32272e-05
6.64283e-05
6.99089e-05
7.40669e-05
7.94424e-05
8.66884e-05
9.65607e-05
0.00010993
0.00012782
0.000151474
0.000182435
0.000222663
0.000274669
0.000341697
0.000427954
0.000538908
0.000681681
0.00086557
0.00110274
0.00140913
0.00180572
0.00232016
0.00298902
0.00386091
0.00498178
0.00642769
0.00839008
0.010975
0.0143937
0.022908
0.0405502
0.0582265
0.0756837
0.0927217
0.10918
0.124926
0.139849
0.153855
0.166858
0.178776
0.189515
0.19902
0.207253
0.214055
0.219425
0.223405
0.226137
0.227867
0.22888
0.229437
0.229726
0.22987
0.229939
0.229972
0.229988
0.229994
0.229998
0.229999
0.23
0.23
0.23
0.23
0.23
0.23
0.23
0.23
0.23
5.41948e-10
2.36848e-09
5.43988e-09
1.05846e-08
1.91547e-08
3.33297e-08
5.6571e-08
9.42835e-08
1.54742e-07
2.50324e-07
3.99051e-07
6.26323e-07
9.66559e-07
1.4642e-06
2.1733e-06
3.15476e-06
4.47079e-06
6.177e-06
8.31382e-06
1.08997e-05
1.39282e-05
1.73691e-05
2.11726e-05
2.52751e-05
2.96046e-05
3.40853e-05
3.86408e-05
4.3197e-05
4.76841e-05
5.2039e-05
5.62103e-05
6.01666e-05
6.39157e-05
6.75345e-05
7.12048e-05
7.52287e-05
8.0034e-05
8.61948e-05
9.43951e-05
0.000105419
0.000120165
0.000139692
0.000165283
0.000198532
0.000241458
0.000296642
0.000367407
0.00045804
0.000574094
0.000722761
0.000913378
0.00115808
0.00147265
0.00187768
0.00240001
0.00307475
0.00394781
0.00506196
0.00648343
0.00839205
0.0108721
0.0140996
0.0257577
0.0433344
0.0609368
0.0783074
0.095244
0.111585
0.1272
0.141978
0.155825
0.168655
0.180374
0.190922
0.200252
0.20824
0.214867
0.220041
0.223837
0.226416
0.228032
0.228972
0.229485
0.22975
0.229881
0.229945
0.229975
0.229989
0.229995
0.229998
0.229999
0.23
0.23
0.23
0.23
0.23
0.23
0.23
0.23
0.23
5.5261e-10
2.41508e-09
5.5471e-09
1.07941e-08
1.95368e-08
3.40021e-08
5.77295e-08
9.62511e-08
1.58044e-07
2.55806e-07
4.08048e-07
6.40901e-07
9.89846e-07
1.5008e-06
2.22978e-06
3.24016e-06
4.59706e-06
6.35935e-06
8.57079e-06
1.12531e-05
1.44027e-05
1.79918e-05
2.19727e-05
2.62834e-05
3.08526e-05
3.5605e-05
4.04637e-05
4.53539e-05
5.02043e-05
5.49498e-05
5.95368e-05
6.39338e-05
6.81523e-05
7.22817e-05
7.65256e-05
8.12088e-05
8.67854e-05
9.38592e-05
0.000103141
0.000115438
0.00013168
0.000152957
0.000180591
0.000216226
0.000261936
0.000320364
0.000394901
0.000489907
0.000611
0.000765435
0.00096259
0.00121461
0.00153723
0.00195092
0.00248228
0.00316609
0.00404773
0.00516785
0.00659436
0.00850834
0.0109975
0.0142306
0.0281457
0.0456937
0.063245
0.0805459
0.0973964
0.113637
0.129138
0.143791
0.157502
0.170188
0.18174
0.192161
0.201315
0.209125
0.215534
0.220551
0.224192
0.226642
0.228166
0.229045
0.229523
0.229769
0.22989
0.229949
0.229977
0.22999
0.229995
0.229998
0.229999
0.23
0.23
0.23
0.23
0.23
0.23
0.23
0.23
0.23
5.62159e-10
2.45683e-09
5.64319e-09
1.0982e-08
1.98798e-08
3.46063e-08
5.87722e-08
9.80253e-08
1.61029e-07
2.60774e-07
4.16225e-07
6.54195e-07
1.01116e-06
1.53444e-06
2.28191e-06
3.31936e-06
4.71481e-06
6.53035e-06
8.81325e-06
1.15887e-05
1.48564e-05
1.85916e-05
2.27495e-05
2.72701e-05
3.20845e-05
3.71184e-05
4.22964e-05
4.75441e-05
5.279e-05
5.7969e-05
6.30271e-05
6.79341e-05
7.27078e-05
7.74526e-05
8.23943e-05
8.78737e-05
9.43652e-05
0.000102498
0.000113004
0.000126719
0.0001446
0.000167775
0.000197612
0.000235807
0.000284497
0.000346394
0.000424964
0.000524647
0.000651144
0.000811788
0.00101603
0.00127605
0.00160762
0.00203117
0.0025731
0.00326761
0.00416004
0.00528941
0.00672662
0.00865417
0.0111615
0.0144077
0.0300226
0.0475864
0.0651245
0.0823869
0.099178
0.115342
0.130753
0.145305
0.158905
0.171457
0.182909
0.19319
0.202197
0.209857
0.216118
0.220967
0.22448
0.226825
0.228273
0.229104
0.229553
0.229784
0.229898
0.229952
0.229978
0.22999
0.229996
0.229998
0.229999
0.23
0.23
0.23
0.23
0.23
0.23
0.23
0.23
0.23
5.70424e-10
2.49296e-09
5.72638e-09
1.11448e-08
2.01771e-08
3.51307e-08
5.96786e-08
9.95704e-08
1.63634e-07
2.65121e-07
4.23399e-07
6.65896e-07
1.02999e-06
1.56426e-06
2.32835e-06
3.39025e-06
4.82073e-06
6.68505e-06
9.03391e-06
1.18961e-05
1.52749e-05
1.91491e-05
2.34771e-05
2.82022e-05
3.32584e-05
3.85744e-05
4.40775e-05
4.96955e-05
5.53595e-05
6.10061e-05
6.6584e-05
7.20675e-05
7.74843e-05
8.29575e-05
8.87326e-05
9.51544e-05
0.00010271
0.000112047
0.000123922
0.000139196
0.00015886
0.00018409
0.000216308
0.000257275
0.000309205
0.000374897
0.000457916
0.000562815
0.000695417
0.000863191
0.00107572
0.00134533
0.00168783
0.00212345
0.00267847
0.00338714
0.00429395
0.00543411
0.00687543
0.00878871
0.0112428
0.014338
0.0313035
0.0490012
0.0665914
0.083855
0.100614
0.116724
0.132064
0.146531
0.160033
0.172506
0.183858
0.194023
0.202909
0.210445
0.216577
0.221301
0.224705
0.226969
0.228357
0.22915
0.229577
0.229796
0.229903
0.229955
0.229979
0.229991
0.229996
0.229998
0.229999
0.23
0.23
0.23
0.23
0.23
0.23
0.23
0.23
0.23
5.77241e-10
2.52277e-09
5.79502e-09
1.12791e-08
2.04227e-08
3.55644e-08
6.04292e-08
1.00852e-07
1.65799e-07
2.68741e-07
4.29391e-07
6.75698e-07
1.04581e-06
1.58943e-06
2.36768e-06
3.45057e-06
4.9113e-06
6.81804e-06
9.22472e-06
1.21635e-05
1.56414e-05
1.96409e-05
2.41239e-05
2.90377e-05
3.43201e-05
3.9904e-05
4.57208e-05
5.17031e-05
5.77866e-05
6.39134e-05
7.00387e-05
7.6146e-05
8.22785e-05
8.85825e-05
9.53173e-05
0.000102812
0.000111557
0.000122215
0.000135563
0.000152493
0.00017404
0.000201429
0.00023615
0.000280042
0.000335406
0.000405151
0.000492967
0.000603555
0.000742917
0.000918736
0.00114084
0.00142182
0.00177781
0.00222983
0.00280549
0.00353995
0.00447825
0.00565138
0.00714204
0.00912569
0.0116822
0.014929
0.0324745
0.0501886
0.0677819
0.0850306
0.101758
0.117822
0.133103
0.147501
0.160941
0.173333
0.184603
0.194677
0.203467
0.210904
0.216939
0.221569
0.224882
0.227078
0.228421
0.229185
0.229595
0.229804
0.229908
0.229957
0.22998
0.229991
0.229996
0.229998
0.229999
0.23
0.23
0.23
0.23
0.23
0.23
0.23
0.23
0.23
5.8247e-10
2.54563e-09
5.84769e-09
1.13823e-08
2.06113e-08
3.58977e-08
6.10065e-08
1.01839e-07
1.67469e-07
2.7154e-07
4.34035e-07
6.83314e-07
1.05814e-06
1.60911e-06
2.39856e-06
3.49811e-06
4.98301e-06
6.92385e-06
9.37732e-06
1.23787e-05
1.59381e-05
2.00414e-05
2.46544e-05
2.97281e-05
3.52048e-05
4.1022e-05
4.71166e-05
5.34272e-05
5.98968e-05
6.6476e-05
7.31309e-05
7.98604e-05
8.67305e-05
9.39175e-05
0.000101687
0.000110329
0.000120323
0.000132339
0.000147176
0.000165759
0.000189169
0.000218692
0.000255887
0.000302677
0.000361463
0.00043527
0.000527929
0.00064431
0.000790617
0.000974777
0.00120693
0.00150009
0.00187115
0.00234204
0.00294043
0.00370268
0.00467608
0.00588531
0.00743238
0.00948419
0.0121229
0.0154618
0.0332009
0.051013
0.0686473
0.0859013
0.10261
0.11864
0.133879
0.148236
0.161619
0.173951
0.185156
0.195162
0.20388
0.211244
0.217205
0.221766
0.225018
0.227161
0.228468
0.229211
0.229608
0.229811
0.229911
0.229959
0.229981
0.229991
0.229996
0.229998
0.229999
0.23
0.23
0.23
0.23
0.23
0.23
0.23
0.23
0.23
5.86e-10
2.56107e-09
5.88324e-09
1.14519e-08
2.07386e-08
3.61226e-08
6.13962e-08
1.02506e-07
1.68598e-07
2.73434e-07
4.3718e-07
6.88484e-07
1.06653e-06
1.62253e-06
2.41969e-06
3.53077e-06
5.03247e-06
6.99714e-06
9.48351e-06
1.25291e-05
1.61466e-05
2.03246e-05
2.50319e-05
3.02227e-05
3.58431e-05
4.18351e-05
4.81405e-05
5.47042e-05
6.14767e-05
6.84182e-05
7.55074e-05
8.27608e-05
9.027e-05
9.82377e-05
0.000106951
0.000116738
0.000127929
0.000141202
0.000157379
0.000177423
0.000202464
0.000233843
0.000273186
0.000322492
0.000384252
0.000461596
0.000558477
0.000679916
0.000832301
0.00102379
0.00126483
0.00156885
0.00195307
0.00243939
0.00305625
0.0038404
0.00483936
0.00607268
0.00770447
0.00980146
0.0125019
0.0159166
0.0337326
0.0515886
0.0692406
0.0864935
0.103189
0.119198
0.13441
0.14873
0.162075
0.174364
0.185525
0.195484
0.204155
0.211469
0.217381
0.221894
0.225106
0.227217
0.2285
0.229228
0.229617
0.229815
0.229913
0.22996
0.229982
0.229992
0.229996
0.229998
0.229999
0.23
0.23
0.23
0.23
0.23
0.23
0.23
0.23
0.23
5.87757e-10
2.56874e-09
5.90085e-09
1.14862e-08
2.08012e-08
3.62328e-08
6.15865e-08
1.0283e-07
1.69146e-07
2.74351e-07
4.38701e-07
6.90981e-07
1.07058e-06
1.62902e-06
2.42991e-06
3.5466e-06
5.05651e-06
7.03289e-06
9.53553e-06
1.26032e-05
1.62498e-05
2.04655e-05
2.52207e-05
3.04717e-05
3.61666e-05
4.225e-05
4.86669e-05
5.53661e-05
6.23029e-05
6.94438e-05
7.67759e-05
8.43275e-05
9.22042e-05
0.000100626
0.000109928
0.000120491
0.000132658
0.000146843
0.000163933
0.000184941
0.000211041
0.00024362
0.000284351
0.000335289
0.000398985
0.000478644
0.000578306
0.000703095
0.000859529
0.00105591
0.00130286
0.00161395
0.0020066
0.00250314
0.00313239
0.00393152
0.00494831
0.00620287
0.00786233
0.00998649
0.0127133
0.0161474
0.034016
0.051897
0.069557
0.0868072
0.103493
0.119487
0.134681
0.148981
0.162303
0.17457
0.185708
0.195643
0.204289
0.211578
0.217465
0.221956
0.225147
0.227243
0.228516
0.229236
0.229622
0.229817
0.229914
0.22996
0.229982
0.229992
0.229996
0.229998
0.229999
0.23
0.23
0.23
0.23
0.23
0.23
0.23
0.23
0.23
5.87779e-10
2.56883e-09
5.90107e-09
1.14866e-08
2.08019e-08
3.6234e-08
6.15884e-08
1.02833e-07
1.6915e-07
2.74357e-07
4.38709e-07
6.90988e-07
1.07059e-06
1.62901e-06
2.42989e-06
3.54653e-06
5.05636e-06
7.03261e-06
9.53505e-06
1.26024e-05
1.62486e-05
2.04638e-05
2.52184e-05
3.04686e-05
3.61625e-05
4.22448e-05
4.86605e-05
5.53583e-05
6.22936e-05
6.94329e-05
7.67632e-05
8.43128e-05
9.21874e-05
0.000100606
0.000109906
0.000120465
0.000132629
0.00014681
0.000163895
0.000184897
0.000210989
0.000243558
0.000284278
0.000335203
0.000398884
0.000478523
0.000578164
0.00070293
0.000859337
0.00105569
0.00130261
0.00161367
0.00200628
0.00250278
0.00313198
0.00393106
0.00494782
0.00620243
0.0078621
0.00998667
0.0127141
0.0161489
0.0340176
0.0518986
0.0695585
0.0868086
0.103494
0.119488
0.134682
0.148981
0.162304
0.174571
0.185709
0.195644
0.204289
0.211579
0.217466
0.221956
0.225147
0.227243
0.228516
0.229236
0.229622
0.229817
0.229914
0.22996
0.229982
0.229992
0.229996
0.229998
0.229999
0.23
0.23
0.23
0.23
0.23
0.23
0.23
0.23
0.23
5.86064e-10
2.56135e-09
5.88387e-09
1.14531e-08
2.07407e-08
3.61261e-08
6.14018e-08
1.02514e-07
1.68611e-07
2.73451e-07
4.37202e-07
6.88508e-07
1.06655e-06
1.62252e-06
2.41963e-06
3.53059e-06
5.03207e-06
6.99639e-06
9.48222e-06
1.2527e-05
1.61434e-05
2.032e-05
2.50254e-05
3.0214e-05
3.58317e-05
4.18206e-05
4.81224e-05
5.46822e-05
6.14503e-05
6.83871e-05
7.54712e-05
8.27192e-05
9.02226e-05
9.81837e-05
0.000106889
0.000116668
0.000127849
0.000141112
0.000157276
0.000177305
0.000202327
0.000233684
0.000273001
0.000322277
0.000384002
0.000461306
0.000558144
0.000679535
0.000831871
0.00102331
0.00126432
0.00156832
0.00195253
0.00243888
0.00305582
0.0038401
0.0048393
0.00607296
0.00770532
0.00980328
0.0125051
0.015921
0.0337366
0.0515924
0.069244
0.0864965
0.103192
0.119201
0.134413
0.148733
0.162077
0.174366
0.185527
0.195486
0.204156
0.21147
0.217382
0.221895
0.225106
0.227217
0.2285
0.229228
0.229617
0.229815
0.229913
0.22996
0.229982
0.229992
0.229996
0.229998
0.229999
0.23
0.23
0.23
0.23
0.23
0.23
0.23
0.23
0.23
5.82578e-10
2.5461e-09
5.84876e-09
1.13843e-08
2.06149e-08
3.59038e-08
6.10165e-08
1.01855e-07
1.67493e-07
2.71574e-07
4.3408e-07
6.8337e-07
1.0582e-06
1.60915e-06
2.39854e-06
3.49795e-06
4.98258e-06
6.92295e-06
9.37567e-06
1.23759e-05
1.59337e-05
2.0035e-05
2.46454e-05
2.97159e-05
3.51887e-05
4.10014e-05
4.70908e-05
5.33956e-05
5.98587e-05
6.64309e-05
7.30783e-05
7.97999e-05
8.66617e-05
9.38397e-05
0.000101599
0.00011023
0.000120211
0.000132212
0.000147031
0.000165592
0.000188975
0.000218466
0.000255622
0.000302365
0.000361094
0.000434835
0.000527414
0.000643702
0.000789902
0.000973937
0.00120596
0.00149899
0.00186996
0.00234079
0.00293921
0.00370163
0.00467548
0.00588529
0.00743345
0.00948692
0.0121275
0.0154667
0.0332058
0.0510189
0.0686533
0.0859071
0.102616
0.118645
0.133884
0.14824
0.161623
0.173955
0.18516
0.195165
0.203883
0.211246
0.217207
0.221767
0.225019
0.227161
0.228468
0.229211
0.229608
0.229811
0.229911
0.229959
0.229981
0.229991
0.229996
0.229998
0.229999
0.23
0.23
0.23
0.23
0.23
0.23
0.23
0.23
0.23
5.77388e-10
2.52341e-09
5.79649e-09
1.1282e-08
2.04277e-08
3.55728e-08
6.04429e-08
1.00874e-07
1.65832e-07
2.68789e-07
4.29457e-07
6.75782e-07
1.0459e-06
1.58951e-06
2.3677e-06
3.45042e-06
4.91084e-06
6.81701e-06
9.22278e-06
1.21602e-05
1.56362e-05
1.96331e-05
2.41128e-05
2.90226e-05
3.43002e-05
3.98785e-05
4.56891e-05
5.16643e-05
5.774e-05
6.38585e-05
6.9975e-05
7.60731e-05
8.21959e-05
8.84899e-05
9.5214e-05
0.000102697
0.000111428
0.00012207
0.000135398
0.000152304
0.00017382
0.000201174
0.000235853
0.000279693
0.000334996
0.00040467
0.000492403
0.000602898
0.000742158
0.00091787
0.00113987
0.00142075
0.00177665
0.00222865
0.00280436
0.00353903
0.00447778
0.00565154
0.00714354
0.00912884
0.0116867
0.0149321
0.0324797
0.0501972
0.0677913
0.0850399
0.101767
0.11783
0.13311
0.147508
0.160947
0.173339
0.184608
0.194681
0.20347
0.210907
0.216941
0.22157
0.224883
0.227079
0.228421
0.229185
0.229595
0.229804
0.229908
0.229957
0.22998
0.229991
0.229996
0.229998
0.229999
0.23
0.23
0.23
0.23
0.23
0.23
0.23
0.23
0.23
5.70607e-10
2.49376e-09
5.72821e-09
1.11483e-08
2.01833e-08
3.51413e-08
5.9696e-08
9.95981e-08
1.63677e-07
2.65184e-07
4.23488e-07
6.66013e-07
1.03013e-06
1.56441e-06
2.32844e-06
3.39019e-06
4.82035e-06
6.68408e-06
9.03196e-06
1.18926e-05
1.52693e-05
1.91407e-05
2.34651e-05
2.81858e-05
3.32367e-05
3.85467e-05
4.40429e-05
4.96534e-05
5.53091e-05
6.0947e-05
6.65159e-05
7.199e-05
7.73972e-05
8.28607e-05
8.86256e-05
9.50362e-05
0.000102579
0.000111901
0.000123756
0.000139006
0.000158642
0.000183835
0.000216009
0.000256923
0.000308787
0.0003744
0.000457325
0.000562111
0.000694583
0.000862208
0.00107457
0.00134401
0.00168635
0.00212185
0.00267684
0.00338567
0.00429292
0.00543394
0.00687632
0.00879164
0.0112476
0.0143429
0.0313166
0.049016
0.0666057
0.083868
0.100626
0.116734
0.132073
0.14654
0.160041
0.172513
0.183864
0.194029
0.202913
0.210448
0.21658
0.221302
0.224706
0.22697
0.228357
0.22915
0.229577
0.229796
0.229903
0.229955
0.229979
0.229991
0.229996
0.229998
0.229999
0.23
0.23
0.23
0.23
0.23
0.23
0.23
0.23
0.23
5.62376e-10
2.45777e-09
5.64535e-09
1.09862e-08
1.98872e-08
3.4619e-08
5.87932e-08
9.8059e-08
1.61081e-07
2.60853e-07
4.16338e-07
6.5435e-07
1.01136e-06
1.53466e-06
2.28212e-06
3.31945e-06
4.71461e-06
6.5296e-06
8.81154e-06
1.15855e-05
1.48511e-05
1.85835e-05
2.27377e-05
2.72539e-05
3.20629e-05
3.70907e-05
4.22619e-05
4.75021e-05
5.27401e-05
5.79107e-05
6.29602e-05
6.78585e-05
7.26236e-05
7.73599e-05
8.22929e-05
8.77631e-05
9.4244e-05
0.000102364
0.000112855
0.00012655
0.000144407
0.000167551
0.00019735
0.000235498
0.00028413
0.000345956
0.000424439
0.000524015
0.000650382
0.000810872
0.00101493
0.00127475
0.0016061
0.00202945
0.00257123
0.0032657
0.0041583
0.0052881
0.00672686
0.00865632
0.011166
0.0144117
0.030041
0.0476052
0.0651425
0.0824035
0.0991931
0.115356
0.130766
0.145317
0.158915
0.171467
0.182918
0.193197
0.202203
0.209862
0.216121
0.220969
0.224482
0.226826
0.228273
0.229104
0.229553
0.229784
0.229898
0.229952
0.229978
0.22999
0.229996
0.229998
0.229999
0.23
0.23
0.23
0.23
0.23
0.23
0.23
0.23
0.23
5.52856e-10
2.41616e-09
5.54957e-09
1.07989e-08
1.95454e-08
3.40168e-08
5.7754e-08
9.62906e-08
1.58106e-07
2.55901e-07
4.08187e-07
6.41096e-07
9.90105e-07
1.50112e-06
2.23012e-06
3.24044e-06
4.59713e-06
6.35895e-06
8.56955e-06
1.12505e-05
1.43981e-05
1.79845e-05
2.1962e-05
2.62684e-05
3.08326e-05
3.55791e-05
4.04314e-05
4.53147e-05
5.01577e-05
5.48956e-05
5.9475e-05
6.38645e-05
6.80757e-05
7.21982e-05
7.64353e-05
8.11117e-05
8.66808e-05
9.37456e-05
0.000103016
0.0001153
0.000131523
0.000152778
0.000180384
0.000215985
0.000261651
0.000320027
0.000394499
0.000489426
0.000610425
0.000764747
0.000961772
0.00121364
0.00153611
0.00194964
0.0024809
0.00316473
0.00404656
0.00516712
0.00659462
0.00851006
0.0110006
0.0142329
0.0281665
0.0457155
0.0632662
0.0805659
0.097415
0.113654
0.129154
0.143806
0.157517
0.170203
0.181754
0.192174
0.201325
0.209132
0.21554
0.220555
0.224194
0.226644
0.228166
0.229046
0.229523
0.229769
0.22989
0.229949
0.229977
0.22999
0.229995
0.229998
0.229999
0.23
0.23
0.23
0.23
0.23
0.23
0.23
0.23
0.23
5.4222e-10
2.36967e-09
5.44261e-09
1.05899e-08
1.91643e-08
3.33463e-08
5.65986e-08
9.43285e-08
1.54813e-07
2.50434e-07
3.99215e-07
6.26559e-07
9.66883e-07
1.46462e-06
2.1738e-06
3.15527e-06
4.47118e-06
6.17705e-06
8.31319e-06
1.08979e-05
1.39247e-05
1.73631e-05
2.11635e-05
2.52621e-05
2.95871e-05
3.40625e-05
3.86122e-05
4.31622e-05
4.76427e-05
5.19911e-05
5.61557e-05
6.01057e-05
6.38488e-05
6.74622e-05
7.11275e-05
7.51466e-05
7.99468e-05
8.61018e-05
9.42948e-05
0.000105309
0.000120043
0.000139555
0.000165126
0.000198351
0.000241247
0.000296395
0.000367115
0.000457696
0.00057369
0.000722292
0.000912842
0.00115748
0.00147201
0.00187704
0.00239944
0.00307433
0.00394766
0.00506215
0.00648406
0.00839294
0.0108725
0.0140978
0.0257835
0.0433605
0.0609623
0.0783317
0.0952669
0.111607
0.127219
0.141996
0.155843
0.168674
0.180398
0.190957
0.20027
0.208251
0.214874
0.220045
0.223839
0.226417
0.228033
0.228972
0.229485
0.22975
0.229881
0.229945
0.229975
0.229989
0.229995
0.229998
0.229999
0.23
0.23
0.23
0.23
0.23
0.23
0.23
0.23
0.23
5.30639e-10
2.31906e-09
5.32621e-09
1.03626e-08
1.87503e-08
3.26187e-08
5.53472e-08
9.22077e-08
1.51262e-07
2.44555e-07
3.89598e-07
6.11029e-07
9.42169e-07
1.42594e-06
2.11437e-06
3.06586e-06
4.33965e-06
5.98816e-06
8.04859e-06
1.05364e-05
1.34425e-05
1.67346e-05
2.03617e-05
2.42595e-05
2.83559e-05
3.25757e-05
3.6844e-05