/*--------------------------------*- C++ -*----------------------------------*\
  =========                 |
  \\      /  F ield         | OpenFOAM: The Open Source CFD Toolbox
   \\    /   O peration     | Website:  https://openfoam.org
    \\  /    A nd           | Version:  8
     \\/     M anipulation  |
\*---------------------------------------------------------------------------*/
FoamFile
{
    version     2.0;
    format      ascii;
    class       surfaceScalarField;
    location    "260/fluid";
    object      phi;
}
// * * * * * * * * * * * * * * * * * * * * * * * * * * * * * * * * * * * * * //

dimensions      [1 0 -1 0 0 0 0];

internalField   nonuniform List<scalar> 
7860
(
6.57445e-07
-1.71057e-08
6.55143e-07
-5.13915e-08
6.51866e-07
-8.54736e-08
6.47523e-07
-1.1928e-07
6.42002e-07
-1.52872e-07
6.35164e-07
-1.86219e-07
6.26852e-07
-2.19247e-07
6.16893e-07
-2.51852e-07
6.0511e-07
-2.83891e-07
5.91327e-07
-3.15174e-07
5.75381e-07
-3.45454e-07
5.57137e-07
-3.74414e-07
5.36514e-07
-4.01647e-07
5.13531e-07
-4.26658e-07
4.88417e-07
-4.4887e-07
4.61436e-07
-4.67628e-07
4.32942e-07
-4.82309e-07
4.03377e-07
-4.92461e-07
3.73241e-07
-4.97931e-07
3.43034e-07
-4.98946e-07
3.13206e-07
-4.96071e-07
2.8411e-07
-4.90088e-07
2.55996e-07
-4.81835e-07
2.29022e-07
-4.72066e-07
2.03303e-07
-4.61384e-07
1.78875e-07
-4.50213e-07
1.55699e-07
-4.3883e-07
1.33712e-07
-4.27406e-07
1.12839e-07
-4.16041e-07
9.30065e-08
-4.04794e-07
7.41444e-08
-3.93699e-07
5.619e-08
-3.82782e-07
3.90861e-08
-3.72069e-07
2.27805e-08
-3.61584e-07
7.22466e-09
-3.51358e-07
-7.62226e-09
-3.41424e-07
-2.17947e-08
-3.31805e-07
-3.53281e-08
-3.22488e-07
-4.82588e-08
-3.13494e-07
-6.06208e-08
-3.0485e-07
-7.24467e-08
-2.96577e-07
-8.37671e-08
-2.88693e-07
-9.46111e-08
-2.8121e-07
-1.05006e-07
-2.74138e-07
-1.14979e-07
-2.67481e-07
-1.24553e-07
-2.61243e-07
-1.33751e-07
-2.55421e-07
-1.42594e-07
-2.5001e-07
-1.51102e-07
-2.45005e-07
-1.59292e-07
-2.40397e-07
-1.67181e-07
-2.36175e-07
-1.74782e-07
-2.32328e-07
-1.8211e-07
-2.28846e-07
-1.89175e-07
-2.25718e-07
-1.95989e-07
-2.22937e-07
-2.02563e-07
-2.20497e-07
-2.08909e-07
-2.18402e-07
-2.15038e-07
-2.16658e-07
-2.20969e-07
-2.15287e-07
-2.26719e-07
-2.14347e-07
-2.32321e-07
-2.13879e-07
-2.37799e-07
-2.13915e-07
-2.43204e-07
-2.14629e-07
-2.48736e-07
-2.16193e-07
-2.58765e-07
-2.18782e-07
-2.6696e-07
-2.32438e-07
-2.7646e-07
-2.47586e-07
-2.86998e-07
-2.64015e-07
-2.9863e-07
-2.81846e-07
-3.11501e-07
-3.01273e-07
-3.25794e-07
-3.22509e-07
-3.41746e-07
-3.45799e-07
-3.59676e-07
-3.7145e-07
-3.80008e-07
-3.9983e-07
-4.03307e-07
-4.31376e-07
-4.30298e-07
-4.66739e-07
-4.61898e-07
-5.06411e-07
-4.99116e-07
-5.50107e-07
-5.42809e-07
-5.963e-07
-5.92998e-07
-6.41436e-07
-6.49178e-07
-6.79429e-07
-7.0975e-07
-7.03371e-07
-7.719e-07
-7.09118e-07
-8.32431e-07
-6.97548e-07
-8.88855e-07
-6.72916e-07
-9.39817e-07
-6.3991e-07
-9.84835e-07
-6.02022e-07
-1.02377e-06
-5.61255e-07
-1.05671e-06
-5.18665e-07
-1.08426e-06
-4.74778e-07
-1.1071e-06
-4.30014e-07
-1.12584e-06
-3.84706e-07
-1.14107e-06
-3.39131e-07
-1.15328e-06
-2.93516e-07
-1.16293e-06
-2.48011e-07
-1.1704e-06
-2.02692e-07
-1.17602e-06
-1.57623e-07
-1.18005e-06
-1.12789e-07
-1.18269e-06
-6.77756e-08
-2.24317e-08
6.57989e-07
-1.65607e-08
6.56133e-07
-4.95357e-08
6.52901e-07
-8.22412e-08
6.48294e-07
-1.14673e-07
6.42254e-07
-1.46832e-07
6.34694e-07
-1.78659e-07
6.25512e-07
-2.10064e-07
6.14601e-07
-2.4094e-07
6.01863e-07
-2.7115e-07
5.87213e-07
-3.0052e-07
5.70591e-07
-3.28827e-07
5.51973e-07
-3.55786e-07
5.31375e-07
-3.81035e-07
5.08875e-07
-4.04135e-07
4.84637e-07
-4.24599e-07
4.58866e-07
-4.41811e-07
4.31833e-07
-4.55213e-07
4.03874e-07
-4.64421e-07
3.75373e-07
-4.6933e-07
3.4672e-07
-4.70176e-07
3.18274e-07
-4.67494e-07
2.90331e-07
-4.62004e-07
2.63109e-07
-4.54466e-07
2.36757e-07
-4.45564e-07
2.11377e-07
-4.35855e-07
1.87022e-07
-4.25712e-07
1.63703e-07
-4.15368e-07
1.41404e-07
-4.0497e-07
1.20099e-07
-3.94605e-07
9.97547e-08
-3.84323e-07
8.03327e-08
-3.74156e-07
6.17946e-08
-3.6413e-07
4.41013e-08
-3.54266e-07
2.72135e-08
-3.44592e-07
1.1092e-08
-3.35138e-07
-4.30122e-09
-3.25937e-07
-1.9001e-08
-3.17012e-07
-3.3041e-08
-3.08351e-07
-4.64568e-08
-2.99979e-07
-5.9283e-08
-2.91921e-07
-7.15534e-08
-2.84201e-07
-8.33008e-08
-2.76837e-07
-9.45568e-08
-2.69842e-07
-1.05352e-07
-2.63228e-07
-1.15715e-07
-2.57001e-07
-1.25674e-07
-2.51165e-07
-1.35255e-07
-2.45718e-07
-1.44482e-07
-2.4066e-07
-1.5338e-07
-2.35983e-07
-1.61969e-07
-2.31682e-07
-1.70271e-07
-2.27747e-07
-1.78305e-07
-2.24169e-07
-1.8609e-07
-2.20936e-07
-1.93644e-07
-2.18041e-07
-2.00988e-07
-2.15475e-07
-2.08141e-07
-2.13231e-07
-2.15127e-07
-2.1131e-07
-2.21975e-07
-2.09715e-07
-2.2872e-07
-2.08462e-07
-2.35403e-07
-2.07612e-07
-2.42088e-07
-2.07174e-07
-2.48841e-07
-2.07183e-07
-2.55742e-07
-2.07816e-07
-2.62913e-07
-2.09247e-07
-2.74769e-07
-2.12483e-07
-2.83017e-07
-2.24823e-07
-2.92761e-07
-2.38575e-07
-3.03892e-07
-2.5373e-07
-3.16396e-07
-2.70312e-07
-3.30363e-07
-2.88417e-07
-3.45944e-07
-3.082e-07
-3.63341e-07
-3.29859e-07
-3.82806e-07
-3.53655e-07
-4.04648e-07
-3.79902e-07
-4.29209e-07
-4.09012e-07
-4.56866e-07
-4.41605e-07
-4.88099e-07
-4.78038e-07
-5.23433e-07
-5.17931e-07
-5.63344e-07
-5.59721e-07
-6.08019e-07
-6.00018e-07
-6.57336e-07
-6.32968e-07
-7.10327e-07
-6.52559e-07
-7.65004e-07
-6.5588e-07
-8.18996e-07
-6.44389e-07
-8.70387e-07
-6.21958e-07
-9.18049e-07
-5.92461e-07
-9.6149e-07
-5.5868e-07
-1.00051e-06
-5.22283e-07
-1.03501e-06
-4.84179e-07
-1.06512e-06
-4.44682e-07
-1.09103e-06
-4.04107e-07
-1.11302e-06
-3.62719e-07
-1.1314e-06
-3.20752e-07
-1.1465e-06
-2.78416e-07
-1.15864e-06
-2.35867e-07
-1.16813e-06
-1.93203e-07
-1.17523e-06
-1.50526e-07
-1.18014e-06
-1.07881e-07
-1.18295e-06
-6.49607e-08
-2.15608e-08
6.57727e-07
-1.57543e-08
6.55389e-07
-4.71972e-08
6.51528e-07
-7.83802e-08
6.46114e-07
-1.09259e-07
6.39109e-07
-1.39826e-07
6.30465e-07
-1.70014e-07
6.20134e-07
-1.99733e-07
6.08075e-07
-2.2888e-07
5.94258e-07
-2.57331e-07
5.78672e-07
-2.84931e-07
5.61331e-07
-3.11481e-07
5.42278e-07
-3.36725e-07
5.21588e-07
-3.60332e-07
4.99358e-07
-3.81886e-07
4.75681e-07
-4.00893e-07
4.50731e-07
-4.1682e-07
4.24753e-07
-4.2918e-07
3.98042e-07
-4.3764e-07
3.70923e-07
-4.42124e-07
3.43715e-07
-4.42866e-07
3.16707e-07
-4.40371e-07
2.90135e-07
-4.35308e-07
2.64174e-07
-4.28375e-07
2.38936e-07
-4.20194e-07
2.1447e-07
-4.11257e-07
1.90801e-07
-4.01913e-07
1.67948e-07
-3.92387e-07
1.45918e-07
-3.82817e-07
1.24714e-07
-3.73281e-07
1.04327e-07
-3.63822e-07
8.47465e-08
-3.54467e-07
6.59555e-08
-3.45234e-07
4.79339e-08
-3.36145e-07
3.06586e-08
-3.27222e-07
1.4104e-08
-3.18494e-07
-1.75704e-09
-3.09991e-07
-1.69511e-08
-3.01733e-07
-3.15044e-08
-2.9371e-07
-4.5447e-08
-2.85944e-07
-5.88094e-08
-2.78464e-07
-7.16227e-08
-2.71289e-07
-8.3918e-08
-2.6444e-07
-9.57262e-08
-2.57929e-07
-1.07078e-07
-2.51769e-07
-1.18003e-07
-2.45965e-07
-1.28531e-07
-2.40523e-07
-1.38691e-07
-2.35443e-07
-1.48509e-07
-2.30723e-07
-1.58014e-07
-2.26359e-07
-1.67231e-07
-2.22344e-07
-1.76186e-07
-2.1867e-07
-1.84905e-07
-2.15327e-07
-1.93415e-07
-2.12305e-07
-2.01742e-07
-2.09594e-07
-2.09914e-07
-2.07184e-07
-2.17966e-07
-2.05065e-07
-2.25932e-07
-2.03233e-07
-2.33858e-07
-2.01685e-07
-2.41798e-07
-2.00424e-07
-2.49815e-07
-1.99506e-07
-2.58003e-07
-1.98902e-07
-2.66477e-07
-1.98637e-07
-2.75327e-07
-1.98893e-07
-2.84443e-07
-1.99873e-07
-2.96692e-07
-2.05449e-07
-3.05683e-07
-2.16543e-07
-3.16008e-07
-2.29045e-07
-3.27674e-07
-2.42956e-07
-3.40741e-07
-2.58253e-07
-3.55303e-07
-2.74998e-07
-3.7148e-07
-2.93322e-07
-3.89405e-07
-3.13414e-07
-4.09224e-07
-3.35522e-07
-4.31086e-07
-3.59962e-07
-4.55098e-07
-3.87192e-07
-4.81371e-07
-4.17823e-07
-5.10107e-07
-4.52083e-07
-5.41622e-07
-4.89423e-07
-5.76468e-07
-5.27957e-07
-6.15556e-07
-5.63842e-07
-6.59328e-07
-5.91652e-07
-7.07124e-07
-6.06574e-07
-7.57126e-07
-6.07043e-07
-8.07129e-07
-5.95052e-07
-8.55349e-07
-5.74085e-07
-9.00687e-07
-5.47293e-07
-9.4262e-07
-5.16827e-07
-9.8101e-07
-4.8393e-07
-1.0159e-06
-4.49307e-07
-1.04722e-06
-4.13367e-07
-1.07497e-06
-3.76364e-07
-1.09919e-06
-3.38492e-07
-1.12002e-06
-2.99928e-07
-1.13759e-06
-2.60842e-07
-1.15209e-06
-2.2137e-07
-1.16369e-06
-1.81608e-07
-1.17254e-06
-1.41669e-07
-1.1788e-06
-1.01623e-07
-1.18256e-06
-6.12057e-08
-2.02954e-08
6.5773e-07
-1.49505e-08
6.55297e-07
-4.47643e-08
6.51232e-07
-7.43148e-08
6.4553e-07
-1.03558e-07
6.38181e-07
-1.32476e-07
6.29168e-07
-1.61001e-07
6.18477e-07
-1.89042e-07
6.06098e-07
-2.165e-07
5.92027e-07
-2.43258e-07
5.76269e-07
-2.6917e-07
5.58843e-07
-2.94051e-07
5.39788e-07
-3.17663e-07
5.19166e-07
-3.39699e-07
4.97072e-07
-3.59774e-07
4.73639e-07
-3.77435e-07
4.4905e-07
-3.92197e-07
4.23535e-07
-4.03618e-07
3.97359e-07
-4.11402e-07
3.70806e-07
-4.15496e-07
3.44159e-07
-4.1613e-07
3.17669e-07
-4.13782e-07
2.91545e-07
-4.09077e-07
2.65947e-07
-4.02663e-07
2.40984e-07
-3.95115e-07
2.16725e-07
-3.86881e-07
1.93207e-07
-3.7828e-07
1.70449e-07
-3.69516e-07
1.48456e-07
-3.60715e-07
1.27225e-07
-3.51945e-07
1.06749e-07
-3.43244e-07
8.70171e-08
-3.34636e-07
6.80145e-08
-3.26138e-07
4.97257e-08
-3.17767e-07
3.21324e-08
-3.09544e-07
1.52143e-08
-3.01495e-07
-1.05065e-09
-2.9365e-07
-1.66848e-08
-2.86023e-07
-3.17094e-08
-2.78605e-07
-4.61502e-08
-2.7142e-07
-6.00344e-08
-2.64492e-07
-7.33903e-08
-2.57843e-07
-8.62469e-08
-2.51489e-07
-9.86338e-08
-2.45445e-07
-1.10581e-07
-2.39721e-07
-1.22118e-07
-2.34324e-07
-1.33275e-07
-2.29259e-07
-1.44082e-07
-2.24526e-07
-1.54569e-07
-2.20124e-07
-1.64764e-07
-2.16049e-07
-1.74698e-07
-2.12294e-07
-1.84398e-07
-2.08851e-07
-1.93896e-07
-2.05711e-07
-2.03221e-07
-2.02862e-07
-2.12403e-07
-2.00294e-07
-2.21476e-07
-1.97995e-07
-2.30474e-07
-1.95955e-07
-2.39435e-07
-1.94166e-07
-2.48399e-07
-1.92621e-07
-2.57417e-07
-1.91316e-07
-2.66554e-07
-1.90292e-07
-2.75907e-07
-1.89483e-07
-2.85573e-07
-1.88915e-07
-2.95752e-07
-1.88661e-07
-3.06375e-07
-1.88814e-07
-3.17993e-07
-1.96827e-07
-3.28145e-07
-2.07147e-07
-3.39316e-07
-2.18705e-07
-3.5165e-07
-2.31544e-07
-3.65262e-07
-2.45674e-07
-3.80256e-07
-2.61164e-07
-3.96739e-07
-2.7815e-07
-4.14817e-07
-2.96819e-07
-4.34599e-07
-3.17422e-07
-4.5619e-07
-3.40275e-07
-4.7966e-07
-3.6588e-07
-5.05144e-07
-3.94766e-07
-5.32915e-07
-4.26984e-07
-5.63392e-07
-4.61781e-07
-5.97169e-07
-4.97014e-07
-6.34856e-07
-5.28746e-07
-6.76614e-07
-5.52001e-07
-7.21681e-07
-5.63005e-07
-7.68465e-07
-5.61195e-07
-8.15195e-07
-5.48848e-07
-8.60466e-07
-5.29084e-07
-9.03376e-07
-5.04516e-07
-9.43421e-07
-4.76844e-07
-9.80355e-07
-4.47025e-07
-1.01408e-06
-4.15594e-07
-1.04458e-06
-3.82869e-07
-1.07189e-06
-3.49063e-07
-1.09603e-06
-3.14347e-07
-1.11708e-06
-2.7888e-07
-1.1351e-06
-2.42821e-07
-1.15018e-06
-2.06297e-07
-1.16238e-06
-1.69402e-07
-1.1718e-06
-1.32252e-07
-1.17849e-06
-9.49294e-08
-1.1825e-06
-5.72014e-08
-1.89715e-08
6.57665e-07
-1.40817e-08
6.55078e-07
-4.21772e-08
6.50785e-07
-7.00215e-08
6.44789e-07
-9.75617e-08
6.37091e-07
-1.24779e-07
6.27694e-07
-1.51604e-07
6.16601e-07
-1.77948e-07
6.03821e-07
-2.0372e-07
5.89373e-07
-2.28808e-07
5.73282e-07
-2.53077e-07
5.55592e-07
-2.76356e-07
5.36359e-07
-2.98424e-07
5.15667e-07
-3.18997e-07
4.93622e-07
-3.37715e-07
4.70365e-07
-3.54157e-07
4.46073e-07
-3.67874e-07
4.20956e-07
-3.78461e-07
3.95256e-07
-3.8565e-07
3.69226e-07
-3.89402e-07
3.43114e-07
-3.89943e-07
3.17143e-07
-3.87725e-07
2.91495e-07
-3.83337e-07
2.6631e-07
-3.77382e-07
2.41687e-07
-3.70392e-07
2.17689e-07
-3.62782e-07
1.94354e-07
-3.54844e-07
1.71702e-07
-3.46766e-07
1.49742e-07
-3.38659e-07
1.28478e-07
-3.30586e-07
1.07904e-07
-3.22581e-07
8.80152e-08
-3.14661e-07
6.88016e-08
-3.06841e-07
5.02513e-08
-2.99137e-07
3.23502e-08
-2.91567e-07
1.50818e-08
-2.84155e-07
-1.5723e-09
-2.76928e-07
-1.76311e-08
-2.69896e-07
-3.31129e-08
-2.63052e-07
-4.80402e-08
-2.56417e-07
-6.24376e-08
-2.50016e-07
-7.63309e-08
-2.43866e-07
-8.97475e-08
-2.37985e-07
-1.02716e-07
-2.32386e-07
-1.15264e-07
-2.27078e-07
-1.27422e-07
-2.22068e-07
-1.39219e-07
-2.1736e-07
-1.50686e-07
-2.12954e-07
-1.61854e-07
-2.0885e-07
-1.72751e-07
-2.05041e-07
-1.8341e-07
-2.01523e-07
-1.93861e-07
-1.98286e-07
-2.04136e-07
-1.95321e-07
-2.14267e-07
-1.92616e-07
-2.24286e-07
-1.9016e-07
-2.34228e-07
-1.87941e-07
-2.44127e-07
-1.85948e-07
-2.54018e-07
-1.84174e-07
-2.63935e-07
-1.82613e-07
-2.73901e-07
-1.81274e-07
-2.83948e-07
-1.8019e-07
-2.94102e-07
-1.79306e-07
-3.04371e-07
-1.7867e-07
-3.14875e-07
-1.78246e-07
-3.2755e-07
-1.78016e-07
-3.38286e-07
-1.86899e-07
-3.49418e-07
-1.96744e-07
-3.61383e-07
-2.07554e-07
-3.74378e-07
-2.19461e-07
-3.88523e-07
-2.32554e-07
-4.03917e-07
-2.46925e-07
-4.20659e-07
-2.62709e-07
-4.38843e-07
-2.80104e-07
-4.58557e-07
-2.99365e-07
-4.79872e-07
-3.20827e-07
-5.02838e-07
-3.45018e-07
-5.2759e-07
-3.72355e-07
-5.5438e-07
-4.02734e-07
-5.8361e-07
-4.35193e-07
-6.15848e-07
-4.67349e-07
-6.51645e-07
-4.95228e-07
-6.91095e-07
-5.14339e-07
-7.33452e-07
-5.2188e-07
-7.77302e-07
-5.18097e-07
-8.21155e-07
-5.05412e-07
-8.63853e-07
-4.866e-07
-9.04641e-07
-4.63832e-07
-9.43076e-07
-4.38458e-07
-9.78895e-07
-4.11229e-07
-1.01194e-06
-3.82563e-07
-1.0421e-06
-3.52707e-07
-1.06934e-06
-3.21829e-07
-1.09362e-06
-2.90066e-07
-1.11495e-06
-2.57553e-07
-1.13334e-06
-2.24429e-07
-1.14883e-06
-1.9081e-07
-1.16145e-06
-1.56784e-07
-1.17123e-06
-1.22465e-07
-1.17822e-06
-8.79402e-08
-1.18242e-06
-5.29997e-08
-1.75729e-08
6.57649e-07
-1.31973e-08
6.55e-07
-3.9528e-08
6.50599e-07
-6.56199e-08
6.44457e-07
-9.14203e-08
6.36587e-07
-1.16909e-07
6.27001e-07
-1.42017e-07
6.15716e-07
-1.66663e-07
6.02752e-07
-1.90755e-07
5.88138e-07
-2.14193e-07
5.7191e-07
-2.36847e-07
5.54116e-07
-2.58559e-07
5.34819e-07
-2.79123e-07
5.14104e-07
-2.98274e-07
4.92079e-07
-3.15677e-07
4.68883e-07
-3.30944e-07
4.4469e-07
-3.43657e-07
4.19708e-07
-3.53446e-07
3.94171e-07
-3.6007e-07
3.68324e-07
-3.63502e-07
3.42405e-07
-3.6396e-07
3.16625e-07
-3.61873e-07
2.91157e-07
-3.5779e-07
2.66131e-07
-3.52273e-07
2.41638e-07
-3.45813e-07
2.17736e-07
-3.38793e-07
1.94459e-07
-3.3148e-07
1.71824e-07
-3.24045e-07
1.49838e-07
-3.1659e-07
1.28503e-07
-3.0917e-07
1.07815e-07
-3.01814e-07
8.77682e-08
-2.94538e-07
6.83534e-08
-2.87353e-07
4.95607e-08
-2.80274e-07
3.13776e-08
-2.73318e-07
1.37897e-08
-2.66505e-07
-3.21899e-09
-2.59859e-07
-1.96656e-08
-2.53389e-07
-3.55662e-08
-2.47086e-07
-5.09411e-08
-2.40974e-07
-6.58128e-08
-2.35071e-07
-8.02052e-08
-2.29397e-07
-9.41438e-08
-2.23966e-07
-1.07655e-07
-2.1879e-07
-1.20767e-07
-2.13878e-07
-1.33507e-07
-2.09236e-07
-1.45905e-07
-2.04867e-07
-1.5799e-07
-2.00771e-07
-1.69791e-07
-1.96946e-07
-1.81339e-07
-1.93389e-07
-1.92664e-07
-1.90091e-07
-2.03796e-07
-1.87045e-07
-2.14766e-07
-1.8424e-07
-2.25604e-07
-1.81666e-07
-2.36343e-07
-1.7931e-07
-2.47014e-07
-1.7716e-07
-2.57649e-07
-1.75207e-07
-2.6828e-07
-1.73443e-07
-2.78938e-07
-1.71865e-07
-2.8964e-07
-1.70502e-07
-3.00425e-07
-1.69363e-07
-3.11295e-07
-1.6844e-07
-3.22202e-07
-1.67847e-07
-3.33001e-07
-1.67682e-07
-3.47617e-07
-1.68839e-07
-3.58198e-07
-1.76936e-07
-3.69684e-07
-1.85964e-07
-3.82059e-07
-1.95975e-07
-3.95415e-07
-2.07002e-07
-4.09853e-07
-2.19126e-07
-4.25466e-07
-2.32448e-07
-4.42337e-07
-2.47118e-07
-4.60545e-07
-2.63335e-07
-4.80169e-07
-2.81358e-07
-5.01267e-07
-3.01545e-07
-5.23907e-07
-3.24409e-07
-5.48268e-07
-3.50232e-07
-5.74638e-07
-3.78757e-07
-6.03456e-07
-4.08818e-07
-6.35275e-07
-4.37849e-07
-6.70526e-07
-4.61969e-07
-7.09086e-07
-4.77292e-07
-7.50054e-07
-4.81923e-07
-7.92065e-07
-4.7669e-07
-8.33817e-07
-4.6399e-07
-8.7436e-07
-4.46226e-07
-9.13091e-07
-4.25183e-07
-9.49656e-07
-4.01932e-07
-9.83842e-07
-3.77062e-07
-1.01551e-06
-3.50904e-07
-1.04456e-06
-3.23656e-07
-1.07094e-06
-2.95456e-07
-1.09458e-06
-2.66419e-07
-1.11547e-06
-2.36663e-07
-1.13359e-06
-2.06316e-07
-1.14892e-06
-1.75481e-07
-1.16146e-06
-1.44239e-07
-1.17123e-06
-1.12699e-07
-1.17822e-06
-8.09476e-08
-1.18243e-06
-4.87938e-08
-1.61773e-08
6.57629e-07
-1.22923e-08
6.54923e-07
-3.68226e-08
6.50434e-07
-6.11301e-08
6.44175e-07
-8.51621e-08
6.36165e-07
-1.08898e-07
6.26421e-07
-1.32274e-07
6.14968e-07
-1.55209e-07
6.01835e-07
-1.77621e-07
5.87056e-07
-1.99413e-07
5.70677e-07
-2.20466e-07
5.52753e-07
-2.40633e-07
5.33355e-07
-2.59721e-07
5.12572e-07
-2.77485e-07
4.90518e-07
-2.93614e-07
4.67335e-07
-3.07746e-07
4.43196e-07
-3.19498e-07
4.18304e-07
-3.28527e-07
3.92885e-07
-3.34616e-07
3.67173e-07
-3.37747e-07
3.41396e-07
-3.3813e-07
3.15752e-07
-3.3617e-07
2.90406e-07
-3.32379e-07
2.65481e-07
-3.27277e-07
2.4106e-07
-3.2132e-07
2.17199e-07
-3.14858e-07
1.93929e-07
-3.08136e-07
1.71267e-07
-3.01309e-07
1.49218e-07
-2.94469e-07
1.27784e-07
-2.87666e-07
1.06961e-07
-2.80923e-07
8.6744e-08
-2.74254e-07
6.71246e-08
-2.6767e-07
4.80937e-08
-2.61183e-07
2.96401e-08
-2.54806e-07
1.17505e-08
-2.4856e-07
-5.5892e-09
-2.42467e-07
-2.23949e-08
-2.36529e-07
-3.86812e-08
-2.30742e-07
-5.44669e-08
-2.25126e-07
-6.97726e-08
-2.197e-07
-8.46207e-08
-2.14479e-07
-9.90351e-08
-2.09478e-07
-1.13041e-07
-2.04707e-07
-1.26664e-07
-2.00173e-07
-1.39931e-07
-1.95883e-07
-1.5287e-07
-1.91838e-07
-1.65509e-07
-1.88039e-07
-1.77876e-07
-1.84483e-07
-1.9e-07
-1.81165e-07
-2.01908e-07
-1.7808e-07
-2.13631e-07
-1.75217e-07
-2.25196e-07
-1.72568e-07
-2.36632e-07
-1.7012e-07
-2.47969e-07
-1.67863e-07
-2.59236e-07
-1.65784e-07
-2.70463e-07
-1.63872e-07
-2.81681e-07
-1.62118e-07
-2.92922e-07
-1.60519e-07
-3.04214e-07
-1.59109e-07
-3.15607e-07
-1.57872e-07
-3.27143e-07
-1.56804e-07
-3.38812e-07
-1.56062e-07
-3.50172e-07
-1.55811e-07
-3.64225e-07
-1.59289e-07
-3.75258e-07
-1.66541e-07
-3.87178e-07
-1.7475e-07
-3.99991e-07
-1.83949e-07
-4.13751e-07
-1.94121e-07
-4.2854e-07
-2.05323e-07
-4.44436e-07
-2.17659e-07
-4.61517e-07
-2.31279e-07
-4.7986e-07
-2.46387e-07
-4.99543e-07
-2.63236e-07
-5.20627e-07
-2.82209e-07
-5.43213e-07
-3.03767e-07
-5.675e-07
-3.28066e-07
-5.93784e-07
-3.54712e-07
-6.22482e-07
-3.82363e-07
-6.54059e-07
-4.0835e-07
-6.88774e-07
-4.28987e-07
-7.26331e-07
-4.41013e-07
-7.65799e-07
-4.43287e-07
-8.05963e-07
-4.37015e-07
-8.45741e-07
-4.24476e-07
-8.84356e-07
-4.07744e-07
-9.21313e-07
-3.88291e-07
-9.56301e-07
-3.66974e-07
-9.89119e-07
-3.44259e-07
-1.01962e-06
-3.20408e-07
-1.0477e-06
-2.95579e-07
-1.07328e-06
-2.69883e-07
-1.09628e-06
-2.43416e-07
-1.11666e-06
-2.16282e-07
-1.13438e-06
-1.88592e-07
-1.14942e-06
-1.60442e-07
-1.16176e-06
-1.31904e-07
-1.17138e-06
-1.03077e-07
-1.17828e-06
-7.40458e-08
-1.18244e-06
-4.46365e-08
-1.47965e-08
6.57619e-07
-1.13773e-08
6.5488e-07
-3.40843e-08
6.50336e-07
-5.65852e-08
6.44003e-07
-7.88294e-08
6.35902e-07
-1.00797e-07
6.26055e-07
-1.22427e-07
6.14492e-07
-1.43645e-07
6.01244e-07
-1.64373e-07
5.86353e-07
-1.84521e-07
5.69867e-07
-2.03979e-07
5.51846e-07
-2.2261e-07
5.32362e-07
-2.40235e-07
5.11509e-07
-2.56627e-07
4.89401e-07
-2.71499e-07
4.66182e-07
-2.84516e-07
4.42024e-07
-2.95325e-07
4.17131e-07
-3.03612e-07
3.91725e-07
-3.09183e-07
3.6604e-07
-3.12026e-07
3.40295e-07
-3.12343e-07
3.14686e-07
-3.10512e-07
2.89371e-07
-3.07009e-07
2.64465e-07
-3.02314e-07
2.4005e-07
-2.96845e-07
2.16176e-07
-2.90922e-07
1.92871e-07
-2.84768e-07
1.70149e-07
-2.78525e-07
1.48015e-07
-2.72274e-07
1.26468e-07
-2.66058e-07
1.05506e-07
-2.59901e-07
8.51206e-08
-2.53812e-07
6.53059e-08
-2.47801e-07
4.60526e-08
-2.41877e-07
2.735e-08
-2.36054e-07
9.18564e-09
-2.30349e-07
-8.45362e-09
-2.24782e-07
-2.55817e-08
-2.19353e-07
-4.22128e-08
-2.1406e-07
-5.83642e-08
-2.08919e-07
-7.40552e-08
-2.03949e-07
-8.93067e-08
-1.99164e-07
-1.04141e-07
-1.94576e-07
-1.18582e-07
-1.90194e-07
-1.32653e-07
-1.86026e-07
-1.46381e-07
-1.82075e-07
-1.59791e-07
-1.78344e-07
-1.7291e-07
-1.74833e-07
-1.85763e-07
-1.71539e-07
-1.98377e-07
-1.68457e-07
-2.1078e-07
-1.6558e-07
-2.22996e-07
-1.62901e-07
-2.35051e-07
-1.6041e-07
-2.46971e-07
-1.58096e-07
-2.5878e-07
-1.55949e-07
-2.70502e-07
-1.53956e-07
-2.82161e-07
-1.52108e-07
-2.9378e-07
-1.50396e-07
-3.05387e-07
-1.48813e-07
-3.1701e-07
-1.47389e-07
-3.28703e-07
-1.46086e-07
-3.40524e-07
-1.44894e-07
-3.5257e-07
-1.4393e-07
-3.64511e-07
-1.43299e-07
-3.77483e-07
-1.48518e-07
-3.89354e-07
-1.55281e-07
-4.01891e-07
-1.6289e-07
-4.15217e-07
-1.71377e-07
-4.29426e-07
-1.80757e-07
-4.44599e-07
-1.91097e-07
-4.60819e-07
-2.02504e-07
-4.78163e-07
-2.15129e-07
-4.96716e-07
-2.29172e-07
-5.16562e-07
-2.44886e-07
-5.37778e-07
-2.62663e-07
-5.605e-07
-2.82892e-07
-5.84945e-07
-3.05617e-07
-6.11418e-07
-3.3032e-07
-6.40306e-07
-3.55523e-07
-6.71974e-07
-3.78536e-07
-7.06508e-07
-3.95958e-07
-7.43448e-07
-4.05152e-07
-7.81833e-07
-4.05591e-07
-8.20558e-07
-3.98688e-07
-8.58705e-07
-3.86541e-07
-8.95642e-07
-3.70915e-07
-9.30966e-07
-3.53019e-07
-9.64423e-07
-3.33542e-07
-9.9584e-07
-3.12854e-07
-1.02509e-06
-2.91165e-07
-1.05207e-06
-2.68605e-07
-1.07669e-06
-2.45264e-07
-1.09888e-06
-2.21225e-07
-1.11858e-06
-1.96578e-07
-1.13575e-06
-1.71424e-07
-1.15034e-06
-1.45849e-07
-1.16233e-06
-1.19913e-07
-1.1717e-06
-9.3711e-08
-1.17842e-06
-6.73207e-08
-1.18248e-06
-4.05832e-08
-1.34511e-08
6.5761e-07
-1.04533e-08
6.54845e-07
-3.13192e-08
6.50256e-07
-5.19965e-08
6.43864e-07
-7.24372e-08
6.35689e-07
-9.26224e-08
6.25758e-07
-1.12496e-07
6.141e-07
-1.31987e-07
6.00752e-07
-1.51025e-07
5.85758e-07
-1.69526e-07
5.69168e-07
-1.87389e-07
5.51047e-07
-2.04487e-07
5.31469e-07
-2.20656e-07
5.10531e-07
-2.35685e-07
4.88349e-07
-2.49312e-07
4.65068e-07
-2.61228e-07
4.40864e-07
-2.71109e-07
4.15938e-07
-2.7867e-07
3.90513e-07
-2.83737e-07
3.64817e-07
-2.86304e-07
3.39069e-07
-2.86562e-07
3.13457e-07
-2.84862e-07
2.88134e-07
-2.81643e-07
2.63214e-07
-2.77347e-07
2.38772e-07
-2.72353e-07
2.14855e-07
-2.66954e-07
1.91491e-07
-2.61351e-07
1.6869e-07
-2.55671e-07
1.46457e-07
-2.49988e-07
1.2479e-07
-2.4434e-07
1.03685e-07
-2.38746e-07
8.31363e-08
-2.33214e-07
6.3136e-08
-2.27753e-07
4.36756e-08
-2.22371e-07
2.47448e-08
-2.1708e-07
6.33179e-09
-2.11895e-07
-1.15755e-08
-2.06835e-07
-2.89901e-08
-2.01897e-07
-4.59254e-08
-1.97078e-07
-6.23978e-08
-1.92397e-07
-7.84253e-08
-1.87868e-07
-9.40274e-08
-1.83504e-07
-1.09225e-07
-1.79317e-07
-1.24041e-07
-1.75313e-07
-1.38497e-07
-1.715e-07
-1.52618e-07
-1.6788e-07
-1.66428e-07
-1.64457e-07
-1.79951e-07
-1.61228e-07
-1.93213e-07
-1.58192e-07
-2.06237e-07
-1.55343e-07
-2.19049e-07
-1.52676e-07
-2.31672e-07
-1.50183e-07
-2.44129e-07
-1.47855e-07
-2.56445e-07
-1.45682e-07
-2.68641e-07
-1.43654e-07
-2.80738e-07
-1.41761e-07
-2.92756e-07
-1.39995e-07
-3.04714e-07
-1.38347e-07
-3.16628e-07
-1.36815e-07
-3.28513e-07
-1.35427e-07
-3.4039e-07
-1.34144e-07
-3.5226e-07
-1.32971e-07
-3.64296e-07
-1.31847e-07
-3.76223e-07
-1.30726e-07
-3.8863e-07
-1.36702e-07
-4.01204e-07
-1.43233e-07
-4.14352e-07
-1.50358e-07
-4.28217e-07
-1.58219e-07
-4.42891e-07
-1.66884e-07
-4.58467e-07
-1.76428e-07
-4.75033e-07
-1.86957e-07
-4.92681e-07
-1.98626e-07
-5.11504e-07
-2.11631e-07
-5.31599e-07
-2.26222e-07
-5.53067e-07
-2.42789e-07
-5.76071e-07
-2.61639e-07
-6.00841e-07
-2.82724e-07
-6.27666e-07
-3.05425e-07
-6.56876e-07
-3.28181e-07
-6.88707e-07
-3.48358e-07
-7.23075e-07
-3.62899e-07
-7.59403e-07
-3.69741e-07
-7.96754e-07
-3.68814e-07
-8.34155e-07
-3.61613e-07
-8.70844e-07
-3.50025e-07
-9.063e-07
-3.35546e-07
-9.40191e-07
-3.1917e-07
-9.72301e-07
-3.01452e-07
-1.00247e-06
-2.8269e-07
-1.03059e-06
-2.63054e-07
-1.05655e-06
-2.42649e-07
-1.08026e-06
-2.21549e-07
-1.10166e-06
-1.99826e-07
-1.12068e-06
-1.77558e-07
-1.13727e-06
-1.54835e-07
-1.15139e-06
-1.31733e-07
-1.16299e-06
-1.08307e-07
-1.17206e-06
-8.46383e-08
-1.17858e-06
-6.08012e-08
-1.18252e-06
-3.66512e-08
-1.21456e-08
6.57603e-07
-9.5227e-09
6.54818e-07
-2.85337e-08
6.50195e-07
-4.73739e-08
6.43756e-07
-6.59984e-08
6.35523e-07
-8.43894e-08
6.25523e-07
-1.02495e-07
6.13787e-07
-1.20251e-07
6.00354e-07
-1.37592e-07
5.8527e-07
-1.54441e-07
5.68587e-07
-1.70706e-07
5.50371e-07
-1.8627e-07
5.307e-07
-2.00983e-07
5.0967e-07
-2.14654e-07
4.87402e-07
-2.2704e-07
4.64041e-07
-2.37862e-07
4.39765e-07
-2.46825e-07
4.14776e-07
-2.53671e-07
3.89298e-07
-2.58243e-07
3.63558e-07
-2.60543e-07
3.3777e-07
-2.60749e-07
3.12122e-07
-2.59185e-07
2.86763e-07
-2.5625e-07
2.61802e-07
-2.52348e-07
2.37311e-07
-2.47821e-07
2.13334e-07
-2.42935e-07
1.89897e-07
-2.3787e-07
1.67009e-07
-2.32739e-07
1.44673e-07
-2.27608e-07
1.22887e-07
-2.2251e-07
1.01646e-07
-2.17462e-07
8.0944e-08
-2.1247e-07
6.07731e-08
-2.07542e-07
4.11252e-08
-2.02685e-07
2.19902e-08
-1.97909e-07
3.35673e-09
-1.93228e-07
-1.47857e-08
-1.88658e-07
-3.245e-08
-1.84195e-07
-4.9649e-08
-1.79838e-07
-6.63978e-08
-1.75604e-07
-8.27133e-08
-1.71504e-07
-9.86141e-08
-1.67551e-07
-1.1412e-07
-1.63754e-07
-1.29251e-07
-1.60121e-07
-1.4403e-07
-1.56656e-07
-1.58478e-07
-1.53363e-07
-1.72619e-07
-1.50244e-07
-1.86474e-07
-1.47296e-07
-2.00068e-07
-1.44518e-07
-2.13422e-07
-1.41906e-07
-2.26559e-07
-1.39453e-07
-2.395e-07
-1.37153e-07
-2.52267e-07
-1.34997e-07
-2.64879e-07
-1.32978e-07
-2.77354e-07
-1.31086e-07
-2.89709e-07
-1.29314e-07
-3.0196e-07
-1.27655e-07
-3.14119e-07
-1.26107e-07
-3.26189e-07
-1.24678e-07
-3.38181e-07
-1.23391e-07
-3.50108e-07
-1.22209e-07
-3.61934e-07
-1.21201e-07
-3.73603e-07
-1.20341e-07
-3.88301e-07
-1.19828e-07
-4.00206e-07
-1.25236e-07
-4.12798e-07
-1.31167e-07
-4.2607e-07
-1.37694e-07
-4.40094e-07
-1.44889e-07
-4.54959e-07
-1.52805e-07
-4.70746e-07
-1.61524e-07
-4.87538e-07
-1.71157e-07
-5.05421e-07
-1.81852e-07
-5.24491e-07
-1.93797e-07
-5.44847e-07
-2.07242e-07
-5.66613e-07
-2.22548e-07
-5.89969e-07
-2.39947e-07
-6.15144e-07
-2.59315e-07
-6.42404e-07
-2.79959e-07
-6.72003e-07
-3.00288e-07
-7.0405e-07
-3.17791e-07
-7.38308e-07
-3.29785e-07
-7.74119e-07
-3.34714e-07
-8.10585e-07
-3.32831e-07
-8.46854e-07
-3.25616e-07
-8.82284e-07
-3.14737e-07
-9.16447e-07
-3.01455e-07
-9.49067e-07
-2.86585e-07
-9.7996e-07
-2.70575e-07
-1.00899e-06
-2.53668e-07
-1.03605e-06
-2.36e-07
-1.06104e-06
-2.17659e-07
-1.08388e-06
-1.98706e-07
-1.10451e-06
-1.79202e-07
-1.12285e-06
-1.59217e-07
-1.13885e-06
-1.3883e-07
-1.15248e-06
-1.18108e-07
-1.16369e-06
-9.70976e-08
-1.17246e-06
-7.58725e-08
-1.17876e-06
-5.44995e-08
-1.18256e-06
-3.28489e-08
-1.08833e-08
6.57597e-07
-8.5864e-09
6.54794e-07
-2.57306e-08
6.50142e-07
-4.2722e-08
6.43663e-07
-5.95189e-08
6.35379e-07
-7.6105e-08
6.25317e-07
-9.24331e-08
6.1351e-07
-1.08445e-07
5.99999e-07
-1.24081e-07
5.8483e-07
-1.39272e-07
5.68058e-07
-1.53933e-07
5.49748e-07
-1.6796e-07
5.29982e-07
-1.81216e-07
5.08857e-07
-1.93528e-07
4.86495e-07
-2.04677e-07
4.63046e-07
-2.1441e-07
4.38686e-07
-2.22461e-07
4.13622e-07
-2.286e-07
3.88077e-07
-2.32688e-07
3.62277e-07
-2.3473e-07
3.36436e-07
-2.3489e-07
3.10738e-07
-2.33465e-07
2.85328e-07
-2.30815e-07
2.60314e-07
-2.27304e-07
2.35764e-07
-2.23239e-07
2.1172e-07
-2.18857e-07
1.88206e-07
-2.14319e-07
1.65229e-07
-2.09726e-07
1.42792e-07
-2.05134e-07
1.20892e-07
-2.00574e-07
9.95236e-08
-1.96057e-07
7.86807e-08
-1.91592e-07
5.8356e-08
-1.87184e-07
3.8541e-08
-1.82837e-07
1.92263e-08
-1.78563e-07
4.00872e-10
-1.74374e-07
-1.79463e-08
-1.70282e-07
-3.58257e-08
-1.66283e-07
-5.32499e-08
-1.62378e-07
-7.02333e-08
-1.5858e-07
-8.6792e-08
-1.54902e-07
-1.02943e-07
-1.51352e-07
-1.18706e-07
-1.47941e-07
-1.341e-07
-1.44672e-07
-1.49144e-07
-1.41553e-07
-1.63861e-07
-1.38584e-07
-1.78271e-07
-1.35767e-07
-1.92395e-07
-1.33101e-07
-2.06255e-07
-1.30583e-07
-2.19873e-07
-1.2821e-07
-2.33268e-07
-1.25976e-07
-2.46461e-07
-1.23875e-07
-2.59471e-07
-1.219e-07
-2.72317e-07
-1.20042e-07
-2.85017e-07
-1.18296e-07
-2.97588e-07
-1.16653e-07
-3.10044e-07
-1.1511e-07
-3.224e-07
-1.13664e-07
-3.34664e-07
-1.12338e-07
-3.46852e-07
-1.11137e-07
-3.58964e-07
-1.10051e-07
-3.70958e-07
-1.09194e-07
-3.82739e-07
-1.08628e-07
-3.97844e-07
-1.09142e-07
-4.09747e-07
-1.13828e-07
-4.22419e-07
-1.19049e-07
-4.35847e-07
-1.24887e-07
-4.50076e-07
-1.31356e-07
-4.65169e-07
-1.38489e-07
-4.81198e-07
-1.46362e-07
-4.98241e-07
-1.5508e-07
-5.16387e-07
-1.64783e-07
-5.35735e-07
-1.75643e-07
-5.56395e-07
-1.87905e-07
-5.78508e-07
-2.01895e-07
-6.02268e-07
-2.1777e-07
-6.27896e-07
-2.35351e-07
-6.55623e-07
-2.53903e-07
-6.85621e-07
-2.71853e-07
-7.17868e-07
-2.86872e-07
-7.52005e-07
-2.96655e-07
-7.87328e-07
-3.00069e-07
-8.22996e-07
-2.97575e-07
-8.58265e-07
-2.90576e-07
-8.92599e-07
-2.80522e-07
-9.25638e-07
-2.68474e-07
-9.57153e-07
-2.55099e-07
-9.86983e-07
-2.40759e-07
-1.01501e-06
-2.25651e-07
-1.04112e-06
-2.09886e-07
-1.06525e-06
-1.93537e-07
-1.0873e-06
-1.76655e-07
-1.10721e-06
-1.59291e-07
-1.12492e-06
-1.41507e-07
-1.14038e-06
-1.23373e-07
-1.15354e-06
-1.04947e-07
-1.16437e-06
-8.62691e-08
-1.17283e-06
-6.74031e-08
-1.17892e-06
-4.84094e-08
-1.1826e-06
-2.91729e-08
-9.66256e-09
6.57593e-07
-7.64511e-09
6.54774e-07
-2.2912e-08
6.50096e-07
-3.80442e-08
6.43581e-07
-5.30034e-08
6.3525e-07
-6.77746e-08
6.25133e-07
-8.23159e-08
6.13263e-07
-9.6575e-08
5.9968e-07
-1.10498e-07
5.84431e-07
-1.24023e-07
5.67573e-07
-1.37076e-07
5.49174e-07
-1.49561e-07
5.29314e-07
-1.61357e-07
5.08094e-07
-1.72308e-07
4.85637e-07
-1.82221e-07
4.62095e-07
-1.90868e-07
4.37647e-07
-1.98012e-07
4.12501e-07
-2.03451e-07
3.8688e-07
-2.07062e-07
3.61012e-07
-2.08854e-07
3.35109e-07
-2.08976e-07
3.09353e-07
-2.07693e-07
2.83887e-07
-2.05331e-07
2.58814e-07
-2.02208e-07
2.34202e-07
-1.98602e-07
2.1009e-07
-1.94718e-07
1.86499e-07
-1.907e-07
1.63437e-07
-1.86634e-07
1.40905e-07
-1.82572e-07
1.189e-07
-1.78538e-07
9.74166e-08
-1.74543e-07
7.64478e-08
-1.70594e-07
5.59868e-08
-1.66694e-07
3.60254e-08
-1.62849e-07
1.65543e-08
-1.59067e-07
-2.4369e-09
-1.55359e-07
-2.09577e-08
-1.51737e-07
-3.9019e-08
-1.48194e-07
-5.66328e-08
-1.44733e-07
-7.38126e-08
-1.41365e-07
-9.05737e-08
-1.38102e-07
-1.06932e-07
-1.34951e-07
-1.22906e-07
-1.3192e-07
-1.38514e-07
-1.29014e-07
-1.53775e-07
-1.26238e-07
-1.68708e-07
-1.23593e-07
-1.83333e-07
-1.21079e-07
-1.97671e-07
-1.18697e-07
-2.11741e-07
-1.16444e-07
-2.25564e-07
-1.14315e-07
-2.39157e-07
-1.12306e-07
-2.52542e-07
-1.10412e-07
-2.65734e-07
-1.08625e-07
-2.78753e-07
-1.06939e-07
-2.91615e-07
-1.05347e-07
-3.04335e-07
-1.03843e-07
-3.16931e-07
-1.02423e-07
-3.29415e-07
-1.01086e-07
-3.41801e-07
-9.98526e-08
-3.54105e-07