/*--------------------------------*- C++ -*----------------------------------*\
  =========                 |
  \\      /  F ield         | OpenFOAM: The Open Source CFD Toolbox
   \\    /   O peration     | Website:  https://openfoam.org
    \\  /    A nd           | Version:  8
     \\/     M anipulation  |
\*---------------------------------------------------------------------------*/
FoamFile
{
    version     2.0;
    format      ascii;
    class       volScalarField;
    location    "260/fluid";
    object      Qdot;
}
// * * * * * * * * * * * * * * * * * * * * * * * * * * * * * * * * * * * * * //

dimensions      [1 -1 -3 0 0 0 0];

internalField   nonuniform List<scalar> 
4000
(
0
0
0
6.79973e-12
1.84926e-16
-2.9225e-11
-3.36194e-07
0
-3.55229e-07
-2.60859e-10
0
2.99046e-10
0
-1.23309e-09
-1.01654e-09
-1.29462e-17
-9.17714e-17
-8.05651e-16
-8.94332e-15
5.26593e-08
8.21891e-07
1.00102e-05
0.000123163
0.00128619
0.0111875
0.0802068
0.475049
2.34838
9.82773
35.357
111
308.232
765.919
1719.15
3510.39
6564.58
11362.4
18426.1
28263.2
41485.6
58916.8
81710.9
111402
150077
200552
266615
353330
467379
617534
815285
1.07568e+06
1.41844e+06
1.86942e+06
2.46251e+06
3.2422e+06
4.26678e+06
5.61269e+06
7.38014e+06
9.70042e+06
1.2725e+07
1.66312e+07
2.18455e+07
2.86692e+07
3.75695e+07
4.16304e+08
2.99066e+07
2.16978e+07
1.55373e+07
1.09558e+07
7.5904e+06
5.1552e+06
3.42541e+06
2.22517e+06
1.41857e+06
903672
559325
123333
7168.26
157.094
1.76721
0.0142038
0.000141617
3.03282e-06
1.74205e-07
2.29313e-08
5.9842e-09
1.96246e-09
7.48111e-10
2.8125e-10
1.34358e-10
5.53643e-11
2.01425e-11
1.00183e-11
4.27112e-12
1.57988e-12
6.75153e-13
2.56379e-13
1.02007e-13
3.2782e-14
5.9471e-15
0
0
0
0
-1.40251e-11
0
5.60845e-20
-3.41192e-07
-5.62186e-11
0
3.63117e-07
-3.68872e-07
5.91707e-10
3.79729e-07
9.86775e-10
1.99708e-09
2.02167e-09
-9.0997e-16
1.11112e-13
7.92449e-08
9.12281e-07
1.10488e-05
0.000133085
0.00138166
0.0119564
0.0854453
0.505217
2.49582
10.4442
37.5846
118.034
327.852
814.676
1827.75
3727.65
6950.39
11975.3
19339.7
29527.6
43133
60967.3
84179.3
114316
153508
204630
271554
359441
475099
627477
828319
1.09306e+06
1.44201e+06
1.90196e+06
2.50829e+06
3.30788e+06
4.36293e+06
5.75631e+06
7.59889e+06
1.00397e+07
1.32397e+07
1.74731e+07
2.32504e+07
3.0983e+07
4.56151e+07
3.9765e+08
2.87994e+07
2.08571e+07
1.48999e+07
1.04747e+07
7.22966e+06
4.8878e+06
3.2307e+06
2.08721e+06
1.32533e+06
846686
467174
74870.4
3187.34
56.0413
0.53892
0.00425263
4.9747e-05
1.39786e-06
1.04733e-07
1.75494e-08
4.35744e-09
1.52631e-09
5.9862e-10
3.04089e-10
1.22753e-10
5.41812e-11
2.34336e-11
8.10348e-12
3.59698e-12
1.57132e-12
5.69067e-13
2.56492e-13
1.02253e-13
3.29246e-14
5.08272e-12
0
-1.55384e-12
3.56721e-12
0
-1.42455e-12
-3.18245e-07
5.51197e-20
0
6.75167e-11
-1.11832e-10
2.27135e-10
0
-1.03864e-09
0
2.123e-09
-1.61464e-17
-1.14352e-16
-1.05051e-15
3.99998e-09
7.23283e-08
1.24432e-06
1.26947e-05
0.000149557
0.00154064
0.0132573
0.0943578
0.556407
2.74434
11.4755
41.2873
129.676
360.25
895.171
2007.26
4087.53
7593.69
13011.6
20906
31737.9
46089.9
64777.4
88961.4
120246
160854
213785
283083
374109
493933
651842
860041
1.13459e+06
1.49669e+06
1.97435e+06
2.60473e+06
3.43725e+06
4.53799e+06
5.99576e+06
7.93083e+06
1.05077e+07
1.38874e+07
1.84156e+07
2.46933e+07
3.33013e+07
1.18947e+08
3.12847e+08
2.79071e+07
2.00188e+07
1.41693e+07
9.87031e+06
6.74987e+06
4.52058e+06
2.95975e+06
1.89566e+06
1.19799e+06
770831
328167
36257.2
1165.16
17.2799
0.156076
0.0013577
2.01536e-05
7.46313e-07
6.85411e-08
1.28931e-08
4.02036e-09
1.24811e-09
6.12311e-10
2.36658e-10
9.08368e-11
4.18632e-11
1.84677e-11
7.5028e-12
4.4214e-12
-3.58566e-12
5.67031e-13
2.3103e-13
9.01522e-14
2.71219e-14
4.57926e-15
0
-1.54848e-12
0
-1.25167e-20
-6.15651e-12
0
-3.22035e-07
1.10963e-19
1.57454e-15
-2.5094e-11
-2.22107e-10
6.56273e-15
-9.51921e-19
3.58058e-07
-3.88066e-18
-1.95948e-17
-2.32286e-09
-1.19457e-15
2.20366e-08
8.75464e-08
1.18884e-06
1.44156e-05
0.000169545
0.00174197
0.0149516
0.106189
0.625178
3.0803
12.8728
46.3043
145.432
404.022
1003.68
2248.44
4568.35
8448.75
14388
22979.5
34659.5
50003.5
69844.9
95381.3
128310
170995
226620
299472
395210
521291
687504
906718
1.19587e+06
1.57727e+06
2.08038e+06
2.74408e+06
3.61984e+06
4.7758e+06
6.30239e+06
8.32e+06
1.09896e+07
1.44491e+07
1.9015e+07
2.52003e+07
3.34297e+07
3.06803e+08
1.5924e+08
2.67299e+07
1.89631e+07
1.32754e+07
9.14734e+06
6.1877e+06
4.09935e+06
2.65603e+06
1.68631e+06
1.06254e+06
682002
198661
15050.4
379.552
4.83101
0.0421039
0.000415328
7.93812e-06
3.90782e-07
4.58318e-08
9.95692e-09
3.17372e-09
1.18272e-09
4.85037e-10
1.93698e-10
8.98283e-11
3.67373e-11
1.57957e-11
6.59721e-12
2.69098e-12
1.18346e-12
5.15849e-13
1.00249e-12
7.49711e-14
2.43595e-14
4.62725e-15
0
0
8.37556e-17
1.31975e-11
0
-1.2486e-11
7.45216e-16
5.20126e-11
0
0
0
0
0
0
-2.62226e-14
-2.27819e-17
-1.45703e-16
-1.34926e-15
1.66979e-08
2.85643e-07
1.35383e-06
1.64036e-05
0.000195239
0.00199683
0.0171003
0.121215
0.712555
3.50701
14.6462
52.6645
165.38
459.351
1140.51
2551.35
5167.79
9504.48
16074.5
25497
38177.5
54687.6
75892.6
103050
137988
183242
242240
319566
421274
555332
732225
965769
1.27419e+06
1.68159e+06
2.21981e+06
2.93097e+06
3.87076e+06
5.11265e+06
6.75339e+06
8.91959e+06
1.17755e+07
1.54548e+07
2.04082e+07
2.68899e+07
3.52547e+07
4.49185e+08
4.275e+07
2.4666e+07
1.73893e+07
1.20895e+07
8.26768e+06
5.54761e+06
3.64454e+06
2.34256e+06
1.4792e+06
934820
559379
110809
5739.4
118.667
1.34712
0.0119221
0.00013927
3.46969e-06
2.20299e-07
3.09822e-08
7.65017e-09
2.69305e-09
9.95154e-10
4.28483e-10
1.75063e-10
7.87457e-11
3.44636e-11
1.32002e-11
6.17747e-12
2.49404e-12
9.86237e-13
4.42547e-13
1.57389e-13
6.65769e-14
2.15958e-14
3.95223e-15
4.84926e-18
-2.01326e-17
2.83277e-07
-2.91724e-07
-1.38003e-12
2.74761e-11
0
1.07181e-19
0
-3.06521e-15
-4.72537e-10
0
0
-1.81612e-18
-8.72167e-10
-2.20989e-17
3.95071e-09
-3.475e-07
1.61451e-08
1.2257e-07
1.39142e-06
1.90848e-05
0.00022563
0.00230836
0.0197408
0.139737
0.820401
4.03385
16.8349
60.5087
189.958
527.424
1308.43
2921.26
5892.82
10765.9
18071.9
28443.5
42250.4
60067.9
82795.6
111784
149017
197231
260129
342633
451247
594538
783816
1.03405e+06
1.3651e+06
1.80341e+06
2.38425e+06
3.15485e+06
4.17863e+06
5.54109e+06
7.35804e+06
9.78721e+06
1.30189e+07
1.72935e+07
2.3198e+07
3.11771e+07
4.20755e+07
4.22854e+08
3.0747e+07
2.20309e+07
1.55475e+07
1.0791e+07
7.35281e+06
4.90903e+06
3.20663e+06
2.05052e+06
1.29308e+06
826257
409420
55461
2132.95
37.2708
0.389332
0.00362164
5.10624e-05
1.64251e-06
1.32332e-07
2.16958e-08
5.92611e-09
1.91769e-09
8.79135e-10
3.41231e-10
1.4667e-10
6.46462e-11
3.08514e-11
1.22135e-11
6.14937e-12
2.1693e-12
9.30326e-13
-4.42835e-13
5.55207e-12
-7.24486e-13
2.0299e-14
3.6334e-15
4.842e-18
-1.53073e-12
-6.31333e-12
2.89193e-07
-2.96122e-07
0
0
0
0
0
-4.34125e-19
3.23654e-07
1.75665e-18
1.76511e-18
-2.47163e-14
-4.97505e-14
-5.02761e-14
-1.73381e-15
3.54976e-07
-3.75983e-08
1.4791e-06
2.19554e-05
0.000262275
0.00268253
0.0229268
0.162118
0.950848
4.67144
19.4846
70.0071
219.717
609.796
1511.2
3365.61
6753.87
12242
20385.1
31808.6
46842.4
66071.8
90439.7
121416
161158
212616
279780
367917
483978
637113
839415
1.1069e+06
1.46085e+06
1.92963e+06
2.55121e+06
3.37653e+06
4.47432e+06
5.93777e+06
7.89421e+06
1.0519e+07
1.39946e+07
1.86537e+07
2.51899e+07
3.42055e+07
1.39717e+08
3.09298e+08
2.87207e+07
2.03804e+07
1.42613e+07
9.82015e+06
6.6398e+06
4.39953e+06
2.8534e+06
1.81462e+06
1.14397e+06
738831
261814
26239.4
800.779
12.1602
0.120835
0.00121977
2.10133e-05
8.61903e-07
8.47665e-08
1.60228e-08
4.88138e-09
1.9023e-09
6.61922e-10
3.11898e-10
1.32275e-10
5.75611e-11
2.40309e-11
1.05045e-11
4.48096e-12
2.75975e-12
8.29258e-13
3.27513e-13
9.22966e-13
4.92244e-14
1.75078e-14
2.95009e-15
4.83605e-18
-2.71906e-07
0
-1.20918e-20
0
1.47554e-11
-2.43832e-11
1.03516e-19
2.22414e-10
0
-4.24087e-19
-4.99552e-10
-3.16659e-07
0
-3.44145e-18
-3.2174e-07
-1.6587e-09
-1.97562e-15
1.50361e-08
-1.3439e-08
1.76747e-06
2.5637e-05
0.000305511
0.0031274
0.0267172
0.188794
1.10653
5.43315
22.6532
81.3758
255.361
708.454
1753.61
3893.62
7762.61
13941.8
23020.1
35582
51918.1
72632.7
98727.9
131818
174235
229173
300900
395036
518970
682416
898178
1.18317e+06
1.55979e+06
2.05772e+06
2.71636e+06
3.58808e+06
4.74261e+06
6.27286e+06
8.30296e+06
1.09982e+07
1.45086e+07
1.91308e+07
2.54645e+07
3.39048e+07
3.30113e+08
1.50689e+08
2.72207e+07
1.91228e+07
1.32566e+07
9.04821e+06
6.0668e+06
3.98807e+06
2.56811e+06
1.62486e+06
1.02485e+06
652677
173209
12182.2
310.213
4.21149
0.0410494
0.000459843
9.67609e-06
4.95002e-07
5.80171e-08
1.23573e-08
3.95599e-09
1.37907e-09
6.57544e-10
2.57799e-10
1.18318e-10
4.71059e-11
2.06531e-11
9.64626e-12
4.06256e-12
1.75685e-12
6.29886e-13
2.92353e-13
-6.72903e-13
-4.42478e-12
1.47012e-14
5.04515e-12
0
0
0
0
-1.70192e-16
0
0
3.01355e-07
1.20222e-10
0
4.1405e-19
1.15655e-14
0
-9.76157e-10
-3.33472e-18
3.09639e-07
3.66939e-10
-2.22947e-15
1.44793e-08
3.48816e-07
2.13113e-06
2.9968e-05
0.000356302
0.0036478
0.0311664
0.220174
1.29
6.33255
26.4017
94.851
297.681
825.672
2041.12
4515.4
8929.39
15868.5
25972.3
39735.1
57421.3
79652.7
107523
142805
188022
246617
323155
423634
555928
730388
960661
1.26477e+06
1.66655e+06
2.19754e+06
2.89947e+06
3.82757e+06
5.05478e+06
6.67734e+06
8.82178e+06
1.16546e+07
1.53131e+07
2.01205e+07
2.65891e+07
3.50132e+07
4.56293e+08
4.80996e+07
2.50115e+07
1.75361e+07
1.21229e+07
8.2462e+06
5.50762e+06
3.60579e+06
2.31365e+06
1.46193e+06
927302
551908
108832
5779.17
126.982
1.58023
0.0154938
0.000195251
4.98235e-06
3.11483e-07
4.17342e-08
1.03498e-08
3.22654e-09
1.26839e-09
5.00071e-10
2.55558e-10
9.19324e-11
4.04177e-11
2.05327e-11
7.99869e-12
3.6484e-12
6.88522e-12
6.30009e-13
2.68217e-13
9.86201e-14
4.0776e-14
1.3343e-14
5.03908e-12
0
-2.69713e-07
-8.11085e-17
2.81576e-07
0
1.43599e-11
-2.36255e-11
9.98658e-20
0
2.98782e-07
0
8.08332e-19
3.85447e-10
-9.4672e-10
9.46381e-10
-3.23055e-17
-2.6556e-16
-2.51102e-15
3.23907e-07
5.38184e-08
2.51596e-06
3.46941e-05
0.000414186
0.00424887
0.0363211
0.256632
1.50376
7.38336
30.7944
110.69
347.556
964.022
2379.87
5241.46
10260.3
18012.3
29221.7
44215.2
63256.7
86990.7
116629
154104
202136
264411
345785
452639
593348
778954
1.02405e+06
1.34798e+06
1.77643e+06
2.3436e+06
3.09501e+06
4.09145e+06
5.41416e+06
7.17187e+06
9.51042e+06
1.26147e+07
1.6645e+07
2.21637e+07
2.95217e+07
3.92885e+07
4.47395e+08
3.15101e+07
2.24913e+07
1.58269e+07
1.0963e+07
7.46237e+06
4.98296e+06
3.26008e+06
2.09137e+06
1.3248e+06
849539
441895
67117.4
2868.91
55.7999
0.650821
0.00654252
9.32346e-05
2.84229e-06
2.10662e-07
3.28623e-08
8.36436e-09
2.81189e-09
1.06552e-09
4.46196e-10
2.22834e-10
9.12007e-11
4.01313e-11
1.72384e-11
7.16882e-12
3.23867e-12
1.3868e-12
5.8036e-13
2.44018e-13
9.22669e-14
3.50189e-14
7.64329e-13
2.12685e-15
-3.67594e-13
0
-2.74196e-07
0
2.38764e-20
0
2.88766e-07
4.6772e-11
2.91571e-07
-2.91991e-07
0
0
2.90925e-07
0
-9.3624e-18
-3.74048e-17
2.90308e-07
-2.89541e-07
1.70385e-08
2.28254e-07
2.80473e-06
3.9965e-05
0.000480185
0.00493248
0.0422083
0.298427
1.74975
8.59757
35.8919
129.15
405.916
1126.29
2776.41
6081.62
11753.1
20346.9
32727.4
48943.5
69300.3
94479.6
125823
165409
216144
281917
367839
480609
629031
824730
1.0831e+06
1.42461e+06
1.87654e+06
2.47537e+06
3.27e+06
4.32619e+06
5.73277e+06
7.61018e+06
1.01227e+07
1.34548e+07
1.78763e+07
2.40436e+07
3.24457e+07
6.45431e+07
3.98821e+08
2.90549e+07
2.07255e+07
1.45788e+07
1.0094e+07
6.86653e+06
4.58148e+06
2.99544e+06
1.92219e+06
1.22191e+06
792574
354250
41846.6
1512.02
26.5844
0.296121
0.00309202
4.9751e-05
1.78112e-06
1.52647e-07
2.63852e-08
7.52992e-09
2.77977e-09
1.04909e-09
4.41315e-10
1.95992e-10
8.41692e-11
3.66887e-11
1.71066e-11
7.12424e-12
3.22157e-12
1.241e-12
4.82477e-13
2.1982e-13
8.11117e-14
3.21917e-14
1.13008e-14
2.142e-15
6.90322e-22
2.67494e-07
2.72341e-07
-5.56267e-12
0
-2.5322e-11
-5.09634e-11
0
9.19077e-11
0
0
1.06524e-14
-8.09054e-10
-2.80348e-07
-9.03984e-18
-1.76099e-09
1.75825e-09
2.80672e-07
2.27107e-08
2.69476e-07
3.43471e-06
4.59322e-05
0.000553491
0.00569716
0.0488235
0.345623
2.02897
9.98335
41.7435
150.466
473.668
1315.28
3237.18
7042.8
13426.6
22922.9
36420.7
53822.1
75414.6
101954
134906
176473
229711
298661
388607
506456
661274
865006
1.13345e+06
1.48758e+06
1.95528e+06
2.57374e+06
3.39269e+06
4.47878e+06
5.92165e+06
7.8422e+06
1.04042e+07
1.37781e+07
1.8236e+07
2.44062e+07
3.27224e+07
1.80253e+08
2.99708e+08
2.76558e+07
1.96656e+07
1.37961e+07
9.52986e+06
6.46934e+06
4.30874e+06
2.81351e+06
1.80541e+06
1.15157e+06
753035
267081
26964
852.588
13.7864
0.148889
0.0016271
2.93712e-05
1.21342e-06
1.17146e-07
2.25005e-08
6.34126e-09
2.18658e-09
9.41207e-10
3.92576e-10
1.74809e-10
7.72028e-11
3.11063e-11
1.91399e-11
6.31091e-12
-2.45166e-12
1.04351e-12
-4.7682e-12
1.85001e-13
8.11573e-14
2.93375e-14
-5.07801e-12
1.79663e-15
0
0
0
0
-2.76391e-07
2.78199e-07
2.79284e-07
2.79662e-07
0
-8.96256e-11
0
-7.42608e-19
-3.51653e-10
-2.72518e-07
2.02308e-14
4.02018e-14
1.37295e-09
-3.47587e-15
2.90482e-07
2.9363e-07
3.80112e-06
5.23727e-05
0.000633305
0.00653492
0.0561136
0.397957
2.34063
11.5412
48.3713
174.796
551.543
1533.45
3767.31
8125.15
15237.5
25628.4
40193.2
58704.8
81444.1
109264
143736
187176
242748
314593
408107
530313
690402
900442
1.17634e+06
1.53911e+06
2.01656e+06
2.64556e+06
3.47507e+06
4.57017e+06
6.0175e+06
7.93251e+06
1.04692e+07
1.37862e+07
1.81197e+07
2.40465e+07
3.19095e+07
2.91866e+08
2.01028e+08
2.67266e+07
1.89584e+07
1.32687e+07
9.14559e+06
6.19632e+06
4.12006e+06
2.68727e+06
1.72448e+06
1.10309e+06
720056
219069
18064.7
513.571
7.76602
0.0823466
0.000945231
1.89619e-05
8.84756e-07
9.48914e-08
1.86635e-08
5.52996e-09
2.07161e-09
8.3509e-10
3.82672e-10
1.6145e-10
7.03178e-11
3.29172e-11
1.37621e-11
5.87205e-12
7.72677e-12
1.13293e-12
5.63285e-12
1.83396e-13
7.52236e-14
2.93737e-14
9.20631e-15
1.62734e-15
3.66019e-13
0
5.66531e-21
0
0
3.22212e-16
0
0
-2.73106e-07
0
0
7.2058e-19
0
-2.82433e-18
-1.94944e-14
3.86006e-14
-1.61636e-09
-8.03029e-14
2.32987e-08
3.37405e-07
4.3559e-06
5.91531e-05
0.000717907
0.00742921
0.0639542
0.454668
2.68111
13.2581
55.7447
202.123
639.779
1781.9
4367.69
9312.35
17110.7
28327.2
43868.1
63377.3
87170.2
116206
152143
197399
255210
329793
426614
552769
717513
932963
1.21503e+06
1.58466e+06
2.06947e+06
2.70593e+06
3.5423e+06
4.64252e+06
6.09143e+06
8.00196e+06
1.05245e+07
1.38109e+07
1.80971e+07
2.39574e+07
3.1743e+07
3.60853e+08
1.33479e+08
2.58354e+07
1.83122e+07
1.28068e+07
8.82107e+06
5.97298e+06
3.97006e+06
2.58956e+06
1.66357e+06
1.06797e+06
689917
181426
12711.8
331.754
4.75062
0.0499016
0.000601422
1.32556e-05
6.84918e-07
7.98675e-08
1.69754e-08
5.43215e-09
2.11406e-09
8.2016e-10
3.86681e-10
1.69853e-10
6.93621e-11
2.7451e-11
1.36109e-11
5.81596e-12
2.39781e-12
1.03144e-12
4.29731e-13
1.71078e-13
6.92651e-14
-7.22773e-13
9.22612e-15
1.63411e-15
2.01518e-13
0
7.83814e-17
0
0
1.33596e-11
2.66826e-11
0
-2.6711e-07
0
0
-9.73126e-15
-3.28999e-10
-2.72256e-18
2.49009e-07
-5.31856e-17
3.63033e-14
-3.06913e-09
2.76919e-08
3.75131e-07
4.91555e-06
6.60457e-05
0.000804541
0.00835366
0.0721236
0.514284
3.04249
15.0995
63.7413
232.101
737.574
2058.67
5029.56
10555
18897.9
30788.7
47153.9
67507.5
92252
122440
159813
206862
266882
344152
444195
574172
743391
964005
1.25192e+06
1.62802e+06
2.11971e+06
2.76313e+06
3.60586e+06
4.71083e+06
6.16109e+06
8.06646e+06
1.05738e+07
1.38275e+07
1.80657e+07
2.38522e+07
3.1531e+07
4.08889e+08
8.41724e+07
2.47595e+07
1.75766e+07
1.23093e+07
8.48897e+06
5.75504e+06
3.83011e+06
2.50234e+06
1.6117e+06
1.03981e+06
658317
152784
9420.72
229.504
3.14833
0.0329501
0.000415648
9.93472e-06
5.61386e-07
6.97672e-08
1.56641e-08
4.81039e-09
1.93737e-09
7.86225e-10
3.60423e-10
1.5571e-10
6.83195e-11
2.91629e-11
1.34445e-11
6.49686e-12
2.37595e-12
1.02361e-12
4.27163e-13
-4.93506e-12
7.48881e-14
2.64564e-14
9.23507e-15
1.461e-15
4.78122e-18
0
0
0
2.24702e-20
0
4.75305e-11
9.44268e-11
0
0
-1.63784e-10
3.22722e-10
3.90398e-10
0
-7.74137e-18
-5.59753e-17
-4.42413e-16
-4.47017e-15
3.67628e-08
4.01068e-07
5.21554e-06
7.26156e-05
0.000889632
0.00926827
0.0802806
0.574394
3.41084
16.9988
72.0956
263.833
842.27
2356.02
5725.82
11744.2
20330.1
32639.5
49589.7
70594
96158.7
127408
166160
214953
277138
357049
460280
594067
767802
993720
1.28779e+06
1.67091e+06
2.17046e+06
2.82237e+06
3.67377e+06
4.78638e+06
6.24141e+06
8.14679e+06
1.06459e+07
1.38706e+07
1.80483e+07
2.36989e+07
3.10968e+07
4.61151e+08
4.96078e+07
2.34394e+07
1.67284e+07
1.1765e+07
8.14235e+06
5.53723e+06
3.69604e+06
2.42235e+06
1.56622e+06
1.01615e+06
632011
131626
7358.07
169.722
2.25178
0.0235673
0.000309544
7.91666e-06
4.79984e-07
6.37047e-08
1.46161e-08
4.62577e-09
1.85663e-09
7.88441e-10
3.28601e-10
1.53619e-10
6.33814e-11
2.58798e-11
1.21484e-11
5.32289e-12
2.3519e-12
9.23009e-13
3.78172e-13
1.5796e-13
6.30959e-14
2.49759e-14
9.23529e-15
1.46438e-15
4.77424e-18
0
0
-2.63375e-07
2.3595e-11
-4.41877e-20
0
0
2.54621e-07
0
1.9533e-10
0
-2.37817e-07
2.33869e-07
7.24789e-10
-1.42457e-09
-4.64103e-16
2.25281e-09
2.70545e-08
4.325e-07
5.82068e-06
7.88273e-05
0.000968279
0.0101199
0.0879488
0.631498
3.76484
18.8476
80.3419
295.599
948.258
2656.54
6397.87
12673
20967.3
33330.6
50542.7
71943
98121.1
130259
170223
220581
284729
367057
473236
610596
788644
1.01975e+06
1.32002e+06
1.71053e+06
2.21881e+06
2.88087e+06
3.74384e+06
4.86989e+06
6.34222e+06
8.26924e+06
1.07929e+07
1.4036e+07
1.82537e+07
2.39727e+07
3.14909e+07
4.69518e+08
3.13118e+07
2.26041e+07
1.61238e+07
1.13458e+07
7.86208e+06
5.3564e+06
3.58378e+06
2.35566e+06
1.52896e+06
997619
604338
116726
6062.78
134.011
1.73312
0.0181684
0.000246722
6.66428e-06
4.2701e-07
5.89331e-08
1.39191e-08
4.49204e-09
1.76644e-09
7.70616e-10
3.33507e-10
1.39072e-10
6.60123e-11
2.89783e-11
1.16562e-11
5.78119e-12
2.32594e-12
9.14448e-13
3.75308e-13
1.57035e-13
4.35712e-12
2.49174e-14
7.80131e-15
1.37765e-15
0
0
-7.6723e-17
0
-2.19028e-20
-1.0376e-11
2.55306e-07
-4.05874e-11
0
-2.44104e-07
-1.54081e-10
-2.34214e-07
0
-2.41724e-18
6.93061e-10
-1.3573e-09
1.08351e-09
4.74974e-09
2.54961e-08
3.51758e-07
6.12709e-06
8.38751e-05
0.00103445
0.0108454
0.0945387
0.681072
4.07569
20.4919
87.7779
324.633
1045.88
2928.56
6938.43
12984.9
20163.9
32125.1
49230.9
70695.1
97162.7
129859
170656
222140
287731
371864
480277
620390
801828
1.0371e+06
1.34252e+06
1.73935e+06
2.2554e+06
2.9271e+06
3.8025e+06
4.9453e+06
6.43797e+06
8.3904e+06
1.09481e+07
1.42196e+07
1.84972e+07
2.42818e+07
3.18662e+07
4.71026e+08
2.97093e+07
2.15609e+07
1.54477e+07
1.09126e+07
7.58939e+06
5.18876e+06
3.48372e+06
2.29838e+06
1.49818e+06
982709
587019
106805
5265.39
112.75
1.43101
0.0150308
0.000209391
5.88683e-06
3.92572e-07
5.62747e-08
1.33542e-08
4.36835e-09
1.76475e-09
7.10918e-10
3.26013e-10
1.46862e-10
5.9338e-11
2.64087e-11
1.25671e-11
5.18402e-12
2.11995e-12
5.84337e-12
3.82322e-13
1.44645e-13
6.25384e-14
2.48416e-14
-7.28005e-13
1.37872e-15
-2.59201e-07
0
-3.20567e-12
-1.15782e-11
0
1.02113e-11
-2.47811e-11
0
-7.79604e-11
-2.37144e-07
-2.31894e-07
0
8.28345e-15
5.52435e-10
-5.38147e-10
-6.16079e-17
1.99117e-07
4.47869e-09
2.83363e-08
4.78514e-07
6.34881e-06
8.77123e-05
0.00108292
0.0113764
0.0994021
0.717987
4.30949
21.7425
93.499
347.169
1121.16
3123.15
7172.29
13023.7
20220.6
28213.8
44842.8
65933.8
92195.1
124860
165784
217540
283536
368215
477332
618338
800897
1.03757e+06
1.34473e+06
1.74374e+06
2.26253e+06
2.9378e+06
3.81762e+06
4.9647e+06
6.46191e+06
8.41843e+06
1.09783e+07
1.42339e+07
1.86265e+07
2.44059e+07
3.19983e+07
4.69411e+08
2.846e+07
2.07149e+07
1.48868e+07
1.05486e+07
7.35885e+06
5.04687e+06
3.39951e+06
2.2506e+06
1.47254e+06
969771
575217
100892
4812.38
100.852
1.26382
0.0132941
0.000188402
5.43781e-06
3.71972e-07
5.35992e-08
1.32305e-08
4.32231e-09
1.71551e-09
7.32397e-10
3.18184e-10
1.33182e-10
6.34626e-11
2.72807e-11
1.12894e-11
5.45693e-12
2.09308e-12
8.95389e-13
3.68818e-13
-4.80958e-12
7.99137e-13
2.47509e-14
7.7785e-15
1.3789e-15
-2.58822e-07
0
3.18242e-12
0
-1.01789e-11
1.23481e-11
-2.43062e-11
3.88146e-11
-1.59239e-19
-9.11385e-11
2.24247e-07
2.17925e-07
0
-2.21472e-18
-1.49743e-14
-1.22334e-09
-1.19011e-09
4.20855e-09
3.47239e-08
3.90947e-07
6.44141e-06
8.95732e-05
0.00110734
0.0116482
0.101909
0.737162
4.43192
22.4027
96.5359
359.027
1157.88
3179.38
7207.49
13563.5
21045.7
28083.8
36789.1
56948.1
82252.3
113939
153830
204444
269133
352278
459572
598395
778331
1.01184e+06
1.31517e+06
1.70952e+06
2.22259e+06
2.89066e+06
3.76131e+06
4.89696e+06
6.37984e+06
8.31837e+06
1.08559e+07
1.40852e+07
1.84453e+07
2.41662e+07
3.16677e+07
4.70435e+08
2.74879e+07
2.00492e+07
1.44366e+07
1.02489e+07
7.16327e+06
4.92214e+06
3.32205e+06
2.20389e+06
1.44509e+06
953516
565546
98169.9
4618.01
95.7261
1.19189
0.0125466
0.00017931
5.24399e-06
3.63971e-07
5.2782e-08
1.29351e-08
4.4124e-09
1.70584e-09
7.37691e-10
3.21035e-10
1.40252e-10
6.21047e-11
2.80811e-11
1.2451e-11
5.37304e-12
1.18903e-12
8.84995e-13
3.43045e-13
-5.80049e-13
5.62016e-14
2.46479e-14
-7.24228e-13
1.37831e-15
0
0
7.56034e-17
6.31894e-12
-1.01786e-11
0
0
-2.41143e-07
0
-7.41499e-11
-1.44404e-10
0
3.34765e-10
0
-8.59305e-18
-1.94418e-07
2.77692e-14
4.20838e-09
3.47224e-08
4.8197e-07
6.26685e-06
8.94824e-05
0.00110735
0.0116479
0.101903
0.737093
4.43138
22.3993
96.5186
358.953
1157.61
3178.57
7205.62
13559.9
21040.2
28076.6
36780
56933.9
82231.7
113910
153790
204390
269061
352185
459451
598240
778136
1.0116e+06
1.31489e+06
1.70918e+06
2.22221e+06
2.89025e+06
3.76086e+06
4.89648e+06
6.37924e+06
8.31744e+06
1.08542e+07
1.40818e+07
1.84424e+07
2.41665e+07
3.16706e+07
4.7044e+08
2.7494e+07
2.00546e+07
1.44411e+07
1.02525e+07
7.16587e+06
4.92392e+06
3.32319e+06
2.20457e+06
1.44547e+06
953717
565618
98170
4617.62
95.7131
1.19169
0.0125442
0.000179278
5.24429e-06
3.62872e-07
5.33507e-08
1.3095e-08
4.41263e-09
1.74e-09
7.51643e-10
3.30003e-10
1.4026e-10
6.2108e-11
2.74856e-11
1.14657e-11
5.03007e-12
2.06488e-12
8.85038e-13
3.87428e-13
1.42476e-13
5.62003e-14
2.46478e-14
8.46909e-15
7.34044e-13
-6.83344e-22
-2.91121e-12
0
0
-1.03142e-11
-1.02115e-11
2.50496e-07
-1.66422e-19
0
0
-1.83412e-10
2.91141e-10
2.20509e-07
-1.23134e-09
6.61372e-10
1.29012e-09
2.28646e-09
4.47836e-09
3.07567e-08
4.74604e-07
6.44046e-06
8.76229e-05
0.00108286
0.0113756
0.0993866
0.717811
4.30806
21.7334
93.452
346.966
1120.42
3120.88
7166.79
13013.8
20205.5
28192.8
44809.5
65884.9
92126.7
124767
165660
217377
283324
367944
476987
617902
800354
1.0369e+06
1.34392e+06
1.74276e+06
2.26138e+06
2.93651e+06
3.81619e+06
4.9632e+06
6.46044e+06
8.4172e+06
1.09777e+07
1.42347e+07
1.86295e+07
2.44124e+07
3.2009e+07
4.69345e+08
2.84569e+07
2.07129e+07
1.48863e+07
1.0549e+07
7.35957e+06
5.04749e+06
3.39992e+06
2.25082e+06
1.47265e+06
969813
575173
100857
4809.77
100.787
1.26292
0.0132848
0.000188291
5.43614e-06
3.70971e-07
5.30229e-08
1.3098e-08
4.39124e-09
1.75877e-09
7.54516e-10
3.38667e-10
1.43636e-10
6.34659e-11
2.7282e-11
1.15981e-11
5.30096e-12
2.09322e-12
1.61343e-12
3.46437e-13
5.09692e-12
6.22007e-14
2.33332e-14
7.77923e-15
1.46766e-15
2.00645e-13
2.74944e-21
2.6273e-12
0
-2.5965e-07
0
2.52561e-11
2.52138e-07
0
2.44e-07
1.89367e-10
-2.34204e-07
-2.94952e-10
-2.41711e-18
-2.19462e-07
-6.01789e-17
-1.08341e-09
-4.99298e-15
3.27534e-08
5.61858e-07
6.12665e-06
8.39983e-05
0.00103466
0.0108456
0.094529
0.680904
4.0741
20.4811
87.7194
324.373
1044.91
2925.5
6930.61
12970.1
20141
32088
49174
70613.4
97050.3
129708
170457
221881
287395
371431
479721
619677
800917
1.03594e+06
1.34103e+06
1.73744e+06
2.25297e+06
2.92401e+06
3.79866e+06
4.94057e+06
6.43241e+06
8.38442e+06
1.09429e+07
1.42176e+07
1.84984e+07
2.42863e+07
3.1877e+07
4.70928e+08
2.97008e+07
2.15506e+07
1.54402e+07
1.09084e+07
7.58752e+06
5.18806e+06
3.48352e+06
2.29834e+06
1.49816e+06
982684
586897
106731
5260.02
112.617
1.42919
0.0150123
0.000209174
5.88179e-06
3.93832e-07
5.63446e-08
1.35213e-08
4.38488e-09
1.7649e-09
7.51992e-10
3.26041e-10
1.42085e-10
6.47695e-11
2.57155e-11
1.21829e-11
5.18423e-12
2.2984e-12
-4.03306e-12
3.72199e-13
-4.10149e-12
6.82323e-14
2.34178e-14
8.50491e-15
1.46755e-15
4.77431e-18
1.61924e-12
-5.89868e-12
0
2.63016e-07
2.61892e-07
-2.60085e-07
0
0
0
-1.95328e-10
0
8.94428e-15
7.38482e-10
-7.41585e-18
-5.83032e-17
-4.68861e-16
-2.76867e-09
2.97904e-08
4.32474e-07
5.71884e-06
7.88558e-05
0.000968508
0.0101215
0.0879457
0.631356
3.76329
18.8364
80.2796
295.318
947.201
2653.17
6388.99
12654.7
20936.8
33281.4
50468.1
71837.4
97978.2
130071
169979
220270
284334
366561
472616
609827
787699
1.0186e+06
1.31865e+06
1.70892e+06
2.21696e+06
2.87882e+06
3.74164e+06
4.86771e+06
6.34035e+06
8.26823e+06
1.07937e+07
1.40399e+07
1.82631e+07
2.3989e+07
3.15126e+07
4.69588e+08
3.13191e+07
2.26066e+07
1.61258e+07
1.13479e+07
7.86402e+06
5.35788e+06
3.58469e+06
2.35614e+06
1.52916e+06
997663
604124
116626
6054.82
133.803
1.73024
0.0181392
0.000246385
6.6554e-06
4.26517e-07
5.85965e-08
1.42334e-08
4.5092e-09
1.72972e-09
7.70698e-10
3.33543e-10
1.39083e-10
6.60159e-11
2.54697e-11
1.23662e-11
5.25572e-12
2.14555e-12
1.73917e-12
3.98152e-13
-4.13279e-12
6.28437e-14
2.34876e-14
7.80227e-15
1.37772e-15
0
2.62998e-07
-2.64872e-07
0
0
2.65981e-07
0
9.44252e-11
0
0
-2.54322e-07
2.50558e-07
0
2.42686e-07
-1.03213e-17
-5.59725e-17
2.33974e-07
2.37476e-09
2.62577e-08
4.06799e-07
5.32801e-06
7.26681e-05
0.000890159
0.0092713
0.08029
0.574332
3.40972
16.9895
72.0411
263.58
841.301
2352.9
5717.36
11725.8
20297.4
32585.9
49508.5
70479.8
96005.6
127209
165907
214635
276740
356556
459672
593321
766893
992619
1.28647e+06
1.66935e+06
2.16864e+06
2.8203e+06
3.67151e+06
4.78411e+06
6.23941e+06
8.14555e+06
1.06463e+07
1.38738e+07
1.80549e+07
2.37112e+07
3.1115e+07
4.61294e+08
4.93322e+07
2.34388e+07
1.6729e+07
1.17666e+07
8.14415e+06
5.53866e+06
3.69693e+06
2.42276e+06
1.56634e+06
1.01615e+06
631826
131491
7346.2
169.397
2.24713
0.0235201
0.000309026
7.91052e-06
4.79941e-07
6.37145e-08
1.4292e-08
4.60924e-09
1.85683e-09
8.31508e-10
3.18821e-10
1.52931e-10
6.15731e-11
2.58816e-11
1.18262e-11
4.96028e-12
-2.85174e-12
9.23075e-13
3.78193e-13
-5.86883e-13
8.13311e-13
2.64145e-14
8.52108e-15
1.46447e-15
0
0
2.66755e-07
-1.13301e-20
0
2.70088e-07
0
1.81294e-19
1.80138e-19
-1.89928e-10
-4.92445e-15
0
-4.04342e-10
0
-8.06628e-18
-1.55928e-09
-1.54515e-09
-4.16609e-15
2.4637e-08
3.64081e-07
4.79575e-06
6.61196e-05
0.000805061
0.00835865
0.0721497
0.514338
3.04206
15.0937
63.7021
231.907
736.806
2056.13
5022.53
10539
18867.9
30738.5
47077
67399.2
92107.7
122255
159580
206575
266529
343721
443671
573536
742618
963066
1.25078e+06
1.62661e+06
2.11798e+06
2.76097e+06
3.60317e+06
4.70748e+06
6.15698e+06
8.06148e+06
1.05681e+07
1.38214e+07
1.80618e+07
2.38528e+07
3.15393e+07
4.09292e+08
8.36798e+07
2.47498e+07
1.75702e+07
1.2306e+07
8.48772e+06
5.75472e+06
3.8301e+06
2.50235e+06
1.61168e+06
1.03976e+06
658196
152611
9402.81
228.981
3.14051
0.0328701
0.000414799
9.91802e-06
5.60904e-07
7.04422e-08
1.52971e-08
4.73475e-09
1.89882e-09
7.6138e-10
3.47445e-10
1.43688e-10
6.57537e-11
3.20632e-11
1.2715e-11
6.98393e-13
2.37618e-12
1.77328e-12
-3.97561e-12
1.70376e-13
6.90994e-14
2.64587e-14
8.51915e-15
1.46109e-15
0
-2.79718e-21
5.66534e-21
0
0
4.62534e-20
-9.26232e-20
-9.83733e-11
0
3.66455e-19
0
0
-2.64238e-07
-1.96741e-14
-6.6725e-10
2.59845e-07
-3.87842e-14
5.83815e-09
2.91222e-08
3.37392e-07
4.23971e-06
5.92376e-05
0.000718722
0.00743618
0.0639976
0.454853
2.68148
13.2565
55.7243
202.002
639.259
1780.09
4362.5
9300.03
17086.5
28285.4
43802.9
63284.6
87046.9
116049
151949
197163
254927
329457
426219
552309
716983
932361
1.21436e+06
1.58394e+06
2.06872e+06
2.70523e+06
3.54174e+06
4.64226e+06
6.09176e+06
8.00332e+06
1.05275e+07
1.38159e+07
1.81052e+07
2.39692e+07
3.17571e+07
3.61349e+08
1.3293e+08
2.5837e+07
1.83139e+07
1.28084e+07
8.82246e+06
5.97398e+06
3.97069e+06
2.58992e+06
1.66376e+06
1.06808e+06
689915
181238
12686
330.919
4.7373
0.0497631
0.000599983
1.32303e-05
6.86446e-07
7.98825e-08
1.69782e-08
5.43298e-09
2.01686e-09
8.41123e-10
3.89075e-10
1.6987e-10
6.93708e-11
2.95665e-11
1.13802e-11
4.69042e-12
2.39805e-12
-4.12193e-12
4.2978e-13
-5.9683e-13
5.18904e-12
2.64779e-14
9.22758e-15
7.38293e-13
-2.6148e-07
0
6.06679e-12
-2.73821e-07
0
2.78212e-07
6.56461e-16
0
0
0
0
1.0346e-14
-4.322e-10
-2.92583e-18
-8.51802e-10
2.67514e-07
-3.51066e-16
-3.48723e-15
2.44404e-08
2.81387e-07
3.6922e-06
5.24816e-05
0.000634149
0.00654358
0.0561732
0.398264
2.34177
11.5437
48.3695
174.747
551.268
1532.37
3763.97
8116.71
15219.8
25596.4
40141.9
58630.1
81343.2
109135
143575
186979
242510
314307
407764
529902
689912
899861
1.17566e+06
1.53832e+06
2.01568e+06
2.64463e+06
3.47418e+06
4.5695e+06
6.01732e+06
7.93323e+06
1.04714e+07
1.37902e+07
1.81258e+07
2.40545e+07
3.1916e+07
2.92611e+08
2.00158e+08
2.67408e+07
1.89688e+07
1.32755e+07
9.14974e+06
6.19873e+06
4.12139e+06
2.68796e+06
1.72483e+06
1.1033e+06
720145
218837
18023.4
512.1
7.74122
0.082082
0.000942595
1.89252e-05
8.83443e-07
9.49143e-08
1.86672e-08
5.53165e-09
1.97158e-09
8.35217e-10
3.59508e-10
1.6073e-10
7.03271e-11
2.99298e-11
1.3764e-11
5.87277e-12
2.60673e-12
1.13311e-12
3.84575e-13
1.7163e-13
-5.08177e-12
2.93777e-14
8.48684e-15
5.01786e-12
6.90326e-22
0
-5.74383e-21
1.62431e-16
1.12578e-11
0
2.84049e-07
0
-2.85431e-07
0
2.25095e-10
0
4.46082e-10
-1.51359e-18
8.83412e-10
-4.20426e-17
3.18866e-09
3.51801e-09
1.91841e-08
2.69469e-07
3.58631e-06
4.60415e-05
0.000554598
0.00570724
0.0488958
0.346031
2.03076
9.98936
41.7576
150.479
473.601
1314.81
3235.39
7037.69
13414.9
22900.1
36382.1
53764
75333.8
101848
134772
176309
229513
298423
388322
506116
660869
864524
1.13288e+06
1.4869e+06
1.95446e+06
2.57275e+06
3.39148e+06
4.47726e+06
5.91965e+06
7.83943e+06
1.04002e+07
1.37723e+07
1.82267e+07
2.43914e+07
3.27007e+07
1.82287e+08
2.97933e+08
2.76665e+07
1.96736e+07
1.38001e+07
9.53109e+06
6.46918e+06
4.3081e+06
2.81286e+06
1.80495e+06
1.15134e+06
752971
266740
26889.3
849.682
13.7343
0.148323
0.00162165
2.92957e-05
1.21381e-06
1.17177e-07
2.25055e-08
6.17888e-09
2.1862e-09
9.41372e-10
3.83234e-10
1.62124e-10
7.72173e-11
3.63302e-11
1.54245e-11
7.07808e-12