/*--------------------------------*- C++ -*----------------------------------*\
  =========                 |
  \\      /  F ield         | OpenFOAM: The Open Source CFD Toolbox
   \\    /   O peration     | Website:  https://openfoam.org
    \\  /    A nd           | Version:  8
     \\/     M anipulation  |
\*---------------------------------------------------------------------------*/
FoamFile
{
    version     2.0;
    format      ascii;
    class       volScalarField;
    location    "260/fluid";
    object      rDeltaT;
}
// * * * * * * * * * * * * * * * * * * * * * * * * * * * * * * * * * * * * * //

dimensions      [0 0 -1 0 0 0 0];

internalField   nonuniform List<scalar> 
4000
(
513.083
538.31
562.434
585.669
607.988
629.295
649.48
668.423
686.006
702.136
716.767
729.925
741.733
752.428
762.371
772.039
781.821
791.945
802.404
812.924
822.993
831.96
839.152
843.983
846.016
845.02
840.888
833.602
823.226
809.889
793.77
775.08
754.05
730.92
705.937
693.624
709.264
739.145
768.753
798.179
827.515
856.848
886.26
915.825
945.605
975.651
1006
1036.67
1067.68
1099
1130.61
1162.47
1194.5
1226.61
1258.7
1290.64
1322.27
1353.42
1383.89
1413.41
1441.67
1468.63
1493.87
1517.48
16710.2
1535.77
1513.98
1485.84
1451.49
1411.27
1365.4
1314.15
1257.89
1197.16
1132.71
1065.31
996.153
927.313
861.559
802.126
752.756
716.39
693.545
681.801
677.082
675.448
674.042
671.247
666.275
658.993
649.573
638.286
625.43
611.293
596.129
580.125
563.426
546.178
528.401
509.742
512.668
537.311
560.731
582.958
603.989
623.751
642.159
659.134
674.612
688.568
701.04
712.149
722.115
731.268
740.047
748.87
758.091
767.911
778.296
788.945
799.316
808.723
816.449
821.861
824.485
824.005
820.25
813.185
802.88
789.485
773.203
754.269
732.935
709.461
684.105
665.059
674.643
705.943
736.997
767.886
798.695
829.508
860.404
891.458
922.734
954.288
986.163
1018.39
1050.98
1083.94
1117.25
1150.87
1184.76
1218.85
1253.03
1287.21
1321.25
1355
1388.26
1420.71
1452.14
1482.4
1510.88
1696.37
16156.2
1550.19
1521.63
1488.37
1449.87
1405.91
1356.47
1301.6
1241.53
1176.66
1107.64
1035.16
960.701
886.953
817.532
756.735
708.479
675.013
655.604
646.84
644.414
644.672
645.184
644.639
642.383
638.099
631.776
623.53
613.54
602.016
589.16
575.136
560.077
544.127
527.306
509.367
512.054
535.336
557.236
577.808
597.019
614.805
631.112
645.905
659.175
670.963
681.373
690.592
698.9
706.658
714.283
722.163
730.642
739.92
749.963
760.467
770.884
780.52
788.644
794.596
797.845
797.999
794.834
788.28
778.393
765.312
749.238
730.405
709.068
685.489
659.931
635.753
640.854
673.597
706.209
738.756
771.308
803.939
836.721
869.722
903.006
936.628
970.633
1005.06
1039.92
1075.24
1111.01
1147.2
1183.79
1220.71
1257.91
1295.29
1332.74
1370.11
1407.23
1443.67
1479.3
1513.83
1546.4
4176.89
13050.7
1573.5
1537.85
1497.61
1452.34
1401.82
1345.97
1284.85
1218.67
1147.92
1073.29
995.711
917.229
841.07
771.291
712.329
667.59
638.161
622.243
616.032
615.413
617.113
618.997
619.941
619.438
617.224
613.209
607.406
599.895
590.796
580.239
568.337
555.185
540.909
525.54
508.822
511.441
533.489
554.079
573.255
590.998
607.26
622.015
635.252
646.991
657.296
666.29
674.168
681.209
687.769
694.264
701.117
708.683
717.158
726.495
736.376
746.243
755.39
763.078
768.636
771.529
771.383
767.983
761.25
751.222
738.016
721.811
702.821
681.285
657.452
631.57
605.733
609.956
644.088
678.236
712.451
746.792
781.324
816.109
851.211
886.686
922.589
958.965
995.849
1033.27
1071.23
1109.75
1148.8
1188.36
1228.37
1268.78
1309.48
1350.35
1391.24
1431.93
1471.94
1511.13
1549.36
1586.12
11729
6922.73
1585.46
1544.87
1498.78
1447.25
1390.35
1328.2
1261.03
1189.25
1113.57
1034.84
954.366
874.717
799.364
732.314
677.445
637.353
612.21
599.588
595.59
596.41
599.149
601.962
603.846
604.315
603.164
600.334
595.84
589.737
582.109
573.044
562.613
550.879
537.939
523.809
508.252
510.779
531.474
550.653
568.364
584.591
599.299
612.473
624.122
634.285
643.045
650.546
657.005
662.718
668.055
673.44
679.296
685.969
693.64
702.25
711.467
720.725
729.315
736.493
741.585
744.051
743.512
739.745
732.667
722.304
708.765
692.217
672.863
650.93
626.653
600.271
574.999
580.71
616.192
651.842
687.703
723.822
760.253
797.052
834.273
871.969
910.187
948.969
988.346
1028.34
1068.97
1110.22
1152.09
1194.54
1237.51
1280.92
1324.66
1368.58
1412.46
1456.01
1498.66
1540.43
1580.41
1617.93
17841.5
2009.62
1587.99
1543.02
1491.82
1434.86
1372.45
1304.92
1232.72
1156.48
1077.1
995.544
913.508
833.858
760.154
696.253
645.549
609.846
588.493
578.598
576.317
578.189
581.681
585.215
587.922
589.36
589.319
587.715
584.534
579.802
573.573
565.913
556.87
546.491
534.859
521.987
507.648
510.105
529.448
547.251
563.559
578.363
591.637
603.376
613.602
622.364
629.759
635.94
641.132
645.635
649.822
654.114
658.929
664.607
671.321
679.002
687.314
695.691
703.427
709.784
714.096
715.825
714.596
710.183
702.5
691.564
677.473
660.384
640.486
617.992
593.125
566.11
543.489
552.859
589.592
626.643
664.044
701.834
740.057
778.76
817.989
857.789
898.198
939.251
980.973
1023.38
1066.47
1110.23
1154.63
1199.63
1245.14
1291.05
1337.21
1383.42
1429.37
1474.56
1518.38
1560.46
1599.36
1637.57
17176.5
1633.2
1587.99
1536.6
1479.48
1416.96
1349.4
1277.2
1200.91
1121.31
1039.38
956.233
873.905
795.445
724.4
664.384
618.247
587.026
569.368
562.068
561.39
564.195
568.264
572.254
575.432
577.422
578.045
577.223
574.931
571.181
566.01
559.46
551.565
542.353
531.894
520.196
507.044
509.414
527.374
543.782
558.68
572.065
583.915
594.235
603.053
610.429
616.468
621.333
625.255
628.541
631.568
634.756
638.519
643.188
648.923
655.647
663.013
670.453
677.26
682.701
686.118
686.979
684.914
679.7
671.248
659.574
644.769
626.98
606.387
583.192
557.606
529.842
511.197
525.602
563.483
601.819
640.634
679.957
719.824
760.273
801.341
843.062
885.468
928.581
972.416
1016.98
1062.25
1108.21
1154.82
1202
1249.65
1297.63
1345.76
1393.8
1441.4
1487.9
1532.81
1575.64
1614.85
4977.12
12920.7
1626.69
1576.69
1520.84
1459.46
1392.88
1321.54
1245.98
1166.88
1085.14
1001.79
918.103
836.426
759.869
691.899
635.84
594.001
566.743
552.183
546.965
547.539
551.079
555.636
560.051
563.69
566.221
567.479
567.387
565.913
563.058
558.846
553.309
546.468
538.343
528.996
518.431
506.446
508.715
525.284
540.296
553.796
565.78
576.236
585.171
592.622
598.654
603.379
606.966
609.65
611.741
613.614
615.688
618.37
621.983
626.676
632.361
638.688
645.084
650.846
655.251
657.645
657.509
654.477
648.331
638.984
626.448
610.81
592.209
570.819
546.83
520.442
491.859
478.116
498.49
537.391
576.871
616.945
657.635
698.966
740.968
783.668
827.091
871.257
916.178
961.857
1008.29
1055.44
1103.28
1151.73
1200.72
1250.12
1299.76
1349.45
1398.91
1447.78
1495.38
1541.32
1585.35
1626.52
12804.5
6495.16
1607.09
1555.18
1496.86
1432.82
1363.62
1289.83
1212.14
1131.36
1048.51
964.66
881.293
800.962
726.807
662.185
610.11
572.376
548.757
536.965
533.579
535.254
539.436
544.41
549.172
553.176
556.136
557.906
558.413
557.625
555.536
552.161
547.523
541.636
534.513
526.206
516.719
505.862
508.009
523.173
536.782
548.879
559.464
568.528
576.085
582.176
586.872
590.289
592.6
594.046
594.936
595.648
596.595
598.178
600.711
604.334
608.946
614.191
619.493
624.152
627.452
628.75
627.535
623.45
616.284
605.952
592.465
575.909
556.419
534.158
509.311
482.068
452.622
444.277
471.086
510.875
551.353
592.527
634.409
677.017
720.369
764.485
809.379
855.061
901.531
948.781
996.789
1045.52
1094.91
1144.89
1195.34
1246.14
1297.09
1347.96
1398.46
1448.22
1496.51
1543.06
1587.45
1628.65
18004
2219.03
1581.12
1528.16
1468.32
1402.54
1331.6
1256.24
1177.26
1095.61
1012.39
928.695
846.232
767.69
696.194
634.961
586.692
552.701
532.273
522.835
520.984
523.584
528.329
533.694
538.8
543.171
546.554
548.819
549.897
549.754
548.381
545.789
541.994
537.005
530.829
523.513
515.061
505.295
507.297
521.048
533.249
543.941
553.127
560.803
566.987
571.724
575.09
577.205
578.246
578.455
578.143
577.686
577.493
577.958
579.386
581.905
585.406
589.524
593.683
597.186
599.324
599.466
597.111
591.911
583.663
572.285
557.791
540.264
519.835
496.663
470.924
442.8
412.477
409.716
443.099
483.643
524.972
567.084
609.985
653.682
698.186
743.505
789.645
836.603
884.37
932.925
982.234
1032.24
1082.88
1134.05
1185.62
1237.43
1289.25
1340.82
1391.75
1441.54
1489.3
1534.92
1576.96
1613.72
18071.3
1609.01
1559.21
1502.56
1439.82
1371.74
1298.98
1222.27
1142.4
1060.35
977.217
894.114
812.939
736.444
667.712
609.805
565.113
534.523
516.914
509.521
509.003
512.423
517.688
523.432
528.881
533.615
537.411
540.15
541.771
542.24
541.544
539.692
536.696
532.559
527.287
520.919
513.46
504.746
506.581
518.91
529.696
538.978
546.761
553.047
557.856
561.238
563.273
564.086
563.854
562.822
561.302
559.667
558.323
557.656
557.96
559.353
561.717
564.679
567.662
569.974
570.914
569.861
566.326
559.972
550.603
538.142
522.606
504.077
482.684
458.581
431.938
402.93
371.736
374.493
414.313
455.482
497.52
540.418
584.173
628.784
674.252
720.577
767.753
815.771
864.609
914.235
964.605
1015.65
1067.29
1119.42
1171.88
1224.49
1277.02
1329.16
1380.52
1430.39
1478.11
1523.23
1564.05
2351.89
16276.5
1586.18
1532.92
1473.68
1408.95
1339.31
1265.41
1187.95
1107.74
1025.77
943.131
860.98
781.367
707.068
641.105
586.377
544.984
517.435
502.291
496.665
497.303
501.463
507.223
513.354
519.166
524.284
528.507
531.73
533.894
534.966
534.934
533.801
531.578
528.266
523.866
518.414
511.912
504.215
505.861
516.761
526.125
533.992
540.368
545.26
548.692
550.718
551.421
550.928
549.421
547.146
544.413
541.593
539.087
537.274
536.439
536.688
537.893
539.676
541.459
542.554
542.27
539.997
535.258
527.725
517.213
503.65
487.056
467.513
445.149
420.113
392.571
362.692
335.703
343.891
384.592
426.262
468.877
512.418
556.874
602.237
648.5
695.652
743.68
792.563
842.273
892.768
943.992
995.871
1048.31
1101.19
1154.35
1207.6
1260.7
1313.34
1365.12
1415.34
1463.41
1508.98
1550.64
6614.55
12498.8
1555.52
1501.28
1441.08
1375.53
1305.27
1230.97
1153.38
1073.36
991.925
910.131
829.214
751.356
679.326
616.075
564.344
525.967
501.131
488.149
484.068
485.735
490.579
496.826
503.361
509.561
515.088
519.761
523.482
526.196
527.873
528.499
528.076
526.611
524.103
520.552
515.988
510.415
503.701
505.137
514.601
522.538
528.983
533.949
537.442
539.494
540.16
539.529
537.729
534.945
531.422
527.471
523.461
519.786
516.819
514.832
513.923
513.954
514.542
515.108
514.971
513.447
509.94
503.984
495.263
483.6
468.93
451.275
430.722
407.393
381.437
353.014
322.289
299.613
312.835
353.85
395.908
438.977
483.031
528.051
574.022
620.927
668.748
717.465
767.049
817.461
868.654
920.562
973.104
1026.18
1079.65
1133.37
1187.13
1240.68
1293.73
1345.87
1396.45
1444.91
1490.99
1533.5
11258.4
8463.58
1520.71
1466.51
1406.19
1340.53
1270.26
1196.11
1118.88
1039.45
958.894
878.22
798.757
722.773
653.017
592.374
543.433
507.789
485.364
474.28
471.559
474.155
479.648
486.387
493.351
499.972
505.939
511.088
515.329
518.611
520.903
522.191
522.476
521.762
520.047
517.328
513.632
508.961
503.202
504.41
512.432
518.935
523.955
527.505
529.597
530.266
529.571
527.602
524.494
520.43
515.658
510.488
505.284
500.435
496.306
493.159
491.082
489.928
489.31
488.65
487.271
484.502
479.755
472.579
462.67
449.859
434.087
415.382
393.829
369.553
342.7
313.424
281.885
263.083
280.815
322.046
364.387
407.798
452.247
497.708
544.157
591.57
639.923
689.187
739.326
790.297
842.042
894.491
947.557
1001.13
1055.07
1109.23
1163.38
1217.3
1270.66
1323.1
1373.92
1422.6
1468.88
1511.5
14000.3
5675.39
1484.82
1430.76
1370.55
1305.06
1235.09
1161.4
1084.81
1006.25
926.788
847.416
769.54
695.478
627.956
569.788
523.42
490.241
469.952
460.54
459.031
462.482
468.602
475.845
483.267
490.34
496.782
502.438
507.224
511.093
514.014
515.974
516.97
517.005
516.076
514.178
511.334
507.547
502.717
503.68
510.254
515.32
518.91
521.041
521.728
521.012
518.954
515.649
511.231
505.888
499.867
493.476
487.076
481.051
475.756
471.444
468.193
465.848
464.018
462.127
459.504
455.487
449.503
441.113
430.024
416.075
399.215
379.477
356.947
331.75
304.028
273.933
241.621
226.173
247.814
289.169
331.695
375.348
420.085
465.875
512.686
560.488
609.25
658.936
709.505
760.906
813.078
865.944
919.412
973.368
1027.67
1082.16
1136.62
1190.81
1244.4
1297.03
1348
1396.82
1443.23
1485.98
16122
3651.81
1448.44
1394.46
1334.46
1269.34
1199.9
1126.92
1051.23
973.76
895.576
817.655
741.457
669.333
603.982
548.141
504.133
473.167
454.77
446.826
446.405
450.652
457.39
465.155
473.063
480.625
487.574
493.768
499.127
503.605
507.173
509.816
511.531
512.318
512.172
511.089
509.086
506.164
502.243
502.948
508.069
511.693
513.851
514.559
513.842
511.739
508.319
503.677
497.951
491.33
484.061
476.45
468.855
461.653
455.191
449.712
445.284
441.745
438.701
435.578
431.713
426.455
419.242
409.649
397.393
382.325
364.399
343.651
320.171
294.083
265.527
234.654
201.611
188.943
213.834
255.229
297.853
341.653
386.582
432.6
479.668
527.751
576.812
626.807
677.691
729.408
781.89
835.057
888.813
943.042
997.603
1052.33
1107.01
1161.42
1215.24
1268.11
1319.34
1368.48
1415.22
1458.43
18381.7
2231.29
1410.48
1356.96
1297.65
1233.35
1164.82
1092.86
1018.31
942.112
865.341
788.959
714.475
644.261
580.981
527.307
485.448
456.466
439.754
433.083
433.635
438.633
445.983
454.288
462.714
470.797
478.287
485.048
491.007
496.117
500.351
503.692
506.136
507.679
508.318
508.046
506.876
504.809
501.779
502.213
505.878
508.058
508.78
508.066
505.943
502.455
497.673
491.696
484.665
476.77
468.256
459.429
450.641
442.264
434.635
427.989
422.383
417.65
413.394
409.044
403.943
397.453
389.025
378.245
364.842
348.676
329.709
307.98
283.583
256.64
227.289
195.679
161.954
151.453
178.897
220.254
262.894
306.756
351.789
397.943
445.175
493.444
542.704
592.91
644.008
695.938
748.628
801.993
855.932
910.321
965.014
1019.83
1074.57
1128.97
1182.7
1235.39
1286.27
1335.01
1381.29
1423.61
18712
1423.56
1376.39
1322.6
1263.25
1199.19
1131.2
1060.04
986.52
911.561
836.187
761.337
688.542
620.167
558.834
507.151
467.234
440.027
424.853
419.324
420.714
426.416
434.373
443.235
452.204
460.837
468.898
476.256
482.84
488.605
493.524
497.579
500.763
503.072
504.499
505.038
504.696
503.474
501.323
501.477
503.683
504.416
503.703
501.566
498.038
493.167
487.026
479.719
471.387
462.221
452.468
442.429
432.453
422.904
414.111
406.299
399.518
393.595
388.131
382.56
376.234
368.524
358.897
346.95
332.424
315.186
295.207
272.531
247.252
219.492
189.389
157.088
122.729
113.759
143.037
184.283
226.863
270.71
315.765
361.972
409.283
457.65
507.023
557.35
608.575
660.633
713.448
766.932
820.98
875.469
930.251
985.148
1039.95
1094.4
1148.19
1200.92
1251.77
1300.48
1346.58
1388.68
18878
1389.14
1341.29
1287.46
1228.48
1165.07
1097.94
1027.81
955.487
881.87
807.956
734.665
663.539
596.929
537.415
487.547
449.363
423.715
409.913
405.505
407.648
414.014
422.568
431.995
441.525
450.732
459.389
467.37
474.603
481.045
486.669
491.455
495.393
498.476
500.698
502.05
502.537
502.155
500.872
500.74
501.485
500.772
498.623
495.065
490.134
483.883
476.388
467.755
458.128
447.698
436.711
425.466
414.307
403.591
393.639
384.666
376.714
369.605
362.94
356.157
348.618
339.707
328.899
315.808
300.185
281.906
260.948
237.359
211.235
182.7
151.889
118.944
100
100
106.298
147.365
189.815
233.573
278.574
324.759
372.071
420.457
469.864
520.236
571.512
623.624
676.495
730.034
784.136
838.676
893.505
948.446
1003.29
1057.77
1111.57
1164.31
1215.12
1264.05
1310.01
1352.01
18801.9
1354.09
1306.12
1252.5
1194
1131.31
1065.12
996.125
925.087
852.885
780.488
708.789
639.323
574.414
516.599
468.374
431.719
407.431
394.788
391.461
394.408
401.418
410.553
420.546
430.65
440.453
449.731
458.359
466.266
473.41
479.759
485.295
490.003
493.874
496.9
499.072
500.388
500.846
500.426
500.006
499.29
497.127
493.543
488.567
482.237
474.61
465.767
455.815
444.899
433.213
420.999
408.556
396.221
384.345
373.239
363.11
353.992
345.704
337.847
329.864
321.126
311.03
299.065
284.855
268.163
248.874
226.972
202.508
175.581
146.314
114.841
100
100
100
100
109.553
151.806
195.408
240.286
286.376
333.616
381.948
431.315
481.658
532.913
585.011
637.871
691.404
745.505
800.049
854.89
909.854
964.731
1019.27
1073.15
1125.98
1176.88
1226.02
1272.25
1314.57
18828.2
1317.44
1269.93
1216.98
1159.32
1097.64
1032.6
964.89
895.252
824.55
753.725
683.647
615.829
552.562
496.339
449.606
414.292
391.157
379.437
376.967
380.779
388.464
398.21
408.801
419.515
429.949
439.881
449.189
457.802
465.674
472.774
479.081
484.578
489.252
493.094
496.094
498.248
499.556
500
500.01
499.293
497.128
493.542
488.565
482.234
474.606
465.762
455.808
444.892
433.204
420.99
408.546
396.21
384.332
373.225
363.096
353.978
345.689
337.831
329.848
321.111
311.015
299.05
284.841
268.149
248.862
226.961
202.498
175.573
146.307
114.836
100
100
100
100
109.555
151.809
195.412
240.292
286.382
333.623
381.957
431.325
481.669
532.925
585.024
637.885
691.419
745.52
800.065
854.907
909.872
964.75
1019.29
1073.17
1126.01
1176.91
1226.04
1272.25
1314.55
18825.1
1317.49
1269.98
1217.02
1159.35
1097.67
1032.63
964.92
895.281
824.578
753.752
683.673
615.853
552.585
496.36
449.627
414.313
391.177
379.452
376.983
380.797
388.481
398.226
408.817
419.53
429.963
439.894
449.201
457.813
465.684
472.784
479.09
484.586
489.259
493.1
496.099
498.255
499.572
500.018
500.748
501.492
500.773
498.621
495.061
490.128
483.874
476.377
467.742
458.113
447.681
436.692
425.445
414.284
403.567
393.613
384.639
376.686
369.576
362.911
356.128
348.589
339.678
328.871
315.781
300.16
281.883
260.927
237.341
211.22
182.688
151.881
118.938
100
100
106.297
147.367
189.82
233.581
278.585
324.772
372.087
420.476
469.886
520.26
571.538
623.653
676.526
730.068
784.172
838.714
893.546
948.49
1003.33
1057.82
1111.63
1164.37
1215.18
1264.11
1310.06
1352.04
18798.6
1354.18
1306.21
1252.57
1194.07
1131.38
1065.19
996.189
925.148
852.945
780.545
708.843
639.373
574.46
516.642
468.415
431.76
407.469
394.818
391.494
394.446
401.452
410.586
420.577
430.679
440.48
449.756
458.382
466.288
473.43
479.778
485.312
490.019
493.888
496.912
499.083
500.403
500.877
500.462
501.485
503.69
504.418
503.702
501.563
498.032
493.159
487.016
479.707
471.373
462.205
452.449
442.408
432.43
422.88
414.086
406.273
399.492
393.568
388.104
382.533
376.207
368.499
358.872
346.926
332.402
315.166
295.19
272.517
247.24
219.483
189.383
157.085
122.729
113.758
143.035
184.285
226.868
270.719
315.776
361.987
409.301
457.671
507.047
557.378
608.606
660.667
713.486
766.974
821.027
875.521
930.307
985.21
1040.02
1094.47
1148.26
1201
1251.85
1300.57
1346.69
1388.77
18877.2
1389.23
1341.38
1287.54
1228.56
1165.15
1098.02
1027.89
955.565
881.944
808.026
734.729
663.597
596.981
537.461
487.589
449.403
423.751
409.945
405.54
407.686
414.049
422.602
432.027
441.555
450.761
459.416
467.395
474.626
481.067
486.689
491.473
495.409
498.491
500.711
502.062
502.552
502.187
500.907
502.22
505.885
508.06
508.779
508.063
505.938
502.448
497.663
491.685
484.652
476.754
468.238
459.409
450.62
442.241
434.611
427.964
422.358
417.625
413.37
409.019
403.92
397.43
389.003
378.224
364.823
348.659
329.694
307.969
283.574
256.634
227.287
195.679
161.957
151.453
178.894
220.255
262.898
306.764
351.8
397.957
445.193
493.465
542.729
592.939
644.041
695.976
748.671
802.042
855.986
910.382
965.083
1019.91
1074.66
1129.06
1182.81
1235.51
1286.4
1335.14
1381.43
1423.74
18715.6
1423.67
1376.5
1322.71
1263.37
1199.31
1131.32
1060.15
986.623
911.657
836.274
761.414
688.608
620.223
558.882
507.194
467.273
440.063
424.889
419.361
420.752
426.452
434.408
443.269
452.235
460.867
468.926
476.283
482.865
488.628
493.545
497.599
500.781
503.088
504.514
505.051
504.712
503.506
501.356
502.954
508.075
511.695
513.85
514.557
513.837
511.733
508.31
503.665
497.937
491.314
484.043
476.431
468.834
461.631
455.168
449.688
445.26
441.722
438.679
435.556
431.692
426.435
419.224
409.632
397.378
382.311
364.388
343.643
320.166
294.081
265.528
234.658
201.619
188.945
213.83
255.228
297.856
341.659
386.591
432.612
479.684
527.771
576.835
626.836
677.724
729.446
781.935
835.109
888.873
943.111
997.682
1052.42
1107.12
1161.53
1215.37
1268.25
1319.5
1368.64
1415.39
1458.59
18389.1
2219.05
1410.63
1357.12
1297.81
1233.51
1164.98
1093.01
1018.45
942.242
865.456
789.058
714.558
644.33
581.038
527.354
485.491
456.506
439.794
433.124
433.674
438.672
446.02
454.324
462.748
470.829
478.317
485.077
491.033
496.142
500.374
503.714
506.155
507.697
508.334
508.061
506.893
504.839
501.811
503.686
510.26
515.322
518.91
521.039
521.724
521.006
518.946
515.638
511.218
505.873
499.849
493.457
487.055
481.029
475.733
471.422
468.171
465.827
463.998
462.107
459.486
455.47
449.488
441.099
430.012
416.065
399.208
379.472
356.946
331.751
304.032
273.941
241.632
226.176
247.808
289.166
331.695
375.35
420.091
465.884
512.698
560.503
609.269
658.959
709.533
760.94
813.119
865.993
919.47
973.436
1027.75
1082.25
1136.73
1190.93
1244.55
1297.2
1348.19
1397.03
1443.48
1486.23
16138.3
3631.88
1448.62
1394.65
1334.67
1269.55
1200.11
1127.12
1051.42
973.938
895.733
817.791
741.569
669.424
604.054
548.2
504.184
473.214
454.816
446.871
446.449
450.695
457.431
465.194
473.1
480.66
487.607
493.799
499.156
503.632
507.198
509.839
511.552
512.337
512.19
511.105
509.104
506.194
502.272
504.415
512.437
518.938
523.956
527.503
529.594
530.26
529.563
527.593
524.482
520.416
515.642
510.47
505.264
500.415
496.285
493.138
491.062
489.909
489.292
488.634
487.256
484.488
479.742
472.568
462.661
449.852
434.082
415.38
393.83
369.558
342.707
313.435
281.9
263.088
280.807
322.04
364.383
407.796
452.247
497.71
544.161
591.576
639.932
689.199
739.343
790.318
842.07
894.527
947.602
1001.19
1055.14
1109.31
1163.49
1217.43
1270.82
1323.27
1374.13
1422.84
1469.17
1511.82
14020.7
5652.52
1485.09
1431.05
1370.85
1305.37
1235.39
1161.69
1085.08
1006.5
927.006
847.602
769.694
695.601
628.053
569.865
523.484
490.298
470.006
460.592
459.082
462.53
468.649
475.89
483.309
490.38
496.819
502.472
507.256
511.123
514.042
515.999
516.993
517.026
516.095
514.196
511.353
507.574
502.743
505.141
514.605
522.54
528.984
533.948
537.439
539.489
540.153
539.52
537.718
534.931
531.406
527.454
523.442
519.767
516.799
514.812
513.904
513.936
514.525
515.094
514.958
513.436
509.93
503.975
495.257
483.595
468.927
451.276
430.725
407.399
381.447
353.028
322.307
299.618
312.824
353.84
395.899
438.968
483.023
528.044
574.015
620.92
668.742
717.46
767.046
817.461
868.658
920.572
973.122
1026.2
1079.69
1133.43
1187.21
1240.79
1293.86
1346.04
1396.67
1445.17
1491.32
1533.89
11292.8
8424.61
1521.09
1466.94
1406.63
1340.98
1270.7
1196.53
1119.27
1039.81
959.203
878.484
798.974
722.947
653.153
592.48
543.518
507.862
485.431
474.343
471.619
474.213
479.702
486.438
493.399
500.016
505.981
511.127
515.365
518.644
520.933
522.219
522.501
521.785
520.067
517.346
513.651
508.987
503.225
505.864
516.764
526.127
533.992
540.368
545.257
548.688
550.711
551.412
550.917
549.408
547.131
544.396
541.575
539.068
537.255
536.42
536.67
537.876
539.661
541.446
542.543
542.26
539.988
535.251
527.72
517.21
503.649
487.057
467.518
445.156
420.125
392.587
362.712
335.708
343.878
384.579
426.248
468.862
512.401
556.855
602.216
648.476
695.625
743.65
792.532
842.24
892.734
943.958
995.839
1048.28
1101.17
1154.34
1207.61
1260.74
1313.41
1365.24
1415.52
1463.68
1509.35
1551.16
6698.35
12425.3
1556.06
1501.93
1441.75
1376.2
1305.92
1231.58
1153.94
1073.86
992.358
910.498
829.515
751.596
679.512
616.218
564.457
526.06
501.215
488.226
484.14
485.802
490.642
496.885
503.416
509.612
515.135
519.804
523.521
526.232
527.906
528.529
528.103
526.635
524.125
520.572
516.007
510.437
503.719
506.583
518.912
529.698
538.979
546.761
553.045
557.852
561.232
563.266
564.076
563.842
562.808
561.286
559.65
558.304
557.637
557.942
559.336
561.701
564.665
567.65
569.964
570.905
569.853
566.32
559.967
550.599
538.14
522.606
504.08
482.69
458.591
431.952
402.949
371.76
374.499
414.297
455.463
497.498
540.392
584.142
628.747
674.209
720.527
767.696
815.705
864.534
914.153
964.513
1015.55
1067.19
1119.31
1171.76
1224.38
1276.92
1329.09
1380.48
1430.41
1478.22
1523.47
1564.48
2382.72
16219.2
1587.21
1534.06
1474.79
1410.01
1340.3
1266.3
1188.74
1108.43
1026.36
943.626
861.382
781.685
707.313
641.291
586.522
545.101
517.537
502.383
496.751
497.383
501.537
507.291
513.417
519.224
524.337
528.556
531.775
533.934
535.002
534.967
533.83
531.604
528.289
523.887
518.433
511.931
504.228
507.298
521.049
533.25
543.942
553.127
560.802
566.984
571.719
575.083
577.196
578.234
578.441
578.127
577.669
577.475
577.94
579.369
581.889
585.391
589.511
593.671
597.176
599.315
599.458
597.103
591.905
583.657
572.281
557.788
540.263
519.837
496.668
470.933
442.813
412.495
409.721
443.084
483.623
524.945
567.051
609.943
653.631
698.125
743.432
789.558
836.502
884.253
932.791
982.08
1032.07
1082.69
1133.83
1185.38
1237.16
1288.96
1340.5
1391.43
1441.21
1488.99
1534.69
1576.87
1613.74
17998.2
1610.97
1561.13
1504.3
1441.39
1373.12
1300.19
1223.31
1143.29
1061.1
977.834
894.614
813.334
736.748
667.943
609.983
565.256
534.645
517.024
509.622
509.096
512.508
517.767
523.504
528.947
533.675
537.465
540.199
541.815
542.278
541.579
539.722
536.723
532.583
527.308
520.937
513.474
504.753
508.008
523.173
536.783
548.88
559.465
568.528
576.083
582.172
586.865
590.28
592.589
594.032
594.921
595.631
596.577
598.16
600.694
604.318
608.932
614.178
619.481
624.142
627.442
628.74
627.525
623.44
616.274
605.942
592.456
575.902
556.413
534.155
509.311
482.072
452.631
444.278
471.074
510.857
551.327
592.49
634.361
676.956
720.294
764.394
809.269
854.93
901.377
948.601
996.582
1045.28
1094.64
1144.58
1195
1245.75
1296.65
1347.47
1397.9
1447.57
1495.76
1542.12
1586.25
1627.08
18054
2156.06
1583.67
1530.26
1470.1
1404.08
1332.94
1257.4
1178.26
1096.46
1013.1
929.274
846.694
768.05
696.47
635.175
586.863
552.847
532.403
522.953
521.092
523.683
528.419
533.775
538.873
543.237
546.613
548.871
549.943
549.795
548.417
545.82
542.021
537.029
530.85
523.53
515.07
505.295
508.712
525.282
540.297
553.797
565.781
576.235
585.169
592.618
598.648
603.371
606.955
609.637
611.726
613.598
615.671
618.352
621.965
626.66
632.346
638.674
645.071
650.834
655.238
657.632
657.495
654.461
648.315
638.967
626.43
610.792
592.192
570.803
546.816
520.431
491.852
478.114
498.488
537.381
576.85
616.912
657.588
698.903
740.886
783.565
826.965
871.104
915.996
961.642
1008.03
1055.15
1102.94
1151.35
1200.28
1249.62
1299.2
1348.81
1398.19
1446.98
1494.52
1540.4
1584.39
1625.58
12796.7
6401.81
1608.76
1556.87
1498.52
1434.36
1365.01
1291.07
1213.23
1132.29
1049.3
965.308
881.815
801.371
727.124
662.431
610.308
572.544
548.906
537.1
533.703
535.365
539.536
544.5
549.252
553.246
556.198
557.961
558.461
557.667
555.572
552.192
547.55
541.659
534.532
526.22
516.722
505.855
509.41
527.372
543.782
558.682
572.066
583.916
594.234
603.05
610.424
616.461
621.323
625.242
628.527
631.552
634.739
638.501
643.17
648.906
655.631
662.998
670.438
677.244
682.685
686.099
686.959
684.89
679.674
671.22
659.544
644.737
626.947
606.353
583.158
557.573
529.812
511.191
525.616
563.488
601.812
640.613
679.919
719.768
760.196
801.239
842.934
885.309
928.388
972.185
1016.7
1061.93
1107.85
1154.4
1201.52
1249.11
1297.04
1345.12
1393.11
1440.69
1487.2
1532.17
1575.12
1614.53
5069.73
12816.3
1627.83
1577.99
1522.24
1460.83
1394.17
1322.74
1247.05
1167.82
1085.94
1002.46
918.649
836.858
760.206
692.162
636.052
594.181
566.904
552.331
547.099
547.66
551.186
555.731
560.135
563.762
566.284
567.534
567.434
565.954
563.093
558.875
553.334
546.488
538.36
529.007
518.427
506.431
510.1
529.444
547.251
563.56
578.364
591.638
603.376
613.6
622.36
629.753
635.931
641.12
645.621
649.806
654.097
658.911
664.589
671.303
678.984
687.296
695.673
703.407
709.762
714.07
715.796
714.562
710.145
702.457
691.517
677.423
660.33
640.43
617.933
593.065
566.05
543.48
552.898
589.621
626.66
664.046
701.818
740.021
778.701
817.904
857.675
898.052
939.068
980.748
1023.11
1066.15
1109.86
1154.2
1199.14
1244.59
1290.44
1336.54
1382.69
1428.6
1473.77
1517.62
1559.77
1598.75
1640.81
17088.6
1634.74
1589.55
1538.16
1480.95
1418.32
1350.62
1278.28
1201.85
1122.1
1040.04
956.768
874.326
795.771
724.652
664.586
618.42
587.184
569.516
562.205
561.513
564.304
568.359
572.337
575.503
577.483
578.097
577.267
574.968
571.212
566.035
559.481
551.581
542.366
531.901
520.185
507.022
510.773
531.469
550.653
568.365
584.593
599.301
612.474
624.121
634.282
643.04
650.538
656.995
662.704
668.04
673.423
679.277
685.95
693.621
702.231
711.447
720.704
729.29
736.464
741.552
744.012
743.466
739.693
732.608
722.238
708.693
692.139
672.78
650.841
626.56
600.174
574.988
580.783
616.256
651.894
687.739
723.841
760.252
797.027
834.222
871.888
910.073
948.817
988.153
1028.1
1068.68
1109.88
1151.69
1194.07
1236.97
1280.31
1323.97
1367.79
1411.57
1455
1497.48
1539.05
1578.8
1616.04
17793.2
1944.64
1590.04
1544.79
1493.33
1436.16
1373.57
1305.89
1233.54
1157.17
1077.67
995.996
913.857
834.122
760.353
696.412
645.688
609.98
588.625
578.725
576.434
578.292
581.77
585.292
587.988
589.415
589.364
587.753
584.565
579.826
573.593
565.928
556.882
546.5
534.861
521.968
507.619
511.435
533.484
554.079
573.258
591.001
607.263
622.017
635.252
646.99
657.293
666.284
674.159
681.197
687.755
694.247
701.099
708.664
717.138
726.474
736.353
746.217
755.36
763.042
768.593
771.478
771.324
767.913
761.172
751.134
737.918
721.704
702.706
681.162
657.32
631.431
605.72
610.073
644.197
678.333
712.534
746.859
781.372
816.135
851.211
886.658
922.529
958.868
995.712
1033.08
1071
1109.46
1148.45
1187.95
1227.89
1268.22
1308.84
1349.63
1390.42
1431.02
1470.94
1510.04
1548.19
1584.91
11769.5
6792.08
1586.35
1545.77
1499.66
1448.09
1391.12
1328.88
1261.61
1189.73
1113.96
1035.14
954.584
874.867
799.466
732.392
677.52
637.438
612.308
599.691
595.689
596.498
599.225
602.026
603.9
604.358
603.199
600.362
595.861
589.753
582.12
573.052
562.618
550.882
537.935
523.783
508.216
512.047
535.331
557.236
577.811
597.023
614.809
631.116
645.907
659.176
670.961
681.368
690.585
698.889
706.645
714.268
722.145
730.622
739.899
749.94
760.441
770.854
780.484