/*--------------------------------*- C++ -*----------------------------------*\
  =========                 |
  \\      /  F ield         | OpenFOAM: The Open Source CFD Toolbox
   \\    /   O peration     | Website:  https://openfoam.org
    \\  /    A nd           | Version:  8
     \\/     M anipulation  |
\*---------------------------------------------------------------------------*/
FoamFile
{
    version     2.0;
    format      ascii;
    class       volScalarField;
    location    "260/fluid";
    object      rho;
}
// * * * * * * * * * * * * * * * * * * * * * * * * * * * * * * * * * * * * * //

dimensions      [1 -3 0 0 0 0 0];

internalField   nonuniform List<scalar> 
4000
(
0.658527
0.658504
0.658466
0.658402
0.658296
0.65812
0.657833
0.657365
0.656613
0.655419
0.653553
0.65069
0.646397
0.640131
0.631284
0.619267
0.603659
0.584366
0.561738
0.536557
0.509893
0.482872
0.456474
0.431412
0.408113
0.386759
0.367357
0.349808
0.333953
0.319616
0.30662
0.294801
0.284011
0.274126
0.265037
0.256656
0.248902
0.241674
0.234912
0.228568
0.222602
0.216978
0.211667
0.206644
0.201888
0.197379
0.193104
0.189049
0.185204
0.181561
0.178113
0.174856
0.171786
0.168904
0.166211
0.163711
0.161414
0.159332
0.157482
0.155905
0.154637
0.15368
0.153129
0.15307
0.153634
0.162486
0.17298
0.185346
0.199901
0.217066
0.237394
0.261611
0.290665
0.325786
0.368567
0.421183
0.486223
0.56597
0.661343
0.769765
0.882781
0.986537
1.06793
1.12221
1.15351
1.16961
1.17738
1.18097
1.18258
1.18329
1.1836
1.18373
1.18378
1.18381
1.18381
1.18382
1.18382
1.18382
1.18382
1.18382
0.658527
0.658504
0.658465
0.658399
0.658291
0.658111
0.657816
0.657335
0.656562
0.655336
0.653421
0.650491
0.64611
0.639741
0.630782
0.618664
0.602986
0.583671
0.561076
0.535975
0.509416
0.482504
0.456201
0.431213
0.407963
0.386636
0.367246
0.349696
0.333835
0.319488
0.30648
0.294647
0.283846
0.273949
0.264851
0.256462
0.2487
0.241466
0.234697
0.228349
0.222378
0.216751
0.211438
0.206413
0.201656
0.197147
0.192872
0.188818
0.184974
0.181333
0.177887
0.174633
0.171568
0.16869
0.166003
0.163512
0.161225
0.159157
0.157329
0.155794
0.154575
0.153701
0.153292
0.153479
0.154544
0.16369
0.174504
0.187246
0.202261
0.220006
0.24108
0.266269
0.296602
0.333417
0.378457
0.434098
0.502997
0.587265
0.687124
0.798466
0.910872
1.00973
1.0838
1.1313
1.15804
1.17169
1.17828
1.18135
1.18274
1.18335
1.18362
1.18374
1.18379
1.18381
1.18382
1.18382
1.18382
1.18382
1.18382
1.18382
0.658527
0.658503
0.658463
0.658396
0.658284
0.658099
0.657795
0.657301
0.656507
0.655248
0.653287
0.650293
0.645827
0.639353
0.630277
0.618038
0.602253
0.582864
0.560239
0.535155
0.508652
0.481821
0.455606
0.4307
0.407519
0.386246
0.366893
0.349367
0.33352
0.319179
0.306171
0.294336
0.28353
0.273627
0.264521
0.256126
0.248356
0.241114
0.234338
0.227983
0.222006
0.216374
0.211057
0.206028
0.201268
0.196757
0.192482
0.188428
0.184586
0.180947
0.177505
0.174255
0.171195
0.168325
0.165647
0.163166
0.160891
0.158837
0.157026
0.155524
0.154342
0.153529
0.153223
0.153603
0.156373
0.165874
0.177131
0.190423
0.206123
0.224725
0.246878
0.273436
0.30551
0.344539
0.392404
0.451596
0.524621
0.613096
0.716152
0.828036
0.937083
1.02936
1.09619
1.13807
1.16137
1.17323
1.17897
1.18165
1.18286
1.18341
1.18364
1.18375
1.18379
1.18381
1.18382
1.18382
1.18382
1.18382
1.18382
1.18382
0.658527
0.658502
0.658461
0.658393
0.658279
0.65809
0.65778
0.657275
0.656466
0.655184
0.65319
0.65015
0.645623
0.639072
0.629904
0.617567
0.601684
0.582212
0.559528
0.534416
0.507915
0.481108
0.454931
0.430069
0.406931
0.385696
0.366376
0.348876
0.333048
0.31872
0.305722
0.293891
0.283086
0.273183
0.264076
0.255678
0.247904
0.240655
0.233874
0.227512
0.22153
0.215893
0.210571
0.205539
0.200776
0.196264
0.191988
0.187934
0.184094
0.180458
0.177021
0.173778
0.170726
0.167866
0.1652
0.162733
0.160474
0.158436
0.15664
0.15515
0.153967
0.153117
0.152707
0.152851
0.158744
0.168653
0.180436
0.194383
0.210893
0.2305
0.253905
0.282025
0.316056
0.357527
0.408482
0.471455
0.548719
0.641309
0.747158
0.85889
0.96387
1.04919
1.10874
1.14503
1.16486
1.17488
1.17972
1.18198
1.18301
1.18347
1.18367
1.18376
1.18379
1.18381
1.18382
1.18382
1.18382
1.18382
1.18382
1.18382
0.658526
0.658502
0.65846
0.65839
0.658274
0.658082
0.657766
0.657252
0.656429
0.655126
0.6531
0.650015
0.645426
0.638795
0.629531
0.617084
0.601091
0.581518
0.558757
0.533598
0.507081
0.480284
0.454136
0.429313
0.406217
0.385022
0.365737
0.348268
0.332465
0.318156
0.305172
0.293352
0.282554
0.272655
0.26355
0.255154
0.247378
0.240126
0.233341
0.226975
0.220989
0.215348
0.210023
0.204988
0.200223
0.195709
0.191433
0.187381
0.183543
0.179912
0.176482
0.173247
0.170207
0.167362
0.164714
0.162271
0.160041
0.158041
0.156293
0.154859
0.153698
0.152895
0.152513
0.152626
0.161177
0.171631
0.184047
0.198745
0.216158
0.236862
0.261614
0.291401
0.327498
0.371533
0.425699
0.492488
0.573856
0.67011
0.777867
0.888265
0.988235
1.06644
1.11927
1.15074
1.1677
1.17622
1.18033
1.18225
1.18313
1.18352
1.18369
1.18377
1.1838
1.18381
1.18382
1.18382
1.18382
1.18382
1.18382
1.18382
0.658526
0.658501
0.658459
0.658388
0.65827
0.658075
0.657754
0.657233
0.656397
0.655076
0.653023
0.649898
0.645255
0.638552
0.629197
0.616645
0.600538
0.580856
0.558002
0.532775
0.50622
0.479414
0.45328
0.428484
0.405423
0.384266
0.365017
0.34758
0.331805
0.31752
0.304554
0.292749
0.281962
0.272071
0.262973
0.254582
0.246807
0.239554
0.232768
0.2264
0.220412
0.214768
0.209441
0.204404
0.199638
0.195125
0.19085
0.186801
0.182968
0.179343
0.17592
0.172697
0.169671
0.166843
0.164217
0.161802
0.15961
0.15766
0.155999
0.154671
0.15368
0.153158
0.153242
0.154163
0.163556
0.174676
0.187804
0.203307
0.221666
0.243507
0.269647
0.30114
0.339341
0.385989
0.443393
0.513927
0.599172
0.69861
0.807525
0.915785
1.01035
1.08169
1.12844
1.15569
1.17016
1.17739
1.18087
1.18249
1.18323
1.18356
1.18371
1.18377
1.1838
1.18381
1.18382
1.18382
1.18382
1.18382
1.18382
1.18382
0.658526
0.658501
0.658458
0.658386
0.658266
0.658068
0.657743
0.657215
0.656368
0.655029
0.652951
0.649788
0.645092
0.638318
0.628872
0.616213
0.599991
0.580194
0.557239
0.531937
0.505336
0.478513
0.452385
0.427612
0.404584
0.383463
0.364251
0.346848
0.331102
0.316843
0.303899
0.292111
0.281339
0.271459
0.262371
0.253987
0.246216
0.238965
0.232178
0.225811
0.219822
0.214178
0.20885
0.203814
0.199049
0.194537
0.190265
0.186219
0.182392
0.178774
0.175362
0.17215
0.169139
0.166329
0.163725
0.161335
0.159175
0.157266
0.15567
0.154415
0.153524
0.153151
0.153477
0.156566
0.166364
0.177995
0.191746
0.208004
0.227278
0.250237
0.27775
0.310936
0.351223
0.400477
0.461067
0.535183
0.623978
0.72603
0.835317
0.94073
1.02969
1.09461
1.13602
1.15972
1.17216
1.17834
1.1813
1.18269
1.18332
1.1836
1.18373
1.18378
1.1838
1.18381
1.18382
1.18382
1.18382
1.18382
1.18382
1.18382
0.658526
0.6585
0.658457
0.658384
0.658263
0.658062
0.657733
0.657199
0.656341
0.654987
0.652884
0.649686
0.644939
0.638096
0.628563
0.615799
0.59946
0.579546
0.556486
0.531102
0.504449
0.477603
0.451477
0.426724
0.403726
0.382641
0.363465
0.346096
0.330382
0.316151
0.30323
0.291462
0.280706
0.27084
0.261763
0.253389
0.245623
0.238376
0.231592
0.225226
0.219239
0.213596
0.208269
0.203235
0.198472
0.193963
0.189695
0.185655
0.181835
0.178226
0.174825
0.171626
0.16863
0.165838
0.163255
0.160889
0.158752
0.156866
0.155294
0.154046
0.153127
0.15266
0.152764
0.159037
0.169206
0.181314
0.195657
0.212639
0.232799
0.256845
0.285696
0.320532
0.362851
0.414648
0.47829
0.555758
0.647716
0.751804
0.860795
0.962912
1.04636
1.10547
1.14229
1.16303
1.17379
1.17911
1.18166
1.18285
1.18339
1.18363
1.18374
1.18379
1.18381
1.18382
1.18382
1.18382
1.18382
1.18382
1.18382
1.18382
0.658526
0.6585
0.658456
0.658382
0.65826
0.658057
0.657724
0.657183
0.656316
0.654947
0.652821
0.649589
0.644794
0.637885
0.628266
0.615398
0.598944
0.578914
0.555749
0.530282
0.503575
0.476704
0.450577
0.425842
0.402873
0.381822
0.362682
0.345349
0.329667
0.315464
0.302567
0.29082
0.280082
0.270232
0.261168
0.252804
0.245046
0.237803
0.231023
0.224661
0.218676
0.213036
0.207712
0.20268
0.197921
0.193417
0.189154
0.185122
0.18131
0.177712
0.174323
0.17114
0.168162
0.165393
0.162835
0.1605
0.1584
0.156556
0.155029
0.153813
0.152924
0.152466
0.152537
0.161148
0.171782
0.184413
0.199362
0.217062
0.238086
0.263183
0.293322
0.329744
0.37402
0.428253
0.494768
0.575309
0.670011
0.775579
0.883722
0.982297
1.06052
1.11447
1.14741
1.16569
1.1751
1.17973
1.18194
1.18298
1.18345
1.18366
1.18375
1.18379
1.18381
1.18382
1.18382
1.18382
1.18382
1.18382
1.18382
1.18382
0.658526
0.6585
0.658455
0.658381
0.658257
0.658052
0.657715
0.657169
0.656293
0.654909
0.652762
0.649497
0.644656
0.637683
0.627982
0.615014
0.598449
0.578305
0.555038
0.529489
0.502728
0.475831
0.449703
0.424984
0.402043
0.381027
0.361922
0.344623
0.328973
0.314798
0.301927
0.290201
0.279481
0.269647
0.260597
0.252246
0.244494
0.237258
0.230483
0.224125
0.218144
0.212508
0.207188
0.202161
0.197406
0.192907
0.188651
0.184627
0.180824
0.177238
0.173863
0.170696
0.167739
0.164994
0.162468
0.160172
0.158123
0.156354
0.154931
0.153821
0.153141
0.152994
0.15355
0.162949
0.1741
0.187273
0.202823
0.221218
0.243068
0.269164
0.300523
0.338441
0.384571
0.441096
0.510263
0.593564
0.690588
0.797139
0.904029
0.999012
1.07242
1.12189
1.15157
1.16784
1.17616
1.18023
1.18217
1.18308
1.18349
1.18368
1.18376
1.18379
1.18381
1.18382
1.18382
1.18382
1.18382
1.18382
1.18382
1.18382
0.658526
0.658499
0.658454
0.658379
0.658254
0.658047
0.657708
0.657156
0.656271
0.654874
0.652706
0.649411
0.644526
0.637493
0.627713
0.614651
0.597979
0.577727
0.554361
0.528734
0.501921
0.475
0.448871
0.424168
0.401254
0.380269
0.361199
0.343934
0.328315
0.314167
0.301321
0.289617
0.278915
0.269097
0.26006
0.251722
0.243979
0.236749
0.22998
0.223627
0.217652
0.21202
0.206705
0.201682
0.196933
0.19244
0.188191
0.184175
0.180382
0.176807
0.173446
0.170295
0.167358
0.164636
0.162138
0.159878
0.157876
0.156186
0.154847
0.153862
0.153381
0.153564
0.155077
0.164834
0.176386
0.190013
0.206092
0.225115
0.247721
0.274737
0.307224
0.346528
0.394384
0.453027
0.5246
0.610336
0.709275
0.81639
0.921766
1.01326
1.08234
1.12797
1.15493
1.16957
1.177
1.18063
1.18236
1.18316
1.18353
1.18369
1.18377
1.1838
1.18381
1.18382
1.18382
1.18382
1.18382
1.18382
1.18382
1.18382
0.658526
0.658499
0.658454
0.658378
0.658252
0.658043
0.6577
0.657144
0.656251
0.654842
0.652655
0.649331
0.644405
0.637316
0.627463
0.614311
0.597539
0.577186
0.553728
0.528028
0.501167
0.474223
0.448092
0.423405
0.400516
0.379563
0.360525
0.343292
0.327702
0.313582
0.300759
0.289075
0.278391
0.268589
0.259567
0.25124
0.243505
0.236283
0.229521
0.223174
0.217203
0.211576
0.206266
0.201249
0.196505
0.192019
0.187777
0.183769
0.179986
0.176421
0.173071
0.169935
0.167012
0.164308
0.161829
0.159589
0.157608
0.155944
0.154625
0.153648
0.153149
0.153259
0.15672
0.166736
0.178601
0.192607
0.209143
0.22872
0.252003
0.279849
0.31336
0.353925
0.403357
0.463923
0.537641
0.625487
0.725974
0.833321
0.937055
1.02528
1.09054
1.13292
1.15765
1.17095
1.17767
1.18095
1.18251
1.18323
1.18356
1.18371
1.18377
1.1838
1.18381
1.18382
1.18382
1.18382
1.18382
1.18382
1.18382
1.18382
0.658526
0.658499
0.658453
0.658377
0.65825
0.658039
0.657694
0.657132
0.656233
0.654812
0.652608
0.649258
0.644294
0.637153
0.627233
0.613999
0.597136
0.576689
0.553147
0.527381
0.500476
0.47351
0.44738
0.422706
0.399842
0.378917
0.35991
0.342706
0.327144
0.313049
0.300248
0.288584
0.277917
0.268129
0.259121
0.250806
0.243079
0.235864
0.229108
0.222767
0.216802
0.211181
0.205876
0.200864
0.196126
0.191647
0.187412
0.183411
0.179637
0.176082
0.172743
0.169618
0.166708
0.164016
0.161551
0.159324
0.157354
0.155695
0.154374
0.153379
0.152832
0.152843
0.158272
0.168502
0.180635
0.194968
0.211904
0.231971
0.255855
0.284442
0.318869
0.360563
0.411411
0.473683
0.549284
0.638933
0.740646
0.847985
0.95006
1.03531
1.09727
1.13693
1.15984
1.17206
1.17821
1.1812
1.18262
1.18328
1.18358
1.18372
1.18378
1.1838
1.18381
1.18382
1.18382
1.18382
1.18382
1.18382
1.18382
1.18382
0.658526
0.658498
0.658453
0.658376
0.658248
0.658036
0.657688
0.657122
0.656216
0.654785
0.652565
0.649192
0.644194
0.637007
0.627026
0.613719
0.596773
0.576243
0.552625
0.526799
0.499855
0.472872
0.446741
0.422081
0.399239
0.37834
0.359361
0.342184
0.326647
0.312574
0.299794
0.288147
0.277496
0.267723
0.258726
0.250423
0.242704
0.235496
0.228746
0.222411
0.216451
0.210835
0.205536
0.20053
0.195798
0.191324
0.187096
0.183103
0.179337
0.175791
0.172462
0.169348
0.16645
0.163771
0.161319
0.159105
0.157149
0.155504
0.154196
0.153215
0.152685
0.152728
0.159582
0.170022
0.182401
0.19703
0.214321
0.234821
0.259235
0.288476
0.323709
0.3664
0.418496
0.482256
0.559482
0.650647
0.753314
0.860486
0.960975
1.04359
1.10276
1.14017
1.16159
1.17294
1.17864
1.18141
1.18272
1.18332
1.1836
1.18372
1.18378
1.1838
1.18381
1.18382
1.18382
1.18382
1.18382
1.18382
1.18382
1.18382
0.658526
0.658498
0.658452
0.658375
0.658246
0.658033
0.657682
0.657114
0.656202
0.654762
0.652528
0.649134
0.644107
0.636878
0.626844
0.613473
0.596455
0.575852
0.552168
0.52629
0.499313
0.472314
0.446184
0.421536
0.398713
0.377838
0.358883
0.34173
0.326215
0.312163
0.2994
0.28777
0.277133
0.267372
0.258387
0.250093
0.242382
0.23518
0.228437
0.222107
0.216152
0.210542
0.205247
0.200246
0.19552
0.191053
0.186831
0.182846
0.179087
0.175551
0.172231
0.169128
0.166241
0.163574
0.161135
0.158936
0.156995
0.155367
0.154075
0.153109
0.1526
0.152681
0.160614
0.171254
0.183863
0.198758
0.216365
0.237245
0.262121
0.291929
0.327859
0.371413
0.424584
0.489621
0.568221
0.660637
0.764036
0.870949
0.96999
1.05034
1.10717
1.14275
1.16297
1.17364
1.17898
1.18157
1.18279
1.18336
1.18362
1.18373
1.18378
1.1838
1.18381
1.18382
1.18382
1.18382
1.18382
1.18382
1.18382
1.18382
0.658526
0.658498
0.658452
0.658374
0.658244
0.65803
0.657678
0.657106
0.65619
0.654742
0.652496
0.649085
0.644033
0.636769
0.62669
0.613264
0.596185
0.575521
0.551781
0.52586
0.498854
0.471843
0.445714
0.421076
0.39827
0.377415
0.358481
0.341348
0.325852
0.311817
0.29907
0.287453
0.276829
0.267078
0.258104
0.249818
0.242113
0.234918
0.22818
0.221855
0.215906
0.2103
0.20501
0.200014
0.195294
0.190832
0.186617
0.182639
0.178888
0.17536
0.17205
0.168958
0.166083
0.163429
0.161004
0.15882
0.156892
0.155278
0.153993
0.153026
0.152491
0.152502
0.161321
0.172189
0.185024
0.200163
0.218049
0.239254
0.264523
0.29481
0.331328
0.375606
0.429681
0.495782
0.575515
0.66894
0.772888
0.879509
0.977283
1.05574
1.11067
1.14479
1.16406
1.17419
1.17924
1.18169
1.18285
1.18338
1.18363
1.18374
1.18378
1.18381
1.18381
1.18382
1.18382
1.18382
1.18382
1.18382
1.18382
1.18382
0.658526
0.658498
0.658451
0.658373
0.658243
0.658028
0.657674
0.6571
0.65618
0.654726
0.652471
0.649046
0.643973
0.636681
0.626566
0.613095
0.595967
0.575253
0.551469
0.525512
0.498484
0.471463
0.445334
0.420705
0.397913
0.377074
0.358156
0.34104
0.32556
0.311539
0.298805
0.2872
0.276585
0.266844
0.257878
0.249599
0.2419
0.23471
0.227977
0.221656
0.215711
0.21011
0.204825
0.199833
0.195118
0.190662
0.186453
0.182481
0.178738
0.175218
0.171918
0.168836
0.165974
0.163334
0.160924
0.158757
0.15685
0.155269
0.154015
0.153091
0.152621
0.152738
0.161989
0.172989
0.185982
0.201307
0.219411
0.240878
0.266463
0.297135
0.334125
0.378989
0.433792
0.500744
0.581377
0.675589
0.779937
0.886275
0.982997
1.05993
1.11337
1.14635
1.1649
1.17461
1.17945
1.18179
1.18289
1.1834
1.18364
1.18374
1.18379
1.18381
1.18382
1.18382
1.18382
1.18382
1.18382
1.18382
1.18382
1.18382
0.658526
0.658498
0.658451
0.658373
0.658242
0.658026
0.657672
0.657096
0.656172
0.654714
0.652452
0.649016
0.643927
0.636615
0.626472
0.612968
0.595802
0.575051
0.551232
0.525249
0.498204
0.471176
0.445048
0.420425
0.397643
0.376817
0.357912
0.340809
0.325341
0.311331
0.298606
0.287009
0.276403
0.266669
0.257709
0.249437
0.241742
0.234556
0.227827
0.22151
0.215569
0.209971
0.204689
0.199702
0.194991
0.190539
0.186336
0.18237
0.178634
0.175122
0.171831
0.16876
0.165909
0.163282
0.160889
0.15874
0.156855
0.155309
0.154084
0.153201
0.152782
0.152966
0.162391
0.173542
0.186683
0.202164
0.220442
0.242111
0.267937
0.298902
0.33625
0.381559
0.436913
0.504506
0.585811
0.680603
0.785226
0.891321
0.987232
1.06302
1.11535
1.14749
1.16551
1.17491
1.17959
1.18186
1.18292
1.18342
1.18364
1.18374
1.18379
1.18381
1.18382
1.18382
1.18382
1.18382
1.18382
1.18382
1.18382
1.18382
0.658526
0.658498
0.658451
0.658372
0.658242
0.658025
0.65767
0.657093
0.656167
0.654706
0.652439
0.648996
0.643897
0.63657
0.626409
0.612883
0.595693
0.574916
0.551075
0.525074
0.498018
0.470984
0.444856
0.420239
0.397463
0.376645
0.357749
0.340654
0.325194
0.311191
0.298473
0.286883
0.276282
0.266553
0.257598
0.249329
0.241638
0.234455
0.227729
0.221415
0.215476
0.209881
0.204602
0.199618
0.19491
0.190463
0.186263
0.182302
0.178572
0.175067
0.171783
0.16872
0.165879
0.163265
0.160886
0.158755
0.156893
0.155379
0.154148
0.153305
0.152934
0.153174
0.162691
0.173934
0.187171
0.202755
0.22115
0.242956
0.268944
0.300105
0.337695
0.383302
0.439025
0.507047
0.588799
0.683971
0.788765
0.894678
0.990032
1.06506
1.11666
1.14824
1.16591
1.17511
1.17969
1.1819
1.18294
1.18343
1.18365
1.18374
1.18379
1.18381
1.18382
1.18382
1.18382
1.18382
1.18382
1.18382
1.18382
1.18382
0.658526
0.658498
0.658451
0.658372
0.658241
0.658025
0.657669
0.657091
0.656165
0.654702
0.652433
0.648986
0.643883
0.636549
0.626379
0.612842
0.59564
0.574851
0.550999
0.52499
0.497927
0.470891
0.444763
0.420148
0.397375
0.376561
0.357669
0.340578
0.325122
0.311123
0.298408
0.286821
0.276222
0.266496
0.257543
0.249277
0.241588
0.234406
0.227681
0.221369
0.215432
0.209838
0.204561
0.199578
0.194872
0.190427
0.18623
0.182272
0.178545
0.175044
0.171765
0.168707
0.165873
0.163266
0.160895
0.158775
0.156924
0.155423
0.154204
0.153377
0.153023
0.153279
0.162852
0.174145
0.187431
0.203067
0.22152
0.243392
0.26946
0.300718
0.338425
0.384179
0.440081
0.508309
0.590275
0.685622
0.790487
0.896299
0.991373
1.06602
1.11727
1.1486
1.1661
1.17521
1.17974
1.18192
1.18296
1.18343
1.18365
1.18375
1.18379
1.18381
1.18382
1.18382
1.18382
1.18382
1.18382
1.18382
1.18382
1.18382
0.658526
0.658498
0.658451
0.658372
0.658241
0.658025
0.657669
0.657091
0.656165
0.654702
0.652433
0.648986
0.643882
0.636549
0.626378
0.612841
0.595639
0.57485
0.550998
0.524988
0.497926
0.47089
0.444762
0.420146
0.397374
0.37656
0.357668
0.340577
0.325121
0.311122
0.298407
0.28682
0.276222
0.266495
0.257543
0.249277
0.241587
0.234406
0.227681
0.221368
0.215431
0.209837
0.20456
0.199578
0.194872
0.190426
0.18623
0.182272
0.178544
0.175043
0.171764
0.168706
0.165872
0.163265
0.160895
0.158774
0.156924
0.155423
0.154204
0.153377
0.153023
0.15328
0.162853
0.174146
0.187432
0.203068
0.221522
0.243394
0.269462
0.300721
0.338428
0.384182
0.440085
0.508313
0.59028
0.685628
0.790493
0.896304
0.991377
1.06603
1.11727
1.1486
1.1661
1.17521
1.17974
1.18192
1.18296
1.18343
1.18365
1.18375
1.18379
1.18381
1.18382
1.18382
1.18382
1.18382
1.18382
1.18382
1.18382
1.18382
0.658526
0.658498
0.658451
0.658372
0.658242
0.658025
0.65767
0.657093
0.656167
0.654706
0.652438
0.648995
0.643896
0.636569
0.626407
0.61288
0.595689
0.574912
0.55107
0.525069
0.498013
0.470979
0.444852
0.420234
0.397459
0.376641
0.357746
0.340651
0.325191
0.311189
0.298471
0.286881
0.27628
0.266551
0.257596
0.249328
0.241637
0.234454
0.227727
0.221413
0.215474
0.209879
0.204601
0.199617
0.194908
0.190461
0.186262
0.182301
0.17857
0.175065
0.171782
0.168719
0.165878
0.163264
0.160885
0.158754
0.156892
0.155379
0.154148
0.153306
0.152935
0.153176
0.162693
0.173937
0.187174
0.202758
0.221154
0.24296
0.268949
0.300112
0.337702
0.383311
0.439036
0.50706
0.588815
0.683988
0.788783
0.894695
0.990046
1.06507
1.11666
1.14825
1.16591
1.17511
1.17969
1.1819
1.18295
1.18343
1.18365
1.18374
1.18379
1.18381
1.18382
1.18382
1.18382
1.18382
1.18382
1.18382
1.18382
1.18382
0.658526
0.658498
0.658451
0.658373
0.658242
0.658026
0.657672
0.657096
0.656172
0.654714
0.652451
0.649014
0.643925
0.636612
0.626468
0.612963
0.595796
0.575043
0.551224
0.525241
0.498195
0.471167
0.445039
0.420418
0.397636
0.37681
0.357907
0.340803
0.325336
0.311326
0.298602
0.287006
0.276399
0.266666
0.257706
0.249434
0.241739
0.234553
0.227824
0.221507
0.215566
0.209968
0.204687
0.199699
0.194988
0.190537
0.186333
0.182367
0.178632
0.17512
0.171829
0.168758
0.165907
0.16328
0.160887
0.158738
0.156854
0.155308
0.154084
0.153201
0.152784
0.152968
0.162394
0.173546
0.186688
0.20217
0.220449
0.24212
0.267947
0.298913
0.336264
0.381575
0.436932
0.504528
0.585837
0.680632
0.785257
0.891349
0.987254
1.06304
1.11536
1.1475
1.16551
1.17491
1.17959
1.18186
1.18292
1.18342
1.18364
1.18374
1.18379
1.18381
1.18382
1.18382
1.18382
1.18382
1.18382
1.18382
1.18382
1.18382
0.658526
0.658498
0.658451
0.658373
0.658243
0.658028
0.657674
0.6571
0.65618
0.654726
0.65247
0.649044
0.64397
0.636678
0.626561
0.613089
0.595959
0.575243
0.551457
0.5255
0.498472
0.471451
0.445323
0.420695
0.397903
0.377065
0.358148
0.341033
0.325554
0.311533
0.298799
0.287194
0.27658
0.266839
0.257873
0.249595
0.241896
0.234706
0.227973
0.221653
0.215708
0.210106
0.204821
0.19983
0.195114
0.190658
0.186449
0.182477
0.178735
0.175215
0.171915
0.168833
0.165971
0.163331
0.160922
0.158754
0.156848
0.155268
0.154015
0.153092
0.152622
0.152739
0.161992
0.172994
0.185989
0.201315
0.219421
0.240889
0.266475
0.29715
0.334143
0.379011
0.433819
0.500775
0.581413
0.67563
0.779979
0.886313
0.983028
1.05995
1.11338
1.14635
1.1649
1.17461
1.17945
1.18179
1.18289
1.1834
1.18364
1.18374
1.18379
1.18381
1.18382
1.18382
1.18382
1.18382
1.18382
1.18382
1.18382
1.18382
0.658526
0.658498
0.658452
0.658374
0.658244
0.65803
0.657678
0.657106
0.656189
0.654741
0.652495
0.649083
0.64403
0.636765
0.626684
0.613256
0.596175
0.575508
0.551767
0.525845
0.498839
0.471828
0.445699
0.421063
0.398257
0.377403
0.35847
0.341338
0.325843
0.311809
0.299063
0.287446
0.276822
0.267072
0.258098
0.249813
0.242108
0.234913
0.228175
0.22185
0.215901
0.210295
0.205006
0.20001
0.195289
0.190828
0.186613
0.182634
0.178884
0.175356
0.172046
0.168954
0.166079
0.163425
0.161001
0.158816
0.156889
0.155276
0.153992
0.153025
0.152491
0.152504
0.161329
0.172199
0.185035
0.200175
0.218062
0.23927
0.264541
0.29483
0.331352
0.375635
0.429716
0.495823
0.575562
0.668993
0.772942
0.879559
0.977322
1.05576
1.11069
1.14479
1.16407
1.17419
1.17924
1.18169
1.18285
1.18338
1.18363
1.18374
1.18378
1.18381
1.18381
1.18382
1.18382
1.18382
1.18382
1.18382
1.18382
1.18382
0.658526
0.658498
0.658452
0.658375
0.658246
0.658032
0.657682
0.657113
0.656201
0.654761
0.652526
0.649132
0.644103
0.636873
0.626837
0.613463
0.596442
0.575837
0.552151
0.526272
0.499294
0.472296
0.446166
0.421519
0.398698
0.377824
0.35887
0.341718
0.326204
0.312153
0.299391
0.287761
0.277125
0.267364
0.25838
0.250086
0.242375
0.235174
0.22843
0.222101
0.216147
0.210536
0.205242
0.200241
0.195515
0.191048
0.186826
0.182841
0.179083
0.175546
0.172227
0.169123
0.166236
0.16357
0.161131
0.158932
0.156992
0.155365
0.154073
0.153109
0.152601
0.152682
0.160625
0.171267
0.183877
0.198774
0.216383
0.237265
0.262144
0.291956
0.327891
0.37145
0.424629
0.489674
0.568282
0.660704
0.764105
0.871014
0.970041
1.05037
1.10719
1.14276
1.16298
1.17364
1.17898
1.18157
1.18279
1.18336
1.18362
1.18373
1.18378
1.1838
1.18381
1.18382
1.18382
1.18382
1.18382
1.18382
1.18382
1.18382
0.658526
0.658498
0.658453
0.658376
0.658248
0.658035
0.657687
0.657122
0.656216
0.654784
0.652563
0.649189
0.64419
0.637
0.627017
0.613707
0.596758
0.576225
0.552605
0.526777
0.499833
0.47285
0.44672
0.422061
0.39922
0.378323
0.359345
0.34217
0.326634
0.312562
0.299783
0.288137
0.277487
0.267714
0.258718
0.250415
0.242696
0.235488
0.228739
0.222404
0.216444
0.210829
0.205529
0.200523
0.195792
0.191318
0.18709
0.183098
0.179331
0.175786
0.172457
0.169343
0.166445
0.163766
0.161314
0.159101
0.157145
0.155501
0.154194
0.153213
0.152684
0.152728
0.159593
0.170036
0.182418
0.197048
0.214343
0.234845
0.259263
0.288509
0.323747
0.366444
0.418549
0.48232
0.559556
0.650729
0.753399
0.860565
0.961039
1.04363
1.10278
1.14018
1.16159
1.17294
1.17864
1.18141
1.18272
1.18332
1.1836
1.18372
1.18378
1.1838
1.18381
1.18382
1.18382
1.18382
1.18382
1.18382
1.18382
1.18382
0.658526
0.658499
0.658453
0.658377
0.65825
0.658039
0.657693
0.657132
0.656232
0.654811
0.652605
0.649255
0.644289
0.637146
0.627223
0.613986
0.597119
0.576669
0.553124
0.527356
0.50045
0.473485
0.447355
0.422683
0.399821
0.378898
0.359892
0.34269
0.327129
0.313035
0.300235
0.288572
0.277906
0.268119
0.259111
0.250797
0.24307
0.235856
0.2291
0.222759
0.216794
0.211173
0.205868
0.200857
0.196119
0.19164
0.187405
0.183405
0.17963
0.176076
0.172737
0.169612
0.166702
0.164011
0.161546
0.15932
0.157351
0.155691
0.154371
0.153376
0.15283
0.15284
0.158286
0.168519
0.180654
0.194991
0.21193
0.232
0.255889
0.284482
0.318915
0.360617
0.411475
0.473758
0.549372
0.639032
0.740749
0.848082
0.950139
1.03536
1.09731
1.13695
1.15984
1.17206
1.17821
1.1812
1.18262
1.18328
1.18358
1.18372
1.18378
1.1838
1.18381
1.18382
1.18382
1.18382
1.18382
1.18382
1.18382
1.18382
0.658526
0.658499
0.658454
0.658378
0.658252
0.658043
0.6577
0.657143
0.65625
0.65484
0.652652
0.649328
0.6444
0.637308
0.627452
0.614297
0.597521
0.577164
0.553703
0.528001
0.501139
0.474194
0.448065
0.423379
0.400492
0.379541
0.360505
0.343273
0.327685
0.313566
0.300744
0.289061
0.278379
0.268577
0.259555
0.25123
0.243495
0.236273
0.229511
0.223164
0.217194
0.211568
0.206258
0.201241
0.196497
0.192011
0.18777
0.183762
0.179979
0.176415
0.173065
0.169929
0.167007
0.164303
0.161824
0.159585
0.157604
0.15594
0.15462
0.153642
0.153142
0.153249
0.156743
0.166759
0.178626
0.192634
0.209173
0.228755
0.252042
0.279896
0.313415
0.353989
0.403433
0.464013
0.537745
0.625603
0.726095
0.833436
0.93715
1.02534
1.09058
1.13294
1.15766
1.17095
1.17767
1.18095
1.18251
1.18323
1.18356
1.18371
1.18377
1.1838
1.18381
1.18382
1.18382
1.18382
1.18382
1.18382
1.18382
1.18382
0.658526
0.658499
0.658454
0.658379
0.658254
0.658047
0.657707
0.657155
0.65627
0.654873
0.652704
0.649407
0.64452
0.637484
0.627701
0.614635
0.597958
0.577702
0.554333
0.528704
0.50189
0.474968
0.44884
0.424139
0.401227
0.380245
0.361177
0.343913
0.328295
0.31415
0.301304
0.289601
0.278901
0.269083
0.260048
0.25171
0.243967
0.236738
0.229969
0.223617
0.217641
0.21201
0.206695
0.201673
0.196924
0.192432
0.188183
0.184167
0.180375
0.1768
0.173439
0.170289
0.167351
0.16463
0.162133
0.159873
0.157871
0.156181
0.154843
0.153859
0.15338
0.15357
0.155107
0.164862
0.176415
0.190044
0.206127
0.225154
0.247766
0.274788
0.307284
0.346599
0.394467
0.453125
0.524715
0.610466
0.709414
0.816524
0.921881
1.01334
1.08239
1.12799
1.15495
1.16957
1.177
1.18063
1.18236
1.18316
1.18353
1.18369
1.18377
1.1838
1.18381
1.18382
1.18382
1.18382
1.18382
1.18382
1.18382
1.18382
0.658526
0.6585
0.658455
0.658381
0.658257
0.658052
0.657715
0.657168
0.656292
0.654908
0.652759
0.649493
0.644649
0.637674
0.627969
0.614997
0.598426
0.578278
0.555007
0.529456
0.502693
0.475796
0.44967
0.424952
0.402014
0.380999
0.361897
0.3446
0.328952
0.314778
0.301909
0.290184
0.279465
0.269632
0.260582
0.252232
0.244481
0.237245
0.230471
0.224113
0.218133
0.212497
0.207177
0.20215
0.197396
0.192898
0.188642
0.184618
0.180816
0.17723
0.173855
0.170689
0.167733
0.164989
0.162463
0.160168
0.15812
0.156353
0.154933
0.153826
0.15315
0.153012
0.153576
0.162974
0.174129
0.187304
0.202858
0.221258
0.243114
0.269217
0.300586
0.338515
0.384659
0.441202
0.510388
0.593708
0.690743
0.797294
0.904164
0.999112
1.07248
1.12192
1.15158
1.16785
1.17616
1.18023
1.18218
1.18308
1.18349
1.18368
1.18376
1.18379
1.18381
1.18382
1.18382
1.18382
1.18382
1.18382
1.18382
1.18382
0.658526
0.6585
0.658456
0.658382
0.65826
0.658057
0.657724
0.657183
0.656315
0.654945
0.652818
0.649584
0.644787
0.637874
0.628252
0.615379
0.59892
0.578885
0.555716
0.530246
0.503537
0.476666
0.450541
0.425807
0.40284
0.381792
0.362655
0.345323
0.329643
0.315442
0.302547
0.290801
0.280064
0.270215
0.261152
0.252789
0.245031
0.237789
0.23101
0.224647
0.218663
0.213023
0.2077
0.202669
0.19791
0.193406
0.189144
0.185112
0.1813
0.177703
0.174314
0.171132
0.168155
0.165386
0.162829
0.160495
0.158397
0.156554
0.155028
0.153815
0.152929
0.152474
0.152543
0.161178
0.171815
0.18445
0.199402
0.217107
0.238137
0.263242
0.293391
0.329824
0.374116
0.428368
0.494905
0.575468
0.670187
0.775758
0.883884
0.98242
1.0606
1.11451
1.14743
1.1657
1.1751
1.17974
1.18195
1.18298
1.18345
1.18366
1.18375
1.18379
1.18381
1.18382
1.18382
1.18382
1.18382
1.18382
1.18382
1.18382
0.658526
0.6585
0.658457
0.658384
0.658263
0.658062
0.657733
0.657198
0.65634
0.654985
0.652881
0.649681
0.644932
0.638086
0.628548
0.615779
0.599434
0.579515
0.55645
0.531063
0.504409
0.477562
0.451437
0.426686
0.403691
0.382608
0.363434
0.346068
0.330357
0.316127
0.303208
0.291441
0.280686
0.270822
0.261746
0.253373
0.245607
0.23836
0.231577
0.225212
0.219224
0.213582
0.208256
0.203222
0.198459
0.193951
0.189683
0.185644
0.181824
0.178216
0.174815
0.171617
0.168622
0.165831
0.163248
0.160883
0.158747
0.156863
0.155293
0.154048
0.153133
0.152672
0.152782
0.159085
0.169253
0.181362
0.195706
0.212692
0.232858
0.256911
0.285772
0.320621
0.362957
0.414775
0.478442
0.555937
0.647917
0.752014
0.86099
0.963066
1.04646
1.10552
1.14232
1.16304
1.17379
1.17911
1.18166
1.18285
1.18339
1.18363
1.18374
1.18379
1.18381
1.18382
1.18382
1.18382
1.18382
1.18382
1.18382
1.18382
0.658526
0.658501
0.658458
0.658386
0.658266
0.658068
0.657742
0.657214
0.656367
0.655027
0.652947
0.649783
0.645084
0.638306
0.628856
0.616192
0.599963
0.58016
0.557201
0.531895
0.505292
0.478469
0.452342
0.427571
0.404546
0.383427
0.364218
0.346817
0.331074
0.316817
0.303874
0.292088
0.281317
0.271439
0.262352
0.253969
0.246198
0.238948
0.232162
0.225795
0.219806
0.214163
0.208836
0.2038
0.199035
0.194524
0.190252
0.186207
0.18238
0.178763
0.175351
0.17214
0.169129
0.16632
0.163717
0.161328
0.159169
0.15726
0.155666
0.154412
0.153523
0.153151
0.153478
0.15661
0.166409
0.178042
0.191795
0.208057