/*--------------------------------*- C++ -*----------------------------------*\
  =========                 |
  \\      /  F ield         | OpenFOAM: The Open Source CFD Toolbox
   \\    /   O peration     | Website:  https://openfoam.org
    \\  /    A nd           | Version:  8
     \\/     M anipulation  |
\*---------------------------------------------------------------------------*/
FoamFile
{
    version     2.0;
    format      ascii;
    class       volScalarField;
    location    "260/fluid";
    object      T;
}
// * * * * * * * * * * * * * * * * * * * * * * * * * * * * * * * * * * * * * //

dimensions      [0 0 0 1 0 0 0];

internalField   nonuniform List<scalar> 
4000
(
293.003
293.015
293.034
293.065
293.118
293.205
293.347
293.579
293.953
294.549
295.485
296.932
299.13
302.397
307.136
313.82
322.958
335.033
350.429
369.367
391.869
417.774
446.783
478.526
512.622
548.723
586.534
625.819
666.399
708.136
750.923
794.676
839.317
884.768
930.944
977.747
1025.1
1073.04
1121.53
1170.49
1219.83
1269.5
1319.39
1369.43
1419.52
1469.57
1519.47
1569.13
1618.42
1667.22
1715.4
1762.8
1809.26
1854.6
1898.59
1940.99
1981.47
2019.68
2055.16
2087.05
2114.56
2137.78
2154.96
2164.71
2165.03
2054.74
1937.04
1814.06
1687.55
1559.03
1429.84
1301.21
1174.33
1050.39
930.667
816.165
708.38
609.627
522.492
449.45
392.281
351.261
324.629
309.007
300.663
296.542
294.594
293.703
293.305
293.131
293.055
293.023
293.01
293.004
293.002
293.001
293
293
293
293
293.003
293.015
293.034
293.066
293.12
293.209
293.356
293.594
293.978
294.59
295.551
297.033
299.277
302.603
307.409
314.163
323.365
335.485
350.901
369.83
392.297
418.151
447.103
478.796
512.857
548.944
586.764
626.083
666.718
708.531
751.411
795.272
840.034
885.615
931.93
978.878
1026.38
1074.48
1123.12
1172.24
1221.74
1271.56
1321.61
1371.79
1422.03
1472.22
1522.26
1572.04
1621.45
1670.36
1718.63
1766.12
1812.65
1858.04
1902.06
1944.45
1984.89
2022.98
2058.23
2089.52
2116.38
2138.5
2153.69
2159.96
2153.27
2040.58
1921.02
1796.49
1668.65
1538.93
1408.65
1279.06
1151.37
1026.84
906.762
792.234
685.042
587.744
503.054
433.41
380.259
343.237
319.902
306.535
299.493
296.02
294.371
293.611
293.267
293.116
293.049
293.021
293.009
293.004
293.002
293.001
293
293
293
293
293.003
293.015
293.035
293.068
293.123
293.215
293.366
293.611
294.006
294.634
295.618
297.134
299.424
302.808
307.685
314.521
323.808
336.012
351.5
370.483
392.985
418.853
447.806
479.495
513.555
549.653
587.501
626.87
667.577
709.485
752.485
796.488
841.411
887.174
933.686
980.844
1028.57
1076.91
1125.8
1175.17
1224.93
1275.01
1325.31
1375.76
1426.24
1476.68
1526.95
1576.96
1626.58
1675.68
1724.13
1771.77
1818.43
1863.92
1908.01
1950.44
1990.88
2028.92
2064.06
2094.93
2121.32
2142.57
2156.29
2159.81
2129.67
2015.22
1893.94
1767.83
1638.6
1507.72
1376.56
1246.41
1118.55
994.327
875.058
761.961
657.131
563.219
482.828
418.04
369.687
336.726
316.303
304.72
298.637
295.632
294.2
293.537
293.236
293.102
293.044
293.019
293.008
293.003
293.001
293.001
293
293
293
293
293.004
293.016
293.036
293.07
293.126
293.22
293.373
293.624
294.026
294.666
295.667
297.206
299.529
302.956
307.889
314.79
324.153
336.439
352.01
371.074
393.651
419.588
448.606
480.358
514.484
550.654
588.584
628.048
668.868
710.907
754.058
798.233
843.349
889.324
936.066
983.469
1031.46
1080.08
1129.27
1178.95
1229.02
1279.42
1330.04
1380.8
1431.61
1482.35
1532.92
1583.21
1633.09
1682.44
1731.11
1778.94
1825.75
1871.35
1915.51
1957.96
1998.37
2036.35
2071.42
2102.19
2128.62
2150.4
2165.57
2172.35
2099.78
1983.81
1860.93
1733.36
1602.92
1471.19
1339.56
1209.4
1082.03
958.875
841.15
730.283
628.585
538.667
462.945
403.121
359.473
330.398
312.742
302.877
297.746
295.218
294.014
293.455
293.201
293.087
293.038
293.016
293.007
293.003
293.001
293
293
293
293
293
293.004
293.016
293.036
293.071
293.128
293.224
293.38
293.635
294.045
294.695
295.712
297.275
299.631
303.103
308.093
315.067
324.514
336.894
352.566
371.731
394.407
420.441
449.552
481.396
515.617
551.887
589.927
629.514
670.472
712.666
755.992
800.36
845.69
891.897
938.889
986.558
1034.84
1083.77
1133.28
1183.29
1233.71
1284.45
1335.42
1386.54
1437.68
1488.76
1539.66
1590.26
1640.44
1690.05
1738.94
1786.96
1833.92
1879.61
1923.78
1966.14
2006.34
2043.94
2078.41
2108.42
2134.81
2155.93
2170.66
2177.67
2070.15
1951.3
1826.17
1696.91
1565.31
1432.93
1301.18
1171.42
1045.01
923.365
807.633
699.481
601.336
515.716
444.803
389.875
350.661
325.081
309.813
301.381
297.025
294.883
293.862
293.388
293.171
293.075
293.032
293.014
293.006
293.002
293.001
293
293
293
293
293
293.004
293.016
293.037
293.072
293.13
293.227
293.386
293.645
294.061
294.72
295.751
297.335
299.72
303.232
308.276
315.319
324.851
337.33
353.111
372.394
395.191
421.345
450.576
482.54
516.882
553.278
591.452
631.182
672.297
714.663
758.178
802.753
848.308
894.759
942.01
989.952
1038.53
1087.78
1137.62
1187.97
1238.74
1289.83
1341.17
1392.64
1444.14
1495.56
1546.79
1597.71
1648.17
1698.04
1747.16
1795.36
1842.45
1888.19
1932.34
1974.56
2014.47
2051.58
2084.93
2113.54
2137.59
2154.69
2162.7
2158.2
2042.1
1919.18
1791.36
1660.38
1527.79
1395.03
1263.46
1134.41
1009.26
889.36
775.86
670.646
576.18
494.852
428.583
378.232
343.028
320.522
307.309
300.098
296.403
294.592
293.729
293.328
293.145
293.064
293.027
293.012
293.005
293.002
293.001
293
293
293
293
293
293.004
293.016
293.038
293.073
293.132
293.23
293.392
293.654
294.075
294.744
295.788
297.391
299.804
303.356
308.454
315.566
325.185
337.766
353.664
373.072
395.999
422.286
451.651
483.749
518.227
554.763
593.083
632.97
674.252
716.8
760.511
805.3
851.084
897.78
945.291
993.506
1042.38
1091.94
1142.11
1192.8
1243.91
1295.36
1347.04
1398.86
1450.7
1502.46
1554.01
1605.22
1655.96
1706.08
1755.41
1803.77
1850.96
1896.75
1940.86
1982.96
2022.64
2059.36
2091.8
2119.42
2142.06
2157
2161.52
2127.19
2009.59
1885.18
1756.15
1624.33
1491.34
1358.61
1227.54
1099.46
975.76
857.7
746.52
644.309
553.49
476.312
414.421
368.263
336.622
316.759
305.268
299.06
295.901
294.357
293.622
293.28
293.124
293.054
293.023
293.01
293.004
293.002
293.001
293
293
293
293
293
293.004
293.017
293.038
293.074
293.134
293.233
293.397
293.662
294.088
294.765
295.821
297.443
299.883
303.474
308.624
315.805
325.51
338.195
354.211
373.749
396.813
423.241
452.747
484.987
519.609
556.293
594.767
634.814
676.268
719
762.909
807.91
853.921
900.858
948.623
997.102
1046.27
1096.13
1146.61
1197.62
1249.06
1300.84
1352.86
1405.01
1457.17
1509.24
1561.09
1612.58
1663.56
1713.89
1763.4
1811.89
1859.16
1904.97
1949.04
1991.04
2030.56
2067.07
2099.24
2126.76
2149.79
2166.03
2173.58
2096.09
1977.64
1852.31
1722.52
1590.24
1457.12
1324.65
1194.24
1067.24
945.059
828.835
719.982
620.711
533.387
460.107
402.236
359.829
331.286
313.663
303.6
298.214
295.492
294.165
293.534
293.241
293.107
293.047
293.02
293.009
293.004
293.002
293.001
293
293
293
293
293
293.004
293.017
293.038
293.075
293.136
293.236
293.401
293.669
294.101
294.785
295.853
297.492
299.959
303.586
308.787
316.036
325.826
338.614
354.749
374.417
397.619
424.189
453.839
486.224
520.992
557.824
596.452
636.66
678.284
721.197
765.3
810.507
856.737
903.906
951.913
1000.65
1050.08
1100.23
1151.01
1202.32
1254.07
1306.16
1358.48
1410.93
1463.4
1515.75
1567.86
1619.59
1670.79
1721.3
1770.94
1819.51
1866.81
1912.57
1956.5
1998.25
2037.4
2073.45
2105.01
2132.19
2154.81
2170.87
2178.69
2070.44
1949.63
1822.67
1691.84
1559.01
1425.78
1293.63
1163.93
1038.04
917.334
802.891
696.3
599.836
515.793
446.107
391.867
352.769
326.887
311.141
302.253
297.535
295.164
294.01
293.463
293.209
293.093
293.041
293.018
293.008
293.003
293.001
293.001
293
293
293
293
293
293.004
293.017
293.039
293.076
293.137
293.238
293.405
293.676
294.112
294.804
295.883
297.539
300.03
303.693
308.944
316.257
326.13
339.018
355.269
375.065
398.403
425.113
454.905
487.432
522.344
559.322
598.099
638.464
680.252
723.339
767.626
813.029
859.467
906.853
955.088
1004.06
1053.75
1104.16
1155.21
1206.8
1258.83
1311.2
1363.8
1416.53
1469.26
1521.86
1574.2
1626.14
1677.52
1728.17
1777.91
1826.54
1873.81
1919.46
1963.17
2004.57
2043.16
2078.21
2108.29
2134.21
2153.78
2165.29
2166.1
2049.18
1925.14
1796.16
1664.15
1530.75
1397.46
1265.65
1136.68
1011.89
892.591
779.854
675.412
581.573
500.554
434.128
383.12
346.899
323.278
309.094
301.167
296.989
294.901
293.887
293.406
293.183
293.081
293.036
293.015
293.007
293.003
293.001
293
293
293
293
293
293
293.004
293.017
293.039
293.076
293.138
293.241
293.409
293.683
294.123
294.821
295.911
297.583
300.098
303.794
309.091
316.467
326.419
339.404
355.765
375.684
399.153
425.997
455.925
488.589
523.638
560.755
599.675
640.188
682.131
725.381
769.841
815.427
862.058
909.645
958.089
1007.27
1057.2
1107.86
1159.15
1210.99
1263.27
1315.9
1368.75
1421.72
1474.68
1527.5
1580.05
1632.17
1683.7
1734.47
1784.28
1832.93
1880.17
1925.71
1969.21
2010.25
2048.32
2082.24
2111.17
2135.36
2152.07
2158.86
2146.32
2027.16
1901.49
1771.42
1638.78
1505.15
1371.98
1240.64
1112.43
988.72
870.735
759.588
657.158
565.742
487.471
423.961
375.792
342.048
320.331
307.437
300.293
296.554
294.691
293.788
293.361
293.163
293.072
293.032
293.014
293.006
293.002
293.001
293
293
293
293
293
293
293.004
293.017
293.04
293.077
293.139
293.243
293.413
293.689
294.133
294.837
295.937
297.624
300.16
303.889
309.23
316.664
326.69
339.765
356.231
376.265
399.856
426.827
456.883
489.675
524.852
562.099
601.152
641.802
683.889
727.29
771.908
817.661
864.467
912.238
960.87
1010.25
1060.39
1111.26
1162.78
1214.84
1267.34
1320.19
1373.26
1426.45
1479.61
1532.62
1585.34
1637.61
1689.27
1740.14
1790.03
1838.71
1885.93
1931.41
1974.8
2015.69
2053.55
2087.14
2115.82
2139.88
2156.8
2164.56
2125.19
2005.3
1879.03
1748.58
1615.77
1482.21
1349.34
1218.54
1091.12
968.437
851.663
741.976
641.386
552.163
476.346
415.406
369.698
338.061
317.934
306.1
299.592
296.205
294.523
293.709
293.324
293.146
293.065
293.028
293.012
293.005
293.002
293.001
293
293
293
293
293
293
293.004
293.017
293.04
293.078
293.141
293.245
293.416
293.695
294.142
294.852
295.961
297.661
300.218
303.975
309.357
316.844
326.939
340.097
356.659
376.799
400.504
427.591
457.764
490.673
525.968
563.334
602.508
643.282
685.499
729.036
773.797
819.7
866.663
914.597
963.397
1012.95
1063.27
1114.34
1166.05
1218.3
1271.01
1324.05
1377.31
1430.67
1484.01
1537.18
1590.05
1642.45
1694.21
1745.17
1795.11
1843.81
1891.03
1936.47
1979.8
2020.61
2058.39
2091.97
2120.69
2144.99
2162.55
2171.65
2105.53
1985.34
1858.84
1728.26
1595.47
1462.1
1329.6
1199.34
1072.66
950.928
835.24
726.879
627.937
540.644
466.981
408.27
364.666
334.804
315.993
305.024
299.03
295.927
294.389
293.646
293.296
293.133
293.059
293.026
293.011
293.005
293.002
293.001
293
293
293
293
293
293
293.004
293.017
293.04
293.078
293.142
293.247
293.419
293.7
294.151
294.866
295.982
297.695
300.27
304.053
309.471
317.007
327.163
340.396
357.045
377.281
401.086
428.278
458.556
491.57
526.97
564.442
603.723
644.609
686.94
730.598
775.485
821.52
868.621
916.697
965.643
1015.35
1065.83
1117.06
1168.94
1221.36
1274.23
1327.43
1380.86
1434.37
1487.85
1541.16
1594.14
1646.64
1698.49
1749.51
1799.48
1848.19
1895.4
1940.79
1984.05
2024.76
2062.42
2095.82
2124.36
2148.47
2165.76
2174.29
2089.24
1968.5
1841.66
1710.91
1578.12
1444.91
1312.73
1182.97
1056.96
936.048
821.311
714.122
616.614
530.999
459.186
402.377
360.549
332.161
314.43
304.163
298.582
295.705
294.282
293.596
293.272
293.123
293.054
293.024
293.01
293.004
293.002
293.001
293
293
293
293
293
293
293.004
293.018
293.04
293.079
293.142
293.248
293.422
293.704
294.158
294.877
296.001
297.724
300.315
304.122
309.571
317.15
327.36
340.658
357.383
377.703
401.597
428.879
459.25
492.356
527.847
565.41
604.785
645.767
688.198
731.959
776.955
823.103
870.321
918.519
967.589
1017.42
1068.04
1119.41
1171.43
1223.99
1277
1330.34
1383.89
1437.53
1491.13
1544.54
1597.61
1650.19
1702.1
1753.14
1803.13
1851.83
1899
1944.33
1987.49
2028.06
2065.55
2098.72
2127.05
2150.93
2167.91
2175.79
2076.63
1955.09
1827.69
1696.63
1563.74
1430.61
1298.68
1169.31
1043.85
923.634
809.711
703.516
607.231
523.041
452.792
397.574
357.217
330.038
313.182
303.479
298.227
295.53
294.198
293.557
293.254
293.114
293.051
293.022
293.01
293.004
293.002
293.001
293
293
293
293
293
293
293.004
293.018
293.041
293.079
293.143
293.249
293.424
293.708
294.164
294.887
296.017
297.749
300.354
304.18
309.656
317.271
327.527
340.881
357.67
378.06
402.03
429.389
459.837
493.02
528.588
566.229
605.683
646.744
689.259
733.106
778.193
824.435
871.751
920.049
969.221
1019.16
1069.89
1121.37
1173.5
1226.18
1279.3
1332.75
1386.4
1440.14
1493.83
1547.31
1600.45
1653.08
1705.01
1756.07
1806.05
1854.72
1901.81
1947.04
1990.07
2030.48
2067.81
2100.8
2129.02
2152.92
2170.24
2179.05
2068.18
1945.07
1816.76
1685.2
1552.09
1418.96
1287.2
1158.15
1033.14
913.501
800.248
694.883
599.616
516.606
447.645
393.729
354.567
328.359
312.2
302.942
297.949
295.393
294.132
293.526
293.24
293.108
293.048
293.021
293.009
293.004
293.002
293.001
293
293
293
293
293
293
293.004
293.018
293.041
293.079
293.144
293.25
293.426
293.711
294.169
294.895
296.03
297.77
300.385
304.227
309.725
317.369
327.662
341.061
357.902
378.35
402.38
429.802
460.312
493.557
529.188
566.891
606.408
647.534
690.115
734.032
779.19
825.508
872.901
921.278
970.53
1020.55
1071.37
1122.94
1175.16
1227.92
1281.13
1334.66
1388.39
1442.2
1495.95
1549.49
1602.67
1655.32
1707.26
1758.31
1808.25
1856.85
1903.85
1948.95
1991.83
2032.05
2069.12
2101.6
2129.38
2152.64
2169.02
2176.25
2060.17
1936.55
1807.83
1676.01
1542.79
1409.69
1278.08
1149.3
1024.67
905.486
792.774
688.081
593.632
511.566
443.63
390.744
352.517
327.066
311.447
302.531
297.737
295.288
294.082
293.502
293.229
293.103
293.046
293.02
293.009
293.004
293.002
293.001
293
293
293
293
293
293
293.004
293.018
293.041
293.08
293.144
293.251
293.427
293.713
294.173
294.901
296.039
297.785
300.409
304.262
309.777
317.443
327.764
341.197
358.077
378.568
402.644
430.113
460.671
493.963
529.641
567.391
606.955
648.13
690.761
734.73
779.942
826.315
873.766
922.201
971.511
1021.59
1072.48
1124.11
1176.39
1229.22
1282.48
1336.07
1389.86
1443.71
1497.5
1551.07
1604.27
1656.93
1708.86
1759.88
1809.77
1858.29
1905.18
1950.15
1992.84
2032.82
2069.6
2101.53
2128.92
2151.59
2167.19
2173.45
2055.47
1930.73
1801.36
1669.19
1535.83
1402.72
1271.23
1142.66
1018.32
899.491
787.193
683.012
589.184
507.83
440.663
388.546
351.014
326.12
310.896
302.231
297.582
295.212
294.045
293.485
293.221
293.1
293.044
293.019
293.008
293.004
293.002
293.001
293
293
293
293
293
293
293.004
293.018
293.041
293.08
293.145
293.252
293.428
293.714
294.175
294.905
296.046
297.795
300.424
304.286
309.812
317.492
327.833
341.288
358.194
378.714
402.821
430.321
460.911
494.235
529.944
567.726
607.322
648.529
691.194
735.197
780.445
826.854
874.342
922.815
972.164
1022.28
1073.21
1124.88
1177.2
1230.07
1283.37
1337
1390.81
1444.7
1498.51
1552.09
1605.29
1657.94
1709.86
1760.84
1810.67
1859.12
1905.91
1950.73
1993.22
2032.95
2069.39
2100.78
2128.51
2150.52
2165.39
2170.8
2051.96
1926.63
1796.89
1664.51
1531.07
1397.99
1266.59
1138.18
1014.05
895.469
783.459
679.63
586.223
505.351
438.701
387.097
350.027
325.5
310.535
302.034
297.48
295.161
294.021
293.474
293.216
293.097
293.043
293.019
293.008
293.004
293.001
293.001
293
293
293
293
293
293
293.004
293.018
293.041
293.08
293.145
293.252
293.428
293.715
294.176
294.907
296.049
297.8
300.432
304.297
309.828
317.516
327.865
341.332
358.251
378.785
402.906
430.422
461.027
494.367
530.092
567.889
607.501
648.725
691.406
735.427
780.692
827.12
874.626
923.118
972.484
1022.62
1073.57
1125.26
1177.6
1230.49
1283.81
1337.45
1391.28
1445.17
1498.99
1552.57
1605.77
1658.42
1710.31
1761.27
1811.06
1859.45
1906.17
1950.9
1993.28
2032.87
2069.13
2100.34
2127.92
2149.69
2164.3
2169.47
2050.07
1924.42
1794.5
1662.05
1528.6
1395.56
1264.23
1135.91
1011.9
893.459
781.605
677.962
584.773
504.144
437.752
386.402
349.557
325.207
310.365
301.941
297.432
295.137
294.01
293.468
293.214
293.096
293.043
293.019
293.008
293.003
293.001
293.001
293
293
293
293
293
293
293.004
293.018
293.041
293.08
293.145
293.252
293.428
293.715
294.176
294.907
296.049
297.8
300.432
304.297
309.829
317.516
327.866
341.333
358.252
378.786
402.908
430.424
461.029
494.369
530.094
567.892
607.504
648.728
691.409
735.43
780.696
827.123
874.63
923.121
972.488
1022.62
1073.57
1125.26
1177.61
1230.49
1283.81
1337.45
1391.28
1445.18
1498.99
1552.58
1605.78
1658.42
1710.32
1761.28
1811.07
1859.46
1906.18
1950.91
1993.29
2032.88
2069.14
2100.35
2127.92
2149.69
2164.29
2169.45
2050.06
1924.41
1794.49
1662.04
1528.59
1395.55
1264.22
1135.9
1011.89
893.452
781.599
677.957
584.768
504.14
437.748
386.399
349.555
325.206
310.364
301.941
297.432
295.137
294.01
293.468
293.214
293.096
293.043
293.019
293.008
293.003
293.001
293.001
293
293
293
293
293
293
293.004
293.018
293.041
293.08
293.145
293.252
293.428
293.714
294.175
294.906
296.046
297.795
300.425
304.287
309.813
317.494
327.835
341.291
358.198
378.719
402.826
430.327
460.917
494.241
529.951
567.733
607.329
648.537
691.202
735.206
780.454
826.864
874.352
922.826
972.175
1022.29
1073.22
1124.89
1177.22
1230.09
1283.39
1337.01
1390.83
1444.71
1498.52
1552.11
1605.31
1657.96
1709.87
1760.86
1810.69
1859.13
1905.92
1950.75
1993.24
2032.97
2069.4
2100.79
2128.51
2150.51
2165.38
2170.78
2051.93
1926.6
1796.86
1664.49
1531.05
1397.97
1266.57
1138.15
1014.03
895.448
783.439
679.612
586.208
505.338
438.691
387.09
350.022
325.498
310.534
302.034
297.48
295.161
294.021
293.474
293.216
293.097
293.043
293.019
293.008
293.004
293.001
293.001
293
293
293
293
293
293
293.004
293.018
293.041
293.08
293.144
293.251
293.427
293.713
294.173
294.902
296.04
297.786
300.409
304.264
309.779
317.446
327.768
341.202
358.083
378.576
402.653
430.123
460.681
493.975
529.653
567.404
606.969
648.144
690.776
734.746
779.958
826.332
873.783
922.219
971.531
1021.61
1072.5
1124.13
1176.41
1229.24
1282.51
1336.1
1389.88
1443.74
1497.53
1551.1
1604.3
1656.96
1708.89
1759.91
1809.8
1858.32
1905.21
1950.18
1992.87
2032.85
2069.63
2101.55
2128.93
2151.58
2167.17
2173.42
2055.44
1930.69
1801.32
1669.14
1535.78
1402.67
1271.18
1142.61
1018.28
899.454
787.159
682.982
589.158
507.808
440.646
388.534
351.006
326.115
310.893
302.23
297.582
295.211
294.045
293.485
293.221
293.1
293.044
293.019
293.008
293.004
293.002
293.001
293
293
293
293
293
293
293.004
293.018
293.041
293.079
293.144
293.25
293.426
293.711
294.169
294.896
296.03
297.77
300.386
304.229
309.728
317.373
327.667
341.068
357.91
378.36
402.391
429.815
460.326
493.573
529.205
566.909
606.427
647.554
690.136
734.054
779.213
825.531
872.926
921.304
970.557
1020.58
1071.4
1122.97
1175.19
1227.96
1281.16
1334.69
1388.43
1442.24
1495.99
1549.53
1602.71
1655.36
1707.31
1758.36
1808.3
1856.9
1903.9
1949
1991.87
2032.09
2069.16
2101.63
2129.4
2152.64
2169.01
2176.24
2060.14
1936.5
1807.77
1675.94
1542.73
1409.62
1278.02
1149.24
1024.61
905.435
792.727
688.038
593.595
511.535
443.606
390.727
352.506
327.06
311.443
302.53
297.736
295.288
294.082
293.502
293.229
293.103
293.046
293.02
293.009
293.004
293.002
293.001
293
293
293
293
293
293
293.004
293.018
293.041
293.079
293.143
293.249
293.424
293.708
294.164
294.888
296.017
297.75
300.355
304.182
309.66
317.276
327.534
340.889
357.68
378.073
402.044
429.406
459.856
493.04
528.61
566.252
605.707
646.77
689.286
733.135
778.222
824.466
871.783
920.083
969.256
1019.19
1069.93
1121.41
1173.54
1226.22
1279.35
1332.79
1386.45
1440.19
1493.88
1547.37
1600.51
1653.13
1705.07
1756.13
1806.11
1854.77
1901.87
1947.1
1990.12
2030.54
2067.87
2100.85
2129.06
2152.94
2170.24
2179.03
2068.09
1944.96
1816.66
1685.1
1552
1418.87
1287.11
1158.07
1033.07
913.432
800.185
694.826
599.566
516.565
447.614
393.707
354.552
328.351
312.196
302.94
297.948
295.392
294.132
293.526
293.24
293.108
293.048
293.021
293.009
293.004
293.002
293.001
293
293
293
293
293
293
293.004
293.018
293.04
293.079
293.142
293.248
293.422
293.704
294.158
294.878
296.002
297.726
300.317
304.125
309.575
317.155
327.368
340.668
357.396
377.718
401.615
428.9
459.272
492.38
527.874
565.439
604.815
645.798
688.231
731.994
776.991
823.141
870.361
918.561
967.632
1017.47
1068.09
1119.46
1171.48
1224.05
1277.06
1330.4
1383.95
1437.59
1491.19
1544.6
1597.68
1650.26
1702.16
1753.21
1803.2
1851.9
1899.07
1944.4
1987.56
2028.12
2065.6
2098.76
2127.08
2150.94
2167.91
2175.79
2076.5
1954.95
1827.56
1696.5
1563.61
1430.49
1298.56
1169.21
1043.75
923.543
809.628
703.442
607.167
522.989
452.751
397.545
357.199
330.027
313.177
303.476
298.226
295.529
294.198
293.556
293.254
293.114
293.051
293.022
293.01
293.004
293.002
293.001
293
293
293
293
293
293
293.004
293.017
293.04
293.078
293.142
293.247
293.419
293.7
294.151
294.866
295.983
297.696
300.272
304.057
309.476
317.014
327.173
340.408
357.06
377.299
401.108
428.302
458.583
491.6
527.002
564.476
603.759
644.647
686.98
730.639
775.529
821.566
868.668
916.747
965.695
1015.4
1065.89
1117.12
1169
1221.43
1274.3
1327.5
1380.93
1434.45
1487.93
1541.24
1594.22
1646.72
1698.57
1749.58
1799.56
1848.27
1895.47
1940.87
1984.13
2024.84
2062.49
2095.88
2124.41
2148.5
2165.78
2174.31
2089.1
1968.35
1841.5
1710.75
1577.97
1444.77
1312.6
1182.84
1056.84
935.936
821.208
714.03
616.534
530.933
459.135
402.34
360.525
332.147
314.422
304.159
298.58
295.704
294.282
293.596
293.272
293.123
293.054
293.024
293.01
293.004
293.002
293.001
293
293
293
293
293
293
293.004
293.017
293.04
293.078
293.141
293.245
293.416
293.695
294.143
294.853
295.962
297.663
300.221
303.979
309.362
316.852
326.949
340.11
356.676
376.82
400.528
427.618
457.795
490.707
526.005
563.373
602.549
643.326
685.545
729.084
773.848
819.753
866.718
914.654
963.457
1013.01
1063.34
1114.4
1166.12
1218.38
1271.08
1324.12
1377.39
1430.75
1484.09
1537.27
1590.13
1642.53
1694.3
1745.25
1795.19
1843.9
1891.11
1936.56
1979.88
2020.69
2058.46
2092.03
2120.74
2145.03
2162.59
2171.7
2105.35
1985.15
1858.65
1728.07
1595.29
1461.92
1329.42
1199.18
1072.51
950.788
835.114
726.769
627.838
540.561
466.917
408.223
364.636
334.786
315.984
305.02
299.028
295.926
294.388
293.646
293.295
293.133
293.059
293.026
293.011
293.005
293.002
293.001
293
293
293
293
293
293
293.004
293.017
293.04
293.077
293.14
293.243
293.413
293.689
294.134
294.838
295.938
297.626
300.163
303.893
309.236
316.672
326.702
339.78
356.25
376.288
399.883
426.858
456.918
489.713
524.894
562.143
601.199
641.852
683.941
727.344
771.966
817.721
864.53
912.303
960.938
1010.32
1060.46
1111.34
1162.86
1214.92
1267.43
1320.28
1373.35
1426.54
1479.7
1532.72
1585.44
1637.71
1689.37
1740.24
1790.12
1838.8
1886.02
1931.5
1974.88
2015.76
2053.62
2087.22
2115.9
2139.97
2156.91
2164.71
2124.89
2005.03
1878.78
1748.34
1615.54
1481.99
1349.14
1218.34
1090.93
968.264
851.503
741.83
641.263
552.062
476.267
415.348
369.66
338.039
317.922
306.094
299.589
296.204
294.522
293.709
293.324
293.146
293.065
293.028
293.012
293.005
293.002
293.001
293
293
293
293
293
293
293.004
293.017
293.039
293.076
293.138
293.241
293.409
293.683
294.124
294.822
295.912
297.585
300.101
303.799
309.098
316.477
326.432
339.42
355.786
375.709
399.183
426.032
455.964
488.632
523.684
560.804
599.728
640.243
682.19
725.443
769.906
815.494
862.128
909.719
958.165
1007.35
1057.28
1107.94
1159.24
1211.08
1263.37
1315.99
1368.85
1421.82
1474.79
1527.61
1580.16
1632.27
1683.81
1734.57
1784.39
1833.04
1880.27
1925.8
1969.3
2010.34
2048.41
2082.32
2111.25
2135.42
2152.1
2158.79
2145.93
2026.83
1901.19
1771.14
1638.51
1504.9
1371.75
1240.41
1112.22
988.522
870.553
759.425
657.015
565.622
487.377
423.892
375.746
342.021
320.316
307.43
300.29
296.553
294.69
293.788
293.361
293.163
293.072
293.032
293.014
293.006
293.002
293.001
293
293
293
293
293
293
293.004
293.017
293.039
293.076
293.137
293.239
293.405
293.677
294.113
294.804
295.884
297.541
300.034
303.698
308.951
316.267
326.144
339.036
355.292
375.093
398.436
425.151
454.948
487.479
522.395
559.376
598.157
638.525
680.317
723.407
767.698
813.104
859.545
906.935
955.173
1004.15
1053.84
1104.26
1155.31
1206.9
1258.94
1311.31
1363.92
1416.64
1469.37
1521.98
1574.32
1626.26
1677.64
1728.29
1778.03
1826.65
1873.91
1919.56
1963.26
2004.64
2043.22
2078.25
2108.29
2134.16
2153.66
2165.06
2165.75
2048.87
1924.84
1795.88
1663.87
1530.48
1397.2
1265.41
1136.45
1011.67
892.389
779.67
675.249
581.434
500.442
434.044
383.063
346.865
323.259
309.085
301.163
296.988
294.9
293.886
293.406
293.183
293.081
293.036
293.015
293.007
293.003
293.001
293
293
293
293
293
293
293.004
293.017
293.038
293.075
293.136
293.236
293.401
293.67
294.101
294.786
295.855
297.495
299.962
303.592
308.795
316.047
325.841
338.633
354.773
374.447
397.655
424.23
453.885
486.275
521.047
557.884
596.515
636.728
678.356
721.272
765.378
810.589
856.824
903.996
952.007
1000.75
1050.19
1100.34
1151.12
1202.43
1254.18
1306.28
1358.6
1411.06
1463.52
1515.88
1567.99
1619.72
1670.92
1721.43
1771.06
1819.64
1866.93
1912.68
1956.6
1998.34
2037.47
2073.5
2105.04
2132.18
2154.76
2170.77
2178.61
2070.06
1949.26
1822.32
1691.51
1558.69
1425.49
1293.35
1163.66
1037.79
917.103
802.679
696.11
599.672
515.659
446.005
391.796
352.724
326.862
311.129
302.248
297.533
295.163
294.01
293.463
293.209
293.093
293.041
293.018
293.008
293.003
293.001
293.001
293
293
293
293
293
293.004
293.017
293.038
293.074
293.134
293.233
293.397
293.662
294.089
294.766
295.823
297.446
299.887
303.479
308.632
315.817
325.526
338.216
354.238
373.781
396.852
423.285
452.797
485.042
519.669
556.357
594.836
634.887
676.346
719.082
762.995
808
854.016
900.957
948.726
997.21
1046.38
1096.25
1146.73
1197.74
1249.19
1300.97
1352.99
1405.14
1457.32
1509.39
1561.23
1612.72
1663.71
1714.03
1763.54
1812.03
1859.3
1905.1
1949.16
1991.15
2030.65
2067.14
2099.28
2126.76
2149.73
2165.89
2173.35
2095.48
1977.1
1851.84
1722.1
1589.85
1456.76
1324.32
1193.93
1066.95
944.789
828.585
719.756
620.513
533.223
459.98
402.145
359.772
331.253
313.647
303.593
298.211
295.491
294.164
293.534
293.24
293.107
293.047
293.02
293.009
293.004
293.002
293.001
293
293
293
293
293
293.004
293.016
293.038
293.073
293.132
293.231
293.392
293.654
294.076
294.745
295.789
297.394
299.808
303.362
308.463
315.579
325.202
337.789
353.692
373.107
396.04
422.334
451.705
483.808
518.291
554.832
593.158
633.049
674.336
716.889
760.605
805.398
851.187
897.887
945.403
993.623
1042.5
1092.07
1142.24
1192.93
1244.05
1295.5
1347.19
1399.01
1450.86
1502.62
1554.17
1605.38
1656.12
1706.23
1755.56
1803.92
1851.11
1896.89
1941
1983.09
2022.76
2059.47
2091.89
2119.49
2142.11
2157.03
2161.54
2126.62
2009.08
1884.71
1755.72
1623.93
1490.95
1358.25
1227.19
1099.12
975.448
857.408
746.252
644.072
553.289
476.153
414.305
368.188
336.579
316.738
305.258
299.056
295.9
294.356
293.622
293.28
293.124
293.054
293.023
293.01
293.004
293.002
293.001
293
293
293
293
293
293.004
293.016
293.037
293.072
293.131
293.227
293.387
293.645
294.061
294.722
295.753
297.338
299.724
303.239
308.286
315.332
324.869
337.353
353.142
372.431
395.235
421.396
450.633
482.603
516.951
553.352
591.532
631.267
672.387
714.759
758.279
802.859
848.419
894.875
942.131
990.078
1038.66
1087.92
1137.76
1188.11
1238.89
1289.99
1341.33
1392.8
1444.3
1495.73
1546.96
1597.87
1648.34
1698.21
1747.33
1795.53
1842.61
1888.35
1932.48
1974.69
2014.59
2051.69
2085.01
2113.58
2137.57
2154.56
2162.38
2157.63
2041.59
1918.69
1790.89
1659.93
1527.36
1394.62
1263.06
1134.03
1008.9
889.021
775.546
670.364
575.938
494.656
428.437
378.134
342.971
320.492
307.295
300.093
296.401
294.591
293.729
293.328
293.145
293.064
293.027
293.012
293.005
293.002
293.001
293
293
293
293
293
293.004
293.016
293.036
293.071
293.129
293.224
293.381
293.636
294.046
294.697
295.714
297.278
299.636
303.11
308.103
315.081
324.533
336.919
352.598
371.77
394.454
420.495
449.613
481.463
515.69
551.967
590.013
629.605
670.569
712.769
756.1
800.474
845.809
892.022
939.02
986.694
1034.98
1083.92
1133.43
1183.45
1233.87
1284.62
1335.6
1386.71
1437.86
1488.94
1539.84
1590.44
1640.62
1690.23
1739.12
1787.14
1834.09
1879.77
1923.93
1966.28
2006.46
2044.04
2078.49
2108.47
2134.83
2155.83
2170.41
2177.31
2069.55
1950.73
1825.63
1696.39
1564.82
1432.46
1300.73
1170.99
1044.6
922.975
807.269
699.15
601.047
515.478
444.621
389.75
350.585
325.041
309.795
301.374
297.023
294.882
293.862
293.388
293.171
293.075
293.032
293.014
293.006
293.002
293.001
293
293
293
293
293
293.004
293.016
293.036
293.07
293.126
293.22
293.374
293.624
294.027
294.667
295.669
297.21
299.534
302.964
307.899
314.805
324.173
336.465
352.044
371.116
393.7
419.645
448.671
480.43
514.563
550.738
588.675
628.145
668.971
711.016
754.174
798.354
843.477
889.458
936.205
983.615
1031.61
1080.24
1129.44
1179.12
1229.2
1279.6
1330.23
1380.99
1431.8
1482.54
1533.12
1583.41
1633.29
1682.64
1731.3
1779.13
1825.94
1871.53
1915.68
1958.12
1998.51
2036.46
2071.49
2102.19
2128.55
2150.3
2165.43
2172.17
2099.03
1983.14
1860.31
1732.78
1602.37
1470.66
1339.06
1208.92
1081.57
958.436
840.736
729.902
628.246
538.381
462.721
402.962
359.374
330.344
312.717
302.867
297.742
295.217
294.014
293.455
293.201
293.087
293.038
293.016
293.007
293.003
293.001
293
293
293
293
293
293.003
293.015
293.035
293.068
293.123
293.215
293.366
293.611
294.007
294.635
295.62
297.137
299.429
302.816
307.696
314.536
323.829
336.04
351.536
370.527
393.037
418.913
447.874
479.571
513.638
549.743
587.598
626.973
667.687
709.601
752.608
796.617
841.548
887.317
933.835
981
1028.73
1077.08
1125.98
1175.35
1225.12
1275.2
1325.51
1375.96
1426.45
1476.89
1527.16
1577.17
1626.79
1675.89
1724.34
1771.97
1818.63
1864.12
1908.2
1950.62
1991.04
2029.07
2064.19
2095.04
2121.4
2142.63
2156.34
2159.85
2128.97
2014.59
1893.35
1767.27
1638.05
1507.18
1376.03
1245.89
1118.05
993.847
874.599
761.53
656.74
562.881
482.557
417.841
369.558
336.655
316.268
304.706
298.631
295.63
294.2
293.537
293.236
293.102
293.044
293.019
293.008
293.003
293.001
293.001
293
293
293
293
293.003
293.015
293.034
293.066
293.12
293.209
293.356
293.595
293.979
294.592
295.553
297.036
299.283
302.611
307.421
314.18
323.387