/*--------------------------------*- C++ -*----------------------------------*\
  =========                 |
  \\      /  F ield         | OpenFOAM: The Open Source CFD Toolbox
   \\    /   O peration     | Website:  https://openfoam.org
    \\  /    A nd           | Version:  8
     \\/     M anipulation  |
\*---------------------------------------------------------------------------*/
FoamFile
{
    version     2.0;
    format      ascii;
    class       volVectorField;
    location    "260/fluid";
    object      U;
}
// * * * * * * * * * * * * * * * * * * * * * * * * * * * * * * * * * * * * * //

dimensions      [0 1 -1 0 0 0 0];

internalField   nonuniform List<vector> 
4000
(
(0.0999534 -0.00676056 0)
(0.0996992 -0.0201637 0)
(0.0992886 -0.0334488 0)
(0.0987216 -0.0466532 0)
(0.0979919 -0.0598161 0)
(0.0970845 -0.0729427 0)
(0.0959819 -0.0860216 0)
(0.0946674 -0.0990352 0)
(0.0931274 -0.11196 0)
(0.0913539 -0.12477 0)
(0.0893474 -0.137439 0)
(0.0871195 -0.149947 0)
(0.084696 -0.162282 0)
(0.0821202 -0.174442 0)
(0.0794576 -0.186409 0)
(0.0767853 -0.19824 0)
(0.0741635 -0.209974 0)
(0.071627 -0.22163 0)
(0.0691773 -0.233197 0)
(0.0667785 -0.244628 0)
(0.0643639 -0.255838 0)
(0.061849 -0.266717 0)
(0.0591488 -0.277145 0)
(0.0561935 -0.286998 0)
(0.0529432 -0.296153 0)
(0.0493834 -0.304536 0)
(0.0455141 -0.312105 0)
(0.0413447 -0.318833 0)
(0.036893 -0.324711 0)
(0.032182 -0.329747 0)
(0.0272377 -0.333966 0)
(0.0220868 -0.33741 0)
(0.0167548 -0.34013 0)
(0.0112658 -0.342187 0)
(0.00564182 -0.34365 0)
(-9.61634e-05 -0.344591 0)
(-0.00592797 -0.345084 0)
(-0.0118366 -0.345205 0)
(-0.017809 -0.345028 0)
(-0.0238349 -0.344625 0)
(-0.0299056 -0.344064 0)
(-0.0360132 -0.34341 0)
(-0.0421513 -0.342718 0)
(-0.0483138 -0.34204 0)
(-0.0544953 -0.341422 0)
(-0.0606905 -0.340901 0)
(-0.0668938 -0.340509 0)
(-0.0730994 -0.340272 0)
(-0.0793007 -0.340209 0)
(-0.08549 -0.340332 0)
(-0.0916583 -0.340648 0)
(-0.0977952 -0.34116 0)
(-0.103888 -0.341864 0)
(-0.109922 -0.342753 0)
(-0.115878 -0.343817 0)
(-0.121737 -0.345043 0)
(-0.127473 -0.346421 0)
(-0.133056 -0.347939 0)
(-0.138444 -0.349594 0)
(-0.143586 -0.351383 0)
(-0.148432 -0.353313 0)
(-0.152959 -0.355417 0)
(-0.157183 -0.357793 0)
(-0.161013 -0.360663 0)
(-0.163307 -0.364201 0)
(-0.161917 -0.367402 0)
(-0.157178 -0.368516 0)
(-0.151789 -0.367296 0)
(-0.146186 -0.363999 0)
(-0.140237 -0.358764 0)
(-0.133902 -0.351635 0)
(-0.127222 -0.342648 0)
(-0.120258 -0.331868 0)
(-0.113081 -0.319398 0)
(-0.105766 -0.305392 0)
(-0.0984028 -0.290044 0)
(-0.091155 -0.273605 0)
(-0.0843001 -0.256419 0)
(-0.0782186 -0.23895 0)
(-0.0733373 -0.221729 0)
(-0.07009 -0.205586 0)
(-0.0687935 -0.191084 0)
(-0.0694306 -0.178321 0)
(-0.071614 -0.166945 0)
(-0.0747624 -0.156417 0)
(-0.0783188 -0.146271 0)
(-0.0818732 -0.13621 0)
(-0.0851724 -0.126063 0)
(-0.0880811 -0.115776 0)
(-0.0905708 -0.105429 0)
(-0.092663 -0.0950615 0)
(-0.0943971 -0.0847128 0)
(-0.0958166 -0.0744211 0)
(-0.0969637 -0.0642196 0)
(-0.0978777 -0.0541269 0)
(-0.0985934 -0.0441459 0)
(-0.0991408 -0.0342785 0)
(-0.0995441 -0.024508 0)
(-0.0998189 -0.0147317 0)
(-0.0999776 -0.00488691 0)
(0.0999997 -0.00638461 0)
(0.0998208 -0.0191322 0)
(0.0994511 -0.0317868 0)
(0.0988703 -0.0443404 0)
(0.0980803 -0.0567994 0)
(0.097077 -0.0691467 0)
(0.0958521 -0.0813561 0)
(0.0943981 -0.0933999 0)
(0.0927124 -0.105249 0)
(0.0907999 -0.116876 0)
(0.0886759 -0.128258 0)
(0.0863687 -0.139387 0)
(0.0839205 -0.150272 0)
(0.0813871 -0.160955 0)
(0.0788365 -0.171525 0)
(0.0763338 -0.182012 0)
(0.0739307 -0.192457 0)
(0.0716526 -0.202899 0)
(0.0694896 -0.21335 0)
(0.0673942 -0.223788 0)
(0.0652872 -0.234145 0)
(0.0630726 -0.244325 0)
(0.0606545 -0.254209 0)
(0.0579531 -0.263684 0)
(0.0549132 -0.272661 0)
(0.0515093 -0.281034 0)
(0.0477379 -0.288704 0)
(0.0436112 -0.295609 0)
(0.0391526 -0.30172 0)
(0.0343925 -0.307031 0)
(0.0293644 -0.311559 0)
(0.0241016 -0.315337 0)
(0.0186363 -0.318413 0)
(0.0129978 -0.320842 0)
(0.00721253 -0.322689 0)
(0.00130459 -0.324021 0)
(-0.00470427 -0.324908 0)
(-0.0107956 -0.325422 0)
(-0.0169551 -0.325637 0)
(-0.0231713 -0.325623 0)
(-0.0294348 -0.325445 0)
(-0.035738 -0.325164 0)
(-0.0420743 -0.324838 0)
(-0.0484385 -0.324515 0)
(-0.0548259 -0.32424 0)
(-0.0612323 -0.324052 0)
(-0.0676537 -0.323983 0)
(-0.0740855 -0.324058 0)
(-0.0805231 -0.324298 0)
(-0.0869607 -0.324716 0)
(-0.0933919 -0.325322 0)
(-0.0998086 -0.326118 0)
(-0.106201 -0.327104 0)
(-0.112559 -0.328273 0)
(-0.118867 -0.329615 0)
(-0.12511 -0.331117 0)
(-0.13127 -0.332763 0)
(-0.137321 -0.334536 0)
(-0.143228 -0.336416 0)
(-0.148944 -0.338379 0)
(-0.154432 -0.340399 0)
(-0.159679 -0.342445 0)
(-0.164695 -0.34449 0)
(-0.169311 -0.346474 0)
(-0.172105 -0.347996 0)
(-0.170575 -0.348264 0)
(-0.165099 -0.347197 0)
(-0.159075 -0.344504 0)
(-0.153001 -0.340056 0)
(-0.146645 -0.333793 0)
(-0.139908 -0.325681 0)
(-0.132801 -0.315718 0)
(-0.12536 -0.303942 0)
(-0.117629 -0.290449 0)
(-0.109653 -0.275399 0)
(-0.101501 -0.259038 0)
(-0.0933532 -0.241746 0)
(-0.0855471 -0.224086 0)
(-0.0785611 -0.206838 0)
(-0.0729496 -0.190952 0)
(-0.0692256 -0.176924 0)
(-0.0676561 -0.164948 0)
(-0.0681073 -0.154787 0)
(-0.070104 -0.145886 0)
(-0.0730502 -0.137644 0)
(-0.0764233 -0.129614 0)
(-0.0798568 -0.121552 0)
(-0.083135 -0.113372 0)
(-0.0861458 -0.105037 0)
(-0.0888278 -0.0964504 0)
(-0.0911691 -0.0876331 0)
(-0.0931773 -0.0786334 0)
(-0.0948717 -0.0695054 0)
(-0.0962771 -0.0602999 0)
(-0.0974206 -0.0510559 0)
(-0.0983287 -0.0417972 0)
(-0.0990247 -0.0325468 0)
(-0.0995248 -0.0233132 0)
(-0.0998395 -0.0140267 0)
(-0.0999949 -0.00464923 0)
(0.0999817 -0.00614106 0)
(0.0997509 -0.0183927 0)
(0.0992983 -0.0305495 0)
(0.0986076 -0.0426005 0)
(0.097682 -0.0545479 0)
(0.096522 -0.0663734 0)
(0.0951263 -0.0780527 0)
(0.0934966 -0.0895629 0)
(0.0916405 -0.100882 0)
(0.0895739 -0.111993 0)
(0.0873232 -0.122882 0)
(0.0849272 -0.133548 0)
(0.0824375 -0.143999 0)
(0.0799152 -0.154258 0)
(0.0774224 -0.164359 0)
(0.075017 -0.174353 0)
(0.0727467 -0.184291 0)
(0.0706347 -0.194218 0)
(0.0686683 -0.204152 0)
(0.0667959 -0.214074 0)
(0.0649336 -0.223927 0)
(0.0629796 -0.233621 0)
(0.0608324 -0.243047 0)
(0.0584042 -0.252091 0)
(0.0556278 -0.260645 0)
(0.0524608 -0.268619 0)
(0.048888 -0.275945 0)
(0.0449163 -0.282574 0)
(0.0405679 -0.28848 0)
(0.0358739 -0.293656 0)
(0.0308695 -0.298112 0)
(0.0255909 -0.301876 0)
(0.020073 -0.304987 0)
(0.0143484 -0.307494 0)
(0.00844678 -0.309453 0)
(0.00239497 -0.310926 0)
(-0.00378244 -0.311977 0)
(-0.0100646 -0.312672 0)
(-0.0164351 -0.313079 0)
(-0.0228807 -0.313264 0)
(-0.0293908 -0.313289 0)
(-0.0359566 -0.313212 0)
(-0.0425713 -0.313087 0)
(-0.0492293 -0.31296 0)
(-0.0559262 -0.312875 0)
(-0.0626583 -0.312868 0)
(-0.0694223 -0.312971 0)
(-0.0762154 -0.313207 0)
(-0.0830343 -0.313597 0)
(-0.0898757 -0.314153 0)
(-0.0967356 -0.314884 0)
(-0.103609 -0.315792 0)
(-0.110491 -0.316873 0)
(-0.117374 -0.318119 0)
(-0.12425 -0.319518 0)
(-0.131109 -0.321049 0)
(-0.137939 -0.322691 0)
(-0.144723 -0.324414 0)
(-0.151428 -0.326182 0)
(-0.158013 -0.327952 0)
(-0.164464 -0.329673 0)
(-0.170817 -0.331304 0)
(-0.177021 -0.332847 0)
(-0.18221 -0.334228 0)
(-0.184414 -0.334679 0)
(-0.181789 -0.333159 0)
(-0.175557 -0.330481 0)
(-0.168738 -0.326479 0)
(-0.161779 -0.32095 0)
(-0.154499 -0.313781 0)
(-0.146812 -0.304934 0)
(-0.138723 -0.294422 0)
(-0.130265 -0.282317 0)
(-0.121473 -0.268763 0)
(-0.112394 -0.253982 0)
(-0.103129 -0.238289 0)
(-0.0939271 -0.222118 0)
(-0.0852192 -0.206021 0)
(-0.0775718 -0.190633 0)
(-0.0716058 -0.176566 0)
(-0.0678054 -0.16426 0)
(-0.0663008 -0.153803 0)
(-0.0668121 -0.144884 0)
(-0.0687938 -0.136962 0)
(-0.0716574 -0.129505 0)
(-0.0749201 -0.12214 0)
(-0.0782548 -0.114656 0)
(-0.0814747 -0.106968 0)
(-0.0844878 -0.0990623 0)
(-0.0872463 -0.0909591 0)
(-0.0897229 -0.0826816 0)
(-0.0919083 -0.0742557 0)
(-0.0938047 -0.065712 0)
(-0.0954214 -0.0570831 0)
(-0.0967716 -0.0483956 0)
(-0.0978705 -0.0396674 0)
(-0.0987317 -0.0309201 0)
(-0.0993643 -0.0221655 0)
(-0.0997743 -0.0133427 0)
(-0.0999849 -0.00442307 0)
(0.0999854 -0.00582996 0)
(0.099747 -0.017462 0)
(0.0992722 -0.0289956 0)
(0.0985441 -0.0404139 0)
(0.0975698 -0.051714 0)
(0.0963548 -0.0628743 0)
(0.0949034 -0.0738684 0)
(0.0932221 -0.0846729 0)
(0.0913231 -0.0952665 0)
(0.0892258 -0.105632 0)
(0.0869586 -0.115761 0)
(0.0845601 -0.125654 0)
(0.0820803 -0.135326 0)
(0.0795788 -0.144808 0)
(0.0771207 -0.154147 0)
(0.0747685 -0.163399 0)
(0.0725705 -0.172624 0)
(0.0705472 -0.181868 0)
(0.0686819 -0.191154 0)
(0.066918 -0.200468 0)
(0.0651666 -0.20976 0)
(0.063321 -0.218944 0)
(0.0612747 -0.227916 0)
(0.0589364 -0.236568 0)
(0.0562391 -0.244796 0)
(0.0531421 -0.252508 0)
(0.0496294 -0.259635 0)
(0.0457052 -0.266124 0)
(0.0413876 -0.271946 0)
(0.0367043 -0.277092 0)
(0.0316875 -0.281568 0)
(0.0263715 -0.285397 0)
(0.0207899 -0.288614 0)
(0.0149747 -0.291262 0)
(0.00895539 -0.293393 0)
(0.0027593 -0.295063 0)
(-0.00358852 -0.296331 0)
(-0.0100665 -0.297257 0)
(-0.0166575 -0.297906 0)
(-0.0233476 -0.298337 0)
(-0.0301253 -0.298609 0)
(-0.0369814 -0.298777 0)
(-0.0439088 -0.298889 0)
(-0.0509017 -0.298992 0)
(-0.0579559 -0.299126 0)
(-0.0650681 -0.299323 0)
(-0.0722359 -0.299614 0)
(-0.079457 -0.300022 0)
(-0.0867296 -0.300563 0)
(-0.0940519 -0.30125 0)
(-0.101422 -0.302088 0)
(-0.108836 -0.303078 0)
(-0.116291 -0.304213 0)
(-0.123782 -0.305482 0)
(-0.131303 -0.306866 0)
(-0.138843 -0.308343 0)
(-0.146393 -0.30988 0)
(-0.15393 -0.311439 0)
(-0.161413 -0.312973 0)
(-0.168796 -0.314417 0)
(-0.176126 -0.315705 0)
(-0.183512 -0.316781 0)
(-0.190792 -0.317627 0)
(-0.195818 -0.318127 0)
(-0.196256 -0.317285 0)
(-0.191754 -0.314413 0)
(-0.184871 -0.310398 0)
(-0.177428 -0.305191 0)
(-0.169611 -0.298624 0)
(-0.161342 -0.290595 0)
(-0.152609 -0.281083 0)
(-0.14345 -0.270121 0)
(-0.133918 -0.257802 0)
(-0.124074 -0.244292 0)
(-0.114 -0.229831 0)
(-0.103864 -0.214748 0)
(-0.0940043 -0.199484 0)
(-0.0849192 -0.184577 0)
(-0.077195 -0.170621 0)
(-0.0713893 -0.15815 0)
(-0.067856 -0.147474 0)
(-0.0665907 -0.138539 0)
(-0.0672292 -0.130958 0)
(-0.0692145 -0.1242 0)
(-0.0719944 -0.11779 0)
(-0.0751342 -0.111412 0)
(-0.0783429 -0.104891 0)
(-0.08145 -0.0981493 0)
(-0.0843653 -0.0911658 0)
(-0.0870455 -0.0839449 0)
(-0.0894716 -0.076506 0)
(-0.091637 -0.0688759 0)
(-0.0935416 -0.0610867 0)
(-0.0951887 -0.0531723 0)
(-0.0965843 -0.0451612 0)
(-0.0977353 -0.037074 0)
(-0.0986475 -0.0289362 0)
(-0.0993229 -0.020765 0)
(-0.0997616 -0.0125088 0)
(-0.099986 -0.00414752 0)
(0.0999827 -0.00551313 0)
(0.099728 -0.0165128 0)
(0.0992246 -0.0274169 0)
(0.0984565 -0.0382075 0)
(0.0974331 -0.0488807 0)
(0.0961624 -0.0594151 0)
(0.0946511 -0.0697855 0)
(0.092909 -0.0799701 0)
(0.0909516 -0.0899504 0)
(0.0888016 -0.0997119 0)
(0.0864905 -0.109248 0)
(0.0840606 -0.118561 0)
(0.0815646 -0.127666 0)
(0.0790648 -0.136593 0)
(0.0766278 -0.145385 0)
(0.0743159 -0.154093 0)
(0.0721757 -0.162774 0)
(0.0702252 -0.171472 0)
(0.0684445 -0.180208 0)
(0.0667732 -0.188971 0)
(0.0651186 -0.197717 0)
(0.0633704 -0.206369 0)
(0.0614181 -0.214834 0)
(0.059167 -0.22301 0)
(0.0565464 -0.230803 0)
(0.0535129 -0.238128 0)
(0.0500481 -0.24492 0)
(0.0461538 -0.25113 0)
(0.0418465 -0.256731 0)
(0.0371522 -0.26171 0)
(0.032102 -0.266074 0)
(0.0267291 -0.269842 0)
(0.0210662 -0.273044 0)
(0.0151449 -0.275719 0)
(0.00899432 -0.277913 0)
(0.00264175 -0.279677 0)
(-0.00388796 -0.281065 0)
(-0.0105732 -0.282132 0)
(-0.0173966 -0.282937 0)
(-0.024344 -0.283534 0)
(-0.0314036 -0.283979 0)
(-0.0385661 -0.284319 0)
(-0.045824 -0.284602 0)
(-0.0531719 -0.284869 0)
(-0.0606053 -0.285156 0)
(-0.0681213 -0.285494 0)
(-0.0757175 -0.285909 0)
(-0.0833924 -0.286421 0)
(-0.0911444 -0.287046 0)
(-0.0989724 -0.287791 0)
(-0.106875 -0.28866 0)
(-0.114849 -0.289649 0)
(-0.122892 -0.29075 0)
(-0.130999 -0.291947 0)
(-0.139161 -0.293217 0)
(-0.147369 -0.294532 0)
(-0.155605 -0.295855 0)
(-0.163838 -0.29714 0)
(-0.172004 -0.298333 0)
(-0.180069 -0.299365 0)
(-0.188042 -0.300157 0)
(-0.196019 -0.300591 0)
(-0.203556 -0.300525 0)
(-0.208155 -0.299815 0)
(-0.206917 -0.297813 0)
(-0.200513 -0.294325 0)
(-0.192881 -0.289618 0)
(-0.184765 -0.283718 0)
(-0.176112 -0.276556 0)
(-0.166896 -0.268091 0)
(-0.157177 -0.258334 0)
(-0.147027 -0.247348 0)
(-0.136526 -0.235254 0)
(-0.125759 -0.222237 0)
(-0.114846 -0.20855 0)
(-0.10402 -0.194527 0)
(-0.093684 -0.180593 0)
(-0.0843717 -0.16724 0)
(-0.0766631 -0.154968 0)
(-0.0710551 -0.144173 0)
(-0.067793 -0.135009 0)
(-0.0667574 -0.127314 0)
(-0.0675152 -0.120682 0)
(-0.0695042 -0.114647 0)
(-0.0722073 -0.108831 0)
(-0.0752345 -0.102989 0)
(-0.0783306 -0.0969924 0)
(-0.0813456 -0.0907862 0)
(-0.0841969 -0.0843568 0)
(-0.0868404 -0.0777109 0)
(-0.0892529 -0.070864 0)
(-0.0914233 -0.0638371 0)
(-0.0933468 -0.0566561 0)
(-0.0950226 -0.0493498 0)
(-0.0964524 -0.0419425 0)
(-0.0976392 -0.0344527 0)
(-0.0985852 -0.0269044 0)
(-0.0992892 -0.0193156 0)
(-0.0997486 -0.0116394 0)
(-0.0999846 -0.00385936 0)
(0.099983 -0.00517904 0)
(0.0997223 -0.0155134 0)
(0.0992063 -0.0257562 0)
(0.0984189 -0.0358882 0)
(0.0973712 -0.0459042 0)
(0.096073 -0.0557826 0)
(0.0945329 -0.0654988 0)
(0.0927627 -0.0750318 0)
(0.0907797 -0.0843638 0)
(0.0886082 -0.093482 0)
(0.0862813 -0.10238 0)
(0.0838422 -0.111064 0)
(0.0813443 -0.119548 0)
(0.0788503 -0.127863 0)
(0.0764264 -0.136054 0)
(0.0741349 -0.144172 0)
(0.0720215 -0.152273 0)
(0.070103 -0.160401 0)
(0.0683578 -0.168579 0)
(0.0667242 -0.176799 0)
(0.0651076 -0.185016 0)
(0.063396 -0.193161 0)
(0.0614776 -0.201145 0)
(0.0592559 -0.208873 0)
(0.0566584 -0.216256 0)
(0.0536401 -0.223214 0)
(0.0501805 -0.229685 0)
(0.0462794 -0.235624 0)
(0.0419514 -0.241003 0)
(0.0372205 -0.24581 0)
(0.032116 -0.25005 0)
(0.0266696 -0.253739 0)
(0.0209128 -0.256903 0)
(0.0148761 -0.259579 0)
(0.00858799 -0.261809 0)
(0.00207519 -0.263637 0)
(-0.00463801 -0.265113 0)
(-0.0115305 -0.266289 0)
(-0.018585 -0.267216 0)
(-0.0257873 -0.267947 0)
(-0.0331258 -0.26853 0)
(-0.040591 -0.269009 0)
(-0.0481756 -0.269428 0)
(-0.0558735 -0.269823 0)
(-0.0636805 -0.270227 0)
(-0.0715933 -0.270668 0)
(-0.0796092 -0.271169 0)
(-0.0877264 -0.271746 0)
(-0.0959429 -0.272412 0)
(-0.104257 -0.273172 0)
(-0.112665 -0.274026 0)
(-0.121165 -0.274968 0)
(-0.129751 -0.275985 0)
(-0.138414 -0.277059 0)
(-0.147144 -0.278163 0)
(-0.155924 -0.279266 0)
(-0.16473 -0.280327 0)
(-0.173514 -0.281299 0)
(-0.182198 -0.282123 0)
(-0.190713 -0.282737 0)
(-0.199028 -0.283075 0)
(-0.20708 -0.283019 0)
(-0.214354 -0.282388 0)
(-0.218371 -0.2808 0)
(-0.216138 -0.277823 0)
(-0.208556 -0.273706 0)
(-0.199889 -0.268473 0)
(-0.190841 -0.262106 0)
(-0.181259 -0.254598 0)
(-0.171114 -0.245942 0)
(-0.160476 -0.236173 0)
(-0.149438 -0.225376 0)
(-0.138099 -0.213685 0)
(-0.126569 -0.201291 0)
(-0.115006 -0.188442 0)
(-0.103703 -0.175461 0)
(-0.0931146 -0.162744 0)
(-0.0837936 -0.150733 0)
(-0.0762954 -0.139849 0)
(-0.0710417 -0.130394 0)
(-0.0681631 -0.122432 0)
(-0.0674326 -0.115751 0)
(-0.0683618 -0.109956 0)
(-0.070392 -0.104629 0)
(-0.073041 -0.0994485 0)
(-0.0759599 -0.0942127 0)
(-0.078926 -0.0888156 0)
(-0.0818108 -0.0832122 0)
(-0.0845437 -0.0773915 0)
(-0.0870863 -0.0713592 0)
(-0.0894178 -0.065129 0)
(-0.0915265 -0.0587195 0)
(-0.0934058 -0.0521547 0)
(-0.0950523 -0.0454614 0)
(-0.0964645 -0.0386626 0)
(-0.0976423 -0.031776 0)
(-0.098585 -0.0248256 0)
(-0.0992886 -0.01783 0)
(-0.0997487 -0.0107473 0)
(-0.099985 -0.00356353 0)
(0.0999824 -0.00483927 0)
(0.099716 -0.0144967 0)
(0.0991892 -0.024068 0)
(0.0983863 -0.0335343 0)
(0.0973191 -0.0428901 0)
(0.0959983 -0.0521146 0)
(0.0944338 -0.0611846 0)
(0.0926386 -0.0700804 0)
(0.0906311 -0.0787856 0)
(0.0884372 -0.0872886 0)
(0.0860913 -0.0955849 0)
(0.0836378 -0.103679 0)
(0.0811314 -0.111588 0)
(0.0786355 -0.11934 0)
(0.0762172 -0.126977 0)
(0.0739384 -0.134548 0)
(0.0718442 -0.142106 0)
(0.0699497 -0.149693 0)
(0.0682316 -0.157331 0)
(0.0666257 -0.16501 0)
(0.0650352 -0.172693 0)
(0.0633462 -0.180315 0)
(0.0614452 -0.187793 0)
(0.0592343 -0.195042 0)
(0.0566397 -0.201978 0)
(0.0536152 -0.208529 0)
(0.0501391 -0.214635 0)
(0.04621 -0.220255 0)
(0.0418409 -0.225362 0)
(0.0370547 -0.229946 0)
(0.0318795 -0.234009 0)
(0.0263457 -0.237565 0)
(0.0204837 -0.240639 0)
(0.0143232 -0.243262 0)
(0.00789196 -0.245473 0)
(0.00121612 -0.247312 0)
(-0.00568059 -0.248824 0)
(-0.0127776 -0.250056 0)
(-0.020058 -0.251056 0)
(-0.0275079 -0.25187 0)
(-0.0351155 -0.252542 0)
(-0.0428714 -0.253113 0)
(-0.050768 -0.253621 0)
(-0.0587992 -0.254099 0)
(-0.0669601 -0.254577 0)
(-0.075247 -0.255078 0)
(-0.0836567 -0.255622 0)
(-0.0921862 -0.256223 0)
(-0.100833 -0.25689 0)
(-0.109592 -0.257627 0)
(-0.118461 -0.258429 0)
(-0.127433 -0.25929 0)
(-0.1365 -0.260194 0)
(-0.145651 -0.26112 0)
(-0.154869 -0.262041 0)
(-0.164135 -0.262922 0)
(-0.173416 -0.263724 0)
(-0.18265 -0.264397 0)
(-0.191755 -0.264886 0)
(-0.200674 -0.265135 0)
(-0.209416 -0.265107 0)
(-0.21781 -0.264783 0)
(-0.224392 -0.264068 0)
(-0.226556 -0.262184 0)
(-0.222561 -0.258289 0)
(-0.214262 -0.253461 0)
(-0.20498 -0.247754 0)
(-0.195228 -0.241083 0)
(-0.184903 -0.233424 0)
(-0.174006 -0.224782 0)
(-0.162629 -0.215208 0)
(-0.150884 -0.204794 0)
(-0.13889 -0.193679 0)
(-0.126779 -0.18205 0)
(-0.11475 -0.170147 0)
(-0.103151 -0.158277 0)
(-0.0924704 -0.146803 0)
(-0.0832622 -0.136114 0)
(-0.0760449 -0.126557 0)
(-0.0711595 -0.11834 0)
(-0.0686333 -0.111445 0)
(-0.0681567 -0.105623 0)
(-0.069212 -0.1005 0)
(-0.071257 -0.0957195 0)
(-0.0738465 -0.0910205 0)
(-0.0766669 -0.0862451 0)
(-0.0795215 -0.0813126 0)
(-0.0822969 -0.0761898 0)
(-0.0849302 -0.0708694 0)
(-0.0873862 -0.0653565 0)
(-0.0896446 -0.0596628 0)
(-0.0916933 -0.0538041 0)
(-0.0935246 -0.0478009 0)
(-0.0951337 -0.0416771 0)
(-0.0965176 -0.0354533 0)
(-0.0976746 -0.0291451 0)
(-0.0986028 -0.0227746 0)
(-0.0992968 -0.01636 0)
(-0.0997513 -0.00986262 0)
(-0.0999851 -0.00327005 0)
(0.0999823 -0.00449347 0)
(0.0997127 -0.013462 0)
(0.0991794 -0.0223505 0)
(0.0983667 -0.0311404 0)
(0.097287 -0.0398262 0)
(0.0959518 -0.0483881 0)
(0.0943714 -0.0568042 0)
(0.0925598 -0.0650557 0)
(0.0905362 -0.0731277 0)
(0.0883273 -0.0810095 0)
(0.0859683 -0.0886972 0)
(0.0835043 -0.096196 0)
(0.0809908 -0.103522 0)
(0.0784914 -0.110703 0)
(0.0760735 -0.117779 0)
(0.0737987 -0.124798 0)
(0.0717114 -0.131809 0)
(0.0698259 -0.138852 0)
(0.0681172 -0.145947 0)
(0.0665195 -0.153088 0)
(0.0649346 -0.160238 0)
(0.063247 -0.167338 0)
(0.0613422 -0.174312 0)
(0.0591212 -0.18108 0)
(0.0565096 -0.187564 0)
(0.0534601 -0.193697 0)
(0.0499501 -0.199426 0)
(0.0459772 -0.204711 0)
(0.0415533 -0.209527 0)
(0.0367003 -0.213863 0)
(0.031445 -0.217722 0)
(0.0258169 -0.221117 0)
(0.0198456 -0.224068 0)
(0.0135596 -0.226605 0)
(0.00698632 -0.228762 0)
(0.000151184 -0.230575 0)
(-0.00692251 -0.232087 0)
(-0.0142147 -0.233338 0)
(-0.021709 -0.234372 0)
(-0.0293915 -0.235232 0)
(-0.0372507 -0.235956 0)
(-0.0452768 -0.236582 0)
(-0.0534621 -0.237143 0)
(-0.0618001 -0.237669 0)
(-0.0702854 -0.238185 0)
(-0.0789134 -0.238713 0)
(-0.0876799 -0.239269 0)
(-0.0965808 -0.239865 0)
(-0.105611 -0.240506 0)
(-0.114766 -0.241194 0)
(-0.124039 -0.241924 0)
(-0.13342 -0.242687 0)
(-0.142899 -0.243466 0)
(-0.152458 -0.244241 0)
(-0.162078 -0.244982 0)
(-0.171731 -0.245658 0)
(-0.181376 -0.246227 0)
(-0.190941 -0.246643 0)
(-0.200339 -0.246853 0)
(-0.20958 -0.2468 0)
(-0.218796 -0.246452 0)
(-0.227622 -0.245831 0)
(-0.233206 -0.244856 0)
(-0.232896 -0.242389 0)
(-0.226839 -0.238124 0)
(-0.218105 -0.233017 0)
(-0.208491 -0.227147 0)
(-0.198235 -0.220436 0)
(-0.187319 -0.212862 0)
(-0.175821 -0.204446 0)
(-0.163857 -0.195246 0)
(-0.15156 -0.18536 0)
(-0.139065 -0.174928 0)
(-0.126525 -0.164127 0)
(-0.114183 -0.153187 0)
(-0.10243 -0.142394 0)
(-0.0917788 -0.132076 0)
(-0.0827757 -0.122572 0)
(-0.0758965 -0.114164 0)
(-0.0714025 -0.106992 0)
(-0.0692281 -0.100985 0)
(-0.0689978 -0.0958829 0)
(-0.0701755 -0.0913447 0)
(-0.0722383 -0.0870636 0)
(-0.0747744 -0.0828237 0)
(-0.0775017 -0.0784976 0)
(-0.0802465 -0.0740213 0)
(-0.08291 -0.069369 0)
(-0.0854368 -0.0645354 0)
(-0.087796 -0.0595257 0)
(-0.0899688 -0.0543498 0)
(-0.0919436 -0.0490217 0)
(-0.0937125 -0.0435599 0)
(-0.0952698 -0.0379859 0)
(-0.0966117 -0.0323185 0)
(-0.0977356 -0.0265718 0)
(-0.0986385 -0.020766 0)
(-0.0993144 -0.0149186 0)
(-0.0997575 -0.00899443 0)
(-0.0999856 -0.00298196 0)
(0.0999821 -0.00414429 0)
(0.0997099 -0.012417 0)
(0.0991714 -0.0206161 0)
(0.098351 -0.0287239 0)
(0.0972613 -0.0367351 0)
(0.0959142 -0.0446312 0)
(0.0943206 -0.0523917 0)
(0.0924949 -0.0599993 0)
(0.0904569 -0.0674402 0)
(0.0882339 -0.0747046 0)
(0.0858618 -0.0817894 0)
(0.0833864 -0.0886997 0)
(0.0808636 -0.095451 0)
(0.0783579 -0.10207 0)
(0.0759366 -0.108593 0)
(0.0736614 -0.115066 0)
(0.0715761 -0.121534 0)
(0.0696938 -0.128036 0)
(0.067988 -0.134589 0)
(0.0663911 -0.141188 0)
(0.0648034 -0.147799 0)
(0.063108 -0.154368 0)
(0.0611892 -0.160825 0)
(0.0589475 -0.167096 0)
(0.0563079 -0.173111 0)
(0.0532224 -0.178808 0)
(0.049668 -0.184137 0)
(0.0456417 -0.189062 0)
(0.0411546 -0.19356 0)
(0.0362278 -0.197622 0)
(0.0308874 -0.201247 0)
(0.0251621 -0.204449 0)
(0.0190807 -0.207246 0)
(0.0126711 -0.209663 0)
(0.00595999 -0.211731 0)
(-0.00102741 -0.213485 0)
(-0.0082683 -0.21496 0)
(-0.0157432 -0.216196 0)
(-0.0234359 -0.21723 0)
(-0.0313327 -0.218101 0)
(-0.0394221 -0.218843 0)
(-0.0476941 -0.219491 0)
(-0.0561406 -0.220073 0)
(-0.0647546 -0.220616 0)
(-0.0735301 -0.221142 0)
(-0.0824616 -0.221669 0)
(-0.0915438 -0.222211 0)
(-0.100771 -0.222778 0)
(-0.110137 -0.223372 0)
(-0.119635 -0.223994 0)
(-0.129256 -0.224638 0)
(-0.138986 -0.225292 0)
(-0.148813 -0.225941 0)
(-0.158715 -0.226563 0)
(-0.168668 -0.22713 0)
(-0.178638 -0.227609 0)
(-0.188577 -0.227959 0)
(-0.198399 -0.228133 0)
(-0.208007 -0.228075 0)
(-0.217497 -0.227725 0)
(-0.226915 -0.227013 0)
(-0.235637 -0.225831 0)
(-0.240108 -0.224092 0)
(-0.237706 -0.221315 0)
(-0.230039 -0.217274 0)
(-0.220889 -0.212363 0)
(-0.210983 -0.20667 0)
(-0.200287 -0.200189 0)
(-0.188885 -0.192929 0)
(-0.176899 -0.184928 0)
(-0.164467 -0.176259 0)
(-0.151738 -0.167024 0)
(-0.13886 -0.157361 0)
(-0.12601 -0.147442 0)
(-0.113469 -0.137483 0)
(-0.101664 -0.127748 0)
(-0.0911198 -0.118533 0)
(-0.082369 -0.11013 0)
(-0.07584 -0.102764 0)
(-0.0717176 -0.0965176 0)
(-0.0698571 -0.0912829 0)
(-0.0698341 -0.0868014 0)
(-0.071107 -0.082767 0)
(-0.0731754 -0.0789204 0)
(-0.0756586 -0.0750854 0)
(-0.0783012 -0.0711606 0)
(-0.0809482 -0.0670962 0)
(-0.0835118 -0.0628727 0)
(-0.0859429 -0.0584868 0)
(-0.0882133 -0.0539434 0)
(-0.0903059 -0.049251 0)
(-0.0922096 -0.044422 0)
(-0.0939164 -0.0394725 0)
(-0.0954206 -0.0344219 0)
(-0.096718 -0.0292868 0)
(-0.0978055 -0.0240795 0)
(-0.0986799 -0.0188183 0)
(-0.099335 -0.0135195 0)
(-0.0997647 -0.00815089 0)
(-0.099986 -0.00270198 0)
(0.099982 -0.00379215 0)
(0.0997078 -0.011363 0)
(0.0991653 -0.0188668 0)
(0.0983389 -0.0262869 0)
(0.0972414 -0.0336183 0)
(0.0958848 -0.040844 0)
(0.0942805 -0.0479447 0)
(0.0924431 -0.0549048 0)
(0.0903929 -0.0617115 0)
(0.0881575 -0.068356 0)
(0.0857734 -0.0748356 0)
(0.0832869 -0.0811554 0)
(0.0807545 -0.0873298 0)
(0.0782408 -0.0933838 0)
(0.0758136 -0.0993521 0)
(0.0735342 -0.105277 0)
(0.0714461 -0.1112 0)
(0.0695612 -0.117156 0)
(0.0678518 -0.123163 0)
(0.0662487 -0.129216 0)
(0.0646507 -0.135283 0)
(0.0629397 -0.141314 0)
(0.0609992 -0.147246 0)
(0.0587292 -0.153012 0)
(0.0560542 -0.158546 0)
(0.0529261 -0.163793 0)
(0.0493215 -0.168708 0)
(0.0452368 -0.173256 0)
(0.0406829 -0.177418 0)
(0.0356802 -0.181184 0)
(0.0302543 -0.184554 0)
(0.0244331 -0.187539 0)
(0.0182449 -0.190156 0)
(0.0117172 -0.192428 0)
(0.00487607 -0.194382 0)
(-0.00225332 -0.196048 0)
(-0.00964855 -0.19746 0)
(-0.0172907 -0.198652 0)
(-0.0251638 -0.199658 0)
(-0.0332541 -0.200512 0)
(-0.0415499 -0.201247 0)
(-0.0500411 -0.20189 0)
(-0.058719 -0.202468 0)
(-0.0675762 -0.203004 0)
(-0.0766059 -0.203518 0)
(-0.0858014 -0.204024 0)
(-0.0951563 -0.204534 0)
(-0.104664 -0.205056 0)
(-0.114315 -0.205591 0)
(-0.124101 -0.206138 0)
(-0.134009 -0.206691 0)
(-0.144025 -0.207237 0)
(-0.154129 -0.207761 0)
(-0.164297 -0.208241 0)
(-0.174496 -0.208651 0)
(-0.184684 -0.208958 0)
(-0.194797 -0.209124 0)
(-0.204731 -0.2091 0)
(-0.214389 -0.208835 0)
(-0.223756 -0.208277 0)
(-0.232856 -0.207343 0)
(-0.241066 -0.205827 0)
(-0.245302 -0.203589 0)
(-0.242378 -0.200674 0)
(-0.233695 -0.196822 0)
(-0.223717 -0.192146 0)
(-0.213154 -0.186728 0)
(-0.201906 -0.180583 0)
(-0.189995 -0.173741 0)
(-0.177545 -0.166254 0)
(-0.164698 -0.158198 0)
(-0.151607 -0.149677 0)
(-0.138425 -0.140824 0)
(-0.125347 -0.1318 0)
(-0.112687 -0.122807 0)
(-0.100898 -0.114086 0)
(-0.0905086 -0.1059 0)
(-0.0820323 -0.0984983 0)
(-0.075849 -0.0920586 0)
(-0.0720736 -0.0866196 0)
(-0.0704944 -0.0820539 0)
(-0.0706514 -0.0781147 0)
(-0.0720036 -0.074532 0)
(-0.0740733 -0.0710869 0)
(-0.0765071 -0.0676348 0)
(-0.0790724 -0.0640943 0)
(-0.08163 -0.060426 0)
(-0.0841017 -0.056615 0)
(-0.0864436 -0.0526594 0)
(-0.0886302 -0.0485637 0)
(-0.090646 -0.0443356 0)
(-0.0924805 -0.0399855 0)
(-0.0941261 -0.0355281 0)
(-0.095577 -0.0309806 0)
(-0.0968291 -0.0263578 0)
(-0.0978792 -0.0216704 0)
(-0.0987239 -0.0169347 0)
(-0.0993569 -0.0121656 0)
(-0.0997724 -0.00733415 0)
(-0.0999865 -0.00243083 0)
(0.0999819 -0.00343775 0)
(0.099706 -0.0103019 0)
(0.0991601 -0.0171059 0)
(0.0983285 -0.0238339 0)
(0.0972241 -0.0304814 0)
(0.0958592 -0.0370329 0)
(0.0942453 -0.0434707 0)
(0.0923972 -0.0497806 0)
(0.0903356 -0.055951 0)
(0.0880884 -0.061974 0)
(0.0856926 -0.0678472 0)
(0.0831948 -0.0735756 0)
(0.080652 -0.0791726 0)
(0.0781292 -0.0846613 0)
(0.0756944 -0.0900736 0)
(0.0734088 -0.095448 0)
(0.0713153 -0.100823 0)
(0.0694249 -0.106231 0)
(0.0677086 -0.111688 0)
(0.0660957 -0.117187 0)
(0.0644836 -0.122703 0)
(0.0627532 -0.128188 0)
(0.0607872 -0.133586 0)
(0.0584851 -0.138835 0)
(0.0557714 -0.143877 0)
(0.0525978 -0.148661 0)
(0.0489408 -0.153146 0)
(0.0447965 -0.157302 0)
(0.0401756 -0.16111 0)
(0.035098 -0.164561 0)
(0.029589 -0.167656 0)
(0.0236761 -0.170404 0)
(0.0173872 -0.17282 0)
(0.0107492 -0.174924 0)
(0.00378768 -0.176741 0)
(-0.00347164 -0.178297 0)
(-0.0110065 -0.179622 0)
(-0.0187992 -0.180747 0)
(-0.0268336 -0.181703 0)
(-0.0350957 -0.182519 0)
(-0.0435736 -0.183224 0)
(-0.052257 -0.183842 0)
(-0.0611368 -0.184397 0)
(-0.0702049 -0.184908 0)
(-0.0794537 -0.185393 0)
(-0.0888755 -0.185864 0)
(-0.0984627 -0.186332 0)
(-0.108207 -0.1868 0)
(-0.118098 -0.18727 0)
(-0.128124 -0.187741 0)
(-0.138272 -0.188205 0)
(-0.148524 -0.18865 0)
(-0.158857 -0.189062 0)
(-0.169243 -0.189421 0)
(-0.179646 -0.189702 0)
(-0.190019 -0.189878 0)
(-0.200282 -0.189914 0)
(-0.210327 -0.189773 0)
(-0.220055 -0.189414 0)
(-0.229414 -0.188811 0)
(-0.238308 -0.187944 0)
(-0.245891 -0.186659 0)
(-0.249188 -0.184515 0)
(-0.245362 -0.181287 0)
(-0.236082 -0.177314 0)
(-0.225571 -0.172725 0)
(-0.214539 -0.167531 0)
(-0.20287 -0.161724 0)
(-0.190573 -0.15533 0)
(-0.177768 -0.148397 0)
(-0.164606 -0.140995 0)
(-0.151243 -0.133221 0)
(-0.137838 -0.125195 0)
(-0.124607 -0.117067 0)
(-0.111893 -0.109019 0)
(-0.100168 -0.101269 0)
(-0.0899601 -0.0940485 0)
(-0.0817609 -0.0875676 0)
(-0.0759036 -0.0819633 0)
(-0.0724402 -0.0772425 0)
(-0.0711045 -0.0732684 0)
(-0.0714115 -0.0698126 0)
(-0.072826 -0.0666399 0)
(-0.0748921 -0.0635668 0)
(-0.0772799 -0.0604753 0)
(-0.0797762 -0.0572998 0)
(-0.0822549 -0.0540094 0)
(-0.0846454 -0.0505928 0)
(-0.0869079 -0.047049 0)
(-0.0890195 -0.0433823 0)
(-0.0909657 -0.0395991 0)
(-0.0927369 -0.0357089 0)
(-0.0943258 -0.0317243 0)
(-0.0957269 -0.0276607 0)
(-0.0969362 -0.0235311 0)
(-0.0979506 -0.0193446 0)
(-0.0987666 -0.0151156 0)
(-0.0993783 -0.0108576 0)
(-0.0997799 -0.00654472 0)
(-0.0999869 -0.00216868 0)
(0.0999819 -0.00308131 0)
(0.0997044 -0.00923468 0)
(0.0991555 -0.0153345 0)
(0.0983193 -0.0213664 0)
(0.0972088 -0.027326 0)
(0.0958365 -0.0331994 0)
(0.0942139 -0.0389707 0)
(0.092356 -0.0446271 0)
(0.0902838 -0.0501582 0)
(0.0880256 -0.0555568 0)
(0.0856184 -0.0608212 0)
(0.0831095 -0.0659557 0)
(0.0805562 -0.0709728 0)
(0.0780238 -0.0758935 0)
(0.0755804 -0.0807469 0)
(0.0732872 -0.0855676 0)
(0.0711866 -0.0903911 0)
(0.0692888 -0.0952458 0)
(0.0675634 -0.100146 0)
(0.0659385 -0.105087 0)
(0.0643101 -0.110044 0)
(0.0625582 -0.114976 0)
(0.060565 -0.11983 0)
(0.0582296 -0.124553 0)
(0.0554764 -0.129092 0)
(0.0522571 -0.133402 0)
(0.0485481 -0.137445 0)
(0.0443456 -0.141195 0)
(0.0396601 -0.144635 0)
(0.0345113 -0.147757 0)
(0.0289241 -0.150561 0)
(0.0229258 -0.153055 0)
(0.016544 -0.155253 0)
(0.00980535 -0.157172 0)
(0.00273577 -0.158833 0)
(-0.00464014 -0.160261 0)
(-0.0123003 -0.161482 0)
(-0.0202264 -0.162522 0)
(-0.0284024 -0.16341 0)
(-0.0368147 -0.164171 0)
(-0.045451 -0.164828 0)
(-0.0543005 -0.165406 0)
(-0.0633539 -0.165923 0)
(-0.0726022 -0.166398 0)
(-0.082037 -0.166843 0)
(-0.09165 -0.16727 0)
(-0.101432 -0.167687 0)
(-0.111374 -0.168098 0)
(-0.121463 -0.168503 0)
(-0.131687 -0.168899 0)
(-0.14203 -0.169278 0)
(-0.152472 -0.169631 0)
(-0.162988 -0.169943 0)
(-0.173549 -0.170195 0)
(-0.184116 -0.170365 0)
(-0.194637 -0.170429 0)
(-0.20503 -0.170359 0)
(-0.215185 -0.170123 0)
(-0.225039 -0.169693 0)
(-0.234603 -0.169066 0)
(-0.243677 -0.168264 0)
(-0.250356 -0.167207 0)
(-0.251914 -0.165253 0)
(-0.246775 -0.161931 0)
(-0.237236 -0.158014 0)
(-0.226551 -0.153641 0)
(-0.215265 -0.148776 0)
(-0.203315 -0.143398 0)
(-0.190742 -0.137529 0)
(-0.177681 -0.131211 0)
(-0.16429 -0.124509 0)
(-0.150728 -0.117511 0)
(-0.137167 -0.110325 0)
(-0.123841 -0.103086 0)
(-0.11112 -0.0959598 0)
(-0.0994887 -0.0891385 0)
(-0.0894729 -0.0828228 0)
(-0.0815411 -0.0771891 0)
(-0.0759829 -0.0723409 0)
(-0.0727957 -0.0682633 0)
(-0.0716692 -0.0648194 0)
(-0.0721016 -0.0618028 0)
(-0.0735658 -0.0590112 0)
(-0.0756257 -0.0562915 0)
(-0.077972 -0.0535472 0)
(-0.0804077 -0.0507257 0)
(-0.0828173 -0.0478024 0)
(-0.0851364 -0.0447688 0)
(-0.087329 -0.0416245 0)
(-0.0893739 -0.0383733 0)
(-0.091258 -0.0350209 0)
(-0.0929722 -0.0315753 0)
(-0.0945097 -0.0280478 0)
(-0.0958655 -0.024452 0)
(-0.0970355 -0.0207989 0)
(-0.098017 -0.0170965 0)