/*--------------------------------*- C++ -*----------------------------------*\
  =========                 |
  \\      /  F ield         | OpenFOAM: The Open Source CFD Toolbox
   \\    /   O peration     | Website:  https://openfoam.org
    \\  /    A nd           | Version:  8
     \\/     M anipulation  |
\*---------------------------------------------------------------------------*/
FoamFile
{
    version     2.0;
    format      ascii;
    class       volScalarField;
    location    "420/fluid";
    object      CH4;
}
// * * * * * * * * * * * * * * * * * * * * * * * * * * * * * * * * * * * * * //

dimensions      [0 0 0 0 0 0 0];

internalField   nonuniform List<scalar> 
4000
(
0.999997
0.999987
0.99997
0.999942
0.999895
0.999818
0.99969
0.999482
0.999145
0.998608
0.997762
0.99645
0.994456
0.991489
0.987186
0.981121
0.972844
0.961922
0.948008
0.9309
0.910554
0.887085
0.860735
0.831843
0.8008
0.768022
0.733927
0.698921
0.66338
0.627655
0.592055
0.556857
0.522293
0.488561
0.455821
0.424196
0.393787
0.364664
0.336874
0.310442
0.285372
0.261659
0.239283
0.218213
0.19841
0.17983
0.162425
0.146144
0.130933
0.116739
0.10351
0.0911942
0.0797408
0.0691026
0.0592346
0.0500954
0.0416473
0.0338569
0.02687
0.020467
0.0145082
0.00916362
0.0044908
0.0029756
0.00205276
0.00139714
0.000936372
0.000616663
0.000398153
0.000251464
0.000155107
9.35458e-05
5.57348e-05
3.40932e-05
2.35802e-05
1.78479e-05
1.3257e-05
9.37102e-06
6.23136e-06
3.86396e-06
2.22604e-06
1.19534e-06
6.03487e-07
2.90782e-07
1.35802e-07
6.18789e-08
2.76386e-08
1.21435e-08
5.2626e-09
2.25437e-09
9.56298e-10
4.02301e-10
1.68032e-10
6.97234e-11
2.87282e-11
1.17193e-11
4.68967e-12
1.79216e-12
5.98876e-13
1.05006e-13
0.999997
0.999987
0.99997
0.999942
0.999894
0.999816
0.999686
0.999475
0.999133
0.998589
0.997732
0.996409
0.994402
0.991427
0.987125
0.981083
0.972857
0.962025
0.948246
0.931307
0.911151
0.887875
0.861709
0.832976
0.802057
0.769363
0.735311
0.700307
0.664734
0.628946
0.593261
0.557958
0.523277
0.489421
0.456552
0.4248
0.394267
0.365025
0.337119
0.310576
0.285411
0.261613
0.23916
0.218022
0.198159
0.179528
0.162079
0.14576
0.130519
0.116301
0.103053
0.0907235
0.0792614
0.0686192
0.0587521
0.0496192
0.0411843
0.0334166
0.0264679
0.0199496
0.0140249
0.00869299
0.00402047
0.00280217
0.00193131
0.00131336
0.000879277
0.000578205
0.000372576
0.000234713
0.000144357
8.68443e-05
5.17495e-05
3.19641e-05
2.25952e-05
1.71084e-05
1.25871e-05
8.79543e-06
5.77725e-06
3.54235e-06
2.0251e-06
1.08513e-06
5.50007e-07
2.67032e-07
1.25896e-07
5.79435e-08
2.61312e-08
1.15801e-08
5.05458e-09
2.17756e-09
9.27603e-10
3.91351e-10
1.63744e-10
6.80022e-11
2.80249e-11
1.14302e-11
4.57235e-12
1.74668e-12
5.83503e-13
1.02304e-13
0.999997
0.999987
0.99997
0.999941
0.999893
0.999813
0.999681
0.999467
0.999121
0.99857
0.997706
0.996372
0.994356
0.991374
0.987073
0.981041
0.97284
0.962058
0.94836
0.931534
0.911519
0.888405
0.862408
0.833837
0.803064
0.770488
0.73652
0.701564
0.666002
0.630189
0.594448
0.559062
0.524277
0.490301
0.457299
0.425404
0.39472
0.365327
0.337282
0.310615
0.28533
0.261418
0.238861
0.217628
0.197681
0.178975
0.161462
0.145088
0.129801
0.115546
0.102269
0.0899179
0.0784414
0.0677914
0.0579227
0.0487939
0.0403674
0.0326402
0.0257209
0.0192348
0.0133707
0.00812916
0.00359145
0.00251956
0.00174355
0.00118824
0.00079604
0.000523166
0.000336571
0.000211535
0.00012978
7.79934e-05
4.66924e-05
2.94532e-05
2.14317e-05
1.62334e-05
1.18558e-05
8.21423e-06
5.35085e-06
3.25913e-06
1.85624e-06
9.9426e-07
5.05208e-07
2.46212e-07
1.16608e-07
5.39293e-08
2.444e-08
1.08815e-08
4.77016e-09
2.06282e-09
8.81514e-10
3.7284e-10
1.56287e-10
6.49844e-11
2.67995e-11
1.09332e-11
4.37341e-12
1.67039e-12
5.57869e-13
9.77766e-14
0.999997
0.999987
0.999969
0.99994
0.999892
0.999811
0.999679
0.999463
0.999115
0.998561
0.997694
0.996357
0.994339
0.991358
0.987064
0.981051
0.972887
0.96216
0.948534
0.931797
0.911886
0.888883
0.862998
0.834534
0.803854
0.771355
0.737442
0.702514
0.666955
0.63112
0.595331
0.559872
0.524992
0.490899
0.457767
0.425738
0.394925
0.36541
0.337241
0.310447
0.285039
0.261012
0.238348
0.217018
0.196983
0.1782
0.160619
0.144189
0.128854
0.114561
0.101255
0.0888834
0.0773948
0.0667409
0.0568772
0.0477632
0.0393641
0.0317344
0.0248663
0.0184384
0.0126622
0.00756083
0.00328776
0.00230541
0.00159344
0.00108388
0.000724286
0.000474526
0.00030419
0.000190472
0.000116496
6.99947e-05
4.22698e-05
2.74805e-05
2.04743e-05
1.54516e-05
1.11853e-05
7.67053e-06
4.94348e-06
2.98154e-06
1.68528e-06
8.98567e-07
4.55865e-07
2.22362e-07
1.05544e-07
4.89588e-08
2.22637e-08
9.94881e-09
4.37746e-09
1.89984e-09
8.14631e-10
3.45618e-10
1.45269e-10
6.0543e-11
2.50152e-11
1.02207e-11
4.09304e-12
1.56455e-12
5.2274e-13
9.16209e-14
0.999997
0.999987
0.999969
0.99994
0.999891
0.99981
0.999677
0.99946
0.999111
0.998556
0.997686
0.996349
0.99433
0.99135
0.987061
0.981061
0.972919
0.962227
0.94865
0.931976
0.912137
0.889212
0.863406
0.835016
0.8044
0.77195
0.738068
0.703152
0.66758
0.631708
0.59586
0.560325
0.525355
0.491166
0.457938
0.425808
0.394884
0.365249
0.336959
0.310047
0.284527
0.260395
0.237634
0.216215
0.196101
0.177249
0.159608
0.143127
0.127751
0.113426
0.100097
0.0877097
0.0762133
0.0655588
0.0557007
0.0465975
0.0382129
0.0306187
0.023779
0.0173792
0.0116357
0.00655873
0.00315553
0.00219474
0.00150556
0.00101682
0.000674824
0.000439187
0.000279734
0.000174123
0.000106016
6.3673e-05
3.88835e-05
2.61834e-05
1.97632e-05
1.48036e-05
1.06057e-05
7.19283e-06
4.58537e-06
2.73948e-06
1.53774e-06
8.16628e-07
4.13733e-07
2.01939e-07
9.60089e-08
4.46331e-08
2.03454e-08
9.11371e-09
4.01937e-09
1.74821e-09
7.51077e-10
3.19202e-10
1.34365e-10
5.6068e-11
2.31896e-11
9.48215e-12
3.79945e-12
1.45286e-12
4.85482e-13
8.50738e-14
0.999997
0.999987
0.999969
0.99994
0.999891
0.99981
0.999676
0.999459
0.999109
0.998553
0.997684
0.996346
0.994328
0.991351
0.98707
0.981082
0.972959
0.962293
0.94875
0.932116
0.912322
0.889444
0.863683
0.835332
0.804745
0.772311
0.738431
0.7035
0.667899
0.631985
0.596084
0.560489
0.525452
0.491185
0.457862
0.425627
0.394595
0.364852
0.336456
0.309442
0.283825
0.259603
0.236759
0.215265
0.195085
0.176175
0.158486
0.141965
0.126559
0.112212
0.0988682
0.0864748
0.0749793
0.0643322
0.0544874
0.0454029
0.0370419
0.0295007
0.0227198
0.0163777
0.0106786
0.00563983
0.00310125
0.00213447
0.00144982
0.000970169
0.000638317
0.000412073
0.000260492
0.000161061
9.75803e-05
5.8591e-05
3.62503e-05
2.53261e-05
1.9165e-05
1.42142e-05
1.00713e-05
6.75354e-06
4.25859e-06
2.52012e-06
1.40434e-06
7.42247e-07
3.75112e-07
1.83023e-07
8.70744e-08
4.05338e-08
1.85091e-08
8.30747e-09
3.67136e-09
1.60012e-09
6.88806e-10
2.93272e-10
1.23652e-10
5.16711e-11
2.13965e-11
8.75723e-12
3.51142e-12
1.34332e-12
4.48944e-13
7.86532e-14
0.999997
0.999986
0.999969
0.99994
0.999891
0.999809
0.999676
0.999458
0.999108
0.998552
0.997682
0.996345
0.994328
0.991354
0.987077
0.981097
0.972986
0.962336
0.948814
0.932204
0.912434
0.88958
0.863838
0.835501
0.80492
0.772483
0.73859
0.703637
0.668009
0.632057
0.596106
0.560445
0.525329
0.490974
0.457559
0.42523
0.394104
0.364267
0.335781
0.308681
0.282982
0.258685
0.235773
0.214219
0.193987
0.175033
0.157309
0.140761
0.125336
0.110977
0.0976302
0.0852404
0.0737554
0.0631252
0.0533029
0.0442456
0.0359299
0.02846
0.0217089
0.01538
0.00971315
0.00476844
0.00302169
0.00205606
0.00138356
0.000918473
0.000600063
0.000384915
0.00024192
0.000148836
8.9888e-05
5.40519e-05
3.39185e-05
2.43205e-05
1.84414e-05
1.35869e-05
9.54849e-06
6.3466e-06
3.96731e-06
2.33008e-06
1.29111e-06
6.79942e-07
3.42988e-07
1.67315e-07
7.96402e-08
3.71061e-08
1.69627e-08
7.62274e-09
3.37303e-09
1.47196e-09
6.34411e-10
2.70422e-10
1.14138e-10
4.77393e-11
1.97837e-11
8.10204e-12
3.25006e-12
1.24362e-12
4.15611e-13
7.27965e-14
0.999997
0.999986
0.999969
0.99994
0.99989
0.999809
0.999675
0.999458
0.999108
0.998552
0.997682
0.996345
0.994329
0.991357
0.987083
0.981108
0.973003
0.962362
0.948849
0.932249
0.912489
0.889642
0.863904
0.835566
0.80498
0.772532
0.738619
0.703637
0.667964
0.631956
0.595941
0.56021
0.525018
0.490583
0.457087
0.424675
0.393467
0.363551
0.334988
0.307816
0.282051
0.257694
0.234728
0.213128
0.192857
0.173872
0.156124
0.139561
0.124127
0.109767
0.0964265
0.0840498
0.0725849
0.061982
0.0521951
0.0431826
0.0348937
0.0274836
0.0207523
0.0144651
0.00883949
0.00395686
0.00274093
0.00187611
0.00126695
0.000842627
0.000550868
0.000353293
0.000221902
0.000136457
8.25044e-05
4.99244e-05
3.19417e-05
2.34277e-05
1.77755e-05
1.3033e-05
9.10124e-06
6.00587e-06
3.72695e-06
2.17467e-06
1.19885e-06
6.29121e-07
3.16652e-07
1.54357e-07
7.3462e-08
3.42359e-08
1.56584e-08
7.0413e-09
3.11817e-09
1.36188e-09
5.87472e-10
2.50626e-10
1.05866e-10
4.43114e-11
1.83743e-11
7.52834e-12
3.02084e-12
1.15605e-12
3.86288e-13
6.7664e-14
0.999997
0.999986
0.999969
0.999939
0.99989
0.999809
0.999675
0.999458
0.999108
0.998551
0.997682
0.996345
0.994329
0.991358
0.987086
0.981112
0.97301
0.962372
0.948862
0.932264
0.912505
0.889657
0.863913
0.835563
0.804957
0.77248
0.73853
0.703503
0.667779
0.631714
0.595636
0.559838
0.524576
0.490069
0.4565
0.424017
0.392738
0.362754
0.334128
0.306897
0.281079
0.256674
0.233668
0.212034
0.191736
0.172731
0.15497
0.138399
0.122966
0.108613
0.0952844
0.0829263
0.0714856
0.0609123
0.0511599
0.0421862
0.0339724
0.0266908
0.0198617
0.0137035
0.00822289
0.00353057
0.00246612
0.00169912
0.00115323
0.000769897
0.000504712
0.00032434
0.000204046
0.000125719
7.63139e-05
4.66494e-05
3.05708e-05
2.28368e-05
1.73155e-05
1.2636e-05
8.77267e-06
5.75087e-06
3.54456e-06
2.05555e-06
1.12757e-06
5.89558e-07
2.95984e-07
1.44106e-07
6.85347e-08
3.19279e-08
1.46011e-08
6.56638e-09
2.9085e-09
1.27072e-09
5.4837e-10
2.34047e-10
9.89081e-11
4.14166e-11
1.71801e-11
7.04098e-12
2.82571e-12
1.08139e-12
3.6126e-13
6.32834e-14
0.999997
0.999986
0.999969
0.999939
0.99989
0.999809
0.999675
0.999458
0.999107
0.998551
0.997681
0.996344
0.994329
0.991357
0.987085
0.981112
0.973009
0.962369
0.948857
0.932254
0.912486
0.889624
0.863862
0.835488
0.804852
0.772339
0.738348
0.703274
0.667498
0.631377
0.595239
0.559378
0.524052
0.489481
0.455847
0.423301
0.391963
0.361922
0.333244
0.305966
0.280106
0.255665
0.232629
0.210971
0.190655
0.171639
0.153872
0.137303
0.121875
0.107534
0.0942232
0.0818874
0.0704741
0.0599334
0.0502192
0.0412904
0.0331751
0.0259473
0.0191721
0.013101
0.00774142
0.00329565
0.0023027
0.00158758
0.00107841
0.00072056
0.000472751
0.000304044
0.00019147
0.000118191
7.20666e-05
4.45669e-05
2.99628e-05
2.26451e-05
1.71315e-05
1.2438e-05
8.57765e-06
5.58288e-06
3.41686e-06
1.96889e-06
1.07436e-06
5.59454e-07
2.80013e-07
1.36089e-07
6.46397e-08
3.00866e-08
1.37509e-08
6.18179e-09
2.73767e-09
1.19606e-09
5.16197e-10
2.20354e-10
9.31415e-11
3.90108e-11
1.61855e-11
6.63431e-12
2.66266e-12
1.01894e-12
3.40311e-13
5.96174e-14
0.999997
0.999986
0.999969
0.999939
0.99989
0.999809
0.999675
0.999457
0.999107
0.998551
0.99768
0.996343
0.994327
0.991355
0.987081
0.981105
0.972998
0.962353
0.948832
0.932217
0.912434
0.889553
0.863767
0.835364
0.804694
0.772143
0.738108
0.702986
0.667158
0.630983
0.594788
0.55887
0.523486
0.488857
0.455168
0.422568
0.391179
0.361092
0.332371
0.305055
0.279163
0.254695
0.231638
0.209964
0.189639
0.170617
0.152851
0.136288
0.120871
0.106545
0.0932529
0.0809404
0.0695539
0.0590433
0.0493621
0.0404685
0.0323988
0.0252145
0.0184687
0.0124146
0.00706134
0.00319597
0.00222808
0.00153352
0.00104034
0.000694456
0.000455326
0.000292747
0.000184399
0.000113981
6.97793e-05
4.35911e-05
2.99168e-05
2.27576e-05
1.71506e-05
1.23867e-05
8.49106e-06
5.48601e-06
3.33332e-06
1.90829e-06
1.03567e-06
5.3699e-07
2.67872e-07
1.29912e-07
6.1606e-08
2.86392e-08
1.30772e-08
5.87494e-09
2.60057e-09
1.13582e-09
4.90126e-10
2.09215e-10
8.84359e-11
3.70427e-11
1.53701e-11
6.30037e-12
2.52857e-12
9.67505e-13
3.23107e-13
5.66028e-14
0.999997
0.999986
0.999969
0.999939
0.99989
0.999809
0.999675
0.999457
0.999106
0.99855
0.997679
0.996341
0.994324
0.99135
0.987073
0.981093
0.972981
0.962327
0.948795
0.932165
0.912363
0.889458
0.863645
0.83521
0.804505
0.771913
0.737835
0.702666
0.666789
0.630563
0.594316
0.558346
0.52291
0.488231
0.454493
0.421848
0.390416
0.360291
0.331536
0.304191
0.278274
0.253787
0.230715
0.209032
0.188702
0.169681
0.15192
0.135366
0.119962
0.105653
0.0923814
0.0800921
0.0687316
0.0582493
0.048598
0.0397354
0.0317018
0.0245529
0.0178458
0.0118284
0.00650079
0.00316247
0.00219971
0.00151137
0.00102399
0.000682921
0.000447513
0.000287677
0.000181281
0.000112222
6.89721e-05
4.34923e-05
3.04469e-05
2.31933e-05
1.73803e-05
1.24677e-05
8.48497e-06
5.44397e-06
3.28359e-06
1.86779e-06
1.00826e-06
5.20528e-07
2.58769e-07
1.2521e-07
5.9269e-08
2.75133e-08
1.2549e-08
5.63275e-09
2.49174e-09
1.08779e-09
4.69251e-10
2.00266e-10
8.46448e-11
3.54534e-11
1.47106e-11
6.02996e-12
2.41993e-12
9.25823e-13
3.09181e-13
5.41583e-14
0.999997
0.999986
0.999969
0.999939
0.99989
0.999809
0.999675
0.999457
0.999106
0.998549
0.997678
0.996339
0.99432
0.991344
0.987064
0.981079
0.972959
0.962295
0.94875
0.932103
0.912281
0.889351
0.863509
0.835042
0.804301
0.77167
0.73755
0.702337
0.666415
0.630142
0.593848
0.557831
0.52235
0.487628
0.453849
0.421165
0.389699
0.359543
0.330761
0.303393
0.277458
0.252957
0.229876
0.208189
0.187858
0.168841
0.151087
0.134544
0.119155
0.104863
0.0916123
0.079346
0.0680106
0.0575553
0.0479328
0.0391018
0.0311101
0.0239944
0.0173143
0.0113221
0.00602412
0.00313312
0.00218094
0.00149932
0.00101634
0.000678184
0.000444689
0.000286083
0.000180477
0.000111941
6.90725e-05
4.39332e-05
3.12312e-05
2.37798e-05
1.77217e-05
1.26317e-05
8.53751e-06
5.43902e-06
3.25953e-06
1.84265e-06
9.89651e-07
5.08837e-07
2.52121e-07
1.21712e-07
5.75063e-08
2.66549e-08
1.21428e-08
5.44514e-09
2.40693e-09
1.05016e-09
4.5283e-10
1.93201e-10
8.16425e-11
3.41917e-11
1.41859e-11
5.81455e-12
2.33329e-12
8.92629e-13
2.98082e-13
5.22091e-14
0.999997
0.999986
0.999969
0.999939
0.99989
0.999809
0.999675
0.999456
0.999105
0.998548
0.997676
0.996336
0.994316
0.991337
0.987054
0.981063
0.972935
0.962261
0.948701
0.932038
0.912194
0.889241
0.863371
0.834872
0.804097
0.77143
0.737271
0.702018
0.666054
0.629739
0.593405
0.557347
0.521827
0.487068
0.453254
0.420539
0.389044
0.358863
0.33006
0.302675
0.276727
0.252217
0.229131
0.207442
0.187114
0.168102
0.150358
0.133826
0.118452
0.104178
0.0909464
0.0787017
0.0673897
0.0569595
0.047365
0.0385631
0.0306039
0.0235112
0.0168564
0.0108924
0.00562896
0.00311121
0.00216868
0.00149294
0.00101343
0.000677177
0.000444671
0.000286537
0.00018112
0.000112642
6.97975e-05
4.47132e-05
3.2093e-05
2.44229e-05
1.81186e-05
1.28444e-05
8.6292e-06
5.46304e-06
3.2544e-06
1.83033e-06
9.784e-07
5.01104e-07
2.47515e-07
1.19223e-07
5.62273e-08
2.60226e-08
1.18399e-08
5.30391e-09
2.34258e-09
1.02142e-09
4.40216e-10
1.87749e-10
7.93172e-11
3.32114e-11
1.37773e-11
5.6465e-12
2.26571e-12
8.66712e-13
2.89416e-13
5.06884e-14
0.999997
0.999986
0.999969
0.999939
0.99989
0.999808
0.999674
0.999456
0.999105
0.998547
0.997675
0.996334
0.994312
0.99133
0.987043
0.981046
0.972911
0.962226
0.948654
0.931973
0.91211
0.889133
0.863237
0.834711
0.803904
0.771204
0.73701
0.701722
0.665722
0.629371
0.593001
0.556909
0.521357
0.486566
0.452724
0.419983
0.388465
0.358265
0.329446
0.302048
0.276091
0.251575
0.228487
0.206798
0.186474
0.167469
0.149734
0.133215
0.117854
0.103596
0.0903828
0.0781577
0.0668673
0.0564617
0.0468915
0.03811
0.0301778
0.023109
0.0164768
0.0105344
0.00531169
0.00309204
0.00215978
0.00148988
0.00101344
0.000678624
0.000446615
0.00028848
0.000182843
0.000114092
7.10174e-05
4.57999e-05
3.31075e-05
2.51569e-05
1.85826e-05
1.31075e-05
8.75774e-06
5.51301e-06
3.26614e-06
1.82803e-06
9.73375e-07
4.96774e-07
2.44634e-07
1.17584e-07
5.53551e-08
2.55804e-08
1.1624e-08
5.20175e-09
2.29548e-09
1.00019e-09
4.30827e-10
1.83666e-10
7.75669e-11
3.24707e-11
1.34677e-11
5.51905e-12
2.21443e-12
8.4705e-13
2.8283e-13
4.95344e-14
0.999997
0.999986
0.999969
0.999939
0.99989
0.999808
0.999674
0.999456
0.999104
0.998546
0.997673
0.996331
0.994308
0.991324
0.987033
0.981031
0.972889
0.962195
0.94861
0.931914
0.912033
0.889036
0.863117
0.834565
0.803731
0.771003
0.73678
0.701461
0.66543
0.62905
0.59265
0.55653
0.52095
0.486135
0.45227
0.419508
0.387973
0.357757
0.328926
0.301519
0.275555
0.251036
0.227947
0.206261
0.185941
0.166943
0.149217
0.132708
0.117361
0.103117
0.0899203
0.0777138
0.0664431
0.0560549
0.0464998
0.0377369
0.0298317
0.0227837
0.0161715
0.0102491
0.00506168
0.00307604
0.0021539
0.00148957
0.00101584
0.000682047
0.000450123
0.000291616
0.000185441
0.000116158
7.26506e-05
4.71426e-05
3.42534e-05
2.5974e-05
1.91076e-05
1.34152e-05
8.91843e-06
5.58528e-06
3.29253e-06
1.8345e-06
9.73043e-07
4.95106e-07
2.43169e-07
1.1665e-07
5.48198e-08
2.52952e-08
1.14799e-08
5.13181e-09
2.26263e-09
9.85171e-10
4.24116e-10
1.80724e-10
7.62985e-11
3.19323e-11
1.32425e-11
5.42625e-12
2.17701e-12
8.32689e-13
2.78011e-13
4.86906e-14
0.999997
0.999986
0.999969
0.999939
0.99989
0.999808
0.999674
0.999455
0.999104
0.998545
0.997672
0.996329
0.994304
0.991318
0.987024
0.981018
0.972869
0.962167
0.948572
0.931864
0.911967
0.888953
0.863015
0.834442
0.803586
0.770834
0.736587
0.701243
0.665188
0.628783
0.59236
0.556218
0.520617
0.485782
0.451899
0.419122
0.387573
0.357346
0.328505
0.301092
0.275125
0.250603
0.227515
0.205831
0.185515
0.166524
0.148806
0.132307
0.116972
0.102741
0.0895589
0.0773666
0.0661088
0.0557337
0.0461946
0.0374479
0.02956
0.0225273
0.0159273
0.0100132
0.00484283
0.00306214
0.00215051
0.00149162
0.00102031
0.000687179
0.000454982
0.000295778
0.000188792
0.000118755
7.46392e-05
4.87048e-05
3.55013e-05
2.68522e-05
1.96757e-05
1.37542e-05
9.10191e-06
5.67367e-06
3.32971e-06
1.84771e-06
9.76597e-07
4.95412e-07
2.42739e-07
1.16215e-07
5.45295e-08
2.51273e-08
1.13906e-08
5.08695e-09
2.24107e-09
9.75154e-10
4.19596e-10
1.78732e-10
7.54376e-11
3.15658e-11
1.30885e-11
5.36247e-12
2.1512e-12
8.22753e-13
2.7467e-13
4.81054e-14
0.999997
0.999986
0.999969
0.999939
0.99989
0.999808
0.999674
0.999455
0.999103
0.998545
0.997671
0.996327
0.994301
0.991314
0.987017
0.981008
0.972854
0.962145
0.948542
0.931824
0.911916
0.888888
0.862936
0.834347
0.803473
0.770703
0.736438
0.701076
0.665002
0.628579
0.592138
0.555979
0.520362
0.485513
0.451617
0.418828
0.38727
0.357035
0.328188
0.300771
0.274801
0.250279
0.227191
0.205509
0.185198
0.166212
0.148501
0.132011
0.116685
0.102464
0.0892905
0.0771073
0.0658606
0.0554982
0.0459718
0.0372376
0.0293652
0.0223441
0.0157546
0.00984944
0.00469622
0.00305239
0.0021503
0.00149619
0.00102675
0.000693822
0.000460976
0.000300773
0.000192735
0.000121754
7.68752e-05
5.03827e-05
3.67783e-05
2.77383e-05
2.02479e-05
1.40977e-05
9.29093e-06
5.76787e-06
3.37185e-06
1.86448e-06
9.82395e-07
4.9702e-07
2.43022e-07
1.16154e-07
5.44241e-08
2.505e-08
1.13449e-08
5.06262e-09
2.22893e-09
9.6937e-10
4.16928e-10
1.77533e-10
7.49104e-11
3.13381e-11
1.29917e-11
5.32204e-12
2.13471e-12
8.16382e-13
2.7252e-13
4.77286e-14
0.999997
0.999986
0.999969
0.999939
0.99989
0.999808
0.999674
0.999455
0.999103
0.998544
0.99767
0.996326
0.994299
0.991311
0.987012
0.981001
0.972844
0.962131
0.948522
0.931797
0.911881
0.888844
0.862881
0.834282
0.803397
0.770615
0.736337
0.700962
0.664876
0.628441
0.591989
0.555818
0.520191
0.485332
0.451428
0.418632
0.387067
0.356827
0.327977
0.300557
0.274586
0.250064
0.226977
0.205297
0.184989
0.166007
0.148301
0.131816
0.116495
0.10228
0.0891132
0.0769383
0.0657
0.0553465
0.0458291
0.0371037
0.0292424
0.0222293
0.0156463
0.00974577
0.00460064
0.00304534
0.00215239
0.00150252
0.00103444
0.000701314
0.000467525
0.000306118
0.000196887
0.000124863
7.9148e-05
5.20277e-05
3.79629e-05
2.85374e-05
2.07555e-05
1.43995e-05
9.45688e-06
5.85137e-06
3.41011e-06
1.88036e-06
9.88316e-07
4.9895e-07
2.43616e-07
1.16296e-07
5.44338e-08
2.50328e-08
1.13289e-08
5.05242e-09
2.22331e-09
9.66522e-10
4.15558e-10
1.76899e-10
7.46251e-11
3.12127e-11
1.29376e-11
5.29922e-12
2.12533e-12
8.12733e-13
2.71283e-13
4.75116e-14
0.999997
0.999986
0.999969
0.999939
0.99989
0.999808
0.999674
0.999455
0.999103
0.998544
0.99767
0.996325
0.994298
0.991309
0.98701
0.980997
0.972839
0.962124
0.948512
0.931784
0.911864
0.888823
0.862855
0.83425
0.803359
0.770571
0.736287
0.700906
0.664814
0.628373
0.591914
0.555738
0.520106
0.485243
0.451335
0.418535
0.386967
0.356725
0.327873
0.300451
0.274479
0.249957
0.22687
0.205192
0.184886
0.165905
0.148201
0.131719
0.116401
0.10219
0.0890276
0.076857
0.0656234
0.0552746
0.0457621
0.0370416
0.0291865
0.0221774
0.0155973
0.00969787
0.00455379
0.00304187
0.00215604
0.00150899
0.00104146
0.000707782
0.000472983
0.000310467
0.000200207
0.000127312
8.09027e-05
5.32484e-05
3.87752e-05
2.90558e-05
2.10722e-05
1.45825e-05
9.55549e-06
5.90044e-06
3.43257e-06
1.8898e-06
9.91929e-07
5.00194e-07
2.44036e-07
1.16422e-07
5.44629e-08
2.50346e-08
1.13252e-08
5.04916e-09
2.22127e-09
9.65413e-10
4.15003e-10
1.76635e-10
7.45042e-11
3.11588e-11
1.29141e-11
5.28921e-12
2.12118e-12
8.11112e-13
2.70731e-13
4.74147e-14
0.999997
0.999986
0.999969
0.999939
0.99989
0.999808
0.999674
0.999455
0.999103
0.998544
0.99767
0.996325
0.994298
0.991309
0.98701
0.980997
0.972839
0.962123
0.948511
0.931783
0.911863
0.888822
0.862854
0.834249
0.803358
0.77057
0.736286
0.700905
0.664813
0.628371
0.591913
0.555737
0.520105
0.485241
0.451333
0.418534
0.386966
0.356724
0.327872
0.30045
0.274478
0.249956
0.22687
0.205191
0.184885
0.165905
0.148201
0.131718
0.116401
0.102189
0.0890271
0.0768565
0.065623
0.0552742
0.0457617
0.0370412
0.0291862
0.0221772
0.0155971
0.00969766
0.00455363
0.00304186
0.00215603
0.00150898
0.00104145
0.000707777
0.00047298
0.000310464
0.000200205
0.00012731
8.09018e-05
5.32479e-05
3.87749e-05
2.90556e-05
2.1072e-05
1.45824e-05
9.55541e-06
5.90039e-06
3.43254e-06
1.88977e-06
9.91918e-07
5.00188e-07
2.44033e-07
1.1642e-07
5.44623e-08
2.50343e-08
1.13251e-08
5.04909e-09
2.22124e-09
9.65401e-10
4.14998e-10
1.76633e-10
7.45032e-11
3.11584e-11
1.2914e-11
5.28914e-12
2.12116e-12
8.11102e-13
2.70727e-13
4.74142e-14
0.999997
0.999986
0.999969
0.999939
0.99989
0.999808
0.999674
0.999455
0.999103
0.998544
0.99767
0.996326
0.994299
0.99131
0.987012
0.981
0.972843
0.96213
0.94852
0.931795
0.911879
0.888842
0.862879
0.834279
0.803394
0.770611
0.736333
0.700959
0.664873
0.628437
0.591985
0.555814
0.520187
0.485329
0.451425
0.418629
0.387064
0.356824
0.327974
0.300554
0.274583
0.250061
0.226974
0.205295
0.184987
0.166005
0.148299
0.131814
0.116493
0.102278
0.0891117
0.0769369
0.0656988
0.0553453
0.045828
0.0371027
0.0292416
0.0222286
0.0156456
0.00974515
0.00460014
0.00304531
0.00215237
0.0015025
0.00103442
0.000701302
0.000467515
0.000306111
0.000196882
0.00012486
7.91457e-05
5.20264e-05
3.79623e-05
2.85369e-05
2.07552e-05
1.43993e-05
9.45667e-06
5.85122e-06
3.41001e-06
1.8803e-06
9.88284e-07
4.98933e-07
2.43608e-07
1.16292e-07
5.44318e-08
2.50319e-08
1.13285e-08
5.05224e-09
2.22323e-09
9.66487e-10
4.15543e-10
1.76893e-10
7.46224e-11
3.12116e-11
1.29372e-11
5.29902e-12
2.12525e-12
8.12703e-13
2.71272e-13
4.751e-14
0.999997
0.999986
0.999969
0.999939
0.99989
0.999808
0.999674
0.999455
0.999103
0.998545
0.997671
0.996327
0.994301
0.991313
0.987017
0.981007
0.972853
0.962144
0.94854
0.931821
0.911913
0.888885
0.862931
0.834342
0.803468
0.770698
0.736432
0.70107
0.664996
0.628573
0.592132
0.555972
0.520356
0.485507
0.451611
0.418822
0.387264
0.357029
0.328183
0.300766
0.274796
0.250274
0.227186
0.205505
0.185194
0.166209
0.148498
0.132008
0.116682
0.102461
0.089288
0.077105
0.0658584
0.0554962
0.04597
0.037236
0.0293637
0.0223428
0.0157534
0.00984839
0.00469536
0.00305233
0.00215025
0.00149616
0.00102672
0.000693802
0.000460962
0.000300763
0.000192728
0.000121748
7.6872e-05
5.0381e-05
3.67776e-05
2.77377e-05
2.02475e-05
1.40973e-05
9.29063e-06
5.76764e-06
3.3717e-06
1.86439e-06
9.82344e-07
4.96993e-07
2.43008e-07
1.16147e-07
5.44209e-08
2.50486e-08
1.13442e-08
5.06232e-09
2.22879e-09
9.6931e-10
4.16902e-10
1.77522e-10
7.49057e-11
3.13361e-11
1.29909e-11
5.3217e-12
2.13458e-12
8.16331e-13
2.72501e-13
4.77257e-14
0.999997
0.999986
0.999969
0.999939
0.99989
0.999808
0.999674
0.999455
0.999104
0.998545
0.997672
0.996329
0.994304
0.991318
0.987023
0.981017
0.972868
0.962165
0.948569
0.93186
0.911963
0.888948
0.863009
0.834435
0.803579
0.770826
0.736578
0.701235
0.66518
0.628774
0.592351
0.556209
0.520608
0.485773
0.45189
0.419113
0.387564
0.357338
0.328498
0.301085
0.275118
0.250597
0.227508
0.205825
0.18551
0.166519
0.148801
0.132303
0.116967
0.102738
0.0895553
0.0773633
0.0661057
0.0557309
0.0461921
0.0374456
0.029558
0.0225254
0.0159257
0.0100117
0.0048416
0.00306207
0.00215045
0.00149158
0.00102027
0.000687153
0.000454963
0.000295764
0.000188783
0.000118749
7.4635e-05
4.87025e-05
3.55003e-05
2.68515e-05
1.96751e-05
1.37537e-05
9.10149e-06
5.67337e-06
3.32951e-06
1.84758e-06
9.76525e-07
4.95373e-07
2.4272e-07
1.16206e-07
5.4525e-08
2.51252e-08
1.13896e-08
5.08652e-09
2.24088e-09
9.75069e-10
4.19559e-10
1.78716e-10
7.54309e-11
3.1563e-11
1.30873e-11
5.36199e-12
2.151e-12
8.22681e-13
2.74644e-13
4.81014e-14
0.999997
0.999986
0.999969
0.999939
0.99989
0.999808
0.999674
0.999456
0.999104
0.998546
0.997673
0.996331
0.994307
0.991323
0.987032
0.981029
0.972886
0.962191
0.948606
0.931909
0.912027
0.889029
0.863109
0.834556
0.803722
0.770992
0.736769
0.70145
0.665419
0.629038
0.592638
0.556518
0.520939
0.486123
0.452259
0.419497
0.387962
0.357747
0.328916
0.301509
0.275546
0.251028
0.227939
0.206253
0.185934
0.166936
0.14921
0.132702
0.117356
0.103112
0.0899156
0.0777095
0.0664391
0.0560512
0.0464965
0.0377338
0.029829
0.0227813
0.0161693
0.0102471
0.00506007
0.00307595
0.00215383
0.00148951
0.00101579
0.000682013
0.000450099
0.000291599
0.000185429
0.00011615
7.26455e-05
4.71399e-05
3.42523e-05
2.59732e-05
1.91068e-05
1.34145e-05
8.9179e-06
5.58489e-06
3.29227e-06
1.83434e-06
9.72949e-07
4.95056e-07
2.43144e-07
1.16638e-07
5.48139e-08
2.52925e-08
1.14786e-08
5.13123e-09
2.26237e-09
9.85059e-10
4.24067e-10
1.80703e-10
7.62897e-11
3.19286e-11
1.32409e-11
5.42562e-12
2.17676e-12
8.32593e-13
2.77977e-13
4.86852e-14
0.999997
0.999986
0.999969
0.999939
0.99989
0.999808
0.999674
0.999456
0.999105
0.998547
0.997674
0.996333
0.994311
0.991329
0.987041
0.981044
0.972908
0.962223
0.948649
0.931967
0.912103
0.889125
0.863228
0.8347
0.803892
0.771191
0.736997
0.701708
0.665708
0.629357
0.592987
0.556895
0.521342
0.486552
0.45271
0.41997
0.388452
0.358252
0.329434
0.302037
0.27608
0.251565
0.228477
0.206789
0.186465
0.167461
0.149726
0.133207
0.117848
0.10359
0.090377
0.0781523
0.0668624
0.0564572
0.0468873
0.0381062
0.0301745
0.0231059
0.016474
0.0105319
0.00530962
0.00309191
0.00215967
0.0014898
0.00101337
0.000678575
0.000446581
0.000288456
0.000182827
0.000114081
7.10105e-05
4.57963e-05
3.31061e-05
2.51558e-05
1.85817e-05
1.31067e-05
8.7571e-06
5.51254e-06
3.26582e-06
1.82783e-06
9.73261e-07
4.96713e-07
2.44602e-07
1.17568e-07
5.53477e-08
2.5577e-08
1.16224e-08
5.20102e-09
2.29516e-09
1.00005e-09
4.30765e-10
1.8364e-10
7.75557e-11
3.24661e-11
1.34657e-11
5.51825e-12
2.21411e-12
8.46929e-13
2.82787e-13
4.95276e-14
0.999997
0.999986
0.999969
0.999939
0.99989
0.999809
0.999674
0.999456
0.999105
0.998548
0.997676
0.996336
0.994315
0.991336
0.987052
0.98106
0.972932
0.962256
0.948696
0.93203
0.912186
0.88923
0.863359
0.83486
0.804083
0.771415
0.737255
0.702001
0.666037
0.629722
0.593388
0.55733
0.52181
0.487051
0.453238
0.420523
0.389028
0.358848
0.330046
0.302661
0.276714
0.252205
0.229119
0.207431
0.187103
0.168092
0.150348
0.133818
0.118444
0.10417
0.0909394
0.0786952
0.0673837
0.0569539
0.0473599
0.0385584
0.0305996
0.0235073
0.0168529
0.0108893
0.00562636
0.00311111
0.0021686
0.00149288
0.00101338
0.00067714
0.000444644
0.000286517
0.000181106
0.000112632
6.97912e-05
4.47098e-05
3.20919e-05
2.4422e-05
1.81177e-05
1.28436e-05
8.6285e-06
5.4625e-06
3.25403e-06
1.8301e-06
9.78264e-07
5.0103e-07
2.47477e-07
1.19205e-07
5.62182e-08
2.60183e-08
1.18379e-08
5.30302e-09
2.34218e-09
1.02125e-09
4.40141e-10
1.87717e-10
7.93034e-11
3.32056e-11
1.37749e-11
5.6455e-12
2.26531e-12
8.66562e-13
2.89362e-13
5.068e-14
0.999997
0.999986
0.999969
0.999939
0.99989
0.999809
0.999675
0.999457
0.999106
0.998549
0.997678
0.996338
0.994319
0.991342
0.987062
0.981076
0.972955
0.96229
0.948743
0.932095
0.912271
0.88934
0.863496
0.835028
0.804285
0.771653
0.737532
0.702318
0.666395
0.630122
0.593828
0.557811
0.52233
0.487608
0.45383
0.421146
0.389681
0.359525
0.330744
0.303377
0.277443
0.252943
0.229862
0.208176
0.187846
0.168829
0.151076
0.134534
0.119145
0.104854
0.0916041
0.0793383
0.0680036
0.0575488
0.0479268
0.0390964
0.0311053
0.02399
0.0173102
0.0113184
0.00602079
0.00313307
0.00218084
0.00149923
0.00101626
0.000678121
0.000444643
0.000286052
0.000180456
0.000111927
6.90643e-05
4.39289e-05
3.12299e-05
2.3779e-05
1.77208e-05
1.26308e-05
8.53674e-06
5.43841e-06
3.25911e-06
1.84238e-06
9.8949e-07
5.08749e-07
2.52075e-07
1.2169e-07
5.74954e-08
2.66498e-08
1.21404e-08
5.44406e-09
2.40645e-09
1.04995e-09
4.52737e-10
1.93161e-10
8.16255e-11
3.41845e-11
1.41829e-11
5.81332e-12
2.33279e-12
8.92443e-13
2.98016e-13
5.21989e-14
0.999997
0.999986
0.999969
0.999939
0.99989
0.999809
0.999675
0.999457
0.999106
0.99855
0.997679
0.99634
0.994323
0.991348
0.987071
0.98109
0.972976
0.962321
0.948787
0.932155
0.912352
0.889445
0.86363
0.835193
0.804486
0.771893
0.737814
0.702644
0.666767
0.63054
0.594293
0.558323
0.522887
0.488208
0.454471
0.421826
0.390395
0.360271
0.331517
0.304172
0.278257
0.25377
0.230699
0.209017
0.188688
0.169668
0.151908
0.135354
0.119951
0.105643
0.0923719
0.0800834
0.0687235
0.0582417
0.048591
0.039729
0.031696
0.0245476
0.0178411
0.0118241
0.00649703
0.00316208
0.00219944
0.00151117
0.00102385
0.000682814
0.000447438
0.000287627
0.000181248
0.000112202
6.89602e-05
4.34866e-05
3.04462e-05
2.31928e-05
1.73795e-05
1.24668e-05
8.48411e-06
5.44328e-06
3.2831e-06
1.86747e-06
1.00807e-06
5.20424e-07
2.58715e-07
1.25183e-07
5.92557e-08
2.7507e-08
1.25461e-08
5.63143e-09
2.49115e-09
1.08753e-09
4.69138e-10