/*--------------------------------*- C++ -*----------------------------------*\
  =========                 |
  \\      /  F ield         | OpenFOAM: The Open Source CFD Toolbox
   \\    /   O peration     | Website:  https://openfoam.org
    \\  /    A nd           | Version:  8
     \\/     M anipulation  |
\*---------------------------------------------------------------------------*/
FoamFile
{
    version     2.0;
    format      ascii;
    class       volScalarField;
    location    "420/fluid";
    object      CO2;
}
// * * * * * * * * * * * * * * * * * * * * * * * * * * * * * * * * * * * * * //

dimensions      [0 0 0 0 0 0 0];

internalField   nonuniform List<scalar> 
4000
(
4.42991e-07
1.93525e-06
4.44216e-06
8.63883e-06
1.56325e-05
2.72214e-05
4.62917e-05
7.74118e-05
0.000127693
0.000207982
0.000334432
0.000530388
0.000828374
0.00127167
0.00191461
0.00282066
0.00405744
0.00568927
0.00776802
0.0103241
0.0133639
0.0168705
0.0208072
0.0251238
0.0297618
0.034659
0.039753
0.0449834
0.0502937
0.0556318
0.0609513
0.0662112
0.0713765
0.0764177
0.0813111
0.0860377
0.0905829
0.0949357
0.0990889
0.103038
0.106783
0.110324
0.113663
0.116803
0.11975
0.122509
0.125085
0.127484
0.129711
0.131769
0.133662
0.135391
0.136955
0.138351
0.13957
0.140601
0.141424
0.142015
0.142328
0.142328
0.14194
0.141063
0.139569
0.130091
0.119603
0.108963
0.0983572
0.0879276
0.0777851
0.0680176
0.0586968
0.0498836
0.0416329
0.0340107
0.0270391
0.0207967
0.0153502
0.0107653
0.00709799
0.0043615
0.00248859
0.00132304
0.000661211
0.000315412
0.000145886
6.58652e-05
2.91663e-05
1.27123e-05
5.46854e-06
2.32682e-06
9.81006e-07
4.10428e-07
1.70587e-07
7.0478e-08
2.89304e-08
1.17644e-08
4.69561e-09
1.79095e-09
5.97705e-10
1.04739e-10
4.46546e-07
1.95152e-06
4.48266e-06
8.72594e-06
1.58073e-05
2.75555e-05
4.69037e-05
7.84863e-05
0.000129497
0.000210869
0.000338795
0.000536551
0.000836374
0.00128093
0.00192357
0.00282632
0.00405538
0.00567387
0.00773245
0.0102632
0.0132748
0.0167523
0.0206616
0.0249545
0.029574
0.0344587
0.0395463
0.0447764
0.0500916
0.0554391
0.0607715
0.066047
0.0712297
0.0762896
0.0812021
0.0859478
0.0905115
0.094882
0.0990523
0.103018
0.106777
0.11033
0.11368
0.11683
0.119785
0.122551
0.125133
0.127536
0.129765
0.131825
0.133718
0.135446
0.137007
0.138396
0.139607
0.140626
0.141435
0.142006
0.142298
0.142279
0.141881
0.141026
0.139636
0.12933
0.118681
0.107922
0.097228
0.0867348
0.0765474
0.0667507
0.0574148
0.0486009
0.0403655
0.032791
0.0258767
0.0197221
0.0143968
0.00996705
0.00648078
0.00393078
0.00222185
0.00117704
0.000589971
0.000283412
0.000132308
6.03458e-05
2.69907e-05
1.18718e-05
5.14706e-06
2.20404e-06
9.33855e-07
3.92134e-07
1.63401e-07
6.76236e-08
2.77883e-08
1.13075e-08
4.51541e-09
1.7229e-09
5.75177e-10
1.00821e-10
4.52076e-07
1.97619e-06
4.54152e-06
8.84573e-06
1.60336e-05
2.79625e-05
4.76061e-05
7.96502e-05
0.000131344
0.000213662
0.00034281
0.000541993
0.000843232
0.00128878
0.00193139
0.00283256
0.00405784
0.00566875
0.00771536
0.0102293
0.0132196
0.016673
0.0205572
0.0248258
0.0294236
0.0342907
0.0393658
0.0445888
0.0499024
0.0552536
0.0605943
0.0658822
0.0710806
0.0761584
0.0810907
0.0858578
0.0904439
0.0948368
0.0990279
0.103012
0.106789
0.110358
0.113723
0.116887
0.119854
0.122629
0.125219
0.127628
0.129862
0.131924
0.133817
0.135542
0.137096
0.138476
0.139671
0.140667
0.141442
0.141962
0.142182
0.142057
0.141503
0.140424
0.138727
0.128048
0.11715
0.106227
0.095428
0.0848741
0.0746612
0.0648689
0.0555651
0.0468101
0.0386614
0.0312124
0.024445
0.018471
0.0133548
0.0091532
0.00589548
0.00354932
0.001998
0.00105799
0.000531712
0.000256453
0.000120294
5.51425e-05
2.47873e-05
1.09546e-05
4.77008e-06
2.05039e-06
8.71532e-07
3.66896e-07
1.53177e-07
6.34766e-08
2.61062e-08
1.0628e-08
4.24503e-09
1.61989e-09
5.40781e-10
9.47745e-11
4.56136e-07
1.99391e-06
4.58214e-06
8.92426e-06
1.61736e-05
2.81994e-05
4.79902e-05
8.02494e-05
0.000132243
0.000214956
0.000344575
0.000544235
0.0008458
0.0012912
0.00193267
0.00283099
0.00405078
0.00565349
0.00768926
0.0101898
0.0131648
0.0166016
0.020469
0.0247217
0.0293055
0.0341613
0.0392283
0.044447
0.0497602
0.0551148
0.0604629
0.0657618
0.0709744
0.0760695
0.0810214
0.0858085
0.0904138
0.094825
0.0990345
0.103038
0.106832
0.110418
0.113798
0.116975
0.119954
0.12274
0.125338
0.127753
0.129991
0.132055
0.133947
0.135669
0.137217
0.138586
0.139764
0.140736
0.141474
0.141937
0.142078
0.141821
0.14105
0.139593
0.137152
0.126211
0.115141
0.104109
0.0932531
0.0826824
0.0724878
0.0627451
0.05352
0.0448719
0.0368573
0.0295601
0.0229796
0.0172153
0.0123253
0.00835685
0.00532378
0.00317362
0.00177323
0.000934932
0.000469278
0.000226619
0.000106569
4.90118e-05
2.21131e-05
9.81085e-06
4.2888e-06
1.85054e-06
7.89394e-07
3.33398e-07
1.39591e-07
5.79886e-08
2.38978e-08
9.74509e-09
3.8974e-09
1.48864e-09
4.97234e-10
8.71507e-11
4.5892e-07
2.006e-06
4.60961e-06
8.97688e-06
1.62666e-05
2.83557e-05
4.82423e-05
8.064e-05
0.000132822
0.000215771
0.00034565
0.000545535
0.000847175
0.00129235
0.00193308
0.00282959
0.00404602
0.00564346
0.00767188
0.0101631
0.0131272
0.0165523
0.0204079
0.0246496
0.029224
0.0340724
0.0391348
0.044352
0.0496672
0.0550274
0.0603842
0.0656946
0.0709207
0.0760303
0.0809966
0.0857989
0.0904208
0.0948498
0.0990771
0.103097
0.106908
0.110509
0.113903
0.117092
0.120082
0.122876
0.125481
0.127902
0.130142
0.132207
0.134099
0.135817
0.137359
0.138719
0.139885
0.140841
0.141561
0.142
0.142116
0.141839
0.141065
0.139656
0.134882
0.12391
0.11281
0.101766
0.0909182
0.0803808
0.070245
0.0605867
0.0514714
0.0429583
0.0351038
0.0279599
0.0215837
0.0160378
0.0113755
0.00763535
0.00481576
0.00284606
0.00158038
0.000830455
0.000416486
0.000201332
9.48599e-05
4.37305e-05
1.97802e-05
8.7979e-06
3.85519e-06
1.66712e-06
7.12573e-07
3.01485e-07
1.26423e-07
5.25867e-08
2.1695e-08
8.85443e-09
3.54352e-09
1.35408e-09
4.52374e-10
7.9276e-11
4.60566e-07
2.01309e-06
4.62545e-06
9.0065e-06
1.63174e-05
2.84382e-05
4.83705e-05
8.08305e-05
0.000133091
0.000216127
0.000346074
0.000545953
0.000847418
0.0012921
0.00193173
0.00282639
0.00404001
0.00563355
0.00765693
0.0101422
0.0130995
0.0165175
0.0203665
0.0246024
0.0291724
0.0340185
0.0390808
0.0443001
0.0496198
0.0549864
0.0603513
0.0656706
0.0709068
0.0760283
0.0810088
0.0858267
0.0904647
0.0949096
0.0991524
0.103188
0.107012
0.110626
0.114031
0.117231
0.120229
0.12303
0.12564
0.128063
0.130306
0.13237
0.134259
0.135972
0.137507
0.138857
0.140012
0.140955
0.141659
0.14208
0.142179
0.141886
0.1411
0.139684
0.132455
0.121512
0.110434
0.0994174
0.088611
0.0781326
0.0680758
0.0585173
0.0495223
0.0411491
0.0334653
0.0264947
0.0203113
0.0149714
0.010522
0.00699232
0.0043663
0.00255751
0.00141036
0.000737727
0.00036908
0.000178348
8.4083e-05
3.88118e-05
1.75851e-05
7.83674e-06
3.44107e-06
1.49112e-06
6.38625e-07
2.70707e-07
1.1371e-07
4.73701e-08
1.95679e-08
7.9946e-09
3.20193e-09
1.2242e-09
4.09068e-10
7.16734e-11
4.61539e-07
2.01726e-06
4.63472e-06
9.02368e-06
1.63466e-05
2.84849e-05
4.84417e-05
8.09333e-05
0.00013323
0.000216298
0.000346258
0.000546097
0.000847411
0.00129171
0.00193062
0.00282407
0.00403589
0.00562696
0.00764724
0.0101289
0.0130826
0.0164972
0.0203433
0.0245772
0.0291464
0.033993
0.0390572
0.0442799
0.0496038
0.0549761
0.0603486
0.0656778
0.070926
0.0760605
0.0810546
0.0858865
0.0905384
0.094997
0.0992531
0.103301
0.107137
0.110761
0.114176
0.117383
0.120386
0.123192
0.125805
0.12823
0.130471
0.132532
0.134416
0.136121
0.137646
0.138983
0.140122
0.141046
0.141727
0.142122
0.142196
0.141876
0.14106
0.139622
0.130173
0.119275
0.10822
0.0972292
0.0864635
0.0760451
0.0660684
0.0566095
0.0477325
0.0394944
0.0319759
0.0251697
0.0191674
0.0140198
0.00976756
0.00643021
0.00397822
0.00231132
0.00126669
0.000659867
0.000329375
0.000159076
7.50149e-05
3.46508e-05
1.57157e-05
7.01191e-06
3.08282e-06
1.33763e-06
5.73629e-07
2.43458e-07
1.02383e-07
4.26957e-08
1.76528e-08
7.21738e-09
2.89217e-09
1.10612e-09
3.69625e-10
6.475e-11
4.62102e-07
2.01967e-06
4.63998e-06
9.03325e-06
1.63624e-05
2.85094e-05
4.84773e-05
8.09819e-05
0.000133291
0.000216364
0.000346307
0.000546084
0.000847253
0.00129128
0.00192973
0.00282248
0.00403332
0.00562314
0.00764199
0.0101222
0.0130745
0.016488
0.0203335
0.0245675
0.0291374
0.0339857
0.039053
0.0442802
0.0496108
0.0549914
0.0603735
0.0657133
0.0709727
0.0761191
0.0811254
0.0859694
0.0906334
0.0951037
0.0993708
0.103429
0.107274
0.110907
0.114328
0.11754
0.120548
0.123356
0.125969
0.128393
0.130631
0.132687
0.134562
0.136256
0.137767
0.139085
0.140201
0.141095
0.141741
0.142094
0.142122
0.141756
0.14091
0.139503
0.128653
0.117523
0.10635
0.0953131
0.0845516
0.0741738
0.0642658
0.0548979
0.0461298
0.0380151
0.0306355
0.0239776
0.0181454
0.0131796
0.00910869
0.00594468
0.00364645
0.00210257
0.00114547
0.000594239
0.000295834
0.000142736
6.7291e-05
3.10895e-05
1.41081e-05
6.29948e-06
2.77214e-06
1.20404e-06
5.16883e-07
2.19602e-07
9.24425e-08
3.85853e-08
1.59659e-08
6.53179e-09
2.6186e-09
1.00172e-09
3.34715e-10
5.86394e-11
4.62464e-07
2.02121e-06
4.64335e-06
9.03934e-06
1.63724e-05
2.85247e-05
4.84994e-05
8.10117e-05
0.000133328
0.000216403
0.000346337
0.000546083
0.000847184
0.00129109
0.00192935
0.00282182
0.00403228
0.00562166
0.00764004
0.0101198
0.0130719
0.0164857
0.0203321
0.0245679
0.0291409
0.0339936
0.0390664
0.0443003
0.0496385
0.0550277
0.060419
0.0657688
0.0710386
0.0761957
0.0812127
0.0860675
0.0907418
0.0952219
0.099498
0.103564
0.107417
0.111055
0.114481
0.117697
0.120707
0.123516
0.126128
0.128549
0.130782
0.13283
0.134695
0.136376
0.137868
0.139164
0.140248
0.141099
0.141685
0.141955
0.141869
0.141331
0.140231
0.138451
0.127275
0.115952
0.104675
0.093598
0.0828428
0.0725057
0.0626648
0.0533849
0.0447215
0.0367245
0.0294634
0.0229542
0.0172669
0.0124529
0.00854257
0.00553168
0.00336681
0.001928
0.00104465
0.00053981
0.000268029
0.00012917
6.08611e-05
2.81148e-05
1.27602e-05
5.69981e-06
2.5096e-06
1.09072e-06
4.68571e-07
1.99225e-07
8.39263e-08
3.50547e-08
1.45137e-08
5.9405e-09
2.3823e-09
9.11454e-10
3.0451e-10
5.3352e-11
4.6274e-07
2.02239e-06
4.64595e-06
9.04406e-06
1.63802e-05
2.85369e-05
4.85175e-05
8.10376e-05
0.000133363
0.000216448
0.000346392
0.000546142
0.000847239
0.00129113
0.00192937
0.00282183
0.00403236
0.00562193
0.00764075
0.0101214
0.0130748
0.0164906
0.0203397
0.0245791
0.0291565
0.0340144
0.0390934
0.0443343
0.0496802
0.0550778
0.0604781
0.0658371
0.0711165
0.0762831
0.0813096
0.0861735
0.0908566
0.0953447
0.0996282
0.103701
0.107559
0.111202
0.114631
0.117849
0.120859
0.123667
0.126277
0.128694
0.130921
0.132962
0.134817
0.136484
0.13796
0.139233
0.140289
0.141103
0.141635
0.141837
0.141644
0.140944
0.139579
0.13717
0.125842
0.114427
0.103109
0.0920285
0.0813003
0.0710146
0.0612454
0.0520552
0.0434987
0.0356289
0.0285039
0.0221516
0.0165946
0.0118778
0.00807544
0.00518712
0.00313376
0.00178285
0.000960978
0.000494665
0.000244948
0.000117888
5.55021e-05
2.56296e-05
1.16314e-05
5.19634e-06
2.28866e-06
9.95141e-07
4.27738e-07
1.81969e-07
7.67019e-08
3.2055e-08
1.32782e-08
5.43686e-09
2.18086e-09
8.3445e-10
2.78737e-10
4.88407e-11
4.62998e-07
2.0235e-06
4.64841e-06
9.04865e-06
1.63881e-05
2.85497e-05
4.85379e-05
8.10693e-05
0.000133412
0.000216523
0.000346505
0.000546317
0.000847508
0.00129155
0.00193002
0.00282286
0.00403395
0.00562438
0.00764442
0.0101267
0.0130824
0.0165011
0.0203538
0.0245975
0.0291799
0.0340436
0.039129
0.044377
0.0497305
0.0551361
0.0605447
0.0659123
0.0712002
0.0763753
0.08141
0.0862817
0.090972
0.0954668
0.0997561
0.103834
0.107696
0.111341
0.114772
0.117991
0.121001
0.123807
0.126414
0.128827
0.131048
0.133081
0.134927
0.136584
0.138047
0.139305
0.140344
0.141139
0.141652
0.141838
0.14164
0.14096
0.139673
0.135731
0.124386
0.112967
0.10166
0.0906064
0.0799213
0.0696941
0.0599976
0.050893
0.0424348
0.0346749
0.0276479
0.0213752
0.0159382
0.0113772
0.00769037
0.0048978
0.0029381
0.00166144
0.000891241
0.000457128
0.00022578
0.00010852
5.10502e-05
2.35631e-05
1.06916e-05
4.7766e-06
2.10418e-06
9.15207e-07
3.93534e-07
1.67492e-07
7.06323e-08
2.95317e-08
1.22378e-08
5.01236e-09
2.01093e-09
7.69437e-10
2.57018e-10
4.50358e-11
4.63266e-07
2.02466e-06
4.65102e-06
9.05359e-06
1.63968e-05
2.85644e-05
4.85621e-05
8.11088e-05
0.000133476
0.000216626
0.000346673
0.000546587
0.000847942
0.00129224
0.00193112
0.00282456
0.00403654
0.00562821
0.00764995
0.0101345
0.013093
0.016515
0.0203718
0.0246202
0.0292079
0.0340775
0.0391694
0.0444242
0.049785
0.0551981
0.0606143
0.0659896
0.071285
0.0764675
0.0815092
0.0863874
0.0910837
0.0955837
0.0998775
0.103958
0.107823
0.111471
0.114903
0.118121
0.12113
0.123934
0.126537
0.128945
0.131161
0.133187
0.135025
0.136672
0.138125
0.139372
0.140399
0.141183
0.141685
0.141863
0.141663
0.140989
0.139721
0.134334
0.123006
0.111613
0.10034
0.0893318
0.0787017
0.0685409
0.0589198
0.0498979
0.0415274
0.0338364
0.0268681
0.020693
0.0153584
0.0109019
0.00734588
0.00465345
0.00277096
0.00155872
0.000832688
0.000425785
0.000209833
0.000100742
4.73569e-05
2.18491e-05
9.91196e-06
4.42821e-06
1.95094e-06
8.48747e-07
3.65067e-07
1.55431e-07
6.55705e-08
2.74254e-08
1.13686e-08
4.65757e-09
1.86886e-09
7.15083e-10
2.38872e-10
4.18538e-11
4.6355e-07
2.02589e-06
4.65383e-06
9.05897e-06
1.64064e-05
2.85809e-05
4.859e-05
8.11554e-05
0.000133553
0.000216754
0.000346883
0.00054693
0.000848498
0.00129313
0.00193251
0.00282671
0.00403976
0.00563291
0.00765661
0.0101436
0.0131052
0.0165309
0.0203918
0.024645
0.029238
0.0341134
0.0392113
0.0444726
0.0498401
0.05526
0.060683
0.066065
0.071367
0.0765557
0.0816032
0.0864869
0.0911879
0.095692
0.0999891
0.104073
0.107939
0.111588
0.115019
0.118237
0.121244
0.124045
0.126644
0.129047
0.131257
0.133277
0.135107
0.136746
0.138189
0.139426
0.140442
0.141215
0.141706
0.141875
0.141667
0.140988
0.139719
0.133117
0.121797
0.110426
0.0991887
0.0882306
0.0776594
0.0675601
0.0579949
0.0490235
0.040695
0.0330697
0.0261887
0.0201034
0.0148605
0.0104967
0.00703139
0.00444279
0.00263314
0.00147274
0.000783937
0.000399853
0.000196692
9.4343e-05
4.43212e-05
2.04407e-05
9.27111e-06
4.14167e-06
1.82481e-06
7.93994e-07
3.41592e-07
1.45475e-07
6.1388e-08
2.56834e-08
1.06492e-08
4.36373e-09
1.75115e-09
6.70088e-10
2.23844e-10
3.92178e-11
4.63844e-07
2.02717e-06
4.65675e-06
9.06461e-06
1.64165e-05
2.85986e-05
4.86202e-05
8.12064e-05
0.000133639
0.000216896
0.000347118
0.000547316
0.000849122
0.00129413
0.00193407
0.00282908
0.0040433
0.00563802
0.00766375
0.0101533
0.0131179
0.0165473
0.0204123
0.02467
0.0292681
0.0341488
0.0392524
0.0445195
0.0498929
0.0553188
0.0607478
0.0661356
0.0714431
0.076637
0.0816893
0.0865772
0.0912819
0.0957891
0.100089
0.104174
0.108041
0.11169
0.115121
0.118337
0.121341
0.124139
0.126735
0.129133
0.131337
0.13335
0.135172
0.136803
0.138236
0.139463
0.140469
0.14123
0.14171
0.141869
0.141652
0.140967
0.139698
0.132069
0.120755
0.109404
0.0982019
0.0872807
0.0767432
0.0666749
0.0571545
0.0482392
0.03998
0.0324248
0.0256168
0.0196078
0.0144437
0.0101599
0.00677293
0.00425629
0.00251929
0.00140459
0.000744566
0.000378792
0.000186032
8.91535e-05
4.18585e-05
1.92973e-05
8.75042e-06
3.90862e-06
1.72211e-06
7.49366e-07
3.22437e-07
1.37343e-07
5.79688e-08
2.4258e-08
1.00602e-08
4.12301e-09
1.65475e-09
6.33229e-10
2.11534e-10
3.70594e-11
4.64134e-07
2.02844e-06
4.65964e-06
9.07023e-06
1.64267e-05
2.86164e-05
4.86507e-05
8.12583e-05
0.000133726
0.000217043
0.00034736
0.000547712
0.000849764
0.00129514
0.00193566
0.00283149
0.00404685
0.00564311
0.00767083
0.0101628
0.0131304
0.0165631
0.020432
0.0246939
0.0292965
0.0341819
0.0392905
0.0445628
0.0499413
0.0553724
0.0608064
0.0661989
0.071511
0.076709
0.0817652
0.0866563
0.0913638
0.0958731
0.100174
0.10426
0.108128
0.111776
0.115206
0.11842
0.121422
0.124216
0.126808
0.129201
0.131399
0.133405
0.135221
0.136843
0.138267
0.139484
0.14048
0.141231
0.1417
0.141848
0.141622
0.140929
0.139661
0.131198
0.119881
0.108543
0.0973591
0.0864583
0.0759539
0.0659303
0.0564573
0.0475931
0.039389
0.0318918
0.0251444
0.0191991
0.014101
0.00988434
0.00656311
0.00410667
0.00241972
0.00134847
0.000713846
0.000362194
0.000177518
8.50004e-05
3.98855e-05
1.83801e-05
8.33226e-06
3.72127e-06
1.63948e-06
7.13424e-07
3.06998e-07
1.30784e-07
5.5209e-08
2.3107e-08
9.58439e-09
3.92865e-09
1.57694e-09
6.03491e-10
2.01597e-10
3.53186e-11
4.64404e-07
2.02962e-06
4.66234e-06
9.07549e-06
1.64363e-05
2.86332e-05
4.86796e-05
8.13075e-05
0.000133809
0.000217181
0.00034759
0.000548089
0.000850372
0.00129611
0.00193715
0.00283375
0.00405017
0.00564785
0.00767737
0.0101716
0.0131418
0.0165775
0.0204497
0.0247153
0.0293218
0.0342114
0.0393242
0.0446007
0.0499836
0.0554188
0.0608569
0.0662533
0.0715689
0.0767702
0.0818292
0.0867227
0.0914321
0.0959428
0.100245
0.104331
0.108198
0.111846
0.115274
0.118486
0.121485
0.124276
0.126863
0.129251
0.131444
0.133444
0.135252
0.136866
0.138282
0.139491
0.140477
0.141218
0.141678
0.141818
0.141585
0.140887
0.139618
0.130489
0.119163
0.107832
0.0966606
0.0857858
0.0753127
0.065325
0.0558915
0.0470697
0.0389106
0.0314608
0.0247628
0.0188695
0.0138253
0.0096634
0.00639573
0.0039882
0.00234179
0.00130051
0.000688371
0.000349327
0.000170928
8.17419e-05
3.83273e-05
1.76543e-05
8.00115e-06
3.57284e-06
1.57399e-06
6.84937e-07
2.94762e-07
1.25586e-07
5.30228e-08
2.2196e-08
9.20834e-09
3.77516e-09
1.5155e-09
5.80018e-10
1.93752e-10
3.39448e-11
4.64639e-07
2.03064e-06
4.6647e-06
9.08008e-06
1.64446e-05
2.86478e-05
4.87049e-05
8.13506e-05
0.000133882
0.000217303
0.000347793
0.00054842
0.000850905
0.00129695
0.00193845
0.00283572
0.00405305
0.00565194
0.007683
0.0101791
0.0131515
0.0165897
0.0204647
0.0247333
0.029343
0.034236
0.0393522
0.0446322
0.0500185
0.055457
0.0608982
0.0662975
0.0716158
0.0768194
0.0818803
0.0867754
0.0914859
0.0959974
0.1003
0.104386
0.108252
0.111898
0.115325
0.118534
0.121531
0.124318
0.126901
0.129285
0.131472
0.133466
0.135267
0.136875
0.138283
0.139483
0.140462
0.141196
0.14165
0.141788
0.141558
0.140875
0.139645
0.129937
0.118599
0.107267
0.0961092
0.0852549
0.0748071
0.0648485
0.0554467
0.046659
0.0385358
0.0311235
0.0244647
0.0186125
0.0136108
0.00949202
0.00626639
0.00389707
0.00228216
0.00126406
0.000667136
0.000338075
0.000165581
7.91854e-05
3.71148e-05
1.70906e-05
7.74423e-06
3.45794e-06
1.52343e-06
6.63001e-07
2.85365e-07
1.21606e-07
5.13534e-08
2.15017e-08
8.92189e-09
3.65824e-09
1.4687e-09
5.62136e-10
1.87776e-10
3.28983e-11
4.64826e-07
2.03146e-06
4.66657e-06
9.08372e-06
1.64512e-05
2.86595e-05
4.87251e-05
8.1385e-05
0.00013394
0.000217401
0.000347954
0.000548683
0.000851328
0.00129762
0.00193949
0.00283727
0.00405533
0.00565516
0.00768742
0.010185
0.0131591
0.0165993
0.0204764
0.0247474
0.0293595
0.0342549
0.0393738
0.0446563
0.0500451
0.055486
0.0609295
0.0663309
0.0716509
0.076856
0.0819181
0.086814
0.0915251
0.0960367
0.100339
0.104424
0.10829
0.111935
0.11536
0.118567
0.121561
0.124345
0.126924
0.129303
0.131486
0.133474
0.135269
0.13687
0.138271
0.139464
0.140435
0.141162
0.141609
0.141743
0.141511
0.140828
0.139605
0.129536
0.118181
0.106847
0.0956968
0.0848573
0.074429
0.0644927
0.0551154
0.0463537
0.0382578
0.030874
0.0242445
0.0184231
0.0134531
0.00936643
0.00617201
0.00383095
0.00223921
0.00123812
0.000652441
0.000330191
0.000161543
7.72867e-05
3.62399e-05
1.66873e-05
7.56136e-06
3.37624e-06
1.48746e-06
6.47379e-07
2.78666e-07
1.18764e-07
5.01597e-08
2.10045e-08
8.71655e-09
3.57436e-09
1.4351e-09
5.49298e-10
1.83484e-10
3.21469e-11
4.64955e-07
2.03202e-06
4.66786e-06
9.08623e-06
1.64558e-05
2.86675e-05
4.8739e-05
8.14086e-05
0.00013398
0.000217467
0.000348064
0.000548863
0.000851618
0.00129808
0.00194019
0.00283834
0.00405688
0.00565736
0.00769045
0.010189
0.0131643
0.0166058
0.0204844
0.0247569
0.0293707
0.0342678
0.0393883
0.0446726
0.050063
0.0555055
0.0609504
0.066353
0.0716742
0.0768801
0.0819426
0.0868388
0.0915499
0.0960614
0.100363
0.104448
0.108313
0.111957
0.11538
0.118585
0.121576
0.124358
0.126934
0.12931
0.131488
0.133472
0.135262
0.136857
0.138251
0.139438
0.140402
0.141123
0.141564
0.141694
0.141461
0.140783
0.139574
0.129272
0.117898
0.106561
0.095416
0.0845871
0.0741728
0.0642527
0.0548928
0.0461494
0.0380725
0.0307082
0.0240987
0.0182981
0.0133494
0.00928417
0.00611049
0.00378809
0.00221155
0.00122149
0.000643046
0.000325154
0.00015901
7.60277e-05
3.56421e-05
1.64176e-05
7.44062e-06
3.32285e-06
1.46414e-06
6.37317e-07
2.74367e-07
1.16944e-07
4.93957e-08
2.06863e-08
8.58509e-09
3.52064e-09
1.41357e-09
5.41065e-10
1.80731e-10
3.16649e-11
4.65022e-07
2.03231e-06
4.66852e-06
9.08751e-06
1.64581e-05
2.86716e-05
4.87459e-05
8.14203e-05
0.000134
0.0002175
0.000348118
0.000548951
0.000851759
0.0012983
0.00194054
0.00283885
0.00405764
0.00565843
0.00769191
0.010191
0.0131668
0.016609
0.0204883
0.0247615
0.0293761
0.0342741
0.0393955
0.0446806
0.0500718
0.0555151
0.0609607
0.0663639
0.0716855
0.0768918
0.0819545
0.0868507
0.0915614
0.0960726
0.100374
0.104458
0.108323
0.111965
0.115388
0.118592
0.121582
0.124361
0.126936
0.129309
0.131484
0.133465
0.135252
0.136843
0.138233
0.139415
0.140374
0.141091
0.141528
0.141655
0.141423
0.14075
0.139557
0.129142
0.117752
0.106411
0.0952687
0.0844464
0.0740405
0.0641299
0.0547799
0.0460467
0.0379801
0.0306261
0.0240272
0.0182372
0.0132993
0.00924474
0.00608124
0.00376789
0.00219862
0.00121378
0.000638705
0.000322832
0.000157852
7.54628e-05
3.5372e-05
1.629e-05
7.38264e-06
3.29709e-06
1.45288e-06
6.32456e-07
2.72292e-07
1.16067e-07
4.90278e-08
2.05331e-08
8.5218e-09
3.49475e-09
1.40318e-09
5.37088e-10
1.79399e-10
3.14315e-11
4.65028e-07
2.03234e-06
4.66858e-06
9.08764e-06
1.64584e-05
2.8672e-05
4.87465e-05
8.14214e-05
0.000134001
0.000217503
0.000348123
0.000548959
0.00085177
0.00129832
0.00194056
0.00283888
0.00405768
0.00565849
0.00769199
0.0101911
0.0131669
0.0166091
0.0204884
0.0247617
0.0293763
0.0342743
0.0393957
0.0446808
0.050072
0.0555153
0.0609609
0.0663641
0.0716857
0.076892
0.0819547
0.0868508
0.0915616
0.0960727
0.100374
0.104459
0.108323
0.111966
0.115388
0.118592
0.121582
0.124361
0.126936
0.129309
0.131484
0.133465
0.135252
0.136843
0.138233
0.139415
0.140374
0.141091
0.141528
0.141655
0.141423
0.14075
0.139557
0.129142
0.117752
0.10641
0.0952683
0.084446
0.0740401
0.0641296
0.0547797
0.0460464
0.0379798
0.0306259
0.0240271
0.0182371
0.0132992
0.00924465
0.00608117
0.00376784
0.00219858
0.00121376
0.000638695
0.000322827
0.000157849
7.54615e-05
3.53714e-05
1.62897e-05
7.38252e-06
3.29703e-06
1.45285e-06
6.32446e-07
2.72288e-07
1.16065e-07
4.9027e-08
2.05328e-08
8.52164e-09
3.49469e-09
1.40316e-09
5.37079e-10
1.79395e-10
3.1431e-11
4.64974e-07
2.0321e-06
4.66805e-06
9.0866e-06
1.64565e-05
2.86687e-05
4.87409e-05
8.14118e-05
0.000133985
0.000217476
0.000348077
0.000548884
0.000851649
0.00129812
0.00194026
0.00283843
0.00405701
0.00565753
0.00769066
0.0101893
0.0131646
0.0166061
0.0204848
0.0247573
0.0293711
0.0342683
0.0393889
0.0446731
0.0500636
0.0555061
0.060951
0.0663536
0.0716747
0.0768806
0.0819432
0.0868393
0.0915504
0.0960618
0.100363
0.104449
0.108313
0.111957
0.11538
0.118585
0.121577
0.124358
0.126934
0.12931
0.131488
0.133472
0.135262
0.136857
0.138252
0.139438
0.140402
0.141123
0.141564
0.141694
0.141461
0.140783
0.139574
0.129271
0.117897
0.10656
0.0954148
0.0845861
0.0741718
0.0642518
0.054892
0.0461487
0.0380719
0.0307076
0.0240982
0.0182976
0.013349
0.0092839
0.00611029
0.00378796
0.00221146
0.00122144
0.000643017
0.000325139
0.000159002
7.6024e-05
3.56404e-05
1.64168e-05
7.44029e-06
3.32271e-06
1.46408e-06
6.37288e-07
2.74354e-07
1.16939e-07
4.93933e-08
2.06852e-08
8.58465e-09
3.52045e-09
1.4135e-09
5.41036e-10
1.8072e-10
3.16632e-11
4.64858e-07
2.03159e-06
4.66688e-06
9.08433e-06
1.64523e-05
2.86614e-05
4.87284e-05
8.13904e-05
0.000133949
0.000217415
0.000347976
0.000548718
0.000851382
0.0012977
0.0019396
0.00283743
0.00405555
0.00565545
0.00768779
0.0101854
0.0131596
0.0165999
0.0204771
0.0247481
0.0293603
0.0342558
0.0393746
0.0446572
0.050046
0.055487
0.0609304
0.0663318
0.0716518
0.0768569
0.081919
0.0868149
0.0915259
0.0960375
0.10034
0.104425
0.108291
0.111936
0.11536
0.118568
0.121561
0.124345
0.126925
0.129304
0.131486
0.133474
0.13527
0.13687
0.138271
0.139464
0.140435
0.141162
0.141609
0.141743
0.141511
0.140828
0.139605
0.129533
0.118178
0.106845
0.0956948
0.0848555
0.0744273
0.0644912
0.055114
0.0463524
0.0382567
0.030873
0.0242436
0.0184224
0.0134525
0.00936596
0.00617166
0.0038307
0.00223906
0.00123803
0.00065239
0.000330164
0.00016153
7.72803e-05
3.62369e-05
1.6686e-05
7.56074e-06
3.37596e-06
1.48733e-06
6.47324e-07
2.78642e-07
1.18754e-07
5.01551e-08
2.10025e-08
8.71574e-09
3.57403e-09
1.43497e-09
5.49246e-10
1.83466e-10
3.2144e-11
4.64683e-07
2.03083e-06
4.66513e-06
9.08092e-06
1.64461e-05
2.86505e-05
4.87095e-05
8.13581e-05
0.000133894
0.000217323
0.000347824
0.000548468
0.000850978
0.00129706
0.00193861
0.00283594
0.00405335
0.00565233
0.0076835
0.0101797
0.0131522
0.0165906
0.0204657
0.0247344
0.0293441
0.0342371
0.0393534
0.0446335
0.0500198
0.0554583
0.0608995
0.0662988
0.0716171
0.0768207
0.0818815
0.0867766
0.0914871
0.0959985
0.100301
0.104387
0.108253
0.111899
0.115326
0.118535
0.121531
0.124319
0.126902
0.129285
0.131473
0.133467
0.135268
0.136875
0.138283
0.139484
0.140462
0.141196
0.14165
0.141788
0.141558
0.140875
0.139644
0.129933
0.118595
0.107264
0.0961063
0.0852522
0.0748047
0.0648463
0.0554447
0.0466572
0.0385342
0.0311221
0.0244634
0.0186115
0.0136099
0.00949134
0.00626589
0.00389673
0.00228194
0.00126392
0.000667063
0.000338037
0.000165563
7.91771e-05
3.71109e-05
1.70886e-05
7.74333e-06
3.45753e-06
1.52325e-06
6.62918e-07
2.85329e-07
1.2159e-07
5.13468e-08
2.14989e-08
8.92074e-09
3.65776e-09
1.46851e-09
5.62063e-10
1.8775e-10
3.28941e-11
4.64459e-07
2.02986e-06
4.6629e-06
9.07657e-06
1.64382e-05
2.86365e-05
4.86853e-05
8.13169e-05
0.000133825
0.000217206
0.00034763
0.000548151
0.000850465
0.00129625
0.00193735
0.00283403
0.00405056
0.00564835
0.00767801
0.0101724
0.0131427
0.0165786
0.0204509
0.0247166
0.0293232
0.0342129
0.0393258
0.0446024
0.0499853
0.0554205
0.0608586
0.066255
0.0715706
0.0767719
0.0818308
0.0867243
0.0914336
0.0959442
0.100246
0.104332
0.1082
0.111847
0.115275
0.118487
0.121486
0.124277
0.126864
0.129252
0.131445
0.133444
0.135252
0.136867
0.138283
0.139491
0.140477
0.141219
0.141678
0.141818
0.141585
0.140886
0.139618
0.130485
0.119159
0.107828
0.0966569
0.0857824
0.0753095
0.0653221
0.0558888
0.0470673
0.0389085
0.0314589
0.0247612
0.0188682
0.0138242
0.00966251
0.00639507
0.00398774
0.00234149
0.00130033
0.000688275
0.000349278
0.000170904
8.173e-05
3.83216e-05
1.76516e-05
7.99991e-06
3.57229e-06
1.57374e-06
6.84829e-07
2.94716e-07
1.25566e-07
5.30144e-08
2.21924e-08
9.20685e-09
3.77455e-09
1.51526e-09
5.79924e-10
1.93719e-10
3.39393e-11
4.64201e-07
2.02873e-06
4.66031e-06
9.07153e-06
1.64291e-05
2.86205e-05
4.86576e-05
8.12697e-05
0.000133745
0.000217073
0.000347408
0.000547787
0.000849877
0.00129531
0.0019359
0.00283183
0.00404732
0.00564372
0.0076716
0.0101638
0.0131315
0.0165644
0.0204334
0.0246955
0.0292982
0.0341838
0.0392925
0.0445648
0.0499434
0.0553744
0.0608085
0.066201
0.071513
0.0767111
0.0817671
0.0866583
0.0913656
0.0958749
0.100176
0.104262
0.108129
0.111777
0.115207
0.118421
0.121423
0.124217
0.126809
0.129202
0.1314
0.133406
0.135221
0.136843
0.138268
0.139485
0.14048
0.141231
0.1417
0.141848
0.141622
0.140929
0.139661
0.131192
0.119876
0.108538
0.0973544
0.086454
0.0759499
0.0659266
0.056454
0.0475901
0.0393863
0.0318894
0.0251423
0.0191974
0.0140996
0.0098832
0.00656226
0.00410608
0.00241935
0.00134826
0.000713732
0.000362134
0.000177486
8.49848e-05
3.98781e-05
1.83767e-05
8.3307e-06
3.72057e-06
1.63917e-06
7.13288e-07
3.0694e-07
1.30759e-07
5.51984e-08
2.31026e-08
9.58253e-09
3.92788e-09
1.57663e-09
6.03373e-10
2.01555e-10
3.53116e-11
4.63922e-07
2.02751e-06
4.65753e-06
9.06613e-06
1.64193e-05
2.86034e-05
4.86283e-05
8.12198e-05
0.000133661
0.000216932
0.000347174
0.000547403
0.000849255
0.00129432
0.00193436
0.00282948
0.00404384
0.00563873
0.00766466
0.0101544
0.0131193
0.0165488
0.020414
0.024672
0.0292702
0.034151
0.0392547
0.0445219
0.0498954
0.0553213
0.0607503
0.066138
0.0714455
0.0766394
0.0816917
0.0865795
0.0912841
0.0957912
0.100091
0.104176
0.108043
0.111692
0.115122
0.118338
0.121343
0.12414
0.126736
0.129134
0.131338
0.133351
0.135173
0.136804
0.138237
0.139464
0.140469
0.141231
0.141711
0.141869
0.141652
0.140967
0.139697
0.132062
0.120748
0.109398
0.098196
0.0872753
0.0767383
0.0666704
0.0571504
0.0482355
0.0399767
0.0324219
0.0256142
0.0196056
0.0144419
0.0101585
0.00677186
0.00425554
0.00251882
0.00140432
0.000744411
0.00037871
0.00018599
8.91336e-05
4.18492e-05
1.92929e-05
8.74845e-06
3.90774e-06
1.72173e-06
7.49198e-07
3.22365e-07
1.37312e-07
5.79556e-08
2.42525e-08
1.00579e-08
4.12206e-09
1.65437e-09
6.33082e-10
2.11482e-10
3.70507e-11
4.63639e-07
2.02628e-06
4.65472e-06
9.06071e-06
1.64095e-05
2.85864e-05
4.85992e-05
8.11708e-05
0.000133578
0.000216795
0.000346947
0.00054703
0.00084865
0.00129336
0.00193284
0.00282717
0.00404039
0.00563374
0.00765765
0.0101449
0.0131067
0.0165326
0.0203938
0.0246472
0.0292404
0.0341159
0.039214
0.0444754
0.0498429
0.0552628
0.0606859
0.0660679
0.0713698
0.0765585
0.081606
0.0864895
0.0911905
0.0956945
0.0999915
0.104075
0.107941
0.11159
0.115021
0.118239
0.121245
0.124046
0.126646
0.129049
0.131259
0.133278
0.135108
0.136747
0.13819
0.139427
0.140443
0.141215
0.141706
0.141875
0.141667
0.140988
0.139719
0.133108
0.121789
0.110419
0.0991817
0.0882242
0.0776536
0.0675547
0.05799
0.0490191
0.040691
0.0330661
0.0261855
0.0201007
0.0148582
0.0104949
0.00703004
0.00444185
0.00263255
0.00147238
0.000783736
0.000399749
0.00019664
9.43181e-05
4.43096e-05
2.04353e-05
9.26869e-06
4.14059e-06
1.82434e-06
7.93787e-07
3.41502e-07
1.45437e-07
6.13719e-08
2.56766e-08
1.06464e-08
4.36257e-09
1.75068e-09
6.69909e-10
2.2378e-10
3.9207e-11
4.63366e-07
2.0251e-06
4.65203e-06
9.05555e-06
1.64003e-05
2.85705e-05
4.85725e-05
8.11261e-05
0.000133504
0.000216672
0.000346745
0.000546699
0.000848113
0.0012925
0.00193149
0.00282508
0.00403725
0.00562914