/*--------------------------------*- C++ -*----------------------------------*\
  =========                 |
  \\      /  F ield         | OpenFOAM: The Open Source CFD Toolbox
   \\    /   O peration     | Website:  https://openfoam.org
    \\  /    A nd           | Version:  8
     \\/     M anipulation  |
\*---------------------------------------------------------------------------*/
FoamFile
{
    version     2.0;
    format      ascii;
    class       volScalarField;
    location    "420/fluid";
    object      H2O;
}
// * * * * * * * * * * * * * * * * * * * * * * * * * * * * * * * * * * * * * //

dimensions      [0 0 0 0 0 0 0];

internalField   nonuniform List<scalar> 
4000
(
3.62673e-07
1.58437e-06
3.63675e-06
7.07253e-06
1.27982e-05
2.22859e-05
3.78986e-05
6.33764e-05
0.000104541
0.000170273
0.000273796
0.000434224
0.000678183
0.0010411
0.00156747
0.00230925
0.00332179
0.00465776
0.00635961
0.00845227
0.0109409
0.0138117
0.0170346
0.0205686
0.0243657
0.028375
0.0325454
0.0368275
0.041175
0.0455453
0.0499003
0.0542065
0.0584353
0.0625625
0.0665686
0.0704383
0.0741594
0.077723
0.0811232
0.0843567
0.0874226
0.0903213
0.0930546
0.0956257
0.0980384
0.100297
0.102406
0.10437
0.106193
0.107878
0.109428
0.110844
0.112124
0.113267
0.114265
0.115109
0.115783
0.116266
0.116522
0.116523
0.116205
0.115487
0.114264
0.106505
0.097918
0.0892072
0.0805241
0.0719855
0.063682
0.0556854
0.0480545
0.0408393
0.0340845
0.0278442
0.0221367
0.0170261
0.012567
0.00881347
0.00581106
0.00357072
0.00203739
0.00108316
0.000541328
0.000258225
0.000119435
5.39233e-05
2.38782e-05
1.04075e-05
4.47704e-06
1.90495e-06
8.03141e-07
3.36014e-07
1.39658e-07
5.76997e-08
2.36851e-08
9.63138e-09
3.84425e-09
1.46623e-09
4.89336e-10
8.57489e-11
3.65583e-07
1.59769e-06
3.66992e-06
7.14385e-06
1.29413e-05
2.25595e-05
3.83997e-05
6.4256e-05
0.000106018
0.000172637
0.000277369
0.000439269
0.000684732
0.00104869
0.00157481
0.00231389
0.00332011
0.00464515
0.00633049
0.00840243
0.0108679
0.0137149
0.0169154
0.02043
0.024212
0.028211
0.0323762
0.036658
0.0410095
0.0453875
0.0497531
0.0540721
0.0583152
0.0624576
0.0664794
0.0703647
0.0741009
0.077679
0.0810932
0.0843401
0.0874177
0.0903266
0.0930689
0.0956479
0.0980673
0.100332
0.102445
0.104413
0.106238
0.107924
0.109474
0.110888
0.112166
0.113304
0.114295
0.115129
0.115791
0.116259
0.116498
0.116483
0.116157
0.115457
0.114318
0.105881
0.0971627
0.0883544
0.0795997
0.071009
0.0626687
0.0546482
0.047005
0.0397891
0.0330469
0.0268457
0.021185
0.0161463
0.0117865
0.00815994
0.00530576
0.0032181
0.00181901
0.000963632
0.000483004
0.000232027
0.00010832
4.94046e-05
2.20971e-05
9.71933e-06
4.21385e-06
1.80442e-06
7.64539e-07
3.21037e-07
1.33775e-07
5.53628e-08
2.27501e-08
9.25739e-09
3.69673e-09
1.41052e-09
4.70892e-10
8.25414e-11
3.7011e-07
1.61789e-06
3.7181e-06
7.24192e-06
1.31266e-05
2.28927e-05
3.89747e-05
6.52089e-05
0.00010753
0.000174923
0.000280656
0.000443725
0.000690347
0.00105512
0.00158121
0.002319
0.00332212
0.00464095
0.0063165
0.00837465
0.0108228
0.0136501
0.01683
0.0203246
0.0240888
0.0280735
0.0322285
0.0365045
0.0408547
0.0452356
0.049608
0.0539372
0.058193
0.0623502
0.0663883
0.070291
0.0740456
0.0776421
0.0810733
0.0843352
0.0874271
0.0903495
0.0931041
0.0956941
0.098123
0.100395
0.102516
0.104488
0.106317
0.108005
0.109555
0.110967
0.11224
0.113369
0.114348
0.115163
0.115797
0.116223
0.116403
0.116301
0.115848
0.114964
0.113574
0.104832
0.0959098
0.0869668
0.0781261
0.0694857
0.0611245
0.0531076
0.0454906
0.038323
0.0316518
0.0255533
0.0200129
0.015122
0.0109335
0.00749365
0.00482658
0.00290579
0.00163575
0.000866168
0.000435308
0.000209956
9.84835e-05
4.51447e-05
2.02931e-05
8.96845e-06
3.90522e-06
1.67864e-06
7.13516e-07
3.00375e-07
1.25405e-07
5.19678e-08
2.13729e-08
8.70107e-09
3.47537e-09
1.32619e-09
4.42732e-10
7.7591e-11
3.73434e-07
1.6324e-06
3.75135e-06
7.30621e-06
1.32412e-05
2.30866e-05
3.92891e-05
6.56995e-05
0.000108266
0.000175983
0.0002821
0.00044556
0.000692449
0.0010571
0.00158226
0.00231771
0.00331634
0.00462847
0.00629513
0.00834233
0.0107779
0.0135916
0.0167578
0.0202395
0.0239922
0.0279675
0.0321159
0.0363884
0.0407383
0.045122
0.0495004
0.0538386
0.0581061
0.0622775
0.0663315
0.0702507
0.074021
0.0776324
0.0810787
0.084356
0.0874626
0.0903986
0.0931657
0.0957667
0.0982054
0.100486
0.102613
0.10459
0.106422
0.108112
0.109662
0.111071
0.112338
0.113459
0.114424
0.115219
0.115824
0.116203
0.116318
0.116108
0.115476
0.114284
0.112285
0.103328
0.0942648
0.0852334
0.0763455
0.0676914
0.0593451
0.0513688
0.0438164
0.0367362
0.0301747
0.0242006
0.0188132
0.014094
0.0100906
0.00684168
0.00435853
0.00259821
0.00145173
0.00076542
0.000384194
0.000185531
8.72469e-05
4.01255e-05
1.81038e-05
8.03206e-06
3.5112e-06
1.51502e-06
6.4627e-07
2.7295e-07
1.14282e-07
4.74747e-08
1.95649e-08
7.97822e-09
3.19077e-09
1.21874e-09
4.07081e-10
7.13495e-11
3.75713e-07
1.6423e-06
3.77385e-06
7.34929e-06
1.33173e-05
2.32145e-05
3.94955e-05
6.60193e-05
0.00010874
0.00017665
0.000282981
0.000446625
0.000693575
0.00105804
0.0015826
0.00231656
0.00331244
0.00462025
0.0062809
0.00832047
0.0107471
0.0135512
0.0167078
0.0201804
0.0239254
0.0278948
0.0320393
0.0363106
0.0406621
0.0450505
0.049436
0.0537836
0.0580622
0.0622454
0.0663112
0.0702428
0.0740267
0.0776527
0.0811135
0.0844049
0.0875248
0.0904731
0.0932515
0.0958625
0.0983098
0.100598
0.10273
0.104712
0.106546
0.108237
0.109786
0.111192
0.112454
0.113568
0.114523
0.115306
0.115895
0.116254
0.116349
0.116123
0.115488
0.114335
0.110426
0.101444
0.0923569
0.0833147
0.0744339
0.0658071
0.057509
0.0496018
0.0421392
0.0351696
0.0287391
0.0228905
0.0176704
0.01313
0.00931306
0.006251
0.00394262
0.00233005
0.00129385
0.000679886
0.000340974
0.000164829
7.7661e-05
3.58017e-05
1.61939e-05
7.20277e-06
3.15621e-06
1.36486e-06
5.83378e-07
2.46823e-07
1.03501e-07
4.30522e-08
1.77615e-08
7.24904e-09
2.90105e-09
1.10858e-09
3.70355e-10
6.49026e-11
3.77062e-07
1.6481e-06
3.78681e-06
7.37354e-06
1.3359e-05
2.32821e-05
3.96005e-05
6.61753e-05
0.000108961
0.000176941
0.000283327
0.000446967
0.000693774
0.00105783
0.00158149
0.00231394
0.00330752
0.00461214
0.00626866
0.00830329
0.0107244
0.0135228
0.0166738
0.0201418
0.0238832
0.0278507
0.0319951
0.0362681
0.0406233
0.0450169
0.049409
0.0537639
0.0580508
0.0622437
0.0663212
0.0702656
0.0740627
0.0777017
0.0811752
0.0844788
0.0876101
0.0905689
0.0933566
0.0959758
0.09843
0.100723
0.10286
0.104844
0.10668
0.10837
0.109916
0.111319
0.112575
0.113681
0.114627
0.115398
0.115975
0.11632
0.116401
0.116161
0.115517
0.114358
0.108439
0.0994805
0.0904117
0.0813922
0.0725451
0.0639665
0.0557331
0.0479076
0.0405434
0.0336884
0.0273978
0.0216909
0.0166287
0.0122569
0.0086143
0.00572455
0.00357465
0.00209381
0.00115465
0.000603971
0.000302163
0.000146012
6.8838e-05
3.17749e-05
1.43968e-05
6.41587e-06
2.81717e-06
1.22077e-06
5.22837e-07
2.21625e-07
9.30937e-08
3.87815e-08
1.602e-08
6.54511e-09
2.62139e-09
1.00224e-09
3.349e-10
5.86784e-11
3.77858e-07
1.65152e-06
3.7944e-06
7.38761e-06
1.33828e-05
2.33204e-05
3.96588e-05
6.62594e-05
0.000109075
0.000177082
0.000283478
0.000447084
0.000693768
0.00105751
0.00158058
0.00231204
0.00330415
0.00460674
0.00626073
0.00829247
0.0107106
0.0135062
0.0166548
0.0201211
0.0238619
0.0278298
0.0319758
0.0362515
0.0406102
0.0450085
0.0494068
0.0537699
0.0580665
0.0622701
0.0663587
0.0703145
0.074123
0.0777732
0.0812576
0.0845714
0.0877121
0.0906794
0.0934745
0.0961
0.0985593
0.100856
0.102995
0.10498
0.106815
0.108503
0.110045
0.111441
0.112689
0.113784
0.114717
0.115473
0.11603
0.116354
0.116415
0.116153
0.115485
0.114307
0.106572
0.0976495
0.088599
0.0796007
0.0707869
0.0622574
0.0540896
0.0463457
0.0390782
0.0323337
0.0261784
0.0206062
0.0156922
0.0114779
0.00799662
0.00526435
0.00325694
0.00189225
0.00103703
0.000540227
0.000269656
0.000130234
6.1414e-05
2.83683e-05
1.28663e-05
5.74059e-06
2.52387e-06
1.09511e-06
4.69625e-07
1.99317e-07
8.382e-08
3.49546e-08
1.44522e-08
5.9088e-09
2.36779e-09
9.05568e-10
3.02609e-10
5.30103e-11
3.78319e-07
1.65348e-06
3.79871e-06
7.39544e-06
1.33958e-05
2.33404e-05
3.96879e-05
6.62992e-05
0.000109124
0.000177135
0.000283519
0.000447074
0.000693639
0.00105716
0.00157985
0.00231074
0.00330204
0.00460362
0.00625643
0.00828693
0.0107039
0.0134986
0.0166469
0.0201132
0.0238546
0.0278238
0.0319723
0.0362518
0.0406159
0.045021
0.0494273
0.0537989
0.0581047
0.062318
0.0664166
0.0703824
0.0742008
0.0778606
0.081354
0.0846761
0.0878244
0.0907983
0.0935991
0.096229
0.0986916
0.100991
0.10313
0.105114
0.106946
0.108629
0.110165
0.111552
0.112788
0.113868
0.114781
0.115513
0.116042
0.116331
0.116354
0.116055
0.115362
0.11421
0.105327
0.0962152
0.0870678
0.078032
0.0692217
0.0607255
0.0526139
0.0449444
0.0377661
0.0311226
0.025081
0.0196302
0.0148555
0.0107901
0.0074572
0.00486686
0.00298532
0.00172136
0.000937787
0.000486498
0.000242197
0.000116857
5.50906e-05
2.54527e-05
1.15502e-05
5.15733e-06
2.26953e-06
9.85739e-07
4.23168e-07
1.79786e-07
7.56819e-08
3.15895e-08
1.30711e-08
5.34752e-09
2.14382e-09
8.20101e-10
2.74028e-10
4.80075e-11
3.78615e-07
1.65475e-06
3.80147e-06
7.40043e-06
1.3404e-05
2.33529e-05
3.9706e-05
6.63236e-05
0.000109154
0.000177167
0.000283543
0.000447073
0.000693582
0.001057
0.00157954
0.0023102
0.00330119
0.0046024
0.00625483
0.00828502
0.0107019
0.0134967
0.0166457
0.0201135
0.0238574
0.0278303
0.0319833
0.0362682
0.0406386
0.0450507
0.0494645
0.0538443
0.0581587
0.0623808
0.0664882
0.0704627
0.0742895
0.0779573
0.0814582
0.084787
0.0879412
0.0909201
0.0937248
0.0963576
0.0988218
0.101121
0.10326
0.105242
0.10707
0.108747
0.110274
0.11165
0.112872
0.113932
0.11482
0.115517
0.115996
0.116218
0.116147
0.115707
0.114806
0.113349
0.104199
0.0949286
0.0856963
0.0766279
0.0678227
0.0593597
0.0513031
0.0437057
0.0366131
0.030066
0.0241214
0.0187924
0.0141362
0.0101951
0.00699373
0.00452874
0.00275638
0.00157843
0.000855244
0.000441938
0.000219433
0.00010575
4.98265e-05
2.30173e-05
1.04467e-05
4.66638e-06
2.05459e-06
8.92963e-07
3.83615e-07
1.63104e-07
6.87097e-08
2.8699e-08
1.18822e-08
4.86343e-09
1.95037e-09
7.462e-10
2.49299e-10
4.36788e-11
3.78841e-07
1.65571e-06
3.8036e-06
7.40429e-06
1.34104e-05
2.33629e-05
3.97209e-05
6.63448e-05
0.000109183
0.000177204
0.000283588
0.000447122
0.000693627
0.00105704
0.00157956
0.00231021
0.00330126
0.00460262
0.00625542
0.00828628
0.0107042
0.0135007
0.0166519
0.0201227
0.0238702
0.0278473
0.0320054
0.0362961
0.0406727
0.0450917
0.0495129
0.0539003
0.0582224
0.0624523
0.0665675
0.0705495
0.0743835
0.0780579
0.0815648
0.0848989
0.0880575
0.0910399
0.0938473
0.0964817
0.0989464
0.101245
0.103382
0.10536
0.107184
0.108855
0.110373
0.111739
0.112946
0.113989
0.114853
0.11552
0.115956
0.11612
0.115963
0.115389
0.114272
0.112299
0.103025
0.0936806
0.084414
0.0753429
0.0665598
0.058139
0.0501411
0.0426171
0.035612
0.029169
0.0233359
0.0181353
0.0135859
0.00972429
0.00661129
0.00424665
0.00256558
0.0014596
0.000786744
0.000404978
0.000200537
9.65138e-05
4.54391e-05
2.09827e-05
9.52251e-06
4.2542e-06
1.87371e-06
8.14713e-07
3.50185e-07
1.48976e-07
6.27951e-08
2.62432e-08
1.08707e-08
4.45111e-09
1.78545e-09
6.83157e-10
2.28199e-10
3.99854e-11
3.79053e-07
1.65662e-06
3.80562e-06
7.40805e-06
1.34168e-05
2.33734e-05
3.97376e-05
6.63707e-05
0.000109223
0.000177265
0.000283681
0.000447265
0.000693847
0.00105738
0.00158009
0.00231105
0.00330256
0.00460463
0.00625842
0.00829066
0.0107105
0.0135093
0.0166634
0.0201377
0.0238893
0.0278712
0.0320346
0.036331
0.0407139
0.0451395
0.0495675
0.0539618
0.058291
0.0625278
0.0666497
0.0706381
0.074478
0.0781578
0.0816694
0.0850076
0.0881694
0.0911543
0.0939631
0.0965981
0.0990625
0.10136
0.103494
0.105469
0.107288
0.108953
0.110464
0.11182
0.113018
0.114048
0.114898
0.11555
0.11597
0.116122
0.11596
0.115403
0.114349
0.111122
0.101834
0.0924855
0.0832278
0.0741787
0.0654309
0.057058
0.0491195
0.0416657
0.034741
0.028388
0.0226351
0.0174997
0.0130485
0.00931445
0.00629604
0.00400978
0.0024054
0.00136021
0.000729651
0.000374246
0.000184844
8.88445e-05
4.17943e-05
1.92909e-05
8.7531e-06
3.91056e-06
1.72268e-06
7.49272e-07
3.22183e-07
1.37124e-07
5.7826e-08
2.41773e-08
1.00189e-08
4.10358e-09
1.64633e-09
6.29931e-10
2.10418e-10
3.68704e-11
3.79272e-07
1.65757e-06
3.80775e-06
7.4121e-06
1.34239e-05
2.33854e-05
3.97574e-05
6.64031e-05
0.000109275
0.00017735
0.000283818
0.000447486
0.000694203
0.00105795
0.00158099
0.00231244
0.00330468
0.00460777
0.00626295
0.008297
0.0107191
0.0135207
0.0166782
0.0201563
0.0239123
0.027899
0.0320676
0.0363697
0.0407585
0.0451902
0.0496244
0.0540251
0.0583604
0.0626032
0.0667308
0.0707246
0.0745694
0.0782535
0.0817688
0.0851099
0.088274
0.0912603
0.0940698
0.0967046
0.099168
0.101463
0.103595
0.105566
0.10738
0.109039
0.110544
0.111893
0.113081
0.114103
0.114944
0.115585
0.115996
0.116142
0.115978
0.115427
0.114389
0.109978
0.100704
0.0913766
0.0821475
0.0731352
0.0644324
0.0561139
0.0482371
0.040851
0.0339981
0.0277015
0.0219966
0.0169412
0.0125738
0.00892531
0.00601401
0.00380974
0.00226856
0.00127611
0.000681714
0.000348586
0.000171788
8.24763e-05
3.87707e-05
1.78877e-05
8.11483e-06
3.62534e-06
1.59722e-06
6.94862e-07
2.98877e-07
1.2725e-07
5.3682e-08
2.24529e-08
9.30738e-09
3.81311e-09
1.53002e-09
5.85432e-10
1.95562e-10
3.42653e-11
3.79504e-07
1.65858e-06
3.81005e-06
7.4165e-06
1.34318e-05
2.33989e-05
3.97802e-05
6.64412e-05
0.000109339
0.000177455
0.00028399
0.000447767
0.000694658
0.00105867
0.00158213
0.0023142
0.00330732
0.00461162
0.0062684
0.00830449
0.0107291
0.0135337
0.0166946
0.0201766
0.0239369
0.0279283
0.032102
0.0364093
0.0408036
0.0452408
0.0496807
0.0540868
0.0584275
0.0626755
0.0668079
0.070806
0.0746547
0.0783422
0.0818602
0.0852034
0.0883689
0.0913559
0.0941653
0.0967994
0.0992611
0.101554
0.103683
0.10565
0.107459
0.109113
0.110611
0.111953
0.113134
0.114147
0.114979
0.115611
0.116013
0.116152
0.115981
0.115426
0.114387
0.108982
0.0997141
0.0904052
0.0812049
0.0722336
0.0635791
0.0553109
0.0474799
0.0401351
0.0333166
0.0270739
0.0214404
0.0164584
0.0121661
0.00859357
0.00575654
0.00363727
0.00215573
0.00120572
0.000641802
0.000327356
0.00016103
7.72378e-05
3.62854e-05
1.67346e-05
7.59018e-06
3.39075e-06
1.49396e-06
6.50036e-07
2.79658e-07
1.19099e-07
5.02579e-08
2.10267e-08
8.71842e-09
3.57255e-09
1.43365e-09
5.48595e-10
1.83259e-10
3.21072e-11
3.79745e-07
1.65963e-06
3.81244e-06
7.42112e-06
1.34401e-05
2.34134e-05
3.98049e-05
6.64829e-05
0.000109409
0.000177571
0.000284183
0.000448083
0.000695169
0.00105949
0.00158341
0.00231615
0.00331021
0.00461579
0.00627425
0.00831243
0.0107395
0.0135471
0.0167114
0.0201972
0.0239615
0.0279573
0.0321356
0.0364477
0.0408469
0.045289
0.0497337
0.0541446
0.0584898
0.062742
0.0668783
0.07088
0.0747317
0.0784217
0.0819416
0.0852862
0.0884524
0.0914395
0.0942483
0.0968811
0.099341
0.101632
0.103757
0.10572
0.107524
0.109172
0.110665
0.111999
0.113173
0.114177
0.115001
0.115624
0.116017
0.116147
0.115969
0.115408
0.114369
0.108123
0.0988609
0.0895684
0.080397
0.071456
0.062829
0.0545861
0.0467919
0.039493
0.0327313
0.0265459
0.0209722
0.0160527
0.0118249
0.00831782
0.00554494
0.00348458
0.00206252
0.00114993
0.00060957
0.000310114
0.000152302
7.29892e-05
3.42692e-05
1.57985e-05
7.16389e-06
3.19995e-06
1.40988e-06
6.135e-07
2.63977e-07
1.12441e-07
4.74585e-08
1.98598e-08
8.23617e-09
3.37547e-09
1.35473e-09
5.18419e-10
1.73181e-10
3.03402e-11
3.79982e-07
1.66066e-06
3.81481e-06
7.42572e-06
1.34484e-05
2.3428e-05
3.98299e-05
6.65254e-05
0.00010948
0.000177691
0.000284381
0.000448407
0.000695694
0.00106032
0.0015847
0.00231812
0.00331312
0.00461996
0.00628004
0.00832023
0.0107497
0.0135601
0.0167275
0.0202167
0.0239848
0.0279845
0.0321668
0.0364831
0.0408865
0.0453329
0.0497816
0.0541965
0.0585454
0.062801
0.0669404
0.0709448
0.0747987
0.0784905
0.0820117
0.0853569
0.0885233
0.09151
0.0943179
0.0969492
0.0994068
0.101695
0.103816
0.105775
0.107575
0.109218
0.110704
0.112032
0.113198
0.114195
0.11501
0.115624
0.116008
0.11613
0.115945
0.115377
0.11434
0.107411
0.0981456
0.0888634
0.079707
0.0707827
0.0621828
0.0539766
0.0462211
0.0389641
0.0322474
0.0261096
0.0205855
0.0157182
0.0115444
0.00809222
0.00537316
0.00336209
0.001981
0.00110398
0.000584419
0.000296525
0.000145332
6.95891e-05
3.26539e-05
1.50476e-05
6.82155e-06
3.04657e-06
1.34222e-06
5.84074e-07
2.51337e-07
1.07071e-07
4.51991e-08
1.89175e-08
7.84666e-09
3.21635e-09
1.29103e-09
4.94073e-10
1.65046e-10
2.8915e-11
3.80204e-07
1.66163e-06
3.81702e-06
7.43003e-06
1.34562e-05
2.34417e-05
3.98536e-05
6.65657e-05
0.000109548
0.000177805
0.000284569
0.000448716
0.000696192
0.00106111
0.00158593
0.00231997
0.00331584
0.00462384
0.00628539
0.0083274
0.0107591
0.0135718
0.016742
0.0202342
0.0240055
0.0280085
0.0321944
0.0365142
0.0409211
0.0453709
0.049823
0.054241
0.0585928
0.0628511
0.0669928
0.0709991
0.0748546
0.0785475
0.0820694
0.0854149
0.088581
0.091567
0.0943736
0.0970031
0.0994585
0.101743
0.103862
0.105817
0.107612
0.109249
0.110729
0.112051
0.11321
0.1142
0.115007
0.115614
0.11599
0.116105
0.115914
0.115343
0.114304
0.10683
0.0975577
0.0882812
0.0791352
0.0702321
0.0616578
0.053481
0.0457579
0.0385356
0.0318558
0.0257567
0.0202731
0.0154483
0.0113187
0.00791134
0.00523613
0.00326511
0.0019172
0.00106471
0.000563563
0.000285991
0.000139937
6.69214e-05
3.13783e-05
1.44534e-05
6.55047e-06
2.92505e-06
1.28861e-06
5.60752e-07
2.41319e-07
1.02816e-07
4.34093e-08
1.81717e-08
7.53879e-09
3.09069e-09
1.24073e-09
4.74856e-10
1.58623e-10
2.77903e-11
3.80396e-07
1.66247e-06
3.81895e-06
7.43378e-06
1.34631e-05
2.34537e-05
3.98743e-05
6.6601e-05
0.000109608
0.000177904
0.000284735
0.000448987
0.000696628
0.0010618
0.001587
0.00232158
0.0033182
0.00462719
0.00629
0.00833354
0.010767
0.0135819
0.0167543
0.020249
0.0240229
0.0280287
0.0322173
0.03654
0.0409497
0.0454022
0.0498568
0.0542772
0.0586312
0.0628914
0.0670347
0.0710423
0.0748987
0.0785922
0.0821143
0.0854597
0.0886253
0.0916103
0.0944155
0.0970431
0.0994961
0.101778
0.103893
0.105844
0.107635
0.109267
0.110742
0.112058
0.113211
0.114194
0.114995
0.115596
0.115967
0.116081
0.115893
0.115333
0.114326
0.106378
0.0970956
0.0878187
0.0786837
0.0697974
0.0612439
0.0530909
0.0453938
0.0381993
0.0315489
0.0254806
0.020029
0.0152379
0.011143
0.00777103
0.00513024
0.0031905
0.00186838
0.00103487
0.000546178
0.000276779
0.00013556
6.48284e-05
3.03856e-05
1.39919e-05
6.34014e-06
2.83099e-06
1.24722e-06
5.42793e-07
2.33626e-07
9.95574e-08
4.20425e-08
1.76032e-08
7.30427e-09
2.99497e-09
1.20241e-09
4.60215e-10
1.5373e-10
2.69335e-11
3.80549e-07
1.66314e-06
3.82048e-06
7.43676e-06
1.34685e-05
2.34633e-05
3.98908e-05
6.66292e-05
0.000109655
0.000177984
0.000284867
0.000449202
0.000696975
0.00106235
0.00158784
0.00232285
0.00332006
0.00462983
0.00629363
0.00833836
0.0107732
0.0135897
0.0167639
0.0202604
0.0240364
0.0280442
0.032235
0.0365597
0.0409715
0.0454259
0.0498824
0.0543045
0.05866
0.0629214
0.0670656
0.0710739
0.0749308
0.0786244
0.0821465
0.0854914
0.0886563
0.0916402
0.094444
0.0970698
0.0995206
0.1018
0.103912
0.105859
0.107646
0.109274
0.110744
0.112054
0.113201
0.114178
0.114973
0.115568
0.115934
0.116044
0.115854
0.115295
0.114294
0.10605
0.0967534
0.0874745
0.0783461
0.069472
0.0609343
0.0527996
0.0451225
0.0379494
0.0313214
0.0252762
0.0198488
0.0150828
0.0110139
0.00766822
0.00505297
0.00313636
0.00183322
0.00101364
0.000534148
0.000270324
0.000132254
6.32739e-05
2.96692e-05
1.36617e-05
6.19042e-06
2.7641e-06
1.21777e-06
5.30004e-07
2.28141e-07
9.72312e-08
4.10653e-08
1.71962e-08
7.13616e-09
2.9263e-09
1.17491e-09
4.49705e-10
1.50217e-10
2.63184e-11
3.80655e-07
1.6636e-06
3.82153e-06
7.43882e-06
1.34722e-05
2.34699e-05
3.99022e-05
6.66485e-05
0.000109688
0.000178039
0.000284957
0.00044935
0.000697212
0.00106272
0.00158842
0.00232372
0.00332133
0.00463163
0.0062961
0.00834165
0.0107775
0.013595
0.0167704
0.0202682
0.0240455
0.0280548
0.0322469
0.0365731
0.0409862
0.0454419
0.0498996
0.0543227
0.058679
0.062941
0.0670857
0.0710942
0.0749511
0.0786446
0.0821663
0.0855108
0.0886749
0.0916578
0.0944604
0.0970846
0.0995335
0.101811
0.10392
0.105865
0.107648
0.109272
0.110738
0.112043
0.113185
0.114157
0.114946
0.115536
0.115897
0.116004
0.115813
0.115258
0.114268
0.105834
0.0965223
0.0872404
0.0781162
0.0692507
0.0607246
0.0526031
0.0449403
0.0377821
0.0311696
0.0251405
0.0197294
0.0149805
0.010929
0.00760087
0.00500261
0.00310128
0.00181057
0.00100002
0.000526456
0.000266201
0.00013018
6.22432e-05
2.91798e-05
1.34409e-05
6.09157e-06
2.72039e-06
1.19868e-06
5.21766e-07
2.24622e-07
9.57412e-08
4.04398e-08
1.69357e-08
7.02854e-09
2.88232e-09
1.15728e-09
4.42966e-10
1.47963e-10
2.59238e-11
3.80709e-07
1.66383e-06
3.82207e-06
7.43987e-06
1.34741e-05
2.34732e-05
3.99078e-05
6.66581e-05
0.000109704
0.000178065
0.000285001
0.000449422
0.000697328
0.00106291
0.0015887
0.00232414
0.00332195
0.00463251
0.0062973
0.00834325
0.0107795
0.0135976
0.0167736
0.0202721
0.02405
0.0280599
0.0322528
0.0365796
0.0409934
0.0454497
0.049908
0.0543315
0.0586883
0.0629506
0.0670955
0.0711039
0.0749605
0.0786538
0.0821752
0.0855192
0.0886828
0.0916651
0.0944669
0.0970901
0.0995378
0.101814
0.103921
0.105864
0.107645
0.109267
0.110729
0.112032
0.11317
0.114138
0.114923
0.11551
0.115868
0.115972
0.115781
0.115231
0.114254
0.105728
0.0964027
0.0871176
0.0779957
0.0691355
0.0606163
0.0525025
0.0448479
0.037698
0.0310939
0.0250733
0.0196709
0.0149307
0.010888
0.00756858
0.00497866
0.00308474
0.00179999
0.000993707
0.000522902
0.0002643
0.000129232
6.17807e-05
2.89588e-05
1.33365e-05
6.0441e-06
2.6993e-06
1.18946e-06
5.17786e-07
2.22923e-07
9.50231e-08
4.01387e-08
1.68103e-08
6.97672e-09
2.86112e-09
1.14877e-09
4.3971e-10
1.46872e-10
2.57327e-11
3.80715e-07
1.66386e-06
3.82213e-06
7.43997e-06
1.34743e-05
2.34735e-05
3.99084e-05
6.6659e-05
0.000109706
0.000178068
0.000285005
0.000449428
0.000697337
0.00106292
0.00158872
0.00232417
0.00332199
0.00463255
0.00629736
0.00834333
0.0107796
0.0135977
0.0167737
0.0202722
0.0240501
0.0280601
0.0322529
0.0365798
0.0409935
0.0454499
0.0499081
0.0543317
0.0586884
0.0629508
0.0670956
0.071104
0.0749607
0.0786539
0.0821753
0.0855193
0.0886829
0.0916652
0.094467
0.0970902
0.0995379
0.101814
0.103921
0.105864
0.107645
0.109267
0.110729
0.112032
0.11317
0.114138
0.114923
0.11551
0.115868
0.115972
0.115781
0.115231
0.114254
0.105727
0.0964024
0.0871172
0.0779953
0.0691352
0.060616
0.0525023
0.0448476
0.0376978
0.0310938
0.0250732
0.0196708
0.0149305
0.0108879
0.00756851
0.0049786
0.0030847
0.00179996
0.000993692
0.000522894
0.000264295
0.00012923
6.17796e-05
2.89583e-05
1.33363e-05
6.044e-06
2.69925e-06
1.18944e-06
5.17778e-07
2.2292e-07
9.50215e-08
4.0138e-08
1.681e-08
6.97659e-09
2.86107e-09
1.14875e-09
4.39702e-10
1.46869e-10
2.57323e-11
3.8067e-07
1.66366e-06
3.82169e-06
7.43912e-06
1.34728e-05
2.34708e-05
3.99037e-05
6.66511e-05
0.000109692
0.000178045
0.000284968
0.000449367
0.000697238
0.00106276
0.00158847
0.0023238
0.00332144
0.00463177
0.00629627
0.00834186
0.0107777
0.0135953
0.0167707
0.0202686
0.0240459
0.0280552
0.0322473
0.0365735
0.0409866
0.0454423
0.0499
0.0543231
0.0586794
0.0629415
0.0670861
0.0710946
0.0749515
0.078645
0.0821667
0.0855111
0.0886752
0.0916582
0.0944607
0.0970849
0.0995338
0.101811
0.10392
0.105865
0.107648
0.109272
0.110738
0.112043
0.113185
0.114157
0.114946
0.115536
0.115897
0.116004
0.115813
0.115258
0.114268
0.105833
0.0965212
0.0872394
0.0781153
0.0692499
0.0607238
0.0526024
0.0449396
0.0377815
0.0311691
0.02514
0.019729
0.0149801
0.0109287
0.00760065
0.00500244
0.00310117
0.0018105
0.000999982
0.000526433
0.000266188
0.000130174
6.22402e-05
2.91784e-05
1.34403e-05
6.0913e-06
2.72027e-06
1.19863e-06
5.21742e-07
2.24611e-07
9.57365e-08
4.04378e-08
1.69348e-08
7.02818e-09
2.88216e-09
1.15722e-09
4.42942e-10
1.47954e-10
2.59224e-11
3.80575e-07
1.66325e-06
3.82073e-06
7.43726e-06
1.34694e-05
2.34649e-05
3.98935e-05
6.66336e-05
0.000109663
0.000177996
0.000284885
0.000449231
0.000697019
0.00106242
0.00158794
0.00232298
0.00332024
0.00463006
0.00629392
0.00833872
0.0107737
0.0135902
0.0167644
0.020261
0.024037
0.0280449
0.0322357
0.0365605
0.0409722
0.0454267
0.0498832
0.0543053
0.0586607
0.0629221
0.0670663
0.0710746
0.0749314
0.0786251
0.0821471
0.085492
0.0886569
0.0916408
0.0944445
0.0970703
0.0995211
0.1018
0.103912
0.10586
0.107647
0.109274
0.110744
0.112054
0.113202
0.114178
0.114973
0.115568
0.115934
0.116044
0.115854
0.115295
0.114293
0.106048
0.0967515
0.0874727
0.0783445
0.0694705
0.060933
0.0527984
0.0451214
0.0379483
0.0313204
0.0252754
0.0198481
0.0150822
0.0110134
0.00766783
0.00505268
0.00313616
0.0018331
0.00101356
0.000534106
0.000270302
0.000132243
6.32687e-05
2.96668e-05
1.36607e-05
6.18992e-06
2.76387e-06
1.21766e-06
5.29958e-07
2.28121e-07
9.72225e-08
4.10615e-08
1.71946e-08
7.1355e-09
2.92603e-09
1.1748e-09
4.49663e-10
1.50202e-10
2.6316e-11
3.80432e-07
1.66262e-06
3.8193e-06
7.43447e-06
1.34643e-05
2.34559e-05
3.9878e-05
6.66072e-05
0.000109618
0.000177921
0.00028476
0.000449026
0.000696688
0.00106189
0.00158712
0.00232176
0.00331845
0.00462751
0.00629041
0.00833404
0.0107676
0.0135825
0.0167551
0.0202498
0.0240238
0.0280296
0.0322183
0.036541
0.0409507
0.0454032
0.0498579
0.0542783
0.0586323
0.0628924
0.0670357
0.0710432
0.0748997
0.0785931
0.0821152
0.0854605
0.0886261
0.091611
0.0944162
0.0970438
0.0994968
0.101779
0.103894
0.105845
0.107636
0.109268
0.110743
0.112058
0.113211
0.114194
0.114995
0.115596
0.115968
0.116081
0.115893
0.115333
0.114326
0.106375
0.097093
0.0878162
0.0786814
0.0697953
0.0612419
0.0530891
0.0453921
0.0381978
0.0315476
0.0254794
0.020028
0.0152371
0.0111423
0.00777048
0.00512983
0.00319022
0.0018682
0.00103476
0.000546119
0.000276748
0.000135545
6.48216e-05
3.03823e-05
1.39903e-05
6.3394e-06
2.83065e-06
1.24707e-06
5.42725e-07
2.33597e-07
9.95448e-08
4.20372e-08
1.7601e-08
7.30333e-09
2.99458e-09
1.20225e-09
4.60156e-10
1.53709e-10
2.69301e-11
3.80249e-07
1.66183e-06
3.81747e-06
7.4309e-06
1.34578e-05
2.34445e-05
3.98583e-05
6.65735e-05
0.000109561
0.000177825
0.000284602
0.000448766
0.000696268
0.00106123
0.00158609
0.0023202
0.00331616
0.00462425
0.00628592
0.00832804
0.0107598
0.0135727
0.016743
0.0202353
0.0240066
0.0280098
0.0321957
0.0365156
0.0409225
0.0453723
0.0498244
0.0542424
0.0585942
0.0628524
0.0669941
0.0710004
0.0748559
0.0785487
0.0820706
0.085416
0.0885821
0.091568
0.0943746
0.097004
0.0994593
0.101744
0.103862
0.105817
0.107613
0.10925
0.11073
0.112052
0.113211
0.1142
0.115007
0.115614
0.11599
0.116105
0.115914
0.115342
0.114304
0.106827
0.0975541
0.0882779
0.0791321
0.0702293
0.0616552
0.0534786
0.0457557
0.0385336
0.031854
0.0257551
0.0202717
0.0154472
0.0113177
0.00791061
0.00523558
0.00326473
0.00191696
0.00106457
0.000563485
0.000285951
0.000139918
6.69116e-05
3.13735e-05
1.44512e-05
6.54946e-06
2.9246e-06
1.28841e-06
5.60664e-07
2.41281e-07
1.028e-07
4.34024e-08
1.81688e-08
7.53757e-09
3.09019e-09
1.24053e-09
4.74778e-10
1.58596e-10
2.77858e-11
3.80037e-07
1.6609e-06
3.81535e-06
7.42678e-06
1.34503e-05
2.34313e-05
3.98356e-05
6.65348e-05
0.000109496
0.000177716
0.00028442
0.000448468
0.000695786
0.00106046
0.0015849
0.0023184
0.0033135
0.00462046
0.00628067
0.008321
0.0107507
0.0135611
0.0167287
0.020218
0.0239862
0.027986
0.0321684
0.0364848
0.0408882
0.0453346
0.0497833
0.0541982
0.0585471
0.0628027
0.066942
0.0709463
0.0748003
0.0784919
0.0820131
0.0853583
0.0885246
0.0915112
0.0943191
0.0969502
0.0994078
0.101696
0.103817
0.105776
0.107576
0.109219
0.110704
0.112033
0.113199
0.114195
0.11501
0.115625
0.116008
0.11613
0.115944
0.115377
0.114339
0.107406
0.0981412
0.0888592
0.0797032
0.0707791
0.0621795
0.0539736
0.0462184
0.0389616
0.0322452
0.0261076
0.0205838
0.0157167
0.0115432
0.00809128
0.00537246
0.00336161
0.0019807
0.00110381
0.000584326
0.000296476
0.000145306
6.95763e-05
3.26479e-05
1.50448e-05
6.82027e-06
3.04599e-06
1.34197e-06
5.83963e-07
2.51289e-07
1.07051e-07
4.51905e-08
1.89139e-08
7.84513e-09
3.21572e-09
1.29078e-09
4.93976e-10
1.65011e-10
2.89093e-11
3.79809e-07
1.65991e-06
3.81308e-06
7.42236e-06
1.34423e-05
2.34173e-05
3.98115e-05
6.64939e-05
0.000109427
0.0001776
0.000284229
0.000448154
0.000695278
0.00105965
0.00158364
0.00231647
0.00331066
0.00461638
0.00627499
0.00831334
0.0107406
0.0135484
0.0167128
0.0201987
0.0239632
0.0279591
0.0321375
0.0364497
0.0408489
0.0452911
0.0497357
0.0541466
0.0584918
0.062744
0.0668803
0.0708819
0.0747335
0.0784234
0.0819433
0.0852878
0.0884539
0.0914409
0.0942497
0.0968824
0.0993422
0.101633
0.103758
0.105721
0.107525
0.109173
0.110665
0.112
0.113173
0.114178
0.115001
0.115625
0.116017
0.116147
0.115969
0.115408
0.114369
0.108118
0.0988553
0.0895632
0.0803922
0.0714515
0.062825
0.0545825
0.0467885
0.03949
0.0327286
0.0265435
0.0209701
0.0160509
0.0118234
0.00831664
0.00554406
0.00348398
0.00206213
0.00114971
0.000609443
0.000310046
0.000152269
7.29729e-05
3.42615e-05
1.5795e-05
7.16228e-06
3.19924e-06
1.40956e-06
6.13362e-07
2.63917e-07
1.12416e-07
4.74477e-08
1.98553e-08
8.23428e-09
3.37469e-09
1.35442e-09
5.18299e-10
1.73138e-10
3.03331e-11
3.79577e-07
1.6589e-06
3.81078e-06
7.41792e-06
1.34343e-05
2.34034e-05
3.97878e-05
6.64538e-05
0.000109359
0.000177488
0.000284043
0.000447848
0.000694782
0.00105886
0.0015824
0.00231458
0.00330783
0.00461229
0.00626925
0.00830554
0.0107303
0.0135351
0.0166962
0.0201784
0.0239389
0.0279304
0.0321041
0.0364116
0.0408059
0.0452432
0.049683
0.0540892
0.0584299
0.0626778
0.0668101
0.0708082
0.0746568
0.0783442
0.0818622
0.0852053
0.0883707
0.0913576
0.0941669
0.0968009
0.0992626
0.101556
0.103684
0.105651
0.10746
0.109114
0.110612
0.111954
0.113135
0.114147
0.114979
0.115612
0.116014
0.116152
0.115981
0.115426
0.114386
0.108974
0.0997073
0.0903989
0.0811992
0.0722284
0.0635744
0.0553065
0.0474759
0.0401315
0.0333134
0.0270709
0.0214379
0.0164562
0.0121643
0.0085921
0.00575544
0.00363651
0.00215524
0.00120542
0.000641638
0.000327271
0.000160988
7.72174e-05
3.62759e-05
1.67302e-05
7.5882e-06
3.38986e-06
1.49357e-06
6.49866e-07
2.79585e-07
1.19068e-07
5.02447e-08
2.10212e-08
8.71611e-09
3.57159e-09
1.43326e-09