/*--------------------------------*- C++ -*----------------------------------*\
  =========                 |
  \\      /  F ield         | OpenFOAM: The Open Source CFD Toolbox
   \\    /   O peration     | Website:  https://openfoam.org
    \\  /    A nd           | Version:  8
     \\/     M anipulation  |
\*---------------------------------------------------------------------------*/
FoamFile
{
    version     2.0;
    format      ascii;
    class       volScalarField;
    location    "420/fluid";
    object      N2;
}
// * * * * * * * * * * * * * * * * * * * * * * * * * * * * * * * * * * * * * //

dimensions      [0 0 0 0 0 0 0];

internalField   nonuniform List<scalar> 
4000
(
2.15886e-06
9.43117e-06
2.16482e-05
4.21001e-05
7.61826e-05
0.000132659
0.000225595
0.000377254
0.000622289
0.00101357
0.0016298
0.00258476
0.00403696
0.0061973
0.00933062
0.0137462
0.0197738
0.0277266
0.0378577
0.0503154
0.0651307
0.082221
0.101408
0.122447
0.145053
0.168922
0.193749
0.219241
0.245122
0.271137
0.29706
0.322691
0.347859
0.372421
0.396262
0.419289
0.441431
0.462636
0.48287
0.502115
0.520369
0.537634
0.553927
0.569269
0.583689
0.59722
0.609897
0.621759
0.632845
0.643194
0.652847
0.661843
0.67022
0.678017
0.685271
0.692016
0.698287
0.704117
0.709407
0.714334
0.719029
0.723388
0.727403
0.731227
0.734879
0.738367
0.741697
0.744868
0.74788
0.750733
0.753421
0.75594
0.758283
0.760437
0.7624
0.764155
0.765686
0.766974
0.768005
0.768774
0.769301
0.769628
0.769814
0.769911
0.769959
0.769981
0.769992
0.769996
0.769998
0.769999
0.77
0.77
0.77
0.77
0.77
0.77
0.77
0.77
0.77
0.77
2.17611e-06
9.51017e-06
2.18451e-05
4.25239e-05
7.70339e-05
0.000134287
0.000228579
0.000382493
0.000631092
0.00102765
0.0016511
0.00261485
0.00407603
0.00624258
0.00937445
0.013774
0.0197637
0.0276515
0.0376844
0.0500188
0.0646963
0.0816449
0.100698
0.121622
0.144137
0.167944
0.192741
0.21823
0.244134
0.270195
0.29618
0.321887
0.347141
0.371794
0.395727
0.418847
0.44108
0.462372
0.48269
0.502016
0.520339
0.537667
0.554015
0.569407
0.583871
0.59744
0.610149
0.622039
0.633147
0.643515
0.653182
0.662189
0.670574
0.678376
0.685631
0.692375
0.69864
0.704458
0.709724
0.714746
0.719417
0.72376
0.727746
0.731574
0.735231
0.738724
0.742057
0.745232
0.748247
0.751101
0.753788
0.756304
0.758641
0.76078
0.762726
0.764457
0.765953
0.767198
0.768178
0.768895
0.769375
0.769669
0.769834
0.76992
0.769963
0.769983
0.769992
0.769997
0.769999
0.769999
0.77
0.77
0.77
0.77
0.77
0.77
0.77
0.77
0.77
0.77
2.20317e-06
9.6309e-06
2.2133e-05
4.31096e-05
7.81397e-05
0.000136276
0.000232009
0.000388178
0.000640107
0.00104129
0.00167069
0.00264141
0.00410951
0.0062809
0.00941265
0.0138046
0.019776
0.0276271
0.0376016
0.0498538
0.0644279
0.0812589
0.100189
0.120994
0.143403
0.167124
0.191859
0.217314
0.24321
0.269288
0.295314
0.321081
0.34641
0.371151
0.395182
0.418406
0.440748
0.46215
0.48257
0.501986
0.520396
0.537806
0.554231
0.569692
0.584218
0.597841
0.610599
0.622529
0.633671
0.644067
0.653757
0.662781
0.671179
0.67899
0.686251
0.692998
0.699266
0.705068
0.710331
0.715358
0.720026
0.724362
0.72833
0.732151
0.735804
0.739295
0.742626
0.745796
0.748803
0.751646
0.754318
0.756813
0.759122
0.761225
0.763129
0.764808
0.766246
0.767427
0.768343
0.769002
0.769438
0.769703
0.769851
0.769928
0.769966
0.769984
0.769993
0.769997
0.769999
0.769999
0.77
0.77
0.77
0.77
0.77
0.77
0.77
0.77
0.77
0.77
2.22305e-06
9.71767e-06
2.23318e-05
4.3494e-05
7.88252e-05
0.000137435
0.00023389
0.000391112
0.000644514
0.00104763
0.00167935
0.00265243
0.00412215
0.00629289
0.00941913
0.0137972
0.019742
0.0275531
0.0374747
0.0496617
0.0641607
0.0809107
0.0997594
0.120486
0.142826
0.166492
0.191187
0.21662
0.242513
0.268608
0.294669
0.320489
0.345887
0.370712
0.394837
0.418159
0.440595
0.462085
0.482595
0.502104
0.520604
0.538099
0.554602
0.570134
0.584724
0.598404
0.611211
0.623183
0.634361
0.644786
0.654498
0.663539
0.671949
0.679766
0.687028
0.69377
0.700028
0.70577
0.711017
0.716035
0.720697
0.725031
0.729005
0.732829
0.736482
0.739969
0.74329
0.746447
0.749437
0.752257
0.754901
0.757363
0.759632
0.761689
0.76354
0.765161
0.766535
0.767651
0.768503
0.769108
0.769501
0.769737
0.769868
0.769936
0.76997
0.769986
0.769994
0.769997
0.769999
0.769999
0.77
0.77
0.77
0.77
0.77
0.77
0.77
0.77
0.77
0.77
2.23671e-06
9.77696e-06
2.24666e-05
4.3752e-05
7.92811e-05
0.000138201
0.000235125
0.000393025
0.000647348
0.00105162
0.00168462
0.00265879
0.00412889
0.00629852
0.00942122
0.0137906
0.019719
0.0275044
0.0373902
0.0495317
0.0639776
0.0806703
0.0994613
0.120134
0.142428
0.166057
0.190729
0.216154
0.242057
0.268178
0.294281
0.320156
0.34562
0.370515
0.394709
0.418104
0.44062
0.462198
0.482796
0.502391
0.520973
0.538544
0.555118
0.570715
0.585363
0.599095
0.611946
0.623956
0.635165
0.645614
0.655345
0.664399
0.672816
0.680636
0.687897
0.694636
0.700888
0.70661
0.711841
0.716845
0.721482
0.725784
0.729742
0.733559
0.737203
0.740677
0.743982
0.747119
0.750085
0.752875
0.755484
0.757904
0.760126
0.762139
0.763932
0.765491
0.766802
0.767853
0.768646
0.7692
0.769556
0.769767
0.769883
0.769943
0.769973
0.769988
0.769994
0.769998
0.769999
0.77
0.77
0.77
0.77
0.77
0.77
0.77
0.77
0.77
0.77
0.77
2.24481e-06
9.81187e-06
2.25446e-05
4.38979e-05
7.95315e-05
0.000138608
0.000235757
0.000393965
0.00064868
0.00105338
0.00168672
0.00266089
0.00413016
0.00629744
0.00941484
0.0137751
0.0196899
0.0274563
0.0373176
0.0494297
0.0638426
0.080501
0.0992591
0.119903
0.142176
0.165793
0.190464
0.215899
0.241822
0.267973
0.294115
0.320034
0.345546
0.370497
0.394761
0.418232
0.440827
0.462483
0.483158
0.502828
0.52148
0.539118
0.555752
0.571404
0.586101
0.599875
0.612762
0.624802
0.636034
0.6465
0.656243
0.665303
0.673722
0.681539
0.688793
0.695521
0.70176
0.707446
0.712637
0.7176
0.722207
0.726482
0.730464
0.734277
0.737911
0.741371
0.744657
0.74777
0.750707
0.753465
0.756036
0.758415
0.760587
0.76255
0.764289
0.765791
0.767042
0.768034
0.768772
0.769281
0.769603
0.769793
0.769896
0.76995
0.769976
0.769989
0.769995
0.769998
0.769999
0.77
0.77
0.77
0.77
0.77
0.77
0.77
0.77
0.77
0.77
0.77
2.24963e-06
9.83253e-06
2.25905e-05
4.39829e-05
7.96758e-05
0.000138839
0.000236109
0.000394474
0.000649368
0.00105424
0.00168764
0.00266162
0.00413017
0.00629561
0.00940952
0.013764
0.01967
0.0274243
0.0372705
0.0493653
0.0637603
0.0804018
0.0991455
0.11978
0.142047
0.165667
0.190346
0.215797
0.24174
0.267919
0.294096
0.320062
0.345632
0.370647
0.394977
0.418516
0.44118
0.462905
0.483646
0.503379
0.52209
0.539783
0.556467
0.572163
0.586898
0.600705
0.613619
0.625679
0.636926
0.647402
0.657149
0.666209
0.674623
0.682431
0.689672
0.696385
0.702595
0.708234
0.713409
0.71837
0.72296
0.727169
0.731164
0.734964
0.738582
0.742023
0.745288
0.748376
0.751284
0.754009
0.756544
0.758882
0.761006
0.762922
0.76461
0.766058
0.767253
0.768192
0.768881
0.76935
0.769644
0.769814
0.769907
0.769955
0.769979
0.76999
0.769996
0.769998
0.769999
0.77
0.77
0.77
0.77
0.77
0.77
0.77
0.77
0.77
0.77
0.77
2.25244e-06
9.84452e-06
2.26168e-05
4.40308e-05
7.9755e-05
0.000138962
0.000236288
0.00039472
0.000649678
0.00105457
0.00168791
0.0026616
0.00412945
0.00629354
0.00940518
0.0137562
0.0196574
0.0274057
0.0372447
0.0493321
0.0637202
0.0803563
0.0990972
0.119731
0.142002
0.165629
0.190323
0.215795
0.24177
0.267989
0.294213
0.320231
0.345855
0.370928
0.395317
0.418917
0.44164
0.463423
0.48422
0.504005
0.522765
0.540502
0.557225
0.572955
0.58772
0.601549
0.614481
0.626554
0.637809
0.648287
0.658032
0.667085
0.675487
0.68328
0.6905
0.697187
0.703386
0.708991
0.714164
0.719106
0.723673
0.727826
0.731805
0.735593
0.739196
0.742618
0.745861
0.748924
0.751804
0.754498
0.756999
0.7593
0.761383
0.763257
0.764897
0.766294
0.767438
0.768328
0.768975
0.769409
0.769678
0.769833
0.769917
0.76996
0.769981
0.769991
0.769996
0.769998
0.769999
0.77
0.77
0.77
0.77
0.77
0.77
0.77
0.77
0.77
0.77
0.77
2.25426e-06
9.85229e-06
2.26337e-05
4.40615e-05
7.98055e-05
0.000139039
0.000236401
0.000394872
0.000649868
0.00105478
0.00168808
0.00266163
0.00412916
0.00629268
0.00940341
0.013753
0.0196525
0.0273985
0.0372353
0.0493207
0.0637079
0.0803449
0.0990897
0.119732
0.142018
0.165666
0.190386
0.215891
0.241903
0.268163
0.294433
0.320498
0.346174
0.371299
0.395741
0.419393
0.442168
0.464
0.484843
0.504671
0.52347
0.541241
0.557995
0.57375
0.588535
0.60238
0.615323
0.627402
0.638658
0.649134
0.658871
0.667914
0.676303
0.684079
0.691282
0.697951
0.70411
0.709638
0.714919
0.71981
0.724337
0.728447
0.732402
0.736169
0.739752
0.743154
0.746375
0.749414
0.752267
0.75493
0.757398
0.759664
0.761713
0.763545
0.765144
0.766498
0.767597
0.768444
0.769053
0.769458
0.769706
0.769848
0.769925
0.769964
0.769983
0.769992
0.769996
0.769998
0.769999
0.77
0.77
0.77
0.77
0.77
0.77
0.77
0.77
0.77
0.77
0.77
2.25566e-06
9.85825e-06
2.26468e-05
4.40854e-05
7.98451e-05
0.000139101
0.000236493
0.000395004
0.000650048
0.00105502
0.00168837
0.00266195
0.00412948
0.00629294
0.00940359
0.0137532
0.019653
0.0273999
0.0372388
0.0493282
0.0637218
0.0803684
0.0991265
0.119786
0.142093
0.165767
0.190517
0.216056
0.242106
0.268406
0.29472
0.320831
0.346553
0.371725
0.396214
0.419911
0.44273
0.464602
0.485484
0.505346
0.524177
0.541974
0.55875
0.574524
0.589321
0.603176
0.616123
0.628202
0.639455
0.649924
0.659652
0.668681
0.677053
0.684811
0.691993
0.698638
0.704735
0.710242
0.715511
0.720381
0.724889
0.728987
0.732929
0.736681
0.740248
0.743632
0.746832
0.749847
0.752674
0.755308
0.757744
0.759973
0.761982
0.76377
0.765333
0.766659
0.767729
0.768541
0.769118
0.769498
0.76973
0.769861
0.769931
0.769967
0.769984
0.769993
0.769997
0.769999
0.769999
0.77
0.77
0.77
0.77
0.77
0.77
0.77
0.77
0.77
0.77
0.77
2.25695e-06
9.86383e-06
2.26592e-05
4.41085e-05
7.98846e-05
0.000139166
0.000236596
0.000395163
0.000650293
0.00105539
0.00168894
0.00266282
0.00413082
0.00629502
0.00940683
0.0137583
0.0196608
0.0274119
0.0372568
0.0493544
0.0637589
0.0804195
0.099195
0.119876
0.142207
0.165909
0.190691
0.216264
0.242351
0.268692
0.295046
0.321199
0.346963
0.372177
0.396706
0.420443
0.443298
0.465205
0.486118
0.506007
0.524861
0.542679
0.559471
0.575256
0.590062
0.60392
0.616868
0.628944
0.640191
0.65065
0.660366
0.66938
0.677736
0.685474
0.692635
0.699258
0.705326
0.710805
0.716053
0.720904
0.725385
0.729466
0.733394
0.737132
0.740683
0.74405
0.747232
0.750226
0.753029
0.755637
0.758044
0.760241
0.762222
0.763987
0.765517
0.766799
0.767837
0.768622
0.769173
0.769533
0.769749
0.769871
0.769936
0.769969
0.769986
0.769993
0.769997
0.769999
0.769999
0.77
0.77
0.77
0.77
0.77
0.77
0.77
0.77
0.77
0.77
0.77
2.25829e-06
9.86961e-06
2.26723e-05
4.41331e-05
7.99278e-05
0.000139239
0.000236716
0.00039536
0.000650611
0.0010559
0.00168977
0.00266416
0.00413296
0.00629843
0.00941221
0.0137666
0.0196735
0.0274307
0.0372839
0.0493923
0.0638105
0.0804878
0.0992832
0.119987
0.142345
0.166075
0.190888
0.216496
0.242619
0.268996
0.295388
0.321579
0.34738
0.372631
0.397196
0.420965
0.443851
0.465786
0.486724
0.506635
0.525507
0.543339
0.560142
0.575934
0.590744
0.604603
0.617548
0.629618
0.640857
0.651305
0.661007
0.670006
0.678345
0.686065
0.693206
0.699809
0.705852
0.711305
0.716524
0.721345
0.725802
0.729883
0.733802
0.737528
0.741065
0.744416
0.747579
0.750553
0.753333
0.755917
0.758299
0.760476
0.76244
0.764178
0.765679
0.766933
0.767933
0.768691
0.76922
0.769561
0.769766
0.76988
0.769941
0.769972
0.769987
0.769994
0.769997
0.769999
0.769999
0.77
0.77
0.77
0.77
0.77
0.77
0.77
0.77
0.77
0.77
0.77
2.25969e-06
9.87571e-06
2.26861e-05
4.41597e-05
7.99752e-05
0.00013932
0.000236853
0.000395589
0.000650991
0.00105653
0.0016908
0.00266584
0.00413568
0.00630278
0.00941905
0.0137772
0.0196893
0.0274538
0.0373165
0.0494371
0.0638702
0.0805654
0.0993814
0.120109
0.142492
0.166251
0.191095
0.216734
0.24289
0.269301
0.295727
0.321952
0.347786
0.373068
0.397663
0.421461
0.444372
0.46633
0.487287
0.507215
0.526101
0.543943
0.560752
0.576549
0.59136
0.605217
0.618157
0.63022
0.641449
0.651886
0.661574
0.670558
0.67888
0.686582
0.693705
0.700287
0.706301
0.711731
0.716931
0.721734
0.726168
0.730246
0.734155
0.737869
0.741394
0.744728
0.747873
0.750829
0.753593
0.756163
0.758532
0.76069
0.76263
0.764343
0.765818
0.767046
0.768021
0.76875
0.769259
0.769586
0.769779
0.769887
0.769945
0.769973
0.769988
0.769994
0.769997
0.769999
0.769999
0.77
0.77
0.77
0.77
0.77
0.77
0.77
0.77
0.77
0.77
0.77
2.26114e-06
9.882e-06
2.27004e-05
4.41874e-05
8.00251e-05
0.000139407
0.000237001
0.000395839
0.000651409
0.00105723
0.00169195
0.00266772
0.00413873
0.00630765
0.00942665
0.0137888
0.0197065
0.0274787
0.0373514
0.0494845
0.0639328
0.0806457
0.099482
0.120232
0.14264
0.166426
0.191297
0.216966
0.243152
0.269593
0.296049
0.322303
0.348166
0.373475
0.398095
0.421916
0.444848
0.466824
0.487797
0.507737
0.526633
0.544482
0.561296
0.577094
0.591903
0.605757
0.618691
0.630747
0.641966
0.652391
0.662067
0.671037
0.679343
0.687029
0.694133
0.700695
0.706688
0.712103
0.717287
0.72207
0.726478
0.730556
0.734456
0.73816
0.741672
0.744995
0.74813
0.751076
0.753828
0.756382
0.758732
0.76087
0.76279
0.764481
0.765935
0.76714
0.768094
0.768802
0.769291
0.769605
0.76979
0.769893
0.769948
0.769975
0.769988
0.769995
0.769998
0.769999
0.77
0.77
0.77
0.77
0.77
0.77
0.77
0.77
0.77
0.77
0.77
0.77
2.26256e-06
9.88817e-06
2.27146e-05
4.42148e-05
8.00747e-05
0.000139494
0.00023715
0.000396091
0.000651835
0.00105794
0.00169313
0.00266966
0.00414185
0.00631261
0.00943438
0.0138005
0.0197239
0.0275036
0.037386
0.0495312
0.0639938
0.0807234
0.0995786
0.120349
0.14278
0.16659
0.191486
0.217181
0.243393
0.26986
0.296342
0.322621
0.348508
0.373839
0.39848
0.42232
0.445269
0.467259
0.488244
0.508194
0.527097
0.54495
0.561767
0.577565
0.592372
0.606221
0.61915
0.631197
0.642407
0.652822
0.662486
0.671443
0.679736
0.687405
0.694494
0.701043
0.707018
0.712418
0.717587
0.722355
0.726731
0.730814
0.734707
0.738404
0.741908
0.745224
0.74835
0.751283
0.754022
0.756562
0.758896
0.761019
0.762921
0.764595
0.76603
0.767217
0.768152
0.768844
0.769319
0.76962
0.769799
0.769898
0.76995
0.769976
0.769989
0.769995
0.769998
0.769999
0.77
0.77
0.77
0.77
0.77
0.77
0.77
0.77
0.77
0.77
0.77
0.77
2.26387e-06
9.8939e-06
2.27277e-05
4.42403e-05
8.0121e-05
0.000139575
0.00023729
0.00039633
0.000652237
0.00105861
0.00169424
0.00267149
0.00414481
0.0063173
0.00944165
0.0138115
0.0197401
0.0275267
0.037418
0.049574
0.0640496
0.0807941
0.0996659
0.120455
0.142905
0.166736
0.191654
0.21737
0.243604
0.270094
0.296597
0.322897
0.348803
0.374153
0.398811
0.422666
0.445628
0.467629
0.488623
0.50858
0.527488
0.545344
0.562162
0.577959
0.592763
0.606608
0.619531
0.631572
0.642773
0.653179
0.662832
0.671777
0.680057
0.687716
0.694795
0.701333
0.70729
0.712676
0.717831
0.722586
0.726935
0.731025
0.734913
0.738603
0.742102
0.74541
0.748526
0.75145
0.754179
0.756707
0.759029
0.761139
0.763027
0.764687
0.766107
0.767279
0.768199
0.768877
0.769341
0.769634
0.769806
0.769902
0.769952
0.769977
0.769989
0.769995
0.769998
0.769999
0.77
0.77
0.77
0.77
0.77
0.77
0.77
0.77
0.77
0.77
0.77
0.77
2.265e-06
9.89885e-06
2.27391e-05
4.42624e-05
8.01613e-05
0.000139646
0.000237412
0.000396538
0.000652589
0.0010592
0.00169522
0.00267308
0.00414739
0.00632138
0.00944797
0.0138211
0.0197541
0.0275466
0.0374454
0.0496107
0.0640972
0.0808541
0.0997398
0.120544
0.143011
0.166858
0.191794
0.217528
0.24378
0.270287
0.296808
0.323124
0.349046
0.37441
0.399081
0.422947
0.44592
0.467929
0.48893
0.508892
0.527803
0.545662
0.562479
0.578275
0.593077
0.606918
0.619835
0.63187
0.643064
0.653461
0.663105
0.672041
0.680313
0.687964
0.695033
0.701561
0.707506
0.712881
0.718026
0.722771
0.727096
0.73119
0.735073
0.738759
0.742253
0.745554
0.748664
0.751581
0.754301
0.75682
0.759133
0.761232
0.76311
0.764758
0.766167
0.767327
0.768235
0.768903
0.769357
0.769644
0.769812
0.769905
0.769953
0.769978
0.76999
0.769995
0.769998
0.769999
0.77
0.77
0.77
0.77
0.77
0.77
0.77
0.77
0.77
0.77
0.77
0.77
2.2659e-06
9.90275e-06
2.2748e-05
4.42798e-05
8.0193e-05
0.000139702
0.000237509
0.000396702
0.000652867
0.00105967
0.00169599
0.00267435
0.00414942
0.0063246
0.00945296
0.0138286
0.0197651
0.0275623
0.037467
0.0496394
0.0641344
0.080901
0.0997974
0.120613
0.143092
0.166953
0.191902
0.217649
0.243915
0.270436
0.296969
0.323298
0.349231
0.374606
0.399286
0.423161
0.446141
0.468157
0.489162
0.509128
0.528041
0.545901
0.562718
0.578512
0.593312
0.607149
0.620063
0.632092
0.64328
0.653671
0.66331
0.672241
0.680507
0.68815
0.695212
0.701732
0.707667
0.713034
0.718172
0.722909
0.727219
0.73131
0.73519
0.738874
0.742363
0.745661
0.748765
0.751676
0.75439
0.756903
0.759209
0.7613
0.763171
0.764811
0.766211
0.767362
0.768262
0.768921
0.769369
0.769651
0.769816
0.769907
0.769955
0.769978
0.76999
0.769995
0.769998
0.769999
0.77
0.77
0.77
0.77
0.77
0.77
0.77
0.77
0.77
0.77
0.77
0.77
2.26651e-06
9.90542e-06
2.27541e-05
4.42918e-05
8.02147e-05
0.00013974
0.000237574
0.000396815
0.000653056
0.00105998
0.00169652
0.00267521
0.00415081
0.0063268
0.00945636
0.0138337
0.0197726
0.0275729
0.0374816
0.049659
0.0641597
0.0809329
0.0998366
0.12066
0.143148
0.167017
0.191975
0.217732
0.244007
0.270536
0.297078
0.323415
0.349356
0.374738
0.399425
0.423305
0.446289
0.468309
0.489317
0.509285
0.5282
0.54606
0.562876
0.57867
0.593468
0.607303
0.620214
0.63224
0.643425
0.653814
0.663449
0.672375
0.680636
0.688274
0.695331
0.701846
0.707774
0.713136
0.718269
0.723002
0.727301
0.731389
0.735268
0.738949
0.742436
0.74573
0.748832
0.75174
0.754449
0.756958
0.759259
0.761346
0.763211
0.764845
0.766239
0.767385
0.768279
0.768933
0.769377
0.769656
0.769819
0.769908
0.769955
0.769979
0.76999
0.769995
0.769998
0.769999
0.77
0.77
0.77
0.77
0.77
0.77
0.77
0.77
0.77
0.77
0.77
0.77
2.26682e-06
9.90677e-06
2.27572e-05
4.42977e-05
8.02254e-05
0.000139758
0.000237607
0.000396869
0.000653148
0.00106014
0.00169677
0.00267562
0.00415148
0.00632785
0.00945798
0.0138362
0.0197762
0.0275781
0.0374887
0.0496685
0.064172
0.0809484
0.0998557
0.120683
0.143175
0.167048
0.192011
0.217773
0.244052
0.270586
0.297132
0.323473
0.349418
0.374803
0.399493
0.423376
0.446363
0.468385
0.489395
0.509364
0.528279
0.546139
0.562955
0.578749
0.593546
0.60738
0.62029
0.632315
0.643498
0.653884
0.663517
0.672441
0.6807
0.688335
0.69539
0.701902
0.707827
0.713187
0.718318
0.723048
0.727342
0.731428
0.735306
0.738986
0.742472
0.745765
0.748865
0.751771
0.754479
0.756985
0.759283
0.761368
0.76323
0.764862
0.766253
0.767396
0.768287
0.768939
0.769381
0.769658
0.76982
0.769909
0.769956
0.769979
0.76999
0.769995
0.769998
0.769999
0.77
0.77
0.77
0.77
0.77
0.77
0.77
0.77
0.77
0.77
0.77
0.77
2.26684e-06
9.90686e-06
2.27574e-05
4.42981e-05
8.02261e-05
0.00013976
0.000237609
0.000396873
0.000653154
0.00106015
0.00169679
0.00267565
0.00415152
0.00632791
0.00945807
0.0138363
0.0197764
0.0275783
0.037489
0.0496688
0.0641725
0.080949
0.0998564
0.120684
0.143176
0.167049
0.192012
0.217774
0.244053
0.270587
0.297133
0.323474
0.349419
0.374804
0.399494
0.423377
0.446364
0.468385
0.489395
0.509364
0.528279
0.546139
0.562956
0.578749
0.593546
0.607381
0.62029
0.632315
0.643499
0.653885
0.663518
0.672441
0.6807
0.688336
0.69539
0.701903
0.707827
0.713187
0.718318
0.723048
0.727342
0.731428
0.735306
0.738986
0.742472
0.745765
0.748865
0.751771
0.754479
0.756985
0.759283
0.761368
0.76323
0.764862
0.766253
0.767396
0.768287
0.768939
0.769381
0.769658
0.76982
0.769909
0.769956
0.769979
0.76999
0.769995
0.769998
0.769999
0.77
0.77
0.77
0.77
0.77
0.77
0.77
0.77
0.77
0.77
0.77
0.77
2.26657e-06
9.90569e-06
2.27547e-05
4.4293e-05
8.02169e-05
0.000139743
0.000237581
0.000396826
0.000653075
0.00106001
0.00169657
0.00267529
0.00415093
0.00632697
0.00945662
0.0138341
0.0197731
0.0275736
0.0374825
0.0496601
0.0641611
0.0809345
0.0998384
0.120662
0.14315
0.167019
0.191978
0.217735
0.24401
0.270539
0.297081
0.323418
0.349359
0.37474
0.399427
0.423308
0.446292
0.468311
0.48932
0.509288
0.528202
0.546062
0.562878
0.578672
0.593469
0.607305
0.620215
0.632241
0.643427
0.653815
0.66345
0.672376
0.680637
0.688275
0.695331
0.701846
0.707774
0.713137
0.71827
0.723002
0.727302
0.731389
0.735268
0.738949
0.742436
0.745731
0.748832
0.75174
0.75445
0.756958
0.759259
0.761346
0.763211
0.764845
0.766239
0.767385
0.768279
0.768933
0.769377
0.769656
0.769819
0.769908
0.769955
0.769979
0.76999
0.769995
0.769998
0.769999
0.77
0.77
0.77
0.77
0.77
0.77
0.77
0.77
0.77
0.77
0.77
0.77
2.266e-06
9.90322e-06
2.27491e-05
4.42819e-05
8.01968e-05
0.000139708
0.00023752
0.000396722
0.000652899
0.00105972
0.00169608
0.00267448
0.00414963
0.00632492
0.00945343
0.0138292
0.019766
0.0275635
0.0374685
0.0496414
0.0641368
0.0809038
0.0998006
0.120617
0.143096
0.166957
0.191906
0.217654
0.24392
0.270441
0.296974
0.323302
0.349236
0.374611
0.399291
0.423166
0.446145
0.468161
0.489166
0.509132
0.528045
0.545904
0.562721
0.578515
0.593315
0.607152
0.620065
0.632094
0.643282
0.653673
0.663312
0.672243
0.680509
0.688152
0.695213
0.701733
0.707668
0.713035
0.718173
0.72291
0.72722
0.731311
0.735191
0.738874
0.742364
0.745661
0.748766
0.751677
0.754391
0.756903
0.759209
0.761301
0.763171
0.764811
0.766211
0.767362
0.768262
0.768921
0.769369
0.769651
0.769816
0.769907
0.769955
0.769978
0.76999
0.769995
0.769998
0.769999
0.77
0.77
0.77
0.77
0.77
0.77
0.77
0.77
0.77
0.77
0.77
0.77
2.26516e-06
9.89952e-06
2.27406e-05
4.42654e-05
8.01668e-05
0.000139655
0.000237429
0.000396566
0.000652635
0.00105928
0.00169534
0.00267328
0.00414768
0.00632182
0.00944863
0.013822
0.0197554
0.0275483
0.0374476
0.0496134
0.0641005
0.080858
0.0997443
0.120549
0.143016
0.166864
0.1918
0.217534
0.243787
0.270294
0.296814
0.323131
0.349052
0.374417
0.399087
0.422954
0.445926
0.467935
0.488936
0.508898
0.527808
0.545667
0.562484
0.578279
0.593081
0.606922
0.619839
0.631873
0.643067
0.653464
0.663108
0.672044
0.680316
0.687966
0.695035
0.701563
0.707508
0.712883
0.718028
0.722772
0.727097
0.731191
0.735074
0.73876
0.742254
0.745555
0.748665
0.751581
0.754301
0.75682
0.759133
0.761232
0.76311
0.764759
0.766167
0.767327
0.768235
0.768903
0.769357
0.769644
0.769812
0.769905
0.769953
0.769978
0.76999
0.769995
0.769998
0.769999
0.77
0.77
0.77
0.77
0.77
0.77
0.77
0.77
0.77
0.77
0.77
0.77
2.26407e-06
9.89478e-06
2.27297e-05
4.42442e-05
8.01282e-05
0.000139588
0.000237312
0.000396366
0.000652298
0.00105871
0.0016944
0.00267173
0.00414519
0.00631787
0.0094425
0.0138127
0.0197417
0.0275289
0.0374208
0.0495775
0.0640539
0.0807991
0.0996716
0.120461
0.142912
0.166743
0.191662
0.217378
0.243613
0.270102
0.296606
0.322906
0.348812
0.374162
0.398819
0.422674
0.445636
0.467637
0.48863
0.508587
0.527494
0.545351
0.562168
0.577964
0.592769
0.606613
0.619536
0.631576
0.642777
0.653182
0.662836
0.67178
0.68006
0.687718
0.694797
0.701335
0.707292
0.712678
0.717833
0.722588
0.726937
0.731026
0.734914
0.738604
0.742103
0.745411
0.748527
0.751451
0.754179
0.756707
0.75903
0.761139
0.763028
0.764687
0.766108
0.767279
0.768199
0.768877
0.769341
0.769634
0.769806
0.769902
0.769952
0.769977
0.769989
0.769995
0.769998
0.769999
0.77
0.77
0.77
0.77
0.77
0.77
0.77
0.77
0.77
0.77
0.77
0.77
2.2628e-06
9.88926e-06
2.27171e-05
4.42197e-05
8.00836e-05
0.000139509
0.000237177
0.000396136
0.000651909
0.00105806
0.00169332
0.00266996
0.00414233
0.00631332
0.00943542
0.013802
0.0197259
0.0275063
0.0373895
0.0495355
0.0639991
0.0807296
0.0995855
0.120357
0.142789
0.166599
0.191496
0.217191
0.243403
0.269871
0.296353
0.322632
0.348518
0.37385
0.398491
0.42233
0.445279
0.467268
0.488253
0.508203
0.527105
0.544958
0.561774
0.577572
0.592379
0.606227
0.619155
0.631203
0.642412
0.652827
0.66249
0.671447
0.679739
0.687408
0.694497
0.701046
0.707021
0.71242
0.717589
0.722357
0.726733
0.730816
0.734709
0.738405
0.74191
0.745225
0.748351
0.751284
0.754023
0.756562
0.758897
0.761019
0.762922
0.764596
0.766031
0.767218
0.768153
0.768844
0.769319
0.76962
0.769799
0.769898
0.76995
0.769976
0.769989
0.769995
0.769998
0.769999
0.77
0.77
0.77
0.77
0.77
0.77
0.77
0.77
0.77
0.77
0.77
0.77
2.26144e-06
9.88331e-06
2.27035e-05
4.41933e-05
8.00358e-05
0.000139426
0.000237033
0.000395893
0.000651499
0.00105737
0.00169218
0.00266809
0.0041393
0.0063085
0.0094279
0.0137905
0.019709
0.0274819
0.0373556
0.0494897
0.063939
0.080653
0.0994903
0.120241
0.14265
0.166437
0.191309
0.216978
0.243164
0.269606
0.296062
0.322316
0.348179
0.373487
0.398107
0.421928
0.44486
0.466835
0.487807
0.507748
0.526643
0.544491
0.561305
0.577102
0.591911
0.605764
0.618698
0.630753
0.641972
0.652397
0.662072
0.671042
0.679348
0.687033
0.694137
0.700699
0.706691
0.712106
0.71729
0.722072
0.72648
0.730558
0.734458
0.738162
0.741674
0.744996
0.748131
0.751077
0.753829
0.756383
0.758733
0.760871
0.76279
0.764482
0.765935
0.767141
0.768094
0.768802
0.769291
0.769605
0.76979
0.769893
0.769948
0.769975
0.769988
0.769995
0.769998
0.769999
0.77
0.77
0.77
0.77
0.77
0.77
0.77
0.77
0.77
0.77
0.77
0.77
2.26005e-06
9.87726e-06
2.26897e-05
4.41666e-05
7.99879e-05
0.000139342
0.000236891
0.000395653
0.000651096
0.0010567
0.00169107
0.00266627
0.00413634
0.00630377
0.0094205
0.0137792
0.0196921
0.0274575
0.0373213
0.049443
0.0638774
0.0805738
0.099391
0.120119
0.142504
0.166264
0.191108
0.216748
0.242904
0.269316
0.295742
0.321967
0.347801
0.373083
0.397678
0.421475
0.444386
0.466343
0.4873
0.507227
0.526112
0.543954
0.560763
0.576559
0.591369
0.605225
0.618165
0.630228
0.641456
0.651892
0.66158
0.670564
0.678885
0.686587
0.693709
0.700291
0.706304
0.711734
0.716935
0.721737
0.726171
0.730249
0.734157
0.737872
0.741396
0.74473
0.747875
0.75083
0.753595
0.756164
0.758533
0.760691
0.762631
0.764344
0.765819
0.767047
0.768022
0.76875
0.769259
0.769586
0.769779
0.769887
0.769945
0.769973
0.769988
0.769994
0.769997
0.769999
0.769999
0.77
0.77
0.77
0.77
0.77
0.77
0.77
0.77
0.77
0.77
0.77
2.2587e-06
9.8714e-06
2.26764e-05
4.41411e-05
7.99424e-05
0.000139264
0.00023676
0.000395433
0.000650732
0.0010561
0.00169008
0.00266465
0.00413371
0.00629957
0.00941387
0.013769
0.0196767
0.027435
0.0372894
0.0493992
0.0638187
0.0804975
0.0992942
0.119999
0.142358
0.16609
0.190904
0.216512
0.242635
0.269013
0.295405
0.321596
0.347397
0.372647
0.397212
0.420981
0.443867
0.465801
0.486738
0.506649
0.52552
0.543352
0.560154
0.575946
0.590755
0.604613
0.617557
0.629627
0.640865
0.651312
0.661014
0.670013
0.678351
0.68607
0.693212
0.699814
0.705857
0.711309
0.716528
0.721348
0.725805
0.729885
0.733804
0.73753
0.741068
0.744418
0.747581
0.750554
0.753335
0.755919
0.7583
0.760477
0.762441
0.764179
0.76568
0.766933
0.767934
0.768691
0.769221
0.769562
0.769766
0.76988
0.769941
0.769972
0.769987
0.769994
0.769997
0.769999
0.769999
0.77
0.77
0.77
0.77
0.77
0.77
0.77
0.77
0.77
0.77
0.77
2.25742e-06
9.86588e-06
2.2664e-05
4.41176e-05
7.99013e-05
0.000139195
0.000236645
0.000395247
0.000650431
0.00105561
0.00168929
0.00266338
0.00413167
0.00629631
0.00940871
0.013761
0.0196645
0.0274168
0.037263
0.0493621
0.0637682
0.0804304
0.0992075
0.11989
0.142223
0.165925
0.190708
0.216282
0.24237
0.268711
0.295065
0.321218
0.346982
0.372196
0.396725
0.420461
0.443316
0.465222
0.486134
0.506023
0.524876
0.542693
0.559484
0.575269
0.590074
0.603932
0.616878
0.628954
0.6402
0.650659
0.660373
0.669387
0.677742
0.68548
0.692641
0.699264
0.705332
0.710809
0.716057
0.720907
0.725388
0.729469
0.733397
0.737134
0.740686
0.744053
0.747234
0.750228
0.753031
0.755639
0.758045
0.760242
0.762223
0.763988
0.765517
0.7668
0.767837
0.768623
0.769174
0.769533
0.769749
0.769871
0.769936
0.769969
0.769986
0.769993
0.769997
0.769999
0.769999
0.77
0.77
0.77
0.77
0.77
0.77
0.77
0.77
0.77
0.77
0.77
2.25619e-06
9.86057e-06
2.26522e-05
4.40958e-05
7.9864e-05
0.000139134
0.000236549
0.000395099
0.000650204
0.00105527
0.00168877
0.00266258
0.00413044
0.00629439
0.0094057
0.0137562
0.0196571
0.0274054
0.0372458
0.0493369
0.0637322
0.0803806
0.0991404
0.119802
0.14211
0.165785
0.190536
0.216076
0.242126
0.268428
0.294741
0.320852
0.346574
0.371746
0.396235
0.419932
0.442749
0.464621
0.485502
0.505364
0.524193
0.54199
0.558765
0.574538
0.589335
0.603188
0.616135
0.628213
0.639466
0.649934
0.659661
0.668689
0.677061
0.684818
0.691999
0.698644
0.70474
0.710247
0.715515
0.720385
0.724893
0.72899
0.732932
0.736684
0.740251
0.743635
0.746835
0.749849
0.752676
0.75531
0.757746
0.759974
0.761983
0.763771
0.765333
0.76666
0.767729
0.768541
0.769119
0.769499
0.76973
0.769861
0.769931
0.769967
0.769984
0.769993
0.769997
0.769999
0.769999
0.77
0.77
0.77
0.77
0.77
0.77
0.77
0.77
0.77
0.77
0.77
2.25486e-06
9.85489e-06
2.26397e-05
4.40732e-05
7.98266e-05
0.000139076
0.000236464
0.000394978
0.000650041
0.00105506
0.00168853
0.00266234
0.00413025
0.00629432
0.0094058
0.0137564
0.0196571
0.0274047
0.0372432
0.0493305
0.0637196
0.0803586
0.0991053
0.11975
0.142037
0.165686
0.190407
0.215913
0.241926
0.268186
0.294456
0.320522
0.346197
0.371322
0.395764
0.419416
0.44219
0.464021
0.484863
0.50469
0.523489
0.541259
0.558011
0.573766
0.58855
0.602394
0.615336
0.627414
0.638669
0.649144
0.658881
0.667923
0.676311
0.684087
0.691289
0.697958
0.704115
0.709644
0.714924
0.719814
0.724341
0.728451
0.732405
0.736172
0.739755
0.743157
0.746378
0.749416
0.752269
0.754932
0.7574
0.759666
0.761714
0.763546
0.765145
0.766499
0.767598
0.768445
0.769053
0.769458
0.769706
0.769848
0.769925
0.769964
0.769983
0.769992
0.769996
0.769998
0.769999
0.77
0.77
0.77
0.77
0.77
0.77
0.77
0.77
0.77
0.77
0.77
2.2531e-06
9.84741e-06
2.26234e-05
4.40437e-05
7.97785e-05
0.000139003
0.000236358
0.000394836
0.00064987
0.00105489
0.00168841
0.00266238
0.00413063
0.0062953
0.00940774
0.0137598
0.0196624
0.0274122
0.0372532
0.0493426
0.0637328
0.080371
0.099114
0.11975
0.142023
0.165652
0.190346
0.21582
0.241796
0.268015
0.294239
0.320257
0.345881
0.370954
0.395343
0.418942
0.441664
0.463446
0.484242
0.504026
0.522786
0.540521
0.557243
0.572973
0.587736
0.601565
0.614496
0.626568
0.637821
0.648299
0.658043
0.667095
0.675496
0.683288
0.690508
0.697194
0.703393
0.708997
0.714169
0.719111
0.723678
0.72783
0.731809
0.735596
0.739199
0.742621
0.745864
0.748927
0.751807
0.7545
0.757001
0.759302
0.761385
0.763259
0.764899
0.766295
0.767439
0.768329
0.768975
0.769409
0.769678