/*--------------------------------*- C++ -*----------------------------------*\
  =========                 |
  \\      /  F ield         | OpenFOAM: The Open Source CFD Toolbox
   \\    /   O peration     | Website:  https://openfoam.org
    \\  /    A nd           | Version:  8
     \\/     M anipulation  |
\*---------------------------------------------------------------------------*/
FoamFile
{
    version     2.0;
    format      ascii;
    class       surfaceScalarField;
    location    "420/fluid";
    object      phi;
}
// * * * * * * * * * * * * * * * * * * * * * * * * * * * * * * * * * * * * * //

dimensions      [1 0 -1 0 0 0 0];

internalField   nonuniform List<scalar> 
7860
(
6.57347e-07
-1.74597e-08
6.54838e-07
-5.23591e-08
6.51269e-07
-8.70781e-08
6.46537e-07
-1.21527e-07
6.40518e-07
-1.5571e-07
6.33061e-07
-1.89587e-07
6.23995e-07
-2.23084e-07
6.13132e-07
-2.56091e-07
6.00282e-07
-2.88457e-07
5.85258e-07
-3.19977e-07
5.67891e-07
-3.50384e-07
5.48052e-07
-3.79336e-07
5.25686e-07
-4.06398e-07
5.00885e-07
-4.3105e-07
4.73913e-07
-4.52685e-07
4.45087e-07
-4.70644e-07
4.14826e-07
-4.84346e-07
3.83628e-07
-4.93428e-07
3.52034e-07
-4.97881e-07
3.20553e-07
-4.98087e-07
2.89608e-07
-4.9475e-07
2.59511e-07
-4.88737e-07
2.30464e-07
-4.80906e-07
2.02595e-07
-4.71981e-07
1.75993e-07
-4.62498e-07
1.50641e-07
-4.528e-07
1.26476e-07
-4.4309e-07
1.03424e-07
-4.33468e-07
8.1411e-08
-4.23972e-07
6.03683e-08
-4.14605e-07
4.02368e-08
-4.05355e-07
2.09659e-08
-3.96206e-07
2.51143e-09
-3.87148e-07
-1.51567e-08
-3.78179e-07
-3.20648e-08
-3.69306e-07
-4.82441e-08
-3.60537e-07
-6.37198e-08
-3.51837e-07
-7.85142e-08
-3.43206e-07
-9.26487e-08
-3.34662e-07
-1.06144e-07
-3.26223e-07
-1.19017e-07
-3.17908e-07
-1.31288e-07
-3.09735e-07
-1.42974e-07
-3.01721e-07
-1.54093e-07
-2.93884e-07
-1.64662e-07
-2.86238e-07
-1.74697e-07
-2.78799e-07
-1.84216e-07
-2.71581e-07
-1.93233e-07
-2.64596e-07
-2.01764e-07
-2.57859e-07
-2.09825e-07
-2.51381e-07
-2.17429e-07
-2.45178e-07
-2.24593e-07
-2.39263e-07
-2.31332e-07
-2.33654e-07
-2.3766e-07
-2.28372e-07
-2.43598e-07
-2.23443e-07
-2.49165e-07
-2.18898e-07
-2.5439e-07
-2.14778e-07
-2.59313e-07
-2.11133e-07
-2.63983e-07
-2.08077e-07
-2.6847e-07
-2.0562e-07
-2.72865e-07
-2.03919e-07
-2.77554e-07
-2.03163e-07
-2.83129e-07
-2.0335e-07
-2.90296e-07
-2.13602e-07
-2.98492e-07
-2.25575e-07
-3.0753e-07
-2.38864e-07
-3.17438e-07
-2.53576e-07
-3.28326e-07
-2.69905e-07
-3.40347e-07
-2.88089e-07
-3.537e-07
-3.08418e-07
-3.68655e-07
-3.31252e-07
-3.85574e-07
-3.57031e-07
-4.04939e-07
-3.8626e-07
-4.27385e-07
-4.19596e-07
-4.53725e-07
-4.57794e-07
-4.84925e-07
-5.01104e-07
-5.21958e-07
-5.48832e-07
-5.65404e-07
-5.98643e-07
-6.15158e-07
-6.4576e-07
-6.70372e-07
-6.83247e-07
-7.28988e-07
-7.04704e-07
-7.88076e-07
-7.07763e-07
-8.44834e-07
-6.94842e-07
-8.97361e-07
-6.70561e-07
-9.44756e-07
-6.39234e-07
-9.86729e-07
-6.03806e-07
-1.02316e-06
-5.6593e-07
-1.05426e-06
-5.26428e-07
-1.08057e-06
-4.8576e-07
-1.10266e-06
-4.44281e-07
-1.12105e-06
-4.02266e-07
-1.13623e-06
-3.59932e-07
-1.14862e-06
-3.17443e-07
-1.15861e-06
-2.74916e-07
-1.16654e-06
-2.32429e-07
-1.17271e-06
-1.90021e-07
-1.17736e-06
-1.4771e-07
-1.18069e-06
-1.05489e-07
-1.18288e-06
-6.33034e-08
-2.11163e-08
6.57943e-07
-1.68688e-08
6.55931e-07
-5.03475e-08
6.52428e-07
-8.35747e-08
6.47432e-07
-1.16532e-07
6.40881e-07
-1.49159e-07
6.32681e-07
-1.81387e-07
6.22724e-07
-2.13127e-07
6.109e-07
-2.44266e-07
5.97106e-07
-2.74661e-07
5.81258e-07
-3.04127e-07
5.63305e-07
-3.32428e-07
5.43236e-07
-3.59261e-07
5.21094e-07
-3.84248e-07
4.97001e-07
-4.06944e-07
4.7116e-07
-4.26825e-07
4.43827e-07
-4.43284e-07
4.15321e-07
-4.55805e-07
3.86027e-07
-4.64089e-07
3.56354e-07
-4.68155e-07
3.26692e-07
-4.68364e-07
2.97372e-07
-4.65363e-07
2.68643e-07
-4.5994e-07
2.40677e-07
-4.52869e-07
2.13581e-07
-4.44816e-07
1.87428e-07
-4.36278e-07
1.62238e-07
-4.27547e-07
1.38004e-07
-4.18796e-07
1.14704e-07
-4.10111e-07
9.23101e-08
-4.01526e-07
7.07944e-08
-3.93041e-07
5.01285e-08
-3.84644e-07
3.02852e-08
-3.76321e-07
1.12387e-08
-3.68063e-07
-7.03566e-09
-3.59868e-07
-2.456e-08
-3.51746e-07
-4.13562e-08
-3.43705e-07
-5.74446e-08
-3.35712e-07
-7.28451e-08
-3.27768e-07
-8.75765e-08
-3.19892e-07
-1.01658e-07
-3.12103e-07
-1.15108e-07
-3.04419e-07
-1.27946e-07
-2.96857e-07
-1.40193e-07
-2.89435e-07
-1.51866e-07
-2.82171e-07
-1.62986e-07
-2.75078e-07
-1.73572e-07
-2.68174e-07
-1.83643e-07
-2.61472e-07
-1.93216e-07
-2.54984e-07
-2.02313e-07
-2.48725e-07
-2.1095e-07
-2.42707e-07
-2.19148e-07
-2.36943e-07
-2.26927e-07
-2.31449e-07
-2.34309e-07
-2.26239e-07
-2.41316e-07
-2.21333e-07
-2.47976e-07
-2.16753e-07
-2.5432e-07
-2.12527e-07
-2.60388e-07
-2.08686e-07
-2.66228e-07
-2.05274e-07
-2.7191e-07
-2.0238e-07
-2.77556e-07
-1.99966e-07
-2.83328e-07
-1.98148e-07
-2.89526e-07
-1.96978e-07
-2.9666e-07
-1.96484e-07
-3.04235e-07
-2.06099e-07
-3.12857e-07
-2.17061e-07
-3.22515e-07
-2.29343e-07
-3.33233e-07
-2.43022e-07
-3.45095e-07
-2.58234e-07
-3.58233e-07
-2.7517e-07
-3.72822e-07
-2.94078e-07
-3.89083e-07
-3.15275e-07
-4.07288e-07
-3.39147e-07
-4.27767e-07
-3.66146e-07
-4.50872e-07
-3.96905e-07
-4.77043e-07
-4.3209e-07
-5.06804e-07
-4.7186e-07
-5.40703e-07
-5.15487e-07
-5.79187e-07
-5.60721e-07
-6.22464e-07
-6.03004e-07
-6.70243e-07
-6.359e-07
-7.21242e-07
-6.54014e-07
-7.73345e-07
-6.55854e-07
-8.24391e-07
-6.43905e-07
-8.72805e-07
-6.22202e-07
-9.17749e-07
-5.94316e-07
-9.58872e-07
-5.62696e-07
-9.96002e-07
-5.28806e-07
-1.02909e-06
-4.93345e-07
-1.05822e-06
-4.56627e-07
-1.08358e-06
-4.18927e-07
-1.10537e-06
-3.80468e-07
-1.12388e-06
-3.41429e-07
-1.13936e-06
-3.01956e-07
-1.15211e-06
-2.62166e-07
-1.1624e-06
-2.22148e-07
-1.17045e-06
-1.81967e-07
-1.17648e-06
-1.41676e-07
-1.18066e-06
-1.01313e-07
-1.18307e-06
-6.08969e-08
-2.03604e-08
6.57661e-07
-1.59965e-08
6.55137e-07
-4.78226e-08
6.5097e-07
-7.94078e-08
6.45129e-07
-1.1069e-07
6.37573e-07
-1.41603e-07
6.28257e-07
-1.7207e-07
6.17132e-07
-2.02001e-07
6.04159e-07
-2.31293e-07
5.89314e-07
-2.59816e-07
5.72598e-07
-2.87409e-07
5.54037e-07
-3.13864e-07
5.33694e-07
-3.38913e-07
5.11664e-07
-3.6221e-07
4.88058e-07
-3.83327e-07
4.63014e-07
-4.01765e-07
4.36755e-07
-4.17002e-07
4.09568e-07
-4.28589e-07
3.81786e-07
-4.3627e-07
3.53745e-07
-4.40069e-07
3.25759e-07
-4.40328e-07
2.98091e-07
-4.3764e-07
2.70936e-07
-4.32727e-07
2.44422e-07
-4.26297e-07
2.18613e-07
-4.18949e-07
1.9352e-07
-4.11129e-07
1.69155e-07
-4.03128e-07
1.45525e-07
-3.95115e-07
1.22634e-07
-3.87172e-07
1.00481e-07
-3.79328e-07
7.90627e-08
-3.7158e-07
5.83731e-08
-3.63914e-07
3.84038e-08
-3.56315e-07
1.91452e-08
-3.4877e-07
5.85813e-10
-3.41277e-07
-1.72866e-08
-3.33843e-07
-3.44836e-08
-3.26476e-07
-5.10171e-08
-3.19146e-07
-6.69002e-08
-3.11852e-07
-8.21474e-08
-3.04611e-07
-9.67746e-08
-2.97442e-07
-1.10799e-07
-2.9036e-07
-1.24238e-07
-2.83383e-07
-1.3711e-07
-2.76527e-07
-1.49435e-07
-2.6981e-07
-1.61231e-07
-2.63246e-07
-1.72519e-07
-2.5685e-07
-1.83321e-07
-2.50634e-07
-1.93657e-07
-2.44612e-07
-2.03552e-07
-2.38795e-07
-2.13029e-07
-2.33196e-07
-2.22114e-07
-2.27824e-07
-2.30836e-07
-2.22694e-07
-2.39227e-07
-2.17817e-07
-2.47321e-07
-2.13209e-07
-2.55158e-07
-2.08888e-07
-2.62784e-07
-2.04876e-07
-2.70249e-07
-2.01198e-07
-2.77605e-07
-1.97902e-07
-2.84928e-07
-1.95046e-07
-2.92286e-07
-1.92608e-07
-2.99734e-07
-1.90711e-07
-3.07301e-07
-1.89443e-07
-3.1551e-07
-1.88945e-07
-3.23847e-07
-1.97853e-07
-3.33093e-07
-2.07931e-07
-3.43336e-07
-2.1924e-07
-3.54656e-07
-2.31867e-07
-3.67146e-07
-2.45934e-07
-3.80917e-07
-2.61616e-07
-3.96094e-07
-2.79147e-07
-4.12817e-07
-2.9883e-07
-4.31238e-07
-3.21039e-07
-4.51509e-07
-3.46228e-07
-4.73755e-07
-3.75055e-07
-4.98168e-07
-4.0812e-07
-5.25042e-07
-4.45469e-07
-5.54841e-07
-4.86195e-07
-5.8832e-07
-5.27742e-07
-6.26292e-07
-5.65484e-07
-6.68869e-07
-5.93685e-07
-7.15031e-07
-6.08107e-07
-7.62865e-07
-6.08177e-07
-8.10371e-07
-5.96487e-07
-8.56046e-07
-5.76572e-07
-8.99011e-07
-5.51374e-07
-9.38863e-07
-5.22853e-07
-9.7554e-07
-4.92134e-07
-1.00904e-06
-4.59847e-07
-1.03932e-06
-4.26352e-07
-1.06637e-06
-3.91876e-07
-1.09025e-06
-3.56584e-07
-1.11107e-06
-3.20611e-07
-1.12895e-06
-2.84074e-07
-1.14405e-06
-2.47071e-07
-1.15651e-06
-2.09686e-07
-1.16648e-06
-1.7199e-07
-1.17411e-06
-1.34049e-07
-1.1795e-06
-9.59263e-08
-1.18273e-06
-5.76664e-08
-1.92673e-08
6.57672e-07
-1.5135e-08
6.55067e-07
-4.52177e-08
6.50714e-07
-7.5055e-08
6.44611e-07
-1.04587e-07
6.36746e-07
-1.33739e-07
6.27109e-07
-1.62432e-07
6.15688e-07
-1.9058e-07
6.02477e-07
-2.18081e-07
5.87479e-07
-2.44817e-07
5.70708e-07
-2.70637e-07
5.52197e-07
-2.95351e-07
5.32001e-07
-3.18712e-07
5.10202e-07
-3.40406e-07
4.86924e-07
-3.60041e-07
4.62335e-07
-3.77164e-07
4.36657e-07
-3.91306e-07
4.10155e-07
-4.02063e-07
3.83118e-07
-4.09204e-07
3.55841e-07
-4.12756e-07
3.28593e-07
-4.13039e-07
3.016e-07
-4.10602e-07
2.75034e-07
-4.06114e-07
2.49016e-07
-4.0023e-07
2.23616e-07
-3.93502e-07
1.98874e-07
-3.8634e-07
1.74805e-07
-3.79015e-07
1.51416e-07
-3.71682e-07
1.28703e-07
-3.64418e-07
1.06661e-07
-3.57248e-07
8.52841e-08
-3.50168e-07
6.45663e-08
-3.43163e-07
4.4501e-08
-3.36218e-07
2.50815e-08
-3.29322e-07
6.30014e-09
-3.22469e-07
-1.18497e-08
-3.15667e-07
-2.93766e-08
-3.08924e-07
-4.62888e-08
-3.02207e-07
-6.25968e-08
-2.95516e-07
-7.83132e-08
-2.88866e-07
-9.34518e-08
-2.82274e-07
-1.08027e-07
-2.75754e-07
-1.22056e-07
-2.69324e-07
-1.35554e-07
-2.62998e-07
-1.4854e-07
-2.56792e-07
-1.61034e-07
-2.5072e-07
-1.73056e-07
-2.44795e-07
-1.8463e-07
-2.39029e-07
-1.95777e-07
-2.33433e-07
-2.06523e-07
-2.28017e-07
-2.16896e-07
-2.22791e-07
-2.26924e-07
-2.17765e-07
-2.36639e-07
-2.12948e-07
-2.46077e-07
-2.0835e-07
-2.55276e-07
-2.03982e-07
-2.64278e-07
-1.99859e-07
-2.73134e-07
-1.95996e-07
-2.81895e-07
-1.92415e-07
-2.90611e-07
-1.89168e-07
-2.99357e-07
-1.86289e-07
-3.0819e-07
-1.83771e-07
-3.17137e-07
-1.81774e-07
-3.26164e-07
-1.80436e-07
-3.34975e-07
-1.81044e-07
-3.43821e-07
-1.89119e-07
-3.53584e-07
-1.98301e-07
-3.64308e-07
-2.08669e-07
-3.76058e-07
-2.20288e-07
-3.88917e-07
-2.33268e-07
-4.0297e-07
-2.47779e-07
-4.1831e-07
-2.6405e-07
-4.35036e-07
-2.82376e-07
-4.53257e-07
-3.03121e-07
-4.7308e-07
-3.26743e-07
-4.94619e-07
-3.53894e-07
-5.18103e-07
-3.85052e-07
-5.43899e-07
-4.2012e-07
-5.72543e-07
-4.58012e-07
-6.04714e-07
-4.96015e-07
-6.40974e-07
-5.29615e-07
-6.81278e-07
-5.53686e-07
-7.24653e-07
-5.64941e-07
-7.69473e-07
-5.63483e-07
-8.14104e-07
-5.51926e-07
-8.57311e-07
-5.334e-07
-8.98319e-07
-5.10383e-07
-9.36703e-07
-4.84478e-07
-9.72259e-07
-4.56582e-07
-1.00491e-06
-4.27195e-07
-1.03466e-06
-3.9661e-07
-1.06151e-06
-3.65021e-07
-1.08552e-06
-3.32576e-07
-1.10673e-06
-2.99398e-07
-1.12522e-06
-2.65591e-07
-1.14104e-06
-2.31248e-07
-1.15427e-06
-1.9645e-07
-1.16499e-06
-1.6127e-07
-1.17326e-06
-1.2578e-07
-1.17914e-06
-9.00533e-08
-1.18265e-06
-5.41526e-08
-1.80966e-08
6.57609e-07
-1.42099e-08
6.54858e-07
-4.24673e-08
6.50295e-07
-7.04917e-08
6.43924e-07
-9.8215e-08
6.35749e-07
-1.25564e-07
6.25776e-07
-1.5246e-07
6.14017e-07
-1.7882e-07
6.00486e-07
-2.0455e-07
5.85209e-07
-2.29539e-07
5.68224e-07
-2.53651e-07
5.49586e-07
-2.76711e-07
5.2937e-07
-2.98494e-07
5.07679e-07
-3.1871e-07
4.84646e-07
-3.37001e-07
4.6044e-07
-3.52948e-07
4.35268e-07
-3.66121e-07
4.09371e-07
-3.76147e-07
3.83006e-07
-3.82816e-07
3.56432e-07
-3.86154e-07
3.29884e-07
-3.86459e-07
3.03559e-07
-3.84242e-07
2.77606e-07
-3.80124e-07
2.52129e-07
-3.74714e-07
2.27193e-07
-3.68527e-07
2.02832e-07
-3.61942e-07
1.79067e-07
-3.55213e-07
1.55903e-07
-3.48484e-07
1.33342e-07
-3.41825e-07
1.11384e-07
-3.35259e-07
9.00258e-08
-3.28781e-07
6.92647e-08
-3.22375e-07
4.90982e-08
-3.16027e-07
2.95229e-08
-3.09723e-07
1.05341e-08
-3.03458e-07
-7.87431e-09
-2.97238e-07
-2.57093e-08
-2.91067e-07
-4.29782e-08
-2.84916e-07
-5.96897e-08
-2.78781e-07
-7.58537e-08
-2.72678e-07
-9.14817e-08
-2.66621e-07
-1.06586e-07
-2.60623e-07
-1.21183e-07
-2.54701e-07
-1.35286e-07
-2.48867e-07
-1.48915e-07
-2.43136e-07
-1.62087e-07
-2.3752e-07
-1.74824e-07
-2.3203e-07
-1.87146e-07
-2.26677e-07
-1.99078e-07
-2.21472e-07
-2.10645e-07
-2.16422e-07
-2.21872e-07
-2.11535e-07
-2.32788e-07
-2.0682e-07
-2.43425e-07
-2.02283e-07
-2.53816e-07
-1.97932e-07
-2.63997e-07
-1.93775e-07
-2.74006e-07
-1.89824e-07
-2.83888e-07
-1.8609e-07
-2.93689e-07
-1.82592e-07
-3.03456e-07
-1.79379e-07
-3.13247e-07
-1.76476e-07
-3.23118e-07
-1.73877e-07
-3.33137e-07
-1.7173e-07
-3.43348e-07
-1.70127e-07
-3.52882e-07
-1.72549e-07
-3.62326e-07
-1.79821e-07
-3.72619e-07
-1.88161e-07
-3.83805e-07
-1.97647e-07
-3.95943e-07
-2.08327e-07
-4.09103e-07
-2.20303e-07
-4.23357e-07
-2.3374e-07
-4.38781e-07
-2.48863e-07
-4.55457e-07
-2.65962e-07
-4.73475e-07
-2.85392e-07
-4.92913e-07
-3.07626e-07
-5.13879e-07
-3.33282e-07
-5.36597e-07
-3.6272e-07
-5.61415e-07
-3.95711e-07
-5.88841e-07
-4.30999e-07
-6.19502e-07
-4.65744e-07
-6.53891e-07
-4.95559e-07
-6.91924e-07
-5.15905e-07
-7.32704e-07
-5.24329e-07
-7.74819e-07
-5.21469e-07
-8.16887e-07
-5.09913e-07
-8.57871e-07
-4.92444e-07
-8.97105e-07
-4.71163e-07
-9.34195e-07
-4.47394e-07
-9.68909e-07
-4.21871e-07
-1.00111e-06
-3.94998e-07
-1.03071e-06
-3.67012e-07
-1.05766e-06
-3.38068e-07
-1.08195e-06
-3.08286e-07
-1.10358e-06
-2.77768e-07
-1.12257e-06
-2.46606e-07
-1.13893e-06
-2.14881e-07
-1.15271e-06
-1.8267e-07
-1.16394e-06
-1.50044e-07
-1.17264e-06
-1.17077e-07
-1.17885e-06
-8.38479e-08
-1.18257e-06
-5.04252e-08
-1.68479e-08
6.576e-07
-1.32762e-08
6.54807e-07
-3.96743e-08
6.50167e-07
-6.58518e-08
6.43694e-07
-9.17422e-08
6.35404e-07
-1.17274e-07
6.25316e-07
-1.42371e-07
6.13451e-07
-1.66955e-07
5.99838e-07
-1.90937e-07
5.84514e-07
-2.14214e-07
5.67525e-07
-2.36661e-07
5.48931e-07
-2.58116e-07
5.28813e-07
-2.78373e-07
5.0727e-07
-2.97164e-07
4.84435e-07
-3.14161e-07
4.60473e-07
-3.28978e-07
4.35583e-07
-3.41221e-07
4.09996e-07
-3.50547e-07
3.8396e-07
-3.56762e-07
3.57722e-07
-3.59894e-07
3.31506e-07
-3.60218e-07
3.05499e-07
-3.58208e-07
2.79841e-07
-3.54438e-07
2.54631e-07
-3.49474e-07
2.29927e-07
-3.43793e-07
2.05763e-07
-3.3775e-07
1.82154e-07
-3.31576e-07
1.59105e-07
-3.25409e-07
1.36616e-07
-3.19312e-07
1.14686e-07
-3.13305e-07
9.33116e-08
-3.07383e-07
7.24892e-08
-3.01531e-07
5.22157e-08
-2.95732e-07
3.24871e-08
-2.89974e-07
1.32987e-08
-2.84252e-07
-5.35537e-09
-2.78566e-07
-2.3481e-08
-2.72924e-07
-4.10835e-08
-2.67295e-07
-5.81693e-08
-2.61676e-07
-7.4747e-08
-2.5608e-07
-9.08263e-08
-2.5052e-07
-1.06419e-07
-2.45009e-07
-1.21538e-07
-2.39559e-07
-1.36199e-07
-2.34183e-07
-1.50417e-07
-2.28894e-07
-1.64211e-07
-2.23702e-07
-1.77599e-07
-2.18617e-07
-1.90602e-07
-2.13649e-07
-2.03241e-07
-2.08807e-07
-2.1554e-07
-2.04097e-07
-2.27523e-07
-1.99526e-07
-2.39217e-07
-1.95101e-07
-2.50648e-07
-1.90827e-07
-2.61847e-07
-1.86709e-07
-2.72844e-07
-1.82755e-07
-2.83672e-07
-1.78973e-07
-2.94369e-07
-1.75372e-07
-3.04971e-07
-1.71969e-07
-3.15521e-07
-1.68811e-07
-3.26074e-07
-1.65907e-07
-3.36681e-07
-1.63255e-07
-3.47412e-07
-1.60987e-07
-3.58293e-07
-1.59195e-07
-3.6822e-07
-1.63195e-07
-3.78367e-07
-1.69808e-07
-3.89224e-07
-1.77447e-07
-4.00862e-07
-1.86166e-07
-4.13349e-07
-1.96009e-07
-4.26758e-07
-2.0708e-07
-4.4116e-07
-2.19542e-07
-4.56629e-07
-2.33617e-07
-4.73248e-07
-2.49589e-07
-4.91108e-07
-2.67804e-07
-5.1029e-07
-2.88743e-07
-5.30933e-07
-3.12967e-07
-5.53293e-07
-3.40714e-07
-5.77746e-07
-3.71627e-07
-6.04812e-07
-4.043e-07
-6.35072e-07
-4.35823e-07
-6.68884e-07
-4.6203e-07
-7.05998e-07
-4.79e-07
-7.45447e-07
-4.85017e-07
-7.85902e-07
-4.81095e-07
-8.26149e-07
-4.6971e-07
-8.65314e-07
-4.53301e-07
-9.02842e-07
-4.33645e-07
-9.38409e-07
-4.11833e-07
-9.71817e-07
-3.88465e-07
-1.00294e-06
-3.63873e-07
-1.0317e-06
-3.38252e-07
-1.05804e-06
-3.11731e-07
-1.08191e-06
-2.84414e-07
-1.10329e-06
-2.56387e-07
-1.12217e-06
-2.27733e-07
-1.13852e-06
-1.98524e-07
-1.15236e-06
-1.68832e-07
-1.16368e-06
-1.38724e-07
-1.17249e-06
-1.08273e-07
-1.17878e-06
-7.75563e-08
-1.18256e-06
-4.6645e-08
-1.55844e-08
6.57586e-07
-1.23283e-08
6.54757e-07
-3.68453e-08
6.50063e-07
-6.11574e-08
6.4352e-07
-8.52e-08
6.35151e-07
-1.08905e-07
6.2498e-07
-1.322e-07
6.13038e-07
-1.55012e-07
5.99359e-07
-1.77258e-07
5.83989e-07
-1.98844e-07
5.66982e-07
-2.19653e-07
5.48405e-07
-2.39538e-07
5.28342e-07
-2.58309e-07
5.06899e-07
-2.7572e-07
4.8421e-07
-2.91468e-07
4.60437e-07
-3.052e-07
4.35773e-07
-3.1655e-07
4.10441e-07
-3.25205e-07
3.84676e-07
-3.30984e-07
3.5871e-07
-3.33914e-07
3.32757e-07
-3.34248e-07
3.06994e-07
-3.32426e-07
2.81556e-07
-3.28979e-07
2.56534e-07
-3.24432e-07
2.31987e-07
-3.19225e-07
2.07947e-07
-3.13688e-07
1.84429e-07
-3.08037e-07
1.61437e-07
-3.02396e-07
1.3897e-07
-2.96824e-07
1.17024e-07
-2.9134e-07
9.5596e-08
-2.85936e-07
7.46815e-08
-2.80599e-07
5.42768e-08
-2.75311e-07
3.43781e-08
-2.7006e-07
1.49817e-08
-2.64841e-07
-3.91682e-09
-2.59654e-07
-2.23226e-08
-2.54504e-07
-4.02402e-08
-2.49362e-07
-5.76753e-08
-2.44225e-07
-7.4635e-08
-2.39104e-07
-9.11281e-08
-2.3401e-07
-1.07165e-07
-2.28954e-07
-1.22757e-07
-2.23948e-07
-1.37919e-07
-2.19002e-07
-1.52664e-07
-2.14129e-07
-1.67008e-07
-2.09336e-07
-1.8097e-07
-2.04634e-07
-1.94566e-07
-2.00031e-07
-2.07818e-07
-1.95533e-07
-2.20745e-07
-1.91148e-07
-2.33368e-07
-1.8688e-07
-2.45711e-07
-1.82736e-07
-2.57796e-07
-1.78719e-07
-2.69648e-07
-1.74836e-07
-2.81291e-07
-1.71092e-07
-2.92751e-07
-1.67493e-07
-3.04056e-07
-1.64049e-07
-3.15237e-07
-1.60772e-07
-3.26321e-07
-1.57713e-07
-3.37358e-07
-1.54859e-07
-3.48397e-07
-1.52207e-07
-3.59523e-07
-1.49856e-07
-3.70794e-07
-1.4791e-07
-3.81287e-07
-1.5294e-07
-3.92084e-07
-1.5913e-07
-4.03444e-07
-1.66217e-07
-4.15479e-07
-1.74272e-07
-4.28278e-07
-1.83365e-07
-4.41922e-07
-1.93607e-07
-4.56487e-07
-2.05164e-07
-4.72056e-07
-2.18255e-07
-4.88716e-07
-2.33156e-07
-5.06566e-07
-2.50204e-07
-5.25704e-07
-2.69879e-07
-5.46298e-07
-2.92671e-07
-5.68615e-07
-3.18715e-07
-5.93028e-07
-3.47543e-07
-6.20014e-07
-3.77636e-07
-6.50047e-07
-4.06081e-07
-6.83333e-07
-4.28982e-07
-7.19504e-07
-4.43e-07
-7.57611e-07
-4.47021e-07
-7.96475e-07
-4.42296e-07
-8.35063e-07
-4.31156e-07
-8.7264e-07
-4.15742e-07
-9.0873e-07
-3.97563e-07
-9.43039e-07
-3.77528e-07
-9.75376e-07
-3.5613e-07
-1.00561e-06
-3.3364e-07
-1.03364e-06
-3.10218e-07
-1.0594e-06
-2.85972e-07
-1.08283e-06
-2.60986e-07
-1.10388e-06
-2.35337e-07
-1.12252e-06
-2.09094e-07
-1.13872e-06
-1.82324e-07
-1.15246e-06
-1.55091e-07
-1.16373e-06
-1.2746e-07
-1.1725e-06
-9.94968e-08
-1.17878e-06
-7.12765e-08
-1.18256e-06
-4.28686e-08
-1.43214e-08
6.57583e-07
-1.13779e-08
6.54744e-07
-3.40057e-08
6.50031e-07
-5.64447e-08
6.43465e-07
-7.86343e-08
6.35071e-07
-1.0051e-07
6.24876e-07
-1.22006e-07
6.12916e-07
-1.43052e-07
5.99231e-07
-1.63573e-07
5.83869e-07
-1.83482e-07
5.66887e-07
-2.02671e-07
5.48355e-07
-2.21006e-07
5.28359e-07
-2.38312e-07
5.07005e-07
-2.54364e-07
4.84423e-07
-2.68884e-07
4.60775e-07
-2.81548e-07
4.36249e-07
-2.9202e-07
4.11063e-07
-3.00013e-07
3.85445e-07
-3.0536e-07
3.59626e-07
-3.08085e-07
3.33813e-07
-3.08424e-07
3.0818e-07
-3.0678e-07
2.82857e-07
-3.03643e-07
2.57935e-07
-2.99495e-07
2.33469e-07
-2.94743e-07
2.09488e-07
-2.89691e-07
1.86004e-07
-2.84537e-07
1.6302e-07
-2.79396e-07
1.40532e-07
-2.74321e-07
1.18537e-07
-2.69329e-07
9.70284e-08
-2.64414e-07
7.60032e-08
-2.5956e-07
5.54577e-08
-2.54753e-07
3.53884e-08
-2.49979e-07
1.57915e-08
-2.45232e-07
-3.33723e-09
-2.40515e-07
-2.20026e-08
-2.35828e-07
-4.02087e-08
-2.31145e-07
-5.796e-08
-2.26461e-07
-7.52627e-08
-2.21788e-07
-9.21244e-08
-2.17134e-07
-1.08554e-07
-2.12509e-07
-1.24562e-07
-2.07924e-07
-1.40159e-07
-2.03388e-07
-1.5536e-07
-1.98911e-07
-1.70178e-07
-1.945e-07
-1.84628e-07
-1.90166e-07
-1.98726e-07
-1.85913e-07
-2.1249e-07
-1.8175e-07
-2.25937e-07
-1.77681e-07
-2.39086e-07
-1.73712e-07
-2.51955e-07
-1.69847e-07
-2.64564e-07
-1.66091e-07
-2.76932e-07
-1.6245e-07
-2.89078e-07
-1.58928e-07
-3.01021e-07
-1.55535e-07
-3.12779e-07
-1.52279e-07
-3.24366e-07
-1.49174e-07
-3.35799e-07
-1.46274e-07
-3.47112e-07
-1.43543e-07
-3.583e-07
-1.41022e-07
-3.69417e-07
-1.38752e-07
-3.80787e-07
-1.36828e-07
-3.91801e-07
-1.41986e-07
-4.03161e-07
-1.47853e-07
-4.14998e-07
-1.54483e-07
-4.27434e-07
-1.61957e-07
-4.40566e-07
-1.70369e-07
-4.54483e-07
-1.79843e-07
-4.69268e-07
-1.90548e-07
-4.85012e-07
-2.02698e-07
-5.01813e-07
-2.16561e-07
-5.19779e-07
-2.32463e-07
-5.39033e-07
-2.50872e-07
-5.5977e-07
-2.72202e-07
-5.82273e-07
-2.96497e-07
-6.06909e-07
-3.23197e-07
-6.34112e-07
-3.50713e-07
-6.64254e-07
-3.76187e-07
-6.97393e-07
-3.96042e-07
-7.33043e-07
-4.07492e-07
-7.70249e-07
-4.09904e-07
-8.07933e-07
-4.04663e-07
-8.45198e-07
-3.93918e-07
-8.81421e-07
-3.79533e-07
-9.16202e-07
-3.62788e-07
-9.49292e-07
-3.44441e-07
-9.80524e-07
-3.24899e-07
-1.00978e-06
-3.04387e-07
-1.03696e-06
-2.83038e-07
-1.06199e-06
-2.60941e-07
-1.08481e-06
-2.38169e-07
-1.10535e-06
-2.14789e-07
-1.12359e-06
-1.90862e-07
-1.13946e-06
-1.66447e-07
-1.15295e-06
-1.41601e-07
-1.16403e-06
-1.16384e-07
-1.17267e-06
-9.0857e-08
-1.17886e-06
-6.50897e-08
-1.18258e-06
-3.91475e-08
-1.30775e-08
6.57582e-07
-1.04257e-08
6.54737e-07
-3.11612e-08
6.50017e-07
-5.17247e-08
6.43442e-07
-7.20596e-08
6.35039e-07
-9.21066e-08
6.24838e-07
-1.11804e-07
6.12875e-07
-1.31089e-07
5.99194e-07
-1.49892e-07
5.83845e-07
-1.68132e-07
5.66887e-07
-1.85713e-07
5.48392e-07
-2.0251e-07
5.28446e-07
-2.18365e-07
5.07156e-07
-2.33073e-07
4.84652e-07
-2.46379e-07
4.61093e-07
-2.57987e-07
4.36666e-07
-2.67591e-07
4.11583e-07
-2.74926e-07
3.8607e-07
-2.79842e-07
3.60351e-07
-2.82361e-07
3.34631e-07
-2.82696e-07
3.09079e-07
-2.81219e-07
2.83823e-07
-2.78377e-07
2.58951e-07
-2.74613e-07
2.34517e-07
-2.70298e-07
2.10549e-07
-2.65711e-07
1.87057e-07
-2.61034e-07
1.64044e-07
-2.56372e-07
1.41506e-07
-2.51772e-07
1.19437e-07
-2.4725e-07
9.78335e-08
-2.428e-07
7.66894e-08
-2.38406e-07
5.6001e-08
-2.34055e-07
3.57648e-08
-2.29733e-07
1.59771e-08
-2.25436e-07
-3.36607e-09
-2.21163e-07
-2.22693e-08
-2.16916e-07
-4.0736e-08
-2.12669e-07
-5.87699e-08
-2.08418e-07
-7.63758e-08
-2.04171e-07
-9.35602e-08
-1.99938e-07
-1.10331e-07
-1.95726e-07
-1.26696e-07
-1.91545e-07
-1.42666e-07
-1.87404e-07
-1.58253e-07
-1.83309e-07
-1.73468e-07
-1.7927e-07
-1.88325e-07
-1.75293e-07
-2.02837e-07
-1.71384e-07
-2.1702e-07
-1.6755e-07
-2.30889e-07
-1.63795e-07
-2.44461e-07
-1.60123e-07
-2.5775e-07
-1.5654e-07
-2.70775e-07
-1.53049e-07
-2.83552e-07
-1.49656e-07
-2.96096e-07
-1.46367e-07
-3.08425e-07
-1.4319e-07
-3.20552e-07
-1.40136e-07
-3.32487e-07
-1.37227e-07
-3.4424e-07
-1.34513e-07
-3.5583e-07
-1.31953e-07
-3.67225e-07
-1.29636e-07
-3.78388e-07
-1.27613e-07
-3.89691e-07
-1.26068e-07
-4.00866e-07
-1.30877e-07
-4.12487e-07
-1.36314e-07
-4.24625e-07
-1.42441e-07
-4.3736e-07
-1.49332e-07
-4.50774e-07
-1.57078e-07
-4.64951e-07
-1.65806e-07
-4.79974e-07
-1.75677e-07
-4.9594e-07
-1.86901e-07
-5.12955e-07
-1.99731e-07
-5.31138e-07
-2.14483e-07
-5.50635e-07
-2.31597e-07
-5.71662e-07
-2.51414e-07
-5.94505e-07
-2.73904e-07
-6.19515e-07
-2.98441e-07
-6.47062e-07
-3.23409e-07
-6.774e-07
-3.4606e-07
-7.10448e-07
-3.6316e-07
-7.45634e-07
-3.7242e-07
-7.82033e-07
-3.73577e-07
-8.18677e-07
-3.6806e-07
-8.54793e-07
-3.57825e-07
-8.89848e-07
-3.44488e-07
-9.23502e-07
-3.2914e-07
-9.55535e-07
-3.12411e-07
-9.85795e-07
-2.94641e-07
-1.01417e-06
-2.76016e-07
-1.04056e-06
-2.56645e-07
-1.06489e-06
-2.36606e-07
-1.0871e-06
-2.15961e-07
-1.10713e-06
-1.94766e-07
-1.12491e-06
-1.73075e-07
-1.14042e-06
-1.5094e-07
-1.15361e-06
-1.28414e-07
-1.16444e-06
-1.05548e-07
-1.1729e-06
-8.23994e-08
-1.17896e-06
-5.9031e-08
-1.1826e-06
-3.55027e-08
-1.18592e-08
6.57582e-07
-9.47412e-09
6.54739e-07
-2.8318e-08
6.50021e-07
-4.70063e-08
6.43448e-07
-6.54875e-08
6.35049e-07
-8.37073e-08
6.24855e-07
-1.0161e-07
6.12902e-07
-1.19137e-07
5.99237e-07
-1.36226e-07
5.83908e-07
-1.52804e-07
5.66978e-07
-1.68783e-07
5.48518e-07
-1.8405e-07
5.28614e-07
-1.98462e-07
5.07373e-07
-2.11832e-07
4.84924e-07
-2.2393e-07
4.61423e-07
-2.34486e-07
4.37057e-07
-2.43224e-07
4.12035e-07
-2.49903e-07
3.86579e-07
-2.54385e-07
3.60913e-07
-2.56692e-07
3.35236e-07
-2.57018e-07
3.09719e-07
-2.55698e-07
2.84486e-07
-2.5314e-07
2.59625e-07
-2.49747e-07
2.35189e-07
-2.45856e-07
2.11204e-07
-2.41721e-07
1.87681e-07
-2.37505e-07
1.64621e-07
-2.33305e-07
1.42019e-07
-2.29163e-07
1.19868e-07
-2.25093e-07
9.81645e-08
-2.21089e-07
7.69014e-08
-2.17136e-07
5.60751e-08
-2.13222e-07
3.5682e-08
-2.09334e-07
1.57184e-08
-2.05466e-07
-3.81934e-09
-2.0162e-07
-2.29354e-08
-1.97794e-07
-4.16324e-08
-1.93965e-07
-5.99132e-08
-1.90129e-07
-7.77817e-08
-1.86294e-07
-9.5243e-08
-1.82467e-07
-1.12303e-07
-1.78656e-07
-1.2897e-07
-1.74868e-07
-1.45252e-07
-1.7111e-07
-1.61158e-07
-1.67391e-07
-1.76699e-07
-1.63716e-07
-1.91887e-07
-1.60093e-07
-2.06732e-07
-1.56525e-07
-2.21248e-07
-1.5302e-07
-2.35447e-07
-1.4958e-07
-2.49345e-07
-1.46211e-07
-2.62954e-07
-1.42916e-07
-2.76289e-07
-1.39699e-07
-2.89364e-07
-1.36565e-07
-3.02196e-07
-1.33521e-07
-3.14798e-07
-1.30573e-07
-3.27185e-07
-1.27734e-07
-3.3937e-07
-1.25031e-07
-3.51374e-07
-1.22499e-07
-3.63207e-07
-1.20112e-07
-3.74855e-07
-1.17984e-07
-3.86255e-07
-1.1621e-07
-3.9754e-07
-1.15421e-07
-4.08756e-07
-1.19733e-07
-4.20506e-07
-1.24646e-07
-4.32821e-07
-1.30218e-07
-4.45757e-07
-1.36498e-07
-4.59384e-07
-1.43566e-07
-4.73776e-07
-1.51539e-07
-4.89019e-07
-1.60573e-07
-5.05209e-07
-1.70862e-07
-5.22462e-07
-1.82645e-07
-5.40906e-07
-1.96221e-07
-5.60705e-07
-2.11995e-07
-5.82091e-07
-2.30239e-07
-6.05349e-07
-2.50866e-07
-6.30804e-07
-2.73206e-07
-6.58761e-07
-2.95658e-07
-6.89364e-07
-3.15634e-07
-7.22407e-07
-3.30254e-07
-7.57256e-07
-3.37666e-07
-7.93011e-07
-3.37878e-07
-8.28801e-07
-3.32303e-07
-8.6395e-07
-3.22693e-07
-8.98004e-07
-3.10443e-07
-9.30669e-07
-2.96479e-07
-9.61753e-07
-2.81328e-07
-9.91122e-07
-2.65273e-07
-1.01867e-06
-2.48469e-07
-1.04431e-06
-2.31007e-07
-1.06796e-06
-2.12953e-07
-1.08956e-06
-1.9436e-07
-1.10905e-06
-1.75278e-07
-1.12637e-06
-1.55752e-07
-1.14148e-06
-1.3583e-07
-1.15434e-06
-1.15556e-07
-1.16491e-06
-9.49783e-08
-1.17316e-06
-7.41469e-08
-1.17908e-06
-5.3118e-08
-1.18263e-06
-3.19456e-08
-1.06705e-08
6.57583e-07
-8.52351e-09
6.54743e-07
-2.54774e-08
6.50028e-07
-4.22921e-08
6.43462e-07
-5.89212e-08
6.35071e-07
-7.53157e-08
6.24886e-07
-9.14252e-08
6.12946e-07
-1.07198e-07
5.99296e-07
-1.22576e-07
5.83986e-07
-1.37495e-07
5.67079e-07
-1.51875e-07
5.48645e-07
-1.65617e-07
5.28771e-07
-1.78589e-07
5.07563e-07
-1.90625e-07
4.85149e-07
-2.01517e-07
4.61686e-07
-2.11024e-07
4.37356e-07
-2.18896e-07
4.12368e-07
-2.24916e-07
3.86943e-07
-2.28962e-07
3.61301e-07
-2.31052e-07
3.35643e-07
-2.3136e-07
3.10135e-07
-2.3019e-07
2.84902e-07
-2.27908e-07
2.60032e-07
-2.24876e-07
2.35575e-07
-2.21398e-07
2.11558e-07
-2.17702e-07
1.87991e-07
-2.13935e-07
1.64874e-07
-2.10184e-07
1.42201e-07
-2.06486e-07
1.19966e-07
-2.02854e-07
9.81621e-08
-1.99281e-07
7.67847e-08
-1.95754e-07
5.58291e-08
-1.92261e-07
3.52917e-08
-1.88792e-07
1.51693e-08
-1.85339e-07
-4.54163e-09
-1.81904e-07
-2.38448e-08
-1.78486e-07
-4.27421e-08
-1.75062e-07
-6.12356e-08
-1.7163e-07
-7.93281e-08
-1.68195e-07
-9.70236e-08
-1.64764e-07
-1.14327e-07
-1.61344e-07
-1.31245e-07
-1.57942e-07
-1.47783e-07
-1.54563e-07
-1.6395e-07
-1.51214e-07
-1.79755e-07
-1.47901e-07
-1.95206e-07
-1.4463e-07
-2.10314e-07
-1.41406e-07
-2.25089e-07
-1.38232e-07
-2.39543e-07
-1.35114e-07
-2.53686e-07
-1.32054e-07
-2.6753e-07
-1.29058e-07
-2.81088e-07
-1.26127e-07
-2.94372e-07
-1.23268e-07
-3.07393e-07
-1.20486e-07
-3.20165e-07
-1.17788e-07
-3.32702e-07
-1.15185e-07
-3.45017e-07
-1.12703e-07
-3.5713e-07
-1.10374e-07
-3.69054e-07
-1.08176e-07
-3.80815e-07
-1.06208e-07
-3.92429e-07
-1.0454e-07
-4.03909e-07
-1.04576e-07
-4.15298e-07
-1.08421e-07
-4.27212e-07
-1.12814e-07
-4.39701e-07
-1.17818e-07
-4.52821e-07
-1.23474e-07
-4.66639e-07
-1.29853e-07
-4.8123e-07
-1.37063e-07
-4.96681e-07
-1.45247e-07
-5.13094e-07
-1.54585e-07
-5.30592e-07
-1.65294e-07
-5.49315e-07
-1.77657e-07
-5.69444e-07
-1.92039e-07
-5.91219e-07
-2.08648e-07
-6.1492e-07
-2.27356e-07
-6.40839e-07
-2.47475e-07
-6.69213e-07
-2.67459e-07
-7.0008e-07
-2.84916e-07
-7.33129e-07
-2.97317e-07
-7.67683e-07
-3.03188e-07
-8.02882e-07
-3.02725e-07
-8.37939e-07
-2.97272e-07
-8.72262e-07
-2.88383e-07
-9.05458e-07
-2.77254e-07
-9.37271e-07
-2.6467e-07
-9.67531e-07
-2.51069e-07
-9.96118e-07
-2.36688e-07
-1.02293e-06
-2.21655e-07
-1.04789e-06
-2.06049e-07
-1.07092e-06
-1.89923e-07
-1.09196e-06
-1.73324e-07
-1.11094e-06
-1.56294e-07
-1.12782e-06
-1.38874e-07
-1.14254e-06
-1.21104e-07
-1.15508e-06
-1.03023e-07
-1.16538e-06
-8.46737e-08
-1.17343e-06
-6.61003e-08
-1.17919e-06
-4.73521e-08
-1.18266e-06
-2.84771e-08
-9.5116e-09
6.57584e-07
-7.57413e-09
6.54747e-07
-2.26402e-08
6.50038e-07
-3.75832e-08
6.43479e-07
-5.23619e-08
6.35096e-07
-6.69327e-08
6.24921e-07
-8.12509e-08
6.12994e-07
-9.527e-08
5.99357e-07
-1.0894e-07
5.84064e-07
-1.22202e-07
5.67173e-07
-1.34986e-07
5.48758e-07
-1.47202e-07
5.28905e-07
-1.58736e-07
5.07718e-07
-1.69439e-07
4.85325e-07
-1.79126e-07
4.61881e-07
-1.87583e-07
4.37569e-07
-1.94587e-07
4.12596e-07
-1.99947e-07
3.87182e-07
-2.03553e-07
3.61546e-07
-2.0542e-07
3.35888e-07
-2.05706e-07
3.10372e-07
-2.04679e-07
2.85126e-07
-2.02665e-07
2.60233e-07
-1.99985e-07
2.35745e-07
-1.96912e-07
2.11688e-07
-1.93646e-07
1.88071e-07
-1.90318e-07
1.64893e-07
-1.87005e-07
1.42149e-07
-1.83741e-07
1.19831e-07
-1.80534e-07
9.79331e-08
-1.77381e-07
7.64498e-08
-1.74269e-07
5.53767e-08
-1.71186e-07
3.47102e-08
-1.68122e-07
1.44475e-08
-1.65074e-07
-5.41471e-09
-1.62039e-07
-2.48796e-08
-1.59018e-07
-4.39485e-08
-1.5599e-07
-6.26224e-08
-1.52952e-07
-8.09034e-08
-1.49909e-07
-9.87944e-08
-1.46868e-07
-1.16299e-07
-1.43833e-07
-1.33423e-07
-1.40811e-07
-1.5017e-07
-1.37808e-07
-1.66548e-07
-1.34828e-07
-1.82564e-07
-1.31877e-07
-1.98226e-07
-1.28959e-07
-2.13541e-07
-1.2608e-07
-2.28519e-07
-1.23244e-07
-2.43169e-07
-1.20453e-07
-2.575e-07
-1.17712e-07
-2.71524e-07
-1.15023e-07
-2.85249e-07
-1.12391e-07
-2.98687e-07
-1.09819e-07
-3.11848e-07
-1.07313e-07
-3.24744e-07
-1.0488e-07
-3.37389e-07
-1.02529e-07
-3.49796e-07
-1.00284e-07
-3.61987e-07