/*--------------------------------*- C++ -*----------------------------------*\
  =========                 |
  \\      /  F ield         | OpenFOAM: The Open Source CFD Toolbox
   \\    /   O peration     | Website:  https://openfoam.org
    \\  /    A nd           | Version:  8
     \\/     M anipulation  |
\*---------------------------------------------------------------------------*/
FoamFile
{
    version     2.0;
    format      ascii;
    class       volScalarField;
    location    "420/fluid";
    object      Qdot;
}
// * * * * * * * * * * * * * * * * * * * * * * * * * * * * * * * * * * * * * //

dimensions      [1 -1 -3 0 0 0 0];

internalField   nonuniform List<scalar> 
4000
(
0
-2.04909e-17
0
0
6.34763e-12
1.31399e-11
0
3.46619e-07
3.55483e-07
1.17066e-10
-5.00548e-19
-7.09482e-15
-6.06208e-10
0
1.01187e-09
-2.04757e-09
-1.82403e-16
-1.82895e-15
1.37182e-08
3.81364e-07
2.13685e-06
2.99028e-05
0.000356676
0.00362798
0.0303326
0.207302
1.1656
5.46201
21.6671
73.9319
220.246
580.323
1366.89
2905.07
5626.17
10019.5
16605.4
25938.5
38702
55870.4
78775.3
109230
149859
203938
275816
371333
498232
666712
890105
1.18581e+06
1.57646e+06
2.09157e+06
2.76952e+06
3.66027e+06
4.82902e+06
6.36096e+06
8.36805e+06
1.09986e+07
1.43696e+07
1.8801e+07
2.47782e+07
3.27131e+07
3.78903e+08
6.52984e+07
2.69379e+07
1.91215e+07
1.3396e+07
9.24446e+06
6.27113e+06
4.17356e+06
2.72158e+06
1.74168e+06
1.10559e+06
720618
268746
30378
1028.39
16.5713
0.161821
0.00146745
2.16332e-05
7.73073e-07
6.99278e-08
1.33909e-08
3.66497e-09
1.44708e-09
5.39704e-10
2.27142e-10
9.86188e-11
4.1723e-11
1.62338e-11
8.08615e-12
2.86408e-12
1.20137e-12
-3.77913e-13
2.15332e-13
8.79901e-14
5.44585e-12
-7.60286e-13
1.88874e-15
0
2.93561e-21
0
0
0
-2.98139e-12
0
-1.60504e-15
1.38187e-10
1.14658e-10
0
-9.92108e-19
-3.72218e-07
-2.03285e-18
-1.20505e-09
2.43668e-09
3.93744e-07
-1.88946e-15
1.42259e-08
1.48677e-07
1.90554e-06
2.91474e-05
0.000348664
0.00354792
0.0297801
0.204793
1.16
5.47819
21.8992
75.2729
225.764
598.51
1417.29
3023.57
5865.73
10458.4
17332
27039.8
40227.2
57780.6
81079.2
112252
153651
208631
281665
378762
507886
679541
907493
1.20976e+06
1.60991e+06
2.13871e+06
2.83637e+06
3.75533e+06
4.96397e+06
6.5514e+06
8.63356e+06
1.1361e+07
1.48436e+07
1.95088e+07
2.56089e+07
3.35659e+07
4.31016e+08
3.58891e+07
2.56741e+07
1.81774e+07
1.27055e+07
8.74669e+06
5.91672e+06
3.92443e+06
2.54924e+06
1.6252e+06
1.02996e+06
667195
205784
17492.8
493.112
6.92074
0.0636517
0.000617584
1.09345e-05
4.87879e-07
5.24147e-08
1.11358e-08
3.51741e-09
1.20235e-09
5.51851e-10
2.12602e-10
9.63843e-11
3.68615e-11
1.66605e-11
6.53022e-12
2.81823e-12
3.11338e-13
6.31273e-12
2.14034e-13
8.07256e-14
3.08442e-14
1.09383e-14
1.81108e-15
-3.71634e-13
0
0
-1.26295e-20
1.81784e-16
1.28164e-11
3.23224e-11
0
0
3.46571e-07
-3.51421e-07
-5.63159e-10
3.59608e-07
-9.35521e-10
-3.95971e-18
-3.19969e-17
-1.92917e-09
-1.99721e-15
4.86318e-09
1.78829e-07
2.17718e-06
2.94634e-05
0.000351765
0.00357432
0.0300515
0.207476
1.18176
5.61778
22.6172
78.3068
236.546
631.371
1504.5
3225.15
6270.86
11191.4
18511.7
28749
42538.3
60991.2
85571.7
118028
160944
217801
293279
393659
527284
705184
941895
1.25657e+06
1.67448e+06
2.22894e+06
2.96399e+06
3.93792e+06
5.22801e+06
6.937e+06
9.20195e+06
1.21956e+07
1.6074e+07
2.13441e+07
2.83189e+07
3.75114e+07
4.32789e+08
3.29605e+07
2.36521e+07
1.676e+07
1.17054e+07
8.04102e+06
5.42149e+06
3.58084e+06
2.31533e+06
1.47083e+06
933624
583113
136810
8634.05
208.105
2.67456
0.024936
0.000276667
6.03365e-06
3.27996e-07
4.17682e-08
9.43451e-09
3.05917e-09
1.05e-09
4.75006e-10
1.83025e-10
9.25576e-11
3.78346e-11
1.71562e-11
6.79034e-12
2.77008e-12
1.22916e-12
4.55105e-13
1.02668e-12
8.87166e-13
3.07992e-14
1.09469e-14
1.81686e-15
6.98009e-22
1.70827e-12
-6.05261e-21
1.74478e-16
-1.79848e-16
-3.69434e-16
0
0
0
1.09188e-10
-4.92868e-10
0
-1.0054e-09
0
-3.84532e-18
-2.27493e-09
-2.116e-16
-2.0926e-15
1.32435e-08
1.63488e-07
2.0556e-06
2.96425e-05
0.00035903
0.00365707
0.0308669
0.214197
1.22735
5.87255
23.8043
82.9942
252.419
677.97
1624.18
3494.2
6792.14
12081.3
19925.6
30957.2
45908.3
65640.6
91563.4
125609
170462
229761
308418
413020
552323
737925
985176
1.31441e+06
1.75261e+06
2.33567e+06
3.11144e+06
4.14393e+06
5.51909e+06
7.35295e+06
9.80311e+06
1.30525e+07
1.73618e+07
2.33521e+07
3.15209e+07
4.66621e+07
4.10941e+08
3.07685e+07
2.20247e+07
1.55553e+07
1.08193e+07
7.39602e+06
4.95911e+06
3.25622e+06
2.09396e+06
1.32644e+06
846906
478434
82542
3997.23
83.4104
0.991328
0.0094748
0.000120979
3.24568e-06
2.15329e-07
3.14971e-08
7.69119e-09
2.55168e-09
1.02386e-09
4.65438e-10
1.79629e-10
7.29608e-11
4.12914e-11
1.42822e-11
6.31696e-12
8.36133e-12
1.10251e-12
4.75658e-13
5.76994e-12
7.68211e-14
3.08122e-14
9.49059e-15
1.82525e-15
-6.97051e-22
0
0
5.92152e-12
1.49663e-11
-1.24773e-11
0
0
2.20903e-19
0
3.34985e-07
0
0
-1.8508e-18
-1.98204e-09
-1.79218e-09
4.03118e-09
-4.49275e-09
1.1947e-08
1.83807e-07
2.34577e-06
3.07998e-05
0.000373112
0.0038097
0.0322765
0.225082
1.29692
6.2416
25.4461
89.1949
272.597
734.653
1764.14
3800.49
7391.98
13177.8
21843.7
33898.3
49993.6
71071.1
98540.7
134407
181478
243568
325833
435151
580661
774452
1.03254e+06
1.37617e+06
1.83356e+06
2.44228e+06
3.25245e+06
4.33113e+06
5.76831e+06
7.68519e+06
1.02457e+07
1.36299e+07
1.81031e+07
2.4278e+07
3.25899e+07
1.68447e+08
3.00925e+08
2.97791e+07
2.11332e+07
1.48009e+07
1.02095e+07
6.92162e+06
4.60302e+06
2.99865e+06
1.91555e+06
1.2102e+06
779058
365391
46991.3
1830.79
33.7471
0.379933
0.00382015
5.6931e-05
1.87014e-06
1.48661e-07
2.41995e-08
6.9253e-09
2.16372e-09
8.93367e-10
4.00963e-10
1.686e-10
7.54728e-11
3.31747e-11
1.40814e-11
-4.22698e-13
2.4088e-12
1.0473e-12
4.21671e-13
1.85511e-13
6.77637e-14
2.4782e-14
-7.54274e-13
1.47477e-15
-3.70136e-13
-2.01321e-17
2.83268e-07
0
0
1.5132e-11
0
-1.069e-19
0
-1.04489e-10
3.2755e-07
0
-9.5194e-10
1.79985e-18
3.36077e-07
-1.73813e-09
-3.43953e-07
1.00996e-13
1.59468e-08
2.60708e-08
2.46962e-06
3.26415e-05
0.000392787
0.00402391
0.0342207
0.239625
1.38665
6.70039
27.4174
96.4407
295.68
799.85
1933.77
4199.38
8225.54
14653.6
24179.7
37317.5
54692.3
77250.3
106425
144315
193876
259118
345449
460050
612429
815147
1.08482e+06
1.44345e+06
1.92023e+06
2.55391e+06
3.39607e+06
4.51546e+06
6.00388e+06
7.98437e+06
1.06222e+07
1.40866e+07
1.86474e+07
2.4921e+07
3.33403e+07
2.85101e+08
1.8786e+08
2.92816e+07
2.05623e+07
1.42552e+07
9.73696e+06
6.53899e+06
4.30923e+06
2.78376e+06
1.76632e+06
1.11351e+06
720862
253023
26043.6
849.7
14.0677
0.152625
0.00163538
2.84431e-05
1.1278e-06
1.0657e-07
1.98188e-08
5.34341e-09
2.13272e-09
8.21249e-10
3.53342e-10
1.60137e-10
6.97765e-11
2.75431e-11
1.22473e-11
5.53056e-12
2.06875e-12
8.81624e-13
3.9188e-13
1.60002e-13
6.77331e-14
2.48286e-14
8.07901e-15
1.4838e-15
0
0
0
0
0
-1.21472e-11
0
0
-1.47988e-15
1.02258e-10
6.01335e-15
-3.21437e-07
-1.21402e-14
1.74929e-18
-1.86791e-09
-2.82453e-17
-2.08407e-09
3.35347e-07
1.1156e-08
2.51571e-08
2.46168e-06
3.46562e-05
0.000417062
0.00428094
0.0365195
0.256544
1.48885
7.21065
29.6838
105.279
326.13
893.504
2175.55
4735.84
9242.74
16374.9
26872.9
41204
59966.5
84118
115135
155243
207565
276347
367275
487875
648085
861016
1.14399e+06
1.51991e+06
2.01912e+06
2.6818e+06
3.56125e+06
4.72825e+06
6.2769e+06
8.33267e+06
1.10561e+07
1.46084e+07
1.92904e+07
2.57173e+07
3.42935e+07
3.85489e+08
8.44682e+07
2.83627e+07
1.97281e+07
1.35602e+07
9.18909e+06
6.12515e+06
4.00821e+06
2.57294e+06
1.625e+06
1.02435e+06
655054
183647
14303.5
404.75
6.13944
0.0654661
0.000757637
1.53639e-05
7.26562e-07
8.00911e-08
1.55497e-08
4.86373e-09
1.80111e-09
6.86797e-10
3.36306e-10
1.44681e-10
6.02222e-11
2.7221e-11
1.2118e-11
4.8837e-12
2.05395e-12
8.31211e-13
-4.91619e-13
1.47231e-13
5.54858e-14
1.88741e-14
7.66152e-13
7.42897e-13
4.83536e-18
0
0
0
-1.71908e-16
-1.47297e-11
0
0
0
0
0
-1.17893e-14
0
-1.70002e-18
-1.81238e-09
-2.73648e-17
-2.0163e-09
-2.55576e-15
1.89612e-08
3.92646e-08
2.80858e-06
3.65811e-05
0.000442812
0.00455869
0.0391178
0.277013
1.62454
7.97978
33.1529
118.347
368.191
1010.09
2463.39
5361.84
10424.8
18349.9
29920.5
45536.4
65769.4
91584.4
124539
167008
222310
294955
390939
518193
687169
911671
1.20994e+06
1.60613e+06
2.13221e+06
2.83056e+06
3.75733e+06
4.98686e+06
6.61758e+06
8.77956e+06
1.1646e+07
1.53634e+07
2.02527e+07
2.68757e+07
3.55531e+07
4.59427e+08
3.66746e+07
2.59063e+07
1.80779e+07
1.24423e+07
8.43095e+06
5.61388e+06
3.66767e+06
2.3507e+06
1.48459e+06
940597
580176
129260
8026.19
202.044
2.8559
0.0303828
0.000382181
8.97078e-06
4.94952e-07
6.14998e-08
1.30135e-08
4.0006e-09
1.56356e-09
6.5471e-10
2.74769e-10
1.35631e-10
5.6585e-11
2.2849e-11
1.1629e-11
4.03167e-12
-3.49519e-12
8.26523e-13
3.41274e-13
1.46846e-13
4.94123e-14
2.18973e-14
5.15024e-12
1.23012e-15
0
2.70703e-07
-8.15954e-17
0
0
-2.63533e-11
0
0
0
-3.04211e-07
0
0
-1.14962e-14
0
-1.75718e-09
-3.0662e-07
-1.58548e-09
-2.70044e-15
1.75383e-08
2.24007e-07
2.84749e-06
3.93245e-05
0.000479811
0.00500281
0.0432618
0.308053
1.81356
8.92255
37.1939
133.297
416.327
1145.96
2800.64
6092.52
11786.3
20585.3
33310.9
50268.8
72004.6
99495.6
134408
179279
237633
314245
415433
549543
727584
964124
1.27847e+06
1.69628e+06
2.25167e+06
2.99012e+06
3.97229e+06
5.27929e+06
7.0197e+06
9.33924e+06
1.24331e+07
1.64453e+07
2.19548e+07
2.93197e+07
3.91356e+07
4.51991e+08
3.2852e+07
2.33594e+07
1.63814e+07
1.13142e+07
7.68434e+06
5.12405e+06
3.35075e+06
2.15006e+06
1.3621e+06
870977
501403
90567.7
4693.77
107.111
1.43112
0.0153623
0.000210482
5.6598e-06
3.60465e-07
4.85539e-08
1.13077e-08
3.74923e-09
1.54028e-09
6.39688e-10
2.76302e-10
1.09991e-10
5.58745e-11
2.02102e-11
9.10038e-12
3.99793e-12
1.82385e-12
7.76936e-13
3.39674e-13
1.22039e-13
4.93831e-14
2.0426e-14
-4.36781e-12
7.41209e-13
0
0
-8.10449e-17
2.81274e-07
2.85907e-07
0
-2.92765e-07
-5.83769e-11
-1.3941e-15
0
-2.97953e-07
0
0
0
-6.40243e-18
-3.84211e-17
-2.95148e-16
3.77778e-09
2.06788e-08
3.94207e-07
2.99365e-06
4.30283e-05
0.000527862
0.00550943
0.0478021
0.341806
2.02121
9.98881
41.83
150.603
472.445
1305.23
3196.37
6943.5
13341.8
23082.1
37019
55335.3
78551.7
107671
144483
191675
252975
333379
439481
579972
766321
1.01372e+06
1.34233e+06
1.77899e+06
2.35952e+06
3.1318e+06
4.16001e+06
5.53043e+06
7.35957e+06
9.80539e+06
1.30603e+07
1.73442e+07
2.3301e+07
3.13811e+07
5.17766e+07
4.28667e+08
3.04689e+07
2.16695e+07
1.52029e+07
1.05049e+07
7.13718e+06
4.76049e+06
3.11429e+06
2.00073e+06
1.27228e+06
822308
424696
64466.6
2890.07
60.7227
0.776042
0.00846734
0.000126107
3.83638e-06
2.75291e-07
4.04996e-08
1.00145e-08
3.49982e-09
1.41879e-09
5.81558e-10
2.72178e-10
1.13831e-10
5.08055e-11
2.3124e-11
9.36787e-12
3.96165e-12
1.80917e-12
6.68873e-13
1.09944e-12
1.09591e-13
5.29799e-12
-5.16873e-12
5.97476e-15
1.06217e-15
0
3.01077e-12
0
-5.60845e-12
0
-2.85736e-07
6.77196e-16
0
0
-1.15082e-10
-2.29922e-10
0
-1.08619e-14
-3.10728e-18
9.08239e-10
-3.71096e-17
1.81359e-09
8.32783e-14
1.98676e-08
1.25096e-07
3.30913e-06
4.70033e-05
0.000577928
0.00605925
0.0528282
0.379623
2.25616
11.2068
47.1711
170.69
537.999
1492.09
3660.36
7930.34
15100.2
25827.2
40999.4
60656.3
85282.8
115941
154544
203913
267942
351789
462244
608218
801460
1.0575e+06
1.39692e+06
1.84706e+06
2.44432e+06
3.23721e+06
4.29048e+06
5.69075e+06
7.55412e+06
1.00365e+07
1.33207e+07
1.76108e+07
2.35255e+07
3.14371e+07
1.35885e+08
3.5671e+08
2.91979e+07
2.07231e+07
1.45147e+07
1.00157e+07
6.79733e+06
4.53015e+06
2.96265e+06
1.90476e+06
1.21533e+06
792526
369683
47201.8
1881.67
36.8007
0.45445
0.00506484
8.16333e-05
2.77174e-06
2.19713e-07
3.48023e-08
9.48241e-09
3.06549e-09
1.29961e-09
5.71124e-10
2.43644e-10
1.12149e-10
4.79037e-11
2.50485e-11
8.4877e-12
3.53447e-12
1.40517e-12
7.12749e-13
2.87629e-13
1.21181e-13
4.62335e-14
1.74741e-14
5.98507e-15
-5.02312e-12
0
0
-2.73826e-12
0
0
0
-2.83428e-07
-2.84376e-07
0
-2.84267e-07
-5.3256e-15
0
0
-2.09704e-14
8.77906e-10
-1.42315e-09
-1.42055e-09
-3.49315e-09
1.90532e-08
4.22202e-07
3.62869e-06
5.1195e-05
0.000632314
0.00666492
0.0584163
0.422014
2.52162
12.5938
53.3004
193.919
614.33
1710.65
4202.33
9065.8
17056.3
28779.8
45173
66112.3
92057.4
124159
164440
215846
282387
369337
483600
634213
833054
1.09578e+06
1.44311e+06
1.90243e+06
2.51011e+06
3.31442e+06
4.37951e+06
5.79078e+06
7.66208e+06
1.01454e+07
1.34155e+07
1.76676e+07
2.34999e+07
3.12644e+07
2.06562e+08
2.88971e+08
2.84797e+07
2.01744e+07
1.41081e+07
9.72274e+06
6.59193e+06
4.39039e+06
2.87087e+06
1.84743e+06
1.18261e+06
776634
314428
35834.5
1296.63
23.8481
0.286337
0.00326759
5.66402e-05
2.1173e-06
1.82463e-07
3.13613e-08
8.58429e-09
2.82514e-09
1.18281e-09
5.13291e-10
2.39555e-10
1.02786e-10
4.34249e-11
1.94823e-11
8.38843e-12
3.49821e-12
7.14328e-13
1.43307e-12
2.61988e-13
-5.11375e-12
8.05567e-13
1.74582e-14
5.62887e-15
9.79937e-16
-6.89196e-22
-2.66242e-07
0
0
2.76036e-07
0
-5.00124e-11
-5.52005e-11
-1.10232e-10
0
1.77716e-10
2.74035e-07
1.0226e-14
-2.91233e-18
-8.67219e-18
-4.02259e-17
-2.65012e-07
6.07612e-09
2.43141e-08
3.04494e-07
3.99594e-06
5.55124e-05
0.000691041
0.00732524
0.0645542
0.468946
2.81793
14.1553
60.2631
220.543
702.537
1964.57
4830.32
10354
19175.6
31848.8
49399.4
71524.2
98687.4
132147
174020
227361
296258
386064
503749
658413
861987
1.13016e+06
1.48361e+06
1.94966e+06
2.56441e+06
3.37569e+06
4.44685e+06
5.86202e+06
7.73303e+06
1.02083e+07
1.34547e+07
1.76688e+07
2.34387e+07
3.11026e+07
2.64209e+08
2.3371e+08
2.78399e+07
1.97276e+07
1.37982e+07
9.51068e+06
6.44943e+06
4.29674e+06
2.81126e+06
1.81149e+06
1.16346e+06
767645
272121
28141.9
940.531
16.4283
0.193179
0.0022571
4.17943e-05
1.69684e-06
1.58516e-07
2.86564e-08
8.0546e-09
2.94639e-09
1.15919e-09
5.50223e-10
2.35265e-10
1.01823e-10
4.35153e-11
1.92109e-11
8.28327e-12
3.45934e-12
1.37984e-12
6.0648e-13
5.43723e-12
1.08197e-13
4.30164e-14
1.743e-14
5.27045e-15
8.93104e-16
-2.61052e-07
-2.6513e-07
0
-1.14301e-20
1.6029e-16
-1.10188e-11
-6.44203e-16
-4.40513e-11
1.07854e-10
2.7086e-07
0
0
0
-2.60653e-07
-8.17078e-10
-1.62034e-09
-2.55869e-07
2.55835e-07
2.58241e-08
3.30752e-07
4.35582e-06
6.04094e-05
0.000753412
0.00802921
0.0711529
0.519851
3.14239
15.8823
68.0449
250.617
803.14
2255.87
5547.24
11779
21367.7
34856.4
53448.6
76611.4
104883
139621
183025
238232
309381
401876
522723
681056
888816
1.16168e+06
1.52024e+06
1.99168e+06
2.6118e+06
3.42794e+06
4.5027e+06
5.91895e+06
7.78609e+06
1.02502e+07
1.34743e+07
1.76552e+07
2.33647e+07
3.09277e+07
3.12384e+08
1.87568e+08
2.72272e+07
1.93178e+07
1.35274e+07
9.33411e+06
6.3364e+06
4.22634e+06
2.76919e+06
1.78811e+06
1.15251e+06
761374
248196
22833.2
715.526
11.9781
0.138726
0.00165951
3.25579e-05
1.41865e-06
1.41154e-07
2.66591e-08
7.87036e-09
2.70508e-09
1.04561e-09
4.93995e-10
2.19366e-10
9.50628e-11
4.07138e-11
1.81825e-11
8.17267e-12
3.41849e-12
1.45935e-12
6.01172e-13
2.34933e-13
-5.0421e-12
3.99352e-14
-5.07834e-12
5.26965e-15
-5.00925e-12
-6.87233e-22
0
0
0
-2.69464e-07
4.55176e-20
-2.16827e-11
0
-1.05472e-10
0
-2.6158e-07
0
0
-2.52384e-07
6.39974e-10
-1.26577e-09
2.46275e-07
-3.96988e-15
2.21225e-08
3.41898e-07
4.59826e-06
6.50816e-05
0.00081731
0.00875661
0.078037
0.573493
3.48799
17.7432
76.5323
283.825
915.47
2583.03
6344.52
13285.5
23446.5
37492.5
56921.4
80943
110201
146126
191002
248001
321303
416333
540122
701809
913326
1.19029e+06
1.55322e+06
2.02904e+06
2.65326e+06
3.47265e+06
4.54874e+06
5.9625e+06
7.82256e+06
1.02745e+07
1.34741e+07
1.76151e+07
2.32593e+07
3.07199e+07
3.50771e+08
1.51241e+08
2.66175e+07
1.89214e+07
1.3274e+07
9.17581e+06
6.24039e+06
4.17034e+06
2.73843e+06
1.77303e+06
1.14718e+06
757045
229329
19195.7
570.788
9.227
0.105677
0.00129185
2.6635e-05
1.23126e-06
1.27884e-07
2.46726e-08
7.33887e-09
2.80948e-09
1.15642e-09
4.82572e-10
2.1493e-10
9.39992e-11
4.20726e-11
1.863e-11
7.32599e-12
3.37552e-12
1.35082e-12
5.95518e-13
2.0989e-13
-6.49342e-13
3.97623e-14
7.6108e-13
4.90696e-15
7.36749e-13
0
1.93131e-17
7.77935e-17
0
-1.56427e-16
0
8.93169e-20
0
0
-1.01922e-10
2.54325e-07
-3.22466e-10
0
-2.6187e-18
-1.03141e-17
-2.35465e-07
-1.19872e-09
-2.91883e-09
2.86357e-08
3.71552e-07
5.08057e-06
6.97126e-05
0.000879897
0.00947743
0.0849264
0.627771
3.84187
19.6733
85.4568
319.233
1036.7
2937.65
7191.62
14747.9
25076.1
39278.1
59245.3
83899.2
113980
150974
197210
255875
331166
428512
554947
719603
934372
1.21479e+06
1.58122e+06
2.06032e+06
2.68703e+06
3.50715e+06
4.58141e+06
5.99054e+06
7.84155e+06
1.0274e+07
1.34376e+07
1.75266e+07
2.30901e+07
3.04328e+07
3.80225e+08
1.2304e+08
2.60119e+07
1.8534e+07
1.30324e+07
9.0298e+06
6.1557e+06
4.12402e+06
2.71539e+06
1.76371e+06
1.14576e+06
755099
215168
16724.7
476.762
7.49177
0.0850924
0.00105989
2.27707e-05
1.10553e-06
1.2059e-07
2.43425e-08
7.46044e-09
2.662e-09
1.0807e-09
4.72122e-10
1.99373e-10
9.14369e-11
3.84903e-11
1.75363e-11
7.21679e-12
3.14917e-12
6.3577e-12
5.43667e-13
2.31209e-13
1.00454e-13
3.95694e-14
1.2977e-14
4.9011e-15
8.96384e-16
4.77374e-18
2.76068e-21
-7.72513e-17
0
2.6289e-07
2.34874e-11
0
-5.09614e-11
0
0
-6.66339e-19
2.42464e-07
1.28464e-18
-7.39006e-10
-9.89665e-18
-5.35052e-17
3.29422e-14
-4.35297e-15
2.76463e-08
3.85016e-07
5.18281e-06
7.40217e-05
0.000937658
0.0101502
0.0914248
0.679555
4.18375
21.5638
94.3283
354.962
1160.52
3299.66
8019.98
15925.2
25712.1
39501.1
59651.7
84663.7
115333
153193
200569
260646
337608
436879
565478
732508
949802
1.23276e+06
1.60145e+06
2.08209e+06
2.70911e+06
3.52793e+06
4.59863e+06
5.99958e+06
7.83313e+06
1.02354e+07
1.33495e+07
1.73608e+07
2.27963e+07
2.99339e+07
4.08995e+08
9.88872e+07
2.54047e+07
1.81518e+07
1.27988e+07
8.89232e+06
6.07899e+06
4.0845e+06
2.69779e+06
1.7584e+06
1.14697e+06
753575
205264
15089.5
416.149
6.39453
0.0721773
0.000912695
2.02532e-05
1.02006e-06
1.13252e-07
2.3541e-08
6.93117e-09
2.66053e-09
1.13553e-09
4.7004e-10
2.05576e-10
9.4984e-11
4.17644e-11
1.66031e-11
7.49529e-12
3.10529e-12
1.31884e-12
5.37949e-13
2.29178e-13
9.40231e-14
3.93579e-14
1.43634e-14
4.89286e-15
8.72036e-16
3.63865e-13
2.60686e-07
2.61057e-07
0
0
0
-2.52594e-11
9.05012e-11
1.67684e-19
0
0
2.34555e-07
2.29427e-07
-2.42237e-18
-5.65279e-10
1.10754e-09
2.1346e-07
-4.503e-15
2.82258e-08
4.08878e-07
5.47577e-06
7.76789e-05
0.000986625
0.0107246
0.097029
0.724712
4.48559
23.2558
102.387
387.893
1275.69
3631.41
8701.61
16403.5
24568.4
37268.8
57222.4
82238.3
113158
151518
199616
260608
338646
439128
569037
737411
955977
1.23998e+06
1.60928e+06
2.08991e+06
2.71616e+06
3.53255e+06
4.59694e+06
5.98584e+06
7.79973e+06
1.0171e+07
1.32371e+07
1.71795e+07
2.25106e+07
2.94991e+07
4.25735e+08
8.35338e+07
2.48103e+07
1.77792e+07
1.25727e+07
8.76097e+06
6.00714e+06
4.04872e+06
2.68286e+06
1.75477e+06
1.14883e+06
754759
198979
14067.5
378.485
5.71823
0.0642436
0.000821543
1.86653e-05
9.6609e-07
1.10668e-07
2.27802e-08
7.02199e-09
2.58231e-09
1.10371e-09
4.69313e-10
2.06476e-10
8.99711e-11
4.09328e-11
1.82977e-11
7.68622e-12
3.23667e-12
1.3511e-12
5.4714e-12
2.27045e-13
9.33178e-14
3.91333e-14
5.02375e-12
4.8827e-15
-7.33043e-13
0
-2.59572e-07
0
0
0
0
-2.47965e-11
0
0
-7.64861e-11
4.36738e-15
-2.26644e-07
-2.84534e-10
2.15788e-07
-6.64149e-10
-6.18998e-17
2.29913e-09
-4.60303e-15
2.90122e-08
4.18219e-07
5.68708e-06
8.01696e-05
0.0010224
0.0111464
0.101181
0.758487
4.71378
24.5503
108.63
413.664
1365.44
3873.25
9026.45
15740.1
23923.1
31632.7
51026.9
75590.1
106223
144438
192488
253473
331493
431893
561593
729562
947436
1.23035e+06
1.59804e+06
2.07616e+06
2.69798e+06
3.50716e+06
4.56075e+06
5.93344e+06
7.72324e+06
1.00589e+07
1.30725e+07
1.69407e+07
2.21591e+07
2.89829e+07
4.37228e+08
7.40254e+07
2.42175e+07
1.74064e+07
1.23449e+07
8.62685e+06
5.93205e+06
4.00969e+06
2.66491e+06
1.74837e+06
1.14799e+06
754597
195585
13507.8
357.345
5.33592
0.0597499
0.000769662
1.77552e-05
9.34525e-07
1.08421e-07
2.28868e-08
6.78952e-09
2.65431e-09
1.07169e-09
4.85675e-10
2.00284e-10
9.36784e-11
4.1548e-11
1.80919e-11
7.40117e-12
3.3618e-12
6.21771e-13
5.4581e-13
-4.9897e-13
4.31831e-12
3.60673e-14
1.42473e-14
4.87105e-15
8.51536e-16
2.00053e-13
2.72552e-21
1.08559e-20
0
-1.48698e-16
0
-8.29937e-20
3.8874e-11
1.59552e-19
-7.43364e-11
3.22892e-10
-2.18734e-07
7.98902e-15
-2.22594e-18
-2.00104e-07
-5.88005e-17
-4.6625e-16
4.2454e-09
3.32202e-08
4.22925e-07
5.63564e-06
8.13016e-05
0.00104056
0.0113625
0.103324
0.776065
4.83359
25.236
111.958
427.3
1409.72
3948.87
8839.86
16400.8
24916.8
32606.8
40472.9
63989.7
93504.6
130531
177269
236738
312954
411160
538166
702801
916518
1.19419e+06
1.55517e+06
2.02461e+06
2.63533e+06
3.4301e+06
4.46483e+06
5.81259e+06
7.56905e+06
9.85961e+06
1.28118e+07
1.65974e+07
2.16948e+07
2.83455e+07
4.43214e+08
6.96958e+07
2.36173e+07
1.70146e+07
1.20924e+07
8.46696e+06
5.833e+06
3.94996e+06
2.63e+06
1.72853e+06
1.13659e+06
747969
193801
13288.2
348.573
5.17326
0.0578239
0.000747388
1.73644e-05
9.21477e-07
1.07921e-07
2.28414e-08
6.99614e-09
2.71502e-09
1.07692e-09
4.82751e-10
2.10567e-10
9.37433e-11
4.20876e-11
1.7737e-11
7.57367e-12
3.21452e-12
1.4017e-12
-1.46718e-13
2.3369e-13
9.74205e-14
3.58402e-14
1.41835e-14
4.85838e-15
8.95186e-16
4.75257e-18
0
-5.77251e-12
1.14635e-11
-2.13455e-20
0
1.97979e-11
2.41505e-07
2.22292e-15
-7.43355e-11
0
5.90479e-19
2.12405e-07
-6.52594e-10
-8.64293e-18
1.00186e-09
-1.19906e-09
5.09618e-14
3.13563e-08
5.11436e-07
5.63543e-06
8.14754e-05
0.00104054
0.0113631
0.103328
0.776097
4.83377
25.2368
111.961
427.31
1409.74
3948.88
8839.95
16400.9
24916.9
32606.7
40469.7
63986.3
93501
130528
177265
236734
312949
411156
538162
702798
916515
1.19419e+06
1.55517e+06
2.02462e+06
2.63534e+06
3.43012e+06
4.46485e+06
5.81263e+06
7.5691e+06
9.85969e+06
1.28119e+07
1.65975e+07
2.1695e+07
2.83458e+07
4.43231e+08
6.96771e+07
2.36173e+07
1.70145e+07
1.20924e+07
8.46695e+06
5.83299e+06
3.94995e+06
2.62999e+06
1.72852e+06
1.13659e+06
747965
193792
13287.1
348.538
5.1727
0.0578177
0.000747316
1.73661e-05
9.23081e-07
1.07923e-07
2.25898e-08
7.12532e-09
2.63352e-09
1.07694e-09
4.74e-10
2.00571e-10
9.09234e-11
4.06488e-11
1.83342e-11
7.42202e-12
3.21459e-12
6.51459e-13
1.27383e-12
2.27572e-13
9.49122e-14
3.58393e-14
4.98125e-12
4.85838e-15
8.50897e-16
2.59193e-07
0
5.81381e-12
0
2.56311e-07
0
2.50627e-07
1.1604e-15
0
0
2.32563e-07
2.26637e-07
-2.84524e-10
2.15779e-07
-6.6412e-10
-5.74756e-17
2.29898e-09
4.50732e-09
3.0997e-08
5.13025e-07
5.59339e-06
8.02719e-05
0.0010227
0.0111482
0.101195
0.758583
4.7143
24.5526
108.638
413.692
1365.51
3873.37
9026.24
15740.3
23923.2
31628.6
51022.3
75584.9
106218
144432
192482
253466
331487
431886
561587
729558
947435
1.23036e+06
1.59805e+06
2.07619e+06
2.69802e+06
3.50722e+06
4.56084e+06
5.93358e+06
7.72343e+06
1.00592e+07
1.30728e+07
1.69412e+07
2.21598e+07
2.89838e+07
4.37281e+08
7.39686e+07
2.42173e+07
1.74063e+07
1.23448e+07
8.62678e+06
5.93201e+06
4.00965e+06
2.66489e+06
1.74836e+06
1.14798e+06
754580
195557
13504.4
357.239
5.33419
0.0597306
0.000769443
1.77505e-05
9.34569e-07
1.08429e-07
2.28878e-08
7.08708e-09
2.50191e-09
1.11486e-09
4.65657e-10
2.05936e-10
9.36798e-11
4.0353e-11
1.80926e-11
7.55545e-12
3.18774e-12
1.37267e-12
1.26858e-12
2.36055e-13
9.82202e-14
-6.95289e-13
1.42473e-14
4.87118e-15
8.71422e-16
1.63233e-13
2.60682e-07
1.10116e-20
0
0
-1.27528e-11
0
-4.06e-11
0
7.86318e-11
4.50386e-15
6.3318e-19
2.29714e-07
5.77833e-10
2.20138e-07
-5.5711e-17
3.12968e-14
2.12432e-07
3.03345e-08
4.08852e-07
5.37549e-06
7.78079e-05
0.00098715
0.0107284
0.0970604
0.724923
4.48675
23.2612
102.408
387.964
1275.89
3631.88
8702.29
16403.1
24566.5
37268.3
57222.1
82238.2
113158
151520
199619
260612
338652
439137
569049
737428
955999
1.24001e+06
1.60932e+06
2.08997e+06
2.71625e+06
3.53268e+06
4.59712e+06
5.98609e+06
7.80007e+06
1.01715e+07
1.32377e+07
1.71803e+07
2.25117e+07
2.95006e+07
4.25825e+08
8.34383e+07
2.481e+07
1.77789e+07
1.25725e+07
8.76082e+06
6.00703e+06
4.04864e+06
2.6828e+06
1.75474e+06
1.1488e+06
754728
198931
14061.6
378.295
5.71507
0.0642079
0.000821137
1.86593e-05
9.66143e-07
1.10674e-07
2.31126e-08
7.02227e-09
2.65345e-09
1.10373e-09
4.78538e-10
2.00701e-10
8.99725e-11
4.09334e-11
1.844e-11
7.30114e-12
3.0601e-12
1.39115e-12
5.52161e-13
2.49658e-13
9.89978e-14
3.78575e-14
5.02376e-12
5.23842e-15
-7.33043e-13
-2.0091e-13
-2.76067e-21
0
0
-2.21776e-20
1.05368e-11
2.60044e-07
-5.09605e-11
0
-8.07788e-11
-4.64172e-15
-2.42457e-07
0
-1.75606e-14
1.31554e-09
-5.35028e-17
2.54765e-09
2.7743e-09
3.48585e-08
4.97887e-07
5.18247e-06
7.39401e-05
0.000938312
0.0101549
0.0914642
0.67982
4.18521
21.5704
94.354
355.047
1160.76
3300.24
8020.96
15925.8
25711.8
39502.4
59653.3
84665.7
115336
153197
200575
260654
337619
436894
565500
732540
949845
1.23281e+06
1.60153e+06
2.08219e+06
2.70924e+06
3.52811e+06
4.59888e+06
5.99992e+06
7.8336e+06
1.02361e+07
1.33503e+07
1.73619e+07
2.27978e+07
2.99359e+07
4.09128e+08
9.87475e+07
2.54042e+07
1.81514e+07
1.27985e+07
8.8921e+06
6.07882e+06
4.08438e+06
2.6977e+06
1.75834e+06
1.14693e+06
753534
205196
15080.6
415.854
6.38956
0.0721208
0.000912056
2.02398e-05
1.02148e-06
1.13258e-07
2.32677e-08
6.93134e-09
2.66059e-09
1.05249e-09
4.81651e-10
2.10394e-10
9.49872e-11
4.17659e-11
1.80064e-11
7.10415e-12
7.38411e-12
1.36864e-12
5.37953e-13
2.2918e-13
9.40235e-14
5.07382e-12
1.50052e-14
4.89275e-15
8.52116e-16
-2.60308e-07
0
-1.11672e-20
0
0
-2.65782e-07
4.7492e-11
-1.77431e-19
-8.3878e-11
2.4216e-15
6.86009e-19
6.7587e-19
-3.9009e-10
-2.43268e-07
-7.5595e-10
-1.21303e-09
-4.1706e-16
-7.35287e-14
2.62764e-08
3.76218e-07
4.96246e-06
6.97642e-05
0.000880411
0.00948304
0.0849727
0.628079
3.84355
19.681
85.4862
319.33
1036.97
2938.29
7192.81
14749.2
25077.1
39280.8
59248.4
83902.9
113985
150980
197218
255887
331182
428533
554977
719643
934427
1.21487e+06
1.58132e+06
2.06045e+06
2.68721e+06
3.50738e+06
4.58172e+06
5.99096e+06
7.84211e+06
1.02747e+07
1.34386e+07
1.75279e+07
2.30919e+07
3.04351e+07
3.80402e+08
1.2285e+08
2.60112e+07
1.85335e+07
1.3032e+07
9.02946e+06
6.15545e+06
4.12382e+06
2.71525e+06
1.76362e+06
1.1457e+06
755030
215077
16711.9
476.322
7.48415
0.0850051
0.00105891
2.27535e-05
1.10561e-06
1.20599e-07
2.39909e-08
7.31909e-09
2.64503e-09
1.08072e-09
4.72131e-10
2.10333e-10
9.52062e-11
4.20223e-11
1.75365e-11
8.3418e-12
3.23068e-12
1.33521e-12
-4.48213e-12
2.31211e-13
9.46931e-14
3.95695e-14
1.44141e-14
5.03608e-12
8.96414e-16
2.6068e-07
0
-3.29687e-12
0
-1.33297e-11
0
9.08953e-20
-1.81047e-19
0
2.48423e-15
0
0
0
-2.51578e-07
-6.39948e-10
-5.30588e-17
1.54162e-09
-2.44919e-07
2.21213e-08
3.46827e-07
4.73365e-06
6.51311e-05
0.000817766
0.00876302
0.0780887
0.573835
3.48985
17.7516
76.5644
283.93
915.763
2583.73
6345.88
13287.3
23448.5
37496.2
56925.8
80948.3
110207
146135
191013
248015
321323
416361
540159
701859
913393
1.19038e+06
1.55334e+06
2.0292e+06
2.65347e+06
3.47292e+06
4.5491e+06
5.96299e+06
7.82322e+06
1.02753e+07
1.34753e+07
1.76167e+07
2.32614e+07
3.07226e+07
3.51001e+08
1.50999e+08
2.66164e+07
1.89205e+07
1.32734e+07
9.17533e+06
6.24004e+06
4.17009e+06
2.73825e+06
1.77291e+06
1.1471e+06
756981
229215
19177.7
570.134
9.2153
0.105541
0.00129035
2.6611e-05
1.23136e-06
1.2717e-07
2.46739e-08
7.52346e-09
2.90342e-09
1.10803e-09
4.83276e-10
2.14934e-10
9.3287e-11
3.9204e-11
1.64479e-11
2.63048e-12
3.29302e-12
1.35086e-12
6.4193e-13
2.56372e-13
1.01126e-13
3.97625e-14
1.44572e-14
4.90697e-15
8.95843e-16
-4.79423e-18
2.65132e-07
-2.68438e-07
-1.143e-20
-1.60289e-16
0
-2.20597e-11
0
-2.72616e-07
-2.54644e-15
0
0
0
0
-8.36023e-18
-4.42108e-17
1.60987e-09
-3.76237e-15
2.58229e-08
3.24932e-07
4.22926e-06
6.04689e-05
0.00075417
0.00803615
0.0712088
0.520219
3.14438
15.8913
68.0788
250.727
803.449
2256.61
5548.72
11781.2
21370.6
34861.1
53454.5
76618.5
104891
139632
183040
238251
309407
401911
522770
681119
888900
1.16179e+06
1.52039e+06
1.99187e+06
2.61205e+06
3.42826e+06
4.50312e+06
5.9195e+06
7.78681e+06
1.02512e+07
1.34756e+07
1.76569e+07
2.33669e+07
3.09306e+07
3.12679e+08
1.87252e+08
2.72253e+07
1.93163e+07
1.35264e+07
9.33335e+06
6.33587e+06
4.22597e+06
2.76893e+06
1.78793e+06
1.1524e+06
761290
248056
22807.7
714.543
11.9598
0.13851
0.00165715
3.25199e-05
1.4173e-06
1.40422e-07
2.62871e-08
7.52764e-09
2.80137e-09
1.13426e-09
4.68486e-10
2.14254e-10
9.76587e-11
4.28092e-11
1.89273e-11
8.17276e-12
3.41859e-12
1.4594e-12
1.35881e-12
2.5839e-13
9.85165e-14
7.93219e-13
1.73912e-14
5.26965e-15
8.94779e-16
-1.64407e-13
0
0
0
-1.6222e-16
0
2.24363e-11
0
1.30953e-15
-3.74571e-19
-2.76135e-07
7.39759e-19
2.71875e-07
2.69693e-07
-2.6854e-07
-1.37078e-09
-3.60557e-16
-3.53075e-15
2.4313e-08
3.04478e-07
3.99572e-06
5.58486e-05
0.000691839
0.00733256
0.0646129
0.469331
2.82001
14.1646
60.2984
220.658
702.857
1965.34
4831.9
10356.5
19179.2
31854.5
49406.7
71533.3
98698.7
132161
174039
227386
296292
386110
503809
658493
862091
1.1303e+06
1.48379e+06
1.94989e+06
2.5647e+06
3.37606e+06
4.44733e+06
5.86263e+06
7.73382e+06
1.02093e+07
1.3456e+07
1.76706e+07
2.34411e+07
3.11057e+07
2.64579e+08
2.3325e+08
2.78369e+07
1.97255e+07
1.37967e+07
9.50965e+06
6.44873e+06
4.29625e+06
2.81094e+06
1.81128e+06
1.16333e+06
767563
271957
28106
939.024
16.3987
0.192821
0.00225325
4.17371e-05
1.69424e-06
1.58532e-07
2.82745e-08
8.05504e-09
2.94582e-09
1.25053e-09
5.50234e-10
2.36007e-10
1.02659e-10
4.35169e-11
1.92117e-11
3.10913e-12
3.4595e-12
1.37988e-12
6.06499e-13
2.3661e-13
1.08201e-13
4.00846e-14
1.59751e-14
5.27046e-15
9.33087e-16
-3.66995e-13
0
5.73938e-21
-2.76126e-07
1.64152e-16
3.31149e-16
2.83397e-07
0
-1.92037e-19
-2.67182e-15
2.24169e-10
0
0
-3.00978e-18
7.14286e-10
-4.17605e-17
-3.39419e-16
-3.32402e-15
2.25541e-08
4.25698e-07
3.65411e-06
5.12763e-05
0.000633009
0.0066726
0.0584765
0.422408
2.52374
12.6033
53.3363
194.035
614.655
1711.44
4203.98
9068.61
17060.5
28786.4
45181.7
66123.5
92071.7
124177
164465
215879
282432
369398
483682
634323
833201
1.09598e+06
1.44336e+06
1.90276e+06
2.51054e+06
3.31496e+06
4.3802e+06
5.79164e+06
7.66314e+06
1.01467e+07
1.3417e+07
1.76694e+07
2.35018e+07
3.12662e+07
2.06971e+08
2.88586e+08
2.84771e+07
2.0172e+07
1.4106e+07
9.72104e+06
6.59068e+06
4.38952e+06
2.8703e+06
1.84706e+06
1.1824e+06
776523
314097
35783.8
1294.26
23.7987
0.285718
0.00326102
5.65486e-05
2.1134e-06
1.83908e-07
3.13637e-08
8.42378e-09