/*--------------------------------*- C++ -*----------------------------------*\
  =========                 |
  \\      /  F ield         | OpenFOAM: The Open Source CFD Toolbox
   \\    /   O peration     | Website:  https://openfoam.org
    \\  /    A nd           | Version:  8
     \\/     M anipulation  |
\*---------------------------------------------------------------------------*/
FoamFile
{
    version     2.0;
    format      ascii;
    class       volScalarField;
    location    "420/fluid";
    object      rDeltaT;
}
// * * * * * * * * * * * * * * * * * * * * * * * * * * * * * * * * * * * * * //

dimensions      [0 0 -1 0 0 0 0];

internalField   nonuniform List<scalar> 
4000
(
513.258
538.87
563.362
586.872
609.344
630.688
650.786
669.512
686.743
702.385
716.399
728.829
739.829
749.69
758.845
767.804
776.966
786.554
796.534
806.578
816.128
824.512
831.064
835.224
836.604
835.004
830.297
822.439
811.457
797.434
780.492
760.781
738.471
741.816
777.646
817.903
857.511
896.437
934.66
972.165
1008.94
1044.99
1080.29
1114.84
1148.63
1181.65
1213.88
1245.3
1275.88
1305.59
1334.4
1362.26
1389.12
1414.94
1439.67
1463.24
1485.61
1506.75
1526.39
1544.71
1561.99
1578.76
15003.8
2738.94
1543.48
1506.86
1464.81
1417.96
1366.84
1311.92
1253.69
1192.67
1129.49
1064.8
999.271
934.241
871.676
814.024
764.205
725.171
698.529
683.443
676.884
675.136
675.036
674.502
672.369
668.138
661.777
653.462
643.432
631.939
619.216
605.47
590.873
575.565
559.655
543.225
526.329
508.912
512.81
537.796
561.533
583.96
605.052
624.741
642.941
659.571
674.569
687.918
699.669
709.968
719.073
727.37
735.336
743.427
752.022
761.33
771.299
781.6
791.66
800.764
808.187
813.303
815.653
814.911
810.894
803.547
792.905
779.071
762.195
742.451
720.032
708.008
728.546
769.978
810.899
851.263
891.04
930.203
968.73
1006.61
1043.83
1080.38
1116.26
1151.44
1185.93
1219.69
1252.71
1284.96
1316.41
1347.03
1376.77
1405.6
1433.47
1460.34
1486.15
1510.83
1534.11
1556.49
1577.83
1598.37
17163
1587.86
1552.24
1511.61
1466.21
1416.33
1362.28
1304.38
1242.96
1178.43
1111.33
1042.17
971.736
901.749
834.795
774.159
723.375
685.224
660.542
647.565
642.776
642.491
643.848
645.033
645.08
643.477
640.009
634.681
627.596
618.902
608.763
597.339
584.779
571.209
556.738
541.448
525.389
508.593
512.148
535.667
557.768
578.421
597.57
615.158
631.136
645.47
658.161
669.261
678.895
687.275
694.713
701.608
708.408
715.545
723.404
732.19
741.86
752.088
762.306
771.801
779.839
785.757
789.015
789.205
786.097
779.603
769.739
756.598
740.322
721.083
699.071
674.489
680.716
721.363
763.144
804.583
845.63
886.248
926.415
966.113
1005.33
1044.05
1082.25
1119.94
1157.1
1193.7
1229.74
1265.2
1300.05
1334.28
1367.85
1400.76
1432.95
1464.39
1495
1524.63
1552.94
1580.1
1605.45
1628.17
17297.9
1612.31
1570.53
1523.93
1472.83
1417.49
1358.13
1295.01
1228.42
1158.79
1086.69
1012.71
937.967
864.667
795.807
734.97
685.62
649.922
627.822
616.964
613.741
614.668
617.126
619.459
620.821
620.807
619.213
615.975
611.114
604.695
596.809
587.553
577.026
565.319
552.514
538.682
523.882
508.131
511.494
533.698
554.411
573.594
591.207
607.213
621.589
634.332
645.471
655.081
663.302
670.352
676.537
682.25
687.943
694.077
701.039
709.04
718.036
727.695
737.446
746.571
754.325
760.036
763.165
763.328
760.289
753.94
744.272
731.354
715.303
696.271
674.434
649.977
645.772
675.874
718.349
760.7
802.881
844.854
886.587
928.057
969.243
1010.13
1050.7
1090.95
1130.85
1170.4
1209.57
1248.34
1286.7
1324.62
1362.06
1398.99
1435.35
1471.05
1505.95
1539.73
1572.06
1602.81
1630.89
1807.44
16497.8
1630.51
1582.65
1530.16
1473.32
1412.35
1347.52
1279.14
1207.58
1133.41
1057.34
980.127
903.283
829.31
761.305
702.637
656.263
623.726
604.377
595.553
593.706
595.605
598.886
602.053
604.295
605.219
604.66
602.572
598.971
593.901
587.423
579.599
570.492
560.161
548.663
536.049
522.366
507.637
510.792
531.562
550.789
568.439
584.479
598.883
611.643
622.775
632.327
640.397
647.143
652.803
657.697
662.229
666.857
672.037
678.145
685.381
693.693
702.749
711.979
720.665
728.061
733.49
736.404
736.409
733.258
726.834
717.118
704.166
688.081
669.006
647.102
622.541
610.519
632.851
675.936
719.123
762.356
805.592
848.797
891.941
935.002
977.96
1020.8
1063.49
1106.02
1148.38
1190.52
1232.43
1274.07
1315.4
1356.37
1396.9
1436.9
1476.24
1514.74
1551.98
1587.61
1621.49
1652.67
6561.81
12214.3
1637.12
1584.94
1527.9
1466.38
1400.73
1331.33
1258.61
1183.09
1105.48
1026.59
947.337
869.503
795.739
729.129
672.841
629.405
599.782
582.815
575.64
574.827
577.413
581.278
585.09
588.113
589.967
590.471
589.553
587.201
583.433
578.284
571.796
564.011
554.973
544.723
533.304
520.759
507.11
510.084
529.436
547.228
563.428
578.01
590.958
602.277
611.992
620.165
626.903
632.374
636.819
640.56
643.999
647.585
651.77
656.924
663.241
670.67
678.881
687.312
695.253
701.967
706.78
709.145
708.666
705.09
698.291
688.24
674.98
658.605
639.239
617.032
592.148
574.931
592.286
635.918
679.852
724.033
768.413
812.954
857.624
902.395
947.241
992.139
1037.06
1081.98
1126.87
1171.68
1216.38
1260.92
1305.22
1349.21
1392.79
1435.82
1478.13
1519.48
1559.36
1597.4
1633.45
1666.55
11239.6
7658.48
1632.58
1577.63
1517.3
1452.21
1382.92
1309.97
1233.96
1155.56
1075.6
994.963
914.73
836.935
764.279
699.782
646.375
606.162
579.58
565.05
559.567
559.818
563.066
567.401
571.642
575.14
577.557
578.728
578.583
577.098
574.279
570.143
564.714
558.018
550.083
540.939
530.619
519.157
506.577
509.364
527.278
543.626
558.382
571.522
583.04
592.946
601.274
608.094
613.522
617.732
620.971
623.564
625.911
628.458
631.65
635.846
641.237
647.763
655.095
662.672
669.791
675.717
679.783
681.446
680.308
676.116
668.738
658.139
644.356
627.474
607.611
584.904
559.502
538.991
553.408
597.52
642.115
687.137
732.534
778.264
824.292
870.582
917.104
963.825
1010.71
1057.72
1104.81
1151.94
1199.03
1246.02
1292.82
1339.32
1385.37
1430.81
1475.41
1518.86
1560.57
1600.21
1637.54
1671.43
15264.8
3492
1620.31
1563.44
1500.6
1432.76
1360.7
1285.15
1206.82
1126.5
1045.15
963.647
883.251
806.148
735.045
672.866
622.299
585.061
561.149
548.676
544.58
545.698
549.507
554.273
558.936
562.909
565.88
567.693
568.273
567.589
565.636
562.421
557.955
552.256
545.344
537.239
527.969
517.562
506.044
508.643
525.12
540.039
553.373
565.105
575.234
583.776
590.771
596.295
600.467
603.466
605.54
607.014
608.281
609.784
611.959
615.156
619.559
625.105
631.465
638.081
644.258
649.266
652.444
653.252
651.296
646.324
638.202
626.891
612.422
594.872
574.35
550.988
524.925
502.647
515.741
560.248
605.402
651.14
697.41
744.165
791.363
838.964
886.928
935.215
983.781
1032.57
1081.54
1130.61
1179.71
1228.73
1277.58
1326.1
1374.14
1421.46
1467.8
1512.81
1555.77
1596.38
1634.24
1668.1
18303.6
1654.92
1603.04
1543.87
1478.79
1408.8
1334.78
1257.48
1177.71
1096.34
1014.37
932.7
852.751
776.809
707.571
647.856
600.126
565.747
544.342
533.785
530.988
532.928
537.269
542.431
547.46
551.829
555.258
557.602
558.788
558.785
557.579
555.17
551.562
546.766
540.794
533.661
525.387
515.999
505.519
507.92
522.96
536.45
548.37
558.706
567.461
574.654
580.332
584.574
587.504
589.301
590.215
590.568
590.753
591.203
592.347
594.528
597.92
602.455
607.802
613.405
618.572
622.584
624.784
624.637
621.754
615.883
606.892
594.739
579.453
561.108
539.807
515.675
488.845
465.879
478.781
523.594
569.199
615.528
662.526
710.139
758.322
807.026
856.206
905.81
955.785
1006.07
1056.59
1107.28
1158.02
1208.72
1259.24
1309.41
1359.04
1407.87
1455.58
1501.73
1545.44
1586.75
1624.29
1656.61
18071.8
1636.46
1581.61
1520.18
1453.24
1381.69
1306.36
1228.03
1147.53
1065.78
983.777
902.466
823.394
748.912
681.689
624.439
579.406
547.652
528.49
519.618
517.964
520.645
525.489
531.046
536.45
541.222
545.106
547.966
549.734
550.373
549.87
548.217
545.417
541.472
536.391
530.186
522.872
514.472
505.004
507.198
520.802
532.869
543.382
552.331
559.723
565.582
569.956
572.93
574.628
575.232
574.991
574.226
573.322
572.71
572.807
573.947
576.298
579.784
584.073
588.612
592.711
595.658
596.803
595.618
591.719
584.858
574.903
561.816
545.621
526.391
504.227
479.246
451.578
428.683
442.17
487.196
533.14
579.933
627.514
675.826
724.814
774.425
824.605
875.295
926.43
977.939
1029.74
1081.73
1133.82
1185.86
1237.7
1289.17
1340.03
1390.01
1438.76
1485.71
1530.13
1571.8
1609.22
2005.05
17205.5
1613.54
1556.41
1493.29
1425.04
1352.49
1276.41
1197.6
1116.89
1035.23
953.619
873.019
795.103
722.258
657.112
602.273
559.794
530.464
513.342
505.997
505.391
508.772
514.11
520.068
525.851
531.025
535.354
538.713
541.036
542.288
542.451
541.518
539.484
536.352
532.125
526.812
520.425
512.983
504.503
506.476
518.646
529.293
538.402
545.968
552.001
556.529
559.605
561.312
561.78
561.191
559.793
557.903
555.904
554.218
553.254
553.338
554.626
557.039
560.241
563.677
566.666
568.499
568.534
566.251
561.272
553.353
542.367
528.277
511.107
490.93
467.843
441.961
413.41
391.073
405.627
450.772
496.948
544.084
592.112
640.972
690.602
740.944
791.933
843.504
895.582
948.086
1000.92
1053.98
1107.14
1160.26
1213.17
1265.67
1317.52
1368.42
1418.02
1465.74
1510.88
1553.31
1591.75
5312.98
14380.5
1585.55
1527.5
1463.61
1394.78
1321.82
1245.52
1166.69
1086.2
1004.99
924.076
844.443
767.865
696.738
633.656
581.129
541.027
513.908
498.622
492.649
493
497.042
502.874
509.247
515.432
521.026
525.814
529.679
532.557
534.414
535.232
535
533.713
531.37
527.972
523.525
518.04
511.531
504.014
505.755
516.493
525.721
533.428
539.614
544.29
547.49
549.266
549.709
548.946
547.161
544.601
541.581
538.479
535.708
533.671
532.682
532.889
534.206
536.294
538.599
540.442
541.122
540.006
536.58
530.474
521.45
509.385
494.245
476.057
454.891
430.845
404.033
374.576
353.074
368.95
414.124
460.432
507.797
556.15
605.423
655.55
706.466
758.1
810.379
863.22
916.533
970.214
1024.15
1078.2
1132.21
1186.01
1239.39
1292.08
1343.81
1394.19
1442.64
1488.48
1531.62
1570.79
8134.75
11670.4
1554.32
1496.11
1432.09
1363.19
1290.27
1214.15
1135.67
1055.69
975.222
895.216
816.719
741.583
672.204
611.139
560.801
522.902
497.797
484.17
479.443
480.682
485.362
491.691
498.498
505.107
511.144
516.408
520.79
524.229
526.692
528.161
528.622
528.07
526.501
523.916
520.317
515.712
510.115
503.537
505.036
514.343
522.152
528.459
533.263
536.583
538.453
538.93
538.105
536.108
533.124
529.397
525.24
521.027
517.162
514.04
511.966
511.078
511.282
512.235
513.386
514.058
513.559
511.26
506.66
499.394
489.232
476.056
459.836
440.601
418.423
393.4
365.643
335.274
314.72
331.999
377.118
423.463
470.955
519.52
569.086
619.583
670.937
723.075
775.914
829.365
883.331
937.701
992.35
1047.14
1101.89
1156.44
1210.56
1263.98
1316.41
1367.47
1416.56
1463.01
1506.72
1546.41
10436.7
9461.83
1521.33
1463.28
1399.46
1330.82
1258.26
1182.62
1104.75
1025.54
946.001
867.059
789.809
716.173
648.536
589.414
541.132
505.262
481.985
469.857
466.265
468.331
473.633
480.468
487.732
494.792
501.297
507.06
511.977
515.99
519.068
521.191
522.346
522.524
521.723
519.939
517.174
513.434
508.73
503.07
504.316
512.193
518.586
523.491
526.915
528.877
529.416
528.592
526.496
523.262
519.074
514.175
508.876
503.544
498.578
494.362
491.192
489.196
488.273
488.078
488.057
487.539
485.839
482.338
476.541
468.093
456.772
442.467
425.149
404.853
381.653
355.645
326.943
295.666
276.051
294.682
339.666
385.962
433.488
482.166
531.92
582.673
634.349
686.868
740.141
794.075
848.565
903.493
958.728
1014.12
1069.5
1124.68
1179.43
1233.48
1286.52
1338.18
1387.83
1434.83
1479.05
1519.19
12365.8
7605.46
1487.25
1429.57
1366.17
1298.04
1226.08
1151.15
1074.09
995.816
917.34
839.576
763.655
691.543
625.619
568.354
521.995
487.985
466.368
455.594
453.04
455.888
461.801
469.153
476.898
484.435
491.436
497.722
503.194
507.799
511.505
514.29
516.142
517.052
517.015
516.026
514.086
511.199
507.372
502.614
503.598
510.045
515.02
518.524
520.566
521.17
520.376
518.248
514.88
510.406
505.009
498.935
492.488
486.032
479.958
474.641
470.367
467.254
465.195
463.838
462.633
460.913
457.998
453.28
446.273
436.631
424.139
408.694
390.271
368.91
344.686
317.698
288.059
255.888
237.108
256.941
301.718
347.888
395.364
444.066
493.913
544.826
596.722
649.516
703.117
757.425
812.33
867.708
923.424
979.323
1035.23
1090.94
1146.23
1200.83
1254.42
1306.61
1356.78
1404.29
1449.02
1489.63
13905.9
6142.28
1452.56
1395.37
1332.55
1265.1
1193.91
1119.84
1043.74
966.537
889.235
812.73
738.188
667.608
603.354
547.857
503.289
470.986
450.872
441.321
439.716
443.305
449.823
457.708
465.957
474
481.523
488.357
494.408
499.623
503.97
507.429
509.987
511.633
512.36
512.164
511.043
508.999
506.038
502.166
502.879
507.897
511.455
513.557
514.216
513.46
511.332
507.898
503.255
497.538
490.931
483.677
476.079
468.495
461.308
454.885
449.501
445.264
442.061
439.535
437.138
434.206
430.068
424.125
415.9
405.058
391.392
374.805
355.278
332.856
307.615
279.657
249.096
216.049
197.933
218.747
263.251
309.223
356.576
405.222
455.081
506.066
558.094
611.075
664.912
719.502
774.73
830.469
886.578
942.897
999.248
1055.42
1111.19
1166.28
1220.37
1273.07
1323.74
1371.75
1416.99
1458.12
15089.8
5004.22
1417.47
1360.88
1298.77
1232.13
1161.84
1088.76
1013.74
937.711
861.66
786.473
713.339
644.28
581.643
527.824
484.929
454.203
435.472
427.021
426.258
430.553
437.674
446.108
454.886
463.461
471.534
478.941
485.592
491.436
496.441
500.588
503.86
506.248
507.743
508.339
508.035
506.828
504.723
501.724
502.161
505.75
507.89
508.59
507.866
505.748
502.285
497.544
491.624
484.662
476.843
468.407
459.655
450.939
442.637
435.104
428.605
423.241
418.888
415.189
411.594
407.446
402.081
394.909
385.465
373.423
358.584
340.858
320.234
296.759
270.514
241.603
210.14
176.243
158.568
180.091
224.262
269.973
317.133
365.655
415.45
466.434
518.516
571.605
625.599
680.392
735.866
791.89
848.319
904.991
961.721
1018.3
1074.5
1130.04
1184.59
1237.77
1288.94
1337.49
1383.3
1425.07
16243.1
4028.49
1382.03
1326.17
1264.9
1199.19
1129.93
1057.95
984.112
909.326
834.587
760.755
689.043
621.48
560.395
508.149
466.799
437.522
420.097
412.709
412.693
417.652
425.368
434.357
443.68
452.809
461.453
469.454
476.727
483.218
488.898
493.745
497.743
500.881
503.149
504.541
505.051
504.678
503.423
501.288
501.443
503.603
504.325
503.622
501.514
498.035
493.235
487.186
479.989
471.78
462.747
453.128
443.221
433.372
423.952
415.307
407.692
401.197
395.692
390.816
386.021
380.655
374.062
365.663
355.002
341.763
325.758
306.902
285.192
260.679
233.448
203.603
171.262
136.542
119.055
140.981
184.763
230.155
277.062
325.394
375.061
425.975
478.043
531.17
585.252
640.181
695.834
752.078
808.767
865.735
922.797
979.744
1036.34
1092.29
1147.3
1200.95
1252.62
1301.7
1348.08
1390.46
16918.3
3406.43
1346.47
1291.41
1231.07
1166.39
1098.24
1027.45
954.862
881.385
807.999
735.552
665.262
599.162
539.559
488.78
448.836
420.849
404.599
398.265
398.997
404.601
412.901
422.448
432.327
442.026
451.261
459.878
467.791
474.949
481.32
486.882
491.619
495.517
498.566
500.757
502.084
502.543
502.134
500.857
500.724
501.455
500.76
498.653
495.161
490.32
484.184
476.826
468.35
458.896
448.648
437.845
426.782
415.8
405.262
395.504
386.771
379.144
372.486
366.433
360.438
353.855
346.036
336.413
324.541
310.114
292.951
272.978
250.197
224.663
196.466
165.712
132.52
100
100
101.437
144.779
189.797
236.394
284.478
333.957
384.739
436.73
489.832
543.939
598.941
654.713
711.12
768.015
825.229
882.577
939.846
996.797
1053.15
1108.58
1162.7
1214.87
1264.49
1311.45
1354.48
17381.6
3021.38
1310.82
1256.65
1197.32
1133.75
1066.8
997.263
925.99
853.869
781.872
710.83
641.961
577.291
519.104
469.692
431.023
404.179
388.933
383.545
385.089
391.34
400.225
410.338
420.791
431.08
440.928
450.182
458.758
466.603
473.684
479.979
485.468
490.139
493.977
496.975
499.123
500.416
500.851
500.428
500.006
499.308
497.195
493.685
488.809
482.605
475.132
466.466
456.712
446.011
434.548
422.562
410.344
398.228
386.572
375.701
365.85
357.092
349.281
342.051
334.858
327.061
318.021
307.18
294.105
278.499
260.192
239.117
215.283
188.749
159.609
127.973
100
100
100
100
104.342
148.935
195.169
242.95
292.184
342.776
394.631
447.649
501.722
556.738
612.573
669.089
726.137
783.55
841.14
898.695
955.974
1012.7
1068.54
1123.12
1175.79
1225.97
1273.54
1317.23
17622.9
2845.91
1275.06
1221.88
1163.66
1101.29
1035.6
967.39
897.48
826.756
756.174
686.553
619.103
555.831
498.998
450.865
413.365
387.549
373.148
368.498
370.855
377.771
387.261
397.967
409.021
419.929
430.418
440.338
449.601
458.156
465.969
473.015
479.274
484.731
489.372
493.185
496.16
498.291
499.572
500
500.006
499.308
497.193
493.683
488.806
482.602
475.129
466.462
456.707
446.005
434.542
422.556
410.336
398.22
386.563
375.692
365.841
357.081
349.27
342.04
334.846
327.047
318.007
307.166
294.09
278.484
260.176
239.101
215.266
188.732
159.592
127.956
100
100
100
100
104.332
148.926
195.161
242.943
292.177
342.77
394.625
447.643
501.718
556.734
612.569
669.086
726.135
783.548
841.138
898.694
955.973
1012.7
1068.54
1123.12
1175.79
1225.97
1273.54
1317.24
17623.6
2845.15
1275.06
1221.88
1163.66
1101.29
1035.6
967.392
897.483
826.759
756.178
686.558
619.107
555.836
499.003
450.87
413.37
387.554
373.154
368.503
370.86
377.776
387.266
397.972
409.025
419.933
430.422
440.341
449.604
458.159
465.972
473.017
479.276
484.733
489.373
493.186
496.161
498.292
499.573
500
500.724
501.454
500.757
498.65
495.156
490.314
484.176
476.818
468.34
458.884
448.635
437.831
426.767
415.783
405.244
395.485
386.751
379.122
372.463
366.409
360.412
353.828
346.008
336.383
324.51
310.081
292.918
272.944
250.162
224.628
196.43
165.676
132.484
100
100
101.42
144.764
189.783
236.381
284.467
333.947
384.73
436.723
489.825
543.934
598.937
654.71
711.118
768.014
825.229
882.577
939.847
996.798
1053.15
1108.58
1162.7
1214.87
1264.49
1311.46
1354.48
17383.7
3019.07
1310.82
1256.64
1197.32
1133.75
1066.8
997.266
925.994
853.874
781.877
710.836
641.968
577.299
519.112
469.701
431.032
404.189
388.944
383.556
385.099
391.35
400.234
410.347
420.799
431.088
440.935
450.189
458.764
466.608
473.689
479.983
485.472
490.142
493.98
496.977
499.125
500.418
500.852
500.428
501.442
503.601
504.322
503.618
501.509
498.029
493.228
487.177
479.978
471.769
462.734
453.113
443.205
433.355
423.934
415.288
407.671
401.175
395.668
390.791
385.995
380.627
374.032
365.632
354.969
341.729
325.722
306.865
285.154
260.64
233.408
203.563
171.221
136.501
119.028
140.971
184.755
230.148
277.057
325.39
375.059
425.974
478.044
531.172
585.255
640.185
695.839
752.084
808.774
865.742
922.805
979.752
1036.34
1092.3
1147.3
1200.96
1252.62
1301.7
1348.08
1390.46
16922
3402.55
1346.46
1291.41
1231.07
1166.39
1098.24
1027.45
954.861
881.385
808
735.554
665.265
599.166
539.564
488.787
448.844
420.858
404.609
398.276
399.008
404.611
412.911
422.457
432.336
442.034
451.268
459.885
467.797
474.954
481.325
486.887
491.623
495.52
498.568
500.759
502.086
502.545
502.135
500.857
502.16
505.749
507.888
508.586
507.861
505.742
502.277
497.535
491.614
484.65
476.829
468.392
459.639
450.922
442.618
435.084
428.584
423.218
418.864
415.163
411.567
407.417
402.05
394.876
385.431
373.386
358.546
340.818
320.193
296.716
270.471
241.558
210.094
176.197
158.542
180.088
224.261
269.974
317.136
365.659
415.456
466.441
518.525
571.615
625.61
680.405
735.879
791.904
848.334
905.005
961.736
1018.32
1074.52
1130.05
1184.61
1237.79
1288.95
1337.5
1383.31
1425.08
16248.5
4022.81
1382.02
1326.16
1264.89
1199.18
1129.92
1057.94
984.105
909.321
834.582
760.752
689.041
621.48
560.397
508.153
466.805
437.53
420.106
412.719
412.703
417.662
425.378
434.367
443.69
452.817
461.461
469.462
476.733
483.224
488.903
493.75
497.747
500.885
503.152
504.543
505.053
504.68
503.424
501.289
502.879
507.896
511.453
513.553
514.211
513.454
511.325
507.89
503.245
497.526
490.918
483.662
476.063
468.477
461.289
454.865
449.479
445.242
442.036
439.51
437.11
434.177
430.037
424.091
415.865
405.02
391.352
374.762
355.234
332.81
307.567
279.608
249.045
215.998
197.908
218.751
263.257
309.232
356.586
405.235
455.095
506.082
558.112
611.093
664.932
719.523
774.751
830.491
886.6
942.92
999.27
1055.45
1111.21
1166.3
1220.39
1273.09
1323.75
1371.77
1417.01
1458.13
15096.9
4996.53
1417.45
1360.86
1298.75
1232.11
1161.83
1088.75
1013.73
937.699
861.651
786.464
713.332
644.276
581.641
527.824
484.932
454.209
435.48
427.031
426.269
430.564
437.685
446.119
454.896
463.47
471.542
478.948
485.599
491.442
496.447
500.592
503.864
506.251
507.746
508.342
508.036
506.829
504.724
501.725
503.597
510.044
515.018
518.52
520.561
521.164
520.369
518.239
514.87
510.394
504.996
498.92
492.472
486.014
479.939
474.621
470.345
467.231
465.17
463.812
462.605
460.883
457.966
453.245
446.235
436.591
424.097
408.649
390.224
368.861
344.635
317.645
288.004
255.831
237.084
256.953
301.733
347.905
395.383
444.087
493.936
544.85
596.748
649.544
703.146
757.454
812.359
867.738
923.454
979.353
1035.26
1090.97
1146.26
1200.86
1254.44
1306.63
1356.8
1404.31
1449.03
1489.64
13915
6132.54
1452.53
1395.35
1332.53
1265.08
1193.89
1119.82
1043.72
966.52
889.219
812.716
738.176
667.598
603.347
547.853
503.29
470.99
450.88
441.331
439.727
443.316
449.834
457.718
465.967
474.009
481.532
488.365
494.415
499.629
503.976
507.434
509.991
511.636
512.363
512.166
511.045
509.001
506.039
502.166
504.316
512.192
518.584
523.488
526.91
528.872
529.409
528.583
526.486
523.251
519.061
514.161
508.86
503.526
498.559
494.342
491.17
489.173
488.249
488.052
488.029
487.509
485.806
482.302
476.503
468.052
456.728
442.42
425.099
404.801
381.598
355.588
326.884
295.605
276.029
294.703
339.689
385.988
433.516
482.196
531.952
582.707
634.384
686.904
740.179
794.113
848.603
903.532
958.767
1014.16
1069.54
1124.72
1179.46
1233.51
1286.55
1338.2
1387.85
1434.85
1479.07
1519.2
12377.4
7592.96
1487.22
1429.54
1366.14
1298.01
1226.05
1151.12
1074.06
995.791
917.317
839.555
763.636
691.528
625.607
568.347
521.992
487.987
466.374
455.603
453.051
455.9
461.812
469.164
476.908
484.445
491.445
497.729
503.201
507.806
511.51
514.294
516.146
517.056
517.017
516.028
514.088
511.201
507.373
502.614
505.035
514.341
522.15
528.456
533.259
536.578
538.446
538.922
538.095
536.097
533.111
529.382
525.224
521.009
517.143
514.02
511.944
511.055
511.257
512.209
513.358
514.028
513.526
511.224
506.621
499.351
489.186
476.007
459.784
440.546
418.365
393.339
365.579
335.208
314.7
332.029
377.15
423.498
470.992
519.56
569.128
619.626
670.982
723.121
775.961
829.413
883.379
937.749
992.397
1047.18
1101.94
1156.49
1210.6
1264.02
1316.45
1367.51
1416.59
1463.03
1506.74
1546.41
10451.2
9444.1
1521.3
1463.25
1399.42
1330.78
1258.23
1182.59
1104.71
1025.51
945.968
867.03
789.783
716.15
648.518
589.401
541.126
505.261
481.99
469.865
466.275
468.343
473.645
480.479
487.743
494.802
501.306
507.068
511.984
515.997
519.074
521.196
522.35
522.528
521.725
519.941
517.176
513.436
508.73
503.071
505.755
516.492
525.719
533.426
539.61
544.286
547.483
549.259
549.699
548.935
547.148
544.587
541.565
538.461
535.689
533.651
532.661
532.867
534.182
536.268
538.571
540.412
541.089
539.97
536.54
530.43
521.402
509.334
494.19
475.998
454.829
430.78
403.964
374.505
353.055
368.989
414.166
460.476
507.844
556.199
605.474
655.603
706.521
758.156
810.436
863.278
916.591
970.272
1024.2
1078.25
1132.27
1186.06
1239.44
1292.13
1343.85
1394.23
1442.68
1488.52
1531.65
1570.82
8151.32
11655.1
1554.25
1496.05
1432.03
1363.13
1290.22
1214.1
1135.62
1055.65
975.179
895.176
816.683
741.552
672.179
611.121
560.79
522.899
497.8
484.178
479.454
480.694
485.375
491.703
498.509
505.117
511.154
516.417
520.797
524.235
526.698
528.165
528.626
528.073
526.504
523.918
520.318
515.713
510.115
503.537
506.476
518.646
529.292
538.4
545.965
551.997
556.524
559.597
561.303
561.77
561.179
559.779
557.888
555.887
554.2
553.235
553.318
554.604
557.016
560.216
563.65
566.636
568.466
568.497
566.211
561.227
553.304
542.314
528.219
511.046
490.865
467.773
441.888
413.334
391.056
405.675
450.824
497.003
544.141
592.172
641.033
690.666
741.009
791.999
843.571
895.65
948.153
1000.99
1054.05
1107.21
1160.33
1213.23
1265.73
1317.58
1368.48
1418.08
1465.79
1510.92
1553.35
1591.79
5337.37
14355.6
1585.49
1527.43
1463.54
1394.71
1321.75
1245.46
1166.63
1086.14
1004.94
924.028
844.399
767.827
696.707
633.633
581.113
541.02
513.908
498.628
492.659
493.012
497.055
502.886
509.258
515.442
521.036
525.823
529.686
532.563
534.42
535.236
535.004
533.716
531.372
527.974
523.527
518.041
511.531
504.014
507.198
520.802
532.868
543.38
552.329
559.719
565.576
569.95
572.922
574.618
575.22
574.978
574.211
573.306
572.692
572.788
573.927
576.276
579.761
584.049
588.585
592.682
595.626
596.767
595.577
591.674
584.808
574.848
561.756
545.557
526.323
504.154
479.168
451.496
428.669
442.229
487.259
533.205
580.001
627.584
675.898
724.888
774.501
824.682
875.372
926.508
978.016
1029.82
1081.81
1133.89
1185.93
1237.77
1289.24
1340.1
1390.08
1438.83
1485.77
1530.18
1571.86
1609.28
2020.91
17193.3
1613.45
1556.33
1493.21
1424.97
1352.41
1276.34
1197.53
1116.82
1035.17
953.562
872.967
795.058
722.219
657.082
602.253
559.783
530.462
513.347
506.007
505.403
508.784
514.123
520.079
525.862
531.035
535.362
538.72
541.042
542.293
542.456
541.521
539.487
536.354
532.127
526.813
520.425
512.983
504.503
507.92
522.96
536.45
548.369
558.704
567.457
574.65
580.326
584.567
587.495
589.29
590.202
590.554
590.737
591.186
592.329
594.509
597.9
602.433
607.778
613.379
618.543
622.551
624.747
624.596
621.708
615.832
606.835
594.677
579.386
561.036
539.73
515.593
488.759
465.868
478.851
523.668
569.275
615.607
662.607
710.223
758.407
807.112
856.293
905.897
955.873
1006.16
1056.68
1107.36
1158.11
1208.81
1259.32
1309.49
1359.11
1407.94
1455.65
1501.79
1545.5
1586.81
1624.33
1656.63
18068.4
1636.41
1581.54
1520.11
1453.17
1381.62
1306.29
1227.96
1147.46
1065.71
983.714
902.408
823.341
748.867
681.654
624.413
579.392
547.648
528.494
519.627
517.976
520.658
525.502
531.059
536.461
541.232
545.114
547.973
549.74
550.378
549.874
548.221
545.419
541.474
536.393
530.187
522.872
514.472
505.004
508.643
525.12
540.038
553.372
565.104
575.232
583.772
590.766
596.288
600.459
603.457
605.529
607.001
608.267
609.768
611.941
615.138
619.54
625.084
631.442
638.056
644.229
649.234
652.407
653.21
651.249
646.271
638.143
626.827
612.352
594.796
574.269
550.901
524.833
502.638
515.823
560.333
605.49
651.231
697.503
744.26
791.459
839.061
887.026
935.313
983.878
1032.67
1081.64
1130.7
1179.8
1228.82
1277.67
1326.19
1374.22
1421.54
1467.87
1512.88
1555.83
1596.43
1634.28
1668.12
18306.2
1654.88
1602.98
1543.81
1478.71
1408.73
1334.7
1257.41
1177.64
1096.27
1014.3
932.636
852.693
776.758
707.529
647.826
600.107
565.74
544.345
533.793
531
532.942
537.283
542.444
547.471
551.839
555.266
557.609
558.795
558.79
557.583
555.173
551.565
546.768
540.795
533.661
525.388
515.999
505.518
509.364
527.278
543.627
558.382
571.522
583.039
592.943
601.27
608.089
613.515
617.723
620.961
623.552
625.897
628.443
631.633
635.829
641.218
647.743
655.073
662.648
669.763
675.685
679.747
681.404
680.26
676.062
668.678
658.072
644.282
627.394
607.525
584.812
559.405
538.985
553.502
597.617
642.216
687.24
732.639
778.371
824.399
870.69
917.212
963.933
1010.82
1057.83
1104.92
1152.04
1199.13
1246.12
1292.92
1339.41
1385.46
1430.89
1475.49
1518.93
1560.63
1600.26
1637.58
1671.45
15286.6
3467.67
1620.24
1563.37
1500.53
1432.68
1360.63
1285.07
1206.74
1126.43
1045.08
963.577
883.187
806.09
734.997
672.829
622.275
585.05
561.148
548.683
544.592
545.712
549.521
554.286
558.948
562.919
565.889
567.7
568.279
567.594
565.64
562.423
557.957
552.258
545.344
537.239
527.968
517.562
506.043
510.084
529.437
547.229
563.429
578.01
590.958
602.275
611.989
620.161
626.897
632.366
636.809
640.549
643.986
647.571
651.755
656.908
663.224
670.651
678.861
687.289
695.227
701.936
706.744
709.103
708.617
705.035
698.229
688.171
674.904
658.521
639.148
616.935
592.044
574.928
592.393
636.028
679.965
724.148
768.53
813.072
857.743
902.515
947.361
992.258
1037.18
1082.1
1126.98
1171.79
1216.49
1261.02
1305.32
1349.31
1392.88
1435.9
1478.21
1519.55
1559.43
1597.45
1633.49
1666.57
11266
7628.65
1632.51
1577.56
1517.23
1452.13
1382.84
1309.89
1233.88
1155.47
1075.52
994.885
914.656
836.867
764.221
699.736
646.344
606.146
579.576
565.056
559.578
559.831
563.08
567.414
571.654
575.15
577.565
578.735
578.588
577.103
574.282
570.146
564.715
558.019
550.083
540.939
530.618
519.156
506.576
510.792
531.563
550.79
568.441
584.48
598.883
611.643
622.774
632.324
640.392
647.137
652.795
657.688
662.218
666.845
672.024
678.131
685.365
693.676
702.731
711.957
720.639
728.031
733.454
736.362
736.359
733.201
726.77
717.046
704.086
687.994
668.911
646.999
622.43
610.52
632.973
676.06
719.249
762.484
805.722
848.928
892.073
935.134
978.09
1020.92
1063.62
1106.15
1148.5
1190.64
1232.55
1274.18
1315.51
1356.47
1396.99
1436.98
1476.32
1514.81
1552.04
1587.66
1621.54
1652.71
6603.97
12161.5
1637.05
1584.87
1527.82
1466.3
1400.64
1331.24
1258.51
1183
1105.39
1026.5
947.251
869.424
795.67
729.073
672.801
629.381
599.774
582.819
575.65
574.841
577.427
581.291
585.102
588.123
589.975
590.478
589.558
587.204
583.435
578.285
571.796
564.011
554.972
544.722
533.304
520.758
507.11
511.495
533.699
554.413
573.596
591.209
607.215
621.591
634.332
645.47
655.078
663.297
670.346
676.529
682.241
687.932
694.065
701.026
709.027
718.021
727.678
737.426
746.546
754.295
760
763.123
763.278
760.231
753.873
744.197
731.27
715.21
696.171
674.325
649.86
645.777
676.009
718.488
760.842
803.024
844.997
886.731
928.2
969.386
1010.27
1050.84
1091.08
1130.98
1170.53
1209.69
1248.46
1286.82
1324.73
1362.17
1399.09
1435.44
1471.13
1506.03
1539.8
1572.12
1602.87
1630.94
1821.93
16490.2
1630.43
1582.54
1530.05
1473.21
1412.24
1347.41
1279.02
1207.47
1133.3
1057.23
980.028
903.191
829.229
761.237
702.586
656.232
623.713
604.377
595.562
593.719
595.619
598.899
602.064
604.304
605.227
604.666
602.576
598.973
593.903
587.424
579.599
570.491
560.16
548.661
536.047
522.365
507.637
512.149
535.669
557.77
578.424
597.573
615.161
631.139
645.472
658.161
669.26
678.893
687.271
694.707
701.601
708.4
715.536
723.394
732.179
741.847
752.073
762.287