/*--------------------------------*- C++ -*----------------------------------*\
  =========                 |
  \\      /  F ield         | OpenFOAM: The Open Source CFD Toolbox
   \\    /   O peration     | Website:  https://openfoam.org
    \\  /    A nd           | Version:  8
     \\/     M anipulation  |
\*---------------------------------------------------------------------------*/
FoamFile
{
    version     2.0;
    format      ascii;
    class       volScalarField;
    location    "420/fluid";
    object      rho;
}
// * * * * * * * * * * * * * * * * * * * * * * * * * * * * * * * * * * * * * //

dimensions      [1 -3 0 0 0 0 0];

internalField   nonuniform List<scalar> 
4000
(
0.658526
0.658501
0.65846
0.65839
0.658273
0.65808
0.657763
0.657246
0.656412
0.655087
0.653011
0.649826
0.64505
0.638095
0.628316
0.615121
0.598141
0.577392
0.553375
0.527032
0.499538
0.47205
0.445512
0.420564
0.397549
0.376576
0.357597
0.340474
0.325028
0.311069
0.298416
0.286905
0.276394
0.26676
0.257905
0.249738
0.242151
0.235072
0.228448
0.222235
0.216394
0.210893
0.205703
0.200802
0.196171
0.191791
0.18765
0.183736
0.180039
0.176553
0.173271
0.170191
0.167311
0.164632
0.16216
0.159901
0.15787
0.156084
0.15461
0.15344
0.152613
0.152247
0.152483
0.160036
0.169757
0.181294
0.194907
0.210947
0.229888
0.25235
0.279145
0.311327
0.350254
0.397727
0.456098
0.527718
0.614206
0.714978
0.824956
0.933265
1.02616
1.09428
1.13726
1.16113
1.17321
1.17901
1.18168
1.18289
1.18342
1.18365
1.18375
1.18379
1.18381
1.18382
1.18382
1.18382
1.18382
1.18382
1.18382
1.18382
0.658526
0.658501
0.658459
0.658388
0.65827
0.658075
0.657753
0.657228
0.656383
0.655039
0.65294
0.649726
0.644923
0.637952
0.628182
0.615041
0.598169
0.577581
0.553766
0.527623
0.500292
0.472913
0.446424
0.421474
0.398417
0.377378
0.358319
0.341113
0.325586
0.31155
0.298827
0.287252
0.276683
0.266999
0.258098
0.249891
0.242269
0.235159
0.228507
0.222268
0.216404
0.210883
0.205676
0.20076
0.196114
0.191723
0.187571
0.183647
0.179943
0.176451
0.173165
0.170082
0.167201
0.164524
0.162056
0.159805
0.157784
0.156014
0.154559
0.15338
0.152564
0.152181
0.152337
0.160675
0.170675
0.182524
0.196501
0.212983
0.232475
0.25564
0.283345
0.316717
0.357204
0.406752
0.467806
0.542665
0.632618
0.736226
0.847037
0.953046
1.04096
1.10346
1.14209
1.16339
1.17419
1.17941
1.18184
1.18295
1.18344
1.18366
1.18375
1.18379
1.18381
1.18382
1.18382
1.18382
1.18382
1.18382
1.18382
1.18382
0.658526
0.658501
0.658458
0.658386
0.658266
0.658068
0.657741
0.657209
0.656352
0.654993
0.652875
0.649638
0.644814
0.63783
0.628066
0.614953
0.598136
0.577643
0.553954
0.527953
0.500761
0.473494
0.447082
0.422169
0.399116
0.378053
0.358954
0.341696
0.32611
0.312015
0.299232
0.287601
0.276979
0.267244
0.258295
0.250044
0.242381
0.235232
0.228546
0.222278
0.216387
0.21084
0.205609
0.200671
0.196006
0.191596
0.187429
0.183492
0.179776
0.176274
0.172981
0.169893
0.167011
0.164337
0.161876
0.159639
0.157641
0.155912
0.154512
0.153415
0.152725
0.152531
0.152965
0.161769
0.172229
0.184572
0.199109
0.216255
0.236553
0.260717
0.289671
0.324613
0.36707
0.419104
0.483141
0.561233
0.6541
0.759271
0.86912
0.971287
1.05371
1.11106
1.14607
1.1653
1.17506
1.17979
1.182
1.18302
1.18347
1.18367
1.18376
1.18379
1.18381
1.18382
1.18382
1.18382
1.18382
1.18382
1.18382
1.18382
0.658526
0.6585
0.658457
0.658385
0.658264
0.658064
0.657735
0.657199
0.656337
0.654972
0.652846
0.649602
0.644773
0.637793
0.628047
0.614975
0.59823
0.57783
0.554241
0.528339
0.501228
0.47402
0.447639
0.422733
0.399667
0.378577
0.35944
0.342138
0.326506
0.312363
0.299534
0.287857
0.27719
0.267411
0.258419
0.250129
0.242432
0.235253
0.228537
0.222239
0.21632
0.210748
0.205493
0.200532
0.195846
0.191418
0.187234
0.183282
0.179553
0.176041
0.17274
0.169648
0.166764
0.164093
0.16164
0.159418
0.157446
0.155772
0.154437
0.153446
0.152936
0.153063
0.154169
0.163413
0.174347
0.187222
0.202381
0.220268
0.241467
0.266737
0.29706
0.333694
0.37825
0.432887
0.499961
0.58125
0.676863
0.783303
0.891859
0.989966
1.06684
1.11904
1.15037
1.16742
1.17605
1.18023
1.1822
1.1831
1.18351
1.18369
1.18376
1.1838
1.18381
1.18382
1.18382
1.18382
1.18382
1.18382
1.18382
1.18382
0.658526
0.6585
0.658457
0.658384
0.658263
0.658061
0.65773
0.657192
0.656328
0.654959
0.652828
0.649581
0.644751
0.637775
0.628041
0.614995
0.598294
0.577953
0.554433
0.5286
0.501549
0.474384
0.448027
0.423126
0.400049
0.378937
0.359771
0.342435
0.326766
0.312584
0.299716
0.288001
0.277297
0.267485
0.258464
0.250147
0.242422
0.235214
0.228471
0.222147
0.216203
0.210607
0.20533
0.200349
0.195644
0.191199
0.186999
0.183033
0.179293
0.175771
0.172463
0.169366
0.16648
0.163809
0.161361
0.159146
0.157185
0.155528
0.15421
0.153232
0.152724
0.15281
0.156015
0.16557
0.176902
0.190274
0.206041
0.224674
0.24679
0.273189
0.304904
0.343251
0.389928
0.44716
0.51718
0.601442
0.699386
0.806484
0.913125
1.00687
1.07838
1.1259
1.15403
1.16923
1.1769
1.18062
1.18237
1.18318
1.18354
1.1837
1.18377
1.1838
1.18381
1.18382
1.18382
1.18382
1.18382
1.18382
1.18382
1.18382
0.658526
0.6585
0.658457
0.658384
0.658262
0.65806
0.657728
0.657189
0.656323
0.654953
0.652821
0.649574
0.644748
0.637779
0.628061
0.615041
0.598374
0.578074
0.554598
0.528805
0.501786
0.474641
0.44829
0.423384
0.400291
0.379157
0.359963
0.342598
0.326899
0.312688
0.299793
0.288052
0.277325
0.26749
0.258444
0.250101
0.242351
0.235119
0.228353
0.222007
0.216043
0.210426
0.205131
0.200132
0.195411
0.190951
0.186738
0.182761
0.179011
0.175482
0.172169
0.169069
0.166183
0.163515
0.161071
0.158863
0.156911
0.155271
0.15397
0.153009
0.152512
0.152606
0.158039
0.167884
0.179596
0.193447
0.209809
0.229175
0.252194
0.279704
0.312787
0.352811
0.40157
0.461319
0.534134
0.621128
0.721051
0.828404
0.932848
1.02227
1.08877
1.13208
1.15734
1.17087
1.17768
1.18098
1.18253
1.18325
1.18357
1.18371
1.18377
1.1838
1.18381
1.18382
1.18382
1.18382
1.18382
1.18382
1.18382
1.18382
0.658526
0.6585
0.658456
0.658383
0.658261
0.658059
0.657727
0.657187
0.656321
0.65495
0.652818
0.649572
0.644748
0.637786
0.628078
0.615074
0.598429
0.578155
0.554706
0.528935
0.501931
0.474792
0.448439
0.423522
0.400414
0.379261
0.360048
0.342662
0.326944
0.312715
0.2998
0.288038
0.277288
0.267431
0.258364
0.250001
0.242231
0.23498
0.228195
0.221831
0.21585
0.210217
0.204907
0.199894
0.19516
0.190688
0.186465
0.18248
0.178724
0.175191
0.171876
0.168777
0.165895
0.163233
0.160798
0.158603
0.15667
0.155056
0.153775
0.152832
0.152362
0.152503
0.159982
0.170101
0.182188
0.196513
0.213461
0.233544
0.25744
0.286027
0.32043
0.36207
0.412834
0.474972
0.550395
0.639846
0.741378
0.84859
0.950599
1.03581
1.09773
1.13732
1.16014
1.17226
1.17834
1.18128
1.18267
1.18331
1.1836
1.18372
1.18378
1.1838
1.18381
1.18382
1.18382
1.18382
1.18382
1.18382
1.18382
1.18382
0.658526
0.6585
0.658456
0.658383
0.658261
0.658059
0.657727
0.657187
0.65632
0.654949
0.652818
0.649572
0.644751
0.637792
0.628091
0.615097
0.598464
0.578202
0.554764
0.529002
0.502002
0.474861
0.448501
0.423575
0.400457
0.379291
0.360064
0.342662
0.326926
0.312677
0.299744
0.287964
0.277197
0.267323
0.25824
0.249861
0.242076
0.23481
0.22801
0.221632
0.215637
0.209992
0.204669
0.199646
0.194902
0.190422
0.186192
0.182202
0.178443
0.174909
0.171596
0.168502
0.165628
0.162979
0.160562
0.158391
0.156483
0.154906
0.153657
0.152751
0.152306
0.152439
0.161279
0.171874
0.184444
0.199296
0.216845
0.237636
0.262381
0.291997
0.327655
0.370831
0.423493
0.487862
0.565675
0.657298
0.760102
0.866877
0.96637
1.04761
1.10543
1.14179
1.16252
1.17345
1.17891
1.18155
1.18279
1.18336
1.18362
1.18373
1.18378
1.18381
1.18381
1.18382
1.18382
1.18382
1.18382
1.18382
1.18382
1.18382
0.658526
0.6585
0.658456
0.658383
0.658261
0.658059
0.657726
0.657186
0.656319
0.654948
0.652817
0.649572
0.644752
0.637795
0.628097
0.615107
0.598478
0.57822
0.554786
0.529025
0.502024
0.474878
0.448511
0.423574
0.400441
0.37926
0.360017
0.3426
0.326849
0.312587
0.29964
0.287847
0.277068
0.267181
0.258087
0.249696
0.241899
0.234621
0.22781
0.221422
0.215416
0.209761
0.20443
0.199398
0.194648
0.190162
0.185928
0.181935
0.178176
0.174644
0.171335
0.168249
0.165387
0.162755
0.160362
0.158224
0.156369
0.154872
0.153687
0.152932
0.15271
0.153187
0.162475
0.173506
0.186528
0.201875
0.219988
0.241442
0.266981
0.297559
0.334388
0.379
0.433432
0.499857
0.579832
0.673345
0.777116
0.883225
0.980201
1.05777
1.11196
1.14555
1.1645
1.17443
1.17938
1.18177
1.18289
1.1834
1.18364
1.18374
1.18379
1.18381
1.18382
1.18382
1.18382
1.18382
1.18382
1.18382
1.18382
1.18382
0.658526
0.6585
0.658456
0.658383
0.658261
0.658058
0.657726
0.657186
0.656319
0.654948
0.652816
0.649572
0.644751
0.637795
0.628097
0.615107
0.598477
0.578217
0.554778
0.529011
0.502
0.474843
0.448463
0.423514
0.400369
0.379176
0.359922
0.342495
0.326734
0.312462
0.299506
0.287704
0.276915
0.26702
0.257917
0.249518
0.241711
0.234425
0.227606
0.221209
0.215196
0.209534
0.204196
0.199159
0.194404
0.189914
0.185678
0.181685
0.177926
0.174397
0.171094
0.168016
0.165167
0.162551
0.16018
0.158073
0.15627
0.154832
0.153733
0.153117
0.153125
0.154178
0.163779
0.175145
0.18854
0.204314
0.222927
0.244978
0.271237
0.302693
0.340595
0.386533
0.442594
0.510885
0.59279
0.687919
0.792393
0.897682
0.992222
1.06646
1.11747
1.1487
1.16616
1.17525
1.17977
1.18195
1.18297
1.18344
1.18365
1.18375
1.18379
1.18381
1.18382
1.18382
1.18382
1.18382
1.18382
1.18382
1.18382
1.18382
0.658526
0.6585
0.658456
0.658383
0.658261
0.658058
0.657726
0.657185
0.656318
0.654946
0.652815
0.649569
0.644747
0.637789
0.628087
0.615092
0.598456
0.578188
0.554738
0.528959
0.501935
0.474766
0.448375
0.423414
0.40026
0.379059
0.359797
0.342363
0.326595
0.312317
0.299354
0.287546
0.276751
0.26685
0.257741
0.249336
0.241523
0.23423
0.227404
0.221002
0.214983
0.209316
0.203974
0.198933
0.194175
0.189684
0.185447
0.181454
0.177698
0.174172
0.170874
0.167803
0.164963
0.162358
0.160001
0.157909
0.156124
0.1547
0.153607
0.152975
0.152919
0.155354
0.165164
0.176782
0.190476
0.20661
0.225657
0.248234
0.275137
0.307383
0.346254
0.393396
0.450929
0.520892
0.604498
0.700998
0.805955
0.910337
1.00258
1.07384
1.1221
1.15132
1.16753
1.17594
1.1801
1.1821
1.18304
1.18347
1.18367
1.18375
1.18379
1.18381
1.18382
1.18382
1.18382
1.18382
1.18382
1.18382
1.18382
1.18382
0.658526
0.6585
0.658456
0.658383
0.658261
0.658058
0.657725
0.657185
0.656317
0.654945
0.652812
0.649564
0.64474
0.637778
0.628071
0.615068
0.598422
0.578141
0.554678
0.528883
0.501846
0.474663
0.448261
0.423291
0.40013
0.378922
0.359655
0.342216
0.326445
0.312163
0.299196
0.287384
0.276585
0.26668
0.257567
0.249158
0.24134
0.234043
0.227213
0.220807
0.214784
0.209114
0.203769
0.198726
0.193967
0.189475
0.185238
0.181247
0.177493
0.173971
0.170678
0.167613
0.16478
0.162184
0.159837
0.157754
0.15598
0.154563
0.153475
0.15284
0.15277
0.156514
0.166493
0.178321
0.192271
0.208715
0.228141
0.251183
0.278658
0.311608
0.351345
0.399567
0.458416
0.52986
0.614948
0.712592
0.817859
0.9213
1.01142
1.08005
1.12596
1.15349
1.16867
1.1765
1.18037
1.18222
1.1831
1.1835
1.18368
1.18376
1.18379
1.18381
1.18382
1.18382
1.18382
1.18382
1.18382
1.18382
1.18382
1.18382
0.658526
0.6585
0.658456
0.658383
0.65826
0.658058
0.657725
0.657184
0.656316
0.654943
0.652808
0.649559
0.644731
0.637764
0.62805
0.615038
0.598379
0.578084
0.554605
0.528795
0.501742
0.474547
0.448135
0.423157
0.39999
0.378778
0.359508
0.342066
0.326293
0.312009
0.29904
0.287225
0.276425
0.266517
0.257402
0.248991
0.24117
0.23387
0.227037
0.220628
0.214604
0.208932
0.203585
0.198541
0.193781
0.18929
0.185054
0.181065
0.177314
0.173796
0.170508
0.16745
0.164624
0.162036
0.159698
0.157625
0.155863
0.154456
0.153375
0.152746
0.152681
0.157538
0.16768
0.179697
0.193874
0.210593
0.230353
0.253804
0.281781
0.31535
0.355848
0.405025
0.465037
0.537776
0.624139
0.722728
0.828174
0.93069
1.01891
1.08525
1.12916
1.15528
1.1696
1.17696
1.18059
1.18233
1.18314
1.18352
1.18369
1.18376
1.1838
1.18381
1.18382
1.18382
1.18382
1.18382
1.18382
1.18382
1.18382
1.18382
0.658526
0.6585
0.658456
0.658383
0.65826
0.658057
0.657724
0.657183
0.656314
0.65494
0.652805
0.649553
0.644721
0.637749
0.628027
0.615004
0.598332
0.578022
0.554526
0.5287
0.501633
0.474427
0.448005
0.423022
0.39985
0.378636
0.359364
0.341921
0.326147
0.311862
0.298893
0.287078
0.276276
0.266368
0.257252
0.248839
0.241016
0.233714
0.22688
0.22047
0.214444
0.208771
0.203424
0.19838
0.19362
0.18913
0.184896
0.180909
0.177162
0.173648
0.170366
0.167314
0.164496
0.161916
0.159587
0.157525
0.155773
0.154376
0.153304
0.152684
0.152625
0.158427
0.168712
0.180897
0.195272
0.212229
0.232277
0.256081
0.284493
0.318599
0.359762
0.409771
0.470789
0.544644
0.632089
0.731449
0.83698
0.938628
1.02516
1.08955
1.13179
1.15674
1.17036
1.17733
1.18077
1.18241
1.18318
1.18354
1.1837
1.18377
1.1838
1.18381
1.18382
1.18382
1.18382
1.18382
1.18382
1.18382
1.18382
1.18382
0.658526
0.6585
0.658456
0.658383
0.65826
0.658057
0.657724
0.657182
0.656313
0.654938
0.652801
0.649546
0.644711
0.637733
0.628004
0.61497
0.598285
0.57796
0.554449
0.528608
0.501528
0.474311
0.447881
0.422893
0.399718
0.378503
0.35923
0.341788
0.326014
0.311729
0.29876
0.286945
0.276144
0.266235
0.257119
0.248706
0.240883
0.23358
0.226745
0.220334
0.214307
0.208634
0.203287
0.198244
0.193485
0.188997
0.184765
0.180782
0.177038
0.173529
0.170252
0.167207
0.164395
0.161824
0.159504
0.15745
0.15571
0.154322
0.15326
0.152647
0.152599
0.159166
0.169581
0.181913
0.196459
0.213619
0.233914
0.258019
0.286802
0.321366
0.363094
0.413813
0.475685
0.550482
0.638828
0.738809
0.84436
0.945224
1.03031
1.09307
1.13392
1.15792
1.17098
1.17763
1.18091
1.18248
1.18321
1.18355
1.1837
1.18377
1.1838
1.18381
1.18382
1.18382
1.18382
1.18382
1.18382
1.18382
1.18382
1.18382
0.658526
0.6585
0.658456
0.658383
0.65826
0.658057
0.657723
0.657181
0.656311
0.654936
0.652797
0.64954
0.644701
0.637718
0.627982
0.614938
0.598241
0.577903
0.554377
0.528522
0.501431
0.474205
0.44777
0.422777
0.399601
0.378384
0.359112
0.341671
0.325898
0.311614
0.298646
0.286832
0.276031
0.266123
0.257007
0.248594
0.240771
0.233468
0.226633
0.220222
0.214196
0.208523
0.203176
0.198134
0.193377
0.18889
0.184662
0.180681
0.176941
0.173437
0.170165
0.167126
0.164322
0.161758
0.159445
0.157399
0.155668
0.154288
0.153233
0.152628
0.15259
0.159766
0.170293
0.18275
0.19744
0.214771
0.23527
0.259625
0.288715
0.323659
0.365856
0.417163
0.47974
0.555311
0.644389
0.744859
0.850395
0.950581
1.03446
1.09588
1.13562
1.15886
1.17146
1.17787
1.18102
1.18253
1.18324
1.18356
1.18371
1.18377
1.1838
1.18381
1.18382
1.18382
1.18382
1.18382
1.18382
1.18382
1.18382
1.18382
0.658526
0.6585
0.658456
0.658382
0.65826
0.658057
0.657723
0.657181
0.65631
0.654934
0.652794
0.649535
0.644693
0.637705
0.627962
0.61491
0.598203
0.577853
0.554315
0.528449
0.501349
0.474115
0.447675
0.42268
0.399502
0.378286
0.359014
0.341574
0.325802
0.31152
0.298553
0.286739
0.275939
0.266032
0.256918
0.248506
0.240683
0.23338
0.226545
0.220134
0.214109
0.208437
0.203091
0.19805
0.193295
0.188811
0.184584
0.180607
0.176871
0.173371
0.170105
0.167071
0.164273
0.161715
0.159408
0.157369
0.155643
0.154266
0.15321
0.152594
0.152532
0.160234
0.170858
0.183418
0.198225
0.215693
0.236357
0.260911
0.290245
0.32549
0.368061
0.419835
0.482972
0.559153
0.648804
0.749644
0.855144
0.954773
1.0377
1.09806
1.13693
1.15959
1.17184
1.17806
1.18111
1.18257
1.18326
1.18357
1.18371
1.18377
1.1838
1.18381
1.18382
1.18382
1.18382
1.18382
1.18382
1.18382
1.18382
1.18382
0.658526
0.6585
0.658456
0.658382
0.65826
0.658056
0.657723
0.65718
0.656309
0.654932
0.652791
0.649531
0.644686
0.637695
0.627947
0.614888
0.598173
0.577814
0.554267
0.528392
0.501284
0.474045
0.447602
0.422604
0.399426
0.37821
0.358939
0.3415
0.325729
0.311448
0.298482
0.28667
0.275871
0.265965
0.256852
0.248441
0.240618
0.233316
0.226482
0.220072
0.214047
0.208376
0.203031
0.197992
0.193238
0.188756
0.184533
0.180558
0.176826
0.17333
0.170068
0.167039
0.164246
0.161694
0.159393
0.15736
0.15564
0.154267
0.153213
0.152596
0.152532
0.160583
0.171283
0.183925
0.198822
0.216394
0.237181
0.261884
0.291401
0.326871
0.36972
0.421843
0.485396
0.562029
0.652099
0.753202
0.85866
0.95786
1.04007
1.09966
1.1379
1.16012
1.17211
1.17819
1.18118
1.1826
1.18327
1.18357
1.18371
1.18377
1.1838
1.18381
1.18382
1.18382
1.18382
1.18382
1.18382
1.18382
1.18382
1.18382
0.658526
0.6585
0.658456
0.658382
0.65826
0.658056
0.657722
0.65718
0.656309
0.654931
0.652789
0.649528
0.644682
0.637688
0.627936
0.614873
0.598153
0.577787
0.554233
0.528353
0.50124
0.473998
0.447551
0.422553
0.399374
0.378158
0.358888
0.34145
0.32568
0.3114
0.298435
0.286624
0.275826
0.265921
0.256809
0.248399
0.240577
0.233276
0.226443
0.220033
0.214009
0.208338
0.202995
0.197957
0.193205
0.188724
0.184503
0.180532
0.176802
0.17331
0.170051
0.167027
0.164238
0.161692
0.159396
0.157367
0.155653
0.154283
0.153229
0.152609
0.152535
0.160813
0.171572
0.184272
0.199233
0.216875
0.237745
0.262547
0.292185
0.327804
0.370838
0.423192
0.48702
0.563949
0.65429
0.755558
0.860973
0.959879
1.04161
1.1007
1.13852
1.16046
1.17228
1.17828
1.18122
1.18262
1.18328
1.18358
1.18371
1.18378
1.1838
1.18381
1.18382
1.18382
1.18382
1.18382
1.18382
1.18382
1.18382
1.18382
0.658526
0.6585
0.658456
0.658382
0.65826
0.658056
0.657722
0.657179
0.656308
0.65493
0.652788
0.649526
0.64468
0.637684
0.627931
0.614866
0.598143
0.577774
0.554217
0.528334
0.501219
0.473974
0.447527
0.422528
0.399349
0.378133
0.358863
0.341425
0.325656
0.311376
0.298412
0.286601
0.275804
0.2659
0.256788
0.248379
0.240558
0.233257
0.226425
0.220015
0.213992
0.208322
0.20298
0.197942
0.193191
0.188712
0.184492
0.180522
0.176794
0.173304
0.170049
0.167027
0.164242
0.161699
0.159407
0.157382
0.155671
0.154303
0.153249
0.152624
0.152538
0.160927
0.171723
0.184457
0.19945
0.217128
0.238038
0.262889
0.292586
0.328276
0.371399
0.423863
0.48782
0.564889
0.655355
0.756693
0.862079
0.960835
1.04233
1.10118
1.13881
1.16062
1.17237
1.17832
1.18124
1.18263
1.18328
1.18358
1.18372
1.18378
1.1838
1.18381
1.18382
1.18382
1.18382
1.18382
1.18382
1.18382
1.18382
1.18382
0.658526
0.6585
0.658456
0.658382
0.65826
0.658056
0.657722
0.657179
0.656308
0.65493
0.652788
0.649526
0.644679
0.637684
0.627931
0.614866
0.598142
0.577773
0.554216
0.528333
0.501218
0.473973
0.447526
0.422527
0.399348
0.378132
0.358863
0.341424
0.325655
0.311376
0.298411
0.286601
0.275803
0.265899
0.256788
0.248379
0.240558
0.233257
0.226424
0.220015
0.213992
0.208322
0.202979
0.197942
0.193191
0.188712
0.184492
0.180522
0.176794
0.173304
0.170049
0.167027
0.164242
0.161699
0.159407
0.157382
0.15567
0.154303
0.153249
0.152624
0.152538
0.160927
0.171724
0.184457
0.199451
0.217129
0.238039
0.26289
0.292587
0.328278
0.3714
0.423865
0.487822
0.564891
0.655358
0.756696
0.862082
0.960837
1.04233
1.10118
1.13881
1.16062
1.17237
1.17832
1.18124
1.18263
1.18328
1.18358
1.18372
1.18378
1.1838
1.18381
1.18382
1.18382
1.18382
1.18382
1.18382
1.18382
1.18382
1.18382
0.658526
0.6585
0.658456
0.658382
0.65826
0.658056
0.657722
0.65718
0.656309
0.654931
0.652789
0.649527
0.644681
0.637687
0.627935
0.614872
0.598151
0.577785
0.554231
0.528351
0.501237
0.473995
0.447549
0.422551
0.399372
0.378156
0.358886
0.341448
0.325678
0.311399
0.298434
0.286623
0.275825
0.26592
0.256808
0.248398
0.240576
0.233275
0.226442
0.220032
0.214008
0.208338
0.202995
0.197956
0.193204
0.188724
0.184503
0.180531
0.176802
0.173309
0.170051
0.167027
0.164238
0.161691
0.159396
0.157367
0.155653
0.154283
0.153229
0.152609
0.152535
0.160814
0.171574
0.184274
0.199235
0.216877
0.237747
0.26255
0.292188
0.327808
0.370842
0.423196
0.487025
0.563956
0.654298
0.755566
0.860981
0.959885
1.04161
1.1007
1.13852
1.16047
1.17229
1.17828
1.18122
1.18262
1.18328
1.18358
1.18371
1.18378
1.1838
1.18381
1.18382
1.18382
1.18382
1.18382
1.18382
1.18382
1.18382
1.18382
0.658526
0.6585
0.658456
0.658382
0.65826
0.658056
0.657722
0.65718
0.656309
0.654932
0.652791
0.64953
0.644685
0.637694
0.627945
0.614886
0.59817
0.57781
0.554263
0.528388
0.50128
0.474041
0.447597
0.4226
0.399422
0.378206
0.358936
0.341497
0.325726
0.311446
0.29848
0.286668
0.275869
0.265963
0.256851
0.248439
0.240617
0.233315
0.226481
0.220071
0.214046
0.208375
0.203031
0.197991
0.193237
0.188755
0.184532
0.180558
0.176825
0.17333
0.170068
0.167039
0.164245
0.161694
0.159393
0.157359
0.15564
0.154267
0.153212
0.152596
0.152532
0.160585
0.171286
0.183927
0.198825
0.216397
0.237184
0.261888
0.291406
0.326876
0.369726
0.421851
0.485406
0.562041
0.652112
0.753216
0.858673
0.957872
1.04008
1.09967
1.1379
1.16012
1.17211
1.17819
1.18118
1.1826
1.18327
1.18357
1.18371
1.18377
1.1838
1.18381
1.18382
1.18382
1.18382
1.18382
1.18382
1.18382
1.18382
1.18382
0.658526
0.6585
0.658456
0.658382
0.65826
0.658057
0.657723
0.657181
0.65631
0.654933
0.652793
0.649534
0.644692
0.637704
0.62796
0.614907
0.598199
0.577848
0.55431
0.528443
0.501342
0.474109
0.447669
0.422674
0.399497
0.378281
0.35901
0.34157
0.325798
0.311517
0.29855
0.286737
0.275937
0.26603
0.256916
0.248504
0.240681
0.233378
0.226544
0.220133
0.214107
0.208435
0.20309
0.198049
0.193294
0.188809
0.184583
0.180606
0.17687
0.173371
0.170104
0.167071
0.164272
0.161714
0.159407
0.157368
0.155643
0.154266
0.153209
0.152594
0.152532
0.160237
0.170861
0.183421
0.19823
0.215698
0.236362
0.260917
0.290253
0.325499
0.368071
0.419847
0.482986
0.559169
0.648822
0.749663
0.855163
0.95479
1.03771
1.09807
1.13694
1.15959
1.17184
1.17806
1.18111
1.18257
1.18326
1.18357
1.18371
1.18377
1.1838
1.18381
1.18382
1.18382
1.18382
1.18382
1.18382
1.18382
1.18382
1.18382
0.658526
0.6585
0.658456
0.658383
0.65826
0.658057
0.657723
0.657181
0.656311
0.654935
0.652796
0.649539
0.6447
0.637716
0.627978
0.614934
0.598236
0.577896
0.55437
0.528515
0.501423
0.474197
0.447762
0.42277
0.399594
0.378378
0.359107
0.341666
0.325893
0.31161
0.298642
0.286828
0.276027
0.266119
0.257005
0.248592
0.240768
0.233466
0.226631
0.22022
0.214194
0.208521
0.203175
0.198132
0.193375
0.188889
0.18466
0.18068
0.17694
0.173436
0.170164
0.167125
0.164321
0.161757
0.159444
0.157398
0.155667
0.154288
0.153233
0.152628
0.15259
0.15977
0.170298
0.182755
0.197446
0.214777
0.235277
0.259633
0.288725
0.32367
0.365869
0.417178
0.479758
0.555332
0.644413
0.744884
0.85042
0.950602
1.03448
1.09589
1.13562
1.15887
1.17146
1.17787
1.18102
1.18253
1.18324
1.18356
1.18371
1.18377
1.1838
1.18381
1.18382
1.18382
1.18382
1.18382
1.18382
1.18382
1.18382
1.18382
0.658526
0.6585
0.658456
0.658383
0.65826
0.658057
0.657724
0.657182
0.656313
0.654937
0.6528
0.649545
0.644709
0.637731
0.628
0.614965
0.598279
0.577953
0.55444
0.528598
0.501518
0.474301
0.447872
0.422884
0.39971
0.378495
0.359223
0.341781
0.326008
0.311724
0.298755
0.286941
0.276139
0.266231
0.257116
0.248703
0.24088
0.233577
0.226742
0.220331
0.214305
0.208632
0.203285
0.198242
0.193483
0.188995
0.184764
0.18078
0.177036
0.173528
0.170251
0.167205
0.164394
0.161823
0.159503
0.157449
0.155709
0.154322
0.153259
0.152647
0.152599
0.159171
0.169587
0.181919
0.196466
0.213627
0.233922
0.258029
0.286813
0.321379
0.36311
0.413832
0.475707
0.550507
0.638857
0.73884
0.844392
0.945251
1.03033
1.09308
1.13393
1.15793
1.17098
1.17764
1.18091
1.18248
1.18321
1.18355
1.1837
1.18377
1.1838
1.18381
1.18382
1.18382
1.18382
1.18382
1.18382
1.18382
1.18382
1.18382
0.658526
0.6585
0.658456
0.658383
0.65826
0.658057
0.657724
0.657183
0.656314
0.65494
0.652804
0.649551
0.644719
0.637746
0.628023
0.614999
0.598325
0.578013
0.554516
0.528689
0.501622
0.474415
0.447994
0.423011
0.39984
0.378627
0.359356
0.341914
0.32614
0.311856
0.298887
0.287072
0.276271
0.266363
0.257248
0.248835
0.241013
0.233711
0.226877
0.220467
0.214441
0.208768
0.203421
0.198377
0.193618
0.189128
0.184894
0.180907
0.17716
0.173647
0.170364
0.167313
0.164494
0.161915
0.159586
0.157524
0.155772
0.154375
0.153304
0.152684
0.152625
0.158433
0.168719
0.180904
0.195281
0.212238
0.232288
0.256093
0.284507
0.318616
0.359781
0.409794
0.470815
0.544675
0.632124
0.731488
0.837018
0.938661
1.02518
1.08957
1.1318
1.15675
1.17037
1.17733
1.18077
1.18241
1.18318
1.18354
1.1837
1.18377
1.1838
1.18381
1.18382
1.18382
1.18382
1.18382
1.18382
1.18382
1.18382
1.18382
0.658526
0.6585
0.658456
0.658383
0.65826
0.658058
0.657725
0.657184
0.656315
0.654942
0.652807
0.649557
0.644729
0.637761
0.628045
0.615031
0.598371
0.578074
0.554593
0.528782
0.501729
0.474534
0.448122
0.423145
0.399979
0.378768
0.359498
0.342058
0.326285
0.312001
0.299033
0.287219
0.276419
0.266512
0.257398
0.248986
0.241166
0.233866
0.227034
0.220625
0.2146
0.208928
0.203582
0.198538
0.193778
0.189287
0.185052
0.181062
0.177311
0.173794
0.170506
0.167448
0.164622
0.162035
0.159696
0.157624
0.155862
0.154455
0.153374
0.152746
0.152681
0.157546
0.167688
0.179706
0.193884
0.210604
0.230365
0.253818
0.281797
0.315368
0.35587
0.405051
0.465068
0.537813
0.624181
0.722774
0.82822
0.930731
1.01894
1.08527
1.12917
1.15528
1.16961
1.17696
1.18059
1.18233
1.18314
1.18352
1.18369
1.18376
1.1838
1.18381
1.18382
1.18382
1.18382
1.18382
1.18382
1.18382
1.18382
1.18382
0.658526
0.6585
0.658456
0.658383
0.65826
0.658058
0.657725
0.657184
0.656316
0.654944
0.652811
0.649563
0.644737
0.637774
0.628066
0.615061
0.598412
0.57813
0.554665
0.528869
0.501831
0.474649
0.448247
0.423278
0.400117
0.378911
0.359644
0.342206
0.326436
0.312154
0.299188
0.287377
0.276579
0.266674
0.257562
0.249153
0.241335
0.234038
0.227209
0.220802
0.21478
0.209111
0.203766
0.198723
0.193963
0.189472
0.185235
0.181244
0.17749
0.173968
0.170675
0.167611
0.164778
0.162183
0.159835
0.157753
0.155978
0.154562
0.153474
0.152839
0.152769
0.156521
0.166502
0.17833
0.192281
0.208727
0.228155
0.251199
0.278676
0.311629
0.35137
0.399596
0.458451
0.529902
0.614996
0.712644
0.817912
0.921348
1.01146
1.08008
1.12597
1.1535
1.16867
1.1765
1.18037
1.18223
1.1831
1.1835
1.18368
1.18376
1.18379
1.18381
1.18382
1.18382
1.18382
1.18382
1.18382
1.18382
1.18382
1.18382
0.658526
0.6585
0.658456
0.658383
0.658261
0.658058
0.657725
0.657185
0.656317
0.654946
0.652813
0.649567
0.644744
0.637784
0.628081
0.615084
0.598445
0.578175
0.554724
0.528943
0.501919
0.474749
0.448359
0.423399
0.400246
0.379046
0.359785
0.342352
0.326585
0.312308
0.299346
0.287538
0.276744
0.266843
0.257735
0.24933
0.241517
0.234224
0.227399
0.220997
0.214979
0.209312
0.20397
0.198929
0.194171
0.18968
0.185444
0.181451
0.177695
0.174169
0.170871
0.167801
0.164961
0.162356
0.159999
0.157907
0.156123
0.154699
0.153606
0.152974
0.152918
0.155363
0.165173
0.176792
0.190488
0.206623
0.225671
0.248251
0.275157
0.307406
0.346282
0.393429
0.450969
0.520939
0.604552
0.701057
0.806016
0.910393
1.00262
1.07387
1.12212
1.15133
1.16754
1.17594
1.1801
1.1821
1.18304
1.18347
1.18367
1.18375
1.18379
1.18381
1.18382
1.18382
1.18382
1.18382
1.18382
1.18382
1.18382
1.18382
0.658526
0.6585
0.658456
0.658383
0.658261
0.658058
0.657726
0.657185
0.656318
0.654947
0.652815
0.649569
0.644748
0.63779
0.62809
0.615097
0.598465
0.578203
0.554762
0.528993
0.501981
0.474824
0.448445
0.423497
0.400353
0.379162
0.359909
0.342483
0.326723
0.312452
0.299496
0.287695
0.276907
0.267012
0.25791
0.249511
0.241705
0.234419
0.2276
0.221203
0.215191
0.209529
0.204191
0.199154
0.194399
0.18991
0.185674
0.181681
0.177923
0.174394
0.171091
0.168014
0.165164
0.162548
0.160178
0.158071
0.156269
0.15483
0.153732
0.153116
0.153124
0.154185
0.163787
0.175155
0.188551
0.204327
0.222943
0.244996
0.271259
0.302719
0.340625
0.386569
0.442637
0.510937
0.59285
0.687986
0.792462
0.897746
0.992275
1.0665
1.1175
1.14871
1.16617
1.17526
1.17977
1.18195
1.18297
1.18344
1.18365
1.18375
1.18379
1.18381
1.18382
1.18382
1.18382
1.18382
1.18382
1.18382
1.18382
1.18382
0.658526
0.6585
0.658456
0.658383
0.658261
0.658058
0.657726
0.657186
0.656319
0.654947
0.652816
0.64957
0.644748
0.63779
0.62809
0.615096
0.598465
0.578205
0.554768
0.529005
0.502003
0.474858
0.448491
0.423555
0.400424
0.379244
0.360002
0.342587
0.326837
0.312576
0.29963
0.287838
0.277059
0.267173
0.258079
0.249689
0.241892
0.234614
0.227804
0.221416
0.21541
0.209756
0.204425
0.199393
0.194643
0.190158
0.185924
0.181931
0.178172
0.17464
0.171332
0.168246
0.165384
0.162752
0.160359
0.158222
0.156367
0.154871
0.153687
0.152933
0.152713
0.153193
0.162483
0.173515
0.186539
0.201888
0.220004
0.241461
0.267004
0.297586
0.33442
0.379039
0.433479
0.499913
0.579898
0.673419
0.777194
0.883298
0.980262
1.05782
1.11199
1.14557
1.16451
1.17444
1.17938
1.18177
1.18289
1.1834
1.18364
1.18374
1.18379
1.18381
1.18382
1.18382
1.18382
1.18382
1.18382
1.18382
1.18382
1.18382
0.658526
0.6585
0.658456
0.658383
0.658261
0.658059
0.657726
0.657186
0.656319
0.654948
0.652816
0.64957
0.644747
0.637787
0.628083
0.615086
0.59845
0.578186
0.554745
0.528981
0.50198
0.474839
0.44848
0.423555
0.400438
0.379274
0.360047
0.342647
0.326912
0.312665
0.299732
0.287953
0.277187
0.267314
0.258231
0.249853
0.242068
0.234802
0.228003
0.221626
0.215631
0.209986
0.204664
0.199641
0.194897
0.190417
0.186188
0.182198
0.178439
0.174905
0.171592
0.168499
0.165625
0.162976
0.160559
0.158389
0.156481
0.154905
0.153656
0.152752
0.152308
0.152442
0.161285
0.171884
0.184456
0.199311
0.216862
0.237657
0.262405
0.292026
0.32769
0.370872
0.423543
0.487923
0.565747
0.65738
0.760189
0.86696
0.96644
1.04766
1.10546
1.14181
1.16252
1.17345
1.17891
1.18155
1.18279
1.18336
1.18362
1.18373
1.18378
1.18381
1.18381
1.18382
1.18382
1.18382
1.18382
1.18382
1.18382
1.18382
0.658526
0.6585
0.658456
0.658383
0.658261
0.658059
0.657727
0.657187
0.65632
0.654949
0.652817
0.649569
0.644744
0.637779
0.628069
0.615062
0.598414
0.578137
0.554685
0.528913
0.501908
0.474768
0.448416
0.4235
0.400394
0.379242
0.36003
0.342646
0.326929
0.312701
0.299787
0.288026
0.277278
0.267421
0.258354
0.249992
0.242222
0.234972
0.228188
0.221824
0.215843
0.210211
0.2049
0.199888
0.195154
0.190683
0.18646
0.182475
0.17872
0.175187
0.171872
0.168773
0.165891
0.163229
0.160795
0.158601
0.156668
0.155055
0.153774
0.152832
0.152361
0.152503
0.159994
0.170115
0.182203
0.196531
0.213481
0.233567
0.257467
0.286058
0.320467
0.362114
0.412887
0.475037
0.550472
0.639935
0.741474
0.848684
0.95068
1.03587
1.09777