/*--------------------------------*- C++ -*----------------------------------*\
  =========                 |
  \\      /  F ield         | OpenFOAM: The Open Source CFD Toolbox
   \\    /   O peration     | Website:  https://openfoam.org
    \\  /    A nd           | Version:  8
     \\/     M anipulation  |
\*---------------------------------------------------------------------------*/
FoamFile
{
    version     2.0;
    format      ascii;
    class       volScalarField;
    location    "420/fluid";
    object      T;
}
// * * * * * * * * * * * * * * * * * * * * * * * * * * * * * * * * * * * * * //

dimensions      [0 0 0 1 0 0 0];

internalField   nonuniform List<scalar> 
4000
(
293.004
293.016
293.037
293.071
293.129
293.224
293.382
293.638
294.052
294.714
295.756
297.369
299.822
303.469
308.751
316.183
326.301
339.601
356.455
377.038
401.318
429.077
459.973
493.614
529.612
567.626
607.377
648.646
691.269
735.119
780.097
826.114
873.083
920.911
969.488
1018.71
1068.6
1119.12
1170.17
1221.65
1273.47
1325.53
1377.71
1429.9
1481.99
1533.85
1585.36
1636.39
1686.78
1736.39
1785.06
1832.6
1878.81
1923.46
1966.28
2006.95
2045.08
2080.17
2110.84
2137.21
2158.72
2173.23
2178.52
2083.62
1971.48
1852.48
1728.88
1602.53
1474.99
1347.59
1221.58
1098.12
978.419
863.541
754.547
653.322
562.213
483.616
419.59
371.19
337.77
316.854
304.937
298.698
295.636
294.19
293.527
293.23
293.099
293.042
293.018
293.007
293.003
293.001
293.001
293
293
293
293
293
293.004
293.016
293.037
293.072
293.13
293.227
293.387
293.647
294.067
294.738
295.791
297.42
299.888
303.545
308.825
316.229
326.284
339.475
356.167
376.55
400.608
428.145
458.834
492.297
528.154
566.067
605.756
647
689.629
733.513
778.55
824.648
871.719
919.666
968.378
1017.74
1067.79
1118.47
1169.7
1221.37
1273.39
1325.63
1378
1430.38
1482.65
1534.7
1586.39
1637.59
1688.14
1737.91
1786.71
1834.37
1880.67
1925.38
1968.22
2008.86
2046.89
2081.8
2112.18
2138.9
2160.24
2174.98
2181.35
2076.04
1961.57
1840.66
1715.48
1587.8
1459.11
1330.75
1203.92
1079.84
959.735
844.679
735.909
635.525
546.001
469.767
408.726
363.532
332.997
314.231
303.654
298.121
295.391
294.091
293.488
293.215
293.093
293.04
293.017
293.007
293.003
293.001
293.001
293
293
293
293
293
293.004
293.016
293.037
293.073
293.132
293.23
293.392
293.656
294.082
294.761
295.824
297.465
299.944
303.609
308.889
316.28
326.304
339.434
356.029
376.277
400.17
427.519
458.017
491.295
526.987
564.76
604.34
645.508
688.094
731.969
777.028
823.179
870.334
918.391
967.244
1016.78
1067.02
1117.93
1169.39
1221.29
1273.55
1326.06
1378.7
1431.36
1483.92
1536.26
1588.23
1639.7
1690.52
1740.53
1789.56
1837.42
1883.88
1928.69
1971.57
2012.15
2049.99
2084.39
2114.08
2139.7
2159.25
2171.28
2173.65
2063.2
1944.99
1821.28
1693.97
1564.67
1434.77
1305.56
1178.26
1054.12
934.401
820.158
712.848
614.721
528.229
455.617
398.408
356.744
328.989
312.091
302.604
297.635
295.175
293.997
293.448
293.198
293.086
293.037
293.016
293.007
293.003
293.001
293
293
293
293
293
293
293.004
293.016
293.038
293.074
293.133
293.232
293.396
293.661
294.09
294.771
295.839
297.483
299.966
303.629
308.899
316.267
326.246
339.309
355.817
375.96
399.733
426.956
457.327
490.486
526.07
563.753
603.262
644.38
686.941
730.814
775.898
822.105
869.346
917.526
966.534
1016.25
1066.68
1117.78
1169.46
1221.62
1274.16
1326.96
1379.92
1432.9
1485.79
1538.45
1590.75
1642.55
1693.68
1743.99
1793.29
1841.38
1888.04
1932.99
1975.92
2016.44
2054.03
2087.69
2116.53
2140.7
2157.71
2165.18
2158.13
2043.82
1922.67
1796.71
1667.71
1537.18
1406.48
1276.89
1149.64
1026.01
907.258
794.424
689.157
593.768
510.617
441.741
388.315
350.051
324.961
309.878
301.479
297.097
294.927
293.886
293.4
293.177
293.078
293.033
293.014
293.006
293.003
293.001
293
293
293
293
293
293
293.004
293.017
293.038
293.074
293.134
293.234
293.398
293.665
294.095
294.778
295.848
297.494
299.977
303.639
308.903
316.256
326.207
339.228
355.677
375.745
399.433
426.566
456.848
489.924
525.436
563.061
602.528
643.624
686.185
730.085
775.22
821.503
868.844
917.142
966.277
1016.14
1066.75
1118.07
1169.99
1222.42
1275.24
1328.35
1381.62
1434.93
1488.16
1541.16
1593.8
1645.93
1697.39
1748
1797.59
1845.94
1892.81
1937.94
1980.99
2021.57
2059.17
2092.68
2121.37
2145.39
2162.38
2170.37
2134.17
2018.67
1896.26
1769.16
1639.23
1508.05
1377.05
1247.52
1120.73
997.995
880.533
769.424
666.482
574.029
494.31
429.133
379.327
344.208
321.502
307.998
300.527
296.64
294.715
293.791
293.358
293.159
293.07
293.03
293.013
293.005
293.002
293.001
293
293
293
293
293
293
293.004
293.017
293.038
293.074
293.134
293.234
293.399
293.666
294.097
294.781
295.851
297.497
299.979
303.636
308.892
316.229
326.158
339.147
355.555
375.577
399.212
426.292
456.523
489.556
525.035
562.641
602.104
643.211
685.799
729.741
774.934
821.286
868.711
917.117
966.394
1016.43
1067.23
1118.77
1170.94
1223.63
1276.73
1330.13
1383.71
1437.34
1490.89
1544.23
1597.19
1649.64
1701.41
1752.31
1802.16
1850.74
1897.81
1943.1
1986.26
2026.9
2064.5
2097.86
2126.32
2150.12
2166.93
2174.79
2108.35
1992.28
1869.15
1741.36
1610.89
1479.41
1348.4
1219.19
1093.11
971.462
855.411
746.123
645.564
556.008
479.576
417.857
371.356
339.05
318.447
306.327
299.671
296.224
294.52
293.702
293.318
293.142
293.062
293.027
293.012
293.005
293.002
293.001
293
293
293
293
293
293
293.004
293.017
293.038
293.074
293.135
293.235
293.399
293.667
294.098
294.782
295.853
297.499
299.979
303.633
308.882
316.21
326.124
339.093
355.477
375.47
399.077
426.131
456.341
489.359
524.832
562.441
601.917
643.048
685.668
729.653
774.908
821.346
868.883
917.422
966.852
1017.06
1068.06
1119.81
1172.21
1225.15
1278.52
1332.2
1386.07
1440
1493.85
1547.49
1600.76
1653.49
1705.53
1756.68
1806.75
1855.52
1902.74
1948.11
1991.3
2031.91
2069.35
2102.37
2130.64
2154.24
2170.7
2177.74
2084.2
1967.67
1843.8
1715.31
1584.34
1452.63
1321.69
1192.9
1067.59
947.073
832.429
724.953
626.699
539.892
466.529
407.983
364.463
334.643
315.862
304.921
298.953
295.875
294.356
293.626
293.284
293.127
293.056
293.024
293.01
293.004
293.002
293.001
293
293
293
293
293
293
293.004
293.017
293.038
293.074
293.135
293.235
293.4
293.667
294.098
294.783
295.853
297.498
299.977
303.63
308.875
316.197
326.103
339.062
355.434
375.415
399.012
426.057
456.264
489.283
524.762
562.383
601.882
643.049
685.722
729.777
775.118
821.657
869.311
917.984
967.564
1017.94
1069.13
1121.08
1173.7
1226.88
1280.5
1334.44
1388.57
1442.78
1496.9
1550.81
1604.34
1657.33
1709.59
1760.95
1811.19
1860.08
1907.36
1952.73
1995.82
2036.21
2073.43
2105.97
2133.86
2156.95
2173.02
2180.08
2068.77
1948.59
1822.37
1692.38
1560.52
1428.42
1297.49
1169.1
1044.53
925.095
811.793
706.043
609.951
525.685
455.124
399.433
358.549
330.892
313.673
303.732
298.344
295.579
294.215
293.562
293.255
293.114
293.05
293.022
293.009
293.004
293.002
293.001
293
293
293
293
293
293
293.004
293.017
293.038
293.074
293.135
293.235
293.4
293.668
294.099
294.783
295.853
297.498
299.977
303.628
308.872
316.192
326.095
339.05
355.418
375.397
398.992
426.039
456.252
489.285
524.788
562.443
601.986
643.206
685.944
730.076
775.505
822.147
869.918
918.722
968.447
1018.98
1070.35
1122.5
1175.32
1228.71
1282.56
1336.74
1391.11
1445.56
1499.93
1554.08
1607.83
1661.03
1713.49
1765.01
1815.37
1864.33
1911.62
1956.91
1999.81
2039.87
2076.4
2107.77
2135.02
2155.89
2168.71
2170.77
2054.76
1931.38
1803.02
1671.67
1539.03
1406.6
1275.74
1147.75
1023.92
905.493
793.445
689.304
595.21
513.266
445.233
392.087
353.519
327.731
311.84
302.741
297.838
295.331
294.098
293.507
293.23
293.103
293.045
293.02
293.008
293.004
293.002
293.001
293
293
293
293
293
293
293.004
293.017
293.038
293.075
293.135
293.235
293.4
293.668
294.099
294.784
295.854
297.499
299.977
303.628
308.872
316.192
326.095
339.052
355.424
375.409
399.014
426.077
456.311
489.371
524.908
562.604
602.196
643.474
686.28
730.49
776.009
822.753
870.636
919.566
969.43
1020.11
1071.65
1123.97
1176.99
1230.58
1284.63
1339.01
1393.61
1448.27
1502.85
1557.2
1611.15
1664.53
1717.15
1768.79
1819.25
1868.26
1915.53
1960.73
2003.45
2043.17
2078.97
2109.57
2135.62
2154.51
2164.01
2157.99
2039.48
1914.29
1784.67
1652.51
1519.44
1386.91
1256.24
1128.72
1005.62
888.128
777.237
674.581
582.313
502.476
436.709
385.811
349.259
325.074
310.31
301.916
297.416
295.126
294.001
293.462
293.21
293.094
293.041
293.018
293.008
293.003
293.001
293.001
293
293
293
293
293
293
293.004
293.017
293.038
293.075
293.135
293.235
293.4
293.668
294.099
294.784
295.855
297.5
299.979
303.632
308.877
316.2
326.108
339.071
355.453
375.451
399.074
426.159
456.421
489.514
525.089
562.83
602.474
643.812
686.686
730.973
776.58
823.42
871.412
920.46
970.451
1021.27
1072.96
1125.44
1178.63
1232.39
1286.63
1341.2
1395.98
1450.83
1505.6
1560.12
1614.24
1667.77
1720.52
1772.27
1822.8
1871.86
1919.14
1964.3
2006.93
2046.52
2082.11
2112.52
2138.51
2157.62
2167.99
2142.67
2023.31
1897.43
1767.3
1634.84
1501.67
1369.24
1238.88
1111.87
989.484
872.874
763.058
661.77
571.143
493.172
429.408
380.48
345.671
322.854
309.037
301.232
297.068
294.956
293.92
293.425
293.193
293.086
293.038
293.017
293.007
293.003
293.001
293.001
293
293
293
293
293
293
293.004
293.017
293.038
293.075
293.135
293.235
293.4
293.668
294.1
294.785
295.856
297.503
299.983
303.637
308.886
316.214
326.129
339.102
355.498
375.513
399.158
426.269
456.561
489.69
525.305
563.093
602.789
644.186
687.126
731.488
777.176
824.108
872.199
921.355
971.462
1022.41
1074.23
1126.86
1180.19
1234.12
1288.51
1343.24
1398.19
1453.19
1508.12
1562.79
1617.05
1670.7
1723.55
1775.4
1825.99
1875.09
1922.37
1967.52
2010.1
2049.62
2085.11
2115.43
2141.35
2160.47
2171
2127.67
2007.98
1881.8
1751.48
1618.95
1485.84
1353.61
1223.61
1097.11
975.402
859.602
750.765
650.697
561.532
485.215
423.2
375.979
342.665
321.005
307.983
300.668
296.781
294.816
293.854
293.394
293.179
293.08
293.035
293.015
293.007
293.003
293.001
293
293
293
293
293
293
293
293.004
293.017
293.038
293.075
293.135
293.236
293.4
293.669
294.101
294.786
295.858
297.505
299.988
303.645
308.898
316.232
326.155
339.141
355.551
375.586
399.255
426.394
456.717
489.882
525.538
563.371
603.117
644.57
687.572
732.002
777.766
824.78
872.962
922.215
972.425
1023.48
1075.42
1128.18
1181.64
1235.7
1290.23
1345.1
1400.18
1455.33
1510.38
1565.17
1619.54
1673.29
1726.23
1778.14
1828.78
1877.89
1925.18
1970.29
2012.82
2052.25
2087.59
2117.78
2143.6
2162.63
2173.07
2114.62
1994.48
1868.03
1737.57
1605.02
1472.01
1340.01
1210.37
1084.37
963.29
848.204
740.221
641.228
553.342
478.466
417.967
372.208
340.163
319.476
307.115
300.204
296.545
294.701
293.799
293.369
293.167
293.075
293.033
293.014
293.006
293.003
293.001
293
293
293
293
293
293
293
293.004
293.017
293.038
293.075
293.135
293.236
293.401
293.669
294.101
294.787
295.86
297.508
299.993
303.653
308.91
316.251
326.184
339.182
355.609
375.664
399.356
426.522
456.878
490.077
525.771
563.646
603.439
644.943
688
732.492
778.323
825.411
873.672
923.01
973.31
1024.46
1076.51
1129.37
1182.95
1237.12
1291.76
1346.75
1401.94
1457.2
1512.35
1567.25
1621.7
1675.53
1728.53
1780.48
1831.15
1880.26
1927.53
1972.59
2015.04
2054.38
2089.58
2119.65
2145.34
2164.23
2174.52
2103.4
1982.87
1856.18
1725.61
1593.07
1460.2
1328.43
1199.12
1073.55
953.005
838.535
731.297
633.233
546.449
472.807
413.601
369.081
338.099
318.221
306.405
299.826
296.353
294.607
293.755
293.348
293.158
293.07
293.031
293.014
293.006
293.002
293.001
293
293
293
293
293
293
293
293.004
293.017
293.038
293.075
293.135
293.236
293.401
293.67
294.102
294.788
295.862
297.512
299.998
303.661
308.923
316.271
326.213
339.223
355.666
375.74
399.455
426.647
457.031
490.262
525.991
563.904
603.738
645.286
688.393
732.938
778.828
825.979
874.308
923.718
974.094
1025.33
1077.46
1130.41
1184.08
1238.34
1293.08
1348.16
1403.45
1458.79
1514.03
1569
1623.52
1677.4
1730.44
1782.42
1833.09
1882.2
1929.43
1974.43
2016.79
2056.04
2091.11
2121.05
2146.6
2165.36
2175.45
2094.17
1973.21
1846.27
1715.6
1583.07
1450.31
1318.74
1189.7
1064.5
944.417
830.472
723.868
626.592
540.738
468.135
410.01
366.521
336.418
317.203
305.831
299.522
296.199
294.532
293.719
293.331
293.15
293.067
293.03
293.013
293.006
293.002
293.001
293
293
293
293
293
293
293
293.004
293.017
293.038
293.075
293.135
293.236
293.401
293.67
294.103
294.79
295.864
297.515
300.003
303.669
308.936
316.289
326.24
339.262
355.719
375.81
399.546
426.76
457.17
490.428
526.187
564.132
604.001
645.589
688.737
733.327
779.265
826.468
874.853
924.322
974.76
1026.06
1078.26
1131.29
1185.03
1239.37
1294.18
1349.33
1404.69
1460.1
1515.4
1570.42
1624.99
1678.91
1731.97
1783.96
1834.62
1883.7
1930.88
1975.82
2018.13
2057.29
2092.22
2122.05
2147.49
2166.13
2176.02
2086.75
1965.36
1838.18
1707.41
1574.88
1442.2
1310.8
1182
1057.12
937.416
823.904
717.827
621.201
536.113
464.362
407.121
364.468
335.075
316.392
305.376
299.28
296.077
294.473
293.691
293.318
293.144
293.064
293.028
293.012
293.005
293.002
293.001
293
293
293
293
293
293
293
293.004
293.017
293.038
293.075
293.136
293.236
293.401
293.67
294.103
294.791
295.865
297.518
300.007
303.676
308.946
316.305
326.264
339.295
355.764
375.871
399.623
426.857
457.287
490.568
526.352
564.324
604.221
645.839
689.02
733.646
779.623
826.868
875.296
924.811
975.297
1026.65
1078.9
1131.98
1185.78
1240.17
1295.04
1350.25
1405.66
1461.12
1516.46
1571.52
1626.11
1680.05
1733.12
1785.1
1835.74
1884.78
1931.93
1976.82
2019.06
2058.14
2093
2122.78
2148.24
2167.01
2177.2
2080.99
1959.18
1831.78
1700.9
1568.38
1435.77
1304.51
1175.92
1051.29
931.9
818.739
713.084
616.978
532.498
461.421
404.875
362.877
334.036
315.766
305.024
299.094
295.983
294.427
293.669
293.308
293.14
293.062
293.027
293.012
293.005
293.002
293.001
293
293
293
293
293
293
293
293.004
293.017
293.038
293.075
293.136
293.236
293.402
293.671
294.104
294.791
295.867
297.52
300.011
303.681
308.955
316.318
326.282
339.321
355.8
375.918
399.683
426.932
457.378
490.677
526.48
564.471
604.391
646.031
689.238
733.89
779.896
827.17
875.63
925.179
975.698
1027.08
1079.38
1132.5
1186.33
1240.77
1295.67
1350.92
1406.36
1461.85
1517.22
1572.3
1626.91
1680.84
1733.91
1785.87
1836.49
1885.5
1932.6
1977.43
2019.59
2058.6
2093.37
2123.08
2148.5
2167.28
2177.46
2076.72
1954.54
1826.94
1695.99
1563.47
1430.93
1299.79
1171.36
1046.94
927.791
814.9
709.567
613.854
529.831
459.257
403.228
361.715
333.279
315.31
304.767
298.957
295.914
294.393
293.653
293.301
293.136
293.061
293.027
293.012
293.005
293.002
293.001
293
293
293
293
293
293
293
293.004
293.017
293.038
293.075
293.136
293.236
293.402
293.671
294.104
294.792
295.868
297.521
300.013
303.685
308.961
316.327
326.295
339.339
355.824
375.95
399.724
426.983
457.441
490.751
526.566
564.571
604.505
646.161
689.384
734.054
780.078
827.372
875.853
925.422
975.963
1027.37
1079.68
1132.83
1186.69
1241.15
1296.07
1351.34
1406.8
1462.31
1517.69
1572.78
1627.38
1681.32
1734.37
1786.32
1836.91
1885.88
1932.92
1977.69
2019.79
2058.72
2093.41
2123.08
2148.48
2167.3
2177.59
2073.92
1951.4
1823.63
1692.62
1560.11
1427.64
1296.59
1168.29
1044.02
925.042
812.341
707.232
611.786
528.073
457.836
402.152
360.959
332.789
315.015
304.601
298.869
295.87
294.372
293.643
293.296
293.134
293.06
293.026
293.011
293.005
293.002
293.001
293
293
293
293
293
293
293
293.004
293.017
293.038
293.075
293.136
293.236
293.402
293.671
294.104
294.792
295.868
297.522
300.014
303.687
308.963
316.331
326.301
339.348
355.836
375.966
399.744
427.008
457.471
490.787
526.609
564.621
604.561
646.225
689.456
734.135
780.168
827.472
875.962
925.541
976.092
1027.51
1079.83
1132.99
1186.86
1241.32
1296.26
1351.54
1407.01
1462.52
1517.9
1572.99
1627.6
1681.52
1734.56
1786.49
1837.06
1885.99
1933
1977.72
2019.77
2058.65
2093.28
2122.91
2148.31
2167.18
2177.64
2072.53
1949.76
1821.87
1690.83
1558.34
1425.92
1294.95
1166.73
1042.54
923.667
811.072
706.085
610.779
527.222
457.155
401.639
360.601
332.559
314.878
304.524
298.828
295.849
294.362
293.638
293.294
293.133
293.059
293.026
293.011
293.005
293.002
293.001
293
293
293
293
293
293
293
293.004
293.017
293.038
293.075
293.136
293.236
293.402
293.671
294.104
294.792
295.868
297.522
300.014
303.687
308.964
316.331
326.301
339.348
355.837
375.966
399.745
427.009
457.472
490.789
526.61
564.622
604.563
646.227
689.457
734.136
780.169
827.473
875.964
925.543
976.094
1027.51
1079.83
1132.99
1186.86
1241.33
1296.27
1351.54
1407.01
1462.52
1517.9
1572.99
1627.6
1681.53
1734.57
1786.49
1837.06
1886
1933
1977.72
2019.77
2058.65
2093.28
2122.91
2148.31
2167.18
2177.64
2072.53
1949.76
1821.87
1690.83
1558.34
1425.92
1294.94
1166.72
1042.54
923.664
811.069
706.082
610.776
527.22
457.153
401.638
360.601
332.559
314.878
304.524
298.828
295.849
294.362
293.638
293.294
293.133
293.059
293.026
293.011
293.005
293.002
293.001
293
293
293
293
293
293
293
293.004
293.017
293.038
293.075
293.136
293.236
293.402
293.671
294.104
294.792
295.868
297.521
300.013
303.686
308.961
316.327
326.296
339.34
355.826
375.952
399.727
426.986
457.444
490.755
526.57
564.575
604.509
646.166
689.388
734.059
780.083
827.377
875.858
925.427
975.968
1027.38
1079.69
1132.83
1186.69
1241.15
1296.08
1351.35
1406.81
1462.31
1517.69
1572.78
1627.39
1681.33
1734.38
1786.32
1836.92
1885.88
1932.93
1977.7
2019.79
2058.73
2093.42
2123.08
2148.48
2167.3
2177.59
2073.9
1951.39
1823.61
1692.6
1560.09
1427.62
1296.58
1168.28
1044.01
925.032
812.331
707.224
611.779
528.067
457.832
402.148
360.956
332.787
315.014
304.601
298.869
295.87
294.372
293.643
293.296
293.134
293.06
293.026
293.011
293.005
293.002
293.001
293
293
293
293
293
293
293
293.004
293.017
293.038
293.075
293.136
293.236
293.402
293.671
294.104
294.791
295.867
297.52
300.011
303.682
308.956
316.319
326.284
339.323
355.803
375.921
399.687
426.937
457.384
490.683
526.486
564.478
604.398
646.039
689.245
733.898
779.904
827.179
875.639
925.187
975.708
1027.09
1079.39
1132.51
1186.34
1240.78
1295.68
1350.93
1406.37
1461.86
1517.23
1572.31
1626.92
1680.85
1733.92
1785.88
1836.5
1885.51
1932.61
1977.44
2019.6
2058.61
2093.37
2123.09
2148.51
2167.28
2177.46
2076.7
1954.52
1826.91
1695.96
1563.44
1430.91
1299.77
1171.35
1046.92
927.774
814.884
709.553
613.841
529.821
459.249
403.222
361.711
333.277
315.309
304.767
298.957
295.914
294.393
293.653
293.301
293.136
293.061
293.027
293.012
293.005
293.002
293.001
293
293
293
293
293
293
293
293.004
293.017
293.038
293.075
293.136
293.236
293.401
293.67
294.103
294.791
295.866
297.518
300.008
303.677
308.948
316.307
326.266
339.298
355.768
375.876
399.628
426.863
457.294
490.576
526.361
564.333
604.231
645.849
689.031
733.657
779.635
826.88
875.308
924.824
975.31
1026.66
1078.91
1132
1185.79
1240.19
1295.06
1350.27
1405.67
1461.13
1516.47
1571.53
1626.13
1680.07
1733.13
1785.11
1835.75
1884.8
1931.94
1976.83
2019.07
2058.15
2093.01
2122.79
2148.24
2167.02
2177.2
2080.96
1959.15
1831.74
1700.87
1568.34
1435.74
1304.48
1175.89
1051.26
931.875
818.716
713.064
616.96
532.484
461.409
404.866
362.871
334.032
315.764
305.023
299.093
295.982
294.427
293.669
293.308
293.14
293.062
293.027
293.012
293.005
293.002
293.001
293
293
293
293
293
293
293
293.004
293.017
293.038
293.075
293.135
293.236
293.401
293.67
294.103
294.79
295.864
297.515
300.004
303.67
308.937
316.291
326.243
339.266
355.724
375.817
399.553
426.769
457.179
490.438
526.198
564.144
604.014
645.602
688.75
733.341
779.28
826.484
874.868
924.338
974.777
1026.08
1078.28
1131.3
1185.05
1239.38
1294.2
1349.35
1404.71
1460.12
1515.42
1570.44
1625.01
1678.93
1731.99
1783.97
1834.64
1883.71
1930.89
1975.84
2018.14
2057.3
2092.23
2122.06
2147.49
2166.13
2176.02
2086.7
1965.31
1838.13
1707.36
1574.84
1442.16
1310.76
1181.97
1057.08
937.383
823.875
717.801
621.178
536.094
464.346
407.109
364.46
335.07
316.389
305.374
299.279
296.076
294.472
293.691
293.318
293.144
293.064
293.028
293.012
293.005
293.002
293.001
293
293
293
293
293
293
293
293.004
293.017
293.038
293.075
293.135
293.236
293.401
293.67
294.102
294.789
295.862
297.512
299.999
303.663
308.925
316.274
326.217
339.228
355.672
375.748
399.464
426.657
457.043
490.274
526.004
563.918
603.753
645.302
688.41
732.956
778.846
825.998
874.327
923.738
974.115
1025.35
1077.48
1130.44
1184.1
1238.37
1293.11
1348.19
1403.47
1458.81
1514.05
1569.02
1623.54
1677.43
1730.47
1782.44
1833.12
1882.22
1929.45
1974.45
2016.81
2056.06
2091.12
2121.06
2146.61
2165.37
2175.46
2094.11
1973.15
1846.21
1715.54
1583.02
1450.25
1318.69
1189.66
1064.46
944.377
830.435
723.835
626.562
540.713
468.115
409.995
366.51
336.411
317.199
305.829
299.52
296.198
294.532
293.719
293.331
293.15
293.067
293.03
293.013
293.006
293.002
293.001
293
293
293
293
293
293
293
293.004
293.017
293.038
293.075
293.135
293.236
293.401
293.669
294.101
294.787
295.86
297.509
299.994
303.654
308.913
316.254
326.189
339.188
355.616
375.673
399.367
426.535
456.891
490.092
525.787
563.663
603.457
644.962
688.02
732.513
778.345
825.433
873.695
923.034
973.335
1024.49
1076.53
1129.4
1182.97
1237.14
1291.79
1346.78
1401.97
1457.23
1512.38
1567.28
1621.73
1675.56
1728.56
1780.51
1831.18
1880.29
1927.55
1972.62
2015.07
2054.4
2089.6
2119.67
2145.36
2164.24
2174.53
2103.32
1982.79
1856.11
1725.54
1593
1460.13
1328.37
1199.06
1073.49
952.955
838.49
731.256
633.197
546.418
472.783
413.582
369.068
338.09
318.215
306.402
299.825
296.353
294.607
293.755
293.348
293.158
293.07
293.031
293.014
293.006
293.002
293.001
293
293
293
293
293
293
293
293.004
293.017
293.038
293.075
293.135
293.236
293.401
293.669
294.101
294.786
295.858
297.506
299.989
303.647
308.9
316.235
326.16
339.147
355.56
375.597
399.267
426.407
456.733
489.899
525.557
563.391
603.138
644.592
687.595
732.026
777.791
824.806
872.988
922.242
972.454
1023.51
1075.45
1128.21
1181.68
1235.73
1290.26
1345.14
1400.22
1455.36
1510.41
1565.21
1619.58
1673.33
1726.27
1778.17
1828.81
1877.92
1925.21
1970.32
2012.84
2052.28
2087.61
2117.8
2143.62
2162.64
2173.07
2114.52
1994.38
1867.94
1737.49
1604.94
1471.93
1339.94
1210.3
1084.3
963.231
848.151
740.172
641.185
553.306
478.436
417.944
372.192
340.152
319.469
307.111
300.203
296.544
294.7
293.799
293.368
293.167
293.075
293.033
293.014
293.006
293.003
293.001
293
293
293
293
293
293
293
293.004
293.017
293.038
293.075
293.135
293.235
293.4
293.669
294.1
294.785
295.857
297.503
299.984
303.639
308.889
316.218
326.135
339.11
355.507
375.525
399.172
426.285
456.579
489.709
525.326
563.115
602.813
644.211
687.152
731.515
777.205
824.137
872.23
921.387
971.495
1022.44
1074.26
1126.9
1180.23
1234.15
1288.55
1343.28
1398.22
1453.23
1508.16
1562.83
1617.09
1670.74
1723.59
1775.43
1826.03
1875.12
1922.41
1967.55
2010.13
2049.65
2085.14
2115.45
2141.37
2160.49
2171.02
2127.58
2007.88
1881.71
1751.39
1618.86
1485.75
1353.53
1223.53
1097.04
975.334
859.539
750.707
650.647
561.488
485.18
423.173
375.96
342.652
320.997
307.979
300.666
296.78
294.815
293.853
293.394
293.179
293.08
293.035
293.015
293.007
293.003
293.001
293
293
293
293
293
293
293
293.004
293.017
293.038
293.075
293.135
293.235
293.4
293.668
294.1
294.785
295.856
297.501
299.981
303.634
308.881
316.205
326.115
339.08
355.464
375.464
399.09
426.177
456.44
489.535
525.112
562.855
602.501
643.84
686.715
731.004
776.612
823.454
871.447
920.496
970.488
1021.31
1073
1125.49
1178.67
1232.44
1286.67
1341.24
1396.02
1450.87
1505.64
1560.17
1614.28
1667.81
1720.56
1772.31
1822.85
1871.9
1919.18
1964.34
2006.96
2046.55
2082.14
2112.55
2138.54
2157.65
2168.02
2142.55
2023.21
1897.32
1767.2
1634.74
1501.57
1369.15
1238.8
1111.79
989.407
872.802
762.992
661.711
571.092
493.131
429.375
380.457
345.656
322.844
309.032
301.23
297.067
294.955
293.92
293.425
293.193
293.086
293.038
293.016
293.007
293.003
293.001
293.001
293
293
293
293
293
293
293.004
293.017
293.038
293.075
293.135
293.235
293.4
293.668
294.099
294.784
295.855
297.5
299.979
303.631
308.876
316.197
326.102
339.061
355.436
375.423
399.031
426.097
456.333
489.396
524.934
562.632
602.226
643.506
686.313
730.524
776.045
822.79
870.675
919.606
969.471
1020.16
1071.69
1124.02
1177.03
1230.62
1284.67
1339.06
1393.66
1448.32
1502.9
1557.25
1611.2
1664.58
1717.2
1768.84
1819.29
1868.3
1915.57
1960.77
2003.49
2043.21
2079
2109.6
2135.65
2154.53
2164.03
2157.9
2039.38
1914.19
1784.57
1652.41
1519.34
1386.81
1256.14
1128.63
1005.53
888.046
777.162
674.514
582.255
502.427
436.671
385.784
349.241
325.063
310.303
301.913
297.415
295.125
294
293.462
293.21
293.094
293.041
293.018
293.008
293.003
293.001
293.001
293
293
293
293
293
293
293.004
293.017
293.038
293.075
293.135
293.235
293.4
293.668
294.099
294.784
295.854
297.5
299.979
303.631
308.876
316.198
326.103
339.06
355.431
375.413
399.011
426.061
456.277
489.312
524.817
562.474
602.019
643.241
685.98
730.114
775.545
822.189
869.961
918.766
968.493
1019.03
1070.4
1122.55
1175.37
1228.77
1282.61
1336.79
1391.17
1445.62
1499.99
1554.13
1607.89
1661.09
1713.54
1765.06
1815.42
1864.38
1911.66
1956.95
1999.86
2039.91
2076.43
2107.8
2135.03
2155.89
2168.67
2170.7
2054.67
1931.29
1802.92
1671.56
1538.92
1406.49
1275.63
1147.65
1023.82
905.402
793.361
689.228
595.143
513.21
445.189
392.055
353.497
327.717
311.833
302.737
297.836
295.33
294.098
293.507
293.23
293.103
293.045
293.02
293.008
293.004
293.002
293.001
293
293
293
293
293
293
293.004
293.017
293.038
293.074
293.135
293.235
293.4
293.668
294.099
294.783
295.854
297.5
299.979
303.633
308.879
316.203
326.111
339.073
355.448
375.432
399.032
426.081
456.29
489.312
524.794
562.418
601.919
643.087
685.762
729.819
775.162
821.703
869.358
918.033
967.614
1017.99
1069.18
1121.14
1173.76
1226.94
1280.55
1334.5
1388.63
1442.84
1496.97
1550.87
1604.4
1657.39
1709.65
1761.01
1811.25
1860.13
1907.41
1952.78
1995.87
2036.25
2073.46
2106
2133.87
2156.95
2173.01
2180.05
2068.7
1948.49
1822.25
1692.26
1560.4
1428.29
1297.37
1168.98
1044.42
924.993
811.698
705.956
609.875
525.621
455.073
399.395
358.524
330.876
313.664
303.727
298.342
295.577
294.215
293.561
293.255
293.114
293.05
293.022
293.009
293.004
293.002
293.001
293
293
293
293
293
293
293.004
293.017
293.038
293.074
293.135
293.235
293.399
293.667
294.098
294.783
295.854
297.5
299.981
303.637
308.887
316.217
326.133
339.105
355.492
375.488
399.099
426.156
456.369
489.39
524.866
562.477
601.956
643.09
685.712
729.7
774.956
821.396
868.934
917.475
966.907
1017.11
1068.12
1119.87
1172.27
1225.21
1278.58
1332.27
1386.14
1440.07
1493.92
1547.56
1600.82
1653.56
1705.59
1756.75
1806.82
1855.58
1902.8
1948.17
1991.36
2031.96
2069.4
2102.41
2130.67
2154.26
2170.71
2177.75
2084.06
1967.52
1843.65
1715.17
1584.2
1452.49
1321.56
1192.78
1067.47
946.959
832.323
724.856
626.613
539.818
466.47
407.939
364.432
334.624
315.851
304.915
298.95
295.874
294.355
293.626
293.284
293.127
293.056
293.024
293.01
293.004
293.002
293.001
293
293
293
293
293
293
293.004
293.017
293.038
293.074
293.135
293.234
293.399
293.666
294.097
294.782
295.852
297.499
299.981
303.64
308.897
316.237
326.168
339.16
355.572
375.597
399.236
426.319
456.554
489.59
525.072
562.68
602.146
643.255
685.846
729.791
774.986
821.341
868.768
917.175
966.454
1016.49
1067.3
1118.84
1171.01
1223.7
1276.8
1330.2
1383.78
1437.42
1490.97
1544.3
1597.27
1649.71
1701.48
1752.38
1802.23
1850.81
1897.88
1943.16
1986.32
2026.96
2064.56
2097.91
2126.37
2150.15
2166.96
2174.8
2108.17
1992.1
1868.97
1741.19
1610.73
1479.26
1348.25
1219.05
1092.97
971.334
855.291
746.013
645.466
555.923
479.507
417.804
371.32
339.027
318.434
306.32
299.668
296.223
294.519
293.701
293.318
293.142
293.062
293.027
293.012
293.005
293.002
293.001
293
293
293
293
293
293
293.004
293.017
293.038
293.074
293.134
293.234
293.398
293.665
294.095
294.779
295.849
297.496
299.979
303.642
308.908
316.264
326.218
339.242
355.694
375.767
399.459
426.596
456.881
489.961
525.476
563.104
602.574
643.673
686.236
730.139
775.276
821.562
868.905
917.205
966.343
1016.2
1066.82
1118.14
1170.07
1222.5
1275.32
1328.43
1381.7
1435.01
1488.24
1541.24
1593.88
1646.01
1697.47
1748.08
1797.66
1846.01
1892.88
1938.01
1981.06
2021.63
2059.22
2092.74
2121.42
2145.44
2162.42
2170.4
2133.91
2018.46
1896.07
1768.98
1639.05
1507.88
1376.88
1247.36
1120.58
997.853
880.4
769.3
666.371
573.933
494.23
429.072
379.284
344.18
321.486
307.989
300.523
296.638
294.714
293.79
293.357
293.159
293.07
293.03
293.013
293.005
293.002
293.001
293
293
293
293
293
293
293.004
293.016
293.038
293.074
293.133
293.233
293.396
293.662
294.09
294.772
295.84
297.485
299.968
303.633
308.905
316.276
326.258
339.324
355.836
375.983
399.76
426.987
457.362
490.525
526.113
563.799
603.311
644.433
686.996
730.872
775.959
822.168
869.412
917.595
966.606
1016.32
1066.75
1117.86
1169.54
1221.71
1274.25
1327.05
1380
1432.99
1485.88
1538.54
1590.84
1642.63
1693.77
1744.07
1793.37
1841.46
1888.12
1933.07
1975.99
2016.5
2054.09
2087.75
2116.58
2140.74
2157.73
2165.18
2158.02
2043.68
1922.52
1796.55
1667.54
1537.01
1406.31
1276.72
1149.48
1025.86
907.112
794.287
689.032
593.659
510.525
441.669
388.264
350.018
324.942
309.868
301.474
297.094
294.926
293.886
293.4
293.177
293.078
293.033
293.014
293.006
293.003
293.001
293
293
293
293
293
293
293.004
293.016
293.037
293.073
293.132
293.231
293.393
293.657
294.083
294.761
295.826
297.467
299.947
303.614
308.895
316.289
326.317
339.45
356.049
376.302
400.199
427.553
458.055
491.338
527.033
564.81
604.393
645.564
688.154
732.031
777.093
823.248
870.405
918.466
967.321
1016.86
1067.11
1118.01
1169.47
1221.38
1273.64
1326.15
1378.79
1431.45
1484.02
1536.35
1588.32
1639.79
1690.61
1740.62
1789.65
1837.5
1883.96
1928.77
1971.65
2012.22
2050.05
2084.44
2114.12
2139.72
2159.25
2171.25
2173.58
2063.1
1944.86
1821.13
1693.81
1564.5
1434.6
1305.39
1178.09
1053.95
934.242
820.008
712.709
614.598
528.124
455.533
398.348
356.704
328.965
312.079
302.598
297.632
295.173
293.996
293.448
293.198
293.086
293.037
293.016
293.007
293.003
293.001
293
293
293
293
293
293
293.004
293.016
293.037
293.072
293.13
293.227
293.387
293.647
294.068
294.738
295.793
297.422
299.891
303.549
308.832
316.239
326.297
339.492
356.189
376.576
400.64
428.181
458.875
492.342
528.203
566.12
605.812
647.059
689.692
733.58
778.62
824.721
871.795
919.744
968.459
1017.83
1067.88