/*--------------------------------*- C++ -*----------------------------------*\
  =========                 |
  \\      /  F ield         | OpenFOAM: The Open Source CFD Toolbox
   \\    /   O peration     | Website:  https://openfoam.org
    \\  /    A nd           | Version:  8
     \\/     M anipulation  |
\*---------------------------------------------------------------------------*/
FoamFile
{
    version     2.0;
    format      ascii;
    class       volVectorField;
    location    "420/fluid";
    object      U;
}
// * * * * * * * * * * * * * * * * * * * * * * * * * * * * * * * * * * * * * //

dimensions      [0 1 -1 0 0 0 0];

internalField   nonuniform List<vector> 
4000
(
(0.0999491 -0.00691935 0)
(0.099672 -0.0205898 0)
(0.0992249 -0.0341471 0)
(0.0986073 -0.0476296 0)
(0.0978121 -0.0610551 0)
(0.0968228 -0.0744261 0)
(0.0956205 -0.0877338 0)
(0.0941871 -0.100961 0)
(0.0925082 -0.114083 0)
(0.0905757 -0.127075 0)
(0.0883907 -0.13991 0)
(0.0859674 -0.152569 0)
(0.083336 -0.165044 0)
(0.0805479 -0.177327 0)
(0.077676 -0.189433 0)
(0.0747968 -0.201431 0)
(0.0719664 -0.213377 0)
(0.0692109 -0.225308 0)
(0.0665188 -0.237234 0)
(0.063838 -0.249127 0)
(0.0610855 -0.260924 0)
(0.0581645 -0.272534 0)
(0.0549835 -0.283854 0)
(0.051474 -0.294768 0)
(0.0476029 -0.305159 0)
(0.0433574 -0.314973 0)
(0.0387374 -0.324154 0)
(0.0337541 -0.332656 0)
(0.0284276 -0.340442 0)
(0.0227836 -0.347491 0)
(0.016851 -0.353791 0)
(0.0106596 -0.359345 0)
(0.00423911 -0.364161 0)
(-0.00237951 -0.368262 0)
(-0.00916517 -0.371672 0)
(-0.0160906 -0.374423 0)
(-0.0231322 -0.376552 0)
(-0.0302683 -0.378095 0)
(-0.0374785 -0.379093 0)
(-0.0447435 -0.379589 0)
(-0.052045 -0.379622 0)
(-0.059365 -0.379235 0)
(-0.0666866 -0.378466 0)
(-0.0739933 -0.377353 0)
(-0.0812689 -0.375933 0)
(-0.0884969 -0.374241 0)
(-0.0956607 -0.372309 0)
(-0.102743 -0.370171 0)
(-0.109727 -0.367857 0)
(-0.116594 -0.365397 0)
(-0.123323 -0.362824 0)
(-0.129895 -0.360168 0)
(-0.136285 -0.357465 0)
(-0.142472 -0.354751 0)
(-0.148426 -0.352069 0)
(-0.154122 -0.349467 0)
(-0.159521 -0.347007 0)
(-0.164575 -0.344757 0)
(-0.169235 -0.342796 0)
(-0.173539 -0.341236 0)
(-0.177597 -0.340315 0)
(-0.181107 -0.340422 0)
(-0.182157 -0.341665 0)
(-0.179156 -0.342644 0)
(-0.173433 -0.341965 0)
(-0.16693 -0.339562 0)
(-0.160049 -0.335694 0)
(-0.152767 -0.33052 0)
(-0.145113 -0.324118 0)
(-0.137159 -0.316541 0)
(-0.12899 -0.307841 0)
(-0.120695 -0.298077 0)
(-0.112363 -0.287314 0)
(-0.10409 -0.275632 0)
(-0.096006 -0.263114 0)
(-0.0883298 -0.249882 0)
(-0.0813796 -0.236141 0)
(-0.0755342 -0.222178 0)
(-0.0711886 -0.208466 0)
(-0.0686882 -0.195596 0)
(-0.0681641 -0.183889 0)
(-0.0694036 -0.173311 0)
(-0.0719215 -0.163551 0)
(-0.0751569 -0.154232 0)
(-0.0786362 -0.145063 0)
(-0.0820361 -0.135865 0)
(-0.08516 -0.126529 0)
(-0.0879153 -0.11706 0)
(-0.0902899 -0.107521 0)
(-0.0923062 -0.0979453 0)
(-0.0939985 -0.0883676 0)
(-0.0954038 -0.0788175 0)
(-0.0965582 -0.0693183 0)
(-0.0974953 -0.059885 0)
(-0.0982454 -0.0505245 0)
(-0.0988353 -0.0412363 0)
(-0.099288 -0.0320143 0)
(-0.0996219 -0.0228478 0)
(-0.0998494 -0.0137162 0)
(-0.0999813 -0.00458451 0)
(0.0999997 -0.00650917 0)
(0.0998057 -0.0194662 0)
(0.099405 -0.0323379 0)
(0.0987754 -0.0451102 0)
(0.0979185 -0.0577665 0)
(0.0968301 -0.0702861 0)
(0.0955017 -0.0826439 0)
(0.0939254 -0.0948116 0)
(0.0920991 -0.106759 0)
(0.090029 -0.11846 0)
(0.0877328 -0.129893 0)
(0.0852424 -0.141054 0)
(0.082605 -0.151963 0)
(0.0798826 -0.162683 0)
(0.0771472 -0.173297 0)
(0.0744657 -0.183851 0)
(0.0718873 -0.194407 0)
(0.0694306 -0.205026 0)
(0.0670747 -0.215742 0)
(0.0647579 -0.226552 0)
(0.0623865 -0.237409 0)
(0.0598513 -0.248233 0)
(0.0570476 -0.258926 0)
(0.0538912 -0.269393 0)
(0.0503263 -0.279551 0)
(0.0463297 -0.289269 0)
(0.0418976 -0.298447 0)
(0.0370434 -0.307012 0)
(0.0317923 -0.314915 0)
(0.0261765 -0.322127 0)
(0.0202317 -0.328631 0)
(0.0139939 -0.334426 0)
(0.00749851 -0.339522 0)
(0.000779583 -0.343934 0)
(-0.00613 -0.347687 0)
(-0.0132 -0.350812 0)
(-0.0204036 -0.353345 0)
(-0.0277171 -0.355322 0)
(-0.0351183 -0.356782 0)
(-0.0425866 -0.357763 0)
(-0.0501024 -0.358305 0)
(-0.0576478 -0.358446 0)
(-0.065206 -0.358224 0)
(-0.0727607 -0.357675 0)
(-0.0802961 -0.356834 0)
(-0.0877966 -0.355734 0)
(-0.0952464 -0.354408 0)
(-0.10263 -0.352885 0)
(-0.10993 -0.351196 0)
(-0.117131 -0.34937 0)
(-0.124215 -0.347437 0)
(-0.131164 -0.345426 0)
(-0.137957 -0.343368 0)
(-0.144573 -0.341295 0)
(-0.150992 -0.339241 0)
(-0.157187 -0.337244 0)
(-0.163131 -0.335342 0)
(-0.168768 -0.333573 0)
(-0.174077 -0.331972 0)
(-0.179122 -0.330575 0)
(-0.184087 -0.329405 0)
(-0.188648 -0.32845 0)
(-0.190358 -0.32755 0)
(-0.187183 -0.326013 0)
(-0.180817 -0.323496 0)
(-0.173808 -0.319844 0)
(-0.166542 -0.315025 0)
(-0.15892 -0.309025 0)
(-0.150922 -0.301841 0)
(-0.142605 -0.293479 0)
(-0.134032 -0.283958 0)
(-0.125273 -0.273315 0)
(-0.116393 -0.261608 0)
(-0.107462 -0.248934 0)
(-0.0986027 -0.235452 0)
(-0.0900674 -0.221436 0)
(-0.0822368 -0.207324 0)
(-0.0755827 -0.193739 0)
(-0.0705979 -0.181256 0)
(-0.0676504 -0.170159 0)
(-0.0668084 -0.160505 0)
(-0.0677789 -0.152038 0)
(-0.0700386 -0.144321 0)
(-0.0730387 -0.136936 0)
(-0.0763387 -0.129598 0)
(-0.0796444 -0.122165 0)
(-0.0827888 -0.114608 0)
(-0.0856795 -0.10687 0)
(-0.08827 -0.0988966 0)
(-0.0905516 -0.0907119 0)
(-0.092531 -0.0823575 0)
(-0.0942245 -0.0738752 0)
(-0.0956528 -0.0653013 0)
(-0.096839 -0.0566651 0)
(-0.0978062 -0.0479889 0)
(-0.0985763 -0.0392882 0)
(-0.0991678 -0.0305738 0)
(-0.0995934 -0.0218528 0)
(-0.0998615 -0.0131257 0)
(-0.099995 -0.00438268 0)
(0.09998 -0.00624581 0)
(0.0997306 -0.018667 0)
(0.0992421 -0.0310008 0)
(0.0984966 -0.0432302 0)
(0.097498 -0.0553349 0)
(0.096247 -0.0672931 0)
(0.0947428 -0.0790823 0)
(0.092988 -0.0906796 0)
(0.0909916 -0.102064 0)
(0.0887718 -0.113218 0)
(0.0863584 -0.12413 0)
(0.083794 -0.134802 0)
(0.0811346 -0.145245 0)
(0.0784443 -0.155491 0)
(0.075788 -0.165585 0)
(0.0732267 -0.175593 0)
(0.0708075 -0.185586 0)
(0.0685481 -0.195629 0)
(0.0664259 -0.20576 0)
(0.064377 -0.215983 0)
(0.0623046 -0.22626 0)
(0.0600962 -0.23652 0)
(0.0576416 -0.24667 0)
(0.0548467 -0.256606 0)
(0.0516395 -0.266229 0)
(0.0479766 -0.27545 0)
(0.0438442 -0.284194 0)
(0.0392507 -0.292397 0)
(0.0342189 -0.300013 0)
(0.0287805 -0.307009 0)
(0.0229714 -0.313366 0)
(0.0168292 -0.319077 0)
(0.0103903 -0.324145 0)
(0.00369001 -0.328581 0)
(-0.00323668 -0.332406 0)
(-0.0103578 -0.335644 0)
(-0.0176455 -0.338325 0)
(-0.0250737 -0.340483 0)
(-0.0326191 -0.342152 0)
(-0.0402603 -0.343367 0)
(-0.0479778 -0.344164 0)
(-0.0557536 -0.34458 0)
(-0.063571 -0.344648 0)
(-0.0714139 -0.344403 0)
(-0.079267 -0.343877 0)
(-0.0871157 -0.3431 0)
(-0.0949454 -0.342103 0)
(-0.102742 -0.340912 0)
(-0.110492 -0.339556 0)
(-0.118181 -0.33806 0)
(-0.125796 -0.336449 0)
(-0.133321 -0.334749 0)
(-0.140743 -0.332983 0)
(-0.148047 -0.331177 0)
(-0.155216 -0.329356 0)
(-0.162233 -0.327541 0)
(-0.169069 -0.325755 0)
(-0.175673 -0.32401 0)
(-0.182011 -0.322314 0)
(-0.188132 -0.320666 0)
(-0.194125 -0.319036 0)
(-0.199491 -0.317342 0)
(-0.20143 -0.315389 0)
(-0.197863 -0.312547 0)
(-0.190775 -0.30884 0)
(-0.182985 -0.304178 0)
(-0.174942 -0.298502 0)
(-0.166538 -0.29178 0)
(-0.157748 -0.283997 0)
(-0.148614 -0.275165 0)
(-0.139195 -0.265322 0)
(-0.129549 -0.254534 0)
(-0.119738 -0.242906 0)
(-0.10984 -0.230589 0)
(-0.100018 -0.217797 0)
(-0.090591 -0.204831 0)
(-0.0820146 -0.192073 0)
(-0.0748308 -0.179955 0)
(-0.0695581 -0.168877 0)
(-0.0665053 -0.159088 0)
(-0.0656269 -0.150569 0)
(-0.0665423 -0.143034 0)
(-0.0687029 -0.136076 0)
(-0.0715773 -0.12933 0)
(-0.0747538 -0.122552 0)
(-0.0779621 -0.115613 0)
(-0.0810519 -0.108466 0)
(-0.083948 -0.101116 0)
(-0.0866099 -0.0935811 0)
(-0.0890157 -0.0858832 0)
(-0.0911587 -0.078044 0)
(-0.0930414 -0.0700862 0)
(-0.0946716 -0.0620311 0)
(-0.0960606 -0.0538977 0)
(-0.0972211 -0.0457019 0)
(-0.0981664 -0.0374572 0)
(-0.0989079 -0.0291751 0)
(-0.0994527 -0.0208665 0)
(-0.0998053 -0.012538 0)
(-0.0999867 -0.00418746 0)
(0.0999843 -0.00591064 0)
(0.0997289 -0.0176655 0)
(0.0992205 -0.0293288 0)
(0.0984406 -0.0408774 0)
(0.0973975 -0.0522865 0)
(0.0960974 -0.0635308 0)
(0.0945453 -0.0745857 0)
(0.092749 -0.0854279 0)
(0.0907223 -0.0960368 0)
(0.0884865 -0.106397 0)
(0.0860727 -0.1165 0)
(0.0835231 -0.12635 0)
(0.0808913 -0.135967 0)
(0.0782411 -0.14539 0)
(0.075641 -0.154676 0)
(0.0731557 -0.163895 0)
(0.0708328 -0.173122 0)
(0.0686887 -0.182425 0)
(0.0666988 -0.191847 0)
(0.0647958 -0.201394 0)
(0.0628794 -0.211037 0)
(0.0608329 -0.220709 0)
(0.0585418 -0.230323 0)
(0.0559093 -0.239781 0)
(0.0528645 -0.248988 0)
(0.0493646 -0.257853 0)
(0.0453923 -0.266297 0)
(0.0409506 -0.274258 0)
(0.0360568 -0.281688 0)
(0.0307377 -0.288553 0)
(0.0250255 -0.294832 0)
(0.0189542 -0.300516 0)
(0.0125585 -0.305605 0)
(0.00587212 -0.31011 0)
(-0.00107156 -0.314044 0)
(-0.00824094 -0.317431 0)
(-0.0156076 -0.320295 0)
(-0.0231462 -0.322668 0)
(-0.0308342 -0.324579 0)
(-0.0386511 -0.326061 0)
(-0.0465777 -0.327147 0)
(-0.0545965 -0.327869 0)
(-0.0626908 -0.328258 0)
(-0.0708455 -0.328345 0)
(-0.0790459 -0.328158 0)
(-0.0872784 -0.327724 0)
(-0.0955298 -0.32707 0)
(-0.103787 -0.326219 0)
(-0.112038 -0.325195 0)
(-0.120271 -0.324017 0)
(-0.128473 -0.322706 0)
(-0.136632 -0.32128 0)
(-0.144734 -0.319754 0)
(-0.152767 -0.318144 0)
(-0.160713 -0.316462 0)
(-0.168553 -0.314717 0)
(-0.176247 -0.312914 0)
(-0.183735 -0.31105 0)
(-0.190975 -0.309115 0)
(-0.197992 -0.307106 0)
(-0.204806 -0.305013 0)
(-0.210608 -0.302775 0)
(-0.212322 -0.299972 0)
(-0.207969 -0.296036 0)
(-0.200055 -0.291269 0)
(-0.191448 -0.285675 0)
(-0.182561 -0.279205 0)
(-0.173282 -0.271821 0)
(-0.163588 -0.263517 0)
(-0.153532 -0.254313 0)
(-0.143184 -0.244256 0)
(-0.13262 -0.233428 0)
(-0.121923 -0.221945 0)
(-0.111206 -0.209967 0)
(-0.100698 -0.197717 0)
(-0.0907791 -0.185494 0)
(-0.0819438 -0.173665 0)
(-0.0747198 -0.162628 0)
(-0.0695515 -0.152724 0)
(-0.0666439 -0.144117 0)
(-0.0658642 -0.136712 0)
(-0.0667912 -0.130194 0)
(-0.0688853 -0.124172 0)
(-0.0716486 -0.118315 0)
(-0.0747041 -0.112408 0)
(-0.0778033 -0.106333 0)
(-0.0808013 -0.100042 0)
(-0.083622 -0.0935228 0)
(-0.0862288 -0.086783 0)
(-0.0886057 -0.0798411 0)
(-0.0907472 -0.0727201 0)
(-0.0926534 -0.0654441 0)
(-0.0943275 -0.0580356 0)
(-0.0957743 -0.0505152 0)
(-0.097 -0.0429007 0)
(-0.098011 -0.0352084 0)
(-0.0988123 -0.0274535 0)
(-0.0994053 -0.0196514 0)
(-0.0997899 -0.0118142 0)
(-0.099987 -0.00394671 0)
(0.0999814 -0.00557225 0)
(0.0997104 -0.0166529 0)
(0.0991753 -0.027645 0)
(0.0983587 -0.0385247 0)
(0.097271 -0.049267 0)
(0.0959213 -0.0598472 0)
(0.0943174 -0.070242 0)
(0.0924704 -0.0804304 0)
(0.0903972 -0.0903941 0)
(0.0881228 -0.10012 0)
(0.0856813 -0.109603 0)
(0.0831181 -0.118848 0)
(0.0804896 -0.127874 0)
(0.0778617 -0.136716 0)
(0.0753041 -0.145426 0)
(0.0728812 -0.154069 0)
(0.0706392 -0.162716 0)
(0.0685929 -0.171428 0)
(0.0667162 -0.180249 0)
(0.0649403 -0.189188 0)
(0.0631628 -0.198221 0)
(0.0612643 -0.207291 0)
(0.059127 -0.216321 0)
(0.0566499 -0.225223 0)
(0.0537581 -0.233909 0)
(0.0504049 -0.242295 0)
(0.0465693 -0.25031 0)
(0.0422509 -0.257894 0)
(0.0374644 -0.265003 0)
(0.0322339 -0.271601 0)
(0.0265893 -0.277669 0)
(0.020563 -0.283195 0)
(0.0141881 -0.288177 0)
(0.0074972 -0.292622 0)
(0.000522014 -0.296542 0)
(-0.00670722 -0.299955 0)
(-0.0141634 -0.302885 0)
(-0.0218224 -0.305357 0)
(-0.0296627 -0.307398 0)
(-0.037664 -0.309038 0)
(-0.0458079 -0.310304 0)
(-0.0540772 -0.311226 0)
(-0.0624563 -0.31183 0)
(-0.0709304 -0.312143 0)
(-0.0794857 -0.31219 0)
(-0.0881092 -0.311994 0)
(-0.0967881 -0.311577 0)
(-0.10551 -0.310959 0)
(-0.114264 -0.310158 0)
(-0.123036 -0.309189 0)
(-0.131815 -0.308067 0)
(-0.140586 -0.306803 0)
(-0.149336 -0.305408 0)
(-0.158048 -0.303887 0)
(-0.166702 -0.302246 0)
(-0.175272 -0.300485 0)
(-0.183706 -0.298601 0)
(-0.191935 -0.296584 0)
(-0.199932 -0.294421 0)
(-0.20776 -0.292114 0)
(-0.215336 -0.289682 0)
(-0.221109 -0.287059 0)
(-0.221773 -0.283525 0)
(-0.21626 -0.27875 0)
(-0.207708 -0.273233 0)
(-0.198474 -0.267029 0)
(-0.188861 -0.260081 0)
(-0.178782 -0.252356 0)
(-0.168256 -0.243859 0)
(-0.157357 -0.234622 0)
(-0.146176 -0.224706 0)
(-0.134812 -0.214203 0)
(-0.123367 -0.203239 0)
(-0.111992 -0.191977 0)
(-0.100966 -0.180637 0)
(-0.0907078 -0.169498 0)
(-0.0817225 -0.158885 0)
(-0.074516 -0.149118 0)
(-0.0694725 -0.140442 0)
(-0.0667135 -0.132924 0)
(-0.0660321 -0.126411 0)
(-0.0669743 -0.120595 0)
(-0.0690091 -0.115139 0)
(-0.0716699 -0.109775 0)
(-0.0746119 -0.104335 0)
(-0.0776106 -0.0987287 0)
(-0.0805336 -0.0929199 0)
(-0.0833077 -0.0869016 0)
(-0.0858937 -0.0806813 0)
(-0.0882712 -0.0742733 0)
(-0.0904304 -0.0676954 0)
(-0.0923673 -0.0609663 0)
(-0.0940811 -0.0541044 0)
(-0.095573 -0.0471268 0)
(-0.0968455 -0.0400494 0)
(-0.0979015 -0.0328873 0)
(-0.0987432 -0.0256558 0)
(-0.0993688 -0.0183709 0)
(-0.0997762 -0.0110467 0)
(-0.0999858 -0.0036906 0)
(0.0999819 -0.00521795 0)
(0.0997069 -0.0155947 0)
(0.0991628 -0.0258867 0)
(0.0983325 -0.0360694 0)
(0.097228 -0.0461174 0)
(0.0958603 -0.0560064 0)
(0.0942391 -0.0657136 0)
(0.0923774 -0.0752185 0)
(0.0902941 -0.0845043 0)
(0.0880154 -0.0935592 0)
(0.0855766 -0.102379 0)
(0.0830236 -0.11097 0)
(0.080413 -0.119351 0)
(0.0778105 -0.127559 0)
(0.0752855 -0.135645 0)
(0.0729022 -0.143672 0)
(0.0707066 -0.151709 0)
(0.0687138 -0.159819 0)
(0.0668976 -0.168043 0)
(0.0651895 -0.176393 0)
(0.0634872 -0.184846 0)
(0.0616705 -0.19335 0)
(0.0596204 -0.201835 0)
(0.0572339 -0.210218 0)
(0.0544338 -0.218415 0)
(0.0511703 -0.22635 0)
(0.0474195 -0.233954 0)
(0.043178 -0.241172 0)
(0.0384574 -0.247959 0)
(0.0332795 -0.254283 0)
(0.0276717 -0.260123 0)
(0.021664 -0.265468 0)
(0.0152874 -0.270314 0)
(0.00857251 -0.274666 0)
(0.00154904 -0.278534 0)
(-0.00575438 -0.281934 0)
(-0.0133117 -0.284886 0)
(-0.0210996 -0.287412 0)
(-0.0290973 -0.289535 0)
(-0.0372852 -0.291282 0)
(-0.0456458 -0.292677 0)
(-0.0541625 -0.293744 0)
(-0.0628202 -0.294508 0)
(-0.0716046 -0.29499 0)
(-0.0805022 -0.295214 0)
(-0.0895 -0.295197 0)
(-0.0985853 -0.294958 0)
(-0.107745 -0.294512 0)
(-0.116967 -0.293874 0)
(-0.126238 -0.293054 0)
(-0.135542 -0.292063 0)
(-0.144865 -0.290907 0)
(-0.154189 -0.289591 0)
(-0.163491 -0.288117 0)
(-0.172748 -0.286484 0)
(-0.181925 -0.284688 0)
(-0.190957 -0.28272 0)
(-0.199766 -0.280565 0)
(-0.208346 -0.278208 0)
(-0.216796 -0.275651 0)
(-0.224867 -0.272905 0)
(-0.230112 -0.269902 0)
(-0.229273 -0.265774 0)
(-0.222599 -0.260499 0)
(-0.213591 -0.254576 0)
(-0.203896 -0.248059 0)
(-0.193675 -0.240895 0)
(-0.182906 -0.233065 0)
(-0.171658 -0.224588 0)
(-0.160038 -0.215506 0)
(-0.14816 -0.205888 0)
(-0.136142 -0.195829 0)
(-0.12411 -0.185451 0)
(-0.112253 -0.174911 0)
(-0.100892 -0.164414 0)
(-0.0904745 -0.154214 0)
(-0.0815066 -0.144593 0)
(-0.0744635 -0.135825 0)
(-0.0696652 -0.128098 0)
(-0.0671504 -0.121432 0)
(-0.0666441 -0.11566 0)
(-0.0676642 -0.110488 0)
(-0.0696888 -0.10561 0)
(-0.0722784 -0.100794 0)
(-0.0751174 -0.0958904 0)
(-0.0780035 -0.0908228 0)
(-0.0808188 -0.0855588 0)
(-0.0834982 -0.0800911 0)
(-0.0860063 -0.0744256 0)
(-0.088324 -0.0685748 0)
(-0.0904406 -0.0625544 0)
(-0.0923503 -0.0563813 0)
(-0.0940497 -0.0500725 0)
(-0.0955373 -0.0436441 0)
(-0.0968125 -0.0371116 0)
(-0.0978756 -0.0304901 0)
(-0.0987261 -0.0237952 0)
(-0.09936 -0.0170434 0)
(-0.0997732 -0.0102502 0)
(-0.0999858 -0.00342466 0)
(0.0999814 -0.00486068 0)
(0.0997026 -0.0145272 0)
(0.0991517 -0.0241144 0)
(0.0983118 -0.0335986 0)
(0.0971959 -0.0429554 0)
(0.0958156 -0.0521617 0)
(0.0941821 -0.061196 0)
(0.0923092 -0.0700395 0)
(0.0902171 -0.0786767 0)
(0.0879332 -0.087097 0)
(0.0854937 -0.0952973 0)
(0.0829455 -0.103284 0)
(0.080346 -0.111076 0)
(0.0777612 -0.118706 0)
(0.0752609 -0.126223 0)
(0.0729091 -0.133687 0)
(0.0707517 -0.141161 0)
(0.0688033 -0.148704 0)
(0.0670374 -0.156356 0)
(0.0653848 -0.164128 0)
(0.0637424 -0.172002 0)
(0.0619892 -0.179933 0)
(0.0600044 -0.187855 0)
(0.0576838 -0.195693 0)
(0.0549479 -0.203371 0)
(0.0517453 -0.210818 0)
(0.0480496 -0.21797 0)
(0.0438553 -0.224775 0)
(0.0391718 -0.231193 0)
(0.0340185 -0.237191 0)
(0.0284207 -0.24275 0)
(0.0224068 -0.247857 0)
(0.0160057 -0.252509 0)
(0.00924648 -0.256709 0)
(0.0021577 -0.260465 0)
(-0.00523302 -0.26379 0)
(-0.0129006 -0.2667 0)
(-0.0208229 -0.269216 0)
(-0.0289798 -0.271357 0)
(-0.0373526 -0.273146 0)
(-0.0459242 -0.274603 0)
(-0.0546786 -0.275751 0)
(-0.0636009 -0.276609 0)
(-0.0726769 -0.277197 0)
(-0.0818929 -0.277532 0)
(-0.0912356 -0.277631 0)
(-0.100692 -0.277507 0)
(-0.110247 -0.277174 0)
(-0.119887 -0.276641 0)
(-0.129597 -0.275917 0)
(-0.13936 -0.275007 0)
(-0.149155 -0.273916 0)
(-0.158961 -0.272643 0)
(-0.168751 -0.271188 0)
(-0.178493 -0.269547 0)
(-0.188141 -0.267711 0)
(-0.197618 -0.265669 0)
(-0.206839 -0.263402 0)
(-0.21582 -0.260892 0)
(-0.224679 -0.258134 0)
(-0.232973 -0.255118 0)
(-0.237451 -0.25181 0)
(-0.23514 -0.247358 0)
(-0.227524 -0.241948 0)
(-0.21814 -0.235925 0)
(-0.208032 -0.229343 0)
(-0.197274 -0.222182 0)
(-0.185911 -0.214449 0)
(-0.17406 -0.206176 0)
(-0.161851 -0.197415 0)
(-0.149418 -0.18824 0)
(-0.136896 -0.178745 0)
(-0.124428 -0.169047 0)
(-0.112236 -0.159296 0)
(-0.100676 -0.14968 0)
(-0.0902095 -0.140427 0)
(-0.0813344 -0.131786 0)
(-0.0744908 -0.12398 0)
(-0.0699369 -0.117141 0)
(-0.0676409 -0.111246 0)
(-0.0672779 -0.106111 0)
(-0.0683522 -0.101461 0)
(-0.0703576 -0.0970341 0)
(-0.0728811 -0.0926336 0)
(-0.0756316 -0.0881403 0)
(-0.0784245 -0.0834925 0)
(-0.0811518 -0.0786646 0)
(-0.0837535 -0.073651 0)
(-0.0861959 -0.0684567 0)
(-0.0884599 -0.0630918 0)
(-0.0905343 -0.0575697 0)
(-0.0924118 -0.0519046 0)
(-0.0940878 -0.046111 0)
(-0.0955592 -0.0402032 0)
(-0.096824 -0.0341951 0)
(-0.097881 -0.0281007 0)
(-0.0987281 -0.0219346 0)
(-0.0993606 -0.0157129 0)
(-0.0997733 -0.00945065 0)
(-0.0999858 -0.00315756 0)
(0.0999814 -0.00449999 0)
(0.0997016 -0.0134497 0)
(0.0991485 -0.022326 0)
(0.0983054 -0.0311061 0)
(0.0971856 -0.0397672 0)
(0.0958015 -0.0482871 0)
(0.0941647 -0.0566459 0)
(0.0922899 -0.0648259 0)
(0.0901978 -0.0728127 0)
(0.0879162 -0.080597 0)
(0.085482 -0.0881761 0)
(0.0829422 -0.0955563 0)
(0.0803544 -0.102756 0)
(0.0777845 -0.109806 0)
(0.0753023 -0.116753 0)
(0.0729718 -0.123652 0)
(0.0708386 -0.130565 0)
(0.0689175 -0.137545 0)
(0.0671818 -0.144631 0)
(0.0655626 -0.151835 0)
(0.0639566 -0.15914 0)
(0.062242 -0.166506 0)
(0.0602974 -0.173872 0)
(0.058017 -0.181169 0)
(0.05532 -0.188327 0)
(0.0521528 -0.195281 0)
(0.0484873 -0.201972 0)
(0.044316 -0.208351 0)
(0.0396462 -0.21438 0)
(0.0344957 -0.220029 0)
(0.028888 -0.22528 0)
(0.0228499 -0.23012 0)
(0.0164093 -0.234544 0)
(0.0095939 -0.238554 0)
(0.00243122 -0.242158 0)
(-0.00505227 -0.245365 0)
(-0.0128325 -0.248189 0)
(-0.020888 -0.250649 0)
(-0.0291994 -0.25276 0)
(-0.0377485 -0.254542 0)
(-0.0465184 -0.256014 0)
(-0.0554935 -0.257193 0)
(-0.0646586 -0.258097 0)
(-0.0739996 -0.258741 0)
(-0.0835021 -0.259142 0)
(-0.0931521 -0.259311 0)
(-0.102935 -0.25926 0)
(-0.112836 -0.258998 0)
(-0.122838 -0.258534 0)
(-0.132923 -0.257872 0)
(-0.143071 -0.257016 0)
(-0.153259 -0.255968 0)
(-0.163459 -0.254727 0)
(-0.173639 -0.25329 0)
(-0.183759 -0.251652 0)
(-0.193764 -0.249804 0)
(-0.203561 -0.247731 0)
(-0.213056 -0.245415 0)
(-0.222273 -0.242836 0)
(-0.231324 -0.239974 0)
(-0.239616 -0.236777 0)
(-0.243406 -0.23324 0)
(-0.239914 -0.228677 0)
(-0.231442 -0.223345 0)
(-0.221563 -0.21741 0)
(-0.211008 -0.210931 0)
(-0.199774 -0.20393 0)
(-0.187922 -0.196436 0)
(-0.175591 -0.188494 0)
(-0.162925 -0.18016 0)
(-0.150072 -0.171508 0)
(-0.137176 -0.162629 0)
(-0.124399 -0.153632 0)
(-0.111992 -0.144655 0)
(-0.100336 -0.13587 0)
(-0.0899033 -0.127482 0)
(-0.0811804 -0.119706 0)
(-0.0745724 -0.112728 0)
(-0.0702811 -0.106641 0)
(-0.0682129 -0.101399 0)
(-0.0680016 -0.0968136 0)
(-0.0691418 -0.0926352 0)
(-0.0711416 -0.0886318 0)
(-0.0736116 -0.0846361 0)
(-0.0762824 -0.0805475 0)
(-0.0789853 -0.0763142 0)
(-0.081623 -0.071915 0)
(-0.0841407 -0.0673451 0)
(-0.0865077 -0.062609 0)
(-0.0887059 -0.0577154 0)
(-0.0907243 -0.0526759 0)
(-0.0925551 -0.0475032 0)
(-0.094193 -0.0422101 0)
(-0.0956338 -0.0368094 0)
(-0.0968747 -0.0313141 0)
(-0.0979134 -0.0257371 0)
(-0.098747 -0.020092 0)
(-0.0993699 -0.0143941 0)
(-0.0997766 -0.00865778 0)
(-0.099986 -0.00289264 0)
(0.0999814 -0.00413874 0)
(0.0997011 -0.0123704 0)
(0.099147 -0.0205348 0)
(0.0983026 -0.0286108 0)
(0.0971814 -0.0365769 0)
(0.0957961 -0.0444128 0)
(0.0941585 -0.0520999 0)
(0.0922838 -0.0596221 0)
(0.0901929 -0.0669661 0)
(0.087914 -0.0741236 0)
(0.0854844 -0.0810921 0)
(0.0829512 -0.087878 0)
(0.0803721 -0.0944981 0)
(0.0778133 -0.100982 0)
(0.0753446 -0.107371 0)
(0.0730298 -0.113719 0)
(0.0709148 -0.12008 0)
(0.0690139 -0.126505 0)
(0.0673006 -0.133031 0)
(0.0657055 -0.139669 0)
(0.0641248 -0.146405 0)
(0.0624362 -0.153201 0)
(0.0605174 -0.160004 0)
(0.0582615 -0.16675 0)
(0.0555862 -0.173376 0)
(0.0524367 -0.179821 0)
(0.0487832 -0.186031 0)
(0.0446169 -0.191962 0)
(0.0399438 -0.197578 0)
(0.0347803 -0.202851 0)
(0.0291489 -0.207763 0)
(0.023075 -0.212302 0)
(0.0165854 -0.216463 0)
(0.00970689 -0.220247 0)
(0.00246595 -0.223658 0)
(-0.00511175 -0.226707 0)
(-0.0130028 -0.229405 0)
(-0.0211865 -0.231766 0)
(-0.0296437 -0.233806 0)
(-0.0383567 -0.235539 0)
(-0.0473085 -0.236983 0)
(-0.0564835 -0.238152 0)
(-0.0658665 -0.239061 0)
(-0.0754425 -0.239723 0)
(-0.0851968 -0.24015 0)
(-0.0951142 -0.240354 0)
(-0.105179 -0.240342 0)
(-0.115374 -0.240122 0)
(-0.125681 -0.2397 0)
(-0.13608 -0.239079 0)
(-0.146548 -0.23826 0)
(-0.157057 -0.237244 0)
(-0.167577 -0.236029 0)
(-0.178069 -0.234612 0)
(-0.188488 -0.232986 0)
(-0.198765 -0.231144 0)
(-0.208793 -0.229071 0)
(-0.218476 -0.226751 0)
(-0.227817 -0.224169 0)
(-0.236848 -0.221298 0)
(-0.24484 -0.218071 0)
(-0.247989 -0.214453 0)
(-0.243681 -0.209904 0)
(-0.234544 -0.204723 0)
(-0.224145 -0.198992 0)
(-0.213137 -0.19276 0)
(-0.201478 -0.186064 0)
(-0.189223 -0.178943 0)
(-0.17651 -0.171448 0)
(-0.163493 -0.163637 0)
(-0.150325 -0.155582 0)
(-0.137158 -0.147369 0)
(-0.124169 -0.139099 0)
(-0.111633 -0.1309 0)
(-0.0999526 -0.122928 0)
(-0.0896038 -0.115367 0)
(-0.0810594 -0.108402 0)
(-0.0746905 -0.102188 0)
(-0.0706473 -0.0967851 0)
(-0.0687847 -0.0921274 0)
(-0.0687051 -0.0880321 0)
(-0.0698999 -0.0842717 0)
(-0.0718927 -0.0806454 0)
(-0.0743153 -0.0770122 0)
(-0.0769167 -0.0732887 0)
(-0.0795417 -0.0694324 0)
(-0.0821008 -0.0654262 0)
(-0.0845437 -0.0612667 0)
(-0.0868418 -0.0569577 0)
(-0.0889782 -0.0525068 0)
(-0.0909418 -0.0479239 0)
(-0.092725 -0.04322 0)
(-0.0943221 -0.0384064 0)
(-0.0957287 -0.0334945 0)
(-0.0969412 -0.0284958 0)
(-0.0979571 -0.0234219 0)
(-0.0987729 -0.0182854 0)
(-0.0993828 -0.0131002 0)
(-0.0997812 -0.00787953 0)
(-0.0999863 -0.00263257 0)
(0.0999814 -0.00377729 0)
(0.0997012 -0.0112904 0)
(0.0991474 -0.0187425 0)
(0.0983033 -0.026114 0)
(0.0971826 -0.0333853 0)
(0.095798 -0.0405375 0)
(0.0941617 -0.0475538 0)
(0.0922889 -0.0544192 0)
(0.0902007 -0.061122 0)
(0.0879256 -0.0676543 0)
(0.0855008 -0.0740143 0)
(0.0829736 -0.0802077 0)
(0.0804017 -0.0862503 0)
(0.0778514 -0.0921692 0)
(0.0753923 -0.0980031 0)
(0.0730882 -0.1038 0)
(0.0709851 -0.109611 0)
(0.0690973 -0.115484 0)
(0.0673979 -0.121451 0)
(0.0658176 -0.127524 0)
(0.0642519 -0.133691 0)
(0.0625782 -0.139917 0)
(0.0606731 -0.146154 0)
(0.0584289 -0.152344 0)
(0.0557624 -0.15843 0)
(0.0526176 -0.164356 0)
(0.0489638 -0.170072 0)
(0.0447908 -0.175539 0)
(0.0401037 -0.180723 0)
(0.0349177 -0.185599 0)
(0.0292544 -0.190148 0)
(0.0231382 -0.194361 0)
(0.0165951 -0.198231 0)
(0.00965101 -0.201759 0)
(0.00233192 -0.204949 0)
(-0.00533722 -0.207809 0)
(-0.0133336 -0.210347 0)
(-0.0216367 -0.212577 0)
(-0.0302278 -0.214511 0)
(-0.0390891 -0.216164 0)
(-0.0482038 -0.217547 0)
(-0.0575559 -0.218674 0)
(-0.0671297 -0.219557 0)
(-0.0769097 -0.220208 0)
(-0.0868802 -0.220636 0)
(-0.097025 -0.220849 0)
(-0.107327 -0.220855 0)
(-0.117767 -0.220659 0)
(-0.128326 -0.220264 0)
(-0.138979 -0.219672 0)
(-0.149702 -0.218884 0)
(-0.160464 -0.217899 0)
(-0.171231 -0.216713 0)
(-0.181959 -0.215323 0)
(-0.192597 -0.213724 0)
(-0.203067 -0.211906 0)
(-0.213254 -0.209859 0)
(-0.223064 -0.207573 0)
(-0.232484 -0.205044 0)
(-0.241494 -0.202274 0)
(-0.249129 -0.19924 0)
(-0.251608 -0.195735 0)
(-0.246536 -0.19126 0)
(-0.23686 -0.186244 0)
(-0.226029 -0.180773 0)
(-0.214635 -0.174874 0)
(-0.202619 -0.168575 0)
(-0.190032 -0.161916 0)
(-0.177015 -0.154946 0)
(-0.163725 -0.147721 0)
(-0.150318 -0.140309 0)
(-0.136953 -0.132789 0)
(-0.123818 -0.125254 0)
(-0.111212 -0.11782 0)
(-0.0995522 -0.11063 0)
(-0.0893155 -0.103846 0)
(-0.0809603 -0.0976303 0)
(-0.0748257 -0.0921087 0)
(-0.0710161 -0.0873202 0)
(-0.0693425 -0.0831869 0)
(-0.0693831 -0.0795356 0)
(-0.0706285 -0.0761623 0)
(-0.072617 -0.0728931 0)
(-0.0749989 -0.0696081 0)
(-0.0775393 -0.0662376 0)
(-0.0800943 -0.0627467 0)
(-0.0825815 -0.0591213 0)
(-0.0849548 -0.0553588 0)
(-0.0871876 -0.0514625 0)
(-0.0892639 -0.0474393 0)
(-0.0911734 -0.0432978 0)
(-0.0929085 -0.0390476 0)
(-0.0944635 -0.0346987 0)
(-0.0958339 -0.0302612 0)
(-0.0970158 -0.0257451 0)
(-0.0980065 -0.0211611 0)
(-0.0988025 -0.0165205 0)
(-0.0993977 -0.0118357 0)
(-0.0997865 -0.00711889 0)
(-0.0999866 -0.00237838 0)
(0.0999814 -0.0034162 0)
(0.0997015 -0.0102114 0)
(0.0991482 -0.0169517 0)
(0.0983049 -0.0236195 0)
(0.0971852 -0.0301967 0)
(0.095802 -0.0366665 0)
(0.0941673 -0.0430134 0)
(0.0922967 -0.049224 0)
(0.0902111 -0.0552877 0)
(0.0879393 -0.0611974 0)
(0.0855183 -0.0669516 0)
(0.0829956 -0.0725556 0)
(0.0804289 -0.0780237 0)
(0.0778846 -0.0833807 0)
(0.0754321 -0.0886617 0)
(0.0731354 -0.0939105 0)
(0.0710403 -0.0991739 0)
(0.069161 -0.104495 0)
(0.0674706 -0.109903 0)
(0.0658992 -0.11541 0)
(0.0643422 -0.121004 0)
(0.0626761 -0.126656 0)
(0.0607771 -0.132321 0)
(0.0585367 -0.137947 0)
(0.0558706 -0.143483 0)
(0.0527222 -0.148878 0)
(0.0490599 -0.154088 0)
(0.0448726 -0.159075 0)
(0.0401646 -0.163809 0)
(0.0349505 -0.168268 0)
(0.0292507 -0.172434 0)
(0.0230894 -0.176298 0)
(0.0164916 -0.179854 0)
(0.00948295 -0.183102 0)
(0.00208877 -0.186045 0)
(-0.00566636 -0.188688 0)
(-0.01376 -0.191041 0)
(-0.0221719 -0.193113 0)
(-0.0308833 -0.194916 0)
(-0.0398765 -0.19646 0)
(-0.0491344 -0.197758 0)
(-0.0586406 -0.198819 0)
(-0.0683789 -0.199655 0)
(-0.0783332 -0.200274 0)
(-0.0884867 -0.200683 0)
(-0.0988221 -0.200891 0)
(-0.109321 -0.200902 0)
(-0.119962 -0.20072 0)
(-0.130724 -0.200348 0)
(-0.141581 -0.199787 0)
(-0.152505 -0.199036 0)
(-0.163463 -0.198094 0)
(-0.174416 -0.196958 0)
(-0.18532 -0.195625 0)
(-0.196118 -0.194088 0)
(-0.206725 -0.192344 0)
(-0.217027 -0.190382 0)
(-0.226948 -0.188199 0)
(-0.236519 -0.185803 0)
(-0.245669 -0.18322 0)
(-0.252846 -0.180456 0)
(-0.254324 -0.177038 0)
(-0.248366 -0.172717 0)
(-0.238349 -0.167936 0)
(-0.227273 -0.162793 0)
(-0.215613 -0.157295 0)
(-0.203328 -0.15146 0)
(-0.190487 -0.145324 0)
(-0.177236 -0.138931 0)
(-0.163738 -0.132334 0)
(-0.150153 -0.125593 0)
(-0.136644 -0.118782 0)
(-0.123413 -0.111984 0)
(-0.110777 -0.105306 0)
(-0.099164 -0.0988738 0)
(-0.0890512 -0.0928321 0)
(-0.0808824 -0.0873211 0)
(-0.0749668 -0.0824433 0)
(-0.0713684 -0.0782199 0)
(-0.0698617 -0.0745681 0)
(-0.0700063 -0.0713268 0)
(-0.0712946 -0.0683153 0)
(-0.0732786 -0.0653837 0)
(-0.075625 -0.0624311 0)
(-0.0781125 -0.0593994 0)
(-0.0806067 -0.0562598 0)
(-0.083031 -0.053001 0)
(-0.0853426 -0.049621 0)
(-0.0875167 -0.046123 0)
(-0.0895385 -0.0425129 0)
(-0.091398 -0.0387982 0)
(-0.0930881 -0.0349873 0)
(-0.0946031 -0.0310888 0)
(-0.0959384 -0.0271117 0)
(-0.0970904 -0.0230648 0)
(-0.0980562 -0.0189574 0)
(-0.0988323 -0.0147997 0)
(-0.0994127 -0.0106027 0)
(-0.0997918 -0.00637713 0)
(-0.099987 -0.00213051 0)
(0.0999815 -0.00305555 0)
(0.0997019 -0.00913364 0)
(0.0991492 -0.0151629 0)
(0.0983068 -0.0211274 0)
(0.0971883 -0.0270113 0)
(0.0958066 -0.0327993 0)
(0.0941737 -0.0384775 0)
(0.092305 -0.0440342 0)
(0.0902218 -0.0494595 0)
(0.0879525 -0.0547475 0)
(0.0855345 -0.0598966 0)
(0.0830151 -0.0649118 0)
(0.0804521 -0.069806 0)
(0.0779117 -0.0746014 0)
(0.0754635 -0.0793298 0)
(0.0731715 -0.0840304 0)
(0.0710813 -0.0887454 0)
(0.069207 -0.0935134 0)
(0.0675217 -0.0983615 0)
(0.065955 -0.1033 0)
(0.0644019 -0.108319 0)
(0.0627384 -0.113392 0)
(0.0608401 -0.118479 0)
(0.0585978 -0.123535 0)
(0.0559267 -0.128512 0)
(0.0527694 -0.133366 0)
(0.0490937 -0.138057 0)
(0.0448878 -0.142551 0)
(0.0401554 -0.146821 0)
(0.0349105 -0.150847 0)
(0.0291731 -0.154614 0)
(0.0229667 -0.158111 0)
(0.016316 -0.161333 0)
(0.00924605 -0.164281 0)
(0.00178207 -0.166956 0)
(-0.00605175 -0.169363 0)
(-0.0142332 -0.171509 0)
(-0.022742 -0.173403 0)
(-0.0315596 -0.175053 0)
(-0.040668 -0.17647 0)
(-0.0500498 -0.177663 0)
(-0.0596883 -0.178641 0)
(-0.0695667 -0.179413 0)
(-0.0796682 -0.179985 0)
(-0.0899751 -0.180365 0)
(-0.100469 -0.180557 0)
(-0.11113 -0.180567 0)
(-0.121936 -0.180397 0)
(-0.132863 -0.180049 0)
(-0.143884 -0.179523 0)
(-0.154969 -0.178819 0)
(-0.166082 -0.177936 0)
(-0.177183 -0.176871 0)
(-0.188225 -0.17562 0)
(-0.199148 -0.174182 0)
(-0.209864 -0.17255 0)
(-0.22026 -0.170719 0)
(-0.230277 -0.168686 0)
(-0.239975 -0.166459 0)
(-0.249203 -0.164058 0)
(-0.255818 -0.161498 0)
(-0.256227 -0.158226 0)
(-0.249504 -0.154188 0)
(-0.23928 -0.14976 0)
(-0.228061 -0.145028 0)
(-0.216216 -0.139997 0)
(-0.20373 -0.134682 0)
(-0.190696 -0.129114 0)
(-0.177268 -0.123335 0)
(-0.163613 -0.117392 0)
(-0.149896 -0.111341 0)
(-0.136283 -0.105247 0)
(-0.122991 -0.0991834 0)
(-0.11035 -0.0932459 0)
(-0.098799 -0.0875479 0)
(-0.0888123 -0.0822154 0)
(-0.0808201 -0.0773691 0)
(-0.0751045 -0.0730922 0)
(-0.0716942 -0.0693927 0)
(-0.0703336 -0.0661882 0)
(-0.0705682 -0.0633317 0)
(-0.0718932 -0.0606649 0)
(-0.0738734 -0.0580597 0)
(-0.0761892 -0.055431 0)
(-0.078631 -0.0527307 0)
(-0.0810723 -0.0499349 0)
(-0.0834416 -0.0470345 0)
(-0.0856987 -0.0440281 0)
(-0.0878207 -0.0409187 0)
(-0.0897935 -0.0377112 0)
(-0.0916077 -0.0344124 0)
(-0.0932565 -0.0310294 0)
(-0.0947345 -0.0275697 0)
(-0.0960373 -0.0240411 0)
(-0.0971612 -0.0204514 0)