/*--------------------------------*- C++ -*----------------------------------*\
  =========                 |
  \\      /  F ield         | OpenFOAM: The Open Source CFD Toolbox
   \\    /   O peration     | Website:  https://openfoam.org
    \\  /    A nd           | Version:  8
     \\/     M anipulation  |
\*---------------------------------------------------------------------------*/
FoamFile
{
    version     2.0;
    format      ascii;
    class       volScalarField;
    location    "60/fluid";
    object      CO2;
}
// * * * * * * * * * * * * * * * * * * * * * * * * * * * * * * * * * * * * * //

dimensions      [0 0 0 0 0 0 0];

internalField   nonuniform List<scalar> 
4000
(
7.21486e-07
3.14542e-06
7.18869e-06
1.38834e-05
2.48755e-05
4.27421e-05
7.14222e-05
0.000116758
0.000187096
0.000293849
0.000451827
0.00067915
0.000996563
0.00142612
0.00198938
0.00270548
0.00358935
0.00465063
0.00589313
0.00731507
0.00890981
0.0106669
0.012573
0.0146128
0.0167702
0.0190291
0.0213729
0.0237847
0.0262515
0.0287596
0.0312962
0.0338497
0.0364085
0.0389654
0.041513
0.044039
0.0465441
0.0490179
0.0514612
0.0538701
0.0562426
0.0585783
0.0608769
0.0631384
0.0653629
0.0675507
0.0697022
0.0718177
0.0738977
0.0759425
0.0779525
0.0799242
0.0818623
0.083765
0.085632
0.0874621
0.0892541
0.0910061
0.0927156
0.0943795
0.0959934
0.0975521
0.0990489
0.100475
0.10182
0.103071
0.104211
0.105219
0.10607
0.106727
0.107155
0.107303
0.107105
0.101092
0.0939018
0.0865157
0.0790275
0.0715192
0.0640648
0.0567316
0.049582
0.042676
0.0360722
0.0298304
0.0240327
0.0187106
0.0139711
0.00989578
0.0065619
0.0040196
0.0022525
0.00115186
0.000542782
0.000243165
0.000105038
4.40783e-05
1.79236e-05
6.90724e-06
2.31564e-06
4.06446e-07
6.97881e-07
3.04013e-06
6.93848e-06
1.33783e-05
2.39306e-05
4.10563e-05
6.85238e-05
0.000111941
0.000179363
0.000281889
0.000434064
0.000653897
0.000962285
0.00138176
0.00193468
0.00264115
0.00351717
0.00457327
0.00581391
0.00723768
0.00883781
0.0106043
0.0125237
0.0145808
0.0167576
0.0190353
0.0213976
0.0238308
0.0263191
0.0288483
0.0314058
0.0339776
0.0365514
0.0391233
0.0416833
0.0442232
0.0467397
0.0492238
0.0516754
0.054091
0.0564694
0.0588098
0.0611122
0.0633767
0.0656034
0.0677927
0.069945
0.0720607
0.0741403
0.0761841
0.078192
0.0801676
0.0821075
0.0840116
0.0858795
0.0877104
0.089503
0.0912554
0.0929653
0.0946292
0.0962429
0.0978009
0.0992962
0.10072
0.10206
0.103303
0.10443
0.105419
0.106241
0.106855
0.107229
0.107307
0.107033
0.100051
0.0927539
0.0852628
0.0776801
0.0700909
0.0625694
0.055183
0.0479947
0.0410659
0.0344582
0.0282367
0.0224724
0.0172376
0.0126287
0.00873217
0.00562343
0.00333415
0.00181092
0.000905708
0.000424384
0.000190593
8.29549e-05
3.51829e-05
1.44904e-05
5.65484e-06
1.91505e-06
3.37977e-07
6.77803e-07
2.95294e-06
6.74111e-06
1.30028e-05
2.3271e-05
3.99489e-05
6.6718e-05
0.00010906
0.000174857
0.000274989
0.000423763
0.000638984
0.000941461
0.00135385
0.00189889
0.00259736
0.00346613
0.0045167
0.00575448
0.00717933
0.00878583
0.0105632
0.0124964
0.0145684
0.0167634
0.0190614
0.02145
0.0239105
0.0264271
0.028985
0.0315666
0.0341584
0.0367621
0.0393599
0.0419352
0.0444985
0.047028
0.0495326
0.0519991
0.0544261
0.0568134
0.059161
0.0614692
0.0637381
0.0659684
0.0681604
0.0703147
0.0724319
0.0745125
0.076557
0.078566
0.0805397
0.082478
0.0843806
0.0862472
0.0880766
0.0898676
0.0916183
0.093326
0.0949872
0.0965974
0.0981506
0.0996392
0.101054
0.102381
0.103606
0.104707
0.10566
0.106426
0.106962
0.107213
0.1071
0.105935
0.0985196
0.0909231
0.0832382
0.0755304
0.0678656
0.0603081
0.0529203
0.0457638
0.0389004
0.0323937
0.0263223
0.0207324
0.0157223
0.0113746
0.00776319
0.00494021
0.00290404
0.00157134
0.000785521
0.000368437
0.000165804
7.23037e-05
3.06909e-05
1.26278e-05
4.91802e-06
1.66206e-06
2.92971e-07
6.58969e-07
2.87127e-06
6.5561e-06
1.26495e-05
2.26464e-05
3.88917e-05
6.49823e-05
0.000106284
0.000170538
0.000268471
0.000414261
0.000625666
0.000923581
0.00133092
0.00187091
0.00256493
0.00343058
0.00448015
0.00572038
0.00715141
0.00876652
0.0105543
0.0125022
0.0145952
0.0168129
0.0191386
0.0215563
0.0240483
0.0265979
0.0291845
0.0317941
0.0344277
0.0370646
0.0396833
0.0422966
0.0448866
0.0474415
0.0499634
0.0524466
0.0548889
0.0572898
0.0596491
0.0619672
0.0642446
0.0664818
0.0686796
0.0708385
0.0729594
0.0750429
0.0770896
0.0790999
0.0810743
0.0830128
0.0849151
0.0867809
0.0886091
0.0903984
0.0921467
0.0938513
0.0955084
0.0971131
0.0986589
0.100138
0.101538
0.102847
0.104047
0.105115
0.106024
0.106731
0.107192
0.107357
0.107136
0.103543
0.0960488
0.0883918
0.0806565
0.0729206
0.0652562
0.0577305
0.0504073
0.0433483
0.0366147
0.030269
0.024395
0.0190241
0.0142586
0.0101717
0.0068278
0.00426383
0.00245741
0.00130558
0.000643506
0.000300194
0.000135015
5.90409e-05
2.51794e-05
1.04161e-05
4.07686e-06
1.38279e-06
2.44157e-07
6.43477e-07
2.80434e-06
6.40564e-06
1.23651e-05
2.21492e-05
3.806e-05
6.36328e-05
0.00010415
0.000167249
0.000263549
0.000407144
0.000615778
0.000910465
0.00131442
0.00185135
0.0025433
0.00340875
0.00446117
0.00570677
0.00714452
0.0087699
0.0105735
0.0125415
0.0146554
0.0168965
0.0192545
0.0217054
0.0242317
0.0268109
0.0294276
0.032082
0.0347507
0.0374151
0.0400721
0.0427131
0.0453207
0.0479065
0.0504519
0.0529544
0.0554133
0.0578286
0.0602004
0.0625293
0.0648159
0.0670608
0.0692649
0.071429
0.0735539
0.0756404
0.0776892
0.0797009
0.0816758
0.083614
0.0855155
0.0873797
0.0892057
0.0909919
0.0927363
0.0944357
0.0960862
0.0976822
0.0992167
0.100681
0.102062
0.103345
0.104511
0.105534
0.106383
0.10701
0.107388
0.107459
0.107171
0.100595
0.0932012
0.0855783
0.0778619
0.0701549
0.0625413
0.0550935
0.0478773
0.0409544
0.0343853
0.0282316
0.0225573
0.0174253
0.0129147
0.00909239
0.0060133
0.00369777
0.00210149
0.00110467
0.00054104
0.000252055
0.000113436
4.96752e-05
2.12171e-05
8.78782e-06
3.44226e-06
1.16793e-06
2.06217e-07
6.30174e-07
2.7468e-06
6.27598e-06
1.21193e-05
2.17186e-05
3.73393e-05
6.24655e-05
0.000102314
0.000164448
0.00025942
0.000401303
0.000607901
0.000900424
0.00130245
0.00183822
0.0025305
0.00339867
0.00445558
0.00570818
0.00715786
0.00879925
0.0106221
0.0126121
0.014749
0.0170244
0.0194135
0.0218976
0.0244539
0.0270636
0.0297259
0.0324149
0.0351133
0.0378067
0.0405017
0.0431756
0.0458165
0.0484237
0.0509896
0.0535108
0.0559868
0.0584174
0.0608027
0.0631434
0.06544
0.0676935
0.0699047
0.0720745
0.074204
0.0762939
0.0783451
0.0803582
0.0823336
0.0842714
0.0861717
0.0880337
0.0898565
0.0916385
0.0933773
0.0950695
0.0967108
0.098295
0.0998144
0.101259
0.102614
0.103864
0.104984
0.105946
0.106703
0.107206
0.107394
0.107163
0.105918
0.0983935
0.0907106
0.0829454
0.0751761
0.0674768
0.0599166
0.0525592
0.0454647
0.0386908
0.0322947
0.0263424
0.0208758
0.0159741
0.011705
0.00812938
0.00529296
0.00320062
0.00178963
0.000927864
0.000449956
0.000208891
9.39728e-05
4.12195e-05
1.76542e-05
7.33458e-06
2.88075e-06
9.79199e-07
1.73023e-07
6.19096e-07
2.69895e-06
6.16848e-06
1.19166e-05
2.13657e-05
3.67536e-05
6.15263e-05
0.000100853
0.000162249
0.000256232
0.000396881
0.0006021
0.000893327
0.00129454
0.00183056
0.00252499
0.00339699
0.00446093
0.00572466
0.00718912
0.00884908
0.0106943
0.0127055
0.0148763
0.0171821
0.0196033
0.0221192
0.0247053
0.0273607
0.0300575
0.0327802
0.0355058
0.038243
0.0409672
0.0436608
0.0463339
0.0489662
0.051553
0.0540927
0.0565852
0.0590305
0.0614288
0.0637808
0.0660872
0.068349
0.0705671
0.0727426
0.0748764
0.0769696
0.0790229
0.081037
0.0830125
0.0849494
0.0868477
0.0887067
0.0905253
0.0923018
0.0940335
0.0957168
0.0973467
0.0989166
0.100418
0.101839
0.103166
0.10438
0.105456
0.106364
0.107051
0.107478
0.10758
0.107257
0.103357
0.0958117
0.0880993
0.0803233
0.0725717
0.0649209
0.057439
0.0501874
0.0432234
0.0366018
0.030377
0.024621
0.0193569
0.0146723
0.0106295
0.00728405
0.00467175
0.00278166
0.00153372
0.000786582
0.000378824
0.000175524
7.89637e-05
3.46757e-05
1.48761e-05
6.19094e-06
2.43496e-06
8.28376e-07
1.46412e-07
6.09788e-07
2.65876e-06
6.07828e-06
1.17468e-05
2.10711e-05
3.62671e-05
6.07518e-05
9.96613e-05
0.00016048
0.000253715
0.00039349
0.000597838
0.000888465
0.00128978
0.00182728
0.00252472
0.00340267
0.00447594
0.00575259
0.00723373
0.00891414
0.0107835
0.0128256
0.0150249
0.017362
0.0198171
0.0223609
0.0249921
0.0276821
0.0304133
0.0331624
0.0359328
0.0387
0.0414533
0.0441783
0.0468716
0.0495234
0.0521284
0.0546852
0.0571932
0.0596525
0.0620632
0.0644261
0.0667419
0.0690115
0.0712362
0.0734169
0.0755547
0.0776507
0.0797056
0.0817204
0.0836953
0.0856307
0.0875262
0.0893813
0.0911947
0.0929645
0.0946876
0.0963602
0.0979766
0.0995298
0.10101
0.102405
0.103698
0.104869
0.105892
0.106733
0.107342
0.107695
0.107737
0.107424
0.100798
0.0932812
0.0855839
0.0778325
0.070125
0.0625413
0.0551496
0.0480103
0.0411786
0.0347074
0.028649
0.0230643
0.0179944
0.0135136
0.00968072
0.00654657
0.00413716
0.00242641
0.00131957
0.000669351
0.000320471
0.00014811
6.66091e-05
2.9281e-05
1.25839e-05
5.24712e-06
2.06718e-06
7.04015e-07
1.24481e-07
6.0201e-07
2.62521e-06
6.00318e-06
1.16059e-05
2.08283e-05
3.58692e-05
6.01247e-05
9.87087e-05
0.00015909
0.000251787
0.000390984
0.000594872
0.000885446
0.00128758
0.00182716
0.00252898
0.00341413
0.00449791
0.00578867
0.00728742
0.00898838
0.0108797
0.0129528
0.0151838
0.0175533
0.0200406
0.022626
0.0252908
0.0280151
0.030781
0.0335681
0.036366
0.0391592
0.0419337
0.0446902
0.0474078
0.0500797
0.0527023
0.055275
0.0577975
0.0602696
0.0626917
0.0650645
0.0673888
0.0696657
0.0718962
0.0740815
0.0762228
0.0783209
0.080377
0.0823917
0.0843656
0.0862987
0.0881908
0.0900411
0.0918484
0.0936103
0.0953236
0.096984
0.0985854
0.10012
0.101576
0.102941
0.104195
0.105315
0.106268
0.107002
0.10747
0.107607
0.107296
0.106325
0.0988236
0.0911334
0.0833583
0.0755902
0.067909
0.0603841
0.0530774
0.0460445
0.0393374
0.0330066
0.0271025
0.021675
0.0167834
0.0124893
0.00884845
0.00590687
0.00368037
0.00212828
0.00114318
0.000574387
0.000273815
0.000126311
5.67917e-05
2.49846e-05
1.07515e-05
4.48944e-06
1.77083e-06
6.03553e-07
1.06745e-07
5.95472e-07
2.59704e-06
5.94024e-06
1.14884e-05
2.06266e-05
3.55412e-05
5.96132e-05
9.79425e-05
0.000157995
0.00025031
0.000389155
0.000592888
0.000883806
0.00128725
0.00182972
0.00253671
0.00343
0.00452549
0.00583197
0.00735082
0.00907673
0.0109956
0.0130947
0.0153551
0.0177561
0.020272
0.0228948
0.0255944
0.028351
0.0311446
0.0339696
0.0368006
0.0396249
0.0424287
0.0452034
0.0479386
0.0506268
0.0532648
0.0558518
0.0583873
0.0608711
0.0633036
0.0656855
0.0680175
0.0703008
0.0725365
0.0747258
0.0768698
0.0789696
0.0810262
0.0830403
0.0850124
0.0869426
0.0888306
0.0906755
0.0924759
0.0942292
0.095932
0.0975796
0.0991654
0.100681
0.102114
0.10345
0.10467
0.105748
0.106649
0.107314
0.107711
0.107757
0.107342
0.104462
0.096857
0.0891032
0.0813033
0.0735444
0.0659011
0.0584385
0.0512146
0.0442817
0.0376895
0.0314861
0.0257264
0.0204469
0.0157153
0.0115895
0.00812257
0.00535483
0.00329159
0.00187845
0.000997523
0.000496894
0.000235971
0.000108675
4.88532e-05
2.15077e-05
9.26634e-06
3.87435e-06
1.52991e-06
5.2181e-07
9.23108e-08
5.8995e-07
2.57326e-06
5.88726e-06
1.13898e-05
2.04586e-05
3.52702e-05
5.91953e-05
9.73265e-05
0.000157133
0.000249191
0.000387852
0.000591661
0.000883228
0.00128829
0.00183404
0.00254661
0.0034484
0.00455581
0.00587785
0.00741587
0.00916423
0.0111098
0.0132379
0.0155293
0.0179636
0.0205165
0.0231696
0.0259012
0.028691
0.0315188
0.0343695
0.0372262
0.0400742
0.0429022
0.0456974
0.0484501
0.0511538
0.0538062
0.0564064
0.0589539
0.0614484
0.0638903
0.0662802
0.0686192
0.0709081
0.0731482
0.0753408
0.0774869
0.0795878
0.0816444
0.0836573
0.0856271
0.0875539
0.0894372
0.0912762
0.093069
0.0948131
0.0965049
0.0981391
0.099709
0.101205
0.102616
0.103927
0.105117
0.106161
0.107027
0.107657
0.108024
0.108059
0.107671
0.102594
0.0949771
0.0872172
0.0794266
0.0716953
0.0640983
0.0566992
0.0495541
0.0427135
0.0362253
0.0301364
0.0245057
0.0193599
0.014773
0.0107999
0.00749049
0.00487946
0.00296153
0.00166969
0.00087763
0.000433882
0.000205391
9.44636e-05
4.24594e-05
1.87045e-05
8.0667e-06
3.37644e-06
1.33452e-06
4.55433e-07
8.05844e-08
5.85246e-07
2.55303e-06
5.84228e-06
1.13064e-05
2.03172e-05
3.50441e-05
5.88506e-05
9.68262e-05
0.000156451
0.000248337
0.000386933
0.000590961
0.000883333
0.00129027
0.00183952
0.00255784
0.00346823
0.00458753
0.00592484
0.00748114
0.00924976
0.0112228
0.0133792
0.0156992
0.018161
0.0207494
0.0234358
0.0261996
0.0290211
0.031877
0.0347547
0.0376379
0.0405124
0.0433583
0.0461705
0.0489383
0.0516555
0.0543206
0.0569325
0.0594905
0.0619944
0.0644446
0.0668418
0.0691867
0.0714805
0.0737244
0.0759196
0.0780673
0.0801687
0.0822247
0.084236
0.0862031
0.088126
0.0900042
0.0918365
0.0936212
0.0953553
0.0970349
0.0986544
0.100206
0.101681
0.103066
0.104345
0.105497
0.106495
0.107306
0.10788
0.108192
0.108181
0.107779
0.101025
0.0933392
0.0855511
0.0777617
0.0700547
0.0625006
0.0551602
0.048087
0.0413297
0.0349344
0.0289471
0.0234206
0.0183944
0.0139416
0.0101084
0.00694222
0.0044719
0.00268243
0.0014957
0.000779
0.000382564
0.000180602
8.29661e-05
3.72871e-05
1.64345e-05
7.09379e-06
2.97197e-06
1.17558e-06
4.01391e-07
7.10343e-08
5.81203e-07
2.53566e-06
5.80373e-06
1.12352e-05
2.01971e-05
3.48534e-05
5.85627e-05
9.64147e-05
0.000155902
0.00024768
0.000386289
0.000590633
0.000883922
0.00129281
0.00184562
0.00256973
0.00348874
0.00461996
0.00597284
0.00754857
0.00934079
0.0113369
0.0135196
0.0158684
0.0183615
0.0209762
0.0236897
0.0264799
0.0293259
0.0322096
0.035112
0.0380169
0.0409098
0.0437797
0.0466087
0.0493907
0.0521211
0.0547982
0.057421
0.0599889
0.0625016
0.0649595
0.0673632
0.0697135
0.0720116
0.0742587
0.0764561
0.0786049
0.0807064
0.0827616
0.084771
0.0867351
0.0886538
0.0905267
0.0923523
0.0941287
0.0958527
0.0975198
0.0991241
0.100657
0.102109
0.103464
0.104705
0.105808
0.106743
0.107461
0.10792
0.108068
0.107819
0.107081
0.0995844
0.0918724
0.0840752
0.0762947
0.0686136
0.0611004
0.0538139
0.0468056
0.0401225
0.033809
0.027909
0.0224651
0.0175497
0.0132138
0.00951034
0.00647232
0.00412607
0.00244834
0.00135155
0.000698186
0.000340867
0.000160535
7.36712e-05
3.31046e-05
1.45968e-05
6.30481e-06
2.64338e-06
1.04627e-06
3.57383e-07
6.32548e-08
5.77701e-07
2.52062e-06
5.77041e-06
1.11739e-05
2.00941e-05
3.46907e-05
5.83192e-05
9.60711e-05
0.000155454
0.000247164
0.000385835
0.000590543
0.000884783
0.00129562
0.00185191
0.00258162
0.00350893
0.00465159
0.00601928
0.00761328
0.00942724
0.0114455
0.0136527
0.0160275
0.0185471
0.0211883
0.0239277
0.0267431
0.0296132
0.0325199
0.0354435
0.0383675
0.0412768
0.0441596
0.0470035
0.0498005
0.0525448
0.0552344
0.0578683
0.0604458
0.0629667
0.0654313
0.0678406
0.0701954
0.072497
0.0747466
0.0769455
0.079095
0.0811963
0.0832501
0.0852574
0.0872184
0.089133
0.0910006
0.0928198
0.0945883
0.0963027
0.0979583
0.0995485
0.101064
0.102495
0.103823
0.10503
0.106089
0.106965
0.107594
0.107945
0.107931
0.107431
0.106117
0.0984625
0.090666
0.0828306
0.0750432
0.0673776
0.0598969
0.0526562
0.0457051
0.0390894
0.032854
0.0270459
0.0217197
0.016898
0.0126352
0.00901499
0.00607901
0.00383672
0.00225377
0.00123282
0.000632198
0.000307046
0.000144303
6.61587e-05
2.97225e-05
1.31089e-05
5.665e-06
2.3765e-06
9.41099e-07
3.21562e-07
5.69206e-08
5.74657e-07
2.50755e-06
5.74149e-06
1.11207e-05
2.00049e-05
3.45505e-05
5.81106e-05
9.57793e-05
0.000155078
0.000246745
0.000385499
0.000590578
0.000885738
0.00129843
0.001858
0.00259296
0.00352797
0.00468111
0.0060621
0.00767181
0.00950289
0.0115443
0.0137753
0.0161743
0.0187184
0.0213835
0.0241463
0.0269841
0.0298755
0.0328024
0.0357443
0.0386853
0.0416102
0.0445078
0.0473667
0.0501746
0.0529285
0.055627
0.0582691
0.0608541
0.0633816
0.0658521
0.0682663
0.0706252
0.0729299
0.0751817
0.0773819
0.0795318
0.0816326
0.0836853
0.0856904
0.0876484
0.0895592
0.0914219
0.0932352
0.0949967
0.0967029
0.0983488
0.0999277
0.101431
0.102845
0.104156
0.105343
0.106379
0.107227
0.107829
0.108152
0.108122
0.107627
0.105171
0.0974555
0.0896201
0.081767
0.0739802
0.0663301
0.0588771
0.051674
0.0447687
0.0382063
0.0320317
0.0262931
0.0210283
0.0162884
0.0121332
0.00859353
0.00574668
0.0035945
0.00209248
0.00113535
0.00057848
0.000279703
0.000131212
6.0103e-05
2.69948e-05
1.19074e-05
5.14762e-06
2.16037e-06
8.55829e-07
2.92496e-07
5.17797e-08
5.72025e-07
2.49625e-06
5.71647e-06
1.10747e-05
1.99279e-05
3.44295e-05
5.79311e-05
9.55292e-05
0.000154759
0.000246396
0.000385236
0.000590662
0.000886674
0.00130107
0.00186364
0.00260341
0.00354549
0.00470833
0.00610182
0.00772689
0.00957626
0.011636
0.0138869
0.0163071
0.018873
0.0215585
0.0243414
0.0271984
0.0301074
0.033052
0.0360106
0.0389662
0.0419037
0.0448116
0.047678
0.0504942
0.0532575
0.055965
0.0586152
0.0612074
0.0637413
0.0662172
0.0686359
0.0709983
0.0733057
0.0755593
0.0777606
0.0799107
0.082011
0.0840623
0.0860654
0.0880205
0.0899277
0.091786
0.0935941
0.0953495
0.0970488
0.098687
0.100257
0.101751
0.103155
0.104456
0.105632
0.106658
0.107501
0.108104
0.10844
0.108441
0.108011
0.104352
0.0965986
0.0887411
0.0808802
0.0730979
0.0654625
0.0580335
0.050863
0.0439989
0.0374854
0.0313647
0.0256762
0.0204559
0.0157742
0.011686
0.00824218
0.00546743
0.00339272
0.00195949
0.00105576
0.000534903
0.000257903
0.000120755
5.52606e-05
2.48112e-05
1.09445e-05
4.73237e-06
1.9867e-06
7.87243e-07
2.69103e-07
4.76414e-08
5.69792e-07
2.48666e-06
5.69523e-06
1.10356e-05
1.98624e-05
3.43265e-05
5.77781e-05
9.53159e-05
0.000154488
0.000246099
0.000385016
0.000590749
0.000887508
0.0013034
0.00186861
0.0026126
0.00356089
0.00473221
0.00613655
0.00777475
0.00963922
0.0117156
0.0139834
0.016421
0.0190039
0.021708
0.0245087
0.0273827
0.0303083
0.0332658
0.0362352
0.0392006
0.0421474
0.0450636
0.0479389
0.0507661
0.053538
0.0562528
0.0589094
0.0615071
0.0640457
0.0665255
0.0689474
0.0713122
0.0736213
0.075876
0.0780777
0.0802276
0.082327
0.0843769
0.0863779
0.0883304
0.0902342
0.0920887
0.0938923
0.0956427
0.0973363
0.0989681
0.100531
0.102018
0.103415
0.104707
0.105877
0.106898
0.107738
0.108343
0.108689
0.10871
0.108317
0.103714
0.0959218
0.0880437
0.0801757
0.0723971
0.0647752
0.0573681
0.0502257
0.043393
0.0369091
0.0308165
0.025157
0.0199829
0.015352
0.0113197
0.00793623
0.00523895
0.00322894
0.0018524
0.000992176
0.000500348
0.000240672
0.000112528
5.14536e-05
2.30935e-05
1.01862e-05
4.40505e-06
1.84966e-06
7.33088e-07
2.50625e-07
4.43722e-08
5.67985e-07
2.47889e-06
5.67799e-06
1.10038e-05
1.98089e-05
3.42422e-05
5.76523e-05
9.51398e-05
0.000154262
0.00024585
0.000384828
0.000590812
0.000888188
0.00130532
0.00187272
0.00262022
0.00357365
0.00475196
0.00616518
0.00781398
0.00969043
0.0117796
0.0140622
0.0165143
0.0191114
0.0218301
0.0246441
0.0275304
0.0304668
0.0334328
0.036411
0.0393842
0.0423369
0.0452585
0.0481401
0.050974
0.0537538
0.0564755
0.059138
0.0617409
0.0642838
0.0667672
0.0691917
0.0715586
0.0738691
0.0761245
0.0783264
0.0804759
0.0825744
0.0846229
0.086622
0.0885721
0.0904731
0.0923241
0.0941238
0.0958698
0.0975585
0.0991849
0.100742
0.102222
0.103613
0.104899
0.106061
0.107076
0.107911
0.108512
0.108859
0.108883
0.108496
0.103256
0.0954252
0.0875258
0.0796496
0.0718728
0.0642595
0.0568633
0.0497331
0.0429131
0.0364486
0.0303816
0.0247558
0.0196178
0.0150269
0.011039
0.00770522
0.00506199
0.00310179
0.00176956
0.000943286
0.000473939
0.000227556
0.000106278
4.85663e-05
2.17916e-05
9.61144e-06
4.15689e-06
1.74575e-06
6.92022e-07
2.36615e-07
4.18937e-08
5.66669e-07
2.47321e-06
5.66535e-06
1.09803e-05
1.97693e-05
3.41793e-05
5.75578e-05
9.50065e-05
0.00015409
0.000245658
0.000384678
0.000590847
0.000888684
0.00130676
0.00187582
0.00262597
0.0035833
0.0047669
0.00618682
0.00784361
0.00972907
0.011828
0.0141206
0.0165834
0.0191913
0.021919
0.024742
0.0276362
0.0305795
0.0335515
0.036534
0.0395095
0.0424652
0.0453906
0.0482769
0.0511165
0.0539032
0.056632
0.0593004
0.0619076
0.0644537
0.0669395
0.0693657
0.0717337
0.0740448
0.0763005
0.0785021
0.080651
0.0827485
0.0847955
0.0867929
0.0887409
0.0906393
0.0924875
0.094284
0.0960263
0.0977109
0.0993329
0.100886
0.10236
0.103745
0.105025
0.106182
0.107191
0.108021
0.108617
0.10896
0.10898
0.108589
0.102963
0.0951016
0.0871834
0.0792974
0.0715169
0.0639038
0.0565131
0.0493925
0.0425864
0.0361372
0.0300878
0.0244821
0.0193668
0.0148017
0.0108429
0.0075413
0.00493206
0.0030104
0.00171071
0.000908794
0.000455387
0.000218365
0.000101906
4.65496e-05
2.08835e-05
9.21116e-06
3.98434e-06
1.67363e-06
6.6357e-07
2.26923e-07
4.01807e-08
5.65952e-07
2.47012e-06
5.65843e-06
1.09674e-05
1.97474e-05
3.41442e-05
5.75047e-05
9.49311e-05
0.000153991
0.000245546
0.000384586
0.000590853
0.000888942
0.00130753
0.00187751
0.00262914
0.00358865
0.0047752
0.00619888
0.00786017
0.00975079
0.0118554
0.0141537
0.0166221
0.0192354
0.0219684
0.024796
0.0276943
0.0306411
0.0336154
0.0365982
0.0395745
0.0425318
0.0454593
0.0483483
0.0511911
0.0539817
0.056715
0.0593872
0.061997
0.064545
0.067032
0.0694591
0.0718276
0.0741388
0.0763943
0.0785955
0.0807438
0.0828404
0.0848865
0.0868826
0.0888291
0.0907259
0.0925722
0.0943666
0.0961065
0.0977885
0.0994077
0.100957
0.102428
0.10381
0.105086
0.106239
0.107245
0.108073
0.108671
0.109021
0.109061
0.108711
0.102857
0.0949551
0.0870154
0.079119
0.0713349
0.0637231
0.056336
0.0492209
0.0424216
0.0359804
0.02994
0.0243445
0.0192407
0.0146887
0.0107446
0.00745969
0.00486846
0.00296488
0.00168112
0.000891308
0.000445942
0.00021368
9.9676e-05
4.55203e-05
2.04198e-05
9.00668e-06
3.89616e-06
1.63675e-06
6.49019e-07
2.21966e-07
3.93047e-08
5.65929e-07
2.47002e-06
5.6582e-06
1.0967e-05
1.97466e-05
3.41428e-05
5.75024e-05
9.49271e-05
0.000153984
0.000245535
0.000384568
0.000590825
0.000888898
0.00130746
0.00187741
0.00262899
0.00358843
0.0047749
0.00619847
0.00785964
0.00975014
0.0118546
0.0141528
0.0166211
0.0192345
0.0219675
0.0247953
0.0276939
0.0306409
0.0336154
0.0365984
0.0395748
0.0425322
0.0454597
0.0483485
0.0511912
0.0539815
0.0567146
0.0593865
0.0619962
0.0645442
0.0670311
0.0694581
0.0718265
0.0741377
0.0763931
0.0785943
0.0807425
0.0828391
0.084885
0.086881
0.0888274
0.0907241
0.0925704
0.0943646
0.0961045
0.0977865
0.0994056
0.100955
0.102426
0.103808
0.105084
0.106238
0.107244
0.108072
0.10867
0.10902
0.109058
0.108708
0.102856
0.0949541
0.0870143
0.0791179
0.0713339
0.0637221
0.0563351
0.04922
0.0424208
0.0359796
0.0299392
0.0243437
0.0192399
0.0146879
0.0107439
0.00745905
0.00486793
0.00296449
0.00168085
0.00089115
0.000445857
0.000213638
9.96566e-05
4.55117e-05
2.04162e-05
9.00518e-06
3.89556e-06
1.63652e-06
6.48935e-07
2.21938e-07
3.92999e-08
5.66598e-07
2.47291e-06
5.66466e-06
1.0979e-05
1.97669e-05
3.41752e-05
5.7551e-05
9.49954e-05
0.000154072
0.000245629
0.000384632
0.000590775
0.000888574
0.00130659
0.00187556
0.00262558
0.00358274
0.0047661
0.00618574
0.00784219
0.00972734
0.011826
0.0141181
0.0165806
0.0191885
0.0219165
0.0247398
0.0276346
0.0305787
0.0335515
0.0365346
0.0395111
0.0424674
0.045393
0.0482792
0.0511187
0.0539051
0.0566333
0.0593009
0.0619076
0.0644533
0.0669386
0.0693645
0.0717322
0.074043
0.0762982
0.0784994
0.080648
0.0827451
0.0847917
0.0867887
0.0887363
0.0906344
0.0924823
0.0942784
0.0960204
0.0977047
0.0993264
0.100879
0.102353
0.103738
0.105018
0.106174
0.107183
0.108012
0.108608
0.10895
0.10897
0.108578
0.102963
0.095101
0.0871823
0.0792961
0.0715154
0.0639022
0.0565113
0.0493905
0.0425841
0.0361347
0.0300852
0.0244796
0.0193643
0.0147993
0.0108407
0.00753934
0.0049305
0.00300934
0.00171007
0.000908428
0.000455197
0.000218274
0.000101864
4.65313e-05
2.08758e-05
9.20806e-06
3.98313e-06
1.67317e-06
6.63406e-07
2.2687e-07
4.01717e-08
5.67872e-07
2.4784e-06
5.67688e-06
1.10016e-05
1.98051e-05
3.42356e-05
5.76412e-05
9.51217e-05
0.000154232
0.000245803
0.000384753
0.000590695
0.000888006
0.00130505
0.0018723
0.00261959
0.00357274
0.00475067
0.0061634
0.00781162
0.00968738
0.0117758
0.0140581
0.01651
0.0191069
0.0218255
0.0246399
0.0275269
0.0304645
0.0334325
0.0364119
0.0393859
0.0423397
0.0452617
0.0481439
0.0509778
0.0537573
0.0564786
0.0591407
0.0617428
0.0642849
0.0667673
0.069191
0.0715571
0.0738667
0.0761214
0.0783225
0.0804713
0.082569
0.0846168
0.0866152
0.0885646
0.0904649
0.0923153
0.0941145
0.0958599
0.0975481
0.0991742
0.100731
0.102211
0.103601
0.104886
0.106048
0.107061
0.107895
0.108495
0.10884
0.108863
0.108476
0.103255
0.0954251
0.0875254
0.0796487
0.0718712
0.0642571
0.0568603
0.0497297
0.0429094
0.0364444
0.0303771
0.0247515
0.0196137
0.015023
0.0110354
0.00770177
0.00505897
0.00309994
0.00176844
0.000942674
0.000473629
0.000227408
0.00010621
4.85367e-05
2.17791e-05
9.60639e-06
4.15492e-06
1.74501e-06
6.9176e-07
2.36532e-07
4.18795e-08
5.69643e-07
2.48601e-06
5.69375e-06
1.10327e-05
1.98573e-05
3.43178e-05
5.77634e-05
9.52917e-05
0.000154448
0.000246035
0.000384916
0.000590593
0.000887266
0.00130303
0.00186805
0.00261177
0.00355969
0.00473051
0.00613423
0.0077717
0.00963536
0.0117109
0.0139782
0.0164153
0.0189981
0.0217022
0.0245032
0.0273778
0.0303042
0.0332621
0.0362337
0.0392015
0.0421507
0.0450675
0.047943
0.0507688
0.0535396
0.0562534
0.058909
0.0615057
0.0640433
0.0665221
0.068943
0.0713069
0.0736151
0.0758689
0.0780697
0.0802188
0.0823174
0.0843665
0.0863668
0.0883187
0.0902219
0.0920758
0.093879
0.0956289
0.0973221
0.0989537
0.100517
0.102003
0.103399
0.104691
0.105859
0.106878
0.107715
0.108317
0.108661
0.10868
0.108284
0.103714
0.0959221
0.0880433
0.0801745
0.0723953
0.0647727
0.0573647
0.0502216
0.0433889
0.0369036
0.0308079
0.0251511
0.0199782
0.015348
0.0113163
0.00793352
0.00523687
0.00322726
0.0018513
0.000991507
0.000499984
0.000240493
0.000112445
5.14172e-05
2.30783e-05
1.01801e-05
4.40272e-06
1.84882e-06
7.328e-07
2.50537e-07
4.43572e-08
5.7185e-07
2.49549e-06
5.71474e-06
1.10713e-05
1.99219e-05
3.44192e-05
5.79136e-05
9.55003e-05
0.000154712
0.00024632
0.000385115
0.000590474
0.000886383
0.00130063
0.00186298
0.00260244
0.00354411
0.0047064
0.00609921
0.00772349
0.00957196
0.0116307
0.0138806
0.0162999
0.0188651
0.0215506
0.024334
0.0271923
0.0301037
0.0330483
0.036007
0.0389639
0.0419039
0.0448137
0.04768
0.050496
0.0532581
0.0559642
0.058613
0.0612038
0.0637364
0.066211
0.0686285
0.0709897
0.073296
0.0755486
0.0777489
0.0798981
0.0819975
0.084048
0.0860503
0.0880048
0.0899112
0.091769
0.0935766
0.0953316
0.0970306
0.0986683
0.100238
0.101731
0.103135
0.104434
0.105608
0.106632
0.10747
0.108069
0.1084
0.108397
0.107958
0.104352
0.0965999
0.0887428
0.080882
0.0731
0.0654656
0.0580377
0.0508676
0.0440027
0.0374888
0.0313683
0.0256755
0.0204532
0.0157708
0.0116825
0.00823909
0.00546511
0.00339087
0.00195821
0.00105498
0.000534478
0.000257693
0.000120658
5.52181e-05
2.47936e-05
1.09376e-05
4.72984e-06
1.98581e-06
7.86956e-07
2.6902e-07
4.76275e-08
5.74469e-07
2.50673e-06
5.73962e-06
1.1117e-05
1.99984e-05
3.45392e-05
5.80916e-05
9.57477e-05
0.000155027
0.000246662
0.000385368
0.000590372
0.00088542
0.00129795
0.00185728
0.0025919
0.00352646
0.00467899
0.0060592
0.00766798
0.00949799
0.0115383
0.013768
0.016166
0.0187091
0.0213736
0.0241363
0.0269746
0.0298671
0.0327939
0.0357367
0.0386788
0.0416052
0.0445028
0.0473592
0.0501661
0.0529195
0.0556175
0.058259
0.0608432
0.06337
0.0658398
0.0682532
0.0706113
0.0729152
0.0751661
0.0773656
0.0795147
0.0816147
0.0836666
0.085671
0.0876282
0.0895383
0.0914004
0.0932131
0.094974
0.0966798
0.0983253
0.0999039
0.101406
0.102821
0.104131
0.105316
0.106349
0.107194
0.107792
0.108109
0.10807
0.107556
0.105168
0.097458
0.0896251
0.081773
0.0739864
0.066336
0.0588819
0.0516775
0.0447707
0.038207
0.0320313
0.02629
0.0210262
0.0162861
0.0121304
0.0085902
0.00574434
0.00359275
0.00209125
0.00113458
0.000578055
0.000279492
0.000131114
6.00606e-05
2.69777e-05
1.1901e-05
5.1454e-06
2.15968e-06
8.55637e-07
2.92449e-07
5.17727e-08
5.77514e-07
2.5198e-06
5.76854e-06
1.11702e-05
2.00875e-05
3.46793e-05
5.83e-05
9.60391e-05
0.000155401
0.000247079
0.000385701
0.000590333
0.000884457
0.00129513
0.00185117
0.00258053
0.00350736
0.00464936
0.00601621
0.00760916
0.0094219
0.0114388
0.0136445
0.0160178
0.018536
0.0211759
0.0239143
0.0267292
0.0295993
0.0325052
0.0354287
0.038353
0.0412633
0.0441459
0.0469911
0.0497877
0.0525312
0.05522
0.057853
0.0604297
0.0629499
0.065414
0.0678227
0.0701769
0.0724779
0.0747268
0.0769251
0.0790738
0.0811743
0.0832275
0.085234
0.0871943
0.0891082
0.0909752
0.0927937
0.0945617
0.0962758
0.0979311
0.0995211
0.101037
0.102467
0.103795
0.105002
0.10606
0.106935
0.107565
0.107917
0.107906
0.10741
0.106124
0.0984746
0.0906794
0.0828441
0.0750563
0.0673898
0.0599078
0.0526656
0.045713
0.0390963
0.032861
0.0270539
0.0217225
0.0168984
0.0126347
0.00901457
0.00607789
0.00383557
0.00225287
0.00123222
0.00063185
0.000306867
0.000144222
6.61246e-05
2.97097e-05
1.31046e-05
5.66386e-06
2.37633e-06
9.41134e-07
3.21598e-07
5.69287e-08
5.81033e-07
2.53491e-06
5.80203e-06
1.12319e-05
2.01911e-05
3.48429e-05
5.85449e-05
9.63849e-05
0.000155853
0.0002476
0.000386162
0.000590433
0.000883612
0.00129234
0.00184491
0.00256868
0.00348722
0.00461782
0.00596986
0.00754451
0.00933533
0.0113297
0.0135104
0.0158571
0.0183479
0.0209605
0.0236719
0.0264601
0.0293039
0.0321876
0.0350898
0.0379944
0.0408867
0.0437553
0.0465849
0.0493681
0.0520996
0.0547775
0.0574008
0.0599689
0.0624815
0.064939
0.0673421
0.0696919
0.0719893
0.0742357
0.0764324
0.0785805
0.0806812
0.0827355
0.0847442
0.0867075
0.0886256
0.0904977
0.0923227
0.0940986
0.0958222
0.0974891
0.0990932
0.100626
0.102078
0.103434
0.104675
0.10578
0.106716
0.107436
0.1079
0.108057
0.107822
0.107105
0.0996149
0.0919031
0.0841039
0.0763211
0.0686375
0.0611218
0.0538327
0.0468217
0.040136
0.0338197
0.0279162
0.0224706
0.0175517
0.0132157
0.00951154
0.00647274
0.00412604
0.00244814
0.00135133
0.000698029
0.000340778
0.000160496
7.36573e-05
3.31013e-05
1.45971e-05
6.30581e-06
2.64419e-06
1.04672e-06
3.57568e-07
6.32896e-08
5.85111e-07
2.55244e-06
5.84092e-06
1.13038e-05
2.03124e-05
3.50356e-05
5.88358e-05
9.68013e-05
0.000156409
0.000248269
0.000386823
0.000590786
0.000883057
0.00128984
0.00183885
0.00255683
0.00346674
0.00458535
0.00592172
0.0074768
0.00924386
0.011215
0.0133691