/*--------------------------------*- C++ -*----------------------------------*\
  =========                 |
  \\      /  F ield         | OpenFOAM: The Open Source CFD Toolbox
   \\    /   O peration     | Website:  https://openfoam.org
    \\  /    A nd           | Version:  8
     \\/     M anipulation  |
\*---------------------------------------------------------------------------*/
FoamFile
{
    version     2.0;
    format      ascii;
    class       volScalarField;
    location    "60/fluid";
    object      H2O;
}
// * * * * * * * * * * * * * * * * * * * * * * * * * * * * * * * * * * * * * //

dimensions      [0 0 0 0 0 0 0];

internalField   nonuniform List<scalar> 
4000
(
5.90674e-07
2.57513e-06
5.88532e-06
1.13662e-05
2.03653e-05
3.49926e-05
5.84727e-05
9.55885e-05
0.000153174
0.000240572
0.000369907
0.000556014
0.000815877
0.00116755
0.00162869
0.00221495
0.00293857
0.00380743
0.00482465
0.00598879
0.00729438
0.00873288
0.0102934
0.0119634
0.0137296
0.015579
0.0174978
0.0194723
0.0214919
0.0235452
0.0256219
0.0277125
0.0298073
0.0319006
0.0339864
0.0360543
0.0381052
0.0401305
0.0421309
0.044103
0.0460453
0.0479576
0.0498394
0.0516908
0.053512
0.0553032
0.0570646
0.0587965
0.0604994
0.0621735
0.0638191
0.0654333
0.0670199
0.0685777
0.0701061
0.0716044
0.0730715
0.0745059
0.0759055
0.0772676
0.078589
0.0798651
0.0810904
0.0822581
0.0833594
0.0843834
0.0853165
0.0861419
0.0868386
0.0873765
0.0877271
0.0878484
0.0876857
0.0827633
0.0768765
0.0708296
0.0646991
0.0585522
0.0524493
0.0464456
0.0405924
0.0349385
0.029532
0.0244218
0.0196753
0.0153182
0.011438
0.00810159
0.00537217
0.00329081
0.0018441
0.000943021
0.00044437
0.000199077
8.59934e-05
3.60866e-05
1.46739e-05
5.65489e-06
1.8958e-06
3.32754e-07
5.71349e-07
2.48893e-06
5.68047e-06
1.09527e-05
1.95918e-05
3.36125e-05
5.60998e-05
9.16447e-05
0.000146843
0.00023078
0.000355364
0.00053534
0.000787814
0.00113123
0.0015839
0.00216229
0.00287948
0.00374409
0.0047598
0.00592542
0.00723544
0.00868164
0.0102531
0.0119372
0.0137193
0.015584
0.017518
0.0195101
0.0215472
0.0236179
0.0257117
0.0278172
0.0299243
0.0320299
0.0341258
0.0362052
0.0382653
0.0402991
0.0423062
0.0442838
0.046231
0.0481471
0.050032
0.0518859
0.0537089
0.0555013
0.0572634
0.0589955
0.060698
0.0623712
0.0640151
0.0656325
0.0672207
0.0687796
0.0703088
0.0718078
0.0732753
0.07471
0.0761098
0.0774721
0.0787932
0.0800688
0.0812929
0.0824583
0.0835556
0.0845731
0.0854959
0.0863056
0.0869788
0.0874816
0.0877877
0.0878516
0.0876266
0.081911
0.0759368
0.0698039
0.063596
0.0573828
0.051225
0.0451778
0.0392929
0.0336203
0.0282106
0.0231171
0.0183979
0.0141123
0.010339
0.00714895
0.00460385
0.00272964
0.00148259
0.000741495
0.000347439
0.000156037
6.79144e-05
2.88039e-05
1.18631e-05
4.62957e-06
1.56783e-06
2.76699e-07
5.54911e-07
2.41755e-06
5.51889e-06
1.06453e-05
1.90518e-05
3.27058e-05
5.46215e-05
8.92863e-05
0.000143154
0.000225131
0.000346931
0.00052313
0.000770766
0.00110838
0.0015546
0.00212644
0.00283769
0.00369778
0.00471114
0.00587766
0.00719288
0.00864803
0.0102307
0.011927
0.0137241
0.0156054
0.0175609
0.0195753
0.0216356
0.0237297
0.0258433
0.0279651
0.0300968
0.0322236
0.034332
0.0364305
0.0385014
0.0405519
0.0425712
0.0445582
0.0465127
0.0484346
0.0503243
0.0521819
0.0540077
0.0558023
0.0575661
0.0592994
0.0610027
0.0626766
0.0643213
0.0659371
0.067524
0.0690817
0.0706098
0.0721075
0.0735738
0.0750071
0.0764051
0.0777652
0.0790834
0.080355
0.0815738
0.0827316
0.0838184
0.084821
0.0857229
0.0865026
0.0871304
0.087569
0.0877742
0.0876818
0.0867278
0.0806572
0.0744379
0.0681464
0.0618361
0.055561
0.0493737
0.0433254
0.0374664
0.0318474
0.0265204
0.0215499
0.0169735
0.0128717
0.00931228
0.00635565
0.00404451
0.00237751
0.00128644
0.000643099
0.000301636
0.000135742
5.91944e-05
2.51264e-05
1.03383e-05
4.02634e-06
1.36072e-06
2.39853e-07
5.39492e-07
2.35068e-06
5.36742e-06
1.03561e-05
1.85404e-05
3.18403e-05
5.32005e-05
8.70141e-05
0.000139618
0.000219794
0.000339152
0.000512227
0.000756127
0.00108962
0.00153169
0.00209989
0.00280859
0.00366786
0.00468322
0.00585479
0.00717707
0.00864073
0.0102355
0.011949
0.0137646
0.0156686
0.0176479
0.0196881
0.0217755
0.0238931
0.0260295
0.0281856
0.0303445
0.0324884
0.0346278
0.0367482
0.0388399
0.0409046
0.0429376
0.044937
0.0469026
0.0488342
0.050732
0.0525965
0.0544281
0.0562273
0.0579949
0.0597312
0.0614369
0.0631125
0.0647584
0.0663748
0.0679618
0.0695193
0.0710467
0.0725435
0.0740084
0.0754397
0.0768352
0.0781919
0.0795057
0.0807712
0.0819817
0.0831284
0.0842
0.0851823
0.086057
0.0868009
0.0873793
0.0877574
0.0878919
0.0877111
0.0847701
0.0786343
0.0723656
0.0660328
0.0596995
0.0534247
0.0472635
0.041268
0.0354889
0.0299761
0.0247809
0.019972
0.0155748
0.0116734
0.00832752
0.00558986
0.00349076
0.00201186
0.00106887
0.000526833
0.000245766
0.000110536
4.83363e-05
2.06142e-05
8.5276e-06
3.33769e-06
1.13207e-06
1.99889e-07
5.26809e-07
2.29589e-06
5.24424e-06
1.01232e-05
1.81333e-05
3.11594e-05
5.20956e-05
8.52668e-05
0.000136926
0.000215765
0.000333325
0.000504132
0.00074539
0.00107611
0.00151568
0.00208218
0.00279071
0.00365232
0.00467208
0.00584916
0.00717984
0.00865641
0.0102676
0.0119982
0.013833
0.0157635
0.0177701
0.0198383
0.0219498
0.0240922
0.0262652
0.0284501
0.0306314
0.0328066
0.0349689
0.0371037
0.0392206
0.0413046
0.0433533
0.0453664
0.0473437
0.0492855
0.0511922
0.0530642
0.0549021
0.0567065
0.0584783
0.0602179
0.0619261
0.0636035
0.0652504
0.0668672
0.0684541
0.0700108
0.071537
0.0730319
0.0744943
0.0759224
0.0773137
0.0786649
0.0799716
0.0812279
0.0824263
0.083557
0.0846076
0.0855619
0.0863996
0.0870948
0.0876079
0.0879176
0.0879758
0.0877402
0.0823564
0.076303
0.0700622
0.0637448
0.0574352
0.051202
0.0451046
0.0391967
0.033529
0.028151
0.023113
0.0184674
0.0142659
0.0105732
0.00744386
0.00492304
0.00302733
0.00172047
0.00090438
0.000442944
0.000206355
9.28692e-05
4.06686e-05
1.73703e-05
7.19451e-06
2.81815e-06
9.5617e-07
1.68828e-07
5.15918e-07
2.24878e-06
5.13809e-06
9.922e-06
1.77808e-05
3.05694e-05
5.114e-05
8.37635e-05
0.000134632
0.000212385
0.000328543
0.000497683
0.000737169
0.00106631
0.00150493
0.0020717
0.00278246
0.00364775
0.00467323
0.00586008
0.00720387
0.00869624
0.0103254
0.0120748
0.0139377
0.0158937
0.0179274
0.0200202
0.0221567
0.0243363
0.0265378
0.028747
0.030952
0.0331584
0.0353475
0.0375095
0.039644
0.0417447
0.0438088
0.0458359
0.0478258
0.0497787
0.0516949
0.0535752
0.0554201
0.0572303
0.0590068
0.0607502
0.0624612
0.0641405
0.0657885
0.0674058
0.0689923
0.070548
0.0720724
0.0735647
0.0750236
0.0764472
0.0778326
0.0791763
0.0804733
0.0817172
0.0828995
0.0840093
0.0850322
0.0859496
0.0867371
0.0873569
0.0877689
0.0879221
0.087733
0.0867144
0.0805539
0.0742639
0.0679067
0.061546
0.0552427
0.0490532
0.0430297
0.0372215
0.0316758
0.0264394
0.0215663
0.0170908
0.0130778
0.00958276
0.00665546
0.0043333
0.00262032
0.00146515
0.000759634
0.000368375
0.000171018
7.69347e-05
3.3746e-05
1.44534e-05
6.00476e-06
2.35845e-06
8.01662e-07
1.41653e-07
5.06849e-07
2.20961e-06
5.05008e-06
9.75599e-06
1.74919e-05
3.00898e-05
5.0371e-05
8.25678e-05
0.000132832
0.000209775
0.000324923
0.000492934
0.000731359
0.00105983
0.00149866
0.00206719
0.00278108
0.00365212
0.00468673
0.00588567
0.00724466
0.0087553
0.0104019
0.0121791
0.0140668
0.0160491
0.0181088
0.020226
0.0224
0.0246078
0.0268369
0.0290683
0.0313092
0.0335395
0.0357447
0.0379332
0.0400882
0.042206
0.0442852
0.0463258
0.0483277
0.0502912
0.0522168
0.054105
0.0559567
0.0577727
0.0595537
0.0613007
0.0630143
0.0646953
0.0663443
0.0679616
0.0695473
0.0711014
0.0726234
0.0741123
0.0755667
0.0769844
0.0783625
0.0796969
0.0809822
0.0822113
0.0833751
0.0844615
0.0854551
0.0863363
0.0870796
0.0876415
0.0879909
0.088075
0.0878104
0.0846178
0.0784402
0.0721261
0.06576
0.0594138
0.0531502
0.0470248
0.041088
0.0353866
0.0299656
0.0248694
0.020157
0.0158473
0.0120121
0.0087023
0.00596338
0.00382472
0.00227732
0.00125564
0.000643968
0.00031014
0.0001437
6.46469e-05
2.83887e-05
1.2179e-05
5.06847e-06
1.99348e-06
6.78184e-07
1.19866e-07
4.99228e-07
2.1767e-06
4.97623e-06
9.61697e-06
1.72507e-05
2.96916e-05
4.97369e-05
8.15918e-05
0.000131383
0.000207714
0.000322147
0.000489445
0.000727379
0.00105593
0.00149598
0.00206697
0.00278573
0.00366441
0.0047096
0.00592219
0.00729793
0.00882832
0.0105002
0.0123007
0.0142141
0.0162241
0.0183067
0.0204608
0.0226631
0.0248991
0.0271498
0.0294179
0.0316834
0.0339374
0.0361684
0.0383733
0.0405444
0.0426771
0.0447703
0.0468236
0.048837
0.0508106
0.0527451
0.054641
0.0564991
0.0583204
0.0601058
0.061856
0.0635719
0.0652543
0.0669037
0.0685206
0.0701051
0.071657
0.0731757
0.0746603
0.0761092
0.0775199
0.0788892
0.0802126
0.0814842
0.082696
0.083838
0.0848968
0.0858557
0.0866932
0.0873816
0.08788
0.0881689
0.0882033
0.0879472
0.0825228
0.0763685
0.0700668
0.0637208
0.0574107
0.051202
0.0451505
0.0393056
0.0337126
0.0284146
0.0234547
0.0188826
0.0147318
0.0110635
0.00792552
0.00535962
0.00338706
0.00198648
0.00108032
0.000547992
0.000262367
0.000121257
5.45323e-05
2.39721e-05
1.03023e-05
4.29577e-06
1.69238e-06
5.76371e-07
1.01911e-07
4.9286e-07
2.14924e-06
4.91475e-06
9.50168e-06
1.70519e-05
2.93658e-05
4.92236e-05
8.08119e-05
0.000130246
0.000206136
0.000320095
0.000487016
0.000724907
0.00105413
0.00149588
0.00207046
0.00279511
0.0036824
0.00473913
0.00596614
0.00735871
0.00890709
0.0106044
0.0124309
0.0143708
0.0164071
0.0185237
0.0207054
0.0229357
0.0252001
0.0274819
0.0297725
0.0320593
0.0343308
0.0365875
0.0388123
0.0409998
0.0431469
0.0452532
0.0473183
0.0493422
0.0513251
0.0532677
0.0551706
0.0570347
0.0588608
0.0606499
0.0624029
0.0641207
0.065804
0.0674534
0.0690693
0.070652
0.072201
0.0737159
0.0751954
0.0766379
0.0780406
0.0794
0.080711
0.0819672
0.0831596
0.0842768
0.0853037
0.0862204
0.0870008
0.0876014
0.0879849
0.0880968
0.0878423
0.0870473
0.0809061
0.0746101
0.0682447
0.0618851
0.0555965
0.049436
0.043454
0.0376962
0.0322052
0.0270222
0.0221886
0.0177451
0.0137404
0.0102249
0.00724415
0.00483591
0.00301309
0.0017424
0.000935908
0.000470246
0.00022417
0.00010341
4.64949e-05
2.04547e-05
8.80213e-06
3.67547e-06
1.44976e-06
4.94123e-07
8.73914e-08
4.87508e-07
2.12617e-06
4.86322e-06
9.40542e-06
1.68868e-05
2.90973e-05
4.88048e-05
8.01847e-05
0.000129349
0.000204927
0.000318598
0.000485392
0.000723564
0.00105386
0.00149797
0.00207679
0.00280811
0.00370498
0.00477459
0.00601805
0.00743104
0.009002
0.0107205
0.0125711
0.0145368
0.0165965
0.0187438
0.0209539
0.0232108
0.0254978
0.0278106
0.0301284
0.0324406
0.034736
0.0370076
0.0392469
0.0414477
0.0436074
0.0457254
0.0478012
0.0498347
0.0518261
0.0537761
0.0556853
0.0575547
0.059385
0.0611773
0.0629326
0.0646517
0.0663354
0.0679844
0.0695989
0.0711791
0.0727248
0.0742353
0.0757092
0.0771446
0.0785387
0.0798875
0.0811858
0.0824264
0.0835999
0.084694
0.0856926
0.0865747
0.0873128
0.0878572
0.0881822
0.0882197
0.0878796
0.085522
0.079296
0.072948
0.0665623
0.0602101
0.0539526
0.0478431
0.0419289
0.0362531
0.0308561
0.0257774
0.0210619
0.0167397
0.012866
0.00948826
0.00664988
0.00438396
0.00269479
0.00153787
0.000816663
0.000406803
0.000193188
8.8971e-05
3.99957e-05
1.76082e-05
7.58627e-06
3.1719e-06
1.25252e-06
4.27201e-07
7.5574e-08
4.82987e-07
2.10671e-06
4.81985e-06
9.32474e-06
1.67493e-05
2.88754e-05
4.84627e-05
7.96803e-05
0.000128644
0.00020401
0.000317531
0.000484387
0.000723091
0.00105471
0.00150152
0.00208489
0.00282318
0.0037298
0.00481215
0.00607131
0.00750267
0.00909549
0.0108377
0.0127137
0.0147066
0.0167966
0.0189687
0.0212051
0.0234891
0.0258042
0.028138
0.0304768
0.0328084
0.0351236
0.0374121
0.0396657
0.0418792
0.0440507
0.0461794
0.048265
0.0503072
0.0523064
0.0542631
0.0561779
0.0580518
0.0598858
0.0616808
0.0634379
0.0651578
0.0668415
0.0684895
0.0701022
0.0716796
0.0732215
0.074727
0.0761948
0.0776227
0.0790077
0.0803456
0.0816308
0.0828559
0.0840112
0.085084
0.0860583
0.0869133
0.0876224
0.0881375
0.0884385
0.0884672
0.0881497
0.0839929
0.0777569
0.071404
0.0650258
0.0586963
0.0524767
0.0464191
0.0405695
0.0349692
0.0296573
0.0246724
0.0200626
0.0158498
0.0120945
0.00884175
0.0061324
0.00399477
0.00242458
0.00136696
0.000718508
0.000355216
0.000168152
7.73365e-05
3.47612e-05
1.53132e-05
6.60413e-06
2.76426e-06
1.09256e-06
3.72859e-07
6.59737e-08
4.79136e-07
2.09014e-06
4.78302e-06
9.25648e-06
1.66335e-05
2.86903e-05
4.81804e-05
7.92707e-05
0.000128085
0.000203311
0.000316778
0.000483815
0.000723177
0.00105633
0.00150599
0.00209408
0.00283941
0.00375577
0.00485061
0.00612474
0.00757269
0.00918798
0.0109534
0.0128528
0.0148683
0.0169874
0.0191867
0.0214494
0.0237593
0.0260974
0.0284534
0.0308138
0.0331672
0.035497
0.0377994
0.0400653
0.0422899
0.0444718
0.0466101
0.0487043
0.0507543
0.0527603
0.0547228
0.0566425
0.0585204
0.0603575
0.0621547
0.063913
0.0656334
0.0673166
0.0689633
0.0705737
0.072148
0.0736856
0.0751858
0.0766468
0.0780666
0.0794417
0.0807675
0.0820381
0.0832455
0.0843793
0.0854262
0.0863692
0.0871867
0.0878505
0.0883206
0.0885756
0.0885664
0.0882381
0.0827085
0.076416
0.07004
0.0636628
0.0573531
0.0511687
0.0451592
0.0393684
0.0338362
0.0286005
0.0236988
0.0191743
0.0150593
0.0114139
0.00827568
0.00568354
0.00366111
0.00219608
0.00122451
0.000637761
0.000313202
0.000147857
6.79236e-05
3.05266e-05
1.34548e-05
5.80763e-06
2.43312e-06
9.62434e-07
3.28615e-07
5.81551e-08
4.75826e-07
2.07592e-06
4.75146e-06
9.19819e-06
1.65352e-05
2.85342e-05
4.79448e-05
7.89339e-05
0.000127636
0.000202773
0.000316251
0.000483546
0.000723659
0.00105842
0.00151099
0.00210381
0.0028562
0.00378232
0.00488991
0.00617995
0.00764722
0.00928145
0.0110684
0.0129913
0.0150324
0.017173
0.0193945
0.0216789
0.0240089
0.0263697
0.0287459
0.0311241
0.0334925
0.035842
0.0381581
0.0404357
0.0426711
0.0448628
0.0470101
0.0491124
0.0511695
0.0531818
0.0551496
0.0570738
0.0589553
0.060795
0.0625939
0.0643532
0.0660737
0.0677562
0.0694012
0.0710092
0.0725801
0.0741134
0.075608
0.0770623
0.0784737
0.0798386
0.081152
0.0824072
0.0835954
0.0847051
0.0857212
0.0866245
0.0873899
0.0879773
0.0883529
0.0884742
0.0882701
0.0876665
0.0815289
0.0752152
0.0688316
0.0624618
0.0561734
0.0500224
0.0440569
0.0383193
0.0328479
0.0276791
0.0228489
0.018392
0.0143678
0.0108181
0.00778603
0.00529883
0.00337798
0.00200443
0.0011065
0.000571598
0.000279065
0.000131429
6.0314e-05
2.71025e-05
1.19503e-05
5.16169e-06
2.16411e-06
8.56569e-07
2.92586e-07
5.17861e-08
4.72959e-07
2.06361e-06
4.72418e-06
9.14794e-06
1.64508e-05
2.84009e-05
4.77454e-05
7.86525e-05
0.000127268
0.000202351
0.00031588
0.000483473
0.000724364
0.00106072
0.00151614
0.00211355
0.00287273
0.00380821
0.00492793
0.00623292
0.007718
0.00937035
0.0111774
0.0131216
0.0151844
0.0173467
0.0195894
0.0218943
0.0242441
0.0266237
0.0290173
0.0314111
0.033793
0.0361531
0.0384814
0.0407712
0.0430179
0.0452199
0.0473762
0.0494864
0.0515503
0.0535681
0.0555405
0.0574684
0.0593527
0.0611944
0.0629946
0.0647544
0.0664747
0.0681562
0.0697995
0.071405
0.0729724
0.0745014
0.0759908
0.0774386
0.0788422
0.0801976
0.0814995
0.0827406
0.0839113
0.0849991
0.0859873
0.0868541
0.087571
0.0880865
0.0883734
0.0883626
0.0879531
0.0868767
0.0806104
0.0742275
0.0678127
0.0614372
0.0551615
0.0490371
0.0431092
0.0374183
0.0320022
0.0268973
0.0221423
0.0177817
0.0138342
0.0103443
0.00738049
0.00497683
0.00314109
0.00184514
0.0010093
0.000517575
0.000251376
0.00011814
5.41635e-05
2.43336e-05
1.07321e-05
4.63789e-06
1.94562e-06
7.70469e-07
2.6326e-07
4.66004e-08
4.70467e-07
2.05291e-06
4.70051e-06
9.10439e-06
1.63779e-05
2.82862e-05
4.75747e-05
7.84137e-05
0.000126961
0.000202008
0.000315605
0.000483501
0.000725146
0.00106302
0.00152113
0.00212283
0.00288832
0.00383238
0.00496298
0.00628084
0.00777993
0.00945125
0.0112777
0.0132418
0.0153246
0.0175065
0.0197684
0.0220917
0.0244588
0.026855
0.0292636
0.0316713
0.0340659
0.0364381
0.0387787
0.0410775
0.0433321
0.0455414
0.0477044
0.0498207
0.05189
0.0539126
0.055889
0.0578202
0.0597071
0.0615506
0.0633519
0.065112
0.0668319
0.0685124
0.070154
0.071757
0.0733213
0.0748463
0.0763308
0.0777729
0.0791698
0.0805173
0.0818099
0.0830403
0.0841986
0.0852719
0.0862434
0.0870913
0.0877857
0.0882788
0.0885434
0.0885184
0.0881135
0.0861024
0.0797859
0.0733712
0.066942
0.0605669
0.0543039
0.0482022
0.0423051
0.0366517
0.0312791
0.0262241
0.0215259
0.0172157
0.0133352
0.00993333
0.00703545
0.00470475
0.00294278
0.00171309
0.000929498
0.000473597
0.00022899
0.000107422
4.92058e-05
2.21004e-05
9.74852e-06
4.21431e-06
1.76868e-06
7.0066e-07
2.39464e-07
4.23916e-08
4.68312e-07
2.04366e-06
4.68003e-06
9.06674e-06
1.63148e-05
2.81872e-05
4.74277e-05
7.82089e-05
0.0001267
0.000201722
0.000315389
0.00048357
0.000725912
0.00106518
0.00152575
0.00213139
0.00290266
0.00385467
0.0049955
0.00632594
0.00784
0.00952625
0.0113691
0.0133505
0.0154512
0.0176497
0.0199281
0.0222671
0.0246487
0.0270594
0.0294816
0.0319013
0.0343062
0.0366869
0.0390336
0.0413392
0.0436014
0.045818
0.0479878
0.05011
0.0521844
0.0542114
0.0561916
0.0581257
0.0600147
0.0618598
0.0636619
0.0654222
0.0671417
0.0688211
0.070461
0.0720616
0.073623
0.0751444
0.0766247
0.0780618
0.079453
0.0807942
0.0820797
0.0833023
0.0844522
0.0855169
0.0864799
0.0873203
0.0880099
0.0885036
0.0887792
0.0887799
0.0884277
0.0854323
0.0790844
0.0726516
0.0662159
0.0598446
0.0535936
0.0475115
0.0416411
0.0360215
0.030689
0.025678
0.0210209
0.016747
0.0129142
0.00956722
0.0067478
0.00447614
0.00277759
0.00160422
0.000864343
0.000437921
0.000211143
9.8861e-05
4.52413e-05
2.03127e-05
8.96013e-06
3.87435e-06
1.62649e-06
6.44509e-07
2.20313e-07
3.90036e-08
4.66484e-07
2.0358e-06
4.66264e-06
9.03474e-06
1.62612e-05
2.81028e-05
4.73024e-05
7.80343e-05
0.000126478
0.000201479
0.000315209
0.000483641
0.000726595
0.00106709
0.00152982
0.00213891
0.00291527
0.00387422
0.00502394
0.00636512
0.00789155
0.00959146
0.0114481
0.0134437
0.0155583
0.0177722
0.0200651
0.0224179
0.0248131
0.0272344
0.0296655
0.0320932
0.0345057
0.0368932
0.0392472
0.0415618
0.0438311
0.0460537
0.0482286
0.0503553
0.0524337
0.0544639
0.0564466
0.0583827
0.0602731
0.062119
0.0639215
0.0656817
0.0674004
0.0690786
0.0707168
0.0723153
0.073874
0.0753922
0.0768688
0.0783018
0.0796883
0.0810243
0.0823043
0.0835209
0.0846646
0.0857231
0.0866804
0.0875163
0.088204
0.0886991
0.0889827
0.0890002
0.088678
0.0849096
0.0785303
0.0720806
0.0656391
0.0592709
0.0530309
0.0469668
0.0411193
0.0355254
0.0302172
0.0252292
0.0205958
0.0163598
0.0125686
0.00926732
0.00649732
0.00428908
0.0026435
0.00151654
0.000812286
0.000409631
0.000197036
9.21254e-05
4.21246e-05
1.89065e-05
8.33934e-06
3.60637e-06
1.5143e-06
6.00173e-07
2.05185e-07
3.63271e-08
4.65004e-07
2.02944e-06
4.64852e-06
9.00869e-06
1.62174e-05
2.80338e-05
4.71994e-05
7.78901e-05
0.000126293
0.000201275
0.000315055
0.000483693
0.000727152
0.00106866
0.00153318
0.00214515
0.00292572
0.00389039
0.00504738
0.00639723
0.00793347
0.00964388
0.0115126
0.0135201
0.0156464
0.0178721
0.0201759
0.0225389
0.0249429
0.0273712
0.0298094
0.0322435
0.0346608
0.0370527
0.0394118
0.041732
0.0440077
0.046236
0.0484158
0.0505467
0.0526286
0.0546617
0.0566467
0.0585844
0.060476
0.0623225
0.0641251
0.0658849
0.067603
0.06928
0.0709167
0.0725132
0.0740695
0.075585
0.0770584
0.0784878
0.0798703
0.0812018
0.082477
0.0836884
0.0848268
0.0858797
0.0868314
0.0876622
0.0883457
0.0888381
0.0891219
0.0891413
0.088825
0.0845344
0.0781237
0.0716566
0.0652084
0.0588416
0.0526087
0.0465534
0.040716
0.0351326
0.0298401
0.0248732
0.0202674
0.0160609
0.0123024
0.00903756
0.0063082
0.00414421
0.00253941
0.00144873
0.00077226
0.00038801
0.000186298
8.70088e-05
3.97608e-05
1.78406e-05
7.8688e-06
3.40321e-06
1.42923e-06
5.66552e-07
1.93714e-07
3.4298e-08
4.63927e-07
2.0248e-06
4.63817e-06
8.98951e-06
1.6185e-05
2.79823e-05
4.7122e-05
7.7781e-05
0.000126152
0.000201118
0.000314932
0.000483721
0.000727558
0.00106983
0.00153572
0.00214986
0.00293362
0.00390262
0.0050651
0.00642149
0.00796511
0.00968345
0.0115604
0.0135767
0.0157117
0.0179449
0.020256
0.0226255
0.0250352
0.0274683
0.02991
0.0323461
0.0347659
0.0371609
0.0395239
0.0418486
0.0441301
0.0463641
0.0485487
0.0506832
0.0527677
0.0548027
0.0567891
0.0587278
0.0606199
0.0624665
0.064269
0.0660283
0.0677454
0.0694214
0.0710566
0.0726514
0.0742056
0.0757187
0.0771895
0.0786159
0.0799951
0.081323
0.0825942
0.0838014
0.0849352
0.0859833
0.0869304
0.0877565
0.0884356
0.088924
0.0892045
0.0892209
0.0889008
0.084295
0.0778589
0.0713763
0.0649201
0.0585502
0.0523175
0.0462668
0.0404372
0.0348651
0.0295852
0.0246326
0.0200433
0.0158554
0.012118
0.00887698
0.00617399
0.00403783
0.00246459
0.00140055
0.000744021
0.000372821
0.000178774
8.34296e-05
3.81097e-05
1.70971e-05
7.5411e-06
3.26195e-06
1.37018e-06
5.43259e-07
1.85779e-07
3.28956e-08
4.6334e-07
2.02227e-06
4.63251e-06
8.97895e-06
1.6167e-05
2.79536e-05
4.70786e-05
7.77193e-05
0.000126071
0.000201026
0.000314857
0.000483726
0.000727769
0.00107046
0.0015371
0.00215245
0.002938
0.00390942
0.00507497
0.00643505
0.00798289
0.00970593
0.0115875
0.0136083
0.0157479
0.0179853
0.0203002
0.0226731
0.0250856
0.0275206
0.0299626
0.0323993
0.0348204
0.0372172
0.0395823
0.0419097
0.0441943
0.0464321
0.0486198
0.0507564
0.0528425
0.0548785
0.0568656
0.0588046
0.0606968
0.0625433
0.0643454
0.0661042
0.0678207
0.0694958
0.07113
0.0727236
0.0742765
0.0757881
0.0772571
0.0786816
0.0800586
0.0813842
0.0826528
0.0838572
0.0849881
0.0860332
0.0869773
0.0878009
0.0884786
0.0889682
0.0892549
0.0892871
0.0890011
0.0842078
0.0777389
0.0712387
0.064774
0.0584013
0.0521695
0.0461217
0.0402967
0.0347302
0.0294568
0.0245116
0.0199306
0.0157522
0.0120255
0.00879653
0.00610718
0.00398577
0.00242732
0.00137631
0.000729706
0.000365089
0.000174938
8.16038e-05
3.7267e-05
1.67175e-05
7.37369e-06
3.18975e-06
1.33999e-06
5.31347e-07
1.81721e-07
3.21784e-08
4.63321e-07
2.02218e-06
4.63232e-06
8.97858e-06
1.61664e-05
2.79524e-05
4.70767e-05
7.7716e-05
0.000126066
0.000201017
0.000314843
0.000483703
0.000727733
0.00107041
0.00153702
0.00215233
0.00293782
0.00390917
0.00507463
0.00643462
0.00798236
0.00970529
0.0115868
0.0136075
0.0157471
0.0179846
0.0202997
0.0226727
0.0250854
0.0275207
0.0299628
0.0323996
0.0348207
0.0372175
0.0395825
0.0419098
0.0441942
0.0464317
0.0486192
0.0507558
0.0528417
0.0548778
0.0568648
0.0588038
0.0606959
0.0625424
0.0643444
0.0661032
0.0678196
0.0694946
0.0711287
0.0727222
0.0742751
0.0757865
0.0772555
0.0786799
0.0800569
0.0813825
0.0826511
0.0838555
0.0849864
0.0860317
0.0869758
0.0877995
0.0884772
0.0889669
0.0892533
0.089285
0.0889981
0.0842074
0.0777381
0.0712378
0.0647731
0.0584004
0.0521687
0.046121
0.040296
0.0347295
0.0294562
0.024511
0.01993
0.0157515
0.0120249
0.00879595
0.00610666
0.00398533
0.002427
0.0013761
0.000729577
0.000365019
0.000174904
8.1588e-05
3.726e-05
1.67145e-05
7.37246e-06
3.18926e-06
1.33981e-06
5.31278e-07
1.81699e-07
3.21745e-08
4.63869e-07
2.02455e-06
4.63761e-06
8.98842e-06
1.6183e-05
2.79789e-05
4.71165e-05
7.77719e-05
0.000126137
0.000201094
0.000314895
0.000483663
0.000727468
0.00106969
0.00153551
0.00214954
0.00293316
0.00390197
0.00506421
0.00642034
0.00796369
0.00968187
0.0115584
0.0135744
0.0157095
0.0179428
0.0202542
0.0226242
0.0250345
0.0274683
0.0299106
0.0323474
0.0347677
0.0371628
0.0395258
0.0418504
0.0441316
0.0463652
0.0485491
0.0506832
0.0527673
0.0548021
0.0567881
0.0587265
0.0606183
0.0624647
0.0642668
0.0660258
0.0677427
0.0694183
0.0710532
0.0726476
0.0742016
0.0757144
0.0771849
0.078611
0.07999
0.0813177
0.0825886
0.0837957
0.0849292
0.0859772
0.0869239
0.0877497
0.0884282
0.0889163
0.0891964
0.0892126
0.0888918
0.0842948
0.0778583
0.0713754
0.064919
0.058549
0.0523162
0.0462653
0.0404355
0.0348632
0.0295832
0.0246305
0.0200412
0.0158534
0.0121161
0.00887515
0.00617239
0.00403656
0.00246372
0.00140002
0.000743722
0.000372666
0.000178699
8.33954e-05
3.80948e-05
1.70909e-05
7.53855e-06
3.26095e-06
1.36981e-06
5.43125e-07
1.85737e-07
3.28882e-08
4.64912e-07
2.02904e-06
4.64761e-06
9.00694e-06
1.62143e-05
2.80284e-05
4.71904e-05
7.78753e-05
0.000126269
0.000201237
0.000314994
0.000483597
0.000727003
0.00106843
0.00153284
0.00214463
0.00292497
0.00388933
0.00504592
0.0063953
0.00793097
0.00964073
0.0115093
0.0135166
0.0156427
0.0178683
0.0201725
0.022536
0.024941
0.0273709
0.0298101
0.0322449
0.0346631
0.0370553
0.0394149
0.0417351
0.0440106
0.0462386
0.048418
0.0505483
0.0526294
0.0546618
0.0566461
0.0585831
0.060474
0.0623199
0.0641219
0.0658811
0.0675985
0.069275
0.0709111
0.072507
0.0740628
0.0755778
0.0770507
0.0784797
0.0798618
0.081193
0.0824678
0.083679
0.0848169
0.0858693
0.0868204
0.0876502
0.0883324
0.0888235
0.0891063
0.0891254
0.0888087
0.0845341
0.0781237
0.0716563
0.0652077
0.0588403
0.0526067
0.0465511
0.0407133
0.0351295
0.0298367
0.0248695
0.0202638
0.0160576
0.0122992
0.00903455
0.00630537
0.00414173
0.0025379
0.00144781
0.000771759
0.000387756
0.000186177
8.69535e-05
3.97366e-05
1.78304e-05
7.86467e-06
3.4016e-06
1.42863e-06
5.66338e-07
1.93647e-07
3.42864e-08
4.66362e-07
2.03527e-06
4.66143e-06
9.03241e-06
1.6257e-05
2.80957e-05
4.72904e-05
7.80145e-05
0.000126445
0.000201427
0.000315127
0.000483514
0.000726396
0.00106678
0.00152936
0.00213823
0.00291429
0.00387283
0.00502204
0.00636262
0.00788839
0.00958763
0.0114438
0.0134391
0.0155536
0.0177674
0.0200605
0.022414
0.0248098
0.0272314
0.0296642
0.0320939
0.0345084
0.0368964
0.0392505
0.041564
0.0438324
0.0460541
0.0482283
0.0503542
0.0524317
0.0544611
0.056443
0.0583783
0.060268
0.0621132
0.0639149
0.0656744
0.0673925
0.0690701
0.0707077
0.0723057
0.0738639
0.0753817
0.0768579
0.0782906
0.0796768
0.0810125
0.0822922
0.0835086
0.0846519
0.0857097
0.0866659
0.0875002
0.0881856
0.0886782
0.08896
0.0889757
0.0886512
0.0849098
0.0785306
0.0720803
0.0656381
0.0592694
0.0530288
0.046964
0.041116
0.0355221
0.0302127
0.0252222
0.020591
0.0163559
0.0125653
0.00926452
0.0064951
0.00428738
0.00264213
0.00151564
0.000811738
0.000409332
0.000196889
9.20575e-05
4.20948e-05
1.8894e-05
8.33435e-06
3.60447e-06
1.51361e-06
5.99937e-07
2.05113e-07
3.63149e-08
4.68169e-07
2.04303e-06
4.67861e-06
9.064e-06
1.63099e-05
2.81787e-05
4.74134e-05
7.81853e-05
0.000126662
0.00020166
0.000315291
0.000483416
0.000725674
0.00106482
0.00152521
0.0021306
0.00290153
0.00385309
0.00499337
0.00632315
0.00783648
0.00952199
0.0113639
0.0133446
0.0154447
0.0176433
0.0199221
0.0222621
0.0246457
0.0270564
0.0294787
0.0318994
0.0343063
0.0366886
0.0390352
0.0413406
0.0436019
0.0458174
0.047986
0.050107
0.0521804
0.0542064
0.0561855
0.0581187
0.0600068
0.061851
0.0636523
0.0654119
0.0671306
0.0688093
0.0704486
0.0720487
0.0736095
0.0751305
0.0766104
0.0780472
0.0794381
0.0807789
0.0820641
0.0832862
0.0844354
0.0854989
0.0864603
0.0872984
0.0879849
0.0884752
0.0887465
0.0887435
0.088384
0.0854322
0.0790855
0.0726529
0.0662174
0.0598463
0.0535961
0.0475149
0.0416449
0.0360246
0.0306918
0.0256809
0.0210203
0.0167449
0.0129114
0.00956437
0.00674527
0.00447424
0.00277607
0.00160317
0.000863704
0.000437573
0.000210971
9.87814e-05
4.52066e-05
2.02983e-05
8.95451e-06
3.87227e-06
1.62577e-06
6.44274e-07
2.20244e-07
3.89922e-08
4.70313e-07
2.05224e-06
4.69897e-06
9.10143e-06
1.63725e-05
2.82769e-05
4.75591e-05
7.83878e-05
0.000126919
0.00020194
0.000315497
0.000483332
0.000724886
0.00106262
0.00152054
0.00212197
0.00288708
0.00383065
0.00496062
0.00627771
0.00777592
0.00944632
0.0112718
0.0132349
0.0153169
0.0174984
0.0197602
0.0220839
0.0244519
0.0268481
0.0292573
0.031666
0.0340619
0.036434
0.0387726
0.0410706
0.0433247
0.0455336
0.0476961
0.0498118
0.0518805
0.0539025
0.0558783
0.0578088
0.059695
0.0615379
0.0633385
0.065098
0.0668173
0.0684971
0.0701381
0.0717405
0.0733042
0.0748287
0.0763127
0.0777544
0.0791509
0.0804981
0.0817905
0.0830205
0.0841783
0.0852509
0.0862212
0.0870671
0.0877585
0.0882482
0.0885077
0.0884756
0.0880555
0.0861
0.079788
0.0733753
0.0669468
0.060572
0.0543087
0.0482061
0.0423079
0.0366534
0.0312798
0.0262237
0.0215234
0.0172139
0.0133333
0.00993103
0.00703272
0.00470284
0.00294135
0.00171209
0.000928873
0.000473249
0.000228817
0.000107342
4.91711e-05
2.20864e-05
9.74327e-06
4.21249e-06
1.76811e-06
7.00502e-07
2.39426e-07
4.23858e-08
4.72805e-07
2.06294e-06
4.72265e-06
9.14497e-06
1.64455e-05
2.83916e-05
4.77297e-05
7.86263e-05
0.000127226
0.000202282
0.00031577
0.0004833
0.000724097
0.00106031
0.00151554
0.00211266
0.00287144
0.00380639
0.00492542
0.00622955
0.00771363
0.00936484
0.0111706
0.0131136
0.0151752
0.0173365
0.0195785
0.0218829
0.0242327
0.0266118
0.0290052
0.0313993
0.0337819
0.0361418
0.0384712
0.0407607
0.0430068
0.0452081
0.0473638
0.0494733
0.0515366
0.0535539
0.0555258
0.0574532
0.059337
0.0611782
0.0629779
0.0647371
0.0664567
0.0681376
0.0697803
0.0713852
0.0729521
0.0744806
0.0759694
0.0774169
0.0788201
0.0801753
0.0814771
0.0827181
0.0838888
0.0849765
0.0859643
0.0868306
0.0875469
0.0880623
0.0883504
0.088342
0.0879354
0.0868832
0.0806203
0.0742384
0.0678237
0.0614479
0.0551714
0.049046
0.0431169
0.0374248
0.0320078
0.026903
0.0221488
0.017784
0.0138346
0.0103439
0.00738015
0.00497591
0.00314015
0.0018444
0.00100881
0.00051729
0.00025123
0.000118073
5.41357e-05
2.43231e-05
1.07286e-05
4.63696e-06
1.94548e-06
7.70498e-07
2.6329e-07
4.6607e-08
4.75686e-07
2.07531e-06
4.75007e-06
9.19547e-06
1.65303e-05
2.85256e-05
4.79302e-05
7.89094e-05
0.000127595
0.000202708
0.000316147
0.000483382
0.000723405
0.00105803
0.00151041
0.00210296
0.00285496
0.00378057
0.00488747
0.00617662
0.00764275
0.00927551
0.0110608
0.0129821
0.0150213
0.0171602
0.01938
0.0216626
0.0239908
0.0263517
0.0287277
0.0311057
0.0334736
0.035822
0.0381386
0.0404173
0.0426535
0.0448459
0.0469936
0.049096
0.051153
0.053165
0.0551324
0.0570561
0.058937
0.0607761
0.0625745
0.0643331
0.066053
0.0677349
0.0693793
0.0709867
0.072557
0.0740897
0.0755838
0.0770377
0.0784488
0.0798135
0.0811268
0.082382
0.0835704
0.0846804
0.0856969
0.0866008
0.0873674
0.0879572
0.0883369
0.0884656
0.0882728
0.0876855
0.0815538
0.0752402
0.0688551
0.0624834
0.0561929
0.0500399
0.0440723
0.0383326
0.032859
0.0276879
0.0228547
0.0183965
0.0143694
0.0108196
0.00778701
0.00529918
0.00337796
0.00200427
0.00110633
0.00057147