/*--------------------------------*- C++ -*----------------------------------*\
  =========                 |
  \\      /  F ield         | OpenFOAM: The Open Source CFD Toolbox
   \\    /   O peration     | Website:  https://openfoam.org
    \\  /    A nd           | Version:  8
     \\/     M anipulation  |
\*---------------------------------------------------------------------------*/
FoamFile
{
    version     2.0;
    format      ascii;
    class       volScalarField;
    location    "60/fluid";
    object      N2;
}
// * * * * * * * * * * * * * * * * * * * * * * * * * * * * * * * * * * * * * //

dimensions      [0 0 0 0 0 0 0];

internalField   nonuniform List<scalar> 
4000
(
3.93713e-05
0.000169967
0.000380183
0.000710197
0.00121736
0.00198158
0.00311089
0.00474599
0.00706211
0.0102658
0.0145848
0.0202509
0.0274764
0.0364297
0.0472147
0.0598588
0.0743126
0.0904594
0.108131
0.127129
0.147238
0.168249
0.189956
0.212157
0.234675
0.257462
0.280213
0.302907
0.325339
0.347434
0.369125
0.390357
0.411093
0.43128
0.450887
0.469899
0.488286
0.506042
0.523157
0.539633
0.555464
0.570647
0.585183
0.599077
0.612336
0.624971
0.636992
0.648415
0.659254
0.669526
0.679251
0.68843
0.697095
0.705263
0.712951
0.720173
0.726949
0.733295
0.739228
0.744766
0.749925
0.754723
0.759175
0.763298
0.767108
0.770619
0.773848
0.776809
0.779515
0.781965
0.784185
0.786185
0.787979
0.788209
0.788132
0.787936
0.787615
0.787167
0.786587
0.785873
0.785022
0.784033
0.78291
0.781658
0.780295
0.778833
0.777309
0.775776
0.774307
0.772991
0.771915
0.771126
0.770612
0.770316
0.770156
0.770074
0.770033
0.770014
0.770005
0.770001
3.76145e-05
0.00016193
0.000360695
0.000670583
0.00114382
0.00185319
0.00289751
0.00440681
0.00654567
0.00951264
0.0135335
0.0188466
0.0256811
0.0342307
0.0446288
0.0569313
0.0711113
0.0870654
0.10463
0.123601
0.143744
0.164876
0.186803
0.209373
0.232374
0.255314
0.278411
0.301258
0.323877
0.34617
0.36806
0.389503
0.41045
0.430828
0.450614
0.46978
0.488311
0.506196
0.523429
0.54001
0.555933
0.571195
0.5858
0.599752
0.613061
0.625737
0.637792
0.64924
0.660097
0.670375
0.680091
0.689275
0.697932
0.706083
0.713747
0.720943
0.72769
0.734005
0.739905
0.745408
0.750531
0.755291
0.759705
0.763789
0.767558
0.77103
0.774219
0.77714
0.779808
0.782213
0.784406
0.786381
0.788158
0.788179
0.788073
0.787842
0.787483
0.786992
0.786367
0.785604
0.784699
0.783654
0.782473
0.781164
0.779747
0.778244
0.776699
0.775174
0.773752
0.772526
0.771569
0.770902
0.770487
0.770251
0.770125
0.77006
0.770027
0.770012
0.770004
0.770001
3.52067e-05
0.000151558
0.000337517
0.000627353
0.00107006
0.00173423
0.00271356
0.00413202
0.00614755
0.00895211
0.0127659
0.0178247
0.0243592
0.0325711
0.0426081
0.0545456
0.0683789
0.0840268
0.101345
0.120183
0.140373
0.161717
0.18395
0.206554
0.229379
0.252642
0.275802
0.298891
0.321776
0.344352
0.366568
0.388341
0.409538
0.430169
0.450212
0.469604
0.488348
0.506431
0.52385
0.540598
0.556667
0.572057
0.586768
0.600809
0.614188
0.626919
0.639016
0.650493
0.66137
0.671662
0.681388
0.690567
0.699217
0.707356
0.715003
0.722177
0.728896
0.735178
0.741043
0.746508
0.751591
0.756308
0.760676
0.764713
0.768434
0.771856
0.774993
0.777861
0.780464
0.782803
0.784902
0.78681
0.788332
0.788242
0.788055
0.787754
0.787329
0.786775
0.786085
0.785256
0.784287
0.783182
0.781947
0.780601
0.779159
0.777658
0.776144
0.774683
0.773352
0.772233
0.771377
0.770788
0.770424
0.770218
0.770108
0.770052
0.770023
0.77001
0.770004
0.770001
3.2849e-05
0.000141416
0.000314972
0.000585621
0.000999391
0.00162099
0.00253918
0.00387217
0.00577167
0.00842386
0.012045
0.0168701
0.0231339
0.0310468
0.0407698
0.0523941
0.0659309
0.0813182
0.0984957
0.117381
0.137704
0.158902
0.180762
0.203299
0.22642
0.249748
0.273157
0.296504
0.319662
0.342569
0.365106
0.387117
0.408605
0.429542
0.44984
0.469499
0.488493
0.506808
0.52444
0.541382
0.557626
0.573169
0.588014
0.60217
0.615645
0.628455
0.640612
0.652135
0.663041
0.673348
0.683076
0.692245
0.700875
0.708986
0.716597
0.723728
0.730398
0.736628
0.742435
0.747839
0.752857
0.757507
0.761807
0.765774
0.769424
0.772775
0.775842
0.778642
0.781165
0.783432
0.785473
0.78732
0.788224
0.788115
0.787892
0.787547
0.787072
0.786462
0.785716
0.78483
0.783808
0.782655
0.781383
0.780013
0.778562
0.777072
0.775592
0.774189
0.772941
0.771919
0.771161
0.770654
0.770349
0.770179
0.770089
0.770043
0.770019
0.770008
0.770003
0.770001
3.0704e-05
0.000132209
0.000294588
0.000548067
0.000936116
0.00152005
0.00238437
0.00364216
0.00543958
0.00795752
0.0114084
0.0160262
0.0220487
0.0296947
0.0391378
0.0504856
0.0637841
0.0790712
0.0962213
0.114933
0.134786
0.155813
0.177765
0.200517
0.223794
0.24722
0.270797
0.294357
0.317807
0.340998
0.363748
0.386043
0.407829
0.429023
0.449591
0.469504
0.488741
0.507291
0.525142
0.54228
0.558699
0.574395
0.589372
0.60364
0.617209
0.630093
0.642309
0.653875
0.66481
0.675133
0.684865
0.694027
0.702639
0.710723
0.718299
0.725388
0.732011
0.738187
0.743935
0.749275
0.754226
0.758806
0.763032
0.766923
0.770495
0.773766
0.77675
0.779463
0.781881
0.784082
0.786048
0.787811
0.787948
0.787874
0.787646
0.787273
0.786758
0.786101
0.785304
0.78437
0.783303
0.782112
0.780813
0.779426
0.777979
0.776511
0.775078
0.773744
0.772585
0.771661
0.770992
0.770554
0.770294
0.770151
0.770075
0.770036
0.770016
0.770007
0.770002
0.77
2.87454e-05
0.000123802
0.000275974
0.000513773
0.000878326
0.00142786
0.00224296
0.00343214
0.00513659
0.00753259
0.0108293
0.01526
0.0210657
0.0284724
0.0376655
0.0487812
0.0619692
0.0771714
0.0940112
0.11231
0.13209
0.153109
0.175142
0.198016
0.221276
0.244891
0.268673
0.292497
0.316204
0.339583
0.3626
0.385176
0.407231
0.428682
0.44951
0.469675
0.489149
0.507923
0.52598
0.543305
0.55989
0.575732
0.590836
0.605211
0.618869
0.631824
0.644093
0.655696
0.666653
0.676984
0.686712
0.695858
0.704443
0.712491
0.720024
0.727061
0.733626
0.739738
0.745419
0.750688
0.755564
0.760066
0.764213
0.768023
0.771514
0.774702
0.777604
0.780209
0.782536
0.784617
0.786506
0.788023
0.787939
0.787751
0.787442
0.787004
0.78643
0.78572
0.784873
0.783893
0.782787
0.781566
0.780249
0.778856
0.777419
0.775981
0.774597
0.773335
0.772262
0.771428
0.77084
0.770464
0.770245
0.770125
0.770062
0.77003
0.770014
0.770006
0.770002
0.77
2.69724e-05
0.000116194
0.000259137
0.000482777
0.000826144
0.0013447
0.00211556
0.00324309
0.00486404
0.00715042
0.0103083
0.0145703
0.02018
0.0273702
0.0363385
0.0473063
0.0602768
0.0749957
0.0915849
0.109868
0.129638
0.15067
0.172842
0.19566
0.219071
0.242862
0.266858
0.290912
0.314778
0.3384
0.361666
0.384496
0.406774
0.428467
0.449525
0.469914
0.48961
0.508593
0.526841
0.544338
0.561075
0.577051
0.59227
0.606741
0.620478
0.633495
0.645812
0.657447
0.668422
0.678759
0.688481
0.69761
0.706169
0.714181
0.72167
0.728657
0.735165
0.741215
0.746829
0.752026
0.756828
0.761254
0.765323
0.769054
0.772466
0.775576
0.778402
0.780912
0.783164
0.785175
0.786994
0.787843
0.787744
0.787524
0.787174
0.786691
0.786071
0.785315
0.784426
0.783408
0.782271
0.781027
0.7797
0.778308
0.776888
0.775485
0.774157
0.772968
0.77198
0.771231
0.770715
0.770391
0.770206
0.770105
0.770052
0.770025
0.770011
0.770005
0.770002
0.77
2.53627e-05
0.000109286
0.000243849
0.000454634
0.000778765
0.0012692
0.0019999
0.0030715
0.00461669
0.00680371
0.00983597
0.0139454
0.0193783
0.026373
0.0351906
0.0459574
0.0585483
0.0731292
0.0896017
0.107808
0.127548
0.148593
0.170705
0.193639
0.217181
0.241122
0.265333
0.289518
0.313598
0.33744
0.360945
0.383979
0.406491
0.428414
0.449694
0.470291
0.490183
0.509348
0.527761
0.545406
0.562274
0.578364
0.593679
0.60823
0.622031
0.635097
0.647448
0.659104
0.670087
0.680421
0.690128
0.699233
0.707759
0.715731
0.723172
0.730105
0.736553
0.742539
0.748084
0.753211
0.757939
0.762288
0.76628
0.769932
0.773263
0.776292
0.779031
0.781456
0.783653
0.785611
0.787368
0.787535
0.787455
0.787228
0.786855
0.78634
0.785685
0.784893
0.78397
0.782922
0.781761
0.780502
0.77917
0.777786
0.77639
0.775027
0.773756
0.77264
0.771733
0.771061
0.770609
0.770331
0.770173
0.770088
0.770044
0.770021
0.77001
0.770004
0.770001
0.77
2.39015e-05
0.000103015
0.000229973
0.000429092
0.000735776
0.00120071
0.001895
0.00291588
0.00439238
0.00648926
0.00940761
0.0133795
0.0186554
0.0254894
0.0341341
0.0445697
0.0570164
0.0714673
0.0878395
0.105986
0.125716
0.146823
0.168933
0.191933
0.215584
0.239675
0.263989
0.28836
0.312633
0.336673
0.360365
0.383606
0.406317
0.428435
0.449908
0.470696
0.49077
0.5101
0.528663
0.54644
0.563424
0.579613
0.595013
0.609634
0.623489
0.636596
0.648974
0.660646
0.671633
0.68196
0.691651
0.70073
0.709223
0.717154
0.724548
0.731429
0.73782
0.743744
0.749225
0.754283
0.758941
0.763219
0.767137
0.770715
0.773972
0.776925
0.77955
0.781888
0.783972
0.785857
0.787448
0.787407
0.787252
0.786967
0.786548
0.785991
0.785298
0.784471
0.783517
0.782444
0.781265
0.779997
0.778664
0.777295
0.775926
0.774607
0.773395
0.77235
0.771519
0.770918
0.770521
0.770281
0.770147
0.770074
0.770037
0.770018
0.770008
0.770003
0.770001
0.77
2.25733e-05
9.73153e-05
0.00021736
0.000405873
0.000696692
0.00113844
0.00179959
0.00277429
0.0041881
0.00620249
0.00901591
0.0128594
0.0179843
0.0246864
0.0330499
0.0433393
0.0556428
0.0699665
0.0862347
0.104301
0.123964
0.14505
0.167262
0.190371
0.214146
0.238401
0.262854
0.287386
0.311835
0.336066
0.359934
0.38336
0.406255
0.42855
0.450194
0.471145
0.491371
0.51084
0.529525
0.547411
0.564488
0.580756
0.596222
0.610895
0.62479
0.637925
0.65032
0.661998
0.672982
0.683297
0.692967
0.702018
0.710476
0.718366
0.725713
0.732543
0.738878
0.744745
0.750164
0.75516
0.759754
0.763967
0.767821
0.771335
0.774529
0.77742
0.779963
0.782264
0.784285
0.786113
0.787258
0.787186
0.786995
0.786674
0.786219
0.785628
0.784903
0.784048
0.783069
0.781977
0.780786
0.779515
0.778188
0.776836
0.775498
0.774224
0.773071
0.772095
0.771335
0.770796
0.770447
0.77024
0.770125
0.770063
0.770031
0.770015
0.770007
0.770003
0.770001
0.77
2.13658e-05
9.21329e-05
0.00020589
0.000384758
0.000661145
0.00108178
0.00171276
0.00264534
0.00400188
0.00594063
0.00865733
0.0123813
0.0173642
0.0238603
0.0320897
0.0422373
0.0544075
0.0686192
0.0848057
0.102827
0.122488
0.143573
0.165829
0.189013
0.212885
0.237236
0.261847
0.28654
0.311152
0.335543
0.359589
0.383187
0.406252
0.428713
0.450514
0.471616
0.491981
0.511574
0.530369
0.548351
0.56551
0.581848
0.597369
0.612085
0.626012
0.639168
0.651574
0.663253
0.674229
0.684528
0.694174
0.703196
0.711618
0.719467
0.726769
0.733549
0.739832
0.745643
0.751006
0.755943
0.760477
0.76463
0.768423
0.771877
0.775012
0.777845
0.780331
0.782577
0.784561
0.786349
0.786962
0.786893
0.786692
0.786352
0.785874
0.785259
0.784509
0.783631
0.782634
0.781527
0.780328
0.779059
0.777742
0.776411
0.775106
0.773879
0.772784
0.771873
0.771178
0.770694
0.770386
0.770206
0.770107
0.770054
0.770027
0.770013
0.770006
0.770002
0.770001
0.77
2.02684e-05
8.74225e-05
0.000195464
0.000365561
0.000628818
0.00103025
0.00163377
0.00252804
0.00383267
0.00570348
0.00833529
0.0119601
0.0168398
0.0231757
0.031252
0.0412538
0.0532945
0.0674016
0.083517
0.10151
0.121198
0.142275
0.16457
0.187831
0.211819
0.236261
0.260992
0.28582
0.310575
0.335118
0.359315
0.383062
0.40627
0.428867
0.450797
0.472019
0.492494
0.512185
0.531067
0.549123
0.566347
0.582737
0.598301
0.61305
0.627001
0.640171
0.652584
0.664261
0.675228
0.685511
0.695135
0.704129
0.712518
0.72033
0.727591
0.734327
0.740563
0.746325
0.751636
0.756521
0.761003
0.765103
0.768844
0.772247
0.775332
0.77811
0.780558
0.782764
0.784727
0.786485
0.786676
0.786597
0.786381
0.786024
0.785526
0.784891
0.784122
0.783227
0.782215
0.781099
0.779897
0.77863
0.777325
0.776019
0.77475
0.773569
0.77253
0.77168
0.771044
0.770608
0.770336
0.770178
0.770092
0.770047
0.770023
0.770011
0.770005
0.770002
0.770001
0.77
1.92731e-05
8.31502e-05
0.000186006
0.00034814
0.000599473
0.000983445
0.00156197
0.0024213
0.0036783
0.00548594
0.00803611
0.011557
0.0163017
0.0225261
0.0304762
0.0403508
0.0522742
0.0662824
0.0823217
0.10026
0.119908
0.141034
0.163389
0.186722
0.210791
0.235361
0.260224
0.285188
0.310087
0.334767
0.359103
0.382991
0.40634
0.429075
0.451136
0.472478
0.493058
0.512841
0.531801
0.549924
0.567201
0.583634
0.59923
0.614002
0.627966
0.641142
0.653552
0.66522
0.676171
0.686433
0.696032
0.704995
0.71335
0.721125
0.728346
0.735039
0.74123
0.746946
0.75221
0.757046
0.761478
0.765528
0.769218
0.77257
0.775602
0.778294
0.780682
0.782812
0.784749
0.786413
0.786437
0.786333
0.786093
0.785714
0.785196
0.784541
0.783755
0.782845
0.781823
0.7807
0.779495
0.77823
0.77694
0.775658
0.774428
0.773293
0.772307
0.771514
0.770929
0.770537
0.770294
0.770156
0.77008
0.77004
0.77002
0.77001
0.770004
0.770002
0.770001
0.77
1.83748e-05
7.92937e-05
0.000177467
0.000332406
0.000572953
0.000941117
0.00149697
0.00232453
0.0035381
0.00528798
0.0077637
0.0111922
0.0158281
0.0219365
0.0297674
0.0395252
0.0513421
0.0652618
0.0812358
0.0991335
0.118759
0.139919
0.162326
0.185732
0.209887
0.234559
0.259534
0.284616
0.309634
0.334434
0.358886
0.382884
0.406336
0.429166
0.451314
0.472738
0.493394
0.513244
0.532265
0.55044
0.567761
0.584232
0.599858
0.614652
0.628632
0.641817
0.65423
0.665894
0.676837
0.687085
0.696665
0.705606
0.713935
0.721679
0.728867
0.735525
0.74168
0.747357
0.752581
0.757377
0.761769
0.765779
0.769429
0.772741
0.775734
0.778355
0.780708
0.782786
0.784665
0.786218
0.786209
0.786079
0.785817
0.785418
0.784881
0.78421
0.78341
0.78249
0.781461
0.780338
0.77914
0.777895
0.776621
0.77535
0.774143
0.77305
0.772113
0.771371
0.770833
0.770477
0.770259
0.770137
0.77007
0.770035
0.770017
0.770008
0.770004
0.770002
0.770001
0.77
1.75715e-05
7.58443e-05
0.000169825
0.000318319
0.000549196
0.00090317
0.00143866
0.00223766
0.0034122
0.00511027
0.00751951
0.0108661
0.0154061
0.0214082
0.0291278
0.0387769
0.0504958
0.0643364
0.0802576
0.0981365
0.117788
0.138941
0.16138
0.184843
0.209075
0.233839
0.258915
0.284107
0.309239
0.334155
0.358725
0.382839
0.406404
0.429346
0.451602
0.473122
0.493858
0.513776
0.532851
0.551068
0.568422
0.584915
0.600556
0.615358
0.629339
0.642519
0.654923
0.666573
0.677498
0.687725
0.697281
0.706195
0.714495
0.722209
0.729365
0.73599
0.74211
0.747751
0.75294
0.757699
0.762054
0.766027
0.769641
0.772917
0.775869
0.778457
0.780771
0.782823
0.784681
0.785993
0.785971
0.785826
0.785548
0.785134
0.784583
0.7839
0.783089
0.782162
0.781128
0.780005
0.778814
0.777576
0.776318
0.775079
0.773897
0.772839
0.771946
0.77125
0.770752
0.770427
0.770231
0.770121
0.770062
0.770031
0.770015
0.770007
0.770003
0.770001
0.770001
0.77
1.68646e-05
7.28077e-05
0.000163095
0.000305899
0.000528225
0.000869625
0.00138703
0.00216061
0.00330034
0.00495211
0.00730186
0.010575
0.0150286
0.0209343
0.0285526
0.0381019
0.0497301
0.0634949
0.0793596
0.097202
0.116834
0.13802
0.160505
0.184026
0.208327
0.233177
0.258343
0.283627
0.308852
0.333855
0.358509
0.382702
0.406339
0.429343
0.451655
0.473225
0.494007
0.513967
0.53308
0.551333
0.568718
0.585238
0.600901
0.615721
0.629714
0.642902
0.655309
0.666958
0.677878
0.688096
0.69764
0.706539
0.714821
0.722515
0.729649
0.73625
0.742346
0.747963
0.753127
0.757862
0.762193
0.766144
0.769737
0.772993
0.775928
0.778501
0.78081
0.782855
0.784713
0.78576
0.785732
0.785579
0.785292
0.784867
0.784306
0.783614
0.782796
0.781863
0.780828
0.779706
0.778517
0.777282
0.776039
0.774824
0.773682
0.772656
0.771803
0.771147
0.770684
0.770385
0.770207
0.770109
0.770056
0.770028
0.770014
0.770007
0.770003
0.770001
0.77
0.77
1.62601e-05
7.02099e-05
0.000157331
0.000295248
0.000510206
0.000840741
0.00134247
0.00209395
0.00320331
0.00481458
0.00711212
0.0103206
0.0146978
0.0205179
0.0280459
0.0375063
0.0490537
0.0627521
0.0785693
0.0963851
0.116011
0.13721
0.159736
0.183313
0.207684
0.232603
0.257848
0.283216
0.308527
0.333624
0.358373
0.382658
0.406384
0.429474
0.451862
0.473493
0.494327
0.514328
0.533474
0.551751
0.569153
0.585684
0.601352
0.616172
0.630161
0.643342
0.655739
0.667376
0.678281
0.688482
0.698008
0.706887
0.715148
0.72282
0.729931
0.73651
0.742582
0.748175
0.753314
0.758026
0.762334
0.766262
0.769833
0.77307
0.775988
0.778544
0.780846
0.78288
0.784727
0.785552
0.785518
0.785357
0.785062
0.784629
0.784061
0.783362
0.78254
0.781603
0.780563
0.779438
0.778248
0.777023
0.775795
0.774602
0.773487
0.7725
0.771683
0.771061
0.770628
0.770352
0.770188
0.770098
0.77005
0.770025
0.770012
0.770006
0.770003
0.770001
0.77
0.77
1.57702e-05
6.81028e-05
0.000152647
0.000286572
0.000495487
0.000817069
0.00130582
0.00203892
0.00312291
0.0047002
0.00695374
0.0101075
0.0144197
0.0201666
0.027617
0.0370007
0.0484782
0.0621192
0.0778958
0.0956904
0.115315
0.136535
0.159083
0.1827
0.207124
0.232098
0.257404
0.282835
0.30821
0.33337
0.358177
0.382518
0.406297
0.429431
0.451853
0.473508
0.494361
0.514381
0.533545
0.551839
0.569258
0.585804
0.601486
0.616317
0.630315
0.643503
0.655902
0.66754
0.678444
0.688642
0.698162
0.707034
0.715287
0.722949
0.73005
0.736616
0.742676
0.748257
0.753385
0.758084
0.76238
0.766298
0.76986
0.773088
0.775999
0.778549
0.780849
0.782879
0.784715
0.785386
0.785344
0.785175
0.784872
0.784432
0.783857
0.783151
0.78232
0.781375
0.780332
0.779207
0.778024
0.776809
0.775594
0.77442
0.77333
0.772373
0.771586
0.770993
0.770584
0.770325
0.770174
0.77009
0.770046
0.770023
0.770011
0.770005
0.770002
0.770001
0.77
0.77
1.54151e-05
6.65729e-05
0.000149237
0.000280231
0.000484681
0.000799607
0.00127865
0.00199792
0.00306272
0.00461415
0.00683405
0.00994579
0.0142079
0.0198981
0.0272883
0.0366124
0.0480354
0.0616314
0.0773757
0.0951528
0.114775
0.136007
0.15858
0.182227
0.206688
0.231713
0.257072
0.28256
0.307995
0.333217
0.358089
0.382495
0.406332
0.429515
0.451974
0.473658
0.494528
0.514561
0.533735
0.552038
0.569462
0.58601
0.601692
0.616522
0.630517
0.643699
0.656092
0.667723
0.678618
0.688806
0.698316
0.707178
0.715419
0.72307
0.730159
0.736713
0.742761
0.74833
0.753445
0.758133
0.762418
0.766325
0.769877
0.773097
0.776
0.778543
0.780838
0.782863
0.78469
0.785268
0.785217
0.785041
0.784731
0.784284
0.783701
0.782988
0.782153
0.781206
0.780162
0.779038
0.777858
0.776649
0.775444
0.774282
0.77321
0.772273
0.771511
0.77094
0.77055
0.770305
0.770162
0.770084
0.770043
0.770021
0.77001
0.770005
0.770002
0.770001
0.77
0.77
1.52242e-05
6.57499e-05
0.000147399
0.000276801
0.000478812
0.000790082
0.00126376
0.00197536
0.00302946
0.00456642
0.00676744
0.00985547
0.0140892
0.0197473
0.0271032
0.0363933
0.0477851
0.0613551
0.0770803
0.0948458
0.114464
0.135697
0.158282
0.181947
0.206428
0.231475
0.256858
0.28237
0.307831
0.333079
0.357981
0.382413
0.40627
0.429467
0.451936
0.473627
0.494502
0.514535
0.533712
0.552019
0.569449
0.586004
0.601692
0.616527
0.630528
0.643714
0.656111
0.667744
0.678642
0.688831
0.698342
0.707203
0.715443
0.723093
0.73018
0.736732
0.742778
0.748343
0.753456
0.758141
0.762423
0.766327
0.769877
0.773094
0.775995
0.778536
0.780828
0.782851
0.784673
0.785207
0.785151
0.78497
0.784655
0.784203
0.783617
0.782901
0.782063
0.781114
0.780068
0.778945
0.777766
0.776559
0.775359
0.774205
0.773143
0.772219
0.77147
0.770912
0.770532
0.770294
0.770157
0.770081
0.770041
0.770021
0.77001
0.770005
0.770002
0.770001
0.77
0.77
1.5221e-05
6.57369e-05
0.000147373
0.000276757
0.000478742
0.000789977
0.00126361
0.00197516
0.00302922
0.00456617
0.00676724
0.00985543
0.0140893
0.0197477
0.0271045
0.0363958
0.0477892
0.061361
0.0770879
0.0948551
0.114474
0.135709
0.158294
0.18196
0.206442
0.23149
0.256875
0.282391
0.307854
0.333106
0.358012
0.382447
0.406308
0.429508
0.451981
0.473675
0.494551
0.514585
0.533761
0.552066
0.569494
0.586046
0.601731
0.616562
0.630559
0.643742
0.656136
0.667766
0.67866
0.688847
0.698355
0.707214
0.715452
0.7231
0.730185
0.736736
0.74278
0.748345
0.753456
0.75814
0.762422
0.766326
0.769875
0.773093
0.775994
0.778537
0.78083
0.782854
0.784678
0.785213
0.785157
0.784976
0.784661
0.78421
0.783623
0.782906
0.782068
0.781118
0.780072
0.778947
0.777768
0.77656
0.775359
0.774205
0.773142
0.772218
0.771469
0.770911
0.770532
0.770294
0.770157
0.770081
0.770041
0.770021
0.77001
0.770005
0.770002
0.770001
0.77
0.77
1.54104e-05
6.65559e-05
0.000149208
0.00028019
0.000484625
0.000799537
0.00127857
0.00199786
0.00306273
0.0046144
0.00683497
0.00994841
0.0142104
0.0199007
0.0272921
0.0366183
0.0480443
0.0616438
0.0773918
0.0951719
0.114796
0.136027
0.158602
0.182249
0.206705
0.231724
0.257077
0.282559
0.307986
0.333201
0.358066
0.382465
0.406296
0.429474
0.45193
0.473611
0.494481
0.514514
0.53369
0.551994
0.569421
0.585973
0.601659
0.616492
0.63049
0.643676
0.656073
0.667707
0.678605
0.688797
0.69831
0.707174
0.715418
0.723071
0.730161
0.736717
0.742767
0.748337
0.753453
0.758142
0.762428
0.766335
0.769888
0.773109
0.776013
0.778558
0.780853
0.782878
0.784707
0.785288
0.785236
0.78506
0.78475
0.784302
0.783718
0.783003
0.782166
0.781217
0.780171
0.779044
0.777861
0.77665
0.775442
0.774279
0.773206
0.77227
0.771509
0.770939
0.77055
0.770305
0.770163
0.770084
0.770043
0.770021
0.770011
0.770005
0.770002
0.770001
0.77
0.77
1.57655e-05
6.80875e-05
0.000152626
0.000286549
0.000495468
0.000817065
0.00130585
0.00203902
0.00312314
0.0047007
0.00695485
0.0101101
0.0144234
0.0201714
0.0276241
0.0370113
0.0484934
0.0621399
0.0779224
0.095723
0.115354
0.136579
0.159126
0.182742
0.207163
0.232136
0.257438
0.282867
0.308241
0.333401
0.358211
0.382555
0.406339
0.429479
0.451907
0.473568
0.494424
0.514446
0.533611
0.551904
0.56932
0.585863
0.601541
0.616368
0.630362
0.643545
0.655942
0.667577
0.678477
0.688672
0.69819
0.70706
0.71531
0.722971
0.730069
0.736634
0.742693
0.748272
0.753398
0.758096
0.762391
0.766308
0.76987
0.773099
0.776012
0.778564
0.780866
0.782897
0.784739
0.785417
0.785373
0.785204
0.7849
0.784458
0.783881
0.783172
0.782339
0.781391
0.780345
0.779217
0.77803
0.776811
0.775593
0.774416
0.773325
0.772369
0.771583
0.770991
0.770583
0.770325
0.770174
0.77009
0.770046
0.770023
0.770011
0.770005
0.770002
0.770001
0.77
0.77
1.62597e-05
7.02149e-05
0.000157358
0.000295318
0.00051035
0.000841001
0.0013429
0.00209462
0.00320428
0.00481588
0.00711367
0.0103221
0.0147016
0.0205243
0.0280555
0.0375201
0.0490727
0.0627774
0.0786012
0.0964236
0.116054
0.137258
0.159784
0.18336
0.207727
0.232642
0.257879
0.283238
0.308539
0.333626
0.358363
0.382636
0.406351
0.429431
0.451811
0.473438
0.494269
0.51427
0.533417
0.551697
0.569102
0.585637
0.60131
0.616134
0.630129
0.643315
0.655716
0.667357
0.678266
0.688471
0.698
0.706882
0.715147
0.722821
0.729935
0.736515
0.742589
0.748184
0.753325
0.758037
0.762346
0.766276
0.769849
0.773089
0.776009
0.778569
0.780873
0.782908
0.78476
0.785596
0.785559
0.785397
0.7851
0.784665
0.784093
0.78339
0.782563
0.781622
0.780578
0.779448
0.778254
0.777025
0.775793
0.774597
0.773483
0.772496
0.77168
0.77106
0.770628
0.770352
0.770189
0.770099
0.77005
0.770025
0.770012
0.770006
0.770003
0.770001
0.77
0.77
1.68701e-05
7.28396e-05
0.000163184
0.000306088
0.000528569
0.000870202
0.00138794
0.00216198
0.00330233
0.00495494
0.0073059
0.0105813
0.0150361
0.0209434
0.0285646
0.0381183
0.0497523
0.0635244
0.0793973
0.0972477
0.116885
0.138074
0.160562
0.184086
0.208388
0.233234
0.258396
0.283675
0.308893
0.333897
0.358552
0.382745
0.406385
0.429393
0.45171
0.473285
0.494072
0.514034
0.533149
0.551401
0.568785
0.585302
0.600963
0.615779
0.629769
0.642955
0.655358
0.667005
0.677922
0.688138
0.69768
0.706577
0.714858
0.72255
0.729683
0.736283
0.742378
0.747993
0.753155
0.757889
0.762219
0.766169
0.769761
0.773019
0.775955
0.77853
0.78084
0.782887
0.784748
0.785811
0.785781
0.785627
0.785338
0.78491
0.784346
0.783649
0.782826
0.781888
0.780847
0.77972
0.778524
0.777283
0.776035
0.774818
0.773676
0.772649
0.7718
0.771145
0.770684
0.770386
0.770208
0.770109
0.770056
0.770028
0.770014
0.770007
0.770003
0.770001
0.77
0.77
1.75848e-05
7.59107e-05
0.000169994
0.000318655
0.000549787
0.000904131
0.00144013
0.00223981
0.00341518
0.00511422
0.00752452
0.0108723
0.0154142
0.0214183
0.0291409
0.0387943
0.0505194
0.0643677
0.080298
0.0981863
0.117847
0.139011
0.161453
0.184916
0.209147
0.233906
0.258975
0.284157
0.309278
0.334183
0.358742
0.382844
0.406397
0.429325
0.45157
0.473081
0.493812
0.513726
0.532801
0.551019
0.568376
0.584873
0.600519
0.615326
0.629311
0.642497
0.654904
0.666559
0.677488
0.687719
0.697278
0.706195
0.714498
0.722214
0.729372
0.735998
0.74212
0.747763
0.752953
0.757715
0.762073
0.766049
0.769667
0.772947
0.775902
0.778495
0.780809
0.782862
0.784721
0.78605
0.786029
0.785883
0.785603
0.785185
0.784629
0.783941
0.783125
0.78219
0.781149
0.780018
0.778819
0.777576
0.776314
0.775074
0.773889
0.772833
0.771943
0.771248
0.770752
0.770428
0.770232
0.770122
0.770063
0.770032
0.770015
0.770007
0.770003
0.770001
0.770001
0.77
1.83981e-05
7.94046e-05
0.000177736
0.00033293
0.000573863
0.000942582
0.0014992
0.00232776
0.00354255
0.00529377
0.00777076
0.0112002
0.0158385
0.0219494
0.0297831
0.0395448
0.0513676
0.065295
0.0812782
0.0991862
0.118824
0.139993
0.162409
0.185819
0.209975
0.234645
0.259615
0.284691
0.309701
0.334494
0.358942
0.382934
0.406381
0.42921
0.451362
0.47279
0.493449
0.513302
0.532324
0.550499
0.567821
0.58429
0.599915
0.614708
0.628686
0.641869
0.654279
0.665942
0.676883
0.68713
0.696709
0.705649
0.713977
0.721721
0.728908
0.735566
0.741721
0.747398
0.752622
0.757418
0.76181
0.765821
0.769473
0.772787
0.775783
0.778409
0.780765
0.782843
0.784723
0.786284
0.786276
0.786145
0.785879
0.785475
0.784934
0.784257
0.783451
0.782524
0.781487
0.780356
0.77915
0.777897
0.776617
0.775342
0.774134
0.773041
0.772108
0.771369
0.770833
0.770478
0.770261
0.770138
0.770071
0.770036
0.770018
0.770008
0.770004
0.770002
0.770001
0.77
1.93086e-05
8.33157e-05
0.0001864
0.000348896
0.000600772
0.000985525
0.00156512
0.00242586
0.00368462
0.00549431
0.00804666
0.0115696
0.0163159
0.0225423
0.0304948
0.0403736
0.0523035
0.0663206
0.082371
0.100322
0.11998
0.141115
0.163479
0.186819
0.21089
0.235459
0.260317
0.285277
0.31017
0.33484
0.359167
0.383042
0.406377
0.429098
0.451147
0.472479
0.493053
0.512831
0.531789
0.549911
0.567188
0.583622
0.59922
0.613993
0.62796
0.641138
0.65355
0.66522
0.676174
0.686438
0.696039
0.705004
0.713362
0.721138
0.72836
0.735055
0.741249
0.746966
0.752231
0.757069
0.761503
0.765556
0.76925
0.772606
0.775644
0.778344
0.780736
0.782868
0.784809
0.786486
0.786513
0.786405
0.786162
0.785778
0.785255
0.784594
0.783801
0.782885
0.781855
0.780724
0.77951
0.778234
0.776935
0.775647
0.774415
0.773281
0.7723
0.771511
0.77093
0.770539
0.770296
0.770157
0.770081
0.770041
0.77002
0.77001
0.770004
0.770002
0.770001
0.77
2.03185e-05
8.76527e-05
0.000196004
0.000366586
0.000630565
0.00103302
0.00163792
0.00253397
0.00384071
0.00571386
0.00834797
0.0119744
0.016853
0.0231982
0.0312755
0.0412808
0.0533276
0.0674439
0.0835713
0.101578
0.12128
0.142377
0.16468
0.187948
0.211939
0.236383
0.261109
0.28593
0.310677
0.33521
0.359397
0.383134
0.406334
0.428926
0.450853
0.472074
0.492548
0.512238
0.531119
0.549174
0.566397
0.582786
0.598349
0.613097
0.627046
0.640216
0.652627
0.664303
0.675269
0.685551
0.695175
0.704169
0.712558
0.72037
0.727631
0.734368
0.740605
0.746368
0.751681
0.756567
0.761051
0.765153
0.768897
0.772303
0.775391
0.778173
0.780621
0.782828
0.784791
0.786558
0.786773
0.786683
0.786459
0.786096
0.785592
0.784949
0.784173
0.78327
0.782249
0.781124
0.779911
0.778634
0.77732
0.776007
0.774735
0.773556
0.772522
0.771678
0.771045
0.770611
0.770339
0.770181
0.770094
0.770047
0.770023
0.770011
0.770005
0.770002
0.770001
0.77
2.14332e-05
9.24393e-05
0.000206602
0.000386099
0.000663414
0.00108536
0.00171806
0.00265277
0.00401171
0.00595283
0.00867153
0.012397
0.0173814
0.0238836
0.0321167
0.0422671
0.0544422
0.0686616
0.0848579
0.102889
0.122556
0.143672
0.165946
0.189138
0.213014
0.23737
0.261981
0.286669
0.311276
0.335657
0.359692
0.383278
0.406331
0.428779
0.450571
0.471665
0.492022
0.511609
0.530399
0.548377
0.565533
0.581868
0.597387
0.612102
0.626028
0.639183
0.651588
0.663267
0.674243
0.684541
0.694189
0.703211
0.711634
0.719484
0.726787
0.733569
0.739853
0.745666
0.75103
0.755969
0.760506
0.764662
0.768459
0.771918
0.775058
0.777898
0.78039
0.782638
0.784621
0.786419
0.787061
0.786982
0.786773
0.786428
0.785943
0.785321
0.784563
0.783677
0.782669
0.781553
0.780343
0.779063
0.777736
0.776398
0.775091
0.773865
0.772775
0.77187
0.77118
0.770698
0.77039
0.770209
0.770109
0.770055
0.770027
0.770013
0.770006
0.770003
0.770001
0.77
2.26613e-05
9.77122e-05
0.000218274
0.000407586
0.000699579
0.00114296
0.00180629
0.00278367
0.00420053
0.006218
0.0090341
0.0128797
0.0180085
0.0247079
0.0330888
0.043377
0.0556831
0.0700161
0.0863
0.104388
0.124082
0.145175
0.167399
0.190515
0.214296
0.238549
0.263001
0.287527
0.311968
0.336188
0.360048
0.383462
0.406348
0.428635
0.450271
0.471214
0.491432
0.510894
0.529574
0.547455
0.564529
0.580794
0.596257
0.610928
0.624822
0.637955
0.65035
0.662026
0.67301
0.683324
0.692994
0.702045
0.710503
0.718394
0.725742
0.732573
0.73891
0.744778
0.750199
0.755198
0.759794
0.764011
0.767868
0.771386
0.774584
0.777479
0.780024
0.782324
0.784344
0.786175
0.787357
0.787281
0.787087
0.786761
0.786299
0.7857
0.784966
0.7841
0.78311
0.782006
0.780803
0.779521
0.778183
0.776823
0.775482
0.774209
0.773061
0.772092
0.771338
0.770801
0.770452
0.770244
0.770127
0.770065
0.770032
0.770015
0.770007
0.770003
0.770001
0.77
2.4014e-05
0.00010352
0.000231129
0.000431247
0.000739388
0.00120634
0.00190325
0.00292731
0.00440726
0.0065074
0.00942809
0.0134008
0.018677
0.025509
0.0341557
0.0446145
0.0570617
0.0715188
0.087905
0.106071
0.125824
0.146945
0.169079
0.192084
0.215741
0.23983
0.264147
0.288512
0.312777
0.336808
0.360491
0.383722
0.406423
0.428529
0.449994
0.470771
0.490836
0.51016
0.528715
0.546487
0.563466
0.57965
0.595045
0.609662
0.623513
0.636617
0.648993
0.660662
0.671647
0.681972
0.691662
0.700741
0.709234
0.717165
0.724559
0.73144
0.737832
0.743757
0.749239
0.754299
0.758959
0.76324
0.767162
0.770745
0.774007
0.776966
0.779597
0.781938
0.784026
0.785917
0.787534
0.787501
0.787345
0.787057
0.786632
0.786067
0.785365
0.784528
0.783562
0.782477
0.781285
0.780005
0.77866
0.777282