/*--------------------------------*- C++ -*----------------------------------*\
  =========                 |
  \\      /  F ield         | OpenFOAM: The Open Source CFD Toolbox
   \\    /   O peration     | Website:  https://openfoam.org
    \\  /    A nd           | Version:  8
     \\/     M anipulation  |
\*---------------------------------------------------------------------------*/
FoamFile
{
    version     2.0;
    format      ascii;
    class       surfaceScalarField;
    location    "60/fluid";
    object      phi;
}
// * * * * * * * * * * * * * * * * * * * * * * * * * * * * * * * * * * * * * //

dimensions      [1 0 -1 0 0 0 0];

internalField   nonuniform List<scalar> 
7860
(
6.56274e-07
-1.98274e-08
6.51579e-07
-6.11433e-08
6.44864e-07
-1.04291e-07
6.35779e-07
-1.49538e-07
6.2392e-07
-1.9727e-07
6.08855e-07
-2.47471e-07
5.90205e-07
-2.99562e-07
5.6775e-07
-3.5227e-07
5.41528e-07
-4.03624e-07
5.11895e-07
-4.51117e-07
4.79518e-07
-4.92074e-07
4.45285e-07
-5.2413e-07
4.10175e-07
-5.45686e-07
3.75112e-07
-5.56207e-07
3.40874e-07
-5.56257e-07
3.08039e-07
-5.47284e-07
2.76999e-07
-5.31259e-07
2.47986e-07
-5.10291e-07
2.21118e-07
-4.86321e-07
1.96444e-07
-4.60942e-07
1.74003e-07
-4.35348e-07
1.5372e-07
-4.10347e-07
1.35452e-07
-3.86457e-07
1.19037e-07
-3.63965e-07
1.043e-07
-3.43006e-07
9.10625e-08
-3.236e-07
7.91695e-08
-3.05721e-07
6.84668e-08
-2.89293e-07
5.88188e-08
-2.74228e-07
5.01018e-08
-2.6043e-07
4.22052e-08
-2.47803e-07
3.50286e-08
-2.36252e-07
2.84841e-08
-2.25691e-07
2.24938e-08
-2.1604e-07
1.69892e-08
-2.07223e-07
1.19073e-08
-1.99176e-07
7.19568e-09
-1.91838e-07
2.80469e-09
-1.85155e-07
-1.30458e-09
-1.79079e-07
-5.1672e-09
-1.73567e-07
-8.80909e-09
-1.68574e-07
-1.22616e-08
-1.64062e-07
-1.55477e-08
-1.59999e-07
-1.86919e-08
-1.56359e-07
-2.17126e-08
-1.53116e-07
-2.46291e-08
-1.50247e-07
-2.74568e-08
-1.47732e-07
-3.02104e-08
-1.45551e-07
-3.29032e-08
-1.43689e-07
-3.5547e-08
-1.42129e-07
-3.81553e-08
-1.4086e-07
-4.07364e-08
-1.39871e-07
-4.3303e-08
-1.39152e-07
-4.58625e-08
-1.38696e-07
-4.84262e-08
-1.38497e-07
-5.1e-08
-1.38552e-07
-5.35948e-08
-1.3886e-07
-5.62168e-08
-1.3942e-07
-5.88764e-08
-1.40237e-07
-6.15804e-08
-1.41315e-07
-6.43391e-08
-1.42665e-07
-6.71606e-08
-1.44299e-07
-7.00558e-08
-1.46233e-07
-7.30345e-08
-1.48489e-07
-7.61096e-08
-1.51094e-07
-7.92951e-08
-1.54083e-07
-8.26099e-08
-1.57495e-07
-8.6078e-08
-1.61382e-07
-8.97282e-08
-1.65808e-07
-9.35871e-08
-1.70876e-07
-9.77478e-08
-1.76698e-07
-1.02635e-07
-1.83362e-07
-1.00877e-07
-1.90633e-07
-1.062e-07
-2.08441e-07
-1.1343e-07
-2.29268e-07
-1.21637e-07
-2.52884e-07
-1.31083e-07
-2.79761e-07
-1.42005e-07
-3.10428e-07
-1.54684e-07
-3.45484e-07
-1.6947e-07
-3.85621e-07
-1.8681e-07
-4.31607e-07
-2.07281e-07
-4.84243e-07
-2.31567e-07
-5.4426e-07
-2.6068e-07
-6.12338e-07
-2.96154e-07
-6.88885e-07
-3.39619e-07
-7.7307e-07
-3.93033e-07
-8.61491e-07
-4.57615e-07
-9.46951e-07
-5.3474e-07
-1.01654e-06
-6.24197e-07
-1.05335e-06
-7.22202e-07
-1.04371e-06
-8.2117e-07
-9.86479e-07
-9.12642e-07
-8.93617e-07
-9.9092e-07
-7.80641e-07
-1.0541e-06
-6.59391e-07
-1.10255e-06
-5.36043e-07
-1.13757e-06
-4.13326e-07
-1.16167e-06
-2.92196e-07
-1.17714e-06
-1.73089e-07
-5.67673e-08
6.57923e-07
-1.92219e-08
6.55315e-07
-5.85613e-08
6.50329e-07
-9.93648e-08
6.42752e-07
-1.42075e-07
6.32218e-07
-1.86936e-07
6.18311e-07
-2.33895e-07
6.00661e-07
-2.82432e-07
5.79051e-07
-3.31444e-07
5.53521e-07
-3.79226e-07
5.2443e-07
-4.23595e-07
4.9245e-07
-4.62172e-07
4.58482e-07
-4.92782e-07
4.23521e-07
-5.13863e-07
3.88511e-07
-5.24768e-07
3.54245e-07
-5.25851e-07
3.2131e-07
-5.18324e-07
2.90098e-07
-5.03955e-07
2.60833e-07
-4.84711e-07
2.33618e-07
-4.62453e-07
2.08483e-07
-4.38751e-07
1.85432e-07
-4.14808e-07
1.64408e-07
-3.91414e-07
1.45311e-07
-3.69059e-07
1.28004e-07
-3.48009e-07
1.12347e-07
-3.28391e-07
9.81989e-08
-3.10234e-07
8.54133e-08
-2.93501e-07
7.38516e-08
-2.78119e-07
6.33847e-08
-2.64005e-07
5.38915e-08
-2.51064e-07
4.52605e-08
-2.39206e-07
3.73921e-08
-2.28344e-07
3.01949e-08
-2.18397e-07
2.35869e-08
-2.09291e-07
1.74961e-08
-2.00958e-07
1.18578e-08
-1.93338e-07
6.61469e-09
-1.86376e-07
1.71507e-09
-1.80023e-07
-2.88266e-09
-1.74236e-07
-7.21256e-09
-1.68975e-07
-1.13059e-08
-1.64202e-07
-1.51936e-08
-1.5988e-07
-1.89023e-08
-1.55982e-07
-2.24563e-08
-1.52483e-07
-2.58771e-08
-1.4936e-07
-2.91843e-08
-1.46592e-07
-3.23954e-08
-1.44161e-07
-3.55265e-08
-1.42048e-07
-3.8592e-08
-1.40239e-07
-4.16058e-08
-1.38719e-07
-4.45815e-08
-1.37478e-07
-4.75304e-08
-1.36504e-07
-5.04649e-08
-1.35789e-07
-5.33964e-08
-1.35327e-07
-5.63354e-08
-1.3511e-07
-5.92919e-08
-1.35138e-07
-6.22771e-08
-1.35406e-07
-6.53012e-08
-1.35917e-07
-6.83759e-08
-1.36673e-07
-7.15125e-08
-1.37679e-07
-7.47242e-08
-1.38943e-07
-7.80243e-08
-1.40478e-07
-8.14288e-08
-1.42297e-07
-8.49553e-08
-1.4442e-07
-8.86254e-08
-1.46872e-07
-9.24648e-08
-1.4968e-07
-9.65065e-08
-1.52881e-07
-1.00792e-07
-1.56515e-07
-1.05373e-07
-1.60638e-07
-1.10326e-07
-1.65329e-07
-1.15779e-07
-1.70648e-07
-1.21949e-07
-1.76591e-07
-1.19774e-07
-1.83489e-07
-1.26529e-07
-2.01155e-07
-1.34281e-07
-2.21071e-07
-1.43213e-07
-2.43624e-07
-1.53538e-07
-2.69264e-07
-1.65508e-07
-2.98494e-07
-1.79409e-07
-3.31894e-07
-1.95579e-07
-3.70127e-07
-2.14428e-07
-4.13921e-07
-2.36498e-07
-4.63986e-07
-2.62423e-07
-5.21011e-07
-2.92889e-07
-5.85696e-07
-3.29025e-07
-6.58077e-07
-3.72427e-07
-7.36848e-07
-4.25092e-07
-8.18092e-07
-4.89077e-07
-8.94168e-07
-5.66085e-07
-9.51805e-07
-6.55231e-07
-9.75908e-07
-7.51281e-07
-9.57066e-07
-8.46046e-07
-8.9804e-07
-9.32255e-07
-8.11074e-07
-1.00579e-06
-7.08954e-07
-1.06555e-06
-6.00498e-07
-1.11187e-06
-4.90111e-07
-1.14564e-06
-3.79722e-07
-1.16813e-06
-2.69761e-07
-1.18036e-06
-1.60883e-07
-5.3307e-08
6.57408e-07
-1.81019e-08
6.54108e-07
-5.52839e-08
6.48476e-07
-9.37873e-08
6.4024e-07
-1.33942e-07
6.29109e-07
-1.75987e-07
6.14802e-07
-2.19886e-07
5.97096e-07
-2.65194e-07
5.75898e-07
-3.1095e-07
5.51299e-07
-3.55646e-07
5.23617e-07
-3.97325e-07
4.9339e-07
-4.33819e-07
4.61336e-07
-4.63097e-07
4.28264e-07
-4.83644e-07
3.94983e-07
-4.9475e-07
3.62209e-07
-4.96627e-07
3.30515e-07
-4.90305e-07
3.00307e-07
-4.77382e-07
2.71837e-07
-4.59686e-07
2.45231e-07
-4.38993e-07
2.20522e-07
-4.16819e-07
1.97654e-07
-3.94322e-07
1.76551e-07
-3.72294e-07
1.57127e-07
-3.51242e-07
1.39293e-07
-3.31443e-07
1.22953e-07
-3.13026e-07
1.08004e-07
-2.96012e-07
9.43332e-08
-2.8035e-07
8.18324e-08
-2.65968e-07
7.0394e-08
-2.52778e-07
5.9914e-08
-2.40685e-07
5.02964e-08
-2.296e-07
4.14492e-08
-2.1944e-07
3.32892e-08
-2.10126e-07
2.57398e-08
-2.01589e-07
1.87309e-08
-1.93765e-07
1.21995e-08
-1.866e-07
6.0879e-09
-1.80041e-07
3.4435e-10
-1.74046e-07
-5.0711e-09
-1.68574e-07
-1.01904e-08
-1.63591e-07
-1.50497e-08
-1.59061e-07
-1.96802e-08
-1.54951e-07
-2.41109e-08
-1.51237e-07
-2.83677e-08
-1.47898e-07
-3.24744e-08
-1.44912e-07
-3.64526e-08
-1.4226e-07
-4.03222e-08
-1.39925e-07
-4.41014e-08
-1.37891e-07
-4.7807e-08
-1.36144e-07
-5.14554e-08
-1.34671e-07
-5.50615e-08
-1.33461e-07
-5.86397e-08
-1.32503e-07
-6.22039e-08
-1.31791e-07
-6.57684e-08
-1.31317e-07
-6.93463e-08
-1.31076e-07
-7.29518e-08
-1.31065e-07
-7.65984e-08
-1.3128e-07
-8.03011e-08
-1.31723e-07
-8.40749e-08
-1.32396e-07
-8.79368e-08
-1.33301e-07
-9.19043e-08
-1.34447e-07
-9.59979e-08
-1.35843e-07
-1.0024e-07
-1.37501e-07
-1.04655e-07
-1.39437e-07
-1.09274e-07
-1.41673e-07
-1.1413e-07
-1.44232e-07
-1.19262e-07
-1.47145e-07
-1.24721e-07
-1.50445e-07
-1.30558e-07
-1.54186e-07
-1.36835e-07
-1.58439e-07
-1.436e-07
-1.63287e-07
-1.50244e-07
-1.68671e-07
-1.49632e-07
-1.76787e-07
-1.56896e-07
-1.93428e-07
-1.65335e-07
-2.12264e-07
-1.75102e-07
-2.33623e-07
-1.86382e-07
-2.57928e-07
-1.99388e-07
-2.85671e-07
-2.14358e-07
-3.17423e-07
-2.31566e-07
-3.53836e-07
-2.51337e-07
-3.95623e-07
-2.74024e-07
-4.43502e-07
-3.00062e-07
-4.98136e-07
-3.30075e-07
-5.60104e-07
-3.64847e-07
-6.2932e-07
-4.05659e-07
-7.03933e-07
-4.54412e-07
-7.79207e-07
-5.13788e-07
-8.46266e-07
-5.85347e-07
-8.92263e-07
-6.67744e-07
-9.04458e-07
-7.55817e-07
-8.77463e-07
-8.42551e-07
-8.16875e-07
-9.22327e-07
-7.34476e-07
-9.92098e-07
-6.40781e-07
-1.05087e-06
-5.42474e-07
-1.09864e-06
-4.42677e-07
-1.13575e-06
-3.42755e-07
-1.16221e-06
-2.43354e-07
-1.17826e-06
-1.44849e-07
-4.77466e-08
6.57579e-07
-1.71523e-08
6.54496e-07
-5.22222e-08
6.49078e-07
-8.84184e-08
6.41101e-07
-1.26061e-07
6.3031e-07
-1.65361e-07
6.16448e-07
-2.06296e-07
5.99313e-07
-2.48483e-07
5.78808e-07
-2.91082e-07
5.55e-07
-3.3276e-07
5.28163e-07
-3.71768e-07
4.9878e-07
-4.06136e-07
4.6751e-07
-4.33985e-07
4.35121e-07
-4.53861e-07
4.02395e-07
-4.65018e-07
3.70043e-07
-4.67545e-07
3.38647e-07
-4.6231e-07
3.08632e-07
-4.50742e-07
2.80272e-07
-4.34536e-07
2.53708e-07
-4.15367e-07
2.28966e-07
-3.94681e-07
2.05993e-07
-3.7359e-07
1.84736e-07
-3.52889e-07
1.65093e-07
-3.33091e-07
1.46968e-07
-3.14491e-07
1.30255e-07
-2.9721e-07
1.14839e-07
-2.81257e-07
1.00618e-07
-2.66593e-07
8.7492e-08
-2.53145e-07
7.53637e-08
-2.40821e-07
6.41434e-08
-2.29531e-07
5.37438e-08
-2.19186e-07
4.40851e-08
-2.09702e-07
3.50931e-08
-2.01005e-07
2.66989e-08
-1.93028e-07
1.88387e-08
-1.85712e-07
1.14539e-08
-1.79002e-07
4.49112e-09
-1.72853e-07
-2.09655e-09
-1.67223e-07
-8.34333e-09
-1.62076e-07
-1.42814e-08
-1.57382e-07
-1.99458e-08
-1.53106e-07
-2.53681e-08
-1.4922e-07
-3.05769e-08
-1.45703e-07
-3.55991e-08
-1.42534e-07
-4.04591e-08
-1.39695e-07
-4.51798e-08
-1.37167e-07
-4.97823e-08
-1.34936e-07
-5.42862e-08
-1.32986e-07
-5.87105e-08
-1.31304e-07
-6.30724e-08
-1.2988e-07
-6.73894e-08
-1.28701e-07
-7.16774e-08
-1.27759e-07
-7.59529e-08
-1.27047e-07
-8.02314e-08
-1.26557e-07
-8.45294e-08
-1.26283e-07
-8.88627e-08
-1.26224e-07
-9.32483e-08
-1.26374e-07
-9.77035e-08
-1.26735e-07
-1.02247e-07
-1.27306e-07
-1.06898e-07
-1.28091e-07
-1.11678e-07
-1.29094e-07
-1.16611e-07
-1.30324e-07
-1.21722e-07
-1.31791e-07
-1.27039e-07
-1.33508e-07
-1.32595e-07
-1.35492e-07
-1.38422e-07
-1.37767e-07
-1.44559e-07
-1.40357e-07
-1.51045e-07
-1.43298e-07
-1.57924e-07
-1.46642e-07
-1.65244e-07
-1.50452e-07
-1.73045e-07
-1.54829e-07
-1.77685e-07
-1.59672e-07
-1.80138e-07
-1.70245e-07
-1.87644e-07
-1.85519e-07
-1.96516e-07
-2.03114e-07
-2.06798e-07
-2.23227e-07
-2.18614e-07
-2.46216e-07
-2.32122e-07
-2.72546e-07
-2.47524e-07
-3.02771e-07
-2.65062e-07
-3.37523e-07
-2.85042e-07
-3.7749e-07
-3.07849e-07
-4.23351e-07
-3.33989e-07
-4.75703e-07
-3.64178e-07
-5.34981e-07
-3.99515e-07
-6.00721e-07
-4.4158e-07
-6.70511e-07
-4.92341e-07
-7.38968e-07
-5.53626e-07
-7.96822e-07
-6.25838e-07
-8.31956e-07
-7.06511e-07
-8.34128e-07
-7.90325e-07
-8.01279e-07
-8.71317e-07
-7.40702e-07
-9.45155e-07
-6.6331e-07
-1.00957e-06
-5.77697e-07
-1.06379e-06
-4.88874e-07
-1.10771e-06
-3.99033e-07
-1.14148e-06
-3.09107e-07
-1.16529e-06
-2.19594e-07
-1.1793e-06
-1.30852e-07
-4.32253e-08
6.57477e-07
-1.60995e-08
6.54237e-07
-4.90027e-08
6.48672e-07
-8.2898e-08
6.40583e-07
-1.18059e-07
6.29755e-07
-1.54683e-07
6.15978e-07
-1.92765e-07
5.99091e-07
-2.3198e-07
5.79024e-07
-2.71593e-07
5.55852e-07
-3.10422e-07
5.29821e-07
-3.46895e-07
5.01361e-07
-3.79217e-07
4.7106e-07
-4.05644e-07
4.39606e-07
-4.24783e-07
4.07716e-07
-4.35868e-07
3.76059e-07
-4.38893e-07
3.45199e-07
-4.34586e-07
3.15567e-07
-4.24233e-07
2.87448e-07
-4.09396e-07
2.60984e-07
-3.91628e-07
2.36219e-07
-3.72309e-07
2.13145e-07
-3.52541e-07
1.91688e-07
-3.33121e-07
1.71779e-07
-3.14545e-07
1.53318e-07
-2.97099e-07
1.36194e-07
-2.80896e-07
1.20307e-07
-2.65956e-07
1.05555e-07
-2.52245e-07
9.18439e-08
-2.39685e-07
7.90838e-08
-2.2819e-07
6.71883e-08
-2.17669e-07
5.60788e-08
-2.08033e-07
4.5682e-08
-1.99203e-07
3.59294e-08
-1.91106e-07
2.67577e-08
-1.83678e-07
1.81079e-08
-1.7686e-07
9.92613e-09
-1.70603e-07
2.16141e-09
-1.64863e-07
-5.22494e-09
-1.596e-07
-1.22629e-08
-1.54782e-07
-1.89851e-08
-1.50383e-07
-2.54256e-08
-1.46369e-07
-3.16148e-08
-1.42716e-07
-3.75815e-08
-1.39403e-07
-4.33521e-08
-1.36413e-07
-4.89515e-08
-1.33728e-07
-5.44031e-08
-1.31333e-07
-5.97288e-08
-1.29212e-07
-6.49492e-08
-1.27352e-07
-7.00839e-08
-1.25741e-07
-7.51519e-08
-1.24368e-07
-8.01711e-08
-1.23223e-07
-8.51595e-08
-1.22298e-07
-9.01341e-08
-1.21584e-07
-9.51127e-08
-1.21076e-07
-1.00112e-07
-1.20767e-07
-1.05151e-07
-1.20653e-07
-1.10246e-07
-1.20732e-07
-1.15417e-07
-1.21002e-07
-1.20684e-07
-1.21463e-07
-1.26067e-07
-1.22116e-07
-1.31589e-07
-1.22966e-07
-1.37274e-07
-1.24018e-07
-1.43148e-07
-1.25279e-07
-1.49241e-07
-1.26762e-07
-1.55585e-07
-1.28481e-07
-1.62215e-07
-1.30454e-07
-1.69172e-07
-1.32703e-07
-1.76495e-07
-1.35262e-07
-1.84225e-07
-1.38181e-07
-1.92434e-07
-1.41487e-07
-2.01327e-07
-1.45132e-07
-2.00246e-07
-1.49393e-07
-2.07606e-07
-1.61981e-07
-2.16115e-07
-1.76566e-07
-2.25753e-07
-1.93225e-07
-2.3668e-07
-2.12269e-07
-2.49058e-07
-2.34073e-07
-2.63073e-07
-2.59098e-07
-2.7894e-07
-2.8789e-07
-2.96918e-07
-3.2107e-07
-3.17331e-07
-3.59296e-07
-3.40591e-07
-4.03197e-07
-3.67218e-07
-4.5333e-07
-3.97941e-07
-5.09962e-07
-4.33866e-07
-5.72233e-07
-4.76462e-07
-6.37239e-07
-5.27411e-07
-6.99052e-07
-5.88016e-07
-7.48202e-07
-6.58015e-07
-7.73511e-07
-7.3454e-07
-7.67208e-07
-8.1267e-07
-7.29968e-07
-8.87532e-07
-6.70035e-07
-9.55836e-07
-5.97262e-07
-1.01594e-06
-5.18717e-07
-1.06714e-06
-4.38191e-07
-1.10916e-06
-3.57254e-07
-1.14183e-06
-2.76532e-07
-1.16513e-06
-1.96336e-07
-1.17912e-06
-1.16877e-07
-3.8525e-08
6.57505e-07
-1.50744e-08
6.54306e-07
-4.58224e-08
6.488e-07
-7.74334e-08
6.40819e-07
-1.10157e-07
6.30174e-07
-1.44176e-07
6.16675e-07
-1.79491e-07
6.0017e-07
-2.15825e-07
5.80586e-07
-2.52533e-07
5.57973e-07
-2.88566e-07
5.32544e-07
-3.22516e-07
5.04684e-07
-3.52757e-07
4.74936e-07
-3.7768e-07
4.43955e-07
-3.9597e-07
4.12437e-07
-4.06858e-07
3.81046e-07
-4.1026e-07
3.50358e-07
-4.06786e-07
3.20811e-07
-3.9757e-07
2.92686e-07
-3.84018e-07
2.66148e-07
-3.67602e-07
2.41265e-07
-3.49641e-07
2.18039e-07
-3.31202e-07
1.96404e-07
-3.13043e-07
1.76274e-07
-2.95662e-07
1.5754e-07
-2.7933e-07
1.40094e-07
-2.6417e-07
1.23837e-07
-2.50212e-07
1.08667e-07
-2.37415e-07
9.44922e-08
-2.2571e-07
8.12223e-08
-2.15009e-07
6.87775e-08
-2.05223e-07
5.70837e-08
-1.96269e-07
4.60718e-08
-1.88069e-07
3.56782e-08
-1.80551e-07
2.58438e-08
-1.73654e-07
1.6514e-08
-1.67323e-07
7.63816e-09
-1.61509e-07
-8.29347e-10
-1.5617e-07
-8.91976e-09
-1.51271e-07
-1.66587e-08
-1.46782e-07
-2.40804e-08
-1.42678e-07
-3.12168e-08
-1.38929e-07
-3.80973e-08
-1.35511e-07
-4.47496e-08
-1.32407e-07
-5.11998e-08
-1.29601e-07
-5.74725e-08
-1.27075e-07
-6.3591e-08
-1.24815e-07
-6.95774e-08
-1.22809e-07
-7.54526e-08
-1.21043e-07
-8.12366e-08
-1.19507e-07
-8.69488e-08
-1.18189e-07
-9.26079e-08
-1.17081e-07
-9.8232e-08
-1.16175e-07
-1.03839e-07
-1.15463e-07
-1.09447e-07
-1.14938e-07
-1.15074e-07
-1.14595e-07
-1.20737e-07
-1.1443e-07
-1.26455e-07
-1.14439e-07
-1.32246e-07
-1.1462e-07
-1.3813e-07
-1.14973e-07
-1.44126e-07
-1.15499e-07
-1.50256e-07
-1.162e-07
-1.5654e-07
-1.17083e-07
-1.63002e-07
-1.18153e-07
-1.69663e-07
-1.19422e-07
-1.76548e-07
-1.20904e-07
-1.83682e-07
-1.22618e-07
-1.91091e-07
-1.24586e-07
-1.98792e-07
-1.26855e-07
-2.06795e-07
-1.29484e-07
-2.15041e-07
-1.3257e-07
-2.22916e-07
-1.36088e-07
-2.2442e-07
-1.41589e-07
-2.32455e-07
-1.53554e-07
-2.41459e-07
-1.67317e-07
-2.5159e-07
-1.83035e-07
-2.63005e-07
-2.01027e-07
-2.75869e-07
-2.21671e-07
-2.90368e-07
-2.45424e-07
-3.06726e-07
-2.7282e-07
-3.25218e-07
-3.04455e-07
-3.46192e-07
-3.40951e-07
-3.701e-07
-3.82878e-07
-3.97513e-07
-4.30733e-07
-4.29258e-07
-4.84555e-07
-4.66512e-07
-5.43081e-07
-5.10743e-07
-6.02946e-07
-5.63445e-07
-6.57797e-07
-6.25397e-07
-6.98274e-07
-6.95507e-07
-7.1454e-07
-7.70225e-07
-7.01371e-07
-8.44646e-07
-6.61618e-07
-9.14557e-07
-6.03749e-07
-9.77449e-07
-5.36275e-07
-1.03229e-06
-4.64813e-07
-1.07876e-06
-3.92164e-07
-1.11676e-06
-3.19452e-07
-1.14625e-06
-2.47123e-07
-1.16722e-06
-1.75394e-07
-1.17971e-06
-1.04401e-07
-3.44157e-08
6.57484e-07
-1.40285e-08
6.5426e-07
-4.26146e-08
6.48744e-07
-7.19565e-08
6.4079e-07
-1.02275e-07
6.30226e-07
-1.33738e-07
6.16885e-07
-1.66355e-07
6.00628e-07
-1.99886e-07
5.81388e-07
-2.33769e-07
5.59209e-07
-2.67074e-07
5.34281e-07
-2.98542e-07
5.06956e-07
-3.26704e-07
4.77735e-07
-3.50081e-07
4.47229e-07
-3.67441e-07
4.161e-07
-3.78021e-07
3.84995e-07
-3.81684e-07
3.54477e-07
-3.78924e-07
3.24982e-07
-3.70723e-07
2.96817e-07
-3.58381e-07
2.7018e-07
-3.43277e-07
2.45159e-07
-3.26653e-07
2.2175e-07
-3.09518e-07
1.99897e-07
-2.92605e-07
1.7951e-07
-2.76399e-07
1.60486e-07
-2.61167e-07
1.42723e-07
-2.4704e-07
1.26114e-07
-2.34043e-07
1.10561e-07
-2.22141e-07
9.59672e-08
-2.11267e-07
8.22479e-08
-2.01337e-07
6.93246e-08
-1.92266e-07
5.71246e-08
-1.83974e-07
4.55817e-08
-1.76385e-07
3.46349e-08
-1.6943e-07
2.42282e-08
-1.63051e-07
1.43101e-08
-1.57194e-07
4.83235e-09
-1.51814e-07
-4.24336e-09
-1.4687e-07
-1.29424e-08
-1.4233e-07
-2.12915e-08
-1.38168e-07
-2.93232e-08
-1.3436e-07
-3.70679e-08
-1.30875e-07
-4.45538e-08
-1.27695e-07
-5.18078e-08
-1.24803e-07
-5.88552e-08
-1.22183e-07
-6.57201e-08
-1.1982e-07
-7.24253e-08
-1.17701e-07
-7.89928e-08
-1.15814e-07
-8.54433e-08
-1.14147e-07
-9.17968e-08
-1.12689e-07
-9.80727e-08
-1.11431e-07
-1.0429e-07
-1.10365e-07
-1.10466e-07
-1.09482e-07
-1.16619e-07
-1.08775e-07
-1.22767e-07
-1.08238e-07
-1.28927e-07
-1.07866e-07
-1.35118e-07
-1.07654e-07
-1.41356e-07
-1.07599e-07
-1.4766e-07
-1.07697e-07
-1.54048e-07
-1.0795e-07
-1.60539e-07
-1.08357e-07
-1.67152e-07
-1.0892e-07
-1.73907e-07
-1.09645e-07
-1.80822e-07
-1.10539e-07
-1.87918e-07
-1.11612e-07
-1.95215e-07
-1.12879e-07
-2.02732e-07
-1.14359e-07
-2.10492e-07
-1.16072e-07
-2.18529e-07
-1.18062e-07
-2.26888e-07
-1.20366e-07
-2.35598e-07
-1.23115e-07
-2.40567e-07
-1.26341e-07
-2.45571e-07
-1.33952e-07
-2.53958e-07
-1.449e-07
-2.63441e-07
-1.57717e-07
-2.74103e-07
-1.72455e-07
-2.8608e-07
-1.89384e-07
-2.99534e-07
-2.08869e-07
-3.14659e-07
-2.31351e-07
-3.31696e-07
-2.57341e-07
-3.50945e-07
-2.87406e-07
-3.72793e-07
-3.22116e-07
-3.97724e-07
-3.61992e-07
-4.26366e-07
-4.07441e-07
-4.59602e-07
-4.5825e-07
-4.98574e-07
-5.12816e-07
-5.44573e-07
-5.674e-07
-5.98675e-07
-6.15414e-07
-6.60956e-07
-6.47892e-07
-7.29598e-07
-6.56498e-07
-8.00853e-07
-6.38239e-07
-8.70428e-07
-5.97411e-07
-9.35083e-07
-5.42223e-07
-9.93037e-07
-4.79943e-07
-1.04359e-06
-4.15054e-07
-1.08648e-06
-3.49641e-07
-1.12161e-06
-2.84495e-07
-1.1489e-06
-2.19904e-07
-1.16833e-06
-1.55987e-07
-1.17996e-06
-9.27891e-08
-3.05508e-08
6.57487e-07
-1.29848e-08
6.54269e-07
-3.94122e-08
6.48775e-07
-6.64977e-08
6.40872e-07
-9.44393e-08
6.30407e-07
-1.23389e-07
6.17226e-07
-1.5336e-07
6.01197e-07
-1.84148e-07
5.82254e-07
-2.15259e-07
5.6043e-07
-2.45874e-07
5.35893e-07
-2.74871e-07
5.08964e-07
-3.0093e-07
4.80111e-07
-3.22705e-07
4.49915e-07
-3.39046e-07
4.19018e-07
-3.49217e-07
3.88052e-07
-3.53035e-07
3.57576e-07
-3.50878e-07
3.28045e-07
-3.43623e-07
2.998e-07
-3.32454e-07
2.73039e-07
-3.18634e-07
2.47852e-07
-3.03326e-07
2.24247e-07
-2.87486e-07
2.02173e-07
-2.71816e-07
1.81543e-07
-2.56779e-07
1.62259e-07
-2.42646e-07
1.44212e-07
-2.29543e-07
1.27296e-07
-2.17498e-07
1.11407e-07
-2.06479e-07
9.6454e-08
-1.9642e-07
8.23519e-08
-1.87246e-07
6.90215e-08
-1.78875e-07
5.63916e-08
-1.71229e-07
4.43976e-08
-1.64236e-07
3.29805e-08
-1.57831e-07
2.20864e-08
-1.51958e-07
1.16663e-08
-1.46565e-07
1.67436e-09
-1.4161e-07
-7.91962e-09
-1.37055e-07
-1.71369e-08
-1.3287e-07
-2.60065e-08
-1.29032e-07
-3.45598e-08
-1.25516e-07
-4.28253e-08
-1.22297e-07
-5.08303e-08
-1.19356e-07
-5.86005e-08
-1.16677e-07
-6.61605e-08
-1.14246e-07
-7.35337e-08
-1.12049e-07
-8.07423e-08
-1.10075e-07
-8.78077e-08
-1.08311e-07
-9.47503e-08
-1.06747e-07
-1.0159e-07
-1.05374e-07
-1.08345e-07
-1.04182e-07
-1.15034e-07
-1.03163e-07
-1.21675e-07
-1.02311e-07
-1.28286e-07
-1.01617e-07
-1.34882e-07
-1.01076e-07
-1.41483e-07
-1.00683e-07
-1.48104e-07
-1.00434e-07
-1.54764e-07
-1.00324e-07
-1.61478e-07
-1.00352e-07
-1.68265e-07
-1.00516e-07
-1.75143e-07
-1.00817e-07
-1.82132e-07
-1.01256e-07
-1.8925e-07
-1.01836e-07
-1.9652e-07
-1.02566e-07
-2.03963e-07
-1.03453e-07
-2.11603e-07
-1.04512e-07
-2.19468e-07
-1.05758e-07
-2.27574e-07
-1.07222e-07
-2.35944e-07
-1.08938e-07
-2.44607e-07
-1.10937e-07
-2.53786e-07
-1.13141e-07
-2.54138e-07
-1.15569e-07
-2.62539e-07
-1.24728e-07
-2.71872e-07
-1.35302e-07
-2.82159e-07
-1.47393e-07
-2.93557e-07
-1.61272e-07
-3.06232e-07
-1.77219e-07
-3.20374e-07
-1.95593e-07
-3.36211e-07
-2.16818e-07
-3.54018e-07
-2.41385e-07
-3.74134e-07
-2.69828e-07
-3.96984e-07
-3.02669e-07
-4.2309e-07
-3.40382e-07
-4.53136e-07
-3.83258e-07
-4.8803e-07
-4.30832e-07
-5.28867e-07
-4.81209e-07
-5.76754e-07
-5.30365e-07
-6.32365e-07
-5.71653e-07
-6.9516e-07
-5.96739e-07
-7.62743e-07
-5.98912e-07
-8.3124e-07
-5.77129e-07
-8.96809e-07
-5.36579e-07
-9.56878e-07
-4.84854e-07
-1.01022e-06
-4.27984e-07
-1.05647e-06
-3.69474e-07
-1.09557e-06
-3.10861e-07
-1.1275e-06
-2.52705e-07
-1.15226e-06
-1.95202e-07
-1.16986e-06
-1.38406e-07
-1.18036e-06
-8.23061e-08
-2.70863e-08
6.5748e-07
-1.19341e-08
6.54254e-07
-3.62001e-08
6.48761e-07
-6.10377e-08
6.40882e-07
-8.66219e-08
6.30478e-07
-1.1309e-07
6.17405e-07
-1.40457e-07
6.01542e-07
-1.68549e-07
5.82823e-07
-1.96935e-07
5.61276e-07
-2.24894e-07
5.37053e-07
-2.51435e-07
5.1045e-07
-2.75377e-07
4.81905e-07
-2.95502e-07
4.5197e-07
-3.10751e-07
4.21261e-07
-3.20421e-07
3.90397e-07
-3.24284e-07
3.5994e-07
-3.22644e-07
3.30366e-07
-3.16272e-07
3.02016e-07
-3.06225e-07
2.75104e-07
-2.93655e-07
2.49733e-07
-2.79646e-07
2.2592e-07
-2.65093e-07
2.0362e-07
-2.50667e-07
1.82752e-07
-2.36806e-07
1.63214e-07
-2.23776e-07
1.44898e-07
-2.11698e-07
1.27698e-07
-2.00602e-07
1.11511e-07
-1.90459e-07
9.62406e-08
-1.81211e-07
8.18019e-08
-1.72786e-07
6.8117e-08
-1.65105e-07
5.51156e-08
-1.58095e-07
4.27338e-08
-1.51689e-07
3.09141e-08
-1.45824e-07
1.96038e-08
-1.40448e-07
8.75494e-09
-1.35512e-07
-1.67405e-09
-1.30976e-07
-1.17069e-08
-1.26804e-07
-2.13635e-08
-1.2297e-07
-3.06745e-08
-1.19454e-07
-3.96698e-08
-1.1623e-07
-4.83769e-08
-1.13275e-07
-5.68219e-08
-1.10573e-07
-6.50297e-08
-1.08109e-07
-7.30239e-08
-1.05869e-07
-8.08272e-08
-1.03842e-07
-8.84611e-08
-1.02015e-07
-9.59465e-08
-1.00379e-07
-1.03303e-07
-9.89236e-08
-1.1055e-07
-9.76398e-08
-1.17705e-07
-9.65195e-08
-1.24786e-07
-9.55551e-08
-1.3181e-07
-9.47397e-08
-1.38795e-07
-9.4067e-08
-1.45756e-07
-9.35313e-08
-1.5271e-07
-9.31277e-08
-1.59672e-07
-9.2852e-08
-1.66659e-07
-9.27008e-08
-1.73685e-07
-9.26716e-08
-1.80768e-07
-9.27634e-08
-1.87923e-07
-9.29762e-08
-1.95167e-07
-9.33119e-08
-2.02516e-07
-9.37744e-08
-2.09986e-07
-9.43703e-08
-2.17595e-07
-9.51096e-08
-2.25359e-07
-9.60061e-08
-2.33294e-07
-9.70799e-08
-2.41413e-07
-9.83721e-08
-2.49717e-07
-9.9921e-08
-2.58173e-07
-1.01813e-07
-2.66622e-07
-1.0403e-07
-2.70114e-07
-1.07154e-07
-2.78881e-07
-1.15711e-07
-2.88546e-07
-1.25565e-07
-2.99208e-07
-1.36871e-07
-3.11042e-07
-1.4983e-07
-3.24227e-07
-1.64733e-07
-3.38966e-07
-1.81927e-07
-3.555e-07
-2.01824e-07
-3.74124e-07
-2.24883e-07
-3.95201e-07
-2.516e-07
-4.19187e-07
-2.82443e-07
-4.4664e-07
-3.17836e-07
-4.78282e-07
-3.57937e-07
-5.15008e-07
-4.02055e-07
-5.57805e-07
-4.48069e-07
-6.0751e-07
-4.91786e-07
-6.64306e-07
-5.26693e-07
-7.27029e-07
-5.45282e-07
-7.92859e-07
-5.42421e-07
-8.58076e-07
-5.18589e-07
-9.1948e-07
-4.79343e-07
-9.75189e-07
-4.31476e-07
-1.02442e-06
-3.79942e-07
-1.06699e-06
-3.27474e-07
-1.10291e-06
-2.75205e-07
-1.13221e-06
-2.23526e-07
-1.15491e-06
-1.72557e-07
-1.17103e-06
-1.22303e-07
-1.18064e-06
-7.27033e-08
-2.39079e-08
6.57476e-07
-1.08793e-08
6.54243e-07
-3.29802e-08
6.48749e-07
-5.55743e-08
6.40887e-07
-7.88155e-08
6.30526e-07
-1.02826e-07
6.17536e-07
-1.27623e-07
6.01801e-07
-1.53056e-07
5.8326e-07
-1.78752e-07
5.61932e-07
-2.04082e-07
5.37956e-07
-2.28174e-07
5.11607e-07
-2.49981e-07
4.83298e-07
-2.68411e-07
4.53555e-07
-2.82498e-07
4.22974e-07
-2.91576e-07
3.92163e-07
-2.95398e-07
3.61698e-07
-2.94204e-07
3.3205e-07
-2.88652e-07
3.03574e-07
-2.7968e-07
2.76498e-07
-2.68337e-07
2.50938e-07
-2.55616e-07
2.2692e-07
-2.42353e-07
2.04401e-07
-2.29176e-07
1.83306e-07
-2.16503e-07
1.63534e-07
-2.04583e-07
1.44973e-07
-1.93537e-07
1.27517e-07
-1.83394e-07
1.11061e-07
-1.74129e-07
9.5511e-08
-1.65689e-07
8.07797e-08
-1.58007e-07
6.67888e-08
-1.51011e-07
5.34678e-08
-1.44631e-07
4.07535e-08
-1.38804e-07
2.85892e-08
-1.33473e-07
1.69235e-08
-1.28587e-07
5.70932e-09
-1.24102e-07
-5.08839e-09
-1.19979e-07
-1.54895e-08
-1.16188e-07
-2.55164e-08
-1.12703e-07
-3.51991e-08
-1.09506e-07
-4.45665e-08
-1.06574e-07
-5.3645e-08
-1.03884e-07
-6.24598e-08
-1.01421e-07
-7.10351e-08
-9.91736e-08
-7.93936e-08
-9.7128e-08
-8.75573e-08
-9.52733e-08
-9.5547e-08
-9.35991e-08
-1.03383e-07
-9.20956e-08
-1.11083e-07
-9.07542e-08
-1.18668e-07
-8.95666e-08
-1.26153e-07
-8.85253e-08
-1.33556e-07
-8.76235e-08
-1.40894e-07
-8.68546e-08
-1.48182e-07
-8.62131e-08
-1.55435e-07
-8.56936e-08
-1.6267e-07
-8.52917e-08
-1.699e-07
-8.50035e-08
-1.77141e-07
-8.48258e-08
-1.84407e-07
-8.47566e-08
-1.91712e-07
-8.47948e-08
-1.9907e-07
-8.49405e-08
-2.06498e-07
-8.51958e-08
-2.14009e-07
-8.55644e-08
-2.2162e-07
-8.60527e-08
-2.29346e-07
-8.66703e-08
-2.37207e-07
-8.74302e-08
-2.45223e-07
-8.83498e-08
-2.53421e-07
-8.9471e-08
-2.61804e-07
-9.0832e-08
-2.70363e-07
-9.25731e-08
-2.76932e-07
-9.46703e-08
-2.83732e-07
-9.90503e-08
-2.92697e-07
-1.06724e-07
-3.02696e-07
-1.15709e-07
-3.13809e-07
-1.26107e-07
-3.26166e-07
-1.38078e-07
-3.39943e-07
-1.51875e-07
-3.55351e-07
-1.67829e-07
-3.72648e-07
-1.8632e-07
-3.92152e-07
-2.07778e-07
-4.14256e-07
-2.32652e-07
-4.39442e-07
-2.61357e-07
-4.68304e-07
-2.9426e-07
-5.01582e-07
-3.3138e-07
-5.40134e-07
-3.71843e-07
-5.84809e-07
-4.13371e-07
-6.36149e-07
-4.51715e-07
-6.93864e-07
-4.80668e-07
-7.56269e-07
-4.93671e-07
-8.20294e-07
-4.8706e-07
-8.82463e-07
-4.62433e-07
-9.40142e-07
-4.25331e-07
-9.91976e-07
-3.81661e-07
-1.03751e-06
-3.35424e-07
-1.07675e-06
-2.88732e-07
-1.10976e-06
-2.42418e-07
-1.13663e-06
-1.96757e-07
-1.15741e-06
-1.5182e-07
-1.17216e-06
-1.07578e-07
-1.18093e-06
-6.39378e-08
-2.10155e-08
6.5747e-07
-9.81815e-09
6.54225e-07
-2.97474e-08
6.48722e-07
-5.00987e-08
6.4086e-07
-7.10062e-08
6.30523e-07
-9.25774e-08
6.17587e-07
-1.1483e-07
6.01946e-07
-1.37635e-07
5.83539e-07
-1.60672e-07
5.62383e-07
-1.83395e-07
5.38605e-07
-2.05045e-07
5.12461e-07
-2.24703e-07
4.84343e-07
-2.414e-07
4.54752e-07
-2.54265e-07
4.24272e-07
-2.62674e-07
3.93504e-07
-2.66379e-07
3.63013e-07
-2.65556e-07
3.33279e-07
-2.60763e-07
3.04669e-07
-2.52827e-07
2.77425e-07
-2.42687e-07
2.51674e-07
-2.3125e-07
2.27452e-07
-2.19282e-07
2.04723e-07
-2.07363e-07
1.83411e-07
-1.95887e-07
1.63416e-07
-1.8509e-07
1.4463e-07
-1.75084e-07
1.2694e-07
-1.659e-07
1.10245e-07
-1.57518e-07
9.44469e-08
-1.49888e-07
7.94582e-08
-1.4295e-07
6.52002e-08
-1.36636e-07
5.16024e-08
-1.30883e-07
3.86018e-08
-1.25632e-07
2.61422e-08
-1.2083e-07
1.41726e-08
-1.16431e-07
2.64743e-09
-1.12393e-07
-8.46185e-09
-1.08681e-07
-1.91724e-08
-1.05267e-07
-2.95103e-08
-1.02129e-07
-3.95044e-08
-9.92501e-08
-4.91835e-08
-9.6608e-08
-5.85727e-08
-9.41827e-08
-6.76965e-08
-9.19611e-08
-7.65783e-08
-8.9931e-08
-8.52401e-08
-8.80813e-08
-9.37033e-08
-8.64017e-08
-1.01988e-07
-8.48827e-08
-1.10113e-07
-8.35158e-08
-1.18098e-07
-8.22928e-08
-1.25959e-07
-8.12065e-08
-1.33715e-07
-8.025e-08
-1.4138e-07
-7.94172e-08
-1.48971e-07
-7.87023e-08
-1.56503e-07
-7.81e-08
-1.6399e-07
-7.76058e-08
-1.71448e-07
-7.72156e-08
-1.78889e-07
-7.69257e-08
-1.86327e-07
-7.67335e-08
-1.93777e-07
-7.66371e-08
-2.01252e-07
-7.66355e-08
-2.08765e-07
-7.67291e-08
-2.16332e-07
-7.69195e-08
-2.23968e-07
-7.721e-08
-2.31689e-07
-7.76061e-08
-2.39515e-07
-7.81152e-08
-2.4747e-07
-7.87476e-08
-2.55586e-07
-7.95131e-08
-2.63904e-07
-8.04415e-08
-2.72491e-07
-8.15513e-08
-2.81449e-07
-8.29305e-08
-2.85598e-07
-8.45987e-08
-2.9426e-07
-9.00244e-08
-3.03946e-07
-9.71097e-08
-3.14555e-07
-1.05353e-07
-3.26254e-07
-1.1488e-07
-3.39219e-07
-1.25857e-07
-3.53644e-07
-1.38527e-07
-3.69767e-07
-1.53193e-07
-3.87869e-07
-1.70213e-07
-4.08296e-07
-1.89977e-07
-4.31469e-07
-2.12888e-07
-4.57899e-07
-2.39316e-07
-4.88207e-07
-2.69556e-07
-5.23135e-07
-3.03501e-07
-5.63475e-07
-3.40147e-07
-6.09903e-07
-3.77129e-07
-6.62635e-07
-4.1027e-07
-7.20913e-07
-4.33816e-07
-7.82627e-07
-4.42212e-07
-8.44611e-07
-4.33064e-07
-9.03747e-07
-4.08697e-07
-9.57954e-07
-3.74352e-07
-1.00632e-06
-3.35047e-07
-1.04863e-06
-2.93988e-07
-1.08499e-06
-2.52794e-07
-1.11553e-06
-2.12079e-07
-1.14034e-06
-1.72034e-07
-1.15951e-06
-1.32695e-07
-1.17309e-06
-9.40126e-08
-1.18116e-06
-5.58692e-08
-1.83558e-08
6.57464e-07
-8.75065e-09
6.54205e-07
-2.64999e-08
6.48687e-07
-4.46066e-08
6.40819e-07
-6.31861e-08
6.30493e-07
-8.2332e-08
6.17593e-07
-1.02061e-07
6.0202e-07
-1.22264e-07
5.83717e-07
-1.42667e-07
5.62699e-07
-1.62804e-07
5.39083e-07
-1.8202e-07
5.1311e-07
-1.99517e-07
4.85149e-07
-2.14447e-07
4.55682e-07
-2.26034e-07
4.25278e-07
-2.33708e-07
3.94528e-07
-2.37222e-07
3.63996e-07
-2.36701e-07
3.3417e-07
-2.32613e-07
3.05425e-07
-2.25676e-07
2.78016e-07
-2.16722e-07
2.5208e-07
-2.06563e-07
2.27658e-07
-1.95895e-07
2.04727e-07
-1.85247e-07
1.83211e-07
-1.74983e-07
1.63011e-07
-1.6532e-07
1.44015e-07
-1.56367e-07
1.26115e-07
-1.48151e-07
1.09205e-07
-1.40658e-07
9.31869e-08
-1.33844e-07
7.79719e-08
-1.27651e-07
6.34811e-08
-1.2202e-07
4.96437e-08
-1.16893e-07
3.63967e-08
-1.12216e-07
2.3684e-08
-1.07942e-07
1.14557e-08
-1.04027e-07
-3.33346e-10
-1.00434e-07
-1.17053e-08
-9.71308e-08
-2.26751e-08
-9.40932e-08
-3.3273e-08
-9.13023e-08
-4.35276e-08
-8.87414e-08
-5.34664e-08
-8.63898e-08
-6.31142e-08
-8.42305e-08
-7.24949e-08
-8.22513e-08
-8.16312e-08
-8.04415e-08
-9.05445e-08
-7.87908e-08
-9.92556e-08
-7.72901e-08
-1.07784e-07
-7.5931e-08
-1.16148e-07
-7.47057e-08
-1.24366e-07
-7.3607e-08
-1.32454e-07
-7.26284e-08
-1.4043e-07
-7.1764e-08
-1.48308e-07
-7.10081e-08
-1.56104e-07
-7.03558e-08
-1.63832e-07
-6.98024e-08
-1.71506e-07
-6.93438e-08
-1.79139e-07
-6.89764e-08
-1.86746e-07
-6.86972e-08
-1.94339e-07
-6.85036e-08
-2.01931e-07
-6.83942e-08
-2.09535e-07
-6.83682e-08