/*--------------------------------*- C++ -*----------------------------------*\
  =========                 |
  \\      /  F ield         | OpenFOAM: The Open Source CFD Toolbox
   \\    /   O peration     | Website:  https://openfoam.org
    \\  /    A nd           | Version:  8
     \\/     M anipulation  |
\*---------------------------------------------------------------------------*/
FoamFile
{
    version     2.0;
    format      ascii;
    class       volScalarField;
    location    "60/fluid";
    object      Qdot;
}
// * * * * * * * * * * * * * * * * * * * * * * * * * * * * * * * * * * * * * //

dimensions      [1 -1 -3 0 0 0 0];

internalField   nonuniform List<scalar> 
4000
(
-3.35412e-13
-1.74498e-12
-2.97588e-07
-6.30255e-12
1.32432e-11
3.41322e-11
-1.2952e-10
-1.34985e-10
1.25591e-10
0
-4.43349e-18
-1.79679e-17
-1.26315e-16
-1.07152e-09
4.15813e-07
1.39012e-08
1.13069e-07
8.11007e-07
5.256e-06
3.60073e-05
0.000225065
0.00127191
0.00645105
0.0292536
0.118683
0.432966
1.42614
4.27403
11.7262
29.6677
69.6806
152.86
314.904
611.968
1126.23
1969
3277.56
5202.66
7892.4
11507.9
16221.4
22156.2
29456.6
38302.5
48924
61638
76895.4
95298.9
117635
144915
178390
219634
270582
333649
411834
508896
629525
779641
966683
1.20008e+06
1.49178e+06
1.85699e+06
2.31513e+06
2.89112e+06
3.61704e+06
4.53446e+06
5.6975e+06
7.17719e+06
9.06734e+06
1.14811e+07
1.45926e+07
1.86483e+07
3.01172e+08
6.51199e+07
1.83611e+07
1.44895e+07
1.12641e+07
8.60608e+06
6.44435e+06
4.71507e+06
3.3606e+06
2.32894e+06
1.57404e+06
1.05852e+06
623632
126884
7687.98
184.715
2.18357
0.0171051
0.000154937
2.94092e-06
1.55049e-07
2.0143e-08
5.15909e-09
1.54222e-09
5.87185e-10
1.95545e-10
6.30541e-11
1.03189e-11
-1.56576e-16
-2.81834e-07
1.00265e-19
0
-1.31852e-11
4.62807e-19
3.57775e-07
-1.39824e-14
2.75827e-10
-2.5419e-10
6.05554e-14
-6.126e-14
6.46445e-10
-4.73971e-16
2.30571e-09
9.05544e-09
7.51768e-08
5.7628e-07
3.91353e-06
2.71848e-05
0.000177717
0.00103958
0.00545409
0.0255367
0.106722
0.398298
1.33979
4.08119
11.3557
29.0721
68.9552
152.496
316.174
617.572
1141.04
1999.7
3332.22
5286.68
8013.58
11681
16442
22425.4
29778.3
38690.1
49404.5
62259.3
77729.1
96443.4
119222
147115
181431
223807
276274
341365
422240
522863
648221
804602
999968
1.24443e+06
1.55088e+06
1.9358e+06
2.42037e+06
3.03193e+06
3.80597e+06
4.78876e+06
6.04102e+06
7.64292e+06
9.70093e+06
1.23353e+07
1.577e+07
2.0211e+07
3.5231e+08
2.21881e+07
1.75956e+07
1.37816e+07
1.06341e+07
8.06131e+06
5.98531e+06
4.33843e+06
3.06073e+06
2.09905e+06
1.40732e+06
947972
446013
62230.6
2590.69
45.8211
0.426058
0.00314756
3.47973e-05
9.65855e-07
7.42398e-08
1.25791e-08
3.65032e-09
1.15629e-09
4.23019e-10
1.54163e-10
5.41014e-11
9.71223e-12
0
3.14362e-12
0
3.08363e-07
-3.02984e-15
-3.35919e-07
0
-7.1595e-11
-2.80718e-14
-3.8274e-07
3.08644e-10
-1.70353e-17
3.96476e-07
1.18296e-13
-2.24002e-09
8.81028e-09
5.17125e-08
4.28223e-07
3.02312e-06
2.11826e-05
0.000139331
0.00084245
0.00456898
0.022015
0.0942807
0.361236
1.24141
3.85906
10.9309
28.4207
68.3164
152.767
319.634
628.996
1168.33
2055.56
3432.25
5443.42
8244.97
12017.8
16890.5
23001.7
30507.1
39614.2
50592.2
63815.6
79802.3
99233.3
122992
152208
188295
233025
288608
357813
444115
551892
686679
855494
1.06727e+06
1.3334e+06
1.66853e+06
2.09148e+06
2.62662e+06
3.30565e+06
4.17004e+06
5.27449e+06
6.69164e+06
8.51891e+06
1.08835e+07
1.39439e+07
1.79536e+07
5.3252e+07
3.2979e+08
2.04373e+07
1.62117e+07
1.26535e+07
9.70351e+06
7.29585e+06
5.36432e+06
3.8458e+06
2.6818e+06
1.81947e+06
1.2133e+06
810531
260092
25306.5
815.949
12.4485
0.113788
0.00098562
1.45267e-05
5.37369e-07
5.14401e-08
1.00637e-08
2.76783e-09
1.03402e-09
4.00931e-10
1.37607e-10
4.92451e-11
9.02463e-12
0
3.28115e-16
0
0
0
2.66282e-11
0
0
0
2.80871e-14
-2.44629e-10
-1.24325e-17
-5.81937e-17
-2.81497e-16
-1.66276e-15
6.64583e-09
4.38078e-08
5.00849e-07
2.29404e-06
1.65649e-05
0.000112806
0.000700361
0.00388545
0.0192003
0.0844597
0.331108
1.16336
3.68878
10.6336
28.0805
68.3885
154.648
326.691
647.78
1210.27
2137.3
3572.41
5666.86
8584.32
12498.4
17532.9
23831
31558.7
40945.8
52291.5
66014.8
82687.5
103055
128081
158998
197353
245094
304661
379131
472381
589326
736207
920982
1.15383e+06
1.4478e+06
1.81973e+06
2.29138e+06
2.89101e+06
3.65549e+06
4.63315e+06
5.8877e+06
7.50356e+06
9.59333e+06
1.22908e+07
1.57858e+07
2.03612e+07
1.76867e+08
2.05668e+08
1.96048e+07
1.52752e+07
1.17218e+07
8.84224e+06
6.54135e+06
4.73286e+06
3.33985e+06
2.29466e+06
1.53896e+06
1.025e+06
624463
138439
9039.4
232.919
3.05205
0.0269545
0.000266847
5.15793e-06
2.58797e-07
3.14877e-08
7.0863e-09
2.25406e-09
8.15959e-10
3.13155e-10
1.2178e-10
4.12311e-11
7.23249e-12
0
0
6.81936e-16
1.01928e-19
0
-6.11488e-15
0
-5.57549e-11
0
1.96144e-18
2.3765e-10
-1.20662e-17
-5.91101e-10
-2.24853e-16
1.16477e-09
4.1576e-09
3.25721e-08
2.54191e-07
1.63001e-06
1.35757e-05
9.36708e-05
0.000594483
0.00338379
0.0171606
0.0773238
0.309782
1.11064
3.58666
10.511
28.1495
69.412
158.674
338.226
675.273
1268.88
2248.84
3762.18
5966.45
9040.94
13138.4
18388.9
24937.3
32960.7
42713.3
54526.1
68867.1
86368.6
107849
134366
167272
208267
259502
323685
404244
505524
633053
793886
997057
1.25417e+06
1.58019e+06
1.99446e+06
2.52211e+06
3.19588e+06
4.05859e+06
5.16652e+06
6.59375e+06
8.43814e+06
1.08288e+07
1.38916e+07
1.79142e+07
2.31054e+07
3.4413e+08
3.66082e+07
1.93428e+07
1.46116e+07
1.0936e+07
8.07716e+06
5.86535e+06
4.17303e+06
2.90032e+06
1.96721e+06
1.30972e+06
878188
427972
64772.5
3092.56
66.36
0.785812
0.00719412
8.65664e-05
2.2342e-06
1.48121e-07
2.10423e-08
4.98421e-09
1.85652e-09
7.14242e-10
2.63525e-10
1.01107e-10
3.49304e-11
5.79959e-12
-2.64782e-07
2.76583e-07
-4.85828e-20
-1.00877e-19
0
0
6.08768e-12
5.45784e-11
-3.47279e-07
0
5.15151e-10
-7.81156e-18
-5.73403e-10
-1.71257e-16
-1.04714e-15
4.02781e-09
2.58412e-08
2.09917e-07
1.45401e-06
1.12845e-05
7.97011e-05
0.000517792
0.00302273
0.0157049
0.0722915
0.295775
1.08075
3.55019
10.5576
28.651
71.478
165.042
354.541
712.925
1346.14
2390.29
4000.21
6343.76
9614.3
13940.1
19459.4
26319.6
34711.4
44911.5
57288.1
72360.7
90827.3
113585
141798
176946
220901
276038
345356
432670
542832
682041
858240
1.08163e+06
1.36538e+06
1.7265e+06
2.18709e+06
2.77594e+06
3.53077e+06
4.50124e+06
5.75308e+06
7.37401e+06
9.48205e+06
1.22207e+07
1.5784e+07
2.04876e+07
5.09028e+07
3.31936e+08
2.18845e+07
1.68808e+07
1.28222e+07
9.5853e+06
7.04148e+06
5.07243e+06
3.57466e+06
2.45996e+06
1.65476e+06
1.09978e+06
737284
250196
27651.7
1036.96
18.9969
0.208669
0.00203118
2.99738e-05
1.01541e-06
8.66933e-08
1.5142e-08
4.26649e-09
1.53849e-09
5.70057e-10
2.33237e-10
8.71553e-11
3.03338e-11
5.11554e-12
0
0
-4.82114e-20
1.39053e-15
0
-3.14704e-07
-6.08247e-15
0
-3.38727e-07
-2.5906e-14
5.00335e-10
-1.13625e-17
5.27522e-14
-1.43132e-16
-8.56419e-16
3.43023e-07
2.28789e-08
5.43226e-09
1.3461e-06
9.49747e-06
6.93329e-05
0.000462096
0.00276372
0.0146714
0.0689945
0.287856
1.07052
3.57121
10.7693
29.585
74.5937
173.707
376.227
761.154
1443.24
2567.68
4297.83
6818.41
10314.5
14915.9
20759.7
27996.3
36832.2
47564.9
60604.9
76526.2
96094.7
120295
150401
188034
235248
294653
369561
464193
583939
735702
928356
1.17333e+06
1.48538e+06
1.88363e+06
2.39295e+06
3.04573e+06
3.88435e+06
4.96445e+06
6.35942e+06
8.16649e+06
1.05153e+07
1.35377e+07
1.74687e+07
2.26288e+07
1.88991e+08
1.86906e+08
2.01937e+07
1.53867e+07
1.15676e+07
8.56517e+06
6.23368e+06
4.44914e+06
3.10714e+06
2.12076e+06
1.41889e+06
945678
596347
146989
11370.8
351.027
5.63996
0.05962
0.000641072
1.18128e-05
5.19756e-07
5.36886e-08
1.12401e-08
3.26898e-09
1.18661e-09
4.54114e-10
1.97422e-10
7.75744e-11
2.57393e-11
4.04862e-12
-2.63954e-07
-2.74034e-07
0
0
0
0
-3.17195e-07
-5.21807e-11
0
-1.326e-10
-3.6536e-18
-7.3396e-18
3.40399e-07
1.93542e-09
-1.0541e-09
3.75766e-09
1.83873e-08
2.97999e-07
1.1509e-06
8.34462e-06
6.18906e-05
0.000421454
0.00257529
0.0139717
0.0670351
0.284823
1.07673
3.64381
11.1302
30.9257
78.7536
184.975
403.357
820.277
1559.64
2777.94
4649.99
7382.21
11142.6
16065.7
22287.3
29961.6
39312.9
50660.6
64460.2
81344.1
102147
127947
160135
200475
251213
315203
396076
498471
628327
793269
1.00312e+06
1.27055e+06
1.61196e+06
2.04867e+06
2.60837e+06
3.32721e+06
4.25245e+06
5.44593e+06
6.98871e+06
8.98683e+06
1.15763e+07
1.48785e+07
1.91907e+07
2.47163e+07
3.47391e+08
4.31206e+07
1.9137e+07
1.42851e+07
1.05613e+07
7.71013e+06
5.54191e+06
3.91125e+06
2.70423e+06
1.83089e+06
1.22075e+06
820585
438009
80134.1
4683.97
122.732
1.77062
0.0185325
0.000224895
5.17306e-06
2.88886e-07
3.67963e-08
8.16116e-09
2.57002e-09
9.30216e-10
4.24137e-10
1.7005e-10
6.6416e-11
2.11863e-11
3.90615e-12
0
0
4.74783e-20
7.1598e-12
0
-2.86175e-15
3.07651e-11
0
-1.2106e-14
1.2887e-10
2.46813e-14
5.20561e-10
-2.12445e-17
-1.05337e-16
1.84199e-09
5.2406e-09
1.7691e-08
1.20706e-07
9.95907e-07
7.35344e-06
5.63135e-05
0.000391312
0.00244242
0.0135219
0.0661007
0.28564
1.09572
3.7601
11.6257
32.6453
83.85
198.611
436.053
891.315
1699.93
3027.56
5066.65
8040.39
12103
17392.2
24041.7
32210
42141.3
54178.6
68825.3
86774.6
108933
136475
170911
214153
268638
337467
424590
535063
675367
853839
1.08123e+06
1.37147e+06
1.74259e+06
2.21813e+06
2.82881e+06
3.61497e+06
4.6298e+06
5.9438e+06
7.65101e+06
9.87774e+06
1.27645e+07
1.6526e+07
2.15149e+07
3.19454e+07
3.38325e+08
2.23004e+07
1.69378e+07
1.27041e+07
9.40003e+06
6.85055e+06
4.90769e+06
3.4489e+06
2.374e+06
1.60211e+06
1.06963e+06
725535
300017
42148.2
1976.05
44.8926
0.594826
0.0063303
8.82335e-05
2.52476e-06
1.74501e-07
2.5929e-08
6.64813e-09
2.22166e-09
8.62623e-10
3.40925e-10
1.37327e-10
5.82462e-11
1.81965e-11
3.38498e-12
0
0
2.79223e-07
0
0
-2.81347e-15
0
0
8.46404e-19
0
2.39115e-14
4.78212e-14
4.07389e-10
-9.46782e-17
-1.77147e-09
3.47528e-09
1.35832e-08
1.0732e-07
6.06889e-07
6.60012e-06
5.16885e-05
0.000368129
0.00234683
0.0132501
0.0659374
0.289514
1.12719
3.91715
12.2473
34.7345
90.011
214.75
474.384
974.148
1861.08
3314.94
5549.5
8789.34
13190
18885.9
26007.9
34721.9
45287.5
58079
73648.4
92752.3
116371
145777
182599
228899
287306
361158
454717
573436
724305
916316
1.16106e+06
1.47354e+06
1.8732e+06
2.38535e+06
3.04304e+06
3.88965e+06
4.98232e+06
6.39685e+06
8.23437e+06
1.06308e+07
1.37082e+07
1.77498e+07
2.30831e+07
1.29134e+08
2.38673e+08
2.0233e+07
1.53012e+07
1.14328e+07
8.4264e+06
6.11558e+06
4.36212e+06
3.05219e+06
2.09294e+06
1.40984e+06
944921
634859
204178
21927
861.552
17.3037
0.215278
0.00238106
3.84729e-05
1.34885e-06
1.13722e-07
1.93933e-08
5.27863e-09
1.8284e-09
7.30473e-10
2.9995e-10
1.26216e-10
4.62459e-11
1.90419e-11
3.04377e-12
0
0
-6.51205e-16
-1.33189e-15
1.16309e-11
0
0
8.16151e-19
8.23928e-19
0
0
-3.31347e-18
3.04639e-07
-8.45118e-17
-4.4762e-16
3.33082e-09
1.12113e-08
3.72082e-07
5.3077e-07
6.1388e-06
4.83826e-05
0.000350598
0.00228021
0.0131147
0.0663787
0.295927
1.16769
4.10628
12.9722
37.1174
97.0271
233.154
517.9
1067.01
2041.82
3636.35
6090.93
9623.38
14391.4
20525.2
28152.1
37449.2
48688.1
62282.6
78835.6
99163.1
124326
155696
195017
244504
306973
386002
486154
613266
774811
980388
1.24235e+06
1.57661e+06
2.00375e+06
2.55041e+06
3.25115e+06
4.15093e+06
5.30841e+06
6.80039e+06
8.72785e+06
1.1224e+07
1.43912e+07
1.85507e+07
2.39273e+07
2.51094e+08
1.26683e+08
1.90035e+07
1.42633e+07
1.0588e+07
7.7583e+06
5.60038e+06
3.97449e+06
2.76814e+06
1.89117e+06
1.27222e+06
856812
548054
139569
11570
391.92
7.075
0.0842905
0.000985759
1.85324e-05
7.86828e-07
7.89135e-08
1.49357e-08
4.27758e-09
1.5408e-09
6.71792e-10
2.58764e-10
1.13016e-10
4.42412e-11
1.52818e-11
2.6982e-12
7.70688e-17
0
-2.74864e-07
-9.4543e-20
0
0
0
0
-1.11669e-14
-9.5862e-11
0
-2.96274e-07
-1.89792e-17
9.14375e-10
-3.91924e-16
-2.77318e-07
1.07044e-08
8.4461e-08
8.52401e-07
5.65426e-06
4.54433e-05
0.000337063
0.00223379
0.013077
0.067261
0.304195
1.21567
4.3237
13.7985
39.848
104.96
253.931
567.284
1173.56
2243.76
3990.18
6686.75
10533.8
15693.1
22287.4
30441.5
40344.2
52280.9
66707.2
84279.2
105872
132628
166019
207904
260651
327266
411568
518433
654094
826531
1.04599e+06
1.32565e+06
1.68248e+06
2.13834e+06
2.72149e+06
3.46844e+06
4.42637e+06
5.6563e+06
7.23711e+06
9.27055e+06
1.18845e+07
1.51786e+07
1.94521e+07
2.4876e+07
3.40825e+08
4.77228e+07
1.77771e+07
1.32842e+07
9.81738e+06
7.16275e+06
5.14931e+06
3.64048e+06
2.52721e+06
1.72293e+06
1.15996e+06
787406
457508
93784.3
6294.77
187.603
3.09079
0.0358656
0.000448826
9.79258e-06
4.97454e-07
5.67634e-08
1.22737e-08
3.60642e-09
1.42143e-09
5.76934e-10
2.44373e-10
9.71977e-11
4.25045e-11
1.33988e-11
3.27577e-12
0
0
2.72665e-07
-6.85239e-12
1.13006e-11
-2.6689e-15
-2.8312e-11
5.41309e-15
-1.14206e-10
1.1414e-10
0
-3.0749e-18
-9.10976e-18
-6.57023e-17
-3.45235e-16
-3.03723e-09
8.86662e-09
7.58537e-08
5.42321e-07
5.15096e-06
4.31683e-05
0.000326111
0.00220063
0.0131
0.0684015
0.313569
1.26831
4.55936
14.6894
42.7803
113.526
276.402
620.444
1286.06
2458.79
4372.52
7315.49
11488.4
17046.1
24104.4
32788
43292.1
55926.4
71186.5
89781.3
112644
140996
176400
220832
276805
347508
437002
550471
694551
877756
1.11103e+06
1.40848e+06
1.7883e+06
2.27404e+06
2.8962e+06
3.6944e+06
4.72024e+06
6.04103e+06
7.74475e+06
9.94667e+06
1.27712e+07
1.63855e+07
2.107e+07
2.72583e+07
3.42219e+08
2.19625e+07
1.65539e+07
1.2355e+07
9.11731e+06
6.64081e+06
4.76546e+06
3.36307e+06
2.33123e+06
1.58874e+06
1.07243e+06
734731
375206
63169.3
3568.56
95.0532
1.4495
0.0166176
0.00022418
5.64522e-06
3.34273e-07
4.43497e-08
1.00807e-08
3.25215e-09
1.25355e-09
5.06184e-10
2.11145e-10
9.05992e-11
3.25018e-11
1.08384e-11
2.27279e-12
0
2.66319e-07
0
0
0
0
0
5.27736e-15
-2.80346e-07
-8.98815e-11
0
-2.95573e-18
7.7367e-10
-2.65815e-07
-3.12369e-16
1.2961e-09
6.87077e-09
7.21683e-08
6.06494e-07
5.046e-06
4.12816e-05
0.000317086
0.00217637
0.0131584
0.0696816
0.323521
1.3234
4.80543
15.622
45.8649
122.583
300.288
677.148
1406.08
2686.06
4773.24
7965.44
12462.2
18410.2
25917.6
35112.2
46191.3
59495.9
75562
95139.8
119223
149104
186422
233260
292256
366760
461041
580552
732275
925184
1.17083e+06
1.48414e+06
1.88443e+06
2.3968e+06
3.05394e+06
3.89865e+06
4.98713e+06
6.3936e+06
8.21654e+06
1.05875e+07
1.36118e+07
1.76148e+07
2.28365e+07
3.98782e+07
3.16098e+08
2.02441e+07
1.52922e+07
1.14303e+07
8.44275e+06
6.15281e+06
4.4166e+06
3.11769e+06
2.16237e+06
1.47612e+06
1.001e+06
691331
299884
43172
2120.32
51.222
0.732772
0.00839486
0.000122461
3.52106e-06
2.39409e-07
3.49962e-08
8.74181e-09
2.85819e-09
1.1376e-09
4.57513e-10
1.91193e-10
7.79243e-11
3.40704e-11
1.16216e-11
2.0101e-12
0
0
-6.30603e-16
0
-1.28138e-15
0
4.91487e-11
0
-1.02337e-14
0
2.66768e-07
2.6271e-07
-1.11337e-17
-4.89851e-17
-2.45595e-07
6.99449e-14
5.31097e-09
6.41785e-08
5.64553e-07
4.76637e-06
3.95839e-05
0.000309292
0.00215656
0.0132298
0.0709862
0.333441
1.37825
5.05135
16.559
48.981
131.803
324.704
734.932
1524.93
2901.29
5149.33
8570.21
13360.7
19659
27567.6
37220.7
48820.7
62739.4
79549.9
100038
125248
156529
195584
244576
306239
384043
482405
606960
764920
965541
1.22073e+06
1.54583e+06
1.96071e+06
2.49111e+06
3.17056e+06
4.0428e+06
5.16519e+06
6.61321e+06
8.48665e+06
1.09168e+07
1.40081e+07
1.80687e+07
2.33441e+07
1.03554e+08
2.60456e+08
1.90574e+07
1.43779e+07
1.07398e+07
7.92991e+06
5.77807e+06
4.14758e+06
2.92849e+06
2.03274e+06
1.39052e+06
947864
656959
241123
30509.9
1332.12
29.553
0.401205
0.00463016
7.29438e-05
2.36832e-06
1.80138e-07
2.82379e-08
7.62537e-09
2.61394e-09
9.75796e-10
4.22849e-10
1.72245e-10
7.23352e-11
3.16592e-11
1.08912e-11
-3.1876e-12
0
0
4.48885e-20
-9.0309e-20
-1.8117e-19
2.68497e-07
-3.61441e-19
2.6635e-07
7.1242e-19
-1.87109e-10
1.65244e-10
2.52056e-07
-1.06287e-17
2.40511e-07
7.37274e-10
1.16253e-09
-2.13082e-07
5.93033e-08
5.30019e-07
4.32867e-06
3.80292e-05
0.000302292
0.00213855
0.0132932
0.0721804
0.342679
1.42998
5.28608
17.4644
52.0325
140.883
348.831
791.649
1638.06
3097.69
5496.66
9121.68
14165.1
20756.7
29000.7
39026.9
51059.5
65497.2
82940.6
104208
130386
162858
203380
254167
318019
398480
500054
628472
791055
997163
1.2588e+06
1.59141e+06
2.01484e+06
2.55476e+06
3.24435e+06
4.1267e+06
5.25783e+06
6.71091e+06
8.58162e+06
1.09938e+07
1.40413e+07
1.80195e+07
2.31407e+07
1.73645e+08
2.02518e+08
1.81323e+07
1.36698e+07
1.02068e+07
7.53563e+06
5.49162e+06
3.94367e+06
2.78684e+06
1.93728e+06
1.32874e+06
910205
627276
206421
22417.4
889.057
18.3244
0.238544
0.00278752
4.72099e-05
1.70493e-06
1.44586e-07
2.4689e-08
6.72404e-09
2.34076e-09
9.61353e-10
3.93747e-10
1.75842e-10
7.10666e-11
2.34709e-11
1.01557e-11
1.75314e-12
7.29298e-13
0
-2.65473e-12
0
-1.24275e-15
0
0
0
-6.90355e-19
-1.8052e-10
-1.33104e-18
-3.10131e-10
-1.01249e-17
-2.28087e-07
-6.64902e-14
2.44196e-09
7.05948e-09
5.43187e-08
4.99682e-07
4.12894e-06
3.66819e-05
0.000295849
0.00211998
0.0133321
0.0731557
0.350585
1.47525
5.49437
18.2754
54.7782
149.151
370.933
842.734
1744.24
3299.33
5736.74
9493.85
14696.3
21472.5
29933.4
40208.8
52546.8
67369.9
85295.6
107170
134103
167505
209161
261318
326810
409221
513087
644171
809808
1.01935e+06
1.28474e+06
1.62128e+06
2.04857e+06
2.59179e+06
3.28337e+06
4.16512e+06
5.29112e+06
6.73152e+06
8.57726e+06
1.09464e+07
1.39228e+07
1.77961e+07
2.27468e+07
2.26577e+08
1.57854e+08
1.73431e+07
1.30858e+07
9.77835e+06
7.22503e+06
5.27009e+06
3.78882e+06
2.68119e+06
1.86733e+06
1.28424e+06
883669
603460
180289
17309.6
634.018
12.282
0.154571
0.00183174
3.30776e-05
1.30578e-06
1.20989e-07
2.19369e-08
6.02767e-09
2.15178e-09
8.98698e-10
3.83452e-10
1.62962e-10
6.76164e-11
2.70024e-11
8.47184e-12
1.66758e-12
0
0
2.61618e-07
0
1.22346e-15
0
-4.80566e-15
2.52033e-07
6.68378e-19
-9.59271e-11
-2.36468e-07
-2.29888e-07
-2.22775e-07
-3.24236e-14
6.56973e-10
-1.44428e-15
5.61694e-09
5.06561e-08
5.60604e-07
4.05628e-06
3.56297e-05
0.000290025
0.00210028
0.0133379
0.0738333
0.356616
1.5112
5.66395
18.9485
57.0972
156.188
389.526
887.761
1851.67
3511.8
6018.32
9619.98
14877.2
21715
30246.6
40616.4
53092.3
68115.4
86314.8
108554
135952
169934
212299
265304
331798
415369
520558
653112
820333
1.0315e+06
1.29844e+06
1.63624e+06
2.06418e+06
2.60693e+06
3.29615e+06
4.17252e+06
5.28843e+06
6.71153e+06
8.52993e+06
1.08564e+07
1.37685e+07
1.75495e+07
2.23597e+07
2.60312e+08
1.28291e+08
1.66408e+07
1.25804e+07
9.41762e+06
6.97065e+06
5.09332e+06
3.66815e+06
2.60075e+06
1.81543e+06
1.25227e+06
865199
582009
161827
14143
485.911
8.94483
0.109563
0.00131526
2.50493e-05
1.06162e-06
1.04364e-07
1.99422e-08
5.70226e-09
2.1151e-09
8.36614e-10
3.70018e-10
1.4873e-10
6.41581e-11
2.54147e-11
8.67368e-12
1.58038e-12
-2.59268e-07
0
3.0488e-16
-2.58186e-07
2.56133e-07
-2.3811e-15
2.49502e-07
4.84557e-11
7.71083e-11
9.23178e-11
1.45823e-10
2.19013e-07
6.06237e-10
2.0369e-07
6.1673e-10
5.47894e-14
6.14882e-09
4.80634e-08
4.51772e-07
3.77808e-06
3.47588e-05
0.000285006
0.00208088
0.013313
0.0741832
0.3604
1.53522
5.78103
19.4221
58.743
161.142
403.271
923.659
1932.4
3673.55
6304.58
9742.07
14500.4
21219.5
29619.8
39867.6
52247.7
67205.4
85378.7
107633
135087
169162
211652
264810
331471
415208
520530
653144
820278
1.03111e+06
1.29731e+06
1.63373e+06
2.05931e+06
2.59827e+06
3.28158e+06
4.14898e+06
5.25155e+06
6.65514e+06
8.44474e+06
1.07298e+07
1.35837e+07
1.72831e+07
2.1975e+07
2.79414e+08
1.10695e+08
1.60464e+07
1.2152e+07
9.11209e+06
6.75541e+06
4.94409e+06
3.56685e+06
2.53375e+06
1.77255e+06
1.22589e+06
849579
568094
149960
12295
402.858
7.13514
0.0856322
0.00103776
2.05481e-05
9.18616e-07
9.51586e-08
1.84966e-08
5.4504e-09
2.01625e-09
7.95248e-10
3.53808e-10
1.5754e-10
6.35782e-11
2.67275e-11
1.36561e-11
1.49153e-12
0
0
2.57176e-07
0
-1.18488e-15
0
-4.36758e-11
-3.82848e-11
6.24624e-19
0
1.62801e-14
-2.24762e-18
3.15885e-10
-1.91422e-07
-4.69105e-10
-8.94135e-10
6.5433e-09
4.59174e-08
4.42066e-07
3.80339e-06
3.41898e-05
0.000281888
0.00206742
0.0132807
0.0742741
0.362022
1.5466
5.83915
19.6638
59.5929
163.854
411.117
943.531
1977.6
3765.07
6468.36
10001.6
14008.7
19825.9
27863.1
37720.9
49696.3
64232.5
81964.4
103745
130675
164154
205948
258279
323942
406456
510268
640995
805754
1.01357e+06
1.27591e+06
1.60737e+06
2.02652e+06
2.5571e+06
3.22944e+06
4.08237e+06
5.16577e+06
6.54379e+06
8.29918e+06
1.0538e+07
1.33303e+07
1.69444e+07
2.15154e+07
2.97149e+08
1.02722e+08
1.55374e+07
1.17786e+07
8.83943e+06
6.55805e+06
4.80292e+06
3.46735e+06
2.4649e+06
1.72588e+06
1.19481e+06
828744
553489
143734
11464.8
366.321
6.35398
0.0754203
0.000918114
1.85379e-05
8.50931e-07
8.94917e-08
1.76666e-08
5.3756e-09
1.96321e-09
7.58047e-10
3.48153e-10
1.47914e-10
6.00502e-11
2.50979e-11
8.62548e-12
1.49156e-12
-2.72941e-21
-2.18016e-20
0
5.99526e-16
-1.24678e-11
-2.33322e-15
0
0
9.15653e-11
0
2.16423e-07
-1.56597e-14
2.56988e-10
-3.2969e-17
-5.76579e-10
-1.31195e-15
5.69251e-09
4.51121e-08
4.38686e-07
3.80711e-06
3.42767e-05
0.000281946
0.00206798
0.0132829
0.0742795
0.362018
1.54648
5.83838
19.6604
59.581
163.819
411.028
943.333
1977.23
3764.49
6467.72
10001.2
14008.9
19831.5
27871
37731.8
49710.5
64250.6
81986.9
103773
130708
164193
205994
258333
324005
406530
510354
641095
805868
1.0137e+06
1.27606e+06
1.60753e+06
2.02669e+06
2.55728e+06
3.22962e+06
4.08255e+06
5.16595e+06
6.544e+06
8.29947e+06
1.05384e+07
1.3331e+07
1.69453e+07
2.15165e+07
2.96956e+08
1.02917e+08
1.55345e+07
1.17759e+07
8.83702e+06
6.55585e+06
4.80094e+06
3.46561e+06
2.46342e+06
1.72466e+06
1.19383e+06
828001
552950
143559
11447.9
365.756
6.34473
0.0753307
0.00091737
1.85302e-05
8.50895e-07
8.98455e-08
1.7667e-08
5.54359e-09
1.96334e-09
8.01925e-10
3.48161e-10
1.50462e-10
6.29124e-11
2.36549e-11
8.62481e-12
1.58217e-12
0
-2.59744e-07
-2.59382e-07
0
2.56122e-07
2.5324e-07
0
-4.60471e-15
9.47671e-11
7.51092e-11
2.26436e-07
-2.36497e-18
-6.06215e-10
-2.03055e-07
-2.06177e-16
-1.36227e-15
8.19944e-09
4.78695e-08
4.53913e-07
3.78952e-06
3.4814e-05
0.000285332
0.00208245
0.0133192
0.0741989
0.360412
1.53509
5.78022
19.4194
58.7387
161.146
403.315
923.841
1932.98
3674.99
6307.76
9747.06
14514.7
21239.2
29645.6
39900.4
52288.7
67255.8
85440.1
107708
135176
169268
211780
264964
331657
415434
520804
653476
820679
1.03159e+06
1.29789e+06
1.63442e+06
2.06014e+06
2.59927e+06
3.28278e+06
4.15043e+06
5.25333e+06
6.65734e+06
8.44766e+06
1.07336e+07
1.35887e+07
1.7289e+07
2.19816e+07
2.78896e+08
1.11298e+08
1.60527e+07
1.21565e+07
9.11525e+06
6.75761e+06
4.94566e+06
3.56799e+06
2.53459e+06
1.77316e+06
1.22633e+06
849863
568146
149824
12272.1
401.952
7.11931
0.0854678
0.0010361
2.05211e-05
9.17857e-07
9.44965e-08
1.84995e-08
5.45167e-09
2.05695e-09
8.20852e-10
3.53889e-10
1.46907e-10
6.1993e-11
2.67293e-11
8.28427e-12
-3.44983e-12
-3.81494e-17
1.53421e-16
-2.61602e-07
-6.14292e-16
0
2.07899e-11
0
0
2.47577e-07
0
-1.52278e-10
1.72903e-14
-4.81122e-18
3.23453e-14
1.19156e-09
-1.26406e-09
5.61746e-09
5.0662e-08
4.72723e-07
3.90009e-06
3.57944e-05
0.000290463
0.00210265
0.0133459
0.0738451
0.356546
1.5105
5.66042
18.9347
57.0517
156.067
389.289
887.433
1851.29
3511.06
6017.37
9623.74
14881.8
21722.2
30258.6
40635.4
53120.7
68155.6
86369.4
108627
136050
170064
212470
265529
332091
415751
521051
653748
821146
1.03254e+06
1.29976e+06
1.63789e+06
2.06624e+06
2.6095e+06
3.29935e+06
4.1765e+06
5.29344e+06
6.7179e+06
8.53793e+06
1.08663e+07
1.37811e+07
1.75645e+07
2.23781e+07
2.59397e+08
1.29266e+08
1.66439e+07
1.25808e+07
9.4163e+06
6.96838e+06
5.09077e+06
3.66572e+06
2.59863e+06
1.81368e+06
1.25089e+06
864139
581167
161416
14092
483.98
8.91019
0.109182
0.00131134
2.49826e-05
1.0617e-06
1.04385e-07
1.95953e-08
5.80217e-09
2.11647e-09
8.36927e-10
3.82889e-10
1.5461e-10
6.41778e-11
2.54204e-11
8.87617e-12
6.57994e-12
-2.60134e-07
0
-2.63827e-07
0
0
0
-4.69484e-11
0
1.83537e-10
0
-1.95101e-10
-2.6001e-18
-3.71063e-10
2.27504e-07
-2.28276e-16
2.44201e-09
7.05994e-09
5.43232e-08
5.9433e-07
4.14832e-06
3.68895e-05
0.000296575
0.00212305
0.0133424
0.0731682
0.350474
1.47427
5.48953
18.2573
54.725
149.012
370.582
842.019
1743.41
3298.83
5738.74
9498.09
14705.5
21487.3
29954.4
40237
52583.7
67417.8
85358.8
107254
134216
167656
209363
261589
327173
409704
513729
645019
810922
1.02081e+06
1.28665e+06
1.62377e+06
2.05181e+06
2.59602e+06
3.28889e+06
4.17232e+06
5.30053e+06
6.74384e+06
8.59336e+06
1.09665e+07
1.39481e+07
1.78261e+07
2.27838e+07
2.24895e+08
1.59581e+08
1.73625e+07
1.31011e+07
9.78994e+06
7.23368e+06
5.2765e+06
3.79358e+06
2.68471e+06
1.86986e+06
1.28601e+06
884841
604016
180150
17265.6
631.896
12.2383
0.15403
0.00182595
3.29736e-05
1.30163e-06
1.20297e-07
2.15812e-08
6.03004e-09
2.11121e-09
8.52346e-10
3.65131e-10
1.62289e-10
6.9769e-11
2.70123e-11
9.41898e-12
1.75928e-12
0
-2.95723e-12
0
1.20035e-11
-1.26201e-15
0
4.80459e-11
0
0
-8.39377e-11
1.65258e-10
-2.71821e-18
-1.06285e-17
-1.37663e-09
-2.34238e-07
-2.24482e-07
6.13283e-09
5.90582e-08
4.2883e-07
4.44646e-06
3.82848e-05
0.000303161
0.00214276
0.0133072
0.0721996
0.342542
1.42863
5.27877
17.434
51.9247
140.566
348.032
789.865
1634.24
3090.73
5484.83
9103.26
14140.7
20728.3
28970.5
38997.8
51034.6
65479.8
82935.2
104220
130421
162927
203494
254344
318281
398861
500597
629238
792126
998650
1.26085e+06
1.59421e+06
2.01865e+06
2.5599e+06
3.25125e+06
4.13589e+06
5.26996e+06
6.72673e+06
8.60207e+06
1.10193e+07
1.4074e+07
1.80608e+07
2.31997e+07
1.70417e+08
2.05177e+08
1.81484e+07
1.36803e+07
1.02117e+07
7.53627e+06
5.48999e+06
3.94119e+06
2.78432e+06
1.93512e+06
1.32706e+06
909035
626484
205994
22346.3
886.027
18.2661
0.237919
0.00277976
4.70561e-05
1.69767e-06
1.43884e-07
2.46993e-08
6.53881e-09
2.34206e-09
9.6189e-10
3.93984e-10
1.75949e-10
6.73607e-11
2.71095e-11
9.42144e-12
1.75396e-12
2.60998e-07
0
0
-1.21458e-11
0
2.73614e-07
-2.20429e-11
-5.14178e-15
-8.76124e-11
-2.69889e-07
-2.00664e-14
-2.83674e-18
-8.35012e-18
-5.44272e-17
-2.45594e-07
-1.86557e-15
6.50237e-09
-1.61938e-07
5.6952e-07
4.58068e-06
3.97899e-05
0.000310242
0.00216212
0.013249
0.0710183
0.333299
1.37664
5.04242
16.5219
48.8539
131.402
323.606
732.202
1519
2891.74
5136.77
8552.43
13336.9
19629.4
27533.3
37183.5
48782.7
62703.2
79518.2
100014
125238
156538
195622
244657
306382
384275
482763
607495
765702
966659
1.2223e+06
1.54801e+06
1.96368e+06
2.49509e+06
3.17579e+06
4.04954e+06
5.17374e+06
6.6239e+06
8.4999e+06
1.09329e+07
1.40291e+07
1.80988e+07
2.34012e+07
9.85944e+07
2.63561e+08
1.90953e+07
1.44069e+07
1.07598e+07
7.94265e+06
5.78594e+06
4.15254e+06
2.93185e+06
2.03522e+06
1.39242e+06
949264
657779
241125
30466.4
1329.65
29.511
0.400784
0.00462394
7.27622e-05
2.35764e-06
1.80201e-07
2.90233e-08
7.43678e-09
2.47998e-09
1.02517e-09
4.34064e-10
1.89748e-10
7.75827e-11
3.0178e-11
1.01553e-11
1.92951e-12
3.84089e-17
-2.98656e-12
-4.56324e-20
2.73897e-07
0
0
-5.02496e-11
0
0
2.05869e-11
0
-5.91126e-18
4.05298e-14
-5.13702e-17
2.5976e-07
-2.07548e-15
9.9648e-09
6.945e-08
6.1464e-07
4.96834e-06
4.1541e-05
0.000318453
0.00218337
0.0131836
0.0697319
0.323379
1.32151
4.79447
15.5751
45.6982
122.079
298.925
673.809
1398.54
2670.91
4747.93
7926.92
12409.1
18342.7
25837.5
35022.3
46095.2
59396.4
75461.6
95040.8
119127
149014
186341
233190
292204
366732
461046
580599
732378
925355
1.17108e+06
1.48447e+06
1.88482e+06
2.3972e+06
3.05426e+06
3.89866e+06
4.98636e+06
6.39119e+06
8.21099e+06
1.05764e+07
1.35913e+07
1.75816e+07
2.27846e+07
3.88469e+07
3.17471e+08
2.02756e+07
1.53129e+07
1.14415e+07
8.4472e+06
6.15352e+06
4.41565e+06
3.11622e+06
2.1609e+06
1.47479e+06
999865
690452
299498
43132.7
2119.54
51.2485
0.733636
0.00840164
0.000122327
3.50822e-06
2.3716e-07
3.42167e-08
8.3493e-09
2.81548e-09
1.08876e-09
4.52568e-10
1.91357e-10
7.79936e-11
3.32625e-11
6.5072e-12
2.01171e-12
0
0
6.1155e-12
0
2.51887e-11
-2.66859e-15
-2.30389e-11
-5.41285e-15
1.08547e-14
-9.28639e-11
2.15999e-14
-3.07478e-18
-1.21459e-17
-2.76558e-07
-1.55567e-09
-2.33043e-15
8.86635e-09
7.74326e-08
6.60674e-07
5.19065e-06
4.33683e-05
0.000327838
0.00220948
0.0131319
0.0684674
0.313459
1.26637
4.54766
14.6385
42.5992
112.982
274.957
616.978
1278.69
2445.08
4349.33
7278.46
11434.8
16975.1
24016.4
32684.4
43174.9
55796.7
71044.5
89626.2
112474
140808
176190
220594
276532
347191
436625
550014
693984
877032
1.11008e+06
1.40721e+06
1.78657e+06
2.27164e+06
2.89285e+06
3.68969e+06
4.71351e+06
6.03121e+06
7.7301e+06
9.9245e+06
1.27392e+07
1.63358e+07
2.09908e+07
2.7132e+07
3.434e+08
2.19896e+07
1.65613e+07
1.23536e+07
9.11245e+06
6.63578e+06
4.76164e+06
3.36073e+06
2.3301e+06
1.58837e+06
1.07241e+06
734809
375383
63233.4
3575.21
95.3453
1.45544
0.0166781
0.000224413
5.63132e-06
3.32706e-07
4.3546e-08
1.0087e-08
2.95379e-09
1.23021e-09
5.07429e-10
2.17746e-10
8.53759e-11
3.85472e-11
1.16071e-11
2.18309e-12
0
0
0
0
-2.84863e-07
2.85848e-11
-2.89267e-11
0
1.11656e-14
1.17815e-10
0
2.96642e-07
-1.58154e-17
-7.48456e-17
-3.98029e-16
-2.62311e-15
9.31156e-09
8.44561e-08
7.30899e-07
5.58725e-06
4.58423e-05
0.000339287
0.0022448
0.0131193
0.0673633
0.304185
1.21401
4.31261
13.7477
39.6556
104.423
252.508
563.789
1165.51
2228.78
3965.33
6647.72
10476.9
15615.6
22188.1
30320.3
40201.1
52116.2
66519.7
84066.2
105629
132349
165695
207524
260202
326726
410911
517624
653080
825243
1.04433e+06
1.32348e+06
1.67959e+06
2.13449e+06
2.71632e+06
3.46151e+06
4.41721e+06
5.64451e+06
7.22257e+06
9.25361e+06
1.18662e+07
1.51613e+07
1.94345e+07
2.48675e+07
3.39444e+08
5.29342e+07
1.77082e+07
1.32471e+07
9.79772e+06
7.15253e+06
5.14411e+06
3.63789e+06
2.52595e+06
1.7223e+06
1.15959e+06
787113
457787
93984.3
6320.42
188.733
3.11424
0.036127
0.00045069
9.78874e-06
4.94302e-07
5.64133e-08
1.18635e-08
3.61498e-09
1.42185e-09
5.51805e-10
2.44619e-10
9.73049e-11
3.94652e-11
1.30749e-11
2.35188e-12
0
-3.0301e-12
-3.42613e-12
1.33185e-15
-1.95022e-19
-2.94074e-07
2.40332e-11
0
0
-2.2036e-10
-3.07614e-07
-3.31332e-18
-1.31577e-17
-3.00998e-07
-7.62662e-10
1.49408e-09
9.75212e-09
9.66294e-08
6.70483e-07
6.20341e-06
4.87727e-05
0.000353376
0.00229489
0.0131739
0.0665554
0.296203
1.1669
4.09808
12.9337
36.9878
96.5952
231.975
515.188
1061.84
2029.62
3613.46
6053.78
9567.01
14312.3
20420.9
28021.4
37290.7
48500.7
62064
78581.8
98868.6
123982
155294
194543
243942
306301
385193
485173
612063
773321
978519
1.23997e+06
1.57355e+06
1.99976e+06
2.54513e+06
3.24413e+06
4.14159e+06
5.29605e+06
6.78425e+06
8.70719e+06
1.11988e+07