/*--------------------------------*- C++ -*----------------------------------*\
  =========                 |
  \\      /  F ield         | OpenFOAM: The Open Source CFD Toolbox
   \\    /   O peration     | Website:  https://openfoam.org
    \\  /    A nd           | Version:  8
     \\/     M anipulation  |
\*---------------------------------------------------------------------------*/
FoamFile
{
    version     2.0;
    format      ascii;
    class       volScalarField;
    location    "60/fluid";
    object      rDeltaT;
}
// * * * * * * * * * * * * * * * * * * * * * * * * * * * * * * * * * * * * * //

dimensions      [0 0 -1 0 0 0 0];

internalField   nonuniform List<scalar> 
4000
(
515.17
545.167
574.904
605.017
635.643
666.602
697.303
726.729
753.51
776.124
793.167
803.631
807.082
803.7
794.172
779.51
760.843
739.262
715.725
691.016
665.76
640.503
615.594
591.267
567.686
544.939
523.108
502.224
482.315
463.383
445.424
428.417
412.341
397.163
382.853
369.372
356.685
344.75
335.822
334.845
339.467
344.537
350.092
356.154
362.755
369.916
377.663
386.021
395.012
404.663
414.995
426.04
437.818
450.367
463.716
477.905
492.961
508.932
525.857
543.789
562.778
582.888
604.184
626.743
650.646
675.989
702.877
731.43
761.776
794.07
828.732
866.902
12375.3
2603.59
950.471
982.172
1013.04
1042.73
1070.67
1096.19
1118.36
1136.06
1147.75
1151.87
1146.87
1130.69
1102.1
1060.71
1008.88
951.762
896.037
846.877
805.389
769.031
733.929
697.314
657.874
615.625
571.083
524.214
514.705
544.46
574.007
603.482
633.007
662.383
691.059
718.131
742.416
762.625
777.584
786.461
788.918
785.14
775.757
761.677
743.92
723.469
701.183
677.771
653.815
629.732
605.832
582.322
559.361
537.111
515.622
494.967
475.168
456.244
438.197
421.019
404.693
389.197
374.5
360.571
347.375
334.875
328.23
330.507
336.338
342.589
349.293
356.482
364.188
372.438
381.261
390.684
400.734
411.441
422.833
434.94
447.795
461.43
475.879
491.183
507.38
524.517
542.642
561.811
582.083
603.528
626.221
650.247
675.705
702.702
731.361
761.819
794.237
828.811
865.923
905.758
14454.4
949.272
977.535
1004.69
1030.64
1055.05
1077.35
1096.76
1112.24
1122.51
1126.01
1121.11
1105.78
1078.86
1040.5
992.707
939.373
886.409
839.393
800.786
769.027
740.574
711.98
681.049
646.761
608.751
567.241
522.741
513.842
541.528
568.745
595.713
622.492
648.949
674.681
698.993
720.932
739.399
753.336
761.918
764.725
761.808
753.654
741.055
724.947
706.255
685.803
664.253
642.097
619.653
597.168
574.88
552.94
531.419
510.437
490.048
470.307
451.248
432.894
415.252
398.321
382.092
366.548
351.668
337.425
323.79
319.973
326.699
334.434
342.565
351.13
360.165
369.703
379.777
390.42
401.664
413.54
426.082
439.322
453.296
468.04
483.59
499.989
517.281
535.511
554.733
575.002
596.382
618.939
642.752
667.904
694.486
722.599
752.345
783.829
817.148
852.381
889.589
928.758
2227.72
13619.6
1004.49
1025
1044.61
1062.92
1079.41
1093.41
1104.08
1110.35
1110.97
1104.47
1089.54
1064.64
1029.39
984.828
933.948
881.055
831.223
788.566
754.423
727.111
703.396
680.006
654.776
626.61
594.895
559.488
520.371
513.114
539.3
564.891
590.053
614.858
639.198
662.731
684.852
704.725
721.376
733.853
741.409
743.649
740.601
732.694
720.647
705.319
687.577
668.179
647.73
626.693
605.396
584.083
562.866
541.851
521.137
500.778
480.834
461.344
442.346
423.863
405.911
388.501
371.632
355.3
339.492
324.191
313.125
314.164
323.58
333.354
343.524
354.13
365.207
376.79
388.915
401.616
414.928
428.886
443.525
458.883
474.996
491.905
509.651
528.278
547.832
568.364
589.927
612.581
636.387
661.413
687.733
715.422
744.561
775.228
807.497
841.426
877.047
914.326
953.247
993.796
7198.49
8617.42
1052.08
1064.43
1075.92
1085.9
1093.8
1098.95
1100.6
1097.84
1089.67
1075.01
1052.68
1021.85
982.715
936.608
886.307
836.017
790.459
753.01
724.099
701.405
681.603
661.649
639.631
614.561
586.034
553.961
518.449
512.306
536.742
560.425
583.529
606.132
628.162
649.347
669.184
686.957
701.817
712.916
719.565
721.376
718.339
710.809
699.413
684.932
668.146
649.748
630.316
610.3
589.986
569.549
549.132
528.82
508.69
488.779
469.13
449.783
430.764
412.102
393.814
375.915
358.41
341.299
324.575
308.228
301.636
308.811
320.221
332.003
344.194
356.831
369.948
383.581
397.765
412.537
427.93
443.983
460.73
478.212
496.465
515.531
535.452
556.271
578.035
600.793
624.594
649.494
675.547
702.813
731.351
761.218
792.468
825.148
859.288
894.89
931.91
970.157
1009.61
1050.03
13646
1548.97
1086.45
1092.78
1097.34
1099.88
1100.04
1097.36
1091.23
1080.94
1065.67
1044.5
1016.39
980.918
938.621
891.1
841.336
793.47
751.682
718.443
693.435
674.151
657.492
640.728
622.117
600.693
576.006
547.921
516.452
511.521
534.32
556.265
577.513
598.145
618.11
637.178
654.91
670.677
683.723
693.291
698.759
699.777
696.331
688.74
677.58
663.542
647.34
629.667
611.035
591.794
572.227
552.517
532.759
513.041
493.392
473.852
454.454
435.223
416.187
397.368
378.783
360.448
342.37
324.552
306.993
291.119
290.174
303.06
316.306
329.944
344.011
358.537
373.558
389.106
405.216
421.924
439.263
457.269
475.98
495.432
515.662
536.71
558.616
581.42
605.164
629.892
655.648
682.476
710.421
739.525
769.826
801.357
834.137
868.165
903.408
939.789
977.126
1015.18
1053.56
2078.1
13771.6
1107.27
1108.87
1108.72
1106.72
1102.65
1096.23
1087.04
1074.61
1058.33
1037.56
1011.43
979.176
940.753
896.945
849.587
801.767
757.436
720.164
691.528
670.484
654.308
640.07
625.437
608.984
589.94
567.941
542.857
514.709
510.72
531.842
552.013
571.379
590.021
607.904
624.833
640.435
654.163
665.357
673.351
677.595
677.773
673.867
666.159
655.149
641.469
625.816
608.731
590.705
572.097
553.146
533.994
514.755
495.465
476.165
456.881
437.635
418.45
399.347
380.344
361.458
342.703
324.086
305.613
287.282
276.541
282.085
296.601
311.501
326.818
342.579
358.816
375.559
392.839
410.69
429.144
448.234
467.994
488.458
509.662
531.639
554.427
578.06
602.575
628.008
654.395
681.771
710.17
739.624
770.162
801.803
834.559
868.424
903.37
939.333
976.198
1013.7
1051.71
1089.94
7524.7
8027.63
1122.3
1118.6
1113.3
1106.12
1096.85
1085.25
1071
1053.71
1032.89
1007.98
978.197
943.01
902.64
858.066
811.304
765.502
724.387
690.945
666.028
648.141
634.557
622.562
610.101
595.93
579.374
560.11
538.011
513.068
509.922
529.389
547.823
565.357
582.067
597.928
612.775
626.286
637.984
647.297
653.643
656.541
655.721
651.173
643.149
632.101
618.642
603.326
586.697
569.183
551.098
532.654
513.978
495.145
476.204
457.179
438.089
418.947
399.772
380.58
361.388
342.211
323.063
303.95
284.877
265.845
260.818
273.318
289.277
305.646
322.449
339.714
357.467
375.735
394.549
413.936
433.928
454.554
475.848
497.838
520.558
544.038
568.309
593.402
619.346
646.172
673.906
702.575
732.202
762.805
794.399
826.987
860.563
895.102
930.558
966.848
1003.84
1041.25
1079.08
1117.26
13923.3
1907.96
1124.08
1117.91
1109.2
1098.14
1084.78
1069.04
1050.74
1029.58
1005.18
977.042
944.462
907.179
865.623
820.969
775.411
732.129
694.577
665.122
643.91
629.04
617.806
607.721
597.032
584.71
570.201
553.242
533.713
511.598
509.12
526.923
543.618
559.324
574.109
587.957
600.728
612.146
621.803
629.207
633.858
635.35
633.453
628.176
619.737
608.59
595.221
580.167
563.902
546.804
529.148
511.115
492.828
474.334
455.668
436.85
417.89
398.806
379.606
360.306
340.92
321.461
301.941
282.368
262.746
245.849
246.925
263.743
280.974
298.634
316.745
335.33
354.411
374.014
394.165
414.889
436.215
458.169
480.78
504.075
528.082
552.827
578.336
604.634
631.744
659.687
688.481
718.142
748.679
780.095
812.385
845.528
879.486
914.193
949.541
985.365
1021.34
1057.12
1092.08
1272.54
14082.9
1132.68
1124.2
1113.46
1100.56
1085.58
1068.5
1049.23
1027.6
1003.35
976.173
945.54
910.89
872.184
830.023
785.757
741.719
701.067
666.941
641.115
623.165
610.943
601.833
593.567
584.624
574.125
561.608
546.85
529.739
510.248
508.314
524.456
539.419
553.307
566.185
578.039
588.751
598.087
605.7
611.173
614.089
614.109
611.055
604.939
596.01
584.63
571.267
556.388
540.407
523.656
506.368
488.695
470.726
452.511
434.07
415.413
396.553
377.495
358.252
338.835
319.257
299.53
279.665
259.67
239.548
227.988
235.358
253.275
271.622
290.413
309.666
329.401
349.638
370.399
391.705
413.582
436.052
459.141
482.872
507.269
532.355
558.153
584.683
611.963
640.011
668.84
698.459
728.873
760.082
792.076
824.834
858.321
892.478
927.221
962.423
997.9
1033.27
1068.37
1102.68
4945.97
10289.1
1129.75
1117.4
1103.15
1086.94
1068.8
1048.7
1026.57
1002.26
975.555
946.163
913.571
877.366
837.717
795.381
751.88
709.669
671.847
641.195
618.906
604.055
594.315
587.184
580.61
573.284
564.466
553.775
541.027
526.12
509.017
507.505
521.979
535.208
547.283
558.26
568.129
576.791
584.05
589.615
593.143
594.291
592.792
588.52
581.519
572.007
560.327
546.894
532.118
516.359
499.894
482.919
465.555
447.868
429.892
411.641
393.119
374.331
355.284
335.986
316.451
296.688
276.711
256.53
236.151
215.579
209.379
222.974
241.853
261.175
280.951
301.197
321.928
343.162
364.918
387.215
410.074
433.516
457.563
482.235
507.551
533.532
560.195
587.555
615.625
644.418
673.938
704.19
735.17
766.869
799.268
832.338
866.035
900.294
935.028
970.114
1005.39
1040.48
1075.43
1109.93
9832.39
5706.01
1118.12
1103.87
1087.45
1068.95
1048.48
1026.08
1001.72
975.293
946.642
915.501
881.388
844.057
803.853
761.689
719.245
679.066
644.146
616.879
597.917
585.93
578.494
573.241
568.312
562.572
555.394
546.46
535.617
522.773
507.883
506.69
519.493
530.986
541.251
550.335
558.23
564.854
570.046
573.569
575.145
574.507
571.454
565.909
557.949
547.786
535.74
522.174
507.446
491.856
475.633
458.931
441.84
424.404
406.642
388.558
370.151
351.424
332.382
313.031
293.385
273.455
253.251
232.785
212.064
191.409
190.442
209.713
229.435
249.608
270.239
291.343
312.933
335.023
357.63
380.77
404.462
428.723
453.573
479.027
505.104
531.817
559.182
587.208
615.904
645.276
675.325
706.047
737.431
769.461
802.109
835.338
869.091
903.294
937.845
972.608
1007.39
1041.83
1075.87
1109.28
13892.8
2258.68
1102.3
1086.58
1068.44
1048.13
1025.8
1001.54
975.354
947.204
916.967
884.4
849.084
810.944
770.482
728.763
687.616
649.644
617.691
593.748
577.966
568.684
563.434
559.986
556.658
552.464
546.874
539.621
530.58
519.667
506.834
505.871
516.995
526.751
535.207
542.404
548.335
552.934
556.07
557.558
557.182
554.744
550.112
543.257
534.291
523.423
510.95
497.197
482.464
467.001
450.984
434.523
417.68
400.475
382.91
364.982
346.683
328.014
308.978
289.584
269.842
249.764
229.362
208.647
187.626
171.406
175.523
195.524
215.98
236.89
258.26
280.101
302.425
325.243
348.57
372.42
396.809
421.752
447.265
473.362
500.056
527.36
555.282
583.831
613.009
642.817
673.25
704.296
735.938
768.147
800.883
834.092
867.697
901.594
935.642
969.648
1003.28
1036.22
1068.05
1098.14
14289.1
1103.43
1087.88
1069.64
1049.15
1026.65
1002.29
976.146
948.236
918.513
886.88
853.085
816.792
778.08
737.594
696.541
656.879
621.232
592.258
571.539
558.774
552.048
548.896
547.199
545.455
542.798
538.77
533.152
525.84
516.757
505.854
505.047
514.485
522.501
529.151
534.468
538.446
541.033
542.127
541.589
539.264
535.021
528.792
520.603
510.586
498.965
486.016
472.026
457.248
441.874
426.034
409.795
393.182
376.195
358.821
341.044
322.856
304.251
285.233
265.81
245.993
225.796
205.229
184.305
163.031
150.931
159.741
180.379
201.473
223.02
245.025
267.496
290.443
313.877
337.808
362.251
387.217
412.721
438.776
465.392
492.582
520.354
548.714
577.667
607.212
637.344
668.055
699.326
731.135
763.445
796.208
829.357
862.804
896.427
930.062
963.486
996.236
1028.14
1058.41
1451.48
13393.6
1088.96
1070.78
1050.29
1027.77
1003.41
977.326
949.588
920.206
889.148
856.338
821.526
784.468
745.4
705.096
664.901
626.88
593.647
567.642
550.047
540.161
535.873
534.746
534.777
534.611
533.485
531.005
526.985
521.343
514.008
504.932
504.218
511.965
518.239
523.085
526.529
528.566
529.155
528.223
525.673
521.407
515.357
507.518
497.966
486.868
474.454
460.988
446.72
431.858
416.544
400.857
384.822
368.431
351.658
334.475
316.857
298.787
280.261
261.279
241.851
221.988
201.704
181.012
159.923
138.447
130.058
143.067
164.255
185.896
207.985
230.526
253.528
276.996
300.94
325.37
350.297
375.732
401.688
428.174
455.201
482.777
510.909
539.601
568.854
598.665
629.028
659.929
691.349
723.26
755.622
788.383
821.471
854.794
888.223
921.589
954.656
986.964
1018.35
1048.18
3718.66
11334.2
1070.53
1050.39
1028.19
1004.11
978.286
950.827
921.796
891.213
859.062
825.291
789.666
752.048
712.826
672.895
633.728
597.478
566.718
543.65
529.071
521.937
519.989
520.84
522.591
524.013
524.428
523.492
521.051
517.037
511.388
504.055
503.385
509.435
513.966
517.012
518.591
518.698
517.306
514.365
509.819
503.622
495.768
486.31
475.377
463.167
449.925
435.903
421.321
406.344
391.064
375.512
359.671
343.497
326.941
309.957
292.509
274.576
256.149
237.229
217.825
197.95
177.618
156.844
135.641
114.018
108.851
125.492
147.15
169.256
191.803
214.795
238.237
262.134
286.495
311.328
336.643
362.45
388.759
415.578
442.918
470.783
499.181
528.112
557.576
587.57
618.084
649.103
680.607
712.566
744.94
777.675
810.703
843.93
877.235
910.458
943.38
975.571
1006.94
1036.99
6396.26
9053.1
1047.71
1026.62
1003.41
978.292
951.415
922.913
892.868
861.323
828.29
793.747
757.496
719.505
680.301
640.908
602.918
568.542
540.287
520.105
508.435
503.942
504.262
507.061
510.538
513.568
515.542
516.16
515.289
512.875
508.866
503.215
502.549
506.897
509.685
510.934
510.657
508.848
505.489
500.556
494.029
485.912
476.257
465.175
452.845
439.5
425.399
410.788
395.861
380.741
365.474
350.044
334.39
318.436
302.105
285.333
268.074
250.3
232
213.173
193.829
173.98
153.644
132.835
111.567
100
100
107.005
129.058
151.551
174.474
197.833
221.629
245.869
270.559
295.705
321.317
347.404
373.973
401.035
428.595
456.659
485.232
514.315
543.905
573.999
604.585
635.648
667.168
699.114
731.447
764.113
797.045
830.153
863.32
896.39
929.156
961.192
992.448
1022.43
8548.17
7212.68
1022.32
1000.59
976.674
950.786
923.113
893.801
862.951
830.631
796.888
761.734
725.016
686.815
647.789
609.082
572.39
539.965
514.216
496.85
487.98
486.032
488.566
493.301
498.522
503.19
506.752
508.94
509.642
508.815
506.416
502.4
501.71
504.354
505.398
504.855
502.73
499.016
493.706
486.796
478.301
468.275
456.823
444.111
430.371
415.869
400.883
385.653
370.353
355.068
339.799
324.482
309.016
293.289
277.197
260.658
243.613
226.028
207.887
189.189
169.943
150.163
129.867
109.071
100
100
100
100
109.989
132.799
156.028
179.68
203.755
228.259
253.196
278.573
304.399
330.68
357.426
384.643
412.338
440.516
469.18
498.33
527.965
558.078
588.659
619.691
651.154
683.016
715.237
747.766
780.533
813.45
846.402
879.235
911.745
943.503
974.47
1004.14
10028.3
5968.79
995.62
973.293
948.726
922.166
893.805
863.799
832.261
799.285
764.948
729.3
692.246
653.971
615.26
577.367
542.075
511.65
488.388
473.75
467.568
468.081
472.791
479.466
486.46
492.805
497.991
501.776
504.064
504.821
504.016
501.605
500.869
501.807
501.109
498.779
494.814
489.206
481.955
473.08
462.629
450.699
437.449
423.102
407.937
392.258
376.363
360.491
344.796
329.329
314.048
298.843
283.571
268.085
252.252
235.972
219.173
201.812
183.87
165.343
146.241
126.577
106.37
100
100
100
100
100
100
113.027
136.492
160.364
184.643
209.332
234.437
259.964
285.92
312.313
339.15
366.438
394.184
422.391
451.063
480.199
509.797
539.851
570.348
601.274
632.605
664.311
696.351
728.671
761.202
793.853
826.507
859.006
891.142
922.481
952.977
982.086
10880.8
5210.99
968.336
945.27
919.994
892.751
863.727
833.073
800.91
767.348
732.498
696.449
659.167
620.939
582.663
545.695
511.892
483.518
462.726
450.726
447.081
449.988
456.853
465.481
474.285
482.35
489.201
494.617
498.511
500.861
501.644
500.82
500.026
499.258
496.822
492.709
486.91
479.415
470.231
459.396
446.99
433.155
418.1
402.108
385.504
368.634
351.813
335.285
319.185
303.532
288.243
273.162
258.103
242.882
227.341
211.356
194.842
177.749
160.051
141.743
122.833
103.334
100
100
100
100
100
100
100
100
115.936
139.955
164.361
189.157
214.348
239.941
265.945
292.366
319.212
346.488
374.2
402.354
430.95
459.991
489.471
519.386
549.723
580.466
611.593
643.072
674.861
706.907
739.138
771.462
803.76
835.871
867.587
898.473
928.475
957.029
11278.8
4862.1
940.189
916.396
890.43
862.531
832.876
801.615
768.877
734.791
699.499
663.133
625.727
587.658
549.92
513.955
481.674
455.335
436.997
427.68
426.615
431.827
440.788
451.363
461.998
471.817
480.369
487.444
492.958
496.91
499.284
500.042
500.021
499.249
496.812
492.699
486.899
479.404
470.221
459.387
446.983
433.149
418.098
402.109
385.509
368.643
351.826
335.303
319.208
303.56
288.274
273.196
258.139
242.919
227.378
211.393
194.879
177.784
160.085
141.775
122.862
103.361
100
100
100
100
100
100
100
100
115.98
139.996
164.399
189.193
214.381
239.971
265.971
292.389
319.231
346.504
374.213
402.363
430.956
459.992
489.468
519.378
549.711
580.449
611.57
643.042
674.825
706.864
739.088
771.405
803.695
835.799
867.508
898.387
928.383
956.945
11269.5
4871.79
940.111
916.303
890.326
862.414
832.747
801.474
768.725
734.628
699.328
662.955
625.545
587.477
549.745
513.793
481.532
455.223
436.921
427.633
426.592
431.822
440.798
451.382
462.021
471.84
480.39
487.46
492.962
496.887
499.232
500.002
500.859
501.789
501.09
498.759
494.792
489.184
481.934
473.061
462.613
450.687
437.443
423.102
407.944
392.274
376.387
360.524
344.838
329.379
314.105
298.905
283.636
268.151
252.318
236.037
219.235
201.871
183.924
165.393
146.285
126.615
106.401
100
100
100
100
100
100
113.144
136.606
160.474
184.749
209.434
234.535
260.057
286.008
312.396
339.227
366.509
394.248
422.449
451.113
480.241
509.83
539.874
570.361
601.275
632.593
664.285
696.309
728.613
761.127
793.761
826.397
858.879
890.997
922.316
952.788
981.89
10852.2
5236.99
968.23
945.119
919.815
892.542
863.489
832.806
800.617
767.032
732.162
696.098
658.808
620.582
582.319
545.379
511.618
483.296
462.562
450.614
447.017
449.968
456.866
465.515
474.329
482.395
489.241
494.648
498.517
500.813
501.539
500.741
501.7
504.336
505.378
504.834
502.708
498.993
493.683
486.775
478.283
468.261
456.812
444.107
430.373
415.879
400.901
385.68
370.388
355.11
339.846
324.532
309.067
293.339
277.245
260.702
243.653
226.062
207.916
189.211
169.958
150.171
129.867
109.061
100
100
100
100
110.154
132.963
156.19
179.84
203.913
228.414
253.349
278.724
304.546
330.824
357.566
384.779
412.47
440.643
469.302
498.446
528.073
558.178
588.749
619.77
651.219
683.066
715.271
747.78
780.526
813.421
846.348
879.155
911.636
943.364
974.299
1003.96
9978.43
6012.32
995.568
973.2
948.6
922.002
893.604
863.56
831.99
798.983
764.622
728.954
691.889
653.614
614.917
577.053
541.802
511.428
488.22
473.636
467.503
468.059
472.802
479.498
486.502
492.846
498.027
501.803
504.066
504.771
503.911
501.527
502.54
506.88
509.665
510.913
510.634
508.824
505.465
500.533
494.008
485.895
476.244
465.167
452.843
439.505
425.412
410.807
395.887
380.772
365.51
350.081
334.426
318.47
302.135
285.358
268.093
250.312
232.004
213.169
193.816
173.958
153.612
132.792
111.513
100
100
107.216
129.27
151.764
174.689
198.047
221.845
246.085
270.774
295.92
321.531
347.617
374.185
401.245
428.803
456.865
485.434
514.512
544.097
574.183
604.76
635.813
667.319
699.249
731.563
764.207
797.114
830.193
863.326
896.359
929.078
961.062
992.252
1022.18
8461.14
7285.17
1022.38
1000.56
976.589
950.649
922.928
893.572
862.682
830.327
796.556
761.381
724.653
686.452
647.442
608.766
572.116
539.74
514.042
496.726
487.905
486
488.568
493.326
498.557
503.225
506.781
508.96
509.638
508.762
506.313
502.326
503.377
509.419
513.947
516.99
518.568
518.674
517.281
514.341
509.797
503.603
495.752
486.298
475.371
463.167
449.931
435.914
421.338
406.365
391.088
375.536
359.692
343.515
326.953
309.962
292.506
274.564
256.128
237.199
217.785
197.899
177.555
156.769
135.553
113.917
108.922
125.747
147.407
169.516
192.064
215.058
238.501
262.401
286.763
311.598
336.915
362.723
389.032
415.853
443.193
471.058
499.455
528.384
557.846
587.836
618.344
649.356
680.849
712.795
745.152
777.866
810.866
844.06
877.323
910.492
943.34
975.441
1006.69
1036.61
6247.74
9167.34
1047.82
1026.61
1003.33
978.144
951.208
922.654
892.566
860.984
827.923
793.362
757.104
719.119
679.937
640.58
602.635
568.309
540.102
519.966
508.342
503.893
504.249
507.073
510.561
513.592
515.562
516.171
515.278
512.819
508.766
503.145
504.211
511.95
518.22
523.064
526.506
528.541
529.13
528.199
525.65
521.387
515.34
507.503
497.956
486.862
474.452
460.99
446.727
431.868
416.555
400.866
384.828
368.432
351.652
334.46
316.832
298.753
280.216
261.223
241.783
221.908
201.611
180.905
159.803
138.312
130.131
143.365
164.558
186.204
208.297
230.843
253.849
277.322
301.27
325.704
350.635
376.075
402.034
428.524
455.554
483.134
511.268
539.963
569.217
599.03
629.392
660.291
691.706
723.608
755.958
788.702
821.767
855.056
888.441
921.745
954.727
986.926
1018.16
1047.79
3520.42
11454.8
1070.58
1050.28
1028.01
1003.86
977.984
950.48
921.413
890.803
858.633
824.853
789.23
751.628
712.437
672.548
633.432
597.234
566.52
543.494
528.957
521.865
519.955
520.833
522.598
524.023
524.435
523.493
521.033
516.979
511.294
503.992
505.04
514.472
522.484
529.131
534.446
538.422
541.008
542.102
541.565
539.241
535
528.773
520.587
510.573
498.955
486.01
472.023
457.245
441.871
426.028
409.785
393.165
376.17
358.785
340.998
322.797
304.18
285.15
265.714
245.885
225.673
205.092
184.153
162.864
151.008
160.08
180.724
201.824
223.377
245.387
267.864
290.817
314.257
338.195
362.644
387.617
413.128
439.189
465.812
493.009
520.788
549.155
578.114
607.665
637.803
668.518
699.793
731.604
763.914
796.674
829.817
863.25
896.849
930.445
963.807
996.472
1028.27
1058.39
1416.97
13448
1088.6
1070.3
1049.8
1027.26
1002.89
976.804
949.063
919.682
888.629
855.829
821.035
784.007
744.981
704.731
664.595
626.628
593.44
567.471
549.911
540.065
535.813
534.717
534.766
534.606
533.479
530.994
526.959
521.285
513.922
504.877
505.866
516.983
526.735
535.188
542.382
548.311
552.909
556.045
557.533
557.158
554.721
550.09
543.237
534.271
523.405
510.934
497.181
482.449
466.984
450.963
434.497
417.645
400.429
382.852
364.91
346.599
327.917
308.868
289.46
269.704
249.612
229.195
208.465
187.428
171.487
175.904
195.912
216.376
237.293
258.671
280.52
302.852
325.679
349.014
372.873
397.271
422.224
447.746
473.853
500.558
527.873
555.807
584.368
613.559
643.38
673.826
704.887
736.543
768.768
801.52
834.747
868.37
902.285
936.35
970.368
1004
1036.92
1068.73
1098.85
14365.2
1102.4
1086.87
1068.73
1048.31
1025.88
1001.58
975.49
947.619
917.929
886.327
852.568
816.317
777.656
737.231
696.24
656.633
621.026
592.078
571.385
558.653
551.963
548.844
547.168
545.433
542.777
538.747
533.118
525.782
516.681
505.809
506.686
519.483
530.973
541.234
550.315
558.207
564.831
570.022
573.544
575.121
574.483
571.43
565.885
557.923
547.76
535.713
522.147
507.416
491.823
475.594
458.883
441.781
424.333
406.557
388.459
370.039
351.299
332.242
312.878
293.217
273.272
253.054
232.573
211.835
191.494
190.862
210.141
229.871
250.052
270.691
291.804
313.403
335.503
358.119
381.27
404.973
429.246
454.108
479.575
505.665
532.393
559.772
587.814
616.528
645.918
675.985
706.727
738.133
770.187
802.861
836.12
869.91
904.162
938.781
973.642
1008.56
1043.21
1077.56
1111.37
13790.5
2514.88
1100.96
1085.52
1067.58
1047.39
1025.14
1000.93
974.782
946.66
916.451
883.915
848.64
810.55
770.148
728.491
687.396
649.456
617.517
593.586
577.825
568.575
563.357
559.933
556.618
552.429
546.839
539.58
530.524
519.603
506.8
507.502
521.972
535.197
547.268
558.243
568.109
576.77
584.028
589.593
593.12
594.267
592.766
588.491
581.486
571.97
560.288
546.851
532.071
516.305
499.832
482.846
465.469
447.769
429.778
411.511
392.975
374.172
355.111
335.799
316.25
296.473
276.482
256.286
235.892
215.304
209.462
223.439
242.327
261.658
281.444
301.699
322.44
343.685
365.452
387.761
410.632
434.088
458.148
482.835
508.167
534.164
560.844
588.222
616.313
645.126
674.669
704.945
735.951
767.677
800.108
833.212
866.945
901.245
936.022
971.151
1006.46
1041.59
1076.57
1111.1
9603.02
5961.34
1118.01
1103.67
1087.16
1068.61
1048.11
1025.68
1001.31
974.882
946.236
915.109
881.025
843.736
803.586
761.477
719.077
678.92
643.997
616.722
597.765
585.801
578.394
573.168
568.256
562.523
555.349
546.414
535.565
522.724
507.862
508.313
524.452
539.411
553.296
566.171
578.023
588.734
598.069
605.68
611.152
614.065
614.081
611.02
604.899
595.961
584.577
571.207
556.32
540.33
523.568
506.266
488.579
470.595
452.363
433.906
415.234
396.357
377.285
358.028
338.598
319.007
299.267
279.389
259.38
239.244
228.074
235.857
253.783
272.139
290.939
310.203
329.948
350.196
370.968
392.287
414.176
436.66
459.763
483.509
507.922
533.025
558.84
585.388
612.688
640.755
669.605
699.245
729.681
760.912
792.927
825.705
859.209
893.378
928.125
963.317
998.76
1034.05
1069.02
1103.09
4594.28
10592.2
1130.34
1117.76
1103.32
1086.98
1068.74
1048.57
1026.39
1002.04
975.314
945.915
913.334
877.157
837.55
795.26
751.793
709.589
671.745
641.061
618.755
603.912
594.195
587.093
580.538
573.223
564.412
553.725
540.982
526.088
509.009
509.12
526.922
543.614
559.316
574.1
587.946
600.716
612.133
621.789
629.19
633.837
635.323
633.42
628.133
619.684
608.523
595.143
580.078
563.8
546.689
529.017
510.967
492.66
474.147
455.463
436.628
417.653
398.554
379.342
360.03
340.633
321.164
301.632
282.047
262.413
245.935
247.453
264.28
281.52
299.189
317.309
335.904
354.997
374.611
394.774
415.511
436.85
458.818
481.444
504.755
528.777
553.539
579.065
605.38
632.508
660.468
689.281
718.959
749.513
780.945
813.249
846.405
880.371
915.081
950.424
986.229
1022.16
1057.87
1092.77
1133.37
14235.1
1132.98
1124.49
1113.67
1100.73
1085.7
1068.56
1049.24
1027.57
1003.29
976.093
945.457
910.823
872.147
830.022
785.779
741.734
701.04
666.853
640.98
623.017
610.808
601.725
593.48
584.552
574.063
561.555
546.811
529.726
510.253
509.925
529.391
547.823
565.355
582.064
597.924
612.771
626.281
637.979
647.289
653.629
656.52
655.689
651.127
643.089
632.025
618.549
603.219
586.574
569.042
550.937
532.473
513.773
494.919
475.957
456.914
437.808
418.653
399.467
380.265
361.065
341.88
322.722
303.6
284.518
265.475
260.902
273.877
289.844
306.221
323.034
340.309
358.072
376.352
395.177
414.576
434.58
455.22
476.526
498.531
521.264
544.758
569.043
594.149
620.107
646.945
674.691
703.37
733.004
763.614
795.211
827.801
861.377
895.915
931.369
967.661
1004.66
1042.09
1080.02
1118.37
13685.7
2294.51
1124.52
1118.28
1109.53
1098.43
1085.03
1069.24
1050.89
1029.7
1005.28
977.131
944.557
907.296
865.766
821.127
775.55
732.203
694.56
665.023
643.769
628.897
617.685
607.622
596.951
584.641
570.146
553.212
533.72
511.618
510.725
531.848
552.018
571.383
590.025
607.909
624.84
640.443
654.17
665.363
673.352
677.587
677.751
673.828
666.099
655.07
641.369
625.693
608.591
590.543
571.911
552.932
533.756
514.493
495.181
475.862
456.562
437.304
418.109
398.999
379.99
361.098
342.336
323.714
305.233
286.895
276.622
282.655
297.177
312.085
327.41
343.18
359.426
376.179
393.47
411.332
429.797
448.898
468.67
489.147
510.362
532.352
555.151
578.795
603.32
628.761
655.154
682.534
710.935
740.387
770.917
802.546
835.281
869.117
904.023
939.932
976.726
1014.15
1052.07
1090.17
6991.86
8526.97
1123.52
1119.63
1114.16
1106.84
1097.46
1085.76
1071.42
1054.07
1033.2
1008.26
978.472
943.298
902.948
858.383
811.594
765.71
724.472
690.907
665.911
647.997
634.427
622.453
610.012
595.856
579.318
560.089
538.037
513.102
511.527
534.33
556.276
577.524
598.158
618.127
637.199
654.935
670.704
683.751
693.314
698.773
699.777
696.313
688.7
677.514
663.453
647.225
629.522
610.862
591.595
571.999
552.261
532.475
512.733
493.063
473.508
454.097
434.857
415.814
396.991
378.403
360.065
341.985
324.163
306.6
291.196
290.74
303.633
316.885
330.532
344.607
359.142
374.172
389.73
405.851
422.569
439.918
457.935
476.656
496.118
516.358
537.415
559.328
582.138
605.888
630.618
656.374
683.199
711.137
740.231
770.517
802.028
834.78
868.77
903.964
940.275
977.513
1015.44
1053.63
1754.09
14030.8
1108.51
1109.94
1109.63
1107.52
1103.36
1096.85
1087.6
1075.11
1058.79
1038
1011.87
979.632
941.232
897.434
850.047
802.133
757.65
720.211
691.452
670.349
654.174
639.954
625.342
608.906
589.884
567.931
542.904
514.756
512.314
536.757
560.442
583.549
606.156
628.193
649.386
669.23
687.011
701.875
712.974
719.616
721.414
718.359
710.805
699.383
684.871
668.054
649.625
630.161
610.112
589.767
569.296
548.843
528.504
508.352
488.424
468.764
449.408
430.386
411.721
393.433
375.534
358.029
340.917
324.192
307.842
301.71
309.36
320.776
332.564
344.763
357.407
370.532
384.174
398.367
413.147
428.55
444.611
461.367
478.857
497.119
516.192
536.118
556.942
578.709
601.466
625.265
650.159
676.202
703.453
731.97
761.811
793.028
825.667
859.757
895.298
932.246
970.412
1009.82
1050.26
13249.4
1996.54
1087.37
1093.59
1098.07
1100.54
1100.65
1097.93
1091.77
1081.47
1066.21
1045.06
1016.98
981.559
939.292
891.754
841.897
793.856
751.856
718.437
693.327
674.015
657.37
640.627
622.035
600.638
576.006
547.987
516.512
513.124
539.32
564.915
590.082
614.894
639.245
662.791
684.927
704.813
721.475
733.959
741.513
743.743
740.678
732.748
720.672
705.313
687.535
668.099
647.612
626.535
605.194
583.83
562.587
541.55
520.817
500.443
480.487
460.99
441.988
423.504
405.552
388.144
371.277
354.947
339.14
323.838
313.194
314.668
324.091
333.872
344.05
354.664
365.75
377.342
389.476
402.186
415.507
429.473
444.12
459.485
475.606
492.52
510.271
528.901
548.456
568.987
590.546
613.19
636.982
661.989
688.281
715.934
745.026
775.633
807.825
841.657
877.157
914.291
953.047
993.375
6458.68
9387.5
1053.19
1065.38
1076.73
1086.61
1094.43
1099.54
1101.16
1098.4
1090.26
1075.64
1053.38
1022.63
983.552
937.454
887.075
836.602
790.793
753.107
724.041
701.285
681.485
661.55
639.552
614.511
586.046
554.046
518.521
513.854
541.552
568.775
595.751
622.541
649.013
674.763
699.097
721.057
739.545
753.496
762.084
764.888
761.958
753.783
741.156
725.014
706.285
685.791
664.196
641.995
619.511
597.005
574.681
552.708
531.161
510.158
489.754
470.003
450.938
432.581
414.94
398.01
381.784
366.243
351.365