/*--------------------------------*- C++ -*----------------------------------*\
  =========                 |
  \\      /  F ield         | OpenFOAM: The Open Source CFD Toolbox
   \\    /   O peration     | Website:  https://openfoam.org
    \\  /    A nd           | Version:  8
     \\/     M anipulation  |
\*---------------------------------------------------------------------------*/
FoamFile
{
    version     2.0;
    format      ascii;
    class       volScalarField;
    location    "60/fluid";
    object      rho;
}
// * * * * * * * * * * * * * * * * * * * * * * * * * * * * * * * * * * * * * //

dimensions      [1 -3 0 0 0 0 0];

internalField   nonuniform List<scalar> 
4000
(
0.658466
0.65824
0.657878
0.657308
0.656434
0.655117
0.653174
0.650373
0.646431
0.641034
0.633867
0.624661
0.613247
0.599605
0.583893
0.566432
0.547673
0.528126
0.508301
0.488649
0.469531
0.451209
0.433847
0.417531
0.402284
0.388095
0.3749
0.362643
0.351245
0.340632
0.330733
0.32148
0.31281
0.304666
0.296997
0.28976
0.282914
0.276426
0.270266
0.264408
0.258818
0.253463
0.248326
0.243391
0.238643
0.234072
0.229666
0.225415
0.221313
0.217352
0.213525
0.20983
0.206259
0.202811
0.199481
0.196269
0.193173
0.190192
0.187326
0.184576
0.181945
0.179434
0.177049
0.174794
0.172678
0.170711
0.168906
0.167281
0.165857
0.164672
0.163756
0.163162
0.162961
0.169567
0.178393
0.188715
0.200776
0.214892
0.231472
0.251047
0.274316
0.302195
0.335887
0.376987
0.427713
0.490712
0.568478
0.662383
0.770417
0.884384
0.989819
1.07239
1.12656
1.15661
1.17152
1.17847
1.18158
1.18294
1.18352
1.18377
0.658469
0.658255
0.657912
0.657377
0.656559
0.655333
0.653528
0.650926
0.647257
0.64221
0.635461
0.626713
0.615754
0.602512
0.587094
0.569792
0.551043
0.531374
0.511319
0.491365
0.471907
0.45324
0.43555
0.418942
0.403439
0.388997
0.375598
0.363156
0.351605
0.340865
0.330861
0.32152
0.312779
0.304575
0.296858
0.28958
0.282701
0.276186
0.270005
0.264129
0.258524
0.253157
0.248009
0.243065
0.23831
0.233733
0.229321
0.225067
0.220962
0.216999
0.213172
0.209474
0.205904
0.202456
0.199129
0.195919
0.192826
0.189849
0.186988
0.184244
0.181619
0.179116
0.17674
0.174496
0.172394
0.170444
0.168662
0.167066
0.165681
0.164551
0.163698
0.163182
0.163061
0.170811
0.179953
0.19067
0.203217
0.217935
0.235273
0.255818
0.280349
0.30989
0.345794
0.389883
0.444648
0.512863
0.596897
0.697271
0.809868
0.923486
1.02218
1.0941
1.13854
1.16237
1.17409
1.17954
1.18201
1.1831
1.18357
1.18378
0.658473
0.658272
0.657951
0.657449
0.656682
0.655529
0.653829
0.65137
0.647891
0.643086
0.636631
0.628219
0.617619
0.604729
0.589622
0.572553
0.553937
0.534287
0.514147
0.494027
0.47435
0.455432
0.437472
0.420555
0.404737
0.390041
0.376393
0.36374
0.352004
0.341104
0.330961
0.321503
0.31266
0.30437
0.296579
0.289239
0.282307
0.275748
0.269529
0.263623
0.257991
0.252601
0.247434
0.242474
0.237707
0.233119
0.2287
0.224439
0.22033
0.216364
0.212535
0.208837
0.205268
0.201822
0.198497
0.195291
0.192203
0.189232
0.186379
0.183643
0.181029
0.178538
0.176176
0.17395
0.17187
0.169948
0.168202
0.166655
0.165342
0.164312
0.163618
0.163329
0.164246
0.17269
0.182487
0.19389
0.207208
0.222827
0.241248
0.263123
0.289303
0.320902
0.359371
0.40669
0.46539
0.537979
0.626173
0.729162
0.841031
0.949621
1.04049
1.105
1.14426
1.16512
1.17533
1.1801
1.18224
1.18319
1.18361
1.18378
0.658477
0.658289
0.657988
0.657518
0.656798
0.655715
0.654114
0.651791
0.648492
0.643916
0.637734
0.629632
0.619355
0.606775
0.591931
0.57505
0.556529
0.536879
0.51666
0.496404
0.476538
0.45735
0.439079
0.421885
0.405829
0.390889
0.377028
0.364182
0.352273
0.341219
0.330944
0.321368
0.312422
0.304043
0.296175
0.288769
0.28178
0.275172
0.268912
0.26297
0.257305
0.251888
0.246697
0.241716
0.236931
0.232329
0.227898
0.223628
0.219511
0.21554
0.211708
0.20801
0.204441
0.200998
0.197678
0.194478
0.191398
0.188437
0.185595
0.182874
0.180276
0.177804
0.175465
0.173266
0.171218
0.169334
0.167633
0.16614
0.1649
0.163953
0.163352
0.163176
0.166914
0.175793
0.186138
0.198209
0.212331
0.228923
0.248525
0.27184
0.299784
0.333551
0.374697
0.425357
0.488045
0.565038
0.657448
0.763219
0.874713
0.978696
1.0618
1.11822
1.15135
1.16853
1.17688
1.18076
1.18252
1.1833
1.18364
1.18379
0.65848
0.658304
0.658022
0.65758
0.656903
0.655881
0.654367
0.652164
0.649023
0.644648
0.638708
0.63088
0.620893
0.60859
0.593982
0.57727
0.558836
0.5392
0.518912
0.498485
0.478353
0.458912
0.440403
0.422979
0.406692
0.39153
0.37747
0.364445
0.352376
0.341186
0.330786
0.321102
0.312061
0.303599
0.295658
0.288188
0.281144
0.274489
0.268189
0.262212
0.256515
0.251069
0.245854
0.240853
0.236051
0.231434
0.226991
0.222712
0.218588
0.214612
0.210778
0.207079
0.203512
0.200073
0.196758
0.193566
0.190496
0.187547
0.18472
0.182015
0.179438
0.17699
0.17468
0.172515
0.170508
0.168674
0.167035
0.165618
0.164478
0.163626
0.163129
0.163037
0.170416
0.179575
0.190406
0.203135
0.218083
0.235684
0.256513
0.281321
0.311087
0.347077
0.39097
0.445011
0.511606
0.592698
0.688607
0.795863
0.905283
1.00335
1.07862
1.12805
1.1564
1.17095
1.17798
1.18125
1.18273
1.18338
1.18367
1.18379
0.658484
0.658318
0.658053
0.657637
0.656998
0.656032
0.654598
0.652504
0.649508
0.645315
0.639594
0.632013
0.622283
0.610224
0.595819
0.579249
0.560895
0.541251
0.520831
0.500193
0.479858
0.460194
0.441459
0.423813
0.407301
0.391947
0.377711
0.364527
0.352322
0.341005
0.330496
0.320716
0.311591
0.303055
0.29505
0.287523
0.28043
0.273733
0.267396
0.261387
0.25566
0.250188
0.24495
0.239929
0.23511
0.230479
0.226024
0.221737
0.217607
0.213627
0.209791
0.206093
0.202529
0.199095
0.195788
0.192607
0.189549
0.186615
0.183806
0.181123
0.17857
0.176152
0.173876
0.171753
0.169796
0.168025
0.166467
0.165169
0.16418
0.163563
0.163404
0.164421
0.173007
0.182981
0.194595
0.20815
0.224023
0.242698
0.264797
0.291129
0.322738
0.360969
0.407645
0.465057
0.535461
0.620423
0.719392
0.827491
0.934224
1.02618
1.09398
1.13699
1.16098
1.17313
1.17897
1.18168
1.18291
1.18346
1.1837
1.1838
0.658487
0.658331
0.658081
0.657688
0.657084
0.656169
0.654806
0.65281
0.649943
0.645913
0.640389
0.633029
0.62353
0.611688
0.597463
0.581025
0.562709
0.542969
0.522423
0.501638
0.48111
0.461232
0.442288
0.424417
0.407711
0.392179
0.377783
0.364462
0.352129
0.340703
0.330099
0.320235
0.311038
0.302438
0.294377
0.286802
0.279668
0.272935
0.266568
0.26053
0.254777
0.249282
0.244024
0.238986
0.234152
0.22951
0.225046
0.220751
0.216616
0.212634
0.208798
0.205102
0.201543
0.198115
0.194818
0.191648
0.188604
0.185688
0.182898
0.180239
0.177713
0.175327
0.173087
0.171006
0.169098
0.167383
0.165888
0.164674
0.163769
0.163244
0.163185
0.167325
0.176308
0.186802
0.199045
0.213345
0.230098
0.249819
0.273172
0.301017
0.334461
0.374938
0.424398
0.485126
0.559192
0.647694
0.749101
0.857137
0.96031
1.04587
1.10667
1.14412
1.16458
1.17484
1.17975
1.18202
1.18305
1.18351
1.18372
1.1838
0.658489
0.658342
0.658106
0.657735
0.657162
0.656293
0.654995
0.653087
0.650337
0.646455
0.641109
0.633948
0.624655
0.613007
0.59895
0.582608
0.564277
0.544493
0.523834
0.502885
0.482162
0.462076
0.442912
0.424845
0.407958
0.392263
0.377725
0.364273
0.351831
0.340309
0.329623
0.319688
0.310428
0.301775
0.293667
0.286052
0.278883
0.27212
0.265728
0.259667
0.253892
0.248377
0.243103
0.238051
0.233205
0.228553
0.224082
0.219783
0.215645
0.211663
0.207828
0.204137
0.200584
0.197165
0.193879
0.190723
0.187696
0.184799
0.182032
0.179399
0.176904
0.174553
0.172355
0.170323
0.168473
0.166826
0.165414
0.164291
0.163463
0.162993
0.162918
0.170372
0.179702
0.190672
0.203509
0.218523
0.236131
0.256873
0.281456
0.310789
0.346041
0.388747
0.440958
0.5049
0.582428
0.674104
0.777366
0.884637
0.983775
1.06304
1.11747
1.1501
1.16757
1.17625
1.18039
1.18231
1.18317
1.18356
1.18373
1.18381
0.658492
0.658353
0.658129
0.657777
0.657233
0.656406
0.655166
0.653339
0.650694
0.646946
0.64176
0.634779
0.625674
0.614203
0.600286
0.583993
0.565681
0.545842
0.525067
0.503955
0.483043
0.462759
0.443391
0.425135
0.408077
0.39223
0.377559
0.363995
0.351455
0.339851
0.329093
0.319097
0.309785
0.301086
0.292941
0.285293
0.278097
0.271311
0.264898
0.258818
0.253025
0.247495
0.242207
0.237144
0.23229
0.22763
0.223155
0.218852
0.214714
0.210732
0.206901
0.203215
0.199669
0.19626
0.192986
0.189845
0.186835
0.183958
0.181215
0.178609
0.176145
0.173832
0.171678
0.1697
0.167917
0.166359
0.165083
0.164129
0.163568
0.163495
0.164206
0.172728
0.182671
0.194251
0.207741
0.223491
0.241951
0.263701
0.28949
0.32028
0.357303
0.402212
0.457113
0.524144
0.604914
0.699379
0.803915
0.909777
1.00452
1.07771
1.12644
1.15496
1.16998
1.17739
1.18091
1.18253
1.18327
1.1836
1.18375
1.18381
0.658494
0.658362
0.65815
0.657816
0.657298
0.656508
0.655321
0.653567
0.651018
0.647391
0.64235
0.635532
0.626595
0.615287
0.601465
0.585246
0.56694
0.54704
0.526144
0.504868
0.483766
0.463286
0.443735
0.425309
0.408097
0.392116
0.377323
0.363657
0.351032
0.339355
0.328536
0.318488
0.309132
0.300397
0.292219
0.284546
0.277328
0.270523
0.264095
0.257999
0.252193
0.246651
0.241354
0.236283
0.231422
0.226759
0.22228
0.217977
0.21384
0.209862
0.206036
0.202356
0.19882
0.195422
0.192162
0.189036
0.186045
0.183189
0.180469
0.177891
0.175458
0.173178
0.171064
0.16913
0.167399
0.165899
0.164702
0.16382
0.163357
0.163395
0.166333
0.175254
0.185653
0.197751
0.211833
0.228271
0.247539
0.270253
0.297202
0.3294
0.368145
0.415199
0.472695
0.542662
0.626422
0.723276
0.828551
0.932507
1.02272
1.09022
1.13391
1.15895
1.17194
1.17831
1.18132
1.18272
1.18335
1.18363
1.18376
1.18381
0.658496
0.658371
0.658169
0.657851
0.657356
0.656601
0.655463
0.653774
0.651313
0.647795
0.642886
0.636216
0.62743
0.616249
0.602541
0.586383
0.568076
0.548112
0.527098
0.505665
0.484386
0.463719
0.44399
0.425399
0.408041
0.391933
0.377036
0.363281
0.350581
0.338842
0.327971
0.317879
0.308487
0.299721
0.291519
0.283825
0.27659
0.269771
0.26333
0.257223
0.251406
0.245855
0.24055
0.235473
0.230608
0.225942
0.221463
0.21716
0.213026
0.209051
0.205231
0.201559
0.198033
0.194647
0.1914
0.18829
0.185317
0.182482
0.179787
0.177235
0.174832
0.172586
0.170509
0.168616
0.166927
0.165472
0.164317
0.163467
0.163008
0.163008
0.168569
0.177792
0.188567
0.201114
0.215732
0.232804
0.252832
0.27646
0.304517
0.338064
0.378474
0.427601
0.487575
0.560305
0.64679
0.745643
0.85118
0.952856
1.03855
1.1008
1.1401
1.16221
1.17353
1.17906
1.18166
1.18287
1.18341
1.18366
1.18377
1.18381
0.658498
0.658379
0.658186
0.657882
0.65741
0.656685
0.655591
0.653962
0.65158
0.648164
0.643376
0.636843
0.628202
0.617143
0.60353
0.587421
0.569106
0.549076
0.527947
0.506365
0.484919
0.464075
0.444179
0.425437
0.407947
0.391721
0.376727
0.362892
0.350126
0.338332
0.327416
0.317288
0.307866
0.299075
0.290853
0.283143
0.275895
0.269066
0.262618
0.256502
0.250677
0.24512
0.239811
0.234731
0.229865
0.225198
0.22072
0.21642
0.212289
0.20832
0.204507
0.200844
0.197328
0.193955
0.190722
0.187629
0.184675
0.181862
0.179191
0.176668
0.174297
0.172088
0.170053
0.168208
0.166574
0.165184
0.16409
0.163302
0.162886
0.162897
0.170519
0.180088
0.191247
0.204234
0.21936
0.237034
0.257778
0.28227
0.311377
0.346208
0.388213
0.43932
0.501637
0.576938
0.665873
0.766352
0.871745
0.970901
1.05221
1.10972
1.14523
1.16487
1.17483
1.17966
1.18194
1.18299
1.18347
1.18368
1.18377
1.18381
0.6585
0.658386
0.658202
0.657911
0.657458
0.656762
0.655707
0.654134
0.651824
0.648498
0.64382
0.637409
0.62889
0.617952
0.604429
0.588366
0.570041
0.549946
0.528704
0.506976
0.485367
0.464363
0.444313
0.425431
0.407818
0.391492
0.376412
0.362507
0.349682
0.337842
0.326888
0.316729
0.307282
0.298473
0.290234
0.282512
0.275254
0.268417
0.261962
0.255838
0.250007
0.244446
0.239133
0.234051
0.229184
0.224518
0.220041
0.215744
0.211618
0.207654
0.203848
0.200194
0.196688
0.193327
0.190109
0.187032
0.184097
0.181304
0.178658
0.176163
0.173825
0.171656
0.169669
0.167883
0.166325
0.16505
0.164091
0.163503
0.163346
0.163782
0.172241
0.18214
0.193665
0.207067
0.222673
0.240909
0.262326
0.287628
0.317722
0.353762
0.397281
0.450258
0.514765
0.592433
0.683541
0.785303
0.890229
0.98675
1.06392
1.1172
1.14947
1.16703
1.17588
1.18015
1.18216
1.18309
1.18351
1.1837
1.18378
1.18381
0.658501
0.658392
0.658216
0.657937
0.657502
0.656831
0.655813
0.654288
0.652044
0.648802
0.644223
0.637925
0.629522
0.618691
0.60525
0.589227
0.570893
0.550736
0.529389
0.507525
0.485764
0.46461
0.444419
0.425409
0.407685
0.391265
0.376109
0.36214
0.349266
0.337385
0.326398
0.316214
0.306746
0.29792
0.28967
0.281939
0.274675
0.267833
0.261374
0.255247
0.249413
0.24385
0.238536
0.233454
0.228588
0.223924
0.21945
0.215157
0.211035
0.207078
0.203279
0.199634
0.196138
0.192789
0.189584
0.186522
0.183604
0.180831
0.178207
0.175737
0.173429
0.171295
0.16935
0.167617
0.166126
0.164952
0.16411
0.163702
0.16382
0.164928
0.173713
0.183939
0.195813
0.209602
0.22565
0.244406
0.266441
0.292491
0.323499
0.360664
0.405596
0.460317
0.526843
0.606658
0.699666
0.802409
0.906633
1.00052
1.07387
1.12344
1.15295
1.1688
1.17674
1.18055
1.18235
1.18317
1.18354
1.18371
1.18378
1.18382
0.658502
0.658398
0.658229
0.65796
0.657541
0.656893
0.655907
0.654428
0.652242
0.649076
0.644588
0.638392
0.630096
0.619364
0.605998
0.590012
0.571668
0.551455
0.530011
0.508024
0.486128
0.464832
0.444509
0.425382
0.407559
0.391056
0.375831
0.361808
0.34889
0.336974
0.32596
0.315754
0.30627
0.297432
0.289172
0.281433
0.274162
0.267316
0.260854
0.254722
0.248885
0.24332
0.238006
0.232923
0.228058
0.223396
0.218925
0.214635
0.210519
0.206567
0.202776
0.199139
0.195652
0.192313
0.189119
0.18607
0.183166
0.18041
0.177803
0.175353
0.173067
0.170956
0.169038
0.167334
0.165877
0.164735
0.163926
0.163536
0.163643
0.166079
0.175087
0.185566
0.197728
0.211849
0.228285
0.247501
0.270091
0.296816
0.328652
0.366843
0.41307
0.46938
0.537738
0.619475
0.714121
0.817589
0.920967
1.01232
1.08224
1.12861
1.1558
1.17024
1.17743
1.18088
1.18249
1.18323
1.18357
1.18372
1.18379
1.18382
0.658504
0.658403
0.65824
0.657981
0.657575
0.656948
0.655991
0.654551
0.652419
0.64932
0.644914
0.638811
0.630612
0.619969
0.606672
0.590721
0.572369
0.552104
0.530572
0.508471
0.486448
0.465029
0.44459
0.42536
0.407448
0.390872
0.375588
0.361517
0.348561
0.336616
0.32558
0.315356
0.305859
0.29701
0.288744
0.281
0.273726
0.266879
0.260415
0.254282
0.248445
0.24288
0.237566
0.232486
0.227622
0.222962
0.218495
0.214209
0.210097
0.206152
0.202366
0.198736
0.195257
0.191927
0.188743
0.185705
0.182813
0.180069
0.177475
0.175039
0.172766
0.17067
0.168765
0.167072
0.165623
0.164482
0.163658
0.16323
0.163257
0.167105
0.176296
0.186984
0.199387
0.213787
0.230556
0.25017
0.273243
0.300561
0.333129
0.372233
0.419614
0.477337
0.547321
0.630742
0.726776
0.830763
0.933239
1.02226
1.08917
1.13282
1.1581
1.1714
1.17799
1.18114
1.18261
1.18329
1.18359
1.18373
1.18379
1.18382
0.658505
0.658407
0.65825
0.657999
0.657605
0.656996
0.656064
0.654658
0.652572
0.649533
0.645199
0.639179
0.631067
0.620505
0.607269
0.59135
0.572993
0.552684
0.531074
0.508874
0.486741
0.465212
0.444671
0.425351
0.407364
0.390724
0.37539
0.361279
0.348292
0.336324
0.325269
0.315032
0.305525
0.296669
0.288396
0.280647
0.273369
0.266518
0.260052
0.253917
0.248078
0.242512
0.237199
0.232119
0.227257
0.222599
0.218135
0.213853
0.209745
0.205804
0.202024
0.1984
0.194928
0.191606
0.18843
0.185401
0.182518
0.179784
0.177201
0.174774
0.172512
0.170426
0.16853
0.166844
0.165399
0.164257
0.163423
0.162974
0.162959
0.16793
0.17728
0.188145
0.200749
0.215384
0.23243
0.252378
0.275858
0.303678
0.336869
0.376757
0.425132
0.484075
0.555455
0.640311
0.737495
0.841844
0.943447
1.03041
1.09478
1.1362
1.15994
1.17231
1.17843
1.18134
1.1827
1.18333
1.18361
1.18374
1.18379
1.18382
0.658505
0.658411
0.658257
0.658013
0.657629
0.657035
0.656124
0.654747
0.6527
0.64971
0.645438
0.639489
0.631451
0.620959
0.607778
0.591888
0.573528
0.553182
0.531509
0.509225
0.487
0.465379
0.444752
0.425357
0.407306
0.390614
0.375239
0.361096
0.348084
0.336097
0.325029
0.314783
0.305269
0.296409
0.288132
0.280378
0.273098
0.266246
0.259779
0.253643
0.247805
0.24224
0.236928
0.231849
0.226989
0.222334
0.217872
0.213593
0.209489
0.205552
0.201777
0.198158
0.194692
0.191375
0.188206
0.185183
0.182308
0.17958
0.177005
0.174587
0.172332
0.170253
0.168364
0.166684
0.165243
0.164105
0.163269
0.162817
0.162798
0.168537
0.17802
0.189028
0.201792
0.216613
0.233879
0.254092
0.277896
0.306117
0.33981
0.380334
0.42952
0.489457
0.561979
0.648002
0.746105
0.850707
0.951548
1.03682
1.09914
1.1388
1.16134
1.17302
1.17876
1.1815
1.18278
1.18336
1.18362
1.18374
1.18379
1.18382
0.658506
0.658413
0.658263
0.658024
0.657647
0.657064
0.656168
0.654814
0.652796
0.649845
0.645621
0.639727
0.631747
0.621309
0.608172
0.592306
0.573944
0.553572
0.53185
0.509502
0.487207
0.465516
0.444824
0.425373
0.407274
0.390546
0.37514
0.360975
0.347946
0.335947
0.324871
0.314619
0.305101
0.296237
0.287956
0.280199
0.272915
0.266059
0.25959
0.253453
0.247614
0.242049
0.236736
0.231659
0.2268
0.222147
0.217687
0.21341
0.209309
0.205375
0.201604
0.197989
0.194527
0.191215
0.188051
0.185034
0.182164
0.179443
0.176874
0.174462
0.172215
0.170142
0.168259
0.166585
0.16515
0.164016
0.163185
0.162739
0.162729
0.168942
0.178522
0.189633
0.202512
0.217463
0.234884
0.255283
0.279317
0.307825
0.341878
0.382863
0.43264
0.493307
0.566672
0.653558
0.752337
0.857116
0.957379
1.0414
1.10223
1.14064
1.16233
1.17351
1.179
1.18161
1.18283
1.18338
1.18363
1.18375
1.1838
1.18382
0.658506
0.658415
0.658266
0.65803
0.657657
0.657079
0.656193
0.654851
0.65285
0.649921
0.645723
0.63986
0.631913
0.621507
0.608395
0.592543
0.574181
0.553794
0.532045
0.509662
0.487327
0.465598
0.444871
0.425388
0.407264
0.390514
0.375092
0.360914
0.347877
0.335871
0.324792
0.314538
0.305018
0.296152
0.28787
0.280111
0.272825
0.265968
0.259498
0.25336
0.247521
0.241957
0.236645
0.231568
0.22671
0.222058
0.217599
0.213324
0.209224
0.205292
0.201522
0.197909
0.19445
0.19114
0.187979
0.184965
0.182098
0.17938
0.176815
0.174407
0.172163
0.170094
0.168213
0.166542
0.165106
0.16397
0.16313
0.162662
0.162612
0.169095
0.17875
0.18993
0.202876
0.2179
0.235403
0.255901
0.280054
0.308711
0.342953
0.384179
0.434266
0.495313
0.569115
0.656446
0.75557
0.860431
0.960392
1.04376
1.10384
1.14159
1.16284
1.17376
1.17912
1.18167
1.18285
1.18339
1.18364
1.18375
1.1838
1.18382
0.658506
0.658415
0.658266
0.65803
0.657658
0.65708
0.656193
0.654851
0.652851
0.649922
0.645724
0.639861
0.631914
0.621507
0.608394
0.592541
0.574178
0.553791
0.532042
0.509659
0.487326
0.465597
0.444871
0.42539
0.407266
0.390517
0.375096
0.360918
0.347881
0.335875
0.324796
0.314542
0.305022
0.296155
0.287873
0.280114
0.272828
0.26597
0.2595
0.253362
0.247522
0.241957
0.236646
0.231569
0.226711
0.222058
0.2176
0.213325
0.209225
0.205293
0.201524
0.197911
0.194451
0.191142
0.187981
0.184967
0.182101
0.179384
0.176819
0.174411
0.172167
0.170098
0.168219
0.166547
0.165113
0.163977
0.163138
0.16267
0.162616
0.169092
0.178747
0.189927
0.202874
0.217899
0.235403
0.255902
0.280057
0.308717
0.342961
0.384192
0.434283
0.495335
0.569143
0.656477
0.7556
0.860456
0.960407
1.04377
1.10384
1.14159
1.16284
1.17376
1.17912
1.18167
1.18285
1.18339
1.18364
1.18375
1.1838
1.18382
0.658506
0.658413
0.658263
0.658024
0.657648
0.657064
0.656169
0.654815
0.652798
0.649848
0.645624
0.63973
0.631749
0.62131
0.608171
0.592303
0.57394
0.553567
0.531844
0.509498
0.487204
0.465516
0.444827
0.425378
0.407281
0.390553
0.375149
0.360983
0.347955
0.335955
0.324879
0.314627
0.305109
0.296245
0.287964
0.280207
0.272923
0.266068
0.259599
0.253462
0.247623
0.242058
0.236746
0.231668
0.22681
0.222156
0.217696
0.21342
0.209318
0.205385
0.201613
0.197998
0.194535
0.191223
0.188059
0.185042
0.182173
0.179452
0.176883
0.174471
0.172223
0.170151
0.168268
0.166594
0.165159
0.164026
0.163197
0.162751
0.16274
0.168937
0.178518
0.18963
0.20251
0.217462
0.234885
0.255287
0.279324
0.307837
0.341896
0.382891
0.432678
0.493356
0.566729
0.653618
0.752392
0.857161
0.957413
1.04142
1.10225
1.14065
1.16233
1.17351
1.179
1.18161
1.18283
1.18338
1.18363
1.18375
1.1838
1.18382
0.658505
0.658411
0.658258
0.658014
0.65763
0.657036
0.656125
0.654749
0.652703
0.649713
0.645442
0.639493
0.631453
0.620959
0.607776
0.591883
0.57352
0.553173
0.5315
0.509218
0.486996
0.465379
0.444756
0.425365
0.407317
0.390628
0.375254
0.361112
0.3481
0.336113
0.325045
0.314798
0.305284
0.296423
0.288146
0.280392
0.273111
0.266258
0.259791
0.253654
0.247815
0.24225
0.236937
0.231859
0.226999
0.222344
0.217882
0.213603
0.209499
0.205563
0.201788
0.198169
0.194703
0.191387
0.188218
0.185196
0.182321
0.179594
0.177019
0.174601
0.172347
0.170267
0.168378
0.166697
0.165256
0.164118
0.163284
0.162835
0.162818
0.168536
0.17802
0.189029
0.201793
0.216614
0.233882
0.254097
0.277906
0.306134
0.339836
0.380372
0.429574
0.489527
0.562064
0.648094
0.746194
0.850784
0.95161
1.03687
1.09917
1.13883
1.16136
1.17302
1.17877
1.1815
1.18278
1.18336
1.18362
1.18374
1.18379
1.18382
0.658505
0.658407
0.65825
0.657999
0.657606
0.656997
0.656065
0.65466
0.652575
0.649536
0.645202
0.639182
0.631068
0.620504
0.607265
0.591343
0.572982
0.552671
0.531062
0.508863
0.486734
0.46521
0.444674
0.42536
0.407376
0.39074
0.375407
0.361298
0.348311
0.336342
0.325288
0.315051
0.305543
0.296687
0.288414
0.280665
0.273387
0.266536
0.260071
0.253935
0.248097
0.242532
0.237218
0.232138
0.227277
0.222619
0.218154
0.213873
0.209765
0.205824
0.202044
0.19842
0.194949
0.191626
0.18845
0.185421
0.182539
0.179804
0.177221
0.174795
0.172533
0.170446
0.16855
0.166865
0.16542
0.16428
0.163449
0.163004
0.162992
0.167924
0.177275
0.18814
0.200743
0.215379
0.232426
0.252378
0.275863
0.303691
0.336893
0.376794
0.425186
0.484146
0.555541
0.640402
0.737582
0.841922
0.943517
1.03048
1.09483
1.13624
1.15996
1.17233
1.17843
1.18135
1.18271
1.18333
1.18361
1.18374
1.18379
1.18382
0.658504
0.658403
0.65824
0.657982
0.657576
0.656949
0.655993
0.654554
0.652422
0.649323
0.644917
0.638815
0.630614
0.619968
0.606667
0.590712
0.572356
0.552088
0.530555
0.508456
0.486436
0.465023
0.44459
0.425366
0.40746
0.390889
0.375608
0.36154
0.348585
0.336641
0.325604
0.315381
0.305883
0.297034
0.288766
0.281022
0.273748
0.266899
0.260435
0.254301
0.248464
0.242899
0.237585
0.232504
0.227641
0.222981
0.218514
0.214228
0.210117
0.206171
0.202386
0.198756
0.195278
0.191948
0.188765
0.185727
0.182835
0.180091
0.177498
0.175061
0.17279
0.170694
0.168789
0.167098
0.165652
0.164516
0.163699
0.16328
0.163311
0.167095
0.176288
0.186977
0.199378
0.213779
0.230549
0.250166
0.273244
0.300569
0.333148
0.372266
0.419663
0.477402
0.547397
0.63082
0.726847
0.830825
0.933299
1.02232
1.08923
1.13288
1.15814
1.17142
1.178
1.18114
1.18261
1.18329
1.18359
1.18373
1.18379
1.18382
0.658502
0.658398
0.658229
0.657961
0.657542
0.656895
0.655909
0.65443
0.652245
0.649079
0.644591
0.638395
0.630097
0.619362
0.605991
0.59
0.571651
0.551433
0.529988
0.508002
0.486109
0.46482
0.444504
0.425385
0.407568
0.391071
0.375851
0.361831
0.348915
0.337
0.325987
0.315781
0.306297
0.297458
0.289198
0.281459
0.274188
0.267342
0.26088
0.254749
0.248912
0.243348
0.238033
0.232952
0.228086
0.223424
0.218954
0.214664
0.210548
0.206597
0.202805
0.199168
0.195682
0.192343
0.189149
0.186101
0.183197
0.18044
0.177833
0.175383
0.173096
0.170985
0.169067
0.167364
0.165911
0.164775
0.163976
0.163597
0.163714
0.166068
0.175076
0.185554
0.197712
0.211831
0.228267
0.247485
0.270079
0.296811
0.328657
0.366861
0.413102
0.469426
0.537791
0.619525
0.714159
0.817616
0.920999
1.01237
1.08231
1.12867
1.15585
1.17027
1.17744
1.18089
1.1825
1.18324
1.18357
1.18372
1.18379
1.18382
0.658501
0.658392
0.658217
0.657938
0.657503
0.656833
0.655815
0.654291
0.652047
0.648805
0.644226
0.637927
0.629522
0.618688
0.605242
0.589212
0.570871
0.550708
0.529357
0.507494
0.485736
0.464589
0.444406
0.425406
0.407691
0.391278
0.376128
0.362164
0.349293
0.337413
0.326428
0.316244
0.306776
0.29795
0.2897
0.281968
0.274703
0.267861
0.261402
0.255274
0.24944
0.243877
0.238563
0.233481
0.228615
0.223951
0.219478
0.215185
0.211063
0.207107
0.203309
0.199664
0.196168
0.192819
0.189614
0.186552
0.183634
0.180862
0.178238
0.175767
0.173459
0.171324
0.169379
0.167645
0.166155
0.164982
0.164142
0.163732
0.163836
0.164908
0.173693
0.183916
0.195785
0.209571
0.225618
0.244375
0.266413
0.292469
0.323486
0.360661
0.405605
0.460334
0.526862
0.606667
0.699655
0.802385
0.906619
1.00054
1.07393
1.12352
1.15301
1.16884
1.17676
1.18057
1.18235
1.18317
1.18354
1.18371
1.18378
1.18382
0.6585
0.658386
0.658202
0.657912
0.657459
0.656763
0.655709
0.654136
0.651827
0.648502
0.643823
0.637411
0.628889
0.617947
0.604418
0.588347
0.570014
0.549911
0.528665
0.506936
0.485329
0.464332
0.444292
0.42542
0.407818
0.3915
0.376429
0.362529
0.349709
0.337871
0.326919
0.316761
0.307314
0.298505
0.290266
0.282544
0.275286
0.268449
0.261994
0.255871
0.250041
0.24448
0.239168
0.234086
0.229219
0.224553
0.220077
0.21578
0.211654
0.207691
0.203886
0.200232
0.196726
0.193365
0.190147
0.18707
0.184135
0.181343
0.178697
0.176201
0.173862
0.171692
0.169703
0.167915
0.166354
0.165074
0.16411
0.163513
0.163339
0.163758
0.172209
0.182098
0.193617
0.207015
0.22262
0.240857
0.262276
0.287582
0.317683
0.353731
0.397257
0.450238
0.51474
0.592389
0.683468
0.78521
0.890149
0.986724
1.06396
1.11727
1.14954
1.16708
1.17591
1.18017
1.18217
1.18309
1.18351
1.1837
1.18378
1.18381
0.658498
0.658379
0.658187
0.657883
0.657411
0.656687
0.655593
0.653965
0.651583
0.648166
0.643377
0.636843
0.628198
0.617136
0.603516
0.587398
0.569073
0.549033
0.527897
0.506313
0.484871
0.464034
0.444147
0.425417
0.407938
0.391724
0.376739
0.362911
0.35015
0.338361
0.327447
0.317321
0.3079
0.29911
0.290888
0.283178
0.27593
0.269101
0.262652
0.256536
0.250711
0.245155
0.239846
0.234766
0.2299
0.225234
0.220756
0.216456
0.212326
0.208357
0.204545
0.200882
0.197366
0.193993
0.190761
0.187668
0.184714
0.181901
0.17923
0.176706
0.174334
0.172124
0.170087
0.16824
0.166603
0.165208
0.164109
0.163313
0.162888
0.162889
0.170421
0.18
0.191163
0.204152
0.219281
0.236955
0.257702
0.282196
0.311308
0.346143
0.388151
0.439255
0.501558
0.57683
0.665724
0.766172
0.871577
0.970803
1.05221
1.10978
1.14531
1.16492
1.17486
1.17968
1.18195
1.18299
1.18347
1.18368
1.18377
1.18381
0.658496
0.658371
0.658169
0.657851
0.657357
0.656602
0.655464
0.653775
0.651314
0.647796
0.642885
0.636213
0.627424
0.616238
0.602523
0.586355
0.568035
0.548059
0.527036
0.5056
0.484321
0.463664
0.443947
0.425369
0.408024
0.391929
0.377043
0.363297
0.350603
0.338869
0.328002
0.317913
0.308522
0.299757
0.291556
0.283862
0.276627
0.269808
0.263368
0.257261
0.251444
0.245894
0.240589
0.235513
0.230649
0.225983
0.221504
0.217202
0.213068
0.209094
0.205275
0.201604
0.198077
0.194692
0.191445
0.188336
0.185363
0.182528
0.179832
0.17728
0.174877
0.172631
0.170554
0.16866
0.166972
0.165516
0.164361
0.163513
0.163055
0.163053
0.168488
0.177709
0.18848
0.201025
0.215638
0.232708
0.252733
0.27636
0.304416
0.337962
0.378368
0.427483
0.487434
0.560122
0.646552
0.74536
0.850902
0.952661
1.03848
1.10083
1.14017
1.16228
1.17357
1.17908
1.18167
1.18287
1.18342
1.18366
1.18377
1.18381
0.658494
0.658362
0.65815
0.657816
0.657298
0.656509
0.655322
0.653567
0.651018
0.64739
0.642347
0.635527
0.626586
0.615271
0.601444
0.585212
0.566892
0.546978
0.526072
0.504792
0.483692
0.463217
0.443678
0.425265
0.408068
0.3921
0.377322
0.363667
0.35105
0.33938
0.328565
0.318521
0.309167
0.300434
0.292257
0.284584
0.277367
0.270562
0.264135
0.258039
0.252233
0.246692
0.241395
0.236324
0.231464
0.226801
0.222324
0.218021
0.213884
0.209906
0.206081
0.202402
0.198866
0.195469
0.192208
0.189083
0.186091
0.183235
0.180516
0.177937
0.175504
0.173224
0.17111
0.169177
0.167447
0.165952
0.164761
0.163887
0.163432
0.163474
0.166249
0.175169
0.18556
0.197649
0.211723
0.228153
0.247414
0.270122
0.297065
0.329256
0.36799
0.415025
0.472486
0.542397
0.626085
0.722875
0.828142
0.932187
1.02256
1.0902
1.13397
1.15902
1.17199
1.17834
1.18134
1.18272
1.18335
1.18363
1.18376
1.18381
0.658492
0.658353
0.658129
0.657778
0.657234
0.656406
0.655166
0.653338
0.650692
0.646942
0.641753
0.634769
0.62566
0.614181
0.600254
0.583953
0.565624
0.545769
0.524981
0.503863
0.482951
0.462674
0.443318
0.425077
0.408035
0.392205
0.377549
0.363997
0.351469
0.339873
0.329121
0.319129
0.30982
0.301124
0.292979
0.285333
0.278137
0.271352
0.26494
0.258859
0.253067
0.247538
0.242251
0.237188
0.232334
0.227676
0.223201
0.218899
0.214761
0.21078
0.20695
0.203264
0.199719
0.196311
0.193037
0.189896
0.186887
0.18401
0.181267
0.178661
0.176197
0.173882
0.171728
0.169749
0.167965
0.166406
0.16513
0.164176
0.163612
0.163527
0.164155
0.172655
0.182579
0.194143
0.207618
0.223355
0.241803
0.263541
0.289317
0.320093
0.357098
0.401977
0.456831
0.523792
0.604472
0.698849
0.803356
0.909304
1.00424
1.07762
1.12647
1.15503
1.17003
1.17742
1.18092
1.18254
1.18327
1.1836
1.18375
1.18381
0.658489
0.658342
0.658106
0.657735
0.657162
0.656293
0.654994
0.653085
0.650333
0.646449
0.641099
0.633933
0.624635
0.61298
0.59891
0.582557
0.564213
0.544409
0.523734
0.502775
0.482051
0.461969
0.44282
0.42477
0.407902
0.392226
0.377704
0.364268
0.351837
0.340326
0.329647
0.319718
0.310462
0.301811
0.293706
0.286092
0.278924
0.272163
0.265771
0.259711
0.253936
0.248423
0.243149
0.238097
0.233253
0.228601
0.224131
0.219832
0.215696
0.211714
0.20788
0.204189
0.200637
0.197219
0.193933
0.190777
0.18775
0.184853
0.182086
0.179453
0.176957
0.174606
0.172407
0.170373
0.168521
0.166873
0.165459
0.164334
0.1635
0.163018
0.162918
0.170208
0.179546
0.190515
0.203344
0.218348
0.235943
0.256672
0.281239
0.310552
0.345778
0.388446
0.440599
0.504456
0.581875
0.673438
0.776642
0.883984
0.983332
1.06285
1.11746
1.15016
1.16762
1.17629
1.18041
1.18232
1.18318
1.18356
1.18373
1.18381
0.658487
0.658331
0.658081
0.657688
0.657084
0.656168
0.654804
0.652806
0.649936
0.645903
0.640375
0.63301
0.623504
0.611654
0.597418
0.580964
0.562633
0.542878
0.522313
0.501515
0.480984
0.461113
0.442181
0.424328
0.407641
0.392129
0.377752
0.364447
0.352129
0.340715
0.33012
0.320263
0.31107
0.302474
0.294416
0.286843
0.27971
0.272978
0.266612
0.260575