/*--------------------------------*- C++ -*----------------------------------*\
  =========                 |
  \\      /  F ield         | OpenFOAM: The Open Source CFD Toolbox
   \\    /   O peration     | Website:  https://openfoam.org
    \\  /    A nd           | Version:  8
     \\/     M anipulation  |
\*---------------------------------------------------------------------------*/
FoamFile
{
    version     2.0;
    format      ascii;
    class       volScalarField;
    location    "60/fluid";
    object      T;
}
// * * * * * * * * * * * * * * * * * * * * * * * * * * * * * * * * * * * * * //

dimensions      [0 0 0 1 0 0 0];

internalField   nonuniform List<scalar> 
4000
(
293.035
293.153
293.341
293.638
294.096
294.787
295.813
297.305
299.43
302.39
306.412
311.74
318.609
327.229
337.758
350.29
364.847
381.38
399.782
419.907
441.583
464.634
488.889
514.193
540.408
567.44
595.17
623.541
652.474
681.923
711.853
742.236
773.055
804.284
835.906
867.904
900.256
932.94
965.934
999.213
1032.8
1066.71
1100.93
1135.45
1170.24
1205.29
1240.57
1276.07
1311.74
1347.58
1383.55
1419.58
1455.68
1491.8
1527.89
1563.89
1599.75
1635.4
1670.78
1705.79
1740.34
1774.32
1807.6
1840.03
1871.41
1901.55
1930.16
1956.93
1981.45
2003.1
2021.38
2035.51
2044.48
1970.74
1878.76
1781.11
1678.82
1572.83
1464.07
1353.4
1241.71
1129.88
1018.9
909.817
803.571
701.751
606.807
521.576
449.009
391.539
350.083
323.276
307.814
299.858
296.06
294.323
293.553
293.218
293.074
293.013
293.034
293.145
293.324
293.602
294.03
294.673
295.625
297.008
298.98
301.736
305.502
310.525
317.058
325.329
335.524
347.761
362.082
378.454
396.774
416.892
438.631
461.806
486.238
511.771
538.26
565.535
593.548
622.171
651.361
681.067
711.251
741.894
772.966
804.443
836.306
868.535
901.114
934.017
967.223
1000.71
1034.49
1068.6
1103.02
1137.72
1172.7
1207.93
1243.39
1279.05
1314.89
1350.87
1386.97
1423.17
1459.41
1495.65
1531.85
1567.95
1603.9
1639.64
1675.08
1710.15
1744.74
1778.74
1812.01
1844.4
1875.72
1905.72
1934.13
1960.59
1984.67
2005.62
2023.14
2036.28
2044.23
1957.37
1863.42
1763.75
1659.52
1551.69
1441.2
1328.9
1215.68
1102.46
990.285
880.237
773.412
671.813
578.214
495.705
427.298
375.067
339.065
316.896
304.591
298.378
295.417
294.057
293.447
293.178
293.061
293.011
293.032
293.136
293.303
293.565
293.966
294.57
295.465
296.77
298.635
301.251
304.837
309.641
315.915
323.896
333.782
345.71
359.743
375.865
393.991
413.986
435.681
458.896
483.445
509.121
535.765
563.299
591.558
620.479
649.99
680.034
710.586
741.598
773.031
804.873
837.106
869.703
902.642
935.909
969.473
1003.31
1037.44
1071.89
1106.64
1141.66
1176.95
1212.48
1248.23
1284.17
1320.28
1356.53
1392.89
1429.33
1465.8
1502.27
1538.68
1574.98
1611.12
1647.02
1682.61
1717.8
1752.5
1786.56
1819.87
1852.24
1883.47
1913.3
1941.4
1967.39
1990.64
2010.4
2025.86
2036.18
2031.1
1937.62
1839.02
1735.87
1628.89
1518.88
1406.65
1293.05
1178.99
1065.45
953.581
844.446
739.415
640.813
551.445
474.204
411.578
364.809
333.13
313.786
303.077
297.68
295.105
293.92
293.389
293.155
293.053
293.009
293.03
293.127
293.284
293.529
293.905
294.472
295.314
296.545
298.31
300.793
304.213
308.816
314.858
322.585
332.207
343.877
357.671
373.59
391.565
411.472
433.146
456.374
480.959
506.745
533.586
561.323
589.846
619.061
648.893
679.303
710.225
741.611
773.445
805.704
838.357
871.387
904.763
938.463
972.46
1006.73
1041.3
1076.18
1111.35
1146.8
1182.51
1218.45
1254.59
1290.92
1327.4
1364.01
1400.71
1437.47
1474.25
1511
1547.68
1584.22
1620.58
1656.67
1692.42
1727.74
1762.51
1796.62
1829.9
1862.18
1893.23
1922.79
1950.49
1975.93
1998.32
2017.06
2031.36
2040.2
2000.64
1905.31
1804.73
1699.7
1591.11
1479.82
1366.72
1252.71
1138.75
1025.88
915.277
807.955
705.537
610.463
525.456
453.211
395.839
354.038
326.483
310.098
301.221
296.814
294.72
293.755
293.321
293.128
293.044
293.008
293.028
293.119
293.266
293.496
293.85
294.384
295.18
296.346
298.023
300.39
303.665
308.091
313.928
321.43
330.82
342.262
355.852
371.606
389.464
409.299
430.928
454.178
478.857
504.794
531.821
559.77
588.544
618.046
648.213
678.964
710.242
742.019
774.265
806.945
840.035
873.505
907.34
941.504
975.965
1010.7
1045.74
1081.09
1116.73
1152.64
1188.8
1225.18
1261.76
1298.51
1335.41
1372.41
1409.5
1446.62
1483.74
1520.82
1557.79
1594.61
1631.21
1667.51
1703.43
1738.87
1773.72
1807.84
1841.06
1873.18
1903.97
1933.1
1960.2
1984.79
2005.94
2023.55
2036.52
2044.18
1961.59
1867.16
1766.12
1660.19
1550.7
1438.77
1325.4
1211.58
1098.31
986.696
877.829
772.792
673.446
582.271
501.889
434.763
382.56
345.391
321.42
307.409
299.912
296.205
294.446
293.635
293.27
293.108
293.037
293.007
293.026
293.112
293.25
293.467
293.8
294.305
295.058
296.164
297.761
300.024
303.168
307.436
313.092
320.397
329.585
340.836
354.26
369.884
387.647
407.422
429.059
452.366
477.154
503.244
530.44
558.617
587.649
617.451
647.927
679.008
710.65
742.813
775.461
808.564
842.094
876.019
910.312
944.94
979.87
1015.08
1050.6
1086.44
1122.56
1158.96
1195.59
1232.44
1269.48
1306.67
1344
1381.42
1418.9
1456.4
1493.87
1531.27
1568.54
1605.62
1642.45
1678.94
1715.01
1750.54
1785.42
1819.49
1852.58
1884.47
1914.86
1943.42
1969.68
1992.83
2012.13
2026.67
2035.43
2029.14
1934.34
1834.36
1729.9
1621.83
1511.06
1398.51
1285.11
1171.77
1059.52
949.437
842.502
739.939
643.794
556.507
480.593
418.266
370.784
337.749
316.932
305.007
298.734
295.655
294.199
293.528
293.225
293.09
293.031
293.006
293.024
293.105
293.235
293.44
293.755
294.233
294.948
296.001
297.526
299.697
302.723
306.85
312.345
319.476
328.487
339.573
352.855
368.36
386.051
405.812
427.48
450.867
475.785
502.02
529.417
557.824
587.122
617.205
647.982
679.394
711.389
743.924
776.959
810.467
844.409
878.769
913.507
948.586
983.972
1019.64
1055.64
1091.95
1128.55
1165.42
1202.52
1239.83
1277.31
1314.95
1352.7
1390.53
1428.41
1466.27
1504.09
1541.81
1579.37
1616.71
1653.75
1690.41
1726.6
1762.2
1797.08
1831.08
1864.01
1895.63
1925.65
1953.69
1979.3
2001.45
2019.72
2033.08
2040.48
1996.07
1900.12
1798.68
1692.9
1583.86
1472.53
1359.86
1246.77
1134.19
1023.15
914.701
809.754
709.729
616.776
533.297
461.686
403.9
360.775
331.43
313.318
303.115
297.817
295.229
294.007
293.444
293.189
293.076
293.026
293.005
293.023
293.099
293.222
293.415
293.714
294.168
294.848
295.853
297.314
299.4
302.321
306.322
311.673
318.65
327.508
338.451
351.608
367.03
384.678
404.444
426.163
449.645
474.687
501.096
528.695
557.333
586.89
617.246
648.323
680.056
712.39
745.28
778.691
812.59
846.939
881.71
916.867
952.373
988.189
1024.3
1060.75
1097.51
1134.56
1171.88
1209.42
1247.17
1285.08
1323.14
1361.29
1399.51
1437.74
1475.96
1514.09
1552.1
1589.91
1627.47
1664.69
1701.48
1737.75
1773.37
1808.19
1842.04
1874.72
1905.97
1935.45
1962.79
1987.44
2008.45
2025.78
2038.43
2045.87
1962.29
1866.04
1763.84
1657.3
1547.71
1436.15
1323.6
1211.01
1099.34
989.592
882.764
779.791
682.282
592.431
512.592
445.029
391.429
352.222
326.106
310.305
301.547
297.058
294.876
293.847
293.374
293.16
293.064
293.022
293.004
293.022
293.094
293.21
293.393
293.677
294.108
294.758
295.72
297.122
299.132
301.958
305.845
311.068
317.908
326.629
337.445
350.503
365.859
383.484
403.27
425.056
448.648
473.831
500.415
528.22
557.092
586.891
617.518
648.885
680.923
713.577
746.802
780.561
814.817
849.546
884.705
920.256
956.162
992.382
1028.91
1065.78
1102.97
1140.45
1178.18
1216.14
1254.3
1292.62
1331.06
1369.6
1408.17
1446.75
1485.28
1523.71
1561.98
1600.03
1637.78
1675.15
1712.05
1748.37
1783.97
1818.7
1852.37
1884.75
1915.54
1944.37
1970.74
1993.68
2012.58
2026.47
2034.17
2031.65
1937.35
1837.38
1732.87
1624.92
1514.54
1402.7
1290.3
1178.24
1067.47
958.993
853.698
752.621
657.531
570.633
494.229
430.442
380.684
344.99
321.69
307.848
300.284
296.45
294.593
293.72
293.318
293.136
293.055
293.019
293.003
293.021
293.089
293.199
293.373
293.643
294.055
294.676
295.598
296.948
298.89
301.63
305.414
310.521
317.237
325.836
336.544
349.518
364.824
382.438
402.255
424.112
447.814
473.148
499.911
527.919
557.016
587.062
617.95
649.594
681.923
714.882
748.425
782.515
817.113
852.187
887.699
923.611
959.881
996.469
1033.38
1070.63
1108.21
1146.07
1184.18
1222.52
1261.05
1299.73
1338.53
1377.4
1416.29
1455.17
1493.98
1532.66
1571.16
1609.4
1647.3
1684.79
1721.76
1758.09
1793.65
1828.28
1861.77
1893.88
1924.3
1952.64
1978.39
2000.33
2018.4
2031
2037.25
2007.39
1911.02
1809.33
1703.54
1594.75
1483.93
1372
1259.87
1148.4
1038.54
931.269
827.415
728.146
635.352
551.233
478.036
417.736
371.464
338.887
318.02
305.83
299.255
295.955
294.364
293.616
293.272
293.116
293.047
293.016
293.003
293.02
293.085
293.189
293.355
293.612
294.006
294.601
295.488
296.79
298.669
301.331
305.023
310.024
316.629
325.119
335.732
348.635
363.902
381.516
401.375
423.314
447.132
472.615
499.555
527.762
557.074
587.354
618.49
650.394
682.995
716.238
750.077
784.471
819.385
854.781
890.622
926.867
963.475
1000.41
1037.66
1075.27
1113.2
1151.42
1189.89
1228.58
1267.45
1306.46
1345.57
1384.75
1423.93
1463.08
1502.14
1541.05
1579.74
1618.14
1656.18
1693.75
1730.76
1767.09
1802.59
1837.09
1870.38
1902.22
1932.29
1960.21
1985.49
2006.94
2024.58
2037.1
2043.7
1982.27
1885.15
1782.68
1676.24
1567
1455.99
1344.13
1232.33
1121.46
1012.47
906.305
803.784
706.214
615.568
534.038
463.812
406.709
363.581
333.752
314.98
304.178
298.42
295.555
294.178
293.532
293.235
293.101
293.041
293.014
293.002
293.019
293.081
293.18
293.338
293.584
293.962
294.533
295.388
296.646
298.469
301.06
304.668
309.574
316.078
324.47
334.998
347.839
363.076
380.698
400.603
422.628
446.562
472.191
499.301
527.701
557.219
587.719
619.088
651.235
684.089
717.593
751.702
786.375
821.57
857.253
893.384
929.922
966.826
1004.05
1041.62
1079.54
1117.78
1156.31
1195.08
1234.07
1273.24
1312.54
1351.93
1391.37
1430.8
1470.18
1509.45
1548.54
1587.39
1625.91
1664.04
1701.67
1738.68
1774.96
1810.35
1844.66
1877.7
1909.18
1938.78
1966.11
1990.6
2011.31
2028.16
2040.11
2046.45
1960.91
1862.34
1758.82
1651.67
1542.02
1430.85
1319.08
1207.61
1097.31
989.122
883.96
782.661
686.669
598.013
518.874
451.377
397.18
356.865
329.443
312.461
302.822
297.744
295.231
294.028
293.464
293.205
293.088
293.035
293.012
293.002
293.018
293.077
293.172
293.323
293.559
293.921
294.472
295.297
296.516
298.287
300.814
304.344
309.163
315.576
323.88
334.332
347.118
362.332
379.964
399.916
422.021
446.071
471.841
499.114
527.693
557.407
588.114
619.698
652.07
685.156
718.9
753.256
788.183
823.644
859.595
895.997
932.808
969.987
1007.49
1045.34
1083.55
1122.07
1160.88
1199.94
1239.2
1278.63
1318.19
1357.82
1397.49
1437.14
1476.72
1516.17
1555.42
1594.4
1633.04
1671.23
1708.89
1745.89
1782.1
1817.36
1851.46
1884.18
1915.21
1944.2
1970.67
1993.69
2012.7
2026.94
2035.72
2036.59
1942.55
1842.48
1737.88
1629.99
1519.9
1408.56
1296.86
1185.67
1075.87
968.405
864.12
763.924
669.374
582.537
505.582
440.568
388.988
351.167
325.837
310.379
301.712
297.194
294.969
293.906
293.409
293.181
293.077
293.031
293.011
293.002
293.017
293.074
293.165
293.31
293.536
293.885
294.417
295.215
296.398
298.122
300.59
304.05
308.79
315.119
323.342
333.726
346.464
361.658
379.302
399.301
421.485
445.643
471.546
498.972
527.718
557.611
588.506
620.286
652.86
686.154
720.11
754.681
789.825
825.503
861.674
898.3
935.338
972.744
1010.48
1048.57
1087.01
1125.78
1164.82
1204.11
1243.6
1283.26
1323.03
1362.87
1402.74
1442.57
1482.32
1521.92
1561.29
1600.38
1639.09
1677.33
1715
1751.98
1788.11
1823.24
1857.14
1889.57
1920.2
1948.64
1974.35
1996.05
2013.63
2025.61
2030.92
2023.5
1927.09
1825.38
1719.66
1611.05
1500.54
1389.03
1277.38
1166.43
1057.06
950.213
846.679
747.444
654.194
569.007
494.028
431.245
381.996
346.363
322.834
308.664
300.805
296.746
294.756
293.807
293.364
293.161
293.069
293.028
293.01
293.002
293.016
293.071
293.158
293.298
293.516
293.853
294.367
295.141
296.292
297.974
300.389
303.785
308.453
314.706
322.855
333.176
345.871
361.047
378.704
398.748
421.008
445.265
471.289
498.853
527.751
557.805
588.869
620.825
653.58
687.061
721.208
755.976
791.321
827.207
863.591
900.43
937.682
975.3
1013.25
1051.56
1090.22
1129.19
1168.45
1207.94
1247.63
1287.48
1327.44
1367.46
1407.49
1447.48
1487.36
1527.09
1566.57
1605.75
1644.53
1682.81
1720.5
1757.46
1793.55
1828.58
1862.35
1894.6
1925.01
1953.15
1978.47
1999.8
2016.93
2028.66
2034.07
2010.37
1912.8
1810.15
1703.72
1594.61
1483.8
1372.18
1260.57
1149.83
1040.83
934.496
831.598
733.206
641.091
557.345
484.109
423.295
376.089
342.348
320.352
307.26
300.068
296.383
294.583
293.727
293.328
293.145
293.062
293.025
293.009
293.002
293.016
293.068
293.152
293.287
293.498
293.824
294.323
295.076
296.197
297.841
300.209
303.548
308.151
314.335
322.418
332.681
345.336
360.496
378.165
398.248
420.573
444.92
471.053
498.741
527.773
557.969
589.181
621.289
654.199
687.835
722.141
757.067
792.571
828.613
865.152
902.146
939.555
977.333
1015.44
1053.92
1092.75
1131.89
1171.31
1210.97
1250.83
1290.83
1330.94
1371.1
1411.27
1451.39
1491.39
1531.21
1570.78
1610.03
1648.86
1687.18
1724.88
1761.83
1797.89
1832.89
1866.59
1898.77
1929.08
1957.14
1982.41
2003.74
2021.1
2033.27
2039.66
1998.76
1900.37
1797.06
1690.13
1580.68
1469.67
1357.97
1246.41
1135.84
1027.13
921.199
818.823
721.143
629.993
547.486
475.747
416.63
371.174
339.039
318.325
306.122
299.474
296.092
294.444
293.662
293.298
293.132
293.056
293.023
293.008
293.001
293.015
293.066
293.147
293.278
293.482
293.799
294.284
295.019
296.115
297.726
300.052
303.34
307.885
314.008
322.031
332.243
344.862
360.006
377.684
397.801
420.184
444.608
470.836
498.629
527.776
558.094
589.432
621.668
654.709
688.48
722.922
757.988
793.633
829.82
866.507
903.653
941.213
979.139
1017.39
1056.02
1094.99
1134.28
1173.84
1213.64
1253.62
1293.75
1333.98
1374.26
1414.53
1454.74
1494.83
1534.73
1574.37
1613.67
1652.54
1690.88
1728.6
1765.55
1801.59
1836.55
1870.22
1902.34
1932.6
1960.62
1985.86
2007.21
2024.71
2037.13
2044
1989.52
1890.35
1786.47
1679.12
1569.38
1458.2
1346.42
1234.89
1124.43
1015.94
910.328
808.358
711.239
620.872
539.384
468.891
411.185
367.183
336.372
316.703
305.217
299.003
295.861
294.335
293.611
293.275
293.121
293.052
293.021
293.007
293.001
293.015
293.064
293.143
293.27
293.469
293.778
294.253
294.972
296.047
297.63
299.92
303.165
307.661
313.731
321.702
331.87
344.457
359.587
377.271
397.415
419.845
444.333
470.637
498.516
527.756
558.171
589.607
621.944
655.085
688.955
723.495
758.658
794.399
830.68
867.462
904.705
942.363
980.386
1018.74
1057.46
1096.54
1135.93
1175.59
1215.48
1255.56
1295.78
1336.1
1376.46
1416.81
1457.1
1497.25
1537.21
1576.89
1616.23
1655.13
1693.49
1731.22
1768.16
1804.19
1839.13
1872.77
1904.86
1935.08
1963.06
1988.29
2009.62
2027.14
2039.59
2046.47
1982.77
1882.89
1778.49
1670.78
1560.79
1449.44
1337.59
1226.06
1115.68
1007.33
901.921
800.227
703.52
613.745
533.043
463.524
406.931
364.077
334.306
315.453
304.522
298.643
295.685
294.251
293.573
293.258
293.114
293.049
293.02
293.007
293.001
293.014
293.062
293.14
293.265
293.46
293.763
294.229
294.937
295.996
297.557
299.82
303.032
307.489
313.518
321.449
331.581
344.143
359.26
376.948
397.112
419.576
444.112
470.471
498.414
527.721
558.206
589.714
622.123
655.337
689.28
723.894
759.129
794.944
831.301
868.161
905.484
943.223
981.327
1019.76
1058.56
1097.71
1137.17
1176.91
1216.86
1257.01
1297.29
1337.67
1378.08
1418.48
1458.81
1499
1538.99
1578.7
1618.05
1656.96
1695.33
1733.04
1769.97
1805.97
1840.88
1874.47
1906.51
1936.69
1964.62
1989.79
2011.06
2028.52
2040.91
2047.62
1978.3
1877.86
1773.06
1665.07
1554.89
1443.44
1331.53
1219.98
1109.63
1001.36
896.065
794.541
698.099
608.718
528.555
459.716
403.911
361.874
332.845
314.573
304.035
298.391
295.562
294.193
293.546
293.245
293.108
293.046
293.019
293.006
293.001
293.014
293.062
293.139
293.262
293.455
293.755
294.216
294.917
295.967
297.517
299.764
302.957
307.393
313.398
321.306
331.418
343.965
359.075
376.764
396.938
419.42
443.98
470.37
498.346
527.688
558.209
589.754
622.199
655.448
689.425
724.071
759.337
795.183
831.571
868.463
905.818
943.59
981.728
1020.2
1059.03
1098.22
1137.71
1177.48
1217.47
1257.65
1297.96
1338.36
1378.81
1419.23
1459.58
1499.79
1539.8
1579.52
1618.88
1657.8
1696.17
1733.87
1770.8
1806.79
1841.67
1875.25
1907.26
1937.42
1965.33
1990.5
2011.81
2029.4
2042.04
2049.25
1976.65
1875.59
1770.41
1662.19
1551.88
1440.35
1328.4
1216.85
1106.51
998.281
893.048
791.612
695.309
606.134
526.251
457.765
402.366
360.746
332.094
314.118
303.782
298.26
295.498
294.163
293.532
293.239
293.105
293.045
293.018
293.006
293.001
293.014
293.062
293.139
293.262
293.455
293.755
294.216
294.917
295.967
297.516
299.763
302.957
307.392
313.398
321.307
331.419
343.967
359.078
376.767
396.941
419.423
443.983
470.372
498.346
527.688
558.208
589.753
622.198
655.448
689.426
724.074
759.342
795.19
831.581
868.475
905.833
943.608
981.749
1020.22
1059.06
1098.24
1137.74
1177.5
1217.49
1257.67
1297.98
1338.38
1378.82
1419.24
1459.59
1499.79
1539.79
1579.51
1618.87
1657.78
1696.14
1733.85
1770.76
1806.75
1841.63
1875.19
1907.2
1937.35
1965.26
1990.41
2011.71
2029.29
2041.94
2049.2
1976.68
1875.62
1770.44
1662.21
1551.89
1440.35
1328.4
1216.84
1106.49
998.257
893.019
791.58
695.277
606.104
526.226
457.747
402.354
360.74
332.092
314.117
303.782
298.261
295.499
294.163
293.532
293.239
293.105
293.045
293.018
293.006
293.001
293.014
293.062
293.14
293.264
293.46
293.763
294.229
294.936
295.995
297.556
299.818
303.031
307.488
313.518
321.45
331.584
344.146
359.266
376.954
397.119
419.582
444.115
470.473
498.412
527.716
558.197
589.701
622.107
655.318
689.258
723.868
759.099
794.91
831.262
868.118
905.436
943.17
981.269
1019.7
1058.5
1097.64
1137.1
1176.83
1216.79
1256.93
1297.22
1337.59
1378
1418.4
1458.73
1498.92
1538.9
1578.61
1617.97
1656.88
1695.24
1732.95
1769.88
1805.88
1840.79
1874.38
1906.42
1936.59
1964.52
1989.68
2010.93
2028.37
2040.74
2047.48
1978.35
1877.9
1773.08
1665.08
1554.9
1443.43
1331.51
1219.95
1109.59
1001.3
896.001
794.472
698.03
608.657
528.506
459.683
403.89
361.861
332.837
314.567
304.031
298.389
295.561
294.192
293.545
293.245
293.108
293.046
293.019
293.006
293.001
293.015
293.064
293.143
293.27
293.469
293.778
294.252
294.971
296.046
297.629
299.918
303.164
307.66
313.731
321.705
331.874
344.464
359.596
377.281
397.426
419.854
444.341
470.64
498.515
527.75
558.159
589.591
621.925
655.064
688.933
723.473
758.637
794.379
830.663
867.449
904.696
942.356
980.381
1018.74
1057.46
1096.54
1135.92
1175.58
1215.47
1255.54
1295.76
1336.07
1376.42
1416.77
1457.04
1497.19
1537.13
1576.81
1616.14
1655.03
1693.38
1731.09
1768.03
1804.05
1838.97
1872.6
1904.69
1934.91
1962.9
1988.12
2009.44
2026.94
2039.36
2046.21
1982.77
1882.88
1778.48
1670.76
1560.77
1449.42
1337.56
1226.02
1115.62
1007.25
901.83
800.127
703.419
613.653
532.968
463.47
406.895
364.054
334.291
315.443
304.516
298.639
295.683
294.25
293.572
293.257
293.114
293.049
293.02
293.007
293.001
293.015
293.066
293.147
293.277
293.482
293.798
294.284
295.018
296.114
297.725
300.05
303.339
307.885
314.009
322.034
332.249
344.871
360.018
377.698
397.815
420.197
444.618
470.841
498.628
527.768
558.079
589.41
621.641
654.675
688.44
722.876
757.935
793.575
829.754
866.432
903.569
941.12
979.038
1017.29
1055.9
1094.87
1134.15
1173.71
1213.5
1253.48
1293.6
1333.83
1374.1
1414.37
1454.57
1494.65
1534.55
1574.18
1613.47
1652.34
1690.68
1728.38
1765.33
1801.36
1836.32
1869.98
1902.1
1932.36
1960.37
1985.6
2006.92
2024.37
2036.74
2043.57
1989.57
1890.39
1786.5
1679.16
1569.41
1458.21
1346.42
1234.87
1124.39
1015.87
910.241
808.256
711.135
620.778
539.308
468.836
411.148
367.156
336.351
316.687
305.205
298.996
295.857
294.333
293.611
293.275
293.121
293.052
293.021
293.007
293.001
293.016
293.068
293.152
293.287
293.497
293.823
294.322
295.075
296.196
297.84
300.208
303.547
308.151
314.336
322.422
332.688
345.347
360.51
378.182
398.267
420.591
444.936
471.064
498.744
527.769
557.957
589.161
621.262
654.165
687.797
722.1
757.024
792.528
828.572
865.111
902.108
939.518
977.295
1015.4
1053.88
1092.7
1131.84
1171.26
1210.91
1250.76
1290.75
1330.85
1371.01
1411.16
1451.27
1491.25
1531.06
1570.63
1609.86
1648.68
1686.99
1724.67
1761.62
1797.66
1832.64
1866.34
1898.5
1928.8
1956.83
1982.04
2003.32
2020.55
2032.62
2038.96
1998.85
1900.43
1797.12
1690.19
1580.73
1469.7
1357.98
1246.4
1135.8
1027.06
921.114
818.727
721.046
629.907
547.419
475.702
416.6
371.151
339.018
318.305
306.106
299.463
296.086
294.441
293.661
293.298
293.131
293.056
293.023
293.008
293.001
293.016
293.07
293.158
293.297
293.515
293.852
294.366
295.14
296.291
297.973
300.388
303.785
308.453
314.708
322.861
333.185
345.885
361.065
378.727
398.774
421.034
445.289
471.308
498.864
527.752
557.797
588.851
620.796
653.541
687.012
721.151
755.909
791.246
827.121
863.493
900.32
937.56
975.169
1013.11
1051.4
1090.05
1129.02
1168.27
1207.75
1247.43
1287.27
1327.22
1367.23
1407.26
1447.23
1487.11
1526.82
1566.3
1605.46
1644.23
1682.5
1720.18
1757.13
1793.21
1828.24
1862.01
1894.26
1924.65
1952.78
1978.05
1999.3
2016.28
2027.86
2033.18
2010.48
1912.89
1810.26
1703.84
1594.73
1483.91
1372.26
1260.62
1149.85
1040.81
934.448
831.533
733.135
641.028
557.301
484.085
423.282
376.076
342.331
320.332
307.242
300.055
296.376
294.579
293.725
293.327
293.144
293.062
293.025
293.009
293.002
293.017
293.073
293.165
293.31
293.536
293.885
294.416
295.214
296.397
298.121
300.59
304.05
308.791
315.123
323.349
333.737
346.481
361.681
379.331
399.334
421.519
445.676
471.574
498.992
527.728
557.61
588.493
620.261
652.824
686.107
720.054
754.618
789.756
825.428
861.598
898.222
935.257
972.661
1010.39
1048.48
1086.92
1125.67
1164.71
1203.99
1243.47
1283.11
1322.88
1362.71
1402.56
1442.38
1482.11
1521.69
1561.06
1600.13
1638.82
1677.05
1714.71
1751.67
1787.8
1822.91
1856.81
1889.23
1919.86
1948.29
1973.98
1995.66
2013.22
2025.21
2030.71
2023.72
1927.28
1825.59
1719.88
1611.27
1500.73
1389.19
1277.5
1166.51
1057.1
950.215
846.657
747.414
654.17
568.999
494.036
431.258
382.002
346.355
322.816
308.644
300.789
296.736
294.75
293.804
293.363
293.16
293.069
293.028
293.01
293.002
293.018
293.077
293.172
293.323
293.559
293.921
294.472
295.297
296.515
298.287
300.814
304.345
309.165
315.58
323.888
334.346
347.139
362.36
380
399.958
422.066
446.115
471.88
499.145
527.713
557.414
588.107
619.677
652.036
685.109
718.842
753.186
788.1
823.548
859.486
895.876
932.677
969.845
1007.34
1045.18
1083.37
1121.89
1160.68
1199.73
1238.98
1278.39
1317.93
1357.56
1397.21
1436.85
1476.42
1515.85
1555.08
1594.05
1632.66
1670.84
1708.49
1745.48
1781.67
1816.92
1851.02
1883.74
1914.78
1943.78
1970.28
1993.36
2012.42
2026.77
2035.76
2036.85
1942.87
1842.87
1738.28
1630.37
1520.24
1408.85
1297.09
1185.85
1075.99
968.484
864.168
763.956
669.407
582.581
505.636
440.621
389.024
351.177
325.825
310.359
301.694
297.182
294.962
293.902
293.407
293.18
293.077
293.031
293.011
293.002
293.019
293.08
293.18
293.338
293.584
293.961
294.533
295.388
296.646
298.469
301.061
304.669
309.577
316.084
324.481
335.015
347.864
363.111
380.742
400.655
422.685
446.62
472.245
499.347
527.735
557.24
587.724
619.077
651.208
684.047
717.537
751.633
786.293
821.479
857.154
893.278
929.81
966.707
1003.93
1041.49
1079.4
1117.63
1156.14
1194.91
1233.89
1273.04
1312.32
1351.7
1391.12
1430.54
1469.9
1509.15
1548.22
1587.05
1625.56
1663.67
1701.28
1738.29
1774.55
1809.93
1844.25
1877.28
1908.77
1938.39
1965.74
1990.28
2011.03
2027.98
2040.06
2046.51
1962
1863.21
1759.56
1652.3
1542.55
1431.3
1319.46
1207.9
1097.54
989.299
884.096
782.774
686.776
598.125
518.991
451.484
397.257
356.901
329.444
312.444
302.802
297.73
295.223
294.023
293.462
293.204
293.087
293.035
293.012
293.002
293.02
293.085
293.189
293.355
293.612
294.006
294.601
295.488
296.791
298.671
301.333
305.026
310.03
316.638
325.133
335.753
348.665
363.943
381.569
401.437
423.382
447.203
472.683
499.615
527.811
557.109
587.372
618.491
650.378
682.963
716.191
750.014
784.394
819.295
854.679
890.508
926.74
963.336
1000.25
1037.5
1075.1
1113.01
1151.21
1189.67
1228.34
1267.19
1306.18
1345.28
1384.44
1423.6
1462.73
1501.77
1540.66
1579.33
1617.71
1655.73
1693.28
1730.28
1766.59
1802.07
1836.55
1869.83
1901.66
1931.72
1959.63
1984.9
2006.33
2023.96
2036.45
2043.08
1983.17
1885.98
1783.45
1676.95
1567.65
1456.56
1344.63
1232.75
1121.81
1012.76
906.552
804
706.416
615.768
534.234
463.989
406.841
363.655
333.774
314.971
304.159
298.403
295.545
294.173
293.53
293.234
293.1
293.04
293.014
293.002
293.021
293.089
293.199
293.373
293.643
294.055
294.676
295.599
296.95
298.892
301.633
305.42
310.528
317.248
325.853
336.569
349.553
364.873
382.5
402.331
424.198
447.903
473.235
499.991
527.988
557.07
587.097
617.965
649.589
681.9
714.841
748.368
782.442
817.027
852.088
887.587
923.487
959.745
996.32
1033.22
1070.46
1108.02
1145.86
1183.96
1222.29
1260.8
1299.46
1338.24
1377.09
1415.96
1454.82
1493.61
1532.27
1570.75
1608.96
1646.85
1684.32
1721.27
1757.59
1793.14
1827.75
1861.22
1893.32
1923.71
1952.01
1977.7
1999.56
2017.51
2029.99
2036.19
2008.34
1911.9
1810.18
1704.37
1595.54
1484.66
1372.67
1260.45
1148.91
1038.98
931.65
827.757
728.465
635.66
551.529
478.301
417.942
371.591
338.94
318.024
305.814
299.237
295.944
294.357
293.613
293.271
293.116
293.047
293.016
293.003
293.022
293.094
293.21
293.393
293.677
294.109
294.759
295.721
297.125
299.136
301.964
305.853
311.078
317.922
326.649
337.475
350.545
365.916
383.557
403.358
425.156
448.754
473.938
500.515
528.308
557.162
586.943
617.549
648.894
680.912
713.546
746.753
780.495
814.735
849.449
884.593
920.13
956.022
992.228
1028.74
1065.6
1102.77
1140.23
1177.94
1215.89
1254.02
1292.32
1330.74
1369.25
1407.81
1446.36
1484.87
1523.27
1561.52
1599.54
1637.27
1674.62
1711.49
1747.79
1783.37
1818.09
1851.75
1884.12
1914.91
1943.73
1970.09
1993.02
2011.92
2025.84
2033.7
2032.21
1938.09
1838.23
1733.77
1625.82
1515.42
1403.52
1291.05
1178.92
1068.08
959.53
854.188
753.08
657.97
571.049
494.602
430.741
380.881
345.087
321.716
307.839
300.266
296.437
294.585
293.716
293.316
293.135
293.054
293.019
293.003
293.023
293.1
293.222
293.416
293.714
294.169
294.85
295.856
297.318
299.406
302.329
306.332
311.686
318.667
327.531
338.485
351.657
367.095
384.762
404.545
426.278
449.767
474.812
501.215
528.803
557.425
586.964
617.297
648.35
680.059
712.371
745.24
778.631
812.51
846.841
881.594
916.734
952.223
988.022
1024.12
1060.55
1097.29
1134.32
1171.62
1209.14
1246.87
1284.76
1322.79
1360.93
1399.12
1437.33
1475.52
1513.63
1551.61
1589.41
1626.94
1664.14
1700.91
1737.15
1772.75
1807.56
1841.41
1874.08
1905.32
1934.81
1962.15
1986.81
2007.83
2025.23
2038.02
2045.78
1964.1
1867.58
1765.23
1658.58
1548.9
1437.24
1324.6
1211.92
1100.15
990.326
883.436
780.418
682.876
592.991
513.097
445.443
391.717
352.38
326.163
310.308
301.531
297.044
294.867
293.842
293.371
293.158
293.064
293.022
293.004
293.024
293.106
293.236
293.44
293.756
294.234
294.95
296.005
297.532
299.705
302.733
306.863
312.361
319.497
328.515
339.612
352.909
368.435
386.146
405.927
427.613
451.012
475.933
502.165
529.549
557.939
587.214
617.275
648.025
679.41
711.379
743.89
776.904
810.39
844.315
878.659
913.379
948.442
983.811
1019.47
1055.44
1091.74
1128.32
1165.16
1202.24
1239.53
1276.99
1314.6
1352.33
1390.14
1427.98
1465.82
1503.61
1541.3
1578.83
1616.14
1653.15
1689.79
1725.94
1761.52
1796.37
1830.34
1863.24
1894.83
1924.8
1952.8
1978.34
2000.37
2018.53
2031.76
2039.16
1997.8
1901.71
1800.18
1694.34
1585.23
1473.83
1361.07
1247.88
1135.22
1024.09
915.569
810.569
710.502
617.504
533.957
462.239
404.303
361.014
331.534
313.341
303.104
297.803
295.219
294.001
293.441
293.188
293.075
293.026
293.005
293.026
293.112
293.25
293.467
293.801
294.307
295.062
296.169
297.769
300.035
303.181
307.452
313.111
320.421
329.617
340.879
354.319
369.966
387.753
407.553
429.208
452.529
477.322
503.409
530.595
558.752
587.761
617.536
647.986
679.037
710.651
742.787
775.41
808.488
841.995
875.897
910.168
944.775
979.684
1014.87
1050.37
1086.19
1122.29
1158.66
1195.27
1232.1
1269.11
1306.28
1343.58
1380.98
1418.43
1455.9
1493.35
1530.72
1567.97
1605.02
1641.82
1678.29
1714.33
1749.84
1784.69
1818.75
1851.82
1883.68
1914.06
1942.6
1968.83
1991.93
2011.16
2025.68
2034.4
2030.05
1935.53
1835.71
1731.33
1623.29
1512.51
1399.92
1286.44
1173.03
1060.69
950.53
843.532
740.916
644.715
557.35
481.312
418.811
371.13
337.919
316.985
305.006
298.722
295.645
294.192
293.524
293.223
293.089
293.031
293.005
293.028
293.119
293.267
293.497
293.852
294.387
295.185
296.353
298.032
300.404
303.681
308.11
313.95
321.457
330.853
342.308
355.915
371.692
389.577
409.44
431.092
454.358
479.044
504.978
531.995
559.926
588.675
618.149
648.285
679.006
710.252
741.999
774.215
806.869
839.936
873.383
907.199
941.342
975.784
1010.5
1045.52
1080.85
1116.47
1152.36
1188.5
1224.86
1261.41
1298.14
1335.01
1371.99
1409.05
1446.15
1483.24
1520.28
1557.23
1594.02
1630.58
1666.85
1702.74
1738.15
1772.97
1807.06
1840.25
1872.34
1903.09
1932.19
1959.23
1983.74
2004.77
2022.25
2035.08
2042.59
1963.24
1868.89
1767.89
1661.96
1552.44
1440.46
1327.01
1213.1
1099.74
988.041
879.1
774.002
674.591
583.325
502.805
435.48
383.041
345.648
321.519
307.425
299.904
296.194
294.438
293.631
293.268
293.107
293.037
293.007
293.03
293.127
293.284
293.53
293.907
294.476
295.32
296.553
298.322
300.809
304.232
308.838
314.882
322.613
332.242
343.922
357.735
373.678
391.682
411.619
433.32
456.569
481.165
506.95
533.779
561.497
589.993
619.176
648.976
679.351
710.24
741.593
773.394
805.621
838.247
871.25
904.598
938.274
972.246
1006.49
1041.03
1075.89
1111.04
1146.47
1182.15
1218.06
1254.17
1290.48
1326.93
1363.52
1400.19
1436.92
1473.67
1510.4
1547.05
1583.56
1619.89
1655.96
1691.68
1726.97
1761.71
1795.79
1829.04
1861.29
1892.31
1921.82
1949.47
1974.83
1997.13
2015.75
2029.9
2038.67
2003.38
1907.71
1806.96
1701.85
1593.18
1481.82
1368.64
1254.53
1140.47
1027.51
916.818
809.423
706.932
611.758
526.601
454.138
396.491
354.416
326.65
310.142
301.222
296.804
294.712
293.75
293.318
293.127
293.044
293.008
293.032
293.136
293.304
293.566
293.969
294.575
295.473
296.781
298.65
301.269
304.859
309.665
315.94
323.923
333.815
345.754
359.804