/*--------------------------------*- C++ -*----------------------------------*\
  =========                 |
  \\      /  F ield         | OpenFOAM: The Open Source CFD Toolbox
   \\    /   O peration     | Website:  https://openfoam.org
    \\  /    A nd           | Version:  8
     \\/     M anipulation  |
\*---------------------------------------------------------------------------*/
FoamFile
{
    version     2.0;
    format      ascii;
    class       volVectorField;
    location    "60/fluid";
    object      U;
}
// * * * * * * * * * * * * * * * * * * * * * * * * * * * * * * * * * * * * * //

dimensions      [0 1 -1 0 0 0 0];

internalField   nonuniform List<vector> 
4000
(
(0.0999073 -0.0080733 0)
(0.0994166 -0.0245324 0)
(0.0986226 -0.0416442 0)
(0.0975165 -0.059691 0)
(0.0960662 -0.0788807 0)
(0.0942222 -0.0992721 0)
(0.091937 -0.120707 0)
(0.0891811 -0.142764 0)
(0.0859572 -0.164755 0)
(0.0823088 -0.1858 0)
(0.0783213 -0.20496 0)
(0.0741098 -0.221407 0)
(0.0697992 -0.234573 0)
(0.0655022 -0.244232 0)
(0.0613026 -0.250488 0)
(0.0572504 -0.253702 0)
(0.0533648 -0.254383 0)
(0.0496441 -0.253079 0)
(0.0460762 -0.250301 0)
(0.0426501 -0.246473 0)
(0.0393682 -0.241909 0)
(0.0362346 -0.236898 0)
(0.0332464 -0.231652 0)
(0.0303987 -0.226319 0)
(0.027686 -0.221002 0)
(0.0251019 -0.215777 0)
(0.0226411 -0.210698 0)
(0.0202982 -0.205804 0)
(0.0180668 -0.201127 0)
(0.0159405 -0.196687 0)
(0.0139119 -0.192501 0)
(0.0119737 -0.18858 0)
(0.0101174 -0.184932 0)
(0.00833571 -0.181563 0)
(0.00661977 -0.178475 0)
(0.00496276 -0.175671 0)
(0.00335508 -0.173151 0)
(0.00179118 -0.170916 0)
(0.000261389 -0.168961 0)
(-0.00123689 -0.167291 0)
(-0.0027122 -0.165901 0)
(-0.00416566 -0.164797 0)
(-0.00560799 -0.163975 0)
(-0.00703933 -0.163439 0)
(-0.00847093 -0.163184 0)
(-0.00990134 -0.163215 0)
(-0.0113422 -0.163529 0)
(-0.0127909 -0.164127 0)
(-0.014259 -0.165011 0)
(-0.0157435 -0.16618 0)
(-0.0172561 -0.16764 0)
(-0.0187938 -0.169389 0)
(-0.0203675 -0.171437 0)
(-0.021975 -0.173784 0)
(-0.0236263 -0.176442 0)
(-0.0253194 -0.179413 0)
(-0.0270631 -0.182712 0)
(-0.0288568 -0.186345 0)
(-0.0307077 -0.190332 0)
(-0.0326164 -0.194682 0)
(-0.0345886 -0.19942 0)
(-0.036626 -0.204564 0)
(-0.0387326 -0.210144 0)
(-0.040911 -0.216188 0)
(-0.0431632 -0.222735 0)
(-0.0454935 -0.229824 0)
(-0.0478991 -0.237504 0)
(-0.0503802 -0.245831 0)
(-0.0529382 -0.254871 0)
(-0.0556627 -0.264724 0)
(-0.0586987 -0.275581 0)
(-0.0616126 -0.287727 0)
(-0.0616844 -0.300826 0)
(-0.0609768 -0.315396 0)
(-0.061331 -0.329875 0)
(-0.0620834 -0.344177 0)
(-0.0627768 -0.358202 0)
(-0.0633684 -0.371729 0)
(-0.0638918 -0.384495 0)
(-0.0643396 -0.396174 0)
(-0.0646937 -0.406352 0)
(-0.0649281 -0.414502 0)
(-0.0650076 -0.419919 0)
(-0.064918 -0.421854 0)
(-0.0646676 -0.419526 0)
(-0.0643018 -0.411835 0)
(-0.0639282 -0.397904 0)
(-0.0637157 -0.377122 0)
(-0.0639958 -0.350178 0)
(-0.0653039 -0.318499 0)
(-0.068053 -0.284212 0)
(-0.0722279 -0.249463 0)
(-0.0773428 -0.215665 0)
(-0.0826895 -0.183318 0)
(-0.0876415 -0.152357 0)
(-0.0918121 -0.122545 0)
(-0.095052 -0.0937054 0)
(-0.0973944 -0.0659028 0)
(-0.0989611 -0.0390236 0)
(-0.0998639 -0.012878 0)
(0.100025 -0.00738019 0)
(0.0998173 -0.0225981 0)
(0.099316 -0.038437 0)
(0.0984596 -0.0550582 0)
(0.0972181 -0.0725869 0)
(0.0955511 -0.0910431 0)
(0.0934144 -0.110285 0)
(0.0907791 -0.129973 0)
(0.0876487 -0.149559 0)
(0.0840696 -0.168341 0)
(0.0801313 -0.185553 0)
(0.0759556 -0.200494 0)
(0.0716751 -0.212652 0)
(0.0674107 -0.221782 0)
(0.063253 -0.227924 0)
(0.0592552 -0.23135 0)
(0.0554355 -0.232487 0)
(0.0517867 -0.23182 0)
(0.0482887 -0.229817 0)
(0.0449203 -0.226892 0)
(0.0416648 -0.22339 0)
(0.0385189 -0.219515 0)
(0.0354803 -0.215413 0)
(0.0325465 -0.211197 0)
(0.029718 -0.206952 0)
(0.0269958 -0.20274 0)
(0.0243799 -0.19861 0)
(0.0218695 -0.194596 0)
(0.019462 -0.190729 0)
(0.0171535 -0.187029 0)
(0.0149394 -0.183517 0)
(0.012813 -0.180205 0)
(0.0107683 -0.177108 0)
(0.00879669 -0.174232 0)
(0.00689141 -0.171586 0)
(0.0050432 -0.169174 0)
(0.00324566 -0.167003 0)
(0.00148866 -0.165071 0)
(-0.000232339 -0.163385 0)
(-0.00192577 -0.161943 0)
(-0.00359329 -0.160753 0)
(-0.00524455 -0.159814 0)
(-0.00688157 -0.159135 0)
(-0.00851478 -0.158712 0)
(-0.0101449 -0.158552 0)
(-0.0117825 -0.158652 0)
(-0.0134274 -0.159016 0)
(-0.0150901 -0.159645 0)
(-0.0167697 -0.16054 0)
(-0.0184768 -0.161706 0)
(-0.0202107 -0.163141 0)
(-0.0219816 -0.164855 0)
(-0.0237889 -0.166847 0)
(-0.0256427 -0.169127 0)
(-0.0275428 -0.171695 0)
(-0.0294984 -0.174566 0)
(-0.03151 -0.177743 0)
(-0.0335861 -0.181242 0)
(-0.0357287 -0.18507 0)
(-0.0379454 -0.189248 0)
(-0.0402394 -0.193789 0)
(-0.0426177 -0.198717 0)
(-0.045085 -0.204053 0)
(-0.0476479 -0.209826 0)
(-0.0503133 -0.216066 0)
(-0.0530884 -0.222806 0)
(-0.0559792 -0.230081 0)
(-0.0589855 -0.237926 0)
(-0.0621295 -0.246377 0)
(-0.0655386 -0.255471 0)
(-0.0694095 -0.265233 0)
(-0.0731012 -0.275591 0)
(-0.0731455 -0.286142 0)
(-0.0721449 -0.299286 0)
(-0.0721893 -0.312211 0)
(-0.0725569 -0.324783 0)
(-0.0728346 -0.336858 0)
(-0.0730033 -0.348239 0)
(-0.0730816 -0.358663 0)
(-0.0730498 -0.367786 0)
(-0.0728594 -0.375166 0)
(-0.0724529 -0.380214 0)
(-0.0718189 -0.382241 0)
(-0.0708391 -0.380645 0)
(-0.0695031 -0.374474 0)
(-0.0679022 -0.363062 0)
(-0.0662799 -0.346196 0)
(-0.0650348 -0.324455 0)
(-0.0647464 -0.298405 0)
(-0.0659634 -0.26958 0)
(-0.068905 -0.239922 0)
(-0.0732843 -0.210984 0)
(-0.0784548 -0.183435 0)
(-0.0837164 -0.157196 0)
(-0.0885335 -0.131903 0)
(-0.0925946 -0.107247 0)
(-0.0957591 -0.0830367 0)
(-0.0980038 -0.0589838 0)
(-0.0993647 -0.0351446 0)
(-0.1 -0.0116125 0)
(0.0999802 -0.00709549 0)
(0.099688 -0.0216653 0)
(0.0990821 -0.0367898 0)
(0.098117 -0.052627 0)
(0.0967683 -0.0692958 0)
(0.095009 -0.0868191 0)
(0.0928162 -0.105073 0)
(0.0901829 -0.123752 0)
(0.0871282 -0.142359 0)
(0.0837016 -0.160247 0)
(0.0799821 -0.176702 0)
(0.0760703 -0.191058 0)
(0.0720749 -0.202813 0)
(0.0680964 -0.211707 0)
(0.064214 -0.217752 0)
(0.0604773 -0.221185 0)
(0.0569064 -0.222404 0)
(0.0534972 -0.221867 0)
(0.0502304 -0.22003 0)
(0.0470801 -0.217287 0)
(0.044018 -0.213959 0)
(0.0410202 -0.210285 0)
(0.0380749 -0.206434 0)
(0.0351794 -0.20252 0)
(0.0323352 -0.198618 0)
(0.0295475 -0.194779 0)
(0.0268216 -0.191036 0)
(0.0241621 -0.187414 0)
(0.0215724 -0.183932 0)
(0.0190541 -0.180606 0)
(0.0166069 -0.177448 0)
(0.0142289 -0.17447 0)
(0.0119163 -0.171681 0)
(0.00966499 -0.16909 0)
(0.0074686 -0.166703 0)
(0.00532187 -0.164525 0)
(0.00321655 -0.162561 0)
(0.00114705 -0.160816 0)
(-0.000894252 -0.159289 0)
(-0.00290911 -0.157989 0)
(-0.00490478 -0.156917 0)
(-0.00688466 -0.156082 0)
(-0.00885796 -0.155485 0)
(-0.0108276 -0.155132 0)
(-0.0128028 -0.155022 0)
(-0.0147861 -0.15516 0)
(-0.0167867 -0.155547 0)
(-0.0188066 -0.156185 0)
(-0.0208552 -0.157077 0)
(-0.0229345 -0.158223 0)
(-0.0250536 -0.159631 0)
(-0.0272148 -0.161298 0)
(-0.0294272 -0.163235 0)
(-0.0316933 -0.165442 0)
(-0.0340224 -0.167928 0)
(-0.0364177 -0.170696 0)
(-0.0388882 -0.17376 0)
(-0.0414382 -0.177123 0)
(-0.0440768 -0.180801 0)
(-0.0468096 -0.184804 0)
(-0.0496459 -0.18915 0)
(-0.052593 -0.193853 0)
(-0.0556605 -0.198935 0)
(-0.0588571 -0.204416 0)
(-0.0621941 -0.21032 0)
(-0.06568 -0.216669 0)
(-0.0693226 -0.223487 0)
(-0.0731205 -0.230789 0)
(-0.0771028 -0.238593 0)
(-0.0813974 -0.246921 0)
(-0.0860955 -0.255787 0)
(-0.0901658 -0.264999 0)
(-0.0902657 -0.274098 0)
(-0.0888139 -0.285724 0)
(-0.0880366 -0.297063 0)
(-0.0875586 -0.307985 0)
(-0.0870224 -0.318374 0)
(-0.0863446 -0.328054 0)
(-0.0855141 -0.336794 0)
(-0.0844805 -0.344293 0)
(-0.0831828 -0.35017 0)
(-0.0815503 -0.353936 0)
(-0.0795472 -0.355046 0)
(-0.0770878 -0.352889 0)
(-0.0742287 -0.346766 0)
(-0.0711318 -0.336093 0)
(-0.068167 -0.32053 0)
(-0.0659118 -0.300199 0)
(-0.0649978 -0.275954 0)
(-0.0658504 -0.249331 0)
(-0.068499 -0.222091 0)
(-0.0725543 -0.195544 0)
(-0.0774027 -0.170194 0)
(-0.0824333 -0.145929 0)
(-0.087172 -0.122424 0)
(-0.0913269 -0.0994086 0)
(-0.0947476 -0.0767437 0)
(-0.0973391 -0.0543933 0)
(-0.099044 -0.0323609 0)
(-0.0999288 -0.0106808 0)
(0.0999939 -0.00668919 0)
(0.0997265 -0.0203983 0)
(0.0991494 -0.0345799 0)
(0.0982151 -0.049368 0)
(0.0969039 -0.0648661 0)
(0.0951938 -0.0810962 0)
(0.0930653 -0.0979544 0)
(0.0905128 -0.115179 0)
(0.0875536 -0.132341 0)
(0.0842326 -0.148875 0)
(0.0806232 -0.16415 0)
(0.0768202 -0.177564 0)
(0.0729282 -0.188653 0)
(0.0690465 -0.197159 0)
(0.0652552 -0.203063 0)
(0.0616063 -0.206558 0)
(0.0581228 -0.207988 0)
(0.0548021 -0.20777 0)
(0.0516247 -0.206322 0)
(0.0485611 -0.204018 0)
(0.0455802 -0.201163 0)
(0.0426586 -0.197984 0)
(0.0397784 -0.194641 0)
(0.0369269 -0.191244 0)
(0.0341002 -0.187862 0)
(0.0312978 -0.18454 0)
(0.0285225 -0.181306 0)
(0.0257785 -0.178181 0)
(0.02307 -0.175178 0)
(0.0204004 -0.172309 0)
(0.0177719 -0.169584 0)
(0.0151849 -0.167012 0)
(0.0126392 -0.164601 0)
(0.0101322 -0.162357 0)
(0.00766136 -0.160289 0)
(0.00522163 -0.1584 0)
(0.00280872 -0.156697 0)
(0.000416472 -0.155182 0)
(-0.00195724 -0.153861 0)
(-0.0043162 -0.152738 0)
(-0.00666301 -0.151824 0)
(-0.00900508 -0.151121 0)
(-0.0113465 -0.150637 0)
(-0.0136949 -0.150374 0)
(-0.0160543 -0.150337 0)
(-0.0184328 -0.150527 0)
(-0.0208342 -0.150949 0)
(-0.0232667 -0.151604 0)
(-0.0257344 -0.152494 0)
(-0.0282455 -0.153623 0)
(-0.0308042 -0.154993 0)
(-0.033419 -0.156609 0)
(-0.0360945 -0.158472 0)
(-0.0388392 -0.160589 0)
(-0.0416586 -0.162963 0)
(-0.0445614 -0.165601 0)
(-0.0475537 -0.168508 0)
(-0.0506448 -0.171694 0)
(-0.0538419 -0.175165 0)
(-0.0571545 -0.178933 0)
(-0.0605911 -0.183007 0)
(-0.0641616 -0.187403 0)
(-0.0678753 -0.192133 0)
(-0.0717425 -0.197214 0)
(-0.0757721 -0.20266 0)
(-0.0799721 -0.208486 0)
(-0.0843389 -0.214707 0)
(-0.0888725 -0.22133 0)
(-0.0936156 -0.228361 0)
(-0.0987237 -0.235833 0)
(-0.103977 -0.243756 0)
(-0.107144 -0.251798 0)
(-0.106612 -0.259789 0)
(-0.104611 -0.269402 0)
(-0.102958 -0.278866 0)
(-0.1015 -0.28799 0)
(-0.0999511 -0.296612 0)
(-0.0982139 -0.304556 0)
(-0.0962468 -0.311604 0)
(-0.0940075 -0.317479 0)
(-0.0914532 -0.321828 0)
(-0.0885501 -0.324208 0)
(-0.0852749 -0.324092 0)
(-0.0816394 -0.320877 0)
(-0.0777586 -0.313941 0)
(-0.073903 -0.302778 0)
(-0.0704976 -0.287188 0)
(-0.0680717 -0.267492 0)
(-0.0671407 -0.244685 0)
(-0.0680122 -0.220315 0)
(-0.0706197 -0.19596 0)
(-0.0745332 -0.172622 0)
(-0.0791495 -0.150525 0)
(-0.0838928 -0.129402 0)
(-0.0883276 -0.108876 0)
(-0.092187 -0.0886675 0)
(-0.0953302 -0.0686398 0)
(-0.0976796 -0.0487596 0)
(-0.099197 -0.0290557 0)
(-0.0999603 -0.00959685 0)
(0.0999864 -0.00631442 0)
(0.0996973 -0.0192293 0)
(0.0990935 -0.0325588 0)
(0.0981335 -0.0464255 0)
(0.0968031 -0.0609266 0)
(0.0950863 -0.076088 0)
(0.0929697 -0.0918237 0)
(0.0904533 -0.107905 0)
(0.087557 -0.12395 0)
(0.0843255 -0.13945 0)
(0.0808281 -0.153822 0)
(0.0771526 -0.166508 0)
(0.0733958 -0.177061 0)
(0.0696495 -0.185221 0)
(0.0659888 -0.190949 0)
(0.0624632 -0.194406 0)
(0.0590944 -0.195903 0)
(0.0558797 -0.195825 0)
(0.0527986 -0.19457 0)
(0.0498212 -0.192495 0)
(0.0469161 -0.189896 0)
(0.0440534 -0.186995 0)
(0.0412111 -0.18395 0)
(0.0383769 -0.180867 0)
(0.0355433 -0.177814 0)
(0.0327079 -0.174833 0)
(0.0298721 -0.171946 0)
(0.027039 -0.169171 0)
(0.0242131 -0.166515 0)
(0.0213982 -0.163988 0)
(0.0185975 -0.161594 0)
(0.0158135 -0.159339 0)
(0.0130469 -0.157229 0)
(0.0102976 -0.15527 0)
(0.00756368 -0.153464 0)
(0.00484281 -0.151818 0)
(0.00213073 -0.150335 0)
(-0.000574863 -0.149019 0)
(-0.00327543 -0.147873 0)
(-0.00597149 -0.146907 0)
(-0.0086677 -0.146128 0)
(-0.0113683 -0.145543 0)
(-0.0140796 -0.145155 0)
(-0.0168061 -0.144971 0)
(-0.0195546 -0.144993 0)
(-0.0223299 -0.145225 0)
(-0.0251392 -0.145669 0)
(-0.0279876 -0.146328 0)
(-0.0308826 -0.147204 0)
(-0.0338296 -0.148301 0)
(-0.0368363 -0.14962 0)
(-0.0399084 -0.151165 0)
(-0.043054 -0.152938 0)
(-0.0462794 -0.154943 0)
(-0.0495928 -0.157184 0)
(-0.0530011 -0.159664 0)
(-0.0565131 -0.162389 0)
(-0.0601362 -0.165364 0)
(-0.0638796 -0.168594 0)
(-0.0677513 -0.172087 0)
(-0.0717605 -0.175851 0)
(-0.0759156 -0.179894 0)
(-0.080225 -0.184224 0)
(-0.0846973 -0.188851 0)
(-0.0893385 -0.193783 0)
(-0.0941509 -0.199029 0)
(-0.0991263 -0.204587 0)
(-0.104259 -0.21046 0)
(-0.109655 -0.216634 0)
(-0.115481 -0.223126 0)
(-0.121191 -0.229846 0)
(-0.121881 -0.236444 0)
(-0.119724 -0.244339 0)
(-0.11783 -0.252398 0)
(-0.115801 -0.260366 0)
(-0.113599 -0.268052 0)
(-0.111132 -0.275288 0)
(-0.108398 -0.281916 0)
(-0.105377 -0.287741 0)
(-0.102053 -0.292516 0)
(-0.0984038 -0.295918 0)
(-0.0944231 -0.297543 0)
(-0.09011 -0.296897 0)
(-0.0855107 -0.293423 0)
(-0.0807904 -0.286563 0)
(-0.076266 -0.275885 0)
(-0.0723859 -0.261249 0)
(-0.0696741 -0.243014 0)
(-0.0685995 -0.222135 0)
(-0.0693809 -0.199992 0)
(-0.071861 -0.177906 0)
(-0.075572 -0.156679 0)
(-0.0799317 -0.136497 0)
(-0.0844146 -0.117172 0)
(-0.0886306 -0.0984217 0)
(-0.0923318 -0.0800275 0)
(-0.0953748 -0.0618693 0)
(-0.0976719 -0.0439066 0)
(-0.0991753 -0.026144 0)
(-0.0999473 -0.00862854 0)
(0.0999883 -0.00591709 0)
(0.0997018 -0.0180017 0)
(0.0991023 -0.0304472 0)
(0.0981504 -0.0433619 0)
(0.0968355 -0.0568336 0)
(0.0951452 -0.0708882 0)
(0.0930682 -0.085453 0)
(0.0906045 -0.100329 0)
(0.0877723 -0.115181 0)
(0.0846123 -0.129554 0)
(0.081189 -0.142928 0)
(0.0775855 -0.154793 0)
(0.0738955 -0.164734 0)
(0.0702096 -0.172501 0)
(0.0666035 -0.178035 0)
(0.0631284 -0.181468 0)
(0.0598077 -0.183068 0)
(0.05664 -0.183183 0)
(0.0536052 -0.182179 0)
(0.0506721 -0.180391 0)
(0.0478065 -0.178098 0)
(0.044977 -0.175515 0)
(0.0421585 -0.172794 0)
(0.0393334 -0.170039 0)
(0.0364905 -0.167316 0)
(0.033625 -0.164665 0)
(0.0307365 -0.162108 0)
(0.0278271 -0.159658 0)
(0.0249004 -0.157323 0)
(0.0219601 -0.155108 0)
(0.0190102 -0.153016 0)
(0.0160536 -0.15105 0)
(0.0130924 -0.149215 0)
(0.010127 -0.147513 0)
(0.00715738 -0.145949 0)
(0.00418144 -0.144524 0)
(0.00119727 -0.143244 0)
(-0.00179589 -0.142109 0)
(-0.00479614 -0.141127 0)
(-0.0078045 -0.140306 0)
(-0.0108242 -0.139653 0)
(-0.0138601 -0.139175 0)
(-0.0169165 -0.138876 0)
(-0.019999 -0.138761 0)
(-0.0231125 -0.138834 0)
(-0.0262632 -0.139098 0)
(-0.0294564 -0.139556 0)
(-0.0326989 -0.140209 0)
(-0.0359964 -0.141061 0)
(-0.0393559 -0.142114 0)
(-0.0427836 -0.14337 0)
(-0.0462868 -0.144831 0)
(-0.0498721 -0.146498 0)
(-0.0535469 -0.148375 0)
(-0.0573181 -0.150464 0)
(-0.0611936 -0.152768 0)
(-0.0651806 -0.155289 0)
(-0.0692867 -0.158032 0)
(-0.0735192 -0.160999 0)
(-0.0778854 -0.164196 0)
(-0.0823918 -0.167626 0)
(-0.0870436 -0.171296 0)
(-0.0918459 -0.175211 0)
(-0.0967991 -0.179374 0)
(-0.101903 -0.18379 0)
(-0.107143 -0.18846 0)
(-0.112496 -0.193382 0)
(-0.117945 -0.198544 0)
(-0.123572 -0.203962 0)
(-0.129416 -0.20963 0)
(-0.134326 -0.215379 0)
(-0.134614 -0.220701 0)
(-0.132227 -0.227786 0)
(-0.129337 -0.23486 0)
(-0.126463 -0.241682 0)
(-0.123376 -0.248178 0)
(-0.120031 -0.254248 0)
(-0.116389 -0.259768 0)
(-0.112455 -0.264567 0)
(-0.108215 -0.268417 0)
(-0.103671 -0.271016 0)
(-0.0988275 -0.271974 0)
(-0.0937079 -0.270814 0)
(-0.0883986 -0.266998 0)
(-0.0831167 -0.260008 0)
(-0.0782189 -0.24946 0)
(-0.0741706 -0.235293 0)
(-0.071477 -0.217957 0)
(-0.0705354 -0.198479 0)
(-0.0714536 -0.178214 0)
(-0.0739727 -0.158332 0)
(-0.0775782 -0.139429 0)
(-0.0817001 -0.121533 0)
(-0.0858596 -0.104392 0)
(-0.0897233 -0.0877309 0)
(-0.0930903 -0.0713584 0)
(-0.095847 -0.0551798 0)
(-0.0979211 -0.0391662 0)
(-0.0992715 -0.0233221 0)
(-0.0999588 -0.0076941 0)
(0.0999864 -0.00552493 0)
(0.0996946 -0.016793 0)
(0.0990895 -0.0283771 0)
(0.0981346 -0.0403746 0)
(0.0968221 -0.0528662 0)
(0.0951422 -0.065878 0)
(0.093086 -0.0793493 0)
(0.0906548 -0.0931065 0)
(0.0878669 -0.106852 0)
(0.0847616 -0.120181 0)
(0.0814001 -0.132623 0)
(0.077862 -0.14371 0)
(0.0742366 -0.153056 0)
(0.0706116 -0.160416 0)
(0.0670605 -0.165721 0)
(0.063634 -0.169077 0)
(0.0603566 -0.170719 0)
(0.0572271 -0.170962 0)
(0.0542247 -0.170143 0)
(0.0513187 -0.168576 0)
(0.0484745 -0.166525 0)
(0.0456584 -0.164196 0)
(0.0428428 -0.161738 0)
(0.0400077 -0.15925 0)
(0.0371401 -0.156798 0)
(0.0342334 -0.154418 0)
(0.0312855 -0.152131 0)
(0.0282976 -0.149951 0)
(0.0252724 -0.147881 0)
(0.0222137 -0.145926 0)
(0.0191255 -0.144086 0)
(0.0160109 -0.142364 0)
(0.0128723 -0.14076 0)
(0.00971115 -0.139278 0)
(0.00652766 -0.137919 0)
(0.00332101 -0.136684 0)
(9.05588e-05 -0.135577 0)
(-0.00316156 -0.134599 0)
(-0.00643293 -0.133758 0)
(-0.00972377 -0.133062 0)
(-0.0130374 -0.132517 0)
(-0.0163775 -0.13213 0)
(-0.0197486 -0.131905 0)
(-0.0231549 -0.131847 0)
(-0.0266017 -0.131958 0)
(-0.0300942 -0.132242 0)
(-0.0336381 -0.132701 0)
(-0.0372391 -0.133338 0)
(-0.0409035 -0.134154 0)
(-0.0446374 -0.135151 0)
(-0.0484473 -0.136331 0)
(-0.0523394 -0.137695 0)
(-0.0563207 -0.139245 0)
(-0.0603976 -0.140982 0)
(-0.0645769 -0.142908 0)
(-0.0688652 -0.145023 0)
(-0.0732693 -0.14733 0)
(-0.0777953 -0.14983 0)
(-0.0824493 -0.152525 0)
(-0.0872364 -0.155419 0)
(-0.0921608 -0.158514 0)
(-0.0972255 -0.161813 0)
(-0.10243 -0.165321 0)
(-0.107773 -0.169041 0)
(-0.113242 -0.172976 0)
(-0.118822 -0.177131 0)
(-0.124468 -0.181501 0)
(-0.130227 -0.186091 0)
(-0.13621 -0.190923 0)
(-0.142153 -0.196058 0)
(-0.145396 -0.201235 0)
(-0.144599 -0.206045 0)
(-0.14173 -0.211762 0)
(-0.138315 -0.2176 0)
(-0.134791 -0.2233 0)
(-0.131043 -0.228762 0)
(-0.126994 -0.233875 0)
(-0.122646 -0.23852 0)
(-0.117995 -0.242533 0)
(-0.113049 -0.245698 0)
(-0.107821 -0.247721 0)
(-0.10233 -0.24823 0)
(-0.0966154 -0.246767 0)
(-0.0907996 -0.24283 0)
(-0.0851355 -0.235946 0)
(-0.0799996 -0.225802 0)
(-0.0758577 -0.212415 0)
(-0.0731831 -0.196295 0)
(-0.0723033 -0.178448 0)
(-0.0732406 -0.160079 0)
(-0.0756803 -0.142154 0)
(-0.079105 -0.125116 0)
(-0.0829774 -0.108965 0)
(-0.08686 -0.0934924 0)
(-0.0904538 -0.078475 0)
(-0.0935798 -0.0637571 0)
(-0.0961369 -0.0492556 0)
(-0.0980612 -0.034937 0)
(-0.0993166 -0.0207917 0)
(-0.0999585 -0.006854 0)
(0.0999863 -0.00512781 0)
(0.0996933 -0.0155737 0)
(0.0990878 -0.0262955 0)
(0.0981347 -0.0373795 0)
(0.0968285 -0.0488987 0)
(0.0951613 -0.0608783 0)
(0.0931257 -0.0732671 0)
(0.0907234 -0.0859138 0)
(0.0879719 -0.0985569 0)
(0.0849083 -0.110836 0)
(0.0815909 -0.122331 0)
(0.078096 -0.132617 0)
(0.0745102 -0.14134 0)
(0.0709193 -0.148265 0)
(0.0673964 -0.153317 0)
(0.0639934 -0.156576 0)
(0.0607362 -0.158245 0)
(0.0576244 -0.158607 0)
(0.054638 -0.157968 0)
(0.0517448 -0.156617 0)
(0.0489082 -0.154804 0)
(0.0460932 -0.152723 0)
(0.0432702 -0.150515 0)
(0.0404171 -0.14828 0)
(0.0375194 -0.146077 0)
(0.0345687 -0.143944 0)
(0.0315614 -0.141903 0)
(0.0284978 -0.139962 0)
(0.0253806 -0.138127 0)
(0.0222131 -0.1364 0)
(0.0189988 -0.134782 0)
(0.0157413 -0.133271 0)
(0.0124431 -0.13187 0)
(0.00910618 -0.130579 0)
(0.00573108 -0.129398 0)
(0.00231765 -0.128328 0)
(-0.0011326 -0.127371 0)
(-0.00461554 -0.126529 0)
(-0.00812807 -0.12581 0)
(-0.0116708 -0.125222 0)
(-0.0152465 -0.12477 0)
(-0.0188584 -0.124459 0)
(-0.0225101 -0.124295 0)
(-0.0262059 -0.124279 0)
(-0.0299502 -0.124417 0)
(-0.0337479 -0.12471 0)
(-0.0376044 -0.125161 0)
(-0.041525 -0.12577 0)
(-0.0455154 -0.126541 0)
(-0.0495813 -0.127474 0)
(-0.0537287 -0.12857 0)
(-0.0579635 -0.12983 0)
(-0.0622917 -0.131255 0)
(-0.0667192 -0.132845 0)
(-0.0712519 -0.134601 0)
(-0.0758954 -0.136522 0)
(-0.0806551 -0.138611 0)
(-0.0855361 -0.140865 0)
(-0.0905426 -0.143288 0)
(-0.0956782 -0.145878 0)
(-0.100945 -0.148638 0)
(-0.106343 -0.151567 0)
(-0.111872 -0.154669 0)
(-0.117524 -0.157943 0)
(-0.123291 -0.16139 0)
(-0.129134 -0.165007 0)
(-0.135044 -0.168786 0)
(-0.141063 -0.172714 0)
(-0.147527 -0.176804 0)
(-0.153354 -0.180984 0)
(-0.154279 -0.185131 0)
(-0.151811 -0.190089 0)
(-0.148522 -0.195113 0)
(-0.145075 -0.200132 0)
(-0.141216 -0.205037 0)
(-0.136993 -0.209723 0)
(-0.132412 -0.214102 0)
(-0.127504 -0.218062 0)
(-0.122288 -0.221453 0)
(-0.116785 -0.224066 0)
(-0.111021 -0.225624 0)
(-0.105025 -0.225764 0)
(-0.0988572 -0.224047 0)
(-0.0926725 -0.220003 0)
(-0.0867537 -0.213206 0)
(-0.0814943 -0.203401 0)
(-0.0773597 -0.190684 0)
(-0.0747924 -0.175626 0)
(-0.0740523 -0.159225 0)
(-0.075079 -0.14259 0)
(-0.0774991 -0.12652 0)
(-0.0807835 -0.111322 0)
(-0.084422 -0.0969315 0)
(-0.0880201 -0.0831418 0)
(-0.0913205 -0.069757 0)
(-0.0941753 -0.0566475 0)
(-0.0965021 -0.0437455 0)
(-0.0982486 -0.0310199 0)
(-0.099385 -0.0184551 0)
(-0.099964 -0.00607973 0)
(0.0999855 -0.00473047 0)
(0.0996899 -0.0143567 0)
(0.0990815 -0.024223 0)
(0.098127 -0.0344063 0)
(0.0968226 -0.0449722 0)
(0.0951619 -0.0559448 0)
(0.0931389 -0.0672808 0)
(0.090756 -0.0788486 0)
(0.0880303 -0.0904187 0)
(0.0849976 -0.101673 0)
(0.081714 -0.112234 0)
(0.0782529 -0.121723 0)
(0.0746982 -0.129813 0)
(0.0711337 -0.136282 0)
(0.0676324 -0.141052 0)
(0.0642467 -0.14418 0)
(0.0610023 -0.145843 0)
(0.0578998 -0.146291 0)
(0.0549192 -0.1458 0)
(0.0520278 -0.144639 0)
(0.049188 -0.143037 0)
(0.0463636 -0.141178 0)
(0.0435239 -0.139198 0)
(0.0406452 -0.137188 0)
(0.037711 -0.135209 0)
(0.0347121 -0.133297 0)
(0.0316442 -0.131472 0)
(0.0285067 -0.129743 0)
(0.0253013 -0.128113 0)
(0.0220314 -0.126586 0)
(0.0187005 -0.125159 0)
(0.0153122 -0.123833 0)
(0.0118693 -0.122606 0)
(0.00837382 -0.12148 0)
(0.00482664 -0.120452 0)
(0.00122851 -0.119524 0)
(-0.0024172 -0.118695 0)
(-0.0061047 -0.11797 0)
(-0.00983098 -0.117356 0)
(-0.0135967 -0.116859 0)
(-0.0174043 -0.116484 0)
(-0.0212564 -0.116236 0)
(-0.0251563 -0.116119 0)
(-0.0291077 -0.116136 0)
(-0.0331145 -0.116289 0)
(-0.0371814 -0.116581 0)
(-0.041313 -0.117014 0)
(-0.0455143 -0.117589 0)
(-0.0497904 -0.118306 0)
(-0.0541464 -0.119168 0)
(-0.0585877 -0.120175 0)
(-0.0631194 -0.121326 0)
(-0.0677467 -0.122623 0)
(-0.0724745 -0.124064 0)
(-0.0773076 -0.125649 0)
(-0.0822502 -0.127379 0)
(-0.0873064 -0.129252 0)
(-0.092479 -0.131267 0)
(-0.0977704 -0.133425 0)
(-0.103181 -0.135723 0)
(-0.10871 -0.138163 0)
(-0.114353 -0.140743 0)
(-0.120102 -0.143462 0)
(-0.125947 -0.14632 0)
(-0.131858 -0.149313 0)
(-0.137798 -0.152437 0)
(-0.143706 -0.155682 0)
(-0.149665 -0.159045 0)
(-0.155697 -0.162529 0)
(-0.160944 -0.166007 0)
(-0.161646 -0.169131 0)
(-0.159147 -0.173778 0)
(-0.155235 -0.178385 0)
(-0.151052 -0.182873 0)
(-0.146631 -0.187176 0)
(-0.141858 -0.191251 0)
(-0.136764 -0.195037 0)
(-0.131358 -0.19844 0)
(-0.125669 -0.201324 0)
(-0.11972 -0.203492 0)
(-0.113539 -0.204679 0)
(-0.107157 -0.204537 0)
(-0.100654 -0.202653 0)
(-0.0942115 -0.198592 0)
(-0.0881337 -0.191978 0)
(-0.0828234 -0.182626 0)
(-0.0787383 -0.170698 0)
(-0.076284 -0.156802 0)
(-0.0756548 -0.141889 0)
(-0.0767231 -0.12693 0)
(-0.0790811 -0.112565 0)
(-0.0822073 -0.0990003 0)
(-0.0856235 -0.086153 0)
(-0.0889717 -0.0738411 0)
(-0.0920244 -0.0619021 0)
(-0.0946544 -0.0502292 0)
(-0.0967922 -0.0387644 0)
(-0.098394 -0.0274759 0)
(-0.0994357 -0.0163403 0)
(-0.0999664 -0.00537933 0)
(0.0999851 -0.00433076 0)
(0.0996872 -0.0131353 0)
(0.0990762 -0.0221477 0)
(0.0981199 -0.0314356 0)
(0.0968157 -0.0410576 0)
(0.095159 -0.0510361 0)
(0.0931447 -0.0613346 0)
(0.0907757 -0.071839 0)
(0.0880687 -0.0823491 0)
(0.0850585 -0.0925849 0)
(0.081799 -0.102214 0)
(0.0783614 -0.110897 0)
(0.0748274 -0.118336 0)
(0.0712797 -0.124328 0)
(0.0677909 -0.128788 0)
(0.064413 -0.13176 0)
(0.0611728 -0.133393 0)
(0.0580713 -0.133905 0)
(0.0550888 -0.133547 0)
(0.0521922 -0.132559 0)
(0.0493432 -0.131155 0)
(0.0465037 -0.129506 0)
(0.0436417 -0.127738 0)
(0.0407325 -0.12594 0)
(0.0377588 -0.124169 0)
(0.0347103 -0.12246 0)
(0.0315819 -0.120831 0)
(0.0283728 -0.119293 0)
(0.0250842 -0.117848 0)
(0.0217193 -0.116498 0)
(0.0182813 -0.115242 0)
(0.0147739 -0.114078 0)
(0.0112 -0.113004 0)
(0.0075618 -0.112021 0)
(0.00386045 -0.111127 0)
(9.80342e-05 -0.110321 0)
(-0.0037201 -0.109604 0)
(-0.00758788 -0.10898 0)
(-0.0115025 -0.108455 0)
(-0.0154645 -0.108036 0)
(-0.0194759 -0.107725 0)
(-0.0235389 -0.107528 0)
(-0.0276564 -0.107448 0)
(-0.0318316 -0.107486 0)
(-0.0360682 -0.107646 0)
(-0.04037 -0.107929 0)
(-0.0447415 -0.108337 0)
(-0.0491869 -0.108871 0)
(-0.0537108 -0.109531 0)
(-0.0583177 -0.110318 0)
(-0.0630122 -0.111232 0)
(-0.0677986 -0.112273 0)
(-0.0726811 -0.113442 0)
(-0.0776638 -0.114736 0)
(-0.08275 -0.116156 0)
(-0.0879428 -0.117699 0)
(-0.0932444 -0.119367 0)
(-0.0986562 -0.121156 0)
(-0.104178 -0.123066 0)
(-0.109809 -0.125096 0)
(-0.115544 -0.127246 0)
(-0.121377 -0.129513 0)
(-0.127297 -0.131899 0)
(-0.133287 -0.134403 0)
(-0.139317 -0.137025 0)
(-0.145338 -0.139764 0)
(-0.151341 -0.142619 0)
(-0.1574 -0.145628 0)
(-0.163337 -0.148854 0)
(-0.1673 -0.152124 0)
(-0.167367 -0.154997 0)
(-0.164628 -0.158704 0)
(-0.160248 -0.162496 0)
(-0.155649 -0.166271 0)
(-0.150787 -0.169926 0)
(-0.145626 -0.173404 0)
(-0.140135 -0.176642 0)
(-0.134353 -0.179549 0)
(-0.128299 -0.181989 0)
(-0.122004 -0.183774 0)
(-0.115498 -0.184646 0)
(-0.108818 -0.184274 0)
(-0.102061 -0.18227 0)
(-0.0954345 -0.178236 0)
(-0.0892596 -0.171847 0)
(-0.0839471 -0.162982 0)
(-0.0799458 -0.151862 0)
(-0.077625 -0.139116 0)
(-0.0771181 -0.125639 0)
(-0.0782376 -0.112273 0)
(-0.0805466 -0.0995196 0)
(-0.0835314 -0.0875034 0)
(-0.086744 -0.0761226 0)
(-0.0898609 -0.0652137 0)
(-0.0926836 -0.0546399 0)
(-0.0951045 -0.0443131 0)
(-0.0970663 -0.0341849 0)
(-0.0985332 -0.0242241 0)
(-0.0994855 -0.014403 0)
(-0.0999698 -0.00473882 0)
(0.0999845 -0.00392917 0)
(0.099684 -0.0119104 0)
(0.0990696 -0.0200703 0)
(0.0981099 -0.0284681 0)
(0.0968039 -0.0371555 0)
(0.0951479 -0.0461529 0)
(0.093138 -0.0554296 0)
(0.0907776 -0.0648874 0)
(0.0880834 -0.0743528 0)
(0.0850892 -0.0835816 0)
(0.0818473 -0.0922825 0)
(0.078427 -0.100154 0)
(0.0749082 -0.10693 0)
(0.0713723 -0.112424 0)
(0.0678912 -0.11655 0)
(0.0645171 -0.119339 0)
(0.0612766 -0.120915 0)
(0.0581715 -0.121468 0)
(0.0551822 -0.12122 0)
(0.0522754 -0.120388 0)
(0.0494118 -0.119166 0)
(0.0465529 -0.117712 0)
(0.0436652 -0.116143 0)
(0.040723 -0.114543 0)
(0.0377085 -0.112966 0)
(0.0346101 -0.111444 0)
(0.0314226 -0.109997 0)
(0.0281448 -0.108633 0)
(0.0247778 -0.107355 0)
(0.0213243 -0.106165 0)
(0.0177879 -0.105061 0)
(0.014172 -0.104041 0)
(0.0104797 -0.103103 0)
(0.00671323 -0.102247 0)
(0.00287399 -0.10147 0)
(-0.00103426 -0.10077 0)
(-0.00500457 -0.10015 0)
(-0.00903079 -0.0996137 0)
(-0.0131107 -0.099166 0)
(-0.0172446 -0.0988117 0)
(-0.0214342 -0.0985547 0)
(-0.0256814 -0.0983981 0)
(-0.0299887 -0.0983447 0)
(-0.0343588 -0.0983966 0)
(-0.038795 -0.0985558 0)
(-0.0433008 -0.0988235 0)
(-0.04788 -0.099201 0)
(-0.0525363 -0.099689 0)
(-0.0572738 -0.100288 0)
(-0.0620963 -0.100998 0)
(-0.0670076 -0.10182 0)
(-0.0720113 -0.102752 0)
(-0.0771107 -0.103794 0)
(-0.0823087 -0.104945 0)
(-0.0876077 -0.106205 0)
(-0.0930095 -0.107572 0)
(-0.0985149 -0.109044 0)
(-0.104124 -0.110621 0)
(-0.109834 -0.1123 0)
(-0.115643 -0.114081 0)
(-0.121544 -0.115963 0)
(-0.127529 -0.117945 0)
(-0.133586 -0.120027 0)
(-0.139695 -0.122208 0)
(-0.145825 -0.124487 0)
(-0.151931 -0.126858 0)
(-0.158077 -0.129324 0)
(-0.164393 -0.131917 0)
(-0.170411 -0.134729 0)
(-0.172857 -0.137584 0)
(-0.171594 -0.140505 0)
(-0.168262 -0.143546 0)
(-0.163848 -0.146706 0)
(-0.15907 -0.149895 0)
(-0.153969 -0.153013 0)
(-0.148518 -0.155988 0)
(-0.142744 -0.158763 0)
(-0.136674 -0.161247 0)
(-0.130343 -0.16331 0)
(-0.123783 -0.164771 0)
(-0.117026 -0.165386 0)
(-0.110116 -0.16484 0)
(-0.103171 -0.162776 0)
(-0.0964175 -0.158836 0)
(-0.0901908 -0.152748 0)
(-0.0849072 -0.14445 0)
(-0.0810044 -0.13421 0)
(-0.0788145 -0.122654 0)
(-0.0784147 -0.1106 0)
(-0.0795684 -0.0987586 0)
(-0.0818207 -0.0875132 0)
(-0.0846713 -0.0769288 0)
(-0.0877008 -0.0668999 0)
(-0.0906155 -0.0572849 0)
(-0.0932405 -0.0479704 0)
(-0.0954832 -0.0388844 0)
(-0.0972959 -0.029986 0)
(-0.098649 -0.0212447 0)
(-0.0995265 -0.0126295 0)
(-0.0999722 -0.00415331 0)
(0.0999841 -0.00352512 0)
(0.0996809 -0.01068 0)
(0.0990628 -0.0179871 0)
(0.098099 -0.0254976 0)
(0.0967897 -0.0332566 0)
(0.0951325 -0.0412824 0)
(0.0931243 -0.0495491 0)
(0.0907692 -0.057973 0)
(0.0880838 -0.0664051 0)
(0.0851011 -0.0746348 0)
(0.0818723 -0.0824092 0)
(0.0784645 -0.0894644 0)
(0.074956 -0.095565 0)
(0.0714276 -0.10054 0)
(0.0679504 -0.10431 0)
(0.0645762 -0.106891 0)
(0.0613324 -0.108386 0)
(0.0582209 -0.108959 0)
(0.0552222 -0.108802 0)
(0.0523024 -0.108111 0)
(0.0494213 -0.107058 0)
(0.0465402 -0.105787 0)
(0.0436251 -0.104407 0)
(0.0406489 -0.102994 0)
(0.0375929 -0.1016 0)
(0.0344458 -0.100255 0)
(0.0312018 -0.0989767 0)
(0.0278592 -0.0977745 0)
(0.024419 -0.0966513 0)
(0.020884 -0.0956073 0)
(0.0172577 -0.0946414 0)
(0.0135436 -0.0937517 0)
(0.00974489 -0.0929362 0)
(0.00586367 -0.092193 0)
(0.00190194 -0.0915202 0)
(-0.00213513 -0.0909157 0)
(-0.00623893 -0.0903811 0)
(-0.0104037 -0.089921 0)
(-0.0146277 -0.0895399 0)
(-0.0189113 -0.0892415 0)
(-0.0232558 -0.0890289 0)
(-0.0276629 -0.0889047 0)
(-0.0321344 -0.088871 0)
(-0.0366731 -0.0889298 0)
(-0.0412816 -0.0890824 0)
(-0.045963 -0.0893299 0)
(-0.0507208 -0.0896732 0)
(-0.0555581 -0.0901128 0)
(-0.0604783 -0.0906489 0)
(-0.0654848 -0.0912816 0)
(-0.0705805 -0.0920106 0)
(-0.0757683 -0.0928354 0)
(-0.0810507 -0.0937552 0)
(-0.0864296 -0.094769 0)
(-0.0919064 -0.0958755 0)
(-0.0974815 -0.0970733 0)
(-0.103155 -0.098361 0)
(-0.108924 -0.0997368 0)
(-0.114787 -0.101199 0)
(-0.120737 -0.102746 0)
(-0.126767 -0.104377 0)
(-0.132866 -0.106088 0)
(-0.139019 -0.107879 0)
(-0.145202 -0.109745 0)
(-0.151367 -0.111682 0)
(-0.157499 -0.113681 0)
(-0.163627 -0.115727 0)
(-0.169988 -0.117823 0)
(-0.175719 -0.119947 0)
(-0.177408 -0.12208 0)
(-0.175459 -0.125062 0)
(-0.171388 -0.127918 0)
(-0.166782 -0.130753 0)
(-0.161833 -0.133559 0)
(-0.156509 -0.136275 0)
(-0.150819 -0.138862 0)
(-0.144805 -0.141261 0)
(-0.138503 -0.143394 0)
(-0.131949 -0.145141 0)
(-0.125176 -0.146332 0)
(-0.118217 -0.146737 0)
(-0.111125 -0.146068 0)
(-0.104035 -0.143998 0)
(-0.097191 -0.140213 0)
(-0.0909408 -0.134493 0)
(-0.0857049 -0.126827 0)
(-0.0819086 -0.117515 0)
(-0.079848 -0.107163 0)
(-0.0795489 -0.0965014 0)
(-0.0807335 -0.0861191 0)
(-0.0829347 -0.0762994 0)
(-0.0856654 -0.0670638 0)
(-0.0885323 -0.0583084 0)
(-0.0912695 -0.0499114 0)