/*--------------------------------*- C++ -*----------------------------------*\
  =========                 |
  \\      /  F ield         | OpenFOAM: The Open Source CFD Toolbox
   \\    /   O peration     | Website:  https://openfoam.org
    \\  /    A nd           | Version:  10
     \\/     M anipulation  |
\*---------------------------------------------------------------------------*/
FoamFile
{
    format      ascii;
    class       volScalarField;
    location    "12000/gas";
    object      alphat;
}
// * * * * * * * * * * * * * * * * * * * * * * * * * * * * * * * * * * * * * //

dimensions      [1 -1 -1 0 0 0 0];

internalField   nonuniform List<scalar> 
16000
(
5.02953e-05
0.000282526
0.000567491
2.61513e-05
9.06829e-05
0.000129443
0.000420294
2.87652e-05
9.74661e-05
0.000143366
0.000408511
3.38228e-05
0.000115358
0.000157372
0.000349937
3.87017e-05
0.00014528
0.000173305
0.000317954
4.27561e-05
0.00018249
0.00018844
0.000299282
4.62125e-05
0.000196359
0.000201638
0.000287261
4.92892e-05
0.000203876
0.000213142
0.00027901
5.21208e-05
0.000213625
0.000223104
0.000272137
5.47522e-05
0.000221356
0.000231361
0.000265731
5.715e-05
0.000228514
0.000238129
0.000258258
5.92468e-05
0.000235488
0.000243854
0.000251221
6.0984e-05
0.000242173
0.000248085
0.000246205
6.23802e-05
0.000248368
0.00025086
0.000242235
6.34423e-05
0.000253988
0.000252932
0.000238425
6.41778e-05
0.000258912
0.000253878
0.000234651
6.46133e-05
0.000263177
0.000254836
0.000230909
6.47972e-05
0.000266865
0.00025579
0.000227281
6.47442e-05
0.000269996
0.000256305
0.000223771
6.44812e-05
0.000272548
0.000256342
0.000220404
6.40215e-05
0.000274522
0.000255945
0.000217154
6.34036e-05
0.000275934
0.000255194
0.000214016
6.26418e-05
0.000276823
0.000254165
0.000210976
6.17629e-05
0.000277225
0.000252889
0.000208025
6.07721e-05
0.000277205
0.000251452
0.000205144
5.96936e-05
0.00027678
0.00024977
0.000202316
5.85419e-05
0.000276076
0.000248295
0.00019957
5.73295e-05
0.000275124
0.000246673
0.000196921
5.60677e-05
0.000273951
0.000244891
0.000194314
5.47647e-05
0.000272584
0.000242982
0.000191725
5.34324e-05
0.000271035
0.000241035
0.000189161
5.20796e-05
0.000269331
0.000238983
0.000186615
5.07146e-05
0.000267515
0.000236868
0.000184102
4.93358e-05
0.000265562
0.000234599
0.000181602
4.79597e-05
0.000263488
0.000232238
0.000179108
4.65824e-05
0.000261305
0.000229796
0.000176628
4.52115e-05
0.00025904
0.000227388
0.000174152
4.38519e-05
0.000256698
0.000224943
0.000171664
4.25076e-05
0.000254317
0.000222504
0.000169271
4.11882e-05
0.000251799
0.00022023
0.000165798
3.98764e-05
9.63951e-05
0.00210823
0.00545422
0.00668767
0.00721452
0.00753592
0.0077908
0.00801693
0.0082262
0.00842183
0.00860428
0.00877329
0.00892859
0.00907004
0.00919769
0.0093117
0.00941259
0.00950042
0.00957473
0.0096352
0.00968113
0.00971126
0.00972326
0.009713
0.0096727
0.0095868
0.00942056
0.00908487
0.0083096
0.00621478
0.00200301
9.2087e-05
0.000100502
0.00141724
0.00391118
0.00547564
0.00635776
0.00690309
0.00728746
0.00759451
0.007862
0.00810702
0.00833704
0.00855488
0.00876113
0.00895528
0.00913627
0.0093027
0.00945261
0.00958415
0.00969533
0.00978321
0.00984361
0.00987053
0.00985485
0.00978195
0.00962684
0.00934384
0.00884399
0.00794788
0.00632164
0.00366016
0.00102901
8.96065e-05
0.000109795
0.00137696
0.00346916
0.00506821
0.00612745
0.0068307
0.00732587
0.00770255
0.00801108
0.00827919
0.00852189
0.00874694
0.0089579
0.00915589
0.00934052
0.00951032
0.00966299
0.00979557
0.00990427
0.00998391
0.0100272
0.0100238
0.00995823
0.00980626
0.00952893
0.00906107
0.00829356
0.00705686
0.00516706
0.00274755
0.000798606
8.69359e-05
0.000123979
0.00141657
0.00327863
0.00484608
0.00599782
0.00681586
0.00740884
0.00785761
0.00821498
0.00851391
0.00877442
0.00900827
0.00922198
0.00941862
0.00959899
0.00976221
0.00990609
0.0100272
0.0101206
0.0101795
0.0101943
0.010151
0.0100291
0.00979758
0.0094088
0.00879006
0.00783648
0.00642379
0.00449906
0.00233727
0.00070175
8.44671e-05
0.000141987
0.00144295
0.00316337
0.00468501
0.00588275
0.00678123
0.00745476
0.00797074
0.00837905
0.00871393
0.008998
0.00924569
0.00946578
0.00966312
0.0098397
0.0099954
0.0101283
0.0102349
0.0103095
0.0103443
0.0103278
0.0102434
0.010067
0.00976331
0.0092807
0.00854696
0.00747181
0.00597615
0.00408614
0.00210987
0.000652786
8.26407e-05
0.000162607
0.00145277
0.00307431
0.00454941
0.00576663
0.00671976
0.00745686
0.00803155
0.00848831
0.00886026
0.00917078
0.00943578
0.00966558
0.00986635
0.0100412
0.0101906
0.0103133
0.0104055
0.0104614
0.0104723
0.0104254
0.0103024
0.0100768
0.00971117
0.0091531
0.00833507
0.00718353
0.00565473
0.00381817
0.00197413
0.00062735
8.12783e-05
0.000184658
0.00144866
0.00299526
0.00442626
0.00564731
0.00663625
0.00742207
0.0080461
0.00854654
0.00895407
0.00929163
0.00957564
0.0098173
0.0100237
0.0101988
0.0103439
0.0104577
0.010537
0.0105757
0.0105645
0.0104899
0.0103324
0.0100643
0.00964725
0.00903024
0.00815208
0.00695451
0.00541901
0.00363675
0.00189099
0.000615735
8.02885e-05
0.000207243
0.00143826
0.00292104
0.00431035
0.00552557
0.00653654
0.00735875
0.0080231
0.00856159
0.00900181
0.00936548
0.00966886
0.00992352
0.0101372
0.0103143
0.0104566
0.0105635
0.0106317
0.0106552
0.0106246
0.0105256
0.0103383
0.0100344
0.0095757
0.00891368
0.00799373
0.00677044
0.00524267
0.00351156
0.00184073
0.000613146
7.96403e-05
0.000229664
0.00142319
0.00284948
0.00419949
0.00540275
0.00642563
0.00727414
0.00797066
0.00854147
0.00901081
0.00939877
0.00972099
0.009989
0.0102108
0.0103912
0.0105325
0.0106342
0.0106934
0.0107041
0.0106567
0.0105369
0.0103244
0.00999093
0.00949916
0.00880346
0.0078555
0.00662021
0.00510819
0.00342406
0.00181215
0.000616875
7.93337e-05
0.000251422
0.00140694
0.00278086
0.00409308
0.00528023
0.00630745
0.00717405
0.00789561
0.00849327
0.00898797
0.00939793
0.00973789
0.0100191
0.0102494
0.0104342
0.0105757
0.0106738
0.0107259
0.0107261
0.0106648
0.0105276
0.0102943
0.0099368
0.00941925
0.00869897
0.00773329
0.00649537
0.00500366
0.00336252
0.0017984
0.000625149
7.93483e-05
0.000272172
0.00139048
0.00271554
0.0039911
0.00515926
0.00618504
0.00706308
0.00780351
0.00842298
0.00893932
0.0093688
0.00972506
0.0100188
0.0102579
0.0104476
0.0105904
0.0106865
0.0107333
0.0107251
0.0106525
0.0105011
0.0102507
0.00987417
0.0093369
0.00859927
0.00762361
0.00638956
0.00492068
0.00331899
0.00179453
0.00063666
7.96827e-05
0.000291681
0.0013742
0.00265362
0.00389365
0.00504081
0.00606074
0.00694482
0.00769883
0.00833559
0.00887003
0.00931651
0.00968748
0.00999303
0.0102407
0.0104357
0.0105807
0.010676
0.0107191
0.0107046
0.0106229
0.01046
0.0101961
0.00980465
0.00925266
0.00850343
0.00752361
0.00629795
0.00485324
0.00328793
0.00179716
0.00065035
8.0338e-05
0.000309799
0.00135832
0.00259511
0.00380079
0.00492563
0.00593635
0.00682206
0.00758515
0.00823517
0.00878445
0.00924548
0.00962951
0.00994591
0.0102019
0.0104024
0.0105503
0.0106458
0.0106866
0.0106673
0.0105787
0.0104069
0.0101323
0.00972944
0.00916687
0.00841056
0.00743098
0.00621689
0.004797
0.00326564
0.00180464
0.000665499
8.13089e-05
0.000326446
0.00134296
0.0025399
0.0037125
0.00481423
0.00581317
0.00669695
0.00746533
0.00812508
0.00868621
0.00915948
0.00955493
0.00988116
0.010145
0.0103511
0.0105023
0.0105988
0.0106385
0.010616
0.0105222
0.0103435
0.0100609
0.0096495
0.00907971
0.00831993
0.0073439
0.00614361
0.00474875
0.00324933
0.0018151
0.000681462
8.25853e-05
0.000341587
0.00132817
0.00248788
0.0036287
0.00470694
0.00569218
0.00657118
0.00734163
0.00800803
0.00857833
0.00906169
0.00946698
0.00980202
0.0100731
0.0102848
0.0104396
0.0105378
0.0105774
0.0105529
0.0104554
0.0102716
0.00998297
0.00956559
0.00899132
0.00823091
0.00726095
0.00607599
0.00470609
0.00323687
0.00182706
0.000697685
8.41528e-05
0.000355228
0.00131396
0.00243888
0.00354927
0.00460394
0.00557408
0.00644601
0.00721586
0.00788624
0.00846333
0.0089548
0.00936843
0.00971126
0.00998907
0.0102061
0.0103647
0.0104652
0.0105053
0.0104798
0.01038
0.0101926
0.00989972
0.00947834
0.00890182
0.00814301
0.00718102
0.0060124
0.00466718
0.00322661
0.00183941
0.0007137
8.59924e-05
0.000367404
0.0013003
0.00239275
0.00347403
0.0045053
0.00545936
0.0063224
0.00708943
0.00776151
0.00834327
0.00884107
0.00926163
0.00961124
0.00989517
0.0101173
0.0102798
0.0103828
0.0104242
0.0103986
0.0102974
0.0101077
0.009812
0.0093883
0.00881133
0.00805588
0.00710324
0.0059516
0.00463062
0.00321733
0.0018513
0.000729122
8.80804e-05
0.000378166
0.00128714
0.00234928
0.00340281
0.00441101
0.00534833
0.00620108
0.00696346
0.00763527
0.00821986
0.00872236
0.00914856
0.00950401
0.00979343
0.0100204
0.0101867
0.0102926
0.0103356
0.0103105
0.0102088
0.0100178
0.00972058
0.00929593
0.00871996
0.00796924
0.00702697
0.00589265
0.00459536
0.00320811
0.00186213
0.00074365
9.039e-05
0.000387582
0.00127441
0.0023083
0.00333539
0.004321
0.00524119
0.00608257
0.00683879
0.00750869
0.00809448
0.00860025
0.0090309
0.00939127
0.00968558
0.00991697
0.0100871
0.0101959
0.0102409
0.0102169
0.0101154
0.00992394
0.00962613
0.00920166
0.00862785
0.00788291
0.00695173
0.00583484
0.00456062
0.00319829
0.00187146
0.000757053
9.28905e-05
0.000395728
0.00126206
0.00226961
0.00327156
0.00423516
0.00513802
0.00596723
0.00671609
0.00738268
0.00796827
0.00847603
0.00891004
0.00927449
0.00957308
0.00980857
0.00998237
0.0100941
0.0101414
0.0101188
0.010018
0.00982681
0.00952926
0.00910586
0.00853514
0.00779678
0.00687715
0.00577765
0.00452585
0.00318739
0.001879
0.000769184
9.55507e-05
0.000402684
0.00125003
0.00223303
0.0032111
0.00415332
0.00503885
0.00585531
0.00659586
0.00725797
0.00784215
0.00835076
0.00878716
0.0091549
0.00945718
0.00969639
0.00987364
0.00998841
0.010038
0.0100172
0.0099175
0.00972711
0.00943047
0.00900888
0.00844198
0.0077108
0.00680302
0.00572073
0.00449065
0.00317514
0.0018846
0.00077997
9.83393e-05
0.000408533
0.00123825
0.00219837
0.00315378
0.00407533
0.00494364
0.00574696
0.00647844
0.00713511
0.00771685
0.00822532
0.00866321
0.00903351
0.00933893
0.00958147
0.00976197
0.00987965
0.0099317
0.0099128
0.0098146
0.00962544
0.00933024
0.00891105
0.00834852
0.00762495
0.00672917
0.00566383
0.0044548
0.00316134
0.00188819
0.000789386
0.000101225
0.000413358
0.00122667
0.00216546
0.00309939
0.004001
0.00485232
0.00564226
0.00636408
0.00701453
0.00759295
0.00810041
0.00853901
0.00891118
0.00921921
0.00946471
0.0096482
0.00976869
0.00982323
0.00980639
0.00970992
0.00952233
0.009229
0.00881266
0.00825495
0.00753929
0.00665555
0.00560682
0.00441814
0.00314594
0.00188979
0.000797453
0.000104179
0.00041724
0.00121526
0.00213415
0.00304773
0.00393013
0.00476475
0.00554122
0.00625297
0.00689655
0.0074709
0.0079766
0.00841519
0.00878864
0.00909877
0.00934684
0.00953307
0.00965625
0.00971324
0.00969856
0.00960398
0.00941824
0.00912711
0.00871399
0.00816142
0.00745387
0.00658212
0.00554963
0.00438064
0.00312896
0.00188945
0.000804226
0.000107172
0.000420259
0.00120395
0.00210429
0.0029986
0.00386253
0.00468083
0.00544381
0.00614518
0.00678139
0.00735106
0.00785433
0.00829229
0.00866644
0.00897821
0.00922849
0.00941721
0.00954292
0.00960231
0.00958983
0.00949727
0.00931358
0.00902491
0.0086153
0.00806812
0.00736878
0.00650891
0.00549226
0.00434231
0.00311045
0.0018873
0.000809781
0.000110179
0.000422489
0.0011927
0.00207574
0.0029518
0.00379802
0.00460039
0.00534997
0.00604076
0.0066692
0.00723367
0.00773395
0.00817072
0.00854507
0.00885805
0.00911019
0.00930115
0.00942921
0.00949093
0.00948065
0.00939021
0.00920872
0.00892272
0.00851683
0.00797521
0.00728413
0.00643598
0.00543477
0.00430322
0.00309054
0.00188349
0.00081421
0.000113176
0.000424005
0.00118149
0.00204838
0.00290716
0.00373639
0.00452328
0.00525959
0.00593969
0.00656006
0.0071189
0.00761571
0.00805081
0.00842491
0.00873869
0.00899236
0.0091853
0.00931556
0.00937951
0.00937142
0.00928314
0.00910397
0.00882081
0.0084188
0.00788286
0.00720004
0.00636342
0.00537721
0.00426347
0.00306938
0.00187816
0.000817612
0.000116143
0.000424877
0.00117028
0.00202209
0.00286451
0.00367747
0.00444932
0.00517256
0.00584192
0.00645399
0.00700687
0.0074998
0.0079328
0.00830623
0.00862045
0.00887536
0.00907004
0.00920232
0.0092684
0.00926247
0.00917639
0.00899963
0.00871942
0.00832143
0.00779123
0.00711664
0.00629133
0.00531971
0.00422319
0.00304712
0.0018715
0.00082009
0.000119063
0.000425173
0.00115903
0.00199677
0.00282369
0.00362107
0.00437834
0.00508872
0.00574736
0.00635097
0.0068976
0.00738631
0.00781684
0.00818926
0.00850359
0.00875945
0.00895564
0.00908978
0.0091579
0.00915408
0.00907023
0.00889595
0.00861878
0.00822489
0.00770048
0.00703405
0.00621982
0.00526238
0.00418253
0.00302393
0.00186368
0.000821747
0.000121921
0.000424962
0.0011477
0.00197231
0.00278456
0.00356701
0.00431014
0.0050079
0.00565585
0.0062509
0.00679107
0.00727527
0.00770302
0.00807411
0.00838827
0.00864484
0.00884235
0.00897819
0.00904825
0.00904651
0.00896488
0.00879313
0.00851908
0.00812936
0.00761076
0.0069524
0.00614902
0.00520534
0.00414163
0.003
0.00185486
0.00082268
0.000124703
0.000424306
0.00113625
0.00194863
0.00274696
0.00351508
0.0042445
0.00492988
0.00556722
0.00615363
0.00668718
0.00716666
0.00759137
0.00796087
0.00827461
0.00853166
0.0087303
0.00886773
0.00893963
0.00893993
0.00886055
0.00869136
0.00842049
0.008035
0.0075222
0.00687181
0.00607904
0.00514873
0.00410066
0.0029755
0.00184522
0.000822982
0.0001274
0.000423282
0.00112464
0.00192563
0.00271073
0.00346505
0.00418115
0.00485438
0.00548119
0.00605895
0.00658576
0.00706034
0.00748181
0.00784951
0.00816264
0.00841999
0.00861963
0.00875852
0.00883221
0.00883452
0.00875738
0.00859081
0.00832317
0.00794194
0.00743493
0.0067924
0.00601
0.00509268
0.00405975
0.0029506
0.0018349
0.000822739
0.000130004
0.000421969
0.00111279
0.00190318
0.00267566
0.00341664
0.00411973
0.00478101
0.00539741
0.00596652
0.00648654
0.00695611
0.00737421
0.00773996
0.00805232
0.00830985
0.00851037
0.00865064
0.00872607
0.00873038
0.00865551
0.00849159
0.00822724
0.0078503
0.00734906
0.00671428
0.00594201
0.00503731
0.00401906
0.00292544
0.00182405
0.00082203
0.000132509
0.000420459
0.00110058
0.00188108
0.00264142
0.0033694
0.00405973
0.00470925
0.00531536
0.0058759
0.00638913
0.00685366
0.00726834
0.00763205
0.00794356
0.00820118
0.00840251
0.00854413
0.00862127
0.00862759
0.00855502
0.00839381
0.0081328
0.00776017
0.00726468
0.00663755
0.00587518
0.00498274
0.00397872
0.00290019
0.00181279
0.000820927
0.00013491
0.000418869
0.00108781
0.00185898
0.00260747
0.00332261
0.00400038
0.00463833
0.00523432
0.00578645
0.00629301
0.00675258
0.00716385
0.00752554
0.00783618
0.00809387
0.00829601
0.00843896
0.00851783
0.00852619
0.00845598
0.00829753
0.00803992
0.00767165
0.00718189
0.00656229
0.0058096
0.00492908
0.00393885
0.00287496
0.00180125
0.000819495
0.000137206
0.000417347
0.001074
0.00183605
0.00257272
0.00327505
0.00394044
0.00456711
0.00515333
0.00569734
0.00619751
0.00665232
0.00706034
0.0074201
0.00772995
0.00798776
0.00819074
0.00833507
0.00841572
0.00842619
0.0083584
0.0082028
0.00794866
0.00758479
0.00710074
0.00648857
0.00574535
0.00487642
0.00389957
0.00284988
0.00178953
0.000817791
0.000139394
0.000416044
0.00105809
0.00181045
0.00253507
0.00322467
0.00387807
0.00449405
0.0050711
0.00560756
0.00610179
0.00655221
0.00695727
0.00731533
0.00762455
0.00788262
0.00808654
0.00823235
0.00831488
0.00832755
0.00826229
0.00810963
0.00785904
0.00749962
0.00702127
0.00641645
0.0056825
0.00482485
0.00386097
0.00282506
0.00177772
0.000815868
0.000141475
0.000414733
0.00103709
0.00177792
0.00249053
0.00316822
0.00381076
0.00441719
0.0049861
0.00551589
0.00600491
0.00645152
0.00685406
0.00721077
0.00751964
0.00777818
0.00798322
0.00813066
0.00821521
0.00823021
0.0081676
0.00801801
0.00777107
0.00741616
0.00694353
0.00634597
0.0056211
0.00477443
0.00382313
0.00280058
0.0017659
0.00081377
0.000143448
0.00041055
0.00100642
0.0017304
0.00243312
0.00310158
0.00373565
0.00433444
0.00489677
0.00542114
0.00590594
0.00634952
0.00675015
0.00710597
0.00741485
0.00767415
0.00788056
0.00802984
0.00811658
0.00813408
0.00807429
0.0079279
0.00768473
0.00733441
0.00686751
0.00627714
0.00556119
0.00472521
0.00378613
0.00277652
0.00175415
0.000811537
0.000145317
0.000378504
0.000941388
0.00165767
0.00235754
0.00302171
0.00365097
0.00424436
0.00480195
0.00532238
0.00580412
0.00624557
0.00664501
0.00700051
0.00730983
0.00757026
0.00777833
0.00792969
0.00801885
0.00803906
0.00798226
0.00783924
0.00759997
0.00725434
0.0067932
0.00620998
0.00550279
0.00467724
0.00375001
0.00275294
0.00174252
0.000809205
0.000147081
0.000134739
0.00046435
0.000848932
0.00119918
0.00150474
0.00176729
0.00199168
0.00218214
0.00234313
0.0024784
0.00259115
0.00268407
0.00275936
0.00281885
0.00286402
0.0028961
0.00291607
0.00292472
0.00292268
0.00291045
0.00288839
0.00285678
0.0028158
0.00276555
0.00270602
0.00263715
0.00255874
0.00247051
0.00237205
0.00226275
0.00214182
0.00200818
0.00186035
0.00169639
0.00151369
0.00130885
0.00107756
0.000815491
0.000522879
0.000232579
0.000136511
0.00047112
0.000854502
0.00120392
0.00150877
0.00177097
0.00199481
0.00218488
0.00234549
0.00248041
0.00259284
0.00268545
0.00276046
0.00281968
0.00286461
0.00289646
0.00291621
0.00292465
0.00292242
0.00291
0.00288777
0.002856
0.00281487
0.00276447
0.00270482
0.00263582
0.00255732
0.00246901
0.00237048
0.00226114
0.00214021
0.0020066
0.00185886
0.00169505
0.00151257
0.00130801
0.00107715
0.000815813
0.000524717
0.000234922
0.000138568
0.000478146
0.000861799
0.00121108
0.00151564
0.00177746
0.00200083
0.00219043
0.00235058
0.00248506
0.00259707
0.00268929
0.00276393
0.00282281
0.00286743
0.00289899
0.00291848
0.00292669
0.00292424
0.00291162
0.00288921
0.00285728
0.00281601
0.00276548
0.00270572
0.00263663
0.00255804
0.00246967
0.0023711
0.00226175
0.00214083
0.00200726
0.0018596
0.0016959
0.00151357
0.0013092
0.00107859
0.000817548
0.000526805
0.000237439
0.000140604
0.000484402
0.000869359
0.00121929
0.00152406
0.00178577
0.00200886
0.00219808
0.0023578
0.00249185
0.00260343
0.00269523
0.00276948
0.002828
0.00287228
0.00290353
0.00292273
0.00293067
0.00292797
0.00291512
0.0028925
0.00286038
0.00281892
0.00276823
0.0027083
0.00263906
0.00256034
0.00247184
0.00237316
0.00226371
0.00214271
0.00200908
0.00186139
0.00169769
0.00151539
0.00131109
0.00108058
0.00081968
0.000529165
0.000239982
0.00014261
0.000490151
0.000876796
0.00122784
0.00153321
0.0017951
0.00201811
0.00220709
0.00236649
0.00250015
0.00261134
0.00270274
0.0027766
0.00283475
0.00287867
0.00290959
0.00292847
0.00293612
0.00293314
0.00292003
0.00289716
0.00286479
0.0028231
0.00277218
0.00271204
0.00264259
0.00256367
0.00247498
0.00237611
0.0022665
0.00214536
0.00201162
0.00186384
0.0017001
0.0015178
0.00131353
0.00108308
0.000822242
0.000531796
0.000242641
0.000144589
0.000495501
0.000883999
0.00123641
0.00154263
0.00180495
0.00202806
0.00221694
0.00237611
0.00250947
0.0026203
0.00271134
0.00278482
0.0028426
0.00288617
0.00291674
0.00293529
0.00294261
0.00293932
0.00292592
0.00290276
0.00287011
0.00282816
0.00277697
0.00271658
0.00264688
0.00256771
0.0024788
0.00237972
0.00226991
0.0021486
0.00201471
0.00186683
0.00170302
0.0015207
0.00131645
0.00108601
0.000825152
0.000534584
0.000245337
0.000146551
0.000500545
0.000890953
0.00124486
0.00155211
0.001815
0.00203837
0.00222727
0.00238631
0.00251942
0.00262996
0.00272066
0.0027938
0.00285122
0.00289443
0.00292465
0.00294286
0.00294985
0.00294624
0.00293252
0.00290905
0.00287611
0.00283386
0.00278239
0.00272172
0.00265176
0.00257233
0.00248317
0.00238386
0.00227384
0.00215234
0.0020183
0.0018703
0.00170642
0.00152405
0.00131978
0.00108931
0.000828356
0.00053751
0.000248098
0.000148501
0.000505345
0.000897677
0.00125315
0.00156153
0.00182513
0.00204886
0.00223788
0.00239685
0.00252979
0.00264008
0.00273048
0.00280329
0.00286037
0.00290324
0.00293311
0.00295098
0.00295764
0.00295371
0.00293966
0.00291589
0.00288264
0.00284009
0.00278833
0.00272738
0.00265714
0.00257745
0.00248803
0.00238848
0.00227825
0.00215655
0.00202234
0.00187421
0.00171022
0.00152779
0.00132346
0.00109293
0.000831809
0.000540613
0.000250892
0.000150447
0.00050993
0.000904196
0.00126129
0.00157087
0.00183525
0.00205943
0.00224864
0.00240762
0.00254044
0.00265052
0.00274066
0.00281318
0.00286994
0.00291248
0.00294202
0.00295956
0.00296589
0.00296163
0.00294728
0.00292319
0.00288964
0.00284679
0.00279475
0.0027335
0.00266299
0.00258303
0.00249336
0.00239357
0.0022831
0.00216119
0.0020268
0.00187851
0.0017144
0.00153187
0.00132745
0.0010968
0.000835472
0.000543867
0.000253723
0.000152397
0.000514308
0.000910542
0.00126931
0.00158013
0.00184535
0.00207004
0.0022595
0.00241854
0.0025513
0.00266121
0.00275113
0.00282338
0.00287985
0.00292208
0.00295131
0.00296853
0.00297454
0.00296998
0.00295531
0.00293092
0.00289707
0.00285394
0.00280161
0.00274009
0.00266929
0.00258907
0.00249913
0.00239909
0.00228838
0.00216625
0.00203165
0.00188318
0.00171891
0.00153625
0.00133171
0.0011009
0.000839314
0.000547243
0.000256579
0.000154361
0.000518483
0.000916764
0.00127723
0.00158933
0.00185543
0.00208067
0.00227044
0.0024296
0.00256233
0.00267212
0.00276184
0.00283385
0.00289006
0.002932
0.00296094
0.00297786
0.00298358
0.00297871
0.00296375
0.00293907
0.00290494
0.00286152
0.00280891
0.00274711
0.00267604
0.00259554
0.00250533
0.00240502
0.00229405
0.00217168
0.00203685
0.00188816
0.00172371
0.00154088
0.00133619
0.0011052
0.000843308
0.000550724
0.000259457
0.000156335
0.000522566
0.00092291
0.00128509
0.00159849
0.00186551
0.00209135
0.00228146
0.00244077
0.00257352
0.00268322
0.00277279
0.00284459
0.00290055
0.00294223
0.0029709
0.00298754
0.00299297
0.00298783
0.00297259
0.00294763
0.00291322
0.00286952
0.00281663
0.00275455
0.00268321
0.00260243
0.00251194
0.00241135
0.0023001
0.00217746
0.00204237
0.00189344
0.00172877
0.00154575
0.00134086
0.00110965
0.000847433
0.000554293
0.000262349
0.000158319
0.000526625
0.000929012
0.00129291
0.00160763
0.00187559
0.00210206
0.00229255
0.00245206
0.00258486
0.00269451
0.00278395
0.00285557
0.00291132
0.00295277
0.00298118
0.00299757
0.00300273
0.00299732
0.00298181
0.00295659
0.0029219
0.00287794
0.00282477
0.00276242
0.00269079
0.00260972
0.00251894
0.00241805
0.00230651
0.00218356
0.00204818
0.00189898
0.00173406
0.0015508
0.0013457
0.00111424
0.000851668
0.000557935
0.00026525
0.000160317
0.000530675
0.000935088
0.0013007
0.00161676
0.00188568
0.00211282
0.00230373
0.00246347
0.00259636
0.00270599
0.00279534
0.00286681
0.00292237
0.00296361
0.00299179
0.00300793
0.00301285
0.00300718
0.00299142
0.00296594
0.00293099
0.00288676
0.00283332
0.00277069
0.00269877
0.00261741
0.00252632
0.00242511
0.00231324
0.00218997
0.00205427
0.00190476
0.00173955
0.00155603
0.00135067
0.00111895
0.000855993
0.000561639
0.000268153
0.000162333
0.000534726
0.000941151
0.00130849
0.00162589
0.00189581
0.00212364
0.00231501
0.00247501
0.00260802
0.00271767
0.00280695
0.0028783
0.0029337
0.00297474
0.00300271
0.00301863
0.00302332
0.00301741
0.00300141
0.00297567
0.00294047
0.00289598
0.00284227
0.00277935
0.00270714
0.00262546
0.00253405
0.0024325
0.00232028
0.00219665
0.0020606
0.00191075
0.00174521
0.00156139
0.00135576
0.00112374
0.000860391
0.00056539
0.000271052
0.000164368
0.000538784
0.000947214
0.00131627
0.00163504
0.00190598
0.00213453
0.00232638
0.00248669
0.00261984
0.00272954
0.00281878
0.00289003
0.00294529
0.00298617
0.00301395
0.00302966
0.00303413
0.003028
0.00301176
0.00298579
0.00295033
0.00290558
0.0028516
0.00278839
0.00271587
0.00263387
0.00254212
0.00244021
0.00232762
0.0022036
0.00206716
0.00191692
0.00175103
0.00156688
0.00136094
0.0011286
0.000864843
0.000569178
0.000273942
0.000166425
0.000542856
0.000953285
0.00132408
0.00164422
0.0019162
0.0021455
0.00233787
0.0024985
0.00263184
0.0027416
0.00283083
0.00290201
0.00295716
0.00299788
0.00302549
0.00304102
0.00304529
0.00303894
0.00302248
0.00299627
0.00296057
0.00291555
0.00286129
0.00279779
0.00272496
0.00264263
0.00255051
0.00244823
0.00233523
0.0022108
0.00207393
0.00192327
0.00175697
0.00157246
0.00136619
0.00113351
0.000869331
0.000572991
0.000276817
0.000168505
0.000546946
0.000959373
0.0013319
0.00165344
0.00192648
0.00215656
0.00234947
0.00251045
0.002644
0.00275386
0.00284311
0.00291424
0.00296929
0.00300989
0.00303734
0.0030527
0.00305677
0.00305023
0.00303355
0.0030071
0.00297116
0.00292589
0.00287135
0.00280755
0.0027344
0.00265171
0.00255922
0.00245653
0.0023431
0.00221822
0.00208089
0.00192978
0.00176304
0.00157812
0.00137148
0.00113848
0.000873835
0.000576817
0.000279669
0.00017061
0.00055106
0.000965484
0.00133976
0.00166271
0.00193684
0.00216771
0.00236119
0.00252255
0.00265633
0.00276632
0.0028556
0.00292671
0.00298169
0.00302217
0.00304949
0.00306468
0.00306859
0.00306184
0.00304495
0.00301829
0.00298211
0.00293657
0.00288175
0.00281765
0.00274416
0.00266112
0.00256823
0.00246511
0.00235123
0.00222587
0.00208804
0.00193642
0.0017692
0.00158383
0.0013768
0.0011434
0.000878332
0.000580648
0.000282493
0.000172741
0.000555201
0.000971627
0.00134766
0.00167204
0.00194727
0.00217897
0.00237303
0.0025348
0.00266884
0.00277897
0.00286831
0.00293942
0.00299434
0.00303474
0.00306193
0.00307698
0.00308071
0.00307379
0.0030567
0.00302981
0.00299339
0.00294759
0.00289249
0.00282808
0.00275425
0.00267083
0.00257753
0.00247397
0.0023596
0.00223372
0.00209536
0.0019432
0.00177545
0.0015896
0.00138213
0.00114834
0.000882812
0.000584472
0.000285283
0.000174901
0.000559373
0.000977806
0.00135561
0.00168143
0.00195778
0.00219032
0.002385
0.00254719
0.00268152
0.00279182
0.00288125
0.00295236
0.00300725
0.00304757
0.00307465
0.00308957
0.00309315
0.00308605
0.00306876
0.00304166
0.003005
0.00295895
0.00290356
0.00283883
0.00276465
0.00268084
0.00258711
0.00248308
0.0023682
0.00224178
0.00210284
0.0019501
0.00178178
0.0015954
0.00138746
0.00115326
0.000887272
0.000588281
0.00028803
0.000177089
0.00056358
0.000984027
0.00136361
0.00169089
0.00196839
0.00220179
0.0023971
0.00255975
0.00269437
0.00280486
0.00289439
0.00296554
0.00302041
0.00306066
0.00308766
0.00310245
0.00310588
0.00309861
0.00308114
0.00305383
0.00301694
0.00297062
0.00291494
0.00284989
0.00277535
0.00269114
0.00259697
0.00249245
0.00237704
0.00225004
0.00211049
0.00195712
0.00178817
0.00160121
0.00139277
0.00115814
0.000891715
0.00059206
0.000290728
0.000179309
0.000567825
0.000990295
0.00137168
0.00170043
0.00197908
0.00221338
0.00240934
0.00257245
0.0027074
0.0028181
0.00290775
0.00297895
0.00303381
0.00307402
0.00310093
0.00311561
0.00311891
0.00311148
0.00309383
0.00306631
0.00302919
0.00298261
0.00292664
0.00286125
0.00278635
0.00270173
0.0026071
0.00250207
0.0023861
0.00225849
0.00211829
0.00196424
0.00179463
0.00160703
0.00139804
0.00116294
0.00089609
0.000595789
0.000293366
0.000181561
0.00057211
0.000996613
0.0013798
0.00171005
0.00198988
0.00222508
0.00242171
0.00258532
0.00272061
0.00283153
0.00292132
0.00299258
0.00304745
0.00308763
0.00311447
0.00312905
0.00313222
0.00312464
0.00310681
0.00307909
0.00304174
0.0029949
0.00293863
0.00287292
0.00279764
0.0027126
0.0026175
0.00251194
0.00239538
0.00226714
0.00212624
0.00197147
0.00180113
0.00161284
0.00140324
0.00116765
0.000900367
0.000599447
0.000295935
0.000183845
0.000576438
0.00100299
0.001388
0.00171976
0.00200079
0.0022369
0.00243423
0.00259834
0.00273399
0.00284516
0.00293509
0.00300644
0.00306134
0.00310149
0.00312827
0.00314276
0.00314582
0.00313809
0.00312009
0.00309217
0.00305458
0.00300748
0.00295092
0.00288487
0.00280921
0.00272374
0.00262816
0.00252205
0.00240489
0.00227597
0.00213435
0.00197881
0.00180768
0.00161864
0.00140837
0.00117224
0.000904516
0.000603011
0.000298423
0.000186165
0.000580813
0.00100942
0.00139627
0.00172955
0.00201179
0.00224885
0.00244689
0.00261152
0.00274755
0.00285897
0.00294907
0.00302052
0.00307545
0.0031156
0.00314233
0.00315674
0.00315968
0.00315182
0.00313365
0.00310553
0.00306772
0.00302036
0.0029635
0.00289711
0.00282106
0.00273515
0.00263907
0.00253241
0.00241462
0.002285
0.00214262
0.00198625
0.00181428
0.0016244
0.0014134
0.00117667
0.000908504
0.000606456
0.000300817
0.00018852
0.000585235
0.00101591
0.00140462
0.00173944
0.00202292
0.00226093
0.00245969
0.00262486
0.00276128
0.00287298
0.00296326
0.00303481
0.0030898
0.00312994
0.00315664
0.00317098
0.00317382
0.00316582
0.00314748
0.00311917
0.00308114
0.00303352
0.00297636
0.00290962
0.00283318
0.00274683
0.00265024
0.00254301
0.00242457
0.00229423
0.00215104
0.00199381
0.00182092
0.00163014
0.00141831
0.00118094
0.000912303
0.000609757
0.000303105
0.000190911
0.000589708
0.00102247
0.00141305
0.00174943
0.00203415
0.00227313
0.00247264
0.00263837
0.00277519
0.00288718
0.00297766
0.00304933
0.00310437
0.00314453
0.0031712
0.00318547
0.00318821
0.00318009
0.00316159
0.0031331
0.00309483
0.00304695
0.00298949
0.00292241
0.00284558
0.00275877
0.00266167
0.00255385
0.00243474
0.00230365
0.00215962
0.00200147
0.00182761
0.00163584
0.00142311
0.001185
0.000915879
0.000612884
0.000305273
0.000193341
0.000594233
0.00102909
0.00142156
0.00175952
0.00204551
0.00228548
0.00248574
0.00265204
0.00278928
0.00290157
0.00299225
0.00306405
0.00311917
0.00315935
0.003186
0.00320022
0.00320287
0.00319462
0.00317597
0.00314729
0.0031088
0.00306066
0.0030029
0.00293547
0.00285824
0.00277097
0.00267335
0.00256493
0.00244514
0.00231328
0.00216838
0.00200927
0.00183435
0.00164151
0.00142777
0.00118884
0.000919184
0.000615789
0.000307305
0.000195809
0.000598812
0.00103579
0.00143016
0.00176971
0.00205698
0.00229795
0.00249899
0.00266587
0.00280355
0.00291615
0.00300705
0.00307899
0.00313419
0.0031744
0.00320104
0.00321521
0.00321778
0.00320941
0.00319061
0.00316174
0.00312304
0.00307464
0.00301658
0.0029488
0.00287116
0.00278343
0.00268528
0.00257625
0.00245577
0.00232311
0.00217732
0.00201719
0.00184117
0.00164716
0.00143228
0.00119241
0.000922149
0.000618394
0.000309185
0.000198317
0.000603448
0.00104256
0.00143886
0.00178002
0.00206858
0.00231057
0.00251239
0.00267987
0.00281799
0.00293092
0.00302205
0.00309415
0.00314943
0.00318968
0.00321632
0.00323044
0.00323293
0.00322446
0.00320551
0.00317646
0.00313754
0.00308888
0.00303052
0.00296239