/*--------------------------------*- C++ -*----------------------------------*\
  =========                 |
  \\      /  F ield         | OpenFOAM: The Open Source CFD Toolbox
   \\    /   O peration     | Website:  https://openfoam.org
    \\  /    A nd           | Version:  10
     \\/     M anipulation  |
\*---------------------------------------------------------------------------*/
FoamFile
{
    format      ascii;
    class       volScalarField;
    location    "12000/gas";
    object      CH4;
}
// * * * * * * * * * * * * * * * * * * * * * * * * * * * * * * * * * * * * * //

dimensions      [0 0 0 0 0 0 0];

internalField   nonuniform List<scalar> 
16000
(
1
1
1
1
1
1
1
1
1
1
1
1
1
1
1
1
1
1
1
1
1
1
1
1
1
1
1
1
1
1
1
1
1
1
1
1
1
1
1
1
1
1
1
1
1
1
1
1
1
1
1
1
1
1
1
1
1
1
1
1
1
1
1
1
1
1
1
1
1
1
1
1
1
1
1
1
1
1
1
1
1
1
1
1
1
1
1
1
1
1
1
1
1
1
1
1
1
1
1
1
1
1
1
1
1
1
1
1
1
1
1
1
1
1
1
1
1
1
1
1
1
1
1
1
1
1
1
1
1
1
1
1
1
1
1
1
1
1
1
1
1
1
1
1
1
1
1
1
1
1
1
1
1
1
0.999999
0.999997
0.999998
0.999995
0.999969
0.999823
4.54614e-18
9.02307e-17
4.06581e-16
8.53786e-16
1.42257e-15
2.10297e-15
2.88295e-15
3.74818e-15
4.68294e-15
5.66819e-15
6.66363e-15
7.63062e-15
8.52824e-15
9.31488e-15
9.95082e-15
1.0401e-14
1.06377e-14
1.0643e-14
1.04098e-14
9.94341e-15
9.26134e-15
8.39266e-15
7.37641e-15
6.25944e-15
5.09379e-15
3.93382e-15
2.8336e-15
1.84566e-15
1.02449e-15
4.22778e-16
7.7448e-17
3.70747e-18
1.11015e-16
9.4013e-16
2.55352e-15
4.6932e-15
7.34776e-15
1.04538e-14
1.39294e-14
1.76779e-14
2.15836e-14
2.55173e-14
2.93552e-14
3.29563e-14
3.61754e-14
3.88722e-14
4.09199e-14
4.22134e-14
4.26766e-14
4.22709e-14
4.09948e-14
3.88894e-14
3.6036e-14
3.25523e-14
2.85868e-14
2.4311e-14
1.99111e-14
1.5578e-14
1.14982e-14
7.84145e-15
4.74063e-15
2.28258e-15
6.86181e-16
8.47171e-17
4.77068e-16
2.9048e-15
6.88776e-15
1.17654e-14
1.75988e-14
2.43244e-14
3.17888e-14
3.97777e-14
4.80374e-14
5.62896e-14
6.42404e-14
7.15866e-14
7.80306e-14
8.32956e-14
8.71417e-14
8.93807e-14
8.98891e-14
8.86195e-14
8.55972e-14
8.09329e-14
7.48133e-14
6.74917e-14
5.9276e-14
5.05134e-14
4.15722e-14
3.28225e-14
2.46139e-14
1.7247e-14
1.09354e-14
5.78638e-15
1.95481e-15
2.60236e-16
1.31888e-15
6.7381e-15
1.41534e-14
2.3049e-14
3.35572e-14
4.55822e-14
5.88695e-14
7.30453e-14
8.76531e-14
1.02182e-13
1.16091e-13
1.28833e-13
1.39882e-13
1.48762e-13
1.55073e-13
1.58514e-13
1.58906e-13
1.56206e-13
1.50491e-13
1.4199e-13
1.31054e-13
1.18142e-13
1.03797e-13
8.86142e-14
7.32162e-14
5.82099e-14
4.41474e-14
3.14748e-14
2.04781e-14
1.12903e-14
4.17798e-15
5.38208e-16
3.07177e-15
1.288e-14
2.53843e-14
4.02202e-14
5.75914e-14
7.73567e-14
9.91251e-14
1.22301e-13
1.46139e-13
1.69788e-13
1.92345e-13
2.12902e-13
2.30595e-13
2.44653e-13
2.54442e-13
2.59505e-13
2.59587e-13
2.54665e-13
2.44906e-13
2.30724e-13
2.12723e-13
1.91666e-13
1.6844e-13
1.44001e-13
1.19323e-13
9.53339e-14
7.28491e-14
5.24944e-14
3.46478e-14
1.9501e-14
7.54983e-15
1.12094e-15
6.251e-15
2.23355e-14
4.22395e-14
6.57614e-14
9.31742e-14
1.24251e-13
1.58401e-13
1.94708e-13
2.32005e-13
2.68951e-13
3.04112e-13
3.36045e-13
3.63385e-13
3.84926e-13
3.99694e-13
4.07002e-13
4.06498e-13
3.98198e-13
3.82413e-13
3.59838e-13
3.31461e-13
2.985e-13
2.62343e-13
2.24466e-13
1.86344e-13
1.4935e-13
1.14658e-13
8.31416e-14
5.5325e-14
3.15226e-14
1.25937e-14
2.09977e-15
1.15606e-14
3.65144e-14
6.71123e-14
1.03281e-13
1.45369e-13
1.93001e-13
2.45278e-13
3.00812e-13
3.5782e-13
4.14236e-13
4.67842e-13
5.16408e-13
5.57825e-13
5.90246e-13
6.12193e-13
6.2265e-13
6.21129e-13
6.0772e-13
5.82956e-13
5.47964e-13
5.04306e-13
4.53878e-13
3.98807e-13
3.41324e-13
2.8362e-13
2.27704e-13
1.75258e-13
1.27516e-13
8.5237e-14
4.89415e-14
1.99685e-14
3.29639e-15
1.99027e-14
5.74288e-14
1.03455e-13
1.58024e-13
2.21573e-13
2.93483e-13
3.72382e-13
4.56175e-13
5.42162e-13
6.27203e-13
7.07917e-13
7.80897e-13
8.42939e-13
8.91239e-13
9.23581e-13
9.38468e-13
9.35233e-13
9.14087e-13
8.75912e-13
8.2249e-13
7.56251e-13
6.80099e-13
5.97253e-13
5.11045e-13
4.24713e-13
3.41182e-13
2.62868e-13
1.91543e-13
1.28328e-13
7.40721e-14
3.07903e-14
5.66385e-15
3.26276e-14
8.79739e-14
1.56279e-13
2.37653e-13
3.3264e-13
4.40242e-13
5.58363e-13
6.83842e-13
8.12602e-13
9.39892e-13
1.06059e-12
1.16954e-12
1.2619e-12
1.33344e-12
1.38086e-12
1.40198e-12
1.39587e-12
1.36295e-12
1.30467e-12
1.22379e-12
1.12406e-12
1.00988e-12
8.86101e-13
7.57677e-13
6.29372e-13
5.05447e-13
3.89395e-13
2.83782e-13
1.90282e-13
1.10221e-13
4.64587e-14
8.55954e-15
5.17127e-14
1.32357e-13
2.32891e-13
3.53402e-13
4.94565e-13
6.54802e-13
8.30912e-13
1.01811e-12
1.21024e-12
1.40012e-12
1.58002e-12
1.74213e-12
1.87917e-12
1.98481e-12
2.05413e-12
2.08393e-12
2.07299e-12
2.02209e-12
1.9335e-12
1.81154e-12
1.66193e-12
1.49135e-12
1.30706e-12
1.11641e-12
9.26412e-13
7.4329e-13
5.72114e-13
4.16621e-13
2.79305e-13
1.62178e-13
6.92117e-14
1.32951e-14
8.00213e-14
1.96704e-13
3.44005e-13
5.21845e-13
7.31061e-13
9.69198e-13
1.23137e-12
1.5103e-12
1.79669e-12
2.07965e-12
2.34749e-12
2.58843e-12
2.79149e-12
2.94722e-12
3.04831e-12
3.09013e-12
3.07103e-12
2.99242e-12
2.85793e-12
2.67422e-12
2.45006e-12
2.19553e-12
1.92148e-12
1.63885e-12
1.35797e-12
1.08794e-12
8.36129e-13
6.08004e-13
4.07254e-13
2.36851e-13
1.02206e-13
2.04804e-14
1.21745e-13
2.89995e-13
5.05425e-13
7.67571e-13
1.07749e-12
1.43139e-12
1.8218e-12
2.23767e-12
2.66481e-12
3.08673e-12
3.48566e-12
3.84384e-12
4.14469e-12
4.37407e-12
4.52119e-12
4.57933e-12
4.54639e-12
4.42482e-12
4.22039e-12
3.94344e-12
3.60737e-12
3.22741e-12
2.81983e-12
2.40089e-12
1.98581e-12
1.58792e-12
1.21798e-12
8.83966e-13
5.91284e-13
3.44209e-13
1.49941e-13
3.08983e-14
1.83028e-13
4.25477e-13
7.40618e-13
1.12731e-12
1.58692e-12
2.11365e-12
2.69605e-12
3.31721e-12
3.95546e-12
4.58563e-12
5.18071e-12
5.71373e-12
6.15971e-12
6.49747e-12
6.71108e-12
6.79087e-12
6.73428e-12
6.54557e-12
6.23396e-12
5.81553e-12
5.31076e-12
4.74274e-12
4.13586e-12
3.51432e-12
2.9006e-12
2.31424e-12
1.77095e-12
1.28234e-12
8.56249e-13
4.98712e-13
2.19117e-13
4.65934e-14
2.72965e-13
6.22822e-13
1.08467e-12
1.65632e-12
2.3396e-12
3.12567e-12
3.99693e-12
4.92737e-12
5.88368e-12
6.82728e-12
7.71686e-12
8.51139e-12
9.17314e-12
9.67037e-12
9.97957e-12
1.0087e-11
9.9898e-12
9.69537e-12
9.21849e-12
8.58425e-12
7.82409e-12
6.97302e-12
6.06772e-12
5.14423e-12
4.23576e-12
3.371e-12
2.57287e-12
1.85817e-12
1.23819e-12
7.21255e-13
3.19302e-13
6.96318e-14
4.05072e-13
9.11456e-13
1.59046e-12
2.43837e-12
3.45779e-12
4.63523e-12
5.94348e-12
7.34225e-12
8.78007e-12
1.01974e-11
1.15308e-11
1.27176e-11
1.37005e-11
1.44322e-11
1.4878e-11
1.50185e-11
1.48512e-11
1.4389e-11
1.36557e-11
1.26905e-11
1.1542e-11
1.02633e-11
8.90967e-12
7.53484e-12
6.18794e-12
4.91106e-12
3.73756e-12
2.69169e-12
1.78946e-12
1.04212e-12
4.6449e-13
1.04038e-13
5.99606e-13
1.33574e-12
2.33827e-12
3.60152e-12
5.12934e-12
6.90103e-12
8.87428e-12
1.09862e-11
1.31567e-11
1.52932e-11
1.72979e-11
1.90745e-11
2.05362e-11
2.16118e-11
2.22509e-11
2.24264e-11
2.21377e-11
2.14072e-11
2.02733e-11
1.87981e-11
1.70563e-11
1.51291e-11
1.30996e-11
1.10482e-11
9.04755e-12
7.15925e-12
5.4318e-12
3.89995e-12
2.58617e-12
1.50521e-12
6.74821e-13
1.54387e-13
8.8711e-13
1.96312e-12
3.45121e-12
5.34334e-12
7.64547e-12
1.03256e-11
1.33174e-11
1.65219e-11
1.98131e-11
2.30466e-11
2.60701e-11
2.87357e-11
3.09112e-11
3.249e-11
3.33987e-11
3.36008e-11
3.31011e-11
3.19381e-11
3.01746e-11
2.79089e-11
2.52567e-11
2.2342e-11
1.92905e-11
1.6222e-11
1.3244e-11
1.04467e-11
7.90022e-12
5.654e-12
3.73909e-12
2.17424e-12
9.79707e-13
2.29127e-13
1.31408e-12
2.89709e-12
5.11975e-12
7.97163e-12
1.14622e-11
1.55414e-11
2.0104e-11
2.49928e-11
3.00082e-11
3.49226e-11
3.94982e-11
4.35063e-11
4.67454e-11
4.90566e-11
5.03338e-11
5.05299e-11
4.96617e-11
4.77965e-11
4.5037e-11
4.15396e-11
3.74841e-11
3.30602e-11
2.84578e-11
2.3856e-11
1.94135e-11
1.52619e-11
1.15021e-11
8.20397e-12
5.40963e-12
3.14171e-12
1.42157e-12
3.38446e-13
1.95178e-12
4.29805e-12
7.64183e-12
1.19712e-11
1.73012e-11
2.35526e-11
3.0556e-11
3.80591e-11
4.57425e-11
5.32448e-11
6.01924e-11
6.62305e-11
7.10521e-11
7.44207e-11
7.61862e-11
7.62908e-11
7.47774e-11
7.17638e-11
6.74186e-11
6.19918e-11
5.57632e-11
4.90239e-11
4.20608e-11
3.51412e-11
2.8499e-11
2.23256e-11
1.67654e-11
1.1916e-11
7.83304e-12
4.54205e-12
2.06222e-12
5e-13
2.91086e-12
6.41739e-12
1.14889e-11
1.81145e-11
2.63183e-11
3.59717e-11
4.67988e-11
5.83887e-11
7.02255e-11
8.17308e-11
9.23141e-11
1.01424e-10
1.08592e-10
1.13469e-10
1.15848e-10
1.15669e-10
1.13021e-10
1.08116e-10
1.01231e-10
9.27661e-11
8.31581e-11
7.28533e-11
6.22858e-11
5.18535e-11
4.19002e-11
3.2703e-11
2.44669e-11
1.73262e-11
1.13525e-11
6.57063e-12
2.99091e-12
7.35894e-13
4.36418e-12
9.65386e-12
1.74166e-11
2.7649e-11
4.03887e-11
5.54219e-11
7.2291e-11
9.03183e-11
1.08661e-10
1.26386e-10
1.42555e-10
1.56308e-10
1.66936e-10
1.73929e-10
1.77009e-10
1.76135e-10
1.71487e-10
1.6345e-10
1.52472e-10
1.39198e-10
1.24312e-10
1.08498e-10
9.24111e-11
7.66426e-11
6.16955e-11
4.79684e-11
3.57493e-11
2.52202e-11
1.64686e-11
9.51146e-12
4.33758e-12
1.08303e-12
6.58697e-12
1.46488e-11
2.66536e-11
4.26187e-11
6.25988e-11
8.62292e-11
1.12735e-10
1.40983e-10
1.69579e-10
1.97007e-10
2.21769e-10
2.42527e-10
2.58209e-10
2.68087e-10
2.71807e-10
2.69405e-10
2.61226e-10
2.47965e-10
2.30355e-10
2.09435e-10
1.86273e-10
1.61918e-10
1.37356e-10
1.13464e-10
9.09718e-11
7.04487e-11
5.22943e-11
3.67487e-11
2.39118e-11
1.37772e-11
6.28991e-12
1.58904e-12
1.00186e-11
2.24487e-11
4.12304e-11
6.64277e-11
9.81118e-11
1.35639e-10
1.7767e-10
2.22277e-10
2.67133e-10
3.0975e-10
3.47734e-10
3.79004e-10
4.01964e-10
4.15597e-10
4.19507e-10
4.13923e-10
3.99497e-10
3.7748e-10
3.49065e-10
3.15931e-10
2.79744e-10
2.42108e-10
2.04504e-10
1.68221e-10
1.34313e-10
1.03583e-10
7.65752e-11
5.3597e-11
3.47472e-11
1.99677e-11
9.1207e-12
2.33092e-12
1.53835e-11
3.47933e-11
6.45648e-11
1.04853e-10
1.55723e-10
2.15997e-10
2.83307e-10
3.54318e-10
4.25097e-10
4.91547e-10
5.49834e-10
5.96746e-10
6.29944e-10
6.48084e-10
6.50819e-10
6.3883e-10
6.13337e-10
5.76571e-10
5.30472e-10
4.77747e-10
4.20992e-10
3.62652e-10
3.04934e-10
2.49721e-10
1.98522e-10
1.52448e-10
1.12227e-10
7.8231e-11
5.05272e-11
2.89534e-11
1.32237e-11
3.4103e-12
2.38649e-11
5.46274e-11
1.02534e-10
1.67913e-10
2.50734e-10
3.48753e-10
4.57679e-10
5.71653e-10
6.83962e-10
7.87829e-10
8.77134e-10
9.4698e-10
9.94041e-10
1.01668e-09
1.01494e-09
9.9032e-10
9.45207e-10
8.83487e-10
8.0832e-10
7.2406e-10
6.34733e-10
5.44043e-10
4.55257e-10
3.71095e-10
2.93682e-10
2.24534e-10
1.64587e-10
1.14255e-10
7.35116e-11
4.19974e-11
1.91703e-11
4.98767e-12
3.75188e-11
8.70685e-11
1.65507e-10
2.73436e-10
4.10416e-10
5.71999e-10
7.50215e-10
9.34618e-10
1.11367e-09
1.27615e-09
1.41237e-09
1.51504e-09
1.57965e-09
1.60457e-09
1.59093e-09
1.54182e-09
1.4619e-09
1.35782e-09
1.2347e-09
1.09953e-09
9.58497e-10
8.17177e-10
6.80344e-10
5.51878e-10
4.34715e-10
3.30865e-10
2.41474e-10
1.66928e-10
1.06985e-10
6.09289e-11
2.77835e-11
7.27812e-12
5.97783e-11
1.41235e-10
2.7237e-10
4.54164e-10
6.84796e-10
9.55097e-10
1.24994e-09
1.55049e-09
1.83684e-09
2.09053e-09
2.29648e-09
2.44419e-09
2.52817e-09
2.5476e-09
2.50631e-09
2.41033e-09
2.26863e-09
2.09245e-09
1.89001e-09
1.67244e-09
1.44919e-09
1.22854e-09
1.01736e-09
8.2108e-10
6.43654e-10
4.87637e-10
3.54321e-10
2.43908e-10
1.55712e-10
8.83932e-11
4.02536e-11
1.06152e-11
9.71482e-11
2.34109e-10
4.5903e-10
7.72731e-10
1.16891e-09
1.62803e-09
2.12098e-09
2.61363e-09
3.07178e-09
3.46544e-09
3.77182e-09
3.97679e-09
4.07495e-09
4.06876e-09
3.96722e-09
3.78257e-09
3.53119e-09
3.23207e-09
2.89817e-09
2.54704e-09
2.19294e-09
1.84791e-09
1.52169e-09
1.22165e-09
9.52926e-10
7.18564e-10
5.19794e-10
3.56311e-10
2.26585e-10
1.28206e-10
5.82906e-11
1.54504e-11
1.60749e-10
3.98503e-10
7.98343e-10
1.35586e-09
2.05123e-09
2.84238e-09
3.67353e-09
4.48315e-09
5.21316e-09
5.81605e-09
6.25913e-09
6.52567e-09
6.61393e-09
6.53496e-09
6.30746e-09
5.95654e-09
5.51071e-09
5.0018e-09
4.44983e-09
3.88207e-09
3.31964e-09
2.77969e-09
2.27558e-09
1.81695e-09
1.41009e-09
1.05825e-09
7.62102e-10
5.20225e-10
3.29547e-10
1.85856e-10
8.43551e-11
2.24731e-11
2.74976e-10
7.14385e-10
1.45879e-09
2.48153e-09
3.72561e-09
5.10259e-09
6.50915e-09
7.83557e-09
8.98517e-09
9.88582e-09
1.04948e-08
1.07981e-08
1.08068e-08
1.05508e-08
1.00682e-08
9.40768e-09
8.61777e-09
7.75107e-09
6.83737e-09
5.91838e-09
5.02451e-09
4.1794e-09
3.40061e-09
2.70003e-09
2.08459e-09
1.55696e-09
1.11626e-09
7.58835e-10
4.78886e-10
2.69215e-10
1.21965e-10
3.26222e-11
5.00869e-10
1.35218e-09
2.79843e-09
4.74416e-09
7.03242e-09
9.45597e-09
1.18236e-08
1.39691e-08
1.5735e-08
1.70194e-08
1.77771e-08
1.80111e-08
1.77685e-08
1.71132e-08
1.6126e-08
1.4893e-08
1.34961e-08
1.20202e-08
1.05073e-08
9.01968e-09
7.5994e-09
6.27752e-09
5.07557e-09
4.00677e-09
3.07724e-09
2.28732e-09
1.63266e-09
1.1054e-09
6.95043e-10
3.89525e-10
1.76151e-10
4.73101e-11
9.71994e-10
2.71991e-09
5.67148e-09
9.50419e-09
1.37981e-08
1.81021e-08
2.20462e-08
2.54155e-08
2.7999e-08
2.96687e-08
3.0404e-08
3.02674e-08
2.93754e-08
2.78661e-08
2.58965e-08
2.36137e-08
2.11507e-08
1.86406e-08
1.61379e-08
1.3732e-08
1.1478e-08
9.41344e-09
7.56172e-09
5.93441e-09
4.53356e-09
3.35366e-09
2.38341e-09
1.60735e-09
1.00712e-09
5.62769e-10
2.54055e-10
6.84662e-11
2.03671e-09
5.89216e-09
1.22554e-08
2.00547e-08
2.82061e-08
3.57903e-08
4.2208e-08
4.718e-08
5.05965e-08
5.23325e-08
5.24629e-08
5.11961e-08
4.8781e-08
4.55105e-08
4.16574e-08
3.74654e-08
3.31405e-08
2.88828e-08
2.47518e-08
2.0869e-08
1.72999e-08
1.40833e-08
1.12379e-08
8.76713e-09
6.66205e-09
4.90478e-09
3.47099e-09
2.33196e-09
1.4563e-09
8.11558e-10
3.65802e-10
9.89516e-11
4.72556e-09
1.40104e-08
2.85392e-08
4.47959e-08
6.01775e-08
7.30734e-08
8.27868e-08
8.9244e-08
9.27423e-08
9.32839e-08
9.12255e-08
8.70354e-08
8.12735e-08
7.44589e-08
6.70477e-08
5.94174e-08
5.18648e-08
4.46725e-08
3.78782e-08
3.16329e-08
2.60003e-08
2.10057e-08
1.66489e-08
1.29109e-08
9.75897e-09
7.15128e-09
5.03999e-09
3.37392e-09
2.10051e-09
1.16769e-09
5.25635e-10
1.42668e-10
1.26771e-08
3.74821e-08
7.2383e-08
1.06289e-07
1.34017e-07
1.53876e-07
1.6609e-07
1.71685e-07
1.72097e-07
1.67761e-07
1.59527e-07
1.48487e-07
1.35644e-07
1.21861e-07
1.07829e-07
9.40762e-08
8.0979e-08
6.88976e-08
5.77797e-08
4.77813e-08
3.89322e-08
3.12117e-08
2.45703e-08
1.89401e-08
1.42416e-08
1.03886e-08
7.29269e-09
4.86548e-09
3.0206e-09
1.67558e-09
7.53527e-10
2.05323e-10
4.20873e-08
1.15999e-07
2.01448e-07
2.67952e-07
3.10779e-07
3.33148e-07
3.39671e-07
3.35012e-07
3.22507e-07
3.0351e-07
2.79944e-07
2.53693e-07
2.26353e-07
1.99163e-07
1.73013e-07
1.48499e-07
1.25982e-07
1.05835e-07
8.77634e-08
7.18528e-08
5.80308e-08
4.61631e-08
3.60942e-08
2.76592e-08
2.06913e-08
1.50271e-08
1.05095e-08
6.9898e-09
4.32858e-09
2.39684e-09
1.07724e-09
2.94658e-10
1.89594e-07
4.24046e-07
6.15182e-07
7.14127e-07
7.4598e-07
7.37424e-07
7.05321e-07
6.60097e-07
6.07855e-07
5.50722e-07
4.91574e-07
4.32968e-07
3.76824e-07
3.24416e-07
2.76477e-07
2.33334e-07
1.95022e-07
1.61721e-07
1.32594e-07
1.07464e-07
8.60264e-08
6.79063e-08
5.27393e-08
4.01808e-08
2.99096e-08
2.16309e-08
1.50752e-08
9.9981e-09
6.17816e-09
3.41626e-09
1.5352e-09
4.21829e-10
1.2138e-06
1.82566e-06
2.03654e-06
1.98659e-06
1.83622e-06
1.65691e-06
1.47626e-06
1.30608e-06
1.14706e-06
9.98219e-07
8.60795e-07
7.35961e-07
6.24241e-07
5.25514e-07
4.39184e-07
3.64352e-07
2.99965e-07
2.45492e-07
1.99022e-07
1.59686e-07
1.26714e-07
9.92653e-08
7.65897e-08
5.80248e-08
4.29876e-08
3.09662e-08
2.15121e-08
1.42315e-08
8.77843e-09
4.84948e-09
2.18004e-09
6.01834e-10
1.02002e-05
8.91105e-06
7.11708e-06
5.66286e-06
4.56441e-06
3.73265e-06
3.08776e-06
2.57734e-06
2.15502e-06
1.79893e-06
1.49725e-06
1.24183e-06
1.02613e-06
8.44532e-07
6.92075e-07
5.64419e-07
4.57763e-07
3.69661e-07
2.96432e-07
2.35505e-07
1.85283e-07
1.44077e-07
1.10462e-07
8.32382e-08
6.13907e-08
4.40611e-08
3.05206e-08
2.01479e-08
1.24108e-08
6.85282e-09
3.08343e-09
8.55954e-10
9.83028e-05
4.59374e-05
2.51254e-05
1.60335e-05
1.12165e-05
8.31565e-06
6.39433e-06
5.0335e-06
4.00517e-06
3.2063e-06
2.57555e-06
2.07252e-06
1.66871e-06
1.34306e-06
1.07956e-06
8.6585e-07
6.92246e-07
5.51242e-07
4.37553e-07
3.44364e-07
2.68702e-07
2.07467e-07
1.58105e-07
1.18537e-07
8.70604e-08
6.22764e-08
4.30286e-08
2.8355e-08
1.74498e-08
9.63537e-09
4.34192e-09
1.21244e-09
0.000239696
0.000244813
0.000249421
0.000253583
0.000257531
0.000261375
0.000265172
0.000268954
0.00027274
0.000276541
0.000280362
0.000284207
0.000288075
0.000291962
0.000295867
0.000299784
0.000303707
0.000307632
0.000311552
0.00031546
0.00031935
0.000323213
0.000327044
0.000330835
0.000334579
0.000338268
0.000341895
0.000345453
0.000348933
0.00035233
0.000355634
0.000358839
0.00036192
0.000364896
0.000367752
0.000370476
0.000373062
0.000375502
0.00037778
0.000379745
0.000241477
0.000246035
0.000250334
0.000254333
0.000258185
0.000261966
0.000265719
0.00026947
0.000273234
0.000277019
0.000280829
0.000284666
0.000288528
0.000292413
0.000296316
0.000300233
0.000304159
0.000308087
0.00031201
0.000315924
0.000319819
0.00032369
0.000327529
0.000331329
0.000335083
0.000338783
0.000342423
0.000345995
0.000349492
0.000352907
0.000356232
0.000359463
0.000362576
0.000365591
0.000368493
0.000371278
0.000373944
0.000376499
0.000378941
0.000381112
0.000243281
0.00024761
0.000251683
0.000255523
0.000259262
0.000262961
0.000266655
0.000270361
0.000274092
0.000277851
0.000281643
0.000285465
0.000289317
0.000293195
0.000297094
0.000301009
0.000304935
0.000308864
0.00031279
0.000316707
0.000320607
0.000324484
0.000328329
0.000332137
0.000335899
0.000339608
0.000343258
0.00034684
0.000350348
0.000353775
0.000357114
0.000360357
0.000363489
0.000366519
0.000369436
0.000372231
0.000374899
0.000377431
0.000379792
0.000381779
0.000245155
0.000249332
0.000253249
0.000256963
0.000260603
0.000264224
0.000267857
0.000271516
0.000275208
0.000278938
0.000282706
0.000286511
0.000290349
0.000294216
0.000298108
0.000302017
0.000305939
0.000309865
0.00031379
0.000317707
0.000321607
0.000325485
0.000329332
0.00033314
0.000336904
0.000340615
0.000344266
0.00034785
0.000351359
0.000354786
0.000358123
0.000361365
0.000364496
0.000367522
0.00037043
0.000373213
0.000375864
0.000378376
0.000380731
0.000382771
0.000247044
0.000251117
0.000254926
0.000258546
0.000262105
0.00026566
0.000269237
0.000272849
0.000276504
0.000280204
0.000283947
0.000287731
0.000291552
0.000295406
0.000299286
0.000303186
0.000307099
0.000311019
0.000314938
0.000318849
0.000322745
0.000326617
0.000330459
0.000334262
0.00033802
0.000341725
0.000345369
0.000348945
0.000352445
0.000355862
0.000359188
0.000362415
0.000365535
0.000368544
0.000371433
0.000374195
0.000376821
0.000379305
0.000381621
0.000383587
0.000248931
0.000252929
0.000256658
0.000260208
0.000263704
0.000267202
0.00027073
0.000274302
0.000277921
0.000281591
0.000285308
0.000289071
0.000292873
0.00029671
0.000300576
0.000304463
0.000308364
0.000312273
0.000316182
0.000320083
0.000323968
0.00032783
0.00033166
0.000335452
0.000339198
0.00034289
0.00034652
0.000350081
0.000353565
0.000356965
0.000360271
0.000363478
0.000366578
0.000369565
0.000372431
0.000375167
0.000377768
0.000380226
0.00038252
0.000384479
0.000250805
0.000254745
0.000258415
0.00026191
0.000265355
0.000268808
0.000272295
0.000275829
0.000279417
0.000283057
0.000286749
0.000290489
0.000294271
0.00029809
0.000301939
0.00030581
0.000309697
0.000313591
0.000317485
0.000321372
0.000325242
0.000329089
0.000332904
0.000336679
0.000340408
0.000344082
0.000347693
0.000351234
0.000354697
0.000358074
0.000361357
0.000364539
0.000367615
0.000370577
0.000373418
0.000376129
0.000378704
0.000381135
0.000383401
0.000385322
0.000252661
0.000256554
0.000260177
0.000263629
0.000267034
0.000270448
0.0002739
0.000277402
0.000280959
0.000284573
0.00028824
0.000291957
0.000295719
0.000299518
0.000303348
0.000307201
0.00031107
0.000314947
0.000318823
0.000322692
0.000326544
0.000330372
0.000334167
0.000337923
0.00034163
0.000345282
0.000348871
0.000352388
0.000355828
0.000359181
0.000362437
0.000365591
0.000368642
0.000371578
0.000374393
0.000377079
0.000379629
0.000382036
0.000384277
0.000386177
0.000254496
0.000258349
0.000261934
0.000265351
0.000268722
0.000272103
0.000275524
0.000278997
0.000282528
0.000286116
0.00028976
0.000293454
0.000297194
0.000300972
0.000304782
0.000308616
0.000312465
0.000316322
0.000320179
0.000324027
0.000327858
0.000331664
0.000335437
0.00033917
0.000342854
0.000346481
0.000350045
0.000353537
0.000356951
0.000360277
0.000363506
0.000366631
0.000369656
0.000372567
0.000375356
0.000378017
0.000380543
0.000382926
0.000385143
0.000387015
0.000256309
0.000260126
0.000263679
0.000267066
0.000270408
0.000273761
0.000277155
0.000280602
0.000284108
0.000287672
0.000291292
0.000294964
0.000298682
0.000302439
0.000306228
0.00031004
0.000313868
0.000317704
0.000321539
0.000325365
0.000329173
0.000332956
0.000336705
0.000340413
0.000344071
0.000347673
0.00035121
0.000354676
0.000358062
0.000361362
0.000364562
0.000367659
0.000370658
0.000373543
0.000376308
0.000378944
0.000381446
0.000383806
0.000386001
0.000387851
0.000258099
0.000261883
0.000265408
0.000268769
0.000272085
0.000275414
0.000278783
0.000282206
0.000285688
0.000289229
0.000292827
0.000296477
0.000300173
0.000303908
0.000307675
0.000311466
0.000315272
0.000319085
0.000322897
0.000326699
0.000330483
0.000334241
0.000337965
0.000341646
0.000345279
0.000348853
0.000352364
0.000355802
0.000359161
0.000362434
0.000365604
0.000368673
0.000371647
0.000374507
0.000377247
0.00037986
0.00038234
0.000384678
0.00038685
0.000388676
0.000259867
0.000263619
0.000267119
0.000270456
0.000273749
0.000277055
0.000280401
0.000283802
0.000287262
0.000290781
0.000294357
0.000297985
0.00030166
0.000305373
0.000309118
0.000312886
0.000316669
0.000320458
0.000324246
0.000328024
0.000331783
0.000335515
0.000339213
0.000342868
0.000346473
0.00035002
0.000353503
0.000356914
0.000360245
0.000363491
0.000366633
0.000369674
0.000372623
0.000375459
0.000378175
0.000380766
0.000383223
0.00038554
0.000387691
0.000389496
0.000261612
0.000265334
0.00026881
0.000272125
0.000275396
0.000278681
0.000282007
0.000285386
0.000288825
0.000292323
0.000295877
0.000299484
0.000303137
0.000306828
0.00031055
0.000314295
0.000318055
0.000321821
0.000325584
0.000329337
0.00033307
0.000336776
0.000340447
0.000344076
0.000347653
0.000351173
0.000354628
0.000358011
0.000361315
0.000364534
0.000367648
0.000370662
0.000373586
0.000376398
0.000379092
0.00038166
0.000384097
0.000386393
0.000388524
0.000390308
0.000263334
0.000267028
0.00027048
0.000273775
0.000277026
0.000280291
0.000283597
0.000286956
0.000290374
0.000293851
0.000297385
0.00030097
0.000304601
0.00030827
0.00031197
0.000315692
0.000319428
0.00032317
0.000326908
0.000330636
0.000334343
0.000338023
0.000341667
0.000345268
0.000348819
0.000352311
0.000355738
0.000359094
0.000362371
0.000365563
0.000368649
0.000371638
0.000374538
0.000377326
0.000379998
0.000382545
0.000384961
0.000387237
0.000389349
0.000391113
0.000265035
0.000268701
0.000272131
0.000275406
0.000278638
0.000281883
0.000285169
0.000288509
0.000291907
0.000295364
0.000298877
0.000302441
0.000306051
0.000309698
0.000313375
0.000317074
0.000320786
0.000324504
0.000328218
0.000331919
0.000335601
0.000339255
0.000342872
0.000346446
0.000349969
0.000353434
0.000356834
0.000360162
0.000363412
0.000366577
0.000369635
0.000372603
0.000375478
0.000378243
0.000380893
0.00038342
0.000385816
0.000388073
0.000390166
0.000391912
0.000266716
0.000270353
0.000273762
0.000277017
0.000280231
0.000283457
0.000286725
0.000290045
0.000293423
0.00029686
0.000300353
0.000303896
0.000307484
0.00031111
0.000314764
0.00031844
0.000322129
0.000325822
0.000329511
0.000333188
0.000336844
0.000340471
0.000344062
0.000347609
0.000351104
0.000354542
0.000357915
0.000361216
0.000364439
0.000367578
0.000370607
0.000373557
0.000376407
0.00037915
0.000381778
0.000384284
0.000386662
0.000388901
0.000390975
0.000392703
0.000268376
0.000271986
0.000275374
0.00027861
0.000281805
0.000285013
0.000288262
0.000291563
0.000294922
0.00029834
0.000301812
0.000305335
0.000308902
0.000312505
0.000316137
0.00031979
0.000323455
0.000327124
0.000330789
0.00033444
0.00033807
0.000341671
0.000345236
0.000348756
0.000352225
0.000355636
0.000358981
0.000362256
0.000365453
0.000368566
0.000371569
0.000374497
0.000377324
0.000380045
0.000382652
0.000385139
0.000387499
0.00038972
0.000391777
0.000393488
0.000270017
0.0002736
0.000276966
0.000280183
0.00028336
0.00028655
0.000289781
0.000293064
0.000296404
0.000299802
0.000303254
0.000306756
0.000310302
0.000313884
0.000317494
0.000321124
0.000324766
0.000328411
0.00033205
0.000335677
0.000339281
0.000342857
0.000346395
0.000349889
0.000353331
0.000356715
0.000360034
0.000363283
0.000366454
0.000369542
0.00037252
0.000375425
0.00037823
0.000380929
0.000383517
0.000385985
0.000388326
0.000390531
0.000392571
0.000394266
0.00027164
0.000275195
0.00027854
0.000281738
0.000284897
0.00028807
0.000291282
0.000294546
0.000297868
0.000301247
0.000304679
0.000308161
0.000311686
0.000315246
0.000318834
0.000322441
0.00032606
0.000329681
0.000333296
0.000336898
0.000340477
0.000344027
0.000347539
0.000351007
0.000354423
0.000357781
0.000361074
0.000364296
0.000367442
0.000370505
0.000373459
0.000376341
0.000379124
0.000381803
0.000384371
0.000386821
0.000389145
0.000391334
0.000393358
0.000395038
0.000273244
0.000276772
0.000280096
0.000283276
0.000286417
0.000289571
0.000292766
0.000296012
0.000299315
0.000302674
0.000306087
0.000309549
0.000313053
0.000316592
0.000320158
0.000323743
0.000327338
0.000330936
0.000334527
0.000338104
0.000341658
0.000345182
0.000348669
0.000352111
0.000355501
0.000358833
0.000362101
0.000365298
0.000368418
0.000371457
0.000374387
0.000377246
0.000380008
0.000382666
0.000385215
0.000387648
0.000389955
0.000392128
0.000394138
0.000395803
0.000274831
0.000278331
0.000281635
0.000284796
0.000287919
0.000291056
0.000294233
0.000297461
0.000300745
0.000304085
0.000307479
0.00031092
0.000314404
0.000317921
0.000321466
0.000325028
0.000328601
0.000332175
0.000335742
0.000339295
0.000342825
0.000346324
0.000349785
0.000353202
0.000356566
0.000359873
0.000363115
0.000366287
0.000369383
0.000372398
0.000375303
0.00037814
0.000380881
0.00038352
0.00038605
0.000388465
0.000390757
0.000392915
0.00039491
0.000396561
0.000276401
0.000279874
0.000283156
0.000286299
0.000289405
0.000292524
0.000295683
0.000298893
0.000302159
0.00030548
0.000308854
0.000312276
0.000315739
0.000319235
0.000322758
0.000326298
0.000329848
0.000333399
0.000336943
0.000340472
0.000343977
0.000347451
0.000350888
0.000354279
0.000357618
0.0003609
0.000364117
0.000367264
0.000370336
0.000373327
0.000376209
0.000379024
0.000381744
0.000384363
0.000386875
0.000389273
0.00039155
0.000393693
0.000395675
0.000397313
0.000277955
0.000281401
0.000284662
0.000287786
0.000290874
0.000293976
0.000297117
0.000300309
0.000303556
0.000306859
0.000310214
0.000313616
0.000317058
0.000320534
0.000324035
0.000327554
0.000331081
0.000334609
0.00033813
0.000341634
0.000345116
0.000348566
0.000351977
0.000355344
0.000358658
0.000361915
0.000365107
0.00036823
0.000371278
0.000374245
0.000377104
0.000379897
0.000382597
0.000385196
0.00038769
0.000390072
0.000392334
0.000394464
0.000396432
0.000398058
0.000279493
0.000282911
0.000286152
0.000289257
0.000292327
0.000295412
0.000298535
0.000301709
0.000304938
0.000308222
0.000311558
0.00031494
0.000318363
0.000321818
0.000325298
0.000328795
0.0003323
0.000335805
0.000339302
0.000342784
0.000346241
0.000349667
0.000353054
0.000356396
0.000359686
0.000362918
0.000366086
0.000369185
0.000372209
0.000375153
0.000377989
0.000380761
0.000383439
0.00038602
0.000388496
0.000390862
0.00039311
0.000395227
0.000397183
0.000398797
0.000281016
0.000284406
0.000287626
0.000290713
0.000293766
0.000296832
0.000299938
0.000303094
0.000306305
0.000309571
0.000312887
0.00031625
0.000319652
0.000323087
0.000326546
0.000330021
0.000333504
0.000336987
0.000340462
0.00034392
0.000347353
0.000350755
0.000354119
0.000357436
0.000360702
0.00036391
0.000367054
0.000370129
0.000373129
0.00037605
0.000378863
0.000381614
0.000384273
0.000386834
0.000389293
0.000391644
0.000393877
0.000395981
0.000397926
0.00039953
0.000282524
0.000285887
0.000289085
0.000292154
0.000295189
0.000298238
0.000301326
0.000304465
0.000307658
0.000310905
0.000314202
0.000317546
0.000320928
0.000324342
0.00032778
0.000331234
0.000334696
0.000338156
0.000341608
0.000345043
0.000348453
0.000351832
0.000355171
0.000358465
0.000361707
0.000364891
0.000368011
0.000371062
0.00037404
0.000376938
0.000379728
0.000382458
0.000385096
0.000387639
0.000390081
0.000392416
0.000394636
0.000396728
0.000398662
0.000400256
0.000284017
0.000287352
0.00029053
0.00029358
0.000296597
0.000299629
0.0003027
0.000305821
0.000308996
0.000312224
0.000315503
0.000318827
0.000322189
0.000325583
0.000329001
0.000332434
0.000335873
0.000339312
0.000342741
0.000346154
0.000349541
0.000352896
0.000356212
0.000359482
0.0003627
0.000365861
0.000368957
0.000371985
0.00037494
0.000377816
0.000380584
0.000383292
0.000385911
0.000388435
0.00039086
0.00039318
0.000395386
0.000397467
0.000399392
0.000400977
0.000285496
0.000288804
0.00029196
0.000294992
0.000297991
0.000301006
0.000304059
0.000307163
0.000310319
0.00031353
0.00031679
0.000320095
0.000323438
0.000326811
0.000330208
0.00033362
0.000337039
0.000340455
0.000343863
0.000347252
0.000350617
0.000353949
0.000357242
0.000360489
0.000363683
0.00036682
0.000369894
0.000372899
0.00037583
0.000378684
0.00038143
0.000384117
0.000386716
0.000389221
0.000391629
0.000393934
0.000396128
0.000398199
0.000400114
0.000401691
0.000286961
0.000290241
0.000293377
0.00029639
0.000299372
0.000302369
0.000305405
0.000308491
0.00031163
0.000314822
0.000318063
0.000321349
0.000324672
0.000328026
0.000331403
0.000334794
0.000338191
0.000341587
0.000344972
0.000348339
0.000351681
0.000354991
0.00035826
0.000361484
0.000364656
0.00036777
0.00037082
0.000373802
0.000376711
0.000379543
0.000382267
0.000384934
0.000387512