/*--------------------------------*- C++ -*----------------------------------*\
  =========                 |
  \\      /  F ield         | OpenFOAM: The Open Source CFD Toolbox
   \\    /   O peration     | Website:  https://openfoam.org
    \\  /    A nd           | Version:  10
     \\/     M anipulation  |
\*---------------------------------------------------------------------------*/
FoamFile
{
    format      ascii;
    class       volScalarField;
    location    "12000/gas";
    object      CO2;
}
// * * * * * * * * * * * * * * * * * * * * * * * * * * * * * * * * * * * * * //

dimensions      [0 0 0 0 0 0 0];

internalField   nonuniform List<scalar> 
16000
(
1.57037e-48
1.45826e-48
3.4021e-48
8.6579e-50
2.29513e-46
8.99327e-47
1.01497e-46
7.23778e-48
6.37534e-45
1.43942e-45
7.67139e-46
6.19174e-47
1.26975e-43
1.95778e-44
7.95076e-45
6.9707e-46
1.27855e-42
2.72006e-43
9.3783e-44
9.37749e-45
1.05723e-41
3.75002e-42
1.16954e-42
1.1667e-43
1.1865e-40
4.19205e-41
1.394e-41
7.58845e-43
1.20268e-39
4.33744e-40
1.19494e-40
7.10865e-42
1.03883e-38
4.16141e-39
1.33739e-39
7.56236e-41
8.97931e-38
5.10297e-38
1.59139e-38
1.16539e-39
7.28229e-37
4.75946e-37
1.51083e-37
7.9555e-39
5.72657e-36
4.24417e-36
1.32661e-36
6.75378e-38
5.34624e-35
4.68387e-35
1.40475e-35
6.92361e-37
5.81973e-34
3.86734e-34
1.10766e-34
5.86973e-36
6.97961e-33
3.15332e-33
8.35066e-34
4.78887e-35
5.72749e-32
3.58479e-32
6.22679e-33
5.68828e-34
6.23683e-31
4.11949e-31
8.34875e-32
5.32047e-33
6.8756e-30
3.88932e-30
7.10232e-31
4.47713e-32
5.91027e-29
3.84546e-29
8.12334e-30
3.51994e-31
6.7929e-28
4.25713e-28
5.88058e-29
3.46024e-30
7.59016e-27
5.40817e-27
6.63709e-28
4.35395e-29
8.24557e-26
5.86025e-26
7.18637e-27
5.17544e-28
7.87613e-25
5.36841e-25
8.89908e-26
3.96181e-27
8.67528e-24
4.75483e-24
8.48625e-25
5.46337e-26
9.05214e-23
4.14318e-23
8.75304e-24
7.32899e-25
9.42744e-22
4.08476e-22
1.28532e-22
8.59814e-24
7.47405e-21
3.42131e-21
1.18114e-21
7.95299e-23
7.60815e-20
3.55133e-20
9.96267e-21
5.66837e-22
7.87783e-19
4.38462e-19
7.75751e-20
5.07271e-21
6.06636e-18
3.29295e-18
1.06323e-18
8.16079e-20
7.02136e-17
4.43188e-17
1.77258e-17
1.50225e-18
8.39563e-16
6.37709e-16
3.1737e-16
1.45161e-17
6.355e-15
5.32863e-15
3.22528e-15
2.68676e-16
8.11562e-14
7.54648e-14
4.80816e-14
2.58787e-15
1.05326e-12
1.14528e-12
9.54168e-13
5.91627e-14
1.34284e-11
1.74686e-11
1.96571e-11
1.97483e-12
1.66256e-10
2.64959e-10
4.15531e-10
9.13909e-11
1.96647e-09
3.94059e-09
8.95514e-09
5.29126e-09
2.16181e-08
5.60418e-08
1.94273e-07
3.42302e-07
2.10169e-07
7.25095e-07
4.10756e-06
2.33361e-05
1.78341e-17
3.5395e-16
1.59494e-15
3.34917e-15
5.57977e-15
8.24709e-15
1.13031e-14
1.46908e-14
1.83477e-14
2.21984e-14
2.60841e-14
2.98533e-14
3.3346e-14
3.64001e-14
3.88612e-14
4.05942e-14
4.14922e-14
4.14874e-14
4.05544e-14
3.87153e-14
3.60404e-14
3.26438e-14
2.86782e-14
2.4326e-14
1.97892e-14
1.52783e-14
1.10027e-14
7.16532e-15
3.9768e-15
1.64097e-15
3.00598e-16
1.43919e-17
4.3544e-16
3.68783e-15
1.00173e-14
1.84112e-14
2.88226e-14
4.10001e-14
5.46186e-14
6.92952e-14
8.4573e-14
9.99427e-14
1.14918e-13
1.28945e-13
1.41458e-13
1.51912e-13
1.59814e-13
1.64761e-13
1.66463e-13
1.64778e-13
1.59707e-13
1.51417e-13
1.40231e-13
1.26612e-13
1.11137e-13
9.44762e-14
7.73505e-14
6.04999e-14
4.46449e-14
3.04411e-14
1.84012e-14
8.85933e-15
2.66319e-15
3.29017e-16
1.87133e-15
1.13955e-14
2.70238e-14
4.61622e-14
6.90453e-14
9.54179e-14
1.24671e-13
1.55954e-13
1.88266e-13
2.20509e-13
2.51528e-13
2.80136e-13
3.0517e-13
3.25556e-13
3.40368e-13
3.48883e-13
3.50637e-13
3.45462e-13
3.33471e-13
3.15111e-13
2.9112e-13
2.62493e-13
2.30433e-13
1.96287e-13
1.61485e-13
1.2746e-13
9.5561e-14
6.69481e-14
4.24431e-14
2.24567e-14
7.58582e-15
1.00833e-15
5.17373e-15
2.64375e-14
5.55419e-14
9.04563e-14
1.31691e-13
1.78859e-13
2.30946e-13
2.8647e-13
3.43626e-13
4.00399e-13
4.54662e-13
5.04271e-13
5.47176e-13
5.81528e-13
6.05785e-13
6.188e-13
6.19901e-13
6.08952e-13
5.86285e-13
5.52818e-13
5.0994e-13
4.59449e-13
4.03461e-13
3.44298e-13
2.84366e-13
2.26015e-13
1.71373e-13
1.22159e-13
7.94702e-14
4.38122e-14
1.62129e-14
2.09194e-15
1.20507e-14
5.05478e-14
9.96447e-14
1.57899e-13
2.26095e-13
3.03657e-13
3.89025e-13
4.79834e-13
5.73127e-13
6.65554e-13
7.5356e-13
8.33584e-13
9.02258e-13
9.56591e-13
9.94143e-13
1.01317e-12
1.01275e-12
9.92823e-13
9.54105e-13
8.9825e-13
8.27645e-13
7.45289e-13
6.54634e-13
5.59399e-13
4.63354e-13
3.70085e-13
2.82732e-13
2.03701e-13
1.34435e-13
7.56614e-14
2.92909e-14
4.34035e-15
2.45285e-14
8.76841e-14
1.65874e-13
2.58286e-13
3.65964e-13
4.87982e-13
6.21971e-13
7.6429e-13
9.10315e-13
1.05474e-12
1.19193e-12
1.31622e-12
1.42229e-12
1.50547e-12
1.562e-12
1.58929e-12
1.58605e-12
1.55245e-12
1.48977e-12
1.40081e-12
1.28947e-12
1.16052e-12
1.01938e-12
8.71787e-13
7.23435e-13
5.79629e-13
4.44882e-13
3.22545e-13
2.14614e-13
1.2228e-13
4.88571e-14
8.16554e-15
4.53755e-14
1.43407e-13
2.6368e-13
4.05872e-13
5.71308e-13
7.58453e-13
9.63693e-13
1.1815e-12
1.40479e-12
1.62539e-12
1.83457e-12
2.02357e-12
2.18417e-12
2.30921e-12
2.39303e-12
2.43178e-12
2.42373e-12
2.36938e-12
2.27095e-12
2.13295e-12
1.96157e-12
1.76424e-12
1.54926e-12
1.32527e-12
1.10075e-12
8.83439e-13
6.79796e-13
4.94541e-13
3.30552e-13
1.898e-13
7.74419e-14
1.27494e-14
7.81465e-14
2.25662e-13
4.06716e-13
6.2142e-13
8.71416e-13
1.15417e-12
1.46415e-12
1.793e-12
2.12997e-12
2.46262e-12
2.7776e-12
3.06156e-12
3.30199e-12
3.48804e-12
3.61122e-12
3.66592e-12
3.64979e-12
3.56392e-12
3.41198e-12
3.20112e-12
2.94096e-12
2.64289e-12
2.31945e-12
1.98356e-12
1.64773e-12
1.32319e-12
1.01922e-12
7.4257e-13
4.97484e-13
2.87172e-13
1.19396e-13
2.20232e-14
1.28169e-13
3.45903e-13
6.14833e-13
9.35303e-13
1.30933e-12
1.73281e-12
2.1973e-12
2.6901e-12
3.19498e-12
3.69307e-12
4.16415e-12
4.58797e-12
4.94562e-12
5.22079e-12
5.40085e-12
5.47763e-12
5.44801e-12
5.31405e-12
5.08171e-12
4.76216e-12
4.37022e-12
3.92318e-12
3.43991e-12
2.9396e-12
2.44062e-12
1.95934e-12
1.5091e-12
1.09966e-12
7.37343e-13
4.27153e-13
1.80076e-13
3.30906e-14
2.03254e-13
5.20803e-13
9.17034e-13
1.39216e-12
1.94862e-12
2.57992e-12
3.27311e-12
4.00893e-12
4.76278e-12
5.50611e-12
6.20831e-12
6.83876e-12
7.369e-12
7.77459e-12
8.03682e-12
8.14386e-12
8.09164e-12
7.88389e-12
7.53014e-12
7.04776e-12
6.45946e-12
5.7914e-12
5.07183e-12
4.32923e-12
3.59059e-12
2.87972e-12
2.21598e-12
1.61353e-12
1.08175e-12
6.28229e-13
2.68201e-13
5.16617e-14
3.14735e-13
7.74687e-13
1.35594e-12
2.05796e-12
2.88374e-12
3.82309e-12
4.85614e-12
5.95361e-12
7.07811e-12
8.18633e-12
9.23191e-12
1.01686e-11
1.09535e-11
1.15502e-11
1.19309e-11
1.20788e-11
1.19885e-11
1.16667e-11
1.11287e-11
1.04013e-11
9.51919e-12
8.52204e-12
7.45203e-12
6.35144e-12
5.25992e-12
4.21224e-12
3.23647e-12
2.35323e-12
1.57635e-12
9.16987e-13
3.95843e-13
7.92034e-14
4.79235e-13
1.14329e-12
1.99456e-12
3.03088e-12
4.25588e-12
5.65381e-12
7.19413e-12
8.83209e-12
1.05107e-11
1.21639e-11
1.37214e-11
1.51132e-11
1.62747e-11
1.71515e-11
1.77027e-11
1.79041e-11
1.77495e-11
1.72503e-11
1.64308e-11
1.53328e-11
1.40095e-11
1.25206e-11
1.09293e-11
9.29835e-12
7.68611e-12
6.14336e-12
4.71092e-12
3.41875e-12
2.28705e-12
1.33179e-12
5.8046e-13
1.19875e-13
7.21176e-13
1.67946e-12
2.92672e-12
4.45794e-12
6.27762e-12
8.3615e-12
1.06626e-11
1.31121e-11
1.56225e-11
1.80932e-11
2.04166e-11
2.24866e-11
2.42059e-11
2.54931e-11
2.62885e-11
2.65573e-11
2.62931e-11
2.55158e-11
2.4264e-11
2.2603e-11
2.0614e-11
1.83876e-11
1.60184e-11
1.35996e-11
1.12173e-11
8.94548e-12
6.84365e-12
4.95516e-12
3.3092e-12
1.92814e-12
8.47669e-13
1.80153e-13
1.07679e-12
2.46192e-12
4.29316e-12
6.56104e-12
9.27139e-12
1.23868e-11
1.58347e-11
1.95088e-11
2.32741e-11
2.69757e-11
3.0449e-11
3.35324e-11
3.6079e-11
3.79673e-11
3.91096e-11
3.94575e-11
3.90061e-11
3.77892e-11
3.58694e-11
3.33484e-11
3.0351e-11
2.70144e-11
2.34808e-11
1.98886e-11
1.63645e-11
1.30171e-11
9.93239e-12
7.17308e-12
4.78077e-12
2.78615e-12
1.23441e-12
2.69753e-13
1.60008e-12
3.60877e-12
6.30664e-12
9.67784e-12
1.37302e-11
1.84063e-11
2.35929e-11
2.91247e-11
3.47922e-11
4.03554e-11
4.55613e-11
5.01627e-11
5.39373e-11
5.67039e-11
5.83347e-11
5.87631e-11
5.79898e-11
5.60734e-11
5.31145e-11
4.9273e-11
4.47411e-11
3.97272e-11
3.44449e-11
2.91002e-11
2.38797e-11
1.89419e-11
1.44117e-11
1.03788e-11
6.90173e-12
4.0216e-12
1.79408e-12
4.01948e-13
2.37224e-12
5.29874e-12
9.29167e-12
1.43266e-11
2.04149e-11
2.74671e-11
3.53063e-11
4.36728e-11
5.22386e-11
6.06301e-11
6.84555e-11
7.53358e-11
8.09338e-11
8.49796e-11
8.72883e-11
8.77705e-11
8.64418e-11
8.34032e-11
7.8818e-11
7.29383e-11
6.6061e-11
5.85033e-11
5.05865e-11
4.2617e-11
3.487e-11
2.75765e-11
2.09166e-11
1.5018e-11
9.96207e-12
5.80205e-12
2.60404e-12
5.97077e-13
3.51614e-12
7.80468e-12
1.37478e-11
2.13108e-11
3.05103e-11
4.12067e-11
5.31197e-11
6.58383e-11
7.88448e-11
9.15526e-11
1.03352e-10
1.1366e-10
1.21964e-10
1.27863e-10
1.31092e-10
1.31537e-10
1.29246e-10
1.24394e-10
1.17247e-10
1.08205e-10
9.77266e-11
8.62964e-11
7.4398e-11
6.24871e-11
5.09686e-11
4.01785e-11
3.03756e-11
2.174e-11
1.43827e-11
8.36994e-12
3.77613e-12
8.84024e-13
5.2196e-12
1.15473e-11
2.04523e-11
3.18887e-11
4.58818e-11
6.22106e-11
8.04263e-11
9.98709e-11
1.1972e-10
1.39045e-10
1.56893e-10
1.72362e-10
1.84675e-10
1.93237e-10
1.97676e-10
1.97856e-10
1.93891e-10
1.86088e-10
1.7488e-10
1.60905e-10
1.44874e-10
1.27527e-10
1.09592e-10
9.17471e-11
7.45863e-11
5.8597e-11
4.41481e-11
3.14915e-11
2.0775e-11
1.20764e-11
5.47232e-12
1.30618e-12
7.77183e-12
1.7182e-11
3.06277e-11
4.8054e-11
6.94997e-11
9.46086e-11
1.22652e-10
1.52565e-10
1.8302e-10
2.12539e-10
2.39619e-10
2.62863e-10
2.81094e-10
2.93439e-10
2.99383e-10
2.98789e-10
2.91905e-10
2.79264e-10
2.6158e-10
2.39869e-10
2.15239e-10
1.88819e-10
1.61706e-10
1.34904e-10
1.09285e-10
8.55513e-11
6.4225e-11
4.5653e-11
3.0027e-11
1.74297e-11
7.92659e-12
1.92531e-12
1.16243e-11
2.57428e-11
4.62219e-11
7.30065e-11
1.06154e-10
1.45078e-10
1.88578e-10
2.34905e-10
2.819e-10
3.27188e-10
3.68392e-10
4.03343e-10
4.30262e-10
4.4788e-10
4.55515e-10
4.5309e-10
4.4109e-10
4.20472e-10
3.92398e-10
3.58498e-10
3.20495e-10
2.80114e-10
2.39004e-10
1.98654e-10
1.60331e-10
1.25043e-10
9.35225e-11
6.62383e-11
4.3429e-11
2.51664e-11
1.14774e-11
2.83264e-12
1.74867e-11
3.8881e-11
7.03808e-11
1.11954e-10
1.63678e-10
2.24564e-10
2.92595e-10
3.64859e-10
4.37807e-10
5.07593e-10
5.70436e-10
6.22971e-10
6.62524e-10
6.87289e-10
6.96415e-10
6.90027e-10
6.69043e-10
6.35189e-10
5.90354e-10
5.37153e-10
4.7827e-10
4.16338e-10
3.53831e-10
2.92942e-10
2.35508e-10
1.8296e-10
1.36312e-10
9.61846e-11
6.28554e-11
3.63523e-11
1.66134e-11
4.15916e-12
2.64971e-11
5.92745e-11
1.08266e-10
1.73506e-10
2.55083e-10
3.51273e-10
4.58622e-10
5.72209e-10
6.86129e-10
7.94102e-10
8.90104e-10
9.68923e-10
1.02658e-09
1.06059e-09
1.07001e-09
1.05546e-09
1.01867e-09
9.62734e-10
8.90716e-10
8.06819e-10
7.15216e-10
6.19921e-10
5.24625e-10
4.32545e-10
3.46321e-10
2.67962e-10
1.98848e-10
1.39773e-10
9.1028e-11
5.25298e-11
2.40406e-11
6.09653e-12
4.04868e-11
9.13353e-11
1.68492e-10
2.72157e-10
4.02358e-10
5.56001e-10
7.27037e-10
9.07008e-10
1.08598e-09
1.25363e-09
1.40035e-09
1.51812e-09
1.60114e-09
1.64613e-09
1.65235e-09
1.62153e-09
1.55688e-09
1.46391e-09
1.3476e-09
1.21468e-09
1.07164e-09
9.24557e-10
7.78918e-10
6.39401e-10
5.09758e-10
3.92772e-10
2.90277e-10
2.03241e-10
1.31895e-10
7.59289e-11
3.47769e-11
8.92002e-12
6.25052e-11
1.42478e-10
2.65737e-10
4.32801e-10
6.43414e-10
8.91821e-10
1.16716e-09
1.45467e-09
1.73744e-09
1.99845e-09
2.22238e-09
2.39705e-09
2.51424e-09
2.57002e-09
2.56463e-09
2.50206e-09
2.38822e-09
2.23291e-09
2.0441e-09
1.83262e-09
1.60848e-09
1.38084e-09
1.15778e-09
9.46043e-10
7.50879e-10
5.76066e-10
4.23962e-10
2.95657e-10
1.91178e-10
1.0977e-10
5.0289e-11
1.30301e-11
9.75853e-11
2.25414e-10
4.25586e-10
6.99219e-10
1.0451e-09
1.45211e-09
1.90028e-09
2.36336e-09
2.81238e-09
3.21918e-09
3.55955e-09
3.81536e-09
3.97558e-09
4.03641e-09
4.00084e-09
3.87708e-09
3.67642e-09
3.41573e-09
3.10788e-09
2.77011e-09
2.4178e-09
2.06464e-09
1.72241e-09
1.40064e-09
1.10658e-09
8.45196e-10
6.19384e-10
4.30191e-10
2.77152e-10
1.58695e-10
7.26873e-11
1.90015e-11
1.54592e-10
3.62568e-10
6.93917e-10
1.1506e-09
1.72847e-09
2.40514e-09
3.14296e-09
3.8947e-09
4.61032e-09
5.2435e-09
5.75654e-09
6.12342e-09
6.33077e-09
6.37724e-09
6.27237e-09
6.03205e-09
5.67805e-09
5.23881e-09
4.73491e-09
4.19369e-09
3.63848e-09
3.08954e-09
2.56373e-09
2.07433e-09
1.63103e-09
1.24013e-09
9.04878e-10
6.25918e-10
4.01759e-10
2.29386e-10
1.05002e-10
2.76658e-11
2.48544e-10
5.94606e-10
1.15587e-09
1.93515e-09
2.91959e-09
4.06233e-09
5.2909e-09
6.51937e-09
7.66146e-09
8.64177e-09
9.40331e-09
9.9112e-09
1.01526e-08
1.01345e-08
9.88026e-09
9.42029e-09
8.79545e-09
8.05314e-09
7.22576e-09
6.35624e-09
5.47957e-09
4.62511e-09
3.81656e-09
3.07188e-09
2.40355e-09
1.81907e-09
1.32153e-09
9.10389e-10
5.82193e-10
3.31433e-10
1.51578e-10
4.02142e-11
4.08419e-10
9.9885e-10
1.97695e-09
3.34271e-09
5.05683e-09
7.01804e-09
9.08496e-09
1.11011e-08
1.29191e-08
1.4419e-08
1.55193e-08
1.61791e-08
1.63951e-08
1.61963e-08
1.5632e-08
1.47619e-08
1.36591e-08
1.24019e-08
1.10403e-08
9.64078e-09
8.25467e-09
6.92364e-09
5.67996e-09
4.54698e-09
3.53984e-09
2.66648e-09
1.92868e-09
1.32325e-09
8.43117e-10
4.78563e-10
2.18622e-10
5.836e-11
6.84884e-10
1.72845e-09
3.5018e-09
5.97461e-09
9.02987e-09
1.24461e-08
1.59492e-08
1.92572e-08
2.21237e-08
2.43669e-08
2.5881e-08
2.66336e-08
2.66539e-08
2.60201e-08
2.48291e-08
2.31996e-08
2.12549e-08
1.91237e-08
1.68801e-08
1.46251e-08
1.24324e-08
1.03588e-08
8.44654e-09
6.72401e-09
5.20782e-09
3.90436e-09
2.8117e-09
1.92133e-09
1.21978e-09
6.90353e-10
3.14982e-10
8.45485e-11
1.19147e-09
3.16623e-09
6.5501e-09
1.1187e-08
1.67454e-08
2.27517e-08
2.86943e-08
3.40759e-08
3.85004e-08
4.17136e-08
4.36071e-08
4.41985e-08
4.3604e-08
4.19974e-08
3.95698e-08
3.65435e-08
3.31205e-08
2.9508e-08
2.58102e-08
2.21769e-08
1.87092e-08
1.54812e-08
1.2544e-08
9.9288e-09
7.64989e-09
5.70795e-09
4.09272e-09
2.78567e-09
1.76234e-09
9.94614e-10
4.53223e-10
1.22274e-10
2.22051e-09
6.16252e-09
1.2936e-08
2.19831e-08
3.23894e-08
4.30439e-08
5.30089e-08
6.1562e-08
6.81014e-08
7.23259e-08
7.42018e-08
7.39017e-08
7.17335e-08
6.80448e-08
6.32255e-08
5.76489e-08
5.1642e-08
4.55269e-08
3.94385e-08
3.35905e-08
2.81137e-08
2.30966e-08
1.85936e-08
1.46313e-08
1.12138e-08
8.32747e-09
5.94543e-09
4.03119e-09
2.54176e-09
1.43066e-09
6.51118e-10
1.76497e-10
4.44175e-09
1.28429e-08
2.71643e-08
4.5485e-08
6.53394e-08
8.43113e-08
1.00652e-07
1.13569e-07
1.22402e-07
1.26933e-07
1.2741e-07
1.2439e-07
1.18541e-07
1.1057e-07
1.01187e-07
9.09955e-08
8.04983e-08
7.01757e-08
6.01745e-08
5.07829e-08
4.21534e-08
3.43752e-08
2.74904e-08
2.15045e-08
1.63946e-08
1.21176e-08
8.61523e-09
5.81986e-09
3.65791e-09
2.0538e-09
9.33685e-10
2.5425e-10
9.68434e-09
2.90847e-08
6.12333e-08
9.95758e-08
1.37712e-07
1.70822e-07
1.96368e-07
2.13761e-07
2.23304e-07
2.25213e-07
2.20496e-07
2.10483e-07
1.96512e-07
1.79977e-07
1.62015e-07
1.43555e-07
1.25314e-07
1.07964e-07
9.15963e-08
7.65668e-08
6.30172e-08
5.10013e-08
4.05131e-08
3.15033e-08
2.38915e-08
1.7577e-08
1.24461e-08
8.37825e-09
5.25037e-09
2.94131e-09
1.33597e-09
3.65436e-10
2.36661e-08
7.30333e-08
1.49685e-07
2.31567e-07
3.03444e-07
3.57591e-07
3.92366e-07
4.09636e-07
4.12703e-07
4.0326e-07
3.83908e-07
3.57336e-07
3.26306e-07
2.93009e-07
2.59168e-07
2.26063e-07
1.94597e-07
1.65605e-07
1.3896e-07
1.15025e-07
9.38505e-08
7.5374e-08
5.94698e-08
4.59701e-08
3.46823e-08
2.54009e-08
1.79163e-08
1.20208e-08
7.51277e-09
4.20053e-09
1.90675e-09
5.23974e-10
6.79102e-08
2.08342e-07
4.00186e-07
5.72909e-07
6.97982e-07
7.71347e-07
8.00634e-07
7.96866e-07
7.70631e-07
7.26808e-07
6.70565e-07
6.07453e-07
5.41645e-07
4.76272e-07
4.13528e-07
3.54839e-07
3.01042e-07
2.52967e-07
2.0989e-07
1.72012e-07
1.39119e-07
1.10871e-07
8.68883e-08
6.67712e-08
5.01206e-08
3.65484e-08
2.56843e-08
1.71803e-08
1.07116e-08
5.97941e-09
2.71353e-09
7.49257e-10
2.4608e-07
6.9119e-07
1.17428e-06
1.50386e-06
1.66822e-06
1.70601e-06
1.66076e-06
1.56731e-06
1.44814e-06
1.3132e-06
1.17179e-06
1.03123e-06
8.96674e-07
7.71329e-07
6.56959e-07
5.5428e-07
4.63301e-07
3.84324e-07
3.1528e-07
2.55801e-07
2.05073e-07
1.62185e-07
1.26259e-07
9.64708e-08
7.20593e-08
5.23288e-08
3.66477e-08
2.44462e-08
1.52103e-08
8.48022e-09
3.84903e-09
1.06824e-09
1.21935e-06
2.69709e-06
3.76217e-06
4.15317e-06
4.10764e-06
3.84035e-06
3.47969e-06
3.09611e-06
2.72362e-06
2.3695e-06
2.04104e-06
1.74276e-06
1.47643e-06
1.24174e-06
1.0371e-06
8.60155e-07
7.08256e-07
5.79953e-07
4.70434e-07
3.77897e-07
3.00336e-07
2.35742e-07
1.82334e-07
1.38545e-07
1.03003e-07
7.45083e-08
5.20165e-08
3.46135e-08
2.14998e-08
1.19771e-08
5.4396e-09
1.51803e-09
8.3657e-06
1.22163e-05
1.29402e-05
1.18852e-05
1.02913e-05
8.70126e-06
7.29061e-06
6.09866e-06
5.0964e-06
4.24728e-06
3.52837e-06
2.92146e-06
2.41073e-06
1.98216e-06
1.62341e-06
1.32372e-06
1.07385e-06
8.68045e-07
6.96446e-07
5.54012e-07
4.36595e-07
3.40204e-07
2.6149e-07
1.97642e-07
1.4629e-07
1.0544e-07
7.34023e-08
4.87426e-08
3.02367e-08
1.68381e-08
7.65605e-09
2.14949e-09
7.26747e-05
6.16004e-05
4.64242e-05
3.44027e-05
2.57156e-05
1.95394e-05
1.51036e-05
1.18678e-05
9.4174e-06
7.51806e-06
6.02464e-06
4.83896e-06
3.89102e-06
3.12913e-06
2.5143e-06
2.01653e-06
1.61245e-06
1.2868e-06
1.02175e-06
8.05186e-07
6.29409e-07
4.87044e-07
3.72144e-07
2.7988e-07
2.06314e-07
1.48217e-07
1.02925e-07
6.8231e-08
4.22889e-08
2.35525e-08
1.07272e-08
3.03161e-09
0.000709419
0.000322924
0.000165402
9.71369e-05
6.23739e-05
4.26597e-05
3.05237e-05
2.25768e-05
1.70446e-05
1.30575e-05
1.01096e-05
7.88779e-06
6.1881e-06
4.87249e-06
3.84462e-06
3.03555e-06
2.39504e-06
1.88621e-06
1.48365e-06
1.15902e-06
8.99098e-07
6.91194e-07
5.25217e-07
3.9319e-07
2.88762e-07
2.06847e-07
1.43337e-07
9.48977e-08
5.8791e-08
3.27637e-08
1.49566e-08
4.25753e-09
0.00675408
0.00692599
0.0070808
0.00722063
0.00735325
0.00748233
0.00760979
0.00773669
0.00786367
0.00799109
0.00811915
0.0082479
0.00837735
0.00850743
0.008638
0.00876894
0.00890007
0.00903121
0.00916214
0.00929266
0.00942255
0.00955158
0.00967954
0.00980618
0.00993128
0.0100546
0.0101759
0.010295
0.0104115
0.0105253
0.0106362
0.0107438
0.0108474
0.0109476
0.0110439
0.0111358
0.0112232
0.0113058
0.0113831
0.0114499
0.00681307
0.00696642
0.00711095
0.00724538
0.00737478
0.00750177
0.00762778
0.00775365
0.00787989
0.00800677
0.00813443
0.0082629
0.00839216
0.00852212
0.00865264
0.00878358
0.00891475
0.00904596
0.00917701
0.00930769
0.00943776
0.00956702
0.00969522
0.00982216
0.00994758
0.0100713
0.010193
0.0103125
0.0104296
0.0105441
0.0106556
0.0107641
0.0108688
0.0109702
0.011068
0.011162
0.0112521
0.0113386
0.0114213
0.0114949
0.00687278
0.00701849
0.00715547
0.00728459
0.00741023
0.0075345
0.0076585
0.00778287
0.00790797
0.00803399
0.008161
0.00828898
0.00841789
0.00854759
0.00867795
0.00880879
0.00893993
0.00907116
0.00920228
0.00933305
0.00946327
0.0095927
0.00972111
0.00984827
0.00997396
0.0100979
0.01022
0.0103399
0.0104573
0.0105722
0.0106842
0.0107931
0.0108984
0.0110005
0.0110988
0.0111932
0.0112835
0.0113692
0.0114494
0.011517
0.00693472
0.00707532
0.00720711
0.00733203
0.00745434
0.00757599
0.00769794
0.00782069
0.00794451
0.00806951
0.00819572
0.00832307
0.00845148
0.0085808
0.00871087
0.00884149
0.00897247
0.0091036
0.00923465
0.00936539
0.0094956
0.00962503
0.00975347
0.00988068
0.0100064
0.0101305
0.0102526
0.0103725
0.01049
0.0106049
0.0107169
0.0108258
0.0109312
0.0110331
0.0111313
0.0112253
0.0113151
0.0114003
0.0114804
0.0115498
0.00699711
0.00713423
0.00726236
0.00738411
0.00750372
0.0076231
0.00774316
0.00786435
0.00798689
0.00811083
0.00823617
0.00836281
0.00849062
0.00861945
0.0087491
0.00887938
0.00901007
0.00914094
0.00927177
0.00940231
0.00953233
0.00966159
0.00978985
0.00991688
0.0100424
0.0101663
0.0102882
0.0104079
0.0105251
0.0106397
0.0107514
0.0108599
0.010965
0.0110664
0.011164
0.0112574
0.0113465
0.0114309
0.0115097
0.0115768
0.00705938
0.00719394
0.00731939
0.00743874
0.00755619
0.00767367
0.00779208
0.00791186
0.00803318
0.00815609
0.00828053
0.0084064
0.00853355
0.0086618
0.00879094
0.00892076
0.00905103
0.00918151
0.00931197
0.00944215
0.00957181
0.00970071
0.00982861
0.00995526
0.0100804
0.0102039
0.0103253
0.0104446
0.0105613
0.0106754
0.0107865
0.0108944
0.0109989
0.0110997
0.0111966
0.0112893
0.0113776
0.0114612
0.0115394
0.0116064
0.00712118
0.00725374
0.00737716
0.00749464
0.00761037
0.00772628
0.00784327
0.00796178
0.00808198
0.00820389
0.00832745
0.00845254
0.00857898
0.00870658
0.00883513
0.00896439
0.00909414
0.00922411
0.00935406
0.00948375
0.00961291
0.00974131
0.00986869
0.0099948
0.0101194
0.0102423
0.0103631
0.0104818
0.0105979
0.0107113
0.0108217
0.0109288
0.0110326
0.0111327
0.0112288
0.0113208
0.0114083
0.0114912
0.0115686
0.0116344
0.00718233
0.00731326
0.00743507
0.00755106
0.00766538
0.00777997
0.00789574
0.00801312
0.00813229
0.00825326
0.00837596
0.00850025
0.00862595
0.00875286
0.00888075
0.00900939
0.00913852
0.00926788
0.00939724
0.00952632
0.00965487
0.00978264
0.00990938
0.0100348
0.0101588
0.0102809
0.0104011
0.010519
0.0106344
0.0107471
0.0108566
0.0109629
0.0110659
0.0111653
0.0112607
0.0113519
0.0114387
0.0115209
0.0115976
0.0116628
0.00724273
0.00737226
0.00749274
0.0076075
0.00772065
0.00783411
0.00794881
0.00806518
0.0081834
0.00830348
0.00842534
0.00854884
0.00867379
0.00879997
0.00892716
0.00905511
0.00918356
0.00931225
0.00944092
0.00956932
0.00969718
0.00982424
0.00995026
0.010075
0.0101982
0.0103196
0.0104389
0.010556
0.0106706
0.0107825
0.0108912
0.0109966
0.0110989
0.0111975
0.0112922
0.0113827
0.0114688
0.0115503
0.0116263
0.0116906
0.00730235
0.00743061
0.00754996
0.00766367
0.0077758
0.00788828
0.00800202
0.00811748
0.00823482
0.00835405
0.0084751
0.00859781
0.008722
0.00884744
0.0089739
0.00910112
0.00922884
0.0093568
0.00948474
0.00961239
0.00973949
0.00986578
0.00999101
0.0101149
0.0102373
0.0103579
0.0104764
0.0105927
0.0107065
0.0108175
0.0109254
0.01103
0.0111314
0.0112293
0.0113233
0.0114131
0.0114986
0.0115794
0.0116548
0.0117185
0.00736117
0.00748825
0.00760659
0.00771938
0.00783061
0.0079422
0.00805508
0.00816969
0.0082862
0.00840463
0.00852489
0.00864683
0.00877025
0.00889493
0.00902064
0.0091471
0.00927407
0.00940126
0.00952843
0.00965529
0.00978159
0.00990707
0.0100315
0.0101546
0.0102761
0.0103958
0.0105135
0.010629
0.0107419
0.0108521
0.0109591
0.0110628
0.0111636
0.0112607
0.011354
0.0114432
0.011528
0.0116082
0.011683
0.011746
0.00741918
0.00754514
0.00766257
0.00777452
0.00788493
0.00799571
0.00810779
0.0082216
0.00833733
0.00845498
0.00857447
0.00869564
0.0088183
0.00894222
0.00906716
0.00919285
0.00931904
0.00944544
0.0095718
0.00969785
0.00982333
0.00994797
0.0100715
0.0101938
0.0103144
0.0104333
0.0105501
0.0106647
0.0107768
0.0108862
0.0109924
0.0110953
0.0111953
0.0112917
0.0113843
0.0114729
0.0115571
0.0116368
0.011711
0.0117734
0.00747639
0.00760129
0.00771786
0.00782901
0.00793866
0.00804868
0.00816
0.00827307
0.00838804
0.00850494
0.00862367
0.00874409
0.00886599
0.00898915
0.00911331
0.00923823
0.00936362
0.00948922
0.00961476
0.00973999
0.00986462
0.00998841
0.0101111
0.0102325
0.0103523
0.0104703
0.0105863
0.0107
0.0108113
0.0109199
0.0110252
0.0111273
0.0112266
0.0113224
0.0114143
0.0115023
0.011586
0.0116651
0.0117387
0.0118006
0.00753281
0.00765668
0.00777243
0.00788283
0.00799175
0.00810105
0.00821166
0.008324
0.00843824
0.00855441
0.0086724
0.00879208
0.00891322
0.00903562
0.009159
0.00928313
0.00940772
0.00953251
0.00965724
0.00978162
0.00990541
0.0100284
0.0101502
0.0102707
0.0103896
0.0105068
0.0106219
0.0107348
0.0108452
0.0109531
0.0110575
0.0111589
0.0112575
0.0113526
0.011444
0.0115314
0.0116145
0.0116931
0.0117663
0.0118276
0.00758848
0.00771133
0.00782628
0.00793596
0.00804418
0.00815279
0.0082627
0.00837434
0.00848787
0.00860332
0.00872059
0.00883952
0.00895992
0.00908155
0.00920417
0.00932751
0.0094513
0.00957528
0.00969918
0.00982273
0.00994567
0.0100678
0.0101887
0.0103084
0.0104265
0.0105427
0.010657
0.0107691
0.0108787
0.0109857
0.0110893
0.0111902
0.0112881
0.0113826
0.0114733
0.0115602
0.0116428
0.0117209
0.0117936
0.0118544
0.0076434
0.00776526
0.00787942
0.0079884
0.00809594
0.00820388
0.00831311
0.00842406
0.0085369
0.00865164
0.00876819
0.0088864
0.00900605
0.00912693
0.00924877
0.00937133
0.00949432
0.00961749
0.00974057
0.00986328
0.00998538
0.0101066
0.0102268
0.0103455
0.0104628
0.0105782
0.0106917
0.0108029
0.0109117
0.011018
0.0111207
0.0112211
0.0113183
0.0114121
0.0115023
0.0115886
0.0116708
0.0117485
0.0118206
0.011881
0.00769762
0.00781848
0.00793187
0.00804016
0.00814703
0.00825431
0.00836287
0.00847315
0.00858531
0.00869935
0.00881519
0.00893268
0.00905159
0.00917172
0.0092928
0.00941457
0.00953678
0.00965914
0.0097814
0.00990328
0.0100246
0.0101449
0.0102642
0.0103822
0.0104986
0.0106132
0.0107258
0.0108363
0.0109443
0.0110498
0.0111518
0.0112515
0.0113481
0.0114413
0.011531
0.0116168
0.0116985
0.0117757
0.0118475
0.0119074
0.00775114
0.00787102
0.00798364
0.00809125
0.00819746
0.00830408
0.00841199
0.0085216
0.00863308
0.00874644
0.00886158
0.00897835
0.00909654
0.00921592
0.00933624
0.00945724
0.00957865
0.00970022
0.00982167
0.00994273
0.0100632
0.0101827
0.0103012
0.0104183
0.0105339
0.0106477
0.0107595
0.0108691
0.0109764
0.0110812
0.0111825
0.0112816
0.0113775
0.0114702
0.0115594
0.0116447
0.011726
0.0118028
0.0118742
0.0119337
0.007804
0.00792289
0.00803475
0.00814168
0.00824724
0.00835322
0.00846047
0.00856943
0.00868024
0.00879292
0.00890736
0.00902342
0.00914088
0.00925952
0.00937909
0.00949933
0.00961996
0.00974074
0.00986138
0.00998164
0.0101013
0.01022
0.0103376
0.0104539
0.0105687
0.0106817
0.0107927
0.0109016
0.0110081
0.0111122
0.0112128
0.0113112
0.0114066
0.0114987
0.0115874
0.0116723
0.0117532
0.0118296
0.0119007
0.0119598
0.00785621
0.00797412
0.00808522
0.00819147
0.00829638
0.00840172
0.00850833
0.00861663
0.00872678
0.00883878
0.00895254
0.00906789
0.00918464
0.00930255
0.00942137
0.00954085
0.00966071
0.0097807
0.00990055
0.01002
0.0101388
0.0102568
0.0103736
0.0104891
0.010603
0.0107152
0.0108255
0.0109336
0.0110394
0.0111428
0.0112427
0.0113405
0.0114353
0.0115269
0.0116151
0.0116996
0.0117801
0.0118562
0.0119269
0.0119857
0.0079078
0.00802472
0.00813506
0.00824064
0.00834491
0.0084496
0.00855558
0.00866323
0.00877272
0.00888405
0.00899712
0.00911178
0.00922781
0.009345
0.00946308
0.00958181
0.00970091
0.00982013
0.0099392
0.0100579
0.0101759
0.010293
0.0104091
0.0105238
0.0106369
0.0107484
0.0108579
0.0109652
0.0110703
0.011173
0.0112722
0.0113695
0.0114637
0.0115548
0.0116425
0.0117266
0.0118068
0.0118826
0.011953
0.0120115
0.00795877
0.00807471
0.00818429
0.0082892
0.00839283
0.00849689
0.00860222
0.00870924
0.00881807
0.00892874
0.00904113
0.00915509
0.00927042
0.00938689
0.00950424
0.00962222
0.00974057
0.00985902
0.00997732
0.0100952
0.0102125
0.0103288
0.0104441
0.010558
0.0106704
0.010781
0.0108898
0.0109965
0.0111009
0.0112028
0.0113014
0.011398
0.0114918
0.0115824
0.0116697
0.0117534
0.0118332
0.0119087
0.0119788
0.0120371
0.00800915
0.00812411
0.00823294
0.00833717
0.00844016
0.00854359
0.00864829
0.00875466
0.00886285
0.00897285
0.00908457
0.00919784
0.00931247
0.00942823
0.00954485
0.0096621
0.0097797
0.0098974
0.0100149
0.0101321
0.0102485
0.0103641
0.0104786
0.0105918
0.0107034
0.0108133
0.0109213
0.0110273
0.011131
0.0112323
0.0113302
0.0114263
0.0115195
0.0116096
0.0116965
0.0117798
0.0118594
0.0119346
0.0120045
0.0120625
0.00805896
0.00817294
0.008281
0.00838457
0.00848692
0.00858971
0.00869378
0.00879952
0.00890706
0.0090164
0.00912745
0.00924005
0.00935398
0.00946903
0.00958494
0.00970146
0.00981833
0.00993528
0.0100521
0.0101684
0.0102841
0.010399
0.0105127
0.0106251
0.010736
0.0108452
0.0109525
0.0110577
0.0111608
0.0112614
0.0113587
0.0114542
0.0115469
0.0116366
0.011723
0.011806
0.0118853
0.0119603
0.01203
0.0120878
0.0081082
0.0082212
0.00832851
0.0084314
0.00853311
0.00863528
0.00873872
0.00884382
0.00895072
0.00905941
0.0091698
0.00928172
0.00939496
0.00950931
0.00962451
0.00974031
0.00985645
0.00997267
0.0100887
0.0102043
0.0103193
0.0104334
0.0105464
0.010658
0.0107682
0.0108766
0.0109832
0.0110878
0.0111902
0.0112902
0.0113869
0.0114818
0.011574
0.0116632
0.0117493
0.011832
0.0119109
0.0119858
0.0120553
0.0121129
0.0081569
0.00826891
0.00837546
0.00847769
0.00857876
0.00868031
0.00878312
0.00888759
0.00899385
0.00910189
0.00921161
0.00932286
0.00943543
0.00954909
0.00966358
0.00977867
0.00989409
0.0100096
0.0101249
0.0102398
0.010354
0.0104673
0.0105796
0.0106905
0.0108
0.0109077
0.0110136
0.0111175
0.0112192
0.0113186
0.0114147
0.0115091
0.0116008
0.0116895
0.0117752
0.0118576
0.0119364
0.012011
0.0120804
0.0121379
0.00820505
0.00831609
0.00842188
0.00852344
0.00862388
0.0087248
0.00882699
0.00893083
0.00903645
0.00914385
0.00925292
0.0093635
0.00947539
0.00958836
0.00970216
0.00981655
0.00993125
0.010046
0.0101606
0.0102748
0.0103883
0.0105009
0.0106124
0.0107226
0.0108314
0.0109384
0.0110437
0.0111469
0.011248
0.0113467
0.0114422
0.0115361
0.0116272
0.0117156
0.0118009
0.011883
0.0119615
0.012036
0.0121053
0.0121627
0.00825268
0.00836274
0.00846778
0.00856867
0.00866848
0.00876877
0.00887034
0.00897355
0.00907854
0.0091853
0.00929372
0.00940364
0.00951486
0.00962715
0.00974026
0.00985395
0.00996795
0.010082
0.0101959
0.0103093
0.0104221
0.010534
0.0106448
0.0107543
0.0108624
0.0109688
0.0110733
0.0111759
0.0112764
0.0113745
0.0114694
0.0115627
0.0116534
0.0117413
0.0118263
0.0119081
0.0119864
0.0120608
0.0121301
0.0121874
0.00829979
0.00840887
0.00851316
0.00861339
0.00871256
0.00881224
0.00891319
0.00901577
0.00912013
0.00922625
0.00933402
0.00944329
0.00955384
0.00966546
0.00977789
0.00989089
0.0100042
0.0101176
0.0102307
0.0103435
0.0104555
0.0105667
0.0106769
0.0107857
0.010893
0.0109987
0.0111026
0.0112046
0.0113044
0.011402
0.0114963
0.0115891
0.0116793
0.0117668
0.0118514
0.0119329
0.0120111
0.0120854
0.0121546
0.012212
0.00834639
0.0084545
0.00855803
0.0086576
0.00875614
0.0088552
0.00895553
0.0090575
0.00916123
0.00926672
0.00937385
0.00948246