/*--------------------------------*- C++ -*----------------------------------*\
  =========                 |
  \\      /  F ield         | OpenFOAM: The Open Source CFD Toolbox
   \\    /   O peration     | Website:  https://openfoam.org
    \\  /    A nd           | Version:  10
     \\/     M anipulation  |
\*---------------------------------------------------------------------------*/
FoamFile
{
    format      ascii;
    class       volScalarField;
    location    "12000/gas";
    object      epsilon;
}
// * * * * * * * * * * * * * * * * * * * * * * * * * * * * * * * * * * * * * //

dimensions      [0 2 -3 0 0 0 0];

internalField   nonuniform List<scalar> 
16000
(
0.00233724
0.000255812
9.97339e-05
0.00074159
0.0133984
0.00205257
0.000520809
0.000820618
0.0122853
0.00320425
0.00101579
0.000970689
0.0111379
0.00385492
0.00148153
0.00111745
0.0120129
0.00422945
0.0018471
0.00124198
0.0127384
0.00445278
0.00220868
0.00135051
0.0121511
0.00455528
0.00257613
0.0014491
0.0110974
0.00456666
0.00292765
0.00154183
0.00982076
0.00451006
0.00324198
0.00162975
0.00863873
0.00440407
0.0034994
0.00171181
0.00763318
0.00426592
0.00370579
0.00178572
0.00680112
0.00410864
0.00384478
0.00184988
0.00612059
0.00395578
0.00390376
0.00190448
0.0055656
0.0038175
0.00390873
0.00194965
0.00510951
0.00368286
0.00388355
0.00198542
0.00473301
0.00355922
0.00383697
0.0020124
0.0044181
0.00343293
0.00377376
0.00203178
0.00415103
0.00330693
0.00369857
0.00204408
0.00392209
0.00318766
0.00361532
0.00204994
0.00372375
0.00307565
0.00352701
0.00204997
0.00355
0.00297017
0.00343592
0.00204489
0.00339605
0.00287042
0.00334365
0.00203525
0.0032581
0.00277581
0.00325133
0.00202159
0.00313311
0.00268579
0.00315985
0.00200432
0.00301873
0.00259992
0.00306972
0.00198397
0.0029131
0.00251778
0.0029813
0.00196098
0.00281475
0.00243929
0.0028949
0.00193568
0.00272253
0.00236416
0.00281073
0.00190845
0.00263563
0.00229212
0.00272888
0.00187958
0.00255341
0.00222307
0.0026494
0.00184935
0.00247516
0.00215597
0.0025723
0.00181805
0.00240057
0.00209158
0.00249755
0.0017858
0.00232932
0.00202978
0.00242518
0.00175284
0.00226112
0.00197059
0.00235512
0.00171934
0.00219575
0.00191333
0.00228729
0.0016854
0.002133
0.00185848
0.00222164
0.00165117
0.00207274
0.00180509
0.00215806
0.00161673
0.00201444
0.0017542
0.00209621
0.00158207
0.001959
0.00170496
0.00203726
0.00154721
0.00190293
0.00165715
0.00197284
0.00151071
0.00036099
2.22097e-05
1.10994e-05
9.62169e-06
9.03182e-06
8.55361e-06
8.10059e-06
7.67364e-06
7.27976e-06
6.922e-06
6.59998e-06
6.31141e-06
6.05316e-06
5.82183e-06
5.61418e-06
5.42724e-06
5.25837e-06
5.10531e-06
4.96618e-06
4.83941e-06
4.72384e-06
4.61868e-06
4.52368e-06
4.43939e-06
4.36782e-06
4.31424e-06
4.29228e-06
4.34247e-06
4.61751e-06
5.97119e-06
1.7728e-05
0.00037355
0.000378374
6.47959e-05
3.38977e-05
2.68732e-05
2.39941e-05
2.1967e-05
2.01624e-05
1.84839e-05
1.69364e-05
1.55315e-05
1.42711e-05
1.31484e-05
1.21518e-05
1.12678e-05
1.04828e-05
9.78394e-06
9.15989e-06
8.60082e-06
8.09851e-06
7.64629e-06
7.2391e-06
6.8737e-06
6.54914e-06
6.26796e-06
6.03906e-06
5.88486e-06
5.86131e-06
6.12268e-06
7.18511e-06
1.14617e-05
3.67398e-05
0.000365241
0.000415592
0.000113757
6.39167e-05
4.90306e-05
4.25473e-05
3.83226e-05
3.4813e-05
3.16304e-05
2.8702e-05
2.60275e-05
2.36109e-05
2.1446e-05
1.95173e-05
1.78039e-05
1.62828e-05
1.49311e-05
1.3728e-05
1.26549e-05
1.16958e-05
1.0838e-05
1.00719e-05
9.39151e-06
8.7959e-06
8.29131e-06
7.89692e-06
7.65826e-06
7.68259e-06
8.24735e-06
1.02118e-05
1.71421e-05
5.04676e-05
0.000356031
0.000471815
0.000164244
9.76307e-05
7.3977e-05
6.30179e-05
5.61065e-05
5.06679e-05
4.58878e-05
4.15298e-05
3.754e-05
3.39097e-05
3.06321e-05
2.76915e-05
2.50642e-05
2.2722e-05
2.06356e-05
1.87764e-05
1.71186e-05
1.56396e-05
1.43213e-05
1.31501e-05
1.21183e-05
1.12259e-05
1.04844e-05
9.92497e-06
9.61756e-06
9.71954e-06
1.06192e-05
1.3448e-05
2.24739e-05
6.11759e-05
0.000347504
0.000543291
0.000217059
0.000133561
0.000100673
8.46376e-05
7.46357e-05
6.70669e-05
6.06213e-05
5.48318e-05
4.95451e-05
4.47158e-05
4.03263e-05
3.63592e-05
3.27907e-05
2.95913e-05
2.67286e-05
2.41697e-05
2.18843e-05
1.98454e-05
1.80309e-05
1.6425e-05
1.50194e-05
1.38163e-05
1.28329e-05
1.21129e-05
1.17492e-05
1.19443e-05
1.31814e-05
1.68091e-05
2.76152e-05
7.00685e-05
0.000341565
0.000625599
0.000271458
0.000170848
0.000128471
0.000106955
9.35401e-05
8.36537e-05
7.54688e-05
6.82462e-05
6.16961e-05
5.57099e-05
5.02447e-05
4.52751e-05
4.07758e-05
3.67176e-05
3.30678e-05
2.97927e-05
2.68601e-05
2.4241e-05
2.19119e-05
1.98561e-05
1.80664e-05
1.65477e-05
1.53238e-05
1.44496e-05
1.40391e-05
1.43339e-05
1.58986e-05
2.02555e-05
3.26003e-05
7.77731e-05
0.000337439
0.000714355
0.000326564
0.000208835
0.000156893
0.000129648
0.000112582
0.000100216
9.02147e-05
8.15471e-05
7.37623e-05
6.66666e-05
6.01758e-05
5.42475e-05
4.88509e-05
4.39563e-05
3.95321e-05
3.55457e-05
3.19656e-05
2.87633e-05
2.59159e-05
2.34078e-05
2.12337e-05
1.94022e-05
1.79434e-05
1.69227e-05
1.64727e-05
1.68697e-05
1.87489e-05
2.37799e-05
3.7462e-05
8.46633e-05
0.000334784
0.000806185
0.000381667
0.000247016
0.000185563
0.000152467
0.00013159
0.000116618
0.000104728
9.45952e-05
8.55946e-05
7.74314e-05
6.99668e-05
6.31314e-05
5.68834e-05
5.11901e-05
4.60204e-05
4.1344e-05
3.71317e-05
3.33574e-05
3.00005e-05
2.7048e-05
2.44975e-05
2.23621e-05
2.06776e-05
1.95193e-05
1.90362e-05
1.9536e-05
2.17163e-05
2.73704e-05
4.22303e-05
9.09927e-05
0.000333522
0.000898413
0.000436449
0.000285043
0.000214188
0.000175209
0.000150433
0.000132766
0.000118927
0.000107307
9.71011e-05
8.79041e-05
7.95129e-05
7.18225e-05
6.47738e-05
5.83274e-05
5.24516e-05
4.71179e-05
4.23002e-05
3.7976e-05
3.41283e-05
3.07477e-05
2.78357e-05
2.54097e-05
2.35117e-05
2.22256e-05
2.17159e-05
2.23188e-05
2.47877e-05
3.10211e-05
4.69318e-05
9.69435e-05
0.000333638
0.0009891
0.000489976
0.000322542
0.000242524
0.000197713
0.000169007
0.000148594
0.000132764
0.000119636
0.000108229
9.80245e-05
8.87469e-05
8.02496e-05
7.24507e-05
6.53002e-05
5.87631e-05
5.28119e-05
4.74235e-05
4.25795e-05
3.8267e-05
3.44809e-05
3.12273e-05
2.85279e-05
2.64306e-05
2.50278e-05
2.44983e-05
2.52051e-05
2.79518e-05
3.47276e-05
5.15872e-05
0.000102656
0.000335088
0.00107686
0.000541834
0.000359207
0.000270372
0.000219847
0.000187231
0.000164054
0.000146208
0.000131559
0.000118954
0.000107761
9.76304e-05
8.8369e-05
7.98673e-05
7.2061e-05
6.49093e-05
5.83839e-05
5.24642e-05
4.71354e-05
4.23891e-05
3.82248e-05
3.46528e-05
3.16998e-05
2.94193e-05
2.7912e-05
2.73704e-05
2.81826e-05
3.11984e-05
3.84874e-05
5.6227e-05
0.000108244
0.000337873
0.00116073
0.000591753
0.00039481
0.000297571
0.000241506
0.000205044
0.000179113
0.000159245
0.000143068
0.000129268
0.000117102
0.000106146
9.61573e-05
8.69956e-05
7.85792e-05
7.08588e-05
6.38036e-05
5.73939e-05
5.16182e-05
4.6472e-05
4.19592e-05
3.80946e-05
3.49096e-05
3.24632e-05
3.08644e-05
3.03192e-05
3.12394e-05
3.45182e-05
4.22986e-05
6.08749e-05
0.000113805
0.000342014
0.00124005
0.000639514
0.000429179
0.000323996
0.000262608
0.000222395
0.000193749
0.000171869
0.000154165
0.000139175
0.00012605
0.000114292
0.000103607
9.3823e-05
8.48383e-05
7.65926e-05
6.90506e-05
6.21924e-05
5.60083e-05
5.04973e-05
4.56671e-05
4.15368e-05
3.81423e-05
3.55483e-05
3.38718e-05
3.33321e-05
3.43642e-05
3.79016e-05
4.61557e-05
6.55225e-05
0.000119395
0.000347504
0.00131443
0.000684939
0.000462186
0.000349552
0.000283091
0.000239252
0.000207947
0.000184079
0.000164861
0.000148689
0.000134617
0.000122075
0.000110721
0.000100348
9.08322e-05
8.21012e-05
7.41132e-05
6.68462e-05
6.02916e-05
5.44506e-05
4.93343e-05
4.49655e-05
4.13845e-05
3.86615e-05
3.69216e-05
3.63972e-05
3.75458e-05
4.13397e-05
5.00542e-05
7.01826e-05
0.000125063
0.000354317
0.00138366
0.000727897
0.000493735
0.000374169
0.000302909
0.00025559
0.000221701
0.000195883
0.000175168
0.000157827
0.00014282
0.000129512
0.000117511
0.000106577
9.65633e-05
8.73828e-05
7.89862e-05
7.13479e-05
6.44586e-05
5.83213e-05
5.29493e-05
4.83688e-05
4.4624e-05
4.17907e-05
4.00018e-05
3.95031e-05
4.07738e-05
4.48237e-05
5.39901e-05
7.48674e-05
0.000130843
0.000362405
0.00144769
0.000768306
0.000523762
0.000397798
0.000322031
0.000271394
0.000235012
0.00020729
0.000185103
0.000166608
0.000150681
0.000136622
0.000123994
0.000112523
0.00010204
9.24415e-05
8.36698e-05
7.56944e-05
6.85041e-05
6.2102e-05
5.65033e-05
5.17368e-05
4.78503e-05
4.49249e-05
4.31016e-05
4.26391e-05
4.40383e-05
4.83457e-05
5.796e-05
7.9586e-05
0.000136758
0.000371698
0.00150655
0.000806128
0.000552228
0.000420407
0.000340439
0.00028666
0.000247882
0.000218313
0.000194686
0.000175057
0.000158223
0.000143427
0.000130189
0.000118202
0.000107274
9.72854e-05
8.81685e-05
7.98866e-05
7.24257e-05
6.57881e-05
5.99898e-05
5.50614e-05
5.10543e-05
4.80544e-05
4.62109e-05
4.57953e-05
4.73301e-05
5.1898e-05
6.19603e-05
8.43441e-05
0.000142825
0.000382105
0.00156041
0.000841367
0.000579118
0.000441983
0.000358125
0.000301387
0.000260322
0.000228968
0.000203938
0.000183196
0.00016547
0.000149952
0.000136118
0.000123633
0.00011228
0.000101926
9.24897e-05
8.39284e-05
7.62241e-05
6.93774e-05
6.34042e-05
5.83364e-05
5.42284e-05
5.11708e-05
4.93208e-05
4.89628e-05
5.06407e-05
5.54737e-05
6.59875e-05
8.91446e-05
0.00014905
0.000393522
0.00160944
0.000874064
0.000604438
0.000462525
0.000375091
0.000315583
0.000272345
0.000239274
0.000212881
0.000191049
0.000172449
0.00015622
0.000141805
0.000128836
0.000117077
0.000106376
9.6643e-05
8.78259e-05
7.99022e-05
7.28698e-05
6.67439e-05
6.15573e-05
5.73665e-05
5.42669e-05
5.24234e-05
5.21334e-05
5.39623e-05
5.90661e-05
7.00374e-05
9.39882e-05
0.000155434
0.000405824
0.00165388
0.00090429
0.000628216
0.000482045
0.000391349
0.000329263
0.000283968
0.000249251
0.000221537
0.000198643
0.000179184
0.000162258
0.000147272
0.000133833
0.000121681
0.000110651
0.00010064
9.15866e-05
8.34642e-05
7.62668e-05
7.0008e-05
6.47208e-05
6.04638e-05
5.73367e-05
5.5512e-05
5.53001e-05
5.72878e-05
6.26689e-05
7.41058e-05
9.88733e-05
0.000161969
0.000418882
0.00169401
0.000932143
0.000650496
0.000500571
0.00040692
0.000342447
0.000295214
0.000258924
0.000229933
0.000206003
0.000185701
0.00016809
0.000152544
0.000138644
0.000126112
0.000114766
0.000104492
9.52197e-05
8.69161e-05
7.95714e-05
7.31969e-05
6.78252e-05
6.35168e-05
6.03753e-05
5.85808e-05
5.84564e-05
6.0611e-05
6.62764e-05
7.81879e-05
0.000103796
0.000168642
0.000432564
0.00173008
0.000957744
0.000671341
0.00051814
0.000421834
0.000355161
0.000306108
0.000268318
0.000238094
0.000213155
0.000192028
0.000173742
0.000157643
0.000143291
0.000130388
0.000118738
0.000108212
9.8735e-05
9.02647e-05
8.27875e-05
7.63119e-05
7.087e-05
6.65231e-05
6.33789e-05
6.1625e-05
6.15971e-05
6.39261e-05
6.98829e-05
8.22787e-05
0.000108752
0.000175436
0.000446739
0.00176239
0.000981229
0.000690826
0.000534803
0.000436128
0.000367439
0.000316681
0.000277462
0.00024605
0.000220127
0.00019819
0.000179238
0.000162594
0.000147796
0.000134529
0.000122581
0.000111815
0.000102143
9.35176e-05
8.59201e-05
7.93558e-05
7.38554e-05
6.94814e-05
6.63449e-05
6.46406e-05
6.47173e-05
6.72279e-05
7.34832e-05
8.63728e-05
0.000113733
0.000182329
0.000461277
0.00179121
0.00100275
0.000709046
0.000550624
0.000449853
0.000379321
0.00032697
0.000286391
0.000253832
0.000226949
0.000204216
0.000184606
0.000167421
0.000152181
0.000138553
0.000126314
0.000115313
0.000105454
9.6683e-05
8.89748e-05
8.23318e-05
7.67828e-05
7.23911e-05
6.92711e-05
6.76247e-05
6.78132e-05
7.0512e-05
7.70724e-05
9.04648e-05
0.000118732
0.000189301
0.000476056
0.00181683
0.00102249
0.000726108
0.00056568
0.000463067
0.000390859
0.000337017
0.000295142
0.000261474
0.000233653
0.000210133
0.000189871
0.000172147
0.000156466
0.00014248
0.000129952
0.00011872
0.00010868
9.97696e-05
9.1958e-05
8.52439e-05
7.96543e-05
7.52526e-05
7.21566e-05
7.05749e-05
7.08816e-05
7.37744e-05
8.06458e-05
9.45488e-05
0.00012374
0.000196325
0.000490962
0.00183952
0.00104061
0.000742136
0.000580063
0.000475845
0.000402111
0.000346874
0.00030376
0.000269014
0.000240272
0.000215974
0.00019506
0.000176798
0.000160674
0.000146329
0.000133512
0.000122051
0.000111833
0.000102786
9.48763e-05
8.80967e-05
8.24724e-05
7.8067e-05
7.50009e-05
7.34896e-05
7.39197e-05
7.70115e-05
8.4199e-05
9.86191e-05
0.000128746
0.000203378
0.000505891
0.00185954
0.00105733
0.000757276
0.000593883
0.000488274
0.00041315
0.0003566
0.000312295
0.000276497
0.000246844
0.00022177
0.000200203
0.000181398
0.000164827
0.000150119
0.000137011
0.00012532
0.000114923
0.000105743
9.77368e-05
9.08953e-05
8.52405e-05
8.08357e-05
7.78042e-05
7.63678e-05
7.69256e-05
8.02203e-05
8.77277e-05
0.00010267
0.000133741
0.000210435
0.000520751
0.00187716
0.00107286
0.000771695
0.000607275
0.000500461
0.000424064
0.000366269
0.000320807
0.000283972
0.000253412
0.000227557
0.00020533
0.000185973
0.000168948
0.00015387
0.000140464
0.000128539
0.000117962
0.000108648
0.000100547
9.36451e-05
8.79622e-05
8.35611e-05
8.05672e-05
7.9209e-05
7.98976e-05
8.33981e-05
9.12283e-05
0.000106695
0.000138715
0.000217472
0.000535459
0.00189263
0.00108745
0.000785593
0.000620399
0.000512539
0.000434959
0.000375965
0.000329366
0.000291497
0.000260021
0.000233374
0.000210473
0.000190552
0.000173059
0.000157601
0.00014389
0.000131725
0.000120963
0.000111511
0.000103314
9.63517e-05
9.06416e-05
8.62455e-05
8.32913e-05
8.20132e-05
8.28347e-05
8.65428e-05
9.46969e-05
0.000110688
0.000143658
0.000224466
0.000549947
0.00190622
0.00110139
0.000799216
0.000633459
0.000524672
0.000445967
0.000385795
0.000338056
0.000299137
0.000266726
0.000239265
0.000215669
0.000195162
0.000177186
0.000161333
0.000147305
0.00013489
0.000123937
0.000114342
0.000106046
9.90213e-05
9.3283e-05
8.8892e-05
8.59778e-05
8.47808e-05
8.5736e-05
8.96522e-05
9.81302e-05
0.000114645
0.000148558
0.000231396
0.000564152
0.0019182
0.00111505
0.000812873
0.000646711
0.000537066
0.000457252
0.000395885
0.000346975
0.00030697
0.000273586
0.000245276
0.000220953
0.000199836
0.000181353
0.000165086
0.000150727
0.00013805
0.000126895
0.000117152
0.00010875
0.00010166
9.5891e-05
9.15036e-05
8.86289e-05
8.75126e-05
8.86012e-05
9.27249e-05
0.000101525
0.00011856
0.000153408
0.00023824
0.000578028
0.00192887
0.00112889
0.000826972
0.000660492
0.000549989
0.000469019
0.000406391
0.00035624
0.000315082
0.000280667
0.000251458
0.000226367
0.000204603
0.000185585
0.000168881
0.000154171
0.000141218
0.00012985
0.000119948
0.000111434
0.000104273
9.84703e-05
9.40839e-05
9.12466e-05
9.02095e-05
9.14301e-05
9.57596e-05
0.000104879
0.000122427
0.000158199
0.000244983
0.000591533
0.00193857
0.00114353
0.000842071
0.000675254
0.000563785
0.000481523
0.0004175
0.000365988
0.000323575
0.000288044
0.000257868
0.000231952
0.000209498
0.000189909
0.00017274
0.000157656
0.000144409
0.000132814
0.000122741
0.000114107
0.000106868
0.000101026
9.66363e-05
9.38334e-05
9.2873e-05
9.42231e-05
9.87552e-05
0.00010819
0.000126243
0.000162921
0.000251606
0.000604636
0.00194773
0.00115992
0.000858966
0.000691612
0.000578905
0.000495085
0.000429436
0.000376375
0.000332559
0.000295797
0.000264562
0.000237753
0.000214553
0.000194351
0.000176682
0.000161199
0.000147635
0.000135796
0.000125541
0.000116775
0.00010945
0.000103562
9.91645e-05
9.63919e-05
9.55044e-05
9.69804e-05
0.000101711
0.000111455
0.000130004
0.000167567
0.000258097
0.000617312
0.00195689
0.00117949
0.00087883
0.000710417
0.000595929
0.00051009
0.000442456
0.000387574
0.000342151
0.000304005
0.000271599
0.00024381
0.0002198
0.000198934
0.000180728
0.000164814
0.00015091
0.000138808
0.000128355
0.000119447
0.000112026
0.000106084
0.000101672
9.89246e-05
9.81055e-05
9.97029e-05
0.000104627
0.000114672
0.000133705
0.000172132
0.000264442
0.000629546
0.00196678
0.00120464
0.000903425
0.000732825
0.000615573
0.000526979
0.000456832
0.000399755
0.000352462
0.000312745
0.000279032
0.000250163
0.000225268
0.000203682
0.000184895
0.000168516
0.000154246
0.000141861
0.000131192
0.000122128
0.0001146
0.000108596
0.000104163
0.000101434
0.000100678
0.000102391
0.000107502
0.000117841
0.000137343
0.000176609
0.000270633
0.000641327
0.00197821
0.00123949
0.000935337
0.000760278
0.000638617
0.000546174
0.0004728
0.000413059
0.000363581
0.000322075
0.000286901
0.000256842
0.00023098
0.000208612
0.000189197
0.000172318
0.000157654
0.000144961
0.00013406
0.000124825
0.000117179
0.000111103
0.00010664
0.000103923
0.000103224
0.000105046
0.000110337
0.000120959
0.000140917
0.000180993
0.000276659
0.000652647
0.00199048
0.00129057
0.000977663
0.000794067
0.00066558
0.000567888
0.000490456
0.000427537
0.000375539
0.000332018
0.000295225
0.000263863
0.00023695
0.000213737
0.000193645
0.000176228
0.00016114
0.000148118
0.000136965
0.000127543
0.000119767
0.000113609
0.000109107
0.000106395
0.000105744
0.000107669
0.000113131
0.000124026
0.000144422
0.00018528
0.000282515
0.000663507
0.001993
0.00136427
0.00103154
0.000833704
0.000695907
0.000591745
0.000509576
0.000443061
0.000388266
0.000342539
0.000303988
0.000271219
0.000243177
0.00021906
0.000198245
0.000180253
0.000164711
0.000151336
0.000139912
0.000130288
0.000122368
0.000116116
0.000111567
0.000108851
0.000108242
0.000110261
0.000115885
0.000127042
0.000147859
0.000189466
0.000288196
0.000673908
0.00190174
0.00140999
0.00107832
0.000871679
0.000726336
0.000616219
0.000529403
0.000459238
0.000401555
0.000353524
0.000313128
0.000278877
0.000249646
0.000224573
0.000202994
0.000184393
0.00016837
0.000154618
0.000142905
0.000133063
0.000124986
0.00011863
0.000114023
0.000111293
0.000110718
0.000112823
0.0001186
0.000130006
0.000151225
0.00019355
0.000293699
0.000683857
0.00064574
0.000375063
0.000303618
0.00027944
0.000272207
0.000273268
0.000279126
0.000288198
0.000299546
0.000312596
0.000326954
0.000342322
0.000358459
0.000375156
0.000392222
0.000409477
0.000426748
0.000443861
0.000460648
0.000476936
0.000492557
0.000507341
0.000521122
0.000533737
0.000545032
0.000554865
0.000563113
0.000569679
0.000574509
0.000577606
0.000579068
0.000579126
0.000578238
0.000577225
0.000577566
0.000582025
0.000596349
0.000634304
0.000739417
0.0011186
0.000658738
0.000379551
0.000307276
0.000282538
0.000275032
0.000275934
0.000281768
0.000290861
0.000302275
0.000315427
0.000329913
0.000345432
0.00036174
0.000378625
0.000395896
0.00041337
0.000430873
0.000448231
0.000465273
0.000481828
0.000497723
0.00051279
0.00052686
0.000539771
0.000551366
0.000561502
0.000570054
0.000576925
0.000582058
0.000585459
0.000587224
0.00058759
0.00058702
0.000586353
0.000587101
0.00059211
0.000607242
0.000646496
0.000753245
0.00113256
0.000673071
0.00038514
0.000311791
0.000286542
0.000278805
0.000279625
0.000285476
0.000294648
0.000306187
0.000319499
0.000334174
0.000349906
0.000366446
0.00038358
0.000401113
0.000418861
0.000436645
0.000454292
0.000471627
0.000488475
0.000504664
0.00052002
0.000534374
0.000547557
0.000559413
0.000569793
0.00057857
0.000585643
0.000590951
0.000594495
0.00059637
0.000596811
0.000596283
0.000595631
0.000596384
0.000601427
0.000616697
0.000656362
0.000764254
0.00114638
0.000687416
0.000391467
0.000316758
0.000290971
0.000283026
0.000283804
0.00028971
0.000298999
0.0003107
0.000324206
0.000339103
0.000355077
0.000371876
0.000389282
0.000407098
0.000425135
0.000443213
0.000461155
0.000478783
0.000495921
0.000512392
0.000528021
0.000542634
0.000556061
0.000568142
0.000578726
0.000587682
0.000594905
0.000600333
0.000603965
0.000605894
0.000606357
0.000605823
0.000605147
0.000605885
0.000610964
0.000626416
0.000666615
0.000775817
0.00116088
0.000701686
0.000398257
0.000322051
0.000295679
0.000287513
0.000288256
0.00029423
0.000303652
0.000315532
0.000329251
0.000344385
0.000360615
0.000377686
0.000395375
0.00041348
0.000431811
0.000450185
0.000468422
0.000486341
0.000503763
0.00052051
0.000536403
0.000551266
0.000564927
0.000577222
0.000587999
0.000597123
0.000604489
0.000610032
0.000613748
0.000615731
0.000616219
0.000615684
0.000614995
0.000615725
0.000620844
0.000636467
0.00067718
0.000787661
0.00117565
0.000715897
0.000405364
0.000327596
0.000300605
0.000292199
0.000292897
0.000298938
0.000308497
0.000320562
0.0003345
0.000349878
0.000366372
0.000383721
0.000401697
0.000420097
0.000438726
0.0004574
0.000475934
0.000494147
0.000511856
0.000528881
0.000545041
0.000560157
0.000574056
0.000586572
0.000597549
0.000606851
0.00061437
0.000620039
0.000623853
0.000625903
0.000626427
0.000625902
0.000625203
0.000625922
0.000631068
0.000646827
0.000688017
0.000799794
0.00119078
0.00073008
0.00041271
0.000333347
0.000305717
0.000297056
0.000297698
0.000303799
0.000313493
0.000325742
0.000339901
0.000355527
0.00037229
0.00038992
0.00040819
0.000426889
0.000445824
0.000464803
0.000483642
0.000502155
0.00052016
0.000537472
0.00055391
0.000569291
0.000583441
0.000596191
0.000607383
0.000616879
0.000624567
0.000630377
0.000634303
0.000636433
0.000637004
0.000636492
0.00063578
0.000636474
0.000641621
0.000657485
0.000699097
0.00081218
0.00120614
0.000744269
0.000420257
0.000339279
0.000310995
0.000302067
0.000302646
0.000308802
0.000318627
0.00033106
0.000345441
0.000361318
0.000378351
0.000396269
0.000414838
0.000433845
0.000453092
0.000472386
0.000491539
0.000510365
0.000528678
0.000546291
0.00056302
0.000578682
0.000593099
0.000606099
0.000617523
0.000627228
0.000635101
0.000641068
0.000645118
0.000647336
0.000647957
0.000647458
0.000646723
0.000647376
0.000652494
0.000668429
0.000710401
0.000824724
0.00122174
0.000758498
0.000427994
0.000345374
0.000316424
0.000307224
0.000307735
0.000313942
0.000323897
0.000336515
0.00035112
0.000367249
0.000384559
0.000402771
0.000421646
0.000440969
0.000460538
0.000480158
0.000499639
0.00051879
0.000537425
0.000555354
0.00057239
0.000588349
0.000603049
0.000616316
0.000627987
0.000637917
0.000645989
0.000652124
0.000656307
0.00065862
0.000659292
0.0006588
0.000658031
0.00065862
0.000663681
0.000679646
0.000721923
0.000837423
0.0012375
0.000772809
0.00043593
0.000351622
0.000321992
0.000312518
0.00031296
0.00031922
0.000329306
0.00034211
0.000356942
0.00037333
0.000390922
0.000409434
0.000428625
0.000448274
0.000468176
0.000488134
0.000507955
0.000527446
0.000546418
0.000564678
0.000582037
0.000598309
0.000613307
0.000626857
0.00063879
0.000648959
0.000657241
0.000663554
0.000667877
0.000670287
0.00067101
0.000670518
0.000669701
0.000670205
0.000675176
0.000691127
0.000733658
0.000850271
0.00125341
0.000787259
0.000444074
0.000358007
0.000327689
0.000317943
0.00031832
0.000324634
0.000334854
0.000347849
0.000362913
0.000379566
0.000397447
0.000416269
0.000435785
0.00045577
0.000476018
0.000496328
0.000516502
0.000536348
0.000555671
0.000574278
0.000591976
0.000608575
0.000623888
0.000637734
0.000649943
0.000660363
0.000668865
0.000675364
0.000679833
0.000682342
0.000683112
0.000682612
0.000681732
0.000682128
0.000686976
0.000702869
0.0007456
0.000863255
0.00126943
0.00080182
0.000452371
0.000364518
0.000333512
0.000323496
0.000323811
0.000330185
0.000340544
0.000353735
0.000369039
0.000385964
0.000404144
0.000423285
0.000443136
0.00046347
0.000484076
0.00050475
0.000525293
0.000545507
0.000565197
0.000584166
0.000602218
0.00061916
0.000634801
0.000648957
0.000661454
0.000672135
0.000680867
0.000687558
0.000692177
0.000694787
0.000695601
0.000695085
0.000694126
0.00069439
0.000699082
0.00071487
0.000757744
0.000876365
0.00128554
0.000816496
0.000460796
0.00037115
0.000339458
0.000329176
0.000329433
0.000335872
0.000346377
0.000359772
0.000375323
0.000392529
0.000411017
0.000430488
0.000450686
0.000471382
0.000492359
0.000513411
0.000534336
0.000554934
0.000575005
0.000594351
0.000612771
0.00063007
0.000646053
0.000660532
0.000673329
0.000684281
0.000693252
0.000700142
0.000704915
0.000707625
0.00070848
0.000707939
0.000706886
0.000706995
0.000711496
0.000727132
0.000770085
0.00088959
0.00130172
0.000831311
0.000469351
0.000377904
0.000345526
0.00033498
0.000335184
0.000341695
0.000352354
0.000365961
0.000381768
0.000399265
0.000418072
0.000437884
0.000458442
0.000479511
0.000500873
0.000522318
0.00054364
0.000564636
0.000585104
0.00060484
0.000623644
0.000641314
0.000657652
0.000672466
0.000685573
0.000696807
0.000706024
0.00071312
0.00071805
0.000720861
0.000721754
0.000721179
0.000720018
0.000719947
0.000724222
0.000739656
0.000782623
0.00090292
0.00131792
0.000846279
0.00047804
0.000384782
0.000351715
0.000340908
0.000341065
0.000347654
0.000358475
0.000372303
0.000388376
0.000406175
0.000425312
0.000445478
0.000466409
0.000487865
0.000509626
0.000531477
0.000553211
0.00057462
0.000595499
0.000615641
0.000634842
0.000652896
0.000669602
0.000684764
0.000698193
0.000709717
0.000719189
0.000726496
0.000731587
0.0007345
0.000735428
0.000734811
0.000733527
0.000733252
0.000737265
0.000752448
0.000795357
0.000916345
0.00133412
0.000861414
0.000486866
0.000391785
0.000358027
0.000346961
0.000347076
0.000353751
0.000364742
0.0003788
0.00039515
0.000413262
0.000432741
0.000453274
0.00047459
0.000496447
0.000518621
0.000540894
0.000563054
0.000584891
0.000606196
0.000626759
0.000646372
0.000664824
0.000681911
0.000697431
0.000711193
0.000723018
0.000732751
0.000740276
0.000745531
0.000748549
0.000749509
0.000748843
0.000747421
0.00074692
0.000750636
0.000765514
0.000808287
0.000929855
0.0013503
0.000876729
0.000495835
0.000398915
0.000364462
0.000353139
0.000353217
0.000359985
0.000371155
0.000385453
0.000402091
0.000420527
0.000440362
0.000461274
0.000482989
0.000505262
0.000527864
0.000550573
0.000573175
0.000595455
0.000617201
0.0006382
0.000658238
0.000677102
0.000694583
0.000710474
0.000724579
0.000736714
0.000746718
0.000754466
0.000759891
0.000763013
0.000764003
0.000763283
0.000761711
0.000760961
0.000764342
0.00077886
0.000821419
0.000943443
0.00136641
0.000892233
0.000504951
0.000406175
0.000371022
0.000359444
0.00035949
0.000366358
0.000377715
0.000392265
0.000409201
0.000427974
0.000448177
0.000469482
0.000491611
0.000514314
0.000537358
0.000560519
0.000583578
0.000606317
0.000628519
0.000649968
0.000670446
0.000689737
0.000707624
0.000723898
0.000738357
0.000750811
0.000761094
0.000769073
0.000774671
0.000777901
0.000778921
0.000778141
0.000776408
0.000775387
0.000778397
0.00079248
0.000834758
0.000957099
0.00138243
0.00090794
0.00051422
0.000413569
0.000377709
0.000365877
0.000365896
0.000372871
0.000384425
0.000399236
0.000416482
0.000435605
0.000456189
0.000477901
0.000500458
0.000523606
0.000547108
0.000570737
0.000594268
0.000617481
0.000640155
0.00066207
0.000683003
0.000702733
0.00072104
0.00073771
0.000752533
0.000765317
0.000775887
0.000784103
0.00078988
0.00079322
0.000794272
0.000793428
0.000791522
0.000790211
0.000792817
0.000806438
0.000848317
0.000970816
0.00139833
0.000923857
0.000523645
0.000421099
0.000384527
0.000372441
0.000372438
0.000379527
0.000391287
0.000406369
0.000423937
0.000443422
0.0004644
0.000486534
0.000509534
0.000533143
0.000557119
0.00058123
0.00060525
0.000628953
0.000652115
0.00067451
0.000695913
0.000716097
0.000734837
0.000751914
0.000767115
0.000780238
0.000791103
0.000799564
0.000805526
0.000808981
0.000810064
0.000809154
0.000807068
0.000805447
0.000807611
0.000820697
0.000862101
0.000984584
0.00141407
0.000939997
0.000533232
0.000428769
0.000391477
0.000379138
0.000379116
0.000386327
0.000398302
0.000413666
0.000431568
0.000451428
0.000472815
0.000495384
0.000518842
0.000542927
0.000567393
0.000592004
0.000616528
0.000640738
0.000664404
0.000687295
0.000709182
0.000729835
0.000749022
0.00076652
0.000782108
0.000795581
0.000806751
0.000815464
0.000821618
0.000825192
0.00082631
0.000825333
0.000823059
0.000821112
0.0008228
0.000835285
0.000876106
0.000998398
0.00142962
0.000956367
0.000542986
0.000436581
0.000398562
0.00038597
0.000385934
0.000393274
0.000405472
0.00042113
0.000439378
0.000459626
0.000481435
0.000504455
0.000528387
0.000552964
0.000577936
0.000603062
0.000628109
0.000652841
0.000677027
0.000700431
0.000722818
0.000743953
0.000763602
0.000781532
0.00079752
0.000811353
0.000822838
0.000831812
0.000838164
0.000841864
0.000843019
0.000841977
0.000839511
0.000837222
0.000838401
0.000850221
0.000890321
0.00101225
0.00144494
0.000972977
0.000552912
0.000444541
0.000405786
0.00039294
0.000392895
0.00040037
0.000412802
0.000428763
0.00044737
0.000468019
0.000490265
0.000513751
0.000538172
0.000563258
0.000588752
0.000614411
0.000639996
0.000665269
0.000689991
0.000713923
0.000736826
0.00075846
0.000778583
0.00079696
0.00081336
0.000827564
0.000839373
0.000848617
0.000855175
0.000859006
0.000860205
0.000859099
0.00085644
0.000853798
0.000854438
0.000865531
0.000904791
0.00102615
0.00145997
0.000989837
0.000563015
0.00045265
0.000413152
0.000400051
0.0004
0.000407618
0.000420292
0.000436569
0.000455546
0.000476611
0.000499308
0.000523275
0.000548202
0.000573812
0.000599846
0.000626056
0.000652196
0.000678026
0.000703301
0.000727779
0.000751214
0.000773361
0.000793974
0.00081281
0.000829635
0.000844222
0.000856365
0.000865887
0.000872659
0.000876629
0.000877878
0.000876713
0.000873862
0.00087086
0.000870936
0.000881241
0.000919536
0.00104008
0.00147467
0.00100696
0.000573301
0.000460915
0.000420662
0.000407307
0.000407254
0.000415022
0.000427948
0.00044455
0.000463911
0.000485404
0.000508568
0.000533032
0.000558481
0.000584633
0.000611224
0.000638001
0.000664715
0.000691119
0.000716966
0.000742006
0.000765989
0.000788665
0.000809782
0.000829092
0.000846353
0.000861335
0.000873823
0.000883633
0.000890628
0.000894745
0.000896051
0.000894835
0.000891796
0.000888431
0.000887922
0.000897382
0.000934583
0.00105406
0.00148898
0.00102434
0.000583774
0.000469337
0.000428321
0.00041471
0.000414659
0.000422584
0.000435771
0.000452711
0.000472467
0.000494404
0.000518049
0.000543025
0.000569013
0.000595724
0.00062289
0.000650253
0.000677558
0.000704555
0.00073099
0.00075661
0.000781158
0.000804379
0.000826015
0.000845813
0.000863525
0.000878913
0.000891756
0.000901864
0.000909091
0.000913364
0.000914737
0.000913479
0.00091026
0.000906535
0.000905427
0.000913987
0.000949961
0.00106807
0.00150282
0.001042
0.000594439
0.000477923
0.000436132
0.000422263
0.000422218
0.000430307