/*--------------------------------*- C++ -*----------------------------------*\
  =========                 |
  \\      /  F ield         | OpenFOAM: The Open Source CFD Toolbox
   \\    /   O peration     | Website:  https://openfoam.org
    \\  /    A nd           | Version:  10
     \\/     M anipulation  |
\*---------------------------------------------------------------------------*/
FoamFile
{
    format      ascii;
    class       volScalarField;
    location    "12000/gas";
    object      G;
}
// * * * * * * * * * * * * * * * * * * * * * * * * * * * * * * * * * * * * * //

dimensions      [1 0 -3 0 0 0 0];

internalField   nonuniform List<scalar> 
16000
(
2596.93
2596.93
2596.92
2596.91
2596.97
2596.97
2596.96
2596.95
2597.01
2597.01
2597
2596.99
2597.06
2597.06
2597.05
2597.04
2597.12
2597.12
2597.11
2597.1
2597.19
2597.18
2597.18
2597.17
2597.26
2597.25
2597.25
2597.24
2597.33
2597.33
2597.32
2597.32
2597.42
2597.41
2597.41
2597.4
2597.5
2597.5
2597.5
2597.49
2597.6
2597.6
2597.59
2597.58
2597.7
2597.7
2597.69
2597.68
2597.8
2597.8
2597.8
2597.79
2597.91
2597.91
2597.91
2597.9
2598.03
2598.02
2598.02
2598.01
2598.14
2598.14
2598.14
2598.13
2598.27
2598.26
2598.26
2598.26
2598.39
2598.39
2598.39
2598.38
2598.52
2598.52
2598.52
2598.51
2598.65
2598.65
2598.65
2598.64
2598.79
2598.79
2598.78
2598.78
2598.92
2598.92
2598.92
2598.92
2599.06
2599.06
2599.06
2599.06
2599.2
2599.2
2599.2
2599.2
2599.35
2599.35
2599.35
2599.34
2599.49
2599.49
2599.49
2599.49
2599.64
2599.64
2599.64
2599.63
2599.78
2599.78
2599.78
2599.78
2599.93
2599.93
2599.93
2599.93
2600.07
2600.07
2600.07
2600.07
2600.21
2600.22
2600.22
2600.22
2600.36
2600.36
2600.36
2600.36
2600.5
2600.5
2600.5
2600.5
2600.64
2600.64
2600.64
2600.64
2600.77
2600.78
2600.78
2600.78
2600.91
2600.91
2600.91
2600.92
2601.04
2601.04
2601.04
2601.05
2601.16
2601.17
2601.17
2601.18
2601.28
2601.29
2601.3
2601.31
2601.4
2601.4
2601.41
2601.43
2599.71
2599.73
2599.74
2599.74
2599.75
2599.76
2599.76
2599.76
2599.76
2599.76
2599.76
2599.76
2599.76
2599.76
2599.75
2599.75
2599.74
2599.74
2599.73
2599.72
2599.72
2599.71
2599.7
2599.69
2599.68
2599.67
2599.66
2599.64
2599.63
2599.62
2599.6
2599.59
2599.74
2599.76
2599.77
2599.77
2599.78
2599.79
2599.79
2599.79
2599.79
2599.79
2599.79
2599.79
2599.79
2599.78
2599.78
2599.78
2599.77
2599.77
2599.76
2599.75
2599.75
2599.74
2599.73
2599.72
2599.71
2599.7
2599.69
2599.67
2599.66
2599.65
2599.63
2599.62
2599.78
2599.79
2599.8
2599.81
2599.81
2599.82
2599.82
2599.82
2599.82
2599.82
2599.82
2599.82
2599.82
2599.82
2599.81
2599.81
2599.8
2599.8
2599.79
2599.78
2599.78
2599.77
2599.76
2599.75
2599.74
2599.73
2599.72
2599.7
2599.69
2599.68
2599.66
2599.65
2599.81
2599.82
2599.83
2599.84
2599.84
2599.85
2599.85
2599.85
2599.85
2599.85
2599.85
2599.85
2599.85
2599.85
2599.84
2599.84
2599.83
2599.83
2599.82
2599.81
2599.81
2599.8
2599.79
2599.78
2599.77
2599.76
2599.75
2599.74
2599.72
2599.71
2599.7
2599.68
2599.84
2599.85
2599.86
2599.87
2599.88
2599.88
2599.88
2599.88
2599.89
2599.89
2599.89
2599.88
2599.88
2599.88
2599.87
2599.87
2599.87
2599.86
2599.85
2599.85
2599.84
2599.83
2599.82
2599.81
2599.8
2599.79
2599.78
2599.77
2599.76
2599.74
2599.73
2599.72
2599.88
2599.89
2599.9
2599.9
2599.91
2599.91
2599.92
2599.92
2599.92
2599.92
2599.92
2599.92
2599.91
2599.91
2599.91
2599.9
2599.9
2599.89
2599.89
2599.88
2599.87
2599.86
2599.86
2599.85
2599.84
2599.83
2599.81
2599.8
2599.79
2599.78
2599.76
2599.75
2599.91
2599.92
2599.93
2599.94
2599.94
2599.95
2599.95
2599.95
2599.95
2599.95
2599.95
2599.95
2599.95
2599.95
2599.94
2599.94
2599.93
2599.93
2599.92
2599.91
2599.91
2599.9
2599.89
2599.88
2599.87
2599.86
2599.85
2599.84
2599.83
2599.81
2599.8
2599.79
2599.95
2599.96
2599.97
2599.97
2599.98
2599.98
2599.99
2599.99
2599.99
2599.99
2599.99
2599.99
2599.98
2599.98
2599.98
2599.97
2599.97
2599.96
2599.95
2599.95
2599.94
2599.93
2599.92
2599.92
2599.91
2599.9
2599.89
2599.87
2599.86
2599.85
2599.84
2599.82
2599.99
2600
2600
2600.01
2600.02
2600.02
2600.02
2600.02
2600.02
2600.02
2600.02
2600.02
2600.02
2600.01
2600.01
2600.01
2600
2600
2599.99
2599.98
2599.98
2599.97
2599.96
2599.95
2599.94
2599.93
2599.92
2599.91
2599.9
2599.89
2599.87
2599.86
2600.03
2600.03
2600.04
2600.05
2600.05
2600.06
2600.06
2600.06
2600.06
2600.06
2600.06
2600.06
2600.05
2600.05
2600.05
2600.04
2600.04
2600.03
2600.03
2600.02
2600.01
2600.01
2600
2599.99
2599.98
2599.97
2599.96
2599.95
2599.94
2599.92
2599.91
2599.9
2600.06
2600.07
2600.08
2600.09
2600.09
2600.09
2600.1
2600.1
2600.1
2600.1
2600.1
2600.09
2600.09
2600.09
2600.08
2600.08
2600.08
2600.07
2600.06
2600.06
2600.05
2600.04
2600.03
2600.03
2600.02
2600.01
2600
2599.99
2599.98
2599.96
2599.95
2599.94
2600.11
2600.11
2600.12
2600.13
2600.13
2600.13
2600.13
2600.13
2600.14
2600.13
2600.13
2600.13
2600.13
2600.13
2600.12
2600.12
2600.11
2600.11
2600.1
2600.1
2600.09
2600.08
2600.07
2600.06
2600.06
2600.05
2600.04
2600.03
2600.01
2600
2599.99
2599.98
2600.15
2600.15
2600.16
2600.16
2600.17
2600.17
2600.17
2600.17
2600.17
2600.17
2600.17
2600.17
2600.17
2600.16
2600.16
2600.16
2600.15
2600.15
2600.14
2600.13
2600.13
2600.12
2600.11
2600.1
2600.09
2600.09
2600.08
2600.07
2600.05
2600.04
2600.03
2600.02
2600.19
2600.2
2600.2
2600.21
2600.21
2600.21
2600.21
2600.21
2600.21
2600.21
2600.21
2600.21
2600.21
2600.2
2600.2
2600.2
2600.19
2600.19
2600.18
2600.17
2600.17
2600.16
2600.15
2600.14
2600.13
2600.13
2600.12
2600.11
2600.1
2600.08
2600.07
2600.06
2600.23
2600.24
2600.24
2600.25
2600.25
2600.25
2600.25
2600.25
2600.25
2600.25
2600.25
2600.25
2600.25
2600.24
2600.24
2600.24
2600.23
2600.23
2600.22
2600.21
2600.21
2600.2
2600.19
2600.18
2600.18
2600.17
2600.16
2600.15
2600.14
2600.13
2600.12
2600.1
2600.27
2600.28
2600.29
2600.29
2600.29
2600.29
2600.3
2600.3
2600.3
2600.29
2600.29
2600.29
2600.29
2600.28
2600.28
2600.28
2600.27
2600.27
2600.26
2600.25
2600.25
2600.24
2600.23
2600.23
2600.22
2600.21
2600.2
2600.19
2600.18
2600.17
2600.16
2600.15
2600.32
2600.32
2600.33
2600.33
2600.33
2600.34
2600.34
2600.34
2600.34
2600.34
2600.33
2600.33
2600.33
2600.33
2600.32
2600.32
2600.31
2600.31
2600.3
2600.3
2600.29
2600.28
2600.27
2600.27
2600.26
2600.25
2600.24
2600.23
2600.22
2600.21
2600.2
2600.19
2600.36
2600.37
2600.37
2600.38
2600.38
2600.38
2600.38
2600.38
2600.38
2600.38
2600.38
2600.37
2600.37
2600.37
2600.36
2600.36
2600.35
2600.35
2600.34
2600.34
2600.33
2600.32
2600.32
2600.31
2600.3
2600.29
2600.28
2600.28
2600.27
2600.26
2600.25
2600.24
2600.41
2600.41
2600.42
2600.42
2600.42
2600.42
2600.42
2600.42
2600.42
2600.42
2600.42
2600.42
2600.41
2600.41
2600.41
2600.4
2600.4
2600.39
2600.39
2600.38
2600.37
2600.37
2600.36
2600.35
2600.35
2600.34
2600.33
2600.32
2600.31
2600.3
2600.29
2600.28
2600.46
2600.46
2600.46
2600.47
2600.47
2600.47
2600.47
2600.47
2600.47
2600.46
2600.46
2600.46
2600.46
2600.45
2600.45
2600.45
2600.44
2600.44
2600.43
2600.42
2600.42
2600.41
2600.4
2600.4
2600.39
2600.38
2600.37
2600.36
2600.36
2600.35
2600.34
2600.33
2600.5
2600.51
2600.51
2600.51
2600.51
2600.51
2600.51
2600.51
2600.51
2600.51
2600.51
2600.5
2600.5
2600.5
2600.49
2600.49
2600.48
2600.48
2600.47
2600.47
2600.46
2600.46
2600.45
2600.44
2600.43
2600.43
2600.42
2600.41
2600.4
2600.39
2600.38
2600.37
2600.55
2600.55
2600.56
2600.56
2600.56
2600.56
2600.56
2600.56
2600.56
2600.55
2600.55
2600.55
2600.55
2600.54
2600.54
2600.53
2600.53
2600.52
2600.52
2600.51
2600.51
2600.5
2600.49
2600.49
2600.48
2600.47
2600.46
2600.46
2600.45
2600.44
2600.43
2600.42
2600.6
2600.6
2600.6
2600.6
2600.6
2600.6
2600.6
2600.6
2600.6
2600.6
2600.6
2600.59
2600.59
2600.59
2600.58
2600.58
2600.57
2600.57
2600.56
2600.56
2600.55
2600.55
2600.54
2600.53
2600.52
2600.52
2600.51
2600.5
2600.49
2600.48
2600.48
2600.47
2600.65
2600.65
2600.65
2600.65
2600.65
2600.65
2600.65
2600.65
2600.65
2600.64
2600.64
2600.64
2600.64
2600.63
2600.63
2600.62
2600.62
2600.61
2600.61
2600.6
2600.6
2600.59
2600.58
2600.58
2600.57
2600.56
2600.56
2600.55
2600.54
2600.53
2600.52
2600.51
2600.7
2600.7
2600.7
2600.7
2600.7
2600.7
2600.7
2600.7
2600.69
2600.69
2600.69
2600.69
2600.68
2600.68
2600.67
2600.67
2600.66
2600.66
2600.65
2600.65
2600.64
2600.64
2600.63
2600.62
2600.62
2600.61
2600.6
2600.6
2600.59
2600.58
2600.57
2600.56
2600.75
2600.75
2600.75
2600.75
2600.75
2600.75
2600.75
2600.74
2600.74
2600.74
2600.74
2600.73
2600.73
2600.72
2600.72
2600.72
2600.71
2600.71
2600.7
2600.7
2600.69
2600.68
2600.68
2600.67
2600.66
2600.66
2600.65
2600.64
2600.64
2600.63
2600.62
2600.61
2600.8
2600.8
2600.8
2600.8
2600.8
2600.8
2600.79
2600.79
2600.79
2600.79
2600.78
2600.78
2600.78
2600.77
2600.77
2600.76
2600.76
2600.75
2600.75
2600.74
2600.74
2600.73
2600.73
2600.72
2600.71
2600.71
2600.7
2600.69
2600.68
2600.68
2600.67
2600.66
2600.85
2600.85
2600.85
2600.85
2600.85
2600.84
2600.84
2600.84
2600.84
2600.83
2600.83
2600.83
2600.82
2600.82
2600.81
2600.81
2600.81
2600.8
2600.8
2600.79
2600.78
2600.78
2600.77
2600.77
2600.76
2600.75
2600.75
2600.74
2600.73
2600.73
2600.72
2600.71
2600.9
2600.9
2600.9
2600.9
2600.9
2600.89
2600.89
2600.89
2600.89
2600.88
2600.88
2600.87
2600.87
2600.87
2600.86
2600.86
2600.85
2600.85
2600.84
2600.84
2600.83
2600.83
2600.82
2600.82
2600.81
2600.8
2600.8
2600.79
2600.78
2600.78
2600.77
2600.76
2600.95
2600.95
2600.95
2600.95
2600.95
2600.94
2600.94
2600.94
2600.93
2600.93
2600.93
2600.92
2600.92
2600.91
2600.91
2600.91
2600.9
2600.9
2600.89
2600.89
2600.88
2600.88
2600.87
2600.86
2600.86
2600.85
2600.85
2600.84
2600.83
2600.82
2600.82
2600.81
2601.01
2601.01
2601
2601
2601
2600.99
2600.99
2600.99
2600.98
2600.98
2600.98
2600.97
2600.97
2600.96
2600.96
2600.95
2600.95
2600.94
2600.94
2600.93
2600.93
2600.92
2600.92
2600.91
2600.91
2600.9
2600.89
2600.89
2600.88
2600.88
2600.87
2600.86
2601.06
2601.06
2601.05
2601.05
2601.05
2601.04
2601.04
2601.04
2601.03
2601.03
2601.02
2601.02
2601.02
2601.01
2601.01
2601
2601
2600.99
2600.99
2600.98
2600.98
2600.97
2600.97
2600.96
2600.96
2600.95
2600.94
2600.94
2600.93
2600.93
2600.92
2600.91
2601.12
2601.11
2601.11
2601.1
2601.1
2601.1
2601.09
2601.09
2601.08
2601.08
2601.07
2601.07
2601.07
2601.06
2601.06
2601.05
2601.05
2601.04
2601.04
2601.03
2601.03
2601.02
2601.02
2601.01
2601.01
2601
2600.99
2600.99
2600.98
2600.98
2600.97
2600.96
2601.17
2601.17
2601.16
2601.16
2601.15
2601.15
2601.14
2601.14
2601.13
2601.13
2601.12
2601.12
2601.12
2601.11
2601.11
2601.1
2601.1
2601.09
2601.09
2601.08
2601.08
2601.07
2601.07
2601.06
2601.06
2601.05
2601.05
2601.04
2601.03
2601.03
2601.02
2601.02
2601.23
2601.22
2601.21
2601.21
2601.2
2601.2
2601.19
2601.19
2601.18
2601.18
2601.17
2601.17
2601.17
2601.16
2601.16
2601.15
2601.15
2601.14
2601.14
2601.13
2601.13
2601.12
2601.12
2601.11
2601.11
2601.1
2601.1
2601.09
2601.08
2601.08
2601.07
2601.07
2601.28
2601.27
2601.27
2601.26
2601.26
2601.25
2601.24
2601.24
2601.23
2601.23
2601.22
2601.22
2601.22
2601.21
2601.21
2601.2
2601.2
2601.19
2601.19
2601.18
2601.18
2601.17
2601.17
2601.16
2601.16
2601.15
2601.15
2601.14
2601.14
2601.13
2601.12
2601.12
2601.34
2601.33
2601.32
2601.32
2601.31
2601.3
2601.3
2601.29
2601.29
2601.28
2601.28
2601.27
2601.27
2601.26
2601.26
2601.25
2601.25
2601.24
2601.24
2601.23
2601.23
2601.22
2601.22
2601.21
2601.21
2601.2
2601.2
2601.19
2601.19
2601.18
2601.18
2601.17
2601.39
2601.39
2601.38
2601.37
2601.36
2601.35
2601.35
2601.34
2601.34
2601.33
2601.33
2601.32
2601.32
2601.31
2601.31
2601.3
2601.3
2601.29
2601.29
2601.28
2601.28
2601.27
2601.27
2601.26
2601.26
2601.25
2601.25
2601.24
2601.24
2601.23
2601.23
2601.22
2601.45
2601.44
2601.43
2601.42
2601.41
2601.41
2601.4
2601.39
2601.39
2601.38
2601.38
2601.37
2601.37
2601.36
2601.36
2601.35
2601.35
2601.34
2601.34
2601.33
2601.33
2601.33
2601.32
2601.32
2601.31
2601.31
2601.3
2601.3
2601.29
2601.29
2601.28
2601.28
2601.52
2601.5
2601.49
2601.48
2601.47
2601.46
2601.45
2601.44
2601.44
2601.43
2601.43
2601.42
2601.42
2601.41
2601.41
2601.4
2601.4
2601.39
2601.39
2601.39
2601.38
2601.38
2601.37
2601.37
2601.36
2601.36
2601.35
2601.35
2601.34
2601.34
2601.33
2601.33
2615.39
2615.42
2615.46
2615.51
2615.55
2615.6
2615.64
2615.69
2615.74
2615.79
2615.83
2615.88
2615.93
2615.97
2616.02
2616.06
2616.1
2616.14
2616.18
2616.21
2616.24
2616.27
2616.3
2616.32
2616.34
2616.36
2616.37
2616.37
2616.38
2616.37
2616.37
2616.35
2616.33
2616.31
2616.28
2616.25
2616.21
2616.16
2616.12
2616.07
2615.32
2615.35
2615.38
2615.42
2615.46
2615.5
2615.54
2615.59
2615.63
2615.67
2615.72
2615.76
2615.8
2615.84
2615.88
2615.92
2615.96
2616
2616.03
2616.06
2616.09
2616.12
2616.14
2616.16
2616.17
2616.19
2616.2
2616.2
2616.2
2616.2
2616.19
2616.18
2616.16
2616.14
2616.11
2616.08
2616.04
2616.01
2615.97
2615.93
2615.25
2615.27
2615.3
2615.33
2615.37
2615.4
2615.44
2615.48
2615.52
2615.56
2615.6
2615.64
2615.68
2615.71
2615.75
2615.79
2615.82
2615.85
2615.88
2615.91
2615.94
2615.96
2615.98
2616
2616.01
2616.02
2616.03
2616.03
2616.03
2616.03
2616.02
2616
2615.99
2615.97
2615.94
2615.91
2615.88
2615.85
2615.82
2615.79
2615.16
2615.19
2615.21
2615.24
2615.27
2615.3
2615.34
2615.37
2615.41
2615.45
2615.48
2615.52
2615.55
2615.59
2615.62
2615.65
2615.68
2615.71
2615.74
2615.76
2615.79
2615.81
2615.82
2615.84
2615.85
2615.86
2615.86
2615.87
2615.86
2615.86
2615.85
2615.84
2615.82
2615.8
2615.78
2615.75
2615.72
2615.69
2615.67
2615.64
2615.08
2615.1
2615.12
2615.14
2615.17
2615.2
2615.23
2615.26
2615.3
2615.33
2615.36
2615.4
2615.43
2615.46
2615.49
2615.52
2615.54
2615.57
2615.6
2615.62
2615.64
2615.65
2615.67
2615.68
2615.69
2615.7
2615.7
2615.7
2615.7
2615.69
2615.69
2615.67
2615.66
2615.64
2615.62
2615.59
2615.57
2615.54
2615.51
2615.48
2614.98
2615
2615.02
2615.05
2615.07
2615.1
2615.13
2615.16
2615.18
2615.21
2615.24
2615.27
2615.3
2615.33
2615.36
2615.38
2615.41
2615.43
2615.45
2615.47
2615.49
2615.51
2615.52
2615.53
2615.54
2615.54
2615.55
2615.54
2615.54
2615.53
2615.53
2615.51
2615.5
2615.48
2615.46
2615.44
2615.41
2615.39
2615.36
2615.33
2614.89
2614.9
2614.92
2614.94
2614.97
2614.99
2615.02
2615.04
2615.07
2615.1
2615.13
2615.15
2615.18
2615.2
2615.23
2615.25
2615.27
2615.29
2615.31
2615.33
2615.35
2615.36
2615.37
2615.38
2615.39
2615.39
2615.39
2615.39
2615.38
2615.38
2615.37
2615.36
2615.34
2615.32
2615.3
2615.28
2615.26
2615.23
2615.21
2615.18
2614.79
2614.8
2614.82
2614.84
2614.86
2614.89
2614.91
2614.93
2614.96
2614.98
2615.01
2615.03
2615.05
2615.08
2615.1
2615.12
2615.14
2615.16
2615.17
2615.19
2615.2
2615.21
2615.22
2615.23
2615.24
2615.24
2615.24
2615.24
2615.23
2615.22
2615.21
2615.2
2615.19
2615.17
2615.15
2615.13
2615.11
2615.08
2615.06
2615.03
2614.69
2614.7
2614.72
2614.74
2614.76
2614.78
2614.8
2614.82
2614.84
2614.87
2614.89
2614.91
2614.93
2614.95
2614.97
2614.99
2615.01
2615.02
2615.04
2615.05
2615.06
2615.07
2615.08
2615.09
2615.09
2615.09
2615.09
2615.09
2615.08
2615.07
2615.06
2615.05
2615.03
2615.02
2615
2614.98
2614.96
2614.93
2614.91
2614.88
2614.58
2614.6
2614.61
2614.63
2614.65
2614.67
2614.69
2614.71
2614.73
2614.75
2614.77
2614.79
2614.81
2614.83
2614.84
2614.86
2614.87
2614.89
2614.9
2614.91
2614.92
2614.93
2614.94
2614.94
2614.94
2614.94
2614.94
2614.94
2614.93
2614.92
2614.91
2614.9
2614.88
2614.87
2614.85
2614.83
2614.81
2614.78
2614.76
2614.73
2614.48
2614.49
2614.51
2614.52
2614.54
2614.56
2614.58
2614.59
2614.61
2614.63
2614.65
2614.67
2614.68
2614.7
2614.72
2614.73
2614.74
2614.76
2614.77
2614.78
2614.79
2614.79
2614.8
2614.8
2614.8
2614.8
2614.8
2614.79
2614.78
2614.78
2614.76
2614.75
2614.74
2614.72
2614.7
2614.68
2614.66
2614.64
2614.61
2614.59
2614.37
2614.39
2614.4
2614.42
2614.43
2614.45
2614.46
2614.48
2614.5
2614.51
2614.53
2614.55
2614.56
2614.58
2614.59
2614.6
2614.61
2614.62
2614.63
2614.64
2614.65
2614.65
2614.66
2614.66
2614.66
2614.66
2614.65
2614.65
2614.64
2614.63
2614.62
2614.61
2614.59
2614.57
2614.56
2614.54
2614.51
2614.49
2614.47
2614.44
2614.26
2614.28
2614.29
2614.31
2614.32
2614.34
2614.35
2614.37
2614.38
2614.4
2614.41
2614.42
2614.44
2614.45
2614.46
2614.48
2614.49
2614.49
2614.5
2614.51
2614.51
2614.52
2614.52
2614.52
2614.52
2614.52
2614.51
2614.51
2614.5
2614.49
2614.48
2614.46
2614.45
2614.43
2614.41
2614.39
2614.37
2614.35
2614.32
2614.3
2614.16
2614.17
2614.18
2614.2
2614.21
2614.22
2614.24
2614.25
2614.26
2614.28
2614.29
2614.3
2614.32
2614.33
2614.34
2614.35
2614.36
2614.37
2614.37
2614.38
2614.38
2614.38
2614.38
2614.38
2614.38
2614.38
2614.37
2614.37
2614.36
2614.35
2614.33
2614.32
2614.31
2614.29
2614.27
2614.25
2614.23
2614.21
2614.18
2614.16
2614.05
2614.06
2614.07
2614.08
2614.1
2614.11
2614.12
2614.14
2614.15
2614.16
2614.17
2614.18
2614.2
2614.21
2614.21
2614.22
2614.23
2614.24
2614.24
2614.25
2614.25
2614.25
2614.25
2614.25
2614.25
2614.24
2614.24
2614.23
2614.22
2614.21
2614.2
2614.18
2614.17
2614.15
2614.13
2614.11
2614.09
2614.07
2614.04
2614.02
2613.94
2613.95
2613.96
2613.97
2613.99
2614
2614.01
2614.02
2614.03
2614.04
2614.05
2614.06
2614.07
2614.08
2614.09
2614.1
2614.1
2614.11
2614.11
2614.12
2614.12
2614.12
2614.12
2614.12
2614.11
2614.11
2614.1
2614.09
2614.08
2614.07
2614.06
2614.04
2614.03
2614.01
2613.99
2613.97
2613.95
2613.93
2613.9
2613.88
2613.83
2613.84
2613.85
2613.86
2613.87
2613.88
2613.9
2613.91
2613.92
2613.93
2613.94
2613.95
2613.95
2613.96
2613.97
2613.97
2613.98
2613.98
2613.99
2613.99
2613.99
2613.99
2613.99
2613.98
2613.98
2613.97
2613.97
2613.96
2613.95
2613.93
2613.92
2613.91
2613.89
2613.87
2613.85
2613.83
2613.81
2613.79
2613.77
2613.74
2613.72
2613.73
2613.74
2613.75
2613.76
2613.77
2613.78
2613.79
2613.8
2613.81
2613.82
2613.83
2613.83
2613.84
2613.85
2613.85
2613.86
2613.86
2613.86
2613.86
2613.86
2613.86
2613.86
2613.85
2613.85
2613.84
2613.83
2613.82
2613.81
2613.8
2613.79
2613.77
2613.76
2613.74
2613.72
2613.7
2613.68
2613.65
2613.63
2613.6
2613.61
2613.62
2613.63
2613.64
2613.65
2613.66
2613.67
2613.68
2613.69
2613.69
2613.7
2613.71
2613.71
2613.72
2613.72
2613.73
2613.73
2613.73
2613.73
2613.73
2613.73
2613.73
2613.73
2613.72
2613.72
2613.71
2613.7
2613.69
2613.68
2613.67
2613.65
2613.64
2613.62
2613.6
2613.59
2613.56
2613.54
2613.52
2613.5
2613.47
2613.5
2613.51
2613.52
2613.53
2613.54
2613.55
2613.55
2613.56
2613.57
2613.58
2613.58
2613.59
2613.6
2613.6
2613.6
2613.61
2613.61
2613.61
2613.61
2613.61
2613.61
2613.6
2613.6
2613.6
2613.59
2613.58
2613.57
2613.56
2613.55
2613.54
2613.52
2613.51
2613.49
2613.47
2613.45
2613.43
2613.41
2613.39
2613.36
2613.34
2613.39
2613.4
2613.41
2613.42
2613.43
2613.43
2613.44
2613.45
2613.46
2613.46
2613.47
2613.47
2613.48
2613.48
2613.48
2613.49
2613.49
2613.49
2613.49
2613.49
2613.48
2613.48
2613.47
2613.47
2613.46
2613.45
2613.44
2613.43
2613.42
2613.41
2613.39
2613.38
2613.36
2613.34
2613.32
2613.3
2613.28
2613.26
2613.23
2613.21
2613.28
2613.29
2613.3
2613.31
2613.31
2613.32
2613.33
2613.34
2613.34
2613.35
2613.35
2613.36
2613.36
2613.36
2613.37
2613.37
2613.37
2613.37
2613.37
2613.36
2613.36
2613.36
2613.35
2613.34
2613.34
2613.33
2613.32
2613.31
2613.29
2613.28
2613.26
2613.25
2613.23
2613.21
2613.19
2613.17
2613.15
2613.13
2613.1
2613.08
2613.17
2613.18
2613.19
2613.19
2613.2
2613.21
2613.22
2613.22
2613.23
2613.23
2613.24
2613.24
2613.24
2613.25
2613.25
2613.25
2613.25
2613.25
2613.24
2613.24
2613.24
2613.23
2613.23
2613.22
2613.21
2613.2
2613.19
2613.18
2613.17
2613.15
2613.14
2613.12
2613.1
2613.08
2613.06
2613.04
2613.02
2613
2612.97
2612.95
2613.06
2613.07
2613.08
2613.08
2613.09
2613.1
2613.1
2613.11
2613.11
2613.12
2613.12
2613.13
2613.13
2613.13
2613.13
2613.13
2613.13
2613.13
2613.12
2613.12
2613.12
2613.11
2613.1
2613.1
2613.09
2613.08
2613.07
2613.05
2613.04
2613.03
2613.01
2612.99
2612.98
2612.96
2612.94
2612.92
2612.9
2612.87
2612.85
2612.82
2612.95
2612.96
2612.97
2612.97
2612.98
2612.99
2612.99
2613
2613
2613.01
2613.01
2613.01
2613.01
2613.01
2613.01
2613.01
2613.01
2613.01
2613.01
2613
2613
2612.99
2612.98
2612.97
2612.96
2612.95
2612.94
2612.93
2612.92
2612.9
2612.89
2612.87
2612.85
2612.83
2612.81
2612.79
2612.77
2612.75
2612.72
2612.7
2612.84
2612.85
2612.86
2612.86
2612.87
2612.88
2612.88
2612.89
2612.89
2612.89
2612.89
2612.9
2612.9
2612.9
2612.9
2612.9
2612.89
2612.89
2612.89
2612.88
2612.88
2612.87
2612.86
2612.85
2612.84
2612.83
2612.82
2612.81
2612.79
2612.78
2612.76
2612.75
2612.73
2612.71
2612.69
2612.67
2612.65
2612.62
2612.6
2612.57
2612.73
2612.74
2612.75
2612.75
2612.76
2612.77
2612.77
2612.77
2612.78
2612.78
2612.78
2612.78
2612.78
2612.78
2612.78
2612.78
2612.78
2612.77
2612.77
2612.76
2612.76
2612.75
2612.74
2612.73
2612.72
2612.71
2612.7
2612.69
2612.67
2612.66
2612.64
2612.62
2612.61
2612.59
2612.57
2612.55
2612.52
2612.5
2612.48
2612.45
2612.62
2612.63
2612.64
2612.65
2612.65
2612.66
2612.66
2612.66
2612.67
2612.67
2612.67
2612.67
2612.67
2612.67
2612.67
2612.67
2612.66
2612.66
2612.65
2612.65
2612.64
2612.63
2612.62
2612.62
2612.6
2612.59
2612.58
2612.57
2612.55
2612.54
2612.52
2612.5
2612.49
2612.47
2612.45
2612.42
2612.4
2612.38
2612.35
2612.33
2612.52
2612.52
2612.53
2612.54
2612.54
2612.55
2612.55
2612.55
2612.56
2612.56
2612.56
2612.56
2612.56
2612.56
2612.55
2612.55
2612.55
2612.54
2612.54
2612.53
2612.52
2612.52
2612.51
2612.5
2612.49
2612.48
2612.46
2612.45
2612.43
2612.42
2612.4
2612.38
2612.37
2612.35
2612.33
2612.3
2612.28
2612.26
2612.23
2612.21
2612.41
2612.42
2612.42
2612.43
2612.43
2612.44
2612.44
2612.44
2612.45
2612.45
2612.45
2612.45
2612.45
2612.45
2612.44
2612.44
2612.43
2612.43
2612.42
2612.42
2612.41
2612.4
2612.39
2612.38
2612.37
2612.36
2612.35
2612.33
2612.32
2612.3
2612.28
2612.27
2612.25
2612.23
2612.21
2612.18
2612.16
2612.14
2612.11
2612.09
2612.3
2612.31
2612.32
2612.32
2612.33
2612.33
2612.33
2612.34
2612.34
2612.34
2612.34
2612.34
2612.34
2612.33
2612.33
2612.33
2612.32
2612.32
2612.31
2612.3
2612.3
2612.29
2612.28
2612.27
2612.26
2612.24
2612.23
2612.22
2612.2
2612.18
2612.17
2612.15
2612.13
2612.11
2612.09
2612.07
2612.04
2612.02
2612
2611.97
2612.2
2612.21
2612.21
2612.22
2612.22
2612.22
2612.23
2612.23
2612.23
2612.23
2612.23
2612.23
2612.23
2612.22
2612.22
2612.22
2612.21
2612.21
2612.2
2612.19
2612.18
2612.17
2612.16
2612.15
2612.14
2612.13
2612.11
2612.1
2612.08
2612.07
2612.05
2612.03
2612.01
2611.99
2611.97
2611.95
2611.93
2611.9
2611.88
2611.85
2612.09
2612.1
2612.11
2612.11
2612.11
2612.12
2612.12
2612.12
2612.12
2612.12
2612.12
2612.12
2612.12
2612.11
2612.11
2612.11
2612.1
2612.09
2612.09
2612.08
2612.07
2612.06
2612.05
2612.04
2612.03
2612.01
2612
2611.99
2611.97
2611.95
2611.94
2611.92
2611.9
2611.88
2611.86
2611.84
2611.81
2611.79
2611.76
2611.74
2611.99
2612
2612
2612
2612.01
2612.01
2612.01
2612.01
2612.01
2612.01
2612.01
2612.01
2612.01
2612.01
2612
2612
2611.99
2611.98
2611.98
2611.97
2611.96
2611.95
2611.94
2611.93
2611.91
2611.9
2611.89
2611.87
2611.86
2611.84
2611.82
2611.8
2611.78
2611.76
2611.74
2611.72
2611.7
2611.67
2611.65
2611.62
2611.89
2611.89
2611.9
2611.9
2611.9
2611.91
2611.91
2611.91
2611.91
2611.91
2611.91
2611.9
2611.9
2611.9
2611.89
2611.89
2611.88
2611.87
2611.87
2611.86
2611.85
2611.84
2611.83
2611.82
2611.8
2611.79
2611.78
2611.76
2611.74
2611.73
2611.71
2611.69
2611.67
2611.65
2611.63
2611.61
2611.59
2611.56
2611.54
2611.51
2611.78
2611.79
2611.79
2611.8
2611.8
2611.8
2611.8
2611.8
2611.8
2611.8
2611.8
2611.8
2611.79
2611.79
2611.79
2611.78
2611.77
2611.77
2611.76
2611.75
2611.74
2611.73
2611.72
2611.71
2611.69
2611.68
2611.67
2611.65
2611.63
2611.62
2611.6
2611.58
2611.56
2611.54
2611.52
2611.5
2611.47
2611.45
2611.43
2611.4
2611.68
2611.69
2611.69
2611.69
2611.7
2611.7
2611.7
2611.7
2611.7
2611.7
2611.69
2611.69
2611.69
2611.68
2611.68
2611.67
2611.67
2611.66
2611.65
2611.64
2611.63
2611.62
2611.61
2611.6
2611.58
2611.57
2611.56
2611.54
2611.52
2611.51
2611.49
2611.47
2611.45
2611.43
2611.41
2611.39
2611.36
2611.34
2611.31
2611.29
2611.58
2611.58
2611.59
2611.59
2611.59
2611.59
2611.6
2611.6
2611.59
2611.59
2611.59
2611.59
2611.58
2611.58
2611.57
2611.57
2611.56
2611.55
2611.54
2611.53
2611.52
2611.51
2611.5
2611.49
2611.48
2611.46
2611.45
2611.43
2611.41
2611.4
2611.38
2611.36
2611.34
2611.32
2611.3
2611.28
2611.25
2611.23
2611.2
2611.18
2611.48
2611.48
2611.49
2611.49
2611.49
2611.49
2611.49
2611.49
2611.49
2611.49
2611.49
2611.48
2611.48
2611.47
2611.47
2611.46
2611.45
2611.45
2611.44
2611.43
2611.42
2611.41
2611.39
2611.38
2611.37
2611.35
2611.34
2611.32
2611.31
2611.29
2611.27
2611.25
2611.23
2611.21
2611.19
2611.17
2611.14
2611.12
2611.1
2611.07
2611.38
2611.38
2611.39
2611.39
2611.39
2611.39
2611.39
2611.39
2611.39
2611.39
2611.38
2611.38
2611.38
2611.37
2611.36
2611.36
2611.35
2611.34
2611.33
2611.32
2611.31
2611.3
2611.29
2611.28
2611.26
2611.25
2611.23
2611.22
2611.2
2611.18
2611.16
2611.14
2611.12
2611.1
2611.08
2611.06
2611.04
2611.01
2610.99
2610.96
2601.5
2601.5
2601.52
2601.55
2601.58
2601.59
2601.6
2601.62
2601.65
2601.65
2601.66
2601.68
2601.71
2601.71
2601.72
2601.73
2601.76
2601.77
2601.77
2601.77
2601.81
2601.82
2601.82
2601.82
2601.86
2601.86
2601.86
2601.86
2601.91
2601.91
2601.91
2601.91
2601.96
2601.96
2601.96
2601.96
2602.01
2602.01
2602.01
2602.01
2602.06
2602.06
2602.06
2602.05
2602.1
2602.1
2602.1
2602.1
2602.15
2602.15
2602.15
2602.15
2602.2
2602.2
2602.2
2602.2
2602.25
2602.25
2602.25
2602.25
2602.3
2602.3
2602.3
2602.3
2602.35
2602.35
2602.35
2602.35
2602.4
2602.4
2602.4
2602.4
2602.45
2602.45
2602.45
2602.45
2602.5
2602.5
2602.5
2602.5
2602.55
2602.55
2602.55
2602.55
2602.6
2602.6
2602.6
2602.6
2602.66
2602.66
2602.66
2602.66
2602.71
2602.71
2602.71
2602.71
2602.76
2602.76
2602.76
2602.76
2602.81
2602.81
2602.81
2602.81
2602.86
2602.86
2602.86
2602.86
2602.91
2602.91
2602.91
2602.91
2602.96
2602.96
2602.96
2602.96
2603.01
2603.01
2603.01
2603.01
2603.06
2603.06
2603.06
2603.06
2603.11
2603.11
2603.11
2603.11
2603.16
2603.16
2603.16
2603.16
2603.21
2603.21
2603.21
2603.21
2603.26
2603.26
2603.26
2603.26
2603.31
2603.31
2603.31
2603.31
2603.36
2603.36
2603.36
2603.36
2603.41
2603.41
2603.41
2603.41
2603.46
2603.46
2603.46
2603.46
2603.5
2603.5
2603.5
2603.5
2603.55
2603.55
2603.55
2603.55
2603.6
2603.6
2603.6
2603.6
2603.65
2603.65
2603.65
2603.65
2603.69
2603.69
2603.69
2603.69
2603.74
2603.74
2603.74
2603.74
2603.79
2603.79
2603.79
2603.79
2603.83
2603.83
2603.83
2603.83
2603.88
2603.88
2603.88
2603.88
2603.92
2603.92
2603.92
2603.92
2603.97
2603.97
2603.97
2603.97
2604.01
2604.01
2604.01
2604.01
2604.06
2604.06
2604.06
2604.06
2604.1
2604.1
2604.1
2604.1
2604.14
2604.14
2604.14
2604.14
2604.19
2604.19
2604.19
2604.19
2604.23
2604.23
2604.23
2604.23
2604.27
2604.27
2604.27
2604.27
2604.31
2604.31
2604.31
2604.31
2604.35
2604.35
2604.35
2604.35
2604.39
2604.39
2604.39
2604.39
2604.43
2604.43
2604.43
2604.43
2604.47
2604.47
2604.47
2604.47
2604.51
2604.51
2604.51
2604.51
2604.55
2604.55
2604.55
2604.55
2604.58
2604.58
2604.58
2604.58
2604.62
2604.62
2604.62
2604.62
2604.66
2604.66
2604.66
2604.66
2604.69
2604.69
2604.69
2604.69
2604.73
2604.73
2604.73
2604.73
2604.76
2604.76
2604.76
2604.76
2604.79
2604.79
2604.79
2604.8
2604.83
2604.83
2604.83
2604.83
2604.86
2604.86
2604.86
2604.86
2604.89
2604.89
2604.89
2604.89
2604.92
2604.92
2604.92
2604.92
2604.95
2604.95
2604.95
2604.95
2604.98
2604.98
2604.98
2604.98
2605.01
2605.01
2605.01
2605.01
2605.04
2605.04
2605.04
2605.04
2605.07
2605.07
2605.07
2605.07
2605.1
2605.1
2605.1
2605.1
2605.12
2605.12
2605.12
2605.12
2605.15
2605.15
2605.15
2605.15
2605.17
2605.17
2605.17
2605.17
2605.2
2605.2
2605.2
2605.2
2605.22
2605.22
2605.22
2605.22
2605.24
2605.24
2605.24
2605.24
2605.27
2605.27
2605.27
2605.27
2605.29
2605.29
2605.29
2605.29
2605.31
2605.31
2605.31
2605.31
2605.33
2605.33
2605.33
2605.33
2605.35
2605.35
2605.35
2605.35
2605.37
2605.37
2605.37
2605.37
2605.39
2605.39
2605.39
2605.39
2605.4
2605.4
2605.4
2605.4
2605.42
2605.42
2605.42
2605.42
2605.44
2605.44
2605.44
2605.44
2605.45
2605.45
2605.45
2605.45
2605.47
2605.47
2605.47
2605.47
2605.48
2605.48
2605.48
2605.48
2605.5
2605.5
2605.5
2605.49
2605.51
2605.51
2605.51
2605.51
2605.53
2605.52
2605.52
2605.52
2605.54
2605.54
2605.54
2605.53
2605.55
2605.55
2605.55
2605.55
2605.56
2605.56
2605.56
2605.56
2605.57
2605.57
2605.57
2605.57
2605.58
2605.58
2605.58
2605.58
2605.59
2605.59
2605.59
2605.59
2605.6
2605.6
2605.6
2605.6
2605.61
2605.61
2605.61
2605.61
2605.62
2605.62
2605.62
2605.62
2605.63
2605.63
2605.63
2605.63
2605.64
2605.64
2605.64
2605.64
2605.65
2605.65
2605.65
2605.64
2605.66
2605.66
2605.66
2605.65
2605.67
2605.67
2605.67
2605.66
2605.68
2605.68
2605.68
2605.67
2605.69
2605.69
2605.68
2605.68
2605.7
2605.7
2605.69
2605.69
2601.63
2601.66
2601.66
2601.63
2601.66
2601.67
2601.67
2601.66
2601.69
2601.7
2601.7
2601.69
2601.73
2601.74
2601.73
2601.73
2601.77
2601.78
2601.77
2601.77
2601.82
2601.82
2601.82
2601.81
2601.86
2601.86
2601.86
2601.86
2601.91
2601.91
2601.91
2601.9
2601.96
2601.96
2601.95
2601.95
2602.01
2602
2602
2602
2602.05
2602.05
2602.05
2602.05
2602.1
2602.1
2602.1
2602.1
2602.15
2602.15
2602.15
2602.15
2602.2
2602.2
2602.2
2602.2
2602.25
2602.25
2602.25
2602.25
2602.3
2602.3
2602.3
2602.3
2602.35
2602.35
2602.35
2602.35
2602.4
2602.4
2602.4
2602.4
2602.45
2602.45
2602.45
2602.45
2602.5
2602.5
2602.5
2602.5
2602.55
2602.55
2602.55
2602.55
2602.6
2602.6
2602.6
2602.6
2602.66
2602.66
2602.66
2602.65
2602.71
2602.71
2602.71
2602.71
2602.76
2602.76
2602.76
2602.76
2602.81
2602.81
2602.81
2602.81
2602.86
2602.86
2602.86
2602.86
2602.91
2602.91
2602.91
2602.91
2602.96
2602.96
2602.96
2602.96
2603.01
2603.01
2603.01
2603.01
2603.06
2603.06
2603.06
2603.06
2603.11
2603.11
2603.11
2603.11
2603.16
2603.16
2603.16
2603.16
2603.21
2603.21
2603.21
2603.21
2603.26
2603.26
2603.26
2603.26
2603.31
2603.31
2603.31
2603.31
2603.36
2603.36
2603.36
2603.36
2603.41
2603.41
2603.41
2603.41
2603.46
2603.46
2603.46
2603.46
2603.5
2603.5
2603.5
2603.5
2603.55
2603.55
2603.55
2603.55
2603.6
2603.6
2603.6
2603.6
2603.65
2603.65
2603.65
2603.65
2603.69
2603.7
2603.7
2603.69
2603.74
2603.74
2603.74
2603.74
2603.79
2603.79
2603.79
2603.79
2603.83
2603.83
2603.83
2603.83
2603.88
2603.88
2603.88
2603.88
2603.92
2603.93
2603.93
2603.92
2603.97
2603.97
2603.97
2603.97
2604.01
2604.01
2604.01
2604.01
2604.06
2604.06
2604.06
2604.06
2604.1