/*--------------------------------*- C++ -*----------------------------------*\
  =========                 |
  \\      /  F ield         | OpenFOAM: The Open Source CFD Toolbox
   \\    /   O peration     | Website:  https://openfoam.org
    \\  /    A nd           | Version:  10
     \\/     M anipulation  |
\*---------------------------------------------------------------------------*/
FoamFile
{
    format      ascii;
    class       volScalarField;
    location    "12000/gas";
    object      H2O;
}
// * * * * * * * * * * * * * * * * * * * * * * * * * * * * * * * * * * * * * //

dimensions      [0 0 0 0 0 0 0];

internalField   nonuniform List<scalar> 
16000
(
1.28565e-48
1.19386e-48
2.78527e-48
7.08815e-50
1.879e-46
7.36271e-47
8.30949e-47
5.92551e-48
5.21943e-45
1.17844e-45
6.2805e-46
5.06913e-47
1.03953e-43
1.60281e-44
6.50921e-45
5.70685e-46
1.04674e-42
2.22689e-43
7.67793e-44
7.67727e-45
8.65543e-42
3.07011e-42
9.57493e-43
9.55165e-44
9.71375e-41
3.43199e-41
1.14125e-41
6.2126e-43
9.84623e-40
3.55102e-40
9.78289e-41
5.81979e-42
8.50477e-39
3.40691e-39
1.09491e-39
6.19123e-41
7.35128e-38
4.17775e-38
1.30286e-38
9.54095e-40
5.96195e-37
3.89652e-37
1.23691e-37
6.5131e-39
4.68829e-36
3.47466e-36
1.08609e-36
5.52926e-38
4.37692e-35
3.83464e-35
1.15006e-35
5.6683e-37
4.76456e-34
3.16615e-34
9.06835e-35
4.8055e-36
5.71414e-33
2.58159e-33
6.83661e-34
3.92061e-35
4.68905e-32
2.93484e-32
5.09782e-33
4.65694e-34
5.10604e-31
3.37259e-31
6.83505e-32
4.35582e-33
5.62899e-30
3.18415e-30
5.8146e-31
3.66539e-32
4.83869e-29
3.14824e-29
6.65051e-30
2.88174e-31
5.56129e-28
3.48527e-28
4.81438e-29
2.83287e-30
6.21399e-27
4.42762e-27
5.43373e-28
3.56454e-29
6.75057e-26
4.79773e-26
5.88342e-27
4.23709e-28
6.44812e-25
4.39507e-25
7.2856e-26
3.2435e-27
7.10238e-24
3.89274e-24
6.94762e-25
4.47281e-26
7.4109e-23
3.39198e-23
7.16604e-24
6.00018e-25
7.71816e-22
3.34416e-22
1.05228e-22
7.03922e-24
6.11894e-21
2.80099e-21
9.66988e-22
6.51105e-23
6.22873e-20
2.90744e-20
8.15635e-21
4.64065e-22
6.44951e-19
3.58965e-19
6.351e-20
4.15299e-21
4.96647e-18
2.69591e-18
8.70455e-19
6.68116e-20
5.74832e-17
3.62834e-17
1.4512e-17
1.22988e-18
6.87343e-16
5.22087e-16
2.59828e-16
1.18842e-17
5.20278e-15
4.36251e-15
2.64051e-15
2.19962e-16
6.64419e-14
6.17823e-14
3.9364e-14
2.11867e-15
8.62295e-13
9.37635e-13
7.81169e-13
4.8436e-14
1.09937e-11
1.43014e-11
1.60931e-11
1.61678e-12
1.36112e-10
2.16919e-10
3.40191e-10
7.48209e-11
1.60993e-09
3.22613e-09
7.3315e-09
4.33191e-09
1.76986e-08
4.58809e-08
1.5905e-07
2.8024e-07
1.72063e-07
5.93629e-07
3.36282e-06
1.9105e-05
1.46006e-17
2.89776e-16
1.30576e-15
2.74193e-15
4.56811e-15
6.75182e-15
9.25378e-15
1.20272e-14
1.50211e-14
1.81736e-14
2.13548e-14
2.44406e-14
2.73001e-14
2.98004e-14
3.18154e-14
3.32341e-14
3.39693e-14
3.39654e-14
3.32015e-14
3.16959e-14
2.95059e-14
2.67252e-14
2.34786e-14
1.99155e-14
1.62012e-14
1.25082e-14
9.00779e-15
5.86618e-15
3.25577e-15
1.34344e-15
2.46097e-16
1.17826e-17
3.56491e-16
3.0192e-15
8.20111e-15
1.50731e-14
2.35968e-14
3.35664e-14
4.47158e-14
5.67314e-14
6.92391e-14
8.18222e-14
9.40822e-14
1.05566e-13
1.15811e-13
1.24369e-13
1.30838e-13
1.34888e-13
1.36282e-13
1.34902e-13
1.30751e-13
1.23964e-13
1.14806e-13
1.03656e-13
9.0987e-14
7.73468e-14
6.33262e-14
4.95308e-14
3.65504e-14
2.49219e-14
1.50649e-14
7.25306e-15
2.18033e-15
2.69364e-16
1.53204e-15
9.32939e-15
2.21241e-14
3.77926e-14
5.65268e-14
7.81178e-14
1.02067e-13
1.27678e-13
1.54132e-13
1.80529e-13
2.05924e-13
2.29345e-13
2.4984e-13
2.6653e-13
2.78656e-13
2.85628e-13
2.87064e-13
2.82826e-13
2.73009e-13
2.57978e-13
2.38338e-13
2.14901e-13
1.88653e-13
1.60698e-13
1.32207e-13
1.0435e-13
7.8235e-14
5.48098e-14
3.47478e-14
1.83851e-14
6.21045e-15
8.25509e-16
4.23568e-15
2.16441e-14
4.54716e-14
7.40558e-14
1.07814e-13
1.4643e-13
1.89073e-13
2.34531e-13
2.81324e-13
3.27803e-13
3.72228e-13
4.12842e-13
4.47968e-13
4.76092e-13
4.9595e-13
5.06606e-13
5.07507e-13
4.98544e-13
4.79986e-13
4.52587e-13
4.17483e-13
3.76147e-13
3.3031e-13
2.81874e-13
2.32808e-13
1.85036e-13
1.40302e-13
1.00011e-13
6.50615e-14
3.58686e-14
1.32734e-14
1.71265e-15
9.86581e-15
4.1383e-14
8.15782e-14
1.29271e-13
1.85102e-13
2.48602e-13
3.18491e-13
3.92836e-13
4.69214e-13
5.44883e-13
6.16933e-13
6.82448e-13
7.38671e-13
7.83152e-13
8.13896e-13
8.29477e-13
8.29126e-13
8.12815e-13
7.81117e-13
7.35389e-13
6.77586e-13
6.10162e-13
5.35943e-13
4.57975e-13
3.79344e-13
3.02986e-13
2.31471e-13
1.66768e-13
1.10061e-13
6.19433e-14
2.39802e-14
3.5534e-15
2.00813e-14
7.17862e-14
1.358e-13
2.11456e-13
2.99611e-13
3.99507e-13
5.09202e-13
6.25718e-13
7.45267e-13
8.6351e-13
9.75824e-13
1.07758e-12
1.16442e-12
1.23251e-12
1.27879e-12
1.30113e-12
1.29849e-12
1.27098e-12
1.21966e-12
1.14683e-12
1.05568e-12
9.50107e-13
8.3456e-13
7.13724e-13
5.9227e-13
4.74537e-13
3.64221e-13
2.64065e-13
1.75703e-13
1.00109e-13
3.99988e-14
6.68506e-15
3.71486e-14
1.17406e-13
2.15873e-13
3.32284e-13
4.67725e-13
6.20939e-13
7.88967e-13
9.67283e-13
1.15009e-12
1.33069e-12
1.50195e-12
1.65668e-12
1.78816e-12
1.89053e-12
1.95915e-12
1.99088e-12
1.98429e-12
1.93979e-12
1.85921e-12
1.74623e-12
1.60592e-12
1.44437e-12
1.26836e-12
1.08498e-12
9.01172e-13
7.23264e-13
5.56543e-13
4.04876e-13
2.7062e-13
1.55388e-13
6.3401e-14
1.04378e-14
6.39779e-14
1.84747e-13
3.32975e-13
5.08751e-13
7.13421e-13
9.44908e-13
1.19869e-12
1.46792e-12
1.74379e-12
2.01612e-12
2.274e-12
2.50647e-12
2.70331e-12
2.85562e-12
2.95647e-12
3.00125e-12
2.98805e-12
2.91775e-12
2.79336e-12
2.62073e-12
2.40774e-12
2.16371e-12
1.89891e-12
1.62392e-12
1.34898e-12
1.08329e-12
8.34428e-13
6.07935e-13
4.07286e-13
2.35105e-13
9.77488e-14
1.80302e-14
1.04931e-13
2.83188e-13
5.03358e-13
7.65724e-13
1.07194e-12
1.41864e-12
1.79891e-12
2.20236e-12
2.6157e-12
3.02348e-12
3.40915e-12
3.75613e-12
4.04893e-12
4.27421e-12
4.42163e-12
4.48448e-12
4.46024e-12
4.35057e-12
4.16035e-12
3.89874e-12
3.57786e-12
3.21188e-12
2.81622e-12
2.40662e-12
1.99812e-12
1.60409e-12
1.23549e-12
9.00281e-13
6.03657e-13
3.49706e-13
1.47427e-13
2.7091e-14
1.66402e-13
4.26377e-13
7.50768e-13
1.13975e-12
1.59532e-12
2.11216e-12
2.67966e-12
3.28208e-12
3.89925e-12
4.50781e-12
5.08269e-12
5.59884e-12
6.03293e-12
6.36499e-12
6.57968e-12
6.66731e-12
6.62456e-12
6.45447e-12
6.16486e-12
5.76994e-12
5.2883e-12
4.74137e-12
4.15226e-12
3.5443e-12
2.93958e-12
2.35761e-12
1.81421e-12
1.32098e-12
8.85623e-13
5.14325e-13
2.19574e-13
4.2295e-14
2.57671e-13
6.34229e-13
1.11009e-12
1.68484e-12
2.36089e-12
3.12993e-12
3.97568e-12
4.87417e-12
5.79478e-12
6.70208e-12
7.55808e-12
8.32493e-12
8.96754e-12
9.45603e-12
9.76776e-12
9.88878e-12
9.81488e-12
9.55146e-12
9.11096e-12
8.51542e-12
7.79328e-12
6.97692e-12
6.10091e-12
5.19987e-12
4.30625e-12
3.44852e-12
2.64967e-12
1.92657e-12
1.29054e-12
7.50729e-13
3.24073e-13
6.48431e-14
3.92346e-13
9.36e-13
1.63292e-12
2.48135e-12
3.48425e-12
4.62872e-12
5.88977e-12
7.23076e-12
8.60499e-12
9.9585e-12
1.12336e-11
1.23731e-11
1.3324e-11
1.40418e-11
1.44931e-11
1.46579e-11
1.45313e-11
1.41227e-11
1.34518e-11
1.25529e-11
1.14695e-11
1.02505e-11
8.94772e-12
7.61248e-12
6.29255e-12
5.02951e-12
3.85679e-12
2.7989e-12
1.87239e-12
1.09033e-12
4.75218e-13
9.81405e-14
5.9042e-13
1.37496e-12
2.39608e-12
3.64967e-12
5.13943e-12
6.84549e-12
8.72935e-12
1.07347e-11
1.279e-11
1.48127e-11
1.67149e-11
1.84096e-11
1.98172e-11
2.0871e-11
2.15221e-11
2.17422e-11
2.15259e-11
2.08895e-11
1.98647e-11
1.85049e-11
1.68765e-11
1.50537e-11
1.31141e-11
1.11339e-11
9.18347e-12
7.32358e-12
5.60283e-12
4.05674e-12
2.70921e-12
1.57855e-12
6.93979e-13
1.47489e-13
8.81556e-13
2.01555e-12
3.51477e-12
5.37147e-12
7.5904e-12
1.0141e-11
1.29638e-11
1.59717e-11
1.90543e-11
2.20847e-11
2.49283e-11
2.74527e-11
2.95376e-11
3.10835e-11
3.20187e-11
3.23035e-11
3.19339e-11
3.09377e-11
2.9366e-11
2.7302e-11
2.48481e-11
2.21164e-11
1.92235e-11
1.62826e-11
1.33975e-11
1.0657e-11
8.13156e-12
5.87254e-12
3.91398e-12
2.281e-12
1.0106e-12
2.20845e-13
1.30997e-12
2.95447e-12
5.16319e-12
7.92316e-12
1.12408e-11
1.50691e-11
1.93153e-11
2.38441e-11
2.84841e-11
3.30386e-11
3.73006e-11
4.10678e-11
4.4158e-11
4.6423e-11
4.77581e-11
4.81089e-11
4.74757e-11
4.59068e-11
4.34844e-11
4.03394e-11
3.66291e-11
3.25243e-11
2.81997e-11
2.3824e-11
1.95501e-11
1.55076e-11
1.17987e-11
8.497e-12
5.65038e-12
3.29245e-12
1.4688e-12
3.29071e-13
1.94214e-12
4.33803e-12
7.60701e-12
1.17291e-11
1.67135e-11
2.24871e-11
2.8905e-11
3.57545e-11
4.27673e-11
4.96374e-11
5.60439e-11
6.16767e-11
6.62598e-11
6.95721e-11
7.14621e-11
7.1857e-11
7.07691e-11
6.82815e-11
6.45276e-11
5.9714e-11
5.40836e-11
4.78961e-11
4.14147e-11
3.48902e-11
2.85478e-11
2.25766e-11
1.71242e-11
1.22951e-11
8.15586e-12
4.75008e-12
2.1319e-12
4.88822e-13
2.87864e-12
6.38962e-12
1.12552e-11
1.7447e-11
2.49785e-11
3.37356e-11
4.34887e-11
5.39012e-11
6.45495e-11
7.49533e-11
8.46134e-11
9.30521e-11
9.98506e-11
1.0468e-10
1.07324e-10
1.07688e-10
1.05813e-10
1.0184e-10
9.59891e-11
8.85862e-11
8.00079e-11
7.06501e-11
6.09089e-11
5.11577e-11
4.17275e-11
3.28938e-11
2.48682e-11
1.77983e-11
1.1775e-11
6.8524e-12
3.09148e-12
7.23743e-13
4.27324e-12
9.45365e-12
1.67441e-11
2.6107e-11
3.7563e-11
5.09313e-11
6.58443e-11
8.17634e-11
9.80136e-11
1.13835e-10
1.28447e-10
1.41111e-10
1.51192e-10
1.58202e-10
1.61836e-10
1.61983e-10
1.58737e-10
1.52349e-10
1.43173e-10
1.31731e-10
1.18607e-10
1.04405e-10
8.9722e-11
7.51125e-11
6.10632e-11
4.79728e-11
3.61437e-11
2.57818e-11
1.70083e-11
9.88683e-12
4.48014e-12
1.06936e-12
6.36273e-12
1.40668e-11
2.50747e-11
3.93414e-11
5.68988e-11
7.74552e-11
1.00414e-10
1.24904e-10
1.49837e-10
1.74004e-10
1.96174e-10
2.15204e-10
2.30129e-10
2.40236e-10
2.45102e-10
2.44616e-10
2.3898e-10
2.28631e-10
2.14153e-10
1.96379e-10
1.76215e-10
1.54585e-10
1.32387e-10
1.10445e-10
8.9471e-11
7.00401e-11
5.25805e-11
3.73757e-11
2.45829e-11
1.42696e-11
6.48943e-12
1.57624e-12
9.51674e-12
2.10754e-11
3.78415e-11
5.97698e-11
8.69075e-11
1.18774e-10
1.54387e-10
1.92314e-10
2.30789e-10
2.67866e-10
3.01599e-10
3.30214e-10
3.52251e-10
3.66675e-10
3.72926e-10
3.70941e-10
3.61117e-10
3.44237e-10
3.21253e-10
2.93499e-10
2.62386e-10
2.29327e-10
1.9567e-10
1.62636e-10
1.31262e-10
1.02372e-10
7.6566e-11
5.42288e-11
3.5555e-11
2.06035e-11
9.39641e-12
2.31906e-12
1.43162e-11
3.18315e-11
5.76202e-11
9.16556e-11
1.34002e-10
1.83849e-10
2.39545e-10
2.98707e-10
3.58429e-10
4.15562e-10
4.67011e-10
5.10021e-10
5.42402e-10
5.62678e-10
5.70149e-10
5.64919e-10
5.47739e-10
5.20023e-10
4.83317e-10
4.39762e-10
3.91555e-10
3.40853e-10
2.89678e-10
2.39829e-10
1.92809e-10
1.49788e-10
1.11598e-10
7.87455e-11
5.14592e-11
2.97613e-11
1.36012e-11
3.40507e-12
2.1693e-11
4.85275e-11
8.86361e-11
1.42048e-10
2.08834e-10
2.87584e-10
3.7547e-10
4.68462e-10
5.61728e-10
6.50125e-10
7.2872e-10
7.93248e-10
8.40455e-10
8.68297e-10
8.76007e-10
8.64099e-10
8.33978e-10
7.88182e-10
7.29221e-10
6.60535e-10
5.85541e-10
5.07524e-10
4.29506e-10
3.54121e-10
2.8353e-10
2.19378e-10
1.62795e-10
1.14431e-10
7.45238e-11
4.30057e-11
1.96818e-11
4.99118e-12
3.31461e-11
7.47754e-11
1.37943e-10
2.22813e-10
3.29407e-10
4.55193e-10
5.95219e-10
7.4256e-10
8.89082e-10
1.02634e-09
1.14646e-09
1.24287e-09
1.31084e-09
1.34767e-09
1.35276e-09
1.32754e-09
1.2746e-09
1.19849e-09
1.10327e-09
9.94449e-10
8.77342e-10
7.56927e-10
6.37694e-10
5.23472e-10
4.17335e-10
3.21559e-10
2.37647e-10
1.66391e-10
1.07981e-10
6.21623e-11
2.84715e-11
7.30274e-12
5.11725e-11
1.16645e-10
2.17557e-10
3.5433e-10
5.26757e-10
7.30126e-10
9.55547e-10
1.19093e-09
1.42243e-09
1.63611e-09
1.81945e-09
1.96244e-09
2.05838e-09
2.10406e-09
2.09964e-09
2.04842e-09
1.95522e-09
1.82806e-09
1.67349e-09
1.50035e-09
1.31685e-09
1.13048e-09
9.47867e-10
7.74517e-10
6.14738e-10
4.7162e-10
3.47094e-10
2.42052e-10
1.56516e-10
8.98674e-11
4.11712e-11
1.06676e-11
7.98922e-11
1.84544e-10
3.48424e-10
5.72445e-10
8.55618e-10
1.18883e-09
1.55574e-09
1.93487e-09
2.30247e-09
2.63551e-09
2.91418e-09
3.1236e-09
3.25477e-09
3.30457e-09
3.27545e-09
3.17413e-09
3.00985e-09
2.79643e-09
2.54439e-09
2.26787e-09
1.97943e-09
1.6903e-09
1.41012e-09
1.14669e-09
9.05943e-10
6.91954e-10
5.07084e-10
3.52193e-10
2.26902e-10
1.29922e-10
5.95084e-11
1.55564e-11
1.26563e-10
2.96831e-10
5.68103e-10
9.41986e-10
1.41508e-09
1.96906e-09
2.57312e-09
3.18856e-09
3.77443e-09
4.2928e-09
4.71283e-09
5.01319e-09
5.18295e-09
5.22099e-09
5.13513e-09
4.93838e-09
4.64857e-09
4.28897e-09
3.87643e-09
3.43333e-09
2.97879e-09
2.52938e-09
2.0989e-09
1.69824e-09
1.33531e-09
1.01528e-09
7.40816e-10
5.12434e-10
3.28917e-10
1.87796e-10
8.59646e-11
2.26497e-11
2.03481e-10
4.86799e-10
9.46297e-10
1.58429e-09
2.39024e-09
3.32579e-09
4.33161e-09
5.33735e-09
6.27237e-09
7.07494e-09
7.69841e-09
8.11421e-09
8.31187e-09
8.29706e-09
8.08888e-09
7.71231e-09
7.20076e-09
6.59304e-09
5.91567e-09
5.2038e-09
4.48607e-09
3.78654e-09
3.12459e-09
2.51492e-09
1.96777e-09
1.48925e-09
1.08192e-09
7.45327e-10
4.76636e-10
2.71341e-10
1.24095e-10
3.2923e-11
3.34369e-10
8.1775e-10
1.61851e-09
2.73665e-09
4.13999e-09
5.7456e-09
7.43778e-09
9.08838e-09
1.05767e-08
1.18047e-08
1.27055e-08
1.32457e-08
1.34226e-08
1.32598e-08
1.27978e-08
1.20854e-08
1.11825e-08
1.01534e-08
9.03863e-09
7.89282e-09
6.75802e-09
5.66832e-09
4.65014e-09
3.72257e-09
2.89804e-09
2.18302e-09
1.579e-09
1.08333e-09
6.90253e-10
3.91795e-10
1.78984e-10
4.77788e-11
5.60709e-10
1.41507e-09
2.86689e-09
4.89136e-09
7.39267e-09
1.01895e-08
1.30575e-08
1.57657e-08
1.81125e-08
1.9949e-08
2.11886e-08
2.18047e-08
2.18213e-08
2.13024e-08
2.03273e-08
1.89933e-08
1.74012e-08
1.56564e-08
1.38196e-08
1.19735e-08
1.01783e-08
8.48068e-09
6.91511e-09
5.50489e-09
4.26359e-09
3.19646e-09
2.30192e-09
1.57298e-09
9.98624e-10
5.65186e-10
2.57873e-10
6.92191e-11
9.75447e-10
2.59217e-09
5.36251e-09
9.15867e-09
1.37093e-08
1.86266e-08
2.34918e-08
2.78976e-08
3.15199e-08
3.41506e-08
3.57007e-08
3.6185e-08
3.56982e-08
3.43829e-08
3.23954e-08
2.99178e-08
2.71155e-08
2.41579e-08
2.11306e-08
1.8156e-08
1.53171e-08
1.26743e-08
1.02697e-08
8.12862e-09
6.2629e-09
4.67305e-09
3.35067e-09
2.2806e-09
1.44281e-09
8.14282e-10
3.7105e-10
1.00105e-10
1.81791e-09
5.04521e-09
1.05906e-08
1.79974e-08
2.65169e-08
3.52397e-08
4.33979e-08
5.04002e-08
5.5754e-08
5.92126e-08
6.07484e-08
6.05027e-08
5.87276e-08
5.57077e-08
5.17621e-08
4.71967e-08
4.22788e-08
3.72725e-08
3.2288e-08
2.75003e-08
2.30165e-08
1.8909e-08
1.52224e-08
1.19785e-08
9.18064e-09
6.81762e-09
4.86747e-09
3.3003e-09
2.08091e-09
1.17127e-09
5.33064e-10
1.44496e-10
3.63642e-09
1.05143e-08
2.22392e-08
3.72382e-08
5.34928e-08
6.90249e-08
8.2403e-08
9.2978e-08
1.00209e-07
1.03919e-07
1.04309e-07
1.01837e-07
9.70489e-08
9.05227e-08
8.28411e-08
7.44972e-08
6.59033e-08
5.74523e-08
4.92643e-08
4.15755e-08
3.45106e-08
2.81427e-08
2.25062e-08
1.76055e-08
1.34222e-08
9.92055e-09
7.05321e-09
4.76467e-09
2.9947e-09
1.68143e-09
7.644e-10
2.08152e-10
7.92848e-09
2.38114e-08
5.01311e-08
8.15219e-08
1.12743e-07
1.39851e-07
1.60765e-07
1.75004e-07
1.82817e-07
1.8438e-07
1.80518e-07
1.7232e-07
1.60883e-07
1.47346e-07
1.32641e-07
1.17527e-07
1.02594e-07
8.8389e-08
7.49891e-08
6.26846e-08
5.15916e-08
4.17543e-08
3.31677e-08
2.57914e-08
1.95598e-08
1.43902e-08
1.01895e-08
6.8592e-09
4.29843e-09
2.40803e-09
1.09374e-09
2.99179e-10
1.93752e-08
5.97918e-08
1.22546e-07
1.89582e-07
2.48427e-07
2.92757e-07
3.21227e-07
3.35365e-07
3.37876e-07
3.30146e-07
3.14302e-07
2.92548e-07
2.67144e-07
2.39884e-07
2.12179e-07
1.85076e-07
1.59315e-07
1.3558e-07
1.13766e-07
9.41703e-08
7.68346e-08
6.1708e-08
4.86874e-08
3.76353e-08
2.83941e-08
2.07955e-08
1.46679e-08
9.84136e-09
6.15064e-09
3.43894e-09
1.56104e-09
4.28973e-10
5.55975e-08
1.70568e-07
3.27629e-07
4.69035e-07
5.71432e-07
6.31495e-07
6.55472e-07
6.52387e-07
6.30909e-07
5.95031e-07
5.48985e-07
4.97317e-07
4.4344e-07
3.8992e-07
3.38552e-07
2.90504e-07
2.46461e-07
2.07102e-07
1.71835e-07
1.40825e-07
1.13895e-07
9.07691e-08
7.11347e-08
5.4665e-08
4.10333e-08
2.99218e-08
2.10275e-08
1.40654e-08
8.76949e-09
4.89529e-09
2.22154e-09
6.1341e-10
2.01463e-07
5.65871e-07
9.61373e-07
1.2312e-06
1.36575e-06
1.39669e-06
1.35965e-06
1.28315e-06
1.18558e-06
1.07511e-06
9.5933e-07
8.44262e-07
7.34099e-07
6.31481e-07
5.37847e-07
4.53784e-07
3.793e-07
3.14643e-07
2.58117e-07
2.09422e-07
1.67892e-07
1.3278e-07
1.03367e-07
7.89798e-08
5.89943e-08
4.28411e-08
3.00032e-08
2.00139e-08
1.24525e-08
6.94268e-09
3.15116e-09
8.74561e-10
9.98272e-07
2.20808e-06
3.08005e-06
3.40016e-06
3.36289e-06
3.14406e-06
2.84879e-06
2.53476e-06
2.2298e-06
1.93989e-06
1.67098e-06
1.42679e-06
1.20874e-06
1.0166e-06
8.49062e-07
7.04202e-07
5.79843e-07
4.74802e-07
3.8514e-07
3.09381e-07
2.45882e-07
1.93e-07
1.49276e-07
1.13426e-07
8.43273e-08
6.09993e-08
4.25854e-08
2.83378e-08
1.76017e-08
9.80555e-09
4.45335e-09
1.2428e-09
6.84893e-06
1.00014e-05
1.0594e-05
9.73033e-06
8.42537e-06
7.12364e-06
5.96876e-06
4.99292e-06
4.17237e-06
3.47721e-06
2.88864e-06
2.39177e-06
1.97365e-06
1.62278e-06
1.32907e-06
1.08372e-06
8.79154e-07
7.10661e-07
5.70174e-07
4.53565e-07
3.57436e-07
2.78522e-07
2.1408e-07
1.61807e-07
1.19767e-07
8.63229e-08
6.00938e-08
3.99052e-08
2.47545e-08
1.37852e-08
6.26794e-09
1.75976e-09
5.94981e-05
5.04317e-05
3.80071e-05
2.81652e-05
2.10531e-05
1.59967e-05
1.23652e-05
9.71609e-06
7.70994e-06
6.15497e-06
4.93232e-06
3.96161e-06
3.18554e-06
2.5618e-06
2.05843e-06
1.65091e-06
1.3201e-06
1.05349e-06
8.36498e-07
6.59199e-07
5.15291e-07
3.98739e-07
3.04671e-07
2.29135e-07
1.68908e-07
1.21344e-07
8.42641e-08
5.58601e-08
3.46215e-08
1.92823e-08
8.78225e-09
2.48195e-09
0.000580795
0.000264375
0.000135414
7.95251e-05
5.10649e-05
3.49251e-05
2.49895e-05
1.84834e-05
1.39543e-05
1.069e-05
8.27664e-06
6.45767e-06
5.06614e-06
3.98906e-06
3.14755e-06
2.48518e-06
1.9608e-06
1.54423e-06
1.21465e-06
9.48877e-07
7.36083e-07
5.65874e-07
4.29991e-07
3.21901e-07
2.36407e-07
1.69343e-07
1.17349e-07
7.76919e-08
4.81317e-08
2.68233e-08
1.22448e-08
3.4856e-09
0.00552951
0.00567025
0.00579699
0.00591146
0.00602004
0.00612572
0.00623007
0.00633396
0.00643792
0.00654224
0.00664707
0.00675249
0.00685847
0.00696495
0.00707186
0.00717906
0.00728641
0.00739377
0.00750096
0.00760782
0.00771416
0.0078198
0.00792455
0.00802824
0.00813065
0.00823162
0.00833093
0.0084284
0.00852382
0.00861701
0.00870776
0.00879587
0.00888067
0.00896269
0.0090415
0.00911678
0.00918833
0.00925598
0.00931924
0.00937391
0.0055778
0.00570335
0.00582167
0.00593173
0.00603767
0.00614163
0.0062448
0.00634785
0.0064512
0.00655507
0.00665958
0.00676477
0.00687059
0.00697698
0.00708384
0.00719104
0.00729843
0.00740585
0.00751314
0.00762012
0.00772661
0.00783243
0.0079374
0.00804131
0.008144
0.00824526
0.00834492
0.00844277
0.00853864
0.00863233
0.00872366
0.00881246
0.00889816
0.00898122
0.00906131
0.00913824
0.00921203
0.0092828
0.00935055
0.0094108
0.00562669
0.00574597
0.00585812
0.00596383
0.00606669
0.00616843
0.00626995
0.00637177
0.00647419
0.00657736
0.00668134
0.00678612
0.00689165
0.00699784
0.00710456
0.00721168
0.00731904
0.00742648
0.00753382
0.00764089
0.00774749
0.00785346
0.00795858
0.00806269
0.00816559
0.00826709
0.00836701
0.00846515
0.00856133
0.00865536
0.00874706
0.00883625
0.00892246
0.00900598
0.0090865
0.00916378
0.00923766
0.00930788
0.00937351
0.00942886
0.00567739
0.00579251
0.00590039
0.00600266
0.0061028
0.0062024
0.00630223
0.00640273
0.0065041
0.00660644
0.00670976
0.00681403
0.00691915
0.00702503
0.00713151
0.00723845
0.00734569
0.00745304
0.00756032
0.00766736
0.00777396
0.00787993
0.00798508
0.00808922
0.00819217
0.00829371
0.00839368
0.00849187
0.00858808
0.00868214
0.00877385
0.00886302
0.00894927
0.00903272
0.00911308
0.00919009
0.00926357
0.00933334
0.00939886
0.00945572
0.00572848
0.00584074
0.00594563
0.00604531
0.00614323
0.00624096
0.00633925
0.00643847
0.00653879
0.00664027
0.00674288
0.00684656
0.0069512
0.00705667
0.00716281
0.00726947
0.00737647
0.00748361
0.00759071
0.00769759
0.00780403
0.00790986
0.00801487
0.00811886
0.00822165
0.00832304
0.00842283
0.00852083
0.00861684
0.00871065
0.00880208
0.00889093
0.00897691
0.00905998
0.00913988
0.00921637
0.00928927
0.00935835
0.00942292
0.00947785
0.00577945
0.00588961
0.00599232
0.00609003
0.00618618
0.00628237
0.00637931
0.00647737
0.00657669
0.00667732
0.0067792
0.00688225
0.00698635
0.00709134
0.00719707
0.00730335
0.00741
0.00751682
0.00762362
0.0077302
0.00783636
0.00794189
0.0080466
0.00815029
0.00825276
0.00835381
0.00845325
0.00855087
0.00864648
0.00873986
0.00883082
0.00891915
0.00900467
0.00908721
0.00916654
0.00924244
0.00931473
0.0093832
0.00944724
0.00950204
0.00583005
0.00593858
0.00603962
0.0061358
0.00623054
0.00632544
0.00642122
0.00651824
0.00661665
0.00671645
0.00681761
0.00692002
0.00702354
0.007128
0.00723324
0.00733907
0.00744529
0.0075517
0.00765809
0.00776426
0.00787001
0.00797512
0.00807941
0.00818266
0.00828467
0.00838526
0.0084842
0.00858132
0.0086764
0.00876924
0.00885961
0.00894732
0.00903227
0.00911421
0.00919293
0.00926822
0.0093399
0.00940774
0.0094711
0.00952494
0.00588011
0.0059873
0.00608702
0.00618199
0.00627558
0.00636939
0.00646417
0.00656027
0.00665783
0.00675687
0.00685732
0.00695908
0.00706199
0.00716589
0.0072706
0.00737591
0.00748162
0.00758753
0.00769343
0.00779911
0.00790436
0.00800896
0.00811273
0.00821544
0.0083169
0.00841692
0.00851529
0.00861181
0.00870629
0.00879852
0.00888822
0.00897524
0.00905958
0.00914091
0.00921902
0.00929371
0.0093648
0.00943206
0.00949486
0.0095482
0.00592956
0.0060356
0.00613424
0.0062282
0.00632083
0.00641372
0.00650762
0.00660289
0.00669968
0.00679798
0.00689775
0.00699886
0.00710115
0.00720446
0.00730859
0.00741334
0.0075185
0.00762386
0.0077292
0.00783432
0.00793899
0.00804302
0.00814619
0.00824829
0.00834914
0.00844853
0.00854625
0.00864213
0.00873596
0.00882753
0.00891654
0.00900286
0.00908657
0.00916728
0.00924479
0.0093189
0.00938942
0.00945612
0.00951835
0.00957103
0.00597837
0.00608338
0.00618108
0.00627418
0.00636598
0.00645806
0.00655119
0.00664571
0.00674177
0.00683939
0.00693849
0.00703895
0.00714062
0.00724332
0.00734685
0.00745101
0.00755557
0.00766033
0.00776507
0.00786958
0.00797363
0.00807703
0.00817955
0.00828101
0.00838119
0.00847991
0.00857696
0.00867216
0.00876531
0.00885622
0.00894451
0.00903013
0.00911322
0.00919332
0.00927025
0.0093438
0.00941378
0.00947996
0.00954166
0.00959381
0.00602653
0.00613056
0.00622745
0.00631979
0.00641085
0.00650221
0.00659462
0.00668845
0.00678384
0.0068808
0.00697925
0.00707908
0.00718013
0.0072822
0.00738512
0.00748865
0.0075926
0.00769673
0.00780084
0.0079047
0.0080081
0.00811083
0.00821268
0.00831345
0.00841295
0.00851097
0.00860733
0.00870183
0.0087943
0.00888453
0.00897212
0.00905705
0.00913952
0.00921904
0.0092954
0.00936842
0.00943788
0.00950356
0.00956476
0.00961637
0.00607402
0.00617714
0.00627328
0.00636493
0.00645532
0.00654602
0.00663777
0.00673095
0.0068257
0.00692202
0.00701984
0.00711904
0.00721947
0.00732092
0.0074232
0.00752611
0.00762941
0.0077329
0.00783635
0.00793955
0.00804227
0.00814432
0.00824548
0.00834555
0.00844434
0.00854165
0.00863731
0.00873112
0.0088229
0.00891247
0.00899934
0.00908361
0.00916549
0.00924443
0.00932026
0.00939276
0.00946174
0.00952694
0.00958767
0.00963879
0.00612085
0.00622311
0.00631854
0.00640954
0.00649931
0.00658938
0.00668052
0.00677309
0.00686721
0.00696292
0.00706013
0.00715871
0.00725851
0.00735934
0.00746099
0.00756325
0.00766591
0.00776874
0.00787152
0.00797404
0.00807608
0.00817743
0.00827788
0.00837725
0.00847533
0.00857194
0.00866689
0.00876
0.0088511
0.00894001
0.0090262
0.00910982
0.00919112
0.00926952
0.00934482
0.00941683
0.00948535
0.00955011
0.00961039
0.00966104
0.00616705
0.00626846
0.00636322
0.0064536
0.00654278
0.00663226
0.00672281
0.00681478
0.00690832
0.00700342
0.00710002
0.007198
0.00729718
0.00739738
0.0074984
0.00760002
0.00770202
0.00780419
0.00790629
0.00800813
0.00810947
0.00821012
0.00830987
0.00840853
0.0085059
0.0086018
0.00869606
0.00878848
0.00887891
0.00896717
0.00905267
0.0091357
0.00921644
0.0092943
0.0093691
0.00944065
0.00950872
0.00957306
0.00963293
0.00968313
0.00621262
0.0063132
0.0064073
0.0064971
0.0065857
0.00667462
0.0067646
0.006856
0.00694895
0.00704346
0.00713947
0.00723684
0.00733541
0.00743499
0.00753537
0.00763635
0.0077377
0.0078392
0.00794063
0.00804178
0.00814243
0.00824238
0.00834143
0.00843938
0.00853605
0.00863125
0.00872482
0.00881656
0.00890632
0.00899393
0.00907874
0.0091613
0.00924146
0.00931879
0.00939311
0.00946421
0.00953187
0.00959581
0.00965528
0.00970508
0.00625759
0.00635735
0.00645081
0.00654003
0.00662808
0.00671644
0.00680587
0.0068967
0.00698909
0.00708302
0.00717844
0.00727522
0.00737318
0.00747214
0.00757189
0.00767222
0.00777292
0.00787376
0.00797452
0.00807498
0.00817495
0.0082742
0.00837255
0.00846981
0.00856578
0.00866029
0.00875317
0.00884424
0.00893335
0.00902031
0.00910445
0.0091866
0.00926618
0.009343
0.00941685
0.00948752
0.00955479
0.00961835
0.00967746
0.00972687
0.00630197
0.00640092
0.00649375
0.00658241
0.0066699
0.00675773
0.00684661
0.00693689
0.00702871
0.00712208
0.00721692
0.0073131
0.00741046
0.0075088
0.00760793
0.00770763
0.00780767
0.00790785
0.00800794
0.00810773
0.00820701
0.00830558
0.00840324
0.0084998
0.00859509
0.00868892
0.00878113
0.00887154
0.00896001
0.00904635
0.00912988
0.00921151
0.00929059
0.00936692
0.00944033
0.00951059
0.00957748
0.0096407
0.00969946
0.00974852
0.00634579
0.00644394
0.00653614
0.00662423
0.00671119
0.00679848
0.00688682
0.00697656
0.00706783
0.00716064
0.0072549
0.00735049
0.00744725
0.00754499
0.0076435
0.00774256
0.00784196
0.00794148
0.00804091
0.00814003
0.00823863
0.00833652
0.0084335
0.00852938
0.00862399
0.00871715
0.0088087
0.00889847
0.00898631
0.00907206
0.00915499
0.00923611
0.00931469
0.00939056
0.00946354
0.00953342
0.00959996
0.00966285
0.0097213
0.00977002
0.00638907
0.0064864
0.00657798
0.00666552
0.00675194
0.0068387
0.00692651
0.00701572
0.00710644
0.00719868
0.00729238
0.00738739
0.00748356
0.00758069
0.00767858
0.00777702
0.00787578
0.00797466
0.00807343
0.00817188
0.00826982
0.00836703
0.00846334
0.00855855
0.0086525
0.008745
0.0088359
0.00892505
0.00901227
0.00909743
0.00917979
0.00926039
0.00933849
0.00941392
0.0094865
0.00955601
0.00962222
0.00968481
0.00974296
0.00979138
0.00643181
0.00652834
0.0066193
0.00670628
0.00679218
0.00687841
0.0069657
0.00705436
0.00714454
0.00723623
0.00732937
0.0074238
0.00751938
0.00761591
0.00771319
0.00781101
0.00790914
0.00800737
0.0081055
0.0082033
0.00830057
0.00839713
0.00849278
0.00858733
0.00868062
0.00877248
0.00886274
0.00895127
0.0090379
0.00912249
0.00920428
0.00928438
0.00936201
0.00943701
0.0095092
0.00957837
0.00964427
0.00970658
0.00976446
0.0098126
0.00647404
0.00656977
0.0066601
0.00674654
0.0068319
0.00691762
0.00700438
0.00709251
0.00718215
0.0072733
0.00736587
0.00745973
0.00755473
0.00765067
0.00774734
0.00784454
0.00794205
0.00803965
0.00813713
0.00823429
0.00833091
0.00842682
0.00852181
0.00861572
0.00870836
0.00879959
0.00888923
0.00897715
0.0090632
0.00914722
0.00922847
0.00930807
0.00938524
0.00945983
0.00953165
0.00960049
0.00966611
0.00972816
0.0097858
0.00983369
0.00651578
0.0066107
0.00670041
0.00678629
0.00687113
0.00695633
0.00704257
0.00713017
0.00721928
0.00730988
0.00740189
0.00749519
0.00758961
0.00768496
0.00778104
0.00787763
0.00797452
0.00807149
0.00816834
0.00826486
0.00836085
0.00845611
0.00855046
0.00864373
0.00873575
0.00882635
0.00891538
0.00900271
0.00908818
0.00917166
0.00925236
0.00933148
0.00940821
0.00948239
0.00955385
0.00962239
0.00968774
0.00974956
0.00980697
0.00985464
0.00655702
0.00665114
0.00674023
0.00682557
0.00690988
0.00699456
0.00708028
0.00716736
0.00725593
0.00734599
0.00743746
0.00753019
0.00762404
0.00771881
0.00781429
0.00791028
0.00800656
0.00810291
0.00819914
0.00829503
0.00839039
0.00848502
0.00857874
0.00867138
0.00876277
0.00885277
0.0089412
0.00902794
0.00911285
0.00919579
0.00927597
0.00935461
0.0094309
0.0095047
0.00957581
0.00964405
0.00970916
0.00977077
0.00982799
0.00987546
0.0065978
0.00669111
0.00677958
0.00686437
0.00694816
0.00703232
0.00711752
0.00720409
0.00729213
0.00738165
0.00747256
0.00756474
0.00765802
0.00775221
0.00784711
0.0079425
0.00803818
0.00813392
0.00822954
0.00832481
0.00841954
0.00851355
0.00860665
0.00869867
0.00878946
0.00887885
0.0089667
0.00905287
0.00913723
0.00921963
0.00929929
0.00937747
0.00945334
0.00952675
0.00959754
0.0096655
0.00973037
0.00979179
0.00984885
0.00989615
0.00663811
0.00673062
0.00681848
0.00690271
0.00698598
0.00706963
0.00715432
0.00724036
0.00732787
0.00741686
0.00750723
0.00759886
0.00769157
0.00778519
0.00787951
0.00797431
0.00806939
0.00816453
0.00825954
0.0083542
0.00844832
0.00854171
0.00863421
0.00872562
0.00881581
0.00890461
0.00899188
0.00907749
0.00916131
0.00924319
0.00932234
0.00940007
0.00947551
0.00954855
0.00961902
0.00968672
0.00975138
0.00981264
0.00986955
0.00991672
0.00667798
0.00676969
0.00685692
0.00694061
0.00702336
0.00710649
0.00719067
0.00727619
0.00736318
0.00745164
0.00754147
0.00763254
0.0077247
0.00781775
0.00791149
0.00800571
0.0081002
0.00819475
0.00828916
0.00838321
0.00847673
0.00856952
0.00866141
0.00875224
0.00884184
0.00893006
0.00901676
0.00910182
0.0091851
0.00926647
0.00934513
0.0094224
0.00949744
0.00957011
0.00964027
0.00970771
0.00977219
0.0098333
0.00989011
0.00993716
0.0067174
0.00680831
0.00689492
0.00697807
0.0070603
0.00714292
0.00722658
0.00731159
0.00739806
0.00748599
0.00757528
0.00766581
0.00775742
0.00784991
0.00794308
0.00803672
0.00813063
0.00822459
0.0083184
0.00841187
0.00850479
0.00859699
0.00868829
0.00877852
0.00886754
0.00895519
0.00904134
0.00912586
0.00920862
0.00928948
0.00936765
0.00944448
0.00951911
0.00959143
0.00966128
0.00972849
0.00979279
0.00985378
0.00991051
0.00995749
0.00675639
0.0068465
0.0069325
0.0070151
0.00709681
0.00717892
0.00726207
0.00734657
0.00743252
0.00751992
0.00760868
0.00769868
0.00778973
0.00788166
0.00797427
0.00806734
0.00816067
0.00825406
0.00834728
0.00844016
0.0085325
0.00862411
0.00871483
0.00880449
0.00889294
0.00898003
0.00906563
0.00914961
0.00923186
0.00931223
0.00938992
0.00946631
0.00954055
0.00961251
0.00968207
0.00974905
0.00981319
0.00987409
0.00993077
0.00997772