/*--------------------------------*- C++ -*----------------------------------*\
  =========                 |
  \\      /  F ield         | OpenFOAM: The Open Source CFD Toolbox
   \\    /   O peration     | Website:  https://openfoam.org
    \\  /    A nd           | Version:  10
     \\/     M anipulation  |
\*---------------------------------------------------------------------------*/
FoamFile
{
    format      ascii;
    class       volScalarField;
    location    "12000/gas";
    object      k;
}
// * * * * * * * * * * * * * * * * * * * * * * * * * * * * * * * * * * * * * //

dimensions      [0 2 -2 0 0 0 0];

internalField   nonuniform List<scalar> 
16000
(
0.000415472
0.000325773
0.00028829
0.000168773
0.00133572
0.000624623
0.000566988
0.000186297
0.00132601
0.000821345
0.000780733
0.000219819
0.0013736
0.000943892
0.000872777
0.000252417
0.00160094
0.00103758
0.000929053
0.000279835
0.00184775
0.00111021
0.000985798
0.00030351
0.00187208
0.00116167
0.00104323
0.000324819
0.00182311
0.00119596
0.00109624
0.000344701
0.0017557
0.00121612
0.00113952
0.000363388
0.00167633
0.00122393
0.00117013
0.000380662
0.00160118
0.00122224
0.00118736
0.000396017
0.00153444
0.001214
0.0011931
0.000409117
0.00147634
0.00120169
0.00119044
0.000420016
0.0014259
0.00118727
0.00118185
0.00042876
0.00138179
0.00117115
0.00116903
0.000435376
0.00134293
0.00115368
0.00115304
0.000440006
0.00130833
0.00113539
0.00113467
0.000442933
0.00127725
0.00111666
0.00111474
0.000444281
0.001249
0.00109767
0.0010939
0.000444198
0.00122298
0.00107851
0.00107259
0.000442831
0.00119865
0.00105928
0.00105113
0.00044035
0.00117563
0.00104006
0.00102971
0.000436873
0.0011536
0.00102095
0.00100848
0.000432534
0.00113233
0.00100197
0.000987511
0.000427426
0.00111167
0.000983252
0.000966868
0.000421668
0.00109146
0.0009646
0.000946567
0.000415359
0.00107175
0.000946879
0.000926696
0.00040858
0.00105248
0.000929377
0.00090734
0.000401408
0.0010336
0.000912051
0.000888373
0.000393914
0.00101505
0.000894927
0.000869788
0.00038616
0.000996784
0.000878024
0.000851585
0.00037821
0.000978822
0.00086138
0.000833759
0.000370092
0.000961163
0.000845021
0.000816322
0.000361857
0.000943773
0.000828848
0.000799249
0.000353546
0.000926639
0.000812835
0.000782516
0.000345181
0.000909759
0.000797113
0.000766129
0.000336797
0.000893165
0.000781691
0.000750061
0.000328418
0.000876771
0.000766673
0.000734215
0.000320061
0.000860843
0.000751958
0.000719035
0.000311762
0.000844462
0.000737773
0.000700606
0.00030334
0.00016882
0.000195821
0.000222661
0.000229557
0.000231004
0.000229758
0.000227341
0.000224457
0.000221455
0.000218498
0.000215654
0.000212948
0.000210383
0.000207952
0.000205641
0.000203438
0.00020133
0.000199302
0.000197334
0.000195414
0.000193526
0.000191657
0.000189793
0.000187917
0.000186009
0.000184042
0.000181974
0.000179745
0.000177265
0.00017433
0.00017053
0.00016785
0.000176513
0.000274242
0.000329511
0.000347142
0.000353454
0.0003524
0.000346887
0.000339059
0.000330222
0.000321119
0.000312149
0.000303509
0.000295276
0.000287467
0.00028006
0.000273017
0.000266287
0.000259821
0.000253578
0.000247511
0.000241573
0.000235719
0.000229903
0.00022408
0.0002182
0.000212207
0.000206039
0.00019963
0.000192868
0.000185355
0.00017596
0.000163758
0.000193393
0.000358181
0.000426143
0.000451121
0.000462069
0.000463009
0.000457014
0.000446682
0.000433941
0.000420087
0.000405931
0.000391949
0.000378392
0.000365373
0.000352921
0.000341014
0.000329601
0.000318619
0.000308003
0.000297682
0.00028759
0.00027766
0.00026783
0.000258043
0.000248244
0.000238388
0.00022843
0.000218319
0.000207876
0.000196399
0.000181686
0.000159286
0.000219004
0.000436556
0.000512017
0.000541851
0.000556368
0.000559626
0.000554462
0.000543405
0.000528582
0.000511612
0.000493628
0.000475377
0.000457313
0.000439692
0.000422634
0.000406173
0.000390289
0.000374931
0.000360035
0.000345527
0.000331337
0.000317398
0.000303648
0.000290042
0.000276542
0.000263122
0.000249755
0.000236359
0.000222599
0.000207411
0.000187519
0.000155144
0.000251542
0.000506543
0.000588263
0.000621518
0.00063857
0.000643815
0.000639885
0.00062906
0.000613399
0.000594616
0.000574027
0.000552577
0.000530902
0.000509405
0.000488317
0.000467753
0.000447748
0.000428288
0.000409334
0.00039083
0.000372722
0.000354958
0.000337501
0.000320325
0.00030342
0.000286775
0.000270349
0.000253994
0.000237173
0.000218447
0.000193566
0.000152177
0.000288907
0.000568434
0.000655915
0.000691878
0.000710726
0.000717483
0.000714749
0.000704555
0.00068878
0.000669086
0.000646843
0.000623108
0.000598649
0.000573995
0.000549488
0.00052533
0.000501628
0.000478424
0.00045572
0.000433499
0.000411739
0.000390421
0.000369539
0.000349099
0.000329111
0.000309567
0.000290391
0.000271344
0.000251674
0.000229588
0.000199927
0.000150033
0.00032904
0.000622624
0.000715818
0.000754185
0.000774372
0.000782231
0.00078049
0.000771018
0.000755494
0.000735459
0.000712246
0.000686949
0.000660412
0.000633257
0.000605919
0.000578689
0.000551749
0.000525205
0.000499117
0.000473518
0.00044843
0.00042388
0.000399897
0.000376517
0.000353766
0.000331626
0.000309971
0.00028846
0.000266137
0.000240879
0.000206665
0.000148556
0.000370364
0.000670732
0.000768832
0.00080941
0.000830667
0.000839321
0.000838346
0.000829539
0.000814413
0.000794365
0.000770645
0.000744327
0.000716284
0.000687196
0.000657569
0.00062777
0.000598053
0.000568596
0.00053952
0.000510916
0.00048286
0.000455424
0.000428679
0.000402687
0.000377479
0.000353019
0.000329126
0.000305358
0.000280568
0.000252334
0.000213811
0.000147706
0.00041164
0.00071354
0.000815745
0.000858366
0.000880529
0.000889767
0.000889356
0.000881099
0.000866394
0.0008465
0.000822568
0.000795619
0.000766517
0.000735968
0.000704529
0.000672627
0.000640582
0.000608637
0.000576977
0.000545755
0.000515102
0.000485137
0.000455968
0.000427678
0.000400302
0.000373776
0.000347864
0.000322029
0.000294954
0.000263943
0.000221374
0.000147472
0.000451974
0.000751755
0.000857269
0.000901759
0.000924718
0.000934396
0.000934388
0.000926557
0.000912232
0.00089256
0.000868593
0.00084128
0.000811458
0.000779834
0.000746992
0.000713405
0.000679448
0.000645423
0.000611577
0.000578121
0.000545238
0.000513093
0.000481827
0.000451539
0.00042226
0.000393902
0.000366174
0.000338452
0.000309265
0.00027568
0.000229339
0.000147833
0.000490739
0.000785955
0.000894032
0.000940214
0.000963889
0.000973908
0.00097418
0.00096666
0.000952647
0.000933206
0.000909298
0.000881803
0.00085151
0.000819116
0.000785215
0.000750309
0.000714818
0.000679093
0.000643437
0.000608112
0.000573352
0.00053936
0.000506305
0.000474299
0.000443367
0.000413391
0.000384035
0.000354594
0.000323467
0.000287509
0.000237672
0.000148785
0.000527502
0.000816598
0.000926586
0.000974285
0.000998609
0.0010089
0.00100936
0.00100205
0.00098828
0.000969048
0.000945244
0.00091768
0.0008871
0.000854173
0.000819496
0.000783585
0.000746893
0.000709814
0.000672694
0.000635842
0.000599533
0.000564005
0.000529448
0.000495982
0.000463623
0.00043223
0.00040142
0.000370423
0.000337521
0.000299385
0.000246322
0.000150333
0.000561978
0.000844055
0.000955406
0.00100446
0.00102938
0.0010399
0.00104048
0.00103331
0.0010197
0.00100064
0.000976952
0.000949389
0.00091865
0.000885375
0.00085015
0.000813499
0.000775897
0.000737769
0.000699497
0.000661429
0.000623872
0.000587091
0.000551294
0.000516605
0.000483029
0.000450402
0.000418304
0.000385902
0.000351384
0.00031126
0.000255238
0.000152471
0.000594002
0.000868628
0.000980906
0.00103116
0.00105664
0.00106736
0.00106801
0.00106091
0.00104741
0.00102848
0.0010049
0.000977381
0.000946573
0.000913089
0.000877499
0.000840328
0.000802064
0.000763153
0.000724006
0.000684998
0.000646463
0.000608686
0.000571886
0.000536186
0.000501584
0.000467893
0.00043466
0.000400999
0.000365016
0.000323082
0.000264358
0.000155186
0.000623495
0.000890576
0.00100344
0.00105478
0.00108077
0.00109168
0.00109238
0.0010853
0.00107186
0.00105302
0.00102953
0.00100207
0.000971256
0.000937667
0.000901857
0.000864347
0.000825629
0.000786164
0.00074638
0.000706675
0.0006674
0.000628854
0.000591262
0.000554746
0.000519291
0.000484692
0.000450465
0.000415682
0.000378376
0.000334802
0.000273615
0.000158453
0.000650447
0.000910122
0.00102333
0.00107564
0.00110213
0.00111321
0.00111394
0.00110686
0.00109344
0.00107465
0.00105123
0.00102384
0.00099306
0.000959443
0.000923526
0.000885822
0.000846822
0.000806994
0.00076678
0.000726587
0.00068678
0.000647665
0.000609468
0.000572306
0.000536154
0.000500788
0.000465701
0.000429923
0.000391429
0.000346369
0.000282944
0.000162238
0.000674899
0.000927464
0.00104083
0.00109404
0.00112101
0.00113227
0.00113303
0.00112593
0.00111249
0.00109372
0.00107036
0.00104304
0.00101232
0.000978727
0.00094279
0.000905007
0.000865865
0.000825835
0.000785362
0.00074486
0.000704699
0.000665187
0.000626547
0.000588892
0.000552183
0.000516179
0.000480352
0.000443698
0.00040414
0.000357737
0.000292279
0.0001665
0.000696929
0.000942781
0.0010562
0.00111024
0.00113769
0.00114915
0.00114993
0.0011428
0.00112933
0.00111056
0.00108724
0.00105997
0.00102932
0.000995803
0.000959911
0.00092214
0.000882969
0.000842866
0.000802277
0.000761615
0.000721251
0.00068149
0.000642549
0.000604533
0.00056739
0.000530865
0.000494408
0.000456988
0.000416481
0.000368866
0.000301562
0.000171192
0.000716641
0.000956235
0.00106964
0.00112447
0.00115242
0.00116409
0.00116491
0.00115774
0.00114423
0.00112544
0.00110213
0.00107493
0.00104436
0.00101093
0.000975133
0.000937442
0.000898331
0.00085826
0.00081767
0.000776972
0.00073653
0.000696645
0.000657524
0.000619261
0.000581792
0.000544849
0.000507863
0.000469777
0.000428426
0.000379719
0.000310736
0.000176256
0.000734157
0.000967979
0.00108135
0.00113696
0.00116541
0.00117731
0.0011782
0.001171
0.00115744
0.00113861
0.00111531
0.00108815
0.00105767
0.00102435
0.000988678
0.000951119
0.000912134
0.000872177
0.000831679
0.000791044
0.000750629
0.000710722
0.000671522
0.000633111
0.000595412
0.000558142
0.000520716
0.000482054
0.000439955
0.000390263
0.000319754
0.000181636
0.000749606
0.000978153
0.00109151
0.00114789
0.00117686
0.00118903
0.00119
0.00118279
0.00116917
0.00115031
0.001127
0.00109988
0.00106947
0.00103627
0.00100075
0.000963357
0.000924549
0.000884767
0.000844433
0.000803941
0.000763634
0.000723791
0.000684597
0.000646121
0.000608273
0.000570756
0.00053297
0.000493814
0.000451054
0.000400474
0.000328575
0.000187273
0.000763127
0.00098689
0.00110028
0.00115743
0.00118696
0.00119943
0.00120051
0.0011933
0.00117964
0.00116073
0.00113741
0.00111031
0.00107998
0.0010469
0.00101153
0.000974329
0.000935733
0.000896171
0.000856055
0.000815766
0.000775633
0.000735921
0.000696802
0.00065833
0.000620401
0.000582707
0.000544632
0.000505055
0.000461712
0.000410331
0.000337167
0.000193109
0.000774858
0.000994317
0.00110781
0.00116576
0.00119588
0.00120869
0.00120991
0.00120272
0.00118903
0.00117007
0.00114671
0.00111963
0.00108936
0.00105639
0.00102119
0.000984193
0.000945829
0.000906518
0.000866659
0.000826617
0.000786707
0.00074718
0.00070819
0.000669778
0.000631828
0.000594015
0.000555712
0.000515779
0.000471921
0.000419818
0.000345503
0.000199089
0.000784934
0.00100056
0.00111424
0.00117302
0.00120378
0.00121698
0.00121837
0.00121122
0.00119749
0.00117848
0.00115509
0.00112801
0.00109779
0.00106493
0.00102988
0.000993091
0.00095497
0.000915929
0.000876351
0.000836586
0.000796936
0.000757632
0.000718815
0.000680509
0.000642584
0.000604703
0.000566225
0.000525992
0.00048168
0.000428926
0.00035356
0.000205158
0.000793491
0.00100572
0.00111971
0.00117937
0.00121082
0.00122444
0.00122605
0.00121896
0.00120521
0.00118614
0.0011627
0.0011356
0.00110542
0.00107265
0.00103775
0.00100116
0.000963279
0.000924514
0.00088523
0.000845762
0.000806395
0.000767342
0.000728729
0.000690563
0.000652702
0.000614794
0.000576185
0.000535701
0.00049099
0.000437648
0.000361325
0.000211268
0.000800659
0.00100994
0.00112436
0.00118496
0.00121715
0.00123126
0.00123311
0.0012261
0.00121233
0.0011932
0.00116969
0.00114256
0.00111238
0.00107968
0.00104492
0.00100851
0.000970868
0.000932376
0.000893389
0.000854227
0.000815155
0.000776372
0.000737984
0.000699984
0.000662216
0.000624315
0.000585613
0.00054492
0.000499856
0.000445982
0.000368785
0.000217374
0.000806564
0.00101331
0.00112833
0.00118995
0.00122294
0.00123757
0.0012397
0.00123278
0.00121899
0.00119978
0.0011762
0.001149
0.00111882
0.00108616
0.0010515
0.00101526
0.000977839
0.00093961
0.000900916
0.000862058
0.000823285
0.000784779
0.00074663
0.000708814
0.00067116
0.000633292
0.000594528
0.00055366
0.000508285
0.000453928
0.000375935
0.000223437
0.00081133
0.00101596
0.00113176
0.00119448
0.00122835
0.00124355
0.00124598
0.00123916
0.00122534
0.00120605
0.00118236
0.00115507
0.00112484
0.0010922
0.00105761
0.00102151
0.000984289
0.000946305
0.000907889
0.000869326
0.00083085
0.000792622
0.000754716
0.000717095
0.00067957
0.000641754
0.000602951
0.000561939
0.000516287
0.000461492
0.000382771
0.000229421
0.000815078
0.00101801
0.0011348
0.00119874
0.00123356
0.00124937
0.00125211
0.0012454
0.00123154
0.00121213
0.00118829
0.00116088
0.00113057
0.0010979
0.00106335
0.00102736
0.000990306
0.000952542
0.000914384
0.000876101
0.000837909
0.000799953
0.000762291
0.000724867
0.00068748
0.00064973
0.000610908
0.000569774
0.000523873
0.000468679
0.000389293
0.000235299
0.000817925
0.0010196
0.00113764
0.00120293
0.00123876
0.00125522
0.00125829
0.00125166
0.00123772
0.00121815
0.00119413
0.00116655
0.0011361
0.00110336
0.00106882
0.00103289
0.000995971
0.000958396
0.000920469
0.000882445
0.000844521
0.000806826
0.000769399
0.00073217
0.000694925
0.000657249
0.00061842
0.000577183
0.000531058
0.000475498
0.000395504
0.000241043
0.000819997
0.00102088
0.00114049
0.00120727
0.0012442
0.00126132
0.0012647
0.00125811
0.00124405
0.00122426
0.00119999
0.00117217
0.00114154
0.00110868
0.00107408
0.00103818
0.00100136
0.000963937
0.00092621
0.000888418
0.00085074
0.000813287
0.000776084
0.000739044
0.000701939
0.00066434
0.000625512
0.000584187
0.000537857
0.00048196
0.000401409
0.000246636
0.000821427
0.00102204
0.00114361
0.00121206
0.00125014
0.00126792
0.00127155
0.00126493
0.00125067
0.00123058
0.00120599
0.00117787
0.00114698
0.00111393
0.00107924
0.00104331
0.00100653
0.000969226
0.000931665
0.000894073
0.000856615
0.000819384
0.000782388
0.000745526
0.000708554
0.000671031
0.000632209
0.000590804
0.000544285
0.000488076
0.000407013
0.000252059
0.000822366
0.00102333
0.00114735
0.00121764
0.0012569
0.00127528
0.00127907
0.00127231
0.00125773
0.00123724
0.00121223
0.00118372
0.0011525
0.00111921
0.00108434
0.00104834
0.00101156
0.000974322
0.000936887
0.000899461
0.000862193
0.00082516
0.000788351
0.000751651
0.000714803
0.000677351
0.000638536
0.000597057
0.000550359
0.000493861
0.000412324
0.000257302
0.000822992
0.0010251
0.00115215
0.00122447
0.00126487
0.00128371
0.00128749
0.00128042
0.00126537
0.00124435
0.0012188
0.00118981
0.00115818
0.00112456
0.00108946
0.00105332
0.00101649
0.000979275
0.000941924
0.000904628
0.000867518
0.000830653
0.000794009
0.000757454
0.000720716
0.000683328
0.000644515
0.000602965
0.000556098
0.000499327
0.000417352
0.000262353
0.000823535
0.00102783
0.00115864
0.00123309
0.00127445
0.00129351
0.00129703
0.00128942
0.00127371
0.00125199
0.00122578
0.00119619
0.00116406
0.00113003
0.00109464
0.0010583
0.00102137
0.000984128
0.000946818
0.000909612
0.000872626
0.000835901
0.000799397
0.000762965
0.000726323
0.000688987
0.000650173
0.000608551
0.000561518
0.00050449
0.000422107
0.000267208
0.000824296
0.00103227
0.0011676
0.0012441
0.00128606
0.00130492
0.00130782
0.0012994
0.0012828
0.00126022
0.0012332
0.00120291
0.00117018
0.00113567
0.00109992
0.00106332
0.00102623
0.000988917
0.000951604
0.00091445
0.000877552
0.000840937
0.000804545
0.000768216
0.000731651
0.000694355
0.00065553
0.000613833
0.000566637
0.000509364
0.000426599
0.000271862
0.000825596
0.00103951
0.00117988
0.00125801
0.0012999
0.001318
0.00131986
0.00131032
0.00129261
0.00126899
0.00124106
0.00120995
0.00117654
0.00114149
0.00110531
0.0010684
0.0010311
0.000993669
0.000956312
0.000919171
0.000882327
0.000845788
0.000809483
0.000773233
0.000736726
0.000699456
0.00066061
0.000618832
0.000571474
0.000513964
0.000430839
0.000276313
0.000827113
0.00105044
0.00119565
0.00127454
0.00131556
0.00133236
0.00133283
0.00132194
0.00130297
0.00127821
0.00124926
0.00121727
0.00118313
0.00114747
0.00111081
0.00107354
0.00103599
0.000998402
0.000960962
0.000923798
0.000886973
0.000850482
0.000814235
0.00077804
0.000741572
0.000704311
0.000665433
0.000623568
0.000576046
0.000518305
0.000434839
0.000280563
0.000824426
0.00106489
0.00121234
0.0012913
0.00133131
0.00134682
0.00134594
0.00133373
0.00131353
0.00128763
0.00125765
0.00122477
0.00118986
0.00115357
0.0011164
0.00107874
0.00104091
0.00100312
0.000965567
0.000928347
0.000891512
0.000855038
0.000818823
0.00078266
0.00074621
0.000708943
0.000670019
0.000628058
0.000580368
0.000522402
0.000438611
0.000284613
0.000782803
0.00105206
0.00121569
0.00130105
0.00134325
0.00135921
0.00135786
0.00134487
0.00132374
0.00129689
0.001266
0.00123229
0.00119664
0.00115973
0.00112204
0.00108398
0.00104584
0.00100784
0.000970135
0.000932831
0.000895956
0.000859474
0.000823265
0.000787111
0.000750661
0.000713369
0.000674387
0.000632321
0.000584459
0.000526269
0.000442166
0.000288465
0.000294034
0.000421331
0.000516178
0.00059149
0.0006566
0.000715497
0.00077014
0.000821585
0.000870427
0.000916988
0.000961428
0.00100379
0.00104406
0.00108213
0.00111789
0.00115118
0.00118182
0.00120961
0.00123433
0.00125577
0.00127367
0.0012878
0.00129791
0.00130375
0.00130505
0.00130156
0.00129302
0.00127915
0.0012597
0.00123437
0.00120289
0.00116493
0.00112014
0.00106809
0.00100818
0.000939543
0.000860749
0.000769247
0.00066069
0.000534725
0.000299289
0.00042729
0.0005213
0.000596228
0.000661165
0.000720001
0.000774655
0.000826161
0.000875099
0.000921784
0.000966368
0.00100889
0.00104933
0.00108759
0.00112355
0.00115704
0.00118788
0.00121588
0.00124081
0.00126245
0.00128056
0.00129489
0.0013052
0.00131123
0.00131271
0.0013094
0.00130101
0.00128728
0.00126795
0.00124272
0.0012113
0.00117338
0.00112859
0.0010765
0.00101651
0.000947765
0.000868829
0.000777175
0.000668426
0.000541192
0.000305139
0.000434063
0.000527806
0.000602675
0.000667649
0.000726579
0.000781367
0.000833039
0.000882167
0.00092906
0.000973868
0.00101663
0.00105731
0.00109581
0.00113201
0.00116575
0.00119683
0.00122506
0.00125022
0.00127207
0.00129038
0.00130489
0.00131535
0.00132151
0.0013231
0.00131986
0.0013115
0.00129777
0.00127838
0.00125305
0.00122147
0.00118333
0.00113825
0.0010858
0.00102537
0.000956108
0.000876584
0.000784287
0.000674925
0.000547611
0.000310978
0.000440931
0.000534832
0.000609904
0.000675098
0.00073426
0.000789291
0.000841216
0.000890606
0.000937769
0.000982849
0.00102588
0.00106684
0.00110561
0.00114207
0.00117606
0.00120739
0.00123584
0.0012612
0.00128324
0.0013017
0.00131635
0.00132692
0.00133315
0.00133477
0.00133152
0.00132312
0.0013093
0.00128976
0.00126423
0.0012324
0.00119394
0.00114849
0.0010956
0.00103467
0.00096485
0.000884728
0.000791816
0.000681888
0.000554358
0.000316769
0.000447841
0.000542119
0.000617547
0.000683074
0.000742557
0.000797904
0.000850142
0.000899843
0.000947314
0.000992698
0.00103603
0.00107727
0.00111632
0.00115305
0.00118729
0.00121885
0.00124751
0.00127307
0.00129526
0.00131387
0.00132862
0.00133926
0.00134553
0.00134715
0.00134386
0.00133538
0.00132142
0.00130171
0.00127595
0.00124384
0.00120504
0.0011592
0.00110585
0.00104442
0.000974029
0.00089328
0.00079971
0.000689119
0.000561243
0.00032252
0.000454752
0.000549555
0.000625437
0.000691369
0.000751231
0.00080694
0.000859529
0.000909572
0.000957376
0.00100308
0.00104673
0.00108827
0.00112761
0.0011646
0.00119909
0.00123088
0.00125975
0.00128548
0.00130783
0.00132656
0.00134141
0.00135211
0.0013584
0.00136002
0.00135668
0.0013481
0.00133401
0.00131412
0.00128814
0.00125574
0.00121661
0.00117036
0.00111656
0.0010546
0.000983617
0.000902199
0.000807916
0.000696581
0.000568307
0.000328246
0.000461656
0.000557087
0.000633495
0.000699884
0.000760162
0.000816265
0.00086923
0.000919636
0.000967791
0.00101384
0.00105781
0.00109965
0.00113928
0.00117655
0.00121129
0.00124331
0.00127239
0.00129831
0.00132081
0.00133967
0.00135461
0.00136538
0.0013717
0.00137331
0.00136992
0.00136127
0.00134705
0.00132698
0.00130077
0.00126809
0.00122862
0.00118198
0.0011277
0.00106519
0.000993579
0.000911449
0.000816388
0.000704228
0.000575491
0.000333962
0.000468557
0.00056469
0.000641679
0.000708566
0.000769293
0.000825813
0.000879175
0.000929959
0.000978478
0.00102487
0.00106918
0.00111134
0.00115127
0.00118882
0.00122383
0.00125608
0.00128538
0.00131148
0.00133415
0.00135314
0.00136819
0.00137903
0.0013854
0.00138701
0.00138359
0.00137486
0.00136052
0.00134029
0.00131385
0.0012809
0.00124108
0.00119402
0.00113925
0.00107616
0.00100388
0.000920999
0.000825095
0.000712058
0.000582787
0.000339683
0.000475458
0.000572357
0.00064997
0.000717389
0.000778592
0.000835552
0.000889327
0.000940506
0.000989401
0.00103616
0.00108081
0.0011233
0.00116354
0.00120139
0.00123666
0.00126917
0.00129869
0.001325
0.00134785
0.00136699
0.00138215
0.00139308
0.0013995
0.00140113
0.00139769
0.00138889
0.00137444
0.00135404
0.00132739
0.00129415
0.00125398
0.00120648
0.00115119
0.00108749
0.00101451
0.000930818
0.000834013
0.000720045
0.000590169
0.000345429
0.000482366
0.000580084
0.000658357
0.000726341
0.000788046
0.000845465
0.000899672
0.000951261
0.00100055
0.00104768
0.00109268
0.00113552
0.00117609
0.00121423
0.00124979
0.00128256
0.00131233
0.00133885
0.00136189
0.0013812
0.0013965
0.00140753
0.00141401
0.00141567
0.00141222
0.00140336
0.00138881
0.00136825
0.00134137
0.00130783
0.00126729
0.00121934
0.00116351
0.00109917
0.00102543
0.000940885
0.000843126
0.000728172
0.000597628
0.000351226
0.000489286
0.000587871
0.000666838
0.000735415
0.000797646
0.000855546
0.000910203
0.000962217
0.00101191
0.00105943
0.00110481
0.001148
0.0011889
0.00122737
0.00126323
0.00129628
0.0013263
0.00135306
0.00137631
0.00139579
0.00141124
0.00142238
0.00142895
0.00143064
0.00142719
0.00141828
0.00140362
0.00138289
0.00135578
0.00132194
0.00128102
0.0012326
0.00117619
0.00111116
0.00103663
0.000951183
0.000852417
0.000736422
0.000605145
0.00035706
0.000496237
0.000595723
0.000675414
0.000744609
0.000807389
0.000865791
0.000920917
0.000973375
0.00102349
0.00107141
0.00111718
0.00116074
0.001202
0.0012408
0.00127698
0.00131032
0.00134062
0.00136762
0.00139109
0.00141077
0.00142638
0.00143765
0.0014443
0.00144605
0.00144259
0.00143363
0.00141887
0.00139797
0.00137063
0.00133648
0.00129515
0.00124623
0.00118921
0.00112347
0.0010481
0.000961697
0.000861872
0.000744779
0.000612708
0.000362934
0.000503237
0.000603644
0.000684086
0.000753922
0.000817273
0.000876199
0.000931813
0.000984733
0.00103529
0.00108363
0.0011298
0.00117375
0.00121538
0.00125454
0.00129104
0.0013247
0.00135528
0.00138255
0.00140626
0.00142614
0.00144192
0.00145333
0.00146008
0.00146188
0.00145843
0.00144943
0.00143456
0.00141349
0.0013859
0.00135142
0.00130967
0.00126022
0.00120257
0.00113608
0.00105983
0.000972417
0.000871478
0.00075323
0.000620303
0.000368859
0.000510294
0.000611642
0.000692856
0.000763355
0.000827298
0.000886768
0.000942891
0.000996292
0.00104731
0.00109609
0.00114268
0.00118704
0.00122905
0.00126857
0.00130543
0.00133941
0.0013703
0.00139785
0.0014218
0.0014419
0.00145787
0.00146943
0.00147629
0.00147815
0.00147471
0.00146566
0.00145068
0.00142944
0.00140159
0.00136676
0.00132457
0.00127458
0.00121626
0.00114897
0.0010718
0.000983333
0.000881225
0.000761762
0.000627916
0.00037484
0.000517414
0.000619719
0.000701726
0.000772909
0.000837466
0.000897501
0.000954152
0.00100805
0.00105955
0.00110879
0.00115582
0.0012006
0.00124301
0.00128292
0.00132014
0.00135447
0.00138568
0.00141352
0.00143774
0.00145807
0.00147424
0.00148595
0.00149292
0.00149485
0.00149143
0.00148233
0.00146724
0.00144581
0.00141769
0.00138251
0.00133986
0.00128929
0.00123028
0.00116216
0.00108401
0.000994437
0.000891102
0.000770363
0.000635532
0.000380883
0.000524603
0.000627882
0.000710699
0.000782586
0.000847777
0.000908397
0.000965597
0.00102002
0.00107201
0.00112173
0.00116922
0.00121443
0.00125727
0.00129758
0.00133519
0.00136987
0.00140141
0.00142956
0.00145406
0.00147464
0.00149101
0.00150289
0.00150999
0.00151198
0.00150857
0.00149943
0.00148422
0.0014626
0.00143421
0.00139865
0.00135552
0.00130435
0.00124461
0.00117562
0.00109646
0.00100572
0.000901101
0.000779021
0.000643136
0.000386995
0.000531865
0.000636133
0.00071978
0.00079239
0.000858234
0.000919459
0.000977227
0.00103219
0.0010847
0.00113491
0.00118288
0.00122855
0.00127183
0.00131256
0.00135056
0.00138562
0.00141751
0.00144598
0.00147077
0.0014916
0.0015082
0.00152025
0.00152748
0.00152955
0.00152616
0.00151696
0.00150164
0.00147981
0.00145113
0.00141518
0.00137155
0.00131976
0.00125926
0.00118936
0.00110913
0.00101718
0.000911215
0.000787725
0.000650715
0.000393179
0.000539206
0.000644478
0.000728971
0.000802323
0.00086884
0.000930688
0.000989044
0.00104456
0.00109761
0.00114834
0.0011968
0.00124295
0.00128668
0.00132785
0.00136627
0.00140172
0.00143398
0.00146278
0.00148788
0.00150898
0.0015258
0.00153804
0.00154539
0.00154754
0.00154417
0.00153493
0.00151948
0.00149745
0.00146846
0.00143211
0.00138796
0.00133552
0.00127422
0.00120337
0.00112204
0.00102882
0.000921435
0.000796464
0.000658252
0.000399441
0.00054663
0.000652921
0.000738276
0.000812387
0.000879595
0.000942086
0.00100105
0.00105715
0.00111074
0.00116201
0.00121098
0.00125763
0.00130184
0.00134346
0.00138231
0.00141817
0.00145081
0.00147996
0.00150537
0.00152675
0.00154381
0.00155624
0.00156373
0.00156597
0.00156261
0.00155332
0.00153774
0.0015155
0.0014862
0.00144943
0.00140474
0.00135162
0.0012895
0.00121767
0.00113517
0.00104062
0.000931756
0.000805227
0.000665733
0.000405784
0.000554141
0.000661466
0.000747699
0.000822588
0.000890504
0.000953656
0.00101324
0.00106994
0.00112411
0.00117593
0.00122543
0.00127259
0.0013173
0.00135939
0.00139869
0.00143497
0.001468
0.00149752
0.00152326
0.00154493
0.00156223
0.00157486
0.0015825
0.00158482
0.00158149
0.00157214
0.00155643
0.00153396
0.00150434
0.00146714
0.00142189
0.00136807
0.0013051
0.00123224
0.00114854
0.00105259
0.000942174
0.000814005
0.000673141
0.000412213
0.000561744
0.000670116
0.000757245
0.000832927
0.00090157
0.0009654
0.00102563
0.00108294
0.00113771
0.00119009
0.00124015
0.00128784
0.00133306
0.00137564
0.0014154
0.00145213
0.00148557
0.00151546
0.00154154
0.00156351
0.00158107
0.00159391
0.0016017
0.00160411
0.0016008
0.0015914
0.00157555
0.00155285
0.0015229
0.00148525
0.00143942
0.00138488
0.00132102
0.00124709
0.00116213
0.00106473
0.000952683
0.000822787
0.000680459
0.000418732
0.000569443
0.000678877
0.000766916
0.000843408
0.000912794
0.000977322
0.00103822
0.00109616
0.00115153
0.00120451
0.00125514
0.00130338
0.00134912
0.00139221
0.00143246
0.00146963
0.0015035
0.00153379
0.00156022
0.0015825
0.00160033
0.00161338
0.00162132
0.00162383
0.00162054
0.00161109
0.00159509
0.00157216
0.00154186
0.00150375
0.00145732
0.00140204
0.00133726
0.00126223
0.00117596
0.00107704
0.00096328
0.000831562
0.000687667
0.000425345
0.000577242
0.000687751
0.000776716
0.000854035
0.000924182
0.000989424
0.001051
0.00110959
0.0011656
0.00121918
0.0012704
0.0013192
0.00136549
0.00140911
0.00144985
0.0014875
0.0015218
0.00155249
0.00157929
0.0016019
0.00162
0.00163327
0.00164138
0.00164398
0.00164071
0.00163121
0.00161507
0.00159189
0.00156124
0.00152265
0.00147561
0.00141956
0.00135383
0.00127765
0.00119002
0.00108952
0.000973959
0.000840315
0.000694744
0.000432055
0.000585145
0.000696743
0.000786649
0.000864811
0.000935735
0.00100171
0.00106398
0.00112325
0.00117989
0.0012341
0.00128593
0.00133532
0.00138217
0.00142633
0.00146758
0.00150572
0.00154048
0.00157159
0.00159877
0.0016217
0.00164009
0.00165359
0.00166187
0.00166457
0.00166133
0.00165177
0.00163548
0.00161206
0.00158104
0.00154196
0.00149429
0.00143744
0.00137074
0.00129338
0.00120433
0.00110216
0.000984713
0.000849032
0.000701662
0.000438866
0.000593155
0.000705856
0.000796719
0.000875739
0.000947458
0.00101418
0.00107716
0.00113712
0.00119443
0.00124929
0.00130173
0.00135173
0.00139916
0.00144387
0.00148566
0.0015243
0.00155953
0.00159107
0.00161864
0.00164192
0.0016606
0.00167434
0.00168279
0.0016856
0.00168239
0.00167277
0.00165633
0.00163265
0.00160127
0.00156168
0.00151336
0.0014557
0.00138799
0.0013094
0.00121888
0.00111498
0.000995538
0.000857694
0.000708393
0.000445781
0.000601276
0.000715094
0.000806929
0.000886825
0.000959354
0.00102684
0.00109056
0.00115122
0.00120921
0.00126473
0.00131782
0.00136843
0.00141647
0.00146175
0.00150409
0.00154324
0.00157895
0.00161094
0.00163891
0.00166255
0.00168153
0.00169552
0.00170415
0.00170707
0.00170388
0.00169421
0.00167762
0.00165368
0.00162191
0.00158182
0.00153284
0.00147433
0.00140559
0.00132573
0.00123368
0.00112797
0.00100643
0.000866284
0.000714906
0.000452805
0.000609512
0.000724461
0.000817284
0.00089807
0.000971426
0.00103969
0.00110416
0.00116554
0.00122424
0.00128044
0.00133418
0.00138544
0.00143409
0.00147996
0.00152286
0.00156255
0.00159876
0.00163121
0.00165959
0.0016836
0.0017029
0.00171713
0.00172595
0.00172898
0.00172583
0.0017161
0.00169935
0.00167515
0.001643
0.00160238
0.00155271
0.00149335
0.00142355
0.00134239
0.00124875
0.00114114
0.00101738
0.000874788
0.000721169
0.000459939
0.000617867
0.00073396
0.000827786
0.000909479
0.000983678
0.00105275
0.00111798
0.0011801
0.00123952
0.00129641
0.00135083
0.00140275
0.00145203
0.00149851
0.00154199
0.00158223
0.00161895
0.00165187
0.00168069
0.00170507
0.00172469
0.00173919
0.0017482
0.00175135
0.00174823
0.00173844
0.00172154
0.00169706
0.00166451
0.00162336
0.00157301
0.00151277
0.00144187
0.00135937
0.00126409
0.00115449
0.00102841
0.000883192
0.000727148
0.000467189
0.000626343
0.000743595
0.000838439
0.000921055
0.000996113
0.001066
0.00113201
0.0011949
0.00125504
0.00131265
0.00136777
0.00142036