/*--------------------------------*- C++ -*----------------------------------*\
  =========                 |
  \\      /  F ield         | OpenFOAM: The Open Source CFD Toolbox
   \\    /   O peration     | Website:  https://openfoam.org
    \\  /    A nd           | Version:  10
     \\/     M anipulation  |
\*---------------------------------------------------------------------------*/
FoamFile
{
    format      ascii;
    class       volScalarField;
    location    "12000/gas";
    object      N2;
}
// * * * * * * * * * * * * * * * * * * * * * * * * * * * * * * * * * * * * * //

dimensions      [0 0 0 0 0 0 0];

internalField   nonuniform List<scalar> 
16000
(
1.11022e-16
2.22045e-16
0
1.11022e-16
1.55431e-15
4.44089e-16
0
0
3.21965e-15
0
0
0
3.66374e-15
8.88178e-16
0
0
2.88658e-15
9.99201e-16
0
0
3.44169e-15
1.22125e-15
0
0
3.88578e-15
6.66134e-16
0
0
2.44249e-15
7.77156e-16
0
0
2.66454e-15
5.55112e-16
0
0
2.9976e-15
1.11022e-16
0
0
2.66454e-15
3.33067e-16
0
0
2.33147e-15
0
0
0
1.77636e-15
3.33067e-16
0
0
1.33227e-15
0
0
0
0
0
0
0
0
0
0
0
0
0
0
0
0
0
0
0
0
0
0
0
0
0
0
0
0
0
0
0
0
0
0
0
0
0
0
0
0
0
0
0
0
0
0
0
0
0
0
0
0
0
0
0
0
0
0
0
0
0
0
0
0
0
0
0
0
0
0
0
0
0
0
0
3.13083e-14
2.4758e-14
8.43769e-15
0
4.58189e-13
4.25548e-13
2.639e-13
1.16573e-14
5.99354e-12
6.51657e-12
5.42622e-12
3.33622e-13
7.6449e-11
9.94594e-11
1.11942e-10
1.12489e-11
9.46499e-10
1.5086e-09
2.36647e-09
5.20887e-10
1.11941e-08
2.24351e-08
5.09999e-08
3.01655e-08
1.23041e-07
3.19023e-07
1.10635e-06
1.95166e-06
1.19576e-06
4.12631e-06
2.33879e-05
0.000133056
0.79
0.79
0.79
0.79
0.79
0.79
0.79
0.79
0.79
0.79
0.79
0.79
0.79
0.79
0.79
0.79
0.79
0.79
0.79
0.79
0.79
0.79
0.79
0.79
0.79
0.79
0.79
0.79
0.79
0.79
0.79
0.79
0.79
0.79
0.79
0.79
0.79
0.79
0.79
0.79
0.79
0.79
0.79
0.79
0.79
0.79
0.79
0.79
0.79
0.79
0.79
0.79
0.79
0.79
0.79
0.79
0.79
0.79
0.79
0.79
0.79
0.79
0.79
0.79
0.79
0.79
0.79
0.79
0.79
0.79
0.79
0.79
0.79
0.79
0.79
0.79
0.79
0.79
0.79
0.79
0.79
0.79
0.79
0.79
0.79
0.79
0.79
0.79
0.79
0.79
0.79
0.79
0.79
0.79
0.79
0.79
0.79
0.79
0.79
0.79
0.79
0.79
0.79
0.79
0.79
0.79
0.79
0.79
0.79
0.79
0.79
0.79
0.79
0.79
0.79
0.79
0.79
0.79
0.79
0.79
0.79
0.79
0.79
0.79
0.79
0.79
0.79
0.79
0.79
0.79
0.79
0.79
0.79
0.79
0.79
0.79
0.79
0.79
0.79
0.79
0.79
0.79
0.79
0.79
0.79
0.79
0.79
0.79
0.79
0.79
0.79
0.79
0.79
0.79
0.79
0.79
0.79
0.79
0.79
0.79
0.79
0.79
0.79
0.79
0.79
0.79
0.79
0.79
0.79
0.79
0.79
0.79
0.79
0.79
0.79
0.79
0.79
0.79
0.79
0.79
0.79
0.79
0.79
0.79
0.79
0.79
0.79
0.79
0.79
0.79
0.79
0.79
0.79
0.79
0.79
0.79
0.79
0.79
0.79
0.79
0.79
0.79
0.79
0.79
0.79
0.79
0.79
0.79
0.79
0.79
0.79
0.79
0.79
0.79
0.79
0.79
0.79
0.79
0.79
0.79
0.79
0.79
0.79
0.79
0.79
0.79
0.79
0.79
0.79
0.79
0.79
0.79
0.79
0.79
0.79
0.79
0.79
0.79
0.79
0.79
0.79
0.79
0.79
0.79
0.79
0.79
0.79
0.79
0.79
0.79
0.79
0.79
0.79
0.79
0.79
0.79
0.79
0.79
0.79
0.79
0.79
0.79
0.79
0.79
0.79
0.79
0.79
0.79
0.79
0.79
0.79
0.79
0.79
0.79
0.79
0.79
0.79
0.79
0.79
0.79
0.79
0.79
0.79
0.79
0.79
0.79
0.79
0.79
0.79
0.79
0.79
0.79
0.79
0.79
0.79
0.79
0.79
0.79
0.79
0.79
0.79
0.79
0.79
0.79
0.79
0.79
0.79
0.79
0.79
0.79
0.79
0.79
0.79
0.79
0.79
0.79
0.79
0.79
0.79
0.79
0.79
0.79
0.79
0.79
0.79
0.79
0.79
0.79
0.79
0.79
0.79
0.79
0.79
0.79
0.79
0.79
0.79
0.79
0.79
0.79
0.79
0.79
0.79
0.79
0.79
0.79
0.79
0.79
0.79
0.79
0.79
0.79
0.79
0.79
0.79
0.79
0.79
0.79
0.79
0.79
0.79
0.79
0.79
0.79
0.79
0.79
0.79
0.79
0.79
0.79
0.79
0.79
0.79
0.79
0.79
0.79
0.79
0.79
0.79
0.79
0.79
0.79
0.79
0.79
0.79
0.79
0.79
0.79
0.79
0.79
0.79
0.79
0.79
0.79
0.79
0.79
0.79
0.79
0.79
0.79
0.79
0.79
0.79
0.79
0.79
0.79
0.79
0.79
0.79
0.79
0.79
0.79
0.79
0.79
0.79
0.79
0.79
0.79
0.79
0.79
0.79
0.79
0.79
0.79
0.79
0.79
0.79
0.79
0.79
0.79
0.79
0.79
0.79
0.79
0.79
0.79
0.79
0.79
0.79
0.79
0.79
0.79
0.79
0.79
0.79
0.79
0.79
0.79
0.79
0.79
0.79
0.79
0.79
0.79
0.79
0.79
0.79
0.79
0.79
0.79
0.79
0.79
0.79
0.79
0.79
0.79
0.79
0.79
0.79
0.79
0.79
0.79
0.79
0.79
0.79
0.79
0.79
0.79
0.79
0.79
0.79
0.79
0.79
0.79
0.79
0.79
0.79
0.79
0.79
0.79
0.79
0.79
0.79
0.79
0.79
0.79
0.79
0.79
0.79
0.79
0.79
0.79
0.79
0.79
0.79
0.79
0.79
0.79
0.79
0.79
0.79
0.79
0.79
0.79
0.79
0.79
0.79
0.79
0.79
0.79
0.79
0.79
0.79
0.79
0.79
0.79
0.79
0.79
0.79
0.79
0.79
0.79
0.79
0.79
0.79
0.79
0.79
0.79
0.79
0.79
0.79
0.79
0.79
0.79
0.79
0.79
0.79
0.79
0.79
0.79
0.79
0.79
0.79
0.79
0.79
0.79
0.79
0.79
0.79
0.79
0.79
0.79
0.79
0.79
0.79
0.79
0.79
0.79
0.79
0.79
0.79
0.79
0.79
0.79
0.79
0.79
0.79
0.79
0.79
0.79
0.79
0.79
0.79
0.79
0.79
0.79
0.79
0.79
0.79
0.79
0.79
0.79
0.79
0.79
0.79
0.79
0.79
0.79
0.79
0.79
0.79
0.79
0.79
0.79
0.79
0.79
0.79
0.79
0.79
0.79
0.79
0.79
0.79
0.79
0.79
0.79
0.79
0.79
0.79
0.79
0.79
0.79
0.79
0.79
0.79
0.79
0.79
0.79
0.79
0.79
0.79
0.79
0.79
0.79
0.79
0.79
0.79
0.79
0.79
0.79
0.79
0.79
0.79
0.79
0.79
0.79
0.79
0.79
0.79
0.79
0.79
0.79
0.79
0.79
0.79
0.79
0.79
0.79
0.79
0.79
0.79
0.79
0.79
0.79
0.79
0.79
0.79
0.79
0.79
0.79
0.79
0.79
0.79
0.79
0.79
0.79
0.79
0.79
0.79
0.79
0.79
0.79
0.79
0.79
0.79
0.79
0.79
0.79
0.79
0.79
0.79
0.79
0.79
0.79
0.79
0.79
0.79
0.79
0.79
0.79
0.79
0.79
0.79
0.79
0.79
0.79
0.79
0.79
0.79
0.79
0.79
0.79
0.79
0.79
0.79
0.79
0.79
0.79
0.79
0.79
0.79
0.79
0.79
0.79
0.79
0.79
0.79
0.79
0.79
0.79
0.79
0.79
0.79
0.79
0.79
0.79
0.79
0.79
0.79
0.79
0.79
0.79
0.79
0.79
0.79
0.79
0.79
0.79
0.79
0.79
0.79
0.79
0.79
0.79
0.79
0.79
0.79
0.79
0.79
0.79
0.79
0.79
0.79
0.79
0.79
0.79
0.79
0.79
0.79
0.79
0.79
0.79
0.79
0.79
0.79
0.79
0.79
0.79
0.79
0.79
0.79
0.79
0.79
0.79
0.79
0.79
0.79
0.79
0.79
0.79
0.79
0.79
0.79
0.79
0.79
0.79
0.79
0.79
0.79
0.79
0.79
0.79
0.79
0.79
0.79
0.79
0.79
0.79
0.79
0.79
0.79
0.79
0.79
0.79
0.79
0.79
0.79
0.79
0.79
0.79
0.79
0.79
0.79
0.79
0.79
0.79
0.79
0.79
0.79
0.79
0.79
0.79
0.79
0.79
0.79
0.79
0.79
0.79
0.79
0.79
0.79
0.79
0.79
0.79
0.79
0.79
0.79
0.79
0.79
0.79
0.79
0.79
0.79
0.79
0.79
0.79
0.79
0.79
0.79
0.79
0.79
0.79
0.79
0.79
0.79
0.79
0.79
0.79
0.79
0.79
0.79
0.79
0.79
0.79
0.79
0.79
0.79
0.79
0.79
0.79
0.79
0.79
0.79
0.79
0.79
0.79
0.79
0.79
0.79
0.79
0.79
0.79
0.79
0.79
0.79
0.79
0.79
0.79
0.79
0.79
0.79
0.79
0.79
0.79
0.79
0.79
0.79
0.79
0.79
0.79
0.79
0.79
0.79
0.79
0.79
0.79
0.79
0.79
0.79
0.79
0.79
0.79
0.79
0.79
0.79
0.79
0.79
0.79
0.79
0.79
0.79
0.79
0.79
0.79
0.79
0.79
0.79
0.79
0.79
0.79
0.79
0.79
0.79
0.79
0.79
0.79
0.79
0.79
0.79
0.79
0.79
0.79
0.79
0.79
0.79
0.79
0.79
0.79
0.79
0.79
0.79
0.79
0.79
0.79
0.79
0.79
0.79
0.79
0.79
0.79
0.79
0.79
0.79
0.79
0.79
0.79
0.79
0.79
0.79
0.79
0.79
0.79
0.79
0.79
0.79
0.79
0.79
0.79
0.79
0.79
0.79
0.79
0.79
0.79
0.79
0.79
0.79
0.79
0.79
0.79
0.79
0.79
0.79
0.79
0.79
0.79
0.79
0.79
0.79
0.79
0.79
0.79
0.79
0.79
0.79
0.79
0.79
0.79
0.79
0.79
0.79
0.79
0.79
0.79
0.79
0.79
0.79
0.79
0.79
0.79
0.79
0.79
0.79
0.79
0.79
0.79
0.79
0.79
0.79
0.79
0.79
0.79
0.79
0.79
0.79
0.79
0.79
0.79
0.79
0.79
0.79
0.79
0.79
0.79
0.79
0.79
0.79
0.79
0.79
0.79
0.79
0.79
0.79
0.79
0.79
0.79
0.79
0.79
0.79
0.79
0.79
0.79
0.79
0.79
0.79
0.79
0.79
0.79
0.79
0.79
0.79
0.79
0.79
0.79
0.79
0.79
0.79
0.79
0.79
0.79
0.79
0.79
0.79
0.79
0.79
0.79
0.79
0.79
0.79
0.79
0.79
0.79
0.79
0.79
0.79
0.79
0.79
0.79
0.79
0.79
0.79
0.79
0.79
0.79
0.79
0.79
0.79
0.79
0.79
0.79
0.79
0.79
0.79
0.789999
0.789999
0.789999
0.789999
0.789999
0.789999
0.789999
0.789999
0.79
0.79
0.79
0.79
0.79
0.79
0.79
0.79
0.79
0.79
0.79
0.79
0.79
0.79
0.79
0.79
0.79
0.79
0.79
0.79
0.79
0.789999
0.789999
0.789998
0.789998
0.789998
0.789998
0.789998
0.789999
0.789999
0.789999
0.789999
0.789999
0.789999
0.789999
0.789999
0.79
0.79
0.79
0.79
0.79
0.79
0.79
0.79
0.79
0.79
0.79
0.79
0.79
0.79
0.79
0.79
0.79
0.789997
0.789995
0.789995
0.789995
0.789996
0.789996
0.789997
0.789997
0.789998
0.789998
0.789998
0.789999
0.789999
0.789999
0.789999
0.789999
0.789999
0.79
0.79
0.79
0.79
0.79
0.79
0.79
0.79
0.79
0.79
0.79
0.79
0.79
0.79
0.79
0.789971
0.789975
0.789981
0.789986
0.789989
0.789991
0.789993
0.789995
0.789996
0.789996
0.789997
0.789998
0.789998
0.789998
0.789999
0.789999
0.789999
0.789999
0.789999
0.79
0.79
0.79
0.79
0.79
0.79
0.79
0.79
0.79
0.79
0.79
0.79
0.79
0.789718
0.789871
0.789933
0.789959
0.789973
0.789981
0.789986
0.78999
0.789992
0.789994
0.789995
0.789996
0.789997
0.789998
0.789998
0.789998
0.789999
0.789999
0.789999
0.789999
0.79
0.79
0.79
0.79
0.79
0.79
0.79
0.79
0.79
0.79
0.79
0.79
0.787877
0.787823
0.787774
0.78773
0.787688
0.787647
0.787606
0.787566
0.787526
0.787486
0.787446
0.787405
0.787364
0.787324
0.787283
0.787242
0.7872
0.787159
0.787118
0.787078
0.787037
0.786997
0.786957
0.786918
0.786879
0.78684
0.786802
0.786765
0.786729
0.786694
0.78666
0.786626
0.786594
0.786563
0.786533
0.786505
0.786478
0.786452
0.786428
0.786407
0.787858
0.78781
0.787764
0.787722
0.787681
0.787641
0.787601
0.787561
0.787521
0.787481
0.787441
0.7874
0.78736
0.787319
0.787278
0.787237
0.787196
0.787155
0.787114
0.787073
0.787032
0.786992
0.786952
0.786912
0.786873
0.786835
0.786797
0.78676
0.786724
0.786688
0.786653
0.78662
0.786587
0.786556
0.786526
0.786496
0.786468
0.786442
0.786416
0.786393
0.78784
0.787794
0.78775
0.787709
0.78767
0.78763
0.787591
0.787552
0.787512
0.787472
0.787432
0.787392
0.787352
0.787311
0.78727
0.787229
0.787188
0.787147
0.787106
0.787065
0.787024
0.786984
0.786944
0.786904
0.786865
0.786827
0.786789
0.786751
0.786715
0.786679
0.786644
0.786611
0.786578
0.786546
0.786516
0.786487
0.786459
0.786432
0.786407
0.786386
0.78782
0.787776
0.787734
0.787695
0.787656
0.787617
0.787579
0.78754
0.787501
0.787461
0.787422
0.787381
0.787341
0.7873
0.78726
0.787219
0.787178
0.787137
0.787096
0.787055
0.787014
0.786974
0.786934
0.786894
0.786855
0.786816
0.786778
0.786741
0.786705
0.786669
0.786634
0.7866
0.786568
0.786536
0.786506
0.786477
0.786449
0.786422
0.786398
0.786376
0.787801
0.787757
0.787717
0.787678
0.78764
0.787602
0.787564
0.787526
0.787487
0.787448
0.787409
0.787369
0.787329
0.787288
0.787248
0.787207
0.787166
0.787125
0.787084
0.787043
0.787003
0.786962
0.786922
0.786883
0.786844
0.786805
0.786767
0.78673
0.786694
0.786658
0.786623
0.78659
0.786557
0.786526
0.786495
0.786466
0.786439
0.786413
0.786388
0.786368
0.787781
0.787739
0.787699
0.787661
0.787624
0.787587
0.787549
0.787511
0.787473
0.787434
0.787395
0.787355
0.787315
0.787275
0.787234
0.787194
0.787153
0.787112
0.787071
0.787031
0.78699
0.78695
0.78691
0.786871
0.786832
0.786793
0.786756
0.786719
0.786682
0.786647
0.786612
0.786579
0.786546
0.786515
0.786485
0.786457
0.786429
0.786403
0.786379
0.786358
0.787762
0.78772
0.787681
0.787644
0.787607
0.78757
0.787533
0.787496
0.787458
0.787419
0.78738
0.787341
0.787301
0.787261
0.787221
0.78718
0.787139
0.787099
0.787058
0.787018
0.786977
0.786937
0.786898
0.786858
0.786819
0.786781
0.786744
0.786707
0.786671
0.786636
0.786601
0.786568
0.786536
0.786505
0.786475
0.786447
0.78642
0.786394
0.78637
0.78635
0.787743
0.787701
0.787663
0.787626
0.78759
0.787553
0.787517
0.787479
0.787442
0.787404
0.787365
0.787326
0.787286
0.787246
0.787206
0.787166
0.787125
0.787085
0.787045
0.787004
0.786964
0.786924
0.786885
0.786846
0.786807
0.786769
0.786732
0.786695
0.786659
0.786624
0.78659
0.786557
0.786525
0.786495
0.786465
0.786437
0.78641
0.786385
0.786361
0.786341
0.787724
0.787683
0.787645
0.787608
0.787572
0.787536
0.7875
0.787463
0.787426
0.787388
0.787349
0.787311
0.787271
0.787232
0.787192
0.787152
0.787111
0.787071
0.787031
0.786991
0.786951
0.786911
0.786872
0.786833
0.786795
0.786757
0.78672
0.786684
0.786648
0.786613
0.78658
0.786547
0.786515
0.786485
0.786455
0.786427
0.786401
0.786375
0.786352
0.786332
0.787705
0.787665
0.787627
0.787591
0.787555
0.787519
0.787483
0.787447
0.78741
0.787372
0.787334
0.787295
0.787256
0.787217
0.787177
0.787137
0.787097
0.787057
0.787017
0.786977
0.786938
0.786898
0.786859
0.786821
0.786782
0.786745
0.786708
0.786672
0.786637
0.786602
0.786569
0.786536
0.786505
0.786475
0.786446
0.786418
0.786391
0.786366
0.786343
0.786323
0.787687
0.787647
0.787609
0.787573
0.787538
0.787502
0.787467
0.78743
0.787393
0.787356
0.787318
0.78728
0.787241
0.787202
0.787162
0.787123
0.787083
0.787043
0.787003
0.786964
0.786924
0.786885
0.786846
0.786808
0.78677
0.786733
0.786696
0.786661
0.786626
0.786591
0.786558
0.786526
0.786495
0.786465
0.786436
0.786408
0.786382
0.786357
0.786334
0.786315
0.787669
0.787629
0.787591
0.787556
0.787521
0.787486
0.78745
0.787414
0.787377
0.78734
0.787303
0.787264
0.787226
0.787187
0.787148
0.787108
0.787069
0.787029
0.78699
0.78695
0.786911
0.786872
0.786834
0.786796
0.786758
0.786721
0.786685
0.786649
0.786615
0.786581
0.786548
0.786516
0.786485
0.786455
0.786426
0.786399
0.786373
0.786348
0.786325
0.786306
0.787651
0.787611
0.787574
0.787539
0.787504
0.787469
0.787434
0.787398
0.787362
0.787325
0.787287
0.787249
0.787211
0.787172
0.787133
0.787094
0.787055
0.787015
0.786976
0.786937
0.786898
0.78686
0.786821
0.786784
0.786746
0.78671
0.786674
0.786638
0.786604
0.78657
0.786537
0.786506
0.786475
0.786445
0.786417
0.78639
0.786364
0.786339
0.786317
0.786297
0.787633
0.787594
0.787557
0.787522
0.787487
0.787453
0.787417
0.787382
0.787346
0.787309
0.787272
0.787234
0.787196
0.787158
0.787119
0.78708
0.787041
0.787002
0.786963
0.786924
0.786885
0.786847
0.786809
0.786772
0.786735
0.786698
0.786662
0.786627
0.786593
0.78656
0.786527
0.786496
0.786465
0.786436
0.786408
0.786381
0.786355
0.786331
0.786308
0.786289
0.787616
0.787577
0.78754
0.787505
0.787471
0.787436
0.787401
0.787366
0.78733
0.787294
0.787257
0.787219
0.787181
0.787143
0.787105
0.787066
0.787027
0.786988
0.78695
0.786911
0.786873
0.786835
0.786797
0.78676
0.786723
0.786687
0.786651
0.786617
0.786583
0.786549
0.786517
0.786486
0.786456
0.786427
0.786398
0.786372
0.786346
0.786322
0.786299
0.786281
0.787598
0.78756
0.787523
0.787489
0.787455
0.78742
0.787386
0.78735
0.787315
0.787279
0.787242
0.787204
0.787167
0.787129
0.787091
0.787052
0.787014
0.786975
0.786937
0.786898
0.78686
0.786823
0.786785
0.786748
0.786712
0.786676
0.786641
0.786606
0.786572
0.786539
0.786507
0.786476
0.786446
0.786417
0.786389
0.786363
0.786337
0.786313
0.786291
0.786272
0.787581
0.787543
0.787507
0.787472
0.787439
0.787404
0.78737
0.787335
0.7873
0.787264
0.787227
0.78719
0.787153
0.787115
0.787077
0.787039
0.787
0.786962
0.786924
0.786886
0.786848
0.78681
0.786773
0.786737
0.7867
0.786665
0.78663
0.786596
0.786562
0.786529
0.786498
0.786467
0.786437
0.786408
0.78638
0.786354
0.786329
0.786305
0.786283
0.786264
0.787565
0.787526
0.787491
0.787456
0.787423
0.787389
0.787355
0.78732
0.787285
0.787249
0.787212
0.787176
0.787138
0.787101
0.787063
0.787025
0.786987
0.786949
0.786911
0.786873
0.786836
0.786799
0.786762
0.786725
0.786689
0.786654
0.786619
0.786585
0.786552
0.786519
0.786488
0.786457
0.786428
0.786399
0.786371
0.786345
0.78632
0.786296
0.786274
0.786256
0.787548
0.78751
0.787475
0.787441
0.787407
0.787373
0.787339
0.787305
0.78727
0.787234
0.787198
0.787161
0.787124
0.787087
0.78705
0.787012
0.786974
0.786936
0.786899
0.786861
0.786824
0.786787
0.78675
0.786714
0.786678
0.786643
0.786609
0.786575
0.786542
0.78651
0.786479
0.786448
0.786419
0.78639
0.786363
0.786336
0.786311
0.786288
0.786266
0.786248
0.787532
0.787494
0.787459
0.787425
0.787392
0.787358
0.787324
0.78729
0.787255
0.78722
0.787184
0.787147
0.787111
0.787074
0.787036
0.786999
0.786961
0.786924
0.786886
0.786849
0.786812
0.786775
0.786739
0.786703
0.786668
0.786633
0.786598
0.786565
0.786532
0.7865
0.786469
0.786439
0.78641
0.786381
0.786354
0.786328
0.786303
0.786279
0.786258
0.78624
0.787515
0.787478
0.787443
0.78741
0.787376
0.787343
0.787309
0.787275
0.787241
0.787205
0.78717
0.787134
0.787097
0.78706
0.787023
0.786986
0.786949
0.786911
0.786874
0.786837
0.7868
0.786764
0.786728
0.786692
0.786657
0.786622
0.786588
0.786555
0.786522
0.786491
0.78646
0.78643
0.786401
0.786372
0.786345
0.786319
0.786295
0.786271
0.786249
0.786231
0.787499
0.787463
0.787428
0.787394
0.787361
0.787328
0.787295
0.787261
0.787226
0.787191
0.787156
0.78712
0.787084
0.787047
0.78701
0.786973
0.786936
0.786899
0.786862
0.786825
0.786789
0.786753
0.786717
0.786681
0.786646
0.786612
0.786578
0.786545
0.786513
0.786481
0.786451
0.786421
0.786392
0.786364
0.786337
0.786311
0.786286
0.786263
0.786241
0.786223
0.787484
0.787447
0.787412
0.787379
0.787346
0.787314
0.78728
0.787247
0.787212
0.787178
0.787142
0.787107
0.78707
0.787034
0.786998
0.786961
0.786924
0.786887
0.78685
0.786814
0.786778
0.786741
0.786706
0.786671
0.786636
0.786602
0.786568
0.786535
0.786503
0.786472
0.786442
0.786412
0.786383
0.786355
0.786328
0.786303
0.786278
0.786255
0.786233
0.786215
0.787468
0.787432
0.787397
0.787364
0.787332
0.787299
0.787266
0.787232
0.787198
0.787164
0.787129
0.787093
0.787057
0.787021
0.786985
0.786948
0.786912
0.786875
0.786839
0.786802
0.786766
0.786731
0.786695
0.78666
0.786626
0.786592
0.786558
0.786526
0.786494
0.786463
0.786433
0.786403
0.786374
0.786347
0.78632
0.786294
0.78627
0.786247
0.786225
0.786208
0.787452
0.787417
0.787382
0.78735
0.787317
0.787285
0.787252
0.787219
0.787185
0.78715
0.787115
0.78708
0.787045
0.787009
0.786972
0.786936
0.7869
0.786863
0.786827
0.786791
0.786755
0.78672
0.786684
0.78665
0.786616
0.786582
0.786549
0.786516
0.786485
0.786454
0.786424
0.786394
0.786366
0.786338
0.786312
0.786286
0.786262
0.786239
0.786217
0.7862
0.787437
0.787402
0.787368
0.787335
0.787303
0.787271
0.787238
0.787205
0.787171
0.787137
0.787102
0.787067
0.787032
0.786996
0.78696
0.786924
0.786888
0.786852
0.786816
0.78678
0.786744
0.786709
0.786674
0.786639
0.786605
0.786572
0.786539
0.786507
0.786475
0.786445
0.786415
0.786386
0.786357
0.78633
0.786304
0.786278
0.786254
0.786231
0.78621
0.786192
0.787422
0.787387
0.787353
0.787321
0.787289
0.787257
0.787224
0.787191
0.787158
0.787124
0.787089
0.787054
0.787019
0.786984
0.786948
0.786912
0.786876
0.78684
0.786804
0.786769
0.786733
0.786698
0.786664
0.786629
0.786596
0.786562
0.78653
0.786498
0.786466
0.786436
0.786406
0.786377
0.786349
0.786322
0.786295
0.78627
0.786246
0.786223
0.786202
0.786184
0.787407
0.787372
0.787339
0.787306
0.787275
0.787243
0.78721
0.787178
0.787144
0.787111
0.787076
0.787042
0.787007
0.786971
0.786936
0.7869
0.786865
0.786829
0.786793
0.786758
0.786723
0.786688
0.786653
0.786619
0.786586
0.786553
0.78652
0.786488
0.786457
0.786427
0.786398
0.786369
0.786341
0.786314
0.786287
0.786262
0.786238
0.786215
0.786194
0.786176
0.787392
0.787358
0.787324
0.787292
0.787261
0.787229
0.787197
0.787164
0.787131
0.787098
0.787064
0.787029
0.786994
0.786959
0.786924
0.786889
0.786853
0.786818
0.786782
0.786747
0.786712
0.786677
0.786643
0.786609
0.786576
0.786543
0.786511
0.786479
0.786448
0.786418
0.786389
0.78636
0.786333
0.786306
0.78628
0.786254
0.78623
0.786207
0.786186
0.786169
0.787378
0.787343
0.78731
0.787278
0.787247
0.787215
0.787184
0.787151
0.787118
0.787085
0.787051
0.787017
0.786982
0.786947
0.786912
0.786877
0.786842
0.786806
0.786771
0.786736
0.786702
0.786667
0.786633
0.7866
0.786566
0.786534
0.786502
0.78647
0.78644
0.78641
0.786381
0.786352
0.786324
0.786298
0.786272
0.786247
0.786223
0.7862
0.786178
0.786161
0.787363
0.787329
0.787296
0.787265
0.787233
0.787202
0.78717
0.787138
0.787105
0.787072
0.787039
0.787005
0.78697
0.786935
0.786901
0.786866
0.786831
0.786795
0.786761
0.786726
0.786691
0.786657
0.786623
0.78659
0.786557
0.786524
0.786493
0.786461
0.786431
0.786401
0.786372
0.786344
0.786316
0.78629
0.786264
0.786239
0.786215
0.786192
0.786171
0.786153
0.787349
0.787315
0.787282
0.787251
0.78722
0.787189
0.787157
0.787125
0.787093
0.78706
0.787026
0.786992
0.786958
0.786924
0.786889
0.786854
0.786819
0.786785
0.78675
0.786715
0.786681
0.786647
0.786613
0.78658
0.786547
0.786515
0.786484
0.786453
0.786422
0.786393
0.786364
0.786336
0.786308
0.786282
0.786256
0.786231
0.786207
0.786185
0.786163
0.786146
0.787335
0.787301
0.787269
0.787238
0.787207
0.787176
0.787144
0.787113
0.78708
0.787047
0.787014
0.78698
0.786946
0.786912
0.786878
0.786843
0.786808
0.786774
0.786739
0.786705
0.786671
0.786637
0.786604
0.786571
0.786538
0.786506
0.786475
0.786444
0.786414
0.786384
0.786356
0.786328
0.786301
0.786274
0.786249
0.786224
0.7862
0.786177
0.786156
0.786138
0.787321
0.787287
0.787255
0.787224
0.787194
0.787163
0.787132
0.7871
0.787068
0.787035
0.787002
0.786969
0.786935
0.786901
0.786866
0.786832
0.786798
0.786763
0.786729
0.786695
0.786661
0.786627
0.786594
0.786561
0.786529
0.786497
0.786466
0.786435
0.786405
0.786376
0.786348
0.78632
0.786293
0.786266
0.786241
0.786216
0.786192
0.78617
0.786148
0.78613
0.787307
0.787274
0.787242
0.787211
0.787181
0.78715
0.787119
0.787087
0.787055
0.787023
0.78699
0.786957
0.786923
0.786889
0.786855
0.786821
0.786787
0.786753
0.786718
0.786685
0.786651
0.786617
0.786584
0.786552
0.78652
0.786488
0.786457
0.786427
0.786397
0.786368
0.78634
0.786312
0.786285
0.786259
0.786233
0.786209
0.786185
0.786162
0.786141
0.786123
0.787293
0.78726
0.787229
0.787198
0.787168
0.787137
0.787106
0.787075
0.787043
0.787011
0.786978
0.786945
0.786912
0.786878
0.786844
0.78681
0.786776
0.786742
0.786708
0.786674
0.786641
0.786608
0.786575
0.786543
0.786511
0.786479
0.786448
0.786418
0.786388
0.78636
0.786332
0.786304
0.786277
0.786251
0.786226
0.786202
0.786178
0.786155
0.786133
0.786115
0.787279
0.787247
0.787215
0.787185
0.787155
0.787125
0.787094
0.787063
0.787031
0.786999
0.786967
0.786934
0.7869
0.786867
0.786833
0.786799
0.786765
0.786732
0.786698
0.786664
0.786631
0.786598
0.786566
0.786533
0.786502
0.78647
0.78644
0.78641
0.78638
0.786351
0.786324
0.786296
0.78627
0.786244
0.786219
0.786194
0.786171
0.786148
0.786126
0.786108
0.787266
0.787234
0.787202
0.787172
0.787142
0.787112
0.787082
0.787051
0.787019
0.786987
0.786955
0.786922
0.786889
0.786856
0.786822
0.786789
0.786755
0.786721
0.786688
0.786655
0.786621
0.786589
0.786556
0.786524
0.786493
0.786462
0.786431
0.786401
0.786372
0.786343
0.786316
0.786289
0.786262
0.786236
0.786211
0.786187
0.786164
0.786141
0.786119
0.786101
0.787252
0.787221
0.787189
0.787159
0.78713
0.7871
0.787069
0.787039
0.787007
0.786976
0.786943
0.786911
0.786878
0.786845
0.786811
0.786778
0.786745
0.786711
0.786678
0.786645
0.786612
0.786579
0.786547
0.786515
0.786484
0.786453
0.786423
0.786393
0.786364
0.786336
0.786308
0.786281
0.786255
0.786229
0.786204
0.78618
0.786157
0.786134
0.786112
0.786093
0.787239
0.787208
0.787177
0.787147
0.787117
0.787087
0.787057
0.787027
0.786996
0.786964
0.786932
0.7869
0.786867
0.786834
0.786801
0.786768
0.786734
0.786701
0.786668
0.786635
0.786602
0.78657
0.786538
0.786506
0.786475
0.786445
0.786414
0.786385
0.786356
0.786328
0.7863
0.786274
0.786247
0.786222
0.786197
0.786173
0.78615
0.786127
0.786105
0.786086
9.24864e-06
4.23082e-05
0.00041322
0.00857525
4.05723e-05
0.000175723
0.00151203
0.0223865
0.000126474
0.000491724
0.00360749
0.0358054
0.000320952
0.00111748
0.00670493
0.0472404
0.000704884
0.00212451
0.01027
0.0562801
0.00135763
0.00349681
0.0142475
0.0640331
0.00231216
0.00526054
0.0185719
0.0711768
0.00361535
0.007442
0.0232343
0.0780854
0.00530598
0.0100538
0.0282034
0.0848211
0.00741055
0.0130956
0.0334383
0.0914236
0.00995067
0.0165723
0.0389418
0.0979288
0.0129342
0.0204695
0.0446591
0.104253
0.0163682
0.0247907
0.0506583
0.110827
0.0202401
0.0295072
0.0568838
0.117454
0.0245421
0.0346186
0.0634223
0.124605
0.0292541
0.0400894
0.070164
0.131614
0.0343533
0.0458949
0.0771166
0.138634
0.0398156
0.0520118
0.0842634
0.145771
0.0456152
0.0584148
0.0915843
0.153029
0.0517258
0.0650792
0.099065
0.160423
0.058122
0.0719822
0.106693
0.167951
0.0647771
0.0790992
0.114453
0.175596
0.0716716
0.0864162
0.12234
0.183355
0.078777
0.093906
0.13033
0.191207
0.086091
0.101579
0.138466
0.19924
0.093563
0.109367
0.146645
0.207306
0.101242
0.11738
0.15513
0.215811
0.109018
0.125375
0.163223
0.223235
0.116974
0.133676
0.172393
0.23511
0.125098
0.142099
0.181133
0.241942
0.133338
0.150537
0.189537
0.248786
0.141673
0.159019
0.198009
0.256966
0.150083
0.167564
0.206648
0.265706
0.158609
0.176225
0.215414
0.274319
0.167141
0.184864
0.224126
0.282785
0.175927
0.193826
0.233206
0.29129
0.184444
0.202208
0.241107
0.299533
0.193522
0.211972
0.25355
0.308521
0.202413
0.220735
0.259818
0.31674
0.211624
0.229754
0.267889
0.32479
0.219795
0.237467
0.276648
0.332742
0.229999
0.25035
0.286065
0.340822
0.2397
0.258021
0.295072
0.348945
0.247278
0.264804
0.303553
0.356967
0.259176
0.273553
0.311987
0.364853
0.26533
0.282686
0.320445
0.372616
0.273327
0.291524
0.328846
0.380292
0.282476
0.300334
0.337185
0.387874
0.291532
0.309102
0.345451
0.395337
0.300514
0.317819
0.353639
0.402684
0.309418
0.326468
0.361737
0.409913
0.318237
0.335032
0.369732
0.417022
0.326961
0.343499
0.377617
0.424011
0.335586
0.351862
0.385385
0.430881
0.344111
0.360117
0.393035
0.437632
0.352534
0.368263
0.400566
0.444264
0.360855
0.376298
0.407977
0.450776
0.36907
0.384221
0.415267
0.457169
0.377176
0.392027
0.422435
0.463439
0.385166
0.399713
0.429477
0.469589
0.393037
0.407276
0.436399
0.475638
0.400785
0.414714
0.443199
0.481577
0.408407
0.422027
0.449877
0.487396
0.415899
0.429209
0.456423
0.493079
0.423261
0.436263
0.462852
0.498676
0.430489
0.443183
0.469138
0.504076
0.43758
0.449964
0.475279
0.50933
0.444532
0.456605
0.481284
0.51447
0.451343
0.463107
0.487156
0.519503
0.458011
0.469471
0.492902
0.52444
0.464539
0.475697
0.498524
0.529281
0.470926
0.481791
0.504034
0.534017
0.477176
0.487754
0.509428
0.538643
0.48329
0.49359
0.514709
0.543166
0.489271
0.499299
0.519877
0.547588
0.495123
0.504887
0.524934
0.551929
0.500843
0.510344
0.529856
0.556116
0.506437
0.515681
0.534673
0.560258
0.511895
0.520882
0.539345
0.564234
0.517235
0.525984
0.544
0.568456
0.522453
0.530965
0.548492
0.572203
0.527552
0.535828
0.552872
0.575947
0.532526
0.540572
0.557142
0.579619
0.537396
0.545224
0.561346
0.583256
0.542122
0.549709
0.565326
0.586623
0.546777
0.5542
0.56961
0.591127
0.551313
0.558514
0.57336
0.593342
0.555728
0.562719
0.577191
0.597226
0.560071
0.566902
0.581107
0.600761
0.564297
0.570918
0.584599
0.603057
0.568425
0.574868
0.588236
0.606648
0.572481
0.578765
0.59183
0.609985
0.576412
0.582485
0.595019
0.611924
0.580286
0.586175
0.598339
0.614978
0.584003
0.589692
0.601517
0.618092
0.58778
0.593486
0.605648
0.620826
0.591377
0.596776
0.607692
0.623452
0.594894
0.60011
0.610879
0.626093
0.598304
0.603365
0.613951
0.628645
0.601615
0.606516
0.616735
0.631126
0.604852
0.609615
0.619595
0.633529
0.608051
0.612686
0.62238
0.635886
0.611187
0.615681
0.625105
0.638206
0.614302
0.618662
0.627788
0.640484
0.617215
0.621415
0.630359
0.642702
0.620618
0.625202
0.6331
0.644933
0.623534
0.627417
0.635625
0.647093
0.62617
0.629699
0.638
0.649184
0.628785
0.63243
0.640361
0.651216
0.632278
0.635318
0.642746
0.653204
0.634075
0.637735
0.64503
0.655115
0.637328
0.640351
0.647286
0.656967
0.639323
0.642767
0.649476
0.658773
0.642001
0.645181
0.651621
0.660542
0.64458
0.647568
0.65373
0.662282
0.647092
0.64992
0.655805
0.663993
0.649557
0.652245
0.657875
0.665662
0.651984
0.654541
0.659906
0.667318
0.654379
0.656807
0.66191
0.66896
0.656746
0.659047
0.66389
0.670588
0.317251
0.554611
0.671874
0.758934
0.281
0.525928
0.667243
0.754151
0.2566
0.492135
0.652322
0.746916
0.242041
0.466861
0.634548
0.7366
0.22851
0.442028
0.617395
0.726408
0.220163
0.422498
0.60336
0.716865
0.215754
0.407559
0.586758
0.706737
0.213943
0.395983
0.571706
0.695075
0.213651
0.384163
0.55817
0.680871
0.214259
0.37717
0.541894
0.666596
0.215192
0.369484
0.524676
0.6521
0.216718
0.362192
0.514451
0.64016
0.219431
0.359261
0.50683
0.631001
0.22247
0.357367
0.499421
0.623269
0.227869
0.356764
0.493571
0.614684
0.230908
0.356641
0.489179
0.608777
0.235138
0.356995
0.485957
0.603778
0.240122
0.358056
0.483897
0.597506
0.245414
0.360052
0.48251
0.593074
0.251045
0.362761
0.482072
0.589768
0.25698
0.366003
0.48215
0.587302
0.263154
0.369606
0.482542
0.585283
0.269522
0.373492
0.48343
0.583599
0.276096
0.378004
0.484537
0.582338
0.28307
0.383409
0.485853
0.58159
0.290185
0.388629
0.48786
0.58161
0.297577
0.393914
0.490612
0.582061
0.304613
0.399162
0.493686
0.583028
0.312613
0.404646
0.496981
0.584216
0.32017
0.410193
0.500397
0.585457
0.327266
0.415728
0.503881
0.586771
0.334832
0.420752
0.507336
0.588166
0.342204
0.425959
0.510795
0.589568
0.349477
0.431341
0.514432
0.591593
0.356657
0.436809
0.518017
0.592856
0.363867
0.442414
0.521816
0.594835
0.370759
0.44808
0.52575
0.596943
0.377917
0.453887
0.529774
0.599201
0.385135
0.459768
0.533891
0.601662
0.392358
0.465656
0.538047
0.604127
0.399512
0.471479
0.542154
0.606542
0.406599
0.477235
0.546329
0.609416
0.413612
0.482836
0.550194
0.611205
0.420522
0.488304
0.553991
0.613483
0.427313
0.493666
0.55776
0.61585
0.433961
0.49885
0.561372
0.618084
0.4406
0.504187
0.565907
0.620522
0.44711
0.509007
0.568348
0.622598
0.453422
0.513685
0.572306
0.625402
0.459598
0.518405
0.575895
0.627245
0.465653
0.523075
0.579283
0.629144
0.471602
0.527717
0.582656
0.631473
0.477452
0.532314
0.585986
0.633728
0.483202
0.536853
0.589261
0.635932
0.488851
0.541326
0.592481
0.638103
0.494396
0.545723
0.595635
0.640219
0.499833
0.550035
0.598714
0.642272
0.505163
0.554258
0.60172
0.644282
0.510377
0.558363
0.604676
0.64624
0.51547
0.562359
0.607573
0.648154
0.520432
0.566254
0.610409
0.650033
0.525274
0.570057
0.613191
0.65188
0.530017
0.573759
0.615808
0.65387
0.534582
0.5772
0.618254
0.655708
0.539224
0.581813
0.621084
0.657553
0.543471
0.584295
0.623561
0.659324
0.547685
0.587627
0.626021
0.661043
0.551877
0.591024
0.628464
0.662724
0.556015
0.594358
0.631071
0.664419
0.560117
0.597714
0.633893
0.666165
0.564145
0.600889
0.63599
0.66779
0.568073
0.603876
0.637909
0.669287
0.571889
0.60674
0.639857
0.670709
0.575627
0.609615
0.642153
0.672159
0.57929
0.612453
0.644331
0.673594
0.582878
0.615236
0.64643
0.675002
0.58642
0.617976
0.64847
0.676379
0.58988
0.620673
0.650462
0.677726
0.593097
0.623256
0.652394
0.679041
0.597316
0.626035
0.654336
0.680341
0.599453
0.628444
0.656195
0.681613
0.602681
0.630804
0.658054
0.682868
0.605738
0.63316
0.659843
0.684096
0.608744
0.635493
0.661581
0.685295
0.611605
0.637771
0.663273
0.686465
0.614637
0.639987
0.664908
0.687599
0.617464
0.64284
0.666663
0.688738
0.620213
0.644648
0.66825
0.689845
0.622911