/*--------------------------------*- C++ -*----------------------------------*\
  =========                 |
  \\      /  F ield         | OpenFOAM: The Open Source CFD Toolbox
   \\    /   O peration     | Website:  https://openfoam.org
    \\  /    A nd           | Version:  10
     \\/     M anipulation  |
\*---------------------------------------------------------------------------*/
FoamFile
{
    format      ascii;
    class       volScalarField;
    location    "12000/gas";
    object      nut;
}
// * * * * * * * * * * * * * * * * * * * * * * * * * * * * * * * * * * * * * //

dimensions      [0 2 -1 0 0 0 0];

internalField   nonuniform List<scalar> 
16000
(
6.64695e-06
3.73382e-05
7.49996e-05
3.45687e-06
1.19845e-05
1.71073e-05
5.55535e-05
3.80639e-06
1.28811e-05
1.89482e-05
5.40063e-05
4.48016e-06
1.52462e-05
2.08004e-05
4.6274e-05
5.13159e-06
1.92019e-05
2.29087e-05
4.20565e-05
5.67456e-06
2.4122e-05
2.49126e-05
3.95992e-05
6.13887e-06
2.59582e-05
2.6662e-05
3.80221e-05
6.55283e-06
2.69554e-05
2.81887e-05
3.69432e-05
6.9357e-06
2.82487e-05
2.95128e-05
3.60476e-05
7.29226e-06
2.92761e-05
3.06129e-05
3.52142e-05
7.6184e-06
3.02286e-05
3.15168e-05
3.42392e-05
7.90418e-06
3.11577e-05
3.22836e-05
3.33212e-05
8.14316e-06
3.20497e-05
3.28544e-05
3.26721e-05
8.33676e-06
3.28781e-05
3.32325e-05
3.2161e-05
8.48623e-06
3.36316e-05
3.35181e-05
3.16711e-05
8.59247e-06
3.42933e-05
3.36558e-05
3.1185e-05
8.65858e-06
3.48694e-05
3.3796e-05
3.07048e-05
8.69045e-06
3.53701e-05
3.39359e-05
3.02384e-05
8.69078e-06
3.57973e-05
3.40181e-05
2.97888e-05
8.66272e-06
3.61491e-05
3.40373e-05
2.93565e-05
8.60937e-06
3.64252e-05
3.40003e-05
2.89408e-05
8.53429e-06
3.66278e-05
3.39165e-05
2.854e-05
8.43986e-06
3.67612e-05
3.37955e-05
2.81522e-05
8.32896e-06
3.68308e-05
3.36419e-05
2.77754e-05
8.20344e-06
3.68439e-05
3.34667e-05
2.7408e-05
8.06582e-06
3.68044e-05
3.32598e-05
2.70482e-05
7.91803e-06
3.67275e-05
3.30801e-05
2.66983e-05
7.76181e-06
3.66185e-05
3.28814e-05
2.63611e-05
7.59858e-06
3.64805e-05
3.26621e-05
2.60284e-05
7.42992e-06
3.63156e-05
3.24239e-05
2.56993e-05
7.25702e-06
3.61278e-05
3.2182e-05
2.53733e-05
7.08114e-06
3.592e-05
3.1927e-05
2.50501e-05
6.90285e-06
3.56951e-05
3.16614e-05
2.47299e-05
6.72317e-06
3.5453e-05
3.13759e-05
2.44114e-05
6.54293e-06
3.5195e-05
3.10782e-05
2.40939e-05
6.36258e-06
3.49224e-05
3.07699e-05
2.37779e-05
6.18283e-06
3.46387e-05
3.04658e-05
2.34624e-05
6.00428e-06
3.43447e-05
3.01567e-05
2.31449e-05
5.8275e-06
3.40453e-05
2.9848e-05
2.284e-05
5.65378e-06
3.37272e-05
2.95614e-05
2.23923e-05
5.48175e-06
7.10549e-06
0.000155388
0.000402006
0.000492918
0.000531749
0.000555438
0.000574223
0.00059089
0.000606314
0.000620734
0.000634181
0.000646638
0.000658084
0.00066851
0.000677918
0.000686322
0.000693758
0.000700231
0.000705708
0.000710165
0.000713551
0.000715771
0.000716656
0.000715899
0.000712929
0.000706598
0.000694345
0.000669603
0.000612462
0.000458063
0.000147633
6.78793e-06
7.41095e-06
0.000104463
0.000288279
0.000403586
0.000468603
0.000508796
0.000537125
0.000559757
0.000579471
0.000597531
0.000614485
0.00063054
0.000645742
0.000660051
0.000673392
0.000685658
0.000696708
0.000706403
0.000714598
0.000721074
0.000725526
0.000727511
0.000726355
0.000720982
0.00070955
0.000688691
0.00065185
0.000585803
0.000465941
0.000269775
7.58462e-05
6.60795e-06
8.09947e-06
0.000101501
0.000255705
0.000373561
0.000451631
0.000503462
0.000539959
0.000567721
0.00059046
0.000610221
0.00062811
0.000644696
0.000660245
0.000674838
0.000688446
0.000700962
0.000712214
0.000721985
0.000729997
0.000735867
0.000739061
0.000738812
0.000733975
0.000722775
0.000702334
0.000667851
0.000611282
0.000520131
0.000380844
0.000202514
5.8867e-05
6.41374e-06
9.14907e-06
0.000104432
0.000241671
0.000357195
0.000442081
0.000502372
0.000546076
0.000579151
0.000605491
0.000627523
0.000646723
0.000663959
0.00067971
0.000694203
0.000707497
0.000719528
0.000730132
0.000739056
0.000745941
0.000750284
0.000751374
0.000748183
0.0007392
0.000722136
0.000693482
0.000647878
0.000577595
0.000473473
0.000331612
0.000172277
5.17312e-05
6.23384e-06
1.04817e-05
0.000106389
0.000233187
0.000345332
0.000433606
0.000499824
0.000549464
0.000587492
0.000617585
0.000642267
0.000663203
0.000681459
0.00069768
0.000712224
0.000725239
0.000736716
0.000746513
0.000754366
0.000759869
0.000762433
0.000761214
0.000754993
0.000741995
0.000719611
0.000684041
0.000629962
0.000550719
0.000440483
0.00030118
0.00015552
4.81257e-05
6.10192e-06
1.20078e-05
0.000107127
0.000226636
0.000335348
0.000425055
0.0004953
0.000549623
0.000591978
0.000625641
0.000653054
0.00067594
0.000695471
0.000712407
0.000727205
0.00074009
0.000751107
0.000760144
0.00076694
0.000771062
0.000771863
0.000768407
0.000759342
0.000742722
0.000715771
0.000674639
0.000614347
0.000529474
0.000416796
0.000281433
0.000145519
4.62546e-05
6.00373e-06
1.36404e-05
0.000106838
0.000220823
0.000326283
0.00041627
0.000489151
0.000547065
0.000593054
0.000629936
0.000659971
0.000684849
0.00070578
0.000723591
0.000738806
0.000751712
0.000762402
0.000770794
0.000776636
0.000779486
0.000778661
0.000773164
0.000761558
0.000741801
0.000711061
0.000665586
0.000600863
0.000512598
0.000399426
0.000268067
0.000139396
4.54025e-05
5.93277e-06
1.53132e-05
0.000106086
0.000215367
0.000317752
0.000407307
0.000481811
0.000542404
0.000591364
0.000631049
0.000663492
0.000690294
0.000712653
0.000731422
0.000747167
0.00076022
0.000770713
0.000778592
0.00078362
0.000785353
0.000783091
0.000775801
0.000761996
0.000739597
0.000705791
0.000656998
0.000589196
0.000499036
0.000386434
0.000258844
0.000135697
4.52165e-05
5.88724e-06
1.69747e-05
0.000104989
0.000210107
0.000309594
0.000398266
0.000473645
0.000536175
0.000587504
0.000629571
0.000664159
0.000692751
0.000716498
0.00073625
0.000752595
0.000765893
0.000776305
0.000783802
0.000788164
0.000788951
0.000785459
0.000776635
0.000760974
0.000736396
0.000700153
0.000648879
0.000579012
0.000487968
0.000376528
0.000252402
0.000133596
4.54966e-05
5.86663e-06
1.85879e-05
0.000103805
0.000205064
0.000301765
0.000389247
0.000464944
0.000528806
0.000581979
0.000626023
0.00066248
0.000692692
0.000717746
0.000738467
0.000755446
0.00076906
0.000779489
0.000786726
0.000790565
0.000790578
0.000786059
0.000775952
0.000758754
0.00073241
0.000694266
0.000641181
0.000570009
0.000478772
0.00036883
0.000247873
0.00013259
4.61123e-05
5.86985e-06
2.01273e-05
0.000102606
0.000200264
0.000294262
0.000380343
0.000455932
0.000520635
0.000575198
0.000620848
0.000658899
0.000690549
0.000716804
0.000738452
0.000756074
0.000770052
0.000780578
0.000787662
0.000791112
0.000790509
0.000785155
0.000773997
0.000755548
0.000727797
0.000688201
0.000633838
0.000561932
0.00047098
0.000362721
0.000244672
0.000132313
4.69671e-05
5.89665e-06
2.15755e-05
0.000101419
0.000195716
0.000287094
0.000371625
0.000446782
0.000511928
0.00056749
0.000614413
0.000653797
0.000686699
0.000714037
0.000736554
0.000754809
0.00076918
0.000779868
0.000786891
0.000790069
0.000788995
0.000782977
0.000770976
0.000751527
0.000722677
0.000681997
0.000626779
0.000554567
0.000464235
0.000357759
0.000242391
0.000132514
4.79831e-05
5.9471e-06
2.29215e-05
0.000100261
0.000191417
0.000280263
0.000363148
0.000437624
0.000502889
0.000559119
0.000607018
0.000647495
0.000681469
0.000709769
0.000733085
0.000751949
0.000766728
0.000777625
0.000784664
0.000787673
0.000786253
0.000779724
0.000767061
0.000746829
0.000717138
0.000675679
0.000619941
0.000547747
0.000458269
0.000353622
0.000240758
0.000133075
4.91073e-05
6.02088e-06
2.41591e-05
9.91421e-05
0.000187362
0.000273769
0.00035495
0.000428556
0.000493678
0.000550296
0.000598911
0.00064026
0.000675135
0.000704276
0.000728317
0.000747757
0.000762949
0.00077409
0.000781206
0.000784132
0.000782475
0.000775565
0.000762396
0.000741566
0.000711251
0.000669261
0.000613268
0.000541337
0.000452877
0.000350076
0.000239566
0.000133856
5.02919e-05
6.11726e-06
2.52859e-05
9.8065e-05
0.000183541
0.000267606
0.000347055
0.00041965
0.000484417
0.000541187
0.000590291
0.000632315
0.000667933
0.000697798
0.000722488
0.000742465
0.000758064
0.000769472
0.000776715
0.000779628
0.000777825
0.000770646
0.000757102
0.00073583
0.000705073
0.000662753
0.000606714
0.000535232
0.000447903
0.000346943
0.000238658
0.000134749
5.14961e-05
6.23517e-06
2.63022e-05
9.70303e-05
0.000179944
0.000261765
0.000339476
0.000410957
0.000475202
0.000531926
0.000581322
0.000623845
0.00066006
0.000690539
0.000715802
0.000736274
0.000752267
0.000763956
0.000771362
0.000774319
0.000772445
0.00076509
0.000751284
0.0007297
0.000698649
0.000656164
0.000600245
0.00052935
0.000443227
0.000344086
0.000237914
0.00013567
5.26854e-05
6.37321e-06
2.72104e-05
9.60357e-05
0.000176557
0.000256233
0.000332218
0.000402513
0.000466102
0.000522617
0.000572137
0.000615003
0.000651683
0.000682673
0.000708435
0.000729358
0.000745726
0.000757702
0.000765296
0.000768343
0.00076646
0.000759004
0.000745028
0.00072324
0.000692019
0.000649502
0.000593832
0.000523628
0.000438757
0.000341403
0.000237243
0.000136558
5.38312e-05
6.52965e-06
2.80144e-05
9.50777e-05
0.000173366
0.000250997
0.000325281
0.000394341
0.00045717
0.000513341
0.000562841
0.000605914
0.00064294
0.000674345
0.000700536
0.000721863
0.000738586
0.000750847
0.000758648
0.000761817
0.000759973
0.000752481
0.00073841
0.000716508
0.000685218
0.000642776
0.000587456
0.000518017
0.000434424
0.000338817
0.000236576
0.000137368
5.49113e-05
6.70253e-06
2.87192e-05
9.41519e-05
0.000170359
0.000246041
0.000318659
0.000386455
0.000448445
0.000504162
0.000553519
0.00059668
0.000633946
0.000665678
0.000692232
0.000713919
0.00073097
0.00074351
0.000751528
0.000754845
0.000753078
0.000745599
0.000731496
0.000709554
0.000678278
0.000635996
0.000581103
0.000512482
0.000430175
0.000336269
0.000235865
0.000138068
5.59086e-05
6.88957e-06
2.93302e-05
9.32538e-05
0.000167521
0.000241349
0.000312344
0.000378863
0.000439955
0.000495128
0.00054424
0.000587385
0.000624797
0.000656776
0.00068363
0.000705632
0.000722985
0.000735793
0.000744032
0.000747514
0.000745854
0.000738428
0.000724344
0.000702421
0.000671225
0.000629172
0.000574765
0.000506998
0.000425973
0.00033372
0.000235076
0.000138637
5.68122e-05
7.08849e-06
2.98534e-05
9.23789e-05
0.000164837
0.000236906
0.000306325
0.000371565
0.000431716
0.000486275
0.000535057
0.000578097
0.000615571
0.000647725
0.000674821
0.000697095
0.000714722
0.000727785
0.000736243
0.000739901
0.000738368
0.000731028
0.000717003
0.000695148
0.000664086
0.000622316
0.000568438
0.000501546
0.00042179
0.00033114
0.000234186
0.000139062
5.76165e-05
7.29695e-06
3.02949e-05
9.1523e-05
0.000162296
0.000232694
0.000300589
0.00036456
0.000423741
0.00047763
0.00052601
0.000568869
0.000606332
0.000638596
0.00066588
0.000688385
0.000706257
0.000719558
0.000728232
0.000732071
0.000730682
0.00072345
0.000709517
0.000687769
0.000656885
0.000615438
0.000562123
0.000496116
0.00041761
0.000328511
0.000233183
0.000139339
5.83198e-05
7.51268e-06
3.06609e-05
9.06822e-05
0.000159883
0.000228699
0.000295123
0.00035784
0.000416035
0.000469212
0.000517132
0.000559745
0.000597133
0.000629448
0.00065687
0.000679566
0.000697656
0.000711179
0.00072006
0.000724082
0.000722846
0.000715741
0.000701924
0.000680315
0.000649642
0.000608552
0.000555821
0.000490702
0.000413422
0.000325824
0.000232062
0.000139469
5.89235e-05
7.73346e-06
3.09572e-05
8.98527e-05
0.000157589
0.000224904
0.000289912
0.000351398
0.000408599
0.000461032
0.000508445
0.000550758
0.000588015
0.000620329
0.000647844
0.000670695
0.000688974
0.000702699
0.000711778
0.000715981
0.000714904
0.000707941
0.00069426
0.000672814
0.00064238
0.000601669
0.000549537
0.000485303
0.00040922
0.000323074
0.000230824
0.000139457
5.94316e-05
7.95721e-06
3.11898e-05
8.90313e-05
0.000155401
0.000221296
0.000284943
0.000345224
0.00040143
0.000453097
0.000499966
0.000541934
0.00057901
0.000611277
0.000638844
0.000661816
0.000680258
0.000694166
0.000703431
0.000707812
0.000706897
0.000700083
0.000686555
0.000665291
0.000635116
0.000594804
0.000543277
0.00047992
0.000405006
0.000320263
0.000229473
0.00013931
5.98496e-05
8.18204e-06
3.13642e-05
8.82151e-05
0.00015331
0.00021786
0.0002802
0.000339307
0.000394524
0.000445411
0.000491706
0.00053329
0.000570146
0.000602324
0.000629905
0.000652965
0.000671545
0.000685617
0.000695057
0.000699609
0.000698857
0.0006922
0.000678834
0.000657769
0.000627869
0.000587967
0.000537051
0.000474558
0.000400782
0.000317395
0.00022802
0.000139041
6.01845e-05
8.40621e-06
3.14859e-05
8.74014e-05
0.000151307
0.000214583
0.000275671
0.000333636
0.000387874
0.000437972
0.000483671
0.000524839
0.000561439
0.000593493
0.000621055
0.000644174
0.000662867
0.000677085
0.000686687
0.000691403
0.000690813
0.000684316
0.000671123
0.000650267
0.000620654
0.000581172
0.000530866
0.000469223
0.000396554
0.000314479
0.000226473
0.00013866
6.04434e-05
8.62821e-06
3.15601e-05
8.65875e-05
0.000149383
0.000211453
0.000271342
0.000328197
0.000381471
0.000430777
0.000475863
0.000516591
0.000552904
0.000584803
0.000612315
0.000635467
0.00065425
0.000668596
0.000678347
0.000683221
0.000682791
0.000676456
0.000663441
0.000642803
0.000613488
0.00057443
0.000524731
0.000463923
0.000392329
0.000311524
0.000224845
0.00013818
6.0634e-05
8.84674e-06
3.15919e-05
8.57709e-05
0.000147531
0.00020846
0.000267199
0.000322978
0.000375304
0.000423818
0.00046828
0.000508546
0.000544547
0.000576264
0.000603701
0.00062686
0.000645713
0.000660172
0.00067006
0.000675084
0.00067481
0.00066864
0.000655808
0.000635396
0.000606383
0.000567753
0.000518656
0.000458666
0.000388117
0.000308541
0.000223149
0.000137614
6.07638e-05
9.06067e-06
3.15862e-05
8.49491e-05
0.000145743
0.00020559
0.000263228
0.000317965
0.000369359
0.000417084
0.000460914
0.000500704
0.000536372
0.000567883
0.000595222
0.000618368
0.000637273
0.000651828
0.000661842
0.00066701
0.000666889
0.000660884
0.000648239
0.000628057
0.000599353
0.000561151
0.00051265
0.00045346
0.000383926
0.00030554
0.000221397
0.000136975
6.08401e-05
9.26908e-06
3.15482e-05
8.41191e-05
0.000144014
0.000202835
0.000259415
0.000313141
0.000363621
0.000410563
0.000453756
0.000493056
0.000528375
0.000559662
0.000586883
0.000609998
0.000628938
0.000643578
0.000653708
0.000659012
0.000659042
0.000653203
0.000640748
0.000620801
0.000592409
0.000554636
0.000506723
0.000448315
0.000379767
0.000302532
0.000219603
0.000136275
6.08696e-05
9.47123e-06
3.14832e-05
8.32774e-05
0.000142335
0.000200181
0.000255744
0.000308486
0.000358069
0.000404235
0.000446789
0.000485591
0.000520548
0.000551596
0.000578684
0.000601753
0.000620716
0.000635428
0.000645666
0.000651102
0.000651281
0.000645608
0.000633346
0.000613639
0.000585561
0.000548215
0.000500883
0.000443239
0.000375649
0.00029953
0.000217779
0.000135524
6.08587e-05
9.66651e-06
3.13972e-05
8.2419e-05
0.000140697
0.000197613
0.000252192
0.000303975
0.000352676
0.000398073
0.000439988
0.000478289
0.000512876
0.000543675
0.000570618
0.000593631
0.000612606
0.000627383
0.000637723
0.000643288
0.000643614
0.000638109
0.000626043
0.000606578
0.000578818
0.000541898
0.000495137
0.000438241
0.00037158
0.000296543
0.000215937
0.000134734
6.08133e-05
9.85448e-06
3.12972e-05
8.15353e-05
0.000139087
0.000195108
0.000248728
0.000299569
0.000347402
0.000392039
0.000433321
0.000471122
0.000505337
0.000535881
0.000562674
0.000585624
0.000604605
0.000619442
0.000629881
0.000635572
0.000636047
0.000630712
0.000618846
0.000599628
0.000572186
0.000535691
0.000489494
0.000433328
0.000367571
0.000293582
0.000214086
0.000133913
6.07387e-05
1.00348e-05
3.11918e-05
8.06106e-05
0.000137478
0.000192626
0.000245299
0.000295212
0.000342192
0.000386082
0.000426743
0.000464051
0.000497899
0.000528192
0.000554834
0.000577719
0.000596705
0.000611601
0.000622138
0.000627957
0.000628583
0.000623421
0.00061176
0.000592793
0.000565673
0.0005296
0.000483959
0.000428507
0.000363628
0.000290655
0.000212238
0.000133072
6.06397e-05
1.02073e-05
3.10923e-05
7.96116e-05
0.000135811
0.000190088
0.000241817
0.000290816
0.000336964
0.000380132
0.000420193
0.000457027
0.000490523
0.000520575
0.000547074
0.0005699
0.000588894
0.000603851
0.000614491
0.00062044
0.000621221
0.000616239
0.000604788
0.000586077
0.000559281
0.000523631
0.000478537
0.000423783
0.000359759
0.000287771
0.0002104
0.000132217
6.05205e-05
1.03719e-05
3.10102e-05
7.84607e-05
0.000133953
0.000187344
0.000238135
0.00028625
0.000331606
0.000374095
0.000413597
0.000449992
0.000483162
0.000512993
0.000539366
0.000562144
0.000581156
0.000596182
0.00060693
0.000613018
0.000613961
0.000609165
0.000597931
0.000579482
0.000553015
0.000517785
0.000473233
0.000419163
0.000355969
0.000284938
0.000208581
0.000131355
6.03849e-05
1.05285e-05
3.09325e-05
7.69482e-05
0.000131602
0.000184116
0.000234026
0.000281335
0.000325982
0.000367866
0.000406872
0.000442878
0.000475764
0.000505407
0.000531678
0.000554427
0.000573472
0.00058858
0.000599447
0.000605683
0.000606797
0.000602197
0.000591188
0.000573009
0.000546875
0.000512066
0.00046805
0.000414649
0.000352265
0.00028216
0.000206786
0.000130492
6.02363e-05
1.06772e-05
3.06929e-05
7.48081e-05
0.000128234
0.000180006
0.000229218
0.000275885
0.000319954
0.000361341
0.000399938
0.000435624
0.00046828
0.000497776
0.000523977
0.000546723
0.000565822
0.000581029
0.000592029
0.000598426
0.000599724
0.00059533
0.000584558
0.000566657
0.000540861
0.000506475
0.000462989
0.000410245
0.000348649
0.000279443
0.000205023
0.000129634
6.00777e-05
1.08181e-05
2.89999e-05
7.06491e-05
0.00012335
0.000174774
0.000223574
0.000269823
0.00031345
0.000354458
0.000392741
0.000428185
0.00046067
0.000490068
0.000516237
0.00053901
0.000558187
0.000573513
0.000584664
0.000591237
0.000592734
0.00058856
0.000578035
0.000560422
0.000534971
0.00050101
0.00045805
0.000405952
0.000345124
0.000276792
0.000203295
0.000128785
5.99116e-05
1.09513e-05
1.20498e-05
4.25976e-05
7.89795e-05
0.000112681
0.000142543
0.000168604
0.000191241
0.000210793
0.000227637
0.000242095
0.000254442
0.000264909
0.000273685
0.000280925
0.000286755
0.000291274
0.000294562
0.000296679
0.000297673
0.000297577
0.000296414
0.000294197
0.000290932
0.000286616
0.000281239
0.00027478
0.000267213
0.000258498
0.000248587
0.000237412
0.000224886
0.000210896
0.00019529
0.000177873
0.000158386
0.000136501
0.000111814
8.39608e-05
5.3131e-05
2.30053e-05
1.22381e-05
4.3293e-05
7.95957e-05
0.000113238
0.000143047
0.000169084
0.000191676
0.000211197
0.00022801
0.000242439
0.000254758
0.000265199
0.00027395
0.000281167
0.000286974
0.000291472
0.00029474
0.000296838
0.000297813
0.000297699
0.000296519
0.000294286
0.000291006
0.000286675
0.000281283
0.000274811
0.000267232
0.000258507
0.000248587
0.000237405
0.000224875
0.000210883
0.000195282
0.000177873
0.000158401
0.000136534
0.000111879
8.40842e-05
5.33842e-05
2.32748e-05
1.24502e-05
4.40281e-05
8.04133e-05
0.000114083
0.000143892
0.000169915
0.000192479
0.000211968
0.000228748
0.000243143
0.000255429
0.000265837
0.000274558
0.000281746
0.000287527
0.000292
0.000295244
0.00029732
0.000298275
0.000298141
0.000296943
0.000294692
0.000291395
0.000287049
0.000281641
0.000275155
0.000267562
0.000258825
0.000248893
0.0002377
0.000225161
0.000211162
0.000195554
0.000178141
0.000158665
0.000136796
0.000112139
8.43431e-05
5.36433e-05
2.35428e-05
1.26614e-05
4.46981e-05
8.12736e-05
0.000115058
0.000144927
0.000170971
0.000193532
0.000213004
0.000229759
0.000244125
0.000256381
0.000266758
0.000275448
0.000282606
0.000288358
0.000292803
0.00029602
0.000298071
0.000299001
0.000298844
0.000297622
0.000295348
0.000292028
0.000287659
0.000282228
0.000275719
0.000268102
0.000259341
0.000249385
0.000238168
0.000225605
0.000211583
0.000195952
0.000178518
0.000159022
0.000137134
0.00011246
8.46478e-05
5.39398e-05
2.38252e-05
1.28702e-05
4.5324e-05
8.21312e-05
0.000116081
0.000146056
0.000172157
0.000194741
0.000214215
0.000230958
0.000245303
0.000257533
0.000267882
0.000276543
0.000283671
0.000289393
0.000293808
0.000296996
0.000299018
0.000299918
0.000299732
0.00029848
0.000296177
0.000292827
0.000288426
0.000282964
0.000276422
0.000268773
0.000259978
0.000249988
0.000238738
0.000226141
0.000212087
0.000196427
0.000178965
0.000159443
0.000137532
0.000112835
8.49971e-05
5.42614e-05
2.41139e-05
1.30769e-05
4.59141e-05
8.29711e-05
0.000117115
0.000147226
0.00017341
0.00019604
0.000215532
0.000232276
0.000246611
0.000258822
0.000269146
0.00027778
0.000284878
0.00029057
0.000294954
0.00029811
0.000300099
0.000300966
0.000300746
0.00029946
0.000297122
0.000293736
0.000289298
0.000283799
0.000277218
0.00026953
0.000260696
0.000250666
0.000239378
0.000226744
0.000212654
0.00019696
0.000179467
0.000159918
0.000137981
0.000113255
8.5384e-05
5.46019e-05
2.44106e-05
1.32822e-05
4.64766e-05
8.37898e-05
0.000118143
0.000148408
0.000174694
0.000197387
0.000216912
0.000233669
0.000248
0.000260199
0.000270504
0.000279112
0.000286183
0.000291844
0.000296196
0.000299319
0.000301273
0.000302105
0.000301848
0.000300525
0.000298148
0.000294722
0.000290245
0.000284704
0.000278082
0.000270351
0.000261475
0.000251404
0.000240075
0.000227401
0.000213274
0.000197545
0.00018002
0.000160441
0.000138474
0.000113716
8.58022e-05
5.49563e-05
2.47127e-05
1.34867e-05
4.70166e-05
8.45876e-05
0.000119158
0.000149589
0.000175991
0.000198758
0.000218328
0.000235106
0.000249442
0.000261633
0.000271923
0.00028051
0.000287554
0.000293186
0.000297506
0.000300595
0.000302514
0.000303309
0.000303015
0.000301652
0.000299235
0.000295769
0.000291249
0.000285666
0.000279002
0.000271228
0.000262308
0.000252195
0.000240823
0.000228109
0.000213943
0.000198177
0.000180618
0.000161006
0.000139006
0.00011421
8.62475e-05
5.53304e-05
2.50199e-05
1.3691e-05
4.75367e-05
8.53664e-05
0.00012016
0.000150764
0.000177291
0.000200142
0.000219765
0.000236571
0.000250918
0.000263107
0.000273385
0.000281953
0.000288974
0.000294578
0.000298867
0.000301923
0.000303807
0.000304565
0.000304233
0.000302831
0.000300374
0.000296866
0.000292305
0.000286679
0.000279971
0.000272154
0.000263191
0.000253034
0.000241619
0.000228863
0.000214656
0.000198852
0.000181255
0.000161607
0.00013957
0.000114733
8.67157e-05
5.57207e-05
2.5331e-05
1.3896e-05
4.80374e-05
8.61287e-05
0.000121149
0.000151932
0.00017859
0.000201532
0.000221214
0.000238054
0.000252418
0.000264609
0.000274879
0.000283431
0.000290431
0.000296009
0.000300269
0.000303293
0.000305143
0.000305866
0.000305496
0.000304056
0.000301559
0.000298011
0.000293408
0.00028774
0.000280989
0.000273127
0.00026412
0.000253919
0.00024246
0.00022966
0.000215411
0.000199565
0.000181929
0.000162241
0.000140164
0.000115281
8.72035e-05
5.61246e-05
2.56456e-05
1.41026e-05
4.8519e-05
8.6879e-05
0.00012213
0.000153094
0.000179887
0.000202925
0.000222671
0.000239551
0.000253936
0.000266134
0.000276399
0.000284939
0.000291919
0.000297474
0.000301706
0.0003047
0.000306517
0.000307206
0.0003068
0.000305323
0.000302788
0.000299199
0.000294555
0.000288845
0.000282051
0.000274146
0.000265094
0.000254848
0.000243343
0.000230498
0.000216203
0.000200313
0.000182634
0.000162904
0.000140783
0.00011585
8.77083e-05
5.65401e-05
2.59628e-05
1.43103e-05
4.89921e-05
8.76217e-05
0.000123104
0.000154252
0.000181183
0.000204321
0.000224135
0.00024106
0.000255469
0.000267677
0.000277941
0.000286472
0.000293436
0.000298969
0.000303177
0.000306142
0.000307929
0.000308585
0.000308144
0.000306631
0.000304058
0.000300431
0.000295747
0.000289995
0.000283158
0.000275209
0.000266111
0.000255818
0.000244266
0.000231373
0.000217031
0.000201094
0.000183368
0.000163592
0.000141423
0.000116437
8.82278e-05
5.69656e-05
2.62823e-05
1.45193e-05
4.94628e-05
8.83599e-05
0.000124073
0.000155406
0.000182478
0.000205719
0.000225606
0.000242578
0.000257016
0.000269238
0.000279505
0.000288029
0.00029498
0.000300494
0.000304679
0.000307618
0.000309376
0.000310001
0.000309527
0.000307979
0.00030537
0.000301705
0.000296981
0.000291188
0.000284307
0.000276313
0.000267169
0.000256828
0.000245227
0.000232284
0.00021789
0.000201903
0.000184126
0.000164301
0.000142082
0.00011704
8.87598e-05
5.73995e-05
2.66032e-05
1.47299e-05
4.99328e-05
8.90953e-05
0.00012504
0.000156559
0.000183774
0.000207121
0.000227084
0.000244108
0.000258578
0.000270817
0.000281089
0.000289609
0.000296549
0.000302048
0.000306212
0.000309127
0.000310858
0.000311453
0.000310948
0.000309367
0.000306722
0.000303019
0.000298256
0.000292422
0.000285498
0.000277458
0.000268267
0.000257876
0.000246223
0.000233226
0.000218779
0.000202737
0.000184908
0.00016503
0.000142757
0.000117656
8.93024e-05
5.78405e-05
2.69251e-05
1.49424e-05
5.04029e-05
8.98292e-05
0.000126005
0.000157711
0.000185072
0.000208528
0.00022857
0.000245648
0.000260154
0.000272413
0.000282694
0.000291213
0.000298145
0.000303629
0.000307775
0.000310668
0.000312374
0.000312942
0.000312407
0.000310793
0.000308113
0.000304374
0.000299572
0.000293696
0.000286728
0.000278642
0.000269402
0.000258959
0.000247252
0.0002342
0.000219695
0.000203596
0.000185709
0.000165775
0.000143445
0.000118283
8.98536e-05
5.82874e-05
2.72472e-05
1.5157e-05
5.08738e-05
9.0563e-05
0.000126969
0.000158864
0.000186372
0.000209941
0.000230064
0.000247201
0.000261745
0.000274027
0.000284319
0.000292839
0.000299766
0.000305239
0.000309369
0.000312242
0.000313924
0.000314466
0.000313902
0.000312256
0.000309543
0.000305768
0.000300927
0.000295009
0.000287997
0.000279864
0.000270573
0.000260076
0.000248313
0.000235202
0.000220637
0.000204476
0.000186528
0.000166533
0.000144144
0.000118917
9.04116e-05
5.87389e-05
2.75689e-05
1.5374e-05
5.13462e-05
9.12974e-05
0.000127935
0.00016002
0.000187678
0.00021136
0.000231568
0.000248765
0.00026335
0.000275658
0.000285964
0.000294489
0.000301413
0.000306876
0.000310992
0.000313847
0.000315508
0.000316024
0.000315433
0.000313757
0.000311011
0.0003072
0.00030232
0.000296361
0.000289304
0.000281122
0.000271779
0.000261227
0.000249404
0.000236231
0.000221602
0.000205375
0.000187362
0.000167304
0.000144851
0.000119559
9.09744e-05
5.91938e-05
2.78896e-05
1.55935e-05
5.18206e-05
9.20334e-05
0.000128903
0.000161179
0.000188988
0.000212787
0.000233082
0.000250342
0.000264971
0.000277308
0.00028763
0.000296162
0.000303085
0.000308541
0.000312645
0.000315483
0.000317124
0.000317617
0.000316999
0.000315293
0.000312515
0.000308668
0.00030375
0.000297749
0.000290647
0.000282415
0.000273018
0.000262408
0.000250524
0.000237286
0.000222588
0.000206293
0.00018821
0.000168084
0.000145565
0.000120207
9.15401e-05
5.9651e-05
2.82087e-05
1.58158e-05
5.22974e-05
9.27718e-05
0.000129874
0.000162343
0.000190305
0.000214222
0.000234607
0.000251933
0.000266608
0.000278976
0.000289317
0.000297858
0.000304782
0.000310233
0.000314326
0.00031715
0.000318772
0.000319243
0.000318599
0.000316865
0.000314055
0.000310174
0.000305217
0.000299173
0.000292024
0.000283742
0.00027429
0.00026362
0.000251672
0.000238365
0.000223596
0.000207227
0.00018907
0.000168872
0.000146283
0.000120853
9.21061e-05
6.01094e-05
2.85254e-05
1.60408e-05
5.27772e-05
9.35132e-05
0.000130849
0.000163512
0.000191629
0.000215667
0.000236143
0.000253537
0.000268261
0.000280663
0.000291025
0.000299577
0.000306504
0.000311952
0.000316036
0.000318846
0.000320451
0.000320901
0.000320233
0.000318472
0.00031563
0.000311714
0.000306718
0.000300632
0.000293436
0.000285102
0.000275593
0.000264862
0.000252846
0.000239468
0.000224623
0.000208176
0.000189941
0.000169666
0.000147004
0.000121502
9.26715e-05
6.0568e-05
2.88391e-05
1.6269e-05
5.32603e-05
9.42584e-05
0.000131828
0.000164687
0.000192961
0.000217121
0.000237691
0.000255155
0.000269931
0.000282368
0.000292753
0.000301318
0.00030825
0.000313697
0.000317774
0.000320573
0.000322161
0.000322592
0.0003219
0.000320112
0.00031724
0.000313289
0.000308255
0.000302125
0.000294882
0.000286495
0.000276927
0.000266132
0.000254047
0.000240593
0.000225669
0.00020914
0.000190822
0.000170466
0.000147726
0.000122149
9.32359e-05
6.10258e-05
2.91491e-05
1.65003e-05
5.3747e-05
9.50078e-05
0.000132813
0.000165869
0.000194301
0.000218586
0.000239252
0.000256788
0.000271617
0.000284092
0.000294502
0.000303082
0.000310021
0.000315468
0.00031954
0.000322328
0.000323902
0.000324314
0.0003236
0.000321785
0.000318882
0.000314897
0.000309824
0.000303652
0.000296359
0.000287919
0.000278292
0.00026743
0.000255273
0.000241741
0.000226734
0.000210117
0.000191711
0.000171268
0.000148448
0.000122794
9.37997e-05
6.14813e-05
2.94544e-05
1.67349e-05
5.42378e-05
9.57621e-05
0.000133804
0.000167058
0.000195651
0.000220062
0.000240826
0.000258436
0.00027332
0.000285834
0.000296272
0.000304869
0.000311817
0.000317265
0.000321333
0.000324112
0.000325672
0.000326066
0.000325331
0.00032349
0.000320558
0.000316538
0.000311427
0.000305211
0.000297869
0.000289374
0.000279686
0.000268757
0.000256525
0.000242912
0.000227817
0.000211108
0.000192608
0.000172074
0.000149166
0.000123432
9.43574e-05
6.19323e-05
2.97541e-05
1.69729e-05
5.47329e-05
9.65216e-05
0.000134802
0.000168255
0.00019701
0.00022155
0.000242413
0.0002601
0.00027504
0.000287596
0.000298062
0.000306678
0.000313636
0.000319088
0.000323153
0.000325924
0.000327472
0.000327849
0.000327092
0.000325227
0.000322265
0.000318212
0.000313061
0.000306801
0.000299411
0.000290859
0.000281109
0.00027011
0.000257802
0.000244104
0.000228918
0.000212112
0.000193513
0.00017288
0.00014988
0.000124062
9.4906e-05
6.23768e-05
3.00471e-05
1.72146e-05
5.52327e-05
9.72868e-05
0.000135806
0.000169461
0.00019838
0.00022305
0.000244015
0.000261779
0.000276778
0.000289377
0.000299873
0.000308509
0.000315479
0.000320935
0.000324999
0.000327764
0.0003293
0.000329662
0.000328885
0.000326994
0.000324004
0.000319917
0.000314728
0.000308424
0.000300983
0.000292375
0.000282561
0.000271491
0.000259103
0.000245318
0.000230036
0.000213129
0.000194423
0.000173685
0.000150587
0.00012468
9.54422e-05
6.28121e-05
3.03321e-05
1.74599e-05
5.57373e-05
9.80581e-05
0.000136818
0.000170677
0.00019976
0.000224562
0.00024563
0.000263474
0.000278533
0.000291176
0.000301705
0.000310363
0.000317346
0.000322808
0.000326872
0.000329631
0.000331157
0.000331503
0.000330707
0.000328792
0.000325773
0.000321653
0.000316425