/*--------------------------------*- C++ -*----------------------------------*\
  =========                 |
  \\      /  F ield         | OpenFOAM: The Open Source CFD Toolbox
   \\    /   O peration     | Website:  https://openfoam.org
    \\  /    A nd           | Version:  10
     \\/     M anipulation  |
\*---------------------------------------------------------------------------*/
FoamFile
{
    format      ascii;
    class       volScalarField;
    location    "12000/gas";
    object      O2;
}
// * * * * * * * * * * * * * * * * * * * * * * * * * * * * * * * * * * * * * //

dimensions      [0 0 0 0 0 0 0];

internalField   nonuniform List<scalar> 
16000
(
9.39017e-50
8.77107e-50
2.05411e-49
5.22012e-51
1.37404e-47
5.41316e-48
6.12835e-48
4.37036e-49
3.83895e-46
8.69052e-47
4.631e-47
3.7321e-48
7.67124e-45
1.18385e-45
4.80652e-46
4.20896e-47
7.73606e-44
1.64759e-44
5.67711e-45
5.67581e-46
6.39563e-43
2.27143e-43
7.07362e-44
7.06985e-45
7.18148e-42
2.53297e-42
8.42988e-43
4.58698e-44
7.25863e-41
2.61722e-41
7.22686e-42
4.2954e-43
6.25358e-40
2.50452e-40
8.07795e-41
4.56674e-42
5.38945e-39
3.06671e-39
9.58656e-40
7.04411e-41
4.35727e-38
2.85184e-38
9.08004e-39
4.78772e-40
3.42052e-37
2.53657e-37
7.95971e-38
4.05888e-39
3.18885e-36
2.79795e-36
8.41692e-37
4.1551e-38
3.47161e-35
2.30902e-35
6.62689e-36
3.50937e-37
4.17262e-34
1.88547e-34
4.99317e-35
2.86653e-36
3.42684e-33
2.14701e-33
3.72631e-34
3.402e-35
3.74266e-32
2.47065e-32
5.00517e-33
3.18915e-34
4.12837e-31
2.33219e-31
4.25939e-32
2.68548e-33
3.54376e-30
2.30563e-30
4.86969e-31
2.1091e-32
4.06592e-29
2.54865e-29
3.52279e-30
2.07139e-31
4.53534e-28
3.23268e-28
3.97232e-29
2.60092e-30
4.91959e-27
3.50162e-27
4.29945e-28
3.09484e-29
4.69681e-26
3.20302e-26
5.31992e-27
2.36877e-28
5.17457e-25
2.83466e-25
5.05661e-26
3.26011e-27
5.39533e-24
2.46965e-24
5.21086e-25
4.36319e-26
5.60973e-23
2.43156e-23
7.66274e-24
5.12565e-25
4.43906e-22
2.0342e-22
7.0325e-23
4.73915e-24
4.51666e-21
2.11072e-21
5.93211e-22
3.37609e-23
4.67407e-20
2.60603e-20
4.61881e-21
3.01992e-22
3.5983e-19
1.95757e-19
6.33439e-20
4.86779e-21
4.17084e-18
2.63674e-18
1.05667e-18
8.9607e-20
4.99116e-17
3.79524e-17
1.89325e-17
8.66006e-19
3.77596e-16
3.17041e-16
1.92441e-16
1.60355e-17
4.81888e-15
4.48842e-15
2.86967e-15
1.54463e-16
6.24926e-14
6.80912e-14
5.69649e-14
3.53579e-15
7.95916e-13
1.03797e-12
1.17384e-12
1.19025e-13
9.8394e-12
1.57286e-11
2.48168e-11
5.56767e-12
1.16105e-10
2.33527e-10
5.34728e-10
3.2435e-10
1.27101e-09
3.30986e-09
1.15878e-08
2.1033e-08
1.22399e-08
4.2462e-08
2.4398e-07
1.43496e-06
0.21
0.21
0.21
0.21
0.21
0.21
0.21
0.21
0.21
0.21
0.21
0.21
0.21
0.21
0.21
0.21
0.21
0.21
0.21
0.21
0.21
0.21
0.21
0.21
0.21
0.21
0.21
0.21
0.21
0.21
0.21
0.21
0.21
0.21
0.21
0.21
0.21
0.21
0.21
0.21
0.21
0.21
0.21
0.21
0.21
0.21
0.21
0.21
0.21
0.21
0.21
0.21
0.21
0.21
0.21
0.21
0.21
0.21
0.21
0.21
0.21
0.21
0.21
0.21
0.21
0.21
0.21
0.21
0.21
0.21
0.21
0.21
0.21
0.21
0.21
0.21
0.21
0.21
0.21
0.21
0.21
0.21
0.21
0.21
0.21
0.21
0.21
0.21
0.21
0.21
0.21
0.21
0.21
0.21
0.21
0.21
0.21
0.21
0.21
0.21
0.21
0.21
0.21
0.21
0.21
0.21
0.21
0.21
0.21
0.21
0.21
0.21
0.21
0.21
0.21
0.21
0.21
0.21
0.21
0.21
0.21
0.21
0.21
0.21
0.21
0.21
0.21
0.21
0.21
0.21
0.21
0.21
0.21
0.21
0.21
0.21
0.21
0.21
0.21
0.21
0.21
0.21
0.21
0.21
0.21
0.21
0.21
0.21
0.21
0.21
0.21
0.21
0.21
0.21
0.21
0.21
0.21
0.21
0.21
0.21
0.21
0.21
0.21
0.21
0.21
0.21
0.21
0.21
0.21
0.21
0.21
0.21
0.21
0.21
0.21
0.21
0.21
0.21
0.21
0.21
0.21
0.21
0.21
0.21
0.21
0.21
0.21
0.21
0.21
0.21
0.21
0.21
0.21
0.21
0.21
0.21
0.21
0.21
0.21
0.21
0.21
0.21
0.21
0.21
0.21
0.21
0.21
0.21
0.21
0.21
0.21
0.21
0.21
0.21
0.21
0.21
0.21
0.21
0.21
0.21
0.21
0.21
0.21
0.21
0.21
0.21
0.21
0.21
0.21
0.21
0.21
0.21
0.21
0.21
0.21
0.21
0.21
0.21
0.21
0.21
0.21
0.21
0.21
0.21
0.21
0.21
0.21
0.21
0.21
0.21
0.21
0.21
0.21
0.21
0.21
0.21
0.21
0.21
0.21
0.21
0.21
0.21
0.21
0.21
0.21
0.21
0.21
0.21
0.21
0.21
0.21
0.21
0.21
0.21
0.21
0.21
0.21
0.21
0.21
0.21
0.21
0.21
0.21
0.21
0.21
0.21
0.21
0.21
0.21
0.21
0.21
0.21
0.21
0.21
0.21
0.21
0.21
0.21
0.21
0.21
0.21
0.21
0.21
0.21
0.21
0.21
0.21
0.21
0.21
0.21
0.21
0.21
0.21
0.21
0.21
0.21
0.21
0.21
0.21
0.21
0.21
0.21
0.21
0.21
0.21
0.21
0.21
0.21
0.21
0.21
0.21
0.21
0.21
0.21
0.21
0.21
0.21
0.21
0.21
0.21
0.21
0.21
0.21
0.21
0.21
0.21
0.21
0.21
0.21
0.21
0.21
0.21
0.21
0.21
0.21
0.21
0.21
0.21
0.21
0.21
0.21
0.21
0.21
0.21
0.21
0.21
0.21
0.21
0.21
0.21
0.21
0.21
0.21
0.21
0.21
0.21
0.21
0.21
0.21
0.21
0.21
0.21
0.21
0.21
0.21
0.21
0.21
0.21
0.21
0.21
0.21
0.21
0.21
0.21
0.21
0.21
0.21
0.21
0.21
0.21
0.21
0.21
0.21
0.21
0.21
0.21
0.21
0.21
0.21
0.21
0.21
0.21
0.21
0.21
0.21
0.21
0.21
0.21
0.21
0.21
0.21
0.21
0.21
0.21
0.21
0.21
0.21
0.21
0.21
0.21
0.21
0.21
0.21
0.21
0.21
0.21
0.21
0.21
0.21
0.21
0.21
0.21
0.21
0.21
0.21
0.21
0.21
0.21
0.21
0.21
0.21
0.21
0.21
0.21
0.21
0.21
0.21
0.21
0.21
0.21
0.21
0.21
0.21
0.21
0.21
0.21
0.21
0.21
0.21
0.21
0.21
0.21
0.21
0.21
0.21
0.21
0.21
0.21
0.21
0.21
0.21
0.21
0.21
0.21
0.21
0.21
0.21
0.21
0.21
0.21
0.21
0.21
0.21
0.21
0.21
0.21
0.21
0.21
0.21
0.21
0.21
0.21
0.21
0.21
0.21
0.21
0.21
0.21
0.21
0.21
0.21
0.21
0.21
0.21
0.21
0.21
0.21
0.21
0.21
0.21
0.21
0.21
0.21
0.21
0.21
0.21
0.21
0.21
0.21
0.21
0.21
0.21
0.21
0.21
0.21
0.21
0.21
0.21
0.21
0.21
0.21
0.21
0.21
0.21
0.21
0.21
0.21
0.21
0.21
0.21
0.21
0.21
0.21
0.21
0.21
0.21
0.21
0.21
0.21
0.21
0.21
0.21
0.21
0.21
0.21
0.21
0.21
0.21
0.21
0.21
0.21
0.21
0.21
0.21
0.21
0.21
0.21
0.21
0.21
0.21
0.21
0.21
0.21
0.21
0.21
0.21
0.21
0.21
0.21
0.21
0.21
0.21
0.21
0.21
0.21
0.21
0.21
0.21
0.21
0.21
0.21
0.21
0.21
0.21
0.21
0.21
0.21
0.21
0.21
0.21
0.21
0.21
0.21
0.21
0.21
0.21
0.21
0.21
0.21
0.21
0.21
0.21
0.21
0.21
0.21
0.21
0.21
0.21
0.21
0.21
0.21
0.21
0.21
0.21
0.21
0.21
0.21
0.21
0.21
0.21
0.21
0.21
0.21
0.21
0.21
0.21
0.21
0.21
0.21
0.21
0.21
0.21
0.21
0.21
0.21
0.21
0.21
0.21
0.21
0.21
0.21
0.21
0.21
0.21
0.21
0.21
0.21
0.21
0.21
0.21
0.21
0.21
0.21
0.21
0.21
0.21
0.21
0.21
0.21
0.21
0.21
0.21
0.21
0.21
0.21
0.21
0.21
0.21
0.21
0.21
0.21
0.21
0.21
0.21
0.21
0.21
0.21
0.21
0.21
0.21
0.21
0.21
0.21
0.21
0.21
0.21
0.21
0.21
0.21
0.21
0.21
0.21
0.21
0.21
0.21
0.21
0.21
0.21
0.21
0.21
0.21
0.21
0.21
0.21
0.21
0.21
0.21
0.21
0.21
0.21
0.21
0.21
0.21
0.21
0.21
0.21
0.21
0.21
0.21
0.21
0.21
0.21
0.21
0.21
0.21
0.21
0.21
0.21
0.21
0.21
0.21
0.21
0.21
0.21
0.21
0.21
0.21
0.21
0.21
0.21
0.21
0.21
0.21
0.21
0.21
0.21
0.21
0.21
0.21
0.21
0.21
0.21
0.21
0.21
0.21
0.21
0.21
0.21
0.21
0.21
0.21
0.21
0.21
0.21
0.21
0.21
0.21
0.21
0.21
0.21
0.21
0.21
0.21
0.21
0.21
0.21
0.21
0.21
0.21
0.21
0.21
0.21
0.21
0.21
0.21
0.21
0.21
0.21
0.21
0.21
0.21
0.21
0.21
0.21
0.21
0.21
0.21
0.21
0.21
0.21
0.21
0.21
0.21
0.21
0.21
0.21
0.21
0.21
0.21
0.21
0.21
0.21
0.21
0.21
0.21
0.21
0.21
0.21
0.21
0.21
0.21
0.21
0.21
0.21
0.21
0.21
0.21
0.21
0.21
0.21
0.21
0.21
0.21
0.21
0.21
0.21
0.21
0.21
0.21
0.21
0.21
0.21
0.21
0.21
0.21
0.21
0.21
0.21
0.21
0.21
0.21
0.21
0.21
0.21
0.21
0.21
0.21
0.21
0.21
0.21
0.21
0.21
0.21
0.21
0.21
0.21
0.21
0.21
0.21
0.21
0.21
0.21
0.21
0.21
0.21
0.21
0.21
0.21
0.21
0.21
0.21
0.21
0.21
0.21
0.21
0.21
0.21
0.21
0.21
0.21
0.21
0.21
0.21
0.21
0.21
0.21
0.21
0.21
0.21
0.21
0.21
0.21
0.21
0.21
0.21
0.21
0.21
0.21
0.21
0.21
0.21
0.21
0.21
0.21
0.21
0.21
0.21
0.21
0.21
0.21
0.21
0.21
0.21
0.21
0.21
0.21
0.21
0.21
0.21
0.21
0.21
0.21
0.21
0.21
0.21
0.21
0.21
0.21
0.21
0.21
0.21
0.21
0.21
0.21
0.21
0.21
0.21
0.21
0.21
0.21
0.21
0.21
0.21
0.21
0.21
0.21
0.21
0.21
0.21
0.21
0.21
0.21
0.21
0.21
0.21
0.21
0.21
0.21
0.21
0.21
0.21
0.21
0.21
0.21
0.21
0.21
0.21
0.21
0.21
0.21
0.21
0.21
0.21
0.21
0.21
0.21
0.21
0.21
0.21
0.21
0.21
0.21
0.21
0.21
0.21
0.21
0.21
0.21
0.21
0.21
0.21
0.21
0.21
0.21
0.21
0.21
0.21
0.21
0.21
0.21
0.21
0.21
0.21
0.21
0.21
0.21
0.21
0.21
0.21
0.21
0.21
0.21
0.21
0.21
0.21
0.21
0.21
0.21
0.21
0.21
0.21
0.21
0.21
0.21
0.21
0.21
0.21
0.21
0.21
0.21
0.21
0.209999
0.209999
0.209999
0.209999
0.209999
0.209999
0.209999
0.209999
0.21
0.21
0.21
0.21
0.21
0.21
0.21
0.21
0.21
0.21
0.21
0.21
0.21
0.21
0.21
0.21
0.21
0.21
0.21
0.21
0.21
0.209999
0.209999
0.209999
0.209999
0.209999
0.209999
0.209999
0.209999
0.209999
0.209999
0.209999
0.209999
0.209999
0.209999
0.21
0.21
0.21
0.21
0.21
0.21
0.21
0.21
0.21
0.21
0.21
0.21
0.21
0.21
0.21
0.21
0.21
0.209999
0.209998
0.209998
0.209997
0.209997
0.209997
0.209998
0.209998
0.209998
0.209998
0.209998
0.209999
0.209999
0.209999
0.209999
0.209999
0.209999
0.209999
0.21
0.21
0.21
0.21
0.21
0.21
0.21
0.21
0.21
0.21
0.21
0.21
0.21
0.209998
0.209996
0.209994
0.209993
0.209994
0.209994
0.209995
0.209995
0.209996
0.209996
0.209997
0.209997
0.209998
0.209998
0.209998
0.209999
0.209999
0.209999
0.209999
0.209999
0.21
0.21
0.21
0.21
0.21
0.21
0.21
0.21
0.21
0.21
0.21
0.21
0.209987
0.209981
0.20998
0.209981
0.209984
0.209986
0.209989
0.20999
0.209992
0.209993
0.209994
0.209995
0.209996
0.209997
0.209997
0.209998
0.209998
0.209999
0.209999
0.209999
0.209999
0.209999
0.21
0.21
0.21
0.21
0.21
0.21
0.21
0.21
0.21
0.21
0.209887
0.209904
0.209927
0.209946
0.20996
0.209969
0.209976
0.209981
0.209985
0.209988
0.20999
0.209992
0.209994
0.209995
0.209996
0.209997
0.209997
0.209998
0.209998
0.209999
0.209999
0.209999
0.209999
0.21
0.21
0.21
0.21
0.21
0.21
0.21
0.21
0.21
0.208893
0.209496
0.209742
0.209848
0.209902
0.209933
0.209952
0.209964
0.209973
0.209979
0.209984
0.209987
0.20999
0.209992
0.209994
0.209995
0.209996
0.209997
0.209998
0.209998
0.209999
0.209999
0.209999
0.209999
0.21
0.21
0.21
0.21
0.21
0.21
0.21
0.21
0.1996
0.199336
0.199099
0.198885
0.198682
0.198484
0.198289
0.198094
0.197899
0.197704
0.197508
0.19731
0.197112
0.196912
0.196712
0.196511
0.196309
0.196108
0.195907
0.195706
0.195507
0.195309
0.195112
0.194917
0.194725
0.194535
0.194349
0.194166
0.193986
0.193811
0.193641
0.193475
0.193316
0.193162
0.193014
0.192872
0.192738
0.192611
0.192492
0.192389
0.199509
0.199274
0.199053
0.198847
0.198649
0.198454
0.198261
0.198068
0.197875
0.19768
0.197484
0.197287
0.197089
0.19689
0.196689
0.196488
0.196287
0.196085
0.195884
0.195683
0.195483
0.195285
0.195088
0.194893
0.1947
0.19451
0.194323
0.194139
0.193959
0.193783
0.193611
0.193444
0.193283
0.193127
0.192977
0.192832
0.192693
0.19256
0.192433
0.19232
0.199418
0.199194
0.198984
0.198787
0.198594
0.198404
0.198214
0.198023
0.197832
0.197638
0.197444
0.197247
0.19705
0.196851
0.19665
0.19645
0.196248
0.196047
0.195845
0.195644
0.195444
0.195245
0.195048
0.194853
0.194659
0.194469
0.194281
0.194097
0.193916
0.193739
0.193567
0.1934
0.193238
0.193081
0.192929
0.192784
0.192645
0.192513
0.19239
0.192286
0.199322
0.199107
0.198905
0.198714
0.198526
0.19834
0.198153
0.197965
0.197775
0.197584
0.19739
0.197195
0.196998
0.1968
0.1966
0.196399
0.196198
0.195997
0.195796
0.195595
0.195395
0.195196
0.194998
0.194803
0.19461
0.194419
0.194231
0.194047
0.193866
0.193689
0.193517
0.193349
0.193187
0.193031
0.19288
0.192735
0.192597
0.192466
0.192343
0.192236
0.199227
0.199017
0.19882
0.198634
0.198451
0.198268
0.198084
0.197898
0.19771
0.19752
0.197328
0.197134
0.196938
0.19674
0.196541
0.196341
0.196141
0.19594
0.195739
0.195538
0.195338
0.19514
0.194943
0.194747
0.194554
0.194364
0.194176
0.193992
0.193812
0.193636
0.193464
0.193297
0.193135
0.192979
0.192829
0.192685
0.192549
0.192419
0.192297
0.192194
0.199131
0.198925
0.198733
0.19855
0.19837
0.19819
0.198009
0.197825
0.197639
0.197451
0.19726
0.197067
0.196872
0.196675
0.196477
0.196278
0.196078
0.195877
0.195677
0.195477
0.195278
0.19508
0.194883
0.194688
0.194496
0.194306
0.194119
0.193936
0.193756
0.193581
0.19341
0.193244
0.193083
0.192928
0.192779
0.192637
0.192501
0.192372
0.192252
0.192149
0.199036
0.198833
0.198644
0.198464
0.198287
0.198109
0.19793
0.197749
0.197564
0.197378
0.197188
0.196996
0.196802
0.196606
0.196409
0.196211
0.196011
0.195812
0.195612
0.195413
0.195215
0.195017
0.194821
0.194628
0.194436
0.194247
0.194061
0.193879
0.1937
0.193526
0.193356
0.193191
0.193032
0.192878
0.19273
0.192588
0.192454
0.192326
0.192207
0.192106
0.198942
0.198742
0.198555
0.198377
0.198202
0.198027
0.19785
0.19767
0.197487
0.197302
0.197114
0.196923
0.19673
0.196535
0.196339
0.196142
0.195943
0.195745
0.195546
0.195348
0.19515
0.194954
0.194759
0.194566
0.194376
0.194188
0.194003
0.193822
0.193644
0.193471
0.193302
0.193139
0.19298
0.192828
0.192681
0.19254
0.192407
0.19228
0.192162
0.192062
0.198849
0.198651
0.198466
0.198291
0.198118
0.197944
0.197768
0.19759
0.197409
0.197225
0.197038
0.196848
0.196657
0.196463
0.196268
0.196071
0.195874
0.195677
0.195479
0.195282
0.195085
0.19489
0.194696
0.194504
0.194315
0.194128
0.193945
0.193765
0.193589
0.193416
0.193249
0.193087
0.19293
0.192778
0.192632
0.192493
0.192361
0.192235
0.192118
0.192019
0.198758
0.198561
0.198379
0.198204
0.198033
0.197861
0.197686
0.19751
0.19733
0.197147
0.196961
0.196773
0.196583
0.19639
0.196196
0.196001
0.195805
0.195608
0.195412
0.195215
0.19502
0.194826
0.194634
0.194443
0.194255
0.19407
0.193887
0.193708
0.193533
0.193363
0.193197
0.193036
0.19288
0.192729
0.192585
0.192446
0.192315
0.192191
0.192075
0.191977
0.198667
0.198473
0.198292
0.198119
0.197949
0.197778
0.197605
0.197429
0.197251
0.197069
0.196885
0.196698
0.196509
0.196317
0.196124
0.19593
0.195735
0.19554
0.195344
0.19515
0.194956
0.194763
0.194571
0.194382
0.194195
0.194011
0.19383
0.193653
0.193479
0.19331
0.193145
0.192985
0.19283
0.192681
0.192537
0.1924
0.19227
0.192146
0.192031
0.191934
0.198578
0.198385
0.198206
0.198034
0.197865
0.197696
0.197524
0.19735
0.197172
0.196992
0.196809
0.196623
0.196435
0.196245
0.196053
0.19586
0.195666
0.195472
0.195278
0.195084
0.194891
0.1947
0.19451
0.194322
0.194136
0.193954
0.193774
0.193598
0.193425
0.193257
0.193094
0.192936
0.192782
0.192633
0.192491
0.192355
0.192225
0.192102
0.191988
0.191892
0.19849
0.198299
0.198121
0.197951
0.197783
0.197614
0.197444
0.197271
0.197094
0.196915
0.196733
0.196549
0.196362
0.196173
0.195982
0.19579
0.195598
0.195405
0.195212
0.19502
0.194828
0.194638
0.194449
0.194263
0.194078
0.193897
0.193719
0.193544
0.193373
0.193205
0.193044
0.192886
0.192734
0.192586
0.192445
0.192309
0.192181
0.192059
0.191946
0.191851
0.198404
0.198214
0.198037
0.197868
0.197701
0.197534
0.197364
0.197192
0.197017
0.196839
0.196658
0.196475
0.196289
0.196101
0.195912
0.195721
0.19553
0.195338
0.195147
0.194956
0.194765
0.194576
0.194389
0.194204
0.194021
0.193841
0.193664
0.19349
0.19332
0.193155
0.192994
0.192838
0.192686
0.19254
0.192399
0.192265
0.192137
0.192016
0.191903
0.191809
0.198318
0.19813
0.197954
0.197786
0.197621
0.197454
0.197286
0.197115
0.196941
0.196764
0.196584
0.196402
0.196217
0.196031
0.195842
0.195653
0.195463
0.195273
0.195082
0.194892
0.194704
0.194516
0.19433
0.194146
0.193964
0.193786
0.19361
0.193438
0.193269
0.193104
0.192945
0.19279
0.192639
0.192494
0.192354
0.192221
0.192093
0.191973
0.191862
0.191768
0.198234
0.198047
0.197873
0.197706
0.197541
0.197376
0.197209
0.197039
0.196866
0.19669
0.196511
0.19633
0.196146
0.195961
0.195774
0.195586
0.195397
0.195208
0.195019
0.19483
0.194643
0.194456
0.194272
0.194089
0.193909
0.193731
0.193557
0.193386
0.193218
0.193055
0.192897
0.192742
0.192593
0.192448
0.19231
0.192177
0.19205
0.191931
0.19182
0.191727
0.198151
0.197966
0.197792
0.197626
0.197463
0.197299
0.197132
0.196963
0.196792
0.196617
0.196439
0.196259
0.196077
0.195892
0.195706
0.195519
0.195332
0.195144
0.194956
0.194769
0.194582
0.194397
0.194214
0.194033
0.193854
0.193677
0.193504
0.193334
0.193168
0.193006
0.192849
0.192696
0.192547
0.192404
0.192266
0.192134
0.192008
0.191889
0.191779
0.191687
0.198068
0.197885
0.197713
0.197548
0.197385
0.197222
0.197057
0.196889
0.196718
0.196544
0.196368
0.196189
0.196007
0.195824
0.19564
0.195454
0.195267
0.195081
0.194894
0.194708
0.194523
0.194339
0.194157
0.193977
0.193799
0.193625
0.193453
0.193284
0.193119
0.192958
0.192802
0.19265
0.192502
0.192359
0.192222
0.192091
0.191966
0.191848
0.191738
0.191646
0.197987
0.197805
0.197634
0.19747
0.197309
0.197147
0.196982
0.196816
0.196646
0.196473
0.196298
0.19612
0.195939
0.195757
0.195574
0.195389
0.195204
0.195019
0.194833
0.194648
0.194465
0.194282
0.194101
0.193922
0.193746
0.193572
0.193402
0.193234
0.19307
0.19291
0.192755
0.192604
0.192457
0.192315
0.192179
0.192048
0.191924
0.191806
0.191697
0.191606
0.197907
0.197727
0.197557
0.197394
0.197233
0.197072
0.196909
0.196743
0.196574
0.196403
0.196228
0.196051
0.195872
0.195691
0.195509
0.195325
0.195141
0.194957
0.194773
0.194589
0.194407
0.194226
0.194046
0.193868
0.193693
0.193521
0.193351
0.193185
0.193022
0.192863
0.19271
0.192559
0.192413
0.192272
0.192137
0.192007
0.191883
0.191766
0.191657
0.191566
0.197828
0.197649
0.19748
0.197318
0.197159
0.196999
0.196836
0.196671
0.196504
0.196333
0.19616
0.195984
0.195806
0.195626
0.195445
0.195263
0.19508
0.194897
0.194714
0.194531
0.19435
0.19417
0.193992
0.193815
0.193641
0.19347
0.193302
0.193136
0.192975
0.192817
0.192664
0.192515
0.19237
0.192229
0.192094
0.191965
0.191842
0.191725
0.191617
0.191527
0.19775
0.197572
0.197404
0.197244
0.197085
0.196926
0.196765
0.196601
0.196434
0.196264
0.196092
0.195917
0.19574
0.195562
0.195382
0.195201
0.195019
0.194837
0.194655
0.194474
0.194294
0.194115
0.193938
0.193763
0.19359
0.19342
0.193252
0.193088
0.192928
0.192771
0.192619
0.192471
0.192326
0.192187
0.192053
0.191924
0.191801
0.191685
0.191577
0.191488
0.197672
0.197496
0.19733
0.19717
0.197013
0.196854
0.196694
0.196531
0.196365
0.196197
0.196025
0.195852
0.195676
0.195498
0.195319
0.195139
0.194959
0.194778
0.194597
0.194417
0.194238
0.194061
0.193885
0.193711
0.193539
0.19337
0.193204
0.193041
0.192882
0.192726
0.192575
0.192427
0.192284
0.192145
0.192012
0.191883
0.191761
0.191645
0.191538
0.191449
0.197596
0.197421
0.197256
0.197097
0.196941
0.196783
0.196624
0.196462
0.196297
0.19613
0.19596
0.195787
0.195612
0.195436
0.195258
0.195079
0.194899
0.19472
0.19454
0.194362
0.194184
0.194007
0.193833
0.19366
0.193489
0.193321
0.193156
0.192994
0.192836
0.192681
0.192531
0.192384
0.192242
0.192104
0.191971
0.191843
0.191721
0.191606
0.191499
0.19141
0.19752
0.197347
0.197183
0.197026
0.19687
0.196714
0.196555
0.196394
0.19623
0.196064
0.195895
0.195723
0.195549
0.195374
0.195197
0.195019
0.194841
0.194662
0.194484
0.194307
0.19413
0.193955
0.193781
0.193609
0.19344
0.193273
0.193109
0.192948
0.192791
0.192637
0.192488
0.192342
0.1922
0.192063
0.191931
0.191803
0.191682
0.191567
0.19146
0.191371
0.197445
0.197274
0.197111
0.196954
0.1968
0.196644
0.196487
0.196327
0.196164
0.195999
0.19583
0.19566
0.195487
0.195313
0.195137
0.19496
0.194783
0.194606
0.194429
0.194252
0.194077
0.193902
0.19373
0.193559
0.193391
0.193225
0.193062
0.192903
0.192746
0.192593
0.192445
0.1923
0.192159
0.192023
0.191891
0.191764
0.191643
0.191528
0.191421
0.191333
0.197371
0.197202
0.19704
0.196884
0.196731
0.196576
0.19642
0.196261
0.196099
0.195934
0.195767
0.195597
0.195426
0.195253
0.195078
0.194902
0.194726
0.19455
0.194374
0.194198
0.194024
0.193851
0.193679
0.19351
0.193343
0.193178
0.193016
0.192858
0.192702
0.19255
0.192403
0.192259
0.192119
0.191983
0.191851
0.191725
0.191604
0.19149
0.191383
0.191295
0.197298
0.19713
0.196969
0.196815
0.196662
0.196509
0.196353
0.196195
0.196034
0.195871
0.195704
0.195536
0.195365
0.195193
0.195019
0.194845
0.19467
0.194495
0.19432
0.194145
0.193972
0.1938
0.19363
0.193461
0.193295
0.193132
0.192971
0.192813
0.192659
0.192508
0.192362
0.192218
0.192079
0.191943
0.191813
0.191687
0.191566
0.191452
0.191345
0.191257
0.197226
0.197059
0.196899
0.196746
0.196594
0.196442
0.196287
0.19613
0.19597
0.195808
0.195643
0.195475
0.195305
0.195134
0.194962
0.194788
0.194614
0.19444
0.194266
0.194093
0.193921
0.19375
0.193581
0.193413
0.193248
0.193086
0.192926
0.192769
0.192616
0.192465
0.19232
0.192178
0.192039
0.191904
0.191774
0.191649
0.191528
0.191414
0.191308
0.191219
0.197154
0.196989
0.196831
0.196678
0.196527
0.196376
0.196222
0.196066
0.195907
0.195746
0.195581
0.195415
0.195246
0.195076
0.194905
0.194732
0.194559
0.194386
0.194213
0.194041
0.19387
0.1937
0.193532
0.193366
0.193202
0.19304
0.192882
0.192726
0.192573
0.192424
0.19228
0.192138
0.192
0.191866
0.191736
0.191611
0.191491
0.191377
0.19127
0.191182
0.197084
0.19692
0.196762
0.196611
0.196461
0.196311
0.196158
0.196003
0.195845
0.195684
0.195521
0.195356
0.195188
0.195019
0.194848
0.194677
0.194505
0.194333
0.194161
0.19399
0.19382
0.193651
0.193484
0.193319
0.193156
0.192995
0.192838
0.192683
0.192531
0.192383
0.192239
0.192098
0.191961
0.191828
0.191698
0.191574
0.191454
0.19134
0.191233
0.191145
0.197014
0.196851
0.196695
0.196545
0.196396
0.196246
0.196095
0.19594
0.195783
0.195624
0.195461
0.195297
0.19513
0.194962
0.194793
0.194622
0.194451
0.194281
0.19411
0.19394
0.193771
0.193603
0.193437
0.193273
0.193111
0.192951
0.192794
0.19264
0.19249
0.192342
0.1922
0.192059
0.191922
0.19179
0.191661
0.191537
0.191417
0.191303
0.191196
0.191107
0.196944
0.196783
0.196628
0.196479
0.196331
0.196183
0.196032
0.195879
0.195723
0.195564
0.195403
0.195239
0.195073
0.194906
0.194738
0.194568
0.194399
0.194229
0.194059
0.19389
0.193722
0.193555
0.19339
0.193227
0.193066
0.192907
0.192751
0.192598
0.192448
0.192302
0.19216
0.19202
0.191885
0.191752
0.191624
0.1915
0.191381
0.191267
0.19116
0.191071
0.196876
0.196716
0.196563
0.196414
0.196267
0.19612
0.19597
0.195817
0.195662
0.195505
0.195344
0.195182
0.195017
0.194851
0.194683
0.194515
0.194346
0.194177
0.194009
0.193841
0.193674
0.193508
0.193344
0.193182
0.193022
0.192864
0.192709
0.192557
0.192408
0.192262
0.192121
0.191982
0.191847
0.191716
0.191588
0.191464
0.191345
0.191231
0.191123
0.191034
0.196808
0.19665
0.196497
0.19635
0.196204
0.196057
0.195908
0.195757
0.195603
0.195446
0.195287
0.195125
0.194962
0.194796
0.19463
0.194463
0.194295
0.194127
0.193959
0.193792
0.193626
0.193462
0.193298
0.193137
0.192978
0.192821
0.192667
0.192516
0.192368
0.192223
0.192083
0.191945
0.19181
0.191679
0.191552
0.191429
0.19131
0.191195
0.191087
0.190997
0.196741
0.196584
0.196433
0.196287
0.196142
0.195996
0.195848
0.195697
0.195544
0.195388
0.19523
0.195069
0.194907
0.194742
0.194577
0.194411
0.194244
0.194077
0.19391
0.193744
0.193579
0.193416
0.193253
0.193093
0.192935
0.192779
0.192626
0.192475
0.192328
0.192184
0.192045
0.191907
0.191773
0.191643
0.191516
0.191394
0.191275
0.19116
0.191052
0.190961
0.196675
0.19652
0.196369
0.196224
0.19608
0.195935
0.195788
0.195638
0.195486
0.195331
0.195174
0.195014
0.194852
0.194689
0.194525
0.194359
0.194194
0.194028
0.193862
0.193697
0.193533
0.19337
0.193209
0.19305
0.192892
0.192737
0.192585
0.192435
0.192289
0.192145
0.192007
0.19187
0.191737
0.191607
0.191481
0.191359
0.19124
0.191125
0.191016
0.190925
0.196609
0.196455
0.196306
0.196162
0.196019
0.195875
0.195729
0.19558
0.195429
0.195275
0.195118
0.19496
0.194799
0.194637
0.194473
0.194309
0.194144
0.193979
0.193814
0.19365
0.193487
0.193325
0.193165
0.193007
0.19285
0.192696
0.192545
0.192396
0.19225
0.192107
0.19197
0.191834
0.191701
0.191572
0.191446
0.191324
0.191206
0.191091
0.190981
0.190889
0.196544
0.196392
0.196244
0.196101
0.195959
0.195816
0.19567
0.195523
0.195372
0.195219
0.195064
0.194906
0.194746
0.194585
0.194422
0.194259
0.194095
0.193931
0.193767
0.193604
0.193442
0.193281
0.193122
0.192964
0.192809
0.192655
0.192505
0.192357
0.192212
0.19207
0.191933
0.191797
0.191666
0.191537
0.191412
0.19129
0.191172
0.191057
0.190947
0.190853
0.19648
0.196329
0.196182
0.19604
0.195899
0.195757
0.195613
0.195466
0.195316
0.195164
0.19501
0.194853
0.194694
0.194533
0.194372
0.194209
0.194046
0.193883
0.193721
0.193558
0.193397
0.193237
0.193079
0.192922
0.192768
0.192615
0.192465
0.192318
0.192174
0.192033
0.191896
0.191762
0.19163
0.191502
0.191377
0.191256
0.191138
0.191023
0.190912
0.190817
9.01019e-08
4.17193e-07
4.19968e-06
9.24968e-05
4.2299e-07
1.91327e-06
1.75787e-05
0.00028655
1.43759e-06
5.91138e-06
4.68092e-05
0.000508397
3.94919e-06
1.45962e-05
9.36299e-05
0.00070351
9.30478e-06
2.93701e-05
0.000148471
0.000839846
1.86866e-05
4.95922e-05
0.00020725
0.000933466
3.25856e-05
7.5454e-05
0.000268796
0.00100699
5.15012e-05
0.000106669
0.000330432
0.00105862
7.56137e-05
0.000142728
0.000391651
0.00110586
0.000104911
0.000183192
0.000452639
0.00115369
0.000139202
0.000227671
0.000514021
0.00120587
0.000178299
0.000276056
0.000577109
0.00126683
0.000222003
0.000328378
0.000643452
0.00133859
0.000270201
0.00038486
0.00071413
0.0014175
0.000322832
0.000445492
0.000788222
0.00149411
0.000379684
0.000509818
0.00086396
0.00156476
0.000440449
0.000577314
0.000940282
0.00162713
0.000504685
0.000647262
0.0010156
0.00168008
0.000571772
0.000718724
0.00108831
0.0017229
0.000640946
0.000790691
0.00115728
0.00175691
0.00071135
0.00086219
0.00122182
0.0017837
0.000782115
0.000932364
0.00128168
0.00180492
0.000852418
0.00100053
0.00133685
0.00182184
0.000921553
0.00106621
0.00138754
0.00183536
0.000988883
0.00112897
0.00143397
0.00184612
0.00105396
0.00118863
0.00147645
0.00185461
0.00111633
0.00124489
0.00151508
0.00186113
0.00117578
0.00129783
0.00155032
0.00186566
0.00123208
0.00134724
0.00158185
0.00186796
0.00128501
0.00139298
0.00160984
0.00186758
0.00133453
0.00143521
0.00163466
0.00186547
0.00138065
0.00147403
0.00165626
0.00186053
0.00142335
0.00150938
0.0016744
0.00185224
0.00146256
0.00154117
0.00168906
0.001841
0.00149828
0.00156943
0.00170027
0.00182688
0.00153038
0.00159401
0.00170797
0.00181001
0.00155904
0.00161524
0.0017126
0.00179063
0.00158397
0.00163251
0.00171284
0.0017687
0.00160527
0.00164638
0.00171113
0.00174469
0.00162311
0.00165703
0.00170664
0.00171902
0.00163744
0.00166419
0.00169864
0.00169169
0.00164847
0.00166821
0.00168801
0.00166231
0.0016556
0.00166802
0.0016744
0.00163033
0.00165995
0.00166589
0.001658
0.00159568
0.00166
0.00166058
0.00163879
0.00155862
0.00165809
0.00165157
0.0016168
0.0015198
0.00165309
0.00163965
0.00159227
0.00147962
0.00164418
0.00162477
0.00156543
0.00143853
0.00163224
0.00160711
0.00153665
0.00139729
0.00161739
0.00158687
0.00150622
0.00135595
0.00159978
0.00156425
0.00147433
0.00131431
0.0015796
0.00153944
0.00144107
0.00127226
0.00155701
0.0015126
0.00140655
0.00122971
0.00153218
0.00148388
0.00137081
0.00118652
0.00150526
0.0014534
0.00133385
0.00114253
0.00147638
0.00142123
0.00129565
0.00109757
0.00144565
0.00138744
0.00125617
0.00105154
0.00141315
0.00135207
0.00121538
0.00100441
0.00137894
0.00131514
0.00117327
0.000956251
0.00134307
0.00127669
0.00112984
0.000907181
0.00130558
0.00123673
0.00108513
0.000857447
0.00126651
0.00119532
0.00103929
0.000807394
0.00122588
0.00115246
0.000992172
0.000756226
0.00118371
0.00110813
0.000943779
0.000704425
0.00113997
0.0010623
0.000894052
0.000652066
0.00109465
0.00101499
0.000843359
0.000600861
0.00104778
0.000966345
0.000792211
0.000551876
0.000999443
0.000916551
0.000740961
0.000505103
0.000949718
0.000865747
0.000689771
0.000460379
0.000898731
0.000814129
0.000639015
0.000418437
0.000846613
0.000761863
0.000588796
0.000378535
0.00079347
0.000709036
0.000539021
0.0003402
0.000739386
0.000655722
0.000489764
0.000303573
0.000684463
0.00060207
0.000441355
0.000269389
0.000628878
0.000548343
0.00039422
0.000237986
0.000572872
0.000494859
0.000348758
0.000209373
0.000516839
0.000442124
0.000305601
0.000184029
0.000461241
0.000390597
0.000264901
0.000160937
0.000406696
0.000340893
0.000227094
0.000140224
0.000353795
0.000293441
0.000192021
0.000120855
0.000303281
0.000248964
0.000160634
0.000105787
0.000255902
0.000208073
0.00013316
9.403e-05
0.000212432
0.000171382
0.000109891
8.599e-05
0.000173403
0.000139124
9.03973e-05
8.01237e-05
0.000139314
0.000111613
7.47591e-05
7.6815e-05
0.000110153
8.84098e-05
6.16737e-05
7.37445e-05
8.58986e-05
6.95748e-05
5.21906e-05
7.59287e-05
6.6266e-05
5.46017e-05
4.48277e-05
7.66386e-05
5.06527e-05
4.27357e-05
3.87256e-05
7.67887e-05
3.85525e-05
3.36869e-05
3.45722e-05
7.99807e-05
2.93263e-05
2.67486e-05
3.09524e-05
8.03541e-05
2.2338e-05
2.13802e-05
2.77862e-05
8.0384e-05
1.71351e-05
1.73605e-05
2.55065e-05
8.18926e-05
1.32657e-05
1.43293e-05
2.3839e-05
8.52022e-05
1.04243e-05
1.20633e-05
2.25313e-05
8.8512e-05
8.30643e-06
1.0301e-05
2.15757e-05
9.56169e-05
6.80313e-06
9.17861e-06
2.18804e-05
0.000106596
5.72519e-06
8.38907e-06
2.2298e-05
0.000118761
4.94577e-06
7.83124e-06
2.29552e-05
0.000133524
4.39903e-06
7.54218e-06
2.45016e-05
0.000157124
3.98671e-06
7.34302e-06
2.60717e-05
0.000181287
3.67527e-06
7.2532e-06
2.80758e-05
0.000211452
3.38848e-06
7.0712e-06
2.927e-05
0.000234363
3.10298e-06
6.84018e-06
3.0417e-05
0.000260328
2.87193e-06
6.70675e-06
3.20433e-05
0.000293023
2.62234e-06
6.51231e-06
3.41883e-05
0.000334927
2.45677e-06
6.56739e-06
3.70715e-05
0.000386698
2.36846e-06
6.77916e-06
4.11068e-05
0.000454068
2.29792e-06
6.95411e-06
4.50213e-05
0.000520737
2.21074e-06
7.21396e-06
5.05043e-05
0.000613684
2.24203e-06
7.7791e-06
5.87291e-05
0.000745083
2.24856e-06
8.34806e-06
6.72312e-05
0.000910023
2.29652e-06
9.00751e-06
7.70926e-05
0.00111893
2.38877e-06
1.0003e-05
9.13322e-05
0.00138658
2.52621e-06
1.12868e-05
0.000109304
0.00168419
2.71655e-06
1.29204e-05
0.000132093
0.00201051
2.96944e-06
1.49895e-05
0.00016087
0.00233973
3.2067e-06
1.69882e-05
0.000188799
0.00266959
3.44179e-06
1.90628e-05
0.000226815
0.00299394
3.76919e-06
2.1865e-05
0.000281313
0.00330616
0.00381152
0.00617911
0.00786001
0.0901433
0.00412613
0.00897098
0.0178172
0.0896584
0.00409263
0.00895559
0.0152559
0.0851788
0.00380954
0.00708205
0.00907306
0.0799654
0.0033242
0.00542024
0.00584825
0.074715
0.00295406
0.00459998
0.00525601
0.0688736
0.00270553
0.00412965
0.00489878
0.0595444
0.00249658
0.00387397
0.00489944
0.0488986
0.00242626
0.00382148
0.00518659
0.0396631
0.00240819
0.00391258
0.00590418
0.0317983
0.00243453
0.00417769
0.00695494
0.0242816
0.00250305
0.00435413
0.00689798
0.0177341
0.00257917
0.00434541
0.00642411
0.0126959
0.002632
0.00419801
0.00561095
0.00879849
0.00264432
0.00396955
0.0047611
0.0059951
0.00263352
0.00371449
0.00406024
0.00443797
0.00260635
0.00350346
0.00359228
0.00381378
0.00256451
0.00330016
0.00333774
0.003737
0.00251131
0.00309851
0.00310301