/*--------------------------------*- C++ -*----------------------------------*\
  =========                 |
  \\      /  F ield         | OpenFOAM: The Open Source CFD Toolbox
   \\    /   O peration     | Website:  https://openfoam.org
    \\  /    A nd           | Version:  10
     \\/     M anipulation  |
\*---------------------------------------------------------------------------*/
FoamFile
{
    format      ascii;
    class       volScalarField;
    location    "12000/gas";
    object      p_rgh;
}
// * * * * * * * * * * * * * * * * * * * * * * * * * * * * * * * * * * * * * //

dimensions      [1 -1 -2 0 0 0 0];

internalField   nonuniform List<scalar> 
16000
(
-0.141023
0.00926628
0.046272
0.115172
-0.089334
-0.00363549
0.0414078
0.115061
-0.057785
-0.0116761
0.0356542
0.112314
-0.0471056
-0.00917199
0.0311431
0.109646
-0.0396031
-0.00180593
0.0283259
0.107652
-0.0320809
0.00289333
0.0274272
0.106039
-0.0260892
0.00438091
0.0283037
0.104694
-0.0216011
0.00546182
0.0293632
0.103521
-0.0182195
0.00645793
0.0304416
0.102576
-0.0154869
0.0073086
0.0313451
0.101427
-0.0130888
0.00824347
0.0321786
0.100292
-0.0108245
0.00929922
0.032761
0.0991378
-0.00871545
0.0103478
0.0331834
0.0979785
-0.00671831
0.0114483
0.0335541
0.0968409
-0.00483652
0.0125765
0.0338608
0.0957278
-0.00310521
0.0136608
0.0341147
0.0946481
-0.00150793
0.0146981
0.034348
0.0936227
-5.80508e-05
0.0157242
0.034592
0.0926483
0.00127402
0.0166086
0.0347615
0.0917061
0.00253251
0.0175046
0.0350049
0.0908319
0.00369719
0.0183219
0.0352011
0.0898513
0.00479728
0.0191031
0.0354667
0.0890426
0.00584642
0.0198593
0.0356887
0.0882447
0.00679707
0.0204958
0.0359404
0.0874863
0.00767014
0.0210977
0.0360441
0.0865481
0.00859448
0.0217612
0.0363002
0.0857991
0.00951301
0.0224477
0.0365727
0.085055
0.0103499
0.0230036
0.0368962
0.0846254
0.0111697
0.0235856
0.0371287
0.0838771
0.0119443
0.0241307
0.0373897
0.0832836
0.0126712
0.0246348
0.0375978
0.0825825
0.0133869
0.025104
0.0377822
0.0819214
0.014039
0.0255411
0.037957
0.0812717
0.0146682
0.0259573
0.0381259
0.0806338
0.0152639
0.0263453
0.0382784
0.0800106
0.01584
0.0267168
0.0384291
0.0794033
0.0163757
0.0270522
0.0385331
0.0787877
0.0169379
0.0274024
0.0387113
0.0782562
0.0173996
0.0276496
0.038573
0.0775837
0.0181666
0.0280253
0.0391723
0.0772834
-0.0802704
-0.0389027
-0.0215954
-0.00132246
0.0166003
0.0328077
0.0477527
0.0616701
0.074732
0.0870761
0.0988106
0.110022
0.120779
0.13114
0.141153
0.150861
0.160299
0.169497
0.178484
0.187282
0.195911
0.20439
0.212733
0.220947
0.229041
0.237016
0.244861
0.252539
0.260018
0.267988
0.273309
0.284177
-0.080499
-0.035086
-0.0213368
-0.000676597
0.0169378
0.0329708
0.0478594
0.061766
0.0748312
0.0871821
0.0989226
0.110137
0.120896
0.131258
0.141271
0.150977
0.160413
0.169608
0.178591
0.187383
0.196006
0.204476
0.212807
0.22101
0.22909
0.237052
0.244896
0.252586
0.259961
0.268496
0.272713
0.284508
-0.0786652
-0.032057
-0.0206633
0.000286616
0.017521
0.0332956
0.0480467
0.0618797
0.0749061
0.0872373
0.0989677
0.110177
0.120931
0.131289
0.141297
0.150998
0.160427
0.169616
0.178591
0.187375
0.195989
0.204449
0.21277
0.220964
0.229038
0.236998
0.244855
0.252611
0.259784
0.268921
0.272365
0.284736
-0.0754806
-0.0296209
-0.0193061
0.00145015
0.0182831
0.0337685
0.0483228
0.0620234
0.0749638
0.0872404
0.098936
0.110122
0.12086
0.131205
0.141202
0.150894
0.160313
0.169492
0.178457
0.187232
0.195836
0.204288
0.212604
0.220796
0.228874
0.236842
0.244715
0.252615
0.259533
0.269203
0.272214
0.284817
-0.071483
-0.027178
-0.0174166
0.00280219
0.0192088
0.0343777
0.0486935
0.062219
0.0750354
0.0872257
0.0988615
0.110005
0.120713
0.131035
0.141014
0.15069
0.160096
0.169263
0.178217
0.186982
0.195578
0.204025
0.21234
0.220537
0.228628
0.236619
0.244537
0.252571
0.259257
0.2694
0.272179
0.285141
-0.0671251
-0.024667
-0.0152162
0.00432887
0.0202898
0.0351146
0.049159
0.0624762
0.075137
0.087213
0.0987652
0.109848
0.120511
0.130798
0.140751
0.150405
0.159794
0.168946
0.177888
0.186643
0.195233
0.203678
0.211997
0.220205
0.228318
0.236342
0.244321
0.252441
0.259027
0.269495
0.27212
0.285205
-0.0624961
-0.0220785
-0.0128246
0.00600774
0.0215086
0.0359677
0.0497159
0.0627984
0.0752773
0.0872143
0.0986611
0.109664
0.120266
0.130508
0.140425
0.150051
0.159418
0.168553
0.177482
0.186228
0.194814
0.203261
0.211588
0.219814
0.227954
0.236019
0.244056
0.252194
0.258894
0.269469
0.272091
0.285277
-0.0577336
-0.0193982
-0.0103033
0.00781301
0.0228447
0.0369242
0.0503586
0.0631866
0.0754624
0.0872396
0.0985618
0.109468
0.119996
0.130179
0.140051
0.149643
0.158983
0.168098
0.177012
0.18575
0.194335
0.202786
0.211126
0.219374
0.227547
0.235659
0.243754
0.251899
0.25877
0.269373
0.272059
0.285332
-0.0529373
-0.0166326
-0.00769773
0.00971817
0.0242784
0.037971
0.0510804
0.0636395
0.0756962
0.0872967
0.0984779
0.109273
0.119712
0.129827
0.139645
0.149195
0.158503
0.167595
0.176494
0.185224
0.193807
0.202266
0.210621
0.218895
0.227104
0.235266
0.243421
0.251591
0.258641
0.269209
0.272006
0.285354
-0.0481651
-0.013803
-0.00504144
0.0116989
0.0257911
0.0390952
0.0518738
0.0641547
0.0759803
0.0873909
0.0984176
0.109088
0.119428
0.129463
0.139219
0.14872
0.157992
0.167057
0.175939
0.18466
0.193243
0.20171
0.210083
0.218385
0.226632
0.234844
0.243055
0.251259
0.258489
0.269
0.271928
0.285351
-0.0434546
-0.0109331
-0.0023585
0.0137346
0.0273667
0.040285
0.0527312
0.0647286
0.0763149
0.0875256
0.0983869
0.108922
0.119151
0.129098
0.138784
0.148231
0.157461
0.166496
0.175358
0.184069
0.192652
0.201128
0.20952
0.217849
0.226135
0.234395
0.24266
0.250901
0.258293
0.268762
0.271825
0.285317
-0.0388322
-0.00804322
0.000333424
0.0158085
0.0289914
0.0415299
0.0536452
0.065357
0.0766991
0.0877027
0.0983902
0.10878
0.118892
0.128742
0.13835
0.147736
0.15692
0.165921
0.174761
0.18346
0.192041
0.200526
0.208936
0.217293
0.225616
0.233923
0.242239
0.250519
0.258058
0.268484
0.271698
0.285254
-0.0343161
-0.00515019
0.003021
0.017907
0.0306539
0.0428208
0.0546093
0.0660359
0.0771313
0.087923
0.0984304
0.108669
0.118654
0.128401
0.137925
0.147244
0.156377
0.16534
0.174155
0.18284
0.191418
0.19991
0.208337
0.216721
0.22508
0.23343
0.241794
0.250117
0.25779
0.268149
0.271553
0.28516
-0.0299172
-0.00226736
0.00569426
0.0200196
0.0323449
0.0441499
0.0556174
0.0667612
0.0776092
0.0881864
0.0985092
0.108591
0.118444
0.12808
0.137515
0.146762
0.155838
0.16476
0.173546
0.182215
0.190788
0.199285
0.207727
0.216136
0.224527
0.232919
0.241329
0.249695
0.25749
0.267807
0.271354
0.285035
-0.0256415
0.000595305
0.00834604
0.022138
0.0340573
0.0455108
0.0566643
0.0675291
0.0781308
0.088492
0.0986272
0.108548
0.118263
0.127785
0.137125
0.146295
0.15531
0.164187
0.172941
0.18159
0.190155
0.198654
0.20711
0.21554
0.223962
0.232392
0.240844
0.249253
0.257154
0.267451
0.27111
0.28488
-0.0214909
0.00343073
0.0109716
0.0242565
0.0357853
0.0468985
0.0577457
0.0683362
0.0786936
0.0888388
0.0987845
0.10854
0.118115
0.127517
0.136757
0.145846
0.154797
0.163623
0.172341
0.180968
0.189522
0.198021
0.206486
0.214935
0.223385
0.231849
0.24034
0.24879
0.256784
0.267071
0.27083
0.284694
-0.0174644
0.00623438
0.0135682
0.0263709
0.0375251
0.0483091
0.058858
0.0691795
0.0792955
0.0892253
0.0989806
0.10857
0.118
0.127279
0.136415
0.145418
0.1543
0.163073
0.171751
0.180352
0.188891
0.197387
0.205858
0.214323
0.222796
0.231292
0.239818
0.248307
0.256383
0.266667
0.270519
0.284476
-0.0135587
0.00900382
0.0161349
0.0284789
0.0392737
0.0497397
0.0599985
0.0700565
0.0799343
0.08965
0.0992145
0.108635
0.117918
0.12707
0.136099
0.145013
0.153821
0.162537
0.171172
0.179743
0.188264
0.196753
0.205228
0.213705
0.222198
0.230721
0.239279
0.247804
0.255954
0.266238
0.270178
0.284226
-0.00976828
0.0117385
0.0186722
0.0305795
0.0410299
0.0511884
0.0611652
0.0709652
0.0806082
0.0901115
0.0994852
0.108736
0.11787
0.126893
0.13581
0.144631
0.153363
0.162017
0.170605
0.179142
0.187641
0.19612
0.204595
0.21308
0.22159
0.230136
0.238723
0.247282
0.255497
0.265784
0.269812
0.283941
-0.00608639
0.0144395
0.0211822
0.032673
0.0427932
0.0526545
0.0623567
0.071904
0.0813156
0.0906081
0.0997913
0.108872
0.117854
0.126745
0.135549
0.144272
0.152924
0.161513
0.170051
0.17855
0.187024
0.195489
0.203959
0.21245
0.220972
0.229538
0.238151
0.246739
0.255014
0.265305
0.269414
0.28363
-0.00250483
0.0171095
0.0236681
0.0347611
0.0445643
0.0541377
0.0635723
0.072872
0.0820553
0.0911385
0.100131
0.10904
0.11787
0.126626
0.135313
0.143937
0.152504
0.161025
0.169508
0.177967
0.186412
0.194859
0.203322
0.211814
0.220345
0.228927
0.237561
0.246178
0.254504
0.264804
0.268981
0.283294
0.000985738
0.0197523
0.0261342
0.0368464
0.0463449
0.055639
0.0648122
0.0738684
0.0828261
0.0917013
0.100504
0.10924
0.117916
0.126535
0.135102
0.143623
0.152103
0.160552
0.168978
0.177391
0.185804
0.19423
0.202681
0.211171
0.219709
0.228303
0.236956
0.245597
0.25397
0.264281
0.268517
0.282929
0.00439566
0.0223733
0.0285862
0.0389327
0.0481377
0.0571598
0.0660768
0.0748932
0.0836273
0.0922953
0.100907
0.109471
0.11799
0.12647
0.134915
0.143329
0.15172
0.160093
0.168457
0.176822
0.1852
0.193601
0.202037
0.210521
0.219061
0.227666
0.236334
0.244996
0.25341
0.263737
0.268025
0.282536
0.00773633
0.0249793
0.0310306
0.0410248
0.049946
0.0587024
0.0673674
0.0759464
0.0844582
0.0929192
0.10134
0.109729
0.11809
0.126428
0.134748
0.143054
0.151351
0.159646
0.167945
0.176259
0.184597
0.19297
0.201389
0.209864
0.218403
0.227014
0.235695
0.244377
0.252827
0.26317
0.267503
0.282114
0.0110202
0.0275784
0.0334754
0.0431289
0.0517745
0.0602698
0.0686857
0.0770287
0.0853184
0.093572
0.101801
0.110013
0.118214
0.126409
0.134601
0.142795
0.150996
0.159209
0.167441
0.1757
0.183995
0.192337
0.200735
0.209198
0.217734
0.226348
0.235039
0.243737
0.252219
0.262581
0.266954
0.281662
0.0142611
0.0301804
0.0359298
0.0452519
0.0536284
0.0618657
0.0700335
0.0781406
0.0862074
0.0942522
0.102287
0.110321
0.118359
0.126408
0.13447
0.142549
0.150651
0.158779
0.166941
0.175142
0.183392
0.1917
0.200074
0.208522
0.217051
0.225666
0.234365
0.243078
0.251588
0.261968
0.266377
0.281182
0.017474
0.0327969
0.0384043
0.0474024
0.055514
0.0634942
0.0714134
0.079283
0.0871248
0.0949583
0.102797
0.110649
0.118523
0.126422
0.134351
0.142314
0.150313
0.158355
0.166443
0.174584
0.182786
0.191056
0.199403
0.207834
0.216354
0.224968
0.233672
0.242398
0.250933
0.261333
0.265772
0.280672
0.0206761
0.0354416
0.0409113
0.0495902
0.0574385
0.06516
0.0728278
0.0804564
0.0880698
0.0956885
0.103327
0.110996
0.118701
0.126449
0.134243
0.142085
0.149981
0.157932
0.165944
0.174023
0.182174
0.190405
0.198723
0.207134
0.215643
0.224253
0.23296
0.241696
0.250253
0.260673
0.26514
0.280133
0.0238868
0.0381312
0.0434653
0.0518265
0.0594099
0.0668682
0.074279
0.0816612
0.0890409
0.0964403
0.103875
0.111356
0.118891
0.126484
0.13414
0.14186
0.149649
0.157508
0.165442
0.173455
0.181554
0.189743
0.19803
0.206419
0.214914
0.223519
0.232227
0.240973
0.249549
0.259988
0.264479
0.279563
0.0271287
0.0408852
0.0460828
0.0541241
0.0614368
0.0686236
0.0757691
0.0828969
0.0900359
0.0972101
0.104436
0.111726
0.119086
0.126522
0.134038
0.141634
0.149314
0.157079
0.164933
0.17288
0.180923
0.189069
0.197322
0.205688
0.214168
0.222765
0.231473
0.240226
0.248819
0.259278
0.263791
0.278962
0.0304286
0.0437276
0.0487834
0.0564973
0.0635281
0.0704307
0.0772986
0.0841616
0.0910514
0.0979935
0.105006
0.1121
0.119283
0.126559
0.133932
0.141402
0.148972
0.156642
0.164414
0.172292
0.180279
0.18838
0.196598
0.204938
0.213401
0.221989
0.230696
0.239455
0.248063
0.258541
0.263074
0.278331
0.0338197
0.0466889
0.0515909
0.0589622
0.0656926
0.0722925
0.0788668
0.0854517
0.0920818
0.0987842
0.105577
0.112471
0.119474
0.126588
0.133817
0.14116
0.148618
0.156191
0.163881
0.171689
0.179619
0.187673
0.195856
0.204169
0.212614
0.221192
0.229896
0.23866
0.247281
0.257777
0.262328
0.277668
0.0373464
0.0498076
0.0545334
0.0615357
0.0679379
0.0742096
0.0804694
0.0867605
0.0931194
0.099574
0.106141
0.112832
0.119652
0.126604
0.133687
0.140902
0.148248
0.155724
0.163331
0.171069
0.17894
0.186947
0.195092
0.203378
0.211804
0.22037
0.22907
0.237838
0.246471
0.256985
0.261552
0.276972
0.0410681
0.0531331
0.057643
0.0642336
0.0702674
0.0761776
0.0820979
0.0880774
0.0941532
0.100352
0.106689
0.113174
0.11981
0.126598
0.133536
0.140623
0.147857
0.155236
0.16276
0.170427
0.178239
0.186198
0.194306
0.202563
0.210969
0.219523
0.228219
0.236989
0.245633
0.256164
0.260746
0.276243
0.0450702
0.0567292
0.0609556
0.0670674
0.0726775
0.0781849
0.0837375
0.0893867
0.0951677
0.101104
0.107208
0.113486
0.119938
0.126563
0.133357
0.140317
0.147441
0.154723
0.162164
0.169761
0.177515
0.185426
0.193495
0.201723
0.210108
0.21865
0.22734
0.236112
0.244765
0.255313
0.259908
0.275481
0.0494869
0.0606771
0.0645054
0.070037
0.0751509
0.0802081
0.0853634
0.0906653
0.0961432
0.101814
0.107685
0.113756
0.120026
0.12649
0.133143
0.139979
0.146993
0.154181
0.161539
0.169067
0.176763
0.184626
0.192657
0.200856
0.209221
0.217749
0.226432
0.235206
0.243868
0.254432
0.25904
0.274685
0.0545326
0.0650656
0.0683102
0.0731174
0.0776469
0.0822052
0.086939
0.091884
0.0970565
0.102463
0.108104
0.113974
0.120066
0.126373
0.132888
0.139602
0.14651
0.153605
0.160884
0.168343
0.175982
0.183798
0.191792
0.199961
0.208304
0.216819
0.225496
0.23427
0.242939
0.253519
0.258138
0.273854
0.0606192
0.0699756
0.0723467
0.0762336
0.0800893
0.0841146
0.0884177
0.0930074
0.0978805
0.103031
0.108449
0.114125
0.120047
0.126203
0.132585
0.139182
0.145987
0.152993
0.160194
0.167587
0.175169
0.182939
0.190896
0.199037
0.207359
0.215859
0.224529
0.233304
0.24198
0.252574
0.257204
0.272987
0.0682837
0.0752134
0.0764065
0.0792134
0.0823531
0.0858518
0.0897422
0.0939955
0.0985872
0.103497
0.108707
0.1142
0.11996
0.125974
0.132229
0.138715
0.145421
0.152341
0.159467
0.166796
0.174324
0.182049
0.189969
0.198081
0.206383
0.214869
0.223532
0.232306
0.240988
0.251596
0.256237
0.272085
0.0784132
0.0802975
0.0801958
0.0818576
0.0842946
0.0873241
0.0908546
0.0948112
0.0991517
0.103845
0.108864
0.114189
0.119799
0.12568
0.131817
0.138197
0.144809
0.151647
0.158702
0.165969
0.173445
0.181126
0.18901
0.197095
0.205375
0.213848
0.222503
0.231277
0.239964
0.250586
0.255236
0.271147
-0.000461576
-0.000227343
-0.000189014
-0.000156899
-0.000132317
-0.000111183
-9.15573e-05
-7.28755e-05
-5.50257e-05
-3.79632e-05
-2.16783e-05
-6.17632e-06
8.53416e-06
2.24455e-05
3.55517e-05
4.78484e-05
5.93336e-05
7.00084e-05
7.98781e-05
8.89537e-05
9.72534e-05
0.000104805
0.000111647
0.000117834
0.000123437
0.000128547
0.000133285
0.000137799
0.000142283
0.000146976
0.000152184
0.000158305
0.000165892
0.000175621
0.000188535
0.000206277
0.000232335
0.000281076
0.000303336
0.000611636
-0.000837735
-0.000556058
-0.000493214
-0.000431973
-0.000387118
-0.000350973
-0.000318945
-0.00028923
-0.000261046
-0.00023392
-0.000207588
-0.000181904
-0.000156792
-0.000132209
-0.000108134
-8.45537e-05
-6.14598e-05
-3.88418e-05
-1.66846e-05
5.03542e-06
2.63531e-05
4.73183e-05
6.79992e-05
8.84866e-05
0.000108899
0.000129389
0.000150151
0.000171432
0.000193543
0.000216885
0.000241967
0.000269474
0.000300373
0.000335857
0.000377729
0.000428742
0.000493529
0.000596707
0.000648579
0.00104297
-0.00120327
-0.000908494
-0.000820348
-0.000727548
-0.000658476
-0.000603771
-0.000556573
-0.000513759
-0.000473688
-0.000435332
-0.000398061
-0.000361496
-0.000325406
-0.000289651
-0.000254144
-0.000218828
-0.000183665
-0.000148622
-0.000113666
-7.8759e-05
-4.38486e-05
-8.86655e-06
2.6278e-05
6.17048e-05
9.75693e-05
0.000134072
0.00017147
0.000210092
0.000250359
0.000292813
0.00033816
0.000387341
0.000441674
0.000502838
0.000573277
0.000656643
0.000757246
0.000906799
0.000993119
0.00143664
-0.00151422
-0.00122535
-0.00112685
-0.00101553
-0.000927959
-0.000856189
-0.000793377
-0.00073616
-0.00068258
-0.000631322
-0.000581529
-0.000532651
-0.000484335
-0.000436352
-0.000388553
-0.000340836
-0.000293129
-0.000245375
-0.000197521
-0.000149508
-0.000101265
-5.27041e-05
-3.70885e-06
4.58696e-05
9.62235e-05
0.000147599
0.000200308
0.000254751
0.000311434
0.000371006
0.000434299
0.000502397
0.00057677
0.000659265
0.000752496
0.000860199
0.000983685
0.00116319
0.00125948
0.00171173
-0.00179284
-0.00151398
-0.00141212
-0.00128998
-0.00118929
-0.00110377
-0.00102731
-0.000956806
-0.000890337
-0.000826522
-0.000764411
-0.000703368
-0.000642963
-0.000582907
-0.000523005
-0.000463118
-0.000403147
-0.000343013
-0.000282641
-0.000221958
-0.000160874
-9.92836e-05
-3.70487e-05
2.60045e-05
9.0098e-05
0.000155513
0.000222604
0.000291819
0.000363727
0.00043904
0.000518658
0.000603723
0.000695735
0.000796562
0.000908858
0.00103607
0.00117385
0.00138533
0.00147082
0.00194002
-0.00204829
-0.00178006
-0.00167905
-0.00155058
-0.00144087
-0.00134468
-0.00125681
-0.00117464
-0.00109647
-0.001021
-0.000947286
-0.000874675
-0.00080271
-0.000731074
-0.000659543
-0.000587957
-0.000516198
-0.000444169
-0.000371784
-0.000298953
-0.000225578
-0.000151535
-7.66715e-05
-7.95002e-07
7.63372e-05
0.00015503
0.000235663
0.000318718
0.000404791
0.000494626
0.000589149
0.000689481
0.000797065
0.000913697
0.00104189
0.00118522
0.00132881
0.00157098
0.00163482
0.00212174
-0.00228684
-0.00202833
-0.00193065
-0.0017983
-0.00168257
-0.00157819
-0.00148089
-0.00138864
-0.00130002
-0.00121389
-0.0011294
-0.00104593
-0.000963041
-0.000880406
-0.000797801
-0.000715057
-0.000632046
-0.000548664
-0.000464815
-0.000380404
-0.000295324
-0.000209438
-0.000122589
-3.45709e-05
5.48724e-05
0.000146057
0.000239376
0.000335342
0.000434524
0.000537685
0.000645744
0.000759745
0.000881026
0.00101125
0.00115243
0.00130577
0.00146956
0.00170094
0.00178633
0.00225989
-0.00251254
-0.00226207
-0.00216971
-0.00203435
-0.00191488
-0.00180426
-0.00169922
-0.00159833
-0.00150047
-0.00140472
-0.00131034
-0.00121679
-0.00112366
-0.00103067
-0.000937606
-0.000844294
-0.000750599
-0.000656442
-0.000561711
-0.000466312
-0.000370136
-0.000273018
-0.000174839
-7.5369e-05
2.56558e-05
0.000128556
0.000233727
0.000341662
0.000452947
0.000568302
0.000688608
0.000814814
0.00094813
0.00109
0.00124192
0.00140479
0.00158114
0.00180285
0.00191126
0.00236345
-0.00272873
-0.0024826
-0.00239937
-0.00225984
-0.00213857
-0.00202328
-0.00191188
-0.00180361
-0.00169766
-0.00159327
-0.00148988
-0.00138705
-0.00128442
-0.00118176
-0.00107887
-0.000975613
-0.000871792
-0.000767468
-0.000662452
-0.00055666
-0.000449988
-0.000342298
-0.000233433
-0.000123182
-1.1289e-05
0.000102566
0.000218772
0.000337802
0.000460221
0.000586706
0.000718074
0.000855169
0.000999053
0.00115093
0.00131195
0.00148294
0.00166692
0.00188317
0.0020087
0.0024412
-0.00293766
-0.00269155
-0.00262181
-0.00247583
-0.00235457
-0.00223579
-0.00211917
-0.00200461
-0.00189157
-0.00177949
-0.00166792
-0.00155658
-0.00144518
-0.00133352
-0.00122145
-0.00110884
-0.000995604
-0.000881674
-0.000766958
-0.000651371
-0.000534813
-0.000417158
-0.000298248
-0.000177886
-5.58209e-05
6.82521e-05
0.000194707
0.000323992
0.000456635
0.000593262
0.000734612
0.000881418
0.00103459
0.00119511
0.00136384
0.00154146
0.00173061
0.00194374
0.00208107
0.00249634
-0.00313855
-0.00289888
-0.00282982
-0.00268656
-0.00256386
-0.00244235
-0.0023215
-0.00220158
-0.00208232
-0.00196338
-0.00184447
-0.00172536
-0.00160588
-0.00148588
-0.00136526
-0.00124394
-0.00112184
-0.000998916
-0.000875093
-0.000750304
-0.00062446
-0.000497448
-0.000369122
-0.000239296
-0.000107736
2.58447e-05
0.000161797
0.000300538
0.000442554
0.000588409
0.00073876
0.000894233
0.00105559
0.00122359
0.00139887
0.00158192
0.00177485
0.00198595
0.00213158
0.00253187
-0.00333256
-0.00310338
-0.00302802
-0.00289236
-0.00276766
-0.00264372
-0.00251937
-0.00239486
-0.00227016
-0.0021451
-0.00201954
-0.00189336
-0.00176646
-0.00163877
-0.00151023
-0.00138079
-0.00125041
-0.00111907
-0.000986723
-0.000853312
-0.000718767
-0.000582993
-0.000445861
-0.0003072
-0.000166799
-2.43906e-05
0.000120346
0.00026779
0.000418383
0.000572626
0.000731093
0.000894305
0.00106288
0.0012374
0.00141827
0.00160578
0.00180159
0.00201115
0.00216275
0.00254953
-0.00352177
-0.00330218
-0.00322208
-0.00309208
-0.00296654
-0.0028406
-0.00271329
-0.00258482
-0.00245533
-0.00232481
-0.00219326
-0.00206064
-0.00192695
-0.00179217
-0.00165629
-0.00151931
-0.00138122
-0.00124203
-0.00110172
-0.000960246
-0.000817571
-0.000673612
-0.000528263
-0.000381374
-0.000232756
-8.21702e-05
7.06731e-05
0.000226115
0.000384546
0.000546408
0.000712191
0.000882318
0.00105728
0.00123749
0.00142315
0.00161438
0.00181241
0.00202064
0.00217669
0.00255107
-0.00370722
-0.00349575
-0.00341289
-0.00328688
-0.00316108
-0.0030336
-0.00290378
-0.00277187
-0.00263814
-0.00250274
-0.00236577
-0.0022273
-0.00208739
-0.00194607
-0.00180341
-0.00165944
-0.00151419
-0.00136769
-0.00121995
-0.00107097
-0.00092071
-0.000769124
-0.000616124
-0.000461588
-0.000305351
-0.000147204
1.31091e-05
0.000175888
0.000341474
0.00051025
0.000682628
0.000858938
0.00103956
0.00122475
0.00141455
0.00160889
0.00180864
0.00201564
0.00217507
0.00253781
-0.00388958
-0.00368507
-0.0036007
-0.00347774
-0.00335197
-0.00322328
-0.00309131
-0.00295639
-0.00281891
-0.00267913
-0.00253726
-0.00239346
-0.00224784
-0.00210053
-0.00195161
-0.00180117
-0.00164927
-0.00149598
-0.00134133
-0.00118535
-0.00102803
-0.000869353
-0.000709246
-0.000547616
-0.000384327
-0.000219201
-5.20185e-05
0.000117481
0.00028959
0.000464633
0.000642959
0.000824797
0.00101044
0.0012
0.00139338
0.00159035
0.00179144
0.00199725
0.00215931
0.00251099
-0.00406938
-0.00387096
-0.00378587
-0.0036654
-0.00353981
-0.00341016
-0.00327634
-0.00313877
-0.00299794
-0.00285423
-0.00270793
-0.00255926
-0.00240843
-0.00225559
-0.0021009
-0.00194447
-0.00178641
-0.00162682
-0.00146576
-0.00130328
-0.0011394
-0.000974135
-0.000807437
-0.000639239
-0.000469436
-0.00029788
-0.000124389
5.12569e-05
0.000229305
0.000410027
0.000593702
0.000780493
0.000970589
0.001164
0.0013605
0.00155968
0.0017618
0.00196644
0.00213056
0.00247161
-0.00424712
-0.00405411
-0.0039688
-0.00385045
-0.00372514
-0.00359473
-0.00345931
-0.00331939
-0.00317557
-0.0030283
-0.00287797
-0.00272487
-0.00256925
-0.00241134
-0.00225132
-0.00208936
-0.0019256
-0.00176017
-0.00159316
-0.00142465
-0.00125469
-0.00108332
-0.000910518
-0.00073625
-0.000560438
-0.000382969
-0.000203695
-2.2435e-05
0.000161014
0.000346872
0.000535361
0.000726579
0.000920632
0.00111744
0.00131663
0.00151771
0.0017206
0.00192409
0.00208985
0.0024206
-0.0044232
-0.00423509
-0.00414989
-0.00403342
-0.00390845
-0.00377741
-0.0036406
-0.0034986
-0.00335208
-0.0032016
-0.0030476
-0.00289045
-0.00273045
-0.00256787
-0.00240294
-0.00223587
-0.00206684
-0.001896
-0.00172347
-0.00154938
-0.00137379
-0.00119676
-0.00101832
-0.000838453
-0.000657108
-0.00047421
-0.000289642
-0.000103264
8.50863e-05
0.000275585
0.000468398
0.00066357
0.000861134
0.00106092
0.00126247
0.00146514
0.00166862
0.00187098
0.00203803
0.00235873
-0.00459801
-0.00441439
-0.00432952
-0.00421474
-0.00409016
-0.00395862
-0.00382059
-0.00367673
-0.00352778
-0.00337439
-0.00321704
-0.00305618
-0.00289215
-0.00272528
-0.00255583
-0.00238404
-0.00221013
-0.00203428
-0.00185666
-0.00167739
-0.0014966
-0.00131435
-0.0011307
-0.000945666
-0.000759236
-0.000571359
-0.000381955
-0.000190919
1.87252e-06
0.000196554
0.000393245
0.00059194
0.000792613
0.00099502
0.00119862
0.00140264
0.00160653
0.0018078
0.00197586
0.00228672
-0.0047719
-0.00459245
-0.00450804
-0.00439483
-0.00427067
-0.00413873
-0.00399963
-0.00385409
-0.00370296
-0.0035469
-0.0033865
-0.00322224
-0.00305451
-0.00288368
-0.00271006
-0.00253392
-0.0023555
-0.00217502
-0.00199268
-0.00180864
-0.00162302
-0.00143595
-0.0012475
-0.00105772
-0.000866625
-0.000674192
-0.000480377
-0.00028511
-8.83025e-05
0.00011014
0.000310298
0.000512123
0.00071554
0.000920244
0.00112561
0.00133078
0.00153494
0.00173513
0.00190398
0.00220517
-0.00494517
-0.00476963
-0.0046858
-0.00457404
-0.00445033
-0.00431807
-0.00417803
-0.00403099
-0.00387786
-0.00371938
-0.00355619
-0.0033888
-0.00321767
-0.0030432
-0.00286572
-0.00268556
-0.00250298
-0.00231822
-0.00213152
-0.00194306
-0.001753
-0.00156149
-0.00136862
-0.00117447
-0.000979095
-0.000782499
-0.000584669
-0.000385566
-0.000185137
1.66719e-05
0.00021992
0.000424515
0.00063034
0.000837044
0.00104394
0.00125007
0.0014544
0.00165354
0.001823
0.00211464
-0.00511813
-0.00494627
-0.0048631
-0.0047527
-0.00462946
-0.00449696
-0.00435609
-0.0042077
-0.00405276
-0.00389206
-0.0037263
-0.00355604
-0.00338178
-0.00320394
-0.00302291
-0.00283903
-0.0026526
-0.0024639
-0.00227317
-0.00208063
-0.00188647
-0.00169086
-0.00149393
-0.00129578
-0.00109648
-0.000896091
-0.000694614
-0.000492043
-0.000288359
-8.35405e-05
0.000122446
0.000329474
0.000537398
0.000745827
0.000954029
0.00116095
0.00136535
0.00156351
0.00173343
0.00201562
-0.00529101
-0.00512269
-0.00504022
-0.00493112
-0.00480836
-0.00467569
-0.00453409
-0.00438448
-0.00422788
-0.00406516
-0.00389704
-0.00372413
-0.00354698
-0.00336604
-0.00318173
-0.00299441
-0.00280443
-0.00261207
-0.00241762
-0.00222132
-0.00202338
-0.001824
-0.00162334
-0.00142152
-0.00121865
-0.0010148
-0.000810012
-0.000604315
-0.000397715
-0.00019022
1.8178e-05
0.000227328
0.00043706
0.000646957
0.000856253
0.00106382
0.00126822
0.00146545
0.00163575
0.00190855
-0.00546408
-0.00529914
-0.00521742
-0.00510957
-0.00498732
-0.00485453
-0.00471228
-0.00456157
-0.00440347
-0.00423888
-0.00406859
-0.00389324
-0.00371342
-0.00352961
-0.00334227
-0.00315178
-0.00295851
-0.00276278
-0.00256489
-0.00236512
-0.0021637
-0.00196085
-0.00175676
-0.00155158
-0.00134545
-0.00113846
-0.000930682
-0.000722176
-0.000512975
-0.000303115
-9.26077e-05
0.000118372
0.00032964
0.000540763
0.000750955
0.000959027
0.00116336
0.00135975
0.00153035
0.00179383
-0.00563756
-0.00547589
-0.00539495
-0.00528831
-0.00516658
-0.00503373
-0.00489092
-0.00473921
-0.00457972
-0.00441342
-0.00424113
-0.00406353
-0.00388124
-0.00369478
-0.00350463
-0.00331121
-0.0031149
-0.00291605
-0.002715
-0.00251202
-0.0023074
-0.00210136
-0.00189413
-0.00168588
-0.00147677
-0.00126693
-0.00105646
-0.000845441
-0.000633931
-0.000421993
-0.00020966
2.87615e-06
0.000215422
0.000427541
0.000638438
0.000846884
0.0010511
0.00124673
0.00141756
0.00167181
-0.00581165
-0.00565317
-0.00557305
-0.00546757
-0.00534639
-0.00521353
-0.00507023
-0.00491762
-0.00475686
-0.00458899
-0.00441484
-0.00423516
-0.00405059
-0.00386168
-0.00366892
-0.00347278
-0.00327366
-0.00307194
-0.00286796
-0.00266203
-0.00245446
-0.0022455
-0.00203539
-0.00182434
-0.00161253
-0.00140011
-0.00118721
-0.000973945
-0.000760394
-0.000546648
-0.000332753
-0.000118917
9.46629e-05
0.000307554
0.000518972
0.000727666
0.000931731
0.00112668
0.00129771
0.00154278
-0.00598655
-0.0058312
-0.00575192
-0.00564758
-0.00552697
-0.00539414
-0.00525041
-0.00509699
-0.00493508
-0.00476575
-0.0045899
-0.00440829
-0.0042216
-0.00403041
-0.00383525
-0.0036366
-0.00343488
-0.00323049
-0.00302381
-0.00281516
-0.00260488
-0.00239323
-0.00218049
-0.00196688
-0.00175262
-0.00153787
-0.0013228
-0.00110754
-0.000892198
-0.000676891
-0.00046168
-0.000246787
-3.24077e-05
0.000181039
0.000392794
0.000601608
0.000805482
0.000999792
0.00117111
0.00140703
-0.00616245
-0.00601018
-0.00593177
-0.00582855
-0.00570853
-0.00557577
-0.00543169
-0.00527753
-0.00511456
-0.00494389
-0.00476645
-0.00458306
-0.00439441
-0.00420111
-0.00400372
-0.00380273
-0.00359861
-0.00339176
-0.00318258
-0.00297144
-0.00275866
-0.00254455
-0.0023294
-0.00211346
-0.00189697
-0.00168013
-0.00146312
-0.00124609
-0.00102919
-0.000812556
-0.000596258
-0.000380536
-0.000165583
4.82029e-05
0.000260103
0.000468902
0.000672537
0.000866249
0.00103804
0.00126483
-0.00633951
-0.0061903
-0.00611279
-0.00601068
-0.00589127
-0.00575863
-0.00561425
-0.00545942
-0.00529548
-0.00512357
-0.00494468
-0.00475963
-0.00456915
-0.0043739
-0.00417443
-0.00397128
-0.00376493
-0.00355581
-0.00334433
-0.00313087
-0.0029158
-0.00269944
-0.0024821
-0.00226404
-0.00204554
-0.00182682
-0.00160808
-0.0013895
-0.00117125
-0.000953494
-0.000736322
-0.000519987
-0.000304678
-9.07691e-05
0.000121075
0.000329705
0.00053304
0.000726205
0.000898685
0.00111643
-0.00651791
-0.00637174
-0.00629515
-0.00619414
-0.00607537
-0.00594289
-0.00579826
-0.00564285
-0.00547802
-0.00530497
-0.00512472
-0.00493813
-0.00474596
-0.00454888
-0.0043475
-0.00414235
-0.00393393
-0.0037227
-0.00350909
-0.00329352
-0.00307634
-0.00285791
-0.00263856
-0.00241859
-0.00219827
-0.00197786
-0.00175759
-0.00153766
-0.00131826
-0.00109958
-0.000881727
-0.000664979
-0.000449521
-0.000235705
-2.41289e-05
0.000184156
0.000387111
0.000579775
0.000753189
0.000962048
-0.00669781
-0.00655467
-0.00647904
-0.00637913
-0.00626102
-0.00612874
-0.00598393
-0.00582799
-0.00566235
-0.00548824
-0.00530673
-0.00511871
-0.00492497
-0.0047262
-0.00452303
-0.00431601
-0.00410568
-0.0038925
-0.00367694
-0.0034594
-0.00324029
-0.00301997
-0.0027988
-0.00257709
-0.00235514
-0.00213322
-0.0019116
-0.00169049
-0.00147012
-0.00125069
-0.00103234
-0.000815365
-0.000599952
-0.000386434
-0.000175343
3.24013e-05
0.000234869
0.000427052
0.000601614
0.000801885
-0.00687936
-0.00673927
-0.00666462
-0.00656581
-0.0064484
-0.00631636
-0.0061714
-0.00601499
-0.00584861
-0.00567354
-0.00549085
-0.0053015
-0.0051063
-0.00490596
-0.00470112
-0.00449238
-0.00428027
-0.00406529
-0.00384791
-0.00362857
-0.00340769
-0.00318565
-0.00296281
-0.00273953
-0.00251611
-0.00229286
-0.00207005
-0.00184793
-0.00162675
-0.00140674
-0.00118806
-0.000971017
-0.000755823
-0.000542795
-0.000332401
-0.000125411
7.64181e-05
0.000268096
0.000444006
0.000636101
-0.00706269
-0.00692568
-0.00685206
-0.00675435
-0.00663765
-0.0065059
-0.00636084
-0.00620403
-0.00603698
-0.00586101
-0.00567724
-0.00548665
-0.00529008
-0.00508827
-0.00488189
-0.00467154
-0.00445779
-0.00424114
-0.00402209
-0.00380109
-0.00357858
-0.00335496
-0.00313062
-0.00290592
-0.00268119
-0.00245676
-0.00223292
-0.00200994
-0.0017881
-0.00156765
-0.00134878
-0.00113182
-0.000917005
-0.000704646
-0.000495165
-0.000289187
-8.82285e-05
0.000102901
0.00028043
0.000464932
-0.00724797