/*--------------------------------*- C++ -*----------------------------------*\
  =========                 |
  \\      /  F ield         | OpenFOAM: The Open Source CFD Toolbox
   \\    /   O peration     | Website:  https://openfoam.org
    \\  /    A nd           | Version:  10
     \\/     M anipulation  |
\*---------------------------------------------------------------------------*/
FoamFile
{
    format      ascii;
    class       volScalarField;
    location    "12000/gas";
    object      PaSR:kappa;
}
// * * * * * * * * * * * * * * * * * * * * * * * * * * * * * * * * * * * * * //

dimensions      [0 0 0 0 0 0 0];

internalField   nonuniform List<scalar> 
16000
(
1
1
1
1
1
1
1
1
1
1
1
1
1
1
1
1
1
1
1
1
1
1
1
1
1
1
1
1
1
1
1
1
1
1
1
1
1
1
1
1
1
1
1
1
1
1
1
1
1
1
1
1
1
1
1
1
1
1
1
1
1
1
1
1
1
1
1
1
1
1
1
1
1
1
1
1
1
1
1
1
1
1
1
1
1
1
1
1
1
1
1
1
1
1
1
1
1
1
1
1
1
1
1
1
1
1
1
1
1
1
1
1
1
1
1
1
1
1
1
1
1
1
1
1
1
1
1
1
1
1
1
1
1
1
1
1
1
1
1
1
1
1
1
1
1
1
1
1
1
1
1
1
1
1
1
1
1
1
1
1
1
1
1
1
1
1
1
1
1
1
1
1
1
1
1
1
1
1
1
1
1
1
1
1
1
1
1
1
1
1
1
1
1
1
1
1
1
1
1
1
1
1
1
1
1
1
1
1
1
1
1
1
1
1
1
1
1
1
1
1
1
1
1
1
1
1
1
1
1
1
1
1
1
1
1
1
1
1
1
1
1
1
1
1
1
1
1
1
1
1
1
1
1
1
1
1
1
1
1
1
1
1
1
1
1
1
1
1
1
1
1
1
1
1
1
1
1
1
1
1
1
1
1
1
1
1
1
1
1
1
1
1
1
1
1
1
1
1
1
1
1
1
1
1
1
1
1
1
1
1
1
1
1
1
1
1
1
1
1
1
1
1
1
1
1
1
1
1
1
1
1
1
1
1
1
1
1
1
1
1
1
1
1
1
1
1
1
1
1
1
1
1
1
1
1
1
1
1
1
1
1
1
1
1
1
1
1
1
1
1
1
1
1
1
1
1
1
1
1
1
1
1
1
1
1
1
1
1
1
1
1
1
1
1
1
1
1
1
1
1
1
1
1
1
1
1
1
1
1
1
1
1
1
1
1
1
1
1
1
1
1
1
1
1
1
1
1
1
1
1
1
1
1
1
1
1
1
1
1
1
1
1
1
1
1
1
1
1
1
1
1
1
1
1
1
1
1
1
1
1
1
1
1
1
1
1
1
1
1
1
1
1
1
1
1
1
1
1
1
1
1
1
1
1
1
1
1
1
1
1
1
1
1
1
1
1
1
1
1
1
1
1
1
1
1
1
1
1
1
1
1
1
1
1
1
1
1
1
1
1
1
1
1
1
1
1
1
1
1
1
1
1
1
1
1
1
1
1
1
1
1
1
1
1
1
1
1
1
1
1
1
1
1
1
1
1
1
1
1
1
1
1
1
1
1
1
1
1
1
1
1
1
1
1
1
1
1
1
1
1
1
1
1
1
1
1
1
1
1
1
1
1
1
1
1
1
1
1
1
1
1
1
1
1
1
1
1
1
1
1
1
1
1
1
1
1
1
1
1
1
1
1
1
1
1
1
1
1
1
1
1
1
1
1
1
1
1
1
1
1
1
1
1
1
1
1
1
1
1
1
1
1
1
1
1
1
1
1
1
1
1
1
1
1
1
1
1
1
1
1
1
1
1
1
1
1
1
1
1
1
1
1
1
1
1
1
1
1
1
1
1
1
1
1
1
1
1
1
1
1
1
1
1
1
1
1
1
1
1
1
1
1
1
1
1
1
1
1
1
1
1
1
1
1
1
1
1
1
1
1
1
1
1
1
1
1
1
1
1
1
1
1
1
1
1
1
1
1
1
1
1
1
1
1
1
1
1
1
1
1
1
1
1
1
1
1
1
1
1
1
1
1
1
1
1
1
1
1
1
1
1
1
1
1
1
1
1
1
1
1
1
1
1
1
1
1
1
1
1
1
1
1
1
1
1
1
1
1
1
1
1
1
1
1
1
1
1
1
1
1
1
1
1
1
1
1
1
1
1
1
1
1
1
1
1
1
1
1
1
1
1
1
1
1
1
1
1
1
1
1
1
1
1
1
1
1
1
1
1
1
1
1
1
1
1
1
1
1
1
1
1
1
1
1
1
1
1
1
1
1
1
1
1
1
1
1
1
1
1
1
1
1
1
1
1
1
1
1
1
1
1
1
1
1
1
1
1
1
1
1
1
1
1
1
1
1
1
1
1
1
1
1
1
1
1
1
1
1
1
1
1
1
1
1
1
1
1
1
1
1
1
1
1
1
1
1
1
1
1
1
1
1
1
1
1
1
1
1
1
1
1
1
1
1
1
1
1
1
1
1
1
1
1
1
1
1
1
1
1
1
1
1
1
1
1
1
1
1
1
1
1
1
1
1
1
1
1
1
1
1
1
1
1
1
1
1
1
1
1
1
1
1
1
1
1
1
1
1
1
1
1
1
1
1
1
1
1
1
1
1
1
1
1
1
1
1
1
1
1
1
1
1
1
1
1
1
1
1
1
1
1
1
1
1
1
1
1
1
1
1
1
1
1
1
1
1
1
1
1
1
1
1
1
1
1
1
1
1
1
1
1
1
1
1
1
1
1
1
1
1
1
1
1
1
1
1
1
1
1
1
1
1
1
1
1
1
1
1
1
1
1
1
1
1
1
1
1
1
1
1
1
1
1
1
1
1
1
1
1
1
1
1
1
1
1
1
1
1
1
1
1
1
1
1
1
1
1
1
1
1
1
1
1
1
1
1
1
1
1
1
1
1
1
1
1
1
1
1
1
1
1
1
1
1
1
1
1
1
1
1
1
1
1
1
1
1
1
1
1
1
1
1
1
1
1
1
1
1
1
1
1
1
1
1
1
1
1
1
1
1
1
1
1
1
1
1
1
1
1
1
1
1
1
1
1
1
1
1
1
1
1
1
1
1
1
1
1
1
1
1
1
1
1
1
1
1
1
1
1
1
1
1
1
1
1
1
1
1
1
1
1
1
1
1
1
1
1
1
1
1
1
1
1
1
1
1
1
1
1
1
1
1
1
1
1
1
1
1
1
1
1
1
1
1
1
1
1
1
1
1
1
1
1
1
1
1
1
1
1
1
1
1
1
1
1
1
1
1
1
1
1
1
1
1
1
1
1
1
1
1
1
1
1
1
1
1
1
1
1
1
1
1
1
1
1
1
1
1
1
1
1
1
1
1
1
1
1
1
1
1
1
1
1
1
1
1
1
1
1
1
1
1
1
1
1
1
1
1
1
1
1
1
1
1
1
1
1
1
1
1
1
1
1
1
1
1
1
1
1
1
1
1
1
1
1
1
1
1
1
1
1
1
1
1
1
1
1
1
1
1
1
1
1
1
1
1
1
1
1
1
1
1
1
1
1
1
1
1
1
1
1
1
1
1
1
1
1
1
1
1
1
1
1
1
1
1
1
1
1
1
1
1
1
1
1
1
1
1
1
1
1
1
1
1
1
1
1
1
1
1
1
1
1
1
1
1
1
1
1
1
1
1
1
1
1
1
1
1
1
1
1
1
1
1
1
1
1
1
1
1
1
1
1
1
1
1
1
1
1
1
1
1
1
1
1
1
1
1
1
1
1
1
1
1
1
1
1
1
1
1
1
1
1
1
1
1
1
1
1
1
1
1
1
1
1
1
1
1
1
1
1
1
1
1
1
1
1
1
1
1
1
1
1
1
1
1
1
1
1
1
1
1
1
1
1
1
1
1
1
1
1
1
1
1
1
1
1
1
1
1
1
1
1
1
1
1
1
1
1
1
1
1
1
1
1
1
1
1
1
1
1
1
1
1
1
1
1
1
1
1
1
1
1
1
1
1
1
1
1
1
1
1
1
1
1
1
1
1
1
1
1
1
1
1
1
1
1
1
1
1
1
1
1
1
1
1
1
1
1
1
1
1
1
1
1
1
1
1
1
1
1
1
1
1
1
1
1
1
1
1
1
1
1
1
1
1
1
1
1
1
1
1
1
1
1
1
1
1
1
1
1
1
1
1
1
1
1
1
1
1
1
1
1
1
1
1
1
1
1
1
1
1
1
1
1
1
1
1
1
1
1
1
1
1
1
1
1
1
1
1
1
1
1
1
1
1
1
1
1
1
1
1
1
1
1
1
1
1
1
1
1
1
1
1
1
1
1
1
1
1
1
1
1
1
1
1
1
1
1
1
1
1
1
1
1
1
1
1
1
1
1
1
1
1
1
1
1
1
1
1
1
1
1
1
1
1
1
1
1
1
1
1
1
1
1
1
1
1
1
1
1
1
1
1
1
1
1
1
1
1
1
1
1
1
1
1
1
1
1
1
1
1
1
1
1
1
1
1
1
1
1
1
1
1
1
1
1
1
1
1
1
1
1
1
1
1
1
1
1
1
1
1
1
1
1
1
1
1
1
1
1
1
1
1
1
1
1
1
1
1
1
1
1
1
1
1
1
1
1
1
1
1
1
1
1
1
1
1
1
1
1
1
1
1
1
1
1
1
1
1
1
1
1
1
1
1
1
1
1
1
1
1
1
1
1
1
1
1
1
1
1
1
1
1
1
1
1
1
1
1
1
1
1
1
1
1
1
1
1
1
1
1
1
1
1
1
1
1
1
1
1
1
1
1
1
1
1
1
1
1
1
1
1
1
1
1
1
1
1
1
1
1
1
1
1
1
1
1
1
1
1
1
1
1
1
1
1
1
1
1
1
1
1
1
1
1
1
1
1
1
1
1
1
1
1
1
1
1
1
1
1
1
1
1
1
1
1
1
1
1
1
1
1
1
1
1
1
1
1
1
1
1
1
1
1
1
1
1
1
1
1
1
1
1
1
1
1
1
1
1
1
1
1
1
1
1
1
1
1
1
1
1
1
1
1
1
1
1
1
1
1
1
1
1
1
1
1
1
1
1
1
1
1
1
1
1
1
1
1
1
1
1
1
1
1
1
1
1
1
1
1
1
1
1
1
1
1
1
1
1
1
1
1
1
1
1
1
1
1
1
1
1
1
1
1
1
1
1
1
1
1
1
1
1
1
1
1
1
1
1
1
1
1
1
1
1
1
1
1
1
1
1
1
1
1
1
1
1
1
1
1
1
1
1
1
1
1
1
1
1
1
1
1
1
1
1
1
1
1
1
1
1
1
1
1
1
1
1
1
1
1
1
1
1
1
1
1
1
1
1
1
1
1
1
1
1
1
1
1
1
1
1
1
1
1
1
1
1
1
1
1
1
1
1
1
1
1
1
1
1
1
1
1
1
1
1
1
1
1
1
1
1
1
1
1
1
1
1
1
1
1
1
1
1
1
1
1
1
1
1
1
1
1
1
1
1
1
1
1
1
1
1
1
1
1
1
1
1
1
1
1
1
1
1
1
1
1
1
1
1
1
1
1
1
1
1
1
1
1
1
1
1
1
1
1
1
1
1
1
1
1
1
1
1
1
1
1
1
1
1
1
1
1
1
1
1
1
1
1
1
1
1
1
1
1
1
1
1
1
1
1
1
1
1
1
1
1
1
1
1
1
1
1
1
1
1
1
1
1
1
1
1
1
1
1
1
1
1
1
1
1
1
1
1
1
1
1
1
1
1
1
1
1
1
1
1
1
1
1
1
1
1
1
1
1
1
1
1
1
1
1
1
1
1
1
1
1
1
1
1
1
1
1
1
1
1
1
1
1
1
1
1
1
1
1
1
1
1
1
1
1
1
1
1
1
1
1
1
1
1
1
1
1
1
1
1
1
1
1
1
1
1
1
1
1
1
1
1
1
1
1
1
1
1
1
1
1
1
1
1
1
1
1
1
1
1
1
1
1
1
1
1
1
1
1
1
1
1
1
1
1
1
1
1
1
1
1
1
1
1
1
1
1
1
1
1
1
1
1
1
1
1
1
1
1
1
1
1
1
1
1
1
1
1
1
1
1
1
1
1
1
1
1
1
1
1
1
1
1
1
1
1
1
1
1
1
1
1
1
1
1
1
1
1
1
1
1
1
1
1
1
1
1
1
1
1
1
1
1
1
1
1
1
1
1
1
1
1
1
1
1
1
1
1
1
1
1
1
1
1
1
1
1
1
1
1
1
1
1
1
1
1
1
1
1
1
1
1
1
1
1
1
1
1
1
1
1
1
1
1
1
1
1
1
1
1
1
1
1
1
1
1
1
1
1
1
1
1
1
1
1
1
1
1
1
1
1
1
1
1
1
1
1
1
1
1
1
1
1
1
1
1
1
1
1
1
1
1
1
1
1
1
1
1
1
1
1
1
1
1
1
1
1
1
1
1
1
1
1
1
1
1
1
1
1
1
1
1
1
1
1
1
1
1
1
1
1
1
1
1
1
1
1
1
1
1
1
1
1
1
1
1
1
1
1
1
1
1
1
1
1
1
1
1
1
1
1
1
1
1
1
1
1
1
1
1
1
1
1
1
1
1
1
1
1
1
1
1
1
1
1
1
1
1
1
1
1
1
1
1
1
1
1
1
1
1
1
1
1
1
1
1
1
1
1
1
1
1
1
1
1
1
1
1
1
1
1
1
1
1
1
1
1
1
1
1
1
1
1
1
1
1
1
1
1
1
1
1
1
1
1
1
1
1
1
1
1
1
1
1
1
1
1
1
1
1
1
1
1
1
1
1
1
1
1
1
1
1
1
1
1
1
1
1
1
1
1
1
1
1
1
1
1
1
1
1
1
1
1
1
1
1
1
1
1
1
1
1
1
1
1
1
1
1
1
1
1
1
1
1
1
1
1
1
1
1
1
1
1
1
1
1
1
1
1
1
1
1
1
1
1
1
1
1
1
1
1
1
1
1
1
1
1
1
1
1
1
1
1
1
1
1
1
1
1
1
1
1
1
1
1
1
1
1
1
1
1
1
1
1
1
1
1
1
1
1
1
1
1
1
1
1
1
1
1
1
1
1
1
1
1
1
1
1
1
1
1
1
1
1
1
1
1
1
1
1
1
1
1
1
1
1
1
1
1
1
1
1
1
1
1
1
1
1
1
1
1
1
1
1
1
1
1
1
1
1
1
1
1
1
1
1
1
1
1
1
1
1
1
1
1
1
1
1
1
1
1
1
1
1
1
1
1
1
1
1
1
1
1
1
1
1
1
1
1
1
1
1
1
1
1
1
1
1
1
1
1
1
1
1
1
1
1
1
1
1
1
1
1
1
1
1
1
1
1
1
1
1
1
1
1
1
1
1
1
1
1
1
1
1
1
1
1
1
1
1
1
1
1
1
1
1
1
1
1
1
1
1
1
1
1
1
1
1
1
1
1
1
1
1
1
1
1
1
1
1
1
1
1
1
1
1
1
1
1
1
1
1
1
1
1
1
1
1
1
1
1
1
1
1
1
1
1
1
1
1
1
1
1
1
1
1
1
1
1
1
1
1
1
1
1
1
1
1
1
1
1
1
1
0.999999
1
1
1
0.999999
1
1
1
0.999998
1
1
1
0.999997
1
1
1
0.999995
1
1
1
0.999993
1
1
1
0.999989
1
1
0.999999
0.999983
1
1
0.999999
0.999975
1
1
0.999998
0.999964
1
1
0.999997
0.999949
1
1
0.999995
0.999929
1
0.999999
0.999993
0.999901
1
0.999999
0.999989
0.999865
0.999999
0.999998
0.999983
0.999819
0.999999
0.999996
0.999975
0.99976
0.999998
0.999994
0.999964
0.999686
0.999997
0.999991
0.999949
0.999596
0.999994
0.999987
0.999929
0.999488
0.999991
0.99998
0.999902
0.999362
0.999987
0.999971
0.999867
0.999217
0.99998
0.999958
0.999822
0.999058
0.999971
0.99994
0.999767
0.998882
0.999958
0.999917
0.9997
0.998689
0.999941
0.999887
0.99962
0.998484
0.999918
0.999849
0.999526
0.998265
0.999889
0.999801
0.999419
0.99804
0.999851
0.999743
0.9993
0.997818
0.999804
0.999675
0.99917
0.997611
0.999748
0.999595
0.999036
0.997419
0.999683
0.999507
0.998901
0.997246
0.999609
0.999411
0.998771
0.997091
0.999528
0.999313
0.998656
0.996961
0.999443
0.999216
0.998561
0.996852
0.999361
0.999129
0.998495
0.99679
0.999284
0.999055
0.998457
0.996732
0.999221
0.999003
0.998456
0.996683
0.999176
0.998977
0.998482
0.996571
0.999154
0.998977
0.998528
0.996341
0.999157
0.999003
0.998583
0.996001
0.999184
0.999053
0.998646
0.995548
0.999231
0.999117
0.99869
0.994722
0.999294
0.999191
0.998725
0.993895
0.999365
0.999267
0.998732
0.992517
0.999439
0.999339
0.998723
0.991151
0.999511
0.999404
0.998687
0.989534
0.999576
0.99946
0.998637
0.98747
0.999633
0.999508
0.998583
0.985311
0.999682
0.999547
0.998512
0.983453
0.999722
0.999574
0.998391
0.979857
0.999755
0.999594
0.998255
0.975492
0.999779
0.999599
0.99797
0.969267
0.999795
0.999593
0.997712
0.960146
0.999805
0.999571
0.997257
0.948531
0.999808
0.999539
0.996687
0.933255
0.999805
0.999485
0.995863
0.9094
0.999798
0.99942
0.994844
0.881392
0.999787
0.999334
0.993492
0.844486
0.999775
0.999252
0.99215
0.809434
0.999766
0.999168
0.990589
0.76859
0.999755
0.999073
0.988601
0.719295
0.999742
0.99892
0.985855
0.659693
0.999726
0.998781
0.982271
0.592432
0.999701
0.998579
0.977333
0.517205
0.999674
0.998321
0.971557
0.449555
0.999631
0.99797
0.963251
0.376352
0.99959
0.997481
0.950736
0.301515
0.999516
0.996865
0.935604
0.235516
0.999453
0.996111
0.916359
0.179759
0.999345
0.995
0.888196
0.134407
0.999202
0.993455
0.850781
0.101838
0.999011
0.991299
0.802094
0.0783627
0.998754
0.988268
0.740694
0.0620259
0.998458
0.984705
0.679387
0.050203
0.998112
0.980387
0.60477
0.0414763
0.997636
0.974243
0.515491
0.0349269
1
0.992398
0.243669
0.0605654
1
0.992203
0.0800137
0.0348299
1
0.997691
0.107657
0.0261331
1
0.999315
0.220419
0.0239366
1
0.999829
0.428821
0.0238682
1
0.999946
0.584988
0.0240709
1
0.999978
0.749267
0.0217467
1
0.999989
0.849594
0.0207782
1
0.999995
0.903995
0.0253794
1
0.999996
0.944842
0.0345724
1
0.999998
0.971569
0.0520102
1
0.999998
0.98212
0.078719
1
0.999999
0.987863
0.119116
1
0.999999
0.992227
0.185849
1
0.999999
0.994818
0.307122
1
0.999999
0.996303
0.425981
1
0.999999
0.997121
0.509833
1
0.999999
0.997499
0.575727
1
0.999999
0.997772
0.629063
1
0.999998
0.997856
0.667863
1
0.999998
0.997882
0.696282
1
0.999998
0.99786
0.718862
1
0.999997
0.997802
0.736563
1
0.999996
0.997714
0.748472
1
0.999994
0.997618
0.755392
1
0.999992
0.997407
0.755235
1
0.999989
0.997084
0.752551
1
0.999985
0.996685
0.74638
1
0.99998
0.996215
0.739145
1
0.999972
0.995679
0.730924
1
0.999962
0.995074
0.721087
1
0.99995
0.994414
0.709285
1
0.999935
0.993684
0.695646
1
0.999914
0.992813
0.672925
0.999999
0.999887
0.99182
0.653611
0.999999
0.99985
0.990596
0.624668
0.999998
0.999801
0.989118
0.590711
0.999998
0.999735
0.987325
0.55066
0.999996
0.999647
0.98509
0.503194
0.999994
0.999531
0.982368
0.454555
0.999991
0.999385
0.979725
0.420097
0.999986
0.999207
0.977226
0.386103
0.99998
0.998997
0.974722
0.359162
0.99997
0.998748
0.971553
0.321603
0.999957
0.99845
0.967292
0.279578
0.99994
0.998099
0.961789
0.238731
0.999915
0.997651
0.952894
0.197077
0.999882
0.99716
0.945936
0.166983
0.999839
0.996585
0.932846
0.133324
0.999783
0.99591
0.919792
0.113991
0.999712
0.995136
0.9046
0.0968931
0.999621
0.994237
0.885477
0.0805513
0.999507
0.993201
0.862558
0.0675139
0.999366
0.992032
0.836031
0.0572172
0.999196
0.990728
0.805541
0.0489522
0.998993
0.989288
0.771041
0.0423278
0.998757
0.9877
0.732383
0.0369677
0.998485
0.985928
0.689263
0.0325485
0.99818
0.983939
0.641036
0.0288628
0.997842
0.981624
0.587595
0.0257502
0.997472
0.978767
0.528452
0.0230816
0.997076
0.975617
0.474239
0.0207888
0.996682
0.972914
0.434808
0.0186131
0.996303
0.96975
0.389252
0.0168369
0.995906
0.963822
0.331978
0.0152556
0.99551
0.958066
0.275159
0.0138871
0.995021
0.947775
0.220379
0.0126895
0.994452
0.93488
0.176885
0.0116365
0.993799
0.918092
0.138846
0.0106828
0.992961
0.894516
0.105933
0.00979985
0.992043
0.869394
0.0868153
0.00904976
0.991093
0.842603
0.0730248
0.00841697
0.990054
0.811407
0.0615622
0.00786553
0.988761
0.771465
0.0508764
0.00735206
0.987173
0.725111
0.0427713
0.00688429
0.985235
0.672803
0.0364776
0.00646003
0.982759
0.613476
0.0314551
0.00607516
0.980152
0.559392
0.0273928
0.00572427
0.977666
0.511205
0.0240839
0.00540448
0.97373
0.454309
0.0212691
0.00510806
0.970059
0.393076
0.0189246
0.00483527
0.963345
0.33067
0.0168696
0.00458153
0.953393
0.264838
0.0151352
0.00434769
0.940888
0.211826
0.0136509
0.00413205
0.924559
0.166639
0.0123653
0.00393296
0.902602
0.12998
0.011258
0.00375049
0.86735
0.0934477
0.0101998
0.00357732
0.833592
0.0766828
0.00933381
0.00341748
0.795157
0.0635421
0.00860843
0.00327339
0.741861
0.05023
0.00792658
0.0031389
0.697508
0.0438541
0.00737736
0.00301669
0.649293
0.0359497
0.00686379
0.0029035
0.600757
0.0314613
0.00640473
0.00279724
0.535177
0.0264536
0.00597505
0.00269659
0.471592
0.0234506
0.00562321
0.00260532
0.397755
0.020783
0.0052983
0.0025199
0.323017
0.018038
0.00498746
0.00243572
0.260157
0.0161984
0.0047107
0.00235887
0.206418
0.0148882
0.00447525
0.00228774
0.155099
0.0132951
0.00424456
0.00222118
0.121041
0.0121798
0.00405138
0.00216139
0.0940639
0.0111385
0.00386171
0.00209103
0.0737039
0.0101667
0.00369023
0.00204405
0.059035
0.00933118
0.00353052
0.00199056
0.0481093
0.00860562
0.0033877
0.00194879
0.0401376
0.00798078
0.00326049
0.00190657
0.0339961
0.00741565
0.00311216
0.00186073
0.0290643
0.00686722
0.00300844
0.00181312
0.0252356
0.00643647
0.00292213
0.00178357
0.0222441
0.00608622
0.00283663
0.00175461
0.0199207
0.00580287
0.00275492
0.00172425
0.0179896
0.00552302
0.00268088
0.00169721
0.016293
0.0052323
0.00261114
0.00167194
0.0148047
0.00498061
0.00254806
0.00165008
0.0134969
0.00474827
0.00247633
0.0016286
0.0123551
0.00454979
0.00243734
0.00161301
0.0113616
0.0043744
0.00239538
0.00159969
0.0104889
0.004217
0.00235386
0.001589
0.00972398
0.00407577
0.00231868
0.00158096
0.00905112
0.003949
0.0022891
0.0015756
1
1
1
1
1
1
1
1
1
1
1
1
1
1
1
1
1
1
1
1
1
1
1
1
1
1
1
1
1
1
1
1
1
1
1
1
1
1
1
1
1
1
1
1
1
1
1
1
1
1
1
1
1
1
1
1
1
1
1
1
1
1
1
1
1
1
1
1
1
1
1
1
1
1
1
1
1
1
1
1
1
1
1
1
1
1
1
1
1
1
1
1
1
1
1
1
0.999996
1
1
1
1
1
1
1
1
1
1
1
1
1
1
1
1
1
1
1
1
1
1
1
1
1
1
1
1
1
1
1
0.999913
1
1
1
1
1
1
1
1
1
1
1
1
1
1
1
1
1
1
1
1
1
1
1
1
1
1
1
1
1
1
1
0.996789
1
1
1
1
1
1
1
1
1
1
1
1
1
1
1
1
1
1
1
1
1
1
1
1
1
1
1
1
1
1
1
0.463394
1
1
1
1
1
1
1
1
1
1
1
1
1
1
1
1
1
1
1
1
1
1
1
1
1
1
1
1
1
1
1
0.0351412
0.999993
1
1
1
1
1
1
1
1
1
1
1
1
1
1
1
1
1
1
1
1
1
1
1
1
1
1
1
1
1
1
0.020168
0.999811
1
1
1
1
1
1
1
1
1
1
1
1
1
1
1
1
1
1
1
1
1
1
1
1
1
1
1
1
1
1
0.0176572
0.998293
1
1
1
1
1
1
1
1
1
1
1
1
1
1
1
1
1
1
1
1
1
1
1
1
1
1
1
1
1
1
0.0171744
0.991746
1
1
1
1
1
1
1
1
1
1
1
1
1
1
1
1
1
1
1
1
1
1
1
1
1
1
1
1
1
1
0.0170844
0.970201
1
1
1
1
1
1
1
1
1
1
1
1
1
1
1
1
1
1
1
1
1
1
1
1
1
1
1
1
1
1
0.0165468
0.836906
0.999997
1
1
1
1
1
1
1
1
1
1
1
1
1
1
1
1
1
1
1
1
1
1
1
1
1
1
1
1
1
0.014264
0.168605
0.999929
1
1
1
1
1
1
1
1
1
1
1
1
1
1
1
1
1
1
1
1
1
1
1
1
1
1
1
1
1
0.0136469
0.0657273
0.999297
1
1
1
1
1
1
1
1
1
1
1
1
1
1
1
1
1
1
1
1
1
1
1
1
1
1
1
1
1
0.0129591
0.0201363
0.994549
1
1
1
1
1
1
1
1
1
1
1
1
1
1
1
1
1
1
1
1
1
1
1
1
1
1
1
1
1
0.0134566
0.015929
0.977378
0.999999
1
1
1
1
1
1
1
1
1
1
1
1
1
1
1
1
1
1
1
1
1
1
1
1
1
1
1
1
0.0147112
0.0145939
0.930188
0.999995
1
1
1
1
1
1
1
1
1
1
1
1
1
1
1
1
1
1
1
1
1
1
1
1
1
1
1
1
0.0160059
0.0134659
0.771936
0.999969
1
1
1
1
1
1
1
1
1
1
1
1
1
1
1
1
1
1
1
1
1
1
1
1
1
1
1
1
0.017112
0.0115574
0.303775
0.99977
1
1
1
1
1
1
1
1
1
1
1
1
1
1
1
1
1
1
1
1
1
1
1
1
1
1
1
1
0.0182003
0.0101534
0.123819
0.998742
1
1
1
1
1
1
1
1
1
1
1
1
1
1
1
1
1
1
1
1
1
1
1
1
1
1
1
1
0.0193854
0.00926486
0.0685818
0.995221
0.999999
1
1
1
1
1
1
1
1
1
1
1
1
1
1
1
1
1
1
1
1
1
1
1
1
1
1
1
0.0206211
0.00877534
0.0489701
0.986652
0.999998
1
1
1
1
1
1
1
1
1
1
1
1
1
1
1
1
1
1
1
1
1
1
1
1
1
1
1
0.0217433
0.00851607
0.0395339
0.969565
0.999991
1
1
1
1
1
1
1
1
1
1
1
1
1
1
1
1
1
1
1
1
1
1
1
1
1
1
1
0.0225957
0.00835385
0.0334161
0.935193
0.999972
1
1
1
1
1
1
1
1
1
1
1
1
1
1
1
1
1
1
1
1
1
1
1
1
1
1
1
0.0230122
0.00804408
0.0258907
0.800025
0.999893
1
1
1
1
1
1
1
1
1
1
1
1
1
1
1
1
1
1
1
1
1
1
1
1
1
1
1
0.0231411
0.00728912
0.0136239
0.578146
0.999606
1
1
1
1
1
1
1
1
1
1
1
1
1
1
1
1
1
1
1
1
1
1
1
1
1
1
1
0.0232286
0.00682796
0.0105082
0.254257
0.998499
0.999999
1
1
1
1
1
1
1
1
1
1
1
1
1
1
1
1
1
1
1
1
1
1
1
1
1
1
0.0232388
0.00656681
0.00911039
0.155213
0.995709
0.999998
1
1
1
1
1
1
1
1
1
1
1
1
1
1
1
1
1
1
1
1
1
1
1
1
1
1
0.0231846
0.00639398
0.00821044
0.0990751
0.989547
0.999994
1
1
1
1
1
1
1
1
1
1
1
1
1
1
1
1
1
1
1
1
1
1
1
1
1
1
0.0230398
0.00626509
0.00758418
0.0711036
0.978003
0.999985
1
1
1
1
1
1
1
1
1
1
1
1
1
1
1
1
1
1
1
1
1
1
1
1
1
1
0.022774
0.00616061
0.00714862
0.0563193
0.9591
0.999963
1
1
1
1
1
1
1
1
1
1
1
1
1
1
1
1
1
1
1
1
1
1
1
1
1
1
0.022258
0.00606758
0.00683047
0.0471015
0.930249
0.999917
1
1
1
1
1
1
1
1
1
1
1
1
1
1
1
1
1
1
1
1
1
1
1
1
1
1
0.0215714
0.00597446
0.00657981
0.0405451
0.887456
0.999826
1
1
1
1
1
1
1
1
1
1
1
1
1
1
1
1
1
1
1
1
1
1
1
1
1
1
0.0208721
0.00588228
0.00636449
0.0353286
0.823847
0.99965
1
1
1
1
1
1
1
1
1
1
1
1
1
1
1
1
1
1
1
1
1
1
1
1
1
1
0.0200936
0.00578433
0.00615674
0.0306752
0.72605
0.999294
0.999999
1
1
1
1
1
1
1
1
1
1
1
1
1
1
1
1
1
1
1
1
1
1
1
1
1
0.0191761
0.00566374
0.00591326
0.0257546
0.554318
0.998488
0.999998
1
1
1
1
1
1
1
1
1
1
1
1
1
1
1
1
1
1
1
1
1
1
1
1
1
0.0181601
0.00553227
0.00566852
0.0219591
0.423384
0.99693
0.999995
1
1
1
1
1
1
1
1
1
1
1
1
1
1
1
1
1
1
1
1
1
1
1
1
1
0.0169848
0.0053805
0.00533845
0.0171516
0.293836
0.993347
0.99999
1
1
1
1
1
1
1
1
1
1
1
1
1
1
1
1
1
1
1
1
1
1
1
1
1
0.0160798
0.00518323
0.00481393
0.0111618
0.191821
0.988769
0.999979
1
1
1
1
1
1
1
1
1
1
1
1
1
1
1
1
1
1
1
1
1
1
1
1
1
0.0152294
0.00497709
0.00442296
0.0091183
0.124215
0.978051
0.999956
1
1
1
1
1
1
1
1
1
1
1
1
1
1
1
1
1
1
1
1
1
1
1
1
1
0.0144446
0.00478893
0.00414362
0.00802947
0.0966438
0.959723
0.999912
1
1
1
1
1
1
1
1
1
1
1
1
1
1
1
1
1
1
1
1
1
1
1
1
1
0.0136414
0.00461661
0.00393684
0.00732645
0.0782019
0.941972
0.999841
1
1
1
1
1
1
1
1
1
1
1
1
1
1
1
1
1
1
1
1
1
1
1
1
1
0.0127657
0.00445401
0.00378141
0.00686958
0.0647037
0.91231
0.999721
0.999999
1
1
1
1
1
1
1
1
1
1
1
1
1
1
1
1
1
1
1
1
1
1
1
1
0.0120981
0.00431298
0.00365992
0.00652418
0.0548873
0.868019
0.999518
0.999999
1
1
1
1
1
1
1
1
1
1
1
1
1
1
1
1
1
1
1
1
1
1
1
1
0.0114879
0.00417669
0.00355698
0.00622862
0.0470268
0.807908
0.999172
0.999998
1
1
1
1
1
1
1
1
1
1
1
1
1
1
1
1
1
1
1
1
1
1
1
1
0.0108505
0.00406426
0.00346948
0.00597899
0.0412562
0.746594
0.998547
0.999996
1
1
1
1
1
1
1
1
1
1
1
1
1
1
1
1
1
1
1
1
1
1
1
1
0.010224
0.0039543
0.00338527
0.00575385
0.0364877
0.671685
0.997797
0.999993
1
1
1
1
1
1
1
1
1
1
1
1
1
1
1
1
1
1
1
1
1
1
1
1
0.00959914
0.00385222
0.0033155
0.0055404
0.0321813
0.579153
0.996642
0.999987
1
1
1
1
1
1
1
1
1
1
1
1
1
1
1
1
1
1
1
1
1
1
1
1
0.0090641
0.00374714
0.00324898
0.00533094
0.0283263
0.480964
0.994658
0.999979
1
1
1
1
1
1
1
1
1
1
1
1
1
1
1
1
1
1
1
1
1
1
1
1
0.00858639
0.00364727
0.00317718
0.0051235
0.0249732
0.389444
0.991614
0.999968
1
1
1
1
1
1
1
1
1
1
1
1
1
1
1
1
1
1
1
1
1
1
1
1
0.00812169
0.00355105
0.00310529
0.00491994
0.0220928
0.311449
0.986961
0.999944
1
1
1
1
1
1
1
1
1
1
1
1
1
1
1
1
1
1
1
1
1
1
1
1
0.00768564
0.00345663
0.00302884
0.00468006
0.01924
0.248268
0.980257
0.999909
1
1
1
1
1
1
1
1
1
1
1
1
1
1
1
1
1
1
1
1
1
1
1
1
0.00728148
0.00336521
0.00295582
0.00448722
0.0170437
0.199636
0.970889
0.999856
0.999999
1
1
1
1
1
1
1
1
1
1
1
1
1
1
1
1
1
1
1
1
1
1
1
0.00690105
0.00326401
0.00287133
0.00422212
0.0131594
0.156471
0.957407
0.999772
0.999999
1
1
1
1
1
1
1
1
1
1
1
1
1
1
1
1
1
1
1
1
1
1
1
0.00655967
0.00318125
0.00277907
0.00393494
0.0111356
0.125115
0.939001
0.999645
0.999998
1
1
1
1
1
1
1
1
1
1
1
1
1
1
1
1
1
1
1
1
1
1
1
0.00624806
0.0030981
0.00269551
0.00374314
0.0102885
0.10416
0.915463
0.99946
0.999997
1
1
1
1
1
1
1
1
1
1
1
1
1
1
1
1
1
1
1
1
1
1
1
0.00594931
0.00300131
0.0026199
0.00359885
0.00961929
0.0890183
0.886334
0.999194
0.999996
1
1
1
1
1
1
1
1
1
1
1
1
1
1
1
1
1
1
1
1
1
1
1
0.0056781
0.00292886
0.00255564
0.00348235
0.00905865
0.0773591
0.850911
0.998815
0.999993
1
1
1
1
1
1
1
1
1
1
1
1
1
1
1
1
1
1
1
1
1
1
1
0.00542441
0.00285527
0.00249871
0.00338349
0.00860145
0.0679947
0.808526
0.998283
0.99999
1
1
1
1
1
1
1
1
1
1
1
1
1
1
1
1
1
1
1
1
1
1
1
0.00518357
0.00278111
0.00244602
0.00329318
0.00819823
0.0600368
0.758419
0.99754
0.999985
1
1
1
1
1
1
1
1
1
1
1
1
1
1
1
1
1
1
1
1
1
1
1
0.00495584
0.00271069
0.00239586
0.00322757
0.00785346
0.0537711
0.7011
0.996503
0.999977
1
1
1
1
1
1
1
1
1
1
1
1
1
1
1
1
1
1
1
1
1
1
1
0.00473362
0.0026447
0.00235551
0.00315473
0.00752475
0.047965
0.636684
0.995053
0.999966
1
1
1
1
1
1
1
1
1
1
1
1
1
1
1
1
1
1
1
1
1
1
1
0.00452588
0.00258203
0.00231646
0.0030903
0.00721347
0.0428638
0.567466
0.993032
0.999949
1
1
1
1
1
1
1
1
1
1
1
1
1
1
1
1
1
1
1
1
1
1
1
0.00432869
0.00252084
0.0022756
0.00302697
0.00691429
0.0383549
0.496941
0.990238
0.999926
0.999999
1
1
1
1
1
1
1
1
1
1
1
1
1
1
1
1
1
1
1
1
1
1
0.00414359
0.00246134
0.00223531
0.00295919
0.00659452
0.0343515
0.429021
0.986427
0.999892
0.999999
1
1
1
1
1
1
1
1
1
1
1
1
1
1
1
1
1
1
1
1
1
1
0.00397096
0.00240403
0.0021968
0.00289978
0.00637242
0.0309559
0.367345
0.981323
0.999843
0.999999
1
1
1
1
1
1
1
1
1
1
1
1
1
1
1
1
1
1
1
1
1
1
0.00381011
0.00234898
0.00215928
0.00284
0.00611299
0.0279942
0.313547
0.974618
0.999776
0.999998
1
1
1
1
1
1
1
1
1
1
1
1
1
1
1
1
1
1
1
1
1
1
0.00365875
0.00229576
0.0021218
0.00278075
0.00586711
0.0254087
0.267755
0.965957
0.999681
0.999997
1
1
1
1
1
1
1
1
1
1
1
1
1
1
1
1
1
1
1
1
1
1
0.00351379
0.00224323
0.00208212
0.00271957
0.00561392
0.0227159
0.227899
0.954784
0.999551
0.999996
1
1
1
1
1
1
1
1
1
1
1
1
1
1
1
1
1
1
1
1
1
1
0.00337956
0.00219386
0.00204831
0.00264874
0.00527646
0.018737
0.190086
0.94005
0.99937
0.999995
1
1
1
1
1
1
1
1
1
1
1
1
1
1
1
1
1
1
1
1
1
1
0.00325692
0.00214601
0.00201027
0.00257651
0.00499074
0.0166843
0.160539
0.921444
0.999121
0.999992
1
1
1
1
1
1
1
1
1
1
1
1
1
1
1
1
1
1
1
1
1
1
0.00314446
0.00209937
0.00197051
0.00250926
0.00476822
0.0154171
0.138142
0.898838
0.998786
0.999989
1
1
1
1
1
1
1
1
1
1
1
1
1
1
1
1
1
1
1
1
1
1
0.00303876
0.00205429
0.00193256
0.00244853
0.00458407
0.0143707
0.120526
0.871979
0.998337
0.999984
1
1
1
1
1
1
1
1
1
1
1
1
1
1
1
1
1
1
1
1
1
1
0.00293885
0.002011
0.00189708
0.00239593
0.00444284
0.0137213
0.106804
0.840668
0.997744
0.999977
1
1
1
1
1
1
1
1
1
1
1
1
1
1
1
1
1
1
1
1
1
1
0.00284377
0.00196841
0.00186025
0.00234865
0.00432092
0.013084
0.0954576
0.804437
0.996962
0.999968
1
1
1
1
1
1
1
1
1
1
1
1
1
1
1
1
1
1
1
1
1
1
0.00275398
0.00192907
0.00183251
0.00230709
0.0042091
0.0124571
0.0856519
0.763027
0.995931
0.999956
1
1
1
1
1
1
1
1
1
1
1
1
1
1
1
1
1
1
1
1
1
1
0.00266914
0.0018921
0.0018061
0.00226919
0.00410564
0.011889
0.0770511
0.71644
0.994574
0.999938
0.999999
1
1
1
1
1
1
1
1
1
1
1
1
1
1
1
1
1
1
1
1
1
0.00258867
0.00185628
0.00177842
0.00223318
0.00400813
0.0113598
0.0694113
0.665072
0.992787
0.999915
0.999999
1
1
1
1
1
1
1
1
1
1
1
1
1
1
1
1
1
1
1
1
1
0.00251177
0.00182169
0.00175213
0.00219862
0.00391422
0.0108545
0.0625594
0.609832
0.990434
0.999883
0.999999
1
1
1
1
1
1
1
1
1
1
1
1
1
1
1
1
1
1
1
1
1
0.00243829
0.00178827
0.0017269
0.00216448
0.00381793
0.0103101
0.0563236
0.552139
0.987343
0.999839
0.999998
1
1
1
1
1
1
1
1
1
1
1
1
1
1
1
1
1
1
1
1
1
0.00236789
0.00175596
0.00170265
0.0021322
0.00373456
0.00994712
0.0509163
0.494372
0.983307
0.999779
0.999997
1
1
1
1
1
1
1
1
1
1
1
1
1
1
1
1
1
1
1
1
1
0.00230066
0.00172471
0.00167911
0.00210037
0.00364772
0.00948208
0.0459984
0.438315
0.978075
0.999698
0.999996
1
1
1
1
1
1
1
1
1
1
1
1
1
1
1
1
1
1
1
1
1
0.00223621
0.00169351
0.00165295
0.00206759
0.00355863
0.00902501
0.0415595
0.385567
0.971341
0.999589
0.999995
1
1
1
1
1
1
1
1
1
1
1
1
1
1
1
1
1
1
1
1
1
0.00217494
0.0016642
0.00163234
0.00203559
0.0034698
0.00859663
0.0372912
0.336552
0.962678
0.99944
0.999993
1
1
1
1
1
1
1
1
1
1
1
1
1
1
1
1
1
1
1
1
1
0.00211697
0.00163602
0.00161094
0.00200257
0.00337437
0.00811991
0.031847
0.290052
0.951158
0.999238
0.99999
1
1
1
1
1
1
1
1
1
1
1
1
1
1
1
1
1
1
1
1
1
0.00206148
0.00160825
0.0015875
0.00196694
0.00326969
0.00760382
0.0286328
0.250229
0.936887
0.998967
0.999986
1
1
1
1
1
1
1
1
1
1
1
1
1
1
1
1
1
1
1
1
1
0.00200693
0.00157696
0.00156281
0.00193133
0.00317881
0.00728907
0.0261654
0.216798
0.91972
0.998606
0.99998
1
1
1
1
1
1
1
1
1
1
1
1
1
1
1
1
1
1
1
1
1
0.0019573
0.00155395
0.00153965
0.00189701
0.00309573
0.00699674
0.0246784
0.191196
0.898751
0.998126
0.999973
1
1
1
1
1
1
1
1
1
1
1
1
1
1
1
1
1
1
1
1
1
0.00191
0.00152825
0.00151655
0.00186212
0.00300496
0.00671073
0.0232086
0.169457
0.874305
0.997496
0.999962
0.999999
1
1
1
1
1
1
1
1
1
1
1
1
1
1
1
1
1
1
1
1
0.00186342
0.00149828
0.00149309
0.00183059
0.00294188
0.00645547
0.0217134
0.150486
0.845821
0.996672
0.999948
0.999999
1
1
1
1
1
1
1
1
1
1
1
1
1
1
1
1
1
1
1
1
0.00182051
0.00147577
0.00147133
0.0018009
0.00287866
0.00621928
0.0203735
0.133872
0.812614
0.995565
0.999929
0.999999
1
1
1
1
1
1
1
1
1
1
1
1
1
1
1
1
1
1
1
1
0.00178021
0.00145404
0.00144962
0.00176655
0.0028072
0.00599064
0.0191311
0.119194
0.774415
0.994114
0.999903
0.999998
1
1
1
1
1
1
1
1
1
1
1
1
1
1
1
1
1
1
1
1
0.00174114
0.00143054
0.00142922
0.00174132
0.0027401
0.00577039
0.0179605
0.106102
0.731008
0.992197
0.999866
0.999998
1
1
1
1
1
1
1
1
1
1
1
1
1
1
1
1
1
1
1
1
0.001704
0.00140775
0.00140944
0.00171514
0.00267575
0.00555731
0.0168548
0.0944528
0.68236
0.989649
0.999817
0.999997
1
1
1
1
1
1
1
1
1
1
1
1
1
1
1
1
1
1
1
1
0.00166768
0.00138234
0.00138859
0.00168521
0.00261128
0.00534904
0.0158052
0.0840214
0.628814
0.986205
0.999745
0.999996
1
1
1
1
1
1
1
1
1
1
1
1
1
1
1
1
1
1
1
1
0.00162772
0.00136244
0.00136854
0.001656
0.00254691
0.00514404
0.0148023
0.0745853
0.571444
0.981565
0.999645
0.999994
1
1
1
1
1
1
1
1
1
1
1
1
1
1
1
1
1
1
1
1
0.00159863
0.00134402
0.00134826
0.00162208
0.00248001
0.00493692
0.0138044
0.0653486
0.510932
0.975273
0.999506
0.999991
1
1
1
1
1
1
1
1
1
1
1
1
1
1
1
1
1
1
1
1
0.00156712
0.00132294
0.00132899
0.00159776
0.00241444
0.00472402
0.0127692
0.0558217
0.448304
0.966685
0.999308
0.999988
1
1
1
1
1
1
1
1
1
1
1
1
1
1
1
1
1
1
1
1
0.0015398
0.00130344
0.00131004
0.00157023
0.00234891
0.00452223
0.0119298
0.0508217
0.392767
0.955313
0.999023
0.999982
1
1
1
1
1
1
1
1
1
1
1
1
1
1
1
1
1
1
1
1
0.00151263
0.00128387
0.00128705
0.00153855
0.00228267
0.00433102
0.0111797
0.0460755
0.342877
0.940436
0.998618
0.999974
1
1
1
1
1
1
1
1
1
1
1
1
1
1
1
1
1
1
1
1
0.00148002
0.0012644
0.00126983
0.00150858
0.00221725
0.00414658
0.0104645
0.0413641
0.297542
0.921063
0.998042
0.999962
0.999999
1
1
1
1
1
1
1
1
1
1
1
1
1
1
1
1
1
1
1
0.00145672
0.00124602
0.00124925
0.00147839
0.00215245
0.00396766
0.00978958
0.0372172
0.257063
0.896063
0.997219
0.999945
0.999999
1
1
1
1
1
1
1
1
1
1
1
1
1
1
1
1
1
1
1
0.00143318
0.0012288
0.00123177
0.00144909
0.00208858
0.00379369
0.00915097
0.0334791
0.221147
0.864113
0.996028
0.999918
0.999998
1
1
1
1
1
1
1
1
1
1
1
1
1
1
1
1
1
1
1
0.00141009
0.00121246
0.00121523
0.00142058
0.00202571
0.00362431
0.00854487
0.0300851
0.189541
0.824655
0.994255
0.999876
0.999998
1
1
1
1
1
1
1
1
1
1
1
1
1
1
1
1
1
1
1
0.00138826
0.00119652
0.00119663
0.0013918
0.0019634
0.00345879
0.0079662
0.0269725
0.161554
0.77771
0.991543
0.999812
0.999996
1
1
1
1
1
1
1
1
1
1
1
1
1
1
1
1
1
1
1
0.00136614
0.00117726
0.00117683
0.00136246
0.00190105
0.00329453
0.00739263
0.0238249
0.129744
0.723189
0.987519
0.999711
0.999994
1
1
1
1
1
1
1
1
1
1
1
1
1
1
1
1
1
1
1
0.00134465
0.00116368
0.0011586
0.00133334
0.00183903
0.00313406
0.00685925
0.0212885
0.112644
0.661462
0.981687
0.999551
0.999991
1
1
1
1
1
1
1
1
1
1
1
1
1
1
1
1
1
1
1
0.00132613
0.00114814
0.00114062
0.00130447
0.00177775
0.00297881
0.00636408
0.0190591
0.0962624
0.593031
0.973108
0.999297
0.999985
1
1
1
1
1
1
1
1
1
1
1
1
1
1
1
1
1
1
1
0.00131015
0.00113644
0.00112397
0.00127626
0.00171761
0.00282891
0.00589868
0.0170128
0.0808153
0.519494
0.960368
0.998888
0.999975
0.999999
1
1
1
1
1
1
1
1
1
1
1
1
1
1
1
1
1
1
0.00129526
0.00112467
0.0011081
0.00124877
0.00165883
0.00268432
0.00546041
0.0151573
0.0677549
0.445122
0.941491
0.99822
0.999958
0.999999
1
1
1
1
1
1
1
1
1
1
1
1
1
1
1
1
1
1
0.00128158
0.00111213
0.00109249
0.00122192
0.00160148
0.00254498
0.00504748
0.0134744
0.0565487
0.372286
0.913565
0.997109
0.999929
0.999998
1
1
1
1
1
1
1
1
1
1
1
1
1
1
1
1
1
1
0.00126549
0.00109989
0.00107725
0.0011957
0.0015456
0.00241066
0.00465671
0.0119245
0.0464902
0.292031
0.87107
0.9952
0.999877
0.999997
1
1
1
1
1
1
1
1
1
1
1
1
1
1
1
1
1
1
0.00125631
0.0010898
0.00106298
0.00117034
0.00149143
0.00228189
0.00429167
0.0105564
0.0386846
0.240247
0.817822
0.991845
0.99978
0.999995
1
1
1
1
1
1
1
1
1
1
1
1
1
1
1
1
1
1
0.00124806
0.00108135
0.00104988
0.00114607
0.00143923
0.00215935
0.00395473
0.00936692
0.0325518
0.198864
0.758429
0.985765
0.999596
0.99999
1
1
1
1
1
1
1
1
1
1
1
1
1
1
1
1
1
1
0.00124079
0.00107421
0.00103799
0.00112303
0.00138923
0.00204318
0.00364266
0.0082982
0.0270548
0.149885
0.690653
0.976035
0.999252
0.999981
1
1
1
1
1
1
1
1
1
1
1
1
1
1
1
1
1
1
0.00123163
0.00106736
0.00102703
0.00110126
0.00134156
0.00193337
0.00335378
0.00734169
0.0224266
0.112934
0.602961
0.959778
0.998599
0.999963
0.999999
1
1
1
1
1
1
1
1
1
1
1
1
1
1
1
1
1
0.00123027
0.00106321
0.00101765
0.00108103
0.00129649
0.0018301
0.0030875
0.00649281
0.0186052
0.0852029
0.502712
0.932292
0.997329
0.999924
0.999998
1
1
1
1
1
1
1
1
1
1
1
1
1
1
1
1
1
0.00122864
0.00106067
0.00100992
0.00106282
0.00125576
0.00173416
0.00284349
0.00574233
0.0154321
0.063599
0.38284
0.885403
0.994775
0.99984
0.999996
1
1
1
1
1
1
1
1
1
1
1
1
1
1
1
1
1
0.00122818
0.00105958
0.00100389
0.00104683
0.00121919
0.00164585
0.00262178
0.00508772
0.0128868
0.0488137
0.30422
0.826213
0.989443
0.999651
0.999991
1
1
1
1
1
1
1
1
1
1
1
1
1
1
1
1
1
1
1
1
1
1
1
1
1
1
1
1
1
1
1
1
1
1
1
1
1
1
1
1
1
1
1
1
1
1
1
1
1
1
1
1
1
1
1
1
1
1
1
1
1
1
1
1
1
1
1
1
1
1
1
1
1
1
1
1
1
1
1
1
1
1
1
1
1
1
1
1
1
1
1
1
1
1
1
1
1
1
1
1
1
1
1
1
1
1
1
1
1
1
1
1
1
1
1
1
1
1
1
1
1
1
1