/*--------------------------------*- C++ -*----------------------------------*\
  =========                 |
  \\      /  F ield         | OpenFOAM: The Open Source CFD Toolbox
   \\    /   O peration     | Website:  https://openfoam.org
    \\  /    A nd           | Version:  10
     \\/     M anipulation  |
\*---------------------------------------------------------------------------*/
FoamFile
{
    format      ascii;
    class       surfaceScalarField;
    location    "12000/gas";
    object      phi;
}
// * * * * * * * * * * * * * * * * * * * * * * * * * * * * * * * * * * * * * //

dimensions      [1 0 -1 0 0 0 0];

internalField   nonuniform List<scalar> 
31516
(
8.49414e-08
5.18028e-07
5.33679e-08
1.84048e-06
3.52312e-09
3.0647e-06
4.22436e-06
1.60663e-07
3.57365e-07
1.44097e-07
1.85705e-06
6.06024e-08
3.14819e-06
4.2852e-06
8.84197e-08
2.68945e-07
1.44616e-07
1.80086e-06
7.77823e-08
3.21501e-06
4.36269e-06
7.11888e-09
2.61826e-07
9.71837e-08
1.71079e-06
6.81592e-08
3.24403e-06
4.43102e-06
-2.74944e-08
2.89321e-07
4.19949e-08
1.64129e-06
5.21863e-08
3.23384e-06
4.48313e-06
-3.33282e-08
3.22647e-07
-7.48092e-10
1.60873e-06
3.71669e-08
3.19591e-06
4.52028e-06
-3.14875e-08
3.54137e-07
-1.97733e-08
1.59701e-06
2.38981e-08
3.15227e-06
4.54422e-06
-2.82108e-08
3.82348e-07
-2.60979e-08
1.5949e-06
1.56992e-08
3.11052e-06
4.5598e-06
-2.40505e-08
4.064e-07
-2.47072e-08
1.59554e-06
1.10046e-08
3.07483e-06
4.57091e-06
-1.95428e-08
4.25944e-07
-1.99837e-08
1.596e-06
8.47256e-09
3.04624e-06
4.57951e-06
-1.54207e-08
4.41356e-07
-1.5024e-08
1.59557e-06
6.95308e-09
3.02438e-06
4.58638e-06
-1.2076e-08
4.53436e-07
-1.10448e-08
1.59459e-06
5.59272e-09
3.00778e-06
4.59199e-06
-9.538e-09
4.62978e-07
-8.488e-09
1.59352e-06
4.25042e-09
2.99499e-06
4.59619e-06
-7.70238e-09
4.70681e-07
-6.89849e-09
1.59272e-06
2.82952e-09
2.98526e-06
4.59895e-06
-6.4252e-09
4.77111e-07
-6.20732e-09
1.59254e-06
1.31625e-09
2.97775e-06
4.60025e-06
-5.54043e-09
4.82646e-07
-6.16507e-09
1.59316e-06
-1.47213e-10
2.97177e-06
4.6003e-06
-4.8965e-09
4.87554e-07
-6.41e-09
1.59466e-06
-1.46788e-09
2.96687e-06
4.59906e-06
-4.43691e-09
4.91989e-07
-6.75141e-09
1.59699e-06
-2.62822e-09
2.96283e-06
4.5966e-06
-4.06821e-09
4.96054e-07
-7.06816e-09
1.59999e-06
-3.65822e-09
2.95934e-06
4.59287e-06
-3.76433e-09
4.99817e-07
-7.31046e-09
1.60352e-06
-4.48843e-09
2.95651e-06
4.58855e-06
-3.5037e-09
5.03321e-07
-7.41663e-09
1.6074e-06
-4.97004e-09
2.95406e-06
4.58319e-06
-3.27736e-09
5.06592e-07
-7.35549e-09
1.61152e-06
-5.44181e-09
2.95216e-06
4.57801e-06
-3.07113e-09
5.09668e-07
-7.34853e-09
1.61581e-06
-5.7697e-09
2.95067e-06
4.57221e-06
-2.87259e-09
5.12557e-07
-7.19117e-09
1.62014e-06
-6.0528e-09
2.94957e-06
4.56639e-06
-2.70557e-09
5.15271e-07
-7.03353e-09
1.62443e-06
-6.19209e-09
2.94864e-06
4.56021e-06
-2.56247e-09
5.17832e-07
-6.82034e-09
1.62867e-06
-6.24137e-09
2.9481e-06
4.55405e-06
-2.4418e-09
5.20263e-07
-6.56943e-09
1.63292e-06
-6.22612e-09
2.94778e-06
4.54732e-06
-2.30418e-09
5.22565e-07
-6.44136e-09
1.637e-06
-6.47452e-09
2.94783e-06
4.5412e-06
-2.20056e-09
5.24784e-07
-6.27274e-09
1.64109e-06
-6.48572e-09
2.94807e-06
4.53489e-06
-2.11509e-09
5.26895e-07
-6.10557e-09
1.6451e-06
-6.48931e-09
2.94848e-06
4.52868e-06
-2.02264e-09
5.28915e-07
-5.89427e-09
1.64898e-06
-6.36557e-09
2.94898e-06
4.52229e-06
-1.94154e-09
5.30864e-07
-5.73946e-09
1.65279e-06
-6.35487e-09
2.94962e-06
4.51599e-06
-1.87125e-09
5.3274e-07
-5.60273e-09
1.65653e-06
-6.36415e-09
2.95041e-06
4.5097e-06
-1.80454e-09
5.3455e-07
-5.45517e-09
1.6602e-06
-6.3124e-09
2.9513e-06
4.50346e-06
-1.74339e-09
5.36298e-07
-5.31994e-09
1.66379e-06
-6.31122e-09
2.95232e-06
4.49722e-06
-1.69139e-09
5.37994e-07
-5.22728e-09
1.66734e-06
-6.35979e-09
2.95348e-06
4.49093e-06
-1.59259e-09
5.39591e-07
-5.02302e-09
1.67079e-06
-6.40824e-09
2.9549e-06
4.4846e-06
-1.5443e-09
5.41141e-07
-5.17051e-09
1.67443e-06
-7.33888e-09
2.95711e-06
4.47735e-06
-9.30669e-10
5.42076e-07
-4.03576e-09
1.67755e-06
-4.52887e-09
2.95764e-06
4.47291e-06
-8.8039e-10
5.42962e-07
-5.90351e-09
1.68259e-06
-3.25329e-08
2.98431e-06
4.44047e-06
-2.07016e-09
1.83815e-05
7.75521e-08
2.04625e-05
8.70111e-08
2.2695e-05
1.06295e-07
2.48475e-05
1.21636e-07
2.70137e-05
1.32807e-07
2.91802e-05
1.40572e-07
3.1346e-05
1.45478e-07
3.35112e-05
1.47925e-07
3.5676e-05
1.48233e-07
3.78404e-05
1.46644e-07
4.00046e-05
1.43339e-07
4.21687e-05
1.38453e-07
4.43326e-05
1.32096e-07
4.64964e-05
1.24361e-07
4.86601e-05
1.15337e-07
5.08237e-05
1.05117e-07
5.29872e-05
9.38048e-08
5.51507e-05
8.15302e-08
5.7314e-05
6.84569e-08
5.94771e-05
5.48e-08
6.164e-05
4.08424e-08
6.38026e-05
2.69551e-08
6.59649e-05
1.36167e-08
6.81267e-05
1.41044e-09
7.02879e-05
-9.01685e-09
7.24484e-05
-1.67001e-08
7.4608e-05
-2.11374e-08
7.67671e-05
-2.87492e-08
7.89326e-05
-4.80006e-09
8.10633e-05
-6.48759e-08
8.33097e-05
8.53474e-05
1.14322e-07
1.82679e-05
2.07552e-07
2.03692e-05
2.71939e-07
2.26306e-05
3.22147e-07
2.47973e-05
3.62893e-07
2.6973e-05
3.93982e-07
2.91492e-05
4.15906e-07
3.1324e-05
4.29492e-07
3.34976e-05
4.35667e-07
3.56698e-05
4.35327e-07
3.78408e-05
4.29257e-07
4.00107e-05
4.18118e-07
4.21798e-05
4.02455e-07
4.43482e-05
3.82719e-07
4.65161e-05
3.593e-07
4.86835e-05
3.32549e-07
5.08505e-05
3.02811e-07
5.3017e-05
2.70447e-07
5.5183e-05
2.3587e-07
5.73485e-05
1.99569e-07
5.95134e-05
1.62148e-07
6.16774e-05
1.24353e-07
6.38404e-05
8.71087e-08
6.60021e-05
5.15231e-08
6.81622e-05
1.88658e-08
7.03205e-05
-9.46303e-09
7.24767e-05
-3.20981e-08
7.46306e-05
-4.75314e-08
7.67825e-05
-6.17276e-08
7.89467e-05
-5.49289e-08
8.10565e-05
-7.52014e-08
8.33298e-05
8.52758e-05
1.91161e-07
1.80769e-05
3.08575e-07
2.02518e-05
4.17789e-07
2.25214e-05
4.98609e-07
2.47164e-05
5.62586e-07
2.6909e-05
6.12247e-07
2.90995e-05
6.48414e-07
3.12879e-05
6.71945e-07
3.3474e-05
6.83876e-07
3.56578e-05
6.85321e-07
3.78393e-05
6.77377e-07
4.00186e-05
6.61062e-07
4.21961e-05
6.37294e-07
4.4372e-05
6.06886e-07
4.65465e-05
5.70568e-07
4.87198e-05
5.29018e-07
5.0892e-05
4.82892e-07
5.30631e-05
4.32864e-07
5.5233e-05
3.79664e-07
5.74017e-05
3.24117e-07
5.95689e-05
2.67184e-07
6.17343e-05
2.09993e-07
6.38976e-05
1.53862e-07
6.60582e-05
1.00296e-07
6.82158e-05
5.09301e-08
7.03698e-05
7.35343e-09
7.25203e-05
-2.91064e-08
7.4667e-05
-5.45765e-08
7.68079e-05
-7.60253e-08
7.89682e-05
-7.96259e-08
8.10601e-05
-7.44622e-08
8.33249e-05
8.5204e-05
2.42159e-07
1.78341e-05
3.84546e-07
2.01094e-05
5.22317e-07
2.23836e-05
6.29593e-07
2.46092e-05
7.15137e-07
2.68235e-05
7.82364e-07
2.90322e-05
8.3266e-07
3.12376e-05
8.67029e-07
3.34397e-05
8.86511e-07
3.56383e-05
8.92239e-07
3.78336e-05
8.8541e-07
4.00255e-05
8.67226e-07
4.22143e-05
8.38851e-07
4.44004e-05
8.01385e-07
4.6584e-05
7.55865e-07
4.87653e-05
7.03286e-07
5.09446e-05
6.44623e-07
5.31217e-05
5.80872e-07
5.52968e-05
5.13082e-07
5.74695e-05
4.424e-07
5.96396e-05
3.70097e-07
6.18066e-05
2.97602e-07
6.39701e-05
2.26498e-07
6.61293e-05
1.58509e-07
6.82838e-05
9.54507e-08
7.04329e-05
3.92598e-08
7.25764e-05
-7.84361e-09
7.47141e-05
-4.56974e-08
7.68458e-05
-7.41684e-08
7.89966e-05
-8.71377e-08
8.1073e-05
-6.76199e-08
8.3305e-05
8.51248e-05
2.71205e-07
1.7563e-05
4.38003e-07
1.99426e-05
5.94447e-07
2.22271e-05
7.22391e-07
2.44812e-05
8.26537e-07
2.67193e-05
9.09734e-07
2.8949e-05
9.73513e-07
3.11738e-05
1.01894e-06
3.33942e-05
1.047e-06
3.56103e-05
1.05876e-06
3.78218e-05
1.05539e-06
4.00288e-05
1.03816e-06
4.22315e-05
1.00834e-06
4.44302e-05
9.67219e-07
4.66251e-05
9.16077e-07
4.88165e-05
8.5617e-07
5.10045e-05
7.88756e-07
5.31891e-05
7.15119e-07
5.53704e-05
6.36598e-07
5.7548e-05
5.54615e-07
5.97215e-05
4.70692e-07
6.18905e-05
3.86469e-07
6.40543e-05
3.03686e-07
6.62121e-05
2.24154e-07
6.83633e-05
1.49716e-07
7.05073e-05
8.22342e-08
7.26439e-05
2.33831e-08
7.4773e-05
-2.70115e-08
7.68962e-05
-5.87633e-08
7.90284e-05
-8.43139e-08
8.10986e-05
-6.20846e-08
8.32829e-05
8.50655e-05
2.83036e-07
1.728e-05
4.71612e-07
1.97541e-05
6.4155e-07
2.20572e-05
7.85124e-07
2.43376e-05
9.04478e-07
2.66e-05
1.00156e-06
2.8852e-05
1.07769e-06
3.10977e-05
1.13382e-06
3.33381e-05
1.17084e-06
3.55732e-05
1.18969e-06
3.78029e-05
1.19144e-06
4.0027e-05
1.17731e-06
4.22456e-05
1.14863e-06
4.44589e-05
1.10676e-06
4.66669e-05
1.05313e-06
4.88701e-05
9.89205e-07
5.10684e-05
9.16453e-07
5.32619e-05
8.36395e-07
5.54504e-05
7.506e-07
5.76338e-05
6.60705e-07
5.98114e-05
5.68414e-07
6.19828e-05
4.75498e-07
6.41472e-05
3.83769e-07
6.63038e-05
2.95042e-07
6.8452e-05
2.11104e-07
7.05912e-05
1.33642e-07
7.27214e-05
6.37087e-08
7.48429e-05
9.74751e-10
7.69589e-05
-3.40746e-08
7.90634e-05
-7.32469e-08
8.11379e-05
-5.25242e-08
8.32625e-05
8.50181e-05
2.8408e-07
1.6996e-05
4.89094e-07
1.95491e-05
6.69222e-07
2.18771e-05
8.24445e-07
2.41824e-05
9.55829e-07
2.64686e-05
1.06457e-06
2.87432e-05
1.15161e-06
3.10106e-05
1.21773e-06
3.3272e-05
1.26362e-06
3.55273e-05
1.29006e-06
3.77765e-05
1.29801e-06
4.00191e-05
1.28856e-06
4.22551e-05
1.263e-06
4.44844e-05
1.22272e-06
4.67072e-05
1.16923e-06
4.89235e-05
1.10409e-06
5.11335e-05
1.02894e-06
5.3337e-05
9.45443e-07
5.55339e-05
8.5535e-07
5.77238e-05
7.60436e-07
5.99063e-05
6.62521e-07
6.20807e-05
5.63442e-07
6.42462e-05
4.65025e-07
6.64022e-05
3.69051e-07
6.85479e-05
2.77239e-07
7.0683e-05
1.91226e-07
7.28074e-05
1.12492e-07
7.49216e-05
4.34143e-08
7.7028e-05
-5.73058e-09
7.91126e-05
-5.10484e-08
8.11832e-05
-4.11972e-08
8.3253e-05
8.49766e-05
2.78723e-07
1.67173e-05
4.94347e-07
1.93335e-05
6.81917e-07
2.16895e-05
8.45638e-07
2.40187e-05
9.8628e-07
2.63279e-05
1.10453e-06
2.8625e-05
1.20097e-06
3.09141e-05
1.27612e-06
3.31968e-05
1.33048e-06
3.5473e-05
1.36463e-06
3.77423e-05
1.37937e-06
4.00044e-05
1.37567e-06
4.22588e-05
1.35471e-06
4.45054e-05
1.31784e-06
4.67441e-05
1.26658e-06
4.89748e-05
1.20253e-06
5.11975e-05
1.12739e-06
5.34121e-05
1.04296e-06
5.56183e-05
9.51046e-07
5.78157e-05
8.53519e-07
6.00038e-05
7.52248e-07
6.21819e-05
6.49083e-07
6.43494e-05
5.45824e-07
6.65054e-05
4.44194e-07
6.86496e-05
3.45849e-07
7.07814e-05
2.52422e-07
7.29008e-05
1.65791e-07
7.50082e-05
8.96205e-08
7.71041e-05
2.96003e-08
7.91726e-05
-2.60045e-08
8.12389e-05
-3.00403e-08
8.32572e-05
8.49484e-05
2.69484e-07
1.64479e-05
4.90639e-07
1.91123e-05
6.8321e-07
2.14969e-05
8.5289e-07
2.3849e-05
1.00045e-06
2.61803e-05
1.12627e-06
2.84991e-05
1.23062e-06
3.08098e-05
1.31376e-06
3.31136e-05
1.37598e-06
3.54108e-05
1.41769e-06
3.77006e-05
1.43948e-06
3.99825e-05
1.44219e-06
4.2256e-05
1.42685e-06
4.45207e-05
1.39474e-06
4.67761e-05
1.34731e-06
4.90222e-05
1.28615e-06
5.12587e-05
1.21299e-06
5.34853e-05
1.12962e-06
5.57017e-05
1.0379e-06
5.79074e-05
9.39713e-07
6.0102e-05
8.36929e-07
6.22847e-05
7.31367e-07
6.44549e-05
6.24768e-07
6.6612e-05
5.18784e-07
6.87555e-05
4.14997e-07
7.08851e-05
3.1501e-07
7.30008e-05
2.20775e-07
7.51025e-05
1.35665e-07
7.71892e-05
6.33109e-08
7.9245e-05
3.09595e-10
8.13019e-05
-1.83004e-08
8.3276e-05
8.49305e-05
2.57967e-07
1.61899e-05
4.80617e-07
1.88897e-05
6.75965e-07
2.13016e-05
8.4953e-07
2.36754e-05
1.00208e-06
2.60278e-05
1.13378e-06
2.83674e-05
1.24466e-06
3.06989e-05
1.33475e-06
3.30236e-05
1.40414e-06
3.53414e-05
1.45305e-06
3.76517e-05
1.48191e-06
3.99537e-05
1.49135e-06
4.22466e-05
1.4823e-06
4.45297e-05
1.45589e-06
4.68026e-05
1.41346e-06
4.90646e-05
1.35656e-06
5.13156e-05
1.28686e-06
5.3555e-05
1.20612e-06
5.57824e-05
1.11618e-06
5.79974e-05
1.01889e-06
6.01993e-05
9.16065e-07
6.23875e-05
8.09471e-07
6.45615e-05
7.00771e-07
6.67207e-05
5.91533e-07
6.88648e-05
4.83265e-07
7.09934e-05
3.7752e-07
7.31065e-05
2.76209e-07
7.52038e-05
1.82264e-07
7.72832e-05
9.73673e-08
7.93299e-05
2.65346e-08
8.13728e-05
-6.7848e-09
8.33095e-05
8.49249e-05
2.45255e-07
1.59447e-05
4.66334e-07
1.86686e-05
6.625e-07
2.11054e-05
8.38239e-07
2.34997e-05
9.94195e-07
2.58718e-05
1.13035e-06
2.82313e-05
1.24654e-06
3.05827e-05
1.34259e-06
3.29275e-05
1.41843e-06
3.52655e-05
1.47409e-06
3.7596e-05
1.50982e-06
3.99179e-05
1.5261e-06
4.22303e-05
1.52369e-06
4.45321e-05
1.50356e-06
4.68227e-05
1.46696e-06
4.91012e-05
1.41529e-06
5.13672e-05
1.35015e-06
5.36201e-05
1.27322e-06
5.58593e-05
1.18626e-06
5.80843e-05
1.09106e-06
6.02945e-05
9.89357e-07
6.24892e-05
8.82824e-07
6.4668e-05
7.73043e-07
6.68305e-05
6.61499e-07
6.89763e-05
5.49628e-07
7.11053e-05
4.38932e-07
7.32172e-05
3.31243e-07
7.53115e-05
2.29147e-07
7.73853e-05
1.34048e-07
7.94251e-05
5.21236e-08
8.14549e-05
5.59499e-09
8.33563e-05
8.4932e-05
2.32072e-07
1.57127e-05
4.49349e-07
1.84513e-05
6.44689e-07
2.09101e-05
8.21201e-07
2.33232e-05
9.79268e-07
2.57138e-05
1.11869e-06
2.80918e-05
1.23913e-06
3.04623e-05
1.34026e-06
3.28264e-05
1.42182e-06
3.51839e-05
1.48372e-06
3.75341e-05
1.52602e-06
3.98756e-05
1.54906e-06
4.22073e-05
1.5534e-06
4.45278e-05
1.53989e-06
4.68362e-05
1.50959e-06
4.91315e-05
1.46381e-06
5.1413e-05
1.40398e-06
5.36799e-05
1.3317e-06
5.59316e-05
1.24861e-06
5.81674e-05
1.1564e-06
6.03867e-05
1.0567e-06
6.25889e-05
9.51089e-07
6.47736e-05
8.41058e-07
6.69405e-05
7.28012e-07
6.90893e-05
6.13323e-07
7.122e-05
4.98439e-07
7.33321e-05
3.85113e-07
7.54248e-05
2.75679e-07
7.74948e-05
1.71641e-07
7.95292e-05
7.75367e-08
8.15491e-05
1.88943e-08
8.34153e-05
8.49526e-05
2.18905e-07
1.54938e-05
4.30834e-07
1.82394e-05
6.24042e-07
2.07169e-05
8.002e-07
2.3147e-05
9.59337e-07
2.55546e-05
1.10105e-06
2.79501e-05
1.22485e-06
3.03384e-05
1.33027e-06
3.27209e-05
1.4169e-06
3.50973e-05
1.4845e-06
3.74665e-05
1.533e-06
3.98271e-05
1.56257e-06
4.21777e-05
1.57361e-06
4.45167e-05
1.56681e-06
4.6843e-05
1.54307e-06
4.91552e-05
1.50353e-06
5.14525e-05
1.44949e-06
5.37339e-05
1.38241e-06
5.59987e-05
1.3038e-06
5.8246e-05
1.21521e-06
6.04753e-05
1.11816e-06
6.26859e-05
1.01414e-06
6.48777e-05
9.04519e-07
6.70501e-05
7.90639e-07
6.92032e-05
6.73807e-07
7.13368e-05
5.55427e-07
7.34505e-05
4.37187e-07
7.55431e-05
3.21262e-07
7.76107e-05
2.09334e-07
7.96412e-05
1.10874e-07
8.16477e-05
3.27925e-08
8.34937e-05
8.49869e-05
2.06095e-07
1.52877e-05
4.11668e-07
1.80339e-05
6.01763e-07
2.05268e-05
7.76696e-07
2.29721e-05
9.36087e-07
2.53952e-05
1.07932e-06
2.78069e-05
1.20575e-06
3.0212e-05
1.31477e-06
3.26119e-05
1.40586e-06
3.50062e-05
1.47865e-06
3.73937e-05
1.53293e-06
3.97728e-05
1.56872e-06
4.21419e-05
1.58627e-06
4.44992e-05
1.5861e-06
4.68431e-05
1.56896e-06
4.91724e-05
1.53581e-06
5.14857e-05
1.48781e-06
5.37819e-05
1.42624e-06
5.60602e-05
1.35247e-06
5.83197e-05
1.26792e-06
6.05598e-05
1.17399e-06
6.27799e-05
1.07202e-06
6.49796e-05
9.63328e-07
6.71588e-05
8.4915e-07
6.93174e-05
7.30739e-07
7.14552e-05
6.09443e-07
7.35718e-05
4.8688e-07
7.56657e-05
3.65091e-07
7.77326e-05
2.45873e-07
7.97604e-05
1.3865e-07
8.17551e-05
4.67842e-08
8.3586e-05
8.50352e-05
1.93887e-07
1.50939e-05
3.92522e-07
1.78352e-05
5.78822e-07
2.03405e-05
7.51886e-07
2.2799e-05
9.10915e-07
2.52362e-05
1.05506e-06
2.76627e-05
1.18353e-06
3.00835e-05
1.29558e-06
3.24998e-05
1.3906e-06
3.49112e-05
1.46809e-06
3.73162e-05
1.52771e-06
3.97132e-05
1.56936e-06
4.21002e-05
1.59314e-06
4.44754e-05
1.59941e-06
4.68368e-05
1.58875e-06
4.9183e-05
1.56197e-06
5.15124e-05
1.52004e-06
5.38239e-05
1.46409e-06
5.61162e-05
1.39535e-06
5.83885e-05
1.31507e-06
6.06401e-05
1.22453e-06
6.28704e-05
1.12496e-06
6.50792e-05
1.01756e-06
6.72662e-05
9.03505e-07
6.94314e-05
7.83974e-07
7.15747e-05
6.60257e-07
7.36955e-05
5.33892e-07
7.57921e-05
4.06804e-07
7.78597e-05
2.80926e-07
7.98864e-05
1.64771e-07
8.18714e-05
6.08994e-08
8.36903e-05
8.50979e-05
1.82455e-07
1.49115e-05
3.73909e-07
1.76438e-05
5.55994e-07
2.01584e-05
7.26759e-07
2.26283e-05
8.84988e-07
2.5078e-05
1.0296e-06
2.75181e-05
1.15965e-06
2.99535e-05
1.27428e-06
3.23852e-05
1.37276e-06
3.48127e-05
1.45449e-06
3.72345e-05
1.51903e-06
3.96487e-05
1.56615e-06
4.20531e-05
1.59581e-06
4.44457e-05
1.60822e-06
4.68244e-05
1.60382e-06
4.91874e-05
1.58322e-06
5.1533e-05
1.54727e-06
5.38598e-05
1.49691e-06
5.61665e-05
1.43321e-06
5.84522e-05
1.35728e-06
6.0716e-05
1.27027e-06
6.29574e-05
1.17329e-06
6.51762e-05
1.06744e-06
6.73721e-05
9.53818e-07
6.95451e-05
8.3354e-07
7.1695e-05
7.0783e-07
7.38212e-05
5.78149e-07
7.59218e-05
4.46325e-07
7.79916e-05
3.14358e-07
8.00185e-05
1.89692e-07
8.19963e-05
7.51161e-08
8.38054e-05
8.51749e-05
1.71924e-07
1.47396e-05
3.56227e-07
1.74595e-05
5.33908e-07
1.99808e-05
7.02132e-07
2.246e-05
8.59289e-07
2.49208e-05
1.00407e-06
2.73734e-05
1.13535e-06
2.98222e-05
1.2522e-06
3.22684e-05
1.35375e-06
3.47111e-05
1.43933e-06
3.71489e-05
1.50838e-06
3.95796e-05
1.56056e-06
4.20009e-05
1.59572e-06
4.44105e-05
1.61392e-06
4.68062e-05
1.61544e-06
4.91859e-05
1.60077e-06
5.15477e-05
1.57056e-06
5.389e-05
1.52562e-06
5.62115e-05
1.46685e-06
5.85109e-05
1.39522e-06
6.07876e-05
1.31175e-06
6.30409e-05
1.21744e-06
6.52705e-05
1.1133e-06
6.74762e-05
1.00033e-06
6.9658e-05
8.79591e-07
7.18158e-05
7.52244e-07
7.39486e-05
6.19674e-07
7.60544e-05
4.8361e-07
7.81277e-05
3.46043e-07
8.01562e-05
2.13428e-07
8.21291e-05
8.94546e-08
8.39299e-05
8.52665e-05
1.62384e-07
1.45773e-05
3.39787e-07
1.72821e-05
5.1308e-07
1.98075e-05
6.78693e-07
2.22944e-05
8.34654e-07
2.47649e-05
9.7942e-07
2.72286e-05
1.11173e-06
2.96899e-05
1.23051e-06
3.21496e-05
1.33483e-06
3.46068e-05
1.42389e-06
3.70598e-05
1.49708e-06
3.95064e-05
1.55392e-06
4.19441e-05
1.59416e-06
4.43703e-05
1.61775e-06
4.67826e-05
1.62482e-06
4.91788e-05
1.61572e-06
5.15568e-05
1.59094e-06
5.39148e-05
1.55115e-06
5.62512e-05
1.4971e-06
5.8565e-05
1.42962e-06
6.08551e-05
1.34961e-06
6.31209e-05
1.25795e-06
6.53621e-05
1.15556e-06
6.75786e-05
1.04337e-06
6.97702e-05
9.22378e-07
7.19368e-05
7.93671e-07
7.40774e-05
6.58561e-07
7.61896e-05
5.18673e-07
7.82677e-05
3.75945e-07
8.02991e-05
2.3602e-07
8.22693e-05
1.04071e-07
8.40625e-05
8.53727e-05
1.539e-07
1.44235e-05
3.24842e-07
1.71112e-05
4.93939e-07
1.96384e-05
6.57028e-07
2.21314e-05
8.11806e-07
2.46101e-05
9.5651e-07
2.70839e-05
1.08973e-06
2.95567e-05
1.21026e-06
3.2029e-05
1.3171e-06
3.45e-05
1.40935e-06
3.69676e-05
1.48631e-06
3.94294e-05
1.54743e-06
4.18829e-05
1.59235e-06
4.43254e-05
1.62089e-06
4.67541e-05
1.63309e-06
4.91666e-05
1.62914e-06
5.15607e-05
1.60941e-06
5.39345e-05
1.57442e-06
5.62862e-05
1.52479e-06
5.86146e-05
1.46123e-06
6.09186e-05
1.38449e-06
6.31976e-05
1.29538e-06
6.54512e-05
1.19471e-06
6.76793e-05
1.08335e-06
6.98816e-05
9.62225e-07
7.2058e-05
8.32359e-07
7.42073e-05
6.94981e-07
7.6327e-05
5.51606e-07
7.84112e-05
4.0407e-07
8.04468e-05
2.57469e-07
8.24162e-05
1.15745e-07
8.42049e-05
8.54907e-05
1.46524e-07
1.4277e-05
3.11601e-07
1.69462e-05
4.76855e-07
1.94731e-05
6.37649e-07
2.19706e-05
7.91384e-07
2.44563e-05
9.36085e-07
2.69392e-05
1.07019e-06
2.94226e-05
1.19238e-06
3.19068e-05
1.30155e-06
3.43908e-05
1.39674e-06
3.68724e-05
1.47716e-06
3.9349e-05
1.54218e-06
4.18179e-05
1.59136e-06
4.42762e-05
1.62443e-06
4.6721e-05
1.64129e-06
4.91497e-05
1.64204e-06
5.156e-05
1.62692e-06
5.39496e-05
1.59633e-06
5.63168e-05
1.55075e-06
5.86602e-05
1.49079e-06
6.09786e-05
1.41708e-06
6.32713e-05
1.33033e-06
6.5538e-05
1.23129e-06
6.77783e-05
1.12073e-06
6.99922e-05
9.99517e-07
7.21792e-05
8.68619e-07
7.43382e-05
7.29184e-07
7.64665e-05
5.82614e-07
7.85579e-05
4.30632e-07
8.05989e-05
2.77937e-07
8.25692e-05
1.2732e-07
8.43562e-05
8.56203e-05
1.40299e-07
1.41368e-05
3.00246e-07
1.67863e-05
4.62156e-07
1.93113e-05
6.2102e-07
2.18117e-05
7.73972e-07
2.43034e-05
9.18834e-07
2.67943e-05
1.05389e-06
2.92875e-05
1.17772e-06
3.1783e-05
1.2891e-06
3.42794e-05
1.38703e-06
3.67744e-05
1.47062e-06
3.92654e-05
1.53919e-06
4.17493e-05
1.59222e-06
4.42231e-05
1.62935e-06
4.66839e-05
1.65041e-06
4.91287e-05
1.65537e-06
5.1555e-05
1.64439e-06
5.39606e-05
1.61774e-06
5.63435e-05
1.5758e-06
5.87021e-05
1.51906e-06
6.10353e-05
1.44807e-06
6.33423e-05
1.36344e-06
6.56226e-05
1.26584e-06
6.7876e-05
1.15598e-06
7.01021e-05
1.03467e-06
7.23006e-05
9.02802e-07
7.44701e-05
7.61455e-07
7.66079e-05
6.11929e-07
7.87075e-05
4.55831e-07
8.07552e-05
2.97429e-07
8.2728e-05
1.38845e-07
8.45155e-05
8.57616e-05
1.3527e-07
1.40016e-05
2.90949e-07
1.66306e-05
4.50152e-07
1.91521e-05
6.07577e-07
2.16543e-05
7.6012e-07
2.41509e-05
9.05406e-07
2.6649e-05
1.04157e-06
2.91513e-05
1.16707e-06
3.16575e-05
1.28062e-06
3.41659e-05
1.3811e-06
3.6674e-05
1.46762e-06
3.91789e-05
1.5394e-06
4.16775e-05
1.59588e-06
4.41667e-05
1.63662e-06
4.66431e-05
1.66137e-06
4.91039e-05
1.67005e-06
5.15463e-05
1.66269e-06
5.39679e-05
1.63948e-06
5.63667e-05
1.60071e-06
5.87409e-05
1.54677e-06
6.10893e-05
1.47813e-06
6.3411e-05
1.39532e-06
6.57055e-05
1.29893e-06
6.79724e-05
1.18962e-06
7.02114e-05
1.06812e-06
7.24221e-05
9.35273e-07
7.46031e-05
7.92087e-07
7.67512e-05
6.39764e-07
7.886e-05
4.79788e-07
8.09154e-05
3.15952e-07
8.28922e-05
1.50013e-07
8.46823e-05
8.59141e-05
1.31486e-07
1.38702e-05
2.83885e-07
1.64783e-05
4.41148e-07
1.89948e-05
5.97751e-07
2.14977e-05
7.50369e-07
2.39983e-05
8.96437e-07
2.6503e-05
1.03394e-06
2.90138e-05
1.16122e-06
3.15302e-05
1.27691e-06
3.40502e-05
1.37983e-06
3.6571e-05
1.46903e-06
3.90897e-05
1.54371e-06
4.16029e-05
1.60322e-06
4.41071e-05
1.64711e-06
4.65992e-05
1.67506e-06
4.9076e-05
1.68691e-06
5.15345e-05
1.68264e-06
5.39722e-05
1.66235e-06
5.6387e-05
1.62625e-06
5.8777e-05
1.57465e-06
6.11409e-05
1.50794e-06
6.34777e-05
1.42659e-06
6.57868e-05
1.33112e-06
6.80679e-05
1.22213e-06
7.03205e-05
1.1003e-06
7.2544e-05
9.66403e-07
7.4737e-05
8.21378e-07
7.68964e-05
6.66334e-07
7.90152e-05
5.02629e-07
8.10794e-05
3.33594e-07
8.30617e-05
1.60772e-07
8.48559e-05
8.60774e-05
1.29012e-07
1.37412e-05
2.79242e-07
1.63281e-05
4.3547e-07
1.88386e-05
5.91994e-07
2.13412e-05
7.4528e-07
2.3845e-05
8.92574e-07
2.63557e-05
1.03171e-06
2.88747e-05
1.16094e-06
3.1401e-05
1.27878e-06
3.39323e-05
1.38405e-06
3.64658e-05
1.47571e-06
3.8998e-05
1.55295e-06
4.15256e-05
1.6151e-06
4.4045e-05
1.66166e-06
4.65526e-05
1.69229e-06
4.90453e-05
1.70677e-06
5.152e-05
1.70502e-06
5.3974e-05
1.68709e-06
5.64049e-05
1.65313e-06
5.8811e-05
1.60337e-06
6.11907e-05
1.53814e-06
6.3543e-05
1.45785e-06
6.58671e-05
1.36296e-06
6.81628e-05
1.25402e-06
7.04295e-05
1.13164e-06
7.26664e-05
9.96564e-07
7.48722e-05
8.49634e-07
7.70434e-05
6.91872e-07
7.91732e-05
5.24514e-07
8.1247e-05
3.50467e-07
8.32362e-05
1.71113e-07
8.50362e-05
8.62512e-05
1.2793e-07
1.36134e-05
2.77242e-07
1.61788e-05
4.33481e-07
1.86824e-05
5.90798e-07
2.11839e-05
7.45452e-07
2.36903e-05
8.94504e-07
2.62066e-05
1.03564e-06
2.87336e-05
1.16701e-06
3.12696e-05
1.28706e-06
3.38123e-05
1.39456e-06
3.63583e-05
1.48847e-06
3.89041e-05
1.56795e-06
4.14461e-05
1.63232e-06
4.39806e-05
1.68108e-06
4.65039e-05
1.71384e-06
4.90126e-05
1.73038e-06
5.15035e-05
1.73057e-06
5.39738e-05
1.71442e-06
5.64211e-05
1.68203e-06
5.88434e-05
1.63357e-06
6.12391e-05
1.56934e-06
6.36072e-05
1.48966e-06
6.59468e-05
1.39497e-06
6.82575e-05
1.28575e-06
7.05387e-05
1.16258e-06
7.27897e-05
1.02612e-06
7.50088e-05
8.77154e-07
7.71925e-05
7.16616e-07
7.93339e-05
5.45614e-07
8.14184e-05
3.66672e-07
8.34157e-05
1.81025e-07
8.52229e-05
8.6435e-05
1.28355e-07
1.34851e-05
2.78157e-07
1.6029e-05
4.35609e-07
1.8525e-05
5.94728e-07
2.10248e-05
7.5156e-07
2.35335e-05
9.02978e-07
2.60552e-05
1.04653e-06
2.859e-05
1.18026e-06
3.11359e-05
1.30258e-06
3.36899e-05
1.41222e-06
3.62486e-05
1.50814e-06
3.88082e-05
1.58951e-06
4.13648e-05
1.65567e-06
4.39144e-05
1.7061e-06
4.64535e-05
1.74044e-06
4.89782e-05
1.75844e-06
5.14855e-05
1.75997e-06
5.39722e-05
1.74498e-06
5.64361e-05
1.71357e-06
5.88748e-05
1.66586e-06
6.12868e-05
1.60209e-06
6.3671e-05
1.52256e-06
6.60264e-05
1.42764e-06
6.83525e-05
1.31778e-06
7.06486e-05
1.1935e-06
7.2914e-05
1.05541e-06
7.5147e-05
9.04231e-07
7.73439e-05
7.40798e-07
7.94975e-05
5.66101e-07
8.15934e-05
3.82316e-07
8.36e-05
1.90526e-07
8.54157e-05
8.66284e-05
1.30442e-07
1.33547e-05
2.82332e-07
1.58772e-05
4.42381e-07
1.8365e-05
6.04459e-07
2.08627e-05
7.64386e-07
2.33736e-05
9.18845e-07
2.59008e-05
1.06525e-06
2.84436e-05
1.20158e-06
3.09996e-05
1.3262e-06
3.35653e-05
1.43786e-06
3.6137e-05
1.53552e-06
3.87105e-05
1.6184e-06
4.12819e-05
1.68587e-06
4.3847e-05
1.73744e-06
4.64019e-05
1.77276e-06
4.89429e-05
1.7916e-06
5.14666e-05
1.79382e-06
5.397e-05
1.77937e-06
5.64505e-05
1.74831e-06
5.89059e-05
1.70076e-06
6.13344e-05
1.6369e-06
6.37349e-05
1.55701e-06
6.61063e-05
1.46141e-06
6.84481e-05
1.3505e-06
7.07596e-05
1.22477e-06
7.30399e-05
1.08477e-06
7.52871e-05
9.31141e-07
7.74977e-05
7.64642e-07
7.96643e-05
5.86145e-07
8.17722e-05
3.97507e-07
8.37892e-05
1.99658e-07
8.56146e-05
8.6831e-05
1.34409e-07
1.32204e-05
2.90222e-07
1.57214e-05
4.54461e-07
1.82007e-05
6.20816e-07
2.06964e-05
7.84859e-07
2.32096e-05
9.43088e-07
2.57426e-05
1.09281e-06
2.82939e-05
1.23193e-06
3.08605e-05
1.35886e-06
3.34384e-05
1.47235e-06
3.60235e-05
1.57144e-06
3.86114e-05
1.65539e-06
4.11979e-05
1.72363e-06
4.37787e-05
1.77574e-06
4.63498e-05
1.81141e-06
4.89072e-05
1.83043e-06
5.14476e-05
1.83268e-06
5.39678e-05
1.81812e-06
5.64651e-05
1.78677e-06
5.89372e-05
1.73876e-06
6.13825e-05
1.67424e-06
6.37994e-05
1.59345e-06
6.61872e-05
1.49668e-06
6.85449e-05
1.3843e-06
7.08721e-05
1.25673e-06
7.31675e-05
1.11448e-06
7.54295e-05
9.58137e-07
7.76542e-05
7.88358e-07
7.98343e-05
6.05908e-07
8.19551e-05
4.12355e-07
8.39834e-05
2.08474e-07
8.58196e-05
8.70425e-05
1.40553e-07
1.30799e-05
3.02438e-07
1.55596e-05
4.72715e-07
1.80305e-05
6.44839e-07
2.05243e-05
8.14111e-07
2.30403e-05
9.76859e-07
2.55798e-05
1.13031e-06
2.81405e-05
1.27239e-06
3.07184e-05
1.40153e-06
3.33092e-05
1.51658e-06
3.59084e-05
1.61668e-06
3.85113e-05
1.70118e-06
4.11134e-05
1.76961e-06
4.37103e-05
1.82162e-06
4.62978e-05
1.85696e-06
4.88719e-05
1.87546e-06
5.14291e-05
1.87703e-06
5.39662e-05
1.86166e-06
5.64805e-05
1.82937e-06
5.89695e-05
1.78026e-06
6.14316e-05
1.71448e-06
6.38652e-05
1.63224e-06
6.62695e-05
1.5338e-06
6.86435e-05
1.41948e-06
7.09865e-05
1.28967e-06
7.32974e-05
1.14482e-06
7.55745e-05
9.85448e-07
7.78138e-05
8.12136e-07
8.00079e-05
6.2554e-07
8.21421e-05
4.26964e-07
8.41826e-05
2.17027e-07
8.60308e-05
8.72626e-05
1.49313e-07
1.29307e-05
3.1982e-07
1.53891e-05
4.98287e-07
1.78521e-05
6.77852e-07
2.03447e-05
8.53534e-07
2.28646e-05
1.02153e-06
2.54118e-05
1.17906e-06
2.79829e-05
1.32411e-06
3.05733e-05
1.45526e-06
3.31781e-05
1.57147e-06
3.57922e-05
1.67205e-06
3.84108e-05
1.75648e-06
4.1029e-05
1.82441e-06
4.36424e-05
1.87559e-06
4.62466e-05
1.90985e-06
4.88376e-05
1.92709e-06
5.14119e-05
1.92727e-06
5.39661e-05
1.91037e-06
5.64974e-05
1.87646e-06
5.90035e-05
1.8256e-06
6.14825e-05
1.75796e-06
6.39329e-05
1.67369e-06
6.63538e-05
1.57305e-06
6.87442e-05
1.45632e-06
7.11033e-05
1.32384e-06
7.343e-05
1.17601e-06
7.57224e-05
1.01327e-06
7.79767e-05
8.36144e-07
8.01853e-05
6.45176e-07
8.23335e-05
4.4143e-07
8.4387e-05
2.25371e-07
8.6248e-05
8.74911e-05
1.6131e-07
1.27695e-05
3.43545e-07
1.52069e-05
5.32726e-07
1.76629e-05
7.21579e-07
2.01559e-05
9.04864e-07
2.26814e-05
1.07874e-06
2.5238e-05
1.24052e-06
2.78212e-05
1.38838e-06
3.04255e-05
1.52111e-06
3.30454e-05
1.63791e-06
3.56754e-05
1.73828e-06
3.83104e-05
1.82189e-06
4.09454e-05
1.88853e-06
4.35757e-05
1.93808e-06
4.6197e-05
1.97047e-06
4.88052e-05
1.98567e-06
5.13967e-05
1.98368e-06
5.39681e-05
1.96453e-06
5.65165e-05
1.92828e-06
5.90397e-05
1.87503e-06
6.15358e-05
1.80489e-06
6.40031e-05
1.71803e-06
6.64407e-05
1.61466e-06
6.88476e-05
1.49503e-06
7.1223e-05
1.35943e-06
7.35658e-05
1.20821e-06
7.58738e-05
1.04177e-06
7.81434e-05
8.60522e-07
8.03669e-05
6.6493e-07
8.25295e-05
4.55837e-07
8.45968e-05
2.33555e-07
8.64715e-05
8.77278e-05
1.7748e-07
1.25921e-05
3.75315e-07
1.50091e-05
5.78175e-07
1.74601e-05
7.78292e-07
1.99558e-05
9.70275e-07
2.24894e-05
1.15042e-06
2.50578e-05
1.31634e-06
2.76553e-05
1.46656e-06
3.02753e-05
1.60019e-06
3.29117e-05
1.71677e-06
3.55588e-05
1.81605e-06
3.82111e-05
1.89792e-06
4.08635e-05
1.96236e-06
4.35113e-05
2.00939e-06
4.615e-05
2.03905e-06
4.87756e-05
2.05138e-06
5.13844e-05
2.04644e-06
5.3973e-05
2.02429e-06
5.65387e-05
1.985e-06
5.90791e-05
1.92868e-06
6.15921e-05
1.85543e-06
6.40764e-05
1.7654e-06
6.65308e-05
1.65877e-06
6.89543e-05
1.53575e-06
7.13461e-05
1.39659e-06
7.37051e-05
1.24158e-06
7.6029e-05
1.07106e-06
7.83141e-05
8.8538e-07
8.05529e-05
6.84896e-07
8.27305e-05
4.70257e-07
8.48121e-05
2.41625e-07
8.67014e-05
8.79726e-05
1.99309e-07
1.23929e-05
4.17674e-07
1.47908e-05
6.37643e-07
1.72402e-05
8.5099e-07
1.97425e-05
1.05247e-06
2.22879e-05
1.23886e-06
2.48715e-05
1.40835e-06
2.74858e-05
1.56004e-06
3.01236e-05
1.69354e-06
3.27782e-05
1.80879e-06
3.54436e-05
1.90588e-06
3.81141e-05
1.98494e-06
4.07845e-05
2.04615e-06
4.34501e-05
2.08969e-06
4.61065e-05
2.1157e-06
4.87496e-05
2.12429e-06
5.13758e-05
2.11559e-06
5.39817e-05
2.08969e-06
5.65646e-05
2.04666e-06
5.91221e-05
1.98662e-06
6.16522e-05
1.90965e-06
6.41534e-05
1.81588e-06
6.66246e-05
1.70546e-06
6.90648e-05
1.57856e-06
7.14732e-05
1.43539e-06
7.38484e-05
1.27619e-06
7.61884e-05
1.10124e-06
7.84893e-05
9.10797e-07
8.07437e-05
7.05144e-07
8.29366e-05
4.84746e-07
8.50333e-05
2.49618e-07
8.69379e-05
8.82255e-05
2.29266e-07
1.21637e-05
4.74521e-07
1.45456e-05
7.15404e-07
1.69993e-05
9.43623e-07
1.95143e-05
1.15475e-06
2.20768e-05
1.34662e-06
2.46796e-05
1.51844e-06
2.7314e-05
1.67017e-06
2.99719e-05
1.80206e-06
3.26464e-05
1.91455e-06
3.53311e-05
2.00808e-06
3.80205e-05
2.08308e-06
4.07095e-05
2.13993e-06
4.33933e-05
2.17893e-06
4.60675e-05
2.20033e-06
4.87282e-05
2.20432e-06
5.13718e-05
2.19105e-06
5.3995e-05
2.16064e-06
5.65951e-05
2.11318e-06
5.91696e-05
2.04877e-06
6.17167e-05
1.96749e-06
6.42348e-05
1.86943e-06
6.67227e-05
1.75472e-06
6.91796e-05
1.62347e-06
7.16045e-05
1.47587e-06
7.39961e-05
1.31209e-06
7.63524e-05
1.13233e-06
7.86694e-05
9.36819e-07
8.09396e-05
7.2572e-07
8.31482e-05
4.99344e-07
8.52604e-05
2.57565e-07
8.7181e-05
8.84863e-05
2.71645e-07
1.18922e-05
5.51988e-07
1.42653e-05
8.17546e-07
1.67338e-05
1.06129e-06
1.92706e-05
1.28097e-06
2.18572e-05
1.47642e-06
2.44842e-05
1.64842e-06
2.7142e-05
1.79803e-06
2.98223e-05
1.92633e-06
3.25181e-05
2.03426e-06
3.52232e-05
2.12266e-06
3.79321e-05
2.19222e-06
4.06399e-05
2.24347e-06
4.3342e-05
2.27684e-06
4.60341e-05
2.29266e-06
4.87124e-05
2.29117e-06
5.13733e-05
2.27254e-06
5.40137e-05