/*--------------------------------*- C++ -*----------------------------------*\
  =========                 |
  \\      /  F ield         | OpenFOAM: The Open Source CFD Toolbox
   \\    /   O peration     | Website:  https://openfoam.org
    \\  /    A nd           | Version:  10
     \\/     M anipulation  |
\*---------------------------------------------------------------------------*/
FoamFile
{
    format      ascii;
    class       volScalarField;
    location    "12000/gas";
    object      Qdot;
}
// * * * * * * * * * * * * * * * * * * * * * * * * * * * * * * * * * * * * * //

dimensions      [1 -1 -3 0 0 0 0];

internalField   nonuniform List<scalar> 
16000
(
0
-1.63166e-53
0
0
0
0
0
0
0
-2.05337e-57
0
0
-1.42458e-48
0
0
0
0
0
0
0
0
0
-1.13967e-47
0
0
0
0
0
2.15312e-51
0
0
0
-9.33615e-44
0
-1.16702e-44
0
0
0
0
0
0
0
0
0
-4.13004e-06
0
0
0
0
0
0
0
-6.11854e-39
0
0
0
0
0
0
0
0
0
0
0
0
0
0
0
0
0
0
0
0
0
0
0
0
0
0
0
0
0
9.63161e-33
0
0
0
0
0
0
0
0
0
0
0
0
0
0
0
0
0
0
0
0
0
0
0
0
0
0
-7.94359e-32
0
0
0
0
0
0
0
0
0
0
0
0
0
0
0
0
0
0
0
0
0
0
0
0
0
0
0
0
0
0
0
0
0
0
0
3.69843e-15
0
0
0
0
0
0
0
0
0
0
0
0
0
3.63872e-10
0
0
9.10941e-11
-7.33643e-21
0
0
0
0
0
0
0
0
0
0
0
0
0
0
0
0
0
0
0
0
0
0
0
0
0
0
0
0
0
0
0
0
0
0
0
0
0
0
0
0
0
0
0
0
0
0
0
0
0
0
0
2.34766e-19
0
0
0
0
0
0
0
0
0
-9.10941e-11
0
0
0
-1.35553e-18
0
0
0
0
0
0
0
0
0
0
0
0
0
0
0
-9.10941e-11
0
0
0
0
0
0
0
0
-1.46729e-20
-1.83411e-21
0
0
0
0
0
0
0
0
0
0
0
0
0
0
0
0
-9.10941e-11
0
0
0
0
0
0
0
0
0
0
0
0
0
0
-7.33643e-21
0
0
0
0
0
0
0
0
0
0
0
0
0
0
0
0
0
0
0
0
0
0
0
0
0
5.42211e-18
0
0
0
0
0
0
0
0
0
0
0
0
0
0
0
0
0
0
0
3.75625e-18
0
0
0
0
0
0
0
0
0
0
0
7.2235e-18
0
0
0
0
0
0
0
0
0
0
0
0
0
0
0
0
0
0
0
0
0
0
0
0
0
0
0
0
0
0
0
0
0
0
0
0
0
0
0
0
0
0
0
0
0
0
0
0
0
0
0
0
0
0
0
0
0
8.67538e-17
0
0
0
0
0
0
0
0
0
0
0
0
0
0
0
0
0
0
0
0
0
0
0
0
0
0
0
0
0
0
0
0
0
0
0
5.7788e-17
0
0
0
0
0
0
0
0
0
0
0
0
0
0
0
0
0
0
0
0
0
0
0
0
0
0
0
0
1.73508e-16
0
0
9.10941e-11
0
0
0
0
0
0
0
0
0
1.4447e-17
0
0
0
8.67538e-17
0
0
1.5025e-17
-9.10941e-11
0
0
0
0
0
-9.10942e-11
0
-2.31152e-16
0
0
0
0
9.10941e-11
9.10941e-11
0
0
0
0
0
0
0
0
7.2235e-18
0
0
0
0
0
0
0
0
0
0
0
0
0
0
-2.31152e-16
-3.005e-17
0
0
9.10941e-11
2.31152e-16
-1.15863e-16
0
0
0
0
0
0
0
0
0
0
0
0
0
0
-1.17227e-11
0
0
0
0
0
0
0
6.01e-17
0
0
0
0
0
0
0
-6.01e-17
-4.62304e-16
0
0
0
0
0
0
0
-7.5125e-18
0
0
0
0
0
0
0
0
0
-9.10941e-11
0
0
0
0
0
0
0
0
0
0
0
0
0
0
0
0
0
0
0
0
0
0
0
0
0
0
0
0
0
0
2.31727e-16
0
0
0
0
0
0
0
0
0
0
0
0
0
0
0
1.17227e-11
0
0
0
0
0
0
0
0
0
0
0
0
0
0
0
0
0
0
0
0
0
0
0
0
0
0
0
0
0
0
0
0
0
0
0
0
0
0
0
0
0
0
0
0
0
-4.62304e-16
0
0
0
0
0
0
0
0
0
0
0
0
0
0
-9.10941e-11
0
0
0
0
0
0
0
0
0
0
0
0
1.5025e-17
0
0
0
0
0
0
0
0
0
0
0
0
-2.77612e-15
0
0
0
0
0
0
0
0
0
0
-2.404e-16
0
0
0
0
0
0
0
0
0
6.94031e-16
0
0
0
0
0
0
0
0
0
0
0
0
0
0
0
0
0
0
0
0
0
0
0
1.17227e-11
-1.202e-16
0
0
0
0
0
0
0
0
0
-3.69843e-15
0
0
0
0
0
0
0
0
0
0
0
0
0
0
1.17227e-11
0
0
1.17227e-11
0
0
0
0
0
0
0
0
0
0
0
0
-2.404e-16
0
0
0
0
0
0
0
0
0
0
0
0
0
0
0
0
0
9.616e-16
-9.10941e-11
0
0
0
0
1.17227e-11
0
-1.17227e-11
0
0
0
0
0
0
0
0
0
0
0
0
0
0
0
-2.95874e-14
0
0
0
0
0
0
0
0
0
0
0
0
0
0
0
0
0
0
0
0
0
0
0
0
0
0
0
0
0
0
0
0
0
0
0
0
0
0
0
0
0
0
0
0
0
0
0
0
1.17227e-11
0
0
0
0
0
0
0
0
0
0
0
0
0
-8.88359e-14
0
0
0
0
0
0
0
0
0
0
0
0
0
0
-1.17255e-11
0
0
0
0
0
0
1.11045e-14
0
0
0
0
-8.88359e-14
0
0
0
0
0
0
0
0
0
0
0
0
0
0
0
0
0
0
0
0
4.808e-16
0
0
0
0
0
0
0
0
0
0
0
0
0
0
0
0
0
0
9.10941e-11
0
-8.88359e-14
0
0
0
0
0
0
0
0
0
1.17227e-11
0
0
0
0
0
0
0
0
0
0
0
0
0
0
0
0
0
0
0
0
0
0
1.1835e-13
0
0
0
0
4.4418e-14
0
-2.95874e-14
0
0
0
0
0
0
0
0
0
0
0
0
0
0
0
0
0
0
0
0
0
0
0
0
0
0
0
0
0
0
0
0
0
0
0
0
0
0
0
0
8.88359e-14
0
0
0
0
0
0
-9.10941e-11
0
-6.15424e-14
0
0
0
0
0
0
0
0
0
0
0
0
0
0
0
0
0
0
0
0
0
0
0
0
0
0
0
0
0
0
0
0
-1.23085e-13
6.15424e-14
0
9.46798e-13
0
0
0
0
0
0
0
0
0
0
0
0
0
0
0
0
0
0
0
0
0
0
0
-1.23085e-13
0
0
0
0
0
0
0
0
0
0
0
9.10941e-11
0
0
-3.55344e-13
0
0
0
0
-4.4418e-14
0
0
0
0
0
0
0
0
0
0
0
0
0
0
0
0
0
0
0
-9.46798e-13
0
1.17227e-11
0
0
0
0
-9.10941e-11
0
0
0
0
0
0
0
-7.39686e-15
0
0
0
0
0
0
0
0
0
0
0
-3.78719e-12
0
0
0
0
0
0
0
0
0
0
1.23085e-13
0
0
0
0
0
-9.10941e-11
0
0
-1.17227e-11
0
1.26695e-11
0
0
-8.54086e-11
0
0
-7.57439e-12
0
-9.10941e-11
0
0
0
0
0
0
0
0
0
0
0
0
0
0
0
0
-2.367e-13
0
1.77672e-13
0
0
7.39686e-15
0
0
0
1.06243e-10
0
0
0
0
0
0
2.2742e-11
0
0
-9.10941e-11
0
0
0
0
0
0
0
0
0
0
0
0
0
0
0
0
0
0
0
0
0
0
0
0
0
0
0
0
0
0
0
0
0
0
0
0
1.17227e-11
0
0
0
0
0
0
0
0
0
-1.17227e-11
0
0
3.8464e-15
0
0
0
0
-9.0968e-11
0
0
9.0968e-11
0
3.02975e-11
0
0
0
1.51488e-11
0
0
0
0
0
0
0
0
0
0
0
0
0
0
0
0
0
0
0
0
0
0
0
0
0
0
0
0
0
0
0
0
0
0
-1.51488e-11
0
0
9.10941e-11
0
0
0
0
0
0
-1.8936e-12
0
0
6.15424e-14
0
0
0
0
0
0
0
0
0
0
0
0
0
0
9.0968e-11
-4.5484e-11
0
-3.93871e-12
0
0
0
1.96936e-12
0
0
0
0
-9.84679e-13
0
0
0
-1.17227e-11
0
0
0
0
0
0
0
0
0
0
0
0
0
0
0
0
0
0
0
0
0
0
0
0
0
0
0
0
0
0
1.17227e-11
0
0
0
0
0
0
0
0
0
0
4.5547e-11
0
0
0
0
0
0
0
0
0
0
-2.01662e-09
-2.01662e-09
-1.26115e-07
-2.01662e-09
1.22082e-07
-4.03324e-09
-4.03324e-09
-4.03324e-09
-6.04987e-09
-6.04987e-09
-6.04987e-09
-1.00831e-08
-8.06649e-09
-1.00831e-08
-1.00831e-08
1.16032e-07
-8.06649e-09
-6.04987e-09
-6.04987e-09
-4.03324e-09
-2.01662e-09
-2.01662e-09
0
0
0
0
0
0
0
0
0
0
0
0
0
0
0
2.06217e-09
0
0
-2.01662e-09
-2.01662e-09
-2.01662e-09
-2.01662e-09
-2.01662e-09
1.20065e-07
-4.03324e-09
-4.03324e-09
-8.06649e-09
-8.06649e-09
-6.04987e-09
-8.06649e-09
-8.06649e-09
-8.06649e-09
-1.00831e-08
-8.06649e-09
-8.06649e-09
-6.04987e-09
-6.04987e-09
-4.03324e-09
-2.01662e-09
-2.01662e-09
0
0
-1.17227e-11
0
0
0
0
0
0
0
0
0
0
-4.5547e-11
1.24099e-07
0
0
0
-2.01662e-09
-2.01662e-09
-2.01662e-09
-2.01662e-09
-2.01662e-09
-4.07879e-09
-4.03324e-09
-4.03324e-09
-6.04987e-09
-6.04987e-09
-8.06649e-09
-8.06649e-09
-8.02094e-09
-8.06063e-09
-1.00831e-08
-8.06649e-09
-8.06649e-09
-8.06649e-09
-6.04987e-09
-6.04987e-09
-2.01662e-09
-2.01662e-09
-1.24099e-07
0
0
0
4.03324e-09
0
-1.26127e-07
0
0
0
0
9.31512e-08
0
4.5547e-11
-2.01662e-09
0
0
0
-2.01662e-09
-2.01662e-09
-1.88319e-07
-2.01662e-09
-4.03324e-09
-4.03324e-09
-4.03324e-09
-6.04987e-09
-6.04987e-09
-6.04987e-09
-8.06649e-09
-8.06649e-09
-8.06649e-09
-1.00831e-08
-1.00831e-08
-1.00831e-08
-8.06649e-09
-1.0089e-08
-6.04987e-09
-4.07879e-09
-2.01662e-09
-2.01662e-09
1.24099e-07
0
0
0
0
-1.24099e-07
0
0
0
0
0
0
0
0
0
0
0
-2.01662e-09
-2.01662e-09
1.84286e-07
-2.01662e-09
-2.01662e-09
-4.03324e-09
-4.03324e-09
-4.03324e-09
-6.04987e-09
-6.04987e-09
-8.06649e-09
-8.06649e-09
-1.00831e-08
-1.00831e-08
-1.00831e-08
-1.20997e-08
-1.00831e-08
-8.06649e-09
-8.06649e-09
-6.04987e-09
-4.03324e-09
-4.03324e-09
-2.01662e-09
0
0
0
0
0
0
0
0
0
0
0
0
0
0
0
0
5.86134e-12
-1.97108e-09
-2.01662e-09
-2.01662e-09
-2.02248e-09
-2.01662e-09
-4.03324e-09
-4.03324e-09
-6.04987e-09
-6.04987e-09
-6.04987e-09
-8.06649e-09
-8.06649e-09
-1.00831e-08
1.14016e-07
-1.00831e-08
-1.00831e-08
-1.00831e-08
-1.00831e-08
-8.06649e-09
-8.06649e-09
-6.00432e-09
-6.04987e-09
-2.01662e-09
3.7265e-07
0
0
0
0
0
4.03324e-09
0
0
0
0
0
0
0
0
5.86134e-12
0
-2.01662e-09
-2.01662e-09
-2.01662e-09
-2.01662e-09
-6.04987e-09
-6.04987e-09
-1.92352e-07
-6.044e-09
-6.04987e-09
-8.06649e-09
-8.06649e-09
-1.00831e-08
-1.00831e-08
-1.20997e-08
-1.41164e-08
-1.20997e-08
-1.00831e-08
-1.20997e-08
-8.06649e-09
-8.06649e-09
-6.04987e-09
-4.03324e-09
-2.01662e-09
0
-2.01662e-09
0
0
0
0
0
0
0
0
-2.01662e-09
0
0
0
-1.24099e-07
0
-2.02248e-09
-2.01662e-09
-2.01662e-09
-2.01662e-09
-2.01662e-09
-3.9877e-09
-4.03324e-09
-4.03324e-09
-6.04987e-09
-6.04987e-09
-1.94369e-07
-8.06649e-09
-1.00831e-08
-1.20997e-08
-1.20997e-08
1.11999e-07
1.11999e-07
-1.20997e-08
-1.00831e-08
-1.00831e-08
-8.06649e-09
-6.09541e-09
-4.03324e-09
-2.01662e-09
0
0
0
0
4.03911e-09
0
0
0
0
0
0
-2.01662e-09
0
0
0
0
-2.01662e-09
-4.03324e-09
-2.01662e-09
-2.01662e-09
-2.01662e-09
-4.03324e-09
-4.03324e-09
-6.04987e-09
-6.04987e-09
-8.06649e-09
-8.06649e-09
-1.00831e-08
-1.00831e-08
-1.20997e-08
1.11999e-07
1.09982e-07
1.09982e-07
1.09982e-07
-1.20997e-08
-1.00831e-08
-8.06649e-09
-6.04987e-09
-4.03324e-09
-2.01662e-09
0
0
0
0
0
0
2.01662e-09
0
0
0
0
0
9.31512e-08
0
-9.31512e-08
-2.01662e-09
-2.01662e-09
-2.01662e-09
-2.01662e-09
-2.01662e-09
-4.03324e-09
-4.03324e-09
-4.03324e-09
-6.04987e-09
-6.04987e-09
-8.06649e-09
-1.00831e-08
-1.00831e-08
-1.20997e-08
1.11999e-07
1.11999e-07
1.09982e-07
1.09982e-07
1.09982e-07
1.11999e-07
-1.20997e-08
-8.06649e-09
-6.04987e-09
-4.03324e-09
-2.01662e-09
0
0
0
0
0
0
0
0
0
0
0
0
0
0
0
-2.01662e-09
-2.01662e-09
-2.01662e-09
-2.01662e-09
-2.01662e-09
-4.03324e-09
-4.03324e-09
-6.04987e-09
-6.04987e-09
-8.06649e-09
-8.06649e-09
-1.00831e-08
-1.00831e-08
1.11999e-07
1.09982e-07
1.09982e-07
2.96285e-07
2.96285e-07
1.09982e-07
1.11999e-07
-1.41164e-08
-1.20997e-08
-8.06649e-09
-4.03324e-09
-2.01662e-09
0
0
0
0
0
0
0
0
0
0
0
0
0
0
0
-2.01662e-09
-2.01662e-09
-2.01662e-09
-2.01662e-09
-8.06649e-09
-4.03324e-09
-4.03324e-09
-6.04987e-09
-6.04987e-09
-8.06649e-09
-1.00831e-08
-1.00831e-08
1.11999e-07
1.11999e-07
1.09982e-07
2.94268e-07
2.94268e-07
2.94268e-07
2.96285e-07
1.09982e-07
1.09982e-07
-1.00831e-08
-8.06649e-09
-4.03324e-09
-2.01662e-09
0
0
0
-1.24093e-07
0
0
0
0
0
0
0
0
0
9.10941e-11
-2.01662e-09
-2.01662e-09
-2.01662e-09
-2.01662e-09
-2.01662e-09
-4.03324e-09
-4.03911e-09
-6.04987e-09
-6.04987e-09
-8.06649e-09
-8.06649e-09
-1.00831e-08
-1.41164e-08
1.11999e-07
1.09937e-07
2.96285e-07
2.92252e-07
2.94268e-07
2.94268e-07
2.94268e-07
4.82587e-07
1.11999e-07
-1.00831e-08
-1.00831e-08
-6.04987e-09
-2.01662e-09
0
0
0
0
0
0
0
0
0
0
0
0
0
-2.01662e-09
-2.01662e-09
-2.01662e-09
-2.01662e-09
-2.01662e-09
-2.01662e-09
-4.03324e-09
-4.03324e-09
-6.04987e-09
-6.04987e-09
-1.0089e-08
-1.00831e-08
-1.00831e-08
1.11999e-07
1.09982e-07
2.94268e-07
2.92252e-07
2.92252e-07
2.92252e-07
2.92252e-07
2.94268e-07
2.94268e-07
1.09982e-07
-1.20997e-08
-8.06649e-09
-8.06649e-09
-4.03324e-09
0
0
0
0
-4.5547e-11
0
0
0
0
0
0
0
0
0
-2.01662e-09
-2.01662e-09
-2.01662e-09
-2.01662e-09
1.20065e-07
-4.03324e-09
-4.03324e-09
-6.04987e-09
-6.04987e-09
-8.06649e-09
-1.00831e-08
1.74203e-07
1.11999e-07
2.96285e-07
2.92252e-07
4.18367e-07
2.92252e-07
4.78554e-07
4.1635e-07
2.92252e-07
4.80571e-07
2.96285e-07
1.11999e-07
-1.00831e-08
-6.04987e-09
-2.01662e-09
0
0
5.86134e-12
0
0
0
0
0
0
-9.31512e-08
2.48197e-07
0
0
-2.01662e-09
-2.01662e-09
-2.01662e-09
-2.01662e-09
-2.01662e-09
-4.03324e-09
-4.03324e-09
-6.04987e-09
-6.04987e-09
-8.06649e-09
-8.06649e-09
-1.00831e-08
1.11999e-07
1.09982e-07
2.94268e-07
2.92252e-07
4.78554e-07
2.90235e-07
2.90235e-07
2.90235e-07
2.90235e-07
2.92252e-07
2.94268e-07
1.11999e-07
-1.00831e-08
-6.04987e-09
-2.01662e-09
1.24099e-07
0
0
0
0
0
0
0
0
0
0
0
0
-2.01662e-09
-2.01662e-09
-2.01662e-09
-1.97108e-09
-2.01662e-09
-4.03324e-09
-4.03324e-09
1.80253e-07
-6.09541e-09
-8.06649e-09
-1.00831e-08
-1.20997e-08
1.11999e-07
2.9633e-07
2.94268e-07
2.92252e-07
2.90235e-07
2.90235e-07
2.90235e-07
2.92252e-07
2.90235e-07
2.92252e-07
4.18367e-07
1.09982e-07
-1.20997e-08
-6.04987e-09
-6.04987e-09
0
0
0
0
0
0
0
0
0
2.01662e-09
0
0
-4.5547e-11
-2.01662e-09
-2.01662e-09
-2.01662e-09
-2.01662e-09
-4.03324e-09
-4.03324e-09
-4.03324e-09
-6.04987e-09
-8.06649e-09
-8.06649e-09
-1.00831e-08
1.11999e-07
1.09982e-07
2.94268e-07
2.92252e-07
2.88218e-07
4.1635e-07
2.86202e-07
2.88218e-07
2.86202e-07
2.86202e-07
2.88218e-07
2.92252e-07
1.09982e-07
-1.20997e-08
1.80253e-07
-8.06649e-09
0
-5.86134e-12
0
2.01662e-09
0
0
0
0
0
0
0
0
-2.01662e-09
-2.01662e-09
-2.01662e-09
-2.02248e-09
-2.01662e-09
-4.03324e-09
-4.03324e-09
-6.04987e-09
1.18049e-07
-8.06649e-09
-1.00831e-08
-1.00831e-08
1.11999e-07
2.94268e-07
2.94268e-07
2.92297e-07
2.90235e-07
2.88218e-07
2.86202e-07
4.72504e-07
2.86202e-07
2.88218e-07
2.90235e-07
2.90235e-07
2.94268e-07
-1.20997e-08
-8.06649e-09
-4.03324e-09
0
0
0
0
0
-9.51678e-08
0
0
0
0
-1.24099e-07
1.24099e-07
-2.01662e-09
-2.01662e-09
-2.01662e-09
-2.01662e-09
-2.01662e-09
-4.03324e-09
-4.03324e-09
-6.05573e-09
-6.00432e-09
-8.06649e-09
-1.00831e-08
1.11999e-07
1.09982e-07
2.92252e-07
2.92252e-07
4.74521e-07
2.88218e-07
2.86202e-07
2.86202e-07
2.86202e-07
2.84185e-07
2.84185e-07
2.86202e-07
2.90235e-07
2.94268e-07
1.09982e-07
-1.94369e-07
-4.03324e-09
0
0
0
0
0
0
0
0
0
0
4.5547e-11
0
-1.26121e-07
-2.01662e-09
-2.01662e-09
-2.01662e-09
-4.03324e-09
-4.03324e-09
-4.03324e-09
-6.04987e-09
-1.00831e-08
-8.06063e-09
-1.00831e-08
1.11999e-07
2.9633e-07
2.94314e-07
2.92252e-07
2.88218e-07
2.88218e-07
2.86202e-07
2.82168e-07
2.84185e-07
2.82168e-07
2.82168e-07
2.84185e-07
2.88218e-07
2.94268e-07
1.11999e-07
-8.06649e-09
-4.03324e-09
0
0
0
0
0
0
0
0
0
-2.01662e-09
0
0
-2.01662e-09
-2.01662e-09
-4.03324e-09
-2.01662e-09
-4.03324e-09
-4.03324e-09
-6.04987e-09
-6.04987e-09
-1.32165e-07
-1.00831e-08
-1.20997e-08
1.09982e-07
2.94268e-07
2.90235e-07
2.90235e-07
2.88218e-07
2.88218e-07
2.84185e-07
2.82168e-07
2.82168e-07
2.82168e-07
2.84185e-07
2.84185e-07
2.88218e-07
2.92252e-07
1.09982e-07
-8.06649e-09
-4.03324e-09
0
0
0
0
0
-4.5547e-11
4.5547e-11
0
0
4.5547e-11
0
-2.01662e-09
-2.01662e-09
-2.01662e-09
-2.01662e-09
-2.01662e-09
-6.04987e-09
-6.04987e-09
-6.04987e-09
-1.00831e-08
-8.06649e-09
-1.20997e-08
1.11993e-07
2.94268e-07
4.18367e-07
4.78554e-07
2.88264e-07
2.84185e-07
2.86202e-07
2.82168e-07
2.78135e-07
2.80152e-07
4.64438e-07
2.82168e-07
2.84185e-07
2.86202e-07
2.90235e-07
1.09982e-07
-1.20997e-08
-4.03324e-09
-2.01662e-09
0
0
0
0
0
-2.01662e-09
0
-4.5547e-11
0
0
-2.01662e-09
1.84286e-07
-2.01662e-09
-2.01662e-09
-4.03324e-09
-4.03324e-09
-6.04987e-09
-6.04987e-09
-8.06649e-09
-1.00376e-08
-1.00831e-08
1.09988e-07
2.94268e-07
2.92252e-07
2.90235e-07
2.88218e-07
2.84185e-07
2.84185e-07
2.78135e-07
2.80152e-07
2.78135e-07
2.78135e-07
2.80152e-07
2.80152e-07
2.86202e-07
2.90235e-07
2.96285e-07
-1.00831e-08
-4.03324e-09
-2.01662e-09
0
0
0
0
0
0
0
0
0
1.24099e-07
-4.03324e-09
-1.26115e-07
-2.01662e-09
-2.01662e-09
-4.03324e-09
-4.03324e-09
-6.04987e-09
-6.04987e-09
-8.06649e-09
-1.0089e-08
1.09982e-07
1.09982e-07
2.94268e-07
2.90235e-07
2.86202e-07
2.88218e-07
2.82168e-07
2.82168e-07
2.76119e-07
4.62421e-07
2.74102e-07
2.76119e-07
2.80106e-07
2.78135e-07
2.84185e-07
2.86202e-07
4.78554e-07
-1.00831e-08
-4.03324e-09
-2.01662e-09
0
0
0
0
0
0
0
0
0
-2.01662e-09
-2.02248e-09
-2.01662e-09
-2.01662e-09
-2.01662e-09
1.18049e-07
-6.04987e-09
-6.04987e-09
-8.06649e-09
-8.06649e-09
-1.00831e-08
1.11999e-07
2.96285e-07
2.92252e-07
2.88218e-07
2.88218e-07
2.84185e-07
2.80152e-07
2.78135e-07
2.74102e-07
2.76119e-07
3.98201e-07
3.98201e-07
2.76119e-07
4.62421e-07
2.80152e-07
2.86202e-07
2.94268e-07
-1.00831e-08
-6.04987e-09
-2.06217e-09
0
0
0
0
0
2.02248e-09
0
0
0
-4.03324e-09
-2.01662e-09
-2.01662e-09
-2.01662e-09
-4.03324e-09
-4.03324e-09
-4.03324e-09
-6.04987e-09
-8.06649e-09
-1.00831e-08
-1.20997e-08
2.96285e-07
2.94268e-07
4.76537e-07
2.86202e-07
2.86202e-07
2.82168e-07
2.82168e-07
2.78135e-07
3.98201e-07
3.98201e-07
3.98201e-07
3.94167e-07
3.96184e-07
2.74102e-07
2.82168e-07
2.86202e-07
2.92252e-07
-1.20997e-08
-8.06649e-09
-2.01662e-09
0
0
0
0
0
0
0
-1.24099e-07
0
-2.01662e-09
-2.01662e-09
-2.01662e-09
-2.01662e-09
-4.03324e-09
-4.03324e-09
-6.04987e-09
-1.30149e-07
-8.06649e-09
-1.00831e-08
1.11999e-07
1.07966e-07
2.94314e-07
2.88264e-07
2.88218e-07
2.84185e-07
2.82168e-07
2.78135e-07
2.74102e-07
3.96184e-07
3.94167e-07
3.92151e-07
3.94167e-07
3.94167e-07
3.98201e-07
2.78135e-07
2.84185e-07
2.92252e-07
1.11953e-07
-6.04987e-09
-2.01662e-09
0
0
0
2.01662e-09
0
0
0
0
-2.01662e-09
-2.01662e-09
-1.88319e-07
-2.01662e-09
-2.01662e-09
-4.03324e-09
-6.04987e-09
-6.04987e-09
-1.00831e-08
-8.06649e-09
-1.20997e-08
1.11999e-07
2.94268e-07
2.94268e-07
2.90235e-07
2.84185e-07
2.82168e-07
2.82168e-07
2.74102e-07
3.96184e-07
3.94167e-07
5.18266e-07
3.92151e-07
5.1625e-07
3.94167e-07
3.96184e-07
2.78135e-07
2.84185e-07
2.90235e-07
1.11999e-07
-6.00432e-09
-2.01662e-09
0
0
0
0
0
0
0
0
-2.01662e-09
-2.01662e-09
-2.01662e-09
-2.01662e-09
-6.04987e-09
-4.03324e-09
-6.04987e-09
-6.04987e-09
-8.06649e-09
-1.00831e-08
-1.20997e-08
1.07966e-07
2.94268e-07
2.88218e-07
2.88218e-07
2.84185e-07
2.80152e-07
2.76119e-07
3.98201e-07
3.94167e-07
3.94167e-07
7.00535e-07
5.76437e-07
5.7442e-07
7.02552e-07
3.92151e-07
2.74102e-07
2.80152e-07
2.88218e-07
1.07966e-07
-6.05573e-09
-2.01662e-09
0
0
0
0
0
0
0
0
-1.26115e-07
-2.01662e-09
-2.01662e-09
-2.01076e-09
-4.03324e-09
-4.03324e-09
-6.04987e-09
1.80253e-07
-8.06649e-09
-1.00831e-08
1.11999e-07
2.96285e-07
2.92252e-07
2.90235e-07
2.86202e-07
2.82168e-07
2.80152e-07
2.76119e-07
2.09876e-07
3.90134e-07
7.60722e-07
3.88118e-07
5.72358e-07
5.70387e-07
5.7442e-07
3.92151e-07
3.94167e-07
2.82168e-07
2.86202e-07
2.96285e-07
-6.04987e-09
-1.97108e-09
0
0
0
0
-2.01662e-09
0
0
0
-2.01662e-09
-2.01662e-09
-2.01662e-09
-2.01662e-09
-4.03324e-09
-4.03324e-09
-6.04987e-09
-8.06649e-09
-8.11204e-09
-1.00831e-08
1.11999e-07
2.94268e-07
2.90235e-07
2.88218e-07
2.82168e-07
2.80152e-07
2.78135e-07
3.96184e-07
3.94167e-07
5.7442e-07
5.7442e-07
6.94485e-07
5.6837e-07
6.92469e-07
5.72403e-07
5.78453e-07
3.94167e-07
2.78135e-07
2.86202e-07
6.04669e-07
-1.00831e-08
-2.01662e-09
0
9.11346e-08
0
-9.31512e-08
0
0
0
-2.01662e-09
-2.01662e-09
-2.01662e-09
-2.01662e-09
-2.01662e-09
-4.03324e-09
-4.03324e-09
-6.04987e-09
-8.06649e-09
-1.01287e-08
-1.20997e-08
1.09982e-07
2.94268e-07
2.90235e-07
2.88218e-07
9.78826e-08
2.78135e-07
8.77995e-08
3.9619e-07
5.78453e-07
5.72403e-07
5.70387e-07
5.66353e-07
5.64337e-07
3.84084e-07
3.82068e-07
5.72403e-07
3.90134e-07
2.76119e-07
4.68471e-07
2.92252e-07
-8.06649e-09
-2.01662e-09
0
0
0
0
9.31512e-08
-4.5547e-11
0
-2.01662e-09
-1.97108e-09
-2.01662e-09
-2.01662e-09
-4.03324e-09
-4.03324e-09
-6.04987e-09
-6.04987e-09
-8.06649e-09
-1.00831e-08
2.36098e-07
2.96285e-07
2.90235e-07
2.88218e-07
2.86202e-07
2.82168e-07
2.78135e-07
3.98201e-07
3.90134e-07
5.72403e-07
5.6837e-07
5.06166e-07
5.6837e-07
5.64337e-07
5.66353e-07
5.66353e-07
5.70387e-07
5.76482e-07
3.98201e-07
2.80152e-07
2.92252e-07
-1.00831e-08
-2.01662e-09
0
0
0
0
0
0
0
-2.01662e-09
-2.01662e-09
-2.01662e-09
-2.01662e-09
-1.28132e-07
-4.03324e-09
-8.06649e-09
-6.04987e-09
-8.06649e-09
-1.00831e-08
1.09982e-07
2.92252e-07
2.90235e-07
2.88218e-07
1.5807e-07
2.80152e-07
2.76119e-07
3.94167e-07
5.7442e-07
5.7442e-07
5.6837e-07
5.64337e-07
5.60304e-07
8.72721e-07
5.60304e-07
5.6232e-07
5.66353e-07
5.7442e-07
3.94167e-07
2.82214e-07
2.90235e-07
-8.06649e-09
-2.01662e-09
0
0
0
9.31512e-08
0
0
0
-2.01662e-09
-2.01662e-09
-4.03324e-09
-2.01662e-09
-4.03324e-09
-4.03324e-09
-6.04987e-09
-8.06649e-09
-1.00831e-08
-1.41164e-08
1.09982e-07
2.92252e-07
2.90189e-07
2.86202e-07
2.80152e-07
2.78135e-07
3.98201e-07
3.92151e-07
7.60722e-07
5.70387e-07
5.6232e-07
6.86419e-07
5.58287e-07
9.92787e-07
6.82386e-07
6.82386e-07
5.66353e-07
5.72403e-07
3.96184e-07
2.80152e-07
2.88218e-07
-1.00831e-08
-2.01662e-09
0
0
0
0
0
0
1.22082e-07
-2.01662e-09
-2.01662e-09
-2.01662e-09
-4.03324e-09
-4.03324e-09
-4.03324e-09
-6.04987e-09
-8.06649e-09
-1.00831e-08
1.11999e-07
2.96285e-07
2.90235e-07
2.90235e-07
2.86202e-07
4.68471e-07
2.78135e-07
3.96184e-07
5.7442e-07
5.70387e-07
5.64337e-07
5.6232e-07
6.82386e-07
6.82386e-07
6.78352e-07
6.78352e-07
6.80369e-07
6.84402e-07
5.66353e-07
5.76391e-07
2.76119e-07
2.90235e-07
-1.00831e-08
-2.01662e-09
0
0
0
0
0
0
-2.01662e-09
-2.01662e-09
-2.01662e-09
-2.01662e-09
-4.03324e-09
-6.04987e-09
-6.04987e-09
-6.04987e-09
-8.06649e-09
-1.00831e-08
1.11999e-07
2.94268e-07
2.92252e-07
2.86202e-07
2.84185e-07
2.78135e-07
3.98201e-07
3.94162e-07
5.72403e-07
5.6837e-07
3.80051e-07
6.82386e-07
6.78352e-07
6.76336e-07
6.74319e-07
6.74313e-07
6.76336e-07
8.68688e-07
6.88436e-07
5.72403e-07
2.76073e-07
2.88218e-07
-1.00831e-08
-2.01662e-09
0
0
0
0
0
0
-2.01662e-09
1.22082e-07
-2.01662e-09
-4.03324e-09
-4.03324e-09
-4.03324e-09
-6.04987e-09
-8.06649e-09
-8.06649e-09
-1.00831e-08
1.09982e-07
2.94268e-07
2.90235e-07
2.86202e-07
2.82168e-07
2.78135e-07
3.94167e-07
5.76437e-07
5.7442e-07
5.6837e-07
5.60304e-07
6.80369e-07
6.74319e-07
8.58605e-07
8.58605e-07
8.56588e-07
7.34506e-07
6.78352e-07
6.84402e-07
5.72403e-07
3.98201e-07
2.86202e-07
-1.20997e-08
-2.01662e-09
0
0
0
0
0
-2.48197e-07
-2.01662e-09
-2.01662e-09
-2.01662e-09
-2.01662e-09
-6.04987e-09
-4.03324e-09
-6.04987e-09
-8.06649e-09
-1.00831e-08
1.11999e-07
2.96285e-07
2.92252e-07
2.88218e-07
2.86202e-07
2.80152e-07
2.76119e-07
3.94167e-07
5.76437e-07
5.6837e-07
5.60304e-07
6.78352e-07
6.76336e-07
9.82704e-07
1.04087e-06
9.76654e-07
9.78671e-07
8.56594e-07
6.74319e-07
5.58287e-07
3.84084e-07
3.94167e-07
2.82168e-07
1.11999e-07
-2.01662e-09
0
0
0
0
0
0
0
0
0
0
0
0
0
0
0
0
0
-5.82195e-09
-7.11672e-13
0
0
0
-2.32885e-08
0
0
0
0
0
0
0
0
0
0
0
0
0
0
4.13004e-06
0
0
0
0
0
0
7.11672e-13
0
0
0
1.42334e-12
0
0
0
1.42334e-12
0
2.84669e-12
0
-4.65742e-08
0
0
0
-6.20494e-08
-2.85814e-12
0
-2.28958e-14
0
0
0
-6.86875e-14
0
0
0
-2.28958e-13
0
0
0
3.104e-07
0
0
0
1.1175e-06
0
0
0
2.421e-06
1.24099e-07
0
0
7.1389e-06
0
0
0
1.53787e-05
-2.84669e-12
0
0
3.788e-05
0
0
-2.28958e-14
0.000101679
0
0
-1.14479e-13
0.00024349
0
0
4.96703e-07
0.000602747
0
0
6.20801e-07
0.00125224
0
0
1.6761e-06
0.00419327
0
-2.28958e-14
5.6491e-06
0.00801202
0
-1.14479e-13
1.3827e-05
0.0149463
-2.28958e-14
1.24098e-07
3.84552e-05
0.0309872
-4.57917e-14
4.34499e-07
0.000103355
0.0662414
-2.28958e-13
1.4898e-06
0.000263073
0.137071
1.86302e-07
5.0283e-06
0.000649041
0.273139
1.0553e-06
1.20265e-05
0.00164756
0.536898
3.1659e-06
3.38158e-05
0.00344257
1.01005
9.18761e-06
9.98169e-05
0.0114952
1.97407
2.45663e-05
0.000251217
0.0201136
3.58547
7.05949e-05
0.000659019
0.0407781
6.32624
0.000170164
0.00138298
0.0858912
10.8898
0.000490796
0.00500701
0.186708
18.6077
0.00134473
0.0102441
0.384895
31.4693
0.00276145
0.018759
0.745852
52.2144
0.00885631
0.0402495
1.40912
84.7901
0.015432
0.0880129
2.61794
134.933
0.0311453
0.183131
4.76077
211.122
0.06845
0.371385
8.47871
325.138
0.145905
0.73501
14.8001
492.673
0.302328
1.4208
25.3344
734.549
0.609515
2.68239
42.5294
1077.86
1.19604
4.9452
70.0155
1557.38
2.28564
8.90456
113.063
2216.71
4.25807
15.6709
179.169
3109.06
7.74292
26.9789
278.787
4297.63
13.7599
45.4793
426.181
5855.21
23.9208
75.1279
640.352
7862.1
40.7107
121.69
946.056
10404.6
67.8688
193.37
1374.52
13568.9
110.871
301.505
1963.65
17437.4
177.554
461.489
2760.43
22118
278.84
693.632
3819.51
27668.6
429.626
1024.19
5201.95
34073.9
649.585
1485.65
6968.77
41246.9
964.109
2117.74
9186.99
49163.3
1404.78
2965.71
11905.7
57542.9
2009.42
4079.6
15171.3
66410.7
2821.89
5513.37
19020.9
75688
3890.55
7320.67
23461.9
85151.4
5266.57
9551.22
28480.6
94781.6
6997.27
12240.8
34015.1
104164
9125.2
15410
39952.5
112728
11675.6
19046.4
46092.1
120036
14651.1
23095.7
52192.3
126068
18016.4
27449.7
57961.2
130765
21693.3
31952.9
63106
134217
25541.2
36369.9
67237.7
136260
29375.3
40454
70165.9
137072
32941.4
43873.4
71487.4
135750
35982.6
46394.1
71351.2
133969
38225
47748.3
69586.7
131948
39453.2
47821.1
66612.9
132232
39521.5
46609.4
62927.9
136651
38462.4
44322.3
58995.1
144322
36324
41066.9
54903
155352
33404.3
37363.4
51634.3
175810
29953.7
33392.2
48947.1
197314
26278.2
29519.2
47314.7
230397
22664.1
25944
46256.3
260170
19307
22811.6
46219.2
296008
16333.2
20151
46537
335380
13780.3
17895.9
46885.8
372445
11648
16068
47734.5
403704
9934.96
14712.1
49922.7
462714
8560.65
13666.6
52349
527206
7519.75
13085.8
58131.6
618814
6787.24
12938.7
63621.8
746334
6315.7
13217.6
73013.8
891927
6042.38
13802.6
84232.7
1.06589e+06
5967.72
14906.5
100279
1.3203e+06
6007.92
16248.6
118657
1.57655e+06
6165.39
17992.5
141660
1.87488e+06
6299.27
19490.6
161605
2.24323e+06
6373.91
20873.3
182718
2.59306e+06
6457.61
22418.4
208273
2.93543e+06
6557.07
24748.1
241038
3.26447e+06
6743.75
26933.1
281272
3.54799e+06
7100.99
30150.1
333680
3.80361e+06
7493.94
33902.7
387854
4.0586e+06
8096.53
38747.7
460382
4.19569e+06
8736.9
45528.7
562865
4.21985e+06
9788.24
53298.4
700450
4.18577e+06
10693.5
62175.8
875251
4.06797e+06
12193.4
74685.5
1.09495e+06
3.84797e+06
14094.4
90863.2
1.34176e+06
3.63618e+06
16525.5
111673
1.61137e+06
3.38863e+06
19649.7
138429
1.90563e+06
3.16223e+06
22905.6
165994
2.20025e+06
2.94639e+06
26374.6
204602
2.46531e+06
2.74538e+06
30935
259905
2.69388e+06
2.56602e+06
0.689291
1.73605e+06
3.87638e+07
8.18707e+07
0.182268
2.4802e+06
3.5155e+07
7.04184e+07
0.0452723
903746
3.96956e+07
6.24501e+07
0.0169934
292541
4.32167e+07
5.28277e+07
0.00568199
77653.7
4.0909e+07
4.86632e+07
0.00264503
25341.5
3.57901e+07
4.47329e+07
0.00170332
10342.8
3.00103e+07
3.40425e+07
0.00140268
5109.69
2.31365e+07
2.59372e+07
0.00134808
2442.13
1.71607e+07
2.52618e+07
0.00143381
1632.87
1.1168e+07
2.73071e+07
0.0015926
1058.44
6.26076e+06
3.11274e+07
0.00188255
651.254
3.97877e+06
3.38142e+07
0.00252058
525.469
2.67078e+06
3.45919e+07
0.00339339
441.437
1.68199e+06
3.32578e+07
0.00584836
397.142
1.09427e+06
3.04915e+07
0.0077601
366.336
756795
2.7936e+07
0.0114324
350.857
569958
2.48737e+07
0.0179322
349.929
477143
2.22703e+07
0.0285707
368.384
409311
2.11537e+07
0.0464645
410.195
378354
1.99161e+07
0.0768566
475.244
358885
1.87235e+07
0.128512
565.883
347922
1.75989e+07
0.216149
685.119
342942
1.65958e+07
0.364731
858.048
342171
1.57865e+07
0.631287
1152.61
342282
1.51631e+07
1.08885
1514.89
357234
1.47494e+07
1.90595
1986.39
384574
1.43923e+07
3.17899
2580.99
418554
1.41273e+07
5.61586
3372.19
457427
1.38705e+07
9.52479
4395.35
500076
1.36442e+07
15.3805
5706.02
546149
1.34651e+07
25.523
7127.93
593721
1.33333e+07
41.0615
8954.28
643802
1.32559e+07
64.718
11312
702368
1.33282e+07
100.064
14312.3
766562
1.34028e+07
153.698
18189
844504
1.35661e+07
228.435
23116.5
935840
1.3754e+07
341.876
29492.3
1.04324e+06
1.39638e+07
510.092
37669.6
1.17369e+06
1.41803e+07
756.609
48040.7
1.32645e+06
1.42733e+07
1108.93
60552.1
1.45726e+06
1.46377e+07
1602.46
75057.1
1.56226e+06
1.49344e+07
2282.14
91360.2
1.65653e+06
1.49317e+07
3201
109778
1.77956e+06
1.49007e+07
4425.41
130972
1.95019e+06
1.47439e+07
6026.73
154910
2.17018e+06
1.4471e+07
8155.24
184523
2.51869e+06
1.40357e+07
10919.4
215433
2.76926e+06
1.39744e+07
14404
250231
3.2353e+06
1.36688e+07
18763.3
289419
3.63792e+06
1.32044e+07
24143
332236
4.06903e+06
1.2669e+07
30717.9
379954
4.57644e+06
1.23185e+07
38654.9
432400
5.12831e+06
1.1761e+07
48084.5
488600
5.69474e+06
1.12467e+07
59090.2
547888
6.26645e+06
1.07098e+07
71687.4
609636
6.82568e+06
1.01774e+07
85808.5
673723
7.36018e+06
9.64614e+06
101326
741166
7.86203e+06
9.13748e+06
118024
812835
8.32595e+06
8.63262e+06
135668
892637
8.73869e+06
8.1633e+06
154127
988596
9.0951e+06
7.70821e+06
172891
1.08671e+06
9.54568e+06
7.28227e+06
190212
1.1548e+06
9.97396e+06
6.83968e+06
205593
1.23424e+06
1.02688e+07
6.45374e+06
220653
1.38925e+06
1.04245e+07
6.08456e+06
234751
1.54402e+06
1.04229e+07
5.75261e+06
252312
1.81796e+06
1.02478e+07
5.45532e+06
272298
2.13221e+06
1.01639e+07
5.18449e+06
294627
2.51172e+06
9.96544e+06
4.92922e+06
323441
3.00783e+06
9.48101e+06
4.68815e+06
353141
3.46115e+06
9.12136e+06
4.47878e+06
381516
3.87594e+06
8.78968e+06
4.29724e+06
410715
4.30574e+06
8.36181e+06
4.13413e+06
446807
4.80668e+06
7.93691e+06
3.97614e+06
490062
5.30391e+06
7.48893e+06
3.8271e+06
541073
5.77078e+06
7.07749e+06
3.6868e+06
604462
6.20441e+06
6.66477e+06
3.55499e+06
664622
6.70625e+06
6.28148e+06
3.43011e+06
715092
7.19306e+06
5.90723e+06
3.31204e+06
791108
7.54786e+06
5.55108e+06
3.19778e+06
866558
7.78955e+06
5.21902e+06
3.08896e+06
1.00019e+06
7.87829e+06
4.90811e+06
2.98461e+06
1.19344e+06
7.84127e+06
4.62707e+06
2.88601e+06
1.41439e+06
7.88826e+06
4.36888e+06
2.79268e+06
1.68139e+06
7.73911e+06
4.13335e+06
2.70439e+06
2.00255e+06
7.40951e+06
3.92178e+06
2.62192e+06
2.49416e+06
7.01443e+06
3.71116e+06
2.54197e+06
2.87132e+06
6.69507e+06
3.53293e+06
2.46685e+06
3.23271e+06
6.32998e+06
3.37857e+06
2.398e+06
3.70397e+06
5.94557e+06
3.22615e+06
2.33235e+06
4.05883e+06
5.6611e+06
3.0987e+06
2.27137e+06
4.56625e+06
5.27391e+06
2.97306e+06
2.21349e+06
4.94071e+06
4.9958e+06
2.85575e+06
2.15779e+06
5.33632e+06
4.6425e+06
2.73976e+06
2.10349e+06
5.57028e+06
4.38202e+06
2.64031e+06
2.05285e+06
5.75292e+06
4.13252e+06
2.54406e+06
2.00398e+06
5.92608e+06
3.84606e+06
2.44802e+06
1.95434e+06
6.00431e+06
3.63106e+06
2.3588e+06
1.90774e+06
5.88071e+06
3.463e+06
2.28002e+06
1.86321e+06
5.62713e+06
3.25464e+06
2.19997e+06
1.82028e+06
5.43709e+06
3.09601e+06
2.13075e+06
1.78055e+06
5.13398e+06
2.94338e+06
2.06063e+06
1.73213e+06
4.81238e+06
2.79577e+06
1.99568e+06
1.69855e+06
4.52524e+06
2.66161e+06
1.93354e+06
1.65963e+06
4.21886e+06
2.53989e+06
1.87646e+06
1.62819e+06
3.95928e+06
2.42908e+06
1.82419e+06
1.59554e+06
3.70141e+06
2.32349e+06
1.76081e+06
1.55904e+06
3.46203e+06
2.2148e+06
1.71397e+06
1.519e+06
3.24255e+06
2.12348e+06
1.67375e+06
1.49293e+06
3.04263e+06
2.04537e+06
1.63267e+06
1.46631e+06
2.87056e+06
1.97917e+06
1.59146e+06
1.43699e+06
2.71157e+06
1.91141e+06
1.55229e+06
1.40915e+06
2.56457e+06
1.83818e+06
1.51346e+06
1.38058e+06
2.42937e+06
1.77236e+06
1.47692e+06
1.3547e+06
2.30384e+06
1.70851e+06
1.43336e+06
1.32843e+06
2.19129e+06
1.65322e+06
1.40848e+06
1.30596e+06
2.08831e+06
1.60267e+06
1.37975e+06
1.28294e+06
1.99373e+06
1.5553e+06
1.34978e+06
1.26248e+06
1.90671e+06
1.51111e+06
1.32236e+06
1.24292e+06
1.82576e+06
1.46984e+06
1.2969e+06
1.22401e+06
0
0
0
0
0
0
0
0
0
0
0
0
0
0
0
0
0
0
0
0
0
0
0
0
0
0
0
0
0
0
0
0
0.00364658
0
0
0
0
0
0
0
0
0
0
0
0
0
0
0
0
0
0
0
0
0
0
0
0
0
0
0
0
0
0
-1.17227e-11
8.53759
0
0
2.01662e-09
0
0
0
0
0
0
0
0
0
1.17227e-11
0
0
0
0
0
0
0
0
3.93871e-12
0
0
1.17227e-11
0
0
0
0
0
0
958.898
4.79252e-07
0
0
0
0
0
0
0
0
0
0
0
0
0
0
0
0
0
6.05951e-11
0
0
0
0
0
0
0
0
0
0
1.17227e-11
0
17964.2
9.8417e-05
-5.86134e-12
0
0
0
0
0
0
0
0
0
0
0
0
0
0
0
0
0
0
0
0
0
-2.2742e-11
0
0
0
-7.57439e-12
0
0
0
540174
0.0123976
0
0
0
0
0
0
0
0
0
0
0
0
0
0
0
0
-3.63872e-10
0
0
1.17227e-11
9.0968e-11
0
0
0
0
0
0
0
0
0
6.04142e+07
5.37465
6.80369e-07
0
0
0
0
0
0
0
0
0
0
0
0
0
0
0
0
9.10941e-11
0
0
0
0
0
0
0
0
0
0
0
9.46798e-13
8.60996e+07
991.485
0.000100582
0
0
0
9.10941e-11
0
0
0
0
0
0
0
0
0
0
0
0
0
0