/*--------------------------------*- C++ -*----------------------------------*\
  =========                 |
  \\      /  F ield         | OpenFOAM: The Open Source CFD Toolbox
   \\    /   O peration     | Website:  https://openfoam.org
    \\  /    A nd           | Version:  10
     \\/     M anipulation  |
\*---------------------------------------------------------------------------*/
FoamFile
{
    format      ascii;
    class       volScalarField;
    location    "12000/gas";
    object      qr;
}
// * * * * * * * * * * * * * * * * * * * * * * * * * * * * * * * * * * * * * //

dimensions      [1 0 -3 0 0 0 0];

internalField   uniform 0;

boundaryField
{
    inletFuel
    {
        type            calculated;
        value           nonuniform List<scalar> 4(379.854 379.852 379.849 379.843);
    }
    inletAir
    {
        type            calculated;
        value           nonuniform List<scalar> 
32
(
381.244
381.25
381.255
381.259
381.262
381.264
381.266
381.267
381.268
381.268
381.268
381.267
381.266
381.264
381.262
381.26
381.258
381.255
381.252
381.248
381.244
381.24
381.236
381.231
381.226
381.221
381.215
381.209
381.202
381.196
381.188
381.18
)
;
    }
    outlet
    {
        type            calculated;
        value           nonuniform List<scalar> 
40
(
-666.054
-877.071
-1002.9
-1096.29
-1175.08
-1246.04
-1312.33
-1375.68
-1437.08
-1497.14
-1556.23
-1614.55
-1672.21
-1729.25
-1785.62
-1841.26
-1896.03
-1949.79
-2002.34
-2053.46
-2102.91
-2150.41
-2195.65
-2238.27
-2277.9
-2314.11
-2346.42
-2374.27
-2397.04
-2413.99
-2424.24
-2426.71
-2420.07
-2402.45
-2371.23
-2322.51
-2249.64
-2139.79
-1962.84
-1628.79
)
;
    }
    wedgeNeg
    {
        type            wedge;
    }
    wedgePos
    {
        type            wedge;
    }
    gas_to_solid
    {
        type            calculated;
        value           nonuniform List<scalar> 
692
(
203.778
197.946
192.03
186.025
179.929
173.737
167.444
161.044
154.533
147.906
141.158
134.282
127.273
120.125
112.831
105.386
97.7822
90.0135
82.0725
73.951
65.6422
57.1383
48.4314
39.5124
30.3727
21.0036
11.3953
1.53847
-8.57766
-18.963
-29.6279
-40.5822
-51.8362
-63.3953
-75.2609
-87.4183
-99.8183
-112.328
-124.597
-135.7
204.9
199.062
193.138
187.124
181.015
174.808
168.496
162.076
155.541
148.888
142.111
135.204
128.162
120.979
113.648
106.164
98.5194
90.7081
82.723
74.5569
66.2023
57.6515
48.8964
39.9288
30.74
21.3212
11.663
1.75573
-8.41068
-18.8468
-29.5639
-40.5739
-51.8903
-63.5292
-75.5112
-87.8662
-100.642
-113.914
-127.797
-139.707
-147.067
-152.227
-142.39
-149.839
222.026
216.946
211.932
206.985
202.106
197.294
192.547
187.864
183.244
178.686
174.189
169.751
165.371
161.048
156.781
152.569
148.41
144.303
140.247
136.241
132.284
128.375
124.513
120.696
116.924
113.196
109.51
105.866
102.264
98.701
95.1776
91.6926
88.2452
84.8346
81.4602
78.1213
74.8171
71.547
68.3105
65.1072
228.7
223.539
218.446
213.42
208.46
203.564
198.732
193.963
189.256
184.608
180.021
175.492
171.02
166.605
162.244
157.938
153.685
149.483
145.332
141.231
137.179
133.174
129.216
125.304
121.436
117.612
113.831
110.092
106.394
102.736
99.1177
95.5378
91.9957
88.4908
85.0222
81.5894
78.1916
74.8281
71.4985
68.2022
363.037
362.228
361.474
360.766
360.101
359.475
358.886
358.33
357.804
357.306
356.834
356.386
355.96
355.554
355.166
354.795
354.441
354.101
353.774
353.46
353.157
352.865
352.582
352.309
352.045
351.788
351.539
351.296
351.06
350.83
350.606
350.387
350.172
349.962
349.757
349.555
349.357
349.162
348.97
348.781
61.9373
58.7388
55.5228
52.3375
49.1816
46.0549
42.9569
39.8873
36.8457
33.8317
30.8449
27.885
24.9518
22.0449
19.1641
16.3091
13.4797
10.6757
7.89686
5.14311
2.41424
-0.28991
-2.96946
-5.62452
-8.2552
-10.8616
-13.4437
-16.0017
-18.5355
-21.0453
-23.5309
-25.9925
-28.43
-30.8434
-33.2327
-35.5978
-37.9388
-40.2557
-42.5485
-44.8173
-47.0623
-49.2836
-51.4816
-53.6564
-55.8083
-57.9375
-60.0442
-62.1287
-64.1911
-66.2315
-68.2503
-70.2474
-72.2231
-74.1774
-76.1104
-78.0223
-79.9131
-81.7829
-83.6316
-85.4594
-87.2659
-89.0503
-90.8872
-92.7626
-94.6171
-96.4516
-98.2658
-100.06
-101.833
-103.587
-105.319
-107.032
-108.723
-110.394
-112.045
-113.675
-115.284
-116.872
-118.439
-119.985
-121.51
-123.014
-124.496
-125.958
-127.397
-128.815
-130.212
-131.586
-132.939
-134.27
-135.578
-136.865
-138.13
-139.372
-140.593
-141.791
-142.967
-144.121
-145.253
-146.363
-147.451
-148.517
-149.561
-150.584
-151.586
-152.567
-153.527
-154.466
-155.385
-156.285
-157.165
-158.025
-158.867
-159.689
-160.493
-161.273
-162.028
-162.743
-163.392
-163.899
64.939
61.6565
58.3458
55.0673
51.8197
48.602
45.4136
42.2542
39.1232
36.0202
32.945
29.897
26.876
23.8818
20.9141
17.9728
15.0576
12.1683
9.30476
6.4668
3.65424
0.866956
-1.89518
-4.63228
-7.34444
-10.0317
-12.6942
-15.3319
-17.9449
-20.5332
-23.0968
-25.6357
-28.1498
-30.6391
-33.1036
-35.5431
-37.9577
-40.3471
-42.7112
-45.05
-47.3634
-49.6521
-51.9168
-54.1576
-56.3748
-58.5687
-60.7392
-62.8869
-65.0118
-67.1139
-69.1936
-71.251
-73.2861
-75.2989
-77.2897
-79.2587
-81.2058
-83.1311
-85.0351
-86.9166
-88.7763
-90.6145
-92.4925
-94.4226
-96.3292
-98.2139
-100.077
-101.919
-103.739
-105.539
-107.316
-109.072
-110.808
-112.521
-114.212
-115.883
-117.531
-119.158
-120.764
-122.347
-123.907
-125.445
-126.961
-128.455
-129.927
-131.376
-132.802
-134.205
-135.586
-136.944
-138.277
-139.589
-140.875
-142.14
-143.381
-144.6
-145.794
-146.965
-148.113
-149.236
-150.338
-151.415
-152.472
-153.504
-154.513
-155.499
-156.462
-157.405
-158.324
-159.223
-160.1
-160.958
-161.793
-162.612
-163.41
-164.195
-164.969
-165.744
-166.54
-164.187
-165.332
-166.304
-167.396
-167.353
348.594
348.407
348.222
348.038
347.856
347.675
347.496
347.317
347.139
346.962
346.785
346.609
346.433
346.257
346.082
345.906
345.73
345.554
345.377
345.2
345.022
344.844
344.665
344.484
344.303
344.121
343.938
343.753
343.567
343.379
343.189
342.998
342.804
342.609
342.411
342.209
342.006
341.799
341.589
341.375
341.157
340.936
340.709
340.479
340.241
339.997
339.748
339.492
339.226
338.949
338.664
338.371
338.073
337.768
337.459
337.145
336.827
336.504
336.178
335.849
335.517
335.182
334.844
334.503
334.16
333.814
333.468
333.119
332.769
332.418
332.065
331.711
331.355
330.998
330.639
330.278
329.916
329.551
329.183
328.813
328.439
328.062
327.68
327.293
326.901
326.503
326.098
325.686
325.266
324.838
324.4
323.952
323.49
323.008
322.52
322.015
321.493
320.957
320.401
319.828
319.234
318.622
317.988
317.333
316.654
315.954
315.229
314.483
313.712
312.918
312.1
311.258
310.394
309.506
308.597
307.667
306.716
305.747
304.762
303.762
-35.3848
-35.4785
-35.6859
-35.9868
-36.3903
-36.871
-37.4267
-38.0389
-38.6899
-39.3648
-40.0149
-40.643
-41.1726
-41.5926
-41.7722
-41.6379
-40.8049
-39.675
-38.5296
-37.3543
-36.0238
-34.47
-32.6896
-30.6597
-28.351
-25.7179
-22.8086
-19.6078
-16.1103
-12.3144
-8.22172
-3.83627
0.836645
5.79121
11.0211
16.5189
22.2772
28.2735
34.6053
40.939
47.471
54.1659
60.9991
67.9532
302.75
301.728
300.699
299.667
298.634
297.606
296.586
295.579
294.591
293.629
292.699
291.808
290.963
290.175
289.45
288.798
288.228
287.752
287.378
287.117
286.978
286.972
287.107
287.391
287.831
288.434
289.204
290.141
291.242
292.509
293.932
295.501
297.202
299.016
300.914
302.843
304.713
306.37
307.849
75.0073
82.1557
89.3717
96.5856
103.824
111.13
118.476
125.82
133.14
140.415
147.627
154.761
161.804
168.745
175.575
182.286
188.872
195.329
201.653
207.843
213.898
219.816
225.598
231.242
236.751
242.13
247.385
252.521
257.542
262.454
267.262
271.972
276.586
281.103
285.498
289.749
293.931
298.059
302.1
309.047
305.983
)
;
    }
}


// ************************************************************************* //
