/*--------------------------------*- C++ -*----------------------------------*\
  =========                 |
  \\      /  F ield         | OpenFOAM: The Open Source CFD Toolbox
   \\    /   O peration     | Website:  https://openfoam.org
    \\  /    A nd           | Version:  10
     \\/     M anipulation  |
\*---------------------------------------------------------------------------*/
FoamFile
{
    format      ascii;
    class       volScalarField;
    location    "12000/gas";
    object      T;
}
// * * * * * * * * * * * * * * * * * * * * * * * * * * * * * * * * * * * * * //

dimensions      [0 0 0 1 0 0 0];

internalField   nonuniform List<scalar> 
16000
(
300
300
300.003
300.066
300
300.006
300.044
300.381
300.003
300.018
300.101
300.685
300.013
300.036
300.175
300.988
300.031
300.064
300.258
301.273
300.056
300.104
300.353
301.548
300.089
300.155
300.46
301.79
300.128
300.215
300.567
302.069
300.174
300.282
300.687
302.334
300.226
300.359
300.817
302.604
300.284
300.438
300.951
302.844
300.347
300.524
301.086
303.113
300.417
300.621
301.235
303.373
300.496
300.718
301.384
303.642
300.58
300.817
301.535
303.92
300.665
300.927
301.682
304.194
300.762
301.045
301.851
304.448
300.865
301.163
302.01
304.709
300.967
301.287
302.188
304.964
301.079
301.414
302.351
305.262
301.197
301.552
302.53
305.549
301.323
301.694
302.715
305.843
301.45
301.835
302.905
306.119
301.582
301.979
303.09
306.421
301.712
302.123
303.281
306.724
301.85
302.277
303.484
307.027
301.988
302.431
303.679
307.335
302.133
302.591
303.877
307.643
302.284
302.76
304.069
307.971
302.426
302.913
304.277
308.305
302.581
303.082
304.489
308.647
302.745
303.262
304.712
308.974
302.892
303.424
304.922
309.342
303.05
303.597
305.14
309.687
303.213
303.773
305.364
310.055
303.377
303.955
305.591
310.431
303.544
304.139
305.822
310.813
303.714
304.326
306.058
311.201
303.884
304.512
306.295
311.597
304.055
304.704
306.584
312.078
300.028
300.001
300.001
300
300
300
300
300
300
300
300
300
300
300
300
300
300
300
300
300
300
300
300
300
300
300
300
300
300
300
300.001
300.028
300.139
300.014
300.004
300.002
300.001
300.001
300.001
300
300
300
300
300
300
300
300
300
300
300
300
300
300
300
300
300
300
300.001
300.001
300.001
300.001
300.003
300.012
300.158
300.26
300.036
300.012
300.006
300.003
300.002
300.002
300.001
300.001
300.001
300
300
300
300
300
300
300
300
300
300
300
300
300.001
300.001
300.001
300.001
300.001
300.002
300.004
300.008
300.028
300.286
300.366
300.067
300.023
300.011
300.007
300.004
300.003
300.002
300.001
300.001
300.001
300.001
300.001
300
300
300
300
300
300
300.001
300.001
300.001
300.001
300.001
300.001
300.002
300.003
300.004
300.006
300.014
300.05
300.393
300.472
300.102
300.039
300.019
300.011
300.007
300.005
300.003
300.002
300.002
300.001
300.001
300.001
300.001
300.001
300.001
300.001
300.001
300.001
300.001
300.001
300.001
300.001
300.002
300.002
300.003
300.004
300.006
300.01
300.022
300.074
300.535
300.57
300.14
300.057
300.029
300.017
300.011
300.007
300.005
300.004
300.003
300.002
300.002
300.001
300.001
300.001
300.001
300.001
300.001
300.001
300.001
300.001
300.002
300.002
300.002
300.003
300.004
300.006
300.009
300.015
300.032
300.101
300.655
300.664
300.181
300.077
300.04
300.024
300.015
300.01
300.007
300.005
300.004
300.003
300.002
300.002
300.001
300.001
300.001
300.001
300.001
300.001
300.002
300.002
300.002
300.003
300.003
300.004
300.006
300.008
300.012
300.021
300.043
300.13
300.765
300.752
300.222
300.099
300.053
300.032
300.02
300.014
300.01
300.007
300.005
300.004
300.003
300.002
300.002
300.002
300.002
300.002
300.002
300.002
300.002
300.002
300.003
300.004
300.005
300.006
300.008
300.011
300.017
300.028
300.056
300.162
300.886
300.837
300.265
300.123
300.067
300.041
300.027
300.018
300.013
300.009
300.007
300.005
300.004
300.003
300.003
300.002
300.002
300.002
300.002
300.002
300.003
300.003
300.004
300.005
300.006
300.008
300.01
300.015
300.022
300.036
300.071
300.195
300.991
300.918
300.308
300.147
300.083
300.051
300.033
300.023
300.016
300.012
300.009
300.007
300.005
300.004
300.003
300.003
300.003
300.003
300.003
300.003
300.003
300.004
300.005
300.006
300.008
300.01
300.013
300.018
300.027
300.045
300.087
300.231
301.101
300.998
300.351
300.172
300.099
300.062
300.041
300.028
300.02
300.014
300.011
300.008
300.006
300.005
300.004
300.004
300.003
300.003
300.004
300.004
300.004
300.005
300.006
300.008
300.01
300.012
300.017
300.023
300.034
300.055
300.105
300.268
301.206
301.075
300.394
300.199
300.116
300.073
300.049
300.034
300.024
300.018
300.013
300.01
300.008
300.006
300.005
300.005
300.004
300.004
300.004
300.005
300.005
300.006
300.008
300.009
300.012
300.015
300.02
300.028
300.041
300.066
300.124
300.306
301.305
301.151
300.438
300.225
300.133
300.085
300.057
300.04
300.029
300.021
300.016
300.012
300.01
300.008
300.007
300.006
300.005
300.005
300.005
300.006
300.007
300.008
300.009
300.011
300.014
300.019
300.025
300.034
300.049
300.078
300.144
300.345
301.401
301.226
300.482
300.253
300.151
300.098
300.066
300.047
300.034
300.025
300.019
300.015
300.011
300.009
300.008
300.007
300.006
300.006
300.006
300.007
300.008
300.009
300.011
300.014
300.017
300.022
300.029
300.04
300.058
300.092
300.165
300.385
301.493
301.301
300.526
300.28
300.17
300.111
300.076
300.054
300.039
300.029
300.022
300.017
300.014
300.011
300.009
300.008
300.008
300.008
300.008
300.008
300.009
300.011
300.013
300.016
300.021
300.026
300.035
300.047
300.068
300.106
300.188
300.426
301.58
301.375
300.57
300.309
300.189
300.125
300.086
300.061
300.045
300.033
300.025
300.02
300.016
300.013
300.011
300.01
300.009
300.009
300.009
300.01
300.011
300.013
300.016
300.019
300.024
300.031
300.04
300.055
300.078
300.121
300.212
300.467
301.662
301.449
300.615
300.338
300.209
300.139
300.096
300.069
300.051
300.038
300.029
300.023
300.018
300.015
300.013
300.011
300.011
300.01
300.011
300.012
300.013
300.015
300.018
300.022
300.028
300.036
300.047
300.063
300.09
300.137
300.236
300.508
301.741
301.524
300.66
300.367
300.229
300.153
300.107
300.077
300.057
300.043
300.033
300.026
300.021
300.017
300.015
300.013
300.012
300.012
300.013
300.014
300.015
300.018
300.021
300.026
300.032
300.041
300.053
300.072
300.101
300.154
300.261
300.549
301.815
301.6
300.706
300.397
300.25
300.168
300.118
300.086
300.064
300.048
300.037
300.029
300.024
300.02
300.017
300.015
300.014
300.014
300.014
300.016
300.018
300.02
300.024
300.03
300.037
300.047
300.061
300.081
300.114
300.171
300.287
300.59
301.887
301.676
300.752
300.427
300.271
300.184
300.13
300.094
300.07
300.054
300.042
300.033
300.027
300.022
300.019
300.017
300.016
300.016
300.017
300.018
300.02
300.023
300.028
300.034
300.042
300.053
300.068
300.091
300.127
300.189
300.313
300.631
301.955
301.753
300.799
300.458
300.293
300.199
300.142
300.104
300.078
300.059
300.046
300.037
300.03
300.025
300.022
300.02
300.018
300.018
300.019
300.02
300.023
300.026
300.031
300.038
300.047
300.059
300.076
300.101
300.14
300.207
300.339
300.671
302.021
301.832
300.847
300.489
300.315
300.216
300.154
300.113
300.085
300.065
300.051
300.041
300.033
300.028
300.024
300.022
300.021
300.021
300.021
300.023
300.026
300.03
300.035
300.043
300.053
300.066
300.085
300.112
300.154
300.226
300.365
300.711
302.085
301.912
300.895
300.521
300.337
300.232
300.166
300.123
300.093
300.072
300.056
300.045
300.037
300.031
300.027
300.025
300.023
300.023
300.024
300.026
300.029
300.033
300.039
300.048
300.058
300.073
300.093
300.123
300.169
300.245
300.392
300.75
302.146
301.994
300.944
300.554
300.361
300.249
300.18
300.133
300.101
300.078
300.062
300.05
300.041
300.035
300.03
300.028
300.026
300.026
300.027
300.029
300.032
300.037
300.044
300.053
300.064
300.08
300.103
300.134
300.183
300.264
300.418
300.789
302.206
302.077
300.995
300.587
300.385
300.267
300.193
300.144
300.109
300.085
300.067
300.054
300.045
300.038
300.034
300.031
300.029
300.029
300.03
300.032
300.036
300.041
300.048
300.058
300.071
300.088
300.112
300.146
300.198
300.284
300.445
300.827
302.264
302.163
301.046
300.622
300.409
300.285
300.207
300.155
300.118
300.092
300.073
300.059
300.049
300.042
300.037
300.034
300.032
300.032
300.033
300.036
300.04
300.045
300.053
300.064
300.078
300.096
300.122
300.158
300.213
300.303
300.471
300.864
302.321
302.251
301.099
300.657
300.434
300.304
300.222
300.166
300.127
300.099
300.079
300.064
300.054
300.046
300.041
300.037
300.035
300.035
300.037
300.039
300.044
300.05
300.058
300.07
300.084
300.104
300.131
300.17
300.228
300.323
300.497
300.902
302.377
302.341
301.153
300.693
300.461
300.324
300.237
300.178
300.137
300.107
300.086
300.07
300.058
300.05
300.044
300.041
300.039
300.039
300.04
300.043
300.048
300.055
300.064
300.076
300.091
300.113
300.142
300.182
300.243
300.342
300.523
300.938
302.432
302.435
301.209
300.731
300.488
300.344
300.252
300.19
300.147
300.115
300.092
300.076
300.063
300.054
300.048
300.044
300.042
300.042
300.044
300.047
300.052
300.059
300.069
300.082
300.099
300.121
300.152
300.195
300.259
300.362
300.549
300.975
302.486
302.531
301.268
300.771
300.517
300.366
300.269
300.203
300.157
300.124
300.099
300.082
300.068
300.059
300.053
300.048
300.046
300.046
300.048
300.051
300.057
300.064
300.075
300.088
300.106
300.13
300.162
300.207
300.274
300.381
300.575
301.01
302.54
302.634
301.33
300.813
300.547
300.389
300.286
300.217
300.168
300.133
300.107
300.088
300.074
300.064
300.057
300.053
300.05
300.05
300.052
300.056
300.061
300.07
300.08
300.095
300.114
300.139
300.173
300.22
300.29
300.401
300.6
301.046
302.594
302.741
301.396
300.857
300.579
300.413
300.305
300.231
300.18
300.142
300.115
300.095
300.08
300.069
300.062
300.057
300.055
300.054
300.056
300.06
300.066
300.075
300.086
300.102
300.122
300.148
300.183
300.233
300.306
300.42
300.626
301.081
302.647
302.854
301.465
300.904
300.613
300.438
300.325
300.247
300.192
300.153
300.123
300.102
300.086
300.075
300.067
300.062
300.059
300.059
300.061
300.065
300.071
300.08
300.093
300.109
300.129
300.157
300.194
300.246
300.321
300.44
300.651
301.116
302.699
302.973
301.54
300.955
300.65
300.466
300.346
300.264
300.206
300.164
300.133
300.11
300.093
300.081
300.072
300.067
300.064
300.064
300.066
300.07
300.077
300.086
300.099
300.116
300.138
300.166
300.205
300.259
300.337
300.459
300.676
301.151
302.752
303.099
301.622
301.01
300.69
300.496
300.37
300.283
300.221
300.177
300.144
300.119
300.101
300.088
300.078
300.072
300.069
300.069
300.071
300.075
300.082
300.092
300.105
300.123
300.146
300.176
300.216
300.272
300.352
300.479
300.701
301.185
302.804
303.234
301.713
301.073
300.736
300.532
300.398
300.306
300.24
300.192
300.156
300.129
300.11
300.095
300.085
300.078
300.075
300.074
300.076
300.08
300.088
300.098
300.112
300.13
300.154
300.185
300.227
300.285
300.368
300.498
300.726
301.219
302.856
303.38
301.822
301.152
300.795
300.58
300.436
300.335
300.263
300.211
300.171
300.142
300.12
300.104
300.093
300.085
300.081
300.08
300.082
300.086
300.094
300.104
300.119
300.138
300.162
300.195
300.238
300.298
300.383
300.517
300.75
301.253
302.908
303.576
301.998
301.28
300.898
300.655
300.492
300.378
300.297
300.237
300.192
300.159
300.134
300.116
300.103
300.094
300.089
300.087
300.088
300.093
300.1
300.111
300.126
300.145
300.171
300.204
300.249
300.31
300.399
300.536
300.775
301.286
302.959
304.286
302.538
301.627
301.12
300.803
300.595
300.452
300.351
300.277
300.223
300.183
300.153
300.131
300.115
300.104
300.098
300.095
300.096
300.1
300.107
300.118
300.133
300.153
300.18
300.214
300.26
300.324
300.414
300.555
300.799
301.32
303.01
311.764
305.425
302.854
301.732
301.147
300.805
300.589
300.445
300.344
300.272
300.219
300.18
300.152
300.131
300.117
300.109
300.104
300.104
300.107
300.114
300.125
300.141
300.162
300.189
300.224
300.272
300.337
300.43
300.574
300.823
301.353
303.062
363.227
372.571
377.824
381.586
384.676
387.396
389.887
392.223
394.448
396.589
398.662
400.676
402.639
404.552
406.417
408.232
409.996
411.705
413.356
414.943
416.46
417.903
419.263
420.532
421.702
422.762
423.701
424.506
425.16
425.646
425.938
426.008
425.818
425.313
424.415
423.002
420.863
417.574
412.109
401.157
364.109
373.207
378.286
381.962
385.001
387.689
390.159
392.48
394.694
396.828
398.895
400.906
402.866
404.778
406.642
408.458
410.223
411.934
413.586
415.176
416.696
418.142
419.506
420.78
421.954
423.02
423.965
424.777
425.439
425.932
426.234
426.315
426.137
425.647
424.767
423.377
421.267
418.019
412.618
401.802
364.912
373.961
378.931
382.531
385.517
388.168
390.609
392.91
395.11
397.231
399.29
401.295
403.25
405.159
407.022
408.837
410.601
412.313
413.966
415.557
417.08
418.528
419.894
421.171
422.349
423.418
424.366
425.181
425.847
426.344
426.649
426.734
426.559
426.07
425.19
423.797
421.679
418.412
412.974
402.118
365.723
374.742
379.649
383.196
386.141
388.758
391.173
393.454
395.637
397.746
399.795
401.792
403.741
405.645
407.504
409.316
411.079
412.789
414.441
416.032
417.554
419.001
420.367
421.643
422.821
423.889
424.837
425.651
426.315
426.81
427.112
427.193
427.013
426.519
425.631
424.229
422.1
418.827
413.401
402.624
366.519
375.525
380.394
383.907
386.821
389.412
391.806
394.068
396.236
398.332
400.371
402.359
404.302
406.2
408.054
409.861
411.62
413.326
414.975
416.562
418.081
419.525
420.888
422.16
423.334
424.398
425.342
426.15
426.809
427.298
427.594
427.667
427.479
426.975
426.077
424.664
422.525
419.241
413.805
403.035
367.3
376.301
381.146
384.637
387.53
390.101
392.477
394.724
396.878
398.963
400.992
402.971
404.906
406.797
408.644
410.446
412.199
413.9
415.544
417.125
418.639
420.078
421.434
422.701
423.868
424.926
425.862
426.664
427.314
427.795
428.082
428.146
427.948
427.434
426.525
425.102
422.952
419.66
414.225
403.506
368.066
377.065
381.895
385.372
388.25
390.807
393.169
395.403
397.546
399.62
401.639
403.61
405.536
407.42
409.26
411.054
412.801
414.495
416.132
417.706
419.213
420.644
421.993
423.252
424.412
425.461
426.389
427.182
427.823
428.295
428.572
428.627
428.418
427.893
426.975
425.541
423.381
420.081
414.641
403.951
368.817
377.815
382.637
386.104
388.972
391.518
393.869
396.092
398.225
400.29
402.3
404.262
406.18
408.056
409.888
411.675
413.413
415.1
416.729
418.295
419.794
421.217
422.557
423.807
424.958
425.998
426.917
427.7
428.333
428.794
429.062
429.106
428.888
428.354
427.425
425.981
423.812
420.504
415.064
404.414
369.555
378.553
383.369
386.83
389.69
392.227
394.57
396.784
398.908
400.964
402.966
404.919
406.829
408.697
410.521
412.3
414.03
415.708
417.328
418.886
420.376
421.79
423.122
424.362
425.503
426.534
427.444
428.217
428.84
429.292
429.551
429.585
429.358
428.813
427.875
426.422
424.244
420.929
415.487
404.87
370.282
379.277
384.09
387.546
390.4
392.931
395.266
397.473
399.59
401.638
403.631
405.577
407.479
409.338
411.154
412.925
414.646
416.315
417.927
419.476
420.956
422.361
423.683
424.915
426.046
427.068
427.967
428.732
429.345
429.788
430.037
430.063
429.826
429.273
428.326
426.864
424.678
421.356
415.913
405.332
370.998
379.989
384.799
388.252
391.102
393.627
395.957
398.157
400.266
402.307
404.293
406.231
408.126
409.977
411.784
413.546
415.259
416.92
418.522
420.062
421.533
422.928
424.241
425.463
426.585
427.597
428.488
429.243
429.848
430.282
430.522
430.54
430.294
429.733
428.777
427.307
425.112
421.784
416.34
405.792
371.703
380.689
385.497
388.948
391.794
394.315
396.639
398.833
400.936
402.971
404.949
406.88
408.767
410.61
412.409
414.163
415.867
417.519
419.112
420.643
422.105
423.491
424.794
426.007
427.12
428.123
429.004
429.751
430.347
430.773
431.005
431.015
430.762
430.192
429.229
427.75
425.548
422.213
416.768
406.253
372.397
381.377
386.185
389.634
392.477
394.993
397.312
399.501
401.598
403.626
405.598
407.522
409.401
411.236
413.028
414.773
416.469
418.112
419.696
421.218
422.671
424.048
425.342
426.546
427.65
428.644
429.517
430.256
430.844
431.262
431.487
431.489
431.228
430.652
429.681
428.194
425.984
422.643
417.198
406.714
373.083
382.056
386.862
390.309
393.149
395.662
397.977
400.16
402.252
404.274
406.239
408.156
410.028
411.856
413.639
415.376
417.064
418.698
420.274
421.787
423.231
424.599
425.885
427.08
428.175
429.162
430.027
430.757
431.338
431.749
431.966
431.962
431.695
431.111
430.133
428.639
426.422
423.074
417.628
407.174
373.759
382.725
387.53
390.975
393.812
396.322
398.632
400.811
402.897
404.913
406.872
408.782
410.647
412.467
414.243
415.972
417.652
419.278
420.846
422.35
423.785
425.145
426.422
427.609
428.696
429.675
430.532
431.256
431.829
432.234
432.444
432.433
432.16
431.57
430.585
429.084
426.86
423.506
418.058
407.634
374.427
383.384
388.188
391.631
394.466
396.972
399.278
401.452
403.533
405.544
407.497
409.4
411.258
413.072
414.84
416.561
418.233
419.851
421.41
422.907
424.334
425.685
426.954
428.133
429.213
430.184
431.034
431.751
432.318
432.716
432.921
432.904
432.625
432.029
431.038
429.53
427.299
423.939
418.489
408.093
375.088
384.036
388.838
392.279
395.111
397.613
399.916
402.085
404.161
406.166
408.113
410.01
411.862
413.668
415.429
417.143
418.807
420.417
421.969
423.457
424.876
426.22
427.481
428.652
429.725
430.689
431.532
432.243
432.804
433.197
433.396
433.374
433.09
432.488
431.492
429.977
427.739
424.372
418.921
408.55
375.741
384.679
389.479
392.918
395.747
398.247
400.545
402.71
404.781
406.781
408.722
410.613
412.458
414.257
416.012
417.718
419.375
420.977
422.521
424.002
425.413
426.749
428.003
429.167
430.233
431.19
432.027
432.732
433.288
433.675
433.869
433.843
433.554
432.948
431.945
430.425
428.18
424.806
419.352
409.006
376.388
385.314
390.112
393.549
396.376
398.872
401.166
403.327
405.393
407.387
409.323
411.208
413.046
414.839
416.587
418.286
419.936
421.531
423.067
424.541
425.945
427.274
428.52
429.678
430.737
431.688
432.519
433.218
433.769
434.152
434.342
434.311
434.018
433.407
432.4
430.874
428.621
425.241
419.784
409.46
377.029
385.943
390.738
394.173
396.997
399.489
401.779
403.936
405.997
407.986
409.917
411.796
413.628
415.415
417.155
418.848
420.49
422.078
423.608
425.074
426.471
427.793
429.033
430.184
431.237
432.182
433.008
433.702
434.248
434.627
434.813
434.778
434.481
433.867
432.855
431.323
429.064
425.676
420.215
409.912
377.663
386.564
391.356
394.789
397.61
400.099
402.386
404.538
406.594
408.578
410.503
412.376
414.203
415.983
417.717
419.403
421.039
422.62
424.143
425.602
426.992
428.307
429.541
430.686
431.733
432.672
433.493
434.183
434.725
435.1
435.282
435.245
434.945
434.327
433.31
431.773
429.508
426.113
420.646
410.362
378.292
387.179
391.968
395.398
398.216
400.702
402.985
405.133
407.184
409.163
411.083
412.951
414.771
416.545
418.273
419.953
421.582
423.156
424.672
426.125
427.508
428.817
430.045
431.184
432.225
433.16
433.976
434.661
435.199
435.571
435.75
435.71
435.408
434.787
433.767
432.225
429.953
426.55
421.078
410.81
378.915
387.788
392.573
396.001
398.816
401.298
403.577
405.72
407.768
409.742
411.656
413.518
415.333
417.101
418.823
420.496
422.119
423.687
425.196
426.642
428.02
429.323
430.545
431.678
432.714
433.644
434.456
435.137
435.672
436.04
436.217
436.175
435.87
435.247
434.224
432.678
430.399
426.988
421.509
411.254
379.534
388.391
393.173
396.597
399.409
401.887
404.162
406.302
408.345
410.314
412.223
414.08
415.888
417.651
419.367
421.034
422.65
424.212
425.715
427.155
428.527
429.824
431.04
432.168
433.199
434.124
434.932
435.61
436.142
436.508
436.683
436.639
436.333
435.708
434.682
433.132
430.847
427.427
421.939
411.695
380.147
388.988
393.766
397.187
399.996
402.471
404.742
406.877
408.915
410.88
412.783
414.635
416.438
418.195
419.905
421.566
423.176
424.732
426.23
427.664
429.029
430.321
431.532
432.654
433.681
434.602
435.406
436.081
436.61
436.974
437.147
437.102
436.795
436.169
435.141
433.587
431.296
427.867
422.37
412.133
380.756
389.58
394.353
397.771
400.577
403.048
405.315
407.446
409.48
411.439
413.338
415.185
416.983
418.734
420.438
422.093
423.698
425.248
426.739
428.167
429.528
430.814
432.019
433.137
434.16
435.076
435.877
436.549
437.076
437.438
437.61
437.565
437.257
436.63
435.601
434.044
431.747
428.308
422.8
412.566
381.36
390.167
394.935
398.35
401.152
403.62
405.883
408.01
410.039
411.994
413.888
415.729
417.521
419.267
420.965
422.615
424.214
425.758
427.244
428.667
430.022
431.302
432.503
433.617
434.635
435.548
436.346
437.015
437.539
437.901
438.072
438.026
437.719
437.092
436.062
434.502
432.2
428.751
423.23
412.995
381.96
390.748
395.511
398.923
401.721
404.186
406.445
408.568
410.592
412.542
414.431
416.267
418.055
419.795
421.488
423.132
424.725
426.264
427.744
429.162
430.511
431.787
432.983
434.093
435.107
436.016
436.811
437.478
438.001
438.361
438.532
438.487
438.18
437.554
436.524
434.962
432.655
429.196
423.659
413.418
382.556
391.325
396.083
399.49
402.285
404.746
407.001
409.12
411.14
413.086
414.97
416.801
418.583
420.318
422.006
423.645
425.232
426.766
428.241
429.653
430.997
432.268
433.46
434.565
435.575
436.482
437.274
437.939
438.46
438.82
438.991
438.946
438.641
438.016
436.987
435.425
433.112
429.643
424.089
413.836
383.148
391.897
396.649
400.053
402.844
405.301
407.553
409.667
411.683
413.624
415.503
417.329
419.106
420.836
422.518
424.152
425.735
427.263
428.732
430.14
431.479
432.746
433.933
435.034
436.041
436.945
437.734
438.397
438.918
439.277
439.448
439.404
439.101
438.478
437.451
435.889
433.572
430.092
424.518
414.248
383.736
392.464
397.21
400.61
403.398
405.851
408.099
410.209
412.22
414.157
416.031
417.853
419.625
421.349
423.027
424.655
426.232
427.755
429.22
430.623
431.958
433.22
434.403
435.5
436.504
437.404
438.192
438.853
439.373
439.732
439.904
439.862
439.56
438.941
437.916
436.355
434.035
430.544
424.948
414.653
384.32
393.027
397.767
401.163
403.947
406.396
408.64
410.746
412.753
414.685
416.555
418.371
420.138
421.858
423.53
425.154
426.726
428.244
429.704
431.102
432.432
433.69
434.869
435.963
436.963
437.861
438.646
439.306
439.825
440.184
440.358
440.318
440.019
439.403
438.382
436.823
434.501
431
425.379
415.05
384.901
393.586
398.319
401.711
404.491
406.936
409.176
411.278
413.281
415.208
417.073
418.885
420.647
422.362
424.03
425.648
427.215
428.728
430.184
431.577
432.903
434.156
435.332
436.422
437.419
438.315
439.098
439.757
440.276
440.635
440.81
440.772
440.477
439.865
438.849
437.293
434.971
431.46
425.811
415.439
385.478
394.14
398.867
402.254
405.03
407.472
409.707
411.805
413.803
415.726
417.587
419.394
421.152
422.862
424.524
426.138
427.701
429.209
430.66
432.048
433.37
434.62
435.791
436.878
437.873
438.766
439.548
440.205
440.724
441.084
441.26
441.225
440.933
440.326
439.316
437.765
435.444
431.923
426.244
415.821
386.052
394.691
399.41
402.793
405.565
408.003
410.234
412.327
414.322
416.24
418.096
419.899
421.652
423.357
425.015
426.624
428.182
429.686
431.132
432.516
433.834
435.079
436.248
437.331
438.323
439.214
439.994
440.651
441.169
441.53
441.708
441.676
441.389
440.787
439.782
438.237
435.92
432.391
426.68
416.198
386.622
395.237
399.949
403.327
406.095
408.529
410.756
412.845
414.835
416.749
418.601
420.399
422.148
423.848
425.501
427.106
428.659
430.158
431.6
432.98
434.294
435.536
436.701
437.781
438.771
439.66
440.438
441.094
441.613
441.975
442.154
442.125
441.842
441.246
440.248
438.711
436.398
432.864
427.12
416.571
387.189
395.779
400.483
403.857
406.621
409.05
411.274
413.359
415.345
417.254
419.102
420.895
422.639
424.335
425.984
427.584
429.132
430.627
432.065
433.441
434.75
435.989
437.151
438.228
439.215
440.102
440.88
441.535
442.054
442.417
442.598
442.572
442.294
441.704
440.713
439.184
436.878
433.343
427.566
416.933
387.752
396.317
401.014
404.383
407.142
409.568
411.787
413.868
415.849
417.755
419.598
421.387
423.126
424.818
426.462
428.057
429.602
431.092
432.526
433.898
435.204
436.439
437.597
438.672
439.657
440.542
441.319
441.973
442.492
442.857
443.04
443.018
442.744
442.16
441.177
439.657
437.361
433.83
428.024
417.277
388.313
396.852
401.54
404.904
407.659
410.081
412.296
414.373
416.35
418.251
420.09
421.875
423.61
425.297
426.936
428.527
430.067
431.554
432.983
434.351
435.654
436.885
438.041
439.113
440.096
440.98
441.755
442.409
442.929
443.294
443.48
443.461
443.192
442.615
441.64
440.129
437.844
434.322
428.494
417.604
388.871
397.383
402.063
405.421
408.172
410.589
412.8
414.873
416.846
418.743
420.578
422.358
424.089
425.771
427.407
428.993
430.529
432.011
433.437
434.801
436.1
437.329
438.481
439.551
440.532
441.414
442.188
442.843
443.362
443.73
443.918
443.903
443.639
443.068
442.101
440.6
438.324
434.806
428.948
417.97
304.217
304.888
307.02
319.125
304.391
305.13
308.002
331.887
304.597
305.491
309.796
344.867
304.869
306.072
312.457
356.262
305.263
306.933
315.544
365.621
305.84
308.072
319.07
373.968
306.624
309.526
323.002
381.898
307.66
311.335
327.36
389.85
308.995
313.536
332.141
397.777
310.666
316.141
337.291
405.653
312.712
319.183
342.848
413.561
315.162
322.663
348.725
421.258
318.045
326.612
355.034
429.41
321.375
331.016
361.69
437.648
325.166
335.896
368.817
446.702
329.423
341.234
376.295
455.7
334.144
347.02
384.143
464.793
339.326
353.247
392.345
474.124
344.96
359.9
400.878
483.704
351.033
366.961
409.724
493.553
357.536
374.419
418.873
503.676
364.445
382.242
428.295
514.041
371.758
390.437
438.004
524.664
379.432
398.948
447.93
535.471
387.498
407.837
458.209
546.69
395.863
416.95
468.552
557.911
404.628
426.523
479.588
570.214
413.642
436.158
489.986
580.368
422.993
446.296
502.073
598.127
432.687
456.74
513.764
608.109
442.659
467.34
525.095
618.068
452.911
478.143
536.61
630.171
463.364
489.121
548.439
643.348
474.16
500.448
560.651
656.54
485
511.743
572.772
669.611
496.448
523.845
585.928
682.994
507.534
534.968
596.791
696.066
519.595
548.403
615.564
710.52
531.416
560.475
624.712
723.997
544.181
573.428
636.698
737.368
555.268
583.852
649.894
750.695
569.397
602.977
664.288
764.387
583.499
614.22
678.353
778.396
594.026
624.083
691.822
792.499
611.977
637.031
705.359
806.607
620.947
650.934
719.13
820.72
632.718
664.578
733.022
834.903
646.517
678.361
747.029
849.161
660.418
692.288
761.145
863.447
674.44
706.358
775.363
877.738
688.577
720.55
789.664
892.03
702.811
734.837
804.025
906.323
717.126
749.199
818.43
920.619
731.516
763.627
832.872
934.917
745.983
778.117
847.345
949.217
760.53
792.671
861.851
963.518
775.159
807.288
876.385
977.815
789.866
821.963
890.948
992.107
804.647
836.694
905.53
1006.38
819.489
851.466
920.112
1020.64
834.386
866.275
934.709
1034.94
849.326
881.114
949.317
1049.23
864.305
895.98
963.937
1063.52
879.314
910.863
978.541
1077.72
894.347
925.764
993.155
1091.94
909.397
940.664
1007.72
1105.92
924.451
955.543
1022.22
1119.75
939.498
970.397
1036.66
1133.5
954.528
985.221
1051.05
1147.2
969.538
1000.01
1065.39
1160.85
984.51
1014.76
1079.67
1174.46
999.45
1029.47
1093.94
1188.02
1014.35
1044.15
1108.18
1201.49
1029.22
1058.81
1122.38
1214.88
1044.06
1073.42
1136.53
1228.19
1058.87
1088.01
1150.65
1241.49
1073.64
1102.53
1164.61
1254.45
1088.36
1117.01
1178.53
1267.57
1103.01
1131.37
1192.23
1280.21
1117.61
1145.71
1206.11
1294.01
1132.13
1159.96
1219.75
1306.45
1146.59
1174.13
1233.28
1319.05
1160.94
1188.17
1246.64
1331.54
1175.25
1202.22
1260.09
1344.22
1189.36
1215.93
1272.84
1355.76
1203.47
1229.88
1286.97
1372.33
1217.47
1243.55
1299.53
1380.07
1231.3
1257.04
1312.45
1394.41
1245.13
1270.7
1326.03
1407.84
1258.83
1284.05
1338.27
1416.3
1272.42
1297.37
1351.21
1430.3
1286.02
1310.77
1364.3
1443.59
1299.39
1323.74
1376.01
1450.99
1312.87
1336.93
1388.51
1463.25
1325.95
1349.52
1400.33
1476.12
1339.45
1363.49
1416.75
1487.41
1352.59
1375.81
1424.53
1498.4
1365.67
1388.48
1437.2
1509.63
1378.55
1401.02
1449.64
1520.63
1391.26
1413.36
1461.01
1531.42
1403.86
1425.67
1472.92
1542.01
1416.54
1438.11
1484.72
1552.49
1429.13
1450.39
1496.43
1562.98
1441.97
1462.95
1508.2
1573.42
1453.88
1474.32
1519.5
1583.62
1468.33
1491.14
1531.83
1593.97
1481.02
1500.81
1543.41
1604.05
1492.66
1510.83
1554.42
1613.81
1503.99
1523.05
1565.45
1623.38
1520.18
1536.43
1576.77
1632.66
1528.08
1547.64
1587.75
1641.41
1543.53
1560.07
1598.76
1649.7
1552.74
1571.7
1609.6
1657.55
1565.59
1583.48
1620.32
1664.85
1578.19
1595.31
1630.98
1671.84
1590.67
1607.14
1641.56
1678.55
1603.11
1619.02
1652.25
1685.04
1615.57
1630.93
1662.87
1691.53
1628.05
1642.86
1673.39
1698.07
1640.58
1654.84
1683.8
1704.67
668.653
1126.58
1526.19
1409.22
642.68
1119.86
1559.91
1454.48
619.416
1066.82
1557.15
1482.48
605.367
1027.56
1543.66
1492.12
591.466
984.66
1505.97
1494.55
582.571
948.086
1461.49
1498.22
577.937
919.63
1404.8
1522.97
576.65
897.517
1353.91
1551.99
576.627
873.203
1309.5
1558.35
577.638
859.23
1255.64
1554.25
578.941
843.076
1197.5
1545.11
580.788
826.917
1168.59
1539.77
584.439
820.741
1149.76
1535.09
588.37
817.02
1132.88
1528.17
596.372
816.079
1120.57
1509.93
600.75
816.243
1111.59
1495.81
606.945
817.185
1104.82
1480.36
614.396
819.341
1100.41
1456.25
622.392
823.199
1097.29
1440.18
630.971
828.31
1096.23
1428.05
640.074
834.371
1096.31
1418.94
649.608
841.098
1097.09
1411.52
659.511
848.325
1099.06
1405.28
669.763
856.793
1101.5
1400.51
680.817
867.349
1104.1
1397.09
692.156
877.474
1108.63
1396.75
704.181
887.754
1115.26
1397.99
715.583
897.994
1122.85
1400.94
728.676
908.739
1131.11
1404.74
741.34
919.75
1139.83
1408.77
753.304
930.992
1148.89
1413.1
766.399
941.141
1158.03
1417.78
779.214
951.82
1167.26
1422.36
791.974
963.06
1177.1
1429.36
804.683
974.681
1186.93
1433.42
817.672
986.823
1197.49
1440.01
830.162
999.326
1208.57
1447
843.3
1012.37
1220.05
1454.38
856.812
1025.81
1231.91
1462.22
870.604
1039.51
1244.04
1469.98
884.509
1053.28
1256.24
1478.29
898.505
1067.17
1268.99
1489.12
912.59
1080.93
1280.94
1495.26
926.712
1094.55
1292.7
1502.75
940.845
1108.15
1304.47
1510.19
954.884
1121.36
1315.58
1516.53
969.161
1135.26
1330.36
1523
983.463
1147.99
1337.84
1528.25
997.522
1160.33
1350.66
1535.24
1011.49
1173.06
1362.59
1539.27
1025.41
1185.91
1373.95
1542.98
1039.33
1198.93
1385.31
1547.76
1053.26
1212.06
1396.62
1551.96
1067.19
1225.25
1407.86
1555.92
1081.13
1238.47
1419.02
1559.71
1095.06
1251.69
1430.04
1563.37
1108.96
1264.84
1440.88