/*--------------------------------*- C++ -*----------------------------------*\
  =========                 |
  \\      /  F ield         | OpenFOAM: The Open Source CFD Toolbox
   \\    /   O peration     | Website:  https://openfoam.org
    \\  /    A nd           | Version:  10
     \\/     M anipulation  |
\*---------------------------------------------------------------------------*/
FoamFile
{
    format      ascii;
    class       volVectorField;
    location    "12000/gas";
    object      U;
}
// * * * * * * * * * * * * * * * * * * * * * * * * * * * * * * * * * * * * * //

dimensions      [0 1 -1 0 0 0 0];

internalField   nonuniform List<vector> 
16000
(
(0.0190541 0.152178 0.140127)
(0.00266951 0.149779 0.147158)
(0.000470569 0.150314 0.149266)
(0.002098 0.149787 0.150817)
(0.0258533 0.107562 0.0834916)
(0.0149342 0.154521 0.131517)
(-0.0018404 0.154419 0.146033)
(0.0110968 0.150923 0.151651)
(0.00642976 0.0704635 0.0513373)
(0.0201071 0.153027 0.112893)
(-0.00646919 0.15873 0.142916)
(0.0183007 0.153892 0.150441)
(-0.00903556 0.0621538 0.0452121)
(0.018183 0.146126 0.0989414)
(-0.0109951 0.161283 0.140879)
(0.022529 0.156931 0.14753)
(-0.0129217 0.0678861 0.0460598)
(0.0141136 0.138347 0.0904878)
(-0.0137662 0.161733 0.139807)
(0.0239848 0.159244 0.143934)
(-0.0120377 0.0761966 0.0441901)
(0.0109088 0.13399 0.0860492)
(-0.0149006 0.160406 0.139351)
(0.0235408 0.160931 0.14041)
(-0.0104573 0.0843698 0.0412722)
(0.00853583 0.132641 0.0840637)
(-0.0149451 0.1582 0.138969)
(0.0223288 0.162133 0.137273)
(-0.00920823 0.0918584 0.0387577)
(0.00720797 0.132347 0.0831931)
(-0.0143447 0.156031 0.138379)
(0.0208256 0.162948 0.134614)
(-0.00825063 0.0984305 0.0367925)
(0.00672581 0.132382 0.0825702)
(-0.013437 0.154143 0.137459)
(0.0192942 0.163539 0.13241)
(-0.00746018 0.103875 0.0352357)
(0.00667773 0.132496 0.0817786)
(-0.0124962 0.152601 0.136207)
(0.0179146 0.164018 0.130584)
(-0.00679891 0.108212 0.0339124)
(0.00677215 0.13254 0.0807227)
(-0.0116801 0.151419 0.134709)
(0.0167712 0.164429 0.12903)
(-0.00625943 0.111607 0.0327302)
(0.00686662 0.132508 0.0794627)
(-0.0110436 0.150546 0.133058)
(0.0158631 0.164792 0.127657)
(-0.0058262 0.11428 0.0316586)
(0.00690641 0.132454 0.0780981)
(-0.0105825 0.149901 0.131313)
(0.0151642 0.165114 0.126407)
(-0.00547957 0.116419 0.0306906)
(0.00688532 0.132414 0.0767123)
(-0.0102815 0.149423 0.129535)
(0.0146437 0.165387 0.125233)
(-0.00520842 0.118184 0.0298264)
(0.00682945 0.132412 0.0753642)
(-0.0101084 0.149075 0.127779)
(0.0142646 0.165609 0.1241)
(-0.00500198 0.119689 0.029063)
(0.00676675 0.132474 0.0740845)
(-0.0100212 0.14882 0.126085)
(0.0139907 0.165782 0.122979)
(-0.00484064 0.121016 0.0283901)
(0.00670761 0.132613 0.0728853)
(-0.00998041 0.148632 0.124467)
(0.0137844 0.165902 0.12186)
(-0.00471347 0.122215 0.0277948)
(0.00665147 0.132828 0.0717689)
(-0.00995922 0.148494 0.12293)
(0.0136156 0.165973 0.120738)
(-0.004608 0.123313 0.0272645)
(0.00660094 0.133107 0.0707301)
(-0.0099405 0.14839 0.121473)
(0.0134651 0.166005 0.119614)
(-0.00451726 0.124332 0.0267869)
(0.0065527 0.133439 0.0697597)
(-0.00991256 0.148316 0.120085)
(0.0133201 0.166011 0.118491)
(-0.00443639 0.125287 0.0263521)
(0.00650674 0.133812 0.0688477)
(-0.00986557 0.14827 0.118758)
(0.0131806 0.165994 0.117372)
(-0.00436441 0.126184 0.0259525)
(0.00646118 0.13421 0.067985)
(-0.00981065 0.148253 0.117482)
(0.0130359 0.165959 0.11626)
(-0.00429841 0.127029 0.025582)
(0.00641929 0.134626 0.0671641)
(-0.00974042 0.14826 0.116249)
(0.0128899 0.165914 0.115157)
(-0.00423667 0.127829 0.0252356)
(0.00637789 0.13505 0.0663794)
(-0.00966337 0.148288 0.115055)
(0.0127372 0.165861 0.114067)
(-0.00417903 0.128585 0.0249098)
(0.00633609 0.135477 0.0656265)
(-0.0095743 0.148331 0.113894)
(0.0125845 0.165807 0.112991)
(-0.00412557 0.129303 0.0246015)
(0.00629168 0.135903 0.0649014)
(-0.00947908 0.148391 0.112762)
(0.0124327 0.165748 0.111932)
(-0.004075 0.129987 0.0243081)
(0.00624636 0.136328 0.0642018)
(-0.00937937 0.148467 0.111658)
(0.0122808 0.165679 0.110889)
(-0.0040232 0.13064 0.0240277)
(0.00619618 0.136748 0.0635256)
(-0.00928783 0.148556 0.110579)
(0.0121245 0.165612 0.109863)
(-0.00397451 0.13127 0.0237591)
(0.00614534 0.137164 0.0628716)
(-0.00919015 0.148659 0.109524)
(0.0119727 0.165559 0.108854)
(-0.00392874 0.131877 0.0235013)
(0.00609306 0.137576 0.0622383)
(-0.00909133 0.148776 0.108493)
(0.0118255 0.165511 0.107863)
(-0.00388365 0.132461 0.0232531)
(0.00604413 0.137982 0.0616229)
(-0.00898948 0.148904 0.107485)
(0.0116834 0.165462 0.106888)
(-0.00384049 0.133029 0.0230138)
(0.00599409 0.138384 0.0610249)
(-0.00889485 0.14904 0.1065)
(0.0115423 0.165411 0.10593)
(-0.00379907 0.133576 0.0227825)
(0.00594375 0.138778 0.0604432)
(-0.00880232 0.149181 0.105539)
(0.0114023 0.165369 0.104987)
(-0.00375896 0.134108 0.0225587)
(0.00589419 0.139167 0.0598764)
(-0.00870889 0.149331 0.104599)
(0.0112672 0.165331 0.10406)
(-0.00372062 0.134625 0.0223417)
(0.00584577 0.13955 0.0593236)
(-0.00861891 0.149484 0.103682)
(0.0111327 0.165292 0.103149)
(-0.00368303 0.135136 0.0221317)
(0.00579551 0.139938 0.0587861)
(-0.00853236 0.149664 0.102788)
(0.010998 0.165273 0.102255)
(-0.00364496 0.135616 0.021926)
(0.0057586 0.140306 0.0582561)
(-0.00844805 0.149805 0.101913)
(0.0108681 0.165213 0.101365)
(-0.00360142 0.136113 0.0217284)
(0.00569486 0.140711 0.0577534)
(-0.0083772 0.150103 0.101071)
(0.0106724 0.16527 0.100545)
(-0.00354203 0.136487 0.0215165)
(0.00576934 0.141044 0.0572036)
(-0.00831055 0.150069 0.100218)
(0.0108349 0.16497 0.0995177)
(-0.0034208 0.136845 0.0213215)
(0.00555483 0.141502 0.0567764)
(-0.0083059 0.151023 0.0995122)
(0.00870798 0.165942 0.0993815)
(0.000819064 0.150091 -0.149379)
(-5.82785e-05 0.149938 -0.148266)
(0.000654748 0.150069 -0.148069)
(0.000586598 0.149992 -0.148598)
(0.000635696 0.149995 -0.148913)
(0.000658768 0.149997 -0.149092)
(0.000658137 0.149999 -0.149207)
(0.000643358 0.15 -0.149291)
(0.000619421 0.150001 -0.149357)
(0.000589215 0.150002 -0.149412)
(0.000554766 0.150002 -0.14946)
(0.000517464 0.150003 -0.149503)
(0.000478251 0.150003 -0.149543)
(0.00043778 0.150004 -0.149579)
(0.000396524 0.150004 -0.149615)
(0.000354845 0.150004 -0.149648)
(0.000313048 0.150005 -0.149682)
(0.000271409 0.150005 -0.149715)
(0.000230211 0.150005 -0.149749)
(0.000189769 0.150005 -0.149784)
(0.000150459 0.150006 -0.149821)
(0.000112744 0.150006 -0.14986)
(7.72096e-05 0.150005 -0.149904)
(4.45638e-05 0.150005 -0.149953)
(1.55852e-05 0.150005 -0.150009)
(-8.51532e-06 0.150004 -0.150076)
(-2.62372e-05 0.150002 -0.150158)
(-3.78483e-05 0.150001 -0.150263)
(-5.83462e-05 0.150008 -0.150405)
(5.18595e-06 0.149987 -0.150548)
(-0.000123384 0.150028 -0.150451)
(0.000114445 0.149998 -0.15014)
(0.0032876 0.149833 -0.146591)
(-0.000198453 0.149149 -0.143462)
(0.00204873 0.149799 -0.143615)
(0.00177034 0.149786 -0.144934)
(0.00190886 0.149837 -0.145955)
(0.00195887 0.149888 -0.146652)
(0.00194883 0.149927 -0.147137)
(0.00190041 0.149958 -0.147493)
(0.00182535 0.149982 -0.147768)
(0.00173154 0.150001 -0.147992)
(0.0016251 0.150015 -0.14818)
(0.00151053 0.150027 -0.148345)
(0.00139104 0.150036 -0.148492)
(0.00126887 0.150044 -0.148627)
(0.00114567 0.15005 -0.148754)
(0.00102262 0.150055 -0.148876)
(0.000900681 0.15006 -0.148994)
(0.000780659 0.150063 -0.149111)
(0.000663333 0.150065 -0.14923)
(0.000549531 0.150067 -0.149353)
(0.000440195 0.150067 -0.149483)
(0.000336446 0.150066 -0.149624)
(0.000239627 0.150063 -0.149779)
(0.000151316 0.150059 -0.149954)
(7.32214e-05 0.150052 -0.150155)
(7.37699e-06 0.150043 -0.150394)
(-4.36516e-05 0.150032 -0.150681)
(-7.65976e-05 0.15002 -0.151028)
(-0.000147181 0.150024 -0.151423)
(3.55652e-05 0.149952 -0.151736)
(-0.000424937 0.150139 -0.151592)
(0.000466126 0.149908 -0.150616)
(0.00481751 0.14864 -0.14325)
(-0.00014472 0.148334 -0.138962)
(0.00310003 0.149217 -0.139333)
(0.00272415 0.149385 -0.141118)
(0.00295865 0.149545 -0.142692)
(0.00303995 0.14968 -0.143888)
(0.00303274 0.149789 -0.14478)
(0.00296778 0.149876 -0.145455)
(0.00286049 0.149945 -0.145985)
(0.00272192 0.15 -0.146414)
(0.00256126 0.150043 -0.146774)
(0.00238569 0.150077 -0.147085)
(0.00220065 0.150104 -0.147362)
(0.00201021 0.150126 -0.147613)
(0.00181745 0.150143 -0.147848)
(0.0016247 0.150157 -0.14807)
(0.00143384 0.150168 -0.148287)
(0.0012464 0.150176 -0.148502)
(0.00106383 0.150181 -0.148719)
(0.000887515 0.150183 -0.148945)
(0.000718966 0.150183 -0.149183)
(0.00055983 0.150178 -0.149441)
(0.000411968 0.15017 -0.149725)
(0.000277436 0.150158 -0.150045)
(0.000158327 0.15014 -0.150412)
(5.66323e-05 0.150118 -0.150837)
(-2.54851e-05 0.150091 -0.151331)
(-7.37657e-05 0.150059 -0.151891)
(-0.000202913 0.150058 -0.152467)
(8.24882e-05 0.149943 -0.15286)
(-0.000625954 0.150175 -0.152595)
(0.000703598 0.14983 -0.151079)
(0.00557236 0.146821 -0.139587)
(7.5886e-05 0.147429 -0.134901)
(0.00379137 0.148392 -0.135395)
(0.0034283 0.148811 -0.137436)
(0.00375276 0.149128 -0.139399)
(0.0038748 0.149379 -0.14101)
(0.00388478 0.149583 -0.142279)
(0.00382035 0.149748 -0.143279)
(0.00369979 0.149882 -0.144079)
(0.00353641 0.149988 -0.144734)
(0.00334151 0.150073 -0.145285)
(0.00312425 0.150141 -0.14576)
(0.00289189 0.150195 -0.146181)
(0.00265018 0.150238 -0.146563)
(0.00240364 0.150272 -0.146917)
(0.00215584 0.150299 -0.147253)
(0.0019097 0.150319 -0.147578)
(0.00166768 0.150333 -0.147901)
(0.00143196 0.150342 -0.148228)
(0.0012046 0.150345 -0.148566)
(0.000987642 0.150343 -0.148924)
(0.000783196 0.150333 -0.14931)
(0.000593467 0.150317 -0.149734)
(0.000420765 0.150294 -0.150208)
(0.000267299 0.150262 -0.150744)
(0.000134611 0.150223 -0.151351)
(2.2304e-05 0.150177 -0.152031)
(-3.50103e-05 0.150122 -0.152763)
(-0.000223885 0.150108 -0.153459)
(0.000132425 0.149962 -0.153874)
(-0.00073119 0.150152 -0.15347)
(0.000849186 0.149761 -0.151522)
(0.00583402 0.144713 -0.13577)
(0.000328618 0.146325 -0.131177)
(0.00422623 0.147413 -0.131768)
(0.00392676 0.148097 -0.133957)
(0.00432533 0.148599 -0.136189)
(0.00449267 0.148991 -0.138127)
(0.00452984 0.14931 -0.139726)
(0.00447851 0.14957 -0.141029)
(0.0043592 0.149783 -0.142097)
(0.00418695 0.149956 -0.142984)
(0.00397451 0.150095 -0.143737)
(0.00373241 0.150207 -0.144388)
(0.0034693 0.150296 -0.144965)
(0.00319226 0.150368 -0.145488)
(0.00290709 0.150424 -0.145972)
(0.00261852 0.150468 -0.14643)
(0.00233051 0.1505 -0.146873)
(0.00204644 0.150523 -0.147313)
(0.00176927 0.150536 -0.147757)
(0.0015017 0.15054 -0.148216)
(0.0012463 0.150535 -0.148701)
(0.00100554 0.15052 -0.149222)
(0.000781848 0.150494 -0.149791)
(0.000577612 0.150458 -0.15042)
(0.000394894 0.15041 -0.151119)
(0.000234555 0.150352 -0.151894)
(9.50602e-05 0.150284 -0.152735)
(3.22627e-05 0.150209 -0.153602)
(-0.000216179 0.150168 -0.154381)
(0.00017968 0.150003 -0.154792)
(-0.000777023 0.150118 -0.154261)
(0.000930723 0.149704 -0.151956)
(0.00580376 0.142471 -0.131922)
(0.00053678 0.145037 -0.127698)
(0.00448245 0.146335 -0.128392)
(0.00426198 0.147276 -0.130682)
(0.00471948 0.147977 -0.133107)
(0.00493185 0.148527 -0.135301)
(0.00500127 0.148974 -0.137179)
(0.00497108 0.149343 -0.138756)
(0.00486322 0.149647 -0.140077)
(0.00469391 0.149896 -0.141194)
(0.00447687 0.150099 -0.14215)
(0.00422352 0.150264 -0.142984)
(0.00394348 0.150398 -0.143724)
(0.00364482 0.150504 -0.144395)
(0.00333435 0.150588 -0.145017)
(0.00301781 0.150653 -0.145606)
(0.00270007 0.150701 -0.146175)
(0.00238534 0.150734 -0.146737)
(0.0020773 0.150754 -0.147306)
(0.00177925 0.150759 -0.147891)
(0.0014942 0.150752 -0.148507)
(0.00122493 0.15073 -0.149166)
(0.000973977 0.150694 -0.149879)
(0.000743705 0.150645 -0.150659)
(0.000535922 0.150581 -0.151512)
(0.000350978 0.150504 -0.152439)
(0.000188158 0.150415 -0.153418)
(0.000116368 0.150321 -0.154394)
(-0.000187026 0.150234 -0.155234)
(0.000231582 0.150068 -0.155634)
(-0.000782375 0.15009 -0.154999)
(0.000976905 0.149671 -0.152393)
(0.00562595 0.140179 -0.128125)
(0.000683581 0.143608 -0.124413)
(0.00460955 0.145182 -0.125224)
(0.00446872 0.146375 -0.127595)
(0.00497326 0.147281 -0.130164)
(0.00522752 0.147998 -0.132561)
(0.00533063 0.148584 -0.134674)
(0.00532603 0.14907 -0.136493)
(0.00523632 0.149473 -0.138049)
(0.00507835 0.149807 -0.139385)
(0.00486636 0.150082 -0.140542)
(0.00461232 0.150308 -0.141559)
(0.00432644 0.150491 -0.142467)
(0.00401747 0.150638 -0.143293)
(0.00369296 0.150755 -0.144058)
(0.00335942 0.150845 -0.144782)
(0.00302248 0.150912 -0.145483)
(0.00268702 0.150959 -0.146174)
(0.00235736 0.150986 -0.14687)
(0.00203729 0.150994 -0.147586)
(0.00173017 0.150985 -0.148335)
(0.00143901 0.150957 -0.149131)
(0.00116644 0.150912 -0.149986)
(0.000914744 0.150849 -0.15091)
(0.000685551 0.15077 -0.151907)
(0.00047921 0.150675 -0.152969)
(0.000296858 0.150567 -0.154068)
(0.000205626 0.150453 -0.155135)
(-0.000142787 0.150316 -0.156025)
(0.000296031 0.150152 -0.156419)
(-0.000769827 0.150076 -0.155702)
(0.00100827 0.14965 -0.152838)
(0.00538334 0.137905 -0.124428)
(0.000773881 0.142082 -0.121292)
(0.00464211 0.143974 -0.122236)
(0.00457541 0.145415 -0.124679)
(0.00511772 0.146526 -0.127364)
(0.00540941 0.147414 -0.129925)
(0.0055454 0.148145 -0.132235)
(0.00556834 0.148754 -0.134266)
(0.00550081 0.149263 -0.136036)
(0.00535986 0.149688 -0.137578)
(0.0051599 0.150041 -0.13893)
(0.00491313 0.150332 -0.140127)
(0.00463006 0.150571 -0.141203)
(0.00431983 0.150764 -0.142185)
(0.0039905 0.150918 -0.143097)
(0.00364909 0.151038 -0.143962)
(0.00330179 0.151127 -0.144797)
(0.00295404 0.151189 -0.14562)
(0.00261061 0.151226 -0.146447)
(0.00227567 0.151239 -0.147295)
(0.0019529 0.151229 -0.148177)
(0.00164543 0.151197 -0.149108)
(0.00135596 0.151143 -0.1501)
(0.00108671 0.151068 -0.151161)
(0.000839194 0.150974 -0.15229)
(0.000614033 0.150862 -0.153475)
(0.000414143 0.150735 -0.154679)
(0.000297744 0.150597 -0.155826)
(-8.60374e-05 0.150422 -0.156762)
(0.0003699 0.150253 -0.157156)
(-0.000752656 0.150085 -0.156381)
(0.00103277 0.149644 -0.153296)
(0.00511644 0.135693 -0.120857)
(0.000817413 0.140498 -0.118321)
(0.00460617 0.142724 -0.119406)
(0.00460499 0.144413 -0.12192)
(0.0051777 0.145728 -0.124701)
(0.00550202 0.146788 -0.127398)
(0.00566889 0.147665 -0.129875)
(0.00571963 0.1484 -0.132093)
(0.00567639 0.149018 -0.134055)
(0.00555607 0.149538 -0.135789)
(0.00537297 0.149973 -0.137325)
(0.00513927 0.150335 -0.138698)
(0.00486555 0.150634 -0.13994)
(0.00456111 0.150877 -0.141078)
(0.00423426 0.151072 -0.142139)
(0.00389236 0.151224 -0.143145)
(0.00354197 0.151338 -0.144116)
(0.00318886 0.151419 -0.145073)
(0.00283817 0.151467 -0.146033)
(0.00249434 0.151487 -0.147012)
(0.00216124 0.151478 -0.148027)
(0.00184213 0.151443 -0.14909)
(0.00153971 0.151383 -0.150214)
(0.00125617 0.151298 -0.151403)
(0.000992981 0.151191 -0.152654)
(0.000751015 0.151064 -0.15395)
(0.000534368 0.150919 -0.15525)
(0.000391485 0.150757 -0.15647)
(-1.63305e-05 0.150552 -0.157449)
(0.000450969 0.15037 -0.157852)
(-0.00073531 0.150122 -0.157041)
(0.00105802 0.149659 -0.15377)
(0.00484426 0.133567 -0.117426)
(0.000826263 0.13889 -0.115486)
(0.00452114 0.14145 -0.116722)
(0.00457594 0.143382 -0.119305)
(0.005173 0.144897 -0.12217)
(0.00552538 0.146127 -0.124982)
(0.00572057 0.147151 -0.127603)
(0.00579833 0.148013 -0.129983)
(0.00578016 0.148742 -0.132119)
(0.00568252 0.149359 -0.134029)
(0.00551943 0.149879 -0.13574)
(0.00530286 0.150314 -0.137281)
(0.00504326 0.150676 -0.138684)
(0.00474991 0.150972 -0.139977)
(0.00443119 0.151211 -0.141185)
(0.00409458 0.151399 -0.142333)
(0.00374684 0.151542 -0.143442)
(0.00339398 0.151643 -0.144533)
(0.0030413 0.151706 -0.145625)
(0.00269346 0.151735 -0.146735)
(0.00235441 0.15173 -0.147879)
(0.00202751 0.151694 -0.149071)
(0.00171548 0.151629 -0.15032)
(0.00142049 0.151537 -0.15163)
(0.00114399 0.151419 -0.152995)
(0.000887128 0.151279 -0.154394)
(0.000654621 0.151117 -0.15578)
(0.000485932 0.150935 -0.157067)
(6.279e-05 0.150706 -0.158091)
(0.000535313 0.150502 -0.158513)
(-0.000720544 0.150187 -0.157687)
(0.00108471 0.149691 -0.154261)
(0.00457659 0.13154 -0.114141)
(0.000811095 0.137283 -0.112781)
(0.00440189 0.140165 -0.114172)
(0.00450331 0.142333 -0.116824)
(0.00511959 0.144044 -0.119764)
(0.00549586 0.145441 -0.122676)
(0.00571664 0.146609 -0.125421)
(0.00582009 0.147597 -0.127945)
(0.00582684 0.148437 -0.130237)
(0.00575282 0.149152 -0.132309)
(0.0056116 0.149758 -0.134182)
(0.0054148 0.150269 -0.135884)
(0.00517262 0.150696 -0.137443)
(0.00489418 0.151048 -0.138886)
(0.00458775 0.151334 -0.14024)
(0.00426082 0.151561 -0.141528)
(0.00392018 0.151734 -0.142774)
(0.00357192 0.151859 -0.143998)
(0.00322144 0.151939 -0.14522)
(0.00287346 0.151979 -0.146459)
(0.00253203 0.15198 -0.14773)
(0.00220052 0.151946 -0.149045)
(0.00188169 0.151879 -0.150414)
(0.00157771 0.151781 -0.151839)
(0.00129008 0.151656 -0.15331)
(0.0010202 0.151505 -0.154804)
(0.000773095 0.15133 -0.156271)
(0.000580645 0.15113 -0.157623)
(0.000146636 0.150883 -0.158693)
(0.000617578 0.150652 -0.159142)
(-0.000705968 0.150278 -0.158319)
(0.00111447 0.149745 -0.15477)
(0.00431876 0.129618 -0.111005)
(0.000780161 0.135697 -0.110197)
(0.00425999 0.138881 -0.111746)
(0.0043994 0.141276 -0.114468)
(0.00503047 0.143176 -0.117477)
(0.00542688 0.144735 -0.120476)
(0.0056706 0.146044 -0.12333)
(0.00579808 0.147157 -0.125981)
(0.00582903 0.148107 -0.128414)
(0.00577874 0.14892 -0.130633)
(0.00566027 0.149612 -0.132658)
(0.00548479 0.1502 -0.134512)
(0.00526215 0.150693 -0.13622)
(0.0050012 0.151103 -0.137809)
(0.00471 0.151438 -0.139304)
(0.00439592 0.151705 -0.140731)
(0.00406567 0.151912 -0.142111)
(0.00372529 0.152062 -0.143467)
(0.0033802 0.152163 -0.144818)
(0.00303513 0.152216 -0.146182)
(0.00269414 0.152226 -0.147576)
(0.00236061 0.152197 -0.149011)
(0.00203732 0.15213 -0.150494)
(0.00172648 0.15203 -0.152027)
(0.00142969 0.1519 -0.153598)
(0.00114855 0.151741 -0.155181)
(0.000888251 0.151555 -0.156725)
(0.000674504 0.151341 -0.158139)
(0.000232806 0.151079 -0.159257)
(0.000694246 0.150824 -0.15974)
(-0.000692635 0.150393 -0.158938)
(0.00114827 0.149818 -0.155297)
(0.0040737 0.127804 -0.108017)
(0.000739579 0.134145 -0.107728)
(0.00410447 0.137606 -0.109436)
(0.00427431 0.140219 -0.112228)
(0.00491626 0.1423 -0.115301)
(0.00532953 0.144016 -0.118378)
(0.00559369 0.145462 -0.121328)
(0.00574342 0.146696 -0.124093)
(0.00579748 0.147754 -0.126652)
(0.00577049 0.148664 -0.129008)
(0.0056749 0.149443 -0.131173)
(0.00552143 0.150107 -0.133169)
(0.0053195 0.150668 -0.135019)
(0.00507762 0.151136 -0.136748)
(0.00480356 0.151522 -0.138382)
(0.00450447 0.151832 -0.139943)
(0.00418689 0.152073 -0.141455)
(0.00385677 0.152253 -0.142939)
(0.00351943 0.152375 -0.144415)
(0.00317955 0.152445 -0.145902)
(0.00284117 0.152467 -0.147415)
(0.00250768 0.152444 -0.148965)
(0.00218186 0.152381 -0.150558)
(0.00186598 0.152282 -0.152193)
(0.00156174 0.152149 -0.153858)
(0.00127096 0.151985 -0.155525)
(0.000998863 0.151791 -0.157142)
(0.000766261 0.151566 -0.158617)
(0.000320251 0.151291 -0.159785)
(0.000763351 0.151014 -0.160311)
(-0.000685844 0.150536 -0.159544)
(0.0011899 0.149914 -0.155842)
(0.00384307 0.126095 -0.105174)
(0.000693893 0.132636 -0.105369)
(0.00394235 0.13635 -0.107234)
(0.00413622 0.139167 -0.110097)
(0.00478574 0.141421 -0.11323)
(0.00521301 0.143287 -0.116377)
(0.00549531 0.144866 -0.119414)
(0.00566551 0.146218 -0.12228)
(0.00574139 0.147382 -0.124954)
(0.00573685 0.148386 -0.127434)
(0.00566377 0.149251 -0.129729)
(0.00553234 0.149991 -0.131859)
(0.00535153 0.15062 -0.133844)
(0.00512948 0.151148 -0.135707)
(0.00487361 0.151585 -0.137473)
(0.0045908 0.15194 -0.139165)
(0.00428737 0.152219 -0.140804)
(0.00396907 0.152428 -0.142414)
(0.00364111 0.152575 -0.144012)
(0.00330807 0.152664 -0.145618)
(0.00297393 0.1527 -0.147246)
(0.00264205 0.152688 -0.148906)
(0.00231525 0.152631 -0.150604)
(0.00199584 0.152535 -0.152337)
(0.00168562 0.152402 -0.154091)
(0.0013866 0.152236 -0.155838)
(0.00110398 0.152037 -0.157525)
(0.000854632 0.151803 -0.159061)
(0.000404826 0.151517 -0.160281)
(0.000828148 0.151216 -0.160855)
(-0.000680946 0.150709 -0.160136)
(0.00123518 0.150032 -0.156404)
(0.00362786 0.124489 -0.102473)
(0.000646518 0.131177 -0.103114)
(0.00377913 0.135117 -0.105134)
(0.00399182 0.138124 -0.108068)
(0.00464615 0.140543 -0.111258)
(0.00508499 0.142552 -0.114469)
(0.00538337 0.144259 -0.117583)
(0.00557232 0.145725 -0.120541)
(0.00566861 0.146992 -0.123319)
(0.00568544 0.14809 -0.125912)
(0.00563408 0.149038 -0.128329)
(0.00552422 0.149854 -0.130583)
(0.00536438 0.150551 -0.132696)
(0.00516226 0.151139 -0.134687)
(0.00492496 0.151629 -0.13658)
(0.00465902 0.152029 -0.138397)
(0.0043705 0.152346 -0.140161)
(0.00406494 0.152589 -0.141891)
(0.00374737 0.152762 -0.143609)
(0.00342225 0.152873 -0.145329)
(0.00309348 0.152926 -0.147068)
(0.00276439 0.152926 -0.148834)
(0.0024378 0.152878 -0.150632)
(0.00211608 0.152788 -0.152458)
(0.00180112 0.152658 -0.154298)
(0.00149508 0.152492 -0.156122)
(0.00120312 0.152291 -0.157877)
(0.000939005 0.152051 -0.159472)
(0.000485009 0.151758 -0.160746)
(0.000889925 0.151434 -0.161374)
(-0.000674026 0.150909 -0.160714)
(0.00127984 0.150174 -0.15698)
(0.00342857 0.122978 -0.0999075)
(0.000600037 0.129769 -0.100957)
(0.00361912 0.133912 -0.103129)
(0.00384658 0.137095 -0.106133)
(0.0045035 0.139668 -0.109378)
(0.0049519 0.141814 -0.112649)
(0.00526455 0.143643 -0.115833)
(0.00547063 0.14522 -0.118874)
(0.0055859 0.146587 -0.121747)
(0.00562285 0.147775 -0.124444)
(0.00559217 0.148806 -0.126972)
(0.00550304 0.149697 -0.129344)
(0.00536354 0.150461 -0.131576)
(0.00518097 0.151109 -0.133689)
(0.00496205 0.151652 -0.135703)
(0.004713 0.152099 -0.137641)
(0.00443959 0.152457 -0.139524)
(0.00414712 0.152734 -0.141372)
(0.00384043 0.152937 -0.143203)
(0.00352383 0.153071 -0.145035)
(0.00320114 0.153143 -0.14688)
(0.00287563 0.153158 -0.148748)
(0.00255014 0.153122 -0.150642)
(0.00222706 0.15304 -0.152557)
(0.00190837 0.152917 -0.154479)
(0.00159638 0.152754 -0.156377)
(0.00129616 0.152553 -0.158198)
(0.00101912 0.15231 -0.159853)
(0.000560734 0.152011 -0.161183)
(0.000948303 0.151669 -0.161869)
(-0.000664435 0.151128 -0.161278)
(0.00132251 0.150338 -0.157568)
(0.00324541 0.121558 -0.0974725)
(0.000556433 0.128414 -0.098895)
(0.00346572 0.132734 -0.101212)
(0.00370499 0.136081 -0.104286)
(0.00436283 0.138799 -0.107585)
(0.00481919 0.141075 -0.110911)
(0.00514457 0.143021 -0.114159)
(0.00536629 0.144704 -0.117276)
(0.00549911 0.146168 -0.120234)
(0.00555483 0.147445 -0.123028)
(0.0055436 0.148557 -0.12566)
(0.00547409 0.149521 -0.12814)
(0.00535397 0.150352 -0.130485)
(0.00519015 0.15106 -0.132713)
(0.00498898 0.151657 -0.134844)
(0.00475638 0.152152 -0.136898)
(0.0044978 0.152551 -0.138895)
(0.00421832 0.152864 -0.140855)
(0.00392256 0.153098 -0.142797)
(0.00361469 0.153258 -0.144735)
(0.00329841 0.153351 -0.146683)
(0.00297695 0.153384 -0.148649)
(0.00265314 0.153363 -0.150635)
(0.0023294 0.153292 -0.152636)
(0.00200779 0.153176 -0.154636)
(0.00169074 0.153019 -0.156605)
(0.00138323 0.152821 -0.158491)
(0.00109483 0.152578 -0.160205)
(0.00063203 0.152276 -0.161592)
(0.00100305 0.15192 -0.16234)
(-0.000652591 0.151365 -0.161826)
(0.00136348 0.150526 -0.158167)
(0.00307837 0.120219 -0.0951617)
(0.000517254 0.12711 -0.096922)
(0.00332168 0.131587 -0.0993799)
(0.00357077 0.135082 -0.102522)
(0.00422839 0.137936 -0.105872)
(0.00469153 0.140336 -0.109249)
(0.00502835 0.142394 -0.112557)
(0.00526435 0.14418 -0.115742)
(0.00541334 0.145738 -0.11878)
(0.00548645 0.147101 -0.121662)
(0.00549329 0.148291 -0.12439)
(0.0054421 0.149328 -0.126973)
(0.00534014 0.150225 -0.129424)
(0.00519395 0.150994 -0.13176)
(0.00500957 0.151645 -0.134001)
(0.00479258 0.152187 -0.136166)
(0.00454819 0.15263 -0.138273)
(0.00428121 0.15298 -0.140342)
(0.00399606 0.153246 -0.142389)
(0.00369677 0.153434 -0.14443)
(0.00338691 0.153552 -0.146477)
(0.00306968 0.153605 -0.148536)
(0.00274786 0.1536 -0.15061)
(0.00242393 0.153542 -0.152694)
(0.0021 0.153437 -0.15477)
(0.00177858 0.153288 -0.156808)
(0.00146459 0.153095 -0.158757)
(0.00116612 0.152854 -0.160531)
(0.000698956 0.152551 -0.161977)
(0.00105424 0.152186 -0.16279)
(-0.000638941 0.151618 -0.162359)
(0.00140363 0.150738 -0.158773)
(0.00292727 0.118955 -0.0929684)
(0.000483751 0.125856 -0.0950336)
(0.00318922 0.130468 -0.0976255)
(0.00344709 0.134099 -0.100835)
(0.00410387 0.13708 -0.104234)
(0.00457297 0.139597 -0.107659)
(0.00492019 0.141763 -0.111021)
(0.00516928 0.143647 -0.114271)
(0.00533313 0.145296 -0.117382)
(0.00542222 0.146743 -0.120345)
(0.00544568 0.148011 -0.123162)
(0.00541134 0.149119 -0.12584)
(0.0053261 0.150082 -0.128391)
(0.0051962 0.15091 -0.130831)
(0.00502735 0.151616 -0.133176)
(0.00482486 0.152207 -0.135446)
(0.00459367 0.152694 -0.137658)
(0.00433838 0.153083 -0.139831)
(0.00406322 0.153383 -0.14198)
(0.00377205 0.153601 -0.144119)
(0.00346835 0.153744 -0.146261)
(0.00315525 0.153819 -0.148411)
(0.00283552 0.153832 -0.15057)
(0.00251164 0.153791 -0.152732)
(0.00218578 0.153699 -0.154882)
(0.00186051 0.15356 -0.156987)
(0.00154069 0.153374 -0.158999)
(0.00123319 0.153138 -0.160832)
(0.000761693 0.152837 -0.162337)
(0.00110181 0.152465 -0.163218)
(-0.000623532 0.151887 -0.162876)
(0.00144636 0.150972 -0.159384)
(0.00279191 0.117755 -0.090886)
(0.000456977 0.124647 -0.0932252)
(0.00307023 0.129376 -0.0959442)
(0.0033367 0.133132 -0.0992185)
(0.00399249 0.136231 -0.102665)
(0.00446711 0.138859 -0.106136)
(0.00482395 0.141127 -0.109549)
(0.00508509 0.143107 -0.112857)
(0.00526253 0.144844 -0.116035)
(0.00536619 0.146373 -0.119075)
(0.00540475 0.147718 -0.121974)
(0.00538568 0.148896 -0.124741)
(0.00531558 0.149923 -0.127386)
(0.0052004 0.150812 -0.129923)
(0.0050456 0.151572 -0.132368)
(0.00485624 0.152213 -0.134738)
(0.00463703 0.152744 -0.137051)
(0.00439236 0.153173 -0.139323)
(0.00412629 0.153508 -0.141569)
(0.00384253 0.153757 -0.143804)
(0.00354448 0.153928 -0.146036)
(0.00323517 0.154027 -0.148273)
(0.00291738 0.154062 -0.150514)
(0.00259359 0.154038 -0.152753)
(0.002266 0.153961 -0.154973)
(0.00193724 0.153834 -0.157144)
(0.00161207 0.153658 -0.159218)
(0.00129641 0.153428 -0.16111)
(0.000820576 0.153131 -0.162676)
(0.00114676 0.152756 -0.163626)
(-0.000607754 0.152173 -0.163377)
(0.00149136 0.151226 -0.159997)
(0.00267202 0.11661 -0.0889075)
(0.000437871 0.123478 -0.0914923)
(0.00296636 0.128308 -0.094331)
(0.00324206 0.132177 -0.097668)
(0.00389717 0.135387 -0.10116)
(0.00437725 0.13812 -0.104675)
(0.00474316 0.140488 -0.108135)
(0.00501544 0.14256 -0.111497)
(0.00520529 0.144383 -0.114738)
(0.00532211 0.145993 -0.117847)
(0.00537418 0.147412 -0.120825)
(0.0053687 0.14866 -0.123675)
(0.00531201 0.149751 -0.126408)
(0.00520984 0.150699 -0.129037)
(0.00506741 0.151514 -0.131576)
(0.0048896 0.152205 -0.134042)
(0.00468092 0.152781 -0.136451)
(0.00444557 0.153252 -0.138818)
(0.00418747 0.153624 -0.141158)
(0.00391019 0.153906 -0.143483)
(0.00361703 0.154106 -0.145803)
(0.003311 0.15423 -0.148123)
(0.00299481 0.154287 -0.150443)
(0.00267095 0.154283 -0.152756)
(0.00234165 0.154223 -0.155045)
(0.00200956 0.15411 -0.157281)
(0.00167939 0.153946 -0.159415)
(0.00135624 0.153725 -0.161366)
(0.000875926 0.153434 -0.162993)
(0.00118992 0.153058 -0.164015)
(-0.000592867 0.152474 -0.163861)
(0.00153647 0.151499 -0.160608)
(0.0025674 0.115512 -0.0870264)
(0.000427337 0.122344 -0.0898303)
(0.00287914 0.12726 -0.0927812)
(0.0031655 0.131232 -0.0961783)
(0.0038207 0.134547 -0.0997142)
(0.00430648 0.13738 -0.10327)
(0.00468113 0.139843 -0.106774)
(0.00496378 0.142005 -0.110187)
(0.0051649 0.143913 -0.113486)
(0.00529345 0.145601 -0.116661)
(0.00535742 0.147095 -0.11971)
(0.00536375 0.148411 -0.122639)
(0.00531861 0.149567 -0.125455)
(0.00522756 0.150575 -0.128171)
(0.00509567 0.151444 -0.1308)
(0.00492765 0.152186 -0.133357)
(0.00472785 0.152808 -0.135857)
(0.00450033 0.15332 -0.138315)
(0.00424887 0.15373 -0.140745)
(0.00397694 0.154047 -0.143157)
(0.00368776 0.154277 -0.145561)
(0.00338426 0.154429 -0.147962)
(0.00306914 0.15451 -0.150358)
(0.00274487 0.154527 -0.152742)
(0.00241371 0.154486 -0.155099)
(0.00207831 0.154389 -0.157397)
(0.0017433 0.154237 -0.159591)
(0.00141315 0.154027 -0.161601)
(0.000928057 0.153745 -0.16329)
(0.00123158 0.153371 -0.164385)
(-0.000579177 0.152789 -0.164329)
(0.00158043 0.15179 -0.161216)
(0.00247788 0.114451 -0.0852358)
(0.000426313 0.121237 -0.0882346)
(0.00281012 0.126228 -0.0912899)
(0.00310931 0.130295 -0.0947443)
(0.00376581 0.133707 -0.0983222)
(0.00425787 0.136638 -0.101916)
(0.00464114 0.139193 -0.105462)
(0.00493346 0.141443 -0.108922)
(0.00514474 0.143434 -0.112275)
(0.00528357 0.145201 -0.115512)
(0.00535771 0.146767 -0.118629)
(0.00537397 0.148152 -0.121631)
(0.0053384 0.149372 -0.124526)
(0.00525645 0.150439 -0.127325)
(0.0051331 0.151364 -0.130039)
(0.00497293 0.152156 -0.132682)
(0.0047802 0.152826 -0.13527)
(0.00455884 0.15338 -0.137815)
(0.00431253 0.15383 -0.140331)
(0.00404465 0.154181 -0.142827)
(0.00375833 0.154443 -0.145312)
(0.00345646 0.154624 -0.14779)
(0.00314171 0.154731 -0.15026)
(0.00281654 0.154771 -0.152714)
(0.00248319 0.154749 -0.155135)
(0.00214432 0.15467 -0.157496)
(0.00180449 0.154533 -0.159749)
(0.00146764 0.154335 -0.161817)
(0.000977354 0.154063 -0.163569)
(0.00127186 0.153694 -0.164737)
(-0.000566581 0.153116 -0.164782)
(0.00162298 0.152101 -0.161817)
(0.00240341 0.113415 -0.0835293)
(0.000435852 0.120151 -0.0867007)
(0.00276095 0.125206 -0.0898527)
(0.00307591 0.129361 -0.0933612)
(0.00373533 0.132866 -0.0969789)
(0.00423456 0.13589 -0.10061)
(0.00462647 0.138536 -0.104195)
(0.00492785 0.140873 -0.107699)
(0.00514814 0.142946 -0.111103)
(0.00529572 0.14479 -0.114397)
(0.00537822 0.14643 -0.117578)
(0.00540239 0.147884 -0.12065)
(0.00537426 0.149168 -0.123619)
(0.00529924 0.150294 -0.126496)
(0.00518226 0.151274 -0.129291)
(0.00502786 0.152118 -0.132017)
(0.00484022 0.152835 -0.134688)
(0.00462319 0.153434 -0.137317)
(0.00438037 0.153923 -0.139915)
(0.00411507 0.15431 -0.142492)
(0.00383036 0.154606 -0.145055)
(0.00352907 0.154816 -0.147608)
(0.00321383 0.15495 -0.150149)