/*--------------------------------*- C++ -*----------------------------------*\
  =========                 |
  \\      /  F ield         | OpenFOAM: The Open Source CFD Toolbox
   \\    /   O peration     | Website:  https://openfoam.org
    \\  /    A nd           | Version:  8
     \\/     M anipulation  |
\*---------------------------------------------------------------------------*/
FoamFile
{
    version     2.0;
    format      ascii;
    class       volScalarField;
    location    "760/fluid";
    object      CH4;
}
// * * * * * * * * * * * * * * * * * * * * * * * * * * * * * * * * * * * * * //

dimensions      [0 0 0 0 0 0 0];

internalField   nonuniform List<scalar> 
4000
(
0.999997
0.999986
0.999968
0.999938
0.999888
0.999804
0.999667
0.999442
0.999078
0.998496
0.997579
0.996158
0.993996
0.990784
0.986133
0.979598
0.970711
0.959044
0.944269
0.926211
0.904863
0.880378
0.853036
0.823201
0.791288
0.757728
0.722949
0.687362
0.65135
0.615261
0.579405
0.544052
0.509431
0.47573
0.443101
0.411663
0.381508
0.352698
0.325271
0.299243
0.274612
0.251363
0.229469
0.208891
0.189587
0.171506
0.154596
0.138801
0.124067
0.110337
0.0975564
0.0856724
0.0746344
0.0643949
0.0549099
0.0461397
0.0380497
0.0307123
0.0240739
0.0178617
0.0122629
0.00728934
0.00327446
0.00229698
0.00159071
0.00108556
0.000728621
0.000479968
0.000309611
0.00019517
0.00012011
7.23848e-05
4.34008e-05
2.73352e-05
1.99165e-05
1.52808e-05
1.13271e-05
7.95821e-06
5.24505e-06
3.21891e-06
1.83622e-06
9.78464e-07
4.91598e-07
2.36655e-07
1.10584e-07
5.04603e-08
2.25823e-08
9.94417e-09
4.3197e-09
1.85489e-09
7.88678e-10
3.3252e-10
1.39169e-10
5.7853e-11
2.38754e-11
9.75279e-12
3.90707e-12
1.49441e-12
4.9974e-13
8.76634e-14
0.999997
0.999986
0.999968
0.999938
0.999887
0.999803
0.999665
0.999439
0.999074
0.998491
0.997573
0.996156
0.994007
0.990824
0.986229
0.97979
0.971049
0.959583
0.94506
0.927291
0.906249
0.882065
0.854997
0.825394
0.793657
0.760215
0.725497
0.689915
0.65386
0.617686
0.581713
0.546216
0.511433
0.477559
0.444751
0.413132
0.382798
0.353815
0.326222
0.300037
0.275261
0.251878
0.229861
0.209173
0.18977
0.171601
0.154611
0.138748
0.123954
0.110173
0.0973484
0.0854274
0.0743584
0.0640932
0.0545873
0.0458006
0.0376979
0.0303551
0.0237138
0.0174972
0.0118973
0.00693214
0.0032237
0.00225903
0.00156192
0.00106365
0.000712047
0.000467608
0.000300582
0.000188755
0.000115725
6.95626e-05
4.17909e-05
2.67017e-05
1.97266e-05
1.50396e-05
1.10275e-05
7.65692e-06
4.98828e-06
3.03195e-06
1.71999e-06
9.16452e-07
4.62905e-07
2.24526e-07
1.05854e-07
4.87466e-08
2.20039e-08
9.76233e-09
4.26661e-09
1.84054e-09
7.85058e-10
3.31612e-10
1.38894e-10
5.77313e-11
2.38067e-11
9.71339e-12
3.88616e-12
1.48455e-12
4.9594e-13
8.69717e-14
0.999997
0.999986
0.999968
0.999938
0.999887
0.999803
0.999664
0.999437
0.999071
0.998487
0.99757
0.996155
0.994016
0.990854
0.986302
0.979934
0.971303
0.959991
0.945671
0.928148
0.907385
0.883496
0.856723
0.827395
0.7959
0.762654
0.728079
0.692587
0.656565
0.620374
0.584337
0.548737
0.513818
0.479781
0.446792
0.414979
0.384443
0.355256
0.327461
0.30108
0.276116
0.252555
0.230372
0.20953
0.189985
0.171685
0.154582
0.138617
0.123733
0.109873
0.0969809
0.0850018
0.0738839
0.0635781
0.0540394
0.0452269
0.0371051
0.0297578
0.0231146
0.0169036
0.0113231
0.00636855
0.00318336
0.00221855
0.00152575
0.00103348
0.000688093
0.000449353
0.000287192
0.000179321
0.000109389
6.55945e-05
3.96271e-05
2.59432e-05
1.94286e-05
1.46972e-05
1.06603e-05
7.3226e-06
4.72459e-06
2.8508e-06
1.61082e-06
8.57853e-07
4.34358e-07
2.11443e-07
1.00142e-07
4.63494e-08
2.10306e-08
9.37754e-09
4.11755e-09
1.78355e-09
7.63382e-10
3.23342e-10
1.35705e-10
5.6481e-11
2.3308e-11
9.5121e-12
3.80512e-12
1.45309e-12
4.85204e-13
8.50623e-14
0.999997
0.999986
0.999968
0.999938
0.999887
0.999803
0.999664
0.999438
0.999074
0.998493
0.997583
0.996182
0.994065
0.99094
0.986443
0.980157
0.971638
0.960475
0.946336
0.929023
0.908489
0.884839
0.8583
0.829193
0.797896
0.764817
0.73037
0.694964
0.658987
0.622798
0.586721
0.551046
0.516018
0.481846
0.4487
0.416713
0.385993
0.356614
0.328626
0.302053
0.276902
0.253161
0.230806
0.209804
0.190108
0.171676
0.154451
0.138376
0.123395
0.109449
0.0964833
0.0844411
0.0732703
0.0629213
0.053348
0.0445093
0.0363692
0.0290307
0.0224033
0.0162007
0.010619
0.00568375
0.00314365
0.00217644
0.00148656
0.000999957
0.00066115
0.00042877
0.000272171
0.000168846
0.000102453
6.13264e-05
3.73549e-05
2.51712e-05
1.90119e-05
1.42544e-05
1.02255e-05
6.94505e-06
4.43344e-06
2.65142e-06
1.48906e-06
7.90718e-07
4.00368e-07
1.95287e-07
9.27789e-08
4.31011e-08
1.96348e-08
8.79084e-09
3.87536e-09
1.68502e-09
7.23732e-10
3.07505e-10
1.29407e-10
5.39817e-11
2.23175e-11
9.12087e-12
3.65244e-12
1.39573e-12
4.66184e-13
8.17374e-14
0.999997
0.999986
0.999968
0.999938
0.999887
0.999804
0.999666
0.999441
0.999079
0.998502
0.9976
0.99621
0.994113
0.991019
0.986571
0.980354
0.971932
0.960893
0.946907
0.92977
0.909429
0.885979
0.859637
0.830716
0.799584
0.766643
0.732305
0.696973
0.661033
0.624846
0.588738
0.552999
0.51788
0.483593
0.450311
0.418173
0.38729
0.357742
0.32958
0.302835
0.277513
0.253608
0.231094
0.20994
0.190109
0.171549
0.154207
0.138029
0.122955
0.108929
0.0958943
0.0837941
0.0725757
0.0621887
0.0525864
0.0437263
0.0355835
0.0282753
0.0216478
0.0154379
0.00987262
0.005001
0.00310266
0.00212601
0.00143867
0.00095957
0.000629495
0.00040527
0.000255513
0.000157553
9.51739e-05
5.6953e-05
3.51093e-05
2.44624e-05
1.8509e-05
1.3749e-05
9.765e-06
6.56874e-06
4.15732e-06
2.46975e-06
1.38137e-06
7.32462e-07
3.71135e-07
1.81404e-07
8.64173e-08
4.02647e-08
1.83969e-08
8.25973e-09
3.65063e-09
1.59098e-09
6.84733e-10
2.91445e-10
1.2283e-10
5.1301e-11
2.123e-11
8.68292e-12
3.47891e-12
1.32983e-12
4.44189e-13
7.78783e-14
0.999997
0.999986
0.999968
0.999938
0.999888
0.999805
0.999668
0.999445
0.999086
0.998514
0.99762
0.996244
0.994168
0.991107
0.986706
0.980555
0.972219
0.961289
0.947432
0.93044
0.910255
0.886964
0.860778
0.832001
0.800997
0.768163
0.733905
0.698626
0.662711
0.626519
0.590379
0.554582
0.519381
0.484992
0.451591
0.419322
0.388297
0.3586
0.330286
0.303386
0.277913
0.25386
0.231208
0.209929
0.189976
0.171305
0.153862
0.137593
0.12244
0.108345
0.0952519
0.0831045
0.0718494
0.061436
0.0518175
0.0429526
0.034802
0.0275087
0.0208715
0.0146742
0.00913033
0.0043184
0.00295966
0.00201228
0.00135337
0.000898022
0.000586401
0.000375901
0.000236033
0.000145015
8.73944e-05
5.23728e-05
3.26749e-05
2.33425e-05
1.7748e-05
1.31397e-05
9.28345e-06
6.20646e-06
3.90368e-06
2.30673e-06
1.28535e-06
6.80187e-07
3.44486e-07
1.68531e-07
8.04055e-08
3.75328e-08
1.71835e-08
7.73109e-09
3.42406e-09
1.49521e-09
6.44711e-10
2.74875e-10
1.16021e-10
4.85196e-11
2.01006e-11
8.22808e-12
3.29873e-12
1.26142e-12
4.21367e-13
7.38747e-14
0.999997
0.999986
0.999969
0.999939
0.999889
0.999806
0.999671
0.999449
0.999093
0.998527
0.99764
0.996277
0.994221
0.991189
0.986829
0.980735
0.972475
0.961637
0.94789
0.93102
0.910964
0.887802
0.86174
0.833077
0.802171
0.769416
0.735216
0.699971
0.664067
0.627862
0.591686
0.555832
0.520556
0.486075
0.452569
0.420184
0.389036
0.359211
0.330769
0.30374
0.278136
0.253957
0.231188
0.209795
0.189738
0.170971
0.153443
0.137097
0.121878
0.107727
0.0945883
0.082405
0.0711241
0.0606954
0.0510729
0.0422138
0.0340782
0.0268647
0.0200889
0.0139592
0.00847749
0.00373964
0.00261334
0.00180001
0.0012211
0.000814863
0.000534058
0.000343162
0.000215849
0.000132878
8.03929e-05
4.86245e-05
3.10527e-05
2.26684e-05
1.72237e-05
1.26784e-05
8.90562e-06
5.91931e-06
3.70253e-06
2.17763e-06
1.20931e-06
6.38669e-07
3.23186e-07
1.58149e-07
7.5502e-08
3.5275e-08
1.6166e-08
7.28098e-09
3.22816e-09
1.41114e-09
6.09081e-10
2.59931e-10
1.09809e-10
4.59576e-11
1.90519e-11
7.80289e-12
3.12941e-12
1.19688e-12
3.9978e-13
7.00822e-14
0.999997
0.999986
0.999969
0.999939
0.99989
0.999808
0.999673
0.999454
0.9991
0.998539
0.99766
0.996309
0.994271
0.991265
0.986943
0.980899
0.972703
0.961945
0.948289
0.931519
0.911568
0.888509
0.862545
0.83397
0.803137
0.770439
0.736278
0.701053
0.665148
0.628923
0.592709
0.556799
0.521452
0.486888
0.453288
0.4208
0.389543
0.359604
0.331045
0.303904
0.278195
0.253917
0.231048
0.209562
0.18942
0.170575
0.152976
0.136569
0.121298
0.107103
0.0939282
0.0817177
0.0704174
0.0599766
0.0503479
0.0414885
0.0334011
0.0262159
0.0194707
0.0134042
0.00802404
0.00344757
0.00240635
0.00165783
0.00112545
0.000751543
0.000492731
0.000316569
0.000199007
0.000122419
7.40979e-05
4.50904e-05
2.93534e-05
2.19467e-05
1.67664e-05
1.23352e-05
8.63724e-06
5.71451e-06
3.55579e-06
2.08098e-06
1.15098e-06
6.06082e-07
3.06099e-07
1.49668e-07
7.14289e-08
3.33715e-08
1.5297e-08
6.89221e-09
3.05733e-09
1.33725e-09
5.77546e-10
2.46631e-10
1.04255e-10
4.36585e-11
1.8108e-11
7.41933e-12
2.97639e-12
1.13848e-12
3.80225e-13
6.66446e-14
0.999997
0.999986
0.999969
0.99994
0.99989
0.999809
0.999675
0.999458
0.999107
0.99855
0.997678
0.996337
0.994315
0.991333
0.987043
0.981043
0.972902
0.962211
0.948631
0.931944
0.912077
0.889102
0.863214
0.834705
0.803927
0.771269
0.737131
0.701914
0.666
0.629751
0.593496
0.557533
0.522121
0.487482
0.453799
0.421223
0.389875
0.359842
0.331187
0.30395
0.278149
0.25378
0.230829
0.209266
0.189052
0.170144
0.15249
0.136035
0.120722
0.106494
0.093294
0.0810654
0.0697546
0.059311
0.049688
0.0408442
0.0327982
0.025635
0.0189181
0.0128905
0.00755946
0.00328464
0.0022904
0.00157691
0.00107023
0.000714801
0.000468976
0.000301725
0.000190118
0.000117398
7.15138e-05
4.39983e-05
2.92056e-05
2.19761e-05
1.67103e-05
1.22305e-05
8.51356e-06
5.59513e-06
3.45938e-06
2.01316e-06
1.10829e-06
5.81527e-07
2.92928e-07
1.43014e-07
6.81835e-08
3.1834e-08
1.45863e-08
6.57076e-09
2.91467e-09
1.27499e-09
5.50771e-10
2.35262e-10
9.94806e-11
4.16725e-11
1.72895e-11
7.08568e-12
2.84297e-12
1.08746e-12
3.63127e-13
6.36337e-14
0.999997
0.999987
0.999969
0.99994
0.999891
0.99981
0.999678
0.999461
0.999113
0.99856
0.997695
0.996363
0.994355
0.991393
0.987131
0.981168
0.973074
0.962438
0.948921
0.932302
0.912503
0.889593
0.863765
0.835306
0.804568
0.771936
0.737811
0.702593
0.666664
0.630387
0.594093
0.558079
0.522607
0.487899
0.454142
0.421486
0.390054
0.359939
0.331207
0.303893
0.278016
0.253576
0.230557
0.208931
0.188662
0.169703
0.152005
0.135512
0.120169
0.105916
0.0926981
0.0804574
0.0691403
0.0586957
0.0490768
0.0402411
0.0322229
0.0250811
0.0183809
0.0123663
0.00704263
0.00321284
0.00223559
0.00153609
0.00104049
0.000693593
0.000454182
0.000291658
0.000183484
0.000113241
6.91402e-05
4.29449e-05
2.91261e-05
2.21423e-05
1.68036e-05
1.22417e-05
8.47646e-06
5.5384e-06
3.40155e-06
1.96771e-06
1.07783e-06
5.63277e-07
2.8285e-07
1.3782e-07
6.56098e-08
3.05984e-08
1.40089e-08
6.30712e-09
2.79673e-09
1.22317e-09
5.2836e-10
2.25701e-10
9.54502e-11
3.99908e-11
1.65946e-11
6.8019e-12
2.72931e-12
1.04395e-12
3.48538e-13
6.10647e-14
0.999997
0.999987
0.999969
0.99994
0.999892
0.999812
0.99968
0.999465
0.999119
0.998569
0.997709
0.996386
0.99439
0.991445
0.987207
0.981275
0.97322
0.96263
0.949165
0.9326
0.912857
0.889998
0.864215
0.835794
0.805083
0.772467
0.738348
0.703123
0.667176
0.630871
0.594538
0.558478
0.522951
0.488184
0.454364
0.421642
0.39014
0.359957
0.331155
0.303774
0.277834
0.253333
0.230259
0.208583
0.188268
0.16927
0.151538
0.135017
0.119651
0.105381
0.0921504
0.0799023
0.0685824
0.0581392
0.0485252
0.0396982
0.0317003
0.0245785
0.0178919
0.0118948
0.00659071
0.0031833
0.00221306
0.00151982
0.00102931
0.000686237
0.00044956
0.000288897
0.000181936
0.000112464
6.88825e-05
4.30874e-05
2.96765e-05
2.26284e-05
1.70947e-05
1.23821e-05
8.51802e-06
5.52855e-06
3.37451e-06
1.93986e-06
1.05713e-06
5.50154e-07
2.75342e-07
1.33862e-07
6.36138e-08
2.96268e-08
1.35497e-08
6.09547e-09
2.70131e-09
1.18097e-09
5.10007e-10
2.17836e-10
9.21216e-11
3.85979e-11
1.60178e-11
6.56591e-12
2.63468e-12
1.0077e-12
3.36428e-13
5.89326e-14
0.999997
0.999987
0.999969
0.999941
0.999892
0.999813
0.999681
0.999468
0.999123
0.998577
0.997721
0.996405
0.994419
0.991489
0.987271
0.981365
0.973342
0.962791
0.949368
0.932847
0.913147
0.890328
0.86458
0.836186
0.805494
0.772888
0.738768
0.703532
0.667566
0.631232
0.594864
0.55876
0.523185
0.488365
0.454487
0.421707
0.390149
0.359908
0.33105
0.303615
0.277622
0.253074
0.229955
0.208239
0.187889
0.16886
0.151102
0.13456
0.119177
0.104896
0.0916575
0.0794061
0.0680867
0.0576479
0.0480433
0.0392301
0.0312483
0.0241375
0.0174669
0.0114862
0.00619796
0.00316128
0.00219894
0.00151075
0.00102356
0.000682713
0.000447493
0.000287785
0.000181456
0.000112413
6.9148e-05
4.3636e-05
3.05397e-05
2.33062e-05
1.75185e-05
1.26131e-05
8.62023e-06
5.55668e-06
3.36944e-06
1.926e-06
1.04411e-06
5.41131e-07
2.69924e-07
1.30922e-07
6.2101e-08
2.88791e-08
1.3192e-08
5.92908e-09
2.62571e-09
1.14732e-09
4.95296e-10
2.11504e-10
8.94322e-11
3.74691e-11
1.55493e-11
6.37398e-12
2.5577e-12
9.78257e-13
3.26603e-13
5.72053e-14
0.999997
0.999987
0.99997
0.999941
0.999893
0.999813
0.999683
0.99947
0.999127
0.998583
0.997732
0.996421
0.994444
0.991526
0.987325
0.98144
0.973444
0.962923
0.949534
0.933049
0.913383
0.890595
0.864873
0.836499
0.805819
0.773217
0.739093
0.703846
0.66786
0.631499
0.595098
0.558957
0.52334
0.488474
0.454549
0.421719
0.390112
0.359823
0.330917
0.303437
0.277402
0.252814
0.22966
0.207913
0.187535
0.168482
0.150705
0.134147
0.118753
0.104464
0.0912225
0.0789707
0.0676551
0.0572251
0.047631
0.0388252
0.0308563
0.0237607
0.0171051
0.0111401
0.00586771
0.0031429
0.00218955
0.00150661
0.00102229
0.000682883
0.000448303
0.000288799
0.000182467
0.000113355
7.00398e-05
4.45578e-05
3.16053e-05
2.40924e-05
1.80159e-05
1.2896e-05
8.75925e-06
5.61052e-06
3.38118e-06
1.92227e-06
1.03739e-06
5.35485e-07
2.66245e-07
1.28847e-07
6.10043e-08
2.83265e-08
1.29237e-08
5.80276e-09
2.56776e-09
1.12132e-09
4.83854e-10
2.06551e-10
8.7319e-11
3.65788e-11
1.51787e-11
6.22182e-12
2.49658e-12
9.54861e-13
3.18791e-13
5.58334e-14
0.999997
0.999987
0.99997
0.999941
0.999893
0.999814
0.999684
0.999472
0.999131
0.998589
0.99774
0.996435
0.994465
0.991557
0.987369
0.981502
0.973527
0.963031
0.949669
0.933212
0.913572
0.890809
0.865106
0.836745
0.806073
0.773472
0.739342
0.704082
0.668078
0.631693
0.595262
0.559087
0.523434
0.488529
0.454564
0.421695
0.390047
0.359717
0.330773
0.303256
0.277187
0.252569
0.229386
0.207614
0.187215
0.168145
0.150353
0.133785
0.118383
0.104089
0.0908467
0.0785987
0.0672898
0.0568638
0.0472725
0.038475
0.0305235
0.0234417
0.0167989
0.0108463
0.00559633
0.00312753
0.00218319
0.00150525
0.00102345
0.000685095
0.00045075
0.00029107
0.000184398
0.000114932
7.133e-05
4.5673e-05
3.26504e-05
2.48792e-05
1.85314e-05
1.32022e-05
8.92015e-06
5.68214e-06
3.40588e-06
1.92673e-06
1.03555e-06
5.32776e-07
2.64094e-07
1.27535e-07
6.02739e-08
2.79453e-08
1.27338e-08
5.71155e-09
2.52526e-09
1.10202e-09
4.75277e-10
2.02809e-10
8.57124e-11
3.58985e-11
1.48943e-11
6.10474e-12
2.44942e-12
9.36811e-13
3.12745e-13
5.47743e-14
0.999997
0.999987
0.99997
0.999941
0.999894
0.999815
0.999685
0.999474
0.999134
0.998593
0.997747
0.996446
0.994482
0.991582
0.987405
0.981551
0.973594
0.963118
0.949777
0.933342
0.913723
0.890977
0.865289
0.836938
0.806269
0.773667
0.73953
0.704258
0.668237
0.631831
0.595375
0.559172
0.523488
0.488551
0.454552
0.421649
0.389968
0.359605
0.33063
0.303084
0.276989
0.252346
0.229142
0.20735
0.186935
0.167852
0.15005
0.133474
0.118068
0.103774
0.0905327
0.0782863
0.0669774
0.056556
0.0469733
0.0381853
0.0302486
0.0231784
0.0165461
0.0106034
0.00537607
0.00311502
0.00217969
0.00150648
0.00102685
0.000689147
0.000454646
0.000294438
0.000187131
0.00011707
7.29915e-05
4.70117e-05
3.38022e-05
2.57269e-05
1.90919e-05
1.35426e-05
9.10668e-06
5.77222e-06
3.44311e-06
1.93913e-06
1.03813e-06
5.32363e-07
2.63219e-07
1.26862e-07
5.98576e-08
2.77104e-08
1.26104e-08
5.65007e-09
2.49585e-09
1.0884e-09
4.69131e-10
2.00096e-10
8.45366e-11
3.53974e-11
1.46835e-11
6.01795e-12
2.41409e-12
9.23527e-13
3.08208e-13
5.39966e-14
0.999997
0.999987
0.99997
0.999941
0.999894
0.999815
0.999686
0.999475
0.999136
0.998597
0.997753
0.996455
0.994495
0.991602
0.987433
0.981591
0.973646
0.963186
0.949862
0.933443
0.91384
0.891107
0.865429
0.837084
0.806418
0.773814
0.73967
0.704388
0.668352
0.631928
0.595451
0.559224
0.523514
0.488551
0.454526
0.421595
0.389887
0.3595
0.3305
0.302931
0.276815
0.252153
0.228932
0.207127
0.1867
0.167607
0.149799
0.13322
0.117812
0.103517
0.0902749
0.0780285
0.0667238
0.0563082
0.0467326
0.0379527
0.0300281
0.0229675
0.0163439
0.0104089
0.00519977
0.003105
0.00217862
0.00150994
0.00103215
0.000694775
0.000459795
0.000298768
0.000190575
0.000119714
7.49973e-05
4.85677e-05
3.50662e-05
2.66431e-05
1.97007e-05
1.39176e-05
9.31758e-06
5.87902e-06
3.4913e-06
1.95831e-06
1.04467e-06
5.3407e-07
2.63366e-07
1.26668e-07
5.96609e-08
2.75815e-08
1.25374e-08
5.61165e-09
2.47676e-09
1.07932e-09
4.64947e-10
1.98224e-10
8.37147e-11
3.5046e-11
1.45329e-11
5.95803e-12
2.38874e-12
9.14329e-13
3.05015e-13
5.34539e-14
0.999997
0.999987
0.99997
0.999942
0.999894
0.999816
0.999686
0.999476
0.999138
0.9986
0.997758
0.996462
0.994505
0.991617
0.987455
0.981621
0.973687
0.963237
0.949926
0.93352
0.913928
0.891205
0.865534
0.837193
0.806528
0.773921
0.739772
0.70448
0.668432
0.631993
0.5955
0.559255
0.523525
0.488542
0.454495
0.421544
0.389815
0.359408
0.33039
0.302804
0.276672
0.251996
0.228763
0.206948
0.186514
0.167415
0.149602
0.133019
0.117608
0.103311
0.0900696
0.0778267
0.0665266
0.0561164
0.0465471
0.0377741
0.0298579
0.0228049
0.0161881
0.0102595
0.00506425
0.00309731
0.00217977
0.00151539
0.00103917
0.000701799
0.000466048
0.000303943
0.000194644
0.000122804
7.73025e-05
5.0306e-05
3.64168e-05
2.76088e-05
2.03427e-05
1.43154e-05
9.54457e-06
5.99704e-06
3.54694e-06
1.98212e-06
1.05392e-06
5.37271e-07
2.64294e-07
1.26865e-07
5.96547e-08
2.75401e-08
1.25039e-08
5.59157e-09
2.46596e-09
1.07393e-09
4.6236e-10
1.97044e-10
8.31833e-11
3.48225e-11
1.44349e-11
5.9198e-12
2.37227e-12
9.08436e-13
3.02936e-13
5.31023e-14
0.999997
0.999987
0.99997
0.999942
0.999894
0.999816
0.999687
0.999477
0.999139
0.998602
0.997761
0.996467
0.994513
0.991628
0.98747
0.981642
0.973716
0.963275
0.949972
0.933575
0.913991
0.891275
0.865609
0.837271
0.806605
0.773996
0.739842
0.704543
0.668486
0.632037
0.59553
0.559272
0.523528
0.488529
0.454468
0.421502
0.389759
0.359337
0.330306
0.302708
0.276565
0.251879
0.228638
0.206816
0.186375
0.16727
0.149453
0.132867
0.117455
0.103159
0.0899199
0.0776802
0.066384
0.0559785
0.0464144
0.0376469
0.0297323
0.0226837
0.0160683
0.0101366
0.00494019
0.00309185
0.00218294
0.00152257
0.00104759
0.000709941
0.00047316
0.000309758
0.000199177
0.000126213
7.98112e-05
5.21474e-05
3.77918e-05
2.85751e-05
2.09803e-05
1.47096e-05
9.77041e-06
6.11586e-06
3.60418e-06
2.00743e-06
1.06423e-06
5.41149e-07
2.65622e-07
1.27285e-07
5.97688e-08
2.7558e-08
1.24997e-08
5.5847e-09
2.46123e-09
1.07134e-09
4.61004e-10
1.96444e-10
8.28922e-11
3.47043e-11
1.43805e-11
5.89859e-12
2.36297e-12
9.05124e-13
3.01738e-13
5.29008e-14
0.999997
0.999987
0.99997
0.999942
0.999894
0.999816
0.999687
0.999477
0.99914
0.998603
0.997763
0.99647
0.994518
0.991635
0.98748
0.981656
0.973734
0.963299
0.950002
0.93361
0.914031
0.89132
0.865656
0.83732
0.806654
0.774043
0.739886
0.704583
0.66852
0.632062
0.595548
0.55928
0.523527
0.488519
0.454447
0.421471
0.389719
0.359289
0.330249
0.302643
0.276492
0.2518
0.228553
0.206725
0.18628
0.167173
0.149354
0.132767
0.117356
0.103061
0.0898238
0.0775866
0.0662935
0.0558915
0.0463313
0.0375676
0.0296559
0.0226108
0.0159974
0.0100663
0.00487327
0.00308816
0.00218753
0.00153078
0.0010567
0.000718509
0.000480518
0.000315705
0.00020377
0.000129638
8.2299e-05
5.39286e-05
3.90612e-05
2.94409e-05
2.15404e-05
1.50509e-05
9.96429e-06
6.21766e-06
3.65345e-06
2.02943e-06
1.07334e-06
5.44673e-07
2.669e-07
1.27707e-07
5.99384e-08
2.76013e-08
1.25155e-08
5.58648e-09
2.46073e-09
1.07093e-09
4.60537e-10
1.96248e-10
8.27712e-11
3.46561e-11
1.43556e-11
5.88911e-12
2.35848e-12
9.03597e-13
3.01148e-13
5.2804e-14
0.999997
0.999987
0.99997
0.999942
0.999894
0.999816
0.999687
0.999478
0.99914
0.998604
0.997764
0.996471
0.99452
0.991638
0.987485
0.981663
0.973743
0.96331
0.950016
0.933626
0.91405
0.891341
0.865679
0.837343
0.806678
0.774066
0.739907
0.704601
0.668535
0.632074
0.595556
0.559284
0.523526
0.488513
0.454436
0.421456
0.389699
0.359264
0.330219
0.30261
0.276456
0.25176
0.228511
0.206681
0.186234
0.167127
0.149307
0.13272
0.117309
0.103015
0.0897785
0.0775428
0.0662516
0.0558518
0.0462938
0.0375324
0.029623
0.0225798
0.0159671
0.010035
0.00484
0.00308637
0.00219244
0.00153821
0.00106447
0.000725548
0.000486415
0.000320388
0.000207341
0.00013227
8.41854e-05
5.524e-05
3.99312e-05
3.00012e-05
2.1888e-05
1.52561e-05
1.0078e-05
6.27637e-06
3.68159e-06
2.04198e-06
1.07855e-06
5.46697e-07
2.67669e-07
1.27964e-07
6.00476e-08
2.76327e-08
1.25276e-08
5.58955e-09
2.46115e-09
1.07109e-09
4.60445e-10
1.96209e-10
8.27342e-11
3.46413e-11
1.43469e-11
5.88583e-12
2.35681e-12
9.03045e-13
3.00923e-13
5.27671e-14
0.999997
0.999987
0.99997
0.999942
0.999894
0.999816
0.999687
0.999478
0.99914
0.998604
0.997764
0.996471
0.99452
0.991638
0.987485
0.981663
0.973743
0.96331
0.950016
0.933626
0.91405
0.89134
0.865679
0.837343
0.806677
0.774066
0.739907
0.704601
0.668535
0.632074
0.595556
0.559284
0.523526
0.488512
0.454436
0.421455
0.389698
0.359264
0.330219
0.30261
0.276456
0.25176
0.228511
0.206681
0.186234
0.167127
0.149307
0.13272
0.117309
0.103015
0.0897785
0.0775428
0.0662516
0.0558518
0.0462938
0.0375324
0.029623
0.0225798
0.0159671
0.010035
0.00483999
0.00308637
0.00219244
0.00153821
0.00106447
0.000725548
0.000486415
0.000320389
0.000207341
0.000132271
8.41856e-05
5.52401e-05
3.99312e-05
3.00012e-05
2.1888e-05
1.52561e-05
1.00781e-05
6.27639e-06
3.6816e-06
2.04199e-06
1.07856e-06
5.46698e-07
2.67672e-07
1.27966e-07
6.00464e-08
2.76329e-08
1.25264e-08
5.59016e-09
2.4609e-09
1.07107e-09
4.60444e-10
1.96206e-10
8.27339e-11
3.46407e-11
1.43468e-11
5.8857e-12
2.35679e-12
9.03002e-13
3.00921e-13
5.27642e-14
0.999997
0.999987
0.99997
0.999942
0.999894
0.999816
0.999687
0.999477
0.99914
0.998603
0.997763
0.99647
0.994518
0.991635
0.98748
0.981656
0.973734
0.963299
0.950002
0.933609
0.914031
0.891319
0.865656
0.837319
0.806654
0.774043
0.739886
0.704582
0.668519
0.632062
0.595547
0.55928
0.523527
0.488518
0.454447
0.421471
0.389718
0.359288
0.330248
0.302642
0.276492
0.2518
0.228553
0.206725
0.18628
0.167173
0.149354
0.132767
0.117356
0.103061
0.0898237
0.0775865
0.0662934
0.0558915
0.0463312
0.0375675
0.0296558
0.0226107
0.0159974
0.0100663
0.00487324
0.00308816
0.00218753
0.00153077
0.0010567
0.000718509
0.000480518
0.000315705
0.00020377
0.000129638
8.22992e-05
5.39287e-05
3.90612e-05
2.94409e-05
2.15404e-05
1.5051e-05
9.96434e-06
6.2177e-06
3.65348e-06
2.02945e-06
1.07335e-06
5.44678e-07
2.66908e-07
1.27711e-07
5.99358e-08
2.76021e-08
1.25128e-08
5.58756e-09
2.46043e-09
1.07093e-09
4.60543e-10
1.96243e-10
8.27712e-11
3.46547e-11
1.43554e-11
5.88878e-12
2.35843e-12
9.03478e-13
3.01143e-13
5.27962e-14
0.999997
0.999987
0.99997
0.999942
0.999894
0.999816
0.999687
0.999477
0.999139
0.998602
0.997761
0.996467
0.994513
0.991628
0.98747
0.981642
0.973715
0.963274
0.949972
0.933574
0.91399
0.891274
0.865608
0.83727
0.806604
0.773995
0.739841
0.704543
0.668486
0.632036
0.595529
0.559271
0.523527
0.488529
0.454467
0.421501
0.389758
0.359337
0.330305
0.302707
0.276564
0.251879
0.228638
0.206815
0.186374
0.16727
0.149452
0.132866
0.117455
0.103159
0.0899198
0.07768
0.0663839
0.0559784
0.0464143
0.0376468
0.0297322
0.0226837
0.0160682
0.0101366
0.00494014
0.00309184
0.00218293
0.00152257
0.00104759
0.000709941
0.000473161
0.000309759
0.000199178
0.000126214
7.98116e-05
5.21477e-05
3.7792e-05
2.85752e-05
2.09804e-05
1.47097e-05
9.77048e-06
6.11591e-06
3.60422e-06
2.00746e-06
1.06425e-06
5.41159e-07
2.65631e-07
1.27288e-07
5.97692e-08
2.75587e-08
1.24996e-08
5.58488e-09
2.46123e-09
1.07136e-09
4.61016e-10
1.96443e-10
8.28936e-11
3.47033e-11
1.43805e-11
5.89822e-12
2.36293e-12
9.04967e-13
3.01733e-13
5.28907e-14
0.999997
0.999987
0.99997
0.999942
0.999894
0.999816
0.999686
0.999476
0.999138
0.9986
0.997757
0.996462
0.994505
0.991616
0.987454
0.98162
0.973686
0.963237
0.949925
0.933519
0.913927
0.891204
0.865533
0.837192
0.806527
0.77392
0.739771
0.704479
0.668431
0.631992
0.595498
0.559253
0.523524
0.48854
0.454494
0.421543
0.389814
0.359407
0.330389
0.302803
0.276671
0.251995
0.228763
0.206948
0.186513
0.167415
0.149602
0.133019
0.117608
0.10331
0.0900694
0.0778265
0.0665264
0.0561163
0.046547
0.0377739
0.0298577
0.0228047
0.0161879
0.0102594
0.00506415
0.0030973
0.00217977
0.00151539
0.00103917
0.0007018
0.000466049
0.000303944
0.000194645
0.000122805
7.73031e-05
5.03064e-05
3.64169e-05
2.76089e-05
2.03428e-05
1.43155e-05
9.54467e-06
5.99712e-06
3.547e-06
1.98216e-06
1.05394e-06
5.37285e-07
2.64302e-07
1.26869e-07
5.96566e-08
2.75411e-08
1.25043e-08
5.59182e-09
2.46599e-09
1.07397e-09
4.62377e-10
1.9705e-10
8.31865e-11
3.48228e-11
1.44353e-11
5.91948e-12
2.37235e-12
9.08266e-13
3.0294e-13
5.30901e-14
0.999997
0.999987
0.99997
0.999941
0.999894
0.999815
0.999686
0.999475
0.999136
0.998597
0.997753
0.996455
0.994495
0.991601
0.987433
0.98159
0.973646
0.963185
0.949861
0.933442
0.913838
0.891106
0.865428
0.837083
0.806416
0.773812
0.739669
0.704386
0.66835
0.631926
0.595449
0.559222
0.523513
0.48855
0.454524
0.421594
0.389886
0.359498
0.330499
0.30293
0.276814
0.252152
0.228932
0.207126
0.186699
0.167607
0.149798
0.133219
0.117812
0.103517
0.0902746
0.0780282
0.0667236
0.0563079
0.0467324
0.0379525
0.0300279
0.0229673
0.0163437
0.0104087
0.00519961
0.00310499
0.00217861
0.00150994
0.00103216
0.000694776
0.000459797
0.00029877
0.000190576
0.000119716
7.49982e-05
4.85683e-05
3.50665e-05
2.66433e-05
1.97009e-05
1.39177e-05
9.3177e-06
5.87911e-06
3.49137e-06
1.95836e-06
1.0447e-06
5.34087e-07
2.63376e-07
1.26673e-07
5.96633e-08
2.75828e-08
1.25379e-08
5.61194e-09
2.47688e-09
1.07937e-09
4.64971e-10
1.98234e-10
8.37193e-11
3.50474e-11
1.45342e-11
5.95761e-12
2.38899e-12
9.14156e-13
3.05031e-13
5.34405e-14
0.999997
0.999987
0.99997
0.999941
0.999894
0.999815
0.999685
0.999474
0.999134
0.998593
0.997747
0.996446
0.994482
0.991582
0.987404
0.981551
0.973593
0.963117
0.949776
0.93334
0.913721
0.890976
0.865287
0.836936
0.806267
0.773665
0.739528
0.704256
0.668235
0.631829
0.595373
0.55917
0.523486
0.488549
0.454551
0.421647
0.389966
0.359604
0.330629
0.303083
0.276988
0.252345
0.229141
0.20735
0.186935
0.167851
0.150049
0.133473
0.118067
0.103773
0.0905324
0.0782859
0.0669771
0.0565557
0.046973
0.038185
0.0302483
0.0231781
0.0165458
0.0106031
0.00537582
0.00311501
0.00217968
0.00150648
0.00102685
0.000689148
0.000454647
0.000294439
0.000187131
0.00011707
7.29912e-05
4.70111e-05
3.38016e-05
2.57266e-05
1.90918e-05
1.35427e-05
9.10678e-06
5.77231e-06
3.44318e-06
1.93918e-06
1.03816e-06
5.32384e-07
2.6323e-07
1.26868e-07
5.98605e-08
2.77118e-08
1.26111e-08
5.6504e-09
2.49601e-09
1.08847e-09
4.69161e-10
2.00109e-10
8.45423e-11
3.53998e-11
1.46845e-11
6.0182e-12
2.41436e-12
9.2345e-13
3.08245e-13
5.39884e-14
0.999997
0.999987
0.99997
0.999941
0.999893
0.999814
0.999684
0.999472
0.999131
0.998589
0.99774
0.996435
0.994465
0.991557
0.987368
0.981501
0.973526
0.96303
0.949668
0.933211
0.913571
0.890807
0.865104
0.836743
0.806071
0.773469
0.73934
0.70408
0.668076
0.631691
0.59526
0.559085
0.523432
0.488527
0.454562
0.421693
0.390045
0.359715
0.330771
0.303254
0.277186
0.252567
0.229385
0.207613
0.187214
0.168144
0.150352
0.133784
0.118382
0.104089
0.0908462
0.0785983
0.0672894
0.0568634
0.0472722
0.0384747
0.0305232
0.0234414
0.0167985
0.0108459
0.00559597
0.00312752
0.0021832
0.00150525
0.00102345
0.000685101
0.000450756
0.000291076
0.000184405
0.000114939
7.13367e-05
4.56785e-05
3.26537e-05
2.48808e-05
1.85322e-05
1.32026e-05
8.92035e-06
5.68227e-06
3.40597e-06
1.92679e-06
1.03558e-06
5.32798e-07
2.64106e-07
1.27542e-07
6.02772e-08
2.7947e-08
1.27346e-08
5.71194e-09
2.52544e-09
1.1021e-09
4.75313e-10
2.02825e-10
8.57191e-11
3.59013e-11
1.48955e-11
6.1052e-12
2.44962e-12
9.36852e-13
3.12789e-13
5.47759e-14
0.999997
0.999987
0.99997
0.999941
0.999893
0.999813
0.999683
0.99947
0.999127
0.998583
0.997732
0.996421
0.994444
0.991526
0.987324
0.981439
0.973443
0.962922
0.949533
0.933047
0.913381
0.890593
0.864871
0.836496
0.805816
0.773214
0.73909
0.703843
0.667857
0.631497
0.595095
0.558954
0.523337
0.488471
0.454546
0.421717
0.39011
0.359821
0.330915
0.303435
0.277401
0.252813
0.229659
0.207911
0.187534
0.168482
0.150704
0.134147
0.118753
0.104464
0.0912219
0.0789702
0.0676546
0.0572247
0.0476305
0.0388248
0.0308559
0.0237603
0.0171046
0.0111396
0.0058672
0.00314286
0.00218951
0.00150656
0.00102225
0.000682849
0.000448273
0.000288771
0.000182439
0.000113328
7.00158e-05
4.45394e-05
3.15946e-05
2.40877e-05
1.80142e-05
1.28956e-05
8.75922e-06
5.6106e-06
3.38127e-06
1.92233e-06
1.03743e-06
5.35509e-07
2.66259e-07
1.28855e-07
6.10082e-08
2.83285e-08
1.29247e-08
5.80321e-09
2.56797e-09
1.12141e-09
4.83895e-10
2.06569e-10
8.73267e-11
3.65821e-11
1.51801e-11
6.22238e-12
2.49681e-12
9.54942e-13
3.18825e-13
5.58376e-14
0.999997
0.999987
0.999969
0.999941
0.999892
0.999813
0.999681
0.999467
0.999123
0.998577
0.997721
0.996405
0.994419
0.991489
0.987271
0.981364
0.973341
0.962789
0.949366
0.932845
0.913145
0.890326
0.864578
0.836184
0.805491
0.772885
0.738765
0.703529
0.667563
0.63123
0.594861
0.558758
0.523183
0.488363
0.454486
0.421705
0.390147
0.359907
0.331048
0.303613
0.277621
0.253072
0.229954
0.208238
0.187888
0.168859
0.151101
0.134559
0.119176
0.104895
0.0916568
0.0794055
0.0680861
0.0576473
0.0480428
0.0392296
0.0312478
0.024137
0.0174664
0.0114857
0.0061974
0.0031613
0.00219903
0.00151091
0.00102374
0.000682891
0.000447657
0.000287933
0.000181587
0.000112521
6.92324e-05
4.36919e-05
3.05684e-05
2.3318e-05
1.75228e-05
1.26145e-05
8.62074e-06
5.5569e-06
3.36957e-06
1.92608e-06
1.04416e-06
5.4116e-07
2.6994e-07
1.30931e-07
6.21052e-08
2.88812e-08
1.3193e-08
5.92955e-09
2.62593e-09
1.14742e-09
4.95341e-10
2.11523e-10