/*--------------------------------*- C++ -*----------------------------------*\
  =========                 |
  \\      /  F ield         | OpenFOAM: The Open Source CFD Toolbox
   \\    /   O peration     | Website:  https://openfoam.org
    \\  /    A nd           | Version:  8
     \\/     M anipulation  |
\*---------------------------------------------------------------------------*/
FoamFile
{
    version     2.0;
    format      ascii;
    class       volScalarField;
    location    "760/fluid";
    object      CO2;
}
// * * * * * * * * * * * * * * * * * * * * * * * * * * * * * * * * * * * * * //

dimensions      [0 0 0 0 0 0 0];

internalField   nonuniform List<scalar> 
4000
(
4.7429e-07
2.07246e-06
4.75957e-06
9.26331e-06
1.67795e-05
2.92538e-05
4.98143e-05
8.3419e-05
0.000137792
0.000224723
0.000361758
0.000574219
0.000897261
0.0013774
0.00207251
0.00304933
0.0043776
0.00612144
0.00832978
0.011029
0.0142201
0.01788
0.0219673
0.0264272
0.0311979
0.036215
0.0414144
0.0467348
0.0521188
0.0575146
0.0628756
0.0681617
0.0733385
0.0783777
0.0832566
0.0879574
0.0924663
0.0967736
0.100874
0.104763
0.108443
0.111914
0.11518
0.118245
0.121115
0.123797
0.126295
0.128615
0.130763
0.132742
0.134554
0.1362
0.137676
0.138976
0.14009
0.140999
0.141679
0.142088
0.142187
0.141908
0.141156
0.139804
0.137041
0.126497
0.115781
0.105072
0.0945071
0.0841965
0.0742269
0.0646692
0.0555831
0.0470214
0.0390338
0.0317065
0.0250118
0.0190558
0.0139026
0.00961542
0.00624083
0.00377295
0.00212104
0.00111444
0.000552464
0.000262643
0.000121313
5.47674e-05
2.42703e-05
1.05917e-05
4.56322e-06
1.94478e-06
8.21277e-07
3.44134e-07
1.43235e-07
5.92511e-08
2.43474e-08
9.90919e-09
3.95782e-09
1.51037e-09
5.04321e-10
8.84075e-11
4.74973e-07
2.07596e-06
4.76985e-06
9.28936e-06
1.6839e-05
2.93777e-05
5.00506e-05
8.38304e-05
0.000138436
0.000225594
0.000362661
0.000574549
0.000895711
0.00137148
0.00205813
0.00302059
0.00432703
0.00604083
0.00821153
0.0108675
0.0140128
0.0176278
0.021674
0.0260993
0.0308435
0.0358428
0.0410332
0.0463527
0.0517432
0.0571515
0.0625301
0.0678375
0.0730384
0.0781035
0.0830092
0.0877371
0.0922726
0.0966058
0.10073
0.104644
0.108345
0.111835
0.115119
0.118201
0.121086
0.12378
0.126289
0.128619
0.130775
0.132761
0.134578
0.136228
0.137708
0.13901
0.140125
0.141035
0.141715
0.142123
0.142219
0.141937
0.141179
0.139816
0.13619
0.125579
0.114809
0.104056
0.093455
0.0831151
0.0731231
0.0635506
0.0544586
0.045902
0.037933
0.0306426
0.0240071
0.0181387
0.0131033
0.00896246
0.00575203
0.00344503
0.00192676
0.00101295
0.000505318
0.000242313
0.000113056
5.15702e-05
2.30766e-05
1.01569e-05
4.40686e-06
1.88849e-06
8.00707e-07
3.36418e-07
1.40244e-07
5.80543e-08
2.38573e-08
9.7067e-09
3.87511e-09
1.47811e-09
4.93365e-10
8.6494e-11
4.76329e-07
2.08214e-06
4.78524e-06
9.32214e-06
1.69031e-05
2.94948e-05
5.02507e-05
8.41479e-05
0.000138896
0.000226178
0.000363232
0.000574695
0.000894415
0.00136688
0.00204726
0.00299909
0.00428917
0.00597981
0.00812019
0.0107394
0.0138429
0.0174137
0.0214158
0.0257999
0.0305079
0.0354778
0.0406466
0.0459527
0.051338
0.0567488
0.0621369
0.0674597
0.0726809
0.0777701
0.082703
0.0874598
0.0920254
0.096389
0.100544
0.104486
0.108215
0.111732
0.11504
0.118144
0.121049
0.123762
0.126288
0.128632
0.1308
0.132795
0.134621
0.136278
0.137762
0.139068
0.140185
0.141095
0.141773
0.142176
0.142267
0.141974
0.141201
0.139815
0.134691
0.124032
0.113219
0.10243
0.0918044
0.0814534
0.0714652
0.0619135
0.0528614
0.044366
0.0364822
0.0292895
0.0227951
0.0170952
0.0122503
0.00831162
0.00529669
0.00315698
0.00176255
0.00092786
0.000464628
0.000223804
0.000104946
4.81198e-05
2.16431e-05
9.57218e-06
4.17144e-06
1.79448e-06
7.6329e-07
3.21513e-07
1.34283e-07
5.56574e-08
2.28893e-08
9.31588e-09
3.71924e-09
1.41848e-09
4.73347e-10
8.29698e-11
4.76147e-07
2.08134e-06
4.7833e-06
9.3177e-06
1.68922e-05
2.94662e-05
5.01757e-05
8.39598e-05
0.000138452
0.000225193
0.000361182
0.00057069
0.000887084
0.00135416
0.0020262
0.00296581
0.00423896
0.00590751
0.00802077
0.0106086
0.0136778
0.0172129
0.0211798
0.0255307
0.0302091
0.0351541
0.0403035
0.0455965
0.0509751
0.0563856
0.0617794
0.0671134
0.0723507
0.0774601
0.0824163
0.087199
0.0917921
0.0961841
0.100368
0.104338
0.108095
0.111638
0.114971
0.118099
0.121026
0.123757
0.126299
0.128658
0.130839
0.132845
0.134679
0.136341
0.137829
0.139137
0.140253
0.141161
0.141833
0.142227
0.142304
0.141994
0.141197
0.139777
0.132828
0.122154
0.111323
0.100521
0.0898949
0.0795584
0.0696032
0.0601048
0.051128
0.0427315
0.0349715
0.0279002
0.0215759
0.0160624
0.0114151
0.00767636
0.00484942
0.00286904
0.00159365
0.000836992
0.00041922
0.000202334
9.51598e-05
4.37856e-05
1.97679e-05
8.77655e-06
3.8393e-06
1.65762e-06
7.07466e-07
2.98906e-07
1.25173e-07
5.19986e-08
2.14243e-08
8.73258e-09
3.4903e-09
1.33221e-09
4.44727e-10
7.79669e-11
4.74586e-07
2.07442e-06
4.76697e-06
9.28461e-06
1.68288e-05
2.93474e-05
4.99552e-05
8.35529e-05
0.000137707
0.000223843
0.000358774
0.000566479
0.0008799
0.00134225
0.00200709
0.00293625
0.00419503
0.00584492
0.00793535
0.0104968
0.0135371
0.0170423
0.0209797
0.0253027
0.0299563
0.0348804
0.0400136
0.0452955
0.0506683
0.0560783
0.0614766
0.06682
0.0720709
0.0771975
0.0821738
0.086979
0.0915963
0.0960136
0.100223
0.104219
0.108
0.111568
0.114924
0.118073
0.121019
0.123768
0.126326
0.128698
0.13089
0.132904
0.134745
0.136411
0.137901
0.139207
0.140318
0.141217
0.141878
0.142254
0.142311
0.141974
0.141138
0.139676
0.130869
0.12021
0.109376
0.0985732
0.0879572
0.077648
0.06774
0.0583095
0.0494217
0.0411345
0.0335175
0.0265927
0.0204375
0.0151083
0.0106534
0.00710536
0.00445362
0.00261796
0.00144804
0.000759107
0.00038028
0.000183815
8.66372e-05
3.99622e-05
1.80874e-05
8.05017e-06
3.52966e-06
1.52715e-06
6.53011e-07
2.76357e-07
1.15896e-07
4.82028e-08
1.98801e-08
8.10955e-09
3.2432e-09
1.23835e-09
4.13436e-10
7.24808e-11
4.71932e-07
2.06269e-06
4.73946e-06
9.22943e-06
1.67249e-05
2.91579e-05
4.96158e-05
8.29527e-05
0.000136658
0.000222035
0.000355708
0.00056138
0.000871609
0.00132912
0.00198693
0.0029063
0.00415213
0.00578577
0.00785686
0.0103965
0.0134134
0.0168947
0.0208088
0.0251101
0.0297445
0.0346526
0.0397736
0.0450474
0.0504165
0.055827
0.0612301
0.066582
0.0718449
0.0769866
0.0819806
0.0868053
0.0914437
0.0958829
0.100114
0.104133
0.107937
0.111526
0.114902
0.118069
0.121031
0.123795
0.126366
0.128749
0.130949
0.13297
0.134814
0.13648
0.137967
0.139267
0.140368
0.141251
0.141892
0.142242
0.14227
0.141896
0.141022
0.139535
0.129252
0.118509
0.107609
0.0967689
0.0861452
0.0758565
0.0659946
0.0566337
0.0478359
0.0396565
0.0321718
0.025387
0.0193981
0.0142472
0.00997128
0.00659696
0.00410223
0.00239475
0.00131769
0.000688514
0.000344382
0.00016647
7.85276e-05
3.62708e-05
1.64443e-05
7.33262e-06
3.22133e-06
1.39646e-06
5.98244e-07
2.53621e-07
1.06529e-07
4.43687e-08
1.83205e-08
7.48058e-09
2.99382e-09
1.14366e-09
3.81871e-10
6.6947e-11
4.68795e-07
2.0489e-06
4.70741e-06
9.16592e-06
1.66073e-05
2.89473e-05
4.92464e-05
8.23144e-05
0.00013557
0.000220205
0.000352678
0.00055645
0.000863757
0.00131692
0.00196847
0.00287927
0.00411389
0.00573362
0.00778834
0.0103097
0.0133074
0.0167692
0.0206646
0.0249489
0.0295684
0.0344646
0.0395768
0.0448453
0.0502126
0.0556249
0.0610332
0.0663935
0.0716676
0.0768228
0.0818324
0.0866743
0.091331
0.0957892
0.10004
0.104078
0.1079
0.111507
0.1149
0.118082
0.121058
0.123835
0.126416
0.128807
0.131013
0.133037
0.134881
0.136545
0.138024
0.139312
0.140395
0.141254
0.14186
0.142165
0.142134
0.141685
0.140722
0.139149
0.128275
0.117196
0.106109
0.0951735
0.0845153
0.0742353
0.064415
0.0551222
0.0464154
0.0383489
0.0310148
0.0243701
0.018511
0.0134972
0.00937511
0.00615465
0.00379879
0.00220344
0.0012066
0.000628515
0.000313855
0.00015167
7.15695e-05
3.30807e-05
1.50123e-05
6.70148e-06
2.94753e-06
1.2793e-06
5.48708e-07
2.32886e-07
9.79244e-08
4.08242e-08
1.68711e-08
6.89346e-09
2.76023e-09
1.05471e-09
3.52173e-10
6.17352e-11
4.65503e-07
2.03446e-06
4.67396e-06
9.09996e-06
1.64857e-05
2.87312e-05
4.88704e-05
8.16708e-05
0.000134484
0.0002184
0.000349725
0.000551711
0.000856312
0.00130551
0.00195148
0.00285474
0.00407967
0.00568755
0.00772857
0.0102349
0.0132169
0.0166632
0.0205438
0.0248149
0.0294233
0.0343108
0.0394171
0.0446825
0.0500497
0.0554649
0.0608787
0.0662472
0.0715316
0.0766992
0.0817226
0.0865796
0.0912522
0.0957269
0.0999942
0.104048
0.107886
0.111507
0.114914
0.118109
0.121097
0.123882
0.126471
0.128868
0.131078
0.133103
0.134945
0.136604
0.138074
0.139347
0.140408
0.141235
0.141792
0.142031
0.141899
0.141296
0.140092
0.13814
0.127069
0.115847
0.10467
0.09369
0.083024
0.0727665
0.0629939
0.0537697
0.045149
0.037182
0.0299399
0.0234198
0.0176992
0.0128289
0.00885207
0.00577183
0.0035384
0.00203988
0.00111162
0.000577055
0.000287528
0.000138831
6.54963e-05
3.02796e-05
1.37481e-05
6.1415e-06
2.70354e-06
1.17451e-06
5.0425e-07
2.14226e-07
9.01618e-08
3.76203e-08
1.55588e-08
6.36114e-09
2.54818e-09
9.73904e-10
3.25176e-10
5.69956e-11
4.62302e-07
2.02044e-06
4.64155e-06
9.0363e-06
1.6369e-05
2.85248e-05
4.85137e-05
8.10645e-05
0.000133469
0.000216727
0.000347013
0.000547398
0.000849599
0.00129532
0.00193643
0.00283319
0.00404985
0.00564774
0.00767731
0.0101712
0.0131404
0.0165743
0.0204434
0.0247044
0.0293045
0.0341859
0.0392884
0.0445526
0.0499209
0.0553396
0.0607593
0.0661355
0.0714296
0.0766082
0.0816439
0.086514
0.0912003
0.0956889
0.0999704
0.104038
0.107889
0.111522
0.11494
0.118145
0.121141
0.123934
0.126529
0.12893
0.131141
0.133167
0.135006
0.13666
0.138121
0.139382
0.140426
0.14123
0.141755
0.141953
0.141766
0.141089
0.139781
0.137013
0.125826
0.114531
0.103318
0.0923298
0.0816826
0.0714667
0.0617556
0.0526107
0.0440843
0.0362236
0.0290975
0.0226999
0.0171007
0.0123382
0.00844116
0.00545358
0.00331887
0.00190173
0.00103141
0.00053358
0.000265254
0.000127942
6.03297e-05
2.78882e-05
1.26645e-05
5.6596e-06
2.49272e-06
1.0836e-06
4.65545e-07
1.97924e-07
8.33601e-08
3.48055e-08
1.44032e-08
5.89151e-09
2.36083e-09
9.02424e-10
3.01282e-10
5.27968e-11
4.59318e-07
2.00738e-06
4.61143e-06
8.97726e-06
1.62611e-05
2.83345e-05
4.8186e-05
8.051e-05
0.000132545
0.000215213
0.000344573
0.000543542
0.000843639
0.00128633
0.00192326
0.00281448
0.00402414
0.00561366
0.00763376
0.0101175
0.0130764
0.0165004
0.0203605
0.0246139
0.029208
0.0340853
0.0391857
0.0444498
0.0498201
0.0552427
0.0606681
0.0660517
0.0713546
0.0765432
0.0815897
0.0864713
0.0911695
0.0956701
0.0999629
0.104041
0.107903
0.111546
0.114973
0.118186
0.121189
0.123987
0.126586
0.128989
0.131202
0.133226
0.135064
0.136713
0.138168
0.13942
0.140454
0.141245
0.141756
0.141942
0.141747
0.141072
0.139792
0.135814
0.124589
0.113272
0.102052
0.0910742
0.080452
0.0702747
0.0606145
0.0515322
0.0430802
0.0353076
0.0282479
0.0219433
0.016451
0.0118157
0.0080695
0.0051831
0.00312973
0.00178356
0.00096311
0.000496646
0.000246336
0.000118689
5.5933e-05
2.58494e-05
1.17388e-05
5.24702e-06
2.31183e-06
1.00544e-06
4.32195e-07
1.83852e-07
7.74785e-08
3.23679e-08
1.34011e-08
5.48383e-09
2.19805e-09
8.40275e-10
2.80505e-10
4.91449e-11
4.56625e-07
1.9956e-06
4.5843e-06
8.92416e-06
1.61642e-05
2.81642e-05
4.78936e-05
8.0017e-05
0.000131727
0.000213878
0.000342432
0.000540176
0.000838461
0.00127857
0.00191193
0.00279848
0.00400228
0.00558486
0.00759717
0.0100727
0.0130233
0.0164395
0.0202927
0.0245403
0.0291302
0.0340048
0.0391042
0.0443691
0.0497419
0.0551686
0.0605995
0.0659899
0.0713006
0.0764979
0.0815538
0.0864452
0.0911535
0.0956638
0.0999662
0.104054
0.107924
0.111575
0.115009
0.118228
0.121236
0.124038
0.12664
0.129045
0.131257
0.13328
0.135115
0.13676
0.138209
0.139455
0.140481
0.141264
0.141765
0.141944
0.141743
0.141068
0.139794
0.134657
0.123428
0.112121
0.100921
0.0899732
0.0793936
0.0692689
0.0596698
0.0506561
0.042266
0.0345466
0.0275395
0.021311
0.0159073
0.0113671
0.00771654
0.00494698
0.00297238
0.00168304
0.000905285
0.000465468
0.000230392
0.000110893
5.22271e-05
2.41292e-05
1.09568e-05
4.89792e-06
2.15851e-06
9.39069e-07
4.03831e-07
1.71863e-07
7.24604e-08
3.02854e-08
1.25441e-08
5.13485e-09
2.05861e-09
7.87019e-10
2.62725e-10
4.60262e-11
4.54252e-07
1.98523e-06
4.56041e-06
8.87749e-06
1.60792e-05
2.80151e-05
4.76382e-05
7.95875e-05
0.000131017
0.000212722
0.000340585
0.000537282
0.000834029
0.00127195
0.00190232
0.00278496
0.00398391
0.00556077
0.00756673
0.0100356
0.0129796
0.0163897
0.0202376
0.0244809
0.0290679
0.0339408
0.0390402
0.0443063
0.0496818
0.0551125
0.0605485
0.065945
0.0712627
0.0764677
0.0815316
0.0864314
0.0911478
0.0956662
0.0999765
0.104072
0.107949
0.111606
0.115045
0.118268
0.12128
0.124085
0.126688
0.129093
0.131305
0.133326
0.135157
0.136798
0.138242
0.139481
0.140499
0.141274
0.141768
0.14194
0.141733
0.141054
0.139782
0.13363
0.122397
0.111098
0.0999206
0.08901
0.0784718
0.0683854
0.0588217
0.0498371
0.0414936
0.033837
0.0269098
0.0207617
0.0154407
0.0109852
0.00741844
0.00472712
0.00283701
0.00159969
0.000856496
0.000439242
0.000217018
0.000104361
4.91235e-05
2.26884e-05
1.03013e-05
4.60508e-06
2.02977e-06
8.83272e-07
3.79954e-07
1.61759e-07
6.82257e-08
2.85259e-08
1.18194e-08
4.83954e-09
1.94061e-09
7.41991e-10
2.47705e-10
4.33928e-11
4.52203e-07
1.97627e-06
4.53982e-06
8.83729e-06
1.6006e-05
2.7887e-05
4.74193e-05
7.92201e-05
0.000130411
0.000211738
0.000339018
0.000534835
0.000830293
0.00126639
0.00189428
0.0027737
0.00396866
0.00554086
0.00754167
0.0100052
0.012944
0.0163493
0.0201932
0.0244335
0.0290184
0.0338905
0.0389902
0.0442579
0.0496361
0.0550704
0.060511
0.065913
0.0712366
0.076448
0.0815188
0.0864254
0.0911486
0.0956737
0.0999903
0.104092
0.107974
0.111636
0.115079
0.118305
0.121319
0.124126
0.126729
0.129133
0.131343
0.133362
0.135189
0.136825
0.138264
0.139496
0.140507
0.141274
0.14176
0.141925
0.141713
0.141031
0.139761
0.132748
0.121506
0.110213
0.0990531
0.0881571
0.0776332
0.0675758
0.0580529
0.0491223
0.0408354
0.033239
0.0263759
0.0202962
0.0150466
0.0106643
0.00717026
0.00454671
0.00271416
0.00153054
0.00081702
0.000417556
0.000205925
9.89549e-05
4.65563e-05
2.14964e-05
9.75868e-06
4.36238e-06
1.92293e-06
8.36906e-07
3.60085e-07
1.53339e-07
6.46924e-08
2.70562e-08
1.12133e-08
4.5924e-09
1.8418e-09
7.04275e-10
2.35124e-10
4.11874e-11
4.5047e-07
1.9687e-06
4.52241e-06
8.80333e-06
1.59443e-05
2.77791e-05
4.7235e-05
7.89116e-05
0.000129902
0.000210915
0.00033771
0.000532798
0.000827192
0.00126178
0.00188765
0.00276443
0.00395616
0.0055246
0.00752129
0.00998055
0.0129153
0.0163169
0.0201578
0.0243958
0.0289794
0.0338512
0.0389516
0.0442209
0.0496015
0.0550392
0.0604838
0.0658904
0.0712191
0.076436
0.0815123
0.0864244
0.0911531
0.0956835
0.100005
0.104111
0.107997
0.111662
0.115108
0.118337
0.121352
0.124159
0.126761
0.129164
0.131372
0.133387
0.135211
0.136841
0.138274
0.139499
0.140503
0.141263
0.141741
0.141899
0.141682
0.140999
0.139736
0.132003
0.120746
0.109453
0.0982953
0.0874156
0.0769209
0.0668967
0.0574119
0.0485244
0.0402846
0.0327388
0.0259294
0.0199071
0.0147178
0.0103976
0.00696522
0.00439914
0.00261534
0.0014686
0.000784642
0.000400542
0.000197058
9.4576e-05
4.44689e-05
2.05246e-05
9.31517e-06
4.16357e-06
1.83524e-06
7.98787e-07
3.43725e-07
1.46397e-07
6.17756e-08
2.58417e-08
1.0712e-08
4.38785e-09
1.75997e-09
6.7304e-10
2.247e-10
3.93612e-11
4.49034e-07
1.96243e-06
4.508e-06
8.77523e-06
1.58933e-05
2.769e-05
4.70832e-05
7.86576e-05
0.000129485
0.000210241
0.00033664
0.000531134
0.000824664
0.00125804
0.00188227
0.00275694
0.00394608
0.00551153
0.00750496
0.0099609
0.0128925
0.0162913
0.0201299
0.0243664
0.0289491
0.0338209
0.038922
0.0441928
0.0495756
0.0550161
0.0604642
0.0658745
0.0712075
0.0764287
0.0815094
0.0864259
0.0911589
0.0956934
0.100019
0.104128
0.108017
0.111684
0.115132
0.118362
0.121377
0.124183
0.126785
0.129186
0.131391
0.133403
0.135222
0.136847
0.138273
0.139492
0.140489
0.141242
0.141712
0.141864
0.141643
0.140959
0.139705
0.131383
0.120107
0.10881
0.0976623
0.0868004
0.0763295
0.0663338
0.0568816
0.0480301
0.0398295
0.0323258
0.025561
0.0195863
0.0144471
0.0101785
0.00679746
0.00427914
0.00253572
0.00141946
0.000755998
0.000386272
0.000190165
9.11431e-05
4.27943e-05
1.97377e-05
8.95502e-06
4.00194e-06
1.76387e-06
7.67732e-07
3.30386e-07
1.40732e-07
5.93941e-08
2.48496e-08
1.03024e-08
4.22077e-09
1.69308e-09
6.47599e-10
2.16189e-10
3.78755e-11
4.47876e-07
1.95737e-06
4.49638e-06
8.75259e-06
1.58523e-05
2.76183e-05
4.69611e-05
7.84537e-05
0.00012915
0.0002097
0.000335784
0.000529806
0.000822652
0.00125507
0.001878
0.00275101
0.00393813
0.00550124
0.00749215
0.00994553
0.0128747
0.0162714
0.0201083
0.0243437
0.0289259
0.0337978
0.0388996
0.0441717
0.0495564
0.0549993
0.0604501
0.0658635
0.0711996
0.0764242
0.0815082
0.0864281
0.0911642
0.0957017
0.10003
0.104141
0.108032
0.111701
0.115149
0.118379
0.121395
0.1242
0.1268
0.129198
0.1314
0.133408
0.135223
0.136842
0.138263
0.139476
0.140466
0.141212
0.141676
0.141823
0.1416
0.140917
0.139674
0.13088
0.119588
0.108286
0.0971459
0.0862984
0.0758474
0.0658757
0.0564507
0.0476291
0.0394607
0.0319914
0.025263
0.0193271
0.0142286
0.010002
0.00666269
0.00418306
0.00247228
0.00138057
0.000733544
0.000373737
0.000183786
8.82274e-05
4.14449e-05
1.91081e-05
8.66579e-06
3.87182e-06
1.70643e-06
7.42764e-07
3.19667e-07
1.36184e-07
5.74825e-08
2.40543e-08
9.97377e-09
4.08765e-09
1.63963e-09
6.27389e-10
2.09423e-10
3.66952e-11
4.46976e-07
1.95344e-06
4.48735e-06
8.73501e-06
1.58204e-05
2.75627e-05
4.68665e-05
7.82958e-05
0.000128891
0.000209283
0.000335124
0.000528784
0.000821103
0.00125279
0.00187473
0.00274647
0.00393205
0.00549339
0.0074824
0.00993387
0.0128613
0.0162564
0.0200921
0.0243267
0.0289087
0.0337807
0.0388831
0.0441563
0.0495425
0.0549871
0.06044
0.0658557
0.0711942
0.0764212
0.0815076
0.0864297
0.091168
0.0957074
0.100037
0.10415
0.108042
0.111712
0.11516
0.11839
0.121404
0.124208
0.126806
0.129202
0.131401
0.133405
0.135215
0.136829
0.138245
0.139451
0.140436
0.141176
0.141636
0.141781
0.141558
0.14088
0.139646
0.130483
0.119173
0.107868
0.0967341
0.0858991
0.075465
0.0655133
0.0561107
0.0473134
0.039171
0.0317292
0.0250297
0.0191244
0.0140581
0.00986462
0.00655802
0.00410866
0.00242333
0.00135075
0.000716574
0.00036459
0.000179068
8.58615e-05
4.03576e-05
1.86189e-05
8.44406e-06
3.77211e-06
1.66217e-06
7.23462e-07
3.11361e-07
1.32661e-07
5.60025e-08
2.34417e-08
9.72118e-09
3.98573e-09
1.59872e-09
6.11936e-10
2.04248e-10
3.57926e-11
4.46318e-07
1.95056e-06
4.48075e-06
8.72215e-06
1.57971e-05
2.75221e-05
4.67974e-05
7.81806e-05
0.000128702
0.000208979
0.000334643
0.000528039
0.000819977
0.00125113
0.00187236
0.00274318
0.00392765
0.00548773
0.00747538
0.00992548
0.0128516
0.0162457
0.0200806
0.0243146
0.0288964
0.0337686
0.0388715
0.0441455
0.0495327
0.0549787
0.060433
0.0658502
0.0711903
0.0764188
0.0815067
0.0864302
0.0911697
0.0957102
0.100041
0.104154
0.108047
0.111717
0.115165
0.118394
0.121407
0.124209
0.126805
0.129198
0.131394
0.133394
0.135199
0.13681
0.13822
0.139421
0.140401
0.141138
0.141598
0.141746
0.141533
0.140879
0.139694
0.130188
0.11886
0.107552
0.0964216
0.0855967
0.0751763
0.0652407
0.0558559
0.0470776
0.0389553
0.0315345
0.0248568
0.0189746
0.0139324
0.00976359
0.00648129
0.0040543
0.00238766
0.00132904
0.000704229
0.000357958
0.000175663
8.41716e-05
3.95271e-05
1.82304e-05
8.27313e-06
3.6978e-06
1.62996e-06
7.09568e-07
3.05425e-07
1.30164e-07
5.49527e-08
2.30085e-08
9.54193e-09
3.91317e-09
1.56961e-09
6.00909e-10
2.0055e-10
3.51472e-11
4.45887e-07
1.94868e-06
4.47643e-06
8.71376e-06
1.57819e-05
2.74955e-05
4.67523e-05
7.81054e-05
0.000128579
0.000208781
0.000334331
0.000527555
0.000819246
0.00125005
0.00187082
0.00274105
0.00392481
0.00548406
0.00747084
0.00992007
0.0128454
0.0162388
0.0200731
0.0243069
0.0288885
0.0337608
0.0388641
0.0441386
0.0495265
0.0549732
0.0604284
0.0658466
0.0711876
0.076417
0.0815056
0.0864297
0.0911698
0.0957107
0.100042
0.104155
0.108048
0.111717
0.115165
0.118393
0.121405
0.124206
0.126799
0.12919
0.131383
0.133379
0.135181
0.136786
0.138192
0.139389
0.140364
0.141097
0.141555
0.141702
0.141493
0.140847
0.139678
0.129996
0.118649
0.107334
0.0962063
0.0853886
0.0749786
0.065055
0.0556833
0.0469187
0.0388107
0.0314046
0.024742
0.0188755
0.0138495
0.00969725
0.00643115
0.00401896
0.00236457
0.00131501
0.000696238
0.000353666
0.000173466
8.3094e-05
3.90235e-05
1.79919e-05
8.16357e-06
3.64802e-06
1.60837e-06
7.00456e-07
3.01536e-07
1.28545e-07
5.42728e-08
2.27294e-08
9.42656e-09
3.86664e-09
1.55093e-09
5.93855e-10
1.98181e-10
3.47341e-11
4.45678e-07
1.94777e-06
4.47434e-06
8.70969e-06
1.57745e-05
2.74828e-05
4.67307e-05
7.80695e-05
0.00012852
0.000208686
0.000334182
0.000527326
0.0008189
0.00124954
0.00187009
0.00274005
0.00392346
0.00548233
0.0074687
0.00991751
0.0128425
0.0162355
0.0200696
0.0243032
0.0288848
0.0337572
0.0388606
0.0441353
0.0495235
0.0549706
0.0604262
0.0658448
0.0711863
0.076416
0.0815049
0.0864291
0.091169
0.0957099
0.100041
0.104154
0.108046
0.111716
0.115163
0.11839
0.121401
0.124201
0.126793
0.129182
0.131372
0.133366
0.135165
0.136768
0.13817
0.139363
0.140335
0.141065
0.141519
0.141666
0.141459
0.140821
0.139668
0.129903
0.118538
0.107218
0.0960915
0.0852785
0.074875
0.0649588
0.0555948
0.0468382
0.0387381
0.0313399
0.0246854
0.0188271
0.0138094
0.00966542
0.00640729
0.0040023
0.00235378
0.0013085
0.000692544
0.000351679
0.000172456
8.25988e-05
3.87951e-05
1.78839e-05
8.11466e-06
3.62569e-06
1.59824e-06
6.96077e-07
2.9964e-07
1.27755e-07
5.39404e-08
2.25931e-08
9.37027e-09
3.84395e-09
1.54183e-09
5.9042e-10
1.97026e-10
3.45327e-11
4.45679e-07
1.94778e-06
4.47435e-06
8.70972e-06
1.57746e-05
2.74829e-05
4.67308e-05
7.80697e-05
0.000128521
0.000208687
0.000334183
0.000527327
0.000818902
0.00124954
0.0018701
0.00274005
0.00392347
0.00548234
0.00746871
0.00991753
0.0128425
0.0162355
0.0200696
0.0243032
0.0288848
0.0337572
0.0388606
0.0441353
0.0495236
0.0549707
0.0604263
0.0658448
0.0711863
0.076416
0.0815049
0.0864291
0.0911691
0.0957099
0.100041
0.104154
0.108046
0.111716
0.115163
0.11839
0.121401
0.124201
0.126793
0.129182
0.131372
0.133366
0.135165
0.136768
0.13817
0.139363
0.140335
0.141065
0.141519
0.141666
0.141459
0.140821
0.139668
0.129903
0.118538
0.107218
0.0960915
0.0852785
0.0748749
0.0649588
0.0555948
0.0468382
0.038738
0.0313399
0.0246854
0.0188272
0.0138095
0.00966542
0.0064073
0.0040023
0.00235379
0.00130851
0.000692546
0.00035168
0.000172457
8.25993e-05
3.87948e-05
1.78837e-05
8.11414e-06
3.62579e-06
1.59813e-06
6.96063e-07
2.99636e-07
1.27753e-07
5.39397e-08
2.25928e-08
9.37014e-09
3.84388e-09
1.5418e-09
5.90399e-10
1.97022e-10
3.45312e-11
4.45892e-07
1.9487e-06
4.47648e-06
8.71384e-06
1.5782e-05
2.74958e-05
4.67528e-05
7.81061e-05
0.00012858
0.000208783
0.000334333
0.00052756
0.000819253
0.00125006
0.00187083
0.00274107
0.00392483
0.0054841
0.00747088
0.00992012
0.0128455
0.0162388
0.0200732
0.024307
0.0288886
0.0337609
0.0388642
0.0441387
0.0495266
0.0549733
0.0604285
0.0658467
0.0711877
0.0764171
0.0815057
0.0864297
0.0911698
0.0957107
0.100042
0.104155
0.108048
0.111717
0.115165
0.118393
0.121405
0.124206
0.126799
0.12919
0.131383
0.133379
0.135181
0.136786
0.138192
0.139389
0.140364
0.141097
0.141555
0.141702
0.141493
0.140847
0.139678
0.129996
0.118649
0.107334
0.0962062
0.0853885
0.0749785
0.0650549
0.0556832
0.0469187
0.0388106
0.0314045
0.024742
0.0188755
0.0138496
0.00969727
0.00643118
0.00401898
0.00236458
0.00131502
0.000696245
0.00035367
0.000173468
8.30954e-05
3.9023e-05
1.79917e-05
8.16245e-06
3.6481e-06
1.60813e-06
7.00412e-07
3.01525e-07
1.2854e-07
5.42713e-08
2.27286e-08
9.42626e-09
3.86644e-09
1.55086e-09
5.93797e-10
1.98168e-10
3.473e-11
4.46325e-07
1.95059e-06
4.48082e-06
8.72229e-06
1.57973e-05
2.75225e-05
4.67981e-05
7.81817e-05
0.000128704
0.000208982
0.000334648
0.000528046
0.000819988
0.00125114
0.00187238
0.00274321
0.00392769
0.00548778
0.00747544
0.00992556
0.0128517
0.0162458
0.0200807
0.0243148
0.0288965
0.0337687
0.0388716
0.0441456
0.0495329
0.0549788
0.0604331
0.0658503
0.0711905
0.076419
0.0815068
0.0864303
0.0911698
0.0957103
0.100041
0.104154
0.108047
0.111717
0.115165
0.118394
0.121407
0.124209
0.126805
0.129198
0.131394
0.133394
0.1352
0.13681
0.13822
0.139421
0.140401
0.141138
0.141598
0.141746
0.141533
0.140879
0.139694
0.130188
0.11886
0.107551
0.0964214
0.0855965
0.0751761
0.0652405
0.0558557
0.0470775
0.0389552
0.0315344
0.0248568
0.0189746
0.0139324
0.00976362
0.00648132
0.00405433
0.00238768
0.00132906
0.000704239
0.000357965
0.000175666
8.41732e-05
3.95276e-05
1.82305e-05
8.27311e-06
3.69785e-06
1.63008e-06
7.09597e-07
3.0543e-07
1.30163e-07
5.49521e-08
2.30077e-08
9.54162e-09
3.91292e-09
1.5695e-09
6.00827e-10
2.00531e-10
3.51415e-11
4.46986e-07
1.95348e-06
4.48745e-06
8.7352e-06
1.58207e-05
2.75633e-05
4.68675e-05
7.82974e-05
0.000128894
0.000209287
0.000335131
0.000528793
0.000821118
0.00125281
0.00187476
0.00274651
0.0039321
0.00549346
0.00748249
0.00993398
0.0128614
0.0162566
0.0200923
0.0243269
0.0289088
0.0337809
0.0388833
0.0441565
0.0495427
0.0549873
0.0604402
0.0658559
0.0711944
0.0764213
0.0815077
0.0864299
0.0911682
0.0957076
0.100037
0.10415
0.108042
0.111712
0.11516
0.11839
0.121404
0.124208
0.126806
0.129202
0.131401
0.133405
0.135215
0.136829
0.138245
0.139451
0.140436
0.141176
0.141636
0.141781
0.141558
0.14088
0.139646
0.130483
0.119173
0.107868
0.0967337
0.0858987
0.0754647
0.065513
0.0561104
0.0473131
0.0391708
0.0317291
0.0250296
0.0191244
0.0140581
0.00986465
0.00655805
0.0041087
0.00242336
0.00135077
0.000716588
0.000364597
0.000179072
8.58636e-05
4.03586e-05
1.86193e-05
8.44419e-06
3.77218e-06
1.66219e-06
7.23484e-07
3.11371e-07
1.32665e-07
5.60039e-08
2.34419e-08
9.72118e-09
3.98554e-09
1.59867e-09
6.11852e-10
2.04231e-10
3.57862e-11
4.47888e-07
1.95742e-06
4.4965e-06
8.75283e-06
1.58527e-05
2.7619e-05
4.69623e-05
7.84557e-05
0.000129153
0.000209706
0.000335792
0.000529819
0.00082267
0.0012551
0.00187804
0.00275106
0.0039382
0.00550133
0.00749226
0.00994567
0.0128749
0.0162716
0.0201085
0.0243439
0.0289262
0.033798
0.0388998
0.044172
0.0495567
0.0549995
0.0604503
0.0658637
0.0711999
0.0764244
0.0815085
0.0864283
0.0911644
0.0957018
0.10003
0.104141
0.108032
0.111701
0.115149
0.118379
0.121395
0.1242
0.1268
0.129198
0.1314
0.133408
0.135223
0.136843
0.138263
0.139476
0.140466
0.141212
0.141676
0.141823
0.1416
0.140917
0.139674
0.130879
0.119588
0.108286
0.0971452
0.0862977
0.0758468
0.0658751
0.0564501
0.0476286
0.0394603
0.0319911
0.0252628
0.019327
0.0142286
0.010002
0.00666271
0.00418309
0.00247231
0.00138059
0.000733559
0.000373745
0.00018379
8.82299e-05
4.14459e-05
1.91087e-05
8.66607e-06
3.87199e-06
1.70651e-06
7.42798e-07
3.19682e-07
1.3619e-07
5.74851e-08
2.40551e-08
9.97427e-09
4.08751e-09
1.63966e-09
6.27313e-10
2.09412e-10
3.6689e-11
4.49049e-07
1.96249e-06
4.50814e-06
8.77551e-06
1.58938e-05
2.76909e-05
4.70846e-05
7.86599e-05
0.000129489
0.000210247
0.000336649
0.000531148
0.000824686
0.00125808
0.00188231
0.002757
0.00394616
0.00551163
0.0075051
0.00996107
0.0128927
0.0162915
0.0201301
0.0243666
0.0289494
0.0338212
0.0389222
0.0441931
0.0495759
0.0550164
0.0604644
0.0658748
0.0712077
0.0764289
0.0815096
0.0864261
0.0911591
0.0956936
0.100019
0.104128
0.108017
0.111685
0.115132
0.118362
0.121377
0.124184
0.126785
0.129186
0.131391
0.133403
0.135222
0.136847
0.138274
0.139493
0.140489
0.141242
0.141712
0.141864
0.141643
0.140959
0.139705
0.131382
0.120106
0.108808
0.097661
0.0867991
0.0763282
0.0663326
0.0568805
0.0480291
0.0398286
0.0323251
0.0255605
0.019586
0.0144469
0.0101784
0.00679743
0.00427914
0.00253574
0.00141948
0.000756012
0.00038628
0.00019017
9.11458e-05
4.27958e-05
1.97385e-05
8.95543e-06
4.00213e-06
1.76396e-06
7.67771e-07
3.30403e-07
1.4074e-07
5.93973e-08
2.48509e-08
1.03029e-08
4.22093e-09
1.69317e-09
6.47574e-10
2.16195e-10
3.78725e-11
4.50487e-07
1.96877e-06
4.52258e-06
8.80365e-06
1.59449e-05
2.77801e-05
4.72367e-05
7.89143e-05
0.000129907
0.000210922
0.000337721
0.000532815
0.000827217
0.00126182
0.0018877
0.0027645
0.00395626
0.00552472
0.00752145
0.00998074
0.0129156
0.0163172
0.020158
0.0243961
0.0289797
0.0338516
0.0389519
0.0442212
0.0496018
0.0550395
0.0604841
0.0658907
0.0712194
0.0764363
0.0815126
0.0864247
0.0911534
0.0956838
0.100005
0.104111
0.107997
0.111663
0.115108
0.118337
0.121352
0.124159
0.126761
0.129164
0.131372
0.133387
0.135211
0.136841
0.138274
0.1395
0.140503
0.141263
0.141741
0.141899
0.141682
0.140999
0.139735
0.132002
0.120744
0.109451
0.0982928
0.0874128
0.0769182
0.0668942
0.0574096
0.0485224
0.0402828
0.0327374
0.0259284
0.0199064
0.0147174
0.0103973
0.00696509
0.0043991
0.00261533
0.00146861
0.000784651
0.000400548
0.000197062
9.45787e-05
4.44704e-05
2.05254e-05
9.31558e-06
4.16377e-06
1.83534e-06
7.9883e-07
3.43744e-07
1.46405e-07
6.17793e-08
2.58432e-08
1.07127e-08
4.3881e-09
1.76008e-09
6.73068e-10
2.24718e-10
3.93628e-11
4.52223e-07
1.97636e-06
4.54001e-06
8.83766e-06
1.60067e-05
2.78882e-05
4.74212e-05
7.92233e-05
0.000130416
0.000211746
0.00033903
0.000534854
0.000830321
0.00126643
0.00189434
0.00277378
0.00396877
0.005541
0.00754185
0.0100054
0.0129443
0.0163496
0.0201935
0.0244338
0.0290187
0.0338909
0.0389906
0.0442583
0.0496364
0.0550708
0.0605114
0.0659133
0.071237
0.0764484
0.0815192
0.0864258
0.0911489
0.095674
0.0999906
0.104092
0.107974
0.111636
0.115079
0.118305
0.12132
0.124126
0.126729
0.129133
0.131343
0.133362
0.13519
0.136825
0.138264
0.139496
0.140507
0.141274
0.14176
0.141925
0.141713
0.141031
0.139761
0.132746
0.121503
0.110209
0.0990476
0.088148
0.0776272
0.0675709
0.0580488
0.049119
0.0408324
0.0332365
0.026374
0.0202949
0.0150458
0.0106638
0.00716998
0.00454658
0.00271411
0.00153053
0.000817018
0.00041756
0.000205929
9.89574e-05
4.65577e-05
2.14972e-05
9.7591e-06
4.36258e-06
1.92303e-06
8.36952e-07
3.60106e-07
1.53348e-07
6.46964e-08
2.70579e-08
1.1214e-08
4.5927e-09
1.84192e-09
7.0432e-10
2.35141e-10
4.11899e-11
4.54273e-07
1.98532e-06
4.56063e-06
8.8779e-06
1.60799e-05
2.80164e-05
4.76403e-05
7.9591e-05
0.000131022
0.000212731
0.000340599
0.000537303
0.000834061
0.00127199
0.00190239
0.00278505
0.00398404
0.00556093