/*--------------------------------*- C++ -*----------------------------------*\
  =========                 |
  \\      /  F ield         | OpenFOAM: The Open Source CFD Toolbox
   \\    /   O peration     | Website:  https://openfoam.org
    \\  /    A nd           | Version:  8
     \\/     M anipulation  |
\*---------------------------------------------------------------------------*/
FoamFile
{
    version     2.0;
    format      ascii;
    class       volScalarField;
    location    "760/fluid";
    object      H2O;
}
// * * * * * * * * * * * * * * * * * * * * * * * * * * * * * * * * * * * * * //

dimensions      [0 0 0 0 0 0 0];

internalField   nonuniform List<scalar> 
4000
(
3.88297e-07
1.69671e-06
3.89661e-06
7.58379e-06
1.37372e-05
2.39498e-05
4.07825e-05
6.82944e-05
0.000112809
0.000183979
0.000296168
0.000470108
0.00073458
0.00112766
0.00169674
0.00249646
0.00358391
0.00501157
0.00681952
0.00902936
0.0116418
0.0146382
0.0179844
0.0216357
0.0255415
0.0296489
0.0339056
0.0382613
0.0426692
0.0470867
0.0514757
0.0558034
0.0600415
0.0641671
0.0681615
0.07201
0.0757013
0.0792277
0.0825843
0.0857689
0.0887812
0.0916228
0.0942965
0.0968062
0.0991562
0.101351
0.103397
0.105296
0.107055
0.108675
0.110159
0.111506
0.112714
0.113779
0.11469
0.115435
0.115991
0.116326
0.116407
0.116179
0.115563
0.114456
0.112195
0.103562
0.0947892
0.0860213
0.0773721
0.068931
0.060769
0.0529441
0.0455054
0.038496
0.0319567
0.0259579
0.020477
0.0156008
0.0113819
0.00787206
0.00510931
0.00308888
0.00173647
0.00091238
0.000452297
0.000215024
9.93177e-05
4.48376e-05
1.98699e-05
8.6713e-06
3.73587e-06
1.59218e-06
6.72372e-07
2.8174e-07
1.17266e-07
4.85084e-08
1.9933e-08
8.11257e-09
3.24023e-09
1.23653e-09
4.12883e-10
7.23784e-11
3.88856e-07
1.69957e-06
3.90503e-06
7.60512e-06
1.37859e-05
2.40513e-05
4.0976e-05
6.86312e-05
0.000113336
0.000184692
0.000296908
0.000470378
0.00073331
0.00112282
0.00168497
0.00247293
0.0035425
0.00494558
0.00672271
0.00889715
0.0114721
0.0144317
0.0177443
0.0213672
0.0252513
0.0293442
0.0335935
0.0379485
0.0423617
0.0467894
0.0511928
0.055538
0.0597959
0.0639426
0.0679589
0.0718296
0.0755428
0.0790904
0.0824672
0.0856708
0.0887007
0.0915586
0.094247
0.0967699
0.0991317
0.101337
0.103392
0.105299
0.107064
0.10869
0.110178
0.111529
0.11274
0.113807
0.114719
0.115465
0.116021
0.116355
0.116434
0.116202
0.115582
0.114466
0.111498
0.10281
0.0939934
0.0851895
0.0765108
0.0680456
0.0598652
0.0520283
0.0445848
0.0375795
0.0310554
0.0250868
0.0196544
0.01485
0.0107276
0.00733749
0.00470914
0.00282042
0.00157742
0.000829295
0.0004137
0.00019838
9.25582e-05
4.222e-05
1.88926e-05
8.3154e-06
3.60786e-06
1.54609e-06
6.55532e-07
2.75422e-07
1.14817e-07
4.75286e-08
1.95318e-08
7.94679e-09
3.17252e-09
1.21012e-09
4.03914e-10
7.08119e-11
3.89967e-07
1.70463e-06
3.91763e-06
7.63195e-06
1.38384e-05
2.41472e-05
4.11398e-05
6.88912e-05
0.000113713
0.00018517
0.000297375
0.000470498
0.000732249
0.00111906
0.00167607
0.00245533
0.00351151
0.00489561
0.00664793
0.00879223
0.0113331
0.0142565
0.017533
0.0211221
0.0249766
0.0290454
0.033277
0.0376211
0.04203
0.0464598
0.0508709
0.0552286
0.0595032
0.0636697
0.0677082
0.0716026
0.0753404
0.0789128
0.0823142
0.0855417
0.0885945
0.0914739
0.0941823
0.0967235
0.099102
0.101323
0.10339
0.10531
0.107084
0.108718
0.110213
0.111569
0.112784
0.113854
0.114768
0.115513
0.116068
0.116399
0.116472
0.116233
0.1156
0.114465
0.11027
0.101544
0.0926912
0.0838582
0.0751595
0.0666852
0.058508
0.050688
0.0432771
0.036322
0.0298676
0.023979
0.0186622
0.0139957
0.0100292
0.00680465
0.00433636
0.00258459
0.00144298
0.000759631
0.000380387
0.000183227
8.59185e-05
3.93953e-05
1.7719e-05
7.83666e-06
3.41512e-06
1.46912e-06
6.24899e-07
2.6322e-07
1.09936e-07
4.55662e-08
1.87392e-08
7.62683e-09
3.04491e-09
1.1613e-09
3.87525e-10
6.79267e-11
3.89817e-07
1.70397e-06
3.91604e-06
7.62832e-06
1.38295e-05
2.41237e-05
4.10784e-05
6.87371e-05
0.000113349
0.000184364
0.000295697
0.000467219
0.000726248
0.00110864
0.00165884
0.00242809
0.0034704
0.00483643
0.00656654
0.00868514
0.0111979
0.014092
0.0173397
0.0209017
0.0247319
0.0287803
0.0329961
0.0373295
0.0417329
0.0461624
0.0505782
0.0549452
0.0592329
0.0634159
0.0674735
0.071389
0.0751494
0.0787451
0.08217
0.0854208
0.0884962
0.0913971
0.094126
0.0966863
0.0990826
0.101319
0.1034
0.105331
0.107116
0.108759
0.11026
0.111621
0.11284
0.11391
0.114824
0.115567
0.116117
0.11644
0.116503
0.116249
0.115596
0.114434
0.108745
0.100006
0.0911388
0.0822957
0.0735962
0.0651338
0.0569835
0.0492073
0.0418581
0.0349839
0.0286309
0.0228416
0.017664
0.0131501
0.00934546
0.00628457
0.00397018
0.00234886
0.00130471
0.000685238
0.000343212
0.000165649
7.79065e-05
3.58468e-05
1.61838e-05
7.18529e-06
3.1432e-06
1.35708e-06
5.79196e-07
2.44712e-07
1.02478e-07
4.25708e-08
1.75399e-08
7.14928e-09
2.85748e-09
1.09067e-09
3.64094e-10
6.38308e-11
3.88539e-07
1.69831e-06
3.90268e-06
7.60123e-06
1.37776e-05
2.40265e-05
4.08979e-05
6.8404e-05
0.000112739
0.000183258
0.000293725
0.000463771
0.000720366
0.00109889
0.00164319
0.00240388
0.00343443
0.00478519
0.0064966
0.0085936
0.0110827
0.0139524
0.0171759
0.0207151
0.024525
0.0285563
0.0327588
0.037083
0.0414817
0.0459108
0.0503304
0.054705
0.0590038
0.0632009
0.067275
0.0712089
0.0749891
0.0786055
0.0820514
0.0853231
0.088419
0.0913397
0.0940875
0.0966657
0.0990775
0.101328
0.103422
0.105364
0.107158
0.108808
0.110314
0.111679
0.112898
0.113967
0.114877
0.115613
0.116154
0.116462
0.116509
0.116233
0.115549
0.114351
0.107141
0.0984151
0.0895454
0.080701
0.0720098
0.0635698
0.0554581
0.0477375
0.0404611
0.0336764
0.0274405
0.0217712
0.016732
0.012369
0.00872181
0.00581709
0.00364614
0.0021433
0.00118549
0.000621474
0.000311332
0.000150488
7.09291e-05
3.27167e-05
1.4808e-05
6.5906e-06
2.88971e-06
1.25026e-06
5.34615e-07
2.26251e-07
9.4883e-08
3.94632e-08
1.62757e-08
6.63922e-09
2.65518e-09
1.01383e-09
3.38476e-10
5.93394e-11
3.86366e-07
1.68871e-06
3.88016e-06
7.55605e-06
1.36925e-05
2.38714e-05
4.062e-05
6.79126e-05
0.000111881
0.000181778
0.000291215
0.000459597
0.000713579
0.00108814
0.00162668
0.00237936
0.00339931
0.00473676
0.00643235
0.00851149
0.0109815
0.0138316
0.0170359
0.0205574
0.0243516
0.0283698
0.0325623
0.0368799
0.0412755
0.0457051
0.0501285
0.0545101
0.0588188
0.0630283
0.0671168
0.0710667
0.0748641
0.0784985
0.0819628
0.0852528
0.0883667
0.0913049
0.0940691
0.0966618
0.0990873
0.10135
0.103455
0.105406
0.107207
0.108861
0.110371
0.111735
0.112952
0.114016
0.114918
0.115641
0.116166
0.116453
0.116475
0.116169
0.115454
0.114236
0.105817
0.0970219
0.0880986
0.0792238
0.0705263
0.062103
0.0540292
0.0463655
0.0391628
0.0324664
0.0263388
0.0207841
0.015881
0.0116641
0.0081634
0.00540087
0.00335846
0.00196056
0.00107878
0.00056368
0.000281943
0.000136288
6.42898e-05
2.96946e-05
1.34628e-05
6.00315e-06
2.63727e-06
1.14327e-06
4.89777e-07
2.07637e-07
8.72146e-08
3.63243e-08
1.49989e-08
6.12428e-09
2.45102e-09
9.36301e-10
3.12635e-10
5.48089e-11
3.83798e-07
1.67742e-06
3.85391e-06
7.50406e-06
1.35962e-05
2.36989e-05
4.03176e-05
6.73901e-05
0.00011099
0.00018028
0.000288734
0.000455561
0.00070715
0.00107815
0.00161157
0.00235724
0.00336801
0.00469406
0.00637625
0.00844046
0.0108946
0.0137288
0.0169179
0.0204254
0.0242074
0.0282158
0.0324012
0.0367144
0.0411086
0.0455396
0.0499673
0.0543558
0.0586736
0.0628942
0.0669955
0.0709595
0.0747719
0.0784218
0.0819017
0.0852074
0.0883369
0.0912898
0.0940673
0.0966726
0.0991095
0.101382
0.103495
0.105453
0.107259
0.108916
0.110426
0.111788
0.112999
0.114054
0.11494
0.115644
0.11614
0.116389
0.116364
0.115996
0.115208
0.11392
0.105017
0.0959472
0.0868707
0.0779177
0.0691919
0.0607758
0.052736
0.045128
0.0379999
0.0313959
0.0253916
0.0199516
0.0151548
0.01105
0.00767532
0.00503876
0.00311003
0.00180394
0.000987832
0.000514559
0.000256951
0.000124171
5.85934e-05
2.70829e-05
1.22905e-05
5.48644e-06
2.41312e-06
1.04735e-06
4.49222e-07
1.90662e-07
8.01699e-08
3.34224e-08
1.38122e-08
5.64362e-09
2.25977e-09
8.63485e-10
2.88321e-10
5.05421e-11
3.81104e-07
1.6656e-06
3.82653e-06
7.45006e-06
1.34967e-05
2.3522e-05
4.00098e-05
6.68632e-05
0.000110101
0.000178802
0.000286317
0.000451681
0.000701055
0.00106881
0.00159766
0.00233715
0.00333999
0.00465635
0.00632731
0.00837921
0.0108205
0.013642
0.016819
0.0203158
0.0240886
0.0280899
0.0322704
0.0365812
0.0409753
0.0454086
0.0498409
0.054236
0.0585623
0.062793
0.0669056
0.070882
0.0747074
0.0783708
0.0818644
0.0851836
0.0883256
0.0912902
0.094079
0.0966946
0.0991407
0.101421
0.103541
0.105503
0.107312
0.10897
0.110478
0.111836
0.11304
0.114082
0.114951
0.115628
0.116084
0.116279
0.116172
0.115678
0.114692
0.113094
0.10403
0.094843
0.0856928
0.0767032
0.067971
0.0595733
0.0515725
0.0440208
0.0369631
0.0304406
0.0245115
0.0191736
0.0144902
0.0105029
0.00724711
0.00472534
0.00289686
0.00167003
0.000910074
0.00047243
0.000235397
0.00011366
5.36213e-05
2.47897e-05
1.12555e-05
5.02799e-06
2.21336e-06
9.61558e-07
4.12825e-07
1.75385e-07
7.38147e-08
3.07994e-08
1.27378e-08
5.20781e-09
2.08618e-09
7.97327e-10
2.66218e-10
4.66618e-11
3.78482e-07
1.65411e-06
3.8e-06
7.39794e-06
1.34012e-05
2.3353e-05
3.97177e-05
6.63668e-05
0.00010927
0.000177432
0.000284097
0.00044815
0.000695559
0.00106046
0.00158534
0.00231951
0.00331558
0.00462375
0.00628535
0.00832709
0.010758
0.0135692
0.0167368
0.0202253
0.0239914
0.0279877
0.0321651
0.0364748
0.0408698
0.0453061
0.0497431
0.0541446
0.0584788
0.0627185
0.0668412
0.0708283
0.0746649
0.0783397
0.0818449
0.0851751
0.0883275
0.0913022
0.0941002
0.0967241
0.0991773
0.101464
0.103588
0.105554
0.107364
0.109022
0.110529
0.111882
0.113079
0.114111
0.114966
0.115624
0.116054
0.116216
0.116063
0.115508
0.114437
0.112172
0.103013
0.0937659
0.0845852
0.0755896
0.0668728
0.0585091
0.0505588
0.0430719
0.0360914
0.0296559
0.0238219
0.0185842
0.0140002
0.0101012
0.0069107
0.0044648
0.00271713
0.00155693
0.000844403
0.000436838
0.000217161
0.000104745
4.93914e-05
2.28318e-05
1.03683e-05
4.63346e-06
2.04077e-06
8.87135e-07
3.81138e-07
1.62039e-07
6.82462e-08
2.8495e-08
1.17918e-08
4.82333e-09
1.93279e-09
7.38806e-10
2.46657e-10
4.32243e-11
3.7604e-07
1.64342e-06
3.77534e-06
7.3496e-06
1.33128e-05
2.31972e-05
3.94494e-05
6.59128e-05
0.000108514
0.000176193
0.000282099
0.000444993
0.00069068
0.00105311
0.00157455
0.00230419
0.00329453
0.00459586
0.0062497
0.00828313
0.0107056
0.0135087
0.016669
0.0201512
0.0239124
0.0279053
0.032081
0.0363906
0.0407873
0.0452267
0.0496685
0.054076
0.0584173
0.0626652
0.0667967
0.0707933
0.0746397
0.0783243
0.0818387
0.0851778
0.0883391
0.0913218
0.0941271
0.0967575
0.0992163
0.101507
0.103635
0.105603
0.107414
0.109071
0.110576
0.111925
0.113117
0.114142
0.114988
0.115636
0.116054
0.116207
0.116047
0.115494
0.114447
0.11119
0.102
0.092735
0.0835491
0.0745616
0.0658654
0.0575333
0.0496245
0.042189
0.0352694
0.028906
0.0231263
0.0179648
0.0134683
0.00967339
0.00660643
0.00424336
0.00256228
0.00146018
0.000788489
0.000406599
0.000201673
9.71694e-05
4.57918e-05
2.11627e-05
9.61049e-06
4.29569e-06
1.89268e-06
8.23141e-07
3.53834e-07
1.50518e-07
6.3431e-08
2.64993e-08
1.09714e-08
4.48956e-09
1.79952e-09
6.87926e-10
2.29647e-10
4.02345e-11
3.73835e-07
1.63378e-06
3.75312e-06
7.30613e-06
1.32335e-05
2.30578e-05
3.92101e-05
6.55092e-05
0.000107844
0.0001751
0.000280346
0.000442237
0.000686441
0.00104675
0.00156528
0.00229109
0.00327664
0.00457228
0.00621974
0.00824641
0.0106621
0.0134589
0.0166134
0.0200909
0.0238486
0.0278394
0.0320143
0.0363246
0.0407233
0.045166
0.0496123
0.0540253
0.0583732
0.0626282
0.0667674
0.0707719
0.0746266
0.0783192
0.0818414
0.0851881
0.0883564
0.0913456
0.0941567
0.0967921
0.0992549
0.101549
0.103679
0.105648
0.107459
0.109115
0.110617
0.111964
0.113151
0.11417
0.11501
0.115651
0.116062
0.116208
0.116044
0.115491
0.114448
0.110242
0.10105
0.0917925
0.0826231
0.0736603
0.0649988
0.0567099
0.0488512
0.0414717
0.0346028
0.028283
0.0225464
0.0174471
0.0130232
0.00930618
0.00631746
0.00405005
0.00243346
0.00137789
0.000741149
0.000381074
0.00018862
9.07869e-05
4.27578e-05
1.97544e-05
8.97022e-06
4.00989e-06
1.76716e-06
7.68808e-07
3.30613e-07
1.40703e-07
5.93227e-08
2.47944e-08
1.02698e-08
4.20385e-09
1.68536e-09
6.44326e-10
2.15091e-10
3.76813e-11
3.71892e-07
1.62529e-06
3.73357e-06
7.26792e-06
1.31639e-05
2.29357e-05
3.9001e-05
6.51576e-05
0.000107262
0.000174153
0.000278834
0.000439868
0.000682812
0.00104133
0.00155742
0.00228002
0.0032616
0.00455256
0.00619481
0.00821603
0.0106263
0.0134181
0.0165683
0.0200423
0.0237976
0.0277871
0.0319619
0.0362732
0.0406741
0.0451201
0.0495705
0.0539886
0.0583421
0.0626034
0.0667492
0.0707606
0.0746219
0.0783211
0.0818499
0.0852027
0.0883766
0.0913708
0.0941863
0.0968253
0.0992911
0.101587
0.103718
0.105687
0.107498
0.109153
0.110652
0.111995
0.113177
0.114192
0.115025
0.11566
0.116064
0.116205
0.116036
0.11548
0.114438
0.109402
0.100206
0.0909549
0.0818041
0.0728717
0.0642442
0.0559865
0.0481568
0.0408012
0.0339705
0.0277021
0.0220308
0.0169974
0.0126412
0.00899345
0.00607341
0.00387005
0.00232263
0.00130965
0.000701206
0.000359603
0.000177671
8.54397e-05
4.0217e-05
1.85748e-05
8.43361e-06
3.77014e-06
1.66175e-06
7.23127e-07
3.11065e-07
1.32431e-07
5.58557e-08
2.33539e-08
9.6764e-09
3.96209e-09
1.58876e-09
6.07462e-10
2.02794e-10
3.55253e-11
3.70215e-07
1.61796e-06
3.71671e-06
7.23501e-06
1.3104e-05
2.28309e-05
3.88217e-05
6.48568e-05
0.000106766
0.000173348
0.000277551
0.000437864
0.000679754
0.00103678
0.00155083
0.0022708
0.00324911
0.00453625
0.0061743
0.00819114
0.0105972
0.013385
0.016532
0.0200035
0.0237571
0.0277459
0.0319209
0.0362336
0.0406366
0.0450857
0.0495398
0.0539624
0.0583208
0.0625873
0.0667387
0.0707557
0.0746226
0.0783273
0.0818612
0.0852188
0.0883971
0.0913952
0.0942139
0.0968555
0.0993231
0.10162
0.103752
0.10572
0.10753
0.109182
0.110678
0.112017
0.113195
0.114204
0.115032
0.11566
0.116058
0.116192
0.116019
0.115461
0.114421
0.10868
0.0994759
0.0902302
0.0810939
0.0721734
0.0635576
0.0553237
0.0475274
0.040216
0.0334316
0.0272125
0.0215937
0.0166163
0.0123186
0.00873077
0.00587023
0.00372235
0.00222206
0.00125304
0.000668887
0.00034185
0.000168589
8.10135e-05
3.81152e-05
1.75989e-05
7.98935e-06
3.57144e-06
1.57428e-06
6.85168e-07
2.94798e-07
1.25537e-07
5.29631e-08
2.21507e-08
9.18024e-09
3.75976e-09
1.50787e-09
5.76584e-10
1.92494e-10
3.37198e-11
3.68796e-07
1.61176e-06
3.70246e-06
7.20721e-06
1.30535e-05
2.27425e-05
3.86709e-05
6.46042e-05
0.00010635
0.000172675
0.00027648
0.000436197
0.000677215
0.00103301
0.0015454
0.00226322
0.00323888
0.00452294
0.00615761
0.00817099
0.0105737
0.0133585
0.016503
0.0199727
0.0237252
0.0277137
0.0318893
0.0362032
0.0406083
0.0450601
0.0495176
0.0539439
0.0583065
0.0625774
0.0667334
0.0707549
0.0746262
0.0783353
0.0818733
0.0852346
0.0884162
0.091417
0.094238
0.0968812
0.0993498
0.101648
0.103778
0.105746
0.107553
0.109203
0.110696
0.112031
0.113204
0.114207
0.115029
0.115651
0.116042
0.116171
0.115994
0.115435
0.1144
0.10807
0.0988534
0.0896082
0.0804735
0.0715664
0.0629745
0.0547677
0.0470026
0.0397265
0.0329806
0.026803
0.0212282
0.0162978
0.0120494
0.00851241
0.00570236
0.00360154
0.00214116
0.00120233
0.00064238
0.00032792
0.000161329
7.74286e-05
3.64063e-05
1.68033e-05
7.62625e-06
3.40868e-06
1.5025e-06
6.5396e-07
2.81405e-07
1.19854e-07
5.05752e-08
2.11563e-08
8.76985e-09
3.5923e-09
1.44088e-09
5.51012e-10
1.8396e-10
3.22247e-11
3.6762e-07
1.60662e-06
3.69066e-06
7.18421e-06
1.30117e-05
2.26695e-05
3.85466e-05
6.43962e-05
0.000106008
0.000172122
0.000275604
0.000434835
0.000675145
0.00102995
0.001541
0.00225708
0.00323062
0.00451224
0.00614425
0.00815491
0.010555
0.0133376
0.0164802
0.0199485
0.0237004
0.0276889
0.0318651
0.0361802
0.0405871
0.0450412
0.0495015
0.0539309
0.0582969
0.0625715
0.066731
0.0707561
0.074631
0.0783433
0.0818844
0.0852484
0.0884324
0.0914351
0.0942575
0.0969016
0.0993705
0.101668
0.103798
0.105764
0.107569
0.109216
0.110705
0.112035
0.113203
0.114201
0.115017
0.115633
0.116019
0.116143
0.115962
0.115402
0.114375
0.107562
0.0983308
0.0890815
0.0799553
0.0710627
0.0624903
0.0543069
0.0465685
0.0393218
0.032608
0.0264649
0.0209266
0.0160352
0.0118277
0.00833305
0.00556502
0.00350329
0.00207597
0.0011621
0.000618929
0.000316237
0.000155687
7.46181e-05
3.50353e-05
1.61591e-05
7.3314e-06
3.27635e-06
1.44407e-06
6.28535e-07
2.70484e-07
1.15216e-07
4.86254e-08
2.03442e-08
8.43447e-09
3.45551e-09
1.38611e-09
5.30183e-10
1.76992e-10
3.10083e-11
3.66672e-07
1.60248e-06
3.68115e-06
7.16567e-06
1.29781e-05
2.26109e-05
3.84466e-05
6.42293e-05
0.000105734
0.00017168
0.000274904
0.000433748
0.000673498
0.00102751
0.0015375
0.00225223
0.00322411
0.00450381
0.00613376
0.00814232
0.0105404
0.0133213
0.0164625
0.01993
0.0236814
0.02767
0.0318468
0.036163
0.0405714
0.0450274
0.0494899
0.0539218
0.0582905
0.0625678
0.0667301
0.0707579
0.0746354
0.0783501
0.0818934
0.0852593
0.0884448
0.0914487
0.0942718
0.0969161
0.0993847
0.101681
0.10381
0.105774
0.107576
0.10922
0.110706
0.112032
0.113195
0.114188
0.114998
0.115609
0.115989
0.116109
0.115926
0.115368
0.11435
0.10715
0.0979059
0.0886531
0.0795325
0.0706517
0.0620956
0.0539319
0.0462157
0.0389935
0.0323061
0.0261911
0.0206826
0.0158229
0.0116489
0.00818858
0.00545468
0.00342463
0.00202403
0.00113026
0.000600546
0.000305975
0.000150464
7.2231e-05
3.39305e-05
1.56437e-05
7.09461e-06
3.16982e-06
1.39704e-06
6.08094e-07
2.61709e-07
1.11492e-07
4.70604e-08
1.9693e-08
8.16544e-09
3.34652e-09
1.34235e-09
5.13638e-10
1.71453e-10
3.0042e-11
3.65936e-07
1.59926e-06
3.67376e-06
7.15128e-06
1.2952e-05
2.25653e-05
3.83692e-05
6.41001e-05
0.000105522
0.000171338
0.000274363
0.00043291
0.00067223
0.00102564
0.00153483
0.00224851
0.00321913
0.00449739
0.00612578
0.00813277
0.0105294
0.013309
0.0164493
0.0199161
0.0236673
0.0276559
0.0318333
0.0361504
0.04056
0.0450175
0.0494817
0.0539155
0.0582861
0.0625653
0.0667295
0.0707592
0.0746385
0.0783548
0.0818995
0.0852666
0.0884529
0.0914574
0.0942806
0.0969247
0.0993926
0.101688
0.103815
0.105777
0.107577
0.109217
0.110699
0.112021
0.11318
0.114168
0.114973
0.11558
0.115956
0.116075
0.115892
0.115337
0.114327
0.106826
0.0975659
0.0883108
0.0791953
0.0703248
0.0617825
0.0536352
0.0459373
0.0387351
0.032069
0.0259764
0.0204916
0.015657
0.0115093
0.00807608
0.00536899
0.00336372
0.00198396
0.00110585
0.000586653
0.000298486
0.000146601
7.0294e-05
3.30404e-05
1.52432e-05
6.91307e-06
3.08819e-06
1.3608e-06
5.92292e-07
2.54909e-07
1.08609e-07
4.58488e-08
1.91915e-08
7.95865e-09
3.26308e-09
1.30886e-09
5.00987e-10
1.67216e-10
2.93031e-11
3.65396e-07
1.59691e-06
3.66835e-06
7.14075e-06
1.29329e-05
2.25321e-05
3.83126e-05
6.40057e-05
0.000105367
0.000171089
0.000273969
0.000432301
0.000671308
0.00102429
0.00153288
0.00224582
0.00321553
0.00449275
0.00612003
0.0081259
0.0105215
0.0133002
0.0164398
0.0199062
0.0236572
0.027646
0.0318238
0.0361415
0.040552
0.0450105
0.0494759
0.053911
0.0582829
0.0625634
0.0667288
0.0707596
0.0746399
0.0783571
0.0819025
0.0852702
0.0884569
0.0914614
0.0942844
0.0969279
0.099395
0.101689
0.103814
0.105774
0.107571
0.109208
0.110687
0.112005
0.113159
0.114143
0.114945
0.115549
0.115925
0.116046
0.115872
0.115336
0.114366
0.106584
0.09731
0.0880515
0.0789396
0.0700772
0.0615462
0.053412
0.0457287
0.038542
0.0318923
0.025817
0.02035
0.0155344
0.0114064
0.00799336
0.00530617
0.00331922
0.00195475
0.00108807
0.000576546
0.000293057
0.000143814
6.89106e-05
3.23605e-05
1.4925e-05
6.77314e-06
3.02735e-06
1.33443e-06
5.80917e-07
2.50049e-07
1.06564e-07
4.49893e-08
1.88368e-08
7.8119e-09
3.20368e-09
1.28502e-09
4.91959e-10
1.64189e-10
2.87747e-11
3.65044e-07
1.59537e-06
3.66482e-06
7.13387e-06
1.29205e-05
2.25104e-05
3.82757e-05
6.39442e-05
0.000105267
0.000170927
0.000273713
0.000431905
0.00067071
0.00102341
0.00153162
0.00224408
0.0032132
0.00448976
0.00611631
0.00812148
0.0105164
0.0132945
0.0164337
0.0198998
0.0236508
0.0276397
0.0318177
0.0361359
0.0405469
0.0450061
0.0494722
0.053908
0.0582807
0.0625619
0.0667279
0.0707592
0.0746399
0.0783575
0.0819032
0.085271
0.0884576
0.0914619
0.0942845
0.0969273
0.0993933
0.101686
0.103809
0.105767
0.107562
0.109196
0.110671
0.111986
0.113137
0.114117
0.114915
0.115515
0.115889
0.116011
0.115839
0.115311
0.114353
0.106427
0.0971368
0.0878733
0.0787633
0.0699069
0.0613843
0.05326
0.0455874
0.038412
0.031774
0.0257106
0.020256
0.0154532
0.0113385
0.00793905
0.00526513
0.00329029
0.00193585
0.00107659
0.000570004
0.000289543
0.000142015
6.80283e-05
3.19482e-05
1.47298e-05
6.68344e-06
2.9866e-06
1.31676e-06
5.73457e-07
2.46865e-07
1.05239e-07
4.44327e-08
1.86084e-08
7.71745e-09
3.16559e-09
1.26973e-09
4.86184e-10
1.62249e-10
2.84365e-11
3.64873e-07
1.59462e-06
3.6631e-06
7.13055e-06
1.29144e-05
2.24999e-05
3.8258e-05
6.39148e-05
0.000105219
0.00017085
0.000273592
0.000431717
0.000670426
0.00102299
0.00153103
0.00224325
0.0032121
0.00448834
0.00611456
0.00811938
0.010514
0.0132919
0.0164308
0.0198968
0.0236477
0.0276367
0.0318148
0.0361332
0.0405445
0.045004
0.0494704
0.0539066
0.0582796
0.0625611
0.0667273
0.0707587
0.0746393
0.0783569
0.0819025
0.0852702
0.0884567
0.0914607
0.0942829
0.0969251
0.0993903
0.101682
0.103804
0.10576
0.107553
0.109186
0.110659
0.111971
0.113119
0.114096
0.114891
0.115489
0.115861
0.115981
0.115812
0.115289
0.114345
0.10635
0.0970463
0.0877784
0.0786693
0.0698168
0.0612995
0.0531812
0.045515
0.038346
0.0317145
0.0256577
0.0202098
0.0154136
0.0113057
0.00791299
0.00524559
0.00327664
0.00192702
0.00107126
0.00056698
0.000287916
0.000141188
6.76229e-05
3.17612e-05
1.46414e-05
6.6434e-06
2.96832e-06
1.30846e-06
5.69872e-07
2.45313e-07
1.04592e-07
4.41605e-08
1.84968e-08
7.67136e-09
3.14701e-09
1.26229e-09
4.83371e-10
1.61304e-10
2.82716e-11
3.64874e-07
1.59463e-06
3.66311e-06
7.13057e-06
1.29145e-05
2.25e-05
3.82581e-05
6.3915e-05
0.000105219
0.00017085
0.000273592
0.000431718
0.000670428
0.00102299
0.00153103
0.00224326
0.00321211
0.00448835
0.00611457
0.00811939
0.010514
0.0132919
0.0164308
0.0198968
0.0236478
0.0276367
0.0318148
0.0361332
0.0405445
0.045004
0.0494704
0.0539066
0.0582796
0.0625611
0.0667274
0.0707587
0.0746393
0.0783569
0.0819025
0.0852702
0.0884567
0.0914607
0.0942829
0.0969251
0.0993903
0.101682
0.103804
0.10576
0.107553
0.109186
0.110659
0.111971
0.113119
0.114096
0.114891
0.115489
0.115861
0.115981
0.115812
0.115289
0.114345
0.10635
0.0970463
0.0877784
0.0786693
0.0698168
0.0612994
0.0531812
0.045515
0.038346
0.0317145
0.0256577
0.0202098
0.0154136
0.0113057
0.007913
0.0052456
0.00327665
0.00192702
0.00107126
0.000566982
0.000287917
0.000141189
6.76233e-05
3.17609e-05
1.46413e-05
6.64298e-06
2.9684e-06
1.30838e-06
5.6986e-07
2.45309e-07
1.0459e-07
4.416e-08
1.84965e-08
7.67125e-09
3.14695e-09
1.26226e-09
4.83354e-10
1.613e-10
2.82704e-11
3.65048e-07
1.59539e-06
3.66485e-06
7.13394e-06
1.29206e-05
2.25106e-05
3.82761e-05
6.39448e-05
0.000105268
0.000170928
0.000273716
0.000431908
0.000670715
0.00102341
0.00153163
0.00224409
0.00321322
0.00448978
0.00611634
0.00812151
0.0105165
0.0132946
0.0164338
0.0198999
0.0236509
0.0276398
0.0318178
0.0361359
0.040547
0.0450062
0.0494723
0.0539081
0.0582808
0.062562
0.066728
0.0707593
0.0746399
0.0783575
0.0819032
0.085271
0.0884577
0.091462
0.0942845
0.0969273
0.0993933
0.101686
0.103809
0.105767
0.107562
0.109196
0.110671
0.111986
0.113137
0.114117
0.114915
0.115515
0.115889
0.116011
0.115839
0.115311
0.114353
0.106426
0.0971367
0.0878732
0.0787632
0.0699069
0.0613842
0.0532599
0.0455874
0.0384119
0.0317739
0.0257106
0.020256
0.0154532
0.0113385
0.00793907
0.00526515
0.00329031
0.00193586
0.00107659
0.000570009
0.000289546
0.000142017
6.80295e-05
3.19478e-05
1.47296e-05
6.68253e-06
2.98667e-06
1.31656e-06
5.73421e-07
2.46856e-07
1.05235e-07
4.44314e-08
1.86077e-08
7.7172e-09
3.16542e-09
1.26967e-09
4.86136e-10
1.62238e-10
2.84332e-11
3.65402e-07
1.59693e-06
3.66841e-06
7.14086e-06
1.29331e-05
2.25324e-05
3.83132e-05
6.40067e-05
0.000105369
0.000171092
0.000273973
0.000432307
0.000671317
0.0010243
0.0015329
0.00224584
0.00321557
0.0044928
0.00612008
0.00812597
0.0105216
0.0133003
0.0164399
0.0199063
0.0236573
0.0276461
0.0318239
0.0361416
0.0405521
0.0450107
0.049476
0.0539111
0.058283
0.0625635
0.0667289
0.0707597
0.0746399
0.0783572
0.0819026
0.0852703
0.0884569
0.0914615
0.0942845
0.096928
0.099395
0.101689
0.103814
0.105774
0.107571
0.109208
0.110687
0.112005
0.113159
0.114143
0.114945
0.115549
0.115925
0.116046
0.115872
0.115336
0.114366
0.106584
0.0973099
0.0880513
0.0789394
0.0700771
0.061546
0.0534118
0.0457286
0.0385419
0.0318923
0.025817
0.02035
0.0155344
0.0114064
0.00799339
0.0053062
0.00331925
0.00195477
0.00108809
0.000576554
0.000293063
0.000143817
6.89119e-05
3.23609e-05
1.49252e-05
6.77312e-06
3.0274e-06
1.33453e-06
5.80941e-07
2.50053e-07
1.06563e-07
4.49888e-08
1.88362e-08
7.81164e-09
3.20348e-09
1.28494e-09
4.91892e-10
1.64173e-10
2.87701e-11
3.65944e-07
1.5993e-06
3.67384e-06
7.15143e-06
1.29523e-05
2.25658e-05
3.837e-05
6.41014e-05
0.000105524
0.000171342
0.000274368
0.000432918
0.000672242
0.00102566
0.00153485
0.00224855
0.00321918
0.00449745
0.00612585
0.00813286
0.0105295
0.0133091
0.0164494
0.0199162
0.0236674
0.0276561
0.0318334
0.0361505
0.0405602
0.0450177
0.0494818
0.0539156
0.0582862
0.0625655
0.0667297
0.0707594
0.0746386
0.0783549
0.0818996
0.0852667
0.088453
0.0914574
0.0942807
0.0969247
0.0993927
0.101688
0.103815
0.105777
0.107577
0.109217
0.110699
0.112021
0.11318
0.114168
0.114973
0.11558
0.115956
0.116075
0.115892
0.115337
0.114327
0.106825
0.0975656
0.0883105
0.079195
0.0703245
0.0617822
0.0536349
0.0459371
0.0387349
0.0320688
0.0259763
0.0204915
0.015657
0.0115093
0.0080761
0.00536902
0.00336375
0.00198398
0.00110586
0.000586664
0.000298493
0.000146605
7.02957e-05
3.30412e-05
1.52435e-05
6.91318e-06
3.08825e-06
1.36082e-06
5.9231e-07
2.54917e-07
1.08612e-07
4.58499e-08
1.91916e-08
7.95865e-09
3.26293e-09
1.30882e-09
5.00918e-10
1.67202e-10
2.92978e-11
3.66682e-07
1.60252e-06
3.68125e-06
7.16586e-06
1.29784e-05
2.26115e-05
3.84476e-05
6.4231e-05
0.000105737
0.000171684
0.00027491
0.000433758
0.000673513
0.00102754
0.00153754
0.00225227
0.00322417
0.00450389
0.00613385
0.00814243
0.0105406
0.0133214
0.0164627
0.0199301
0.0236816
0.0276702
0.031847
0.0361632
0.0405716
0.0450276
0.0494901
0.053922
0.0582907
0.062568
0.0667303
0.0707581
0.0746355
0.0783503
0.0818935
0.0852594
0.0884449
0.0914488
0.0942719
0.0969162
0.0993848
0.101681
0.10381
0.105774
0.107576
0.10922
0.110706
0.112032
0.113195
0.114188
0.114998
0.115609
0.115989
0.116109
0.115926
0.115368
0.11435
0.107149
0.0979054
0.0886526
0.0795319
0.0706512
0.0620951
0.0539314
0.0462152
0.0389931
0.0323058
0.0261908
0.0206824
0.0158228
0.0116488
0.00818857
0.0054547
0.00342466
0.00202405
0.00113028
0.000600559
0.000305982
0.000150468
7.2233e-05
3.39314e-05
1.56441e-05
7.09483e-06
3.16997e-06
1.39711e-06
6.08122e-07
2.61721e-07
1.11497e-07
4.70626e-08
1.96937e-08
8.16584e-09
3.34641e-09
1.34237e-09
5.13575e-10
1.71444e-10
3.0037e-11
3.67632e-07
1.60667e-06
3.69078e-06
7.18444e-06
1.30121e-05
2.26703e-05
3.85478e-05
6.43982e-05
0.000106011
0.000172127
0.000275612
0.000434846
0.000675163
0.00102997
0.00154103
0.00225713
0.00323069
0.00451233
0.00614436
0.00815504
0.0105552
0.0133377
0.0164804
0.0199487
0.0237006
0.0276891
0.0318653
0.0361805
0.0405874
0.0450415
0.0495017
0.0539311
0.0582971
0.0625717
0.0667312
0.0707563
0.0746312
0.0783435
0.0818845
0.0852486
0.0884325
0.0914352
0.0942576
0.0969017
0.0993706
0.101668
0.103798
0.105764
0.107569
0.109216
0.110705
0.112035
0.113203
0.114201
0.115017
0.115633
0.116019
0.116143
0.115962
0.115402
0.114375
0.107562
0.0983299
0.0890805
0.0799542
0.0710616
0.0624892
0.0543059
0.0465675
0.039321
0.0326074
0.0264643
0.0209262
0.0160349
0.0118276
0.00833297
0.005565
0.0035033
0.00207599
0.00116211
0.00061894
0.000316244
0.000155691
7.46202e-05
3.50366e-05
1.61597e-05
7.33173e-06
3.27651e-06
1.44414e-06
6.28568e-07
2.70498e-07
1.15222e-07
4.8628e-08
2.03452e-08
8.43492e-09
3.45564e-09
1.38619e-09
5.30163e-10
1.76997e-10
3.10059e-11
3.6881e-07
1.61182e-06
3.7026e-06
7.20747e-06
1.3054e-05
2.27433e-05
3.86723e-05
6.46065e-05
0.000106354
0.00017268
0.000276489
0.000436211
0.000677235
0.00103304
0.00154545
0.00226327
0.00323895
0.00452304
0.00615774
0.00817114
0.0105739
0.0133587
0.0165032
0.0199729
0.0237255
0.027714
0.0318896
0.0362035
0.0406086
0.0450604
0.0495178
0.0539441
0.0583067
0.0625777
0.0667336
0.0707551
0.0746265
0.0783355
0.0818735
0.0852348
0.0884163
0.0914172
0.0942381
0.0968813
0.0993499
0.101648
0.103778
0.105746
0.107553
0.109203
0.110696
0.112031
0.113204
0.114207
0.115029
0.115651
0.116042
0.116171
0.115994
0.115434
0.1144
0.108069
0.0988519
0.0896065
0.0804714
0.0715641
0.0629723
0.0547657
0.0470008
0.0397248
0.0329792
0.0268019
0.0212273
0.0162972
0.012049
0.00851219
0.00570226
0.0036015
0.00214115
0.00120234
0.000642387
0.000327925
0.000161333
7.74308e-05
3.64075e-05
1.6804e-05
7.62659e-06
3.40884e-06
1.50257e-06
6.53995e-07
2.8142e-07
1.19861e-07
5.05781e-08
2.11576e-08
8.77038e-09
3.5925e-09
1.44096e-09
5.51035e-10
1.83975e-10
3.2226e-11
3.70231e-07
1.61803e-06
3.71687e-06
7.23531e-06
1.31045e-05
2.28318e-05
3.88233e-05
6.48594e-05
0.00010677
0.000173355
0.000277561
0.00043788
0.000679777
0.00103681
0.00155088
0.00227087
0.0032492
0.00453637
0.00617444
0.00819132
0.0105974
0.0133853
0.0165322
0.0200037
0.0237574
0.0277462
0.0319213
0.0362339
0.0406369
0.045086
0.0495402
0.0539627
0.0583211
0.0625876
0.066739
0.070756
0.0746228
0.0783275
0.0818614
0.085219
0.0883973
0.0913954
0.0942141
0.0968556
0.0993232
0.101621
0.103752
0.10572
0.10753
0.109182
0.110678
0.112017
0.113195
0.114204
0.115032
0.11566
0.116058
0.116192
0.116019
0.115461
0.114421
0.108678
0.0994737
0.090227
0.0810894
0.072166
0.0635527
0.0553197
0.047524
0.0402133
0.0334291
0.0272105
0.0215921
0.0166152
0.0123178
0.00873033
0.00587
0.00372224
0.00222202
0.00125303
0.000668886
0.000341853
0.000168592
8.10155e-05
3.81164e-05
1.75995e-05
7.98969e-06
3.57161e-06
1.57436e-06
6.85205e-07
2.94815e-07
1.25545e-07
5.29664e-08
2.21521e-08
9.18084e-09
3.76e-09
1.50797e-09
5.76621e-10