/*--------------------------------*- C++ -*----------------------------------*\
  =========                 |
  \\      /  F ield         | OpenFOAM: The Open Source CFD Toolbox
   \\    /   O peration     | Website:  https://openfoam.org
    \\  /    A nd           | Version:  8
     \\/     M anipulation  |
\*---------------------------------------------------------------------------*/
FoamFile
{
    version     2.0;
    format      ascii;
    class       volScalarField;
    location    "760/fluid";
    object      N2;
}
// * * * * * * * * * * * * * * * * * * * * * * * * * * * * * * * * * * * * * //

dimensions      [0 0 0 0 0 0 0];

internalField   nonuniform List<scalar> 
4000
(
2.31049e-06
1.00959e-05
2.31861e-05
4.51258e-05
8.17406e-05
0.000142508
0.000242668
0.000406371
0.000671248
0.00109473
0.00176228
0.00279726
0.00437091
0.0067098
0.0100959
0.0148541
0.0213243
0.0298185
0.040575
0.0537224
0.0692648
0.0870909
0.106997
0.128718
0.151952
0.176386
0.201706
0.227614
0.253832
0.280106
0.30621
0.331949
0.357154
0.381689
0.405444
0.428331
0.450285
0.47126
0.491228
0.510178
0.528111
0.545038
0.56098
0.575964
0.590023
0.603192
0.615512
0.627022
0.637765
0.647781
0.657114
0.665802
0.673887
0.681407
0.688398
0.694895
0.700934
0.706469
0.711553
0.716414
0.720936
0.725145
0.729012
0.732725
0.736276
0.739671
0.742912
0.745997
0.748927
0.751698
0.754306
0.756746
0.75901
0.761079
0.762964
0.764639
0.766089
0.767295
0.768244
0.768938
0.769403
0.769686
0.769845
0.769926
0.769966
0.769985
0.769993
0.769997
0.769999
0.769999
0.77
0.77
0.77
0.77
0.77
0.77
0.77
0.77
0.77
0.77
2.31375e-06
1.01127e-05
2.32354e-05
4.52514e-05
8.20279e-05
0.000143108
0.000243812
0.000408362
0.000674363
0.00109893
0.00176663
0.00279879
0.00436325
0.00668081
0.0100256
0.0147139
0.0210776
0.0294256
0.0399988
0.0529356
0.0682551
0.0858622
0.105569
0.127122
0.150227
0.174574
0.199851
0.225755
0.252005
0.278341
0.304531
0.330373
0.355696
0.380357
0.404243
0.427262
0.449346
0.470447
0.490536
0.5096
0.527638
0.544663
0.560695
0.575759
0.58989
0.603124
0.615502
0.627062
0.637848
0.647903
0.657267
0.665983
0.674091
0.681629
0.688636
0.695146
0.701194
0.706734
0.711821
0.716687
0.721211
0.725417
0.72929
0.733012
0.736571
0.739973
0.74322
0.74631
0.749243
0.752016
0.754625
0.757062
0.75932
0.761378
0.763246
0.764897
0.766313
0.767478
0.768382
0.769031
0.769458
0.769715
0.769858
0.769932
0.769968
0.769985
0.769994
0.769997
0.769999
0.769999
0.77
0.77
0.77
0.77
0.77
0.77
0.77
0.77
0.77
0.77
2.32028e-06
1.01425e-05
2.33097e-05
4.54098e-05
8.23381e-05
0.000143675
0.000244781
0.0004099
0.000676591
0.00110176
0.00176938
0.00279945
0.00435686
0.00665833
0.00997253
0.014609
0.0208931
0.0291281
0.0395538
0.0523114
0.067428
0.0848201
0.104313
0.125665
0.148594
0.172798
0.19797
0.22381
0.250035
0.276384
0.30262
0.328538
0.35396
0.37874
0.402757
0.425918
0.448149
0.469398
0.489634
0.508841
0.527017
0.544171
0.560324
0.5755
0.589734
0.603064
0.615524
0.627159
0.638011
0.648123
0.657538
0.666297
0.674441
0.68201
0.689041
0.695571
0.701635
0.707179
0.712269
0.717133
0.721647
0.725851
0.729742
0.733477
0.737046
0.740453
0.743701
0.746791
0.749719
0.752483
0.755078
0.757496
0.759729
0.761759
0.763587
0.76519
0.766553
0.767661
0.76851
0.769112
0.769504
0.769739
0.769869
0.769937
0.76997
0.769986
0.769994
0.769997
0.769999
0.769999
0.77
0.77
0.77
0.77
0.77
0.77
0.77
0.77
0.77
0.77
2.31931e-06
1.01382e-05
2.32994e-05
4.53864e-05
8.22817e-05
0.00014353
0.000244407
0.000408971
0.000674406
0.00109693
0.00175935
0.00277989
0.00432108
0.00659628
0.00986987
0.0144468
0.0206484
0.0287759
0.0390696
0.0516744
0.0666239
0.0838425
0.103164
0.124355
0.14714
0.171224
0.196302
0.222079
0.248272
0.274619
0.300884
0.326857
0.352359
0.377237
0.401369
0.424656
0.447021
0.46841
0.488786
0.508133
0.526445
0.543731
0.560009
0.575303
0.589647
0.603072
0.615622
0.627338
0.638261
0.648436
0.657905
0.666711
0.674894
0.682496
0.689554
0.696105
0.702184
0.707725
0.712806
0.717669
0.722191
0.726389
0.730296
0.734036
0.737608
0.741015
0.744258
0.747338
0.750253
0.752999
0.75557
0.757958
0.760155
0.762149
0.763929
0.76548
0.766788
0.76784
0.768635
0.769193
0.769552
0.769764
0.769882
0.769943
0.769973
0.769988
0.769994
0.769998
0.769999
0.77
0.77
0.77
0.77
0.77
0.77
0.77
0.77
0.77
0.77
0.77
2.31162e-06
1.01041e-05
2.32191e-05
4.52238e-05
8.19704e-05
0.000142947
0.000243326
0.000406979
0.000670761
0.00109033
0.00174759
0.00275934
0.00428604
0.0065382
0.0097767
0.0143027
0.0204344
0.0284711
0.0386536
0.0511302
0.0659394
0.0830126
0.10219
0.123247
0.145912
0.169894
0.194894
0.220617
0.246783
0.273128
0.299416
0.325435
0.351003
0.375965
0.400196
0.423593
0.446077
0.467589
0.488092
0.507565
0.526
0.543406
0.559799
0.575205
0.589648
0.603167
0.615802
0.627594
0.638585
0.648819
0.65834
0.667189
0.675409
0.683041
0.690122
0.696692
0.702777
0.708298
0.713386
0.718262
0.722782
0.726943
0.730877
0.734621
0.738191
0.741592
0.744826
0.747893
0.750789
0.753512
0.756054
0.75841
0.760565
0.762517
0.764249
0.765749
0.767002
0.768
0.768747
0.769263
0.769592
0.769786
0.769893
0.769948
0.769976
0.769989
0.769995
0.769998
0.769999
0.77
0.77
0.77
0.77
0.77
0.77
0.77
0.77
0.77
0.77
0.77
2.29863e-06
1.00467e-05
2.30845e-05
4.49539e-05
8.14627e-05
0.000142021
0.000241668
0.000404048
0.000665643
0.00108151
0.00173264
0.00273447
0.00424563
0.00647424
0.00967847
0.0141569
0.0202255
0.0281832
0.0382716
0.0506421
0.0653377
0.0822949
0.10136
0.12231
0.144883
0.168788
0.193729
0.219414
0.245561
0.27191
0.298222
0.324284
0.349911
0.374947
0.399264
0.422757
0.445345
0.466966
0.48758
0.507165
0.525711
0.543225
0.559719
0.575215
0.589746
0.603348
0.616057
0.627915
0.638966
0.649251
0.658815
0.667701
0.67595
0.683603
0.690701
0.697278
0.703375
0.708892
0.713995
0.718872
0.723386
0.727508
0.731441
0.735186
0.738753
0.742146
0.745368
0.748418
0.751294
0.753992
0.756505
0.758828
0.760944
0.762856
0.764541
0.765991
0.767194
0.768143
0.768846
0.769326
0.769629
0.769806
0.769903
0.769953
0.769978
0.76999
0.769995
0.769998
0.769999
0.77
0.77
0.77
0.77
0.77
0.77
0.77
0.77
0.77
0.77
0.77
2.2833e-06
9.97934e-06
2.29279e-05
4.46437e-05
8.08881e-05
0.000140993
0.000239866
0.000400935
0.000660336
0.00107259
0.00171787
0.00271045
0.00420737
0.00641478
0.00958861
0.0140253
0.0200394
0.0279293
0.0379383
0.0502202
0.0648221
0.0816849
0.100659
0.121527
0.144028
0.167875
0.192775
0.218434
0.244574
0.270933
0.29727
0.323374
0.349056
0.374159
0.398553
0.42213
0.444807
0.46652
0.487228
0.506906
0.525549
0.543154
0.559734
0.575314
0.589922
0.603593
0.616366
0.628281
0.63938
0.649708
0.659307
0.668221
0.676492
0.684161
0.691266
0.697847
0.703941
0.70941
0.714636
0.719482
0.723973
0.728062
0.731982
0.735718
0.739276
0.742658
0.745866
0.748898
0.751753
0.754425
0.75691
0.759198
0.76127
0.763142
0.764791
0.766202
0.767362
0.768268
0.768931
0.76938
0.76966
0.769823
0.769912
0.769957
0.76998
0.769991
0.769996
0.769998
0.769999
0.77
0.77
0.77
0.77
0.77
0.77
0.77
0.77
0.77
0.77
0.77
2.26723e-06
9.90886e-06
2.27646e-05
4.43218e-05
8.02952e-05
0.000139939
0.000238032
0.000397797
0.000655042
0.00106379
0.00170348
0.00268737
0.00417112
0.00635924
0.0095059
0.0139059
0.0198728
0.0277053
0.0376476
0.0498565
0.0643824
0.0811698
0.100073
0.120878
0.143325
0.167131
0.192002
0.217647
0.243788
0.270161
0.296527
0.32267
0.348404
0.373568
0.39803
0.421683
0.44444
0.466237
0.487029
0.50679
0.525508
0.543186
0.559838
0.575486
0.590157
0.603885
0.61671
0.62867
0.639809
0.65017
0.659798
0.668734
0.677023
0.684705
0.691821
0.69841
0.704481
0.709947
0.715178
0.720018
0.724499
0.728571
0.73248
0.736206
0.739753
0.743123
0.746316
0.749331
0.752165
0.754813
0.75727
0.759529
0.761573
0.763409
0.765019
0.766389
0.767509
0.768375
0.769004
0.769426
0.769687
0.769838
0.769919
0.769961
0.769982
0.769991
0.769996
0.769998
0.769999
0.77
0.77
0.77
0.77
0.77
0.77
0.77
0.77
0.77
0.77
0.77
2.25161e-06
9.84044e-06
2.26065e-05
4.40113e-05
7.9726e-05
0.000138933
0.000236293
0.000394842
0.000650097
0.00105564
0.00169027
0.00266637
0.00413844
0.00630963
0.00943266
0.0138011
0.0197279
0.0275118
0.0373986
0.0495473
0.0640114
0.0807387
0.0995861
0.120342
0.14275
0.166527
0.191381
0.217021
0.243168
0.269559
0.295954
0.322136
0.347918
0.373136
0.397658
0.421375
0.444198
0.466062
0.486926
0.506757
0.525543
0.543287
0.56
0.575704
0.590427
0.604202
0.617068
0.629064
0.640234
0.650621
0.660269
0.669221
0.67752
0.685207
0.692324
0.698908
0.704956
0.710416
0.71564
0.720472
0.724944
0.729012
0.732918
0.736637
0.740175
0.743533
0.746711
0.749707
0.752519
0.755142
0.757571
0.759798
0.76181
0.763611
0.765187
0.766527
0.767624
0.768465
0.769066
0.769465
0.76971
0.76985
0.769925
0.769964
0.769983
0.769992
0.769996
0.769998
0.769999
0.77
0.77
0.77
0.77
0.77
0.77
0.77
0.77
0.77
0.77
0.77
2.23706e-06
9.77677e-06
2.24597e-05
4.37235e-05
7.91999e-05
0.000138006
0.000234697
0.000392141
0.0006456
0.00104827
0.0016784
0.00264761
0.00410944
0.00626593
0.00936861
0.0137101
0.0196029
0.0273463
0.0371872
0.0492868
0.0637012
0.0803808
0.0991851
0.119905
0.142284
0.166042
0.190886
0.216527
0.242684
0.269096
0.29552
0.32174
0.347565
0.372834
0.397411
0.421186
0.44407
0.465994
0.486913
0.5068
0.525641
0.543437
0.5602
0.57595
0.590715
0.604527
0.617425
0.62945
0.640643
0.651049
0.660712
0.669674
0.67798
0.68567
0.692787
0.699368
0.705399
0.710846
0.71606
0.72088
0.725339
0.729404
0.733307
0.737023
0.740554
0.743902
0.747068
0.75005
0.752845
0.755448
0.757854
0.760056
0.762048
0.763824
0.765369
0.766674
0.767728
0.768541
0.769119
0.769498
0.769729
0.76986
0.769931
0.769967
0.769984
0.769993
0.769997
0.769999
0.769999
0.77
0.77
0.77
0.77
0.77
0.77
0.77
0.77
0.77
0.77
0.77
2.22394e-06
9.71938e-06
2.23275e-05
4.34649e-05
7.8728e-05
0.000137176
0.000233274
0.000389742
0.00064162
0.00104178
0.00166798
0.00263123
0.00408427
0.00622818
0.0093136
0.0136324
0.0194968
0.0272065
0.0370097
0.0490695
0.0634441
0.0800862
0.0988573
0.11955
0.141909
0.165655
0.190496
0.216141
0.242312
0.268745
0.295196
0.32145
0.347315
0.372626
0.397249
0.421072
0.444007
0.465982
0.486952
0.506888
0.525776
0.543616
0.56042
0.576206
0.591004
0.604846
0.61777
0.629816
0.641027
0.651446
0.661119
0.670088
0.678398
0.686089
0.693204
0.699781
0.705798
0.711232
0.716437
0.721244
0.725686
0.729752
0.73365
0.737358
0.740879
0.744217
0.747368
0.750334
0.753111
0.755694
0.758083
0.76027
0.762247
0.764001
0.765522
0.7668
0.767827
0.768607
0.769163
0.769526
0.769745
0.769869
0.769935
0.769969
0.769985
0.769993
0.769997
0.769999
0.769999
0.77
0.77
0.77
0.77
0.77
0.77
0.77
0.77
0.77
0.77
0.77
2.21238e-06
9.66886e-06
2.22112e-05
4.32377e-05
7.83143e-05
0.000136451
0.000232031
0.000387653
0.000638164
0.00103616
0.001659
0.00261717
0.00406274
0.00619604
0.00926696
0.0135668
0.0194077
0.0270898
0.0368623
0.04889
0.0632329
0.0798458
0.0985918
0.119264
0.14161
0.165349
0.19019
0.215844
0.242029
0.268482
0.29496
0.321245
0.347146
0.372497
0.397161
0.421027
0.444002
0.466019
0.48703
0.507006
0.525932
0.543808
0.560644
0.57646
0.591284
0.605149
0.618092
0.630154
0.641378
0.651808
0.661487
0.67046
0.67877
0.68646
0.69357
0.700138
0.706146
0.711573
0.716767
0.721563
0.725992
0.730057
0.733951
0.737652
0.741165
0.74449
0.747629
0.750583
0.753349
0.755924
0.7583
0.760468
0.762423
0.764154
0.765652
0.766907
0.767911
0.768669
0.769201
0.769549
0.769759
0.769876
0.769939
0.769971
0.769986
0.769994
0.769997
0.769999
0.769999
0.77
0.77
0.77
0.77
0.77
0.77
0.77
0.77
0.77
0.77
0.77
2.20242e-06
9.6253e-06
2.2111e-05
4.30421e-05
7.79586e-05
0.000135828
0.000230967
0.000385867
0.000635219
0.00103138
0.00165139
0.00260529
0.00404461
0.00616906
0.00922796
0.0135122
0.0193339
0.0269934
0.0367412
0.0487432
0.0630613
0.0796516
0.0983786
0.119037
0.141374
0.16511
0.189954
0.215616
0.241816
0.268288
0.29479
0.321103
0.347034
0.372418
0.397117
0.421019
0.44403
0.466083
0.487129
0.507137
0.526094
0.543999
0.560861
0.576701
0.591546
0.605428
0.618386
0.630461
0.641694
0.652129
0.661813
0.670787
0.679096
0.686782
0.693885
0.70045
0.70645
0.711867
0.717051
0.721836
0.726252
0.730318
0.734208
0.737904
0.741409
0.744729
0.747864
0.750809
0.753564
0.756124
0.758484
0.760636
0.762572
0.764284
0.765763
0.766997
0.767981
0.768719
0.769236
0.769569
0.76977
0.769882
0.769942
0.769972
0.769987
0.769994
0.769997
0.769999
0.769999
0.77
0.77
0.77
0.77
0.77
0.77
0.77
0.77
0.77
0.77
0.77
2.19399e-06
9.58848e-06
2.20264e-05
4.28771e-05
7.76588e-05
0.000135304
0.000230072
0.000384369
0.000632752
0.00102739
0.00164505
0.00259541
0.00402957
0.00614677
0.00919583
0.0134674
0.0192734
0.0269148
0.0366428
0.0486246
0.0629233
0.0794963
0.0982093
0.118858
0.141189
0.164925
0.189773
0.215445
0.241658
0.268148
0.294672
0.321009
0.346967
0.372379
0.397107
0.421038
0.44408
0.466162
0.487236
0.507271
0.526253
0.544181
0.561064
0.576922
0.591783
0.605679
0.618648
0.630731
0.641971
0.652411
0.662096
0.671069
0.679375
0.687059
0.694162
0.700723
0.706711
0.71212
0.717296
0.722071
0.726468
0.730539
0.734426
0.738118
0.741621
0.744935
0.748062
0.750998
0.753743
0.756291
0.758637
0.760775
0.762697
0.764393
0.765854
0.767071
0.768038
0.768761
0.769263
0.769586
0.769779
0.769887
0.769944
0.769973
0.769987
0.769994
0.769997
0.769999
0.769999
0.77
0.77
0.77
0.77
0.77
0.77
0.77
0.77
0.77
0.77
0.77
2.18702e-06
9.55802e-06
2.19564e-05
4.27407e-05
7.74112e-05
0.000134871
0.000229335
0.000383137
0.000630727
0.00102411
0.00163986
0.00258735
0.00401733
0.00612866
0.00916981
0.0134312
0.0192248
0.0268518
0.0365642
0.0485302
0.0628139
0.079374
0.0980767
0.118718
0.141047
0.164783
0.189637
0.215317
0.241542
0.268048
0.29459
0.320948
0.346928
0.372365
0.397117
0.421073
0.444139
0.466245
0.487342
0.507399
0.526401
0.544346
0.561246
0.577118
0.591991
0.605898
0.618875
0.630964
0.642208
0.65265
0.662335
0.671308
0.679615
0.687298
0.694396
0.700952
0.706931
0.712332
0.717501
0.722269
0.726646
0.730723
0.734608
0.738298
0.741796
0.745105
0.748225
0.751154
0.75389
0.756428
0.758764
0.76089
0.762799
0.764482
0.76593
0.767132
0.768085
0.768794
0.769286
0.7696
0.769787
0.769891
0.769946
0.769974
0.769988
0.769994
0.769997
0.769999
0.77
0.77
0.77
0.77
0.77
0.77
0.77
0.77
0.77
0.77
0.77
0.77
2.1814e-06
9.53349e-06
2.19001e-05
4.26309e-05
7.72121e-05
0.000134524
0.000228744
0.000382149
0.000629106
0.0010215
0.00163572
0.00258093
0.0040076
0.00611429
0.00914921
0.0134026
0.0191864
0.0268023
0.0365027
0.0484566
0.062729
0.0792794
0.0979747
0.118612
0.140939
0.164677
0.189535
0.215223
0.24146
0.267979
0.294536
0.320911
0.34691
0.372366
0.397138
0.421114
0.4442
0.466324
0.487439
0.507513
0.52653
0.54449
0.561402
0.577286
0.592168
0.606082
0.619064
0.631157
0.642403
0.652846
0.662533
0.671508
0.679814
0.687493
0.694588
0.701139
0.707111
0.712506
0.717669
0.72243
0.72679
0.730872
0.734755
0.738442
0.741937
0.745242
0.748356
0.751279
0.754008
0.756539
0.758866
0.760983
0.762882
0.764554
0.765991
0.767182
0.768123
0.768821
0.769303
0.769611
0.769793
0.769895
0.769948
0.769975
0.769988
0.769995
0.769998
0.769999
0.77
0.77
0.77
0.77
0.77
0.77
0.77
0.77
0.77
0.77
0.77
0.77
2.17704e-06
9.51445e-06
2.18564e-05
4.25458e-05
7.70578e-05
0.000134255
0.000228286
0.000381386
0.000627855
0.00101948
0.00163253
0.00257599
0.00400013
0.00610328
0.00913344
0.0133807
0.0191572
0.0267647
0.036456
0.0484009
0.062665
0.0792084
0.0978985
0.118532
0.140859
0.164599
0.189462
0.215156
0.241402
0.267932
0.294501
0.32089
0.346903
0.372374
0.397162
0.421153
0.444254
0.466394
0.487522
0.507609
0.526638
0.544608
0.561529
0.57742
0.592309
0.606227
0.619214
0.63131
0.64256
0.653006
0.662693
0.671667
0.679971
0.687648
0.69474
0.701287
0.707253
0.712643
0.717801
0.722556
0.726903
0.730989
0.73487
0.738555
0.742047
0.745348
0.748458
0.751377
0.7541
0.756625
0.758945
0.761055
0.762946
0.764611
0.766038
0.76722
0.768152
0.768842
0.769317
0.769619
0.769798
0.769897
0.76995
0.769976
0.769989
0.769995
0.769998
0.769999
0.77
0.77
0.77
0.77
0.77
0.77
0.77
0.77
0.77
0.77
0.77
0.77
2.17386e-06
9.50054e-06
2.18244e-05
4.24836e-05
7.69452e-05
0.000134058
0.000227952
0.000380829
0.000626943
0.00101802
0.00163021
0.0025724
0.00399471
0.00609529
0.00912203
0.0133649
0.0191361
0.0267375
0.0364225
0.048361
0.0626193
0.0791578
0.0978445
0.118476
0.140803
0.164545
0.189411
0.215111
0.241363
0.267901
0.29448
0.320879
0.346903
0.372384
0.397183
0.421185
0.444297
0.466447
0.487586
0.507682
0.526719
0.544697
0.561624
0.577521
0.592415
0.606338
0.61933
0.631429
0.642679
0.653126
0.662813
0.671785
0.680088
0.687762
0.694852
0.701396
0.707361
0.712746
0.7179
0.722651
0.726985
0.731076
0.734956
0.738639
0.742128
0.745427
0.748534
0.751449
0.754168
0.756688
0.759004
0.761108
0.762994
0.764652
0.766073
0.767248
0.768173
0.768857
0.769327
0.769625
0.769802
0.769899
0.76995
0.769976
0.769989
0.769995
0.769998
0.769999
0.77
0.77
0.77
0.77
0.77
0.77
0.77
0.77
0.77
0.77
0.77
0.77
2.17178e-06
9.49148e-06
2.18036e-05
4.24431e-05
7.68718e-05
0.000133931
0.000227735
0.000380468
0.000626351
0.00101706
0.00162871
0.00257008
0.0039912
0.00609013
0.00911466
0.0133547
0.0191225
0.0267201
0.0364009
0.0483354
0.0625899
0.0791254
0.09781
0.118441
0.140767
0.16451
0.189379
0.215083
0.241339
0.267883
0.294468
0.320873
0.346904
0.372393
0.3972
0.421209
0.444328
0.466485
0.48763
0.507732
0.526775
0.544758
0.56169
0.577591
0.592488
0.606414
0.619407
0.631507
0.642759
0.653205
0.662892
0.671864
0.680165
0.687838
0.694926
0.701468
0.707432
0.712815
0.717966
0.722714
0.727041
0.731133
0.735012
0.738693
0.742182
0.745479
0.748584
0.751496
0.754213
0.75673
0.759043
0.761143
0.763025
0.764679
0.766096
0.767266
0.768187
0.768867
0.769333
0.769629
0.769804
0.7699
0.769951
0.769977
0.769989
0.769995
0.769998
0.769999
0.77
0.77
0.77
0.77
0.77
0.77
0.77
0.77
0.77
0.77
0.77
0.77
2.17077e-06
9.48708e-06
2.17935e-05
4.24236e-05
7.68365e-05
0.000133869
0.000227631
0.000380295
0.000626069
0.00101661
0.001628
0.00256898
0.00398954
0.00608769
0.00911118
0.0133499
0.0191161
0.0267119
0.0363908
0.0483233
0.0625761
0.0791102
0.0977937
0.118424
0.140751
0.164494
0.189364
0.215069
0.241328
0.267874
0.294462
0.320871
0.346905
0.372398
0.397208
0.421221
0.444344
0.466504
0.487652
0.507757
0.526803
0.544789
0.561723
0.577626
0.592524
0.606452
0.619445
0.631546
0.642798
0.653245
0.662931
0.671903
0.680203
0.687876
0.694963
0.701504
0.707467
0.712849
0.717999
0.722745
0.727069
0.731161
0.735039
0.73872
0.742208
0.745504
0.748608
0.75152
0.754235
0.756751
0.759062
0.76116
0.76304
0.764692
0.766107
0.767275
0.768194
0.768872
0.769336
0.769631
0.769805
0.769901
0.769951
0.769977
0.769989
0.769995
0.769998
0.769999
0.77
0.77
0.77
0.77
0.77
0.77
0.77
0.77
0.77
0.77
0.77
0.77
2.17078e-06
9.48712e-06
2.17936e-05
4.24238e-05
7.68369e-05
0.00013387
0.000227632
0.000380297
0.000626071
0.00101661
0.001628
0.00256899
0.00398955
0.00608771
0.00911121
0.01335
0.0191162
0.0267119
0.0363909
0.0483234
0.0625762
0.0791103
0.0977938
0.118424
0.140751
0.164494
0.189364
0.21507
0.241328
0.267874
0.294462
0.320871
0.346906
0.372398
0.397208
0.421221
0.444344
0.466504
0.487653
0.507757
0.526803
0.544789
0.561723
0.577626
0.592525
0.606452
0.619445
0.631546
0.642798
0.653245
0.662931
0.671903
0.680203
0.687876
0.694963
0.701504
0.707467
0.712849
0.717999
0.722745
0.727069
0.731161
0.735039
0.73872
0.742208
0.745504
0.748608
0.75152
0.754235
0.756751
0.759062
0.76116
0.76304
0.764692
0.766107
0.767275
0.768194
0.768872
0.769336
0.769631
0.769805
0.769901
0.769951
0.769977
0.769989
0.769995
0.769998
0.769999
0.77
0.77
0.77
0.77
0.77
0.77
0.77
0.77
0.77
0.77
0.77
0.77
2.17181e-06
9.49161e-06
2.18039e-05
4.24437e-05
7.68728e-05
0.000133932
0.000227738
0.000380472
0.000626358
0.00101707
0.00162873
0.00257011
0.00399124
0.00609019
0.00911474
0.0133549
0.0191227
0.0267203
0.0364012
0.0483356
0.0625902
0.0791257
0.0978103
0.118441
0.140768
0.164511
0.18938
0.215083
0.24134
0.267883
0.294468
0.320874
0.346905
0.372393
0.3972
0.421209
0.444328
0.466485
0.48763
0.507732
0.526775
0.544758
0.56169
0.577591
0.592488
0.606414
0.619407
0.631508
0.642759
0.653205
0.662892
0.671864
0.680165
0.687838
0.694926
0.701468
0.707432
0.712815
0.717966
0.722714
0.727041
0.731133
0.735012
0.738693
0.742182
0.745479
0.748584
0.751496
0.754213
0.75673
0.759043
0.761143
0.763025
0.764679
0.766096
0.767266
0.768187
0.768867
0.769333
0.769629
0.769804
0.7699
0.769951
0.769977
0.769989
0.769995
0.769998
0.769999
0.77
0.77
0.77
0.77
0.77
0.77
0.77
0.77
0.77
0.77
0.77
0.77
2.1739e-06
9.50076e-06
2.18249e-05
4.24846e-05
7.69469e-05
0.000134061
0.000227957
0.000380837
0.000626955
0.00101804
0.00163024
0.00257245
0.00399477
0.00609539
0.00912217
0.0133651
0.0191364
0.0267379
0.0364229
0.0483614
0.0626198
0.0791583
0.0978451
0.118477
0.140803
0.164545
0.189412
0.215112
0.241364
0.267902
0.294481
0.320879
0.346903
0.372385
0.397184
0.421186
0.444297
0.466448
0.487586
0.507682
0.526719
0.544697
0.561625
0.577522
0.592415
0.606339
0.61933
0.631429
0.642679
0.653126
0.662813
0.671786
0.680088
0.687762
0.694852
0.701396
0.707361
0.712747
0.7179
0.722651
0.726985
0.731076
0.734956
0.738639
0.742128
0.745427
0.748534
0.751449
0.754168
0.756688
0.759004
0.761108
0.762994
0.764652
0.766073
0.767248
0.768173
0.768857
0.769327
0.769625
0.769802
0.769899
0.76995
0.769976
0.769989
0.769995
0.769998
0.769999
0.77
0.77
0.77
0.77
0.77
0.77
0.77
0.77
0.77
0.77
0.77
0.77
2.17711e-06
9.51475e-06
2.1857e-05
4.25471e-05
7.70602e-05
0.000134259
0.000228293
0.000381397
0.000627872
0.00101951
0.00163257
0.00257605
0.00400022
0.00610341
0.00913363
0.013381
0.0191575
0.0267651
0.0364566
0.0484015
0.0626657
0.0792091
0.0978994
0.118533
0.14086
0.1646
0.189463
0.215157
0.241403
0.267933
0.294502
0.320891
0.346904
0.372375
0.397163
0.421154
0.444255
0.466394
0.487523
0.507609
0.526639
0.544609
0.56153
0.577421
0.592309
0.606228
0.619214
0.631311
0.64256
0.653006
0.662694
0.671667
0.679971
0.687648
0.69474
0.701287
0.707253
0.712643
0.717801
0.722556
0.726903
0.730989
0.734871
0.738555
0.742047
0.745348
0.748459
0.751377
0.7541
0.756625
0.758945
0.761055
0.762946
0.764611
0.766038
0.76722
0.768152
0.768842
0.769317
0.769619
0.769798
0.769897
0.76995
0.769976
0.769989
0.769995
0.769998
0.769999
0.77
0.77
0.77
0.77
0.77
0.77
0.77
0.77
0.77
0.77
0.77
0.77
2.18149e-06
9.53386e-06
2.19009e-05
4.26326e-05
7.7215e-05
0.000134529
0.000228752
0.000382163
0.000629128
0.00102153
0.00163577
0.00258101
0.00400772
0.00611446
0.00914944
0.0134029
0.0191868
0.0268028
0.0365033
0.0484573
0.0627299
0.0792803
0.0979758
0.118613
0.14094
0.164678
0.189536
0.215224
0.241461
0.26798
0.294537
0.320913
0.346911
0.372367
0.397139
0.421115
0.4442
0.466325
0.48744
0.507514
0.526531
0.544491
0.561403
0.577286
0.592168
0.606082
0.619065
0.631157
0.642403
0.652846
0.662533
0.671508
0.679814
0.687493
0.694589
0.70114
0.707111
0.712506
0.717669
0.722431
0.726791
0.730872
0.734755
0.738442
0.741937
0.745242
0.748356
0.751279
0.754008
0.756539
0.758866
0.760983
0.762882
0.764554
0.765991
0.767182
0.768123
0.768821
0.769303
0.769611
0.769793
0.769895
0.769948
0.769975
0.769988
0.769995
0.769998
0.769999
0.77
0.77
0.77
0.77
0.77
0.77
0.77
0.77
0.77
0.77
0.77
0.77
2.18712e-06
9.55847e-06
2.19574e-05
4.27426e-05
7.74147e-05
0.000134877
0.000229345
0.000383153
0.000630753
0.00102416
0.00163992
0.00258744
0.00401747
0.00612886
0.00917009
0.0134315
0.0192252
0.0268524
0.036565
0.0485311
0.062815
0.0793751
0.098078
0.118719
0.141048
0.164785
0.189638
0.215318
0.241544
0.26805
0.294592
0.32095
0.34693
0.372366
0.397119
0.421074
0.44414
0.466246
0.487343
0.5074
0.526402
0.544347
0.561246
0.577119
0.591992
0.605898
0.618876
0.630965
0.642208
0.65265
0.662335
0.671308
0.679616
0.687298
0.694397
0.700952
0.706931
0.712333
0.717501
0.722269
0.726646
0.730723
0.734609
0.738298
0.741796
0.745105
0.748225
0.751154
0.75389
0.756428
0.758764
0.76089
0.762799
0.764482
0.76593
0.767133
0.768085
0.768794
0.769286
0.7696
0.769787
0.769891
0.769946
0.769974
0.769988
0.769994
0.769997
0.769999
0.77
0.77
0.77
0.77
0.77
0.77
0.77
0.77
0.77
0.77
0.77
0.77
2.19411e-06
9.589e-06
2.20276e-05
4.28793e-05
7.76628e-05
0.000135311
0.000230083
0.000384388
0.000632782
0.00102743
0.00164512
0.00259552
0.00402973
0.00614699
0.00919615
0.0134678
0.019274
0.0269156
0.0366437
0.0486256
0.0629245
0.0794977
0.0982108
0.118859
0.141191
0.164926
0.189775
0.215446
0.241659
0.26815
0.294673
0.32101
0.346968
0.37238
0.397109
0.421039
0.444081
0.466163
0.487237
0.507272
0.526254
0.544182
0.561065
0.576923
0.591784
0.60568
0.618649
0.630732
0.641971
0.652411
0.662096
0.671069
0.679375
0.687059
0.694162
0.700723
0.706711
0.71212
0.717296
0.722071
0.726468
0.73054
0.734427
0.738119
0.741622
0.744936
0.748062
0.750999
0.753743
0.756291
0.758638
0.760776
0.762697
0.764393
0.765855
0.767071
0.768038
0.768761
0.769263
0.769586
0.769779
0.769887
0.769944
0.769973
0.769987
0.769994
0.769997
0.769999
0.769999
0.77
0.77
0.77
0.77
0.77
0.77
0.77
0.77
0.77
0.77
0.77
2.20255e-06
9.62589e-06
2.21124e-05
4.30447e-05
7.79632e-05
0.000135836
0.00023098
0.000385888
0.000635253
0.00103143
0.00165147
0.00260541
0.00404479
0.00616932
0.00922832
0.0135127
0.0193345
0.0269942
0.0367422
0.0487444
0.0630626
0.0796531
0.0983803
0.119039
0.141376
0.165112
0.189956
0.215618
0.241818
0.26829
0.294792
0.321105
0.347036
0.37242
0.397119
0.42102
0.444032
0.466085
0.48713
0.507139
0.526095
0.544
0.560862
0.576702
0.591547
0.605429
0.618387
0.630461
0.641694
0.65213
0.661813
0.670788
0.679097
0.686782
0.693885
0.70045
0.70645
0.711867
0.717052
0.721836
0.726252
0.730319
0.734209
0.737905
0.741411
0.744732
0.747865
0.750811
0.753566
0.756125
0.758485
0.760636
0.762573
0.764285
0.765763
0.766997
0.767981
0.768719
0.769236
0.769569
0.76977
0.769882
0.769942
0.769972
0.769987
0.769994
0.769997
0.769999
0.769999
0.77
0.77
0.77
0.77
0.77
0.77
0.77
0.77
0.77
0.77
0.77
2.21253e-06
9.66951e-06
2.22127e-05
4.32405e-05
7.83193e-05
0.000136459
0.000232045
0.000387676
0.000638202
0.00103621
0.00165909
0.00261731
0.00406294
0.00619632
0.00926736
0.0135674
0.0194085
0.0270907
0.0368634
0.0488913
0.0632344
0.0798475
0.0985936
0.119266
0.141612
0.165351
0.190193
0.215846
0.242031
0.268484
0.294962
0.321247
0.347147
0.372498
0.397162
0.421027
0.444003
0.46602
0.487032
0.507007
0.525933
0.543809
0.560645
0.576461
0.591285
0.60515
0.618093
0.630155
0.641379
0.651808
0.661487
0.67046
0.678771
0.686461
0.69357
0.700139
0.706146
0.711573
0.716767
0.721563
0.725992
0.730057
0.733951
0.737653
0.741165
0.744489
0.74763
0.750585
0.753351
0.755925
0.758301
0.76047
0.762424
0.764155
0.765653
0.766907
0.767911
0.768669
0.769201
0.769549
0.769759
0.769876
0.769939
0.769971
0.769986
0.769994
0.769997
0.769999
0.769999
0.77
0.77
0.77
0.77
0.77
0.77
0.77
0.77
0.77
0.77
0.77
2.2241e-06
9.72008e-06
2.23291e-05
4.3468e-05
7.87335e-05
0.000137186
0.000233289
0.000389767
0.00064166
0.00104184
0.00166808
0.00263138
0.00408449
0.00622849
0.00931403
0.013633
0.0194976
0.0272075
0.037011
0.0490709
0.0634457
0.080088
0.0988594
0.119552
0.141911
0.165657
0.190498
0.216144
0.242315
0.268747
0.295199
0.321453
0.347317
0.372629
0.397253
0.421076
0.44401
0.465985
0.486954
0.506889
0.525777
0.543617
0.560421
0.576207
0.591005
0.604847
0.617771
0.629816
0.641027
0.651447
0.661119
0.670089
0.678398
0.68609
0.693204
0.699781
0.705799
0.711232
0.716437
0.721245
0.725687
0.729752
0.733651
0.73736
0.740882
0.74422
0.747373
0.75034
0.753119
0.755704
0.758091
0.760276
0.762249
0.764002
0.765522
0.7668
0.767828
0.768607
0.769163
0.769526
0.769745
0.769869
0.769935
0.769969
0.769985
0.769993
0.769997
0.769999
0.769999
0.77
0.77
0.77
0.77
0.77
0.77
0.77
0.77
0.77
0.77
0.77
2.23724e-06
9.77753e-06
2.24614e-05
4.37268e-05
7.92058e-05
0.000138016
0.000234714
0.000392168
0.000645643
0.00104834
0.0016785
0.00264776
0.00410968
0.00626626
0.00936908
0.0137108
0.0196038
0.0273473
0.0371885
0.0492884
0.063703
0.0803828
0.0991873
0.119907
0.142286
0.166044
0.190889
0.21653
0.242687
0.269099
0.295522
0.321742
0.347567
0.372835
0.397411
0.421185
0.444068
0.465994
0.486914
0.506801
0.525642
0.543439
0.560201
0.575951
0.590716
0.604528
0.617426
0.629451
0.640644
0.65105
0.660712
0.669674
0.67798
0.685671
0.692787
0.699368
0.705399
0.710846
0.71606
0.72088
0.725339
0.729404
0.733306
0.73702
0.740549
0.743896
0.74706
0.750039
0.752832
0.755434
0.757841
0.760046
0.762041
0.763821
0.765368
0.766674
0.767728
0.768541
0.769119
0.769498
0.769729
0.76986
0.769931
0.769967
0.769984
0.769993
0.769997
0.769999
0.769999
0.77
0.77
0.77
0.77
0.77
0.77
0.77
0.77
0.77
0.77
0.77
2.2518e-06
9.84124e-06
2.26084e-05
4.40148e-05
7.97323e-05
0.000138943
0.000236311
0.000394871
0.000650143
0.00105572
0.00169038
0.00266653
0.00413869
0.00630999
0.00943317
0.0138018
0.0197288
0.0275129
0.0374
0.049549
0.0640134
0.0807409
0.0995885
0.120345
0.142753
0.16653
0.191383
0.217024
0.243171
0.269562
0.295957
0.322139
0.347921
0.373139
0.397662
0.421379
0.444203
0.466068
0.486931
0.50676
0.525545
0.543289
0.560002
0.575705
0.590428
0.604203
0.617069
0.629065
0.640235
0.650622
0.660269
0.669221
0.67752
0.685208
0.692324
0.698908
0.704956
0.710416
0.715641
0.720472
0.724944
0.729012
0.732919
0.73664
0.740178
0.743537
0.746716
0.749713
0.752526
0.755151
0.757581
0.759807
0.761819
0.763612
0.765186
0.766527
0.767624
0.768465
0.769066
0.769465
0.76971
0.76985
0.769925
0.769964
0.769983
0.769992
0.769996
0.769998
0.769999
0.77
0.77
0.77
0.77
0.77
0.77
0.77
0.77
0.77
0.77
0.77
2.26743e-06
9.9097e-06
2.27665e-05
4.43255e-05
8.03017e-05
0.00013995
0.000238051
0.000397827
0.000655091
0.00106387
0.0017036
0.00268754
0.00417138
0.00635962
0.00950643
0.0139066
0.0198738
0.0277065
0.0376492
0.0498584
0.0643845
0.0811722
0.100076
0.12088
0.143328
0.167134
0.192005
0.217651
0.243791
0.270164
0.29653
0.322673
0.348407
0.373571
0.398032
0.421684
0.44444
0.466235
0.487026
0.506788
0.525508
0.543186
0.559839
0.575487
0.590158
0.603886
0.61671
0.628671
0.63981
0.650171
0.659798
0.668735
0.677023
0.684705
0.691821
0.69841
0.704481
0.709947
0.715177
0.720018
0.724498
0.72857
0.732479
0.736205
0.739752
0.743122
0.746315
0.749329
0.752162
0.75481
0.757265
0.759521
0.761562
0.763401
0.765013
0.766386
0.767507
0.768375
0.769004
0.769426
0.769687