/*--------------------------------*- C++ -*----------------------------------*\
  =========                 |
  \\      /  F ield         | OpenFOAM: The Open Source CFD Toolbox
   \\    /   O peration     | Website:  https://openfoam.org
    \\  /    A nd           | Version:  8
     \\/     M anipulation  |
\*---------------------------------------------------------------------------*/
FoamFile
{
    version     2.0;
    format      ascii;
    class       volScalarField;
    location    "760/fluid";
    object      O2;
}
// * * * * * * * * * * * * * * * * * * * * * * * * * * * * * * * * * * * * * //

dimensions      [0 0 0 0 0 0 0];

internalField   nonuniform List<scalar> 
4000
(
4.57812e-10
1.999e-09
4.58319e-09
8.89597e-09
1.60528e-08
2.7847e-08
4.71227e-08
7.83141e-08
1.28199e-07
2.0689e-07
3.29041e-07
5.15144e-07
7.92328e-07
1.19556e-06
1.7655e-06
2.54523e-06
3.57437e-06
4.88169e-06
6.47826e-06
8.35354e-06
1.04758e-05
1.27963e-05
1.5255e-05
1.77871e-05
2.03276e-05
2.28154e-05
2.51953e-05
2.74195e-05
2.94486e-05
3.12524e-05
3.28115e-05
3.41205e-05
3.51948e-05
3.60799e-05
3.68649e-05
3.76967e-05
3.87918e-05
4.04472e-05
4.30508e-05
4.70975e-05
5.32187e-05
6.22268e-05
7.51749e-05
9.34333e-05
0.00011879
0.000153584
0.000200883
0.000264578
0.000350154
0.000464588
0.000617058
0.000819624
0.00108811
0.00144327
0.00191231
0.00253093
0.00334599
0.00440454
0.00578001
0.00763746
0.0100814
0.0133049
0.0184772
0.0349188
0.0515625
0.0681502
0.0844806
0.100395
0.115768
0.130494
0.144486
0.157664
0.169956
0.181229
0.191527
0.200689
0.208615
0.21521
0.2204
0.224196
0.226737
0.228286
0.22915
0.229596
0.229813
0.229916
0.229963
0.229984
0.229993
0.229997
0.229999
0.229999
0.23
0.23
0.23
0.23
0.23
0.23
0.23
0.23
4.65007e-10
2.03184e-09
4.66423e-09
9.06801e-09
1.63936e-08
2.84932e-08
4.83049e-08
8.04084e-08
1.31791e-07
2.12847e-07
3.38549e-07
5.29596e-07
8.13355e-07
1.22579e-06
1.80775e-06
2.60267e-06
3.65079e-06
4.98179e-06
6.608e-06
8.52029e-06
1.06881e-05
1.30631e-05
1.55853e-05
1.81887e-05
2.0807e-05
2.33769e-05
2.58409e-05
2.81489e-05
3.02594e-05
3.21403e-05
3.37704e-05
3.51435e-05
3.62746e-05
3.72103e-05
3.80428e-05
3.89246e-05
4.00815e-05
4.1823e-05
4.45516e-05
4.87786e-05
5.51518e-05
6.44996e-05
7.78894e-05
9.6705e-05
0.000122748
0.000158378
0.000206494
0.000271287
0.000358136
0.000474018
0.000628117
0.000832498
0.00110299
0.00146037
0.00193186
0.00255322
0.00337143
0.00443321
0.00581274
0.00767705
0.010131
0.0133689
0.0197977
0.0363399
0.0530641
0.0697177
0.0861026
0.102062
0.117468
0.132216
0.146216
0.159387
0.17165
0.182866
0.193073
0.202099
0.209845
0.216214
0.221152
0.224701
0.227036
0.228442
0.229223
0.229627
0.229826
0.229921
0.229965
0.229984
0.229993
0.229997
0.229999
0.229999
0.23
0.23
0.23
0.23
0.23
0.23
0.23
0.23
4.74543e-10
2.07351e-09
4.76044e-09
9.25683e-09
1.67385e-08
2.90972e-08
4.93317e-08
8.21122e-08
1.34564e-07
2.173e-07
3.45694e-07
5.4131e-07
8.33333e-07
1.25615e-06
1.85159e-06
2.66418e-06
3.73544e-06
5.09666e-06
6.76193e-06
8.72385e-06
1.09533e-05
1.34028e-05
1.60124e-05
1.87154e-05
2.14437e-05
2.4132e-05
2.672e-05
2.91548e-05
3.13918e-05
3.33961e-05
3.5144e-05
3.66275e-05
3.78605e-05
3.88907e-05
3.98145e-05
4.07929e-05
4.20654e-05
4.39605e-05
4.69038e-05
5.14322e-05
5.82199e-05
6.81208e-05
8.22261e-05
0.000101942
0.000129078
0.000165815
0.000215425
0.000282236
0.000371346
0.000489801
0.000646834
0.00085456
0.00112886
0.00149057
0.00196704
0.00259418
0.00341928
0.00448828
0.00587749
0.00775592
0.0102291
0.0134995
0.0221131
0.0387282
0.0555188
0.0722257
0.0886467
0.104621
0.120021
0.134736
0.148674
0.16175
0.173881
0.184947
0.194937
0.203704
0.211157
0.217215
0.221853
0.225144
0.227289
0.228573
0.229285
0.229656
0.229839
0.229926
0.229967
0.229985
0.229994
0.229997
0.229999
0.23
0.23
0.23
0.23
0.23
0.23
0.23
0.23
0.23
4.85952e-10
2.12398e-09
4.87871e-09
9.49244e-09
1.71747e-08
2.98708e-08
5.06609e-08
8.43349e-08
1.38185e-07
2.23038e-07
3.54502e-07
5.5428e-07
8.51263e-07
1.28184e-06
1.88882e-06
2.71809e-06
3.81294e-06
5.20676e-06
6.91589e-06
8.93505e-06
1.12367e-05
1.37741e-05
1.64873e-05
1.93083e-05
2.21675e-05
2.4997e-05
2.77337e-05
3.03217e-05
3.27132e-05
3.48701e-05
3.67661e-05
3.83906e-05
3.97567e-05
4.09137e-05
4.1963e-05
4.30763e-05
4.45105e-05
4.66179e-05
4.98531e-05
5.47854e-05
6.21225e-05
7.27513e-05
8.77942e-05
0.000108669
0.000137065
0.000175558
0.000227569
0.000296964
0.000389172
0.000511311
0.000672713
0.00088561
0.00116604
0.00153503
0.0020202
0.00265786
0.00349585
0.0045779
0.00598356
0.00788704
0.0103974
0.0137154
0.0249877
0.0416266
0.0584441
0.0751688
0.0915897
0.107541
0.122888
0.13752
0.151342
0.164265
0.176205
0.187084
0.196812
0.205293
0.212441
0.218192
0.222541
0.225587
0.227549
0.228713
0.229355
0.229689
0.229854
0.229933
0.22997
0.229986
0.229994
0.229997
0.229999
0.23
0.23
0.23
0.23
0.23
0.23
0.23
0.23
0.23
4.96096e-10
2.1683e-09
4.98053e-09
9.69054e-09
1.75328e-08
3.04919e-08
5.17095e-08
8.6069e-08
1.41004e-07
2.27551e-07
3.61624e-07
5.65373e-07
8.68329e-07
1.3078e-06
1.92781e-06
2.77584e-06
3.8972e-06
5.32755e-06
7.08568e-06
9.16851e-06
1.15502e-05
1.4185e-05
1.70127e-05
1.99646e-05
2.29692e-05
2.59561e-05
2.88595e-05
3.16202e-05
3.41869e-05
3.65184e-05
3.85853e-05
4.03745e-05
4.18985e-05
4.32084e-05
4.44123e-05
4.5695e-05
4.73343e-05
4.97109e-05
5.3314e-05
5.87512e-05
6.67722e-05
7.83075e-05
9.44628e-05
0.000116614
0.000146819
0.000187816
0.000242577
0.000315346
0.000411681
0.000538857
0.000706405
0.000926806
0.00121641
0.00159666
0.00209569
0.00275052
0.00360795
0.00470955
0.0061461
0.00809389
0.0106588
0.0140284
0.0280108
0.0446277
0.0614485
0.0781738
0.0945772
0.110484
0.125757
0.140284
0.153968
0.166722
0.178442
0.189095
0.198563
0.20676
0.213613
0.21907
0.223149
0.225973
0.227773
0.228832
0.229415
0.229717
0.229867
0.229939
0.229972
0.229988
0.229995
0.229998
0.229999
0.23
0.23
0.23
0.23
0.23
0.23
0.23
0.23
0.23
5.04915e-10
2.20673e-09
5.06838e-09
9.86059e-09
1.7839e-08
3.10223e-08
5.26065e-08
8.75615e-08
1.43455e-07
2.31533e-07
3.68026e-07
5.75565e-07
8.84385e-07
1.33281e-06
1.96628e-06
2.83414e-06
3.98398e-06
5.45411e-06
7.26599e-06
9.41893e-06
1.18888e-05
1.46308e-05
1.75845e-05
2.06803e-05
2.38448e-05
2.7005e-05
3.00923e-05
3.3044e-05
3.58056e-05
3.8332e-05
4.05907e-05
4.25665e-05
4.42709e-05
4.57579e-05
4.71441e-05
4.86297e-05
5.0517e-05
5.32193e-05
5.72638e-05
6.32981e-05
7.2115e-05
8.46413e-05
0.000102028
0.00012592
0.000158547
0.000202237
0.000260361
0.000337322
0.000438881
0.000572579
0.00074828
0.000978891
0.0012813
0.00167759
0.00219671
0.00287629
0.00376567
0.00490418
0.00638898
0.00838903
0.0110081
0.0144018
0.03053
0.0472712
0.0641861
0.0809631
0.097374
0.113246
0.128446
0.142864
0.156408
0.168996
0.180512
0.190949
0.200162
0.208085
0.214662
0.219852
0.22369
0.226316
0.227973
0.228941
0.22947
0.229744
0.229879
0.229944
0.229975
0.229989
0.229995
0.229998
0.229999
0.23
0.23
0.23
0.23
0.23
0.23
0.23
0.23
0.23
5.13049e-10
2.24221e-09
5.1497e-09
1.00186e-08
1.8125e-08
3.15214e-08
5.34587e-08
8.89952e-08
1.4584e-07
2.35459e-07
3.74429e-07
5.85899e-07
9.0088e-07
1.35881e-06
2.00667e-06
2.89583e-06
4.07642e-06
5.58957e-06
7.45964e-06
9.68854e-06
1.22541e-05
1.51124e-05
1.82031e-05
2.14555e-05
2.47943e-05
2.81442e-05
3.14331e-05
3.45951e-05
3.75717e-05
4.03144e-05
4.27871e-05
4.4972e-05
4.68802e-05
4.85692e-05
5.0166e-05
5.18893e-05
5.40694e-05
5.71578e-05
6.17293e-05
6.84596e-05
7.8124e-05
9.17423e-05
0.000110677
0.000136754
0.000171823
0.00021859
0.000280586
0.000362427
0.000470161
0.000611709
0.000797447
0.00104097
0.00136005
0.00177799
0.00232522
0.00304181
0.00398069
0.00517195
0.00677765
0.0088779
0.0116204
0.0151291
0.0321126
0.0493389
0.0665234
0.0834359
0.0998929
0.115747
0.13088
0.145192
0.158595
0.171008
0.182292
0.192514
0.201526
0.209239
0.215579
0.220533
0.224157
0.226611
0.228144
0.229033
0.229517
0.229767
0.22989
0.229949
0.229977
0.22999
0.229995
0.229998
0.229999
0.23
0.23
0.23
0.23
0.23
0.23
0.23
0.23
0.23
5.20827e-10
2.27617e-09
5.22766e-09
1.01704e-08
1.84008e-08
3.20045e-08
5.42877e-08
9.03983e-08
1.4819e-07
2.39359e-07
3.80844e-07
5.96347e-07
9.17713e-07
1.38559e-06
2.04863e-06
2.96044e-06
4.17385e-06
5.73311e-06
7.66572e-06
9.97642e-06
1.26451e-05
1.56291e-05
1.88681e-05
2.22904e-05
2.58189e-05
2.93757e-05
3.28855e-05
3.62787e-05
3.94931e-05
4.2476e-05
4.51876e-05
4.76075e-05
4.97463e-05
5.16659e-05
5.35046e-05
5.55013e-05
5.80133e-05
6.15245e-05
6.66411e-05
7.40488e-05
8.46251e-05
9.96588e-05
0.000120508
0.000148683
0.000186378
0.000236433
0.000302553
0.000389592
0.000503916
0.00065389
0.00085051
0.00110825
0.00144621
0.0018896
0.00247189
0.0032376
0.00424094
0.00552727
0.00728098
0.00960316
0.0126928
0.0167484
0.034015
0.051446
0.0687581
0.085732
0.102196
0.118012
0.13307
0.147274
0.160544
0.172804
0.183946
0.193975
0.202775
0.210266
0.216384
0.221122
0.224557
0.226862
0.22829
0.229112
0.229558
0.229786
0.229899
0.229953
0.229979
0.229991
0.229996
0.229998
0.229999
0.23
0.23
0.23
0.23
0.23
0.23
0.23
0.23
0.23
5.28458e-10
2.30952e-09
5.30433e-09
1.03201e-08
1.86735e-08
3.24842e-08
5.51145e-08
9.18049e-08
1.50559e-07
2.43317e-07
3.87394e-07
6.07084e-07
9.35116e-07
1.41342e-06
2.09246e-06
3.02821e-06
4.27642e-06
5.88468e-06
7.88388e-06
1.02819e-05
1.3061e-05
1.61798e-05
1.95784e-05
2.31843e-05
2.69188e-05
3.07011e-05
3.44531e-05
3.81012e-05
4.1579e-05
4.48297e-05
4.78096e-05
5.04953e-05
5.28975e-05
5.50838e-05
5.72075e-05
5.95338e-05
6.24586e-05
6.64851e-05
7.21894e-05
8.04064e-05
9.22895e-05
0.000108792
0.000131318
0.000161624
0.000201975
0.000255318
0.000325499
0.000417561
0.000538118
0.000695854
0.000902188
0.00117215
0.00152556
0.00198858
0.00259589
0.00339352
0.00443692
0.00577981
0.00761225
0.0100411
0.0132789
0.0185184
0.0359533
0.0534883
0.0708517
0.0878327
0.104265
0.120015
0.134976
0.149058
0.162182
0.174278
0.185241
0.195083
0.203695
0.211021
0.217016
0.221611
0.224895
0.227075
0.228413
0.229179
0.229592
0.229803
0.229907
0.229957
0.229981
0.229991
0.229996
0.229998
0.229999
0.23
0.23
0.23
0.23
0.23
0.23
0.23
0.23
0.23
5.3601e-10
2.34254e-09
5.38034e-09
1.04688e-08
1.89448e-08
3.29627e-08
5.5942e-08
9.3218e-08
1.5295e-07
2.47326e-07
3.9406e-07
6.18062e-07
9.5299e-07
1.44214e-06
2.13786e-06
3.09865e-06
4.38339e-06
6.0432e-06
8.1127e-06
1.06031e-05
1.34994e-05
1.67621e-05
2.03317e-05
2.41354e-05
2.80927e-05
3.21209e-05
3.61383e-05
4.00677e-05
4.38385e-05
4.73894e-05
5.06722e-05
5.36604e-05
5.63642e-05
5.88566e-05
6.13049e-05
6.39954e-05
6.73452e-05
7.18658e-05
7.82992e-05
8.76465e-05
0.000100725
0.000118707
0.000143038
0.000175541
0.000218555
0.000275116
0.000349179
0.000445915
0.000572091
0.000736574
0.000950984
0.00123057
0.00159538
0.00207176
0.00269446
0.00350936
0.00456787
0.00592474
0.00776632
0.0101879
0.0133802
0.0203796
0.0378684
0.0554341
0.0728048
0.0897685
0.10616
0.12185
0.136733
0.150718
0.163727
0.175687
0.186548
0.196246
0.204695
0.211825
0.217587
0.222027
0.225186
0.227256
0.228518
0.229236
0.229621
0.229817
0.229914
0.22996
0.229982
0.229992
0.229996
0.229998
0.229999
0.23
0.23
0.23
0.23
0.23
0.23
0.23
0.23
0.23
5.43478e-10
2.3752e-09
5.45559e-09
1.06161e-08
1.92144e-08
3.34392e-08
5.67682e-08
9.46331e-08
1.55351e-07
2.51368e-07
4.00806e-07
6.2921e-07
9.71203e-07
1.47149e-06
2.18442e-06
3.17111e-06
4.49373e-06
6.2072e-06
8.35009e-06
1.09374e-05
1.39572e-05
1.7372e-05
2.11237e-05
2.51392e-05
2.9337e-05
3.36321e-05
3.79403e-05
4.21806e-05
4.62781e-05
5.0167e-05
5.37948e-05
5.71316e-05
6.01887e-05
6.30477e-05
6.58972e-05
6.9039e-05
7.28489e-05
7.79976e-05
8.54074e-05
9.57856e-05
0.000110141
0.000129682
0.000155892
0.000190644
0.000236339
0.000296081
0.000373906
0.000475075
0.000606452
0.000777001
0.000998435
0.00128608
0.00165999
0.00214648
0.00278009
0.00360615
0.00467381
0.00603752
0.00788381
0.0103026
0.013482
0.0221663
0.0396583
0.0572087
0.0745471
0.0914637
0.10779
0.123398
0.138186
0.152065
0.164979
0.176858
0.187638
0.197219
0.205531
0.212515
0.21813
0.22239
0.225428
0.227411
0.228607
0.229284
0.229646
0.229829
0.22992
0.229963
0.229983
0.229992
0.229997
0.229999
0.229999
0.23
0.23
0.23
0.23
0.23
0.23
0.23
0.23
0.23
5.50797e-10
2.40722e-09
5.5294e-09
1.07608e-08
1.94795e-08
3.39086e-08
5.7584e-08
9.6034e-08
1.57735e-07
2.55392e-07
4.07541e-07
6.40375e-07
9.895e-07
1.50107e-06
2.23147e-06
3.24456e-06
4.60593e-06
6.37447e-06
8.59301e-06
1.12806e-05
1.4429e-05
1.80034e-05
2.19471e-05
2.61877e-05
3.06432e-05
3.52272e-05
3.98528e-05
4.4436e-05
4.8898e-05
5.31683e-05
5.71899e-05
6.09294e-05
6.43976e-05
6.76826e-05
7.09881e-05
7.46074e-05
7.90389e-05
8.51138e-05
9.34659e-05
0.000104994
0.000120741
0.000141946
0.000170133
0.000207222
0.000255666
0.000318632
0.000400222
0.00050577
0.000642213
0.000818582
0.00104664
0.00134175
0.00172395
0.00221943
0.00286222
0.00369728
0.00477358
0.00614555
0.00799708
0.0104167
0.0135904
0.02375
0.0412472
0.0587842
0.076087
0.0929459
0.109208
0.124757
0.139491
0.153325
0.166167
0.177949
0.188606
0.198063
0.206248
0.213102
0.218589
0.222728
0.225636
0.227539
0.228682
0.229324
0.229666
0.229839
0.229924
0.229965
0.229984
0.229993
0.229997
0.229999
0.229999
0.23
0.23
0.23
0.23
0.23
0.23
0.23
0.23
0.23
5.57859e-10
2.43813e-09
5.60071e-09
1.09007e-08
1.97361e-08
3.43639e-08
5.83767e-08
9.73982e-08
1.60062e-07
2.5933e-07
4.1415e-07
6.51359e-07
1.00755e-06
1.53034e-06
2.27817e-06
3.31767e-06
4.71797e-06
6.54209e-06
8.83737e-06
1.16273e-05
1.49077e-05
1.8647e-05
2.27907e-05
2.7268e-05
3.1997e-05
3.68906e-05
4.18605e-05
4.682e-05
5.16871e-05
5.63876e-05
6.08606e-05
6.50711e-05
6.90334e-05
7.28511e-05
7.6718e-05
8.09945e-05
8.62722e-05
9.32237e-05
0.000102645
0.000115455
0.000132722
0.000155718
0.000186007
0.000225553
0.000276863
0.000343163
0.00042862
0.000538633
0.000680205
0.000862425
0.00109711
0.00139962
0.00178986
0.00229362
0.00294524
0.00379031
0.00487593
0.00625511
0.00811185
0.0105319
0.0136978
0.025111
0.0426204
0.0601466
0.0774215
0.0942577
0.110497
0.126002
0.140673
0.154424
0.167179
0.178868
0.189427
0.198779
0.206854
0.213595
0.21897
0.223006
0.225825
0.227646
0.228743
0.229358
0.229683
0.229848
0.229928
0.229967
0.229985
0.229993
0.229997
0.229999
0.229999
0.23
0.23
0.23
0.23
0.23
0.23
0.23
0.23
0.23
5.64531e-10
2.46734e-09
5.66811e-09
1.10331e-08
1.99792e-08
3.47958e-08
5.91301e-08
9.86971e-08
1.62283e-07
2.63097e-07
4.20487e-07
6.6192e-07
1.02495e-06
1.55864e-06
2.32345e-06
3.38881e-06
4.82736e-06
6.70637e-06
9.07784e-06
1.19701e-05
1.53833e-05
1.92898e-05
2.36385e-05
2.83604e-05
3.33752e-05
3.85963e-05
4.39348e-05
4.93027e-05
5.46158e-05
5.97965e-05
6.47802e-05
6.95288e-05
7.40568e-05
7.84718e-05
8.29448e-05
8.80386e-05
9.43217e-05
0.000102376
0.00011305
0.000127302
0.000146237
0.000171165
0.000203692
0.000245833
0.00030015
0.000369927
0.000459399
0.000574028
0.000720883
0.000909101
0.00115045
0.00146008
0.001858
0.00237102
0.00303308
0.00388803
0.00498169
0.0063679
0.0082295
0.0106495
0.0137999
0.0262598
0.0437914
0.0613154
0.0785868
0.0953975
0.111592
0.127046
0.141658
0.155343
0.168026
0.179637
0.190113
0.199377
0.20736
0.214006
0.219285
0.223233
0.225977
0.227741
0.228793
0.229384
0.229697
0.229855
0.229932
0.229968
0.229986
0.229994
0.229997
0.229999
0.229999
0.23
0.23
0.23
0.23
0.23
0.23
0.23
0.23
0.23
5.7066e-10
2.49417e-09
5.73006e-09
1.11549e-08
2.0203e-08
3.5194e-08
5.98257e-08
9.98988e-08
1.64341e-07
2.66596e-07
4.26387e-07
6.71777e-07
1.04124e-06
1.5852e-06
2.36609e-06
3.45601e-06
4.93109e-06
6.86278e-06
9.30782e-06
1.22995e-05
1.58429e-05
1.99148e-05
2.44679e-05
2.94367e-05
3.47435e-05
4.03035e-05
4.60292e-05
5.18333e-05
5.76312e-05
6.33447e-05
6.89086e-05
7.42862e-05
7.94999e-05
8.4654e-05
9.00732e-05
9.61822e-05
0.000103496
0.000112748
0.000124798
0.000140622
0.000161355
0.000188343
0.000223237
0.000268102
0.000325558
0.000398952
0.000492587
0.000611966
0.000764165
0.000958234
0.00120612
0.00152338
0.00193037
0.00245256
0.00312372
0.00398784
0.00508934
0.00648206
0.00834759
0.010766
0.0138972
0.0272164
0.0447741
0.0623047
0.0795595
0.0963429
0.112501
0.127911
0.142473
0.156103
0.168726
0.180272
0.19068
0.19987
0.207776
0.214342
0.219543
0.223417
0.226099
0.227816
0.228837
0.229406
0.229707
0.22986
0.229934
0.22997
0.229986
0.229994
0.229997
0.229999
0.229999
0.23
0.23
0.23
0.23
0.23
0.23
0.23
0.23
0.23
5.76083e-10
2.51791e-09
5.78492e-09
1.12628e-08
2.04015e-08
3.55475e-08
6.04442e-08
1.00969e-07
1.66178e-07
2.69725e-07
4.31674e-07
6.80632e-07
1.05591e-06
1.60918e-06
2.40471e-06
3.5171e-06
5.02573e-06
7.00608e-06
9.5195e-06
1.26042e-05
1.62704e-05
2.04997e-05
2.52495e-05
3.04585e-05
3.60529e-05
4.19516e-05
4.80703e-05
5.43247e-05
6.06328e-05
6.69187e-05
7.31197e-05
7.9203e-05
8.52007e-05
9.12274e-05
9.77275e-05
0.000105011
0.000113569
0.000124191
0.000137761
0.000155286
0.000177933
0.00020709
0.000244453
0.000292138
0.000352814
0.000429865
0.000527595
0.000651553
0.000808933
0.00100905
0.00126405
0.00158935
0.00200446
0.00253518
0.003215
0.0040875
0.00519584
0.00659361
0.00846107
0.0108755
0.0139855
0.0279934
0.0455725
0.0631086
0.0803525
0.0971136
0.113241
0.128615
0.143135
0.156719
0.169292
0.180786
0.191138
0.200269
0.208112
0.214614
0.219751
0.223565
0.226197
0.227876
0.228872
0.229425
0.229717
0.229864
0.229936
0.229971
0.229987
0.229994
0.229997
0.229999
0.23
0.23
0.23
0.23
0.23
0.23
0.23
0.23
0.23
0.23
5.80643e-10
2.53788e-09
5.83106e-09
1.13536e-08
2.05688e-08
3.58457e-08
6.09665e-08
1.01874e-07
1.67734e-07
2.7238e-07
4.3617e-07
6.88177e-07
1.06844e-06
1.62973e-06
2.43789e-06
3.56975e-06
5.10759e-06
7.13054e-06
9.70417e-06
1.28714e-05
1.66473e-05
2.10186e-05
2.59475e-05
3.13776e-05
3.72401e-05
4.34589e-05
4.9955e-05
5.66494e-05
6.34657e-05
7.03342e-05
7.71999e-05
8.40414e-05
9.09088e-05
9.7997e-05
0.000105636
0.000114208
0.000124199
0.000136339
0.000151541
0.000170843
0.000195448
0.000226788
0.000266604
0.000317041
0.00038083
0.000461426
0.000563237
0.000692076
0.000855144
0.00106174
0.00132353
0.00165586
0.00207847
0.00261686
0.00330411
0.0041832
0.00529618
0.00669579
0.00856115
0.0109679
0.0140596
0.0286046
0.046211
0.0637504
0.0809843
0.0977261
0.113828
0.129171
0.143657
0.157204
0.169737
0.181189
0.191496
0.20058
0.208374
0.214825
0.219912
0.22368
0.226272
0.227922
0.228898
0.229439
0.229725
0.229868
0.229938
0.229971
0.229987
0.229994
0.229997
0.229999
0.23
0.23
0.23
0.23
0.23
0.23
0.23
0.23
0.23
0.23
5.84196e-10
2.55344e-09
5.86703e-09
1.14244e-08
2.06993e-08
3.60785e-08
6.13748e-08
1.02582e-07
1.68953e-07
2.74464e-07
4.39706e-07
6.94124e-07
1.07834e-06
1.646e-06
2.46424e-06
3.61167e-06
5.17301e-06
7.23035e-06
9.85289e-06
1.30876e-05
1.69538e-05
2.14429e-05
2.65218e-05
3.21392e-05
3.82315e-05
4.47286e-05
5.15577e-05
5.8647e-05
6.59283e-05
7.33413e-05
8.08415e-05
8.84211e-05
9.61502e-05
0.000104298
0.000113154
0.000123034
0.000134451
0.00014813
0.000164966
0.000186018
0.000212529
0.000245979
0.000288172
0.000341347
0.000408357
0.000492723
0.00059894
0.00073256
0.000900856
0.00111309
0.0013811
0.00172008
0.00214953
0.00269459
0.00338767
0.00427066
0.00538437
0.00677791
0.00862618
0.010997
0.0140151
0.0290595
0.0466909
0.064236
0.0814629
0.0981894
0.11427
0.129589
0.144048
0.157566
0.170069
0.181488
0.191762
0.200811
0.208567
0.21498
0.22003
0.223763
0.226327
0.227955
0.228917
0.229449
0.22973
0.229871
0.229939
0.229972
0.229987
0.229994
0.229997
0.229999
0.23
0.23
0.23
0.23
0.23
0.23
0.23
0.23
0.23
0.23
5.86622e-10
2.56407e-09
5.89159e-09
1.14727e-08
2.07884e-08
3.62376e-08
6.16539e-08
1.03067e-07
1.69787e-07
2.75891e-07
4.42129e-07
6.98204e-07
1.08514e-06
1.65719e-06
2.48241e-06
3.64067e-06
5.21838e-06
7.29982e-06
9.95678e-06
1.32392e-05
1.71698e-05
2.17434e-05
2.69308e-05
3.2685e-05
3.8947e-05
4.56521e-05
5.27339e-05
6.01281e-05
6.77762e-05
7.56298e-05
8.36614e-05
9.18882e-05
0.000100422
0.000109512
0.000119493
0.000130729
0.000143511
0.000158587
0.000176886
0.000199507
0.000227741
0.000263129
0.000307537
0.000363267
0.000433109
0.000520649
0.000630406
0.000768095
0.000940989
0.00115836
0.00143202
0.00177711
0.00221298
0.00276451
0.00346366
0.00435166
0.00546838
0.00686135
0.00870395
0.0110618
0.0140555
0.0293563
0.0470153
0.0645687
0.081792
0.0985073
0.114573
0.129873
0.144313
0.157809
0.17029
0.181688
0.191938
0.200963
0.208695
0.215082
0.220107
0.223817
0.226362
0.227977
0.228929
0.229456
0.229733
0.229872
0.22994
0.229972
0.229987
0.229994
0.229998
0.229999
0.23
0.23
0.23
0.23
0.23
0.23
0.23
0.23
0.23
0.23
5.87835e-10
2.56937e-09
5.90383e-09
1.14968e-08
2.08325e-08
3.63161e-08
6.17912e-08
1.03305e-07
1.70196e-07
2.76589e-07
4.43312e-07
7.00193e-07
1.08845e-06
1.66265e-06
2.49128e-06
3.65485e-06
5.24062e-06
7.33398e-06
1.00081e-05
1.33144e-05
1.72774e-05
2.18939e-05
2.7137e-05
3.29618e-05
3.93124e-05
4.61272e-05
5.33437e-05
6.09028e-05
6.8752e-05
7.6851e-05
8.51827e-05
9.37783e-05
0.000102765
0.0001124
0.000123079
0.000135235
0.000149251
0.000165444
0.000184803
0.000208497
0.00023787
0.000274506
0.000320304
0.00037759
0.000449245
0.000538879
0.000651046
0.000791504
0.000967564
0.00118852
0.00146621
0.00181574
0.00225644
0.00281302
0.00351722
0.00440985
0.00552996
0.00692396
0.00876331
0.0111101
0.0140777
0.0295002
0.0471842
0.0647454
0.0819668
0.0986751
0.114731
0.13002
0.144448
0.157933
0.170402
0.181787
0.192025
0.201037
0.208756
0.215131
0.220143
0.223843
0.226379
0.227987
0.228935
0.229459
0.229735
0.229873
0.22994
0.229972
0.229988
0.229994
0.229998
0.229999
0.23
0.23
0.23
0.23
0.23
0.23
0.23
0.23
0.23
0.23
5.87836e-10
2.56938e-09
5.90384e-09
1.14968e-08
2.08326e-08
3.63162e-08
6.17913e-08
1.03305e-07
1.70196e-07
2.76589e-07
4.43313e-07
7.00195e-07
1.08846e-06
1.66266e-06
2.49129e-06
3.65486e-06
5.24064e-06
7.334e-06
1.00081e-05
1.33144e-05
1.72775e-05
2.1894e-05
2.71371e-05
3.29619e-05
3.93125e-05
4.61273e-05
5.33438e-05
6.09029e-05
6.87522e-05
7.68512e-05
8.51831e-05
9.3779e-05
0.000102766
0.000112402
0.000123082
0.000135241
0.000149257
0.000165449
0.000184806
0.000208499
0.000237872
0.000274507
0.000320305
0.000377591
0.000449246
0.000538881
0.000651048
0.000791507
0.000967567
0.00118852
0.00146621
0.00181575
0.00225644
0.00281303
0.00351723
0.00440986
0.00552997
0.00692397
0.00876332
0.0111101
0.0140777
0.0295003
0.0471842
0.0647454
0.0819668
0.0986751
0.114731
0.13002
0.144448
0.157933
0.170402
0.181787
0.192025
0.201037
0.208756
0.215131
0.220143
0.223843
0.226379
0.227987
0.228935
0.229459
0.229735
0.229873
0.22994
0.229972
0.229988
0.229994
0.229998
0.229999
0.23
0.23
0.23
0.23
0.23
0.23
0.23
0.23
0.23
0.23
5.86625e-10
2.56408e-09
5.89163e-09
1.14728e-08
2.07885e-08
3.62378e-08
6.16543e-08
1.03067e-07
1.69789e-07
2.75893e-07
4.42133e-07
6.9821e-07
1.08515e-06
1.65721e-06
2.48243e-06
3.64071e-06
5.21843e-06
7.29989e-06
9.95687e-06
1.32393e-05
1.71699e-05
2.17435e-05
2.6931e-05
3.26852e-05
3.89472e-05
4.56523e-05
5.2734e-05
6.01282e-05
6.77763e-05
7.563e-05
8.3662e-05
9.18893e-05
0.000100423
0.000109516
0.000119502
0.000130747
0.000143547
0.000158603
0.000176893
0.00019951
0.000227743
0.00026313
0.000307538
0.000363269
0.000433111
0.000520652
0.000630411
0.000768101
0.000940997
0.00115836
0.00143203
0.00177712
0.002213
0.00276453
0.00346368
0.00435169
0.00546841
0.00686138
0.00870398
0.0110618
0.0140556
0.0293565
0.0470155
0.0645689
0.0817921
0.0985075
0.114573
0.129873
0.144313
0.157809
0.17029
0.181688
0.191938
0.200963
0.208695
0.215082
0.220107
0.223817
0.226362
0.227977
0.228929
0.229456
0.229733
0.229872
0.22994
0.229972
0.229987
0.229994
0.229998
0.229999
0.23
0.23
0.23
0.23
0.23
0.23
0.23
0.23
0.23
0.23
5.842e-10
2.55346e-09
5.86708e-09
1.14245e-08
2.06994e-08
3.60788e-08
6.13753e-08
1.02583e-07
1.68955e-07
2.74466e-07
4.3971e-07
6.94129e-07
1.07835e-06
1.64601e-06
2.46425e-06
3.6117e-06
5.17304e-06
7.2304e-06
9.85294e-06
1.30876e-05
1.69539e-05
2.14429e-05
2.65218e-05
3.21391e-05
3.82312e-05
4.4728e-05
5.15568e-05
5.86455e-05
6.59262e-05
7.33383e-05
8.08375e-05
8.84162e-05
9.61437e-05
0.000104289
0.000113139
0.00012301
0.000134409
0.000148105
0.000164951
0.000186008
0.000212521
0.000245974
0.00028817
0.000341348
0.000408359
0.000492728
0.000598947
0.000732569
0.000900868
0.00111311
0.00138112
0.0017201
0.00214956
0.00269462
0.0033877
0.0042707
0.00538442
0.00677796
0.00862625
0.0109971
0.0140151
0.0290598
0.0466912
0.0642363
0.0814632
0.0981897
0.114271
0.129589
0.144048
0.157566
0.170069
0.181488
0.191762
0.200811
0.208567
0.21498
0.22003
0.223763
0.226327
0.227955
0.228917
0.229449
0.22973
0.229871
0.229939
0.229972
0.229987
0.229994
0.229997
0.229999
0.23
0.23
0.23
0.23
0.23
0.23
0.23
0.23
0.23
0.23
5.80649e-10
2.53791e-09
5.83112e-09
1.13537e-08
2.0569e-08
3.5846e-08
6.09671e-08
1.01875e-07
1.67735e-07
2.72382e-07
4.36175e-07
6.88184e-07
1.06845e-06
1.62974e-06
2.43792e-06
3.56978e-06
5.10764e-06
7.1306e-06
9.70425e-06
1.28715e-05
1.66474e-05
2.10187e-05
2.59475e-05
3.13776e-05
3.724e-05
4.34586e-05
4.99544e-05
5.66482e-05
6.34638e-05
7.03316e-05
7.71963e-05
8.40368e-05
9.09046e-05
9.79894e-05
0.000105625
0.000114194
0.000124186
0.000136331
0.000151538
0.000170843
0.00019545
0.000226792
0.000266607
0.000317043
0.000380832
0.000461429
0.000563244
0.000692086
0.000855157
0.00106176
0.00132355
0.00165589
0.0020785
0.0026169
0.00330416
0.00418326
0.00529625
0.00669587
0.00856124
0.010968
0.0140597
0.0286051
0.0462116
0.063751
0.0809849
0.0977267
0.113828
0.129171
0.143658
0.157204
0.169738
0.181189
0.191496
0.20058
0.208374
0.214825
0.219912
0.223679
0.226272
0.227922
0.228898
0.229439
0.229725
0.229868
0.229938
0.229971
0.229987
0.229994
0.229997
0.229999
0.23
0.23
0.23
0.23
0.23
0.23
0.23
0.23
0.23
0.23
5.7609e-10
2.51794e-09
5.78499e-09
1.12629e-08
2.04018e-08
3.5548e-08
6.0445e-08
1.0097e-07
1.6618e-07
2.69728e-07
4.3168e-07
6.8064e-07
1.05592e-06
1.6092e-06
2.40474e-06
3.51714e-06
5.02579e-06
7.00616e-06
9.5196e-06
1.26044e-05
1.62706e-05
2.04999e-05
2.52497e-05
3.04587e-05
3.6053e-05
4.19516e-05
4.80701e-05
5.43242e-05
6.06318e-05
6.69169e-05
7.31169e-05
7.91989e-05
8.51952e-05
9.1223e-05
9.77259e-05
0.000105014
0.000113572
0.000124195
0.000137766
0.000155292
0.00017794
0.000207098
0.000244463
0.000292149
0.000352825
0.000429877
0.000527604
0.000651562
0.000808944
0.00100907
0.00126408
0.00158938
0.0020045
0.00253523
0.00321507
0.00408758
0.00519593
0.00659373
0.00846121
0.0108757
0.0139857
0.0279943
0.0455734
0.0631096
0.0803536
0.0971147
0.113242
0.128616
0.143136
0.15672
0.169293
0.180787
0.191138
0.200269
0.208112
0.214614
0.219751
0.223565
0.226197
0.227876
0.228872
0.229425
0.229717
0.229864
0.229936
0.229971
0.229987
0.229994
0.229997
0.229999
0.23
0.23
0.23
0.23
0.23
0.23
0.23
0.23
0.23
0.23
5.70668e-10
2.4942e-09
5.73015e-09
1.1155e-08
2.02033e-08
3.51945e-08
5.98266e-08
9.99002e-08
1.64344e-07
2.666e-07
4.26393e-07
6.71787e-07
1.04126e-06
1.58522e-06
2.36612e-06
3.45606e-06
4.93115e-06
6.86287e-06
9.30794e-06
1.22997e-05
1.58431e-05
1.9915e-05
2.44682e-05
2.94371e-05
3.4744e-05
4.03042e-05
4.60302e-05
5.18347e-05
5.76331e-05
6.33472e-05
6.89118e-05
7.42898e-05
7.95033e-05
8.46587e-05
9.00764e-05
9.61862e-05
0.0001035
0.000112753
0.000124803
0.000140628
0.000161362
0.000188351
0.000223247
0.000268113
0.000325571
0.000398968
0.000492606
0.000611989
0.000764189
0.000958258
0.00120615
0.00152341
0.00193042
0.00245263
0.0031238
0.00398794
0.00508946
0.00648221
0.00834778
0.0107663
0.0138975
0.0272178
0.0447757
0.0623065
0.0795615
0.0963449
0.112503
0.127913
0.142475
0.156105
0.168727
0.180273
0.19068
0.199871
0.207776
0.214343
0.219544
0.223417
0.226099
0.227816
0.228837
0.229406
0.229707
0.22986
0.229934
0.22997
0.229986
0.229994
0.229997
0.229999
0.229999
0.23
0.23
0.23
0.23
0.23
0.23
0.23
0.23
0.23
5.64542e-10
2.46738e-09
5.66821e-09
1.10333e-08
1.99796e-08
3.47964e-08
5.91311e-08
9.86988e-08
1.62286e-07
2.63101e-07
4.20493e-07
6.6193e-07
1.02497e-06
1.55866e-06
2.32348e-06
3.38885e-06
4.82742e-06
6.70646e-06
9.07795e-06
1.19702e-05
1.53835e-05
1.92901e-05
2.36389e-05
2.83609e-05
3.33759e-05
3.85973e-05
4.39363e-05
4.93048e-05
5.46187e-05
5.98002e-05
6.4785e-05
6.95348e-05
7.40644e-05
7.84812e-05
8.29536e-05
8.80453e-05
9.43274e-05
0.000102381
0.000113055
0.000127308
0.000146244
0.000171173
0.000203701
0.000245844
0.000300163
0.000369944
0.000459419
0.000574053
0.000720914
0.000909139
0.0011505
0.00146013
0.00185807
0.0023711
0.00303318
0.00388816
0.00498185
0.0063681
0.00822976
0.0106498
0.0138003
0.026262
0.0437941
0.0613187
0.0785907
0.0954019
0.111596
0.12705
0.141662
0.155346
0.168029
0.179639
0.190115
0.199378
0.207361
0.214006
0.219286
0.223233
0.225977
0.227741
0.228793
0.229384
0.229697
0.229855
0.229932
0.229968
0.229986
0.229994
0.229997
0.229999
0.229999
0.23
0.23
0.23
0.23
0.23
0.23
0.23
0.23
0.23
5.57871e-10
2.43818e-09
5.60082e-09
1.0901e-08
1.97365e-08
3.43646e-08
5.83778e-08
9.74e-08
1.60065e-07
2.59335e-07
4.14157e-07
6.5137e-07
1.00757e-06
1.53036e-06
2.2782e-06
3.31772e-06
4.71803e-06
6.54217e-06
8.83747e-06
1.16275e-05
1.49079e-05
1.86472e-05
2.2791e-05
2.72684e-05
3.19975e-05
3.68913e-05
4.18615e-05
4.68215e-05
5.16892e-05
5.63903e-05
6.08641e-05
6.50752e-05
6.90377e-05
7.28544e-05
7.67215e-05
8.10005e-05
8.62785e-05
9.32298e-05
0.000102651
0.000115461
0.000132728
0.000155726
0.000186016
0.000225563
0.000276876
0.000343178
0.000428639
0.000538657
0.000680236
0.000862464
0.00109716
0.00139968
0.00178993
0.0022937
0.00294535
0.00379045
0.0048761
0.00625533
0.00811213
0.0105323
0.0136983
0.0251141
0.0426246
0.0601526
0.0774299
0.0942716
0.110507
0.12601
0.140679
0.154429
0.167184
0.178872
0.18943
0.198781
0.206856
0.213596
0.218971
0.223006
0.225825
0.227646
0.228743
0.229358
0.229683
0.229848
0.229928
0.229967
0.229985
0.229993
0.229997
0.229999
0.229999
0.23
0.23
0.23
0.23
0.23
0.23
0.23
0.23
0.23
5.5081e-10
2.40728e-09
5.52953e-09
1.07611e-08
1.94799e-08
3.39094e-08
5.75852e-08
9.6036e-08
1.57738e-07
2.55397e-07
4.07549e-07
6.40386e-07
9.89517e-07
1.5011e-06
2.2315e-06
3.2446e-06
4.60598e-06
6.37454e-06
8.59309e-06
1.12807e-05
1.44291e-05
1.80035e-05
2.19472e-05
2.61879e-05
3.06435e-05
3.52275e-05
3.98533e-05
4.44367e-05
4.8899e-05
5.31698e-05
5.7192e-05
6.09325e-05
6.44026e-05
6.7691e-05
7.10036e-05
7.46208e-05
7.90462e-05
8.5119e-05
9.34706e-05
0.000104999
0.000120746
0.000141952