/*--------------------------------*- C++ -*----------------------------------*\
  =========                 |
  \\      /  F ield         | OpenFOAM: The Open Source CFD Toolbox
   \\    /   O peration     | Website:  https://openfoam.org
    \\  /    A nd           | Version:  8
     \\/     M anipulation  |
\*---------------------------------------------------------------------------*/
FoamFile
{
    version     2.0;
    format      ascii;
    class       surfaceScalarField;
    location    "760/fluid";
    object      phi;
}
// * * * * * * * * * * * * * * * * * * * * * * * * * * * * * * * * * * * * * //

dimensions      [1 0 -1 0 0 0 0];

internalField   nonuniform List<scalar> 
7860
(
6.57263e-07
-1.77728e-08
6.54579e-07
-5.33188e-08
6.50759e-07
-8.86873e-08
6.45692e-07
-1.23776e-07
6.39245e-07
-1.58585e-07
6.31254e-07
-1.93069e-07
6.21534e-07
-2.27146e-07
6.09885e-07
-2.60692e-07
5.96103e-07
-2.93541e-07
5.79993e-07
-3.25471e-07
5.61383e-07
-3.56193e-07
5.40152e-07
-3.85341e-07
5.16274e-07
-4.12456e-07
4.89925e-07
-4.36995e-07
4.61385e-07
-4.58319e-07
4.3102e-07
-4.75764e-07
3.99299e-07
-4.88772e-07
3.66767e-07
-4.97051e-07
3.33987e-07
-5.00689e-07
3.01466e-07
-5.00172e-07
2.69612e-07
-4.96288e-07
2.38709e-07
-4.89944e-07
2.08937e-07
-4.81998e-07
1.80428e-07
-4.73147e-07
1.53229e-07
-4.63874e-07
1.27303e-07
-4.54478e-07
1.02581e-07
-4.4512e-07
7.89884e-08
-4.35869e-07
5.64529e-08
-4.26734e-07
3.49128e-08
-4.17698e-07
1.43156e-08
-4.08732e-07
-5.38002e-09
-3.9981e-07
-2.42023e-08
-3.90911e-07
-4.21796e-08
-3.82026e-07
-5.93431e-08
-3.7316e-07
-7.57161e-08
-3.643e-07
-9.13181e-08
-3.55407e-07
-1.06168e-07
-3.46495e-07
-1.20284e-07
-3.37583e-07
-1.33685e-07
-3.28694e-07
-1.46389e-07
-3.19852e-07
-1.58415e-07
-3.11083e-07
-1.69783e-07
-3.02414e-07
-1.8051e-07
-2.93871e-07
-1.90618e-07
-2.85483e-07
-2.00127e-07
-2.77275e-07
-2.09056e-07
-2.69276e-07
-2.17427e-07
-2.6151e-07
-2.25259e-07
-2.54005e-07
-2.32575e-07
-2.46786e-07
-2.39396e-07
-2.3988e-07
-2.45744e-07
-2.33314e-07
-2.51644e-07
-2.27117e-07
-2.5712e-07
-2.21323e-07
-2.62201e-07
-2.15969e-07
-2.66922e-07
-2.11099e-07
-2.71326e-07
-2.06767e-07
-2.75466e-07
-2.03066e-07
-2.79401e-07
-2.00066e-07
-2.83203e-07
-1.97829e-07
-2.87009e-07
-1.96594e-07
-2.91255e-07
-1.96534e-07
-2.96202e-07
-1.98835e-07
-3.03076e-07
-2.09963e-07
-3.10997e-07
-2.22406e-07
-3.19775e-07
-2.3614e-07
-3.29462e-07
-2.51346e-07
-3.40176e-07
-2.68263e-07
-3.52077e-07
-2.87167e-07
-3.65384e-07
-3.08382e-07
-3.80391e-07
-3.32304e-07
-3.97493e-07
-3.594e-07
-4.17219e-07
-3.90204e-07
-4.40255e-07
-4.25442e-07
-4.67464e-07
-4.65768e-07
-4.9982e-07
-5.11202e-07
-5.38218e-07
-5.60672e-07
-5.82938e-07
-6.11245e-07
-6.33737e-07
-6.57435e-07
-6.89417e-07
-6.92139e-07
-7.47624e-07
-7.09737e-07
-8.05431e-07
-7.09153e-07
-8.6033e-07
-6.93623e-07
-9.10771e-07
-6.67823e-07
-9.56097e-07
-6.35775e-07
-9.96125e-07
-6.00088e-07
-1.03074e-06
-5.622e-07
-1.06028e-06
-5.228e-07
-1.0853e-06
-4.82326e-07
-1.10632e-06
-4.41108e-07
-1.12384e-06
-3.99399e-07
-1.13831e-06
-3.57393e-07
-1.15014e-06
-3.15239e-07
-1.15968e-06
-2.73046e-07
-1.16727e-06
-2.30889e-07
-1.17317e-06
-1.88805e-07
-1.17763e-06
-1.46805e-07
-1.18082e-06
-1.04867e-07
-1.18292e-06
-6.29319e-08
-2.09851e-08
6.57907e-07
-1.71466e-08
6.5577e-07
-5.11816e-08
6.52044e-07
-8.49611e-08
6.46727e-07
-1.18459e-07
6.39752e-07
-1.51609e-07
6.31018e-07
-1.84335e-07
6.20413e-07
-2.1654e-07
6.07819e-07
-2.48099e-07
5.93134e-07
-2.78856e-07
5.76274e-07
-3.08612e-07
5.57196e-07
-3.37115e-07
5.35901e-07
-3.64045e-07
5.12457e-07
-3.89011e-07
4.87026e-07
-4.11564e-07
4.59837e-07
-4.3113e-07
4.31188e-07
-4.47112e-07
4.01444e-07
-4.59027e-07
3.71025e-07
-4.6663e-07
3.40355e-07
-4.70016e-07
3.0982e-07
-4.69634e-07
2.7973e-07
-4.66194e-07
2.50307e-07
-4.60516e-07
2.21692e-07
-4.5338e-07
1.93984e-07
-4.45435e-07
1.67234e-07
-4.37121e-07
1.41453e-07
-4.28693e-07
1.1663e-07
-4.20294e-07
9.2747e-08
-4.11982e-07
6.97813e-08
-4.03766e-07
4.77118e-08
-3.95626e-07
2.6518e-08
-3.87536e-07
6.18035e-09
-3.7947e-07
-1.33199e-08
-3.71409e-07
-3.19996e-08
-3.63345e-07
-4.98764e-08
-3.55281e-07
-6.69645e-08
-3.4721e-07
-8.32774e-08
-3.39092e-07
-9.88305e-08
-3.3094e-07
-1.1364e-07
-3.22772e-07
-1.27722e-07
-3.1461e-07
-1.41094e-07
-3.06478e-07
-1.53776e-07
-2.984e-07
-1.65787e-07
-2.90401e-07
-1.77147e-07
-2.8251e-07
-1.87878e-07
-2.74751e-07
-1.98001e-07
-2.67151e-07
-2.07539e-07
-2.59736e-07
-2.16515e-07
-2.52532e-07
-2.24954e-07
-2.45565e-07
-2.32881e-07
-2.38858e-07
-2.40322e-07
-2.32437e-07
-2.47306e-07
-2.26328e-07
-2.53865e-07
-2.20557e-07
-2.60034e-07
-2.15154e-07
-2.65853e-07
-2.10149e-07
-2.71373e-07
-2.05578e-07
-2.76654e-07
-2.01485e-07
-2.81774e-07
-1.97947e-07
-2.86833e-07
-1.95006e-07
-2.91978e-07
-1.92684e-07
-2.97437e-07
-1.91134e-07
-3.0349e-07
-1.9048e-07
-3.09267e-07
-1.93067e-07
-3.16307e-07
-2.02925e-07
-3.24576e-07
-2.14137e-07
-3.33975e-07
-2.26742e-07
-3.44494e-07
-2.40827e-07
-3.56209e-07
-2.56548e-07
-3.69252e-07
-2.74123e-07
-3.83807e-07
-2.93827e-07
-4.00107e-07
-3.16002e-07
-4.18448e-07
-3.41057e-07
-4.39171e-07
-3.69478e-07
-4.6266e-07
-4.01949e-07
-4.89389e-07
-4.39034e-07
-5.19893e-07
-4.80692e-07
-5.54683e-07
-5.25874e-07
-5.94081e-07
-5.71838e-07
-6.38165e-07
-6.13342e-07
-6.86355e-07
-6.43941e-07
-7.37107e-07
-6.58979e-07
-7.88284e-07
-6.57972e-07
-8.37934e-07
-6.43971e-07
-8.84744e-07
-6.21011e-07
-9.2807e-07
-5.92449e-07
-9.67653e-07
-5.60504e-07
-1.00334e-06
-5.26515e-07
-1.03511e-06
-4.91023e-07
-1.06309e-06
-4.54352e-07
-1.08743e-06
-4.16765e-07
-1.10836e-06
-3.78466e-07
-1.12614e-06
-3.39619e-07
-1.14102e-06
-3.00355e-07
-1.15328e-06
-2.60786e-07
-1.16317e-06
-2.20996e-07
-1.17093e-06
-1.8105e-07
-1.17674e-06
-1.4099e-07
-1.18077e-06
-1.00841e-07
-1.18309e-06
-6.06099e-08
-2.0255e-08
6.57609e-07
-1.62216e-08
6.54933e-07
-4.85058e-08
6.50518e-07
-8.05457e-08
6.44328e-07
-1.12269e-07
6.36322e-07
-1.43603e-07
6.26452e-07
-1.74465e-07
6.14669e-07
-2.04758e-07
6.00938e-07
-2.34368e-07
5.8524e-07
-2.63157e-07
5.67583e-07
-2.90954e-07
5.48008e-07
-3.1754e-07
5.26593e-07
-3.42631e-07
5.0345e-07
-3.65868e-07
4.78694e-07
-3.86807e-07
4.52506e-07
-4.04941e-07
4.25149e-07
-4.19754e-07
3.96946e-07
-4.30823e-07
3.68253e-07
-4.37935e-07
3.39418e-07
-4.4118e-07
3.10749e-07
-4.40963e-07
2.82487e-07
-4.3793e-07
2.548e-07
-4.32828e-07
2.2779e-07
-4.26367e-07
2.01484e-07
-4.19126e-07
1.75888e-07
-4.11523e-07
1.51012e-07
-4.03815e-07
1.26864e-07
-3.96144e-07
1.0345e-07
-3.88566e-07
8.07743e-08
-3.81088e-07
5.88403e-08
-3.7369e-07
3.76487e-08
-3.66343e-07
1.7199e-08
-3.59019e-07
-2.51092e-09
-3.51697e-07
-2.14856e-08
-3.44369e-07
-3.97314e-08
-3.37034e-07
-5.72531e-08
-3.29687e-07
-7.4056e-08
-3.22288e-07
-9.01484e-08
-3.14846e-07
-1.05541e-07
-3.07379e-07
-1.20244e-07
-2.99905e-07
-1.34273e-07
-2.92448e-07
-1.47643e-07
-2.85029e-07
-1.60371e-07
-2.77673e-07
-1.72476e-07
-2.70404e-07
-1.83978e-07
-2.63248e-07
-1.94899e-07
-2.56228e-07
-2.05263e-07
-2.49371e-07
-2.15096e-07
-2.42699e-07
-2.24425e-07
-2.36235e-07
-2.33279e-07
-2.30003e-07
-2.41692e-07
-2.24024e-07
-2.497e-07
-2.1832e-07
-2.57342e-07
-2.12915e-07
-2.64664e-07
-2.0783e-07
-2.7172e-07
-2.03092e-07
-2.7857e-07
-1.98728e-07
-2.85288e-07
-1.94767e-07
-2.91956e-07
-1.91278e-07
-2.98679e-07
-1.88283e-07
-3.05578e-07
-1.85784e-07
-3.12792e-07
-1.8392e-07
-3.20481e-07
-1.82789e-07
-3.27237e-07
-1.86315e-07
-3.35025e-07
-1.95137e-07
-3.4389e-07
-2.05272e-07
-3.53856e-07
-2.16775e-07
-3.6497e-07
-2.29712e-07
-3.77308e-07
-2.44209e-07
-3.90971e-07
-2.60457e-07
-4.06085e-07
-2.7871e-07
-4.22796e-07
-2.99288e-07
-4.41264e-07
-3.22585e-07
-4.61643e-07
-3.49094e-07
-4.84084e-07
-3.795e-07
-5.08818e-07
-4.14291e-07
-5.36174e-07
-4.53326e-07
-5.6666e-07
-4.95377e-07
-6.01062e-07
-5.37424e-07
-6.39938e-07
-5.74454e-07
-6.83069e-07
-6.00801e-07
-7.29184e-07
-6.12857e-07
-7.76362e-07
-6.1079e-07
-8.22784e-07
-5.97546e-07
-8.67159e-07
-5.76635e-07
-9.08767e-07
-5.5084e-07
-9.47302e-07
-5.21969e-07
-9.82768e-07
-4.91049e-07
-1.01513e-06
-4.58658e-07
-1.04436e-06
-4.25127e-07
-1.07046e-06
-3.90665e-07
-1.0935e-06
-3.55428e-07
-1.11358e-06
-3.19538e-07
-1.13083e-06
-2.83103e-07
-1.1454e-06
-2.46219e-07
-1.15743e-06
-2.08966e-07
-1.16706e-06
-1.71414e-07
-1.17443e-06
-1.3362e-07
-1.17964e-06
-9.5633e-08
-1.18276e-06
-5.74864e-08
-1.91985e-08
6.57628e-07
-1.53158e-08
6.54887e-07
-4.57647e-08
6.50305e-07
-7.59639e-08
6.4388e-07
-1.05844e-07
6.35601e-07
-1.35325e-07
6.25458e-07
-1.64322e-07
6.13441e-07
-1.92741e-07
5.99549e-07
-2.20475e-07
5.83788e-07
-2.47396e-07
5.6618e-07
-2.73347e-07
5.46768e-07
-2.98128e-07
5.25619e-07
-3.21482e-07
5.02837e-07
-3.43085e-07
4.78566e-07
-3.62537e-07
4.53006e-07
-3.79381e-07
4.26405e-07
-3.93154e-07
3.99055e-07
-4.03472e-07
3.71262e-07
-4.10142e-07
3.43327e-07
-4.13244e-07
3.15511e-07
-4.13146e-07
2.88026e-07
-4.10443e-07
2.61019e-07
-4.0582e-07
2.34588e-07
-3.99935e-07
2.08787e-07
-3.93324e-07
1.83639e-07
-3.86374e-07
1.59156e-07
-3.7933e-07
1.35338e-07
-3.72324e-07
1.12184e-07
-3.65411e-07
8.96932e-08
-3.58597e-07
6.78655e-08
-3.51862e-07
4.67009e-08
-3.45178e-07
2.61999e-08
-3.38517e-07
6.36259e-09
-3.31859e-07
-1.28121e-08
-3.25193e-07
-3.13268e-08
-3.18519e-07
-4.91828e-08
-3.1183e-07
-6.63817e-08
-3.05088e-07
-8.29279e-08
-2.98299e-07
-9.8828e-08
-2.91478e-07
-1.14091e-07
-2.84642e-07
-1.28727e-07
-2.7781e-07
-1.4275e-07
-2.71005e-07
-1.56175e-07
-2.64247e-07
-1.69019e-07
-2.57559e-07
-1.81301e-07
-2.50964e-07
-1.93044e-07
-2.44485e-07
-2.0427e-07
-2.38144e-07
-2.15006e-07
-2.31962e-07
-2.25281e-07
-2.2596e-07
-2.35126e-07
-2.20157e-07
-2.44575e-07
-2.14574e-07
-2.53668e-07
-2.09228e-07
-2.62445e-07
-2.04137e-07
-2.70954e-07
-1.99321e-07
-2.79247e-07
-1.94798e-07
-2.87386e-07
-1.90589e-07
-2.95434e-07
-1.86718e-07
-3.03464e-07
-1.83248e-07
-3.11565e-07
-1.80182e-07
-3.19826e-07
-1.77523e-07
-3.28345e-07
-1.75401e-07
-3.37209e-07
-1.73923e-07
-3.44956e-07
-1.78566e-07
-3.53568e-07
-1.86524e-07
-3.63098e-07
-1.95741e-07
-3.73609e-07
-2.06263e-07
-3.8517e-07
-2.18149e-07
-3.9786e-07
-2.31516e-07
-4.11768e-07
-2.46546e-07
-4.26993e-07
-2.63481e-07
-4.43644e-07
-2.82631e-07
-4.61846e-07
-3.04377e-07
-4.81715e-07
-3.29217e-07
-5.03406e-07
-3.57799e-07
-5.27194e-07
-3.90492e-07
-5.53474e-07
-4.27032e-07
-5.82788e-07
-4.66048e-07
-6.15745e-07
-5.04452e-07
-6.5272e-07
-5.37465e-07
-6.93421e-07
-5.60089e-07
-7.3671e-07
-5.6956e-07
-7.80982e-07
-5.66513e-07
-8.24741e-07
-5.53784e-07
-8.66905e-07
-5.3447e-07
-9.0681e-07
-5.10934e-07
-9.44101e-07
-4.84678e-07
-9.78612e-07
-4.56537e-07
-1.01029e-06
-4.26978e-07
-1.03914e-06
-3.96279e-07
-1.06518e-06
-3.64623e-07
-1.08846e-06
-3.32148e-07
-1.10903e-06
-2.98968e-07
-1.12696e-06
-2.6518e-07
-1.1423e-06
-2.30873e-07
-1.15514e-06
-1.96127e-07
-1.16554e-06
-1.61012e-07
-1.17357e-06
-1.25594e-07
-1.17927e-06
-8.99301e-08
-1.18268e-06
-5.40736e-08
-1.80614e-08
6.57565e-07
-1.43472e-08
6.54685e-07
-4.28849e-08
6.49907e-07
-7.11857e-08
6.43236e-07
-9.91724e-08
6.34678e-07
-1.26766e-07
6.24241e-07
-1.53885e-07
6.11939e-07
-1.80439e-07
5.97792e-07
-2.06329e-07
5.81833e-07
-2.31437e-07
5.64107e-07
-2.55621e-07
5.44679e-07
-2.787e-07
5.2364e-07
-3.00443e-07
5.01107e-07
-3.20552e-07
4.77235e-07
-3.38665e-07
4.52215e-07
-3.54362e-07
4.26279e-07
-3.67217e-07
3.99685e-07
-3.76879e-07
3.72708e-07
-3.83165e-07
3.45608e-07
-3.86144e-07
3.18614e-07
-3.86152e-07
2.91906e-07
-3.83735e-07
2.65612e-07
-3.79527e-07
2.39817e-07
-3.74139e-07
2.14568e-07
-3.68074e-07
1.89889e-07
-3.61695e-07
1.65793e-07
-3.55233e-07
1.42283e-07
-3.48814e-07
1.19362e-07
-3.4249e-07
9.70315e-08
-3.36265e-07
7.52924e-08
-3.30122e-07
5.41475e-08
-3.24032e-07
3.35992e-08
-3.17968e-07
1.36492e-08
-3.11909e-07
-5.70145e-09
-3.05842e-07
-2.44526e-08
-2.99767e-07
-4.26053e-08
-2.93677e-07
-6.01589e-08
-2.87534e-07
-7.71158e-08
-2.81342e-07
-9.34802e-08
-2.75113e-07
-1.09259e-07
-2.68863e-07
-1.24461e-07
-2.62608e-07
-1.39098e-07
-2.56368e-07
-1.53184e-07
-2.50162e-07
-1.66732e-07
-2.4401e-07
-1.79762e-07
-2.37934e-07
-1.92295e-07
-2.31953e-07
-2.04352e-07
-2.26086e-07
-2.15959e-07
-2.20354e-07
-2.27145e-07
-2.14774e-07
-2.37937e-07
-2.09364e-07
-2.48371e-07
-2.0414e-07
-2.58481e-07
-1.99118e-07
-2.68306e-07
-1.94312e-07
-2.77888e-07
-1.89738e-07
-2.87274e-07
-1.85412e-07
-2.96514e-07
-1.8135e-07
-3.05661e-07
-1.77571e-07
-3.14773e-07
-1.74137e-07
-3.2392e-07
-1.71034e-07
-3.33173e-07
-1.68271e-07
-3.42608e-07
-1.65966e-07
-3.52294e-07
-1.64236e-07
-3.61047e-07
-1.69809e-07
-3.70473e-07
-1.77096e-07
-3.8065e-07
-1.85561e-07
-3.9167e-07
-1.95239e-07
-4.03622e-07
-2.06193e-07
-4.16591e-07
-2.18543e-07
-4.30664e-07
-2.32467e-07
-4.45932e-07
-2.48206e-07
-4.62492e-07
-2.66064e-07
-4.80451e-07
-2.86408e-07
-4.99907e-07
-3.09749e-07
-5.21008e-07
-3.36684e-07
-5.44014e-07
-3.67472e-07
-5.69292e-07
-4.01736e-07
-5.97343e-07
-4.37978e-07
-6.28715e-07
-4.73062e-07
-6.63729e-07
-5.02434e-07
-7.02101e-07
-5.21705e-07
-7.4282e-07
-5.28833e-07
-7.84507e-07
-5.24821e-07
-8.25895e-07
-5.12393e-07
-8.66063e-07
-4.94301e-07
-9.04425e-07
-4.72571e-07
-9.40639e-07
-4.48464e-07
-9.745e-07
-4.22676e-07
-1.00588e-06
-3.95593e-07
-1.03472e-06
-3.67442e-07
-1.06097e-06
-3.38372e-07
-1.08462e-06
-3.08497e-07
-1.10568e-06
-2.7791e-07
-1.12416e-06
-2.46697e-07
-1.1401e-06
-2.14939e-07
-1.15351e-06
-1.8271e-07
-1.16445e-06
-1.50079e-07
-1.17293e-06
-1.17116e-07
-1.17897e-06
-8.3883e-08
-1.1826e-06
-5.04409e-08
-1.68448e-08
6.57562e-07
-1.33758e-08
6.54655e-07
-3.99779e-08
6.49826e-07
-6.63558e-08
6.43088e-07
-9.2435e-08
6.34461e-07
-1.18139e-07
6.23965e-07
-1.43389e-07
6.11627e-07
-1.68101e-07
5.97479e-07
-1.92181e-07
5.81565e-07
-2.15523e-07
5.63938e-07
-2.37994e-07
5.44669e-07
-2.59431e-07
5.23848e-07
-2.79623e-07
5.01593e-07
-2.98298e-07
4.78052e-07
-3.15124e-07
4.53409e-07
-3.29719e-07
4.27884e-07
-3.41694e-07
4.01726e-07
-3.50722e-07
3.75193e-07
-3.56633e-07
3.48534e-07
-3.59486e-07
3.21968e-07
-3.59587e-07
2.95666e-07
-3.57434e-07
2.69751e-07
-3.53613e-07
2.44303e-07
-3.48692e-07
2.19366e-07
-3.43138e-07
1.94963e-07
-3.37293e-07
1.71102e-07
-3.31373e-07
1.47783e-07
-3.25497e-07
1.25007e-07
-3.19714e-07
1.02773e-07
-3.14031e-07
8.10797e-08
-3.08429e-07
5.99288e-08
-3.02882e-07
3.93219e-08
-2.97362e-07
1.9261e-08
-2.91848e-07
-2.52923e-10
-2.86329e-07
-1.92215e-08
-2.80799e-07
-3.7643e-08
-2.75256e-07
-5.55161e-08
-2.69661e-07
-7.28423e-08
-2.64016e-07
-8.96247e-08
-2.5833e-07
-1.05868e-07
-2.52619e-07
-1.2158e-07
-2.46895e-07
-1.36771e-07
-2.41177e-07
-1.51452e-07
-2.35481e-07
-1.65636e-07
-2.29826e-07
-1.79341e-07
-2.24229e-07
-1.92584e-07
-2.18709e-07
-2.05387e-07
-2.13284e-07
-2.17772e-07
-2.07969e-07
-2.29764e-07
-2.02782e-07
-2.4139e-07
-1.97738e-07
-2.5268e-07
-1.92851e-07
-2.63664e-07
-1.88134e-07
-2.74374e-07
-1.83602e-07
-2.84846e-07
-1.79267e-07
-2.95116e-07
-1.75143e-07
-3.0522e-07
-1.71246e-07
-3.15199e-07
-1.67592e-07
-3.25089e-07
-1.64246e-07
-3.34958e-07
-1.61165e-07
-3.44831e-07
-1.58398e-07
-3.54785e-07
-1.56012e-07
-3.649e-07
-1.54121e-07
-3.7466e-07
-1.60047e-07
-3.84826e-07
-1.66927e-07
-3.95575e-07
-1.74809e-07
-4.0704e-07
-1.83769e-07
-4.19327e-07
-1.939e-07
-4.32529e-07
-2.05335e-07
-4.46734e-07
-2.18254e-07
-4.62036e-07
-2.32896e-07
-4.78532e-07
-2.49557e-07
-4.96331e-07
-2.68596e-07
-5.15541e-07
-2.90523e-07
-5.36342e-07
-3.15865e-07
-5.59013e-07
-3.44781e-07
-5.83942e-07
-3.76787e-07
-6.11623e-07
-4.10277e-07
-6.42541e-07
-4.42123e-07
-6.76896e-07
-4.68061e-07
-7.14281e-07
-4.84307e-07
-7.53662e-07
-4.89442e-07
-7.9376e-07
-4.84717e-07
-8.3346e-07
-4.7269e-07
-8.71976e-07
-4.55783e-07
-9.08815e-07
-4.3573e-07
-9.43688e-07
-4.13591e-07
-9.76418e-07
-3.89946e-07
-1.00689e-06
-3.65117e-07
-1.03504e-06
-3.39295e-07
-1.06081e-06
-3.12606e-07
-1.08416e-06
-2.85147e-07
-1.10507e-06
-2.57e-07
-1.12352e-06
-2.28242e-07
-1.13952e-06
-1.98945e-07
-1.15305e-06
-1.69178e-07
-1.16412e-06
-1.39009e-07
-1.17273e-06
-1.08503e-07
-1.17889e-06
-7.77269e-08
-1.18259e-06
-4.67418e-08
-1.56088e-08
6.57553e-07
-1.23948e-08
6.54624e-07
-3.70495e-08
6.49765e-07
-6.14964e-08
6.42993e-07
-8.56635e-08
6.34333e-07
-1.09479e-07
6.23811e-07
-1.32868e-07
6.11462e-07
-1.55752e-07
5.97327e-07
-1.78046e-07
5.81456e-07
-1.99651e-07
5.63909e-07
-2.20448e-07
5.44765e-07
-2.40287e-07
5.24116e-07
-2.58975e-07
5.02084e-07
-2.76265e-07
4.78814e-07
-2.91854e-07
4.54486e-07
-3.05392e-07
4.29311e-07
-3.1652e-07
4.03524e-07
-3.24936e-07
3.77369e-07
-3.3048e-07
3.51081e-07
-3.332e-07
3.24867e-07
-3.33374e-07
2.9889e-07
-3.31459e-07
2.73269e-07
-3.27994e-07
2.48081e-07
-3.23506e-07
2.23369e-07
-3.18428e-07
1.99155e-07
-3.13081e-07
1.75448e-07
-3.07666e-07
1.52246e-07
-3.02296e-07
1.29549e-07
-2.97018e-07
1.07354e-07
-2.91837e-07
8.56605e-08
-2.86736e-07
6.44677e-08
-2.81689e-07
4.37766e-08
-2.76671e-07
2.35885e-08
-2.71661e-07
3.90409e-09
-2.66645e-07
-1.52756e-08
-2.61619e-07
-3.39515e-08
-2.5658e-07
-5.21218e-08
-2.51491e-07
-6.97869e-08
-2.46351e-07
-8.69489e-08
-2.41169e-07
-1.03612e-07
-2.35957e-07
-1.19781e-07
-2.30727e-07
-1.35465e-07
-2.25494e-07
-1.50673e-07
-2.20274e-07
-1.65417e-07
-2.15082e-07
-1.79713e-07
-2.09934e-07
-1.93575e-07
-2.04847e-07
-2.07022e-07
-1.99837e-07
-2.20075e-07
-1.94917e-07
-2.32755e-07
-1.90103e-07
-2.45084e-07
-1.85409e-07
-2.5709e-07
-1.80846e-07
-2.68797e-07
-1.76428e-07
-2.80232e-07
-1.72166e-07
-2.91425e-07
-1.68074e-07
-3.02403e-07
-1.64165e-07
-3.13194e-07
-1.60456e-07
-3.2382e-07
-1.56966e-07
-3.34304e-07
-1.53762e-07
-3.44686e-07
-1.50783e-07
-3.5496e-07
-1.48123e-07
-3.65139e-07
-1.45831e-07
-3.75215e-07
-1.4402e-07
-3.85576e-07
-1.49683e-07
-3.96336e-07
-1.56164e-07
-4.07615e-07
-1.63525e-07
-4.19531e-07
-1.71848e-07
-4.32187e-07
-1.81237e-07
-4.4568e-07
-1.91834e-07
-4.60104e-07
-2.03822e-07
-4.75555e-07
-2.17435e-07
-4.9214e-07
-2.32962e-07
-5.09975e-07
-2.50751e-07
-5.2919e-07
-2.71299e-07
-5.4998e-07
-2.95061e-07
-5.72632e-07
-3.22109e-07
-5.97521e-07
-3.51874e-07
-6.25086e-07
-3.82686e-07
-6.55711e-07
-4.11475e-07
-6.89466e-07
-4.34288e-07
-7.25869e-07
-4.4789e-07
-7.63942e-07
-4.5136e-07
-8.02554e-07
-4.461e-07
-8.40748e-07
-4.34493e-07
-8.77852e-07
-4.18678e-07
-9.13432e-07
-4.0015e-07
-9.4722e-07
-3.79803e-07
-9.7904e-07
-3.58125e-07
-1.00877e-06
-3.35385e-07
-1.03633e-06
-3.1174e-07
-1.06164e-06
-2.87296e-07
-1.08465e-06
-2.62134e-07
-1.10532e-06
-2.36327e-07
-1.12363e-06
-2.0994e-07
-1.13953e-06
-1.83039e-07
-1.15302e-06
-1.55688e-07
-1.16408e-06
-1.27948e-07
-1.1727e-06
-9.98841e-08
-1.17887e-06
-7.15581e-08
-1.18258e-06
-4.30321e-08
-1.43685e-08
6.57556e-07
-1.14166e-08
6.54633e-07
-3.41265e-08
6.49781e-07
-5.66451e-08
6.43023e-07
-7.89054e-08
6.34384e-07
-1.0084e-07
6.23897e-07
-1.2238e-07
6.11599e-07
-1.43454e-07
5.97536e-07
-1.63982e-07
5.8176e-07
-1.83875e-07
5.64335e-07
-2.03024e-07
5.4534e-07
-2.21292e-07
5.24868e-07
-2.38503e-07
5.03037e-07
-2.54435e-07
4.79991e-07
-2.68808e-07
4.55902e-07
-2.81305e-07
4.30975e-07
-2.91594e-07
4.05437e-07
-2.994e-07
3.79526e-07
-3.0457e-07
3.5347e-07
-3.07147e-07
3.27472e-07
-3.07378e-07
3.01692e-07
-3.05682e-07
2.76249e-07
-3.02553e-07
2.51216e-07
-2.98476e-07
2.26639e-07
-2.93853e-07
2.02536e-07
-2.8898e-07
1.78914e-07
-2.84046e-07
1.55772e-07
-2.79156e-07
1.33106e-07
-2.74354e-07
1.10913e-07
-2.69645e-07
8.9189e-08
-2.65014e-07
6.79334e-08
-2.60435e-07
4.71459e-08
-2.55885e-07
2.68269e-08
-2.51342e-07
6.97713e-09
-2.46796e-07
-1.24034e-08
-2.42239e-07
-3.13149e-08
-2.37669e-07
-4.97554e-08
-2.33051e-07
-6.77245e-08
-2.28382e-07
-8.52234e-08
-2.23671e-07
-1.02255e-07
-2.18926e-07
-1.18823e-07
-2.14159e-07
-1.34934e-07
-2.09383e-07
-1.50597e-07
-2.04612e-07
-1.65821e-07
-1.99858e-07
-1.80618e-07
-1.95138e-07
-1.95003e-07
-1.90464e-07
-2.0899e-07
-1.8585e-07
-2.22597e-07
-1.81311e-07
-2.35842e-07
-1.76859e-07
-2.48746e-07
-1.72506e-07
-2.61329e-07
-1.68263e-07
-2.73615e-07
-1.64143e-07
-2.85626e-07
-1.60155e-07
-2.97388e-07
-1.56313e-07
-3.08924e-07
-1.5263e-07
-3.20258e-07
-1.49122e-07
-3.31408e-07
-1.45817e-07
-3.42404e-07
-1.42766e-07
-3.53257e-07
-1.3993e-07
-3.63964e-07
-1.37416e-07
-3.74486e-07
-1.35307e-07
-3.84548e-07
-1.33925e-07
-3.95074e-07
-1.39152e-07
-4.06097e-07
-1.45134e-07
-4.17682e-07
-1.51932e-07
-4.29905e-07
-1.59615e-07
-4.42846e-07
-1.68284e-07
-4.56592e-07
-1.78074e-07
-4.71233e-07
-1.89164e-07
-4.86866e-07
-2.01781e-07
-5.03604e-07
-2.162e-07
-5.21572e-07
-2.32756e-07
-5.40917e-07
-2.51922e-07
-5.61863e-07
-2.74085e-07
-5.84704e-07
-2.99241e-07
-6.09799e-07
-3.26753e-07
-6.37538e-07
-3.54921e-07
-6.68206e-07
-3.80783e-07
-7.0175e-07
-4.00723e-07
-7.37608e-07
-4.12017e-07
-7.74817e-07
-4.14142e-07
-8.12341e-07
-4.08569e-07
-8.49342e-07
-3.97489e-07
-8.85241e-07
-3.82777e-07
-9.19668e-07
-3.65722e-07
-9.5239e-07
-3.4708e-07
-9.83254e-07
-3.27262e-07
-1.01215e-06
-3.06493e-07
-1.03898e-06
-2.84908e-07
-1.06368e-06
-2.62595e-07
-1.08619e-06
-2.39626e-07
-1.10645e-06
-2.16062e-07
-1.12443e-06
-1.91962e-07
-1.14008e-06
-1.67385e-07
-1.15338e-06
-1.42387e-07
-1.1643e-06
-1.17028e-07
-1.17282e-06
-9.13643e-08
-1.17893e-06
-6.54562e-08
-1.1826e-06
-3.9362e-08
-1.31421e-08
6.57559e-07
-1.04418e-08
6.54646e-07
-3.12139e-08
6.49813e-07
-5.1812e-08
6.43082e-07
-7.21741e-08
6.3448e-07
-9.22384e-08
6.24042e-07
-1.11942e-07
6.11806e-07
-1.31219e-07
5.97821e-07
-1.49997e-07
5.8214e-07
-1.68195e-07
5.6483e-07
-1.85714e-07
5.45968e-07
-2.0243e-07
5.25649e-07
-2.18185e-07
5.03988e-07
-2.32774e-07
4.81125e-07
-2.45947e-07
4.57231e-07
-2.57412e-07
4.32503e-07
-2.66868e-07
4.07163e-07
-2.74061e-07
3.8144e-07
-2.7885e-07
3.55559e-07
-2.81268e-07
3.29717e-07
-2.8154e-07
3.04076e-07
-2.80043e-07
2.78751e-07
-2.77231e-07
2.53817e-07
-2.73546e-07
2.29319e-07
-2.69358e-07
2.05276e-07
-2.64939e-07
1.81693e-07
-2.60466e-07
1.5857e-07
-2.56035e-07
1.359e-07
-2.51687e-07
1.13679e-07
-2.47426e-07
9.19028e-08
-2.43239e-07
7.05687e-08
-2.39102e-07
4.96759e-08
-2.34993e-07
2.92243e-08
-2.30892e-07
9.21421e-09
-2.26786e-07
-1.03543e-08
-2.22672e-07
-2.94814e-08
-2.18543e-07
-4.81652e-08
-2.14369e-07
-6.64044e-08
-2.10144e-07
-8.41991e-08
-2.05877e-07
-1.01551e-07
-2.01575e-07
-1.18462e-07
-1.97249e-07
-1.34938e-07
-1.92908e-07
-1.50985e-07
-1.88565e-07
-1.66612e-07
-1.84233e-07
-1.81827e-07
-1.79923e-07
-1.96642e-07
-1.75649e-07
-2.1107e-07
-1.71423e-07
-2.25125e-07
-1.67257e-07
-2.38823e-07
-1.63162e-07
-2.5218e-07
-1.5915e-07
-2.65214e-07
-1.5523e-07
-2.77945e-07
-1.51413e-07
-2.90391e-07
-1.4771e-07
-3.02573e-07
-1.44132e-07
-3.14513e-07
-1.40691e-07
-3.26232e-07
-1.37404e-07
-3.37748e-07
-1.34301e-07
-3.49092e-07
-1.31423e-07
-3.6028e-07
-1.28743e-07
-3.71325e-07
-1.26371e-07
-3.82235e-07
-1.24399e-07
-3.92423e-07
-1.23697e-07
-4.03123e-07
-1.28448e-07
-4.14352e-07
-1.33901e-07
-4.26162e-07
-1.40119e-07
-4.38615e-07
-1.47159e-07
-4.51784e-07
-1.55111e-07
-4.6575e-07
-1.64105e-07
-4.806e-07
-1.7431e-07
-4.96437e-07
-1.85939e-07
-5.13379e-07
-1.99251e-07
-5.31558e-07
-2.14566e-07
-5.5114e-07
-2.32324e-07
-5.72358e-07
-2.52845e-07
-5.95505e-07
-2.76066e-07
-6.20921e-07
-3.01307e-07
-6.48935e-07
-3.26879e-07
-6.79724e-07
-3.49968e-07
-7.13122e-07
-3.67304e-07
-7.48509e-07
-3.76615e-07
-7.84959e-07
-3.77682e-07
-8.2154e-07
-3.71983e-07
-8.57516e-07
-3.61509e-07
-8.92386e-07
-3.47906e-07
-9.25828e-07
-3.3228e-07
-9.57633e-07
-3.15275e-07
-9.87657e-07
-2.97237e-07
-1.01579e-06
-2.78357e-07
-1.04195e-06
-2.58747e-07
-1.06607e-06
-2.38484e-07
-1.08806e-06
-2.17628e-07
-1.10789e-06
-1.96233e-07
-1.1255e-06
-1.74352e-07
-1.14085e-06
-1.52034e-07
-1.15391e-06
-1.29334e-07
-1.16463e-06
-1.06301e-07
-1.17301e-06
-8.29909e-08
-1.17901e-06
-5.94568e-08
-1.18262e-06
-3.5753e-08
-1.19363e-08
6.57565e-07
-9.47252e-09
6.54668e-07
-2.83173e-08
6.49861e-07
-4.70049e-08
6.43166e-07
-6.54793e-08
6.34612e-07
-8.36843e-08
6.24233e-07
-1.01563e-07
6.12069e-07
-1.19055e-07
5.98168e-07
-1.36096e-07
5.82585e-07
-1.52612e-07
5.65387e-07
-1.68515e-07
5.46649e-07
-1.83692e-07
5.26465e-07
-1.98001e-07
5.04949e-07
-2.11258e-07
4.82237e-07
-2.23236e-07
4.58496e-07
-2.33672e-07
4.33919e-07
-2.42293e-07
4.08721e-07
-2.48866e-07
3.83131e-07
-2.53262e-07
3.57368e-07
-2.55509e-07
3.31629e-07
-2.55805e-07
3.06074e-07
-2.54492e-07
2.80819e-07
-2.5198e-07
2.5594e-07
-2.48671e-07
2.31481e-07
-2.44902e-07
2.07462e-07
-2.40923e-07
1.83889e-07
-2.36895e-07
1.60757e-07
-2.32906e-07
1.38061e-07
-2.28993e-07
1.15796e-07
-2.25163e-07
9.39556e-08
-2.214e-07
7.25368e-08
-2.17685e-07
5.1538e-08
-2.13996e-07
3.09588e-08
-2.10314e-07
1.07992e-08
-2.06628e-07
-8.94068e-09
-2.02933e-07
-2.82609e-08
-1.99224e-07
-4.71592e-08
-1.95471e-07
-6.56336e-08
-1.91671e-07
-8.3683e-08
-1.87829e-07
-1.01308e-07
-1.83951e-07
-1.1851e-07
-1.80048e-07
-1.35293e-07
-1.76126e-07
-1.51661e-07
-1.72199e-07
-1.6762e-07
-1.68275e-07
-1.83178e-07
-1.64367e-07
-1.98343e-07
-1.60485e-07
-2.13127e-07
-1.56641e-07
-2.2754e-07
-1.52845e-07
-2.41596e-07
-1.49108e-07
-2.55308e-07
-1.45439e-07
-2.68691e-07
-1.41848e-07
-2.8176e-07
-1.38345e-07
-2.94533e-07
-1.34938e-07
-3.07027e-07
-1.3164e-07
-3.19259e-07
-1.2846e-07
-3.3125e-07
-1.25415e-07
-3.43019e-07
-1.22534e-07
-3.54591e-07
-1.19852e-07
-3.65989e-07
-1.17345e-07
-3.77248e-07
-1.15114e-07
-3.88412e-07
-1.13237e-07
-3.98816e-07
-1.13228e-07
-4.0974e-07
-1.17515e-07
-4.21181e-07
-1.22447e-07
-4.33201e-07
-1.28085e-07
-4.45861e-07
-1.3448e-07
-4.59236e-07
-1.41717e-07
-4.73403e-07
-1.49915e-07
-4.88457e-07
-1.59233e-07
-5.04502e-07
-1.6987e-07
-5.21665e-07
-1.82062e-07
-5.40088e-07
-1.96116e-07
-5.59953e-07
-2.12431e-07
-5.81503e-07
-2.31266e-07
-6.05025e-07
-2.52513e-07
-6.30831e-07
-2.7547e-07
-6.59186e-07
-2.98493e-07
-6.90175e-07
-3.18952e-07
-7.2353e-07
-3.33928e-07
-7.58584e-07
-3.41546e-07
-7.94444e-07
-3.41812e-07
-8.30261e-07
-3.36161e-07
-8.65383e-07
-3.26384e-07
-8.99374e-07
-3.13913e-07
-9.31952e-07
-2.99702e-07
-9.62933e-07
-2.84294e-07
-9.92186e-07
-2.67984e-07
-1.01961e-06
-2.50932e-07
-1.04512e-06
-2.33234e-07
-1.06865e-06
-2.14955e-07
-1.09013e-06
-1.96147e-07
-1.10951e-06
-1.76858e-07
-1.12673e-06
-1.57133e-07
-1.14174e-06
-1.37017e-07
-1.15452e-06
-1.16556e-07
-1.16503e-06
-9.57975e-08
-1.17323e-06
-7.47889e-08
-1.1791e-06
-5.35792e-08
-1.18264e-06
-3.22174e-08
-1.07553e-08
6.5757e-07
-8.50876e-09
6.5469e-07
-2.54369e-08
6.4991e-07
-4.22248e-08
6.43252e-07
-5.88219e-08
6.34746e-07
-7.5178e-08
6.24425e-07
-9.12419e-08
6.1233e-07
-1.0696e-07
5.98509e-07
-1.22275e-07
5.83015e-07
-1.3712e-07
5.65916e-07
-1.51415e-07
5.47286e-07
-1.65063e-07
5.27217e-07
-1.77933e-07
5.05821e-07
-1.89863e-07
4.83232e-07
-2.00649e-07
4.59613e-07
-2.10054e-07
4.35154e-07
-2.17835e-07
4.10066e-07
-2.23781e-07
3.84574e-07
-2.27773e-07
3.58895e-07
-2.29833e-07
3.33226e-07
-2.30139e-07
3.07725e-07
-2.28995e-07
2.8251e-07
-2.26769e-07
2.57659e-07
-2.23823e-07
2.33215e-07
-2.20462e-07
2.09197e-07
-2.1691e-07
1.85612e-07
-2.13313e-07
1.62456e-07
-2.09752e-07
1.39722e-07
-2.06262e-07
1.17403e-07
-2.02846e-07
9.54931e-08
-1.99493e-07
7.39888e-08
-1.96183e-07
5.28879e-08
-1.92896e-07
3.21894e-08
-1.89617e-07
1.18936e-08
-1.86333e-07
-7.99967e-09
-1.83041e-07
-2.74901e-08
-1.79734e-07
-4.6575e-08
-1.76387e-07
-6.52515e-08
-1.72996e-07
-8.3518e-08
-1.69563e-07
-1.01374e-07
-1.66097e-07
-1.1882e-07
-1.62603e-07
-1.35857e-07
-1.5909e-07
-1.52489e-07
-1.55568e-07
-1.68721e-07
-1.52045e-07
-1.84557e-07
-1.48532e-07
-2.00005e-07
-1.45038e-07
-2.15073e-07
-1.41574e-07
-2.29771e-07
-1.38149e-07
-2.44109e-07
-1.34772e-07
-2.58098e-07
-1.31451e-07
-2.71751e-07
-1.28197e-07
-2.85082e-07
-1.25016e-07
-2.98104e-07
-1.21918e-07
-3.10833e-07
-1.18912e-07
-3.23285e-07
-1.1601e-07
-3.35477e-07
-1.13224e-07
-3.4743e-07
-1.10582e-07
-3.59167e-07
-1.08115e-07
-3.70713e-07
-1.05801e-07
-3.82103e-07
-1.03725e-07
-3.93369e-07
-1.01975e-07
-4.04023e-07
-1.02516e-07
-4.1517e-07
-1.0636e-07
-4.26821e-07
-1.10788e-07
-4.39041e-07
-1.15856e-07
-4.51898e-07
-1.21614e-07
-4.65466e-07
-1.28139e-07
-4.79829e-07
-1.35541e-07
-4.95082e-07
-1.43966e-07
-5.11338e-07
-1.53597e-07
-5.2873e-07
-1.64651e-07
-5.47412e-07
-1.77412e-07
-5.67576e-07
-1.9224e-07
-5.89475e-07
-2.09338e-07
-6.13388e-07
-2.28568e-07
-6.39596e-07
-2.49229e-07
-6.68302e-07
-2.69756e-07
-6.99499e-07
-2.87727e-07
-7.32835e-07
-3.0057e-07
-7.67611e-07
-3.06754e-07
-8.02973e-07
-3.06441e-07
-8.38142e-07
-3.00986e-07
-8.72541e-07
-2.91981e-07
-9.05784e-07
-2.80669e-07
-9.37621e-07
-2.67864e-07
-9.67888e-07
-2.54027e-07
-9.96464e-07
-2.39407e-07
-1.02326e-06
-2.2414e-07
-1.04818e-06
-2.08306e-07
-1.07118e-06
-1.91961e-07
-1.09217e-06
-1.75151e-07
-1.11112e-06
-1.57915e-07
-1.12796e-06
-1.40294e-07
-1.14265e-06
-1.22327e-07
-1.15515e-06
-1.04055e-07
-1.16543e-06
-8.55191e-08
-1.17345e-06
-6.67619e-08
-1.17921e-06
-4.78268e-08
-1.18267e-06
-2.87573e-08
-9.59977e-09
6.57575e-07
-7.5504e-09
6.54711e-07
-2.25724e-08
6.49957e-07
-3.74705e-08
6.43335e-07
-5.22002e-08
6.34874e-07
-6.67169e-08
6.24608e-07
-8.09755e-08
6.12576e-07
-9.49286e-08
5.98826e-07
-1.08525e-07
5.83413e-07
-1.21706e-07
5.664e-07
-1.34402e-07
5.47862e-07
-1.46525e-07
5.2789e-07
-1.57962e-07
5.06593e-07
-1.68567e-07
4.84104e-07
-1.78161e-07
4.60581e-07
-1.86533e-07
4.36212e-07
-1.93468e-07
4.11206e-07
-1.98777e-07
3.85784e-07
-2.02354e-07
3.60163e-07
-2.04216e-07
3.34538e-07
-2.04519e-07
3.0907e-07
-2.03531e-07
2.83875e-07
-2.01579e-07
2.59033e-07
-1.98985e-07
2.34587e-07
-1.96019e-07
2.10557e-07
-1.92884e-07
1.8695e-07
-1.89709e-07
1.6376e-07
-1.86566e-07
1.40981e-07
-1.83486e-07
1.18606e-07
-1.80473e-07
9.66276e-08
-1.77516e-07
7.50417e-08
-1.74599e-07
5.3846e-08
-1.71702e-07
3.30396e-08
-1.68812e-07
1.26224e-08
-1.65917e-07
-7.40522e-09
-1.63014e-07
-2.70429e-08
-1.60098e-07
-4.62874e-08
-1.57144e-07
-6.51354e-08
-1.54149e-07
-8.35845e-08
-1.51116e-07
-1.01633e-07
-1.4805e-07
-1.1928e-07
-1.44957e-07
-1.36527e-07
-1.41845e-07
-1.53375e-07
-1.38721e-07
-1.69827e-07
-1.35594e-07
-1.85887e-07
-1.32473e-07
-2.01562e-07
-1.29366e-07
-2.16856e-07
-1.26281e-07
-2.31778e-07
-1.23228e-07
-2.46337e-07
-1.20214e-07
-2.60542e-07
-1.17248e-07
-2.74405e-07
-1.14336e-07
-2.87935e-07
-1.11487e-07
-3.01147e-07
-1.08708e-07
-3.14053e-07
-1.06008e-07
-3.26668e-07
-1.03396e-07
-3.39009e-07
-1.00885e-07
-3.51093e-07
-9.84992e-08
-3.62945e-07