/*--------------------------------*- C++ -*----------------------------------*\
  =========                 |
  \\      /  F ield         | OpenFOAM: The Open Source CFD Toolbox
   \\    /   O peration     | Website:  https://openfoam.org
    \\  /    A nd           | Version:  8
     \\/     M anipulation  |
\*---------------------------------------------------------------------------*/
FoamFile
{
    version     2.0;
    format      ascii;
    class       volScalarField;
    location    "760/fluid";
    object      Qdot;
}
// * * * * * * * * * * * * * * * * * * * * * * * * * * * * * * * * * * * * * //

dimensions      [1 -1 -3 0 0 0 0];

internalField   nonuniform List<scalar> 
4000
(
-3.7261e-13
-2.79292e-07
0
-7.53102e-12
-2.66779e-20
0
-1.13988e-19
-1.17251e-19
0
-2.61438e-10
0
3.7748e-07
-3.83364e-07
0
2.94885e-14
-3.42431e-17
-2.53798e-09
-3.10849e-15
-3.91377e-07
3.04963e-07
4.3251e-06
5.65199e-05
0.00066996
0.00659506
0.0529878
0.346894
1.86726
8.38444
31.9239
104.75
300.585
763.91
1738.52
3579.1
6725.56
11662.3
18910.5
29062.4
42922.6
61673.2
87003.1
121158
167060
228569
310817
420706
567405
762610
1.02277e+06
1.36877e+06
1.82801e+06
2.43641e+06
3.24116e+06
4.30425e+06
5.70734e+06
7.55831e+06
1.00004e+07
1.3182e+07
1.73369e+07
2.29846e+07
3.0493e+07
7.25742e+07
3.76001e+08
2.94795e+07
2.12256e+07
1.50965e+07
1.05864e+07
7.30541e+06
4.95106e+06
3.28956e+06
2.14141e+06
1.37056e+06
876632
561999
148293
11012
301.655
4.24811
0.0402697
0.000412838
7.82096e-06
3.68794e-07
4.14623e-08
9.00019e-09
2.61845e-09
1.15105e-09
4.25709e-10
1.69314e-10
6.95878e-11
3.48317e-11
1.36209e-11
1.21596e-11
2.26091e-12
1.00124e-12
-4.76608e-13
1.6635e-13
6.95901e-14
2.82907e-14
9.60708e-15
1.47643e-15
0
-2.93897e-21
-2.91165e-07
0
0
3.80964e-16
3.33531e-07
0
-3.49703e-07
2.55822e-10
0
0
-3.72204e-07
9.67779e-10
-2.17905e-09
-3.72576e-17
-4.44993e-09
-2.97998e-15
2.73413e-08
2.76809e-07
3.90436e-06
5.13382e-05
0.000606789
0.00602269
0.048951
0.324816
1.77327
8.07373
31.1479
103.454
300.175
770.411
1767.6
3662.31
6916.52
12031.2
19535.2
30014.8
44256.4
63415.4
89151.8
123679
169917
231744
314339
424668
571425
767201
1.02818e+06
1.37535e+06
1.83631e+06
2.44737e+06
3.2563e+06
4.32608e+06
5.73988e+06
7.60803e+06
1.00775e+07
1.33006e+07
1.75209e+07
2.32769e+07
3.09546e+07
1.14016e+08
3.39377e+08
2.93421e+07
2.10487e+07
1.49194e+07
1.04259e+07
7.16775e+06
4.83771e+06
3.19968e+06
2.0731e+06
1.32168e+06
845401
515967
110858
6592.13
156.204
1.98474
0.0184562
0.000208012
4.70155e-06
2.66392e-07
3.41581e-08
8.35808e-09
2.39634e-09
1.10821e-09
4.41529e-10
1.79452e-10
7.80033e-11
2.80749e-11
1.32695e-11
5.7355e-12
1.977e-12
9.87116e-13
1.29417e-12
1.65073e-13
6.92402e-14
2.51409e-14
-7.61591e-13
-5.06789e-12
-3.7176e-13
0
0
-2.99862e-07
0
-3.74763e-16
-7.68919e-16
1.12843e-19
3.40802e-07
-1.11517e-10
0
0
1.02971e-09
1.14586e-09
-1.15601e-09
-2.33346e-09
2.35723e-09
-2.95996e-15
2.62667e-08
2.66071e-07
3.87179e-06
4.75064e-05
0.000565057
0.00562721
0.0460935
0.309053
1.7075
7.87328
30.7651
103.469
303.842
788.689
1827.45
3815.27
7252.28
12669.7
20615.1
31674.3
46616.3
66569.6
93168.6
128601
175803
238690
322524
433765
582208
780910
1.04539e+06
1.39704e+06
1.86402e+06
2.48342e+06
3.30422e+06
4.3912e+06
5.8303e+06
7.73601e+06
1.02616e+07
1.35643e+07
1.79035e+07
2.38391e+07
3.17693e+07
1.8524e+08
2.71981e+08
2.94228e+07
2.096e+07
1.47525e+07
1.02363e+07
6.98633e+06
4.68002e+06
3.07183e+06
1.97588e+06
1.25334e+06
803589
438541
73250.6
3507.93
73.7671
0.886493
0.00857591
0.00011077
3.00544e-06
2.01229e-07
2.98783e-08
7.34107e-09
2.41131e-09
9.51542e-10
4.2576e-10
1.70433e-10
7.55634e-11
2.86596e-11
1.29342e-11
6.09345e-12
2.49311e-12
9.71975e-13
4.32239e-13
1.63599e-13
6.8819e-14
2.81107e-14
8.09926e-15
1.47836e-15
4.86381e-18
2.76463e-07
-2.87275e-07
0
-3.06375e-07
2.82269e-11
3.22036e-07
0
0
0
0
0
-4.49579e-10
-1.89893e-18
-2.66627e-14
-3.08592e-17
-2.8031e-16
-2.87243e-15
2.54081e-08
6.11303e-08
3.44885e-06
4.47956e-05
0.000533128
0.00534686
0.0442018
0.299605
1.67487
7.81702
30.9179
105.227
312.572
820.255
1919.62
4039.04
7719.08
13539.7
22069.2
33894.7
49769.2
70802.6
98611.2
135395
184155
248802
334288
448263
601005
804384
1.07502e+06
1.43481e+06
1.91264e+06
2.54667e+06
3.38739e+06
4.50179e+06
5.97893e+06
7.9377e+06
1.05375e+07
1.39346e+07
1.84051e+07
2.45354e+07
3.27419e+07
2.70459e+08
1.89184e+08
2.9405e+07
2.07814e+07
1.45051e+07
9.97824e+06
6.75064e+06
4.48221e+06
2.91653e+06
1.86156e+06
1.17567e+06
757348
349320
44924.4
1778.91
33.4649
0.382782
0.00386899
5.72656e-05
1.85588e-06
1.46536e-07
2.39257e-08
6.09955e-09
2.37459e-09
8.67909e-10
4.17126e-10
1.47867e-10
6.38659e-11
2.78449e-11
1.35044e-11
1.10688e-11
2.34407e-12
6.50022e-14
3.76908e-13
1.62657e-13
6.23406e-14
-5.31853e-12
8.84652e-15
7.453e-13
-4.85681e-18
2.02211e-17
8.38317e-17
2.94474e-07
0
2.7826e-11
-3.13281e-11
1.08752e-19
2.20718e-19
3.31002e-07
-3.34247e-07
0
-5.36871e-10
0
3.44394e-07
-3.35972e-17
2.20724e-09
-2.84369e-15
1.63573e-08
2.39261e-07
3.31378e-06
4.32181e-05
0.000514148
0.00518853
0.0432696
0.296272
1.67439
7.90286
31.6097
108.772
326.566
865.705
2044.95
4333.36
8315.09
14630.1
23865.3
36605.4
53585.1
75901.2
105158
143593
194203
260844
349422
468075
625983
836156
1.11575e+06
1.4874e+06
1.98099e+06
2.63606e+06
3.50499e+06
4.65731e+06
6.18558e+06
8.21342e+06
1.09005e+07
1.44005e+07
1.90283e+07
2.53846e+07
3.38786e+07
3.53553e+08
1.04294e+08
2.9121e+07
2.0377e+07
1.40878e+07
9.60234e+06
6.43842e+06
4.23789e+06
2.73501e+06
1.73374e+06
1.09174e+06
705955
249829
26561.8
899.037
15.4101
0.171309
0.00184243
3.14487e-05
1.20799e-06
1.10228e-07
1.9652e-08
5.5288e-09
1.9866e-09
7.9853e-10
3.5173e-10
1.43331e-10
6.64101e-11
3.16469e-11
1.15771e-11
5.6404e-12
2.2216e-12
9.52633e-13
3.97071e-13
1.42244e-13
6.83289e-14
2.19717e-14
8.1162e-15
1.30749e-15
0
-2.014e-17
-8.32704e-17
0
-2.99321e-07
3.59588e-16
3.08375e-11
-3.16578e-07
0
-3.04573e-15
-6.13945e-15
0
9.7422e-11
0
-8.58563e-10
3.35208e-07
-1.73934e-09
-2.79544e-15
-3.31954e-07
2.39925e-07
3.0623e-06
4.18719e-05
0.000504448
0.00512659
0.0431339
0.298273
1.70326
8.12405
32.835
114.146
346.084
926.001
2205.79
4702.25
9047.21
15947.1
26001.2
39784.8
58012.6
81785.2
112701
152937
205542
275134
368166
491794
656293
875213
1.16643e+06
1.55357e+06
2.06784e+06
2.75056e+06
3.65645e+06
4.85808e+06
6.45185e+06
8.56523e+06
1.13679e+07
1.50099e+07
1.98277e+07
2.64032e+07
3.51328e+07
4.23578e+08
3.95857e+07
2.77728e+07
1.931e+07
1.32725e+07
8.99653e+06
5.99972e+06
3.92858e+06
2.52348e+06
1.5946e+06
1.00526e+06
645790
187790
15551.8
463.078
7.34179
0.0803378
0.000924851
1.81085e-05
8.16917e-07
8.58431e-08
1.64986e-08
4.78475e-09
1.64423e-09
7.84188e-10
2.91851e-10
1.40942e-10
6.37091e-11
2.54435e-11
1.23521e-11
4.78061e-12
2.08497e-12
1.67038e-12
3.71701e-13
1.48522e-13
6.19858e-14
2.49749e-14
5.18306e-12
1.3127e-15
0
2.00552e-17
0
-1.29689e-11
-2.49595e-20
-2.70719e-11
0
-3.10941e-07
0
3.17047e-07
0
0
1.20875e-14
-3.24235e-07
8.33151e-10
-2.0569e-09
-3.75255e-09
-2.80226e-15
1.52721e-08
2.46973e-07
3.20087e-06
4.14545e-05
0.000502629
0.00514792
0.0436938
0.305037
1.75915
8.47418
34.5864
121.384
371.403
1002.25
2405.36
5156.34
9939.33
17497.4
28470.8
43391.2
62931.8
88177.7
120678
162799
218035
291490
388791
518081
690114
919099
1.22382e+06
1.62915e+06
2.16805e+06
2.88423e+06
3.83567e+06
5.09936e+06
6.77747e+06
9.0064e+06
1.19691e+07
1.57904e+07
2.10085e+07
2.79354e+07
3.70932e+07
4.50824e+08
3.49894e+07
2.4875e+07
1.74422e+07
1.20495e+07
8.18885e+06
5.4654e+06
3.57688e+06
2.29464e+06
1.44875e+06
916147
570358
136524
9230.25
247.889
3.69325
0.0403088
0.000499612
1.11583e-05
5.79171e-07
6.53796e-08
1.49897e-08
4.51854e-09
1.70722e-09
6.94228e-10
3.13097e-10
1.3268e-10
6.06855e-11
2.40982e-11
1.05401e-11
9.32662e-14
2.06471e-12
8.35357e-13
3.44241e-13
1.35475e-13
5.41352e-12
2.04584e-14
7.40309e-15
1.31754e-15
-4.83497e-18
-1.99709e-17
0
2.86469e-07
-1.71883e-16
1.47238e-11
0
1.43606e-15
2.07974e-19
0
0
0
0
-1.79908e-09
8.08484e-10
-4.07869e-17
3.63106e-09
-2.81111e-15
2.21114e-08
2.38126e-07
3.03975e-06
4.18334e-05
0.000508041
0.00524321
0.0448895
0.316278
1.84122
8.95318
36.8799
130.596
403.015
1096.15
2648.27
5702.05
10993.8
19294.5
31285.6
47442
68370.6
94986.7
128961
173310
231671
308472
410144
545195
724860
964011
1.28236e+06
1.70611e+06
2.27014e+06
3.02095e+06
4.02072e+06
5.3528e+06
7.12925e+06
9.50148e+06
1.26591e+07
1.67774e+07
2.24674e+07
3.0118e+07
4.04194e+07
4.38735e+08
3.21612e+07
2.28682e+07
1.60486e+07
1.1098e+07
7.54977e+06
5.04425e+06
3.30617e+06
2.12697e+06
1.35078e+06
864266
511415
101274
5761.94
141.143
1.99206
0.0218196
0.000290938
7.3357e-06
4.31988e-07
5.55889e-08
1.27704e-08
4.43794e-09
1.47504e-09
6.03092e-10
2.82157e-10
1.30604e-10
5.62079e-11
2.3778e-11
1.04129e-11
5.27069e-12
2.04502e-12
7.83836e-13
3.17278e-13
1.34887e-13
5.28578e-14
-7.5116e-13
6.68028e-15
1.23225e-15
-3.68576e-13
2.70717e-07
0
0
2.43904e-20
0
0
-3.00079e-07
-3.02078e-07
0
-1.95897e-10
0
0
0
-6.57354e-18
-3.61997e-17
-1.93554e-09
-2.84652e-15
2.13179e-08
2.43628e-07
3.09712e-06
4.24453e-05
0.000519856
0.00540626
0.0466767
0.331808
1.94915
9.56342
39.7417
141.934
441.565
1209.86
2940.32
6350.68
12223.5
21341.2
34411.4
51793.4
73997.7
102092
138209
184777
245521
325441
431172
571489
757980
1.00599e+06
1.33587e+06
1.77469e+06
2.35851e+06
3.13542e+06
4.16977e+06
5.54778e+06
7.3853e+06
9.83854e+06
1.31017e+07
1.73768e+07
2.3292e+07
3.12595e+07
7.48403e+07
4.0578e+08
3.04441e+07
2.16078e+07
1.51368e+07
1.04476e+07
7.0923e+06
4.72729e+06
3.09041e+06
1.98354e+06
1.25927e+06
811112
446550
75292.1
3744.75
85.0462
1.1507
0.0127319
0.000182278
5.12834e-06
3.39648e-07
4.71029e-08
1.09997e-08
3.66512e-09
1.54869e-09
6.42676e-10
2.66094e-10
1.15819e-10
5.25147e-11
2.03316e-11
1.02849e-11
3.19679e-12
1.82589e-12
8.22038e-13
3.1528e-13
1.3425e-13
4.93889e-14
1.8943e-14
6.68731e-15
5.03549e-12
2.62544e-07
-2.6958e-07
-5.81685e-21
-2.81208e-07
0
0
-6.87551e-16
0
-1.17166e-10
2.96902e-07
0
0
-2.96582e-07
0
-7.59795e-10
-3.82027e-17
4.41156e-14
8.62376e-14
2.0526e-08
2.41135e-07
3.1959e-06
4.37268e-05
0.000537507
0.00563214
0.0490308
0.351559
2.08325
10.3103
43.2111
155.601
487.874
1346.09
3288.64
7116.35
13646.7
23661.6
37887.3
56460.4
79960.4
109754
147508
196004
259092
341930
451320
596216
788422
1.04353e+06
1.38222e+06
1.8319e+06
2.42905e+06
3.22219e+06
4.27606e+06
5.67706e+06
7.54084e+06
1.00224e+07
1.33035e+07
1.75878e+07
2.34864e+07
3.13727e+07
1.37505e+08
3.50497e+08
2.9496e+07
2.09056e+07
1.46303e+07
1.00923e+07
6.85022e+06
4.56755e+06
2.98876e+06
1.92168e+06
1.22433e+06
794316
398776
57980.1
2572.9
54.5671
0.711606
0.00798195
0.000122171
3.79518e-06
2.75168e-07
4.1429e-08
1.04312e-08
3.51094e-09
1.32488e-09
6.31015e-10
2.77957e-10
1.13962e-10
4.5457e-11
2.69629e-11
1.01558e-11
3.95997e-12
8.16806e-13
7.661e-13
2.88834e-13
1.21487e-13
4.92348e-14
1.89188e-14
5.9633e-15
-5.02831e-12
0
0
5.7774e-21
0
1.66005e-16
0
0
-4.65762e-11
0
-9.34449e-11
1.86607e-10
-5.43331e-15
0
-2.15589e-14
-9.25076e-18
-3.69166e-17
-3.07506e-16
-2.9758e-15
3.09069e-07
2.57901e-07
3.30226e-06
4.53399e-05
0.000560453
0.00591686
0.0519283
0.375476
2.24396
11.2001
47.3327
171.829
542.896
1507.96
3700.98
8010.49
15258.7
26184.3
41501.2
61307.1
86327.5
117513
156822
207137
272432
357963
470640
619516
816500
1.07729e+06
1.42264e+06
1.88003e+06
2.4859e+06
3.28865e+06
4.35258e+06
5.76335e+06
7.63519e+06
1.01203e+07
1.33926e+07
1.7653e+07
2.35059e+07
3.13044e+07
1.93734e+08
2.96862e+08
2.88664e+07
2.04299e+07
1.42761e+07
9.8334e+06
6.66528e+06
4.43912e+06
2.90297e+06
1.86766e+06
1.19336e+06
780037
359319
45856.2
1854.27
37.0927
0.469488
0.00534348
8.70319e-05
2.95025e-06
2.32839e-07
3.70075e-08
9.85616e-09
3.25323e-09
1.39531e-09
5.71046e-10
2.62542e-10
1.11286e-10
4.78451e-11
2.12531e-11
8.47025e-12
3.91475e-12
1.59538e-12
5.98829e-12
3.1096e-13
-6.58722e-13
4.77251e-14
1.88848e-14
5.96511e-15
1.06256e-15
-3.66983e-13
0
2.72074e-07
0
1.64068e-16
0
9.5543e-20
0
-1.33579e-15
0
0
3.62137e-10
-3.59965e-10
2.08898e-14
2.07624e-14
-4.15688e-17
-3.13982e-16
-3.07431e-15
-2.55904e-07
2.56896e-07
3.44494e-06
4.73583e-05
0.000588075
0.00625583
0.0553414
0.403462
2.43144
12.2376
52.1483
190.854
607.667
1699.13
4187.58
9053.66
17086.7
28923.7
45374.8
66544.5
92800.2
125301
166097
218167
285572
373644
489353
641803
842943
1.10849e+06
1.45916e+06
1.92236e+06
2.53431e+06
3.34301e+06
4.41212e+06
5.82615e+06
7.69678e+06
1.01736e+07
1.34282e+07
1.76595e+07
2.34558e+07
3.11608e+07
2.42336e+08
2.50703e+08
2.8309e+07
2.00476e+07
1.40171e+07
9.66013e+06
6.55098e+06
4.36513e+06
2.8564e+06
1.83992e+06
1.1793e+06
775654
320532
37413.4
1399.54
26.6148
0.328772
0.00380117
6.54424e-05
2.39006e-06
2.01484e-07
3.41072e-08
9.28348e-09
3.1837e-09
1.36552e-09
5.59726e-10
2.38949e-10
1.22118e-10
4.40461e-11
1.57059e-11
9.12335e-12
3.09301e-12
1.48277e-12
6.56642e-13
2.84721e-13
1.2014e-13
4.29526e-14
-5.12533e-12
6.32502e-15
9.75125e-16
-2.61414e-07
-2.66208e-07
0
0
0
0
0
0
-2.78179e-07
-3.73989e-19
2.75446e-07
-2.74212e-07
7.78532e-10
-2.90351e-18
1.53175e-09
-4.57893e-17
3.02973e-09
-3.17241e-15
2.41856e-08
2.6647e-07
3.61999e-06
4.94703e-05
0.000620063
0.00664263
0.0592237
0.435274
2.64489
13.4233
57.6798
212.842
682.984
1922.32
4754.02
10244.1
19064.5
31799.3
49453.3
71757.8
99165
132926
175167
228961
298427
388949
507530
663301
868208
1.13794e+06
1.49313e+06
1.96101e+06
2.5775e+06
3.39012e+06
4.46139e+06
5.87382e+06
7.73848e+06
1.02049e+07
1.34377e+07
1.76296e+07
2.33595e+07
3.09575e+07
2.83284e+08
2.12312e+08
2.77482e+07
1.96756e+07
1.37729e+07
9.50234e+06
6.45134e+06
4.30421e+06
2.82098e+06
1.82123e+06
1.17182e+06
774773
284955
31404
1101.11
20.0561
0.242981
0.00285402
5.16349e-05
2.01025e-06
1.80583e-07
3.12404e-08
8.71473e-09
3.10593e-09
1.24461e-09
4.97052e-10
2.3426e-10
1.02198e-10
4.62795e-11
2.06163e-11
1.41753e-11
8.64153e-12
1.46663e-12
6.03043e-13
2.58808e-13
1.07591e-13
4.57013e-14
1.73332e-14
5.95879e-15
9.7641e-16
0
2.65094e-07
-1.13203e-20
0
2.72624e-07
-2.45466e-11
2.20438e-11
0
0
0
-2.12345e-10
-4.99564e-15
-2.62862e-07
2.60685e-07
1.93502e-14
-4.40678e-17
-3.33717e-16
-3.19366e-09
1.99309e-08
4.06178e-07
3.54524e-06
5.21637e-05
0.000655074
0.00706782
0.0634959
0.470399
2.88181
14.7482
63.9098
237.816
769.199
2178.88
5401.07
11559.3
21077.6
34539.6
53250.6
76593.1
105078
140052
183715
239212
310703
403605
524936
683831
892217
1.16572e+06
1.52486e+06
1.99663e+06
2.61641e+06
3.4305e+06
4.50094e+06
5.91156e+06
7.77119e+06
1.02228e+07
1.34256e+07
1.75715e+07
2.32265e+07
3.07074e+07
3.17144e+08
1.81092e+08
2.71878e+07
1.93146e+07
1.35447e+07
9.36157e+06
6.36723e+06
4.25615e+06
2.79541e+06
1.80949e+06
1.16861e+06
774738
268599
27030.2
899.213
15.8049
0.188623
0.0022497
4.25139e-05
1.75464e-06
1.64861e-07
2.97796e-08
8.49564e-09
3.03447e-09
1.21547e-09
5.35909e-10
2.5227e-10
1.06753e-10
4.11812e-11
2.02836e-11
3.76147e-12
8.14593e-12
6.93035e-13
6.44046e-13
2.80145e-13
-5.02783e-12
4.54789e-14
1.72802e-14
5.59175e-15
5.01147e-12
0
0
7.8319e-17
0
0
0
9.08436e-20
0
0
0
0
3.322e-10
2.54537e-07
6.46892e-10
-7.84871e-10
1.55179e-09
2.42776e-07
-3.38435e-15
1.95732e-08
4.16342e-07
3.8783e-06
5.45014e-05
0.000691858
0.00751655
0.0680275
0.507903
3.13685
16.1885
70.7577
265.596
866.186
2469.47
6128.55
12968.9
23104
37074.1
56575.3
80726.5
110137
146220
191247
248392
321838
417008
540925
702710
914260
1.19107e+06
1.55339e+06
2.02764e+06
2.64904e+06
3.4642e+06
4.53514e+06
5.94137e+06
7.78957e+06
1.0221e+07
1.33888e+07
1.74824e+07
2.30537e+07
3.04065e+07
3.44697e+08
1.56022e+08
2.66259e+07
1.89583e+07
1.33247e+07
9.23025e+06
6.29236e+06
4.21623e+06
2.77649e+06
1.80274e+06
1.16873e+06
776465
255804
23919.7
762.186
13.0054
0.15339
0.001855
3.63784e-05
1.5708e-06
1.55199e-07
2.83046e-08
8.26574e-09
2.86157e-09
1.22418e-09
5.23446e-10
2.24454e-10
1.03898e-10
4.2566e-11
1.9292e-11
7.99771e-12
3.71831e-12
1.52507e-12
-4.46507e-12
-4.85509e-12
1.06147e-13
4.524e-14
1.57781e-14
-5.03923e-12
9.77535e-16
2.01195e-13
2.62876e-07
7.77795e-17
1.56189e-16
0
3.12284e-16
8.92806e-20
0
0
-1.01861e-10
0
-4.70461e-15
2.46199e-07
-2.61564e-18
-2.3845e-07
-4.56886e-17
-2.32207e-07
-3.49627e-15
2.62132e-08
3.07544e-07
4.07446e-06
5.70484e-05
0.000728818
0.00796773
0.0726156
0.546196
3.39991
17.6917
78.001
295.415
971.823
2789.18
6923.28
14424.1
24753.7
38725.1
58718.4
83444.1
113612
150682
196969
255648
330901
428135
554342
718566
932519
1.21153e+06
1.57576e+06
2.05177e+06
2.67471e+06
3.49023e+06
4.55749e+06
5.95548e+06
7.78846e+06
1.01944e+07
1.3321e+07
1.73541e+07
2.28312e+07
3.00433e+07
3.66695e+08
1.36224e+08
2.60639e+07
1.86064e+07
1.31112e+07
9.10618e+06
6.22446e+06
4.18247e+06
2.76259e+06
1.79981e+06
1.17145e+06
779275
246512
21760.8
669.652
11.1519
0.130293
0.00159425
3.22291e-05
1.44425e-06
1.47342e-07
2.81011e-08
8.02629e-09
3.03913e-09
1.19224e-09
5.34391e-10
2.19345e-10
1.01724e-10
4.37649e-11
1.95929e-11
7.87064e-12
3.66572e-12
1.50601e-12
6.30514e-13
2.52154e-13
1.05371e-13
-7.05382e-13
-5.03751e-12
5.92968e-15
9.77493e-16
0
-2.76043e-21
0
0
-2.21736e-20
0
-6.1106e-16
2.57533e-07
0
-8.07629e-11
0
0
-3.76497e-10
-2.51931e-18
-2.2897e-07
1.15929e-09
-1.40319e-09
5.02517e-09
2.21231e-08
4.17872e-07
4.15413e-06
5.94662e-05
0.00076319
0.00839288
0.0769738
0.582905
3.65474
19.1649
85.1903
325.384
1078.97
3112.32
7690.91
15606.2
25404.7
38689.8
58828.9
83865.6
114563
152419
199731
259653
336325
435094
562909
728765
944366
1.22527e+06
1.5914e+06
2.06888e+06
2.69132e+06
3.50343e+06
4.56373e+06
5.94923e+06
7.76142e+06
1.01343e+07
1.32107e+07
1.71709e+07
2.25382e+07
2.95946e+07
3.83183e+08
1.21292e+08
2.55019e+07
1.82573e+07
1.29021e+07
8.98691e+06
6.16122e+06
4.15282e+06
2.75205e+06
1.79937e+06
1.17575e+06
782932
240414
20328.2
608.644
9.94061
0.115271
0.00142344
2.94634e-05
1.35871e-06
1.4133e-07
2.72024e-08
7.92073e-09
2.86173e-09
1.20494e-09
5.2076e-10
2.18935e-10
1.04947e-10
4.28889e-11
1.84624e-11
7.74071e-12
3.61198e-12
8.47482e-13
6.68905e-13
2.49773e-13
1.04564e-13
4.4719e-14
1.56551e-14
5.20265e-15
8.88353e-16
0
8.0592e-13
-5.85484e-12
0
0
-1.03757e-11
0
-4.99025e-11
1.16823e-15
2.29631e-15
4.50489e-15
-2.34609e-07
3.63259e-10
7.10339e-10
-5.65335e-10
2.46858e-09
-3.782e-16
4.76813e-09
2.56231e-08
4.21677e-07
4.31009e-06
6.15478e-05
0.000792627
0.00875876
0.080752
0.615031
3.88021
20.4846
91.7178
352.958
1178.38
3408.04
8329.4
16169.2
24298.8
36039.3
55867.3
80807.7
111652
149891
197774
258412
335913
435625
564550
731655
948606
1.23028e+06
1.59634e+06
2.07235e+06
2.69164e+06
3.49778e+06
4.54777e+06
5.91632e+06
7.70145e+06
1.0032e+07
1.30452e+07
1.69087e+07
2.21223e+07
2.89413e+07
4.01745e+08
1.07532e+08
2.4938e+07
1.79079e+07
1.26935e+07
8.86859e+06
6.09897e+06
4.12403e+06
2.74214e+06
1.79923e+06
1.17989e+06
787122
237021
19457.5
570.692
9.18274
0.105861
0.00131587
2.77076e-05
1.30581e-06
1.37547e-07
2.71434e-08
7.96893e-09
3.01668e-09
1.25047e-09
5.2526e-10
2.34437e-10
1.07905e-10
4.19953e-11
1.95684e-11
8.30617e-12
3.5572e-12
2.27602e-12
6.61193e-13
2.47323e-13
1.03728e-13
4.1596e-14
1.55874e-14
5.18959e-15
7.34891e-13
-2.00338e-13
0
2.59206e-07
0
6.33982e-12
-1.02166e-11
-5.89278e-16
2.46894e-07
1.14009e-15
-2.37664e-07
-2.32382e-07
2.26809e-07
-3.49979e-10
-2.32607e-18
-9.06827e-18
-5.30963e-17
-3.80748e-16
4.51047e-09
2.41464e-08
3.27067e-07
4.34831e-06
6.30927e-05
0.000814197
0.00902794
0.0835558
0.639089
4.05082
21.4954
96.7842
374.623
1256.59
3629.61
8677.56
15571.7
23671.6
31254.1
49203.8
73614.6
104096
142122
189905
250510
328004
427696
556364
722869
938677
1.21864e+06
1.58205e+06
2.05401e+06
2.66722e+06
3.46428e+06
4.50084e+06
5.84961e+06
7.60578e+06
9.89418e+06
1.28473e+07
1.66261e+07
2.17148e+07
2.83587e+07
4.09925e+08
1.00787e+08
2.43687e+07
1.75517e+07
1.24774e+07
8.74271e+06
6.02973e+06
4.08914e+06
2.72711e+06
1.79486e+06
1.18041e+06
788719
235543
19016.2
549.944
8.75649
0.10052
0.00125458
2.67059e-05
1.27522e-06
1.36904e-07
2.70586e-08
8.15548e-09
2.91982e-09
1.25672e-09
5.10634e-10
2.34709e-10
1.05371e-10
4.37458e-11
1.91108e-11
8.15988e-12
2.6245e-12
6.86759e-13
6.08882e-13
2.44814e-13
1.02874e-13
4.13298e-14
1.55171e-14
5.17578e-15
8.87158e-16
6.82332e-22
0
2.57376e-07
-5.14327e-12
-6.25939e-12
-1.00574e-11
0
2.41587e-07
0
-9.14444e-11
-1.45005e-10
-5.91193e-19
3.36687e-10
0
1.50663e-14
-5.0477e-17
9.77115e-10
4.2522e-09
2.26662e-08
3.28288e-07
4.51522e-06
6.37518e-05
0.000825125
0.00916681
0.0850119
0.651686
4.14097
22.0344
99.5055
386.206
1296.03
3707.46
8459.7
15983.9
24660.6
32587.7
39189.4
61605.3
90963.4
127788
174241
233299
308927
406301
532130
695105
906485
1.18087e+06
1.5372e+06
2.00012e+06
2.60167e+06
3.38361e+06
4.40036e+06
5.72295e+06
7.4442e+06
9.6856e+06
1.25756e+07
1.62695e+07
2.12352e+07
2.77053e+07
4.14632e+08
9.78329e+07
2.37812e+07
1.71678e+07
1.22298e+07
8.5858e+06
5.93243e+06
4.03042e+06
2.69279e+06
1.77536e+06
1.16924e+06
782026
234429
18868.2
541.855
8.57953
0.0982572
0.00122853
2.62851e-05
1.26421e-06
1.35699e-07
2.65718e-08
8.14711e-09
2.96829e-09
1.25079e-09
5.34681e-10
2.23357e-10
1.00514e-10
4.27682e-11
1.81287e-11
8.01163e-12
2.7525e-12
7.23983e-13
1.3553e-12
2.64465e-13
1.07598e-13
4.38703e-14
1.54449e-14
-7.26842e-13
7.33615e-13
-2.00048e-13
0
0
0
0
-2.937e-16
-5.78373e-16
-4.78023e-11
2.36573e-07
-2.3116e-07
-1.78219e-10
5.91192e-19
7.99851e-15
-2.22913e-18
6.34466e-10
-5.04768e-17
1.20096e-09
-3.75847e-15
2.49598e-08
3.26039e-07
4.51519e-06
6.37514e-05
0.000825153
0.00916691
0.0850135
0.651697
4.14104
22.0348
99.5071
386.212
1296.04
3707.5
8459.68
15983.9
24660.5
32587.6
39189.3
61604.3
90962.3
127787
174239
233298
308926
406300
532129
695105
906486
1.18087e+06
1.5372e+06
2.00012e+06
2.60168e+06
3.38362e+06
4.40037e+06
5.72296e+06
7.44422e+06
9.68561e+06
1.25756e+07
1.62695e+07
2.12353e+07
2.77053e+07
4.14633e+08
9.78322e+07
2.37812e+07
1.71678e+07
1.22298e+07
8.5858e+06
5.93243e+06
4.03042e+06
2.69279e+06
1.77536e+06
1.16924e+06
782025
234430
18868.5
541.864
8.57971
0.0982594
0.00122856
2.62851e-05
1.263e-06
1.357e-07
2.65717e-08
8.1471e-09
2.96828e-09
1.25079e-09
4.99968e-10
2.27829e-10
1.02804e-10
4.42047e-11
1.9457e-11
8.31488e-12
3.44497e-12
1.42577e-12
6.45392e-13
2.64465e-13
8.30092e-13
-4.90288e-12
1.54444e-14
5.51541e-15
9.74967e-16
-4.76002e-18
-1.90676e-17
0
-1.51693e-16
-5.15841e-12
1.25568e-11
0
-2.46943e-07
-1.14008e-15
2.37739e-07
2.32531e-07
0
2.21377e-07
-2.32606e-18
6.64662e-10
-4.86713e-17
-2.0264e-07
-3.73227e-15
2.41462e-08
3.29468e-07
4.4417e-06
6.30048e-05
0.000814245
0.00902841
0.0835601
0.639121
4.05102
21.4964
96.7886
374.64
1256.64
3629.74
8677.61
15571.3
23671.4
31253.7
49201.9
73612.2
104094
142119
189902
250507
328001
427695
556364
722871
938681
1.21864e+06
1.58206e+06
2.05402e+06
2.66723e+06
3.4643e+06
4.50087e+06
5.84964e+06
7.60582e+06
9.89422e+06
1.28474e+07
1.66261e+07
2.17148e+07
2.83587e+07
4.09928e+08
1.00785e+08
2.43687e+07
1.75516e+07
1.24774e+07
8.7427e+06
6.02972e+06
4.08913e+06
2.72712e+06
1.79486e+06
1.18041e+06
788721
235548
19017
549.973
8.75703
0.100526
0.00125466
2.67103e-05
1.27521e-06
1.36902e-07
2.70587e-08
7.85847e-09
3.00356e-09
1.2131e-09
5.50589e-10
2.2948e-10
1.00155e-10
4.37449e-11
1.98562e-11
8.84674e-12
3.50144e-12
1.44632e-12
6.08896e-13
2.44806e-13
1.02874e-13
4.41602e-14
1.69355e-14
5.17589e-15
8.87188e-16
4.76612e-18
0
2.61036e-07
6.44743e-12
2.59582e-07
0
2.55313e-07
-1.18568e-15
-1.67699e-19
7.86454e-11
1.89626e-10
-4.41135e-15
-2.9555e-10
0
2.20032e-07
-1.36112e-09
2.12323e-07
4.76809e-09
2.61062e-08
3.20541e-07
4.41916e-06
6.15381e-05
0.00079269
0.00875916
0.0807564
0.61506
3.88034
20.4851
91.7185
352.955
1178.35
3407.9
8328.98
16168.1
24297
36036.9
55863.8
80802.7
111647
149885
197768
258407
335908
435624
564552
731660
948615
1.2303e+06
1.59636e+06
2.07238e+06
2.69167e+06
3.49782e+06
4.54782e+06
5.91638e+06
7.70153e+06
1.00321e+07
1.30453e+07
1.69088e+07
2.21224e+07
2.89414e+07
4.01752e+08
1.07528e+08
2.49379e+07
1.79078e+07
1.26934e+07
8.86856e+06
6.09896e+06
4.12403e+06
2.74214e+06
1.79923e+06
1.17989e+06
787125
237029
19458.8
570.743
9.18368
0.105873
0.001316
2.77122e-05
1.3058e-06
1.37547e-07
2.74739e-08
8.00036e-09
3.01667e-09
1.17033e-09
5.25259e-10
2.29743e-10
1.00178e-10
4.34911e-11
1.82545e-11
8.30639e-12
3.55719e-12
1.55576e-12
6.16252e-13
1.00045e-12
1.0373e-13
4.44435e-14
1.70124e-14
-7.30468e-13
9.76604e-16
6.8525e-22
0
0
-1.54689e-16
0
0
2.0925e-11
4.14549e-11
0
2.50822e-07
1.58916e-10
4.55775e-15
2.38222e-07
-2.5193e-18
-7.41741e-18
-4.85971e-17
1.40321e-09
-2.18793e-07
2.4865e-08
3.05626e-07
4.14971e-06
5.94656e-05
0.000763267
0.00839366
0.0769794
0.58294
3.6549
19.1653
85.1894
325.367
1078.86
3111.83
7689.52
15602.3
25399.5
38683.8
58824.2
83863.8
114563
152421
199735
259658
336330
435097
562912
728769
944377
1.22529e+06
1.59142e+06
2.06891e+06
2.69137e+06
3.50348e+06
4.5638e+06
5.94932e+06
7.76153e+06
1.01345e+07
1.32109e+07
1.71711e+07
2.25384e+07
2.95949e+07
3.83196e+08
1.21282e+08
2.55018e+07
1.82572e+07
1.2902e+07
8.98689e+06
6.16121e+06
4.15282e+06
2.75205e+06
1.79937e+06
1.17576e+06
782938
240426
20330.1
608.718
9.94199
0.115288
0.00142364
2.94691e-05
1.36115e-06
1.41329e-07
2.72019e-08
8.09047e-09
3.0229e-09
1.20491e-09
4.97596e-10
2.24837e-10
1.04947e-10
4.56549e-11
1.86069e-11
7.74046e-12
-1.3094e-12
1.57683e-12
6.23453e-13
2.49773e-13
1.04564e-13
-6.98311e-13
7.55261e-13
5.20265e-15
8.88383e-16
-2.01195e-13
0
0
0
-2.24484e-20
4.48284e-20
0
-1.77352e-19
1.2241e-15
2.42021e-15
6.85556e-19
0
2.46515e-07
-2.61563e-18
6.14209e-10
3.53181e-14
-3.56055e-16
-3.49624e-15
2.62129e-08
3.07541e-07
3.95582e-06
5.70535e-05
0.000728811
0.00796854
0.0726225
0.546241
3.40012
17.6922
77.9997
295.386
971.595
2787.85
6917.14
14402.5
24739.1
38718.5
58716.5
83446
113616
150689
196978
255660
330915
428151
554360
718584
932535
1.21155e+06
1.57579e+06
2.05181e+06
2.67477e+06
3.4903e+06
4.55759e+06
5.9556e+06
7.78861e+06
1.01945e+07
1.33213e+07
1.73544e+07
2.28315e+07
3.00437e+07
3.66717e+08
1.36207e+08
2.60637e+07
1.86063e+07
1.31112e+07
9.10615e+06
6.22445e+06
4.18247e+06
2.7626e+06
1.79981e+06
1.17146e+06
779280
246527
21763.4
669.753
11.1538
0.130317
0.00159452
3.22324e-05
1.44423e-06
1.46073e-07
2.80966e-08
7.88047e-09
2.96488e-09
1.15435e-09
5.10666e-10
2.36329e-10
1.07283e-10
4.37658e-11
1.95933e-11
8.5912e-12
3.48406e-12
-3.51785e-12
-4.4173e-12
2.52162e-13
-4.95753e-12
4.21045e-14
7.58522e-13
5.21437e-15
9.77493e-16
-3.65413e-13
6.64046e-13
0
2.68325e-07
-5.42068e-12
1.33388e-11
9.08435e-20
0
2.66304e-07
1.89449e-10
-2.6112e-07
0
-4.02926e-10
0
-5.35398e-18
1.26254e-09
-3.40802e-16
-7.59255e-14
1.65342e-08
4.16339e-07
3.87827e-06
5.46356e-05
0.000692089
0.00751744
0.0680367
0.507969
3.13727
16.1909
70.77
265.659
866.493
2470.89
6134.58
12990.8
23122
37088
56586.5
80736.1
110146
146229
191257
248404
321852
417026
540947
702738
914295
1.19111e+06
1.55344e+06
2.02769e+06
2.6491e+06
3.46429e+06
4.53526e+06
5.94152e+06
7.78976e+06
1.02212e+07
1.33891e+07
1.74828e+07
2.30542e+07
3.0407e+07
3.44734e+08
1.55994e+08
2.66257e+07
1.89582e+07
1.33246e+07
9.23024e+06
6.29236e+06
4.21625e+06
2.77651e+06
1.80277e+06
1.16875e+06
776492
255829
23923.6
762.333
13.0082
0.153423
0.00185537
3.63832e-05
1.57341e-06
1.54477e-07
2.86677e-08
8.2655e-09
3.04905e-09
1.18531e-09
4.79411e-10
2.2445e-10
9.82257e-11
4.4625e-11
1.99423e-11
7.9977e-12
4.08682e-12
1.52503e-12
6.3737e-13
2.31222e-13
1.06145e-13
4.23419e-14
1.57776e-14
7.4756e-13
5.00696e-12
1.64166e-13
2.79547e-21
0
1.59182e-16
0
-2.73604e-07
0
2.73373e-07
8.76576e-11
-2.70513e-07
-2.68285e-07
0
0
1.49295e-09
-5.55782e-18
-1.61498e-09
-3.39186e-16
-2.52185e-07
1.99308e-08
2.83024e-07
3.80305e-06
5.20313e-05
0.000655058
0.0070689
0.0635058
0.470473
2.88228
14.7509
63.9233
237.878
769.443
2179.72
5403.47
11564.9
21085
34548.3
53259.8
76602.2
105087
140061
183725
239225
310718
403624
524959
683861
892255
1.16577e+06
1.52493e+06
1.99671e+06
2.6165e+06
3.43061e+06
4.50108e+06
5.91174e+06
7.77142e+06
1.02231e+07
1.34259e+07
1.75719e+07
2.3227e+07
3.07079e+07
3.17199e+08
1.8105e+08
2.71874e+07
1.93143e+07
1.35445e+07
9.36149e+06
6.36718e+06
4.25609e+06
2.79534e+06
1.80941e+06
1.16852e+06
774662
268595
27033.1
899.368
15.8083
0.188667
0.00225021
4.25202e-05
1.75461e-06
1.65465e-07
2.97795e-08
8.4955e-09
2.86e-09
1.21547e-09
5.35908e-10
2.30149e-10
1.06022e-10
4.54633e-11
2.02836e-11
8.86398e-12
3.7697e-12
1.54349e-12
6.44046e-13
-4.87653e-12
1.06888e-13
4.83945e-14
1.58307e-14
5.59175e-15
9.77174e-16
-6.89167e-22
0
7.93962e-17
-2.73451e-07
0
-2.77569e-07
2.78484e-07
0
1.30784e-15
3.73988e-19
-5.17922e-15
0
-7.78529e-10
-2.9035e-18
-8.64185e-18
-4.57891e-17
-3.24772e-16
-3.17239e-15
1.8139e-08
2.66469e-07
3.61996e-06
4.94942e-05
0.000620167
0.00664382
0.0592326
0.435336
2.64525
13.4251
57.6877
212.873
683.098
1922.71
4755.21
10247.4
19070
31804.9
49459.3
71764.4
99172.2
132934
175176
228972
298441
388967
507554
663331
868248
1.13799e+06
1.4932e+06
1.9611e+06
2.57761e+06
3.39026e+06
4.46155e+06
5.87402e+06
7.73875e+06
1.02052e+07
1.34382e+07
1.76301e+07
2.33601e+07
3.09583e+07
2.8336e+08
2.12255e+08
2.77484e+07
1.9676e+07
1.37733e+07
9.50278e+06
6.45178e+06
4.30465e+06
2.82143e+06
1.82169e+06
1.17225e+06
775112
285081
31416.5
1101.48
20.0624
0.243052
0.00285476
5.16453e-05
2.01022e-06
1.81966e-07
3.12398e-08
8.52016e-09
2.93185e-09
1.24457e-09
5.01975e-10
2.4785e-10
1.08837e-10
4.62795e-11
1.91163e-11
1.34139e-11
3.44103e-12
1.4666e-12
6.29181e-13
-4.92176e-12
-6.42917e-13
4.70163e-14
1.73332e-14
5.59809e-15
9.7638e-16
0
8.26508e-13
-2.72074e-07
-1.1643e-20
-2.79204e-07
0
-5.08039e-11
0
1.33579e-15
0
2.82789e-07
7.59037e-19
-2.79842e-07
-2.08927e-14
-8.94645e-18
-4.75069e-17
-2.7431e-07
-3.0743e-15
1.89372e-08
2.56895e-07
3.44361e-06
4.73721e-05
0.000588337
0.00625701
0.0553501
0.40352
2.43175
12.2391
52.1539
190.872
607.716
1699.23
4187.59
9052.68
17082.6
28920.1
45375.3
66547.6
92805.1
125308
166105
218177
285585
373661
489374
641832
842980
1.10853e+06
1.45923e+06
1.92244e+06
2.53442e+06
3.34315e+06
4.41231e+06
5.82638e+06
7.69707e+06
1.01739e+07
1.34287e+07
1.76601e+07
2.34565e+07
3.11618e+07
2.42425e+08
2.50637e+08
2.83071e+07
2.00451e+07
1.40143e+07
9.65743e+06