/*--------------------------------*- C++ -*----------------------------------*\
  =========                 |
  \\      /  F ield         | OpenFOAM: The Open Source CFD Toolbox
   \\    /   O peration     | Website:  https://openfoam.org
    \\  /    A nd           | Version:  8
     \\/     M anipulation  |
\*---------------------------------------------------------------------------*/
FoamFile
{
    version     2.0;
    format      ascii;
    class       volScalarField;
    location    "760/fluid";
    object      rDeltaT;
}
// * * * * * * * * * * * * * * * * * * * * * * * * * * * * * * * * * * * * * //

dimensions      [0 0 -1 0 0 0 0];

internalField   nonuniform List<scalar> 
4000
(
513.5
539.546
564.402
588.212
610.916
632.412
652.572
671.255
688.329
703.695
717.313
729.239
739.652
748.883
757.424
765.778
774.333
783.269
792.488
801.601
810.005
817.006
821.948
824.31
823.769
820.137
813.306
803.244
789.99
773.627
754.277
741.562
761.416
805.936
849.646
892.436
934.224
974.936
1014.52
1052.93
1090.15
1126.14
1160.91
1194.45
1226.77
1257.86
1287.73
1316.41
1343.89
1370.19
1395.33
1419.3
1442.13
1463.8
1484.34
1503.73
1521.98
1538.94
1554.61
1569.24
1582.72
2867.69
15065.8
1572.33
1535.82
1494.42
1448.61
1398.91
1345.73
1289.46
1230.51
1169.34
1106.55
1042.64
978.361
915.156
855.034
800.414
754.257
719.196
696.204
683.822
678.789
677.587
677.399
676.465
673.805
669.069
662.288
653.65
643.388
631.739
618.923
605.131
590.527
575.245
559.387
543.025
526.201
508.863
513.025
538.413
562.477
585.151
606.405
626.164
644.334
660.827
675.578
688.569
699.862
709.617
718.121
725.801
733.141
740.613
748.599
757.286
766.584
776.106
785.228
793.209
799.317
802.953
803.664
801.145
795.237
785.9
773.181
757.189
738.075
716.012
715.536
749.679
794.586
838.769
882.124
924.564
966.015
1006.42
1045.75
1083.96
1121.04
1156.98
1191.77
1225.41
1257.91
1289.28
1319.54
1348.68
1376.73
1403.7
1429.62
1454.49
1478.33
1501.15
1522.98
1543.65
1563.23
1582.02
1599.93
4510.04
13615.9
1583.07
1541.82
1496.95
1448.35
1396.09
1340.38
1281.44
1219.54
1155.06
1088.48
1020.22
951.226
883.36
819.264
762.198
715.416
681.246
659.89
649.149
645.493
645.522
646.706
647.495
647.072
644.985
641.081
635.386
628.008
619.089
608.785
597.247
584.619
571.022
556.558
541.301
525.29
508.555
512.323
536.154
558.489
579.292
598.502
616.06
631.909
646.015
658.382
669.069
678.213
686.047
692.903
699.203
705.395
711.934
719.204
727.402
736.455
745.998
755.427
764.004
770.987
775.713
777.637
776.374
771.71
763.571
751.98
737.032
718.865
697.648
678.122
692.159
737.362
782.142
826.377
869.967
912.825
954.885
996.093
1036.41
1075.8
1114.26
1151.76
1188.3
1223.89
1258.52
1292.22
1325
1356.88
1387.87
1418.02
1447.34
1475.85
1503.57
1530.49
1556.42
1581.34
1605.37
1627.97
7338.4
10935.4
1602.18
1556.2
1506.48
1453.09
1396.12
1335.72
1272.07
1205.44
1136.23
1064.96
992.195
919.23
848.368
782.618
725.473
680.014
647.909
628.616
619.542
617.162
618.259
620.489
622.411
623.315
622.839
620.812
617.189
611.997
605.303
597.194
587.765
577.111
565.32
552.47
538.625
523.833
508.109
511.635
534.088
554.974
574.251
591.874
607.805
622.017
634.508
645.308
654.499
662.231
668.735
674.337
679.45
684.547
690.103
696.507
703.957
712.382
721.422
730.475
738.805
745.662
750.376
752.416
751.406
747.121
739.456
728.404
714.03
696.446
675.796
652.246
650.138
683.34
728.444
773.287
817.761
861.778
905.262
948.155
990.408
1031.99
1072.86
1113.02
1152.45
1191.14
1229.09
1266.32
1302.82
1338.62
1373.73
1408.15
1441.89
1474.95
1507.29
1538.85
1569.29
1598.5
1626.47
1652.44
10733.4
7626.44
1614.59
1564.74
1510.61
1452.5
1390.67
1325.39
1256.97
1185.81
1112.45
1037.56
961.908
887.158
815.832
750.954
695.72
652.771
623.236
606.117
598.631
597.358
599.306
602.329
605.095
606.891
607.374
606.407
603.954
600.035
594.694
587.987
579.976
570.722
560.284
548.715
536.06
522.358
507.629
510.899
531.853
551.193
568.882
584.883
599.171
611.737
622.595
631.798
639.449
645.718
650.854
655.194
659.159
663.222
667.851
673.427
680.142
687.927
696.428
705.053
713.071
719.73
724.355
726.404
725.49
721.369
713.925
703.136
689.05
671.764
651.407
628.129
612.818
632.239
677.532
722.828
768.021
813.019
857.746
902.138
946.143
989.72
1032.84
1075.47
1117.6
1159.2
1200.28
1240.82
1280.83
1320.29
1359.19
1397.51
1435.23
1472.28
1508.58
1543.94
1577.93
1610.4
1641.19
1669.3
14056.7
4215.46
1618.47
1565.7
1507.93
1445.79
1379.77
1310.34
1237.96
1163.18
1086.7
1009.25
931.779
856.196
785.09
721.44
668.226
627.696
600.489
585.223
579.007
578.556
581.106
584.709
588.153
590.771
592.222
592.346
591.082
588.421
584.383
579.001
572.315
564.369
555.204
544.862
533.38
520.79
507.115
510.162
529.644
547.502
563.702
578.216
591.029
602.142
611.583
619.417
625.757
630.777
634.731
637.953
640.858
643.912
647.575
652.221
658.045
664.982
672.691
680.595
687.976
694.093
698.273
699.972
698.797
694.496
686.939
676.091
661.985
644.703
624.36
601.092
575.507
584.278
629.678
675.319
721.097
766.921
812.713
858.407
903.949
949.293
994.394
1039.22
1083.75
1127.95
1171.8
1215.27
1258.35
1301
1343.17
1384.82
1425.86
1466.18
1505.62
1543.95
1580.59
1615.35
1647.95
1677.21
16871.6
1662.81
1614.5
1559.16
1498.25
1432.73
1363.31
1290.6
1215.22
1137.82
1059.23
980.223
901.938
826.428
756.315
694.499
643.729
605.875
581.147
567.846
562.997
563.43
566.573
570.643
574.546
577.684
579.745
580.579
580.124
578.36
575.291
570.934
565.314
558.456
550.389
541.142
530.744
519.219
506.593
509.417
527.413
543.788
558.513
571.564
582.934
592.632
600.694
607.193
612.248
616.042
618.829
620.945
622.8
624.853
627.558
631.281
636.211
642.287
649.172
656.299
662.959
668.417
672.005
673.179
671.544
666.842
658.937
647.784
633.409
615.882
595.307
571.809
545.524
546.307
584.149
630.054
676.311
722.828
769.526
816.338
863.203
910.066
956.883
1003.61
1050.21
1096.65
1142.88
1188.86
1234.55
1279.89
1324.8
1369.2
1412.97
1455.94
1497.89
1538.52
1577.05
1613.65
1647.2
1676.64
17989.8
1656.19
1604.22
1545.86
1482.17
1414.03
1342.15
1267.2
1189.85
1110.86
1031.1
951.398
873.034
798.169
729.419
669.581
621.189
585.787
563.234
551.6
547.892
549.072
552.741
557.26
561.627
565.289
567.953
569.473
569.781
568.847
566.668
563.249
558.603
552.748
545.703
537.49
528.132
517.651
506.069
508.674
525.195
540.11
553.392
565.023
575.002
583.343
590.088
595.316
599.15
601.773
603.439
604.481
605.302
606.352
608.077
610.836
614.814
619.951
625.917
632.155
637.966
642.623
645.462
645.943
643.668
638.378
629.931
618.278
603.436
585.468
564.47
540.557
513.856
508.61
540.479
586.563
633.188
680.263
727.707
775.448
823.418
871.562
919.825
968.157
1016.51
1064.82
1113.04
1161.12
1208.98
1256.53
1303.7
1350.34
1396.32
1441.42
1485.38
1527.75
1567.81
1605.53
1639.55
1668.4
17543.7
1642.21
1587.54
1526.88
1461.16
1391.16
1317.63
1241.24
1162.72
1082.88
1002.65
922.867
844.948
771.118
703.972
646.222
600.206
567.18
546.704
536.665
534.061
535.974
540.157
545.095
549.871
553.979
557.151
559.249
560.205
559.987
558.584
555.994
552.223
547.282
541.184
533.943
525.577
516.106
505.551
507.934
522.986
536.45
548.304
558.533
567.14
574.146
579.596
583.572
586.2
587.664
588.217
588.187
587.973
588.015
588.751
590.531
593.535
597.705
602.713
608.008
612.899
616.667
618.654
618.323
615.276
609.256
600.118
587.81
572.344
553.779
532.205
507.729
480.473
470.679
498.144
544.326
591.215
638.719
686.754
735.244
784.121
833.32
882.779
932.437
982.231
1032.1
1081.96
1131.76
1181.38
1230.75
1279.72
1328.16
1375.88
1422.65
1468.15
1511.9
1553.21
1591.97
1626.84
2960.6
16255.5
1622.63
1566.08
1503.82
1436.7
1365.5
1290.94
1213.75
1134.67
1054.56
974.353
894.916
817.781
745.217
679.794
624.124
580.367
549.531
530.931
522.319
520.711
523.306
527.991
533.355
538.551
543.112
546.788
549.449
551.026
551.488
550.817
549.01
546.066
541.99
536.793
530.484
523.078
514.591
505.041
507.198
520.791
532.816
543.255
552.098
559.351
565.039
569.212
571.952
573.388
573.704
573.149
572.05
570.795
569.82
569.551
570.329
572.332
575.497
579.501
583.798
587.704
590.507
591.554
590.314
586.392
579.53
569.585
556.503
540.294
521.015
498.75
473.603
445.69
432.497
456.76
502.955
550.004
597.813
646.296
695.375
744.975
795.025
845.455
896.195
947.173
998.312
1049.53
1100.73
1151.81
1202.64
1253.1
1303.01
1352.16
1400.3
1447.1
1492.05
1534.47
1574.3
1610.3
5444.48
14063.5
1598.04
1540.57
1477.47
1409.62
1337.81
1262.79
1185.31
1106.14
1026.18
946.351
867.571
791.454
720.293
656.63
602.993
561.384
532.589
515.72
508.428
507.758
511.014
516.202
521.999
527.62
532.631
536.8
540.004
542.178
543.288
543.316
542.254
540.099
536.853
532.522
527.113
520.637
513.108
504.543
506.466
518.608
529.203
538.235
545.701
551.609
555.987
558.888
560.397
560.644
559.81
558.146
555.971
553.669
551.665
550.377
550.139
551.121
553.256
556.225
559.484
562.357
564.137
564.18
561.956
557.078
549.289
538.448
524.501
507.46
487.377
464.336
438.438
409.795
394.061
416.008
462.137
509.249
557.25
606.053
655.573
705.733
756.455
807.663
859.278
911.218
963.396
1015.72
1068.07
1120.35
1172.41
1224.1
1275.23
1325.58
1374.88
1422.81
1468.8
1512.21
1552.98
1589.85
7677.45
11930.7
1570.05
1512.29
1448.9
1380.8
1308.83
1233.76
1156.36
1077.45
997.952
918.773
840.857
765.903
696.218
634.311
582.631
543.034
516.118
500.829
494.746
494.952
498.85
504.545
510.792
516.858
522.336
527.01
530.762
533.53
535.281
535.995
535.661
534.276
531.838
528.35
523.818
518.25
511.657
504.055
505.739
516.437
525.608
533.241
539.336
543.904
546.976
548.608
548.888
547.944
545.959
543.18
539.922
536.563
533.52
531.201
529.93
529.871
530.955
532.861
535.049
536.849
537.561
536.546
533.282
527.385
518.603
506.799
491.92
473.977
453.026
429.148
402.443
373.021
355.379
375.656
421.641
468.727
516.818
565.824
615.657
666.235
717.476
769.295
821.609
874.326
927.349
980.575
1033.89
1087.15
1140.23
1192.94
1245.1
1296.47
1346.77
1395.64
1442.54
1486.81
1528.37
1565.94
9611.62
10089
1539.83
1482.11
1418.77
1350.78
1278.98
1204.18
1127.17
1048.8
969.989
891.639
814.733
741.038
672.861
612.68
562.867
525.15
499.969
486.131
481.167
482.202
486.728
492.94
499.657
506.188
512.152
517.344
521.654
525.021
527.412
528.807
529.194
528.566
526.923
524.263
520.591
515.913
510.237
503.577
505.015
514.276
522.03
528.268
532.994
536.224
537.992
538.355
537.403
535.264
532.123
528.223
523.874
519.449
515.356
511.993
509.677
508.563
508.578
509.399
510.49
511.186
510.793
508.679
504.33
497.366
487.543
474.724
458.862
439.97
418.104
393.347
365.798
335.564
316.469
335.528
381.299
428.279
476.368
525.475
575.508
626.382
678.009
730.301
783.165
836.504
890.214
944.181
998.28
1052.37
1106.3
1159.89
1212.92
1265.16
1316.31
1366.02
1413.72
1458.74
1501.01
1539.22
11244.1
8553.82
1508.09
1450.64
1387.6
1319.96
1248.59
1174.31
1097.92
1020.28
942.323
864.944
789.156
716.782
650.121
591.618
543.575
507.609
484.022
471.517
467.591
469.415
474.562
481.302
488.509
495.53
502.003
507.734
512.616
516.593
519.631
521.71
522.816
522.944
522.087
520.246
517.422
513.619
508.845
503.109
504.294
512.124
518.464
523.311
526.672
528.564
529.027
528.118
525.93
522.594
518.29
513.26
507.813
502.312
497.16
492.744
489.371
487.189
486.119
485.838
485.811
485.378
483.852
480.608
475.139
467.073
456.17
442.3
425.418
405.543
382.73
357.066
328.648
297.585
277.353
295.501
340.994
387.794
435.801
484.919
535.056
586.121
638.023
690.667
743.958
797.791
852.055
906.63
961.383
1016.17
1070.82
1125.14
1178.93
1231.93
1283.84
1334.3
1382.71
1428.43
1471.38
1510.25
12595.9
7302.82
1475.33
1418.28
1355.72
1288.63
1217.88
1144.29
1068.69
991.932
914.968
838.669
764.081
693.062
627.905
571.023
524.655
490.317
468.199
456.917
453.959
456.539
462.302
469.583
477.304
484.838
491.844
498.134
503.608
508.209
511.905
514.674
516.504
517.386
517.313
516.285
514.3
511.362
507.476
502.649
503.575
509.979
514.909
518.367
520.362
520.917
520.073
517.89
514.463
509.922
504.449
498.284
491.73
485.147
478.926
473.447
469.009
465.748
463.582
462.185
461.023
459.441
456.76
452.362
445.747
436.551
424.541
409.592
391.666
370.783
347.003
320.414
291.115
259.215
238.056
255.488
300.646
347.202
395.054
444.106
494.263
545.429
597.511
650.41
704.024
758.244
812.955
868.029
923.326
978.692
1033.96
1088.92
1143.38
1197.05
1249.64
1300.78
1349.87
1396.26
1439.88
1479.41
13697.6
6296.42
1441.83
1385.31
1323.36
1256.96
1186.98
1114.23
1039.55
963.798
887.925
812.786
739.452
669.808
606.136
550.818
506.034
473.212
452.446
442.289
440.228
443.535
449.912
457.75
466.005
474.079
481.641
488.513
494.597
499.839
504.205
507.675
510.234
511.874
512.586
512.368
511.218
509.137
506.128
502.196
502.859
507.84
511.363
513.432
514.062
513.279
511.124
507.665
502.993
497.244
490.596
483.289
475.622
467.948
460.652
454.103
448.591
444.244
440.972
438.446
436.137
433.392
429.538
423.967
416.186
405.841
392.704
376.659
357.671
335.765
311.006
283.483
253.298
220.561
198.607
215.433
260.204
306.459
354.095
403.013
453.117
504.308
556.489
609.558
663.408
717.928
772.995
828.477
884.229
940.094
995.893
1051.43
1106.47
1160.75
1213.97
1265.75
1315.47
1362.53
1406.81
1447.04
14578.1
5500.5
1407.81
1351.92
1290.69
1225.1
1155.99
1084.2
1010.55
935.889
861.18
787.261
715.218
646.954
584.741
530.931
487.65
456.254
436.751
427.626
426.371
430.378
437.373
445.782
454.594
463.231
471.373
478.848
485.562
491.46
496.511
500.692
503.99
506.392
507.893
508.485
508.166
506.936
504.796
501.75
502.144
505.704
507.821
508.503
507.768
505.644
502.178
497.438
491.519
484.555
476.727
468.272
459.485
450.715
442.337
434.713
428.12
422.68
418.294
414.632
411.165
407.245
402.206
395.448
386.488
374.978
360.702
343.547
323.487
300.551
274.807
246.348
215.277
181.707
159.032
175.302
219.641
265.544
312.909
361.635
411.622
462.772
514.982
568.149
622.163
676.907
732.255
788.072
844.208
900.501
956.767
1012.8
1068.37
1123.22
1177.01
1229.39
1279.74
1327.45
1372.42
1413.35
15238.9
4899.51
1373.42
1318.23
1257.81
1193.12
1124.99
1054.24
981.696
908.206
834.719
762.061
691.331
624.441
563.648
511.275
469.408
439.347
421.06
412.951
412.423
417.096
424.699
433.686
443.07
452.286
461.027
469.124
476.485
483.056
488.805
493.71
497.755
500.928
503.22
504.624
505.137
504.754
503.478
501.308
501.431
503.572
504.284
503.579
501.476
498.011
493.23
487.206
480.034
471.852
462.839
453.231
443.319
433.446
423.982
415.277
407.599
401.06
395.555
390.75
386.117
381.013
374.779
366.824
356.674
343.992
328.567
310.296
289.158
265.189
238.46
209.067
177.117
142.724
119.358
135.081
178.945
224.452
271.497
319.978
369.795
420.845
473.025
526.229
580.343
635.247
690.812
746.9
803.357
860.016
916.69
973.172
1029.23
1084.58
1138.92
1191.88
1242.84
1291.2
1336.89
1378.65
15980.6
4344.67
1338.67
1284.28
1224.77
1161.07
1094
1024.38
953.015
880.753
808.534
737.172
667.769
602.24
542.824
491.815
451.26
422.414
405.245
398.154
398.366
403.691
411.893
421.458
431.421
441.231
450.587
459.323
467.348
474.608
481.069
486.71
491.513
495.465
498.556
500.776
502.121
502.586
502.169
500.87
500.718
501.442
500.749
498.655
495.185
490.375
484.277
476.965
468.538
459.132
448.93
438.163
427.122
416.142
405.587
395.797
387.03
379.387
372.759
366.806
361.001
354.706
347.27
338.111
326.765
312.904
296.325
276.935
254.719
229.717
202.006
171.687
138.867
103.664
100
100
138.121
183.191
229.873
278.064
327.661
378.56
430.657
483.841
537.999
593.007
648.733
705.036
761.759
818.733
875.769
932.655
989.153
1044.99
1099.86
1153.37
1204.93
1253.93
1300.3
1342.8
16309
4072.82
1303.73
1250.21
1191.67
1129.02
1063.09
994.659
924.524
853.535
782.621
712.58
644.516
580.334
522.254
472.539
433.197
405.449
389.263
383.107
384.131
390.112
398.912
409.062
419.617
430.038
440.027
449.42
458.127
466.093
473.284
479.676
485.249
489.991
493.888
496.93
499.111
500.424
500.866
500.434
500.006
499.312
497.214
493.731
488.891
482.734
475.316
466.713
457.026
446.393
434.996
423.067
410.891
398.801
387.15
376.272
366.412
357.663
349.907
342.802
335.821
328.331
319.688
309.32
296.774
281.729
263.996
243.486
220.193
194.163
165.478
134.241
100.564
100
100
100
100
141.78
188.059
235.917
285.249
335.951
387.915
441.03
495.18
550.239
606.074
662.54
719.48
776.721
834.072
891.321
948.227
1004.52
1059.87
1113.92
1166.06
1215.68
1262.73
1305.95
16497.6
3953.77
1268.61
1216.02
1158.53
1097.01
1032.27
965.073
896.216
826.538
756.957
688.261
621.545
558.698
501.919
453.441
415.24
388.502
373.159
367.741
369.591
376.251
385.672
396.431
407.604
418.661
429.309
439.384
448.796
457.489
465.427
472.586
478.945
484.489
489.203
493.076
496.099
498.264
499.566
500
500.006
499.312
497.214
493.731
488.891
482.734
475.316
466.712
457.025
446.392
434.995
423.066
410.89
398.8
387.149
376.271
366.411
357.662
349.906
342.801
335.819
328.329
319.686
309.318
296.771
281.727
263.993
243.484
220.19
194.16
165.475
134.237
100.561
100
100
100
100
141.777
188.057
235.915
285.247
335.949
387.913
441.029
495.178
550.238
606.073
662.539
719.479
776.72
834.072
891.32
948.227
1004.52
1059.87
1113.92
1166.06
1215.68
1262.72
1305.95
16497.7
3953.74
1268.61
1216.02
1158.53
1097.01
1032.27
965.073
896.216
826.538
756.957
688.261
621.545
558.698
501.919
453.441
415.239
388.502
373.158
367.74
369.59
376.25
385.672
396.431
407.604
418.661
429.308
439.384
448.795
457.488
465.427
472.586
478.945
484.489
489.203
493.076
496.099
498.264
499.566
500
500.718
501.442
500.749
498.655
495.184
490.374
484.276
476.964
468.536
459.131
448.928
438.161
427.12
416.14
405.585
395.794
387.027
379.384
372.755
366.802
360.997
354.702
347.266
338.107
326.76
312.898
296.32
276.93
254.713
229.71
202
171.68
138.861
103.658
100
100
138.116
183.187
229.869
278.06
327.657
378.557
430.654
483.839
537.997
593.005
648.732
705.035
761.758
818.732
875.768
932.654
989.153
1044.99
1099.86
1153.37
1204.93
1253.93
1300.3
1342.8
16309.1
4072.76
1303.73
1250.2
1191.67
1129.02
1063.09
994.658
924.523
853.535
782.62
712.58
644.515
580.333
522.253
472.538
433.197
405.448
389.262
383.105
384.13
390.111
398.911
409.061
419.616
430.037
440.026
449.42
458.127
466.093
473.284
479.675
485.249
489.99
493.887
496.93
499.111
500.424
500.866
500.434
501.431
503.572
504.284
503.578
501.476
498.01
493.229
487.204
480.033
471.851
462.838
453.229
443.317
433.444
423.98
415.274
407.596
401.057
395.552
390.747
386.113
381.008
374.774
366.819
356.669
343.986
328.561
310.29
289.152
265.182
238.453
209.06
177.11
142.717
119.353
135.077
178.942
224.449
271.494
319.976
369.792
420.843
473.023
526.227
580.341
635.246
690.812
746.9
803.357
860.016
916.69
973.172
1029.23
1084.58
1138.92
1191.88
1242.84
1291.2
1336.89
1378.65
15980.8
4344.5
1338.67
1284.28
1224.77
1161.06
1094
1024.38
953.015
880.753
808.534
737.171
667.769
602.24
542.824
491.815
451.259
422.413
405.244
398.153
398.365
403.689
411.892
421.457
431.42
441.231
450.586
459.322
467.347
474.607
481.069
486.71
491.513
495.465
498.555
500.776
502.121
502.586
502.169
500.87
502.144
505.704
507.821
508.503
507.767
505.643
502.177
497.436
491.517
484.553
476.725
468.27
459.483
450.712
442.334
434.71
428.117
422.676
418.291
414.629
411.161
407.24
402.201
395.443
386.482
374.973
360.696
343.541
323.48
300.544
274.8
246.34
215.27
181.7
159.027
175.299
219.638
265.541
312.907
361.633
411.62
462.77
514.981
568.148
622.163
676.907
732.255
788.072
844.209
900.501
956.768
1012.8
1068.38
1123.22
1177.02
1229.4
1279.74
1327.45
1372.42
1413.36
15239.4
4899.15
1373.42
1318.23
1257.81
1193.11
1124.99
1054.24
981.696
908.206
834.719
762.061
691.331
624.441
563.648
511.275
469.408
439.347
421.059
412.949
412.422
417.095
424.698
433.685
443.069
452.285
461.026
469.123
476.484
483.055
488.804
493.709
497.754
500.927
503.219
504.624
505.136
504.754
503.477
501.308
502.859
507.839
511.362
513.432
514.061
513.278
511.123
507.663
502.992
497.242
490.594
483.287
475.62
467.945
460.649
454.101
448.588
444.241
440.968
438.443
436.133
433.388
429.534
423.962
416.181
405.835
392.698
376.652
357.664
335.758
310.999
283.475
253.29
220.553
198.602
215.431
260.202
306.457
354.094
403.012
453.116
504.307
556.488
609.557
663.409
717.928
772.995
828.478
884.23
940.095
995.895
1051.43
1106.47
1160.76
1213.97
1265.75
1315.47
1362.53
1406.82
1447.04
14579
5499.86
1407.81
1351.92
1290.69
1225.09
1155.99
1084.2
1010.55
935.889
861.18
787.261
715.218
646.955
584.742
530.931
487.65
456.254
436.75
427.625
426.369
430.376
437.371
445.781
454.593
463.23
471.372
478.847
485.561
491.46
496.51
500.692
503.989
506.392
507.892
508.485
508.166
506.936
504.796
501.75
503.575
509.979
514.909
518.367
520.362
520.917
520.072
517.889
514.461
509.92
504.447
498.282
491.728
485.144
478.923
473.445
469.006
465.745
463.579
462.181
461.019
459.437
456.755
452.357
445.741
436.545
424.534
409.586
391.659
370.775
346.996
320.406
291.106
259.207
238.051
255.486
300.645
347.201
395.054
444.106
494.262
545.429
597.511
650.41
704.025
758.246
812.957
868.03
923.328
978.695
1033.96
1088.93
1143.38
1197.06
1249.65
1300.79
1349.87
1396.27
1439.88
1479.42
13699
6295.35
1441.83
1385.31
1323.36
1256.96
1186.98
1114.23
1039.55
963.799
887.925
812.787
739.453
669.809
606.137
550.819
506.034
473.212
452.445
442.288
440.226
443.534
449.911
457.749
466.004
474.078
481.64
488.512
494.597
499.838
504.205
507.674
510.234
511.873
512.586
512.368
511.218
509.137
506.127
502.196
504.294
512.124
518.464
523.311
526.671
528.564
529.026
528.117
525.929
522.592
518.288
513.259
507.811
502.31
497.157
492.741
489.368
487.186
486.116
485.834
485.807
485.374
483.847
480.603
475.134
467.067
456.163
442.293
425.411
405.535
382.722
357.057
328.639
297.576
277.348
295.5
340.994
387.794
435.801
484.919
535.056
586.122
638.024
690.669
743.96
797.793
852.058
906.633
961.386
1016.17
1070.82
1125.14
1178.93
1231.93
1283.84
1334.3
1382.71
1428.44
1471.38
1510.25
12598.1
7301.2
1475.32
1418.27
1355.72
1288.63
1217.88
1144.29
1068.69
991.933
914.969
838.67
764.082
693.063
627.906
571.024
524.655
490.317
468.198
456.916
453.957
456.538
462.3
469.582
477.303
484.837
491.843
498.133
503.607
508.209
511.904
514.674
516.504
517.385
517.313
516.285
514.3
511.362
507.476
502.649
505.015
514.276
522.029
528.268
532.994
536.224
537.991
538.354
537.401
535.263
532.121
528.221
523.872
519.446
515.353
511.99
509.674
508.56
508.574
509.395
510.486
511.181
510.788
508.674
504.324
497.36
487.536
474.717
458.854
439.962
418.096
393.339
365.788
335.555
316.464
335.529
381.3
428.279
476.369
525.476
575.51
626.384
678.011
730.303
783.167
836.506
890.216
944.184
998.283
1052.38
1106.3
1159.89
1212.92
1265.16
1316.31
1366.03
1413.72
1458.75
1501.02
1539.23
11247
8551.58
1508.08
1450.63
1387.59
1319.96
1248.59
1174.31
1097.92
1020.28
942.324
864.946
789.158
716.784
650.123
591.619
543.576
507.609
484.022
471.516
467.59
469.414
474.56
481.301
488.508
495.529
502.002
507.733
512.616
516.593
519.631
521.71
522.816
522.943
522.087
520.246
517.422
513.619
508.845
503.109
505.739
516.437
525.608
533.241
539.335
543.903
546.975
548.607
548.887
547.942
545.957
543.178
539.92
536.561
533.518
531.198
529.927
529.868
530.952
532.858
535.045
536.845
537.556
536.541
533.276
527.379
518.597
506.791
491.912
473.969
453.017
429.139
402.434
373.011
355.374
375.657
421.642
468.729
516.82
565.826
615.66
666.238
717.479
769.299
821.612
874.329
927.353
980.578
1033.89
1087.16
1140.23
1192.95
1245.11
1296.48
1346.77
1395.65
1442.54
1486.82
1528.37
1565.94
9615.01
10086.5
1539.82
1482.11
1418.77
1350.77
1278.98
1204.18
1127.18
1048.8
969.991
891.642
814.736
741.041
672.864
612.683
562.868
525.151
499.969
486.13
481.166
482.202
486.727
492.939
499.656
506.187
512.152
517.344
521.654
525.021
527.412
528.806
529.193
528.566
526.923
524.263
520.591
515.913
510.237
503.577
506.466
518.608
529.202
538.235
545.7
551.608
555.986
558.887
560.396
560.642
559.809
558.145
555.969
553.667
551.663
550.375
550.137
551.118
553.253
556.222
559.48
562.353
564.133
564.175
561.951
557.072
549.282
538.441
524.493
507.451
487.368
464.326
438.428
409.784
394.056
416.01
462.139
509.252
557.253
606.056
655.576
705.737
756.459
807.667
859.282
911.222
963.4
1015.72
1068.08
1120.35
1172.41
1224.1
1275.23
1325.58
1374.89
1422.81
1468.8
1512.21
1552.99
1589.85
7679.97
11928.5
1570.04
1512.28
1448.89
1380.79
1308.82
1233.75
1156.36
1077.46
997.956
918.776
840.861
765.906
696.221
634.314
582.633
543.035
516.119
500.829
494.746
494.952
498.849
504.544
510.792
516.857
522.336
527.009
530.762
533.53
535.281
535.994
535.661
534.276
531.838
528.35
523.818
518.25
511.657
504.055
507.198
520.791
532.816
543.254
552.097
559.351
565.039
569.211
571.951
573.387
573.702
573.148
572.048
570.793
569.818
569.548
570.327
572.33
575.494
579.498
583.794
587.7
590.502
591.549
590.308
586.385
579.523
569.577
556.494
540.285
521.005
498.74
473.592
445.678
432.493
456.763
502.959
550.008
597.818
646.301
695.379
744.979
795.029
845.46
896.2
947.178
998.317
1049.53
1100.73
1151.81
1202.65
1253.1
1303.01
1352.16
1400.3
1447.11
1492.05
1534.48
1574.31
1610.31
5445.1
14062
1598.04
1540.58
1477.48
1409.63
1337.82
1262.8
1185.31
1106.14
1026.18
946.352
867.57
791.454
720.295
656.632
602.996
561.385
532.59
515.72
508.428
507.758
511.014
516.202
521.999
527.62
532.631
536.8
540.004
542.178
543.288
543.316
542.254
540.099
536.853
532.522
527.113
520.637
513.108
504.543
507.934
522.986
536.45
548.303
558.533
567.14
574.145
579.596
583.571
586.199
587.663
588.215
588.185
587.971
588.013
588.749
590.528
593.533
597.702
602.71
608.004
612.895
616.663
618.649
618.317
615.27
609.249
600.11
587.801
572.334
553.769
532.194
507.718
480.461
470.675
498.149
544.331
591.22
638.724
686.76
735.25
784.127
833.326
882.785
932.443
982.237
1032.1
1081.97
1131.76
1181.39
1230.75
1279.73
1328.17
1375.89
1422.65
1468.16
1511.91
1553.21
1591.97
1626.84
2960.01
16256.6
1622.63
1566.08
1503.81
1436.7
1365.5
1290.94
1213.75
1134.67
1054.57
974.361
894.925
817.79
745.224
679.798
624.126
580.369
549.533
530.932
522.319
520.711
523.306
527.991
533.355
538.551
543.112
546.788
549.449
551.026
551.488
550.817
549.01
546.066
541.991
536.793
530.484
523.078
514.591
505.041
508.674
525.195
540.11
553.392
565.023
575.001
583.342
590.088
595.315
599.149
601.771
603.437
604.479
605.3
606.35
608.075
610.833
614.811
619.948
625.914
632.152
637.962
642.618
645.457
645.937
643.661
638.37
629.923
618.269
603.426
585.457
564.459
540.545
513.843
508.606
540.485
586.57
633.196
680.27
727.714
775.455
823.425
871.569
919.833
968.164
1016.51
1064.83
1113.05
1161.13
1208.98
1256.54
1303.7
1350.35
1396.32
1441.42
1485.38
1527.75
1567.82
1605.53
1639.56
1668.41
17544.2
1642.2
1587.54
1526.88
1461.16
1391.16
1317.63
1241.24
1162.72
1082.89
1002.66
922.868
844.945
771.114
703.972
646.223
600.208
567.182
546.705
536.666
534.061
535.974
540.158
545.095
549.871
553.979
557.151
559.249
560.205
559.987
558.584
555.994
552.223
547.282
541.184
533.943
525.577
516.107
505.551
509.417
527.413
543.788
558.513
571.564
582.934
592.631
600.693
607.192
612.247
616.041
618.828
620.943
622.798
624.851
627.555
631.278
636.208
642.284
649.169
656.295
662.955
668.412
671.999
673.173
671.537
666.834
658.928
647.774
633.398
615.87
595.295
571.796
545.51
546.304
584.156
630.062
676.319
722.836
769.534
816.346
863.212
910.075
956.891
1003.62
1050.22
1096.66
1142.89
1188.87
1234.56
1279.89
1324.81
1369.21
1412.98
1455.95
1497.9
1538.53
1577.05
1613.65
1647.2
1676.64
17989.6
1656.19
1604.22
1545.86
1482.17
1414.03
1342.15
1267.2
1189.85
1110.85
1031.1
951.402
873.044
798.181
729.428
669.586
621.193
585.789
563.235
551.601
547.893
549.073
552.742
557.261
561.628
565.289
567.953
569.474
569.781
568.848
566.668
563.249
558.603
552.748
545.703
537.49
528.132
517.651
506.069
510.162
529.644
547.502
563.702
578.216
591.029
602.142
611.583
619.417
625.756
630.776
634.729
637.952
640.857
643.91
647.573
652.219
658.042
664.979
672.688
680.592
687.973
694.089
698.268
699.966
698.79
694.488
686.93
676.081
661.974
644.691
624.347
601.078
575.504
584.288
629.688
675.329
721.107
766.932
812.724
858.418
903.96
949.303
994.404
1039.23
1083.76
1127.96
1171.81
1215.28
1258.36
1301
1343.18
1384.82
1425.86
1466.19
1505.62
1543.96
1580.59
1615.36
1647.96
1677.21
16871.4
1662.81
1614.5
1559.16
1498.25
1432.73
1363.31
1290.6
1215.22
1137.82
1059.23
980.225
901.94
826.431
756.319
694.503
643.732
605.878
581.149
567.847
562.998
563.431
566.573
570.643
574.547
577.684
579.745
580.58
580.124
578.36
575.291
570.935
565.314
558.456
550.389
541.143
530.744
519.219
506.593
510.899
531.853
551.193
568.882
584.883
599.171
611.737
622.594
631.797
639.448
645.717
650.852
655.193
659.157
663.22
667.849
673.425
680.14
687.925
696.426
705.05
713.067
719.726
724.35
726.398
725.482
721.361
713.916
703.125
689.038
671.751
651.393
628.114
612.815
632.251
677.544
722.841
768.033
813.031
857.758
902.149
946.154
989.732
1032.85
1075.48
1117.61
1159.21
1200.29
1240.83
1280.84
1320.29
1359.2
1397.52
1435.24
1472.29
1508.58
1543.94
1577.93
1610.4
1641.19
1669.3
14056.6
4215.12
1618.47
1565.7
1507.93
1445.78
1379.77
1310.34
1237.96
1163.18
1086.7
1009.25
931.781
856.199
785.093
721.443
668.229
627.698
600.491
585.225
579.008
578.557
581.107
584.709
588.153
590.772
592.223
592.347
591.083
588.422
584.383
579.001
572.315
564.369
555.204
544.862
533.38
520.79
507.115
511.635
534.088
554.975
574.251
591.874
607.805
622.017
634.508
645.307
654.498
662.23
668.734
674.336
679.449
684.545
690.102
696.505
703.955
712.38
721.419
730.472
738.801
745.657
750.37
752.409
751.399
747.112
739.445
728.392
714.017
696.432
675.78
652.229
650.136
683.354
728.459
773.301
817.776
861.792
905.277
948.17
990.423
1032
1072.88
1113.04
1152.46
1191.15
1229.1
1266.33
1302.83
1338.63
1373.74
1408.16
1441.9
1474.96
1507.3
1538.85
1569.3
1598.5
1626.47
1652.44
10733.4
7626.08
1614.59
1564.74
1510.61
1452.5
1390.67
1325.39
1256.97
1185.81
1112.45
1037.56
961.909
887.16
815.834
750.956
695.722
652.773
623.238
606.118
598.633
597.359
599.307
602.33
605.096
606.892
607.375
606.407
603.954
600.035
594.694
587.987
579.976
570.722
560.284
548.715
536.061
522.358
507.629
512.323
536.155
558.489
579.292
598.503
616.06
631.909
646.016
658.382
669.069
678.213
686.046
692.902
699.202
705.394
711.933
719.202
727.4
736.453
745.996
755.424