/*--------------------------------*- C++ -*----------------------------------*\
  =========                 |
  \\      /  F ield         | OpenFOAM: The Open Source CFD Toolbox
   \\    /   O peration     | Website:  https://openfoam.org
    \\  /    A nd           | Version:  8
     \\/     M anipulation  |
\*---------------------------------------------------------------------------*/
FoamFile
{
    version     2.0;
    format      ascii;
    class       volScalarField;
    location    "760/fluid";
    object      rho;
}
// * * * * * * * * * * * * * * * * * * * * * * * * * * * * * * * * * * * * * //

dimensions      [1 -3 0 0 0 0 0];

internalField   nonuniform List<scalar> 
4000
(
0.658526
0.658499
0.658454
0.658379
0.658254
0.658046
0.657704
0.657146
0.656246
0.654811
0.652565
0.649119
0.643958
0.636464
0.62597
0.611897
0.59393
0.57219
0.547305
0.520314
0.492445
0.464849
0.438422
0.413739
0.391079
0.370501
0.351922
0.335183
0.320093
0.306459
0.294099
0.282852
0.272579
0.263163
0.254507
0.246513
0.239078
0.232139
0.225647
0.219558
0.213835
0.208446
0.203365
0.19857
0.194041
0.189762
0.185721
0.181906
0.178308
0.174921
0.17174
0.168762
0.165988
0.163422
0.161069
0.158943
0.157061
0.155473
0.154206
0.153268
0.152774
0.152842
0.154254
0.163145
0.173653
0.185996
0.200469
0.217467
0.237506
0.261257
0.289592
0.323637
0.364835
0.415143
0.476933
0.552373
0.642596
0.745973
0.855917
0.96048
1.04664
1.10743
1.14464
1.16486
1.17498
1.17982
1.18204
1.18304
1.18349
1.18368
1.18376
1.1838
1.18381
1.18382
1.18382
1.18382
1.18382
1.18382
1.18382
1.18382
0.658526
0.658499
0.658454
0.658379
0.658253
0.658044
0.6577
0.657139
0.656235
0.654797
0.652551
0.649113
0.643983
0.636555
0.626183
0.612301
0.594591
0.573153
0.54857
0.521836
0.49414
0.466623
0.440188
0.415429
0.392651
0.371931
0.353204
0.33632
0.321095
0.307337
0.294865
0.283519
0.273157
0.263663
0.254937
0.246883
0.239394
0.232408
0.225873
0.219745
0.213988
0.208568
0.203459
0.198639
0.194087
0.189789
0.185729
0.181898
0.178285
0.174885
0.171693
0.168706
0.165923
0.163349
0.160991
0.158859
0.156973
0.155383
0.154115
0.153176
0.152684
0.152758
0.154938
0.163993
0.174699
0.187284
0.202064
0.219453
0.239995
0.264401
0.293596
0.32877
0.371455
0.423731
0.48801
0.566347
0.659462
0.764833
0.874663
0.976362
1.05781
1.11396
1.14788
1.1663
1.17558
1.18005
1.18213
1.18308
1.1835
1.18368
1.18376
1.1838
1.18381
1.18382
1.18382
1.18382
1.18382
1.18382
1.18382
1.18382
0.658526
0.658499
0.658454
0.658378
0.658252
0.658042
0.657697
0.657134
0.656227
0.654788
0.652542
0.649111
0.644004
0.636626
0.626345
0.612603
0.595088
0.573885
0.549553
0.523052
0.495541
0.468142
0.441758
0.416989
0.394155
0.373349
0.354517
0.337522
0.322184
0.308317
0.295743
0.2843
0.27385
0.264273
0.255471
0.247348
0.239798
0.232755
0.226168
0.219992
0.21419
0.208729
0.203582
0.198727
0.194144
0.189815
0.185729
0.181873
0.178239
0.17482
0.17161
0.168607
0.165812
0.163227
0.160859
0.15872
0.156829
0.155237
0.15397
0.153035
0.152554
0.152643
0.156167
0.165449
0.176442
0.189391
0.204625
0.222585
0.243848
0.269164
0.299508
0.336131
0.380638
0.435185
0.502106
0.583173
0.678509
0.784643
0.892908
0.990771
1.06745
1.11949
1.15069
1.16762
1.17617
1.1803
1.18224
1.18312
1.18352
1.18369
1.18377
1.1838
1.18381
1.18382
1.18382
1.18382
1.18382
1.18382
1.18382
1.18382
0.658526
0.658499
0.658454
0.658378
0.658252
0.658043
0.657698
0.657137
0.656235
0.654804
0.652575
0.649176
0.64412
0.636822
0.626657
0.613072
0.595748
0.574755
0.550628
0.5243
0.496912
0.46958
0.443207
0.418406
0.395508
0.374618
0.355694
0.338601
0.323167
0.309208
0.296546
0.285021
0.274492
0.264842
0.255972
0.247788
0.24018
0.233083
0.226446
0.220223
0.214377
0.208875
0.203689
0.198798
0.19418
0.189821
0.185706
0.181825
0.178167
0.174726
0.171498
0.168479
0.16567
0.163073
0.160697
0.158552
0.156659
0.155072
0.153814
0.152891
0.152424
0.15254
0.157721
0.167253
0.178572
0.191932
0.207682
0.226284
0.248346
0.274655
0.306234
0.344383
0.390785
0.447651
0.5172
0.600918
0.698328
0.805055
0.911631
1.00564
1.07756
1.12547
1.15384
1.16916
1.17688
1.18062
1.18237
1.18318
1.18354
1.1837
1.18377
1.1838
1.18381
1.18382
1.18382
1.18382
1.18382
1.18382
1.18382
1.18382
0.658526
0.658499
0.658454
0.658379
0.658253
0.658045
0.657702
0.657144
0.656247
0.654826
0.652615
0.649244
0.644234
0.637006
0.626941
0.613489
0.596327
0.575511
0.551555
0.525373
0.498089
0.47081
0.444445
0.419615
0.396661
0.3757
0.356695
0.33952
0.324005
0.309966
0.297229
0.285634
0.275039
0.265326
0.256397
0.248159
0.240501
0.233357
0.226675
0.22041
0.214524
0.208984
0.203763
0.198837
0.194188
0.1898
0.185658
0.181752
0.178072
0.174612
0.171366
0.168333
0.165513
0.162908
0.160527
0.158381
0.156492
0.15492
0.153674
0.152767
0.152331
0.152503
0.159384
0.169162
0.180816
0.194607
0.210893
0.230158
0.253037
0.280353
0.313171
0.352836
0.401116
0.46024
0.532283
0.618412
0.717531
0.824395
0.928914
1.019
1.08646
1.13066
1.15657
1.17049
1.1775
1.1809
1.1825
1.18323
1.18356
1.18371
1.18377
1.1838
1.18381
1.18382
1.18382
1.18382
1.18382
1.18382
1.18382
1.18382
0.658526
0.658499
0.658455
0.65838
0.658255
0.658048
0.657708
0.657154
0.656264
0.654856
0.652665
0.649326
0.644365
0.637209
0.627242
0.613913
0.596893
0.576227
0.552411
0.526341
0.499129
0.471882
0.445511
0.420645
0.397636
0.376608
0.357531
0.340282
0.324696
0.31059
0.297789
0.286133
0.275482
0.265716
0.256737
0.248453
0.240752
0.233567
0.226847
0.220544
0.214623
0.20905
0.203797
0.198842
0.194166
0.189752
0.185587
0.18166
0.177961
0.174484
0.171225
0.168182
0.165355
0.162748
0.160368
0.158228
0.156348
0.154795
0.153564
0.152683
0.152275
0.152483
0.160783
0.170874
0.182914
0.197166
0.214006
0.233939
0.257626
0.285927
0.319946
0.361074
0.41116
0.472427
0.546803
0.635131
0.735701
0.842476
0.944869
1.03121
1.09457
1.13541
1.1591
1.17174
1.17809
1.18117
1.18262
1.18328
1.18359
1.18372
1.18378
1.1838
1.18381
1.18382
1.18382
1.18382
1.18382
1.18382
1.18382
1.18382
0.658526
0.6585
0.658455
0.658381
0.658257
0.658052
0.657714
0.657165
0.656283
0.654886
0.652714
0.649406
0.64449
0.637398
0.627516
0.614295
0.597399
0.576861
0.553161
0.527181
0.500026
0.472799
0.446415
0.421513
0.398451
0.377361
0.35822
0.340907
0.325258
0.311093
0.298237
0.28653
0.275831
0.26602
0.256998
0.248675
0.240938
0.233718
0.226965
0.220631
0.21468
0.209078
0.203799
0.19882
0.19412
0.189685
0.185499
0.181554
0.17784
0.174351
0.171083
0.168033
0.165204
0.1626
0.160229
0.158105
0.156249
0.154741
0.153524
0.152708
0.152379
0.152675
0.161594
0.172202
0.184732
0.199496
0.216906
0.237496
0.261965
0.291208
0.326369
0.368887
0.420685
0.483958
0.560483
0.650776
0.752528
0.858976
0.959172
1.04197
1.10161
1.1395
1.16126
1.17281
1.1786
1.1814
1.18272
1.18333
1.18361
1.18373
1.18378
1.1838
1.18381
1.18382
1.18382
1.18382
1.18382
1.18382
1.18382
1.18382
0.658526
0.6585
0.658456
0.658382
0.658259
0.658055
0.65772
0.657175
0.656301
0.654916
0.652763
0.649483
0.644608
0.637574
0.62777
0.614643
0.597853
0.577422
0.553817
0.527909
0.500795
0.473577
0.447176
0.422237
0.399126
0.377981
0.358782
0.341412
0.325709
0.311494
0.29859
0.286839
0.276099
0.26625
0.257192
0.248835
0.241068
0.233819
0.227037
0.220677
0.214701
0.209076
0.203775
0.198775
0.194056
0.189603
0.185401
0.181442
0.177716
0.174218
0.170943
0.16789
0.165062
0.162463
0.160104
0.158
0.156186
0.154729
0.153591
0.152902
0.152779
0.153422
0.162655
0.173612
0.186529
0.201731
0.219647
0.240836
0.266023
0.296136
0.332354
0.376165
0.429552
0.494676
0.573158
0.665187
0.767886
0.873848
0.971879
1.0514
1.10772
1.14304
1.16314
1.17374
1.17905
1.18161
1.18282
1.18337
1.18362
1.18374
1.18378
1.18381
1.18381
1.18382
1.18382
1.18382
1.18382
1.18382
1.18382
1.18382
0.658526
0.6585
0.658456
0.658383
0.658261
0.658059
0.657726
0.657186
0.656317
0.654943
0.652807
0.649552
0.644715
0.637732
0.627995
0.614949
0.598249
0.577908
0.554382
0.52853
0.501446
0.474232
0.447812
0.422838
0.399681
0.378486
0.359236
0.341817
0.326067
0.311808
0.298864
0.287076
0.276301
0.26642
0.257332
0.248947
0.241153
0.23388
0.227075
0.220694
0.214697
0.209052
0.203733
0.198715
0.193981
0.189513
0.185299
0.181329
0.177594
0.174088
0.170809
0.167755
0.164928
0.162335
0.159986
0.157898
0.156112
0.154685
0.153592
0.152965
0.152932
0.154308
0.163798
0.175039
0.18828
0.20386
0.222223
0.243949
0.269785
0.300689
0.337873
0.382873
0.437721
0.504527
0.584766
0.678305
0.781737
0.887094
0.983034
1.05957
1.11295
1.14605
1.16473
1.17453
1.17942
1.18178
1.1829
1.18341
1.18364
1.18374
1.18379
1.18381
1.18382
1.18382
1.18382
1.18382
1.18382
1.18382
1.18382
1.18382
0.658526
0.6585
0.658457
0.658384
0.658263
0.658062
0.657732
0.657195
0.656333
0.654968
0.652847
0.649615
0.64481
0.637872
0.628191
0.615215
0.598592
0.578325
0.554863
0.529056
0.501994
0.474778
0.448339
0.423331
0.400134
0.378895
0.3596
0.342139
0.326349
0.312052
0.299074
0.287254
0.27645
0.266541
0.257428
0.24902
0.241205
0.233911
0.227087
0.220688
0.214674
0.209014
0.203679
0.198648
0.1939
0.189421
0.185197
0.181218
0.177476
0.173965
0.170683
0.167627
0.164801
0.162211
0.159867
0.157787
0.156012
0.154596
0.153508
0.152879
0.152822
0.155288
0.164969
0.176437
0.189947
0.20585
0.224602
0.246801
0.273216
0.304831
0.342886
0.388967
0.445138
0.513461
0.595263
0.690107
0.794095
0.898776
0.992743
1.06659
1.11742
1.1486
1.16608
1.1752
1.17974
1.18193
1.18296
1.18344
1.18365
1.18375
1.18379
1.18381
1.18382
1.18382
1.18382
1.18382
1.18382
1.18382
1.18382
1.18382
0.658526
0.658501
0.658457
0.658385
0.658264
0.658065
0.657736
0.657203
0.656346
0.65499
0.652882
0.649669
0.644892
0.637992
0.628361
0.615443
0.598883
0.578678
0.555268
0.529496
0.502449
0.47523
0.448771
0.423734
0.4005
0.379223
0.35989
0.342392
0.326567
0.312239
0.299232
0.287385
0.276557
0.266626
0.257492
0.249065
0.241232
0.233921
0.227082
0.220668
0.21464
0.208967
0.20362
0.198578
0.19382
0.189332
0.1851
0.181115
0.177368
0.173853
0.170568
0.167512
0.164687
0.162098
0.159758
0.157683
0.155915
0.154504
0.15342
0.152792
0.152732
0.156247
0.166087
0.177747
0.19149
0.207673
0.226769
0.249387
0.276317
0.308565
0.347399
0.394448
0.451806
0.521478
0.604657
0.700614
0.80501
0.908982
1.00112
1.07258
1.12119
1.15074
1.1672
1.17576
1.18001
1.18206
1.18302
1.18346
1.18366
1.18375
1.18379
1.18381
1.18382
1.18382
1.18382
1.18382
1.18382
1.18382
1.18382
1.18382
0.658526
0.658501
0.658458
0.658386
0.658266
0.658067
0.657741
0.65721
0.656358
0.65501
0.652912
0.649716
0.644963
0.638095
0.628505
0.615636
0.599128
0.578974
0.555605
0.529861
0.502825
0.475601
0.449124
0.424059
0.400795
0.379484
0.360118
0.342589
0.326736
0.312381
0.29935
0.287481
0.276633
0.266683
0.257532
0.249089
0.241241
0.233918
0.227065
0.220639
0.2146
0.208917
0.203561
0.198509
0.193744
0.189249
0.185012
0.181021
0.177271
0.173754
0.170468
0.167412
0.164588
0.162003
0.159667
0.157597
0.155835
0.154429
0.15335
0.152725
0.152665
0.157108
0.167093
0.178923
0.19287
0.209302
0.228698
0.251685
0.279067
0.311874
0.351396
0.399308
0.457721
0.528584
0.612961
0.709859
0.814545
0.917816
1.0083
1.07766
1.12436
1.15254
1.16815
1.17623
1.18024
1.18216
1.18307
1.18348
1.18367
1.18376
1.18379
1.18381
1.18382
1.18382
1.18382
1.18382
1.18382
1.18382
1.18382
1.18382
0.658526
0.658501
0.658458
0.658387
0.658267
0.658069
0.657744
0.657216
0.656368
0.655026
0.652938
0.649756
0.645022
0.638181
0.628625
0.615796
0.599332
0.579218
0.555883
0.530161
0.503132
0.475902
0.449408
0.424321
0.401029
0.37969
0.360297
0.342742
0.326865
0.312488
0.299437
0.28755
0.276685
0.26672
0.257555
0.249099
0.24124
0.233905
0.227043
0.220607
0.214559
0.208868
0.203504
0.198446
0.193675
0.189175
0.184934
0.18094
0.177187
0.17367
0.170384
0.167329
0.164508
0.161926
0.159595
0.157529
0.155773
0.154373
0.153299
0.152677
0.152617
0.157851
0.167968
0.179951
0.194079
0.210726
0.230383
0.25369
0.281469
0.314764
0.35489
0.40356
0.462899
0.534798
0.620206
0.717892
0.822777
0.925377
1.01438
1.08193
1.12701
1.15403
1.16893
1.17662
1.18042
1.18225
1.18311
1.1835
1.18368
1.18376
1.1838
1.18381
1.18382
1.18382
1.18382
1.18382
1.18382
1.18382
1.18382
1.18382
0.658526
0.658501
0.658458
0.658387
0.658268
0.658071
0.657747
0.657221
0.656376
0.655039
0.652959
0.649789
0.645071
0.638252
0.628724
0.615928
0.599499
0.579419
0.55611
0.530404
0.50338
0.476144
0.449635
0.424528
0.401214
0.379851
0.360436
0.342859
0.326962
0.312568
0.299501
0.287599
0.27672
0.266744
0.257567
0.249101
0.241232
0.233889
0.227018
0.220575
0.214521
0.208823
0.203454
0.198391
0.193616
0.189112
0.184868
0.180873
0.177119
0.173601
0.170316
0.167264
0.164446
0.161868
0.15954
0.157479
0.15573
0.154335
0.153265
0.152645
0.152584
0.158477
0.168713
0.180831
0.195115
0.211949
0.231832
0.255416
0.283535
0.317252
0.357899
0.407223
0.467356
0.540145
0.626431
0.72477
0.829786
0.931767
1.01948
1.08548
1.12921
1.15526
1.16957
1.17694
1.18057
1.18232
1.18314
1.18352
1.18369
1.18376
1.1838
1.18381
1.18382
1.18382
1.18382
1.18382
1.18382
1.18382
1.18382
1.18382
0.658526
0.658501
0.658459
0.658388
0.658269
0.658073
0.65775
0.657226
0.656383
0.65505
0.652977
0.649816
0.645112
0.63831
0.628805
0.616035
0.599634
0.57958
0.556292
0.530598
0.503577
0.476335
0.449815
0.424691
0.401358
0.379976
0.360542
0.342948
0.327035
0.312627
0.299547
0.287633
0.276744
0.266758
0.257573
0.249099
0.241222
0.233872
0.226996
0.220547
0.214487
0.208785
0.203411
0.198345
0.193567
0.189061
0.184815
0.180819
0.177066
0.173549
0.170266
0.167216
0.1644
0.161826
0.159503
0.157447
0.155704
0.154314
0.153247
0.152627
0.152565
0.158997
0.169338
0.181572
0.195991
0.212983
0.233058
0.256876
0.285282
0.319355
0.360442
0.41032
0.471125
0.544663
0.631683
0.730555
0.835653
0.937083
1.02369
1.08839
1.131
1.15626
1.1701
1.1772
1.1807
1.18238
1.18317
1.18353
1.18369
1.18377
1.1838
1.18381
1.18382
1.18382
1.18382
1.18382
1.18382
1.18382
1.18382
1.18382
0.658526
0.658501
0.658459
0.658388
0.65827
0.658074
0.657752
0.657229
0.656389
0.655059
0.652991
0.649837
0.645144
0.638357
0.628869
0.61612
0.59974
0.579706
0.556434
0.53075
0.503731
0.476484
0.449954
0.424816
0.401468
0.380071
0.360622
0.343015
0.32709
0.31267
0.29958
0.287657
0.27676
0.266767
0.257575
0.249095
0.241213
0.233858
0.226977
0.220524
0.21446
0.208754
0.203378
0.19831
0.19353
0.189023
0.184776
0.180781
0.177028
0.173512
0.170231
0.167183
0.164372
0.161801
0.159483
0.157431
0.155694
0.154307
0.153242
0.152622
0.152557
0.159422
0.169853
0.182185
0.196715
0.213839
0.234072
0.258082
0.286725
0.32109
0.36254
0.412874
0.474232
0.548386
0.636003
0.735302
0.84045
0.941407
1.0271
1.09074
1.13243
1.15707
1.17052
1.1774
1.1808
1.18242
1.18319
1.18354
1.1837
1.18377
1.1838
1.18381
1.18382
1.18382
1.18382
1.18382
1.18382
1.18382
1.18382
1.18382
0.658526
0.658501
0.658459
0.658388
0.65827
0.658075
0.657754
0.657232
0.656393
0.655066
0.653002
0.649854
0.645168
0.638392
0.628918
0.616185
0.599822
0.579803
0.556543
0.530866
0.503848
0.476597
0.450058
0.42491
0.40155
0.380142
0.360682
0.343064
0.32713
0.312701
0.299604
0.287675
0.276771
0.266773
0.257576
0.249092
0.241206
0.233848
0.226963
0.220507
0.214441
0.208733
0.203355
0.198286
0.193505
0.188997
0.184751
0.180756
0.177004
0.17349
0.170211
0.167166
0.164358
0.161791
0.159477
0.157429
0.155695
0.15431
0.153245
0.152622
0.152554
0.159754
0.170262
0.182676
0.197297
0.214526
0.234884
0.259047
0.287877
0.322474
0.364211
0.414907
0.476703
0.551342
0.639426
0.739053
0.844225
0.944797
1.02977
1.09257
1.13355
1.15769
1.17084
1.17756
1.18087
1.18246
1.1832
1.18355
1.1837
1.18377
1.1838
1.18381
1.18382
1.18382
1.18382
1.18382
1.18382
1.18382
1.18382
1.18382
0.658526
0.658501
0.658459
0.658388
0.658271
0.658075
0.657755
0.657234
0.656396
0.655071
0.653009
0.649866
0.645186
0.638418
0.628954
0.616232
0.599881
0.579873
0.556622
0.530949
0.503932
0.476677
0.450133
0.424977
0.401609
0.380192
0.360724
0.343099
0.327158
0.312723
0.299621
0.287687
0.27678
0.266777
0.257578
0.249091
0.241203
0.233842
0.226955
0.220498
0.21443
0.208721
0.203342
0.198271
0.19349
0.188983
0.184737
0.180743
0.176993
0.173481
0.170204
0.167163
0.164357
0.161794
0.159483
0.157438
0.155703
0.154316
0.153242
0.1526
0.152495
0.160001
0.170572
0.18305
0.197741
0.21505
0.235503
0.259779
0.288749
0.323518
0.365469
0.416433
0.478553
0.553551
0.641978
0.74184
0.847019
0.947295
1.03172
1.09391
1.13437
1.15815
1.17108
1.17768
1.18093
1.18249
1.18322
1.18355
1.1837
1.18377
1.1838
1.18381
1.18382
1.18382
1.18382
1.18382
1.18382
1.18382
1.18382
1.18382
0.658526
0.658501
0.658459
0.658389
0.658271
0.658076
0.657756
0.657235
0.656398
0.655075
0.653015
0.649874
0.645198
0.638435
0.628977
0.616262
0.599919
0.579918
0.556672
0.531003
0.503986
0.476729
0.450181
0.42502
0.401647
0.380224
0.360751
0.343121
0.327176
0.312738
0.299631
0.287695
0.276785
0.266781
0.25758
0.249092
0.241202
0.23384
0.226953
0.220494
0.214426
0.208715
0.203336
0.198266
0.193485
0.188978
0.184733
0.18074
0.176991
0.173482
0.170208
0.167169
0.164367
0.161807
0.159499
0.157456
0.155723
0.154336
0.15326
0.152611
0.152495
0.160164
0.170784
0.18331
0.198051
0.215414
0.23593
0.260282
0.289344
0.324227
0.366318
0.41746
0.479793
0.555025
0.643674
0.743683
0.848858
0.948929
1.03299
1.09478
1.13491
1.15845
1.17123
1.17776
1.18097
1.1825
1.18322
1.18355
1.1837
1.18377
1.1838
1.18381
1.18382
1.18382
1.18382
1.18382
1.18382
1.18382
1.18382
1.18382
0.658526
0.658501
0.658459
0.658389
0.658271
0.658076
0.657756
0.657235
0.656399
0.655076
0.653017
0.649877
0.645204
0.638443
0.628988
0.616277
0.599937
0.57994
0.556696
0.531028
0.504011
0.476754
0.450204
0.425041
0.401664
0.38024
0.360764
0.343131
0.327184
0.312744
0.299637
0.287699
0.276788
0.266783
0.257581
0.249092
0.241203
0.233841
0.226953
0.220494
0.214425
0.208715
0.203336
0.198265
0.193485
0.188978
0.184734
0.180742
0.176995
0.173487
0.170215
0.167178
0.164379
0.161822
0.159516
0.157476
0.155744
0.154358
0.15328
0.152625
0.152494
0.160245
0.170897
0.18345
0.198217
0.215608
0.236156
0.260544
0.289651
0.324588
0.366747
0.417973
0.480406
0.555747
0.644498
0.744572
0.849735
0.949701
1.03359
1.09519
1.13515
1.15858
1.17131
1.17779
1.18099
1.18251
1.18323
1.18356
1.1837
1.18377
1.1838
1.18381
1.18382
1.18382
1.18382
1.18382
1.18382
1.18382
1.18382
1.18382
0.658526
0.658501
0.658459
0.658389
0.658271
0.658076
0.657756
0.657235
0.656399
0.655076
0.653017
0.649877
0.645204
0.638443
0.628988
0.616277
0.599937
0.57994
0.556696
0.531028
0.504011
0.476754
0.450204
0.425041
0.401664
0.380239
0.360764
0.343131
0.327184
0.312744
0.299637
0.287699
0.276788
0.266783
0.257581
0.249092
0.241203
0.233841
0.226953
0.220494
0.214425
0.208715
0.203336
0.198265
0.193485
0.188978
0.184734
0.180742
0.176995
0.173487
0.170215
0.167178
0.164379
0.161821
0.159516
0.157476
0.155744
0.154358
0.15328
0.152624
0.152494
0.160244
0.170897
0.18345
0.198217
0.215608
0.236156
0.260544
0.289651
0.324588
0.366747
0.417973
0.480406
0.555747
0.644498
0.744571
0.849735
0.949701
1.03359
1.09519
1.13515
1.15858
1.17131
1.17779
1.18099
1.18251
1.18323
1.18356
1.1837
1.18377
1.1838
1.18381
1.18382
1.18382
1.18382
1.18382
1.18382
1.18382
1.18382
1.18382
0.658526
0.658501
0.658459
0.658389
0.658271
0.658076
0.657756
0.657235
0.656398
0.655075
0.653015
0.649874
0.645198
0.638435
0.628977
0.616262
0.599919
0.579918
0.556672
0.531002
0.503985
0.476729
0.450181
0.42502
0.401646
0.380224
0.360751
0.343121
0.327175
0.312737
0.299631
0.287695
0.276785
0.266781
0.25758
0.249091
0.241202
0.23384
0.226952
0.220494
0.214425
0.208715
0.203336
0.198266
0.193484
0.188978
0.184733
0.18074
0.176991
0.173482
0.170208
0.167169
0.164367
0.161807
0.159498
0.157456
0.155723
0.154336
0.15326
0.15261
0.152494
0.160164
0.170784
0.18331
0.19805
0.215414
0.23593
0.260282
0.289344
0.324226
0.366318
0.417459
0.479792
0.555024
0.643673
0.743682
0.848856
0.948927
1.03299
1.09478
1.13491
1.15845
1.17123
1.17776
1.18097
1.1825
1.18322
1.18355
1.1837
1.18377
1.1838
1.18381
1.18382
1.18382
1.18382
1.18382
1.18382
1.18382
1.18382
1.18382
0.658526
0.658501
0.658459
0.658388
0.658271
0.658075
0.657755
0.657233
0.656396
0.655071
0.653009
0.649866
0.645186
0.638418
0.628954
0.616232
0.59988
0.579873
0.556621
0.530948
0.503931
0.476677
0.450132
0.424977
0.401608
0.380192
0.360723
0.343098
0.327157
0.312723
0.29962
0.287686
0.276779
0.266777
0.257578
0.249091
0.241203
0.233842
0.226955
0.220497
0.21443
0.208721
0.203342
0.198271
0.19349
0.188983
0.184737
0.180743
0.176992
0.173481
0.170204
0.167162
0.164357
0.161794
0.159482
0.157437
0.155703
0.154316
0.153242
0.1526
0.152494
0.16
0.170571
0.183049
0.197741
0.21505
0.235502
0.259778
0.288748
0.323517
0.365468
0.416432
0.478552
0.553549
0.641976
0.741837
0.847017
0.947293
1.03172
1.09391
1.13437
1.15815
1.17108
1.17768
1.18093
1.18249
1.18322
1.18355
1.1837
1.18377
1.1838
1.18381
1.18382
1.18382
1.18382
1.18382
1.18382
1.18382
1.18382
1.18382
0.658526
0.658501
0.658459
0.658388
0.65827
0.658075
0.657754
0.657232
0.656393
0.655066
0.653002
0.649854
0.645168
0.638392
0.628918
0.616184
0.599821
0.579802
0.556542
0.530865
0.503847
0.476596
0.450057
0.424909
0.40155
0.380141
0.360681
0.343063
0.327129
0.312701
0.299603
0.287674
0.276771
0.266772
0.257576
0.249092
0.241206
0.233847
0.226963
0.220507
0.214441
0.208733
0.203355
0.198285
0.193504
0.188997
0.184751
0.180755
0.177004
0.17349
0.170211
0.167166
0.164358
0.161791
0.159476
0.157429
0.155694
0.15431
0.153245
0.152622
0.152553
0.159754
0.170262
0.182675
0.197296
0.214525
0.234884
0.259046
0.287876
0.322473
0.36421
0.414905
0.4767
0.551339
0.639423
0.739049
0.844221
0.944794
1.02976
1.09257
1.13355
1.15769
1.17084
1.17756
1.18087
1.18246
1.1832
1.18355
1.1837
1.18377
1.1838
1.18381
1.18382
1.18382
1.18382
1.18382
1.18382
1.18382
1.18382
1.18382
0.658526
0.658501
0.658459
0.658388
0.65827
0.658074
0.657752
0.657229
0.656389
0.655059
0.652991
0.649837
0.645143
0.638356
0.628869
0.616119
0.59974
0.579705
0.556433
0.530749
0.50373
0.476483
0.449952
0.424815
0.401467
0.38007
0.360622
0.343014
0.327089
0.312669
0.299579
0.287657
0.27676
0.266766
0.257574
0.249094
0.241213
0.233858
0.226976
0.220523
0.21446
0.208754
0.203378
0.198309
0.193529
0.189022
0.184776
0.18078
0.177027
0.173512
0.170231
0.167183
0.164371
0.161801
0.159482
0.157431
0.155693
0.154306
0.153242
0.152621
0.152556
0.159421
0.169853
0.182185
0.196715
0.213838
0.234071
0.258081
0.286724
0.321089
0.362539
0.412872
0.47423
0.548383
0.635999
0.735298
0.840445
0.941403
1.0271
1.09074
1.13243
1.15707
1.17052
1.1774
1.1808
1.18242
1.18319
1.18354
1.1837
1.18377
1.1838
1.18381
1.18382
1.18382
1.18382
1.18382
1.18382
1.18382
1.18382
1.18382
0.658526
0.658501
0.658459
0.658388
0.658269
0.658073
0.65775
0.657226
0.656383
0.65505
0.652977
0.649815
0.645111
0.63831
0.628805
0.616035
0.599633
0.579578
0.55629
0.530597
0.503576
0.476334
0.449813
0.424689
0.401356
0.379975
0.360541
0.342947
0.327035
0.312626
0.299546
0.287633
0.276744
0.266757
0.257572
0.249098
0.241222
0.233872
0.226995
0.220546
0.214487
0.208784
0.203411
0.198345
0.193566
0.189061
0.184815
0.180819
0.177065
0.173548
0.170265
0.167215
0.1644
0.161825
0.159502
0.157446
0.155703
0.154313
0.153246
0.152626
0.152564
0.158996
0.169338
0.181572
0.19599
0.212982
0.233057
0.256874
0.285281
0.319353
0.36044
0.410317
0.471122
0.54466
0.631678
0.73055
0.835648
0.937078
1.02369
1.08839
1.131
1.15626
1.1701
1.1772
1.1807
1.18238
1.18317
1.18353
1.18369
1.18377
1.1838
1.18381
1.18382
1.18382
1.18382
1.18382
1.18382
1.18382
1.18382
1.18382
0.658526
0.658501
0.658458
0.658387
0.658268
0.658071
0.657747
0.657221
0.656376
0.655039
0.652959
0.649788
0.645071
0.638252
0.628724
0.615928
0.599498
0.579417
0.556108
0.530402
0.503378
0.476142
0.449634
0.424526
0.401212
0.37985
0.360434
0.342858
0.326961
0.312567
0.2995
0.287598
0.27672
0.266743
0.257567
0.249101
0.241232
0.233888
0.227018
0.220575
0.21452
0.208822
0.203453
0.19839
0.193615
0.189112
0.184867
0.180872
0.177118
0.1736
0.170315
0.167263
0.164445
0.161867
0.159539
0.157478
0.155729
0.154334
0.153264
0.152643
0.152583
0.158476
0.168713
0.18083
0.195114
0.211948
0.231831
0.255415
0.283534
0.31725
0.357897
0.40722
0.467352
0.540141
0.626426
0.724765
0.82978
0.931761
1.01948
1.08548
1.1292
1.15526
1.16957
1.17694
1.18057
1.18232
1.18314
1.18352
1.18369
1.18376
1.1838
1.18381
1.18382
1.18382
1.18382
1.18382
1.18382
1.18382
1.18382
1.18382
0.658526
0.658501
0.658458
0.658387
0.658267
0.658069
0.657744
0.657216
0.656368
0.655026
0.652938
0.649755
0.645022
0.63818
0.628624
0.615795
0.599331
0.579217
0.555882
0.530159
0.50313
0.4759
0.449406
0.424319
0.401027
0.379688
0.360296
0.34274
0.326864
0.312487
0.299436
0.287549
0.276684
0.26672
0.257554
0.249098
0.241239
0.233904
0.227042
0.220606
0.214559
0.208867
0.203503
0.198446
0.193675
0.189175
0.184933
0.18094
0.177187
0.173669
0.170383
0.167328
0.164507
0.161925
0.159594
0.157528
0.155772
0.154372
0.153298
0.152676
0.152615
0.15785
0.167968
0.17995
0.194078
0.210724
0.230382
0.253689
0.281467
0.314762
0.354888
0.403557
0.462895
0.534793
0.620201
0.717886
0.82277
0.925371
1.01438
1.08192
1.12701
1.15403
1.16893
1.17662
1.18042
1.18225
1.18311
1.1835
1.18368
1.18376
1.1838
1.18381
1.18382
1.18382
1.18382
1.18382
1.18382
1.18382
1.18382
1.18382
0.658526
0.658501
0.658458
0.658386
0.658266
0.658067
0.657741
0.65721
0.656358
0.655009
0.652912
0.649716
0.644962
0.638094
0.628504
0.615634
0.599127
0.578972
0.555603
0.529859
0.502823
0.475599
0.449121
0.424057
0.400793
0.379482
0.360117
0.342588
0.326735
0.31238
0.299349
0.28748
0.276632
0.266682
0.257531
0.249088
0.24124
0.233917
0.227064
0.220638
0.2146
0.208916
0.20356
0.198509
0.193743
0.189248
0.185011
0.181021
0.17727
0.173753
0.170467
0.167411
0.164587
0.162002
0.159666
0.157596
0.155834
0.154428
0.153349
0.152723
0.152663
0.157108
0.167092
0.178923
0.19287
0.209301
0.228697
0.251683
0.279066
0.311872
0.351393
0.399304
0.457717
0.528579
0.612955
0.709853
0.814538
0.91781
1.00829
1.07765
1.12436
1.15254
1.16815
1.17623
1.18024
1.18216
1.18307
1.18348
1.18367
1.18376
1.18379
1.18381
1.18382
1.18382
1.18382
1.18382
1.18382
1.18382
1.18382
1.18382
0.658526
0.658501
0.658457
0.658385
0.658264
0.658065
0.657736
0.657203
0.656346
0.65499
0.652882
0.649669
0.644892
0.637991
0.62836
0.615442
0.598881
0.578676
0.555266
0.529494
0.502447
0.475228
0.448769
0.423732
0.400498
0.379221
0.359888
0.34239
0.326566
0.312238
0.299231
0.287384
0.276556
0.266625
0.257491
0.249064
0.241231
0.233921
0.227081
0.220667
0.214639
0.208966
0.203619
0.198577
0.19382
0.189331
0.1851
0.181114
0.177367
0.173852
0.170567
0.167511
0.164686
0.162098
0.159757
0.157682
0.155914
0.154503
0.153419
0.152791
0.152731
0.156247
0.166087
0.177746
0.191488
0.207671
0.226766
0.249384
0.276313
0.30856
0.347394
0.394443
0.451801
0.521473
0.604651
0.700607
0.805003
0.908976
1.00112
1.07258
1.12119
1.15074
1.1672
1.17576
1.18001
1.18206
1.18302
1.18346
1.18366
1.18375
1.18379
1.18381
1.18382
1.18382
1.18382
1.18382
1.18382
1.18382
1.18382
1.18382
0.658526
0.6585
0.658457
0.658384
0.658263
0.658062
0.657732
0.657195
0.656333
0.654968
0.652847
0.649614
0.644809
0.637871
0.628191
0.615214
0.59859
0.578323
0.55486
0.529054
0.501991
0.474776
0.448336
0.423329
0.400132
0.378893
0.359598
0.342137
0.326347
0.31205
0.299073
0.287252
0.276448
0.26654
0.257427
0.249019
0.241204
0.233911
0.227087
0.220687
0.214673
0.209013
0.203678
0.198647
0.1939
0.18942
0.185196
0.181217
0.177475
0.173965
0.170682
0.167626
0.1648
0.16221
0.159866
0.157786
0.156012
0.154595
0.153508
0.152878
0.152822
0.155288
0.16497
0.176438
0.189949
0.205851
0.224605
0.246805
0.27322
0.304834
0.342889
0.388968
0.445137
0.513457
0.595259
0.690101
0.794088
0.89877
0.992738
1.06659
1.11741
1.14859
1.16607
1.1752
1.17974
1.18193
1.18296
1.18344
1.18365
1.18375
1.18379
1.18381
1.18382
1.18382
1.18382
1.18382
1.18382
1.18382
1.18382
1.18382
0.658526
0.6585
0.658456
0.658383
0.658261
0.658059
0.657726
0.657185
0.656317
0.654943
0.652807
0.649552
0.644714
0.637732
0.627994
0.614948
0.598248
0.577906
0.554379
0.528528
0.501443
0.474229
0.447809
0.422835
0.399679
0.378484
0.359234
0.341815
0.326066
0.311806
0.298863
0.287074
0.2763
0.266419
0.257331
0.248946
0.241152
0.233879
0.227074
0.220693
0.214696
0.209052
0.203732
0.198715
0.19398
0.189512
0.185298
0.181328
0.177593
0.174087
0.170808
0.167754
0.164927
0.162334
0.159985
0.157898
0.156111
0.154685
0.153591
0.152965
0.152931
0.154307
0.163797
0.175038
0.188278
0.203857
0.22222
0.243945
0.26978
0.300683
0.337867
0.382867
0.437715
0.504524
0.584762
0.6783
0.781732
0.887089
0.983029
1.05956
1.11295
1.14604
1.16473
1.17453
1.17942
1.18178
1.1829
1.18341
1.18364
1.18374
1.18379
1.18381
1.18382
1.18382
1.18382
1.18382
1.18382
1.18382
1.18382
1.18382
0.658526
0.6585
0.658456
0.658382
0.658259
0.658055
0.65772
0.657175
0.6563
0.654916
0.652762
0.649482
0.644608
0.637574
0.627769
0.614642
0.597851
0.57742
0.553815
0.527906
0.500792
0.473574
0.447173
0.422234
0.399123
0.377978
0.358779
0.34141
0.325707
0.311492
0.298589
0.286838
0.276098
0.266249
0.257191
0.248834
0.241066
0.233818
0.227037
0.220677
0.2147
0.209075
0.203774
0.198774
0.194055
0.189602
0.185401
0.181441
0.177716
0.174217
0.170942
0.16789
0.165062
0.162463
0.160104
0.158
0.156186
0.154728
0.153591
0.152901
0.152779
0.153422
0.162655
0.173612
0.186529
0.201731
0.219647
0.240837
0.266024
0.296137
0.332355
0.376167
0.429554
0.494674
0.573154
0.665181
0.76788
0.873842
0.971875
1.0514
1.10772
1.14304
1.16314
1.17374
1.17905
1.18161
1.18282
1.18337
1.18362
1.18374
1.18378
1.18381
1.18381
1.18382
1.18382
1.18382
1.18382
1.18382
1.18382
1.18382
0.658526
0.6585
0.658455
0.658381
0.658257
0.658052
0.657714
0.657165
0.656282
0.654886
0.652714
0.649406
0.64449
0.637397
0.627515
0.614294
0.597397
0.576858
0.553158
0.527178
0.500023
0.472795
0.446411
0.421509
0.398448
0.377359
0.358217
0.340905
0.325256
0.311091
0.298235
0.286528
0.275829
0.266019
0.256997
0.248673
0.240936
0.233717
0.226963
0.22063
0.214679
0.209077
0.203798
0.198819
0.194119
0.189684
0.185499
0.181554
0.17784
0.174351
0.171082
0.168033
0.165204
0.162599
0.160228
0.158105
0.156249
0.15474
0.153524
0.152708
0.152379
0.152675
0.161593
0.172201
0.184732
0.199496
0.216905
0.237496
0.261964
0.291207
0.326366
0.368883
0.420678
0.483951
0.560477
0.650771