/*--------------------------------*- C++ -*----------------------------------*\
  =========                 |
  \\      /  F ield         | OpenFOAM: The Open Source CFD Toolbox
   \\    /   O peration     | Website:  https://openfoam.org
    \\  /    A nd           | Version:  8
     \\/     M anipulation  |
\*---------------------------------------------------------------------------*/
FoamFile
{
    version     2.0;
    format      ascii;
    class       volScalarField;
    location    "760/fluid";
    object      T;
}
// * * * * * * * * * * * * * * * * * * * * * * * * * * * * * * * * * * * * * //

dimensions      [0 0 0 1 0 0 0];

internalField   nonuniform List<scalar> 
4000
(
293.004
293.017
293.039
293.076
293.138
293.241
293.41
293.687
294.135
294.852
295.98
297.73
300.388
304.337
310.046
318.054
328.912
343.109
360.987
382.681
408.111
437.014
469.021
503.721
540.728
579.706
620.387
662.563
706.075
750.804
796.648
843.517
891.316
939.941
989.269
1039.23
1089.86
1141.06
1192.73
1244.77
1297.07
1349.53
1402.02
1454.44
1506.65
1558.55
1609.98
1660.82
1710.91
1760.11
1808.23
1855.08
1900.45
1944.07
1985.63
2024.76
2060.99
2093.24
2120.91
2144.08
2160.6
2168.63
2157.05
2047.04
1930
1808.08
1683.01
1556.3
1429.23
1302.96
1178.59
1057.24
940.028
827.868
722.009
624.477
537.601
463.677
404.514
360.735
331.198
313.109
302.979
297.747
295.193
293.99
293.439
293.192
293.083
293.035
293.015
293.006
293.003
293.001
293
293
293
293
293
293
293.004
293.017
293.039
293.077
293.139
293.242
293.412
293.691
294.141
294.859
295.988
297.732
300.376
304.288
309.928
317.818
328.499
342.454
360.032
381.387
406.464
435.029
466.73
501.174
537.977
576.807
617.388
659.508
703.005
747.751
793.644
840.588
888.488
937.236
986.71
1036.83
1087.63
1139.01
1190.88
1243.12
1295.64
1348.31
1401.03
1453.68
1506.12
1558.24
1609.9
1660.95
1711.26
1760.66
1808.98
1856.01
1901.55
1945.34
1987.05
2026.32
2062.65
2094.99
2122.72
2145.94
2162.46
2170.41
2148.12
2037.03
1919.02
1796.18
1670.25
1542.71
1414.86
1287.88
1162.9
1041.07
923.569
811.338
705.826
609.231
523.973
452.329
395.9
354.901
327.72
311.285
302.13
297.38
295.044
293.932
293.417
293.184
293.08
293.034
293.014
293.006
293.003
293.001
293
293
293
293
293
293
293.004
293.017
293.039
293.077
293.139
293.243
293.414
293.693
294.144
294.864
295.992
297.734
300.365
304.25
309.838
317.642
328.19
341.958
359.294
380.36
405.115
433.343
464.713
498.847
535.373
573.964
614.349
656.315
699.699
744.373
790.233
837.183
885.128
933.958
983.55
1033.82
1084.78
1136.37
1188.46
1240.96
1293.75
1346.72
1399.74
1452.7
1505.48
1557.94
1609.93
1661.32
1711.96
1761.68
1810.31
1857.64
1903.46
1947.5
1989.45
2028.92
2065.44
2097.86
2125.65
2148.85
2165.23
2172.98
2132.16
2020.05
1900.96
1777.06
1650.14
1521.74
1393.17
1265.69
1140.47
1018.72
901.666
790.292
686.251
591.831
509.39
440.992
387.862
349.769
324.776
309.753
301.396
297.046
294.897
293.87
293.391
293.173
293.075
293.032
293.014
293.006
293.002
293.001
293
293
293
293
293
293
293.004
293.017
293.039
293.077
293.139
293.243
293.413
293.692
294.141
294.855
295.975
297.7
300.304
304.145
309.665
317.369
327.78
341.37
358.49
379.311
403.802
431.761
462.868
496.754
533.054
571.443
611.654
653.475
696.743
741.333
787.14
834.072
882.034
930.918
980.603
1030.99
1082.11
1133.88
1186.2
1238.94
1292.01
1345.28
1398.63
1451.94
1505.08
1557.9
1610.27
1662.03
1713.04
1763.13
1812.11
1859.78
1905.91
1950.23
1992.43
2032.11
2068.78
2101.21
2128.93
2152.02
2168.24
2175.61
2112.31
1999.38
1879.35
1754.52
1626.77
1497.69
1368.69
1241.03
1115.98
994.784
878.636
768.594
666.457
574.527
495.053
429.891
379.945
344.627
321.743
308.116
300.576
296.657
294.72
293.791
293.357
293.159
293.069
293.03
293.013
293.005
293.002
293.001
293
293
293
293
293
293
293.004
293.017
293.039
293.077
293.139
293.242
293.412
293.688
294.135
294.844
295.956
297.666
300.245
304.047
309.508
317.127
327.42
340.861
357.8
378.413
402.683
430.416
461.303
494.982
531.092
569.313
609.378
651.077
694.248
738.765
784.527
831.443
879.419
928.35
978.116
1028.61
1079.87
1131.82
1184.34
1237.32
1290.65
1344.21
1397.88
1451.54
1505.02
1558.2
1610.94
1663.08
1714.46
1764.91
1814.23
1862.22
1908.64
1953.22
1995.62
2035.46
2072.17
2104.45
2132.08
2155.01
2170.83
2177.33
2091.49
1977.97
1857.1
1731.41
1602.92
1473.31
1344.04
1216.45
1091.8
971.4
856.367
747.852
647.787
558.428
481.911
419.875
372.919
340.133
319.122
306.709
299.871
296.322
294.566
293.722
293.327
293.145
293.064
293.028
293.012
293.005
293.002
293.001
293
293
293
293
293
293
293.004
293.017
293.039
293.076
293.138
293.24
293.409
293.684
294.126
294.829
295.93
297.624
300.177
303.939
309.343
316.881
327.07
340.379
357.165
377.608
401.699
429.252
459.966
493.484
529.448
567.541
607.495
649.103
692.202
736.669
782.403
829.314
877.312
926.294
976.14
1026.74
1078.14
1130.24
1182.96
1236.16
1289.74
1343.58
1397.55
1451.51
1505.32
1558.84
1611.93
1664.41
1716.13
1766.9
1816.53
1864.79
1911.44
1956.2
1998.71
2038.57
2075.28
2107.37
2134.87
2157.5
2172.92
2178.84
2074.45
1959.26
1836.85
1709.89
1580.46
1450.27
1320.78
1193.32
1069.17
949.643
835.772
728.814
630.774
543.864
470.102
410.925
366.66
336.126
316.77
305.431
299.22
296.007
294.418
293.655
293.297
293.132
293.058
293.025
293.011
293.005
293.002
293.001
293
293
293
293
293
293
293.004
293.017
293.039
293.076
293.137
293.239
293.406
293.678
294.117
294.814
295.905
297.583
300.112
303.839
309.191
316.66
326.757
339.955
356.611
376.912
400.855
428.262
458.838
492.229
528.081
566.077
605.952
647.495
690.548
734.985
780.71
827.632
875.662
924.701
974.629
1025.34
1076.86
1129.12
1182.01
1235.42
1289.23
1343.32
1397.55
1451.8
1505.91
1559.74
1613.13
1665.93
1717.94
1768.99
1818.87
1867.35
1914.16
1959.01
2001.53
2041.28
2077.73
2109.17
2136.76
2158.43
2172.7
2177.3
2065.16
1945.19
1819.72
1690.79
1560.12
1429.24
1299.51
1172.19
1048.57
929.883
817.123
711.659
615.537
530.905
459.67
403.083
361.224
332.674
314.757
304.341
298.665
295.738
294.292
293.597
293.271
293.121
293.053
293.023
293.01
293.004
293.002
293.001
293
293
293
293
293
293
293.004
293.017
293.039
293.075
293.136
293.237
293.403
293.673
294.108
294.799
295.881
297.544
300.051
303.745
309.051
316.459
326.478
339.58
356.127
376.311
400.134
427.425
457.892
491.187
526.955
564.881
604.7
646.202
689.228
733.654
779.383
826.328
874.4
923.501
973.513
1024.32
1075.97
1128.38
1181.44
1235.04
1289.06
1343.37
1397.84
1452.34
1506.71
1560.82
1614.48
1667.54
1719.81
1771.1
1821.19
1869.84
1916.77
1961.67
2004.15
2043.74
2079.66
2110.44
2136.98
2156.84
2168.14
2167.79
2052.7
1930.33
1803.06
1672.85
1541.36
1410.04
1280.22
1153.14
1030.06
912.2
800.504
696.432
602.066
519.504
450.545
396.267
356.528
329.705
313.028
303.403
298.185
295.504
294.181
293.546
293.248
293.111
293.049
293.021
293.009
293.004
293.002
293.001
293
293
293
293
293
293
293.004
293.017
293.038
293.074
293.135
293.235
293.4
293.668
294.1
294.786
295.859
297.509
299.996
303.661
308.928
316.282
326.234
339.256
355.712
375.8
399.525
426.723
457.106
490.326
526.033
563.91
603.692
645.17
688.185
732.613
778.359
825.335
873.455
922.621
972.715
1023.63
1075.39
1127.93
1181.15
1234.92
1289.12
1343.64
1398.32
1453.05
1507.66
1561.99
1615.89
1669.18
1721.67
1773.16
1823.42
1872.21
1919.23
1964.17
2006.61
2046.05
2081.61
2112
2137.94
2156.91
2166.93
2156.29
2039.27
1915.41
1787.04
1656.06
1524.1
1392.58
1262.82
1136.07
1013.55
896.465
785.756
682.975
590.217
509.53
442.614
390.386
352.505
327.178
311.563
302.611
297.78
295.306
294.087
293.503
293.228
293.102
293.045
293.02
293.008
293.004
293.002
293.001
293
293
293
293
293
293
293.004
293.017
293.038
293.074
293.134
293.233
293.397
293.663
294.092
294.773
295.838
297.477
299.947
303.587
308.82
316.128
326.024
338.979
355.36
375.368
399.016
426.14
456.457
489.622
525.284
563.128
602.887
644.354
687.369
731.81
777.579
824.592
872.763
921.994
972.17
1023.18
1075.05
1127.72
1181.07
1234.99
1289.36
1344.05
1398.93
1453.85
1508.66
1563.2
1617.3
1670.78
1723.45
1775.11
1825.52
1874.43
1921.54
1966.53
2008.99
2048.4
2083.83
2114.11
2139.98
2159
2169.33
2143.52
2025.58
1900.98
1772.03
1640.66
1508.5
1376.96
1247.38
1120.98
999.02
882.655
772.852
671.239
579.918
500.892
435.774
385.342
349.077
325.036
310.325
301.942
297.438
295.139
294.008
293.466
293.212
293.095
293.042
293.018
293.008
293.003
293.001
293.001
293
293
293
293
293
293
293.004
293.016
293.038
293.074
293.133
293.232
293.395
293.659
294.085
294.762
295.821
297.449
299.904
303.523
308.726
315.997
325.845
338.744
355.064
375.008
398.592
425.659
455.926
489.05
524.68
562.502
602.25
643.715
686.737
731.195
776.993
824.045
872.267
921.561
971.812
1022.91
1074.88
1127.66
1181.14
1235.19
1289.71
1344.56
1399.6
1454.68
1509.66
1564.37
1618.64
1672.29
1725.11
1776.91
1827.44
1876.45
1923.64
1968.68
2011.16
2050.57
2085.94
2116.16
2141.99
2161
2171.36
2131.09
2012.63
1887.6
1758.34
1626.77
1494.54
1363.08
1233.71
1107.69
986.273
870.58
761.602
661.039
570.999
493.444
429.909
381.042
346.17
323.229
309.286
301.382
297.151
294.999
293.942
293.435
293.198
293.088
293.039
293.017
293.007
293.003
293.001
293.001
293
293
293
293
293
293
293.004
293.016
293.038
293.073
293.132
293.231
293.393
293.656
294.079
294.752
295.806
297.425
299.867
303.469
308.647
315.886
325.695
338.548
354.817
374.71
398.244
425.266
455.494
488.588
524.197
562.005
601.749
643.218
686.252
730.732
776.559
823.651
871.922
921.275
971.597
1022.77
1074.83
1127.71
1181.3
1235.47
1290.12
1345.1
1400.28
1455.5
1510.63
1565.48
1619.89
1673.66
1726.61
1778.51
1829.14
1878.22
1925.47
1970.54
2013.02
2052.4
2087.72
2117.89
2143.67
2162.63
2172.97
2120.06
2001.12
1875.74
1746.25
1614.56
1482.32
1350.98
1221.85
1096.2
975.271
860.16
751.895
652.255
563.338
487.071
424.913
377.398
343.721
321.714
308.417
300.915
296.912
294.882
293.886
293.409
293.186
293.083
293.037
293.016
293.007
293.003
293.001
293.001
293
293
293
293
293
293
293.004
293.016
293.037
293.073
293.132
293.23
293.391
293.653
294.074
294.744
295.793
297.405
299.837
303.423
308.581
315.794
325.57
338.386
354.614
374.465
397.961
424.947
455.147
488.218
523.813
561.615
601.358
642.835
685.884
730.385
776.242
823.371
871.687
921.094
971.478
1022.72
1074.86
1127.83
1181.51
1235.79
1290.54
1345.63
1400.92
1456.27
1511.51
1566.48
1621
1674.88
1727.92
1779.91
1830.6
1879.73
1927.01
1972.08
2014.54
2053.9
2089.16
2119.27
2144.98
2163.89
2174.22
2110.63
1991.21
1865.5
1735.8
1604.04
1471.83
1340.61
1211.69
1086.35
965.849
851.241
743.599
644.764
556.821
481.666
420.692
374.334
341.671
320.452
307.695
300.527
296.715
294.785
293.84
293.388
293.176
293.079
293.035
293.015
293.006
293.003
293.001
293
293
293
293
293
293
293
293.004
293.016
293.037
293.073
293.131
293.229
293.389
293.65
294.07
294.738
295.782
297.388
299.811
303.385
308.527
315.718
325.468
338.253
354.449
374.268
397.732
424.692
454.87
487.926
523.511
561.31
601.057
642.543
685.607
730.129
776.014
823.176
871.533
920.988
971.425
1022.73
1074.94
1127.98
1181.74
1236.1
1290.94
1346.12
1401.51
1456.95
1512.29
1567.35
1621.95
1675.91
1729.03
1781.07
1831.81
1880.96
1928.24
1973.31
2015.77
2055.09
2090.27
2120.32
2145.98
2164.85
2175.15
2102.76
1982.84
1856.82
1726.95
1595.11
1462.92
1331.8
1203.08
1078.02
957.881
843.706
736.602
638.452
551.34
477.131
417.163
371.783
339.972
319.409
307.101
300.208
296.552
294.706
293.802
293.37
293.168
293.075
293.033
293.014
293.006
293.003
293.001
293
293
293
293
293
293
293
293.004
293.016
293.037
293.072
293.131
293.228
293.388
293.648
294.067
294.732
295.773
297.374
299.79
303.354
308.483
315.656
325.385
338.147
354.317
374.11
397.55
424.489
454.651
487.697
523.277
561.075
600.827
642.322
685.4
729.942
775.851
823.043
871.434
920.929
971.411
1022.77
1075.03
1128.13
1181.95
1236.39
1291.3
1346.56
1402.02
1457.54
1512.94
1568.07
1622.75
1676.76
1729.92
1782
1832.76
1881.93
1929.22
1974.27
2016.69
2055.97
2091.07
2121.05
2146.66
2165.53
2175.8
2096.26
1975.88
1849.57
1719.54
1587.64
1455.47
1324.45
1195.89
1071.07
951.246
837.437
730.787
633.214
546.799
473.383
414.254
369.687
338.581
318.558
306.617
299.949
296.42
294.641
293.771
293.356
293.161
293.072
293.032
293.014
293.006
293.003
293.001
293
293
293
293
293
293
293
293.004
293.016
293.037
293.072
293.131
293.228
293.387
293.646
294.064
294.728
295.766
297.364
299.774
303.33
308.448
315.608
325.32
338.063
354.213
373.986
397.408
424.332
454.483
487.52
523.097
560.896
600.653
642.157
685.248
729.806
775.735
822.952
871.372
920.899
971.418
1022.81
1075.12
1128.27
1182.14
1236.63
1291.6
1346.91
1402.43
1458.01
1513.47
1568.65
1623.36
1677.41
1730.6
1782.7
1833.47
1882.64
1929.92
1974.94
2017.32
2056.54
2091.58
2121.5
2147.08
2165.94
2176.23
2090.98
1970.18
1843.62
1713.45
1581.5
1449.36
1318.42
1190.02
1065.4
945.839
832.335
726.059
628.962
543.119
470.351
411.906
367.999
337.463
317.876
306.23
299.743
296.315
294.59
293.747
293.344
293.156
293.07
293.031
293.013
293.006
293.002
293.001
293
293
293
293
293
293
293
293.004
293.016
293.037
293.072
293.13
293.227
293.386
293.645
294.062
294.724
295.761
297.355
299.761
303.311
308.421
315.571
325.271
337.999
354.134
373.892
397.301
424.214
454.356
487.389
522.964
560.764
600.525
642.037
685.138
729.71
775.655
822.89
871.332
920.884
971.431
1022.86
1075.2
1128.38
1182.29
1236.82
1291.83
1347.18
1402.74
1458.35
1513.85
1569.06
1623.8
1677.88
1731.08
1783.19
1833.96
1883.11
1930.36
1975.35
2017.68
2056.87
2091.85
2121.74
2147.32
2166.21
2176.52
2086.88
1965.68
1838.88
1708.59
1576.61
1444.49
1313.64
1185.36
1060.92
941.576
828.319
722.345
625.627
540.238
467.983
410.077
366.686
336.595
317.347
305.93
299.582
296.233
294.55
293.728
293.336
293.152
293.068
293.03
293.013
293.006
293.002
293.001
293
293
293
293
293
293
293
293.004
293.016
293.037
293.072
293.13
293.227
293.386
293.644
294.06
294.722
295.757
297.349
299.752
303.297
308.401
315.544
325.235
337.953
354.077
373.825
397.224
424.129
454.266
487.295
522.869
560.671
600.435
641.952
685.062
729.643
775.6
822.849
871.306
920.875
971.44
1022.89
1075.25
1128.45
1182.39
1236.95
1291.98
1347.36
1402.95
1458.59
1514.1
1569.34
1624.09
1678.18
1731.38
1783.48
1834.23
1883.37
1930.58
1975.53
2017.82
2056.97
2091.96
2121.88
2147.57
2166.73
2177.54
2083.84
1962.28
1835.27
1704.89
1572.89
1440.81
1310.04
1181.87
1057.57
938.393
825.328
719.587
623.156
538.11
466.238
408.733
365.725
335.961
316.959
305.71
299.464
296.173
294.52
293.714
293.329
293.149
293.067
293.029
293.013
293.006
293.002
293.001
293
293
293
293
293
293
293
293.004
293.016
293.037
293.072
293.13
293.227
293.385
293.644
294.059
294.72
295.754
297.345
299.746
303.289
308.388
315.526
325.211
337.923
354.041
373.781
397.175
424.075
454.208
487.235
522.808
560.611
600.378
641.899
685.014
729.601
775.565
822.823
871.289
920.869
971.444
1022.9
1075.28
1128.5
1182.45
1237.02
1292.07
1347.47
1403.07
1458.72
1514.25
1569.48
1624.24
1678.32
1731.52
1783.6
1834.33
1883.43
1930.61
1975.52
2017.77
2056.87
2091.83
2121.74
2147.46
2166.71
2177.66
2081.84
1959.94
1832.77
1702.32
1570.31
1438.27
1307.57
1179.49
1055.3
936.254
823.328
717.75
621.518
536.704
465.091
407.854
365.099
335.549
316.708
305.567
299.387
296.134
294.501
293.705
293.325
293.147
293.066
293.029
293.013
293.005
293.002
293.001
293
293
293
293
293
293
293
293.004
293.016
293.037
293.072
293.13
293.226
293.385
293.643
294.059
294.719
295.753
297.343
299.743
303.284
308.383
315.518
325.2
337.909
354.023
373.761
397.151
424.049
454.18
487.206
522.78
560.583
600.351
641.874
684.991
729.581
775.549
822.81
871.281
920.865
971.446
1022.91
1075.29
1128.51
1182.47
1237.04
1292.1
1347.51
1403.11
1458.76
1514.29
1569.53
1624.29
1678.36
1731.55
1783.61
1834.32
1883.4
1930.54
1975.42
2017.62
2056.69
2091.62
2121.51
2147.25
2166.58
2177.73
2080.85
1958.7
1831.41
1700.93
1568.94
1436.94
1306.28
1178.27
1054.15
935.178
822.332
716.846
620.719
536.024
464.54
407.435
364.804
335.357
316.592
305.5
299.352
296.116
294.492
293.7
293.323
293.146
293.065
293.029
293.013
293.005
293.002
293.001
293
293
293
293
293
293
293
293.004
293.016
293.037
293.072
293.13
293.226
293.385
293.643
294.059
294.719
295.753
297.343
299.743
303.284
308.383
315.518
325.2
337.909
354.023
373.761
397.151
424.049
454.18
487.206
522.78
560.583
600.351
641.874
684.991
729.581
775.549
822.81
871.282
920.866
971.446
1022.91
1075.29
1128.51
1182.47
1237.04
1292.1
1347.51
1403.11
1458.76
1514.29
1569.53
1624.29
1678.36
1731.55
1783.61
1834.32
1883.4
1930.54
1975.42
2017.62
2056.69
2091.62
2121.51
2147.25
2166.58
2177.73
2080.85
1958.7
1831.41
1700.93
1568.94
1436.94
1306.28
1178.27
1054.15
935.178
822.333
716.846
620.72
536.025
464.541
407.435
364.804
335.357
316.592
305.5
299.352
296.116
294.492
293.7
293.323
293.146
293.065
293.029
293.013
293.005
293.002
293.001
293
293
293
293
293
293
293
293.004
293.016
293.037
293.072
293.13
293.227
293.385
293.644
294.059
294.72
295.754
297.345
299.746
303.289
308.389
315.526
325.211
337.924
354.041
373.782
397.175
424.075
454.208
487.235
522.809
560.612
600.379
641.9
685.014
729.602
775.566
822.824
871.29
920.87
971.445
1022.9
1075.28
1128.5
1182.45
1237.02
1292.07
1347.47
1403.07
1458.72
1514.25
1569.48
1624.24
1678.33
1731.52
1783.61
1834.33
1883.44
1930.61
1975.52
2017.77
2056.88
2091.84
2121.75
2147.47
2166.71
2177.67
2081.84
1959.95
1832.77
1702.32
1570.31
1438.27
1307.57
1179.49
1055.3
936.255
823.329
717.751
621.52
536.705
465.092
407.854
365.1
335.549
316.708
305.567
299.387
296.134
294.501
293.705
293.325
293.147
293.066
293.029
293.013
293.005
293.002
293.001
293
293
293
293
293
293
293
293.004
293.016
293.037
293.072
293.13
293.227
293.386
293.644
294.06
294.722
295.757
297.349
299.752
303.298
308.401
315.544
325.235
337.954
354.078
373.825
397.225
424.13
454.267
487.296
522.87
560.672
600.437
641.954
685.063
729.644
775.601
822.85
871.307
920.877
971.441
1022.89
1075.25
1128.46
1182.4
1236.95
1291.98
1347.37
1402.95
1458.59
1514.11
1569.34
1624.09
1678.18
1731.39
1783.49
1834.24
1883.37
1930.58
1975.54
2017.83
2056.98
2091.96
2121.89
2147.57
2166.73
2177.54
2083.85
1962.28
1835.27
1704.89
1572.89
1440.81
1310.04
1181.87
1057.57
938.396
825.331
719.589
623.159
538.112
466.24
408.734
365.726
335.961
316.96
305.71
299.464
296.173
294.52
293.714
293.329
293.149
293.067
293.029
293.013
293.006
293.002
293.001
293
293
293
293
293
293
293
293.004
293.016
293.037
293.072
293.13
293.227
293.386
293.645
294.062
294.724
295.761
297.355
299.761
303.311
308.421
315.571
325.271
338
354.135
373.893
397.302
424.215
454.357
487.39
522.965
560.766
600.527
642.038
685.14
729.711
775.657
822.892
871.334
920.886
971.433
1022.86
1075.2
1128.38
1182.3
1236.82
1291.83
1347.19
1402.75
1458.36
1513.85
1569.06
1623.8
1677.88
1731.08
1783.19
1833.96
1883.12
1930.37
1975.36
2017.69
2056.87
2091.86
2121.75
2147.32
2166.21
2176.53
2086.88
1965.68
1838.88
1708.59
1576.61
1444.5
1313.65
1185.37
1060.93
941.58
828.322
722.348
625.63
540.241
467.985
410.078
366.688
336.596
317.347
305.93
299.582
296.233
294.55
293.728
293.336
293.152
293.068
293.03
293.013
293.006
293.002
293.001
293
293
293
293
293
293
293
293.004
293.016
293.037
293.072
293.131
293.228
293.387
293.646
294.064
294.728
295.766
297.364
299.774
303.33
308.448
315.608
325.321
338.064
354.214
373.987
397.41
424.334
454.484
487.522
523.099
560.898
600.655
642.159
685.25
729.809
775.738
822.954
871.374
920.902
971.421
1022.82
1075.12
1128.27
1182.15
1236.63
1291.6
1346.92
1402.44
1458.01
1513.47
1568.65
1623.36
1677.42
1730.6
1782.7
1833.47
1882.65
1929.92
1974.95
2017.32
2056.55
2091.59
2121.51
2147.09
2165.95
2176.24
2090.99
1970.19
1843.62
1713.45
1581.51
1449.36
1318.43
1190.02
1065.4
945.844
832.339
726.063
628.966
543.122
470.354
411.909
368.001
337.464
317.876
306.231
299.743
296.315
294.59
293.747
293.345
293.156
293.07
293.031
293.013
293.006
293.002
293.001
293
293
293
293
293
293
293
293.004
293.016
293.037
293.072
293.131
293.228
293.388
293.648
294.067
294.732
295.773
297.375
299.79
303.355
308.483
315.657
325.386
338.148
354.318
374.111
397.551
424.491
454.653
487.698
523.279
561.077
600.829
642.324
685.403
729.945
775.853
823.046
871.437
920.932
971.415
1022.77
1075.03
1128.13
1181.96
1236.39
1291.3
1346.56
1402.02
1457.54
1512.95
1568.08
1622.75
1676.77
1729.93
1782.01
1832.76
1881.93
1929.22
1974.28
2016.7
2055.98
2091.08
2121.06
2146.68
2165.54
2175.82
2096.27
1975.89
1849.58
1719.55
1587.65
1455.47
1324.45
1195.9
1071.07
951.251
837.443
730.792
633.219
546.803
473.386
414.257
369.689
338.582
318.558
306.617
299.95
296.42
294.641
293.771
293.356
293.162
293.072
293.032
293.014
293.006
293.003
293.001
293
293
293
293
293
293
293
293.004
293.016
293.037
293.073
293.131
293.229
293.389
293.65
294.07
294.738
295.782
297.388
299.811
303.385
308.527
315.718
325.468
338.254
354.45
374.269
397.733
424.693
454.872
487.928
523.514
561.313
601.06
642.545
685.61
730.132
776.017
823.18
871.536
920.991
971.428
1022.73
1074.94
1127.98
1181.74
1236.1
1290.94
1346.13
1401.52
1456.96
1512.29
1567.35
1621.96
1675.92
1729.03
1781.08
1831.81
1880.97
1928.25
1973.32
2015.78
2055.11
2090.29
2120.33
2145.99
2164.87
2175.17
2102.77
1982.85
1856.83
1726.96
1595.12
1462.93
1331.81
1203.09
1078.02
957.887
843.713
736.608
638.457
551.345
477.135
417.166
371.785
339.973
319.41
307.101
300.209
296.552
294.706
293.802
293.37
293.168
293.075
293.033
293.014
293.006
293.003
293.001
293
293
293
293
293
293
293
293.004
293.016
293.037
293.073
293.132
293.23
293.391
293.653
294.074
294.744
295.793
297.405
299.837
303.423
308.582
315.794
325.571
338.387
354.615
374.467
397.962
424.949
455.149
488.221
523.816
561.618
601.362
642.838
685.888
730.389
776.246
823.375
871.691
921.098
971.482
1022.73
1074.87
1127.83
1181.51
1235.79
1290.54
1345.63
1400.93
1456.27
1511.52
1566.48
1621
1674.89
1727.93
1779.91
1830.61
1879.74
1927.02
1972.09
2014.55
2053.91
2089.18
2119.29
2145
2163.91
2174.24
2110.64
1991.22
1865.51
1735.81
1604.05
1471.84
1340.62
1211.7
1086.36
965.857
851.249
743.606
644.77
556.826
481.67
420.695
374.337
341.673
320.453
307.696
300.527
296.715
294.785
293.84
293.388
293.176
293.079
293.035
293.015
293.006
293.003
293.001
293
293
293
293
293
293
293
293.004
293.016
293.038
293.073
293.132
293.231
293.393
293.656
294.079
294.753
295.806
297.425
299.868
303.469
308.648
315.887
325.696
338.549
354.819
374.711
398.246
425.268
455.497
488.591
524.2
562.009
601.752
643.221
686.256
730.736
776.563
823.655
871.926
921.28
971.601
1022.78
1074.84
1127.72
1181.3
1235.48
1290.12
1345.1
1400.28
1455.51
1510.63
1565.49
1619.89
1673.67
1726.62
1778.52
1829.15
1878.23
1925.48
1970.56
2013.03
2052.42
2087.73
2117.91
2143.69
2162.65
2173
2120.07
2001.13
1875.75
1746.25
1614.56
1482.33
1350.99
1221.86
1096.2
975.28
860.168
751.903
652.262
563.344
487.076
424.917
377.401
343.723
321.715
308.418
300.915
296.913
294.882
293.886
293.409
293.186
293.083
293.037
293.016
293.007
293.003
293.001
293.001
293
293
293
293
293
293
293.004
293.016
293.038
293.074
293.133
293.232
293.395
293.659
294.085
294.762
295.821
297.449
299.904
303.524
308.727
315.998
325.846
338.745
355.065
375.01
398.595
425.662
455.929
489.053
524.684
562.506
602.254
643.719
686.741
731.2
776.998
824.05
872.272
921.566
971.818
1022.91
1074.89
1127.67
1181.14
1235.2
1289.72
1344.57
1399.6
1454.69
1509.67
1564.38
1618.65
1672.3
1725.12
1776.92
1827.45
1876.46
1923.65
1968.69
2011.17
2050.59
2085.96
2116.17
2142.01
2161.02
2171.38
2131.1
2012.64
1887.61
1758.35
1626.79
1494.56
1363.11
1233.74
1107.72
986.295
870.596
761.612
661.046
571.004
493.449
429.913
381.044
346.172
323.23
309.287
301.382
297.151
294.999
293.942
293.435
293.198
293.088
293.039
293.017
293.007
293.003
293.001
293.001
293
293
293
293
293
293
293.004
293.017
293.038
293.074
293.134
293.233
293.397
293.663
294.092
294.773
295.839
297.477
299.947
303.588
308.82
316.129
326.025
338.98
355.362
375.37
399.018
426.143
456.461
489.626
525.288
563.132
602.892
644.359
687.374
731.814
777.584
824.597
872.768
921.999
972.175
1023.18
1075.05
1127.72
1181.08
1235
1289.37
1344.06
1398.94
1453.86
1508.67
1563.2
1617.31
1670.79
1723.46
1775.12
1825.53
1874.44
1921.55
1966.54
2009
2048.41
2083.84
2114.12
2139.99
2159.01
2169.34
2143.52
2025.57
1900.96
1772.01
1640.64
1508.47
1376.93
1247.34
1120.95
998.997
882.642
772.848
671.241
579.922
500.896
435.777
385.345
349.078
325.037
310.326
301.943
297.438
295.139
294.008
293.466
293.212
293.095
293.042
293.018
293.008
293.003
293.001
293.001
293
293
293
293
293
293
293.004
293.017
293.038
293.074
293.135
293.235
293.4
293.668
294.1
294.786
295.859
297.509
299.996
303.662
308.928
316.283
326.235
339.258
355.714
375.802
399.528
426.727
457.11
490.33
526.038
563.914
603.697
645.175
688.19
732.619
778.365
825.341
873.461
922.627
972.722
1023.63
1075.4
1127.94
1181.16
1234.93
1289.13
1343.64
1398.33
1453.05
1507.66
1562
1615.9
1669.19
1721.68
1773.17
1823.43
1872.21
1919.24
1964.18
2006.62
2046.06
2081.62
2112.01
2137.94
2156.92
2166.94
2156.3
2039.28
1915.43
1787.06
1656.09
1524.13
1392.61
1262.86
1136.1
1013.58
896.488
785.773
682.98
590.22
509.533
442.617
390.388
352.507
327.179
311.564
302.611
297.78
295.306
294.088
293.503
293.228
293.102
293.045
293.02
293.008
293.004
293.002
293.001
293
293
293
293
293
293
293.004
293.017
293.039
293.075
293.136
293.237
293.403
293.673
294.108
294.799
295.881
297.544
300.051
303.746
309.052
316.46
326.479
339.582
356.129
376.314
400.137
427.429
457.896
491.191
526.96
564.886
604.705
646.207
689.233
733.66
779.389
826.334
874.407
923.508
973.519
1024.33
1075.98
1128.38
1181.44
1235.04
1289.07
1343.38
1397.85
1452.35
1506.72
1560.82
1614.49
1667.55
1719.82
1771.11
1821.2
1869.84
1916.78
1961.68
2004.16
2043.75
2079.67
2110.45
2136.98
2156.84
2168.15
2167.79
2052.7
1930.33
1803.05
1672.84
1541.35
1410.03
1280.21
1153.14
1030.05
912.189
800.492
696.428
602.067
519.507
450.547
396.269
356.53
329.706
313.028
303.404
298.185
295.504
294.181
293.546
293.248
293.111
293.049
293.021
293.009
293.004
293.002
293.001
293
293
293
293
293
293
293.004
293.017
293.039
293.076
293.137
293.239
293.406
293.678
294.117
294.814
295.905
297.583
300.113
303.839
309.192
316.661
326.759
339.957
356.613
376.915
400.858
428.266
458.842
492.234
528.086
566.083
605.957
647.501
690.554
734.992
780.716
827.638
875.669
924.708
974.636
1025.34
1076.87
1129.13
1182.02
1235.43
1289.24
1343.33
1397.56
1451.81
1505.92
1559.75
1613.14
1665.93
1717.95
1769
1818.88
1867.36
1914.17
1959.02
2001.54
2041.29
2077.74
2109.18
2136.77
2158.43
2172.7
2177.3
2065.17
1945.19
1819.72
1690.79
1560.13
1429.25
1299.51
1172.2
1048.58
929.898
817.147
711.681
615.551
530.913
459.674
403.085
361.226
332.675
314.757
304.341
298.665
295.738
294.292
293.597
293.271
293.121
293.053
293.023
293.01
293.004
293.002
293.001
293
293
293
293
293
293
293.004
293.017
293.039
293.076
293.138
293.24
293.409
293.684
294.126
294.829
295.93
297.624
300.177
303.94
309.343
316.882
327.071
340.381
357.167
377.612
401.702
429.256
459.971
493.489
529.454
567.546
607.501
649.109
692.209
736.676
782.41
829.322
877.32
926.302
976.148
1026.75
1078.14
1130.25
1182.96
1236.17
1289.75
1343.59
1397.56
1451.51
1505.33
1558.85
1611.93
1664.42
1716.14
1766.91
1816.53
1864.79
1911.45
1956.2
1998.72
2038.58
2075.28
2107.38
2134.87
2157.5
2172.92
2178.84
2074.45
1959.26
1836.85
1709.89
1580.46
1450.27
1320.78
1193.32
1069.17
949.643
835.769
728.812
630.775
543.867
470.104
410.926
366.661
336.126
316.77
305.431
299.22
296.007
294.418
293.655
293.297
293.132
293.058
293.025
293.011
293.005
293.002
293.001
293
293
293
293
293
293
293.004
293.017
293.039
293.077
293.139
293.242
293.412
293.688
294.135
294.844
295.956
297.666
300.246
304.048
309.509
317.128
327.422
340.863
357.802
378.417
402.687
430.421
461.308
494.987
531.098
569.319
609.385
651.084
694.255
738.773
784.535
831.451
879.427
928.359
978.125
1028.62
1079.88
1131.83
1184.35
1237.33
1290.66
1344.23
1397.9
1451.55
1505.03
1558.21
1610.95
1663.09
1714.47
1764.92
1814.24
1862.23
1908.65
1953.22
1995.63
2035.46
2072.17
2104.45
2132.08
2155.01
2170.83
2177.33
2091.48
1977.97
1857.1
1731.41
1602.92
1473.31
1344.04
1216.45
1091.8
971.399
856.365
747.851
647.787
558.429
481.912
419.876
372.92
340.134
319.123
306.709
299.871
296.322
294.566
293.722
293.327
293.145
293.064
293.028
293.012
293.005
293.002
293.001
293
293
293
293
293
293
293.004
293.017
293.039
293.077
293.139
293.243
293.413
293.692
294.141
294.855
295.976
297.701
300.305
304.146
309.666
317.371
327.781
341.372
358.493
379.314
403.806
431.766
462.873
496.76
533.06
571.45
611.661
653.482
696.751
741.341
787.149
834.081
882.043
930.928
980.612
1031
1082.12
1133.89
1186.21
1238.95
1292.02
1345.29
1398.64
1451.95
1505.09
1557.91
1610.28
1662.04
1713.05
1763.14
1812.12
1859.78
1905.91
1950.24
1992.43
2032.11
2068.78
2101.21
2128.93
2152.01
2168.24
2175.6
2112.31
1999.37
1879.34
1754.51
1626.76
1497.69
1368.68
1241.03
1115.98
994.781
878.634
768.592
666.457
574.527
495.053
429.891
379.946
344.628
321.743
308.116
300.576
296.657
294.72
293.791
293.357
293.159
293.069
293.03
293.013
293.005
293.002
293.001
293
293
293
293
293
293
293.004
293.017
293.039
293.077
293.139
293.243
293.414
293.693
294.145
294.864
295.993
297.734
300.365
304.251
309.839
317.643
328.192
341.96
359.297
380.364
405.119
433.348
464.719
498.853
535.38
573.971
614.356
656.323
699.708
744.382
790.243
837.193
885.137
933.968
983.561
1033.83
1084.79
1136.38
1188.47
1240.97
1293.76
1346.73
1399.75
1452.72
1505.49
1557.95
1609.94
1661.33
1711.97
1761.69
1810.31
1857.65
1903.47
1947.51
1989.45
2028.93
2065.44
2097.86
2125.65
2148.85
2165.22
2172.97
2132.15
2020.04
1900.95
1777.05
1650.14
1521.73
1393.17
1265.68
1140.46
1018.72
901.663
790.29
686.25
591.831
509.39
440.992
387.862
349.769
324.776
309.753
301.396
297.046
294.897
293.87
293.391
293.173
293.075
293.032
293.014
293.006
293.002
293.001
293
293
293
293
293
293
293.004
293.017
293.039
293.077
293.139
293.242
293.412
293.691
294.141
294.859
295.988
297.733
300.376
304.289
309.929
317.82
328.501
342.457
360.035
381.391
406.469
435.034
466.737
501.181
537.985
576.814
617.396
659.517
703.014
747.761
793.654
840.598