/*--------------------------------*- C++ -*----------------------------------*\
  =========                 |
  \\      /  F ield         | OpenFOAM: The Open Source CFD Toolbox
   \\    /   O peration     | Website:  https://openfoam.org
    \\  /    A nd           | Version:  8
     \\/     M anipulation  |
\*---------------------------------------------------------------------------*/
FoamFile
{
    version     2.0;
    format      ascii;
    class       volVectorField;
    location    "760/fluid";
    object      U;
}
// * * * * * * * * * * * * * * * * * * * * * * * * * * * * * * * * * * * * * //

dimensions      [0 1 -1 0 0 0 0];

internalField   nonuniform List<vector> 
4000
(
(0.0999455 -0.00705867 0)
(0.099649 -0.021004 0)
(0.0991704 -0.0348345 0)
(0.0985094 -0.0485889 0)
(0.0976579 -0.0622852 0)
(0.0965981 -0.0759254 0)
(0.0953094 -0.0894984 0)
(0.0937725 -0.102984 0)
(0.0919718 -0.116356 0)
(0.0898989 -0.129585 0)
(0.0875555 -0.142643 0)
(0.0849573 -0.155512 0)
(0.0821384 -0.16818 0)
(0.0791576 -0.180636 0)
(0.0760936 -0.192923 0)
(0.073019 -0.205112 0)
(0.0699846 -0.217264 0)
(0.067008 -0.22942 0)
(0.0640653 -0.241591 0)
(0.0610924 -0.253751 0)
(0.0579974 -0.265836 0)
(0.0546792 -0.277756 0)
(0.0510481 -0.289402 0)
(0.0470473 -0.300646 0)
(0.0426513 -0.311394 0)
(0.0378526 -0.321581 0)
(0.0326572 -0.331145 0)
(0.0270824 -0.340028 0)
(0.0211543 -0.348183 0)
(0.0149039 -0.355577 0)
(0.00836508 -0.362186 0)
(0.00157314 -0.367996 0)
(-0.00543491 -0.373006 0)
(-0.0126228 -0.377221 0)
(-0.0199576 -0.380654 0)
(-0.0274095 -0.383324 0)
(-0.0349511 -0.385257 0)
(-0.0425565 -0.386483 0)
(-0.050201 -0.387037 0)
(-0.0578613 -0.386959 0)
(-0.0655154 -0.386289 0)
(-0.0731424 -0.385071 0)
(-0.0807224 -0.383352 0)
(-0.0882363 -0.381178 0)
(-0.0956654 -0.378598 0)
(-0.102992 -0.37566 0)
(-0.110197 -0.372415 0)
(-0.117264 -0.368915 0)
(-0.124174 -0.365209 0)
(-0.130908 -0.361351 0)
(-0.137449 -0.357396 0)
(-0.143775 -0.353398 0)
(-0.149867 -0.349415 0)
(-0.1557 -0.345511 0)
(-0.161251 -0.341751 0)
(-0.166491 -0.338209 0)
(-0.171379 -0.334968 0)
(-0.175864 -0.332114 0)
(-0.179919 -0.329748 0)
(-0.183583 -0.328025 0)
(-0.18692 -0.327222 0)
(-0.18931 -0.327696 0)
(-0.188656 -0.329282 0)
(-0.183789 -0.330245 0)
(-0.176767 -0.329488 0)
(-0.169313 -0.32714 0)
(-0.161627 -0.32349 0)
(-0.153646 -0.318683 0)
(-0.14539 -0.312779 0)
(-0.13693 -0.305814 0)
(-0.128346 -0.297819 0)
(-0.119721 -0.288826 0)
(-0.111145 -0.278878 0)
(-0.10271 -0.26802 0)
(-0.0945648 -0.256312 0)
(-0.086952 -0.243864 0)
(-0.0801999 -0.230877 0)
(-0.0746777 -0.217628 0)
(-0.0707614 -0.204683 0)
(-0.0687463 -0.192551 0)
(-0.0686658 -0.181474 0)
(-0.0702203 -0.171364 0)
(-0.0728951 -0.161911 0)
(-0.076153 -0.152784 0)
(-0.0795665 -0.143739 0)
(-0.0828548 -0.134633 0)
(-0.0858461 -0.125369 0)
(-0.0884731 -0.115992 0)
(-0.0907341 -0.10655 0)
(-0.0926538 -0.0970755 0)
(-0.0942659 -0.0876004 0)
(-0.0956058 -0.0781514 0)
(-0.0967074 -0.0687497 0)
(-0.0976025 -0.0594092 0)
(-0.0983196 -0.0501369 0)
(-0.0988841 -0.0409324 0)
(-0.0993177 -0.031789 0)
(-0.0996377 -0.022693 0)
(-0.0998558 -0.0136234 0)
(-0.0999821 -0.00455152 0)
(0.0999999 -0.00662053 0)
(0.0997939 -0.0198033 0)
(0.099368 -0.0329 0)
(0.0986981 -0.045893 0)
(0.0977859 -0.0587638 0)
(0.0966269 -0.0714891 0)
(0.0952117 -0.0840409 0)
(0.0935326 -0.0963875 0)
(0.0915873 -0.108496 0)
(0.0893832 -0.120338 0)
(0.0869398 -0.131893 0)
(0.0842916 -0.143159 0)
(0.081489 -0.154166 0)
(0.0785992 -0.164998 0)
(0.0756949 -0.175717 0)
(0.0728428 -0.18638 0)
(0.0700891 -0.197063 0)
(0.0674459 -0.207832 0)
(0.0648823 -0.218727 0)
(0.0623255 -0.229746 0)
(0.0596716 -0.240843 0)
(0.0568056 -0.251938 0)
(0.0536215 -0.262936 0)
(0.0500372 -0.273756 0)
(0.0460047 -0.284282 0)
(0.0415055 -0.29438 0)
(0.0365423 -0.303948 0)
(0.0311348 -0.312908 0)
(0.0253142 -0.321204 0)
(0.0191183 -0.328793 0)
(0.012588 -0.33565 0)
(0.00576429 -0.341759 0)
(-0.00131221 -0.347115 0)
(-0.00860231 -0.351723 0)
(-0.0160689 -0.355595 0)
(-0.0236774 -0.35875 0)
(-0.0313968 -0.361211 0)
(-0.0391983 -0.363006 0)
(-0.0470554 -0.364167 0)
(-0.0549429 -0.364728 0)
(-0.0628377 -0.364728 0)
(-0.0707179 -0.364206 0)
(-0.0785628 -0.363205 0)
(-0.0863528 -0.361768 0)
(-0.0940693 -0.35994 0)
(-0.101694 -0.357767 0)
(-0.10921 -0.355296 0)
(-0.1166 -0.352574 0)
(-0.123846 -0.34965 0)
(-0.130932 -0.346573 0)
(-0.137841 -0.343392 0)
(-0.144556 -0.340159 0)
(-0.151059 -0.336926 0)
(-0.157333 -0.333746 0)
(-0.163359 -0.330674 0)
(-0.169117 -0.327766 0)
(-0.174572 -0.325079 0)
(-0.179684 -0.322667 0)
(-0.184453 -0.320579 0)
(-0.188981 -0.318871 0)
(-0.193373 -0.317593 0)
(-0.19666 -0.316734 0)
(-0.196207 -0.315791 0)
(-0.190892 -0.314167 0)
(-0.183357 -0.311659 0)
(-0.175524 -0.308162 0)
(-0.16755 -0.303629 0)
(-0.159304 -0.298037 0)
(-0.150774 -0.291369 0)
(-0.142009 -0.283619 0)
(-0.13307 -0.274786 0)
(-0.124021 -0.264886 0)
(-0.114925 -0.253959 0)
(-0.105857 -0.242086 0)
(-0.096964 -0.229421 0)
(-0.0885265 -0.216246 0)
(-0.0809381 -0.203016 0)
(-0.0746612 -0.190363 0)
(-0.0701525 -0.178705 0)
(-0.0677025 -0.168312 0)
(-0.0672828 -0.159193 0)
(-0.0685351 -0.151076 0)
(-0.0709284 -0.143553 0)
(-0.0739464 -0.136259 0)
(-0.0771919 -0.128962 0)
(-0.0804065 -0.121554 0)
(-0.0834484 -0.114028 0)
(-0.0862323 -0.106299 0)
(-0.0887231 -0.0983406 0)
(-0.0909151 -0.0901839 0)
(-0.0928163 -0.0818687 0)
(-0.094443 -0.0734333 0)
(-0.0958155 -0.0649109 0)
(-0.0969558 -0.056329 0)
(-0.0978862 -0.0477088 0)
(-0.0986275 -0.039065 0)
(-0.0991973 -0.0304068 0)
(-0.0996076 -0.0217378 0)
(-0.0998663 -0.0130563 0)
(-0.0999951 -0.00435768 0)
(0.0999787 -0.00634154 0)
(0.0997144 -0.0189564 0)
(0.0991967 -0.0314827 0)
(0.0984066 -0.0439001 0)
(0.0973483 -0.0561865 0)
(0.0960225 -0.068318 0)
(0.0944288 -0.0802695 0)
(0.0925701 -0.0920161 0)
(0.0904569 -0.103534 0)
(0.0881092 -0.114806 0)
(0.0855594 -0.12582 0)
(0.0828535 -0.136578 0)
(0.0800502 -0.147094 0)
(0.0772141 -0.157402 0)
(0.0744108 -0.167556 0)
(0.0717022 -0.17763 0)
(0.0691332 -0.187703 0)
(0.0667163 -0.197846 0)
(0.0644212 -0.208104 0)
(0.0621748 -0.218483 0)
(0.0598724 -0.228946 0)
(0.0573958 -0.239424 0)
(0.0546321 -0.249822 0)
(0.0514856 -0.260038 0)
(0.0478863 -0.269973 0)
(0.0437966 -0.279533 0)
(0.0392084 -0.288638 0)
(0.0341353 -0.297219 0)
(0.0286052 -0.305218 0)
(0.0226542 -0.312593 0)
(0.0163227 -0.319313 0)
(0.00965225 -0.325357 0)
(0.00268414 -0.330715 0)
(-0.0045411 -0.335386 0)
(-0.0119851 -0.339377 0)
(-0.0196123 -0.342701 0)
(-0.0273899 -0.345377 0)
(-0.0352878 -0.347428 0)
(-0.0432783 -0.348882 0)
(-0.0513355 -0.349771 0)
(-0.0594352 -0.350126 0)
(-0.0675549 -0.349986 0)
(-0.0756733 -0.349387 0)
(-0.0837708 -0.34837 0)
(-0.0918289 -0.346976 0)
(-0.0998297 -0.345247 0)
(-0.107756 -0.343225 0)
(-0.115593 -0.340955 0)
(-0.123324 -0.338479 0)
(-0.130935 -0.335843 0)
(-0.138414 -0.333091 0)
(-0.145745 -0.330267 0)
(-0.152918 -0.327415 0)
(-0.15992 -0.324578 0)
(-0.16674 -0.321799 0)
(-0.173363 -0.319115 0)
(-0.179759 -0.316564 0)
(-0.18589 -0.31417 0)
(-0.191772 -0.311952 0)
(-0.197518 -0.309928 0)
(-0.203114 -0.308101 0)
(-0.207014 -0.306409 0)
(-0.206265 -0.30421 0)
(-0.200328 -0.30123 0)
(-0.192288 -0.297559 0)
(-0.183896 -0.29312 0)
(-0.175293 -0.287812 0)
(-0.166378 -0.281574 0)
(-0.157147 -0.274378 0)
(-0.147647 -0.266218 0)
(-0.13793 -0.257114 0)
(-0.128056 -0.247117 0)
(-0.118085 -0.236313 0)
(-0.108103 -0.224836 0)
(-0.0983059 -0.212892 0)
(-0.089035 -0.200767 0)
(-0.0807545 -0.188829 0)
(-0.0739929 -0.177483 0)
(-0.0692133 -0.167097 0)
(-0.0666354 -0.157875 0)
(-0.0661333 -0.149763 0)
(-0.0672873 -0.142475 0)
(-0.0695563 -0.135638 0)
(-0.0724417 -0.128935 0)
(-0.0755686 -0.122162 0)
(-0.0786969 -0.115215 0)
(-0.0816966 -0.108063 0)
(-0.0845018 -0.100716 0)
(-0.087075 -0.0931936 0)
(-0.089398 -0.0855157 0)
(-0.0914658 -0.0777031 0)
(-0.093282 -0.0697765 0)
(-0.0948548 -0.0617558 0)
(-0.096195 -0.0536592 0)
(-0.0973152 -0.0455022 0)
(-0.0982279 -0.0372979 0)
(-0.0989442 -0.0290563 0)
(-0.0994709 -0.0207849 0)
(-0.0998118 -0.0124883 0)
(-0.0999872 -0.00416902 0)
(0.0999835 -0.0059874 0)
(0.0997149 -0.0178978 0)
(0.0991797 -0.0297151 0)
(0.0983587 -0.0414124 0)
(0.0972603 -0.0529628 0)
(0.0958915 -0.0643391 0)
(0.0942577 -0.0755142 0)
(0.0923673 -0.0864628 0)
(0.0902353 -0.0971626 0)
(0.0878846 -0.107597 0)
(0.0853482 -0.117758 0)
(0.0826705 -0.127652 0)
(0.0799081 -0.137301 0)
(0.077127 -0.146749 0)
(0.0743977 -0.156057 0)
(0.0717852 -0.165302 0)
(0.0693346 -0.174568 0)
(0.0670573 -0.183927 0)
(0.0649217 -0.193428 0)
(0.062853 -0.203084 0)
(0.0607439 -0.212864 0)
(0.0584725 -0.222707 0)
(0.0559222 -0.232527 0)
(0.0529961 -0.242227 0)
(0.0496254 -0.251708 0)
(0.04577 -0.260879 0)
(0.0414161 -0.269657 0)
(0.0365701 -0.277973 0)
(0.0312531 -0.285771 0)
(0.0254952 -0.293006 0)
(0.0193318 -0.299648 0)
(0.0128007 -0.305675 0)
(0.00594011 -0.311074 0)
(-0.00121211 -0.315842 0)
(-0.00861916 -0.319983 0)
(-0.0162464 -0.323506 0)
(-0.0240618 -0.326427 0)
(-0.0320359 -0.328766 0)
(-0.0401416 -0.330547 0)
(-0.0483534 -0.331795 0)
(-0.0566474 -0.33254 0)
(-0.0650015 -0.332815 0)
(-0.073395 -0.332652 0)
(-0.0818086 -0.332087 0)
(-0.0902243 -0.331157 0)
(-0.0986248 -0.329897 0)
(-0.106994 -0.328346 0)
(-0.115317 -0.326543 0)
(-0.12358 -0.324523 0)
(-0.131769 -0.322327 0)
(-0.139873 -0.319989 0)
(-0.147879 -0.317546 0)
(-0.155776 -0.315031 0)
(-0.163553 -0.312477 0)
(-0.171197 -0.309911 0)
(-0.178691 -0.307356 0)
(-0.185994 -0.30483 0)
(-0.193059 -0.302337 0)
(-0.199908 -0.299878 0)
(-0.206664 -0.297453 0)
(-0.213144 -0.295056 0)
(-0.217154 -0.292627 0)
(-0.215666 -0.289433 0)
(-0.209009 -0.285429 0)
(-0.200521 -0.280812 0)
(-0.191597 -0.275539 0)
(-0.182323 -0.269517 0)
(-0.172648 -0.262686 0)
(-0.162607 -0.255022 0)
(-0.152264 -0.246529 0)
(-0.141694 -0.237236 0)
(-0.130973 -0.227208 0)
(-0.120186 -0.216542 0)
(-0.10946 -0.205384 0)
(-0.0990503 -0.193944 0)
(-0.0893511 -0.182505 0)
(-0.0808487 -0.171418 0)
(-0.0740421 -0.161056 0)
(-0.0693208 -0.151727 0)
(-0.0668198 -0.143565 0)
(-0.0663484 -0.136458 0)
(-0.0674641 -0.130102 0)
(-0.0696397 -0.124144 0)
(-0.0724072 -0.118292 0)
(-0.075419 -0.112361 0)
(-0.0784497 -0.106254 0)
(-0.0813695 -0.0999325 0)
(-0.0841108 -0.0933883 0)
(-0.0866414 -0.086632 0)
(-0.0889474 -0.0796825 0)
(-0.0910244 -0.0725618 0)
(-0.0928729 -0.0652922 0)
(-0.0944963 -0.0578948 0)
(-0.0958994 -0.0503893 0)
(-0.0970882 -0.0427932 0)
(-0.098069 -0.035122 0)
(-0.0988466 -0.0273897 0)
(-0.0994224 -0.019608 0)
(-0.0997959 -0.0117871 0)
(-0.0999874 -0.00393578 0)
(0.0999806 -0.00563246 0)
(0.0996968 -0.0168354 0)
(0.0991363 -0.0279481 0)
(0.0982811 -0.0389435 0)
(0.0971421 -0.0497947 0)
(0.0957288 -0.0604754 0)
(0.0940498 -0.0709602 0)
(0.0921169 -0.0812262 0)
(0.0899485 -0.0912538 0)
(0.0875708 -0.101029 0)
(0.08502 -0.110547 0)
(0.0823437 -0.119813 0)
(0.0796006 -0.128849 0)
(0.0768586 -0.137693 0)
(0.074189 -0.1464 0)
(0.0716562 -0.155042 0)
(0.0693048 -0.163695 0)
(0.067146 -0.172429 0)
(0.0651479 -0.18129 0)
(0.0632356 -0.190294 0)
(0.0613008 -0.19942 0)
(0.0592197 -0.208616 0)
(0.056872 -0.217807 0)
(0.0541564 -0.226905 0)
(0.0509991 -0.235823 0)
(0.0473552 -0.244477 0)
(0.0432062 -0.25279 0)
(0.0385541 -0.260699 0)
(0.033416 -0.26815 0)
(0.0278185 -0.2751 0)
(0.0217939 -0.281518 0)
(0.015377 -0.287381 0)
(0.00860348 -0.292676 0)
(0.00150882 -0.297397 0)
(-0.00587185 -0.301545 0)
(-0.0135055 -0.305127 0)
(-0.0213619 -0.308154 0)
(-0.0294129 -0.310644 0)
(-0.0376324 -0.312614 0)
(-0.045996 -0.314089 0)
(-0.0544808 -0.315093 0)
(-0.0630658 -0.315653 0)
(-0.071731 -0.315799 0)
(-0.0804577 -0.31556 0)
(-0.0892279 -0.314968 0)
(-0.0980252 -0.314055 0)
(-0.106834 -0.312853 0)
(-0.11564 -0.311393 0)
(-0.124428 -0.309708 0)
(-0.133186 -0.307828 0)
(-0.1419 -0.305783 0)
(-0.150557 -0.3036 0)
(-0.159142 -0.301305 0)
(-0.16764 -0.29892 0)
(-0.176034 -0.296463 0)
(-0.184297 -0.293947 0)
(-0.192372 -0.291376 0)
(-0.2002 -0.288746 0)
(-0.207814 -0.286049 0)
(-0.215336 -0.283281 0)
(-0.222396 -0.280426 0)
(-0.22615 -0.277441 0)
(-0.223719 -0.273579 0)
(-0.216382 -0.268961 0)
(-0.207511 -0.263781 0)
(-0.198102 -0.258009 0)
(-0.188198 -0.251577 0)
(-0.177806 -0.244447 0)
(-0.167007 -0.236614 0)
(-0.155894 -0.228095 0)
(-0.144562 -0.218937 0)
(-0.13311 -0.209213 0)
(-0.121643 -0.199031 0)
(-0.110326 -0.188539 0)
(-0.0994539 -0.17794 0)
(-0.0894507 -0.167497 0)
(-0.0808052 -0.157514 0)
(-0.0739909 -0.148292 0)
(-0.0693417 -0.140052 0)
(-0.0669227 -0.132846 0)
(-0.0664878 -0.126522 0)
(-0.0675744 -0.120793 0)
(-0.069668 -0.115355 0)
(-0.0723276 -0.10997 0)
(-0.0752321 -0.104491 0)
(-0.0781745 -0.0988413 0)
(-0.0810331 -0.0929924 0)
(-0.0837408 -0.0869401 0)
(-0.0862621 -0.0806931 0)
(-0.0885785 -0.0742659 0)
(-0.0906813 -0.0676753 0)
(-0.0925672 -0.0609387 0)
(-0.0942357 -0.0540732 0)
(-0.0956882 -0.0470956 0)
(-0.0969271 -0.0400214 0)
(-0.0979555 -0.0328653 0)
(-0.0987753 -0.0256413 0)
(-0.0993849 -0.0183623 0)
(-0.0997819 -0.0110403 0)
(-0.0999861 -0.00368662 0)
(0.0999812 -0.00526261 0)
(0.0996949 -0.0157304 0)
(0.0991284 -0.0261119 0)
(0.0982639 -0.0363795 0)
(0.0971141 -0.0465062 0)
(0.0956903 -0.0564659 0)
(0.0940032 -0.0662342 0)
(0.0920664 -0.0757892 0)
(0.0898999 -0.0851126 0)
(0.0875312 -0.0941921 0)
(0.0849974 -0.103023 0)
(0.0823461 -0.111613 0)
(0.0796358 -0.119984 0)
(0.0769341 -0.128172 0)
(0.0743116 -0.136233 0)
(0.0718329 -0.144237 0)
(0.0695429 -0.152257 0)
(0.0674538 -0.16036 0)
(0.0655356 -0.168595 0)
(0.0637149 -0.176977 0)
(0.0618847 -0.18549 0)
(0.0599212 -0.194085 0)
(0.0577032 -0.202694 0)
(0.0551269 -0.211237 0)
(0.0521154 -0.219632 0)
(0.0486199 -0.2278 0)
(0.0446178 -0.235671 0)
(0.040107 -0.243184 0)
(0.0351005 -0.250289 0)
(0.0296215 -0.256944 0)
(0.0236988 -0.263119 0)
(0.0173645 -0.268792 0)
(0.0106512 -0.273948 0)
(0.00359137 -0.278581 0)
(-0.00378031 -0.282689 0)
(-0.0114327 -0.286277 0)
(-0.0193389 -0.289355 0)
(-0.0274716 -0.291936 0)
(-0.0358058 -0.294035 0)
(-0.0443185 -0.295672 0)
(-0.0529877 -0.296867 0)
(-0.0617934 -0.297646 0)
(-0.0707161 -0.29803 0)
(-0.0797374 -0.298048 0)
(-0.0888401 -0.297723 0)
(-0.0980078 -0.297085 0)
(-0.107225 -0.296158 0)
(-0.116475 -0.294971 0)
(-0.125745 -0.293549 0)
(-0.135018 -0.291916 0)
(-0.144278 -0.290097 0)
(-0.153509 -0.288112 0)
(-0.162692 -0.285981 0)
(-0.171806 -0.283719 0)
(-0.180824 -0.281338 0)
(-0.189707 -0.278844 0)
(-0.198384 -0.276236 0)
(-0.206783 -0.273505 0)
(-0.214943 -0.27064 0)
(-0.222978 -0.267628 0)
(-0.230349 -0.264437 0)
(-0.233674 -0.261048 0)
(-0.230319 -0.256822 0)
(-0.222372 -0.251909 0)
(-0.213097 -0.246425 0)
(-0.203204 -0.240372 0)
(-0.192713 -0.233725 0)
(-0.181682 -0.226477 0)
(-0.170225 -0.218639 0)
(-0.158458 -0.210242 0)
(-0.146498 -0.201337 0)
(-0.134461 -0.192002 0)
(-0.122471 -0.18234 0)
(-0.110728 -0.172492 0)
(-0.0995634 -0.162646 0)
(-0.0894179 -0.153037 0)
(-0.0807776 -0.143932 0)
(-0.0740856 -0.135589 0)
(-0.0696189 -0.128183 0)
(-0.0673746 -0.121733 0)
(-0.0670545 -0.116077 0)
(-0.0681775 -0.110942 0)
(-0.0702392 -0.106053 0)
(-0.0728217 -0.101196 0)
(-0.0756274 -0.0962411 0)
(-0.0784669 -0.09112 0)
(-0.0812301 -0.0858054 0)
(-0.0838561 -0.0802927 0)
(-0.0863121 -0.0745888 0)
(-0.0885803 -0.0687063 0)
(-0.090651 -0.0626602 0)
(-0.0925187 -0.0564661 0)
(-0.0941806 -0.0501402 0)
(-0.0956352 -0.0436982 0)
(-0.0968821 -0.0371552 0)
(-0.0979217 -0.0305261 0)
(-0.0987536 -0.0238251 0)
(-0.0993737 -0.0170662 0)
(-0.0997781 -0.0102625 0)
(-0.0999861 -0.003427 0)
(0.0999807 -0.00489189 0)
(0.0996921 -0.0146224 0)
(0.0991216 -0.0242724 0)
(0.098252 -0.0338152 0)
(0.0970967 -0.0432251 0)
(0.095668 -0.0524776 0)
(0.0939774 -0.06155 0)
(0.0920398 -0.0704218 0)
(0.0898763 -0.0790766 0)
(0.0875152 -0.0875035 0)
(0.0849943 -0.0956988 0)
(0.082362 -0.10367 0)
(0.0796772 -0.111436 0)
(0.0770074 -0.119033 0)
(0.0744235 -0.126511 0)
(0.0719901 -0.133935 0)
(0.0697524 -0.141373 0)
(0.0677232 -0.148889 0)
(0.065873 -0.156526 0)
(0.0641294 -0.164304 0)
(0.0623857 -0.172209 0)
(0.0605179 -0.180199 0)
(0.0584034 -0.188214 0)
(0.0559364 -0.196181 0)
(0.0530374 -0.204025 0)
(0.0496547 -0.211674 0)
(0.0457625 -0.219064 0)
(0.0413556 -0.226137 0)
(0.0364442 -0.232846 0)
(0.0310485 -0.239153 0)
(0.025195 -0.245028 0)
(0.0189131 -0.25045 0)
(0.0122335 -0.255403 0)
(0.00518736 -0.25988 0)
(-0.00219435 -0.263878 0)
(-0.00988205 -0.2674 0)
(-0.0178486 -0.270454 0)
(-0.0260688 -0.273049 0)
(-0.0345192 -0.275199 0)
(-0.0431777 -0.27692 0)
(-0.0520234 -0.278229 0)
(-0.0610364 -0.279145 0)
(-0.0701978 -0.27969 0)
(-0.0794896 -0.279884 0)
(-0.0888947 -0.27975 0)
(-0.0983963 -0.27931 0)
(-0.107978 -0.278586 0)
(-0.117622 -0.2776 0)
(-0.127313 -0.276374 0)
(-0.137033 -0.274926 0)
(-0.146763 -0.273277 0)
(-0.156482 -0.271442 0)
(-0.166165 -0.269436 0)
(-0.175786 -0.267271 0)
(-0.18531 -0.264955 0)
(-0.194684 -0.262492 0)
(-0.20382 -0.25988 0)
(-0.212643 -0.257107 0)
(-0.22118 -0.254165 0)
(-0.229506 -0.251029 0)
(-0.236956 -0.247651 0)
(-0.239883 -0.244011 0)
(-0.235774 -0.239615 0)
(-0.22717 -0.234596 0)
(-0.21736 -0.229009 0)
(-0.206967 -0.222881 0)
(-0.195968 -0.216223 0)
(-0.184421 -0.20905 0)
(-0.172448 -0.201386 0)
(-0.16018 -0.193269 0)
(-0.147747 -0.184757 0)
(-0.135276 -0.175924 0)
(-0.122913 -0.166872 0)
(-0.110885 -0.157731 0)
(-0.099547 -0.148673 0)
(-0.0893516 -0.139912 0)
(-0.0807759 -0.131681 0)
(-0.0742313 -0.124194 0)
(-0.0699432 -0.117578 0)
(-0.0678528 -0.111817 0)
(-0.0676244 -0.106737 0)
(-0.0687693 -0.102088 0)
(-0.0707973 -0.0976262 0)
(-0.0733121 -0.0931742 0)
(-0.0760358 -0.0886232 0)
(-0.0787924 -0.0839175 0)
(-0.0814795 -0.0790349 0)
(-0.0840398 -0.0739714 0)
(-0.0864416 -0.0687327 0)
(-0.0886667 -0.0633292 0)
(-0.0907046 -0.0577732 0)
(-0.0925486 -0.0520782 0)
(-0.0941944 -0.0462579 0)
(-0.0956392 -0.0403264 0)
(-0.096881 -0.0342973 0)
(-0.0979187 -0.0281845 0)
(-0.0987507 -0.0220014 0)
(-0.0993719 -0.0157617 0)
(-0.0997773 -0.00947864 0)
(-0.099986 -0.0031652 0)
(0.0999809 -0.00451963 0)
(0.0996928 -0.0135102 0)
(0.0991232 -0.0224262 0)
(0.0982551 -0.0312425 0)
(0.0971021 -0.0399348 0)
(0.0956774 -0.0484802 0)
(0.0939928 -0.0568574 0)
(0.0920638 -0.0650475 0)
(0.0899119 -0.0730355 0)
(0.0875659 -0.0808112 0)
(0.0850636 -0.0883718 0)
(0.0824533 -0.0957241 0)
(0.0797937 -0.102887 0)
(0.0771521 -0.109893 0)
(0.0745991 -0.11679 0)
(0.0721991 -0.123638 0)
(0.069998 -0.130501 0)
(0.0680094 -0.137438 0)
(0.0662051 -0.144492 0)
(0.0645137 -0.151682 0)
(0.0628296 -0.158996 0)
(0.0610286 -0.166397 0)
(0.0589874 -0.173831 0)
(0.0565987 -0.181231 0)
(0.0537807 -0.188529 0)
(0.0504793 -0.195659 0)
(0.0466658 -0.202561 0)
(0.0423327 -0.209181 0)
(0.0374875 -0.215477 0)
(0.0321481 -0.221412 0)
(0.0263387 -0.226958 0)
(0.0200869 -0.232094 0)
(0.0134214 -0.236805 0)
(0.0063716 -0.241083 0)
(-0.00103317 -0.244926 0)
(-0.00876477 -0.248333 0)
(-0.0167971 -0.25131 0)
(-0.0251061 -0.253866 0)
(-0.0336694 -0.25601 0)
(-0.0424656 -0.257757 0)
(-0.0514743 -0.25912 0)
(-0.0606761 -0.260115 0)
(-0.0700523 -0.26076 0)
(-0.0795852 -0.261073 0)
(-0.0892568 -0.261071 0)
(-0.0990498 -0.260774 0)
(-0.108946 -0.2602 0)
(-0.118928 -0.259365 0)
(-0.128977 -0.258288 0)
(-0.139072 -0.256985 0)
(-0.149192 -0.255469 0)
(-0.159311 -0.253755 0)
(-0.169401 -0.251854 0)
(-0.17943 -0.249774 0)
(-0.189354 -0.247522 0)
(-0.199111 -0.245099 0)
(-0.208599 -0.242503 0)
(-0.217735 -0.239728 0)
(-0.226526 -0.236766 0)
(-0.234995 -0.233605 0)
(-0.242328 -0.230209 0)
(-0.244797 -0.22648 0)
(-0.24002 -0.222007 0)
(-0.230852 -0.216975 0)
(-0.220562 -0.211437 0)
(-0.209724 -0.205414 0)
(-0.198295 -0.198923 0)
(-0.186325 -0.191988 0)
(-0.173942 -0.18464 0)
(-0.161283 -0.176921 0)
(-0.148489 -0.168889 0)
(-0.135697 -0.160618 0)
(-0.123066 -0.152201 0)
(-0.110848 -0.143759 0)
(-0.0994211 -0.13545 0)
(-0.0892428 -0.127465 0)
(-0.0807794 -0.120009 0)
(-0.0744129 -0.113264 0)
(-0.0703223 -0.107326 0)
(-0.0683999 -0.102157 0)
(-0.0682782 -0.0975874 0)
(-0.0694617 -0.0933849 0)
(-0.0714723 -0.0893346 0)
(-0.0739328 -0.0852813 0)
(-0.0765827 -0.0811316 0)
(-0.079259 -0.0768379 0)
(-0.0818673 -0.0723812 0)
(-0.0843549 -0.0677581 0)
(-0.0866922 -0.0629732 0)
(-0.0888619 -0.0580356 0)
(-0.0908532 -0.0529562 0)
(-0.092659 -0.0477467 0)
(-0.0942742 -0.0424195 0)
(-0.0956949 -0.0369874 0)
(-0.0969183 -0.0314629 0)
(-0.0979423 -0.0258588 0)
(-0.0987643 -0.0201881 0)
(-0.0993786 -0.0144636 0)
(-0.0997797 -0.00869821 0)
(-0.0999862 -0.00290453 0)
(0.0999809 -0.00414886 0)
(0.0996938 -0.0124022 0)
(0.0991263 -0.0205873 0)
(0.0982615 -0.028681 0)
(0.0971132 -0.0366607 0)
(0.0956946 -0.0445054 0)
(0.0940181 -0.0521953 0)
(0.0920992 -0.0597135 0)
(0.0899596 -0.0670459 0)
(0.0876283 -0.0741837 0)
(0.085143 -0.0811242 0)
(0.0825521 -0.0878737 0)
(0.0799139 -0.0944497 0)
(0.0772957 -0.100883 0)
(0.0747679 -0.107216 0)
(0.0723951 -0.113504 0)
(0.0702233 -0.119807 0)
(0.0682669 -0.126178 0)
(0.0664986 -0.13266 0)
(0.0648479 -0.139269 0)
(0.0632095 -0.145996 0)
(0.0614594 -0.15281 0)
(0.0594734 -0.15966 0)
(0.0571429 -0.166488 0)
(0.0543843 -0.17323 0)
(0.0511415 -0.179827 0)
(0.0473838 -0.186223 0)
(0.0431015 -0.19237 0)
(0.0383003 -0.198228 0)
(0.0329961 -0.203762 0)
(0.0272114 -0.208947 0)
(0.0209722 -0.213762 0)
(0.0143058 -0.218193 0)
(0.00724013 -0.222232 0)
(-0.000196761 -0.225875 0)
(-0.0079778 -0.229121 0)
(-0.0160779 -0.231975 0)
(-0.0244738 -0.234442 0)
(-0.0331439 -0.236532 0)
(-0.0420671 -0.238254 0)
(-0.0512235 -0.23962 0)
(-0.0605938 -0.240645 0)
(-0.0701595 -0.241341 0)
(-0.0799022 -0.241724 0)
(-0.0898035 -0.24181 0)
(-0.0998449 -0.241612 0)
(-0.110007 -0.241146 0)
(-0.120271 -0.240427 0)
(-0.130615 -0.239468 0)
(-0.141017 -0.238283 0)
(-0.151451 -0.236882 0)
(-0.161888 -0.235277 0)
(-0.172297 -0.233476 0)
(-0.182638 -0.231486 0)
(-0.192864 -0.229312 0)
(-0.202902 -0.226955 0)
(-0.212645 -0.224413 0)
(-0.222013 -0.221683 0)
(-0.231019 -0.21877 0)
(-0.239653 -0.215683 0)
(-0.246799 -0.212418 0)
(-0.248675 -0.208706 0)
(-0.243205 -0.204252 0)
(-0.233592 -0.199301 0)
(-0.222933 -0.193922 0)
(-0.211736 -0.188124 0)
(-0.199953 -0.18192 0)
(-0.187641 -0.175334 0)
(-0.174932 -0.168401 0)
(-0.161972 -0.161164 0)
(-0.148905 -0.153679 0)
(-0.135876 -0.146015 0)
(-0.123057 -0.138259 0)
(-0.11072 -0.130523 0)
(-0.0992577 -0.122952 0)
(-0.0891325 -0.115716 0)
(-0.080799 -0.108996 0)
(-0.0746111 -0.102945 0)
(-0.0707063 -0.0976323 0)
(-0.0689358 -0.0930041 0)
(-0.0689077 -0.0888954 0)
(-0.0701241 -0.085095 0)
(-0.0721195 -0.0814146 0)
(-0.0745336 -0.0777212 0)
(-0.0771205 -0.0739362 0)
(-0.0797278 -0.0700197 0)
(-0.0822677 -0.0659558 0)
(-0.0846908 -0.0617421 0)
(-0.0869692 -0.0573825 0)
(-0.0890863 -0.0528848 0)
(-0.0910316 -0.0482583 0)
(-0.0927976 -0.0435134 0)
(-0.0943791 -0.038661 0)
(-0.0957715 -0.0337122 0)
(-0.0969718 -0.0286786 0)
(-0.0979773 -0.0235715 0)
(-0.098785 -0.0184029 0)
(-0.0993889 -0.0131848 0)
(-0.0997834 -0.0079291 0)
(-0.0999865 -0.00264762 0)
(0.099981 -0.00377976 0)
(0.0996955 -0.0112992 0)
(0.0991311 -0.0187568 0)
(0.0982709 -0.0261313 0)
(0.0971288 -0.0334021 0)
(0.0957182 -0.0405499 0)
(0.0940512 -0.047557 0)
(0.0921438 -0.0544076 0)
(0.0900173 -0.0610893 0)
(0.0877008 -0.0675937 0)
(0.085232 -0.0739189 0)
(0.0826588 -0.0800704 0)
(0.0800395 -0.0860644 0)
(0.0774409 -0.0919284 0)
(0.0749333 -0.0977022 0)
(0.0725814 -0.103436 0)
(0.0704315 -0.109183 0)
(0.0684987 -0.114996 0)
(0.0667565 -0.12091 0)
(0.0651352 -0.126944 0)
(0.06353 -0.133089 0)
(0.0618168 -0.139319 0)
(0.0598708 -0.145587 0)
(0.0575824 -0.15184 0)
(0.0548663 -0.158022 0)
(0.0516648 -0.164078 0)
(0.0479456 -0.169958 0)
(0.0436973 -0.175618 0)
(0.0389238 -0.181019 0)
(0.0336397 -0.186132 0)
(0.0278662 -0.190932 0)
(0.0216277 -0.1954 0)
(0.0149507 -0.199522 0)
(0.00786181 -0.20329 0)
(0.000388187 -0.206699 0)
(-0.00744395 -0.209749 0)
(-0.0156102 -0.212442 0)
(-0.0240879 -0.214783 0)
(-0.0328559 -0.216779 0)
(-0.0418934 -0.218437 0)
(-0.0511807 -0.219768 0)
(-0.0606986 -0.220783 0)
(-0.0704282 -0.221494 0)
(-0.0803506 -0.221912 0)
(-0.0904466 -0.222051 0)
(-0.100697 -0.221921 0)
(-0.111081 -0.221537 0)
(-0.121577 -0.22091 0)
(-0.132162 -0.220051 0)
(-0.142812 -0.218971 0)
(-0.153497 -0.21768 0)
(-0.164187 -0.216186 0)
(-0.174845 -0.214495 0)
(-0.185429 -0.212615 0)
(-0.195887 -0.210549 0)
(-0.206139 -0.2083 0)
(-0.216077 -0.205867 0)
(-0.225633 -0.20325 0)
(-0.234849 -0.200459 0)
(-0.24366 -0.197512 0)
(-0.250499 -0.19442 0)
(-0.251583 -0.190763 0)
(-0.245414 -0.186426 0)
(-0.235504 -0.181658 0)
(-0.224608 -0.176529 0)
(-0.213149 -0.171042 0)
(-0.201095 -0.165206 0)
(-0.188518 -0.159047 0)
(-0.175558 -0.152595 0)
(-0.162366 -0.145893 0)
(-0.149093 -0.138994 0)
(-0.135888 -0.131961 0)
(-0.122936 -0.124874 0)
(-0.110527 -0.117836 0)
(-0.0990672 -0.110978 0)
(-0.0890174 -0.104452 0)
(-0.080822 -0.0984183 0)
(-0.0748096 -0.093005 0)
(-0.071081 -0.0882621 0)
(-0.0694525 -0.0841273 0)
(-0.0695124 -0.0804439 0)
(-0.0707621 -0.0770215 0)
(-0.0727473 -0.073695 0)
(-0.0751222 -0.07035 0)
(-0.0776542 -0.0669195 0)
(-0.0801999 -0.06337 0)
(-0.0826771 -0.059688 0)
(-0.0850399 -0.0558717 0)
(-0.087262 -0.0519247 0)
(-0.0893276 -0.0478537 0)
(-0.0912266 -0.0436668 0)
(-0.0929518 -0.0393733 0)
(-0.0944977 -0.0349827 0)
(-0.0958596 -0.0305049 0)
(-0.0970342 -0.0259502 0)
(-0.0980187 -0.0213291 0)
(-0.0988097 -0.0166521 0)
(-0.0994014 -0.0119303 0)
(-0.0997878 -0.00717448 0)
(-0.0999867 -0.00239556 0)
(0.0999811 -0.00341285 0)
(0.0996972 -0.0102026 0)
(0.099136 -0.0169369 0)
(0.0982806 -0.0235963 0)
(0.0971449 -0.0301626 0)
(0.0957422 -0.0366182 0)
(0.0940846 -0.042947 0)
(0.092188 -0.0491351 0)
(0.0900738 -0.0551711 0)
(0.0877707 -0.0610477 0)
(0.0853164 -0.0667629 0)
(0.0827584 -0.072322 0)
(0.0801549 -0.0777393 0)
(0.0775724 -0.08304 0)
(0.075081 -0.0882598 0)
(0.0727455 -0.0934437 0)
(0.0706126 -0.0986412 0)
(0.0686978 -0.103898 0)
(0.0669754 -0.109249 0)
(0.0653762 -0.11471 0)
(0.0637957 -0.120275 0)
(0.0621098 -0.125919 0)
(0.0601931 -0.131602 0)
(0.0579351 -0.137277 0)
(0.0552492 -0.142892 0)
(0.0520764 -0.148398 0)
(0.048383 -0.15375 0)
(0.0441562 -0.158908 0)
(0.0393988 -0.163837 0)
(0.0341241 -0.168509 0)
(0.0283522 -0.172903 0)
(0.0221068 -0.177 0)
(0.0154131 -0.180787 0)
(0.00829711 -0.184257 0)
(0.000785246 -0.187405 0)
(-0.00709692 -0.190229 0)
(-0.0153254 -0.192732 0)
(-0.0238781 -0.194915 0)
(-0.0327339 -0.196785 0)
(-0.0418725 -0.198349 0)
(-0.0512741 -0.199614 0)
(-0.0609192 -0.20059 0)
(-0.0707886 -0.201286 0)
(-0.0808628 -0.201712 0)
(-0.0911221 -0.201878 0)
(-0.101546 -0.201796 0)
(-0.112112 -0.201474 0)
(-0.122799 -0.200924 0)
(-0.13358 -0.200154 0)
(-0.144429 -0.199173 0)
(-0.155316 -0.19799 0)
(-0.166206 -0.196611 0)
(-0.177061 -0.195042 0)
(-0.187835 -0.19329 0)
(-0.198474 -0.191357 0)
(-0.208892 -0.189245 0)
(-0.218981 -0.186957 0)
(-0.228685 -0.184491 0)
(-0.238066 -0.181858 0)
(-0.246987 -0.179072 0)
(-0.253424 -0.176161 0)
(-0.253702 -0.172657 0)
(-0.246947 -0.168546 0)
(-0.236834 -0.164063 0)
(-0.225781 -0.159269 0)
(-0.21413 -0.154166 0)
(-0.20187 -0.148763 0)
(-0.189089 -0.143085 0)
(-0.175936 -0.137162 0)
(-0.162568 -0.131034 0)
(-0.14914 -0.124748 0)
(-0.135806 -0.118363 0)
(-0.122761 -0.111951 0)
(-0.110312 -0.105606 0)
(-0.0988736 -0.0994448 0)
(-0.0889079 -0.0936045 0)
(-0.0808481 -0.088224 0)
(-0.0749992 -0.0834118 0)
(-0.0714301 -0.0792014 0)
(-0.0699278 -0.0755268 0)
(-0.0700652 -0.0722419 0)
(-0.0713441 -0.0691769 0)
(-0.0733209 -0.0661881 0)
(-0.0756627 -0.0631776 0)
(-0.0781475 -0.0600887 0)
(-0.0806399 -0.0568933 0)
(-0.0830624 -0.0535805 0)
(-0.0853718 -0.0501486 0)
(-0.0875433 -0.046601 0)
(-0.0895621 -0.0429436 0)
(-0.0914183 -0.0391835 0)
(-0.0931049 -0.0353287 0)
(-0.0946165 -0.0313875 0)
(-0.0959486 -0.0273688 0)
(-0.0970977 -0.0232815 0)
(-0.098061 -0.0191349 0)
(-0.0988351 -0.0149386 0)
(-0.0994141 -0.0107023 0)
(-0.0997924 -0.00643583 0)
(-0.099987 -0.00214884 0)
(0.0999813 -0.00304802 0)
(0.0996989 -0.00911219 0)
(0.0991407 -0.015127 0)
(0.0982899 -0.0210754 0)
(0.0971603 -0.0269409 0)
(0.095765 -0.0327079 0)
(0.0941162 -0.0383622 0)
(0.0922295 -0.0438912 0)
(0.0901263 -0.049285 0)
(0.0878351 -0.0545369 0)
(0.0853933 -0.0596452 0)
(0.0828484 -0.0646147 0)
(0.080258 -0.0694582 0)
(0.0776886 -0.0741979 0)
(0.0752101 -0.078866 0)
(0.0728873 -0.0835027 0)
(0.0707673 -0.0881521 0)
(0.0688659 -0.0928558 0)
(0.0671579 -0.0976448 0)
(0.0655749 -0.102534 0)
(0.0640124 -0.107518 0)
(0.0623464 -0.112576 0)
(0.0604508 -0.117672 0)
(0.0582143 -0.122764 0)
(0.0555495 -0.127806 0)
(0.0523961 -0.132755 0)
(0.0487194 -0.137569 0)
(0.0445054 -0.142213 0)
(0.039756 -0.146656 0)
(0.0344836 -0.150872 0)
(0.0287074 -0.154842 0)
(0.0224503 -0.158549 0)
(0.015737 -0.161982 0)
(0.00859278 -0.165133 0)
(0.00104355 -0.167996 0)
(-0.00688554 -0.170571 0)
(-0.0151709 -0.172858 0)
(-0.0237906 -0.17486 0)
(-0.0327237 -0.17658 0)
(-0.0419501 -0.178025 0)
(-0.0514497 -0.1792 0)
(-0.0612028 -0.180114 0)
(-0.07119 -0.180774 0)
(-0.0813911 -0.181188 0)
(-0.0917856 -0.181365 0)
(-0.102352 -0.181313 0)
(-0.113068 -0.181041 0)
(-0.123908 -0.180558 0)
(-0.134847 -0.17987 0)
(-0.145856 -0.178986 0)
(-0.156903 -0.177912 0)
(-0.167951 -0.176654 0)
(-0.178959 -0.175217 0)
(-0.189881 -0.173606 0)
(-0.200657 -0.171825 0)
(-0.211201 -0.169874 0)
(-0.221402 -0.167756 0)
(-0.231215 -0.16547 0)
(-0.240717 -0.163025 0)
(-0.249702 -0.160432 0)
(-0.255727 -0.157745 0)
(-0.255273 -0.154476 0)
(-0.248026 -0.150677 0)
(-0.237762 -0.146551 0)
(-0.226592 -0.142153 0)
(-0.214795 -0.137487 0)
(-0.202375 -0.132565 0)
(-0.189439 -0.127409 0)
(-0.17614 -0.122049 0)
(-0.162639 -0.116519 0)
(-0.149094 -0.110863 0)
(-0.135665 -0.105135 0)
(-0.122556 -0.0993984 0)
(-0.110088 -0.0937374 0)
(-0.0986837 -0.088257 0)
(-0.0888043 -0.0830782 0)
(-0.0808726 -0.0783217 0)
(-0.075173 -0.0740781 0)
(-0.0717467 -0.0703691 0)
(-0.0703559 -0.0671283 0)
(-0.0705614 -0.0642223 0)
(-0.0718666 -0.0615013 0)
(-0.0738368 -0.058841 0)
(-0.0761506 -0.0561581 0)
(-0.0785951 -0.0534045 0)
(-0.0810414 -0.0505567 0)
(-0.0834161 -0.0476057 0)
(-0.0856784 -0.0445505 0)
(-0.0878049 -0.0413938 0)
(-0.0897813 -0.038141 0)
(-0.0915985 -0.034798 0)
(-0.0932497 -0.031372 0)
(-0.0947295 -0.0278702 0)
(-0.0960336 -0.0243002 0)
(-0.0971586 -0.02067 0)