/*--------------------------------*- C++ -*----------------------------------*\
  =========                 |
  \\      /  F ield         | OpenFOAM: The Open Source CFD Toolbox
   \\    /   O peration     | Website:  https://openfoam.org
    \\  /    A nd           | Version:  8
     \\/     M anipulation  |
\*---------------------------------------------------------------------------*/
FoamFile
{
    version     2.0;
    format      ascii;
    class       volScalarField;
    location    "560/fluid";
    object      CH4;
}
// * * * * * * * * * * * * * * * * * * * * * * * * * * * * * * * * * * * * * //

dimensions      [0 0 0 0 0 0 0];

internalField   nonuniform List<scalar> 
4000
(
0.999997
0.999986
0.999969
0.999939
0.99989
0.999809
0.999674
0.999454
0.999099
0.998532
0.997637
0.996251
0.994144
0.991011
0.986473
0.980089
0.971398
0.959968
0.945468
0.927711
0.906677
0.882508
0.855472
0.825924
0.794271
0.760939
0.726355
0.690928
0.655038
0.619034
0.583229
0.547894
0.513259
0.479518
0.446823
0.415298
0.385035
0.356102
0.328538
0.302363
0.277578
0.25417
0.232114
0.211374
0.191908
0.173668
0.156604
0.14066
0.125782
0.111915
0.0990041
0.0869971
0.0758434
0.0654953
0.0559089
0.0470442
0.0388662
0.0314304
0.0247137
0.0184257
0.0127564
0.00771291
0.00338106
0.00236899
0.00163946
0.00111852
0.000750789
0.000494755
0.000319355
0.000201485
0.000124114
7.48468e-05
4.48463e-05
2.8109e-05
2.0338e-05
1.55952e-05
1.15742e-05
8.14534e-06
5.3787e-06
3.3073e-06
1.88973e-06
1.0081e-06
5.06758e-07
2.43965e-07
1.1397e-07
5.19803e-08
2.3248e-08
1.023e-08
4.44048e-09
1.90526e-09
8.09477e-10
3.41038e-10
1.42637e-10
5.92572e-11
2.44413e-11
9.97926e-12
3.99625e-12
1.52808e-12
5.10902e-13
8.9614e-14
0.999997
0.999986
0.999969
0.999939
0.999889
0.999807
0.999672
0.99945
0.999092
0.99852
0.997622
0.996233
0.994129
0.991012
0.986511
0.980196
0.971616
0.960348
0.946056
0.928543
0.907773
0.883867
0.857073
0.827731
0.796237
0.763013
0.728484
0.693061
0.657133
0.621055
0.585144
0.54968
0.5149
0.481003
0.448148
0.416461
0.38604
0.356952
0.329242
0.302929
0.278017
0.254492
0.232329
0.211493
0.191939
0.173624
0.156493
0.140491
0.125564
0.111655
0.098709
0.0866726
0.075495
0.0651278
0.0555267
0.0466514
0.0384667
0.0310423
0.024334
0.018061
0.0124102
0.0073992
0.00328014
0.00230109
0.00159273
0.00108583
0.000727737
0.000478499
0.000307984
0.000193666
0.000118889
7.15249e-05
4.29354e-05
2.72891e-05
2.00663e-05
1.53041e-05
1.12359e-05
7.81308e-06
5.09739e-06
3.10209e-06
1.76123e-06
9.38749e-07
4.74123e-07
2.29906e-07
1.08341e-07
4.98632e-08
2.24934e-08
9.97272e-09
4.35559e-09
1.87767e-09
8.00396e-10
3.37897e-10
1.41456e-10
5.8771e-11
2.42273e-11
9.88257e-12
3.95322e-12
1.51005e-12
5.04453e-13
8.84672e-14
0.999997
0.999986
0.999968
0.999939
0.999889
0.999806
0.999669
0.999446
0.999086
0.998512
0.997612
0.996222
0.994119
0.99101
0.986532
0.980264
0.971763
0.960611
0.946479
0.929165
0.908625
0.884967
0.858422
0.829316
0.798029
0.764975
0.730569
0.695222
0.659321
0.623224
0.587254
0.551695
0.516791
0.482748
0.44973
0.417869
0.387268
0.358
0.330111
0.303625
0.278547
0.254867
0.232556
0.211584
0.191912
0.173488
0.15626
0.140173
0.125172
0.111198
0.0981975
0.0861154
0.0749
0.0645026
0.054878
0.0459852
0.0377885
0.0303628
0.0236555
0.0173775
0.0117351
0.00673525
0.00319723
0.00223415
0.00154009
0.00104541
0.000697421
0.000456307
0.000292172
0.000182751
0.000111659
6.70253e-05
4.04631e-05
2.63604e-05
1.97039e-05
1.49213e-05
1.08368e-05
7.45258e-06
4.81312e-06
2.9061e-06
1.64247e-06
8.74579e-07
4.42614e-07
2.15344e-07
1.0192e-07
4.7136e-08
2.13703e-08
9.52128e-09
4.17735e-09
1.80809e-09
7.73346e-10
3.27358e-10
1.37316e-10
5.71259e-11
2.35661e-11
9.61512e-12
3.84582e-12
1.46858e-12
4.90394e-13
8.59786e-14
0.999997
0.999986
0.999968
0.999938
0.999888
0.999805
0.999668
0.999445
0.999085
0.998512
0.997614
0.996231
0.994142
0.991058
0.986619
0.980411
0.971994
0.960955
0.946963
0.929815
0.909459
0.885992
0.859639
0.830713
0.799587
0.766667
0.732364
0.697084
0.661213
0.625109
0.589097
0.553465
0.518461
0.484293
0.451133
0.419116
0.388349
0.358911
0.330851
0.304197
0.278954
0.255111
0.232653
0.211548
0.19175
0.173212
0.155882
0.139704
0.124623
0.11058
0.0975214
0.0853908
0.0741362
0.0637081
0.0540607
0.0451525
0.0369475
0.0295329
0.0228451
0.0165939
0.0109771
0.00599844
0.00315189
0.00218598
0.00149591
0.00100816
0.000667815
0.000433871
0.000275888
0.000171436
0.000104184
6.2432e-05
3.80234e-05
2.55416e-05
1.9281e-05
1.44659e-05
1.03832e-05
7.05447e-06
4.50345e-06
2.69249e-06
1.51119e-06
8.01765e-07
4.05536e-07
1.97627e-07
9.38015e-08
4.35348e-08
1.9814e-08
8.86317e-09
3.90399e-09
1.69616e-09
7.2801e-10
3.09133e-10
1.30024e-10
5.42162e-11
2.24073e-11
9.15559e-12
3.66593e-12
1.40087e-12
4.67932e-13
8.2053e-14
0.999997
0.999986
0.999968
0.999938
0.999888
0.999805
0.999669
0.999446
0.999087
0.998516
0.997621
0.996245
0.994168
0.991104
0.986698
0.980538
0.972191
0.961244
0.947367
0.930354
0.910146
0.886836
0.860637
0.831856
0.800859
0.768046
0.733824
0.698595
0.662746
0.626634
0.590584
0.554888
0.519795
0.48552
0.452234
0.42008
0.389167
0.359578
0.331363
0.304551
0.279155
0.255175
0.232586
0.211354
0.19144
0.172796
0.15537
0.139108
0.123953
0.109848
0.0967369
0.0845638
0.073276
0.0628235
0.0531597
0.0442422
0.0360384
0.028665
0.0220015
0.0157573
0.0101487
0.00522398
0.00310363
0.0021352
0.00144899
0.000968487
0.000636391
0.000410264
0.000258961
0.000159842
9.66398e-05
5.78642e-05
3.56634e-05
2.48135e-05
1.87681e-05
1.39401e-05
9.89785e-06
6.65399e-06
4.20727e-06
2.49636e-06
1.39429e-06
7.38232e-07
3.73511e-07
1.82352e-07
8.67727e-08
4.03878e-08
1.8435e-08
8.26924e-09
3.65174e-09
1.59024e-09
6.83943e-10
2.90934e-10
1.22552e-10
5.11635e-11
2.11665e-11
8.65513e-12
3.4674e-12
1.32541e-12
4.4275e-13
7.76366e-14
0.999997
0.999986
0.999968
0.999939
0.999889
0.999806
0.99967
0.999448
0.99909
0.998522
0.997633
0.996266
0.994203
0.991161
0.986787
0.980673
0.972387
0.961519
0.947736
0.93083
0.910739
0.887547
0.861463
0.832789
0.801885
0.769147
0.734979
0.699782
0.663939
0.62781
0.591721
0.555963
0.52079
0.486418
0.453022
0.420747
0.389706
0.35998
0.331627
0.304685
0.279167
0.255063
0.232356
0.211014
0.190998
0.172262
0.154755
0.138421
0.123204
0.109047
0.0958943
0.0836893
0.0723791
0.0619134
0.0522454
0.0433325
0.035147
0.0278057
0.0211284
0.0148948
0.00931709
0.00447056
0.00304016
0.00205844
0.00138055
0.000914337
0.00059632
0.000381966
0.000239744
0.000147281
8.87802e-05
5.32356e-05
3.32609e-05
2.37535e-05
1.80256e-05
1.33149e-05
9.38845e-06
6.26435e-06
3.93213e-06
2.31877e-06
1.28947e-06
6.81084e-07
3.44342e-07
1.68242e-07
8.01727e-08
3.73837e-08
1.70982e-08
7.68572e-09
3.40115e-09
1.48409e-09
6.39493e-10
2.72493e-10
1.14959e-10
4.80565e-11
1.99028e-11
8.14543e-12
3.26523e-12
1.24859e-12
4.1712e-13
7.31418e-14
0.999997
0.999986
0.999969
0.999939
0.999889
0.999807
0.999671
0.99945
0.999095
0.99853
0.997646
0.996286
0.994236
0.991213
0.986868
0.980793
0.972559
0.961756
0.948051
0.931231
0.911231
0.888131
0.862134
0.833539
0.802701
0.770013
0.735877
0.700693
0.664845
0.62869
0.592557
0.556739
0.52149
0.487029
0.453534
0.421151
0.389993
0.360151
0.331689
0.304638
0.279009
0.254799
0.231992
0.210558
0.190458
0.171646
0.154071
0.137679
0.122414
0.108218
0.0950346
0.0828086
0.0714866
0.0610183
0.0513574
0.042462
0.0342946
0.0270489
0.0202416
0.0140807
0.00856645
0.0037916
0.00265
0.00182457
0.00123699
0.000824871
0.000540192
0.000346807
0.00021793
0.000133997
8.09445e-05
4.8875e-05
3.11451e-05
2.27843e-05
1.73333e-05
1.27613e-05
8.95566e-06
5.94206e-06
3.70842e-06
2.1759e-06
1.20557e-06
6.35369e-07
3.20917e-07
1.56827e-07
7.47808e-08
3.49001e-08
1.59784e-08
7.19001e-09
3.18524e-09
1.39137e-09
6.00157e-10
2.55979e-10
1.08088e-10
4.52197e-11
1.87404e-11
7.67371e-12
3.07723e-12
1.17689e-12
3.9314e-13
6.89308e-14
0.999997
0.999986
0.999969
0.999939
0.99989
0.999807
0.999673
0.999453
0.999099
0.998537
0.997658
0.996306
0.994268
0.991263
0.986942
0.980902
0.972711
0.961962
0.948318
0.931566
0.911637
0.888605
0.862673
0.834132
0.803338
0.77068
0.736559
0.701375
0.66551
0.629324
0.593144
0.557266
0.521946
0.487403
0.453818
0.421338
0.390087
0.360152
0.331592
0.304443
0.278721
0.254423
0.231534
0.210024
0.189855
0.170982
0.153354
0.136918
0.121616
0.107392
0.0941883
0.0819498
0.0706232
0.0601579
0.0505075
0.0416301
0.0335103
0.0262998
0.0195333
0.013448
0.00805084
0.00345761
0.00241478
0.00166441
0.00113033
0.000755036
0.000495186
0.000318293
0.000200232
0.000123313
7.47655e-05
4.55892e-05
2.97522e-05
2.22051e-05
1.69053e-05
1.23998e-05
8.65776e-06
5.71167e-06
3.5435e-06
2.06789e-06
1.14077e-06
5.99333e-07
3.02088e-07
1.47499e-07
7.03066e-08
3.28109e-08
1.50251e-08
6.76363e-09
2.99788e-09
1.3103e-09
5.65548e-10
2.41374e-10
1.01985e-10
4.26915e-11
1.77016e-11
7.25124e-12
2.90856e-12
1.11248e-12
3.71579e-13
6.51424e-14
0.999997
0.999986
0.999969
0.999939
0.99989
0.999808
0.999674
0.999455
0.999103
0.998544
0.99767
0.996325
0.994297
0.991307
0.987007
0.980995
0.972841
0.962135
0.948541
0.931842
0.911966
0.888985
0.863098
0.834594
0.803827
0.771184
0.737066
0.701871
0.665983
0.62976
0.593533
0.557597
0.522209
0.487591
0.453927
0.42137
0.390037
0.360017
0.331374
0.304144
0.278344
0.253974
0.231017
0.209446
0.189223
0.170303
0.152635
0.136165
0.120838
0.106594
0.0933788
0.0811349
0.0698093
0.0593513
0.0497143
0.0408566
0.0328062
0.0256311
0.0189034
0.0128696
0.00753897
0.00327367
0.0022838
0.0015725
0.00106698
0.000712217
0.000466855
0.000299981
0.000188722
0.000116343
7.08014e-05
4.36392e-05
2.91893e-05
2.20547e-05
1.67613e-05
1.2241e-05
8.49592e-06
5.56691e-06
3.43107e-06
1.99036e-06
1.09261e-06
5.71879e-07
2.87456e-07
1.40136e-07
6.67264e-08
3.11186e-08
1.42442e-08
6.41086e-09
2.84145e-09
1.24207e-09
5.36213e-10
2.28918e-10
9.67533e-11
4.05146e-11
1.6804e-11
6.88519e-12
2.7621e-12
1.05646e-12
3.52811e-13
6.18392e-14
0.999997
0.999986
0.999969
0.99994
0.99989
0.999809
0.999675
0.999458
0.999107
0.998551
0.99768
0.996341
0.994322
0.991345
0.987063
0.981074
0.972949
0.962278
0.948723
0.932065
0.912229
0.889285
0.863429
0.834948
0.804195
0.771556
0.737432
0.702219
0.666303
0.630042
0.593768
0.557776
0.522326
0.487645
0.453915
0.421286
0.38988
0.359788
0.331074
0.303777
0.277914
0.253485
0.230475
0.208855
0.18859
0.169634
0.151937
0.135444
0.120099
0.105844
0.0926226
0.0803785
0.0690578
0.0586097
0.048987
0.0401478
0.0321282
0.0249861
0.0182851
0.0122719
0.00695092
0.00320259
0.00222763
0.00153019
0.00103626
0.000690625
0.000452133
0.000290263
0.000182548
0.000112626
6.87723e-05
4.27844e-05
2.91729e-05
2.22075e-05
1.6819e-05
1.22199e-05
8.4339e-06
5.48902e-06
3.3592e-06
1.93637e-06
1.05735e-06
5.51101e-07
2.76113e-07
1.34333e-07
6.38657e-08
2.97507e-08
1.36069e-08
6.12058e-09
2.71184e-09
1.1852e-09
5.11645e-10
2.18445e-10
9.23398e-11
3.86734e-11
1.60433e-11
6.57441e-12
2.6376e-12
1.0088e-12
3.36839e-13
5.90227e-14
0.999997
0.999987
0.999969
0.99994
0.999891
0.99981
0.999677
0.99946
0.999111
0.998556
0.997689
0.996355
0.994344
0.991377
0.98711
0.98114
0.973039
0.962395
0.948869
0.932242
0.912435
0.889517
0.863681
0.835214
0.804466
0.771823
0.737686
0.702452
0.666506
0.630207
0.593887
0.557844
0.522343
0.487604
0.453812
0.421121
0.389653
0.359501
0.330729
0.303376
0.277461
0.252985
0.229932
0.208276
0.187979
0.168996
0.151277
0.134768
0.119413
0.105153
0.0919304
0.07969
0.0683771
0.0579407
0.0483333
0.0395123
0.0315217
0.0244082
0.0177343
0.0117456
0.006447
0.00317214
0.00220321
0.0015115
0.00102252
0.000680899
0.000445501
0.000285928
0.000179864
0.00011111
6.80859e-05
4.27297e-05
2.96944e-05
2.26678e-05
1.70803e-05
1.233e-05
8.44947e-06
5.46136e-06
3.31843e-06
1.90059e-06
1.03223e-06
5.35687e-07
2.67475e-07
1.29832e-07
6.16161e-08
2.86632e-08
1.30957e-08
5.88603e-09
2.60647e-09
1.13874e-09
4.91482e-10
2.09818e-10
8.86931e-11
3.71482e-11
1.54118e-11
6.31606e-12
2.53401e-12
9.69109e-13
3.23536e-13
5.66794e-14
0.999997
0.999987
0.999969
0.99994
0.999891
0.99981
0.999678
0.999461
0.999114
0.998561
0.997696
0.996367
0.994362
0.991404
0.987148
0.981194
0.973111
0.962488
0.948986
0.932381
0.912595
0.889694
0.86387
0.835409
0.804659
0.772008
0.737855
0.702597
0.66662
0.630285
0.593924
0.557838
0.522287
0.487496
0.453652
0.420908
0.389387
0.359184
0.330364
0.302966
0.27701
0.252496
0.229411
0.207726
0.187405
0.168403
0.15067
0.134151
0.118789
0.104528
0.0913084
0.0790744
0.0677714
0.0573481
0.0477569
0.0389575
0.0309975
0.023903
0.017245
0.0112779
0.00600427
0.00314785
0.00218749
0.00150136
0.00101608
0.000676917
0.000443132
0.000284596
0.000179205
0.000110907
6.82359e-05
4.32211e-05
3.05734e-05
2.33191e-05
1.74654e-05
1.25236e-05
8.52141e-06
5.46772e-06
3.3006e-06
1.87845e-06
1.01493e-06
5.24527e-07
2.61031e-07
1.26412e-07
5.9883e-08
2.78166e-08
1.26943e-08
5.70058e-09
2.52266e-09
1.10158e-09
4.75288e-10
2.02862e-10
8.5743e-11
3.59111e-11
1.48986e-11
6.10588e-12
2.44971e-12
9.36857e-13
3.12766e-13
5.47869e-14
0.999997
0.999987
0.999969
0.99994
0.999891
0.999811
0.999678
0.999463
0.999116
0.998565
0.997703
0.996376
0.994376
0.991425
0.987179
0.981237
0.973168
0.962562
0.949076
0.932488
0.912716
0.889826
0.864008
0.835548
0.804793
0.77213
0.737959
0.702678
0.666672
0.630303
0.593906
0.557779
0.522185
0.487349
0.45346
0.420671
0.389107
0.358862
0.330002
0.302568
0.276579
0.252036
0.228925
0.207218
0.18688
0.167864
0.150122
0.133597
0.118234
0.103974
0.0907596
0.0785334
0.067241
0.0568311
0.0472582
0.0384764
0.0305364
0.0234611
0.0168251
0.01088
0.00563637
0.00312736
0.00217626
0.00149565
0.00101356
0.000676114
0.000443202
0.00028507
0.000179833
0.000111579
6.89306e-05
4.39749e-05
3.14266e-05
2.39722e-05
1.78757e-05
1.27488e-05
8.6226e-06
5.49795e-06
3.29859e-06
1.8677e-06
1.00428e-06
5.16985e-07
2.56472e-07
1.23929e-07
5.86016e-08
2.71814e-08
1.23897e-08
5.55844e-09
2.4579e-09
1.07268e-09
4.62619e-10
1.97395e-10
8.34155e-11
3.4932e-11
1.44914e-11
5.93878e-12
2.38261e-12
9.11169e-13
3.04187e-13
5.32798e-14
0.999997
0.999987
0.999969
0.99994
0.999892
0.999811
0.999679
0.999464
0.999118
0.998568
0.997708
0.996384
0.994388
0.991443
0.987204
0.981271
0.973213
0.962619
0.949146
0.932569
0.912807
0.889923
0.864107
0.835644
0.804882
0.772206
0.738017
0.702713
0.666681
0.630283
0.593852
0.557689
0.522057
0.487184
0.453257
0.42043
0.38883
0.358551
0.32966
0.302197
0.276182
0.251616
0.228485
0.206763
0.186412
0.167388
0.14964
0.133113
0.11775
0.103494
0.0902851
0.0780678
0.0667876
0.0563931
0.0468335
0.0380629
0.0301469
0.0230899
0.0164715
0.0105436
0.00533586
0.0031105
0.00216864
0.00149325
0.00101385
0.000677643
0.00044512
0.000286941
0.000181471
0.000112948
7.00805e-05
4.50034e-05
3.24114e-05
2.46994e-05
1.83414e-05
1.30167e-05
8.75613e-06
5.55154e-06
3.3124e-06
1.86623e-06
9.99605e-07
5.12738e-07
2.53574e-07
1.2227e-07
5.77154e-08
2.67309e-08
1.21694e-08
5.45407e-09
2.40977e-09
1.05099e-09
4.53034e-10
1.93231e-10
8.16333e-11
3.4179e-11
1.41771e-11
5.80942e-12
2.33055e-12
8.91215e-13
2.97513e-13
5.21108e-14
0.999997
0.999987
0.999969
0.99994
0.999892
0.999812
0.99968
0.999465
0.99912
0.998571
0.997712
0.99639
0.994397
0.991456
0.987223
0.981297
0.973248
0.962662
0.949198
0.932629
0.912873
0.889992
0.864176
0.835709
0.804938
0.77225
0.738044
0.70272
0.666664
0.630239
0.593779
0.557586
0.521923
0.487017
0.453059
0.420202
0.388573
0.358267
0.32935
0.301864
0.275829
0.251246
0.2281
0.206367
0.186007
0.166977
0.149226
0.132699
0.117338
0.103086
0.0898854
0.0776789
0.0664107
0.0560256
0.0464755
0.037719
0.0298239
0.0227831
0.0161808
0.0102695
0.00509402
0.00309696
0.00216418
0.00149366
0.00101656
0.000681135
0.000448577
0.000289974
0.000183958
0.000114914
7.16326e-05
4.6287e-05
3.35308e-05
2.5511e-05
1.8869e-05
1.33298e-05
8.92212e-06
5.62759e-06
3.34093e-06
1.87366e-06
9.99569e-07
5.11157e-07
2.52121e-07
1.21335e-07
5.71729e-08
2.64393e-08
1.20212e-08
5.38192e-09
2.3758e-09
1.03543e-09
4.46074e-10
1.90178e-10
8.0316e-11
3.36189e-11
1.39421e-11
5.71237e-12
2.29139e-12
8.76198e-13
2.92486e-13
5.12304e-14
0.999997
0.999987
0.999969
0.99994
0.999892
0.999812
0.99968
0.999466
0.999121
0.998573
0.997715
0.996395
0.994405
0.991467
0.987238
0.981317
0.973274
0.962695
0.949237
0.932673
0.91292
0.890041
0.864223
0.83575
0.804971
0.772271
0.73805
0.702709
0.666632
0.630185
0.593701
0.557482
0.521794
0.486863
0.452879
0.419998
0.388346
0.358018
0.329081
0.301578
0.275527
0.250931
0.227776
0.206034
0.185668
0.166635
0.148882
0.132356
0.117
0.102754
0.0895612
0.0773609
0.0660981
0.0557224
0.0461846
0.037441
0.0295598
0.0225315
0.015939
0.010034
0.00487422
0.00308643
0.00216257
0.00149659
0.00102139
0.000686352
0.000453386
0.000294035
0.000187199
0.000117415
7.35458e-05
4.77967e-05
3.47686e-05
2.63984e-05
1.94512e-05
1.36824e-05
9.11593e-06
5.72263e-06
3.38182e-06
1.88871e-06
1.00394e-06
5.11772e-07
2.51789e-07
1.20921e-07
5.68843e-08
2.62693e-08
1.19294e-08
5.33525e-09
2.35315e-09
1.02483e-09
4.4125e-10
1.88034e-10
7.93823e-11
3.3219e-11
1.37735e-11
5.64244e-12
2.26317e-12
8.65366e-13
2.88855e-13
5.05948e-14
0.999997
0.999987
0.999969
0.99994
0.999892
0.999812
0.999681
0.999466
0.999122
0.998574
0.997717
0.996399
0.99441
0.991475
0.987249
0.981332
0.973293
0.962718
0.949264
0.932704
0.912953
0.890074
0.864254
0.835776
0.804989
0.772279
0.738046
0.70269
0.666597
0.630131
0.593628
0.55739
0.521681
0.48673
0.452727
0.419827
0.388156
0.357812
0.328861
0.301344
0.275283
0.250677
0.227514
0.205766
0.185397
0.166363
0.148611
0.132087
0.116735
0.102492
0.089302
0.0771077
0.0658535
0.0554869
0.045959
0.0372256
0.0293582
0.0223402
0.0157569
0.00986018
0.00471808
0.00307857
0.00216344
0.00150171
0.00102807
0.000693069
0.000459373
0.000298992
0.000191099
0.000120381
7.5772e-05
4.94985e-05
3.60968e-05
2.73393e-05
2.00699e-05
1.40606e-05
9.32798e-06
5.8304e-06
3.43114e-06
1.90898e-06
1.01134e-06
5.14064e-07
2.52284e-07
1.20922e-07
5.67919e-08
2.61911e-08
1.18808e-08
5.30856e-09
2.3395e-09
1.0182e-09
4.38155e-10
1.86633e-10
7.87637e-11
3.2952e-11
1.36606e-11
5.59562e-12
2.24421e-12
8.58066e-13
2.86402e-13
5.01653e-14
0.999997
0.999987
0.999969
0.999941
0.999892
0.999812
0.999681
0.999467
0.999122
0.998575
0.997719
0.996401
0.994414
0.99148
0.987257
0.981342
0.973306
0.962735
0.949284
0.932725
0.912975
0.890095
0.864273
0.835791
0.804998
0.77228
0.738037
0.70267
0.666564
0.630085
0.593568
0.557315
0.521591
0.486625
0.452608
0.419694
0.388011
0.357655
0.328693
0.301168
0.275098
0.250486
0.227318
0.205567
0.185197
0.166161
0.14841
0.131887
0.116535
0.102296
0.0891114
0.076923
0.0656756
0.0553165
0.0457965
0.0370712
0.0292147
0.0222046
0.0156279
0.00973628
0.00460463
0.0030731
0.00216647
0.00150868
0.00103627
0.000700982
0.000466277
0.000304629
0.000195488
0.000123683
7.82079e-05
5.13009e-05
3.74469e-05
2.8281e-05
2.06858e-05
1.44371e-05
9.54059e-06
5.94032e-06
3.48299e-06
1.93131e-06
1.02013e-06
5.17207e-07
2.53276e-07
1.21193e-07
5.68364e-08
2.61797e-08
1.18635e-08
5.29644e-09
2.33261e-09
1.01466e-09
4.36446e-10
1.85843e-10
7.841e-11
3.27971e-11
1.35941e-11
5.56763e-12
2.23275e-12
8.53614e-13
2.84901e-13
4.99009e-14
0.999997
0.999987
0.999969
0.999941
0.999892
0.999812
0.999681
0.999467
0.999123
0.998576
0.99772
0.996403
0.994416
0.991484
0.987262
0.981349
0.973314
0.962745
0.949295
0.932738
0.912989
0.890108
0.864284
0.835799
0.805002
0.772279
0.738029
0.702654
0.66654
0.630052
0.593525
0.557262
0.521529
0.486554
0.452527
0.419604
0.387913
0.35755
0.328582
0.30105
0.274976
0.25036
0.227189
0.205436
0.185064
0.166028
0.148276
0.131754
0.116405
0.102169
0.0889881
0.0768043
0.0655619
0.0552083
0.0456941
0.0369746
0.0291256
0.0221208
0.015548
0.00965825
0.00453065
0.00306971
0.00217113
0.00151683
0.00104526
0.000709404
0.000473488
0.000310442
0.000199968
0.000127018
8.06304e-05
5.3039e-05
3.86882e-05
2.9123e-05
2.12264e-05
1.47635e-05
9.72376e-06
6.03513e-06
3.52812e-06
1.95108e-06
1.02811e-06
5.20183e-07
2.54344e-07
1.21557e-07
5.69485e-08
2.62083e-08
1.18676e-08
5.29493e-09
2.33073e-09
1.0134e-09
4.3575e-10
1.85493e-10
7.82437e-11
3.27213e-11
1.35605e-11
5.55319e-12
2.22674e-12
8.51249e-13
2.84098e-13
4.97589e-14
0.999997
0.999987
0.999969
0.999941
0.999892
0.999812
0.999681
0.999467
0.999123
0.998576
0.99772
0.996404
0.994417
0.991485
0.987264
0.981352
0.973318
0.96275
0.949301
0.932744
0.912995
0.890114
0.864289
0.835803
0.805004
0.772277
0.738025
0.702646
0.666528
0.630035
0.593504
0.557236
0.521498
0.486518
0.452486
0.41956
0.387865
0.357498
0.328526
0.300992
0.274915
0.250297
0.227125
0.20537
0.184998
0.165962
0.148211
0.13169
0.116342
0.102108
0.0889293
0.0767481
0.0655086
0.0551581
0.0456472
0.0369311
0.0290863
0.0220842
0.0155129
0.00962291
0.00449438
0.00306809
0.0021761
0.00152424
0.00105296
0.000716362
0.000479299
0.000315044
0.000203467
0.000129592
8.24712e-05
5.43157e-05
3.95347e-05
2.96662e-05
2.15614e-05
1.49596e-05
9.83136e-06
6.08998e-06
3.55405e-06
1.96244e-06
1.03274e-06
5.21929e-07
2.55004e-07
1.21794e-07
5.70289e-08
2.62333e-08
1.18742e-08
5.29613e-09
2.3306e-09
1.01311e-09
4.35539e-10
1.85373e-10
7.81827e-11
3.26922e-11
1.35473e-11
5.54736e-12
2.22427e-12
8.50267e-13
2.83763e-13
4.96993e-14
0.999997
0.999987
0.999969
0.999941
0.999892
0.999812
0.999681
0.999467
0.999123
0.998576
0.99772
0.996404
0.994417
0.991485
0.987264
0.981352
0.973318
0.962749
0.949301
0.932744
0.912995
0.890114
0.864288
0.835802
0.805003
0.772277
0.738024
0.702645
0.666527
0.630034
0.593503
0.557235
0.521497
0.486517
0.452486
0.419559
0.387864
0.357498
0.328526
0.300991
0.274914
0.250297
0.227124
0.20537
0.184998
0.165961
0.14821
0.13169
0.116342
0.102108
0.0889291
0.0767479
0.0655085
0.0551579
0.0456471
0.0369309
0.0290862
0.0220841
0.0155128
0.00962284
0.00449432
0.00306809
0.0021761
0.00152424
0.00105296
0.000716362
0.000479299
0.000315044
0.000203467
0.000129592
8.2471e-05
5.43157e-05
3.95347e-05
2.96662e-05
2.15614e-05
1.49596e-05
9.83135e-06
6.08998e-06
3.55404e-06
1.96244e-06
1.03274e-06
5.21928e-07
2.55004e-07
1.21794e-07
5.70288e-08
2.62332e-08
1.18742e-08
5.29612e-09
2.3306e-09
1.01311e-09
4.35538e-10
1.85372e-10
7.81825e-11
3.26921e-11
1.35472e-11
5.54733e-12
2.22426e-12
8.50263e-13
2.83761e-13
4.9699e-14
0.999997
0.999987
0.999969
0.999941
0.999892
0.999812
0.999681
0.999467
0.999123
0.998576
0.99772
0.996403
0.994416
0.991484
0.987261
0.981348
0.973314
0.962744
0.949295
0.932737
0.912988
0.890107
0.864283
0.835798
0.805001
0.772277
0.738028
0.702653
0.666539
0.63005
0.593524
0.557261
0.521527
0.486552
0.452525
0.419603
0.387912
0.357549
0.32858
0.301049
0.274974
0.250359
0.227188
0.205435
0.185063
0.166027
0.148275
0.131754
0.116404
0.102169
0.0889875
0.0768038
0.0655615
0.0552078
0.0456937
0.0369743
0.0291253
0.0221205
0.0155477
0.00965805
0.00453048
0.00306971
0.00217114
0.00151683
0.00104526
0.000709404
0.000473487
0.000310441
0.000199967
0.000127017
8.06301e-05
5.30389e-05
3.86882e-05
2.91231e-05
2.12265e-05
1.47635e-05
9.72376e-06
6.03513e-06
3.52812e-06
1.95107e-06
1.02811e-06
5.2018e-07
2.54343e-07
1.21556e-07
5.6948e-08
2.6208e-08
1.18674e-08
5.29487e-09
2.3307e-09
1.01339e-09
4.35744e-10
1.8549e-10
7.82425e-11
3.27208e-11
1.35603e-11
5.55309e-12
2.2267e-12
8.51233e-13
2.84093e-13
4.97579e-14
0.999997
0.999987
0.999969
0.999941
0.999892
0.999812
0.999681
0.999467
0.999122
0.998575
0.997719
0.996401
0.994414
0.99148
0.987256
0.981342
0.973305
0.962734
0.949282
0.932724
0.912974
0.890094
0.864271
0.835789
0.804996
0.772278
0.738035
0.702667
0.666561
0.630082
0.593565
0.557312
0.521588
0.486623
0.452605
0.419691
0.388009
0.357653
0.328691
0.301165
0.275096
0.250484
0.227316
0.205566
0.185195
0.16616
0.148409
0.131886
0.116534
0.102295
0.0891104
0.0769222
0.0656748
0.0553158
0.0457959
0.0370706
0.0292142
0.0222041
0.0156275
0.00973593
0.00460433
0.0030731
0.00216647
0.00150868
0.00103627
0.000700981
0.000466276
0.000304629
0.000195487
0.000123682
7.82076e-05
5.13008e-05
3.7447e-05
2.82811e-05
2.06859e-05
1.44371e-05
9.5406e-06
5.94031e-06
3.48298e-06
1.9313e-06
1.02012e-06
5.17202e-07
2.53274e-07
1.21191e-07
5.68355e-08
2.61793e-08
1.18633e-08
5.29634e-09
2.33256e-09
1.01464e-09
4.36435e-10
1.85838e-10
7.84079e-11
3.27962e-11
1.35937e-11
5.56746e-12
2.23268e-12
8.53587e-13
2.84893e-13
4.98992e-14
0.999997
0.999987
0.999969
0.99994
0.999892
0.999812
0.999681
0.999466
0.999122
0.998574
0.997717
0.996399
0.99441
0.991474
0.987249
0.981331
0.973292
0.962717
0.949263
0.932702
0.912951
0.890071
0.864251
0.835773
0.804986
0.772275
0.738042
0.702686
0.666593
0.630127
0.593624
0.557386
0.521677
0.486726
0.452723
0.419823
0.388153
0.357809
0.328858
0.301341
0.27528
0.250674
0.227511
0.205764
0.185395
0.166361
0.148609
0.132086
0.116733
0.102491
0.0893007
0.0771064
0.0658524
0.0554859
0.0459581
0.0372248
0.0293575
0.0223395
0.0157563
0.00985967
0.00471766
0.00307857
0.00216344
0.00150171
0.00102807
0.000693068
0.000459372
0.000298991
0.000191098
0.00012038
7.57716e-05
4.94984e-05
3.6097e-05
2.73394e-05
2.007e-05
1.40606e-05
9.32799e-06
5.83039e-06
3.43113e-06
1.90896e-06
1.01133e-06
5.14057e-07
2.5228e-07
1.2092e-07
5.67906e-08
2.61904e-08
1.18805e-08
5.3084e-09
2.33942e-09
1.01816e-09
4.38139e-10
1.86626e-10
7.87606e-11
3.29507e-11
1.366e-11
5.59538e-12
2.24411e-12
8.58026e-13
2.86389e-13
5.01628e-14
0.999997
0.999987
0.999969
0.99994
0.999892
0.999812
0.99968
0.999466
0.999121
0.998573
0.997715
0.996395
0.994404
0.991467
0.987238
0.981316
0.973272
0.962693
0.949235
0.932671
0.912917
0.890038
0.864219
0.835746
0.804967
0.772266
0.738045
0.702704
0.666627
0.63018
0.593696
0.557477
0.521789
0.486858
0.452874
0.419993
0.388341
0.358013
0.329077
0.301574
0.275524
0.250928
0.227772
0.206031
0.185665
0.166632
0.14888
0.132354
0.116998
0.102752
0.0895595
0.0773593
0.0660967
0.055721
0.0461835
0.0374399
0.0295589
0.0225307
0.0159382
0.0100333
0.00487365
0.00308642
0.00216257
0.00149659
0.00102139
0.00068635
0.000453384
0.000294034
0.000187198
0.000117414
7.35452e-05
4.77966e-05
3.47689e-05
2.63986e-05
1.94513e-05
1.36825e-05
9.11595e-06
5.72262e-06
3.3818e-06
1.88869e-06
1.00392e-06
5.11762e-07
2.51783e-07
1.20917e-07
5.68826e-08
2.62684e-08
1.19289e-08
5.33503e-09
2.35304e-09
1.02478e-09
4.41229e-10
1.88025e-10
7.93781e-11
3.32171e-11
1.37727e-11
5.64211e-12
2.26303e-12
8.65314e-13
2.88834e-13
5.05924e-14
0.999997
0.999987
0.999969
0.99994
0.999892
0.999812
0.99968
0.999465
0.999119
0.99857
0.997711
0.99639
0.994397
0.991456
0.987223
0.981296
0.973246
0.96266
0.949196
0.932626
0.912869
0.889988
0.864172
0.835704
0.804933
0.772244
0.738038
0.702714
0.666657
0.630232
0.593773
0.557579
0.521916
0.487011
0.453053
0.420196
0.388567
0.358261
0.329345
0.301859
0.275824
0.251241
0.228096
0.206363
0.186004
0.166974
0.149223
0.132696
0.117336
0.103084
0.0898833
0.0776769
0.0664089
0.056024
0.046474
0.0377177
0.0298228
0.0227821
0.0161798
0.0102687
0.00509332
0.00309693
0.00216417
0.00149365
0.00101656
0.000681131
0.000448573
0.000289972
0.000183956
0.000114913
7.16318e-05
4.62868e-05
3.35311e-05
2.55113e-05
1.88691e-05
1.33299e-05
8.92212e-06
5.62756e-06
3.3409e-06
1.87363e-06
9.99549e-07
5.11145e-07
2.52114e-07
1.21331e-07
5.71706e-08
2.64382e-08
1.20206e-08
5.38165e-09
2.37567e-09
1.03537e-09
4.46046e-10
1.90165e-10
8.03106e-11
3.36165e-11
1.39411e-11
5.71194e-12
2.29122e-12
8.76131e-13
2.92459e-13
5.12273e-14
0.999997
0.999987
0.999969
0.99994
0.999892
0.999811
0.999679
0.999464
0.999118
0.998568
0.997707
0.996384
0.994388
0.991442
0.987203
0.981269
0.973211
0.962617
0.949143
0.932565
0.912803
0.889918
0.864102
0.835638
0.804875
0.772199
0.73801
0.702706
0.666673
0.630275
0.593844
0.557681
0.52205
0.487176
0.453249
0.420423
0.388823
0.358545
0.329654
0.302191
0.276176
0.251611
0.22848
0.206758
0.186408
0.167384
0.149636
0.133109
0.117747
0.103491
0.0902825
0.0780654
0.0667854
0.0563911
0.0468317
0.0380613
0.0301455
0.0230886
0.0164704
0.0105426
0.00533499
0.00311046
0.00216862
0.00149324
0.00101385
0.000677637
0.000445116
0.000286937
0.000181468
0.000112946
7.00794e-05
4.50031e-05
3.24116e-05
2.46997e-05
1.83416e-05
1.30167e-05
8.75612e-06
5.5515e-06
3.31235e-06
1.86619e-06
9.99581e-07
5.12722e-07
2.53565e-07
1.22265e-07
5.77126e-08
2.67295e-08
1.21687e-08
5.45374e-09
2.40961e-09
1.05091e-09
4.53e-10
1.93216e-10
8.16266e-11
3.41761e-11
1.41758e-11
5.80889e-12
2.33034e-12
8.91133e-13
2.97481e-13
5.21068e-14
0.999997
0.999987
0.999969
0.99994
0.999891
0.999811
0.999678
0.999463
0.999116
0.998565
0.997702
0.996376
0.994376
0.991425
0.987178
0.981235
0.973166
0.962559
0.949073
0.932484
0.912711
0.889821
0.864002
0.835541
0.804786
0.772122
0.737951
0.702669
0.666663
0.630294
0.593897
0.55777
0.522176
0.48734
0.453451
0.420662
0.389099
0.358854
0.329995
0.302561
0.276572
0.25203
0.228919
0.207213
0.186875
0.16786
0.150118
0.133593
0.118231
0.103971
0.0907565
0.0785306
0.0672384
0.0568288
0.0472561
0.0384745
0.0305347
0.0234596
0.0168238
0.0108787
0.00563529
0.00312732
0.00217624
0.00149563
0.00101355
0.000676105
0.000443195
0.000285065
0.00017983
0.000111577
6.89292e-05
4.39743e-05
3.14268e-05
2.39724e-05
1.78758e-05
1.27488e-05
8.62257e-06
5.49789e-06
3.29853e-06
1.86765e-06
1.00425e-06
5.16965e-07
2.5646e-07
1.23923e-07
5.85982e-08
2.71797e-08
1.23888e-08
5.55803e-09
2.4577e-09
1.07259e-09
4.62579e-10
1.97376e-10
8.34075e-11
3.49285e-11
1.44899e-11
5.93815e-12
2.38235e-12
9.11072e-13
3.04148e-13
5.32747e-14
0.999997
0.999987
0.999969
0.99994
0.999891
0.99981
0.999678
0.999461
0.999113
0.998561
0.997696
0.996366
0.994361
0.991403
0.987147
0.981192
0.973109
0.962485
0.948982
0.932376
0.912589
0.889688
0.863863
0.835401
0.804651
0.771999
0.737845
0.702587
0.66661
0.630274
0.593914
0.557828
0.522277
0.487486
0.453642
0.420898
0.389378
0.359176
0.330356
0.302958
0.277003
0.252489
0.229404
0.207719
0.187399
0.168397
0.150665
0.134146
0.118785
0.104524
0.0913048
0.079071
0.0677684
0.0573453
0.0477544
0.0389553
0.0309955
0.0239012
0.0172433
0.0112764
0.00600294
0.00314779
0.00218746
0.00150134
0.00101606
0.000676904
0.000443122
0.000284588
0.000179199
0.000110903
6.82338e-05
4.32202e-05
3.05735e-05
2.33193e-05
1.74655e-05
1.25236e-05
8.52134e-06
5.46764e-06
3.30053e-06
1.87839e-06
1.01489e-06
5.24502e-07
2.61016e-07
1.26404e-07
5.9879e-08
2.78145e-08
1.26933e-08
5.70009e-09
2.52243e-09