/*--------------------------------*- C++ -*----------------------------------*\
  =========                 |
  \\      /  F ield         | OpenFOAM: The Open Source CFD Toolbox
   \\    /   O peration     | Website:  https://openfoam.org
    \\  /    A nd           | Version:  8
     \\/     M anipulation  |
\*---------------------------------------------------------------------------*/
FoamFile
{
    version     2.0;
    format      ascii;
    class       volScalarField;
    location    "560/fluid";
    object      CO2;
}
// * * * * * * * * * * * * * * * * * * * * * * * * * * * * * * * * * * * * * //

dimensions      [0 0 0 0 0 0 0];

internalField   nonuniform List<scalar> 
4000
(
4.64557e-07
2.02979e-06
4.66081e-06
9.06888e-06
1.64221e-05
2.86197e-05
4.87135e-05
8.1538e-05
0.000134622
0.000219449
0.000353111
0.00056028
0.000875253
0.0013435
0.00202182
0.00297595
0.00427509
0.00598342
0.00815075
0.010805
0.0139489
0.0175616
0.021603
0.0260199
0.0307516
0.0357343
0.0409043
0.0462007
0.0515663
0.0569489
0.0623022
0.0675853
0.0727638
0.0778089
0.0826975
0.0874113
0.091936
0.0962617
0.100382
0.104294
0.107996
0.111491
0.114781
0.11787
0.120765
0.12347
0.125991
0.128334
0.130504
0.132504
0.134336
0.136
0.137495
0.138813
0.139943
0.14087
0.141568
0.141997
0.142117
0.141867
0.141157
0.13987
0.137885
0.127347
0.116612
0.105867
0.0952566
0.0848947
0.0748704
0.0652564
0.0561138
0.0474961
0.0394535
0.03207
0.0253228
0.0193153
0.0141117
0.00977598
0.00635611
0.00384892
0.00216645
0.00113906
0.000564705
0.000268352
0.000123864
5.58718e-05
2.47366e-05
1.07847e-05
4.64192e-06
1.97649e-06
8.3394e-07
3.4916e-07
1.45222e-07
6.00342e-08
2.46556e-08
1.003e-08
4.00459e-09
1.52781e-09
5.10053e-10
8.94061e-11
4.66309e-07
2.03804e-06
4.68236e-06
9.11782e-06
1.65251e-05
2.88238e-05
4.90951e-05
8.22098e-05
0.000135729
0.000221137
0.000355412
0.000562941
0.000877425
0.00134334
0.00201614
0.00295993
0.00424231
0.00592658
0.0080628
0.0106805
0.0137849
0.0173583
0.0213634
0.0257495
0.0304573
0.0354239
0.0405857
0.0458812
0.0512524
0.0566463
0.0620153
0.0673176
0.0725178
0.077586
0.0824986
0.0872365
0.091785
0.0961337
0.100276
0.104208
0.107929
0.111441
0.114747
0.117851
0.120758
0.123474
0.126004
0.128355
0.130531
0.132536
0.134372
0.13604
0.137536
0.138855
0.139986
0.14091
0.141603
0.142023
0.142128
0.141849
0.141084
0.139693
0.137102
0.126443
0.115622
0.104815
0.0941586
0.0837617
0.0737121
0.064082
0.0549332
0.0463208
0.0382975
0.0309551
0.0242684
0.0183507
0.0132684
0.00908391
0.00583493
0.00349668
0.00195593
0.00102797
0.000512468
0.00024556
0.000114477
5.21741e-05
2.33277e-05
1.02594e-05
4.44805e-06
1.90486e-06
8.07166e-07
3.38955e-07
1.4124e-07
5.84463e-08
2.40122e-08
9.76809e-09
3.89928e-09
1.48731e-09
4.96448e-10
8.7039e-11
4.69237e-07
2.0512e-06
4.71409e-06
9.1829e-06
1.66481e-05
2.90423e-05
4.94619e-05
8.27902e-05
0.000136589
0.000222322
0.000356948
0.000564706
0.000878976
0.00134362
0.00201291
0.00294971
0.00422035
0.00588706
0.00799943
0.0105873
0.0136574
0.0171937
0.0211614
0.0255122
0.0301889
0.0351302
0.0402734
0.0455576
0.0509247
0.0563213
0.0616991
0.0670156
0.0722342
0.0773243
0.0822612
0.087025
0.0916003
0.0959759
0.100145
0.104102
0.107848
0.111383
0.11471
0.117834
0.120758
0.123489
0.126033
0.128396
0.130582
0.132595
0.134437
0.136109
0.137609
0.13893
0.14006
0.140984
0.141675
0.142091
0.142193
0.141912
0.141149
0.139776
0.135571
0.124839
0.113958
0.103106
0.0924192
0.0820088
0.0719629
0.062355
0.0532485
0.0447006
0.0367663
0.0295296
0.0229892
0.0172467
0.0123632
0.00839068
0.00534786
0.00318716
0.00177869
0.00093573
0.000468161
0.000225323
0.000105569
4.83642e-05
2.1735e-05
9.6053e-06
4.18281e-06
1.79816e-06
7.64403e-07
3.21816e-07
1.34353e-07
5.5668e-08
2.28885e-08
9.3144e-09
3.71854e-09
1.41828e-09
4.73319e-10
8.29738e-11
4.70526e-07
2.05676e-06
4.72666e-06
9.20668e-06
1.66889e-05
2.91074e-05
4.95573e-05
8.29128e-05
0.000136707
0.000222326
0.000356531
0.00056327
0.000875482
0.00133644
0.00199983
0.00292773
0.00418572
0.00583557
0.00792683
0.0104899
0.0135325
0.01704
0.0209792
0.025303
0.0299556
0.0348767
0.0400046
0.0452786
0.0506412
0.0560387
0.0614226
0.06675
0.0719836
0.0770923
0.0820504
0.0868375
0.0914374
0.0958383
0.100032
0.104015
0.107785
0.111344
0.114692
0.117835
0.120777
0.123524
0.126082
0.128457
0.130652
0.132673
0.134522
0.136198
0.1377
0.139021
0.14015
0.14107
0.141755
0.142163
0.142254
0.141958
0.141176
0.139775
0.133601
0.122844
0.11194
0.101073
0.0903863
0.0799934
0.0699848
0.0604357
0.0514109
0.0429692
0.0351668
0.0280563
0.0216959
0.0161501
0.0114753
0.0077142
0.00487071
0.00287944
0.00159789
0.000838304
0.000419393
0.000202229
9.5025e-05
4.36862e-05
1.97072e-05
8.74312e-06
3.82209e-06
1.64919e-06
7.03491e-07
2.97093e-07
1.24369e-07
5.16504e-08
2.12772e-08
8.6719e-09
3.46608e-09
1.32307e-09
4.41731e-10
7.74531e-11
4.70676e-07
2.05738e-06
4.72787e-06
9.20834e-06
1.66897e-05
2.91022e-05
4.95314e-05
8.28307e-05
0.000136492
0.000221826
0.000355477
0.000561187
0.000871579
0.00132948
0.00198801
0.00290859
0.00415622
0.00579228
0.00786634
0.0104092
0.0134295
0.0169137
0.0208297
0.0251317
0.029765
0.03467
0.0397857
0.0450519
0.0504111
0.0558098
0.0611993
0.0665362
0.0717829
0.0769076
0.0818843
0.0866919
0.0913135
0.0957368
0.0999538
0.10396
0.107752
0.111331
0.114699
0.117859
0.120817
0.123579
0.126149
0.128534
0.130738
0.132765
0.134618
0.136296
0.137797
0.139115
0.140238
0.141149
0.141822
0.142212
0.142283
0.141961
0.141146
0.139703
0.131468
0.120722
0.109822
0.0989638
0.0882978
0.077942
0.06799
0.0585183
0.0495922
0.0412702
0.0336204
0.0266672
0.0204861
0.0151351
0.0106641
0.00710556
0.0044485
0.00261147
0.00144242
0.000755111
0.000377776
0.000182425
8.59038e-05
3.95906e-05
1.79053e-05
7.9635e-06
3.48942e-06
1.50887e-06
6.44876e-07
2.728e-07
1.14366e-07
4.75547e-08
1.96098e-08
7.9988e-09
3.19897e-09
1.22158e-09
4.07894e-10
7.15219e-11
4.69672e-07
2.05286e-06
4.71697e-06
9.18555e-06
1.66447e-05
2.90155e-05
4.93674e-05
8.25245e-05
0.000135929
0.000220809
0.00035368
0.000558086
0.000866375
0.00132101
0.00197469
0.0028884
0.00412679
0.0057511
0.00781103
0.0103378
0.0133407
0.0168071
0.0207058
0.0249918
0.0296111
0.0345047
0.0396122
0.0448737
0.0502318
0.0556329
0.0610282
0.0663742
0.0716329
0.076772
0.081765
0.0865905
0.0912312
0.0956747
0.0999121
0.103937
0.107748
0.111344
0.114728
0.117904
0.120876
0.12365
0.12623
0.128623
0.130833
0.132864
0.134717
0.136393
0.137889
0.139199
0.140309
0.141204
0.141856
0.142219
0.14226
0.141903
0.141048
0.139577
0.129428
0.118725
0.107828
0.0969702
0.0863201
0.076001
0.0661079
0.0567168
0.0478917
0.0396897
0.0321922
0.0253923
0.019383
0.0142165
0.00993579
0.00656318
0.00407417
0.0023741
0.00130404
0.000680283
0.000339768
0.000164071
7.73243e-05
3.56852e-05
1.61666e-05
7.20386e-06
3.16283e-06
1.37036e-06
5.86789e-07
2.48669e-07
1.04417e-07
4.34795e-08
1.7951e-08
7.32934e-09
2.93338e-09
1.12067e-09
3.74256e-10
6.56254e-11
4.68065e-07
2.04576e-06
4.70026e-06
9.15195e-06
1.65813e-05
2.88998e-05
4.916e-05
8.21583e-05
0.00013529
0.000219713
0.000351826
0.000555009
0.00086138
0.00131311
0.00196256
0.00287038
0.00410098
0.00571553
0.00776388
0.0102777
0.0132669
0.0167195
0.0206051
0.0248792
0.0294886
0.0343746
0.0394772
0.0447365
0.0500954
0.0555002
0.060902
0.0662569
0.0715268
0.076679
0.0816868
0.0865284
0.0911864
0.0956469
0.0999003
0.103941
0.107768
0.111379
0.114777
0.117966
0.120949
0.123732
0.12632
0.128718
0.130931
0.132962
0.134813
0.136484
0.137971
0.139266
0.140357
0.141225
0.141842
0.142158
0.142144
0.141718
0.140789
0.139268
0.128386
0.117295
0.106191
0.0952335
0.0845513
0.0742464
0.0644015
0.0550847
0.0463544
0.0382632
0.0308936
0.0242317
0.0183851
0.0133953
0.00929354
0.00609058
0.00375158
0.00217147
0.00118672
0.000617053
0.000307647
0.00014851
7.00123e-05
3.23336e-05
1.46622e-05
6.54073e-06
2.87509e-06
1.24721e-06
5.34703e-07
2.26859e-07
9.53625e-08
3.97481e-08
1.64244e-08
6.71064e-09
2.6871e-09
1.02687e-09
3.42931e-10
6.01291e-11
4.66187e-07
2.03749e-06
4.68098e-06
9.11359e-06
1.65099e-05
2.87713e-05
4.89338e-05
8.17662e-05
0.00013462
0.000218585
0.000349959
0.000551978
0.000856569
0.00130567
0.00195137
0.00285412
0.00407816
0.00568467
0.00772371
0.0102274
0.013206
0.0166482
0.0205242
0.02479
0.0293927
0.0342742
0.0393743
0.0446336
0.0499948
0.0554043
0.0608129
0.0661766
0.0714569
0.0766213
0.0816426
0.0864984
0.0911702
0.0956444
0.0999119
0.103967
0.107806
0.11143
0.11484
0.118038
0.12103
0.123819
0.126413
0.128814
0.131028
0.133058
0.134905
0.136568
0.138043
0.13932
0.140387
0.141218
0.141781
0.142025
0.1419
0.141305
0.140112
0.138175
0.127074
0.115826
0.104625
0.0936225
0.0829359
0.0726599
0.0628709
0.0536323
0.0449989
0.0370198
0.0297715
0.0232587
0.0175499
0.0126978
0.00874374
0.00568764
0.00347749
0.00199963
0.00108717
0.000563225
0.00028015
0.000135111
6.36772e-05
2.94126e-05
1.3344e-05
5.95687e-06
2.62068e-06
1.13792e-06
4.8833e-07
2.07389e-07
8.72606e-08
3.64028e-08
1.50536e-08
6.15435e-09
2.46541e-09
9.42351e-10
3.14693e-10
5.51727e-11
4.64279e-07
2.02912e-06
4.66156e-06
9.07523e-06
1.64391e-05
2.86453e-05
4.87142e-05
8.13901e-05
0.000133986
0.000217531
0.000348239
0.000549225
0.000852258
0.00129909
0.00194162
0.00284011
0.00405874
0.00565871
0.00769033
0.010186
0.0131565
0.0165911
0.0204601
0.0247203
0.0293189
0.034198
0.0392977
0.0445584
0.049923
0.0553377
0.0607532
0.0661254
0.0714158
0.0765914
0.0816242
0.0864914
0.0911751
0.0956616
0.0999412
0.104008
0.107858
0.111492
0.11491
0.118116
0.121114
0.123909
0.126505
0.128908
0.131122
0.133149
0.134992
0.136647
0.138111
0.139373
0.140419
0.141224
0.141749
0.141946
0.141756
0.141069
0.139743
0.136932
0.125706
0.11438
0.103139
0.0921284
0.0814613
0.0712282
0.0615025
0.052346
0.0438133
0.0359572
0.0288434
0.0224793
0.0168986
0.0121467
0.00829286
0.00534889
0.00324675
0.00185503
0.00100344
0.00051794
0.000256983
0.000123796
5.83117e-05
2.69304e-05
1.22198e-05
5.45708e-06
2.40209e-06
1.04368e-06
4.48204e-07
1.90488e-07
8.02075e-08
3.34834e-08
1.38547e-08
5.66696e-09
2.2709e-09
8.68119e-10
2.89878e-10
5.08126e-11
4.62473e-07
2.0212e-06
4.64324e-06
9.03918e-06
1.63729e-05
2.85279e-05
4.85111e-05
8.10447e-05
0.000133408
0.000216579
0.000346699
0.000546783
0.000848475
0.00129337
0.00193324
0.00282822
0.00404243
0.00563718
0.00766295
0.0101525
0.013117
0.0165459
0.0204103
0.0246668
0.0292632
0.0341415
0.039242
0.0445052
0.0498738
0.055294
0.0607164
0.0660968
0.0713964
0.0765812
0.0816236
0.0865012
0.0911956
0.0956925
0.0999821
0.104058
0.107917
0.111559
0.114984
0.118196
0.121198
0.123996
0.126594
0.128998
0.13121
0.133235
0.135072
0.136721
0.138177
0.139429
0.140462
0.141252
0.141761
0.141944
0.141745
0.141064
0.139777
0.135565
0.124322
0.112989
0.101755
0.0907659
0.0801354
0.0699538
0.0602938
0.0512164
0.0427765
0.035025
0.0279945
0.0217051
0.0162422
0.0116482
0.00792183
0.00506422
0.0030502
0.00173196
0.000932324
0.000479529
0.000237343
0.000114203
5.37596e-05
2.48219e-05
1.12634e-05
5.03115e-06
2.21547e-06
9.63072e-07
4.13825e-07
1.75984e-07
7.4146e-08
3.0971e-08
1.28217e-08
5.24658e-09
2.103e-09
8.03999e-10
2.68442e-10
4.70423e-11
4.6084e-07
2.01405e-06
4.62673e-06
9.00679e-06
1.63136e-05
2.84233e-05
4.83309e-05
8.07397e-05
0.0001329
0.000215749
0.000345366
0.000544686
0.000845252
0.00128855
0.00192622
0.00281834
0.00402902
0.00561965
0.00764089
0.0101258
0.0130858
0.0165108
0.020372
0.0246265
0.029222
0.0341007
0.0392029
0.0444692
0.0498421
0.0552678
0.0606969
0.0660846
0.0713917
0.0765848
0.0816362
0.0865228
0.0912261
0.0957316
0.100029
0.104113
0.107979
0.111627
0.115057
0.118273
0.121278
0.124078
0.126677
0.12908
0.13129
0.133312
0.135145
0.136788
0.138236
0.139479
0.140502
0.141283
0.141781
0.141955
0.141748
0.141065
0.139781
0.134267
0.123025
0.111706
0.100497
0.0895436
0.0789605
0.0688381
0.0592466
0.0502454
0.0418856
0.0341944
0.027214
0.0210159
0.0156476
0.0111473
0.00753906
0.00481277
0.00287713
0.00162522
0.000871406
0.000446918
0.000220766
0.000106129
4.99331e-05
2.30501e-05
1.04594e-05
4.67278e-06
2.05826e-06
8.95078e-07
3.84782e-07
1.63712e-07
6.90099e-08
2.88392e-08
1.19441e-08
4.8891e-09
1.96011e-09
7.49405e-10
2.50189e-10
4.38343e-11
4.59411e-07
2.0078e-06
4.61232e-06
8.97856e-06
1.6262e-05
2.83327e-05
4.81752e-05
8.04776e-05
0.000132466
0.000215043
0.000344238
0.000542922
0.000842557
0.00128454
0.00192044
0.00281027
0.00401816
0.00560558
0.00762337
0.0101048
0.0130616
0.016484
0.0203433
0.0245968
0.0291923
0.0340721
0.0391765
0.0444461
0.0498234
0.0552544
0.0606893
0.0660833
0.0713975
0.076598
0.081657
0.0865513
0.0912619
0.0957746
0.100079
0.104169
0.10804
0.111692
0.115126
0.118344
0.121352
0.124152
0.126751
0.129152
0.13136
0.133378
0.135206
0.136843
0.138284
0.139519
0.140533
0.141303
0.141791
0.141956
0.141742
0.141052
0.139766
0.133112
0.121874
0.110572
0.099393
0.0884855
0.0779586
0.0678868
0.0583428
0.0493845
0.0410598
0.0334295
0.0265341
0.0204241
0.0151465
0.0107385
0.00722188
0.0045792
0.002731
0.00153447
0.000820148
0.000419727
0.00020701
9.94404e-05
4.67648e-05
2.15824e-05
9.79265e-06
4.37518e-06
1.92749e-06
8.38421e-07
3.60538e-07
1.53451e-07
6.47079e-08
2.7051e-08
1.12072e-08
4.58867e-09
1.84e-09
7.03544e-10
2.34886e-10
4.11489e-11
4.58194e-07
2.00248e-06
4.60007e-06
8.95459e-06
1.62183e-05
2.8256e-05
4.80441e-05
8.02574e-05
0.000132103
0.000214454
0.000343302
0.000541467
0.000840348
0.00128128
0.00191577
0.00280379
0.00400951
0.00559447
0.00760967
0.0100886
0.0130432
0.0164638
0.0203221
0.0245753
0.0291714
0.0340528
0.0391597
0.0444326
0.049814
0.0552496
0.0606897
0.0660896
0.0714099
0.0766168
0.0816822
0.0865827
0.0912994
0.0958178
0.100127
0.104222
0.108097
0.111752
0.115188
0.118408
0.121416
0.124217
0.126814
0.129213
0.131418
0.133432
0.135255
0.136885
0.138319
0.139546
0.140551
0.141312
0.141789
0.141944
0.141721
0.141024
0.139737
0.132121
0.12088
0.10959
0.0984398
0.0875549
0.0770451
0.0670056
0.0575051
0.0486011
0.0403445
0.0327832
0.0259599
0.0199261
0.0147277
0.0104012
0.00696559
0.00439919
0.00261739
0.00146592
0.000779734
0.00039789
0.000195895
9.40114e-05
4.41832e-05
2.03824e-05
9.24597e-06
4.13053e-06
1.81975e-06
7.91641e-07
3.40483e-07
1.44948e-07
6.1138e-08
2.55653e-08
1.05942e-08
4.33854e-09
1.73994e-09
6.6533e-10
2.22134e-10
3.89119e-11
4.57181e-07
1.99805e-06
4.58988e-06
8.9347e-06
1.61821e-05
2.81927e-05
4.79359e-05
8.00763e-05
0.000131805
0.000213974
0.000342542
0.000540289
0.000838569
0.00127866
0.00191204
0.00279867
0.00400273
0.00558583
0.00759913
0.0100763
0.0130294
0.016449
0.0203068
0.0245602
0.0291573
0.0340404
0.0391498
0.0444258
0.0498108
0.0552506
0.0606953
0.0661002
0.0714257
0.076638
0.0817086
0.0866141
0.0913357
0.0958584
0.100172
0.10427
0.108148
0.111805
0.115243
0.118463
0.121471
0.124271
0.126866
0.129263
0.131464
0.133473
0.13529
0.136915
0.138341
0.139559
0.140556
0.141307
0.141775
0.14192
0.141688
0.140984
0.139699
0.131282
0.120033
0.10875
0.097605
0.0867411
0.0762658
0.0662647
0.0568073
0.0479515
0.039748
0.0322434
0.0254801
0.0195097
0.0143775
0.0101186
0.00674956
0.00424429
0.00251328
0.00140727
0.000747803
0.000380447
0.000186839
8.95789e-05
4.20748e-05
1.94016e-05
8.7987e-06
3.93015e-06
1.73139e-06
7.53239e-07
3.24002e-07
1.37954e-07
5.8199e-08
2.43411e-08
1.00887e-08
4.13216e-09
1.65734e-09
6.33781e-10
2.11602e-10
3.70672e-11
4.56357e-07
1.99445e-06
4.5816e-06
8.91855e-06
1.61528e-05
2.81414e-05
4.78486e-05
7.99305e-05
0.000131566
0.000213589
0.000341935
0.000539354
0.000837164
0.00127661
0.00190913
0.0027947
0.0039975
0.00557924
0.00759116
0.010067
0.0130192
0.0164382
0.0202959
0.0245499
0.0291481
0.0340329
0.0391445
0.0444232
0.0498114
0.0552549
0.0607036
0.0661126
0.0714424
0.0766589
0.0817336
0.0866432
0.0913684
0.0958944
0.100211
0.104311
0.108191
0.111849
0.115288
0.118508
0.121515
0.124313
0.126907
0.1293
0.131497
0.133502
0.135313
0.136931
0.13835
0.139561
0.140549
0.141292
0.141751
0.141889
0.14165
0.140941
0.139655
0.130583
0.11932
0.108038
0.0969077
0.0860661
0.0756191
0.0656512
0.0562309
0.0474157
0.0392562
0.0317984
0.0250844
0.0191665
0.0140891
0.00988627
0.00657248
0.00411806
0.00242952
0.00135514
0.000720129
0.00036656
0.000179724
8.60272e-05
4.03697e-05
1.86065e-05
8.43576e-06
3.76742e-06
1.65959e-06
7.22011e-07
3.10592e-07
1.3226e-07
5.5805e-08
2.33435e-08
9.67668e-09
3.9639e-09
1.59e-09
6.08071e-10
2.0302e-10
3.55648e-11
4.55705e-07
1.9916e-06
4.57505e-06
8.90578e-06
1.61296e-05
2.8101e-05
4.77799e-05
7.9816e-05
0.000131379
0.000213289
0.000341463
0.000538629
0.000836078
0.00127503
0.00190691
0.00279167
0.00399355
0.00557429
0.00758524
0.0100603
0.0130118
0.0164306
0.0202885
0.0245431
0.0291423
0.0340286
0.0391422
0.0444233
0.0498142
0.0552607
0.0607126
0.0661249
0.071458
0.0766778
0.0817557
0.0866681
0.0913959
0.0959243
0.100243
0.104344
0.108225
0.111884
0.115322
0.118543
0.121548
0.124344
0.126935
0.129325
0.131518
0.133517
0.135324
0.136935
0.138348
0.139552
0.140533
0.141269
0.141722
0.141859
0.141623
0.140929
0.139681
0.130019
0.118745
0.107461
0.0963412
0.0855173
0.0750936
0.065153
0.0557635
0.0469819
0.0388583
0.0314386
0.0247649
0.0188895
0.0138566
0.00969944
0.00643052
0.00401733
0.00236313
0.00131424
0.000696028
0.000353741
0.000173686
8.31729e-05
3.90093e-05
1.79692e-05
8.14429e-06
3.6368e-06
1.60202e-06
6.96984e-07
2.9985e-07
1.277e-07
5.38887e-08
2.25453e-08
9.34717e-09
3.82942e-09
1.53625e-09
5.87567e-10
1.96177e-10
3.43672e-11
4.55206e-07
1.98942e-06
4.57004e-06
8.89603e-06
1.6112e-05
2.80702e-05
4.77276e-05
7.97291e-05
0.000131237
0.000213062
0.000341107
0.000538084
0.000835264
0.00127385
0.00190526
0.00278944
0.00399065
0.00557069
0.00758098
0.0100555
0.0130067
0.0164253
0.0202835
0.0245386
0.0291388
0.0340265
0.0391417
0.0444246
0.0498177
0.0552665
0.0607209
0.0661357
0.0714712
0.0766934
0.0817734
0.0866878
0.0914174
0.0959472
0.100267
0.104369
0.10825
0.111909
0.115347
0.118566
0.12157
0.124364
0.126952
0.129338
0.131527
0.133522
0.135323
0.136928
0.138334
0.139531
0.140504
0.141234
0.141681
0.141813
0.141574
0.14088
0.139638
0.129582
0.118289
0.107004
0.0958921
0.0850827
0.0746782
0.0647602
0.0553957
0.0466411
0.0385463
0.031157
0.024515
0.0186734
0.0136756
0.0095543
0.00632064
0.00393974
0.00231239
0.00128345
0.000678537
0.00034432
0.000168782
8.08657e-05
3.79516e-05
1.7481e-05
7.9207e-06
3.53608e-06
1.55746e-06
6.77602e-07
2.91534e-07
1.24174e-07
5.24082e-08
2.19297e-08
9.09361e-09
3.72618e-09
1.49502e-09
5.71841e-10
1.90929e-10
3.34488e-11
4.54846e-07
1.98785e-06
4.56643e-06
8.889e-06
1.60992e-05
2.8048e-05
4.769e-05
7.96666e-05
0.000131135
0.000212899
0.000340853
0.000537695
0.000834685
0.00127301
0.00190409
0.00278787
0.00398862
0.00556819
0.00757803
0.0100522
0.0130032
0.0164218
0.0202802
0.0245359
0.0291368
0.0340255
0.0391419
0.0444263
0.049821
0.0552714
0.0607275
0.066144
0.0714812
0.0767049
0.0817862
0.0867018
0.0914323
0.0959629
0.100283
0.104385
0.108267
0.111925
0.115362
0.11858
0.121582
0.124373
0.126958
0.129342
0.131527
0.133517
0.135312
0.136912
0.138311
0.139501
0.140468
0.14119
0.141632
0.141759
0.14152
0.14083
0.1396
0.129259
0.117949
0.10666
0.0955531
0.0847551
0.0743658
0.0644656
0.0551207
0.0463871
0.0383144
0.0309482
0.0243302
0.0185138
0.0135423
0.00944778
0.00624029
0.00388323
0.00227558
0.00126119
0.000665927
0.000337555
0.000165295
7.91057e-05
3.7111e-05
1.71049e-05
7.75465e-06
3.46277e-06
1.52537e-06
6.6371e-07
2.85586e-07
1.21654e-07
5.1351e-08
2.14897e-08
8.91209e-09
3.65213e-09
1.46541e-09
5.60535e-10
1.87157e-10
3.27878e-11
4.54614e-07
1.98683e-06
4.5641e-06
8.88445e-06
1.6091e-05
2.80337e-05
4.76657e-05
7.96263e-05
0.00013107
0.000212794
0.00034069
0.000537446
0.000834315
0.00127248
0.00190335
0.00278687
0.00398734
0.00556662
0.00757619
0.0100501
0.013001
0.0164197
0.0202783
0.0245343
0.0291358
0.0340251
0.0391423
0.0444277
0.0498234
0.0552749
0.0607321
0.0661496
0.0714878
0.0767122
0.0817942
0.0867102
0.091441
0.0959718
0.100292
0.104394
0.108275
0.111933
0.115369
0.118585
0.121586
0.124375
0.126958
0.129338
0.131519
0.133505
0.135296
0.13689
0.138284
0.139468
0.140429
0.141146
0.141582
0.141707
0.141468
0.140785
0.139572
0.129045
0.117717
0.106423
0.0953201
0.0845305
0.0741526
0.0642656
0.054935
0.0462164
0.0381593
0.0308091
0.0242077
0.0184084
0.0134546
0.00937796
0.00618788
0.00384658
0.00225182
0.00124685
0.000657805
0.000333201
0.0001631
7.80337e-05
3.65978e-05
1.6861e-05
7.64318e-06
3.41397e-06
1.50426e-06
6.54645e-07
2.8173e-07
1.20028e-07
5.06709e-08
2.12075e-08
8.79581e-09
3.60472e-09
1.44645e-09
5.53292e-10
1.8474e-10
3.2364e-11
4.54502e-07
1.98634e-06
4.56298e-06
8.88227e-06
1.6087e-05
2.80269e-05
4.76541e-05
7.96072e-05
0.000131039
0.000212745
0.000340612
0.000537329
0.000834141
0.00127223
0.001903
0.0027864
0.00398674
0.00556588
0.00757533
0.0100492
0.013
0.0164188
0.0202774
0.0245336
0.0291354
0.034025
0.0391426
0.0444285
0.0498246
0.0552767
0.0607343
0.0661524
0.0714909
0.0767157
0.0817979
0.086714
0.0914446
0.0959752
0.100295
0.104397
0.108278
0.111935
0.11537
0.118586
0.121585
0.124373
0.126954
0.129332
0.131511
0.133494
0.135281
0.136872
0.138262
0.139442
0.140399
0.141111
0.141544
0.141667
0.14143
0.140753
0.139557
0.12894
0.117596
0.106298
0.0951963
0.084412
0.0740413
0.0641624
0.0548402
0.0461302
0.0380816
0.0307401
0.0241475
0.0183571
0.0134122
0.0093445
0.00616297
0.00382931
0.00224073
0.00124021
0.000654052
0.000331187
0.000162099
7.75479e-05
3.63665e-05
1.67526e-05
7.59321e-06
3.39112e-06
1.49413e-06
6.50257e-07
2.79858e-07
1.19239e-07
5.03411e-08
2.10706e-08
8.73948e-09
3.58176e-09
1.43726e-09
5.49782e-10
1.83568e-10
3.21584e-11
4.54505e-07
1.98636e-06
4.56301e-06
8.88233e-06
1.60872e-05
2.8027e-05
4.76544e-05
7.96077e-05
0.00013104
0.000212746
0.000340615
0.000537332
0.000834146
0.00127224
0.00190301
0.00278642
0.00398676
0.00556591
0.00757537
0.0100492
0.0130001
0.0164188
0.0202775
0.0245337
0.0291354
0.0340251
0.0391427
0.0444285
0.0498247
0.0552767
0.0607344
0.0661524
0.071491
0.0767158
0.081798
0.0867141
0.0914447
0.0959753
0.100295
0.104397
0.108278
0.111935
0.11537
0.118586
0.121585
0.124373
0.126954
0.129332
0.131511
0.133494
0.135281
0.136872
0.138262
0.139442
0.140399
0.141111
0.141544
0.141667
0.14143
0.140753
0.139557
0.12894
0.117596
0.106297
0.0951961
0.0844119
0.0740412
0.0641623
0.0548401
0.0461301
0.0380816
0.0307401
0.0241474
0.018357
0.0134122
0.00934448
0.00616296
0.0038293
0.00224072
0.0012402
0.00065405
0.000331186
0.000162099
7.75477e-05
3.63664e-05
1.67525e-05
7.59319e-06
3.39112e-06
1.49413e-06
6.50256e-07
2.79858e-07
1.19239e-07
5.0341e-08
2.10706e-08
8.73946e-09
3.58175e-09
1.43726e-09
5.4978e-10
1.83567e-10
3.21583e-11
4.54623e-07
1.98687e-06
4.56418e-06
8.88462e-06
1.60913e-05
2.80342e-05
4.76666e-05
7.96278e-05
0.000131072
0.000212798
0.000340696
0.000537455
0.00083433
0.0012725
0.00190338
0.00278691
0.0039874
0.00556669
0.00757628
0.0100502
0.0130012
0.0164199
0.0202785
0.0245345
0.029136
0.0340253
0.0391426
0.044428
0.0498237
0.0552752
0.0607323
0.0661499
0.071488
0.0767124
0.0817944
0.0867104
0.0914413
0.095972
0.100292
0.104394
0.108275
0.111933
0.115369
0.118585
0.121586
0.124375
0.126958
0.129338
0.131519
0.133505
0.135296
0.13689
0.138284
0.139468
0.140429
0.141146
0.141582
0.141707
0.141468
0.140785
0.139572
0.129045
0.117717
0.106423
0.0953197
0.0845301
0.0741522
0.0642653
0.0549348
0.0462162
0.0381591
0.0308089
0.0242075
0.0184083
0.0134545
0.00937789
0.00618784
0.00384655
0.0022518
0.00124684
0.000657799
0.000333197
0.000163098
7.80327e-05
3.65972e-05
1.68608e-05
7.64309e-06
3.41394e-06
1.50425e-06
6.54641e-07
2.81728e-07
1.20027e-07
5.06706e-08
2.12073e-08
8.79573e-09
3.60468e-09
1.44643e-09
5.53285e-10
1.84738e-10
3.23635e-11
4.54861e-07
1.98791e-06
4.56658e-06
8.88928e-06
1.60997e-05
2.80489e-05
4.76915e-05
7.96691e-05
0.00013114
0.000212906
0.000340863
0.000537712
0.00083471
0.00127305
0.00190414
0.00278794
0.00398872
0.00556832
0.0075782
0.0100524
0.0130034
0.0164221
0.0202805
0.0245362
0.0291372
0.0340259
0.0391423
0.0444267
0.0498214
0.0552719
0.060728
0.0661445
0.0714817
0.0767053
0.0817866
0.0867022
0.0914327
0.0959633
0.100283
0.104386
0.108267
0.111925
0.115362
0.11858
0.121582
0.124374
0.126959
0.129342
0.131527
0.133517
0.135312
0.136912
0.138311
0.139501
0.140468
0.14119
0.141632
0.141759
0.14152
0.14083
0.1396
0.129258
0.117948
0.106659
0.0955524
0.0847545
0.0743652
0.0644651
0.0551203
0.0463867
0.0383141
0.0309479
0.02433
0.0185136
0.0135421
0.00944767
0.00624021
0.00388318
0.00227554
0.00126117
0.000665914
0.000337547
0.000165289
7.91013e-05
3.71089e-05
1.7104e-05
7.75435e-06
3.46267e-06
1.52533e-06
6.63694e-07
2.8558e-07
1.21652e-07
5.13499e-08
2.14893e-08
8.91189e-09
3.65205e-09
1.46538e-09
5.60521e-10
1.87153e-10
3.27869e-11
4.55226e-07
1.98951e-06
4.57024e-06
8.89642e-06
1.61127e-05
2.80714e-05
4.77297e-05
7.97325e-05
0.000131243
0.000213071
0.000341122
0.000538107
0.000835298
0.0012739
0.00190533
0.00278954
0.00399079
0.00557088
0.00758121
0.0100557
0.013007
0.0164257
0.0202839
0.0245391
0.0291394
0.034027
0.0391422
0.0444252
0.0498183
0.0552671
0.0607215
0.0661363
0.0714718
0.0766939
0.081774
0.0866884
0.0914179
0.0959477
0.100267
0.104369
0.108251
0.11191
0.115347
0.118567
0.121571
0.124364
0.126952
0.129338
0.131528
0.133522
0.135323
0.136928
0.138334
0.139531
0.140505
0.141234
0.141681
0.141813
0.141574
0.14088
0.139638
0.12958
0.118288
0.107003
0.0958911
0.0850819
0.0746774
0.0647595
0.055395
0.0466405
0.0385458
0.0311565
0.0245147
0.0186731
0.0136754
0.00955413
0.00632052
0.00393965
0.00231234
0.00128342
0.000678515
0.000344302
0.000168759
8.0823e-05
3.79419e-05
1.74787e-05
7.92009e-06
3.5359e-06
1.5574e-06
6.77576e-07
2.91523e-07
1.24169e-07
5.24062e-08
2.19289e-08
9.09327e-09
3.72604e-09
1.49497e-09
5.71818e-10
1.90922e-10
3.34475e-11
4.5573e-07
1.99171e-06
4.5753e-06
8.90627e-06
1.61305e-05
2.81025e-05
4.77825e-05
7.98204e-05
0.000131386
0.0002133
0.000341482
0.000538658
0.000836121
0.00127509
0.001907
0.0027918
0.00399373
0.00557453
0.00758554
0.0100607
0.0130123
0.0164311
0.020289
0.0245437
0.029143
0.0340293
0.039143
0.0444241
0.049815
0.0552615
0.0607134
0.0661257
0.0714588
0.0766785
0.0817564
0.0866688
0.0913966
0.095925
0.100243
0.104345
0.108226
0.111885
0.115323
0.118543
0.121549
0.124345
0.126935
0.129325
0.131519
0.133518
0.135324
0.136935
0.138348
0.139552
0.140533
0.141269
0.141723
0.141859
0.141623
0.140929
0.13968
0.130017
0.118743
0.10746
0.0963399
0.0855161
0.0750925
0.0651521
0.0557627
0.0469811
0.0388576
0.0314381
0.0247644
0.0188891
0.0138563
0.00969921
0.00643036
0.00401721
0.00236306
0.00131419
0.000696006
0.000353734
0.000173695
8.32068e-05
3.90155e-05
1.79701e-05
8.14427e-06
3.6367e-06
1.60196e-06
6.96955e-07
2.99836e-07
1.27695e-07
5.38861e-08
2.25442e-08
9.3467e-09
3.82922e-09
1.53618e-09
5.87537e-10
1.96164e-10
3.4366e-11
4.56388e-07
1.99458e-06
4.58191e-06
8.91915e-06
1.61539e-05
2.81433e-05
4.78518e-05
7.99358e-05
0.000131575
0.000213603
0.000341958
0.000539389
0.000837216
0.00127669
0.00190925
0.00279486
0.00399771
0.00557952
0.00759152
0.0100675
0.0130197
0.0164388
0.0202966
0.0245507
0.0291489
0.0340337
0.0391454
0.0444242
0.0498124
0.0552559
0.0607046
0.0661136
0.0714433
0.0766598
0.0817345
0.0866441
0.0913692
0.0958952
0.100212
0.104312
0.108191
0.11185
0.115288
0.118509
0.121516
0.124314
0.126907
0.1293
0.131498
0.133502
0.135314
0.136931
0.13835
0.139561
0.140549
0.141292
0.141751
0.141889
0.14165
0.140941
0.139655
0.130581
0.119318
0.108036
0.0969061
0.0860647
0.0756178
0.06565
0.0562298
0.0474148
0.0392553
0.0317977
0.0250838
0.019166
0.0140887
0.00988597
0.00657226
0.00411791
0.00242942
0.00135508
0.000720099
0.000366547
0.00017972
8.60281e-05
4.03694e-05
1.86061e-05
8.43544e-06
3.76724e-06
1.65951e-06
7.2197e-07
3.10574e-07
1.32252e-07
5.58015e-08
2.3342e-08
9.67605e-09
3.96364e-09
1.5899e-09
6.08031e-10
2.03003e-10
3.55631e-11
4.57217e-07
1.99821e-06
4.59024e-06
8.9354e-06
1.61834e-05
2.81949e-05
4.79397e-05
8.00825e-05
0.000131816
0.00021399
0.000342568
0.00054033
0.000838631
0.00127876
0.00191218
0.00279886
0.00400298
0.00558617
0.00759956
0.0100768
0.01303
0.0164497
0.0203076
0.0245611
0.0291583
0.0340415
0.0391508
0.0444269
0.0498119
0.0552517
0.0606965
0.0661014
0.0714268
0.0766391
0.0817096
0.0866152
0.0913367
0.0958594
0.100173
0.10427
0.108148
0.111806
0.115243
0.118464
0.121472
0.124271
0.126867
0.129263
0.131465
0.133474
0.135291
0.136915
0.138341
0.13956
0.140556
0.141307
0.141775
0.14192
0.141688
0.140984
0.139699
0.131279
0.12003
0.108748
0.0976031
0.0867393
0.0762641
0.0662633
0.056806
0.0479504
0.039747
0.0322426
0.0254793
0.0195091
0.014377
0.0101182
0.00674928
0.0042441
0.00251316
0.00140719
0.000747766
0.000380428
0.000186829
8.9574e-05
4.20724e-05
1.94005e-05
8.79815e-06
3.92989e-06
1.73127e-06
7.53185e-07
3.23978e-07
1.37944e-07
5.81945e-08
2.43392e-08
1.00879e-08
4.13182e-09
1.65721e-09
6.33728e-10
2.11581e-10
3.7065e-11
4.58236e-07
2.00266e-06
4.60048e-06
8.9554e-06
1.62198e-05
2.82586e-05
4.80484e-05
8.02646e-05
0.000132115
0.000214473
0.000343332
0.000541514
0.000840419
0.00128138
0.00191592
0.00280401
0.0040098
0.00559486
0.00761016
0.0100892
0.0130439
0.0164647
0.020323
0.0245764
0.0291726
0.034054
0.039161
0.0444339
0.0498153
0.055251
0.0606911
0.0660909
0.0714112
0.0766181
0.0816835
0.0865839
0.0913006
0.0958189
0.100128
0.104223
0.108098
0.111753
0.115189
0.118409
0.121417
0.124217
0.126815
0.129214
0.131419
0.133432
0.135255
0.136886
0.138319
0.139546
0.140551
0.141312
0.141789
0.141945
0.141721
0.141024
0.139737
0.132118
0.120878
0.109588
0.0984374
0.0875528
0.0770431
0.0670039
0.0575035
0.0485997
0.0403433
0.0327821
0.0259591
0.0199253
0.0147271
0.0104007
0.00696525
0.00439896
0.00261724
0.00146583
0.000779683
0.000397862
0.00019588
9.40043e-05
4.41798e-05
2.03808e-05
9.24522e-06
4.13018e-06
1.81959e-06
7.91571e-07
3.40452e-07
1.44935e-07
6.11323e-08
2.55629e-08
1.05932e-08
4.33811e-09
1.73976e-09
6.65264e-10
2.22108e-10
3.89088e-11
4.59458e-07
2.008e-06
4.61279e-06
8.97948e-06
1.62637e-05
2.83355e-05
4.81801e-05
8.04857e-05
0.00013248
0.000215064
0.000344272
0.000542975
0.000842638
0.00128466
0.00192062
0.00281052
0.00401849
0.00560602
0.00762392
0.0101055
0.0130625
0.0164849
0.0203444