/*--------------------------------*- C++ -*----------------------------------*\
  =========                 |
  \\      /  F ield         | OpenFOAM: The Open Source CFD Toolbox
   \\    /   O peration     | Website:  https://openfoam.org
    \\  /    A nd           | Version:  8
     \\/     M anipulation  |
\*---------------------------------------------------------------------------*/
FoamFile
{
    version     2.0;
    format      ascii;
    class       volScalarField;
    location    "560/fluid";
    object      H2O;
}
// * * * * * * * * * * * * * * * * * * * * * * * * * * * * * * * * * * * * * //

dimensions      [0 0 0 0 0 0 0];

internalField   nonuniform List<scalar> 
4000
(
3.80329e-07
1.66177e-06
3.81576e-06
7.42462e-06
1.34446e-05
2.34307e-05
3.98813e-05
6.67544e-05
0.000110213
0.000179661
0.000289089
0.000458697
0.000716562
0.00109991
0.00165524
0.00243639
0.00349998
0.00489857
0.00667295
0.00884596
0.0114199
0.0143775
0.0176862
0.0213023
0.0251761
0.0292553
0.033488
0.0378241
0.0422168
0.0466236
0.0510062
0.0553315
0.0595711
0.0637015
0.0677037
0.0715629
0.0752672
0.0788086
0.0821818
0.0853843
0.0884154
0.0912764
0.0939699
0.0964994
0.0988692
0.101084
0.103148
0.105066
0.106842
0.10848
0.109979
0.111342
0.112566
0.113645
0.11457
0.115329
0.1159
0.116251
0.11635
0.116146
0.115564
0.114511
0.112885
0.104258
0.095469
0.086672
0.0779857
0.0695025
0.0612957
0.0534249
0.0459399
0.0388846
0.0323002
0.0262554
0.0207316
0.0158132
0.0115531
0.00800351
0.00520369
0.00315108
0.00177365
0.00093254
0.000462319
0.000219697
0.000101407
4.57417e-05
2.02516e-05
8.82933e-06
3.8003e-06
1.61814e-06
6.82739e-07
2.85854e-07
1.18892e-07
4.91495e-08
2.01853e-08
8.21145e-09
3.27852e-09
1.2508e-09
4.17576e-10
7.3196e-11
3.81763e-07
1.66852e-06
3.83341e-06
7.46468e-06
1.3529e-05
2.35978e-05
4.01937e-05
6.73044e-05
0.00011112
0.000181043
0.000290973
0.000460875
0.00071834
0.00109978
0.00165059
0.00242327
0.00347314
0.00485204
0.00660094
0.008744
0.0112856
0.0142111
0.0174901
0.0210809
0.0249352
0.0290012
0.0332272
0.0375625
0.0419599
0.0463758
0.0507714
0.0551124
0.0593697
0.063519
0.0675409
0.0714198
0.0751436
0.0787038
0.0820949
0.0853141
0.0883607
0.0912359
0.0939422
0.0964832
0.0988634
0.101087
0.103159
0.105083
0.106865
0.108506
0.11001
0.111375
0.1126
0.11368
0.114605
0.115362
0.115929
0.116273
0.116359
0.11613
0.115504
0.114365
0.112244
0.103517
0.0946588
0.0858111
0.0770868
0.068575
0.0603474
0.0524634
0.0449733
0.0379224
0.0313538
0.0253427
0.0198684
0.0150235
0.0108627
0.00743692
0.004777
0.00286271
0.0016013
0.000841593
0.000419553
0.000201038
9.3721e-05
4.27145e-05
1.90981e-05
8.39927e-06
3.64158e-06
1.55949e-06
6.6082e-07
2.775e-07
1.15632e-07
4.78495e-08
1.96586e-08
7.99705e-09
3.19231e-09
1.21765e-09
4.06437e-10
7.1258e-11
3.8416e-07
1.6793e-06
3.85938e-06
7.51796e-06
1.36296e-05
2.37767e-05
4.0494e-05
6.77796e-05
0.000111824
0.000182013
0.00029223
0.00046232
0.00071961
0.00110001
0.00164795
0.0024149
0.00345516
0.00481969
0.00654906
0.00866775
0.0111812
0.0140763
0.0173247
0.0208866
0.0247154
0.0287608
0.0329715
0.0372976
0.0416916
0.0461098
0.0505125
0.0548651
0.0591375
0.0633047
0.0673465
0.0712466
0.0749924
0.0785746
0.0819875
0.0852277
0.0882943
0.0911883
0.0939123
0.0964695
0.0988636
0.1011
0.103182
0.105117
0.106906
0.108554
0.110062
0.111432
0.112659
0.113741
0.114666
0.115422
0.115988
0.116329
0.116412
0.116182
0.115558
0.114433
0.110991
0.102205
0.0932966
0.0844116
0.0756628
0.0671398
0.0589154
0.0510495
0.0435941
0.036596
0.0301003
0.0241756
0.018821
0.0141197
0.0101217
0.00686938
0.00437825
0.0026093
0.0014562
0.000766074
0.000383279
0.00018447
8.64281e-05
3.95953e-05
1.77943e-05
7.86378e-06
3.42443e-06
1.47214e-06
6.2581e-07
2.63468e-07
1.09993e-07
4.55749e-08
1.87386e-08
7.62562e-09
3.04433e-09
1.16113e-09
3.87502e-10
6.79299e-11
3.85216e-07
1.68386e-06
3.86968e-06
7.53743e-06
1.36631e-05
2.383e-05
4.05722e-05
6.788e-05
0.000111921
0.000182016
0.000291889
0.000461144
0.00071675
0.00109413
0.00163725
0.00239691
0.00342681
0.00477753
0.00648963
0.00858801
0.011079
0.0139505
0.0171755
0.0207154
0.0245244
0.0285533
0.0327514
0.0370692
0.0414595
0.0458784
0.0502861
0.0546476
0.0589323
0.0631148
0.0671739
0.0710931
0.074859
0.078462
0.0818956
0.0851562
0.0882427
0.0911562
0.0938977
0.0964706
0.0988793
0.101128
0.103223
0.105166
0.106964
0.108619
0.110132
0.111504
0.112734
0.113815
0.11474
0.115493
0.116054
0.116388
0.116462
0.116219
0.11558
0.114433
0.109378
0.100571
0.091644
0.0827473
0.0739985
0.0654899
0.0572959
0.0494782
0.0420897
0.0351785
0.0287908
0.0229695
0.0177622
0.013222
0.00939472
0.00631555
0.00398761
0.00235737
0.00130818
0.000686312
0.000343353
0.000165563
7.77961e-05
3.57655e-05
1.61341e-05
7.15792e-06
3.12911e-06
1.35018e-06
5.75942e-07
2.43228e-07
1.0182e-07
4.22857e-08
1.74194e-08
7.09961e-09
2.83765e-09
1.08318e-09
3.61642e-10
6.34102e-11
3.85339e-07
1.68436e-06
3.87067e-06
7.53879e-06
1.36637e-05
2.38257e-05
4.05509e-05
6.78128e-05
0.000111744
0.000181607
0.000291026
0.000459439
0.000713554
0.00108843
0.00162757
0.00238124
0.00340266
0.00474209
0.0064401
0.00852195
0.0109946
0.0138471
0.0170531
0.0205751
0.0243683
0.028384
0.0325722
0.0368836
0.0412712
0.045691
0.0501033
0.0544726
0.058768
0.0629636
0.067038
0.0709739
0.0747576
0.0783789
0.0818313
0.085111
0.0882159
0.0911457
0.0939027
0.0964902
0.0989122
0.101173
0.103277
0.10523
0.107034
0.108694
0.11021
0.111584
0.112813
0.113892
0.114811
0.115557
0.116108
0.116428
0.116486
0.116223
0.115555
0.114374
0.107632
0.098834
0.0899104
0.0810208
0.0722886
0.0638104
0.0556628
0.0479084
0.0406007
0.0337875
0.0275247
0.0218322
0.0167718
0.012391
0.00873057
0.00581726
0.00364195
0.00213799
0.00118089
0.000618203
0.000309282
0.00014935
7.03287e-05
3.24125e-05
1.46589e-05
6.51965e-06
2.85676e-06
1.2353e-06
5.27954e-07
2.23339e-07
9.36303e-08
3.89326e-08
1.60544e-08
6.54855e-09
2.61897e-09
1.00009e-09
3.33939e-10
5.85544e-11
3.84516e-07
1.68066e-06
3.86174e-06
7.52013e-06
1.36268e-05
2.37548e-05
4.04166e-05
6.75621e-05
0.000111284
0.000180775
0.000289555
0.0004569
0.000709293
0.0010815
0.00161666
0.00236471
0.00337857
0.00470838
0.00639482
0.0084635
0.010922
0.0137598
0.0169516
0.0204605
0.0242423
0.0282487
0.0324302
0.0367377
0.0411243
0.0455462
0.0499633
0.05434
0.0586452
0.0628526
0.0669403
0.0708909
0.0746902
0.078328
0.0817971
0.0850925
0.088212
0.0911563
0.093927
0.096527
0.0989603
0.101231
0.103344
0.105303
0.107112
0.108774
0.110292
0.111664
0.112889
0.113961
0.11487
0.115602
0.116136
0.116434
0.116467
0.116175
0.115474
0.11427
0.105962
0.0971992
0.0882775
0.0793886
0.0706695
0.0622213
0.0541219
0.0464335
0.0392085
0.0324936
0.0263555
0.0207885
0.0158687
0.0116389
0.00813434
0.00537321
0.00333549
0.00194365
0.00106761
0.000556941
0.000278165
0.000134323
6.33047e-05
2.92152e-05
1.32355e-05
5.89774e-06
2.58938e-06
1.1219e-06
4.80399e-07
2.03583e-07
8.54855e-08
3.55963e-08
1.46963e-08
6.00046e-09
2.40153e-09
9.17485e-10
3.064e-10
5.3727e-11
3.83201e-07
1.67484e-06
3.84806e-06
7.49262e-06
1.35749e-05
2.366e-05
4.02468e-05
6.72623e-05
0.000110761
0.000179877
0.000288037
0.000454381
0.000705204
0.00107503
0.00160673
0.00234995
0.00335744
0.00467925
0.00635622
0.0084143
0.0108615
0.0136881
0.0168692
0.0203684
0.024142
0.0281422
0.0323196
0.0366254
0.0410127
0.0454376
0.0498599
0.054244
0.0585584
0.0627765
0.0668762
0.07084
0.0746535
0.0783053
0.0817875
0.0850958
0.0882283
0.0911849
0.093967
0.0965774
0.0990196
0.101298
0.103417
0.10538
0.107192
0.108855
0.110371
0.111738
0.112956
0.114016
0.114909
0.11562
0.116124
0.116383
0.116372
0.116023
0.115262
0.114018
0.105108
0.0960282
0.0869374
0.0779668
0.0692214
0.0607849
0.0527249
0.0450974
0.0379499
0.0313257
0.0252924
0.0198383
0.0150517
0.0109666
0.00760854
0.00498631
0.00307139
0.00177776
0.000971553
0.000505176
0.000251868
0.000121584
5.73185e-05
2.64712e-05
1.20038e-05
5.35483e-06
2.35381e-06
1.02108e-06
4.37756e-07
1.85727e-07
7.80724e-08
3.25414e-08
1.34465e-08
5.49394e-09
2.1999e-09
8.40686e-10
2.80755e-10
4.92272e-11
3.81663e-07
1.66807e-06
3.83227e-06
7.46121e-06
1.35165e-05
2.35548e-05
4.00617e-05
6.69413e-05
0.000110213
0.000178954
0.000286508
0.000451899
0.000701265
0.00106894
0.00159757
0.00233664
0.00333875
0.00465399
0.00632333
0.00837306
0.0108116
0.0136298
0.016803
0.0202954
0.0240636
0.02806
0.0322354
0.0365412
0.0409303
0.045359
0.049787
0.0541782
0.0585012
0.0627292
0.06684
0.0708155
0.0746402
0.0783032
0.081797
0.0851168
0.0882602
0.0912269
0.0940181
0.0966367
0.0990859
0.10137
0.103493
0.105459
0.107272
0.108933
0.110445
0.111807
0.113014
0.11406
0.114933
0.115614
0.116075
0.116274
0.116172
0.115686
0.114709
0.113123
0.104035
0.0948257
0.0856558
0.0766479
0.0678989
0.059486
0.0514718
0.0439083
0.0368402
0.0303078
0.0243737
0.0190417
0.014368
0.0103955
0.00715842
0.00465642
0.00284699
0.00163708
0.000890054
0.000461107
0.000229356
0.000110614
5.2132e-05
2.40798e-05
1.09246e-05
4.87684e-06
2.14553e-06
9.31606e-07
3.99792e-07
1.69787e-07
7.14395e-08
2.98027e-08
1.23242e-08
5.03851e-09
2.01841e-09
7.71495e-10
2.57636e-10
4.51694e-11
3.80101e-07
1.66122e-06
3.81638e-06
7.42981e-06
1.34585e-05
2.34516e-05
3.98819e-05
6.66334e-05
0.000109693
0.000178091
0.0002851
0.000449645
0.000697736
0.00106355
0.00158959
0.00232517
0.00332285
0.00463274
0.006296
0.00833919
0.0107711
0.013583
0.0167505
0.0202383
0.0240032
0.0279976
0.0321727
0.0364796
0.0408715
0.0453045
0.0497381
0.0541363
0.0584675
0.0627047
0.066825
0.0708097
0.0746442
0.0783173
0.081821
0.0851502
0.0883025
0.0912773
0.0940759
0.0967007
0.0991551
0.101443
0.103569
0.105536
0.107348
0.109008
0.110516
0.111872
0.11307
0.114104
0.11496
0.115619
0.116049
0.11621
0.116054
0.115492
0.114407
0.112105
0.102915
0.093642
0.0844392
0.0754247
0.0666917
0.0583139
0.0503516
0.0428552
0.0358695
0.0294378
0.0236138
0.0184036
0.0138347
0.00994441
0.00678929
0.00437909
0.00265808
0.0015187
0.000821511
0.000424033
0.00021039
0.00010135
4.77392e-05
2.20477e-05
1.00042e-05
4.46766e-06
1.96657e-06
8.54448e-07
3.66941e-07
1.55951e-07
6.56652e-08
2.74126e-08
1.13427e-08
4.63949e-09
1.85917e-09
7.10721e-10
2.37321e-10
4.15999e-11
3.78622e-07
1.65474e-06
3.80138e-06
7.4003e-06
1.34043e-05
2.33556e-05
3.97156e-05
6.63505e-05
0.00010922
0.000177311
0.000283839
0.000447647
0.000694639
0.00105887
0.00158273
0.00231544
0.0033095
0.00461511
0.00627359
0.00831176
0.0107387
0.013546
0.0167097
0.0201945
0.0239575
0.0279514
0.0321271
0.036436
0.0408313
0.0452687
0.049708
0.0541129
0.0584516
0.0626963
0.0668245
0.0708178
0.074661
0.0783426
0.0818545
0.0851915
0.0883509
0.0913321
0.0941363
0.0967657
0.0992239
0.101514
0.103642
0.105609
0.107421
0.109078
0.110583
0.111933
0.113124
0.114149
0.114995
0.115642
0.116059
0.116209
0.116045
0.115488
0.114434
0.110986
0.101781
0.0925029
0.083306
0.0743092
0.0656062
0.0572706
0.049362
0.0419304
0.0350208
0.0286747
0.0229188
0.0177698
0.0132974
0.00953629
0.00648553
0.00414603
0.00249717
0.00141794
0.000763286
0.000392586
0.000194311
9.3497e-05
4.40125e-05
2.03215e-05
9.22125e-06
4.11896e-06
1.81378e-06
7.88459e-07
3.38795e-07
1.44076e-07
6.07027e-08
2.53557e-08
1.0497e-08
4.29533e-09
1.7217e-09
6.58227e-10
2.19771e-10
3.85131e-11
3.77285e-07
1.64888e-06
3.78787e-06
7.37378e-06
1.33558e-05
2.32699e-05
3.95681e-05
6.61009e-05
0.000108804
0.000176632
0.000282748
0.00044593
0.000692
0.00105492
0.00157698
0.00230735
0.00329852
0.00460075
0.00625553
0.00828988
0.0107132
0.0135173
0.0166784
0.0201615
0.0239238
0.0279179
0.0320951
0.0364065
0.0408053
0.0452472
0.049692
0.0541029
0.0584478
0.0626993
0.0668348
0.0708355
0.074686
0.0783747
0.0818933
0.0852365
0.0884015
0.0913877
0.094196
0.0968288
0.0992894
0.101582
0.103709
0.105676
0.107486
0.109141
0.110642
0.111987
0.113172
0.11419
0.115028
0.115667
0.116075
0.116217
0.116048
0.115489
0.114437
0.109924
0.10072
0.0914527
0.0822758
0.0733086
0.0646442
0.0563571
0.0485046
0.0411355
0.0342914
0.0279946
0.0222799
0.0172056
0.0128105
0.00912618
0.00617217
0.00394017
0.00235548
0.00133056
0.000713412
0.000365888
0.000180739
8.68865e-05
4.08798e-05
1.88709e-05
8.56301e-06
3.82556e-06
1.68508e-06
7.32792e-07
3.15017e-07
1.3403e-07
5.64978e-08
2.36104e-08
9.77855e-09
4.00267e-09
1.60473e-09
6.13531e-10
2.04827e-10
3.58868e-11
3.76116e-07
1.64377e-06
3.77607e-06
7.35067e-06
1.33136e-05
2.31957e-05
3.94406e-05
6.58863e-05
0.000108449
0.000176054
0.000281824
0.000444485
0.000689794
0.00105164
0.00157225
0.00230075
0.00328963
0.00458924
0.00624118
0.00827271
0.0106934
0.0134953
0.0166549
0.0201372
0.0238994
0.0278945
0.0320735
0.0363876
0.0407899
0.0452363
0.0496858
0.0541018
0.0584525
0.0627101
0.0668519
0.0708588
0.0747153
0.0784098
0.0819338
0.0852819
0.0884513
0.0914411
0.0942524
0.0968875
0.0993495
0.101642
0.10377
0.105736
0.107544
0.109195
0.110692
0.112032
0.113212
0.114223
0.115053
0.115684
0.116083
0.116218
0.116043
0.115478
0.114425
0.108977
0.0997775
0.0905245
0.0813722
0.0724423
0.063824
0.0555783
0.0477647
0.0404307
0.0336153
0.0273684
0.0217232
0.0167211
0.0124003
0.00879153
0.00591249
0.00374895
0.00223585
0.00125626
0.000671448
0.000343627
0.000169477
8.14109e-05
3.82859e-05
1.76693e-05
8.01715e-06
3.58192e-06
1.57802e-06
6.86408e-07
2.95169e-07
1.25629e-07
5.29758e-08
2.21464e-08
9.17522e-09
3.7567e-09
1.50639e-09
5.75985e-10
1.92299e-10
3.36883e-11
3.75119e-07
1.63941e-06
3.76603e-06
7.33105e-06
1.32778e-05
2.3133e-05
3.93333e-05
6.5706e-05
0.000108152
0.000175572
0.000281059
0.000443294
0.000687986
0.00104897
0.00156842
0.00229544
0.00328255
0.00458014
0.00622997
0.00825944
0.0106783
0.0134788
0.0166375
0.0201196
0.0238824
0.0278787
0.0320597
0.0363766
0.0407823
0.0452324
0.0496861
0.054107
0.0584626
0.0627255
0.0668725
0.0708845
0.0747461
0.0784452
0.0819734
0.0853253
0.0884979
0.0914903
0.0943036
0.09694
0.0994026
0.101695
0.103822
0.105786
0.107591
0.10924
0.110732
0.112067
0.11324
0.114245
0.115068
0.115691
0.116082
0.116209
0.116026
0.115455
0.114402
0.108166
0.0989637
0.0897208
0.0805918
0.0716805
0.0630761
0.0548569
0.0470789
0.0397893
0.0330297
0.0268393
0.0212532
0.0163133
0.0120574
0.00851534
0.00570267
0.00360158
0.00214283
0.00120013
0.000638361
0.000325749
0.000160377
7.69663e-05
3.61724e-05
1.66869e-05
7.56959e-06
3.38163e-06
1.48981e-06
6.48109e-07
2.7875e-07
1.18668e-07
5.00532e-08
2.09301e-08
8.67337e-09
3.55192e-09
1.42447e-09
5.447e-10
1.81859e-10
3.18568e-11
3.7429e-07
1.63578e-06
3.75769e-06
7.31476e-06
1.32482e-05
2.30811e-05
3.92447e-05
6.55578e-05
0.000107908
0.000175178
0.000280436
0.00044233
0.000686529
0.00104683
0.00156537
0.00229125
0.003277
0.00457307
0.00622134
0.00824934
0.010667
0.0134666
0.016625
0.0201073
0.0238708
0.0278686
0.0320516
0.036371
0.0407797
0.0452332
0.0496907
0.0541157
0.0584756
0.0627428
0.0668941
0.0709102
0.0747757
0.0784784
0.0820099
0.0853646
0.0885394
0.0915337
0.0943481
0.096985
0.0994475
0.101739
0.103864
0.105826
0.107629
0.109273
0.110761
0.112091
0.113258
0.114256
0.115072
0.115687
0.11607
0.116189
0.115999
0.115423
0.11437
0.107479
0.0982697
0.0890329
0.0799084
0.0710142
0.0624381
0.0542503
0.0465077
0.0392575
0.0325414
0.0263974
0.0208603
0.0159724
0.0117707
0.008284
0.0055258
0.00347476
0.0020576
0.00115212
0.00061222
0.000311469
0.000152963
7.33375e-05
3.44463e-05
1.5884e-05
7.20342e-06
3.21758e-06
1.41748e-06
6.1667e-07
2.65258e-07
1.12942e-07
4.7647e-08
1.99278e-08
8.25955e-09
3.38297e-09
1.35685e-09
5.18871e-10
1.73237e-10
3.03466e-11
3.73616e-07
1.63284e-06
3.75091e-06
7.30154e-06
1.32242e-05
2.30391e-05
3.91732e-05
6.54384e-05
0.000107712
0.000174864
0.00027994
0.000441565
0.000685379
0.00104515
0.00156299
0.00228799
0.00327272
0.00456767
0.00621481
0.0082418
0.0106587
0.0134578
0.0166161
0.0200988
0.0238633
0.0278624
0.0320473
0.0363689
0.0407802
0.0452367
0.0496975
0.0541258
0.0584893
0.06276
0.0669146
0.070934
0.0748025
0.0785079
0.0820417
0.0853983
0.0885747
0.09157
0.0943849
0.0970217
0.0994836
0.101774
0.103897
0.105857
0.107656
0.109297
0.11078
0.112104
0.113266
0.114257
0.115066
0.115675
0.11605
0.116163
0.115968
0.115387
0.114334
0.106907
0.0976863
0.0884495
0.0793375
0.0704616
0.0619087
0.053748
0.0460357
0.0388188
0.0321387
0.026033
0.0205364
0.0156914
0.0115346
0.0080938
0.00538083
0.00337142
0.00198903
0.00110944
0.000589563
0.0003001
0.000147138
7.04297e-05
3.30503e-05
1.5233e-05
6.90629e-06
3.08435e-06
1.35869e-06
5.91104e-07
2.54279e-07
1.0828e-07
4.5687e-08
1.91111e-08
7.92221e-09
3.24521e-09
1.30172e-09
4.97823e-10
1.66211e-10
2.91166e-11
3.73082e-07
1.6305e-06
3.74555e-06
7.29108e-06
1.32052e-05
2.3006e-05
3.9117e-05
6.53447e-05
0.000107559
0.000174618
0.000279553
0.000440971
0.000684489
0.00104386
0.00156117
0.00228552
0.00326948
0.00456363
0.00620997
0.00823627
0.0106527
0.0134516
0.01661
0.0200932
0.0238585
0.0278589
0.0320454
0.036369
0.0407825
0.0452414
0.0497049
0.0541359
0.0585021
0.0627754
0.0669326
0.0709544
0.0748251
0.0785324
0.0820678
0.0854256
0.0886029
0.0915985
0.0944135
0.0970498
0.0995105
0.101799
0.10392
0.105877
0.107673
0.10931
0.110788
0.112108
0.113264
0.11425
0.115053
0.115655
0.116027
0.116139
0.115946
0.115378
0.114355
0.106445
0.0972155
0.0879775
0.0788737
0.0700123
0.0614784
0.0533402
0.0456531
0.0384636
0.0318129
0.0257385
0.0202748
0.0154647
0.0113443
0.00794085
0.00526461
0.00328895
0.00193468
0.00107595
0.000569832
0.000289605
0.000142196
6.80929e-05
3.19366e-05
1.47112e-05
6.66766e-06
2.97741e-06
1.31156e-06
5.70614e-07
2.45484e-07
1.04547e-07
4.41182e-08
1.84576e-08
7.65245e-09
3.13511e-09
1.25772e-09
4.81036e-10
1.60609e-10
2.81361e-11
3.72673e-07
1.62872e-06
3.74145e-06
7.2831e-06
1.31907e-05
2.29808e-05
3.90742e-05
6.52735e-05
0.000107443
0.000174432
0.000279262
0.000440525
0.000683823
0.00104289
0.00155982
0.00228369
0.00326711
0.00456068
0.00620648
0.00823232
0.0106484
0.0134473
0.0166059
0.0200896
0.0238557
0.0278572
0.0320449
0.0363701
0.0407853
0.0452462
0.0497116
0.0541447
0.0585129
0.0627882
0.0669472
0.0709706
0.0748426
0.0785512
0.0820875
0.085446
0.0886236
0.0916192
0.0944336
0.0970691
0.0995285
0.101816
0.103934
0.105888
0.10768
0.109313
0.110787
0.112102
0.113253
0.114233
0.11503
0.115627
0.115993
0.116101
0.115906
0.115338
0.11432
0.106087
0.0968422
0.0876032
0.078506
0.0696565
0.0611384
0.0530186
0.045352
0.0381846
0.0315575
0.0255079
0.0200702
0.0152877
0.0111961
0.00782202
0.00517465
0.00322543
0.00189313
0.00105075
0.000555512
0.000281892
0.000138181
6.6204e-05
3.10707e-05
1.43115e-05
6.48461e-06
2.89496e-06
1.27508e-06
5.54747e-07
2.38676e-07
1.0166e-07
4.29061e-08
1.79536e-08
7.44486e-09
3.05059e-09
1.22396e-09
4.68161e-10
1.56312e-10
2.73843e-11
3.72379e-07
1.62743e-06
3.7385e-06
7.27734e-06
1.31803e-05
2.29627e-05
3.90434e-05
6.52223e-05
0.000107359
0.000174299
0.000279053
0.000440206
0.00068335
0.00104221
0.00155886
0.0022824
0.00326545
0.00455863
0.00620407
0.00822962
0.0106456
0.0134444
0.0166032
0.0200873
0.0238541
0.0278564
0.0320451
0.0363714
0.040788
0.0452502
0.0497171
0.0541515
0.0585211
0.0627976
0.0669577
0.070982
0.0748549
0.078564
0.0821008
0.0854595
0.0886369
0.0916322
0.0944459
0.0970802
0.0995382
0.101823
0.10394
0.105891
0.10768
0.109309
0.110779
0.112088
0.113234
0.114208
0.115
0.115591
0.115953
0.116057
0.115861
0.115296
0.114289
0.105823
0.0965634
0.0873213
0.0782285
0.0693882
0.0608826
0.0527774
0.0451268
0.0379767
0.0313677
0.025337
0.0199189
0.0151571
0.011087
0.00773482
0.00510887
0.00317917
0.001863
0.00103252
0.000545189
0.000276353
0.000135325
6.47632e-05
3.03825e-05
1.40036e-05
6.34866e-06
2.83494e-06
1.24881e-06
5.43373e-07
2.33807e-07
9.95973e-08
4.20406e-08
1.75934e-08
7.29625e-09
2.98997e-09
1.19972e-09
4.58905e-10
1.53224e-10
2.68431e-11
3.72188e-07
1.6266e-06
3.73659e-06
7.27362e-06
1.31735e-05
2.29509e-05
3.90235e-05
6.51893e-05
0.000107306
0.000174213
0.00027892
0.000440002
0.000683047
0.00104177
0.00155825
0.00228159
0.0032644
0.00455734
0.00620256
0.00822795
0.0106438
0.0134427
0.0166017
0.020086
0.0238532
0.0278561
0.0320455
0.0363726
0.04079
0.0452531
0.0497208
0.0541561
0.0585264
0.0628036
0.0669642
0.0709889
0.074862
0.0785713
0.0821081
0.0854666
0.0886438
0.0916385
0.0944514
0.0970847
0.0995413
0.101825
0.103939
0.105888
0.107674
0.109299
0.110765
0.112071
0.113212
0.114181
0.114968
0.115555
0.115912
0.116014
0.115819
0.115259
0.114267
0.105648
0.096374
0.0871279
0.0780377
0.0692043
0.060708
0.0526137
0.0449748
0.037837
0.0312407
0.0252231
0.0198186
0.0150708
0.0110151
0.00767765
0.00506596
0.00314916
0.00184355
0.00102079
0.000538539
0.000272789
0.000133529
6.38855e-05
2.99623e-05
1.38039e-05
6.25741e-06
2.79499e-06
1.23153e-06
5.35952e-07
2.30649e-07
9.82659e-08
4.14839e-08
1.73624e-08
7.20105e-09
2.95115e-09
1.18419e-09
4.52975e-10
1.51245e-10
2.64961e-11
3.72097e-07
1.6262e-06
3.73567e-06
7.27184e-06
1.31703e-05
2.29453e-05
3.9014e-05
6.51737e-05
0.00010728
0.000174172
0.000278856
0.000439906
0.000682904
0.00104156
0.00155797
0.0022812
0.00326391
0.00455674
0.00620186
0.00822717
0.010643
0.0134419
0.016601
0.0200855
0.0238529
0.027856
0.0320457
0.0363732
0.040791
0.0452545
0.0497226
0.0541584
0.058529
0.0628065
0.0669673
0.070992
0.0748649
0.078574
0.0821107
0.085469
0.0886459
0.0916401
0.0944525
0.097085
0.0995407
0.101823
0.103936
0.105883
0.107667
0.10929
0.110754
0.112056
0.113194
0.11416
0.114943
0.115526
0.115881
0.115982
0.115787
0.115233
0.114254
0.105562
0.0962746
0.0870249
0.0779363
0.0691074
0.060617
0.0525292
0.0448972
0.0377664
0.0311771
0.0251667
0.0197693
0.0150288
0.0109804
0.00765026
0.00504557
0.00313502
0.00183447
0.00101535
0.000535467
0.00027114
0.000132709
6.34878e-05
2.97729e-05
1.37152e-05
6.2165e-06
2.77628e-06
1.22323e-06
5.3236e-07
2.29117e-07
9.76198e-08
4.12138e-08
1.72503e-08
7.15494e-09
2.93235e-09
1.17668e-09
4.50102e-10
1.50285e-10
2.63278e-11
3.72099e-07
1.62621e-06
3.73569e-06
7.27189e-06
1.31704e-05
2.29455e-05
3.90143e-05
6.51741e-05
0.000107281
0.000174173
0.000278858
0.000439909
0.000682908
0.00104157
0.00155798
0.00228122
0.00326393
0.00455676
0.00620188
0.00822721
0.010643
0.013442
0.016601
0.0200855
0.0238529
0.027856
0.0320458
0.0363733
0.0407911
0.0452546
0.0497227
0.0541584
0.0585291
0.0628065
0.0669673
0.070992
0.0748649
0.0785741
0.0821107
0.0854691
0.0886459
0.0916402
0.0944525
0.0970851
0.0995407
0.101823
0.103936
0.105883
0.107667
0.10929
0.110754
0.112056
0.113194
0.11416
0.114943
0.115526
0.115881
0.115982
0.115787
0.115233
0.114254
0.105562
0.0962745
0.0870248
0.0779362
0.0691073
0.0606169
0.0525291
0.0448971
0.0377663
0.031177
0.0251666
0.0197693
0.0150287
0.0109804
0.00765024
0.00504556
0.00313502
0.00183446
0.00101534
0.000535465
0.000271139
0.000132709
6.34876e-05
2.97728e-05
1.37152e-05
6.21648e-06
2.77628e-06
1.22323e-06
5.32359e-07
2.29117e-07
9.76196e-08
4.12137e-08
1.72503e-08
7.15492e-09
2.93235e-09
1.17667e-09
4.501e-10
1.50285e-10
2.63277e-11
3.72195e-07
1.62663e-06
3.73666e-06
7.27376e-06
1.31738e-05
2.29514e-05
3.90242e-05
6.51905e-05
0.000107308
0.000174216
0.000278924
0.00044001
0.000683058
0.00104179
0.00155828
0.00228162
0.00326445
0.0045574
0.00620264
0.00822804
0.0106439
0.0134428
0.0166018
0.0200862
0.0238534
0.0278562
0.0320457
0.0363728
0.0407902
0.0452533
0.049721
0.0541563
0.0585266
0.0628038
0.0669644
0.0709891
0.0748621
0.0785714
0.0821082
0.0854668
0.0886439
0.0916386
0.0944515
0.0970848
0.0995414
0.101825
0.103939
0.105888
0.107674
0.109299
0.110766
0.112071
0.113212
0.114181
0.114968
0.115555
0.115912
0.116014
0.115819
0.115259
0.114266
0.105648
0.0963736
0.0871275
0.0780374
0.069204
0.0607078
0.0526134
0.0449746
0.0378368
0.0312405
0.025223
0.0198185
0.0150707
0.0110151
0.0076776
0.00506593
0.00314914
0.00184353
0.00102078
0.000538534
0.000272786
0.000133527
6.38847e-05
2.99618e-05
1.38037e-05
6.25733e-06
2.79496e-06
1.23152e-06
5.35949e-07
2.30648e-07
9.82652e-08
4.14835e-08
1.73622e-08
7.20099e-09
2.95112e-09
1.18418e-09
4.5297e-10
1.51243e-10
2.64957e-11
3.72391e-07
1.62748e-06
3.73862e-06
7.27757e-06
1.31807e-05
2.29634e-05
3.90446e-05
6.52244e-05
0.000107363
0.000174304
0.000279062
0.00044022
0.00068337
0.00104224
0.0015589
0.00228246
0.00326553
0.00455874
0.0062042
0.00822979
0.0106458
0.0134447
0.0166035
0.0200876
0.0238544
0.0278567
0.0320455
0.0363718
0.0407884
0.0452506
0.0497174
0.0541519
0.0585214
0.0627979
0.066958
0.0709823
0.0748552
0.0785643
0.0821011
0.0854597
0.0886372
0.0916324
0.0944461
0.0970804
0.0995384
0.101824
0.10394
0.105891
0.10768
0.109309
0.110779
0.112088
0.113234
0.114208
0.115
0.115591
0.115953
0.116057
0.115861
0.115296
0.114289
0.105822
0.0965628
0.0873207
0.0782279
0.0693877
0.0608821
0.052777
0.0451265
0.0379764
0.0313674
0.0253367
0.0199187
0.0151569
0.0110868
0.00773472
0.0051088
0.00317912
0.00186297
0.0010325
0.000545178
0.000276347
0.000135321
6.47596e-05
3.03807e-05
1.40029e-05
6.34842e-06
2.83486e-06
1.24877e-06
5.4336e-07
2.33802e-07
9.95951e-08
4.20397e-08
1.75931e-08
7.29608e-09
2.9899e-09
1.19969e-09
4.58894e-10
1.53221e-10
2.68424e-11
3.7269e-07
1.62879e-06
3.74162e-06
7.28342e-06
1.31913e-05
2.29818e-05
3.90759e-05
6.52763e-05
0.000107447
0.000174439
0.000279273
0.000440543
0.000683851
0.00104293
0.00155988
0.00228377
0.00326722
0.00456083
0.00620667
0.00823255
0.0106487
0.0134476
0.0166062
0.02009
0.0238561
0.0278576
0.0320454
0.0363706
0.0407858
0.0452467
0.0497121
0.0541452
0.0585134
0.0627887
0.0669476
0.070971
0.0748431
0.0785516
0.0820879
0.0854464
0.0886239
0.0916195
0.0944339
0.0970694
0.0995288
0.101816
0.103934
0.105888
0.10768
0.109313
0.110788
0.112102
0.113253
0.114233
0.11503
0.115627
0.115993
0.116101
0.115906
0.115338
0.11432
0.106086
0.0968413
0.0876024
0.0785052
0.0696558
0.0611377
0.053018
0.0453514
0.0381842
0.0315571
0.0255076
0.0200699
0.0152875
0.0111959
0.00782188
0.00517455
0.00322536
0.00189309
0.00105072
0.000555494
0.000281877
0.000138161
6.61691e-05
3.10627e-05
1.43096e-05
6.48411e-06
2.89481e-06
1.27503e-06
5.54725e-07
2.38667e-07
1.01656e-07
4.29045e-08
1.7953e-08
7.44458e-09
3.05048e-09
1.22392e-09
4.68143e-10
1.56306e-10
2.73831e-11
3.73102e-07
1.63059e-06
3.74576e-06
7.29149e-06
1.32059e-05
2.30073e-05
3.91191e-05
6.53483e-05
0.000107565
0.000174627
0.000279568
0.000440994
0.000684525
0.00104391
0.00156125
0.00228562
0.00326963
0.00456382
0.00621022
0.00823657
0.010653
0.013452
0.0166105
0.0200937
0.0238591
0.0278595
0.032046
0.0363696
0.0407831
0.0452421
0.0497055
0.0541365
0.0585027
0.0627761
0.0669332
0.070955
0.0748256
0.0785329
0.0820683
0.0854261
0.0886033
0.091599
0.0944139
0.0970501
0.0995109
0.1018
0.103921
0.105877
0.107673
0.10931
0.110788
0.112108
0.113264
0.11425
0.115053
0.115656
0.116027
0.116139
0.115946
0.115377
0.114355
0.106444
0.0972143
0.0879764
0.0788727
0.0700113
0.0614776
0.0533394
0.0456524
0.038463
0.0318124
0.0257381
0.0202744
0.0154644
0.0113441
0.00794066
0.00526448
0.00328886
0.00193462
0.00107592
0.000569814
0.000289599
0.000142203
6.81206e-05
3.19416e-05
1.47119e-05
6.66764e-06
2.97734e-06
1.31151e-06
5.70591e-07
2.45473e-07
1.04542e-07
4.41161e-08
1.84567e-08
7.65206e-09
3.13495e-09
1.25765e-09
4.81012e-10
1.60598e-10
2.81352e-11
3.73641e-07
1.63295e-06
3.75117e-06
7.30203e-06
1.3225e-05
2.30407e-05
3.91758e-05
6.54427e-05
0.000107719
0.000174875
0.000279958
0.000441593
0.000685422
0.00104521
0.00156308
0.00228812
0.00327289
0.00456791
0.00621511
0.00824216
0.0106591
0.0134583
0.0166167
0.0200994
0.023864
0.0278631
0.032048
0.0363697
0.040781
0.0452375
0.0496983
0.0541266
0.05849
0.0627607
0.0669154
0.0709347
0.0748032
0.0785086
0.0820423
0.0853989
0.0885753
0.0915705
0.0943854
0.0970222
0.099484
0.101775
0.103898
0.105857
0.107656
0.109297
0.11078
0.112104
0.113266
0.114258
0.115067
0.115675
0.11605
0.116164
0.115968
0.115387
0.114334
0.106905
0.0976848
0.0884481
0.0793362
0.0704604
0.0619076
0.0537471
0.0460348
0.0388181
0.032138
0.0260325
0.0205359
0.015691
0.0115343
0.00809356
0.00538065
0.0033713
0.00198895
0.00110939
0.000589538
0.000300089
0.000147135
7.04304e-05
3.30501e-05
1.52326e-05
6.90602e-06
3.08421e-06
1.35862e-06
5.91071e-07
2.54264e-07
1.08274e-07
4.56842e-08
1.91099e-08
7.92169e-09
3.24499e-09
1.30164e-09
4.9779e-10
1.66197e-10
2.91152e-11
3.7432e-07
1.63591e-06
3.75799e-06
7.31533e-06
1.32492e-05
2.30829e-05
3.92478e-05
6.55629e-05
0.000107916
0.000175192
0.000280457
0.000442363
0.00068658
0.00104691
0.00156548
0.0022914
0.00327721
0.00457335
0.00622169
0.00824977
0.0106675
0.0134672
0.0166256
0.020108
0.0238716
0.0278694
0.0320524
0.0363719
0.0407806
0.0452341
0.0496917
0.0541166
0.0584765
0.0627437
0.066895
0.0709111
0.0747765
0.0784792
0.0820106
0.0853653
0.0885401
0.0915343
0.0943487
0.0969856
0.099448
0.10174
0.103865
0.105827
0.107629
0.109274
0.110761
0.112091
0.113259
0.114256
0.115072
0.115687
0.11607
0.116189
0.115999
0.115423
0.11437
0.107477
0.0982678
0.0890312
0.0799068
0.0710127
0.0624368
0.0542491
0.0465066
0.0392566
0.0325405
0.0263967
0.0208597
0.0159719
0.0117703
0.0082837
0.00552558
0.00347461
0.0020575
0.00115206
0.000612189
0.000311453
0.000152955
7.33334e-05
3.44443e-05
1.5883e-05
7.20297e-06
3.21737e-06
1.41738e-06
6.16626e-07
2.65238e-07
1.12933e-07
4.76433e-08
1.99263e-08
8.25888e-09
3.38269e-09
1.35674e-09
5.18827e-10
1.73219e-10
3.03448e-11
3.75153e-07
1.63956e-06
3.76637e-06
7.33171e-06
1.3279e-05
2.31351e-05
3.93368e-05
6.57119e-05
0.000108161
0.000175587
0.000281083
0.000443332
0.000688044
0.00104906
0.00156855
0.00229562
0.00328279
0.00458046
0.00623037
0.00825993
0.0106789
0.0134795
0.0166383
0.0201205
0.0238833
0.0278797
0.0320607
0.0363776
0.0407834
0.0452335
0.0496872
0.0541081
0.0584637
0.0627266
0.0668735
0.0708855
0.074747
0.0784461
0.0819743
0.0853261
0.0884987
0.0914911
0.0943043
0.0969406
0.0994032
0.101696
0.103822
0.105786
0.107592
0.10924
0.110732
0.112067
0.113241
0.114245
0.115068
0.115691
0.116082
0.116209
0.116026
0.115455
0.114402
0.108164
0.0989615
0.0897187
0.0805899
0.0716787
0.0630745
0.0548555
0.0470776
0.0397882
0.0330287
0.0268384
0.0212524
0.0163127
0.0120569
0.00851496
0.00570239
0.00360139
0.00214271
0.00120006
0.00063832
0.000325726
0.000160366
7.69605e-05
3.61696e-05
1.66856e-05
7.56898e-06
3.38135e-06
1.48968e-06
6.48052e-07
2.78725e-07
1.18657e-07
5.00485e-08
2.09281e-08
8.67252e-09
3.55157e-09
1.42433e-09