/*--------------------------------*- C++ -*----------------------------------*\
  =========                 |
  \\      /  F ield         | OpenFOAM: The Open Source CFD Toolbox
   \\    /   O peration     | Website:  https://openfoam.org
    \\  /    A nd           | Version:  8
     \\/     M anipulation  |
\*---------------------------------------------------------------------------*/
FoamFile
{
    version     2.0;
    format      ascii;
    class       volScalarField;
    location    "560/fluid";
    object      N2;
}
// * * * * * * * * * * * * * * * * * * * * * * * * * * * * * * * * * * * * * //

dimensions      [0 0 0 0 0 0 0];

internalField   nonuniform List<scalar> 
4000
(
2.26294e-06
9.88744e-06
2.27036e-05
4.41762e-05
7.99948e-05
0.000139411
0.000237291
0.000397184
0.00065576
0.00106896
0.00172004
0.00272918
0.00426342
0.00654424
0.00984832
0.0144959
0.0208239
0.029145
0.0397017
0.0526301
0.0679435
0.0855397
0.105224
0.126736
0.149781
0.174048
0.199227
0.22502
0.25115
0.277362
0.303429
0.329155
0.35437
0.378936
0.402738
0.42569
0.447722
0.468787
0.488854
0.507911
0.525957
0.543
0.55906
0.574162
0.588338
0.601623
0.614056
0.625675
0.636522
0.646638
0.656065
0.664843
0.673012
0.68061
0.687674
0.694239
0.70034
0.705945
0.711083
0.715995
0.72056
0.724804
0.728697
0.732434
0.736009
0.739426
0.742687
0.745792
0.748741
0.75153
0.754155
0.756612
0.758892
0.760978
0.762877
0.764567
0.766031
0.76725
0.768212
0.768917
0.769391
0.76968
0.769841
0.769924
0.769965
0.769984
0.769993
0.769997
0.769999
0.769999
0.77
0.77
0.77
0.77
0.77
0.77
0.77
0.77
0.77
0.77
2.27156e-06
9.92803e-06
2.28095e-05
4.44162e-05
8.04997e-05
0.000140411
0.000239159
0.00040047
0.000661177
0.00107722
0.00173131
0.00274222
0.00427413
0.00654365
0.00982089
0.0144181
0.0206646
0.0288687
0.0392741
0.0520244
0.0671457
0.0845506
0.104058
0.125421
0.14835
0.172539
0.197678
0.223467
0.249624
0.275891
0.302036
0.327855
0.353176
0.377854
0.401773
0.424843
0.446991
0.468168
0.488342
0.5075
0.525638
0.542766
0.558904
0.574076
0.588317
0.601657
0.614137
0.625798
0.636682
0.646829
0.656282
0.665081
0.673268
0.680881
0.687956
0.69453
0.700638
0.706237
0.711373
0.716281
0.720847
0.725096
0.728994
0.73274
0.736322
0.739746
0.743013
0.746123
0.749075
0.751865
0.754491
0.756945
0.759218
0.761291
0.763173
0.764838
0.766267
0.767445
0.768358
0.769016
0.76945
0.769711
0.769856
0.769931
0.769968
0.769985
0.769993
0.769997
0.769999
0.769999
0.77
0.77
0.77
0.77
0.77
0.77
0.77
0.77
0.77
0.77
2.28589e-06
9.99239e-06
2.29646e-05
4.47343e-05
8.11006e-05
0.000141479
0.000240951
0.000403307
0.000665383
0.00108302
0.00173882
0.00275087
0.00428176
0.00654512
0.00980537
0.0143687
0.0205581
0.0286768
0.0389662
0.0515717
0.0665256
0.0837502
0.103076
0.124267
0.147045
0.17111
0.196159
0.221894
0.248031
0.274312
0.300499
0.326388
0.351799
0.376584
0.400622
0.423818
0.446097
0.467405
0.48771
0.506993
0.525251
0.542493
0.558738
0.57401
0.588337
0.601757
0.614308
0.626032
0.636969
0.647164
0.656657
0.665491
0.673706
0.681341
0.688434
0.695022
0.70114
0.706741
0.711877
0.716789
0.721348
0.725583
0.729488
0.733241
0.73683
0.740257
0.743524
0.746632
0.749578
0.752359
0.754969
0.757403
0.75965
0.761692
0.763533
0.765148
0.766522
0.767639
0.768495
0.769103
0.7695
0.769737
0.769868
0.769937
0.76997
0.769986
0.769994
0.769997
0.769999
0.769999
0.77
0.77
0.77
0.77
0.77
0.77
0.77
0.77
0.77
0.77
2.29221e-06
1.00197e-05
2.30264e-05
4.48511e-05
8.13013e-05
0.000141798
0.00024142
0.000403911
0.000665966
0.00108306
0.00173682
0.00274393
0.00426482
0.00651029
0.00974188
0.0142619
0.0203898
0.0284265
0.0386133
0.0510982
0.0659186
0.0830033
0.10219
0.12325
0.145911
0.169879
0.194853
0.220538
0.246654
0.272939
0.299157
0.325099
0.350583
0.375459
0.399601
0.42291
0.44531
0.466742
0.487171
0.506577
0.524956
0.542316
0.558668
0.574037
0.588456
0.601959
0.614585
0.626376
0.637372
0.647617
0.657154
0.666024
0.674268
0.681927
0.689038
0.695639
0.701765
0.707359
0.712483
0.71738
0.721924
0.726151
0.730075
0.733838
0.73743
0.740856
0.744117
0.747214
0.750145
0.752906
0.755491
0.757892
0.760101
0.762106
0.763896
0.765456
0.766771
0.767829
0.768629
0.76919
0.76955
0.769764
0.769882
0.769943
0.769973
0.769988
0.769994
0.769998
0.769999
0.77
0.77
0.77
0.77
0.77
0.77
0.77
0.77
0.77
0.77
0.77
2.29299e-06
1.00229e-05
2.30327e-05
4.48601e-05
8.13067e-05
0.000141776
0.000241299
0.00040352
0.000664933
0.00108064
0.00173173
0.00273384
0.00424591
0.00647653
0.0096845
0.014169
0.0202466
0.0282162
0.0383194
0.0507061
0.065418
0.0823892
0.101463
0.122418
0.144984
0.168874
0.19379
0.219438
0.245538
0.271829
0.298074
0.324063
0.349611
0.374566
0.398798
0.422208
0.444714
0.466256
0.486798
0.506319
0.524809
0.54227
0.558718
0.574179
0.588683
0.602264
0.61496
0.626812
0.637863
0.648155
0.65773
0.666633
0.674903
0.682581
0.689707
0.696318
0.702446
0.708014
0.713124
0.718023
0.72257
0.726767
0.730711
0.734473
0.738061
0.741478
0.744728
0.747808
0.750718
0.753453
0.756007
0.758372
0.760536
0.762496
0.764236
0.765741
0.766999
0.768001
0.768748
0.769265
0.769594
0.769787
0.769894
0.769949
0.769976
0.769989
0.769995
0.769998
0.769999
0.77
0.77
0.77
0.77
0.77
0.77
0.77
0.77
0.77
0.77
0.77
2.28815e-06
1.00011e-05
2.29801e-05
4.475e-05
8.10891e-05
0.000141357
0.000240506
0.000402038
0.000662206
0.00107572
0.00172301
0.0027188
0.00422065
0.00643542
0.00961981
0.0140709
0.0201036
0.0280162
0.0380507
0.0503593
0.0649869
0.0818717
0.100862
0.121738
0.144237
0.168073
0.192949
0.218574
0.244669
0.270972
0.297247
0.32328
0.348887
0.373912
0.398225
0.421722
0.444322
0.465963
0.486606
0.506222
0.524802
0.542352
0.558886
0.574428
0.589006
0.602654
0.615411
0.627316
0.638413
0.648743
0.658351
0.667278
0.675567
0.683258
0.690391
0.697002
0.703122
0.708673
0.713803
0.718703
0.723238
0.727382
0.731332
0.735092
0.738673
0.742079
0.745313
0.748375
0.751261
0.753968
0.75649
0.758819
0.760939
0.762855
0.764546
0.766
0.767204
0.768153
0.768853
0.769332
0.769633
0.769809
0.769904
0.769954
0.769978
0.76999
0.769995
0.769998
0.769999
0.77
0.77
0.77
0.77
0.77
0.77
0.77
0.77
0.77
0.77
0.77
2.28037e-06
9.96673e-06
2.28992e-05
4.45873e-05
8.0782e-05
0.000140796
0.000239501
0.000400263
0.000659112
0.0010704
0.00171402
0.00270387
0.00419641
0.00639707
0.00956092
0.0139834
0.0199783
0.0278435
0.0378218
0.0500676
0.0646285
0.0814466
0.100373
0.121192
0.143644
0.167442
0.192295
0.21791
0.244009
0.270332
0.296638
0.322715
0.348378
0.373467
0.397852
0.421429
0.444113
0.465839
0.486561
0.506257
0.524917
0.542544
0.559152
0.574762
0.589402
0.603106
0.615912
0.62786
0.638993
0.649354
0.658986
0.667931
0.676231
0.683928
0.691061
0.697666
0.703782
0.709273
0.714518
0.719381
0.723888
0.727991
0.731925
0.735673
0.739243
0.742635
0.745853
0.748894
0.751756
0.754436
0.756927
0.759223
0.761305
0.763181
0.764826
0.76623
0.767385
0.768286
0.768944
0.769389
0.769666
0.769826
0.769913
0.769958
0.76998
0.769991
0.769996
0.769998
0.769999
0.77
0.77
0.77
0.77
0.77
0.77
0.77
0.77
0.77
0.77
0.77
2.27126e-06
9.92664e-06
2.28057e-05
4.44013e-05
8.04358e-05
0.000140173
0.000238404
0.000398361
0.000655861
0.00106493
0.00170496
0.00268916
0.00417306
0.00636094
0.00950664
0.0139045
0.0198675
0.0276937
0.0376269
0.0498232
0.0643331
0.081101
0.0999814
0.120761
0.14318
0.166957
0.191798
0.217414
0.243525
0.26987
0.296211
0.322331
0.348046
0.373194
0.397646
0.421293
0.444045
0.465839
0.486632
0.506399
0.525127
0.542819
0.559487
0.575152
0.589843
0.603592
0.616437
0.628419
0.63958
0.649963
0.659611
0.668568
0.676875
0.684575
0.691707
0.698309
0.704403
0.709886
0.715132
0.719984
0.724475
0.728555
0.732474
0.736209
0.739764
0.743141
0.746341
0.749361
0.7522
0.754852
0.757312
0.759574
0.761621
0.763455
0.765061
0.766427
0.767539
0.768399
0.769021
0.769437
0.769694
0.769841
0.769921
0.769962
0.769982
0.769992
0.769996
0.769998
0.769999
0.77
0.77
0.77
0.77
0.77
0.77
0.77
0.77
0.77
0.77
0.77
2.26201e-06
9.88605e-06
2.27115e-05
4.42153e-05
8.00925e-05
0.000139562
0.000237338
0.000396536
0.000652783
0.00105981
0.00169661
0.0026758
0.00415214
0.00632902
0.00945931
0.0138365
0.0197733
0.0275678
0.037465
0.0496228
0.0640935
0.0808243
0.0996717
0.120424
0.142824
0.16659
0.191429
0.217053
0.243181
0.269553
0.295928
0.322091
0.347854
0.373058
0.397567
0.42127
0.444082
0.465937
0.486792
0.506618
0.525403
0.543148
0.559865
0.575575
0.590305
0.604089
0.616965
0.628972
0.640153
0.650551
0.66021
0.669173
0.677483
0.685181
0.692308
0.698902
0.704954
0.710423
0.715657
0.720496
0.724972
0.729045
0.732959
0.736685
0.74023
0.743593
0.746776
0.749777
0.752592
0.755218
0.757648
0.759874
0.761882
0.763674
0.765244
0.766581
0.767666
0.768494
0.769086
0.769478
0.769718
0.769854
0.769928
0.769965
0.769984
0.769992
0.769997
0.769998
0.769999
0.77
0.77
0.77
0.77
0.77
0.77
0.77
0.77
0.77
0.77
0.77
2.25325e-06
9.84764e-06
2.26227e-05
4.40405e-05
7.97713e-05
0.000138993
0.000236353
0.00039486
0.000649978
0.00105519
0.00168914
0.00266395
0.00413379
0.00630132
0.00941868
0.0137789
0.0196943
0.0274635
0.0373325
0.0494606
0.0639022
0.0806063
0.099431
0.120166
0.142556
0.166319
0.191163
0.216799
0.242948
0.269347
0.295757
0.321961
0.347769
0.373019
0.397576
0.421331
0.444196
0.466105
0.48701
0.506885
0.525717
0.543505
0.560262
0.576007
0.590768
0.604579
0.617477
0.629502
0.640697
0.651105
0.660769
0.669734
0.678043
0.685736
0.692856
0.69944
0.705472
0.71092
0.716136
0.720957
0.725415
0.729484
0.73339
0.737108
0.740642
0.743992
0.74716
0.750142
0.752936
0.755538
0.757941
0.760136
0.76212
0.763891
0.765428
0.766721
0.76777
0.768574
0.769141
0.769512
0.769737
0.769865
0.769933
0.769968
0.769985
0.769993
0.769997
0.769999
0.769999
0.77
0.77
0.77
0.77
0.77
0.77
0.77
0.77
0.77
0.77
0.77
2.24533e-06
9.81296e-06
2.25426e-05
4.38833e-05
7.94836e-05
0.000138485
0.000235479
0.000393381
0.000647517
0.00105117
0.00168268
0.00265379
0.00411816
0.00627792
0.00938467
0.013731
0.0196294
0.0273787
0.0372258
0.0493315
0.0637518
0.0804372
0.0992473
0.119973
0.142359
0.166124
0.190978
0.21663
0.242801
0.269228
0.295671
0.321911
0.347758
0.373049
0.397651
0.421451
0.444362
0.466315
0.487263
0.507178
0.526048
0.543871
0.560658
0.576431
0.591216
0.605047
0.617961
0.629999
0.641202
0.651615
0.661282
0.670246
0.67855
0.686237
0.693347
0.699921
0.705933
0.711362
0.716559
0.721362
0.725802
0.729871
0.733773
0.737482
0.741005
0.744343
0.747494
0.750458
0.753232
0.755812
0.758191
0.760369
0.762339
0.764084
0.765595
0.766862
0.767877
0.768645
0.76919
0.769542
0.769755
0.769874
0.769938
0.76997
0.769986
0.769994
0.769997
0.769999
0.769999
0.77
0.77
0.77
0.77
0.77
0.77
0.77
0.77
0.77
0.77
0.77
2.2384e-06
9.78265e-06
2.24727e-05
4.37464e-05
7.92336e-05
0.000138045
0.000234724
0.00039211
0.000645412
0.00104774
0.00167721
0.00264523
0.0041051
0.00625851
0.00935669
0.013692
0.0195768
0.0273107
0.0371412
0.0492304
0.0636356
0.0803085
0.0991098
0.119831
0.142218
0.16599
0.190855
0.216524
0.242718
0.269172
0.295644
0.321916
0.347799
0.373128
0.397768
0.421608
0.444556
0.466546
0.48753
0.507478
0.526378
0.544228
0.561041
0.576834
0.591638
0.605483
0.618408
0.630454
0.641662
0.652077
0.661743
0.670704
0.679003
0.686682
0.693782
0.700342
0.706334
0.71175
0.716937
0.721725
0.726147
0.730214
0.734108
0.737808
0.74132
0.744642
0.747777
0.750726
0.753486
0.756053
0.758423
0.760584
0.762529
0.764249
0.765735
0.766976
0.767966
0.76871
0.769231
0.769568
0.769769
0.769882
0.769942
0.769972
0.769987
0.769994
0.769997
0.769999
0.769999
0.77
0.77
0.77
0.77
0.77
0.77
0.77
0.77
0.77
0.77
0.77
2.2325e-06
9.75684e-06
2.24133e-05
4.36302e-05
7.90219e-05
0.000137674
0.000234088
0.000391042
0.000643651
0.00104489
0.00167268
0.00263819
0.00409441
0.00624272
0.00933406
0.0136607
0.0195351
0.0272571
0.0370753
0.0491526
0.0635473
0.0802123
0.0990091
0.11973
0.142121
0.165901
0.19078
0.216466
0.242681
0.269158
0.295657
0.32196
0.347874
0.373236
0.397909
0.421781
0.444762
0.466782
0.487794
0.50777
0.526694
0.544566
0.561397
0.577207
0.592023
0.605879
0.618812
0.630862
0.642073
0.652488
0.662152
0.671108
0.679401
0.687072
0.694161
0.70071
0.706689
0.712094
0.717266
0.722039
0.726438
0.730508
0.734395
0.738088
0.741589
0.744904
0.748033
0.750973
0.753721
0.756273
0.758623
0.760764
0.762689
0.764389
0.765852
0.767071
0.768038
0.768761
0.769263
0.769587
0.76978
0.769888
0.769945
0.769974
0.769988
0.769994
0.769997
0.769999
0.769999
0.77
0.77
0.77
0.77
0.77
0.77
0.77
0.77
0.77
0.77
0.77
2.22759e-06
9.73538e-06
2.23639e-05
4.35338e-05
7.88464e-05
0.000137367
0.000233564
0.000390165
0.000642209
0.00104256
0.00166899
0.00263249
0.0040858
0.00623008
0.00931608
0.013636
0.0195024
0.0272156
0.0370247
0.0490936
0.0634815
0.0801419
0.0989372
0.11966
0.142056
0.165846
0.190738
0.216441
0.242674
0.269174
0.295697
0.322026
0.347967
0.373357
0.398058
0.421957
0.444964
0.467009
0.488045
0.508042
0.526985
0.544874
0.56172
0.577542
0.592368
0.606231
0.619168
0.631221
0.642433
0.652846
0.662507
0.671458
0.679744
0.687405
0.694487
0.701029
0.706993
0.712386
0.717547
0.722309
0.72668
0.730756
0.734639
0.738326
0.741823
0.745131
0.748251
0.75118
0.753915
0.756454
0.758789
0.760915
0.762823
0.764505
0.76595
0.76715
0.768099
0.768804
0.769292
0.769604
0.769789
0.769893
0.769947
0.769975
0.769988
0.769995
0.769998
0.769999
0.77
0.77
0.77
0.77
0.77
0.77
0.77
0.77
0.77
0.77
0.77
0.77
2.2236e-06
9.71793e-06
2.23238e-05
4.34555e-05
7.87042e-05
0.000137118
0.000233141
0.000389459
0.000641052
0.0010407
0.00166606
0.00262797
0.00407901
0.00622016
0.00930205
0.0136168
0.0194772
0.027184
0.0369866
0.0490498
0.0634333
0.0800915
0.0988871
0.119613
0.142016
0.165815
0.190719
0.216436
0.242687
0.269206
0.295751
0.322102
0.348066
0.373479
0.398203
0.422125
0.445153
0.467218
0.488273
0.508286
0.527244
0.545147
0.562003
0.577834
0.592667
0.606535
0.619475
0.63153
0.64274
0.653152
0.662808
0.671753
0.680031
0.687688
0.694764
0.701298
0.707248
0.712631
0.717782
0.722532
0.726879
0.730963
0.734842
0.738525
0.742017
0.745318
0.748429
0.751349
0.754075
0.756603
0.758926
0.761039
0.762933
0.764601
0.766031
0.767215
0.768148
0.76884
0.769315
0.769618
0.769797
0.769897
0.769949
0.769976
0.769989
0.769995
0.769998
0.769999
0.77
0.77
0.77
0.77
0.77
0.77
0.77
0.77
0.77
0.77
0.77
0.77
2.22044e-06
9.70412e-06
2.2292e-05
4.33936e-05
7.8592e-05
0.000136923
0.000232808
0.000388904
0.000640145
0.00103925
0.00166378
0.00262446
0.00407377
0.00621254
0.00929133
0.0136023
0.0194583
0.0271604
0.0369585
0.0490178
0.0633988
0.0800563
0.0988532
0.119583
0.141992
0.165799
0.190714
0.216445
0.24271
0.269246
0.295808
0.322178
0.348161
0.373593
0.398335
0.422275
0.44532
0.467401
0.48847
0.508497
0.527467
0.545379
0.562243
0.578081
0.592919
0.60679
0.619732
0.631786
0.642995
0.653403
0.663055
0.671997
0.680272
0.687924
0.694992
0.701518
0.70746
0.712833
0.717975
0.722717
0.727041
0.731129
0.735005
0.738685
0.742172
0.745468
0.748573
0.751486
0.754204
0.756722
0.759036
0.761139
0.763022
0.764678
0.766096
0.767267
0.768188
0.768868
0.769334
0.76963
0.769804
0.7699
0.769951
0.769977
0.769989
0.769995
0.769998
0.769999
0.77
0.77
0.77
0.77
0.77
0.77
0.77
0.77
0.77
0.77
0.77
0.77
2.21802e-06
9.69356e-06
2.22678e-05
4.33464e-05
7.85063e-05
0.000136773
0.000232555
0.000388483
0.000639459
0.00103815
0.00166206
0.00262183
0.00406984
0.00620686
0.00928338
0.0135916
0.0194445
0.0271432
0.0369383
0.0489952
0.0633748
0.0800323
0.098831
0.119564
0.141979
0.165794
0.190717
0.216459
0.242737
0.269286
0.295862
0.322246
0.348244
0.373691
0.398447
0.422401
0.445459
0.467553
0.488633
0.50867
0.527648
0.545567
0.562438
0.57828
0.593121
0.606994
0.619936
0.631989
0.643197
0.653603
0.663254
0.672193
0.680465
0.688111
0.695174
0.701694
0.707626
0.712993
0.718129
0.722864
0.727173
0.731258
0.735132
0.738809
0.742293
0.745585
0.748685
0.751592
0.754304
0.756816
0.759122
0.761216
0.763091
0.764738
0.766146
0.767307
0.768219
0.76889
0.769348
0.769638
0.769809
0.769903
0.769952
0.769977
0.769989
0.769995
0.769998
0.769999
0.77
0.77
0.77
0.77
0.77
0.77
0.77
0.77
0.77
0.77
0.77
0.77
2.21627e-06
9.68594e-06
2.22503e-05
4.33123e-05
7.84446e-05
0.000136666
0.000232373
0.00038818
0.000638965
0.00103736
0.00166082
0.00261995
0.00406705
0.00620283
0.00927777
0.013584
0.0194348
0.0271313
0.0369244
0.0489798
0.0633588
0.0800167
0.098817
0.119553
0.141972
0.165793
0.190724
0.216474
0.242761
0.26932
0.295907
0.322301
0.34831
0.373768
0.398535
0.422499
0.445567
0.46767
0.488758
0.508801
0.527785
0.54571
0.562584
0.578429
0.593272
0.607146
0.620089
0.632142
0.64335
0.653756
0.663404
0.67234
0.680608
0.68825
0.695309
0.701825
0.707751
0.713113
0.718244
0.722974
0.727271
0.731352
0.735225
0.7389
0.742381
0.745671
0.748767
0.751671
0.754378
0.756884
0.759185
0.761274
0.763142
0.764782
0.766183
0.767337
0.768241
0.768905
0.769359
0.769645
0.769812
0.769905
0.769953
0.769978
0.76999
0.769995
0.769998
0.769999
0.77
0.77
0.77
0.77
0.77
0.77
0.77
0.77
0.77
0.77
0.77
0.77
2.21515e-06
9.68101e-06
2.22389e-05
4.32902e-05
7.84046e-05
0.000136596
0.000232255
0.000387985
0.000638648
0.00103686
0.00166003
0.00261874
0.00406526
0.00620026
0.0092742
0.0135793
0.0194287
0.0271238
0.0369157
0.0489703
0.063349
0.0800074
0.098809
0.119548
0.14197
0.165794
0.19073
0.216485
0.242778
0.269344
0.295938
0.32234
0.348356
0.373821
0.398595
0.422566
0.44564
0.467748
0.488841
0.508889
0.527877
0.545805
0.562682
0.578529
0.593373
0.607248
0.620192
0.632246
0.643452
0.653857
0.663503
0.672437
0.680703
0.688343
0.695399
0.701912
0.707833
0.713192
0.71832
0.723047
0.727335
0.731415
0.735286
0.73896
0.74244
0.745727
0.748822
0.751722
0.754426
0.75693
0.759227
0.761311
0.763175
0.76481
0.766207
0.767356
0.768256
0.768916
0.769365
0.769649
0.769815
0.769906
0.769954
0.769978
0.76999
0.769995
0.769998
0.769999
0.77
0.77
0.77
0.77
0.77
0.77
0.77
0.77
0.77
0.77
0.77
0.77
2.2146e-06
9.67863e-06
2.22335e-05
4.32796e-05
7.83855e-05
0.000136563
0.000232199
0.000387892
0.000638497
0.00103662
0.00165966
0.00261818
0.00406442
0.00619905
0.00927252
0.013577
0.0194258
0.0271204
0.0369117
0.048966
0.0633446
0.0800032
0.0988055
0.119545
0.141969
0.165795
0.190733
0.216491
0.242788
0.269357
0.295954
0.322359
0.348379
0.373848
0.398625
0.422599
0.445676
0.467787
0.488883
0.508933
0.527923
0.545852
0.562731
0.578579
0.593424
0.6073
0.620244
0.632297
0.643503
0.653907
0.663553
0.672486
0.68075
0.688389
0.695444
0.701955
0.707874
0.713231
0.718358
0.723083
0.727367
0.731446
0.735317
0.73899
0.742469
0.745755
0.748848
0.751748
0.75445
0.756952
0.759247
0.76133
0.763192
0.764824
0.766219
0.767366
0.768263
0.76892
0.769368
0.76965
0.769816
0.769907
0.769954
0.769978
0.76999
0.769995
0.769998
0.769999
0.77
0.77
0.77
0.77
0.77
0.77
0.77
0.77
0.77
0.77
0.77
0.77
2.21461e-06
9.67868e-06
2.22336e-05
4.32799e-05
7.83859e-05
0.000136564
0.0002322
0.000387894
0.0006385
0.00103662
0.00165967
0.00261819
0.00406444
0.00619909
0.00927257
0.0135771
0.0194259
0.0271205
0.0369119
0.0489661
0.0633448
0.0800034
0.0988058
0.119545
0.141969
0.165796
0.190734
0.216492
0.242788
0.269357
0.295955
0.32236
0.34838
0.373848
0.398626
0.422599
0.445677
0.467787
0.488883
0.508933
0.527923
0.545853
0.562731
0.578579
0.593424
0.6073
0.620244
0.632297
0.643503
0.653907
0.663553
0.672486
0.68075
0.688389
0.695444
0.701955
0.707874
0.713231
0.718358
0.723083
0.727367
0.731446
0.735317
0.73899
0.742469
0.745755
0.748848
0.751748
0.75445
0.756952
0.759247
0.76133
0.763192
0.764824
0.766219
0.767366
0.768263
0.76892
0.769368
0.76965
0.769816
0.769907
0.769954
0.769978
0.76999
0.769995
0.769998
0.769999
0.77
0.77
0.77
0.77
0.77
0.77
0.77
0.77
0.77
0.77
0.77
0.77
2.21518e-06
9.68116e-06
2.22393e-05
4.32909e-05
7.84059e-05
0.000136599
0.000232259
0.000387991
0.000638658
0.00103687
0.00166006
0.00261879
0.00406533
0.00620036
0.00927434
0.0135795
0.0194289
0.0271242
0.0369162
0.0489709
0.0633497
0.0800082
0.0988099
0.119549
0.141971
0.165795
0.190731
0.216486
0.24278
0.269346
0.295939
0.322341
0.348357
0.373822
0.398596
0.422567
0.445641
0.467749
0.488842
0.50889
0.527878
0.545805
0.562683
0.578529
0.593374
0.607249
0.620193
0.632246
0.643453
0.653857
0.663504
0.672438
0.680703
0.688343
0.695399
0.701912
0.707833
0.713192
0.71832
0.723047
0.727335
0.731415
0.735287
0.73896
0.74244
0.745727
0.748822
0.751722
0.754426
0.75693
0.759227
0.761311
0.763175
0.764811
0.766207
0.767356
0.768256
0.768916
0.769365
0.769649
0.769815
0.769906
0.769954
0.769978
0.76999
0.769995
0.769998
0.769999
0.77
0.77
0.77
0.77
0.77
0.77
0.77
0.77
0.77
0.77
0.77
0.77
2.21633e-06
9.6862e-06
2.22509e-05
4.33135e-05
7.84467e-05
0.00013667
0.000232379
0.000388191
0.000638983
0.00103739
0.00166087
0.00262002
0.00406716
0.006203
0.00927802
0.0135844
0.0194352
0.0271319
0.0369252
0.0489808
0.06336
0.0800181
0.0988186
0.119555
0.141974
0.165795
0.190726
0.216476
0.242763
0.269322
0.295909
0.322303
0.348312
0.37377
0.398537
0.422501
0.445569
0.467671
0.488759
0.508803
0.527787
0.545711
0.562586
0.578431
0.593273
0.607147
0.62009
0.632143
0.643351
0.653756
0.663405
0.672341
0.680608
0.688251
0.69531
0.701825
0.707751
0.713113
0.718244
0.722974
0.727271
0.731353
0.735225
0.7389
0.742382
0.745671
0.748768
0.751671
0.754378
0.756885
0.759185
0.761274
0.763142
0.764782
0.766183
0.767337
0.768241
0.768905
0.769359
0.769645
0.769812
0.769905
0.769953
0.769978
0.76999
0.769995
0.769998
0.769999
0.77
0.77
0.77
0.77
0.77
0.77
0.77
0.77
0.77
0.77
0.77
0.77
2.2181e-06
9.69393e-06
2.22686e-05
4.3348e-05
7.85093e-05
0.000136779
0.000232564
0.000388498
0.000639483
0.00103819
0.00166212
0.00262193
0.00406999
0.00620709
0.00928372
0.013592
0.0194451
0.0271441
0.0369394
0.0489966
0.0633765
0.0800342
0.0988331
0.119567
0.141981
0.165796
0.19072
0.216462
0.24274
0.269289
0.295865
0.322249
0.348247
0.373693
0.39845
0.422404
0.445462
0.467555
0.488635
0.508672
0.52765
0.545569
0.56244
0.578282
0.593122
0.606995
0.619938
0.631991
0.643198
0.653604
0.663255
0.672194
0.680465
0.688112
0.695175
0.701695
0.707627
0.712994
0.71813
0.722865
0.727173
0.731258
0.735132
0.738809
0.742293
0.745585
0.748685
0.751593
0.754304
0.756816
0.759122
0.761217
0.763091
0.764738
0.766146
0.767307
0.768219
0.76889
0.769348
0.769638
0.769809
0.769903
0.769952
0.769977
0.769989
0.769995
0.769998
0.769999
0.77
0.77
0.77
0.77
0.77
0.77
0.77
0.77
0.77
0.77
0.77
0.77
2.22054e-06
9.70458e-06
2.22931e-05
4.33957e-05
7.85958e-05
0.000136929
0.000232819
0.000388923
0.000640177
0.0010393
0.00166386
0.00262459
0.00407396
0.00621283
0.00929176
0.0136029
0.0194591
0.0271615
0.0369599
0.0490196
0.0634009
0.0800587
0.0988559
0.119586
0.141995
0.165803
0.190718
0.216448
0.242714
0.26925
0.295812
0.322181
0.348165
0.373596
0.398339
0.422278
0.445323
0.467405
0.488473
0.5085
0.527469
0.545381
0.562246
0.578083
0.592921
0.606792
0.619734
0.631788
0.642997
0.653404
0.663056
0.671998
0.680273
0.687925
0.694993
0.701519
0.70746
0.712834
0.717976
0.722718
0.727041
0.731129
0.735005
0.738685
0.742172
0.745468
0.748573
0.751486
0.754204
0.756723
0.759036
0.761139
0.763022
0.764678
0.766096
0.767267
0.768188
0.768868
0.769334
0.76963
0.769804
0.7699
0.769951
0.769977
0.769989
0.769995
0.769998
0.769999
0.77
0.77
0.77
0.77
0.77
0.77
0.77
0.77
0.77
0.77
0.77
0.77
2.22373e-06
9.7185e-06
2.23251e-05
4.34581e-05
7.87089e-05
0.000137127
0.000233155
0.000389482
0.00064109
0.00104076
0.00166616
0.00262812
0.00407925
0.00622052
0.00930257
0.0136176
0.0194783
0.0271853
0.0369884
0.0490519
0.0634359
0.0800945
0.0988904
0.119617
0.14202
0.165819
0.190723
0.216441
0.242692
0.269211
0.295756
0.322106
0.348071
0.373484
0.398207
0.422129
0.445157
0.467222
0.488276
0.50829
0.527248
0.54515
0.562006
0.577837
0.59267
0.606537
0.619478
0.631532
0.642742
0.653153
0.66281
0.671754
0.680033
0.687689
0.694765
0.701299
0.707249
0.712632
0.717783
0.722533
0.726879
0.730963
0.734843
0.738526
0.742017
0.745318
0.74843
0.75135
0.754075
0.756603
0.758926
0.761039
0.762933
0.764601
0.766031
0.767215
0.768148
0.76884
0.769316
0.769618
0.769797
0.769897
0.769949
0.769976
0.769989
0.769995
0.769998
0.769999
0.77
0.77
0.77
0.77
0.77
0.77
0.77
0.77
0.77
0.77
0.77
0.77
2.22774e-06
9.73605e-06
2.23655e-05
4.35368e-05
7.88519e-05
0.000137376
0.00023358
0.000390192
0.000642254
0.00104264
0.00166911
0.00263267
0.00408609
0.0062305
0.0093167
0.0136368
0.0195036
0.0272172
0.0370268
0.0490961
0.0634845
0.0801454
0.0989411
0.119664
0.142061
0.165851
0.190743
0.216446
0.24268
0.269179
0.295703
0.322031
0.347973
0.373363
0.398063
0.421962
0.444969
0.467014
0.48805
0.508046
0.526989
0.544878
0.561723
0.577545
0.592371
0.606234
0.619171
0.631224
0.642435
0.652848
0.662509
0.67146
0.679745
0.687407
0.694488
0.70103
0.706994
0.712387
0.717548
0.72231
0.726681
0.730757
0.73464
0.738326
0.741824
0.745132
0.748251
0.75118
0.753916
0.756454
0.75879
0.760915
0.762823
0.764505
0.76595
0.76715
0.768099
0.768804
0.769292
0.769604
0.769789
0.769893
0.769947
0.769975
0.769988
0.769995
0.769998
0.769999
0.77
0.77
0.77
0.77
0.77
0.77
0.77
0.77
0.77
0.77
0.77
0.77
2.23268e-06
9.75762e-06
2.24151e-05
4.36337e-05
7.90282e-05
0.000137685
0.000234107
0.000391074
0.000643704
0.00104498
0.00167281
0.0026384
0.00409474
0.0062432
0.00933478
0.0136617
0.0195365
0.027259
0.0370776
0.0491555
0.0635508
0.0802164
0.0990137
0.119735
0.142126
0.165907
0.190786
0.216472
0.242687
0.269165
0.295664
0.321966
0.347881
0.373242
0.397915
0.421787
0.444767
0.466787
0.4878
0.507775
0.526698
0.54457
0.561401
0.577211
0.592027
0.605883
0.618815
0.630865
0.642076
0.65249
0.662154
0.67111
0.679403
0.687074
0.694163
0.700711
0.706691
0.712095
0.717267
0.72204
0.726439
0.730509
0.734396
0.738089
0.74159
0.744905
0.748034
0.750974
0.753721
0.756273
0.758623
0.760765
0.762689
0.764389
0.765853
0.767071
0.768038
0.768761
0.769263
0.769587
0.76978
0.769888
0.769945
0.769974
0.769988
0.769994
0.769997
0.769999
0.769999
0.77
0.77
0.77
0.77
0.77
0.77
0.77
0.77
0.77
0.77
0.77
2.2386e-06
9.78354e-06
2.24748e-05
4.37504e-05
7.92409e-05
0.000138058
0.000234746
0.000392146
0.000645472
0.00104784
0.00167736
0.00264548
0.00410548
0.00625907
0.0093575
0.0136931
0.0195784
0.0273128
0.0371439
0.0492337
0.0636396
0.0803131
0.099115
0.119837
0.142224
0.165997
0.190862
0.216532
0.242725
0.269179
0.295651
0.321924
0.347806
0.373136
0.397775
0.421615
0.444563
0.466552
0.487536
0.507484
0.526383
0.544233
0.561045
0.576839
0.591642
0.605487
0.618412
0.630457
0.641665
0.65208
0.661746
0.670706
0.679005
0.686684
0.693784
0.700343
0.706335
0.711752
0.716938
0.721726
0.726148
0.730215
0.734109
0.737809
0.741321
0.744643
0.747778
0.750727
0.753487
0.756054
0.758423
0.760584
0.762529
0.76425
0.765735
0.766976
0.767966
0.768711
0.769231
0.769568
0.769769
0.769882
0.769942
0.769972
0.769987
0.769994
0.769997
0.769999
0.769999
0.77
0.77
0.77
0.77
0.77
0.77
0.77
0.77
0.77
0.77
0.77
2.24556e-06
9.81397e-06
2.25449e-05
4.38879e-05
7.94919e-05
0.0001385
0.000235503
0.000393422
0.000647585
0.00105128
0.00168285
0.00265406
0.00411858
0.00627855
0.00938559
0.0137323
0.0196311
0.027381
0.0372288
0.0493352
0.0637563
0.0804424
0.0992531
0.119979
0.142366
0.166132
0.190986
0.216638
0.242809
0.269236
0.295679
0.32192
0.347766
0.373058
0.397659
0.421459
0.444369
0.466322
0.48727
0.507185
0.526054
0.543876
0.560664
0.576436
0.591221
0.605052
0.617965
0.630002
0.641206
0.651618
0.661285
0.670248
0.678553
0.686239
0.693349
0.699923
0.705935
0.711364
0.71656
0.721363
0.725803
0.729872
0.733774
0.737483
0.741006
0.744343
0.747495
0.750459
0.753233
0.755812
0.758192
0.76037
0.762339
0.764084
0.765595
0.766862
0.767878
0.768645
0.76919
0.769542
0.769755
0.769874
0.769938
0.76997
0.769986
0.769994
0.769997
0.769999
0.769999
0.77
0.77
0.77
0.77
0.77
0.77
0.77
0.77
0.77
0.77
0.77
2.25351e-06
9.84878e-06
2.26253e-05
4.40456e-05
7.97806e-05
0.000139009
0.000236381
0.000394907
0.000650054
0.00105532
0.00168934
0.00266426
0.00413426
0.00630202
0.00941971
0.0137803
0.0196963
0.0274661
0.0373358
0.0494647
0.0639071
0.080612
0.0994375
0.120173
0.142564
0.166327
0.191172
0.216808
0.242958
0.269357
0.295766
0.32197
0.347779
0.373028
0.397585
0.42134
0.444205
0.466113
0.487018
0.506893
0.525724
0.543512
0.560268
0.576013
0.590774
0.604584
0.617482
0.629506
0.640701
0.651108
0.660773
0.669737
0.678046
0.685739
0.692858
0.699442
0.705474
0.710922
0.716137
0.720958
0.725417
0.729485
0.733391
0.737109
0.740643
0.743993
0.74716
0.750143
0.752937
0.755539
0.757941
0.760137
0.76212
0.763891
0.765428
0.766721
0.76777
0.768574
0.769141
0.769512
0.769738
0.769865
0.769933
0.769968
0.769985
0.769993
0.769997
0.769999
0.769999
0.77
0.77
0.77
0.77
0.77
0.77
0.77
0.77
0.77
0.77
0.77
2.26231e-06
9.88733e-06
2.27145e-05
4.42211e-05
8.0103e-05
0.00013958
0.00023737
0.000396588
0.000652869
0.00105995
0.00169683
0.00267614
0.00415267
0.00632981
0.00946046
0.0138381
0.0197755
0.0275707
0.0374687
0.0496273
0.064099
0.0808307
0.0996788
0.120432
0.142833
0.166599
0.191439
0.217063
0.243192
0.269563
0.295938
0.322101
0.347865
0.373069
0.397577
0.42128
0.444091
0.465947
0.486801
0.506626
0.525411
0.543155
0.559872
0.575581
0.590311
0.604095
0.61697
0.628977
0.640157
0.650555
0.660214
0.669177
0.677486
0.685184
0.692311
0.698905
0.704956
0.710425
0.715659
0.720497
0.724974
0.729047
0.73296
0.736687
0.740231
0.743594
0.746777
0.749778
0.752593
0.755219
0.757649
0.759875
0.761882
0.763674
0.765244
0.766582
0.767666
0.768495
0.769086
0.769478
0.769718
0.769854
0.769928
0.769965
0.769984
0.769992
0.769997
0.769998
0.769999
0.77
0.77
0.77
0.77
0.77
0.77
0.77
0.77
0.77
0.77
0.77
2.27159e-06
9.92808e-06
2.2809e-05
4.44078e-05
8.04476e-05
0.000140194
0.000238439
0.000398419
0.000655957
0.00106508
0.00170521
0.00268954
0.00417365
0.00636182
0.00950791
0.0139063
0.01987
0.0276969
0.0376309
0.0498282
0.064339
0.081108
0.0999892
0.120769
0.14319
0.166967
0.191809
0.217425
0.243536
0.269882
0.296222
0.322343
0.348057
0.373206
0.397657
0.421304
0.444056
0.465849
0.486642
0.506408
0.525136
0.542828
0.559495
0.57516
0.58985
0.603598
0.616443
0.628425
0.639585
0.649968
0.659616
0.668572
0.676879
0.684579
0.69171
0.698311
0.704405
0.709889
0.715134
0.719986
0.724477
0.728557
0.732476
0.73621
0.739765
0.743142
0.746342
0.749362
0.7522
0.754853
0.757313
0.759575
0.761622
0.763455
0.765062
0.766427
0.767539
0.768399
0.769021