/*--------------------------------*- C++ -*----------------------------------*\
  =========                 |
  \\      /  F ield         | OpenFOAM: The Open Source CFD Toolbox
   \\    /   O peration     | Website:  https://openfoam.org
    \\  /    A nd           | Version:  8
     \\/     M anipulation  |
\*---------------------------------------------------------------------------*/
FoamFile
{
    version     2.0;
    format      ascii;
    class       surfaceScalarField;
    location    "560/fluid";
    object      phi;
}
// * * * * * * * * * * * * * * * * * * * * * * * * * * * * * * * * * * * * * //

dimensions      [1 0 -1 0 0 0 0];

internalField   nonuniform List<scalar> 
7860
(
6.57292e-07
-1.76749e-08
6.5467e-07
-5.30182e-08
6.50939e-07
-8.81815e-08
6.4599e-07
-1.23065e-07
6.39693e-07
-1.57671e-07
6.31891e-07
-1.91957e-07
6.22402e-07
-2.25842e-07
6.11031e-07
-2.59208e-07
5.97579e-07
-2.91894e-07
5.81853e-07
-3.23684e-07
5.63684e-07
-3.54296e-07
5.42946e-07
-3.83372e-07
5.19603e-07
-4.10462e-07
4.93802e-07
-4.35029e-07
4.65817e-07
-4.56444e-07
4.35998e-07
-4.74045e-07
4.04796e-07
-4.87267e-07
3.72743e-07
-4.95795e-07
3.4039e-07
-4.99687e-07
3.08246e-07
-4.99399e-07
2.76723e-07
-4.95694e-07
2.46115e-07
-4.8947e-07
2.16607e-07
-4.81585e-07
1.88328e-07
-4.72747e-07
1.61338e-07
-4.63455e-07
1.35606e-07
-4.54022e-07
1.11066e-07
-4.4462e-07
8.76409e-08
-4.35327e-07
6.52591e-08
-4.26161e-07
4.38562e-08
-4.17108e-07
2.3378e-08
-4.08143e-07
3.77802e-09
-3.9924e-07
-1.49747e-08
-3.90381e-07
-3.2906e-08
-3.81558e-07
-5.00471e-08
-3.72771e-07
-6.64234e-08
-3.64017e-07
-8.20551e-08
-3.55251e-07
-9.69612e-08
-3.46485e-07
-1.1116e-07
-3.37734e-07
-1.2467e-07
-3.2902e-07
-1.37507e-07
-3.20363e-07
-1.49691e-07
-3.11786e-07
-1.61238e-07
-3.03314e-07
-1.72167e-07
-2.94969e-07
-1.82496e-07
-2.86775e-07
-1.92242e-07
-2.78758e-07
-2.01424e-07
-2.7094e-07
-2.10061e-07
-2.63345e-07
-2.18171e-07
-2.55996e-07
-2.25773e-07
-2.48918e-07
-2.32887e-07
-2.42133e-07
-2.39533e-07
-2.35669e-07
-2.45733e-07
-2.29553e-07
-2.51509e-07
-2.23818e-07
-2.56888e-07
-2.18499e-07
-2.61901e-07
-2.13641e-07
-2.66587e-07
-2.09297e-07
-2.70994e-07
-2.05558e-07
-2.75175e-07
-2.02498e-07
-2.7919e-07
-2.00174e-07
-2.83136e-07
-1.98821e-07
-2.87405e-07
-1.98627e-07
-2.92652e-07
-1.99814e-07
-2.99603e-07
-2.10883e-07
-3.0761e-07
-2.23269e-07
-3.16469e-07
-2.3692e-07
-3.26225e-07
-2.52015e-07
-3.36997e-07
-2.68792e-07
-3.48944e-07
-2.87524e-07
-3.6228e-07
-3.08534e-07
-3.77294e-07
-3.32215e-07
-3.94374e-07
-3.5903e-07
-4.14043e-07
-3.89515e-07
-4.36978e-07
-4.24385e-07
-4.64034e-07
-4.6432e-07
-4.96191e-07
-5.09376e-07
-5.34366e-07
-5.58538e-07
-5.78908e-07
-6.08956e-07
-6.29595e-07
-6.55236e-07
-6.85295e-07
-6.90275e-07
-7.43689e-07
-7.08332e-07
-8.01833e-07
-7.08173e-07
-8.57157e-07
-6.9295e-07
-9.08048e-07
-6.6734e-07
-9.53807e-07
-6.35406e-07
-9.94236e-07
-5.99787e-07
-1.02922e-06
-5.61943e-07
-1.05907e-06
-5.22578e-07
-1.08435e-06
-4.82127e-07
-1.10558e-06
-4.40926e-07
-1.12328e-06
-3.9923e-07
-1.13789e-06
-3.57235e-07
-1.14983e-06
-3.15094e-07
-1.15947e-06
-2.72916e-07
-1.16712e-06
-2.30774e-07
-1.17308e-06
-1.88707e-07
-1.17757e-06
-1.46725e-07
-1.1808e-06
-1.04806e-07
-1.18292e-06
-6.28924e-08
-2.09715e-08
6.57919e-07
-1.70607e-08
6.55826e-07
-5.09243e-08
6.52177e-07
-8.45324e-08
6.46971e-07
-1.1786e-07
6.40144e-07
-1.50844e-07
6.31596e-07
-1.83409e-07
6.21217e-07
-2.15462e-07
6.08893e-07
-2.46884e-07
5.9452e-07
-2.7752e-07
5.78016e-07
-3.07179e-07
5.59335e-07
-3.35613e-07
5.38473e-07
-3.62508e-07
5.1549e-07
-3.87474e-07
4.90533e-07
-4.10065e-07
4.63821e-07
-4.29723e-07
4.35637e-07
-4.45847e-07
4.06334e-07
-4.57946e-07
3.76318e-07
-4.65756e-07
3.46008e-07
-4.69351e-07
3.15793e-07
-4.69154e-07
2.85987e-07
-4.65857e-07
2.56822e-07
-4.60273e-07
2.28449e-07
-4.5318e-07
2.00966e-07
-4.45233e-07
1.74431e-07
-4.36891e-07
1.48858e-07
-4.2842e-07
1.24235e-07
-4.19972e-07
1.00542e-07
-4.11611e-07
7.7755e-08
-4.03353e-07
5.58497e-08
-3.95183e-07
3.48029e-08
-3.87078e-07
1.45931e-08
-3.79014e-07
-4.80094e-09
-3.70972e-07
-2.33979e-08
-3.62946e-07
-4.12159e-08
-3.54938e-07
-5.82716e-08
-3.46946e-07
-7.45795e-08
-3.38929e-07
-9.01554e-08
-3.30894e-07
-1.05015e-07
-3.22859e-07
-1.19176e-07
-3.14844e-07
-1.32654e-07
-3.0687e-07
-1.45467e-07
-2.98958e-07
-1.57635e-07
-2.91132e-07
-1.69176e-07
-2.83414e-07
-1.80108e-07
-2.75829e-07
-1.90453e-07
-2.684e-07
-2.0023e-07
-2.6115e-07
-2.09462e-07
-2.54101e-07
-2.18169e-07
-2.47277e-07
-2.26376e-07
-2.40699e-07
-2.34106e-07
-2.34392e-07
-2.41385e-07
-2.28379e-07
-2.48243e-07
-2.22685e-07
-2.54713e-07
-2.17338e-07
-2.60832e-07
-2.1237e-07
-2.66648e-07
-2.07817e-07
-2.72216e-07
-2.0372e-07
-2.77608e-07
-2.00159e-07
-2.8292e-07
-1.9718e-07
-2.88282e-07
-1.94806e-07
-2.93896e-07
-1.93201e-07
-3.00002e-07
-1.92508e-07
-3.06137e-07
-1.94004e-07
-3.1323e-07
-2.03827e-07
-3.21556e-07
-2.14984e-07
-3.3101e-07
-2.27511e-07
-3.4158e-07
-2.41493e-07
-3.53339e-07
-2.57087e-07
-3.66418e-07
-2.74505e-07
-3.80994e-07
-2.94023e-07
-3.973e-07
-3.15981e-07
-4.15623e-07
-3.40788e-07
-4.36302e-07
-3.68925e-07
-4.59713e-07
-4.01073e-07
-4.86325e-07
-4.37818e-07
-5.16674e-07
-4.79146e-07
-5.51287e-07
-5.24048e-07
-5.90524e-07
-5.6984e-07
-6.34501e-07
-6.11368e-07
-6.82694e-07
-6.42168e-07
-7.33594e-07
-6.57491e-07
-7.85047e-07
-6.56756e-07
-8.35048e-07
-6.42968e-07
-8.82233e-07
-6.20165e-07
-9.25923e-07
-5.9172e-07
-9.65844e-07
-5.59868e-07
-1.00184e-06
-5.2595e-07
-1.03389e-06
-4.90526e-07
-1.06211e-06
-4.53913e-07
-1.08666e-06
-4.16376e-07
-1.10776e-06
-3.78121e-07
-1.12568e-06
-3.39314e-07
-1.14069e-06
-3.0009e-07
-1.15305e-06
-2.60557e-07
-1.16302e-06
-2.20804e-07
-1.17083e-06
-1.80892e-07
-1.17669e-06
-1.40866e-07
-1.18075e-06
-1.0075e-07
-1.18309e-06
-6.05536e-08
-2.02363e-08
6.57627e-07
-1.61539e-08
6.55003e-07
-4.83005e-08
6.50673e-07
-8.02027e-08
6.44604e-07
-1.11791e-07
6.36755e-07
-1.42994e-07
6.27076e-07
-1.73731e-07
6.15523e-07
-2.03909e-07
6.02056e-07
-2.33417e-07
5.86657e-07
-2.6212e-07
5.69328e-07
-2.8985e-07
5.50108e-07
-3.16392e-07
5.29069e-07
-3.41466e-07
5.06316e-07
-3.64718e-07
4.81965e-07
-3.85707e-07
4.56179e-07
-4.03929e-07
4.2921e-07
-4.18867e-07
4.01369e-07
-4.3009e-07
3.73002e-07
-4.37372e-07
3.44455e-07
-4.40783e-07
3.16037e-07
-4.40712e-07
2.87995e-07
-4.3779e-07
2.60508e-07
-4.32759e-07
2.33682e-07
-4.26328e-07
2.0756e-07
-4.19084e-07
1.82146e-07
-4.11452e-07
1.5745e-07
-4.03701e-07
1.33479e-07
-3.95979e-07
1.10238e-07
-3.88349e-07
8.77284e-08
-3.80824e-07
6.59508e-08
-3.73388e-07
4.49033e-08
-3.66015e-07
2.4583e-08
-3.58679e-07
4.98502e-09
-3.51361e-07
-1.38962e-08
-3.44052e-07
-3.20685e-08
-3.36754e-07
-4.95391e-08
-3.29463e-07
-6.6315e-08
-3.2214e-07
-8.24054e-08
-3.14791e-07
-9.78212e-08
-3.07431e-07
-1.12574e-07
-3.00079e-07
-1.26679e-07
-2.92753e-07
-1.4015e-07
-2.85475e-07
-1.53004e-07
-2.78266e-07
-1.65258e-07
-2.71148e-07
-1.7693e-07
-2.64144e-07
-1.88043e-07
-2.57276e-07
-1.98617e-07
-2.50564e-07
-2.08676e-07
-2.4403e-07
-2.18246e-07
-2.37696e-07
-2.27353e-07
-2.31581e-07
-2.36029e-07
-2.25706e-07
-2.44306e-07
-2.20091e-07
-2.52223e-07
-2.14759e-07
-2.59821e-07
-2.09731e-07
-2.67151e-07
-2.05032e-07
-2.74271e-07
-2.00689e-07
-2.81249e-07
-1.96734e-07
-2.88167e-07
-1.93233e-07
-2.95124e-07
-1.90216e-07
-3.02236e-07
-1.87687e-07
-3.09643e-07
-1.85789e-07
-3.17513e-07
-1.84616e-07
-3.24556e-07
-1.87238e-07
-3.32385e-07
-1.96036e-07
-3.41291e-07
-2.06118e-07
-3.513e-07
-2.17545e-07
-3.62455e-07
-2.30385e-07
-3.74831e-07
-2.44762e-07
-3.88527e-07
-2.60864e-07
-4.03665e-07
-2.78946e-07
-4.20385e-07
-2.99327e-07
-4.38847e-07
-3.224e-07
-4.59198e-07
-3.48654e-07
-4.81583e-07
-3.78777e-07
-5.06225e-07
-4.13273e-07
-5.33452e-07
-4.52022e-07
-5.63771e-07
-4.93833e-07
-5.97983e-07
-5.35728e-07
-6.36715e-07
-5.72721e-07
-6.79813e-07
-5.99136e-07
-7.26028e-07
-6.11319e-07
-7.7342e-07
-6.09391e-07
-8.20121e-07
-5.96281e-07
-8.64803e-07
-5.75491e-07
-9.06716e-07
-5.49811e-07
-9.45541e-07
-5.21044e-07
-9.81272e-07
-4.9022e-07
-1.01388e-06
-4.57917e-07
-1.04333e-06
-4.24465e-07
-1.06963e-06
-3.90078e-07
-1.09284e-06
-3.54908e-07
-1.11307e-06
-3.19083e-07
-1.13045e-06
-2.8271e-07
-1.14513e-06
-2.45884e-07
-1.15724e-06
-2.08687e-07
-1.16695e-06
-1.71188e-07
-1.17437e-06
-1.33445e-07
-1.17961e-06
-9.55063e-08
-1.18276e-06
-5.74089e-08
-1.91726e-08
6.57643e-07
-1.52632e-08
6.54948e-07
-4.56058e-08
6.50445e-07
-7.56993e-08
6.4413e-07
-1.05476e-07
6.35993e-07
-1.34857e-07
6.26025e-07
-1.63762e-07
6.14214e-07
-1.92098e-07
6.00557e-07
-2.1976e-07
5.85061e-07
-2.46623e-07
5.67744e-07
-2.72533e-07
5.48645e-07
-2.97291e-07
5.27828e-07
-3.20647e-07
5.05388e-07
-3.42275e-07
4.81465e-07
-3.6178e-07
4.56247e-07
-3.78705e-07
4.29973e-07
-3.92585e-07
4.02925e-07
-4.0303e-07
3.75404e-07
-4.09836e-07
3.47708e-07
-4.1307e-07
3.20101e-07
-4.13086e-07
2.928e-07
-4.10468e-07
2.65959e-07
-4.05897e-07
2.39684e-07
-4.0003e-07
2.14031e-07
-3.93411e-07
1.89031e-07
-3.86432e-07
1.64694e-07
-3.79345e-07
1.41022e-07
-3.72289e-07
1.18013e-07
-3.65324e-07
9.56644e-08
-3.5846e-07
7.39727e-08
-3.51683e-07
5.29361e-08
-3.44965e-07
3.25528e-08
-3.38284e-07
1.28202e-08
-3.31617e-07
-6.26465e-09
-3.24957e-07
-2.47045e-08
-3.18304e-07
-4.25044e-08
-3.11653e-07
-5.96674e-08
-3.04967e-07
-7.61993e-08
-2.98249e-07
-9.21075e-08
-2.91512e-07
-1.07402e-07
-2.84774e-07
-1.22094e-07
-2.78051e-07
-1.36195e-07
-2.71363e-07
-1.49721e-07
-2.64729e-07
-1.62687e-07
-2.58171e-07
-1.75113e-07
-2.51708e-07
-1.87019e-07
-2.45359e-07
-1.98427e-07
-2.39146e-07
-2.09362e-07
-2.33086e-07
-2.1985e-07
-2.27198e-07
-2.2992e-07
-2.21501e-07
-2.39605e-07
-2.16011e-07
-2.48941e-07
-2.10747e-07
-2.57968e-07
-2.05724e-07
-2.66729e-07
-2.00962e-07
-2.75275e-07
-1.96478e-07
-2.83663e-07
-1.92294e-07
-2.91958e-07
-1.88433e-07
-3.00227e-07
-1.84957e-07
-3.08559e-07
-1.81879e-07
-3.17042e-07
-1.79199e-07
-3.25773e-07
-1.77053e-07
-3.34833e-07
-1.75535e-07
-3.42758e-07
-1.79499e-07
-3.51399e-07
-1.8743e-07
-3.60969e-07
-1.96585e-07
-3.71525e-07
-2.07029e-07
-3.83133e-07
-2.1882e-07
-3.95868e-07
-2.32073e-07
-4.09815e-07
-2.46967e-07
-4.25069e-07
-2.63746e-07
-4.41736e-07
-2.82719e-07
-4.59934e-07
-3.04266e-07
-4.79774e-07
-3.28884e-07
-5.01401e-07
-3.57226e-07
-5.25083e-07
-3.89672e-07
-5.51217e-07
-4.25972e-07
-5.80359e-07
-4.64775e-07
-6.13149e-07
-5.03016e-07
-6.50012e-07
-5.35924e-07
-6.90696e-07
-5.58501e-07
-7.34075e-07
-5.67972e-07
-7.78519e-07
-5.64965e-07
-8.22499e-07
-5.5231e-07
-8.64905e-07
-5.3309e-07
-9.05054e-07
-5.09663e-07
-9.4258e-07
-4.83519e-07
-9.77314e-07
-4.55487e-07
-1.0092e-06
-4.26033e-07
-1.03823e-06
-3.95431e-07
-1.06444e-06
-3.63867e-07
-1.08787e-06
-3.31479e-07
-1.10857e-06
-2.98382e-07
-1.12661e-06
-2.64673e-07
-1.14205e-06
-2.30442e-07
-1.15497e-06
-1.95768e-07
-1.16543e-06
-1.60722e-07
-1.17351e-06
-1.2537e-07
-1.17924e-06
-8.97694e-08
-1.18268e-06
-5.3976e-08
-1.8029e-08
6.5758e-07
-1.43093e-08
6.54744e-07
-4.27699e-08
6.50039e-07
-7.0994e-08
6.43469e-07
-9.89064e-08
6.35042e-07
-1.2643e-07
6.24764e-07
-1.53484e-07
6.12648e-07
-1.79982e-07
5.98713e-07
-2.05825e-07
5.82989e-07
-2.30898e-07
5.65518e-07
-2.55062e-07
5.46364e-07
-2.78136e-07
5.2561e-07
-2.99891e-07
5.0337e-07
-3.20033e-07
4.7979e-07
-3.38197e-07
4.55055e-07
-3.53965e-07
4.29389e-07
-3.66911e-07
4.03042e-07
-3.76675e-07
3.76285e-07
-3.83068e-07
3.49377e-07
-3.86148e-07
3.22548e-07
-3.86242e-07
2.95984e-07
-3.83887e-07
2.6982e-07
-3.79716e-07
2.44145e-07
-3.74339e-07
2.19012e-07
-3.68262e-07
1.9445e-07
-3.61853e-07
1.7047e-07
-3.5535e-07
1.47077e-07
-3.48883e-07
1.24274e-07
-3.42507e-07
1.0206e-07
-3.36233e-07
8.04342e-08
-3.30046e-07
5.93978e-08
-3.23919e-07
3.89507e-08
-3.17827e-07
1.90933e-08
-3.11751e-07
-1.75494e-10
-3.0568e-07
-1.88601e-08
-2.99612e-07
-3.69598e-08
-2.93545e-07
-5.44767e-08
-2.87442e-07
-7.14147e-08
-2.81302e-07
-8.778e-08
-2.75138e-07
-1.0358e-07
-2.68965e-07
-1.18823e-07
-2.62799e-07
-1.33521e-07
-2.56656e-07
-1.47686e-07
-2.50555e-07
-1.61335e-07
-2.44513e-07
-1.74486e-07
-2.38548e-07
-1.87157e-07
-2.32679e-07
-1.99371e-07
-2.26924e-07
-2.1115e-07
-2.21298e-07
-2.22521e-07
-2.15819e-07
-2.33513e-07
-2.10501e-07
-2.44155e-07
-2.05361e-07
-2.54483e-07
-2.00411e-07
-2.64532e-07
-1.95667e-07
-2.74344e-07
-1.91143e-07
-2.83961e-07
-1.86854e-07
-2.93434e-07
-1.82815e-07
-3.02814e-07
-1.79048e-07
-3.12157e-07
-1.7561e-07
-3.21536e-07
-1.72496e-07
-3.31019e-07
-1.69713e-07
-3.40682e-07
-1.67387e-07
-3.50584e-07
-1.65623e-07
-3.5936e-07
-1.70821e-07
-3.68809e-07
-1.78013e-07
-3.79034e-07
-1.86393e-07
-3.9011e-07
-1.95988e-07
-4.02119e-07
-2.06848e-07
-4.15141e-07
-2.19091e-07
-4.29258e-07
-2.32893e-07
-4.44558e-07
-2.48492e-07
-4.61134e-07
-2.66194e-07
-4.79086e-07
-2.86367e-07
-4.98506e-07
-3.09522e-07
-5.19535e-07
-3.3626e-07
-5.42426e-07
-3.66846e-07
-5.67553e-07
-4.00911e-07
-5.95433e-07
-4.3696e-07
-6.26646e-07
-4.7186e-07
-6.61558e-07
-5.01059e-07
-6.99912e-07
-5.20181e-07
-7.40698e-07
-5.27207e-07
-7.82515e-07
-5.23161e-07
-8.24069e-07
-5.10762e-07
-8.64419e-07
-4.92744e-07
-9.02967e-07
-4.71117e-07
-9.39363e-07
-4.47124e-07
-9.73398e-07
-4.21452e-07
-1.00495e-06
-3.94484e-07
-1.03394e-06
-3.66442e-07
-1.06033e-06
-3.37478e-07
-1.0841e-06
-3.07702e-07
-1.10527e-06
-2.77212e-07
-1.12385e-06
-2.46093e-07
-1.13987e-06
-2.14424e-07
-1.15336e-06
-1.82281e-07
-1.16435e-06
-1.49733e-07
-1.17287e-06
-1.16848e-07
-1.17895e-06
-8.36916e-08
-1.1826e-06
-5.03251e-08
-1.68063e-08
6.57575e-07
-1.33505e-08
6.54706e-07
-3.99012e-08
6.4994e-07
-6.6228e-08
6.43292e-07
-9.22582e-08
6.34779e-07
-1.17917e-07
6.24421e-07
-1.43126e-07
6.12243e-07
-1.67804e-07
5.98278e-07
-1.91859e-07
5.82565e-07
-2.15185e-07
5.65157e-07
-2.37653e-07
5.4612e-07
-2.59098e-07
5.25541e-07
-2.79311e-07
5.03531e-07
-2.98022e-07
4.80235e-07
-3.14898e-07
4.55829e-07
-3.29556e-07
4.30528e-07
-3.41604e-07
4.04572e-07
-3.50712e-07
3.78218e-07
-3.56705e-07
3.51712e-07
-3.59633e-07
3.25277e-07
-3.59795e-07
2.99087e-07
-3.57685e-07
2.73271e-07
-3.53888e-07
2.47915e-07
-3.48969e-07
2.23066e-07
-3.434e-07
1.9875e-07
-3.37526e-07
1.74978e-07
-3.31566e-07
1.5175e-07
-3.25644e-07
1.29066e-07
-3.19813e-07
1.06924e-07
-3.14082e-07
8.53217e-08
-3.08434e-07
6.42588e-08
-3.02847e-07
4.37351e-08
-2.97296e-07
2.37502e-08
-2.91759e-07
4.30338e-09
-2.86227e-07
-1.46053e-08
-2.80697e-07
-3.29791e-08
-2.75165e-07
-5.08188e-08
-2.69596e-07
-6.81266e-08
-2.63988e-07
-8.49064e-08
-2.58352e-07
-1.01164e-07
-2.52701e-07
-1.16907e-07
-2.47049e-07
-1.32145e-07
-2.4141e-07
-1.46892e-07
-2.35801e-07
-1.61161e-07
-2.30237e-07
-1.74967e-07
-2.24735e-07
-1.88329e-07
-2.19311e-07
-2.01266e-07
-2.1398e-07
-2.138e-07
-2.08757e-07
-2.25954e-07
-2.03657e-07
-2.37755e-07
-1.98694e-07
-2.49229e-07
-1.9388e-07
-2.60406e-07
-1.89228e-07
-2.71317e-07
-1.8475e-07
-2.81995e-07
-1.80459e-07
-2.92476e-07
-1.76368e-07
-3.02794e-07
-1.72492e-07
-3.12989e-07
-1.68848e-07
-3.23096e-07
-1.65499e-07
-3.33188e-07
-1.62402e-07
-3.43294e-07
-1.59606e-07
-3.53503e-07
-1.57177e-07
-3.63914e-07
-1.55218e-07
-3.7371e-07
-1.61053e-07
-3.839e-07
-1.67849e-07
-3.94676e-07
-1.75645e-07
-4.06175e-07
-1.84518e-07
-4.18497e-07
-1.94557e-07
-4.31731e-07
-2.0589e-07
-4.45963e-07
-2.18696e-07
-4.61279e-07
-2.33214e-07
-4.77774e-07
-2.4974e-07
-4.95549e-07
-2.68635e-07
-5.14707e-07
-2.9041e-07
-5.35419e-07
-3.15596e-07
-5.57963e-07
-3.44351e-07
-5.82734e-07
-3.76188e-07
-6.10246e-07
-4.09494e-07
-6.41018e-07
-4.41127e-07
-6.75284e-07
-4.66824e-07
-7.12651e-07
-4.82834e-07
-7.52081e-07
-4.8779e-07
-7.92273e-07
-4.82976e-07
-8.32091e-07
-4.70948e-07
-8.70737e-07
-4.541e-07
-9.07709e-07
-4.34145e-07
-9.42713e-07
-4.1212e-07
-9.7557e-07
-3.88595e-07
-1.00617e-06
-3.63887e-07
-1.03443e-06
-3.38182e-07
-1.0603e-06
-3.11606e-07
-1.08374e-06
-2.84256e-07
-1.10474e-06
-2.56216e-07
-1.12327e-06
-2.27561e-07
-1.13933e-06
-1.98363e-07
-1.15292e-06
-1.68693e-07
-1.16404e-06
-1.38617e-07
-1.17269e-06
-1.08201e-07
-1.17887e-06
-7.75105e-08
-1.18258e-06
-4.66112e-08
-1.55653e-08
6.57564e-07
-1.23805e-08
6.54668e-07
-3.70057e-08
6.49864e-07
-6.14235e-08
6.43169e-07
-8.55631e-08
6.34606e-07
-1.09354e-07
6.24202e-07
-1.32722e-07
6.11989e-07
-1.55592e-07
5.98008e-07
-1.77878e-07
5.82306e-07
-1.99483e-07
5.64943e-07
-2.20289e-07
5.45991e-07
-2.40146e-07
5.25543e-07
-2.58862e-07
5.03712e-07
-2.7619e-07
4.80642e-07
-2.91826e-07
4.56506e-07
-3.05417e-07
4.3151e-07
-3.16604e-07
4.05883e-07
-3.25081e-07
3.79868e-07
-3.30684e-07
3.53699e-07
-3.33457e-07
3.27584e-07
-3.33672e-07
3.01691e-07
-3.31783e-07
2.76142e-07
-3.2833e-07
2.5102e-07
-3.23838e-07
2.26372e-07
-3.18743e-07
2.02222e-07
-3.13367e-07
1.78579e-07
-3.07915e-07
1.55445e-07
-3.02502e-07
1.32818e-07
-2.97178e-07
1.10694e-07
-2.9195e-07
8.90704e-08
-2.86805e-07
6.79468e-08
-2.81718e-07
4.7322e-08
-2.76665e-07
2.71957e-08
-2.71628e-07
7.56722e-09
-2.66594e-07
-1.15647e-08
-2.6156e-07
-3.02018e-08
-2.56524e-07
-4.83441e-08
-2.51449e-07
-6.59926e-08
-2.46334e-07
-8.31503e-08
-2.41189e-07
-9.98223e-08
-2.36024e-07
-1.16016e-07
-2.3085e-07
-1.31739e-07
-2.25682e-07
-1.47002e-07
-2.20532e-07
-1.61818e-07
-2.15416e-07
-1.76199e-07
-2.10348e-07
-1.90163e-07
-2.05341e-07
-2.03726e-07
-2.00411e-07
-2.16907e-07
-1.9557e-07
-2.29728e-07
-1.90831e-07
-2.42209e-07
-1.86207e-07
-2.54376e-07
-1.81708e-07
-2.66253e-07
-1.77346e-07
-2.77865e-07
-1.73133e-07
-2.89238e-07
-1.69081e-07
-3.004e-07
-1.65203e-07
-3.11375e-07
-1.61514e-07
-3.22187e-07
-1.58034e-07
-3.32854e-07
-1.5483e-07
-3.43414e-07
-1.51841e-07
-3.53862e-07
-1.49158e-07
-3.64216e-07
-1.46826e-07
-3.7457e-07
-1.44947e-07
-3.85054e-07
-1.50583e-07
-3.95901e-07
-1.57019e-07
-4.07245e-07
-1.6432e-07
-4.19213e-07
-1.72572e-07
-4.31911e-07
-1.81882e-07
-4.45437e-07
-1.92389e-07
-4.59884e-07
-2.04277e-07
-4.75344e-07
-2.17782e-07
-4.91919e-07
-2.33194e-07
-5.09722e-07
-2.50863e-07
-5.28872e-07
-2.71291e-07
-5.49567e-07
-2.94934e-07
-5.72093e-07
-3.21858e-07
-5.96833e-07
-3.5148e-07
-6.24245e-07
-3.8211e-07
-6.54742e-07
-4.10654e-07
-6.88417e-07
-4.33166e-07
-7.24799e-07
-4.46464e-07
-7.62896e-07
-4.497e-07
-8.01562e-07
-4.44314e-07
-8.39827e-07
-4.32685e-07
-8.77009e-07
-4.16919e-07
-9.12671e-07
-3.98483e-07
-9.46542e-07
-3.78249e-07
-9.78445e-07
-3.56692e-07
-1.00826e-06
-3.34074e-07
-1.03589e-06
-3.10549e-07
-1.06127e-06
-2.86223e-07
-1.08435e-06
-2.61177e-07
-1.10509e-06
-2.35481e-07
-1.12344e-06
-2.09204e-07
-1.1394e-06
-1.8241e-07
-1.15293e-06
-1.55161e-07
-1.16402e-06
-1.27522e-07
-1.17267e-06
-9.95551e-08
-1.17886e-06
-7.13232e-08
-1.18258e-06
-4.28904e-08
-1.43213e-08
6.57565e-07
-1.14114e-08
6.54669e-07
-3.41099e-08
6.49863e-07
-5.66175e-08
6.43168e-07
-7.88682e-08
6.3461e-07
-1.00796e-07
6.2422e-07
-1.22332e-07
6.12034e-07
-1.43406e-07
5.98096e-07
-1.6394e-07
5.82458e-07
-1.83845e-07
5.65182e-07
-2.03013e-07
5.46343e-07
-2.21306e-07
5.26031e-07
-2.3855e-07
5.04362e-07
-2.5452e-07
4.81474e-07
-2.68936e-07
4.57536e-07
-2.81478e-07
4.32749e-07
-2.91815e-07
4.07335e-07
-2.99665e-07
3.8153e-07
-3.04875e-07
3.55563e-07
-3.07485e-07
3.29636e-07
-3.0774e-07
3.03916e-07
-3.06056e-07
2.78521e-07
-3.0293e-07
2.53533e-07
-2.98844e-07
2.28998e-07
-2.94202e-07
2.04938e-07
-2.893e-07
1.8136e-07
-2.84332e-07
1.58266e-07
-2.79402e-07
1.3565e-07
-2.74557e-07
1.13508e-07
-2.69804e-07
9.18368e-08
-2.65129e-07
7.06335e-08
-2.6051e-07
4.98968e-08
-2.55924e-07
2.96257e-08
-2.51353e-07
9.81935e-09
-2.46784e-07
-9.5235e-09
-2.42214e-07
-2.84037e-08
-2.3764e-07
-4.68209e-08
-2.33028e-07
-6.47756e-08
-2.28376e-07
-8.22706e-08
-2.2369e-07
-9.93097e-08
-2.18981e-07
-1.15898e-07
-2.14258e-07
-1.32043e-07
-2.09533e-07
-1.47752e-07
-2.04819e-07
-1.63036e-07
-2.00127e-07
-1.77907e-07
-1.95472e-07
-1.92379e-07
-1.90865e-07
-2.06465e-07
-1.8632e-07
-2.20184e-07
-1.81847e-07
-2.33552e-07
-1.77459e-07
-2.46589e-07
-1.73165e-07
-2.59315e-07
-1.68978e-07
-2.71751e-07
-1.64906e-07
-2.83921e-07
-1.6096e-07
-2.95845e-07
-1.57153e-07
-3.07548e-07
-1.53497e-07
-3.19051e-07
-1.50008e-07
-3.30369e-07
-1.46713e-07
-3.41532e-07
-1.43665e-07
-3.52547e-07
-1.40825e-07
-3.63404e-07
-1.38302e-07
-3.74061e-07
-1.36174e-07
-3.84343e-07
-1.34761e-07
-3.94964e-07
-1.39974e-07
-4.06073e-07
-1.45923e-07
-4.17733e-07
-1.52675e-07
-4.3002e-07
-1.60302e-07
-4.43015e-07
-1.68904e-07
-4.56804e-07
-1.78618e-07
-4.71474e-07
-1.89626e-07
-4.87121e-07
-2.02155e-07
-5.03854e-07
-2.16481e-07
-5.21793e-07
-2.32945e-07
-5.41081e-07
-2.52024e-07
-5.61937e-07
-2.74098e-07
-5.84657e-07
-2.99155e-07
-6.09614e-07
-3.2654e-07
-6.37217e-07
-3.5452e-07
-6.67774e-07
-3.80107e-07
-7.01249e-07
-3.99698e-07
-7.37078e-07
-4.10638e-07
-7.74286e-07
-4.12493e-07
-8.11827e-07
-4.06774e-07
-8.48854e-07
-3.95658e-07
-8.84785e-07
-3.80989e-07
-9.19247e-07
-3.6402e-07
-9.52009e-07
-3.45487e-07
-9.82913e-07
-3.25788e-07
-1.01185e-06
-3.05141e-07
-1.03872e-06
-2.83676e-07
-1.06346e-06
-2.61483e-07
-1.08601e-06
-2.3863e-07
-1.10631e-06
-2.15181e-07
-1.12432e-06
-1.91194e-07
-1.14e-06
-1.66727e-07
-1.15333e-06
-1.41836e-07
-1.16427e-06
-1.16581e-07
-1.1728e-06
-9.1019e-08
-1.17892e-06
-6.52097e-08
-1.18259e-06
-3.92135e-08
-1.30926e-08
6.57566e-07
-1.04438e-08
6.54675e-07
-3.12192e-08
6.49879e-07
-5.18208e-08
6.43198e-07
-7.21874e-08
6.3466e-07
-9.2258e-08
6.24299e-07
-1.1197e-07
6.12153e-07
-1.31259e-07
5.98267e-07
-1.50054e-07
5.82695e-07
-1.68273e-07
5.65501e-07
-1.85818e-07
5.4676e-07
-2.02565e-07
5.26565e-07
-2.18355e-07
5.05027e-07
-2.32982e-07
4.82285e-07
-2.46194e-07
4.58505e-07
-2.57697e-07
4.3388e-07
-2.67189e-07
4.0863e-07
-2.74413e-07
3.82983e-07
-2.79227e-07
3.57163e-07
-2.81662e-07
3.31369e-07
-2.81944e-07
3.05765e-07
-2.80449e-07
2.80469e-07
-2.77631e-07
2.55561e-07
-2.73932e-07
2.31087e-07
-2.69724e-07
2.07069e-07
-2.65279e-07
1.83514e-07
-2.60773e-07
1.6042e-07
-2.56305e-07
1.37783e-07
-2.51916e-07
1.15597e-07
-2.47615e-07
9.38575e-08
-2.43386e-07
7.25609e-08
-2.39211e-07
5.17051e-08
-2.35066e-07
3.12888e-08
-2.30934e-07
1.13113e-08
-2.26805e-07
-8.22811e-09
-2.22673e-07
-2.73305e-08
-2.18536e-07
-4.59956e-08
-2.14361e-07
-6.42236e-08
-2.10146e-07
-8.20156e-08
-2.05896e-07
-9.9374e-08
-2.0162e-07
-1.16303e-07
-1.97326e-07
-1.32807e-07
-1.93026e-07
-1.48894e-07
-1.88729e-07
-1.64571e-07
-1.84447e-07
-1.79849e-07
-1.80191e-07
-1.94739e-07
-1.75973e-07
-2.09252e-07
-1.71803e-07
-2.23404e-07
-1.67693e-07
-2.37208e-07
-1.63651e-07
-2.5068e-07
-1.59689e-07
-2.63839e-07
-1.55816e-07
-2.76701e-07
-1.52041e-07
-2.89286e-07
-1.48373e-07
-3.01612e-07
-1.44824e-07
-3.137e-07
-1.41406e-07
-3.25571e-07
-1.38134e-07
-3.37241e-07
-1.35041e-07
-3.48739e-07
-1.32166e-07
-3.6008e-07
-1.29483e-07
-3.71272e-07
-1.27107e-07
-3.82308e-07
-1.25132e-07
-3.92671e-07
-1.24492e-07
-4.0344e-07
-1.29215e-07
-4.14741e-07
-1.34632e-07
-4.2662e-07
-1.40808e-07
-4.39135e-07
-1.47797e-07
-4.52359e-07
-1.55692e-07
-4.66368e-07
-1.64621e-07
-4.81249e-07
-1.74757e-07
-4.97101e-07
-1.86314e-07
-5.14039e-07
-1.99554e-07
-5.32192e-07
-2.14801e-07
-5.51723e-07
-2.32502e-07
-5.72864e-07
-2.52964e-07
-5.95912e-07
-2.76112e-07
-6.21214e-07
-3.0124e-07
-6.49115e-07
-3.2662e-07
-6.79811e-07
-3.49409e-07
-7.13144e-07
-3.66362e-07
-7.48489e-07
-3.7529e-07
-7.84912e-07
-3.76068e-07
-8.21472e-07
-3.70212e-07
-8.57433e-07
-3.59696e-07
-8.92292e-07
-3.46129e-07
-9.25728e-07
-3.30585e-07
-9.57531e-07
-3.13684e-07
-9.87558e-07
-2.95761e-07
-1.0157e-06
-2.76999e-07
-1.04187e-06
-2.57507e-07
-1.06599e-06
-2.37362e-07
-1.088e-06
-2.16622e-07
-1.10784e-06
-1.95342e-07
-1.12546e-06
-1.73572e-07
-1.14082e-06
-1.51366e-07
-1.15388e-06
-1.28773e-07
-1.16462e-06
-1.05846e-07
-1.173e-06
-8.2639e-08
-1.179e-06
-5.92056e-08
-1.18261e-06
-3.56018e-08
-1.18859e-08
6.5757e-07
-9.48005e-09
6.5469e-07
-2.83392e-08
6.49911e-07
-4.70413e-08
6.43254e-07
-6.5531e-08
6.34749e-07
-8.37526e-08
6.24428e-07
-1.0165e-07
6.12331e-07
-1.19163e-07
5.98505e-07
-1.36228e-07
5.83004e-07
-1.52772e-07
5.65891e-07
-1.68705e-07
5.47243e-07
-1.83917e-07
5.27149e-07
-1.98261e-07
5.05722e-07
-2.11555e-07
4.83097e-07
-2.23568e-07
4.59435e-07
-2.34036e-07
4.34929e-07
-2.42683e-07
4.09792e-07
-2.49276e-07
3.8425e-07
-2.53684e-07
3.58524e-07
-2.55935e-07
3.32811e-07
-2.5623e-07
3.07274e-07
-2.54911e-07
2.82031e-07
-2.52387e-07
2.57162e-07
-2.49062e-07
2.32712e-07
-2.45273e-07
2.08703e-07
-2.41268e-07
1.85141e-07
-2.3721e-07
1.62024e-07
-2.33187e-07
1.39347e-07
-2.29238e-07
1.17103e-07
-2.25369e-07
9.52853e-08
-2.21568e-07
7.38911e-08
-2.17815e-07
5.29174e-08
-2.14091e-07
3.23629e-08
-2.10379e-07
1.22271e-08
-2.06668e-07
-7.491e-09
-2.02954e-07
-2.67929e-08
-1.99233e-07
-4.56775e-08
-1.95475e-07
-6.41438e-08
-1.91678e-07
-8.2192e-08
-1.87846e-07
-9.98235e-08
-1.83987e-07
-1.17041e-07
-1.80107e-07
-1.33847e-07
-1.76217e-07
-1.50249e-07
-1.72326e-07
-1.66251e-07
-1.68442e-07
-1.81862e-07
-1.64578e-07
-1.9709e-07
-1.60742e-07
-2.11947e-07
-1.56944e-07
-2.26443e-07
-1.53195e-07
-2.40589e-07
-1.49502e-07
-2.54401e-07
-1.45876e-07
-2.67891e-07
-1.42324e-07
-2.81074e-07
-1.38855e-07
-2.93967e-07
-1.35478e-07
-3.06585e-07
-1.32204e-07
-3.18945e-07
-1.29043e-07
-3.31067e-07
-1.26011e-07
-3.42968e-07
-1.23138e-07
-3.54674e-07
-1.20458e-07
-3.66205e-07
-1.1795e-07
-3.77595e-07
-1.15714e-07
-3.88891e-07
-1.13831e-07
-3.99464e-07
-1.13982e-07
-4.10449e-07
-1.18238e-07
-4.21955e-07
-1.23134e-07
-4.34039e-07
-1.28731e-07
-4.46761e-07
-1.35082e-07
-4.60189e-07
-1.42269e-07
-4.74402e-07
-1.50414e-07
-4.89489e-07
-1.59675e-07
-5.05552e-07
-1.70255e-07
-5.22715e-07
-1.82393e-07
-5.41118e-07
-1.96399e-07
-5.6094e-07
-2.12678e-07
-5.82424e-07
-2.31475e-07
-6.05862e-07
-2.52667e-07
-6.31574e-07
-2.75519e-07
-6.59838e-07
-2.98345e-07
-6.90747e-07
-3.18488e-07
-7.24038e-07
-3.33061e-07
-7.59035e-07
-3.40284e-07
-7.94841e-07
-3.40257e-07
-8.30603e-07
-3.34447e-07
-8.65673e-07
-3.24625e-07
-8.99614e-07
-3.12186e-07
-9.32148e-07
-2.98051e-07
-9.6309e-07
-2.82742e-07
-9.92311e-07
-2.6654e-07
-1.01971e-06
-2.49601e-07
-1.0452e-06
-2.32016e-07
-1.06871e-06
-2.13851e-07
-1.09018e-06
-1.95156e-07
-1.10954e-06
-1.75978e-07
-1.12675e-06
-1.56363e-07
-1.14176e-06
-1.36355e-07
-1.15453e-06
-1.16001e-07
-1.16503e-06
-9.53462e-08
-1.17323e-06
-7.44397e-08
-1.17911e-06
-5.33299e-08
-1.18264e-06
-3.20674e-08
-1.07054e-08
6.57574e-07
-8.52021e-09
6.54705e-07
-2.54706e-08
6.49945e-07
-4.22808e-08
6.43315e-07
-5.89008e-08
6.34843e-07
-7.52807e-08
6.24563e-07
-9.13698e-08
6.12515e-07
-1.07115e-07
5.98746e-07
-1.22459e-07
5.83309e-07
-1.37335e-07
5.66268e-07
-1.51665e-07
5.47698e-07
-1.65347e-07
5.27689e-07
-1.78253e-07
5.06351e-07
-1.90217e-07
4.83817e-07
-2.01035e-07
4.60247e-07
-2.10466e-07
4.3583e-07
-2.18266e-07
4.10775e-07
-2.24222e-07
3.85307e-07
-2.28217e-07
3.59643e-07
-2.30273e-07
3.33981e-07
-2.30569e-07
3.08482e-07
-2.29412e-07
2.83265e-07
-2.27171e-07
2.58409e-07
-2.24207e-07
2.3396e-07
-2.20824e-07
2.0994e-07
-2.17249e-07
1.86354e-07
-2.13624e-07
1.63201e-07
-2.10033e-07
1.40472e-07
-2.06509e-07
1.18162e-07
-2.03058e-07
9.62642e-08
-1.99669e-07
7.47735e-08
-1.96324e-07
5.36878e-08
-1.93005e-07
3.30055e-08
-1.89696e-07
1.27256e-08
-1.86387e-07
-7.15287e-09
-1.83075e-07
-2.66306e-08
-1.79754e-07
-4.57059e-08
-1.76399e-07
-6.43772e-08
-1.73006e-07
-8.26437e-08
-1.69579e-07
-1.00506e-07
-1.66124e-07
-1.17964e-07
-1.62648e-07
-1.35021e-07
-1.59159e-07
-1.51682e-07
-1.55664e-07
-1.67949e-07
-1.52174e-07
-1.8383e-07
-1.48696e-07
-1.99331e-07
-1.45239e-07
-2.14461e-07
-1.41813e-07
-2.29229e-07
-1.38426e-07
-2.43645e-07
-1.35085e-07
-2.57719e-07
-1.318e-07
-2.71464e-07
-1.28577e-07
-2.84893e-07
-1.25425e-07
-2.98018e-07
-1.22352e-07
-3.10854e-07
-1.19367e-07
-3.23416e-07
-1.1648e-07
-3.35721e-07
-1.13705e-07
-3.47788e-07
-1.1107e-07
-3.59641e-07
-1.08605e-07
-3.71302e-07
-1.06288e-07
-3.82808e-07
-1.04208e-07
-3.94183e-07
-1.02452e-07
-4.04983e-07
-1.03212e-07
-4.162e-07
-1.07025e-07
-4.27919e-07
-1.11418e-07
-4.40204e-07
-1.16449e-07
-4.53121e-07
-1.22167e-07
-4.66742e-07
-1.28649e-07
-4.81149e-07
-1.36007e-07
-4.96437e-07
-1.44387e-07
-5.12714e-07
-1.53974e-07
-5.30113e-07
-1.64989e-07
-5.48783e-07
-1.77722e-07
-5.68918e-07
-1.92533e-07
-5.90769e-07
-2.09611e-07
-6.14619e-07
-2.288e-07
-6.40756e-07
-2.49363e-07
-6.6939e-07
-2.69691e-07
-7.00518e-07
-2.8734e-07
-7.33786e-07
-2.99777e-07
-7.6849e-07
-3.05569e-07
-8.0377e-07
-3.04969e-07
-8.38853e-07
-2.99359e-07
-8.73165e-07
-2.9031e-07
-9.06324e-07
-2.79026e-07
-9.38084e-07
-2.66291e-07
-9.68279e-07
-2.52546e-07
-9.96792e-07
-2.38027e-07
-1.02353e-06
-2.22865e-07
-1.04841e-06
-2.07138e-07
-1.07136e-06
-1.909e-07
-1.09232e-06
-1.74197e-07
-1.11123e-06
-1.57067e-07
-1.12804e-06
-1.39551e-07
-1.14271e-06
-1.21688e-07
-1.15519e-06
-1.03518e-07
-1.16545e-06
-8.50826e-08
-1.17347e-06
-6.6424e-08
-1.17921e-06
-4.75856e-08
-1.18267e-06
-2.86123e-08
-9.55142e-09
6.57578e-07
-7.56428e-09
6.54721e-07
-2.26135e-08
6.49979e-07
-3.75389e-08
6.43374e-07
-5.22962e-08
6.34935e-07
-6.68411e-08
6.24694e-07
-8.11288e-08
6.12691e-07
-9.51123e-08
5.98973e-07
-1.08741e-07
5.83593e-07
-1.21955e-07
5.66613e-07
-1.34686e-07
5.4811e-07
-1.46843e-07
5.28171e-07
-1.58314e-07
5.06904e-07
-1.68951e-07
4.84441e-07
-1.78573e-07
4.6094e-07
-1.86967e-07
4.36587e-07
-1.93914e-07
4.1159e-07
-1.99227e-07
3.8617e-07
-2.028e-07
3.60546e-07
-2.04651e-07
3.34912e-07
-2.04938e-07
3.0943e-07
-2.03933e-07
2.8422e-07
-2.01963e-07
2.59361e-07
-1.9935e-07
2.349e-07
-1.96365e-07
2.10857e-07
-1.93207e-07
1.87238e-07
-1.90007e-07
1.64041e-07
-1.86837e-07
1.41258e-07
-1.83727e-07
1.18881e-07
-1.80682e-07
9.69043e-08
-1.77693e-07
7.53232e-08
-1.74744e-07
5.41346e-08
-1.71816e-07
3.33366e-08
-1.68898e-07
1.29286e-08
-1.65979e-07
-7.09012e-09
-1.63056e-07
-2.67198e-08
-1.60125e-07
-4.59584e-08
-1.5716e-07
-6.48033e-08
-1.54161e-07
-8.32531e-08
-1.51129e-07
-1.01307e-07
-1.4807e-07
-1.18965e-07
-1.44989e-07
-1.36228e-07
-1.41895e-07
-1.53099e-07
-1.38793e-07
-1.69581e-07
-1.35691e-07
-1.85679e-07
-1.32597e-07
-2.01397e-07
-1.2952e-07
-2.16743e-07
-1.26466e-07
-2.31724e-07
-1.23444e-07
-2.46349e-07
-1.2046e-07
-2.60626e-07
-1.17522e-07
-2.74566e-07
-1.14636e-07
-2.8818e-07
-1.11811e-07
-3.0148e-07
-1.09052e-07
-3.14477e-07
-1.06368e-07
-3.27187e-07
-1.0377e-07
-3.39624e-07
-1.01267e-07
-3.51807e-07
-9.88873e-08
-3.63757e-07
-9.6654e-08