/*--------------------------------*- C++ -*----------------------------------*\
  =========                 |
  \\      /  F ield         | OpenFOAM: The Open Source CFD Toolbox
   \\    /   O peration     | Website:  https://openfoam.org
    \\  /    A nd           | Version:  8
     \\/     M anipulation  |
\*---------------------------------------------------------------------------*/
FoamFile
{
    version     2.0;
    format      ascii;
    class       volScalarField;
    location    "560/fluid";
    object      Qdot;
}
// * * * * * * * * * * * * * * * * * * * * * * * * * * * * * * * * * * * * * //

dimensions      [1 -1 -3 0 0 0 0];

internalField   nonuniform List<scalar> 
4000
(
-2.65767e-07
0
6.54911e-12
3.04274e-07
-1.85698e-16
-1.3165e-11
-3.3752e-07
0
0
1.17232e-10
0
0
0
2.09426e-18
-2.25329e-09
-3.42848e-17
-2.54185e-09
-1.24846e-13
1.88857e-08
4.6702e-07
3.47167e-06
4.60456e-05
0.00055157
0.00549361
0.0447413
0.2972
1.62345
7.39522
28.5499
94.9294
275.901
709.856
1634.4
3401.97
6459.97
11305.8
18476.1
28569.2
42377.4
61052.8
86242.9
120149
165645
226541
307911
416259
561033
754231
1.01162e+06
1.35392e+06
1.80825e+06
2.41024e+06
3.20655e+06
4.25847e+06
5.64655e+06
7.47693e+06
9.88994e+06
1.30371e+07
1.71314e+07
2.26786e+07
3.00131e+07
3.97374e+07
4.10945e+08
3.02647e+07
2.17812e+07
1.54901e+07
1.08644e+07
7.5005e+06
5.08661e+06
3.3824e+06
2.20374e+06
1.41119e+06
901814
583446
163537
12878.5
362.298
5.17655
0.0489534
0.000490112
8.93453e-06
4.08461e-07
4.45907e-08
9.94772e-09
2.99369e-09
1.0273e-09
4.30349e-10
1.99681e-10
7.62142e-11
3.09319e-11
1.54444e-11
5.84542e-12
1.99796e-12
-5.03204e-12
4.41173e-13
1.65941e-13
7.2926e-14
2.51533e-14
9.58738e-15
1.65338e-15
0
-2.78607e-07
-6.13753e-21
0
-2.64632e-20
2.90597e-11
3.33324e-07
5.50412e-11
3.49575e-07
0
0
-3.6793e-07
1.39906e-14
0
-1.20302e-09
-3.31713e-17
2.0002e-09
-2.58789e-15
5.03819e-09
3.91485e-08
3.26218e-06
4.30932e-05
0.000513268
0.00513955
0.0422261
0.283537
1.56694
7.2214
28.1914
94.7149
277.898
721.099
1671.95
3497.61
6668.15
11696.7
19126.5
29548.8
43736.4
62813.6
88398.8
122663
168485
229666
311041
419740
565002
758849
1.01715e+06
1.36079e+06
1.81724e+06
2.42263e+06
3.22456e+06
4.28587e+06
5.68971e+06
7.54664e+06
1.00045e+07
1.32209e+07
1.74383e+07
2.32049e+07
3.0936e+07
6.07882e+07
3.89754e+08
2.97705e+07
2.13826e+07
1.51748e+07
1.06175e+07
7.30878e+06
4.93935e+06
3.27122e+06
2.12202e+06
1.35382e+06
865104
538065
121779
7558.35
182.215
2.32848
0.0214457
0.000235691
5.1616e-06
2.8719e-07
3.58412e-08
8.09885e-09
2.75751e-09
9.84792e-10
4.19464e-10
1.92289e-10
7.36669e-11
3.16727e-11
1.50558e-11
5.72134e-12
-3.65275e-12
1.1011e-13
4.12903e-13
5.85574e-12
6.91158e-14
2.81638e-14
9.58009e-15
1.65417e-15
6.99069e-22
0
0
0
1.81962e-16
3.74671e-16
0
-6.61586e-11
3.20463e-15
1.37095e-10
-4.74113e-19
0
-1.03086e-09
-3.64531e-07
-2.75229e-14
5.55179e-14
2.3629e-09
3.77544e-07
8.7819e-09
2.13576e-07
2.76486e-06
4.15603e-05
0.000491773
0.00493207
0.0407462
0.275797
1.53883
7.16593
28.2743
95.9988
284.539
745.434
1743.2
3670.42
7029.67
12369.7
20249.2
31257.6
46149.5
66020.6
92459.8
127602
174176
235857
318509
429141
576549
773007
1.03465e+06
1.3827e+06
1.84513e+06
2.45884e+06
3.27259e+06
4.35095e+06
5.7797e+06
7.67318e+06
1.01846e+07
1.34757e+07
1.7799e+07
2.37184e+07
3.16315e+07
1.42243e+08
3.17762e+08
2.9534e+07
2.10912e+07
1.48778e+07
1.03443e+07
7.07363e+06
4.74715e+06
3.12126e+06
2.01074e+06
1.27664e+06
817847
459800
79525.5
3904.85
82.778
0.993569
0.00949653
0.000120155
3.18485e-06
2.10046e-07
3.01224e-08
7.55916e-09
2.52284e-09
9.48042e-10
3.66602e-10
1.72892e-10
7.93332e-11
3.27591e-11
1.20096e-11
6.08206e-12
-3.48313e-12
1.01823e-12
4.31631e-13
1.63374e-13
6.87357e-14
2.50273e-14
8.83218e-15
1.47674e-15
0
0
6.05705e-21
0
-3.59998e-16
1.26604e-11
-3.18518e-11
3.28457e-07
0
-3.1871e-15
0
0
-1.31462e-14
0
-1.12407e-09
-3.47963e-17
4.15112e-09
-3.6922e-07
4.685e-09
4.2839e-07
3.05354e-06
4.0117e-05
0.000477791
0.00481173
0.0400378
0.273371
1.54001
7.24365
28.8718
99.0117
296.326
783.49
1847.76
3915.79
7527.48
13282.7
21758.2
33544.3
49380
70351.7
97987.8
134226
182070
246069
331154
444469
595455
796590
1.06434e+06
1.4204e+06
1.89344e+06
2.52134e+06
3.35426e+06
4.45875e+06
5.92339e+06
7.86641e+06
1.04464e+07
1.38264e+07
1.82707e+07
2.43627e+07
3.25136e+07
2.35047e+08
2.28179e+08
2.94653e+07
2.08649e+07
1.45918e+07
1.00568e+07
6.81604e+06
4.53331e+06
2.95444e+06
1.88838e+06
1.1937e+06
768835
363456
47832.3
1911.99
35.9527
0.408491
0.00407861
5.95038e-05
1.90785e-06
1.49366e-07
2.4312e-08
6.31527e-09
2.37278e-09
8.76806e-10
3.89929e-10
1.61584e-10
7.77926e-11
2.86764e-11
1.27027e-11
5.52055e-12
2.34134e-12
9.61095e-13
3.76579e-13
-5.39539e-12
6.23022e-14
2.19704e-14
8.84233e-15
1.48173e-15
-3.70702e-13
2.75266e-07
-6.01635e-21
-2.94433e-07
1.49747e-11
0
-3.13303e-11
0
0
-3.11444e-15
0
0
-1.27754e-14
1.8456e-18
8.86217e-10
3.46558e-07
1.80088e-09
-2.65414e-15
1.18879e-08
2.32688e-07
2.84848e-06
3.95388e-05
0.000472811
0.00478927
0.0401252
0.276213
1.56993
7.45307
29.985
103.782
313.399
835.707
1986.22
4233.02
8159.01
14423.4
23619.3
36334.2
53265.8
75400.4
104230
142062
192348
258832
347060
464406
620635
828622
1.10535e+06
1.47324e+06
1.9619e+06
2.61051e+06
3.47099e+06
4.61228e+06
6.12613e+06
8.13513e+06
1.08018e+07
1.42807e+07
1.88652e+07
2.51646e+07
3.35966e+07
3.28854e+08
1.35119e+08
2.92074e+07
2.04956e+07
1.42001e+07
9.69519e+06
6.50966e+06
4.2899e+06
2.77153e+06
1.75856e+06
1.10816e+06
717098
256746
27546.3
929.328
15.801
0.173831
0.00185108
3.13935e-05
1.20557e-06
1.0988e-07
1.95929e-08
5.5133e-09
2.10012e-09
7.35704e-10
3.56907e-10
1.58217e-10
6.25287e-11
3.00719e-11
1.25069e-11
5.44607e-12
2.31457e-12
9.52282e-13
3.51063e-13
1.42229e-13
6.49229e-14
2.1974e-14
8.1176e-15
1.30781e-15
4.84962e-18
3.07433e-12
0
2.91767e-07
1.75866e-16
0
-7.3284e-16
3.1669e-07
1.03298e-10
-3.24294e-07
0
-8.88131e-19
-9.75782e-11
0
-2.51357e-14
-3.26597e-17
-3.38572e-07
-2.67138e-15
7.93297e-09
2.24765e-07
2.86344e-06
3.957e-05
0.000475753
0.004847
0.0409
0.283822
1.62697
7.79128
31.619
110.375
336.065
903.129
2161.32
4630.86
8944.78
15799.5
25828.8
39555.5
57561.1
80891.3
111451
151630
204318
273837
365994
488489
651501
868453
1.15706e+06
1.54073e+06
2.0504e+06
2.72699e+06
3.62473e+06
4.81551e+06
6.39479e+06
8.4896e+06
1.12628e+07
1.48746e+07
1.96529e+07
2.61759e+07
3.48487e+07
4.17412e+08
4.1512e+07
2.84113e+07
1.9697e+07
1.35116e+07
9.14594e+06
6.09322e+06
3.9867e+06
2.5591e+06
1.61597e+06
1.01784e+06
653032
189467
15555.5
457.768
7.16209
0.0774825
0.000887425
1.74239e-05
7.92549e-07
8.40447e-08
1.68454e-08
5.0076e-09
1.73641e-09
7.83003e-10
2.97765e-10
1.3477e-10
6.15939e-11
2.59339e-11
1.14231e-11
-7.62489e-13
2.08511e-12
9.44781e-13
3.212e-13
1.41722e-13
6.20239e-14
1.89742e-14
6.66178e-15
1.40356e-15
0
0
-8.27081e-17
0
1.73884e-16
1.49293e-11
0
-5.00813e-11
0
1.2553e-10
2.52671e-10
0
-1.2109e-14
-3.23007e-07
-1.86135e-09
-3.51671e-17
3.76321e-09
4.1836e-09
4.22472e-09
2.32393e-07
2.90206e-06
4.04068e-05
0.000485687
0.00497727
0.0423048
0.295879
1.70995
8.25625
33.7801
118.862
364.688
987.047
2376.63
5113.86
9884.26
17403.9
28308.8
43070.3
62389.5
87573.5
120066
162284
217569
290469
387077
515473
686337
913774
1.21644e+06
1.61904e+06
2.15431e+06
2.86564e+06
3.81063e+06
5.0657e+06
6.73228e+06
8.94494e+06
1.18809e+07
1.56667e+07
2.08283e+07
2.76664e+07
3.6681e+07
4.54714e+08
3.55208e+07
2.52443e+07
1.76912e+07
1.22141e+07
8.29613e+06
5.53466e+06
3.6215e+06
2.32383e+06
1.46854e+06
930084
578560
135554
8926.45
234.709
3.43289
0.0370487
0.000459665
1.03985e-05
5.4946e-07
6.53908e-08
1.33524e-08
4.10486e-09
1.45915e-09
6.65018e-10
3.12926e-10
1.32642e-10
6.44734e-11
2.41025e-11
1.09987e-11
4.91388e-12
2.066e-12
9.37344e-13
3.44577e-13
1.3563e-13
5.57894e-14
2.19834e-14
-4.3936e-12
1.22971e-15
0
0
3.45762e-12
-1.20837e-20
1.71906e-16
1.47272e-11
0
0
3.08368e-07
3.10416e-07
0
0
-1.17877e-14
-1.69491e-18
-8.10277e-10
-3.74809e-17
-1.63354e-09
-2.79214e-15
1.88677e-08
2.24047e-07
3.0062e-06
4.12739e-05
0.000501771
0.0051762
0.0443121
0.312293
1.81897
8.8516
36.4964
129.388
399.842
1089.32
2637.1
5689.61
10967.9
19174.9
30995.7
47005.4
67937.5
94721.7
129042
173440
231445
307859
409071
543549
722481
960686
1.27781e+06
1.69997e+06
2.26194e+06
3.01007e+06
4.00634e+06
5.3337e+06
7.10364e+06
9.4664e+06
1.26227e+07
1.67358e+07
2.24142e+07
3.00458e+07
4.03145e+07
4.41098e+08
3.23225e+07
2.29887e+07
1.61325e+07
1.11522e+07
7.58163e+06
5.0604e+06
3.31202e+06
2.12661e+06
1.34747e+06
860857
504498
96816.9
5334.44
127.517
1.7647
0.0191731
0.000257853
6.64643e-06
4.03e-07
5.20669e-08
1.15851e-08
4.15206e-09
1.53171e-09
6.54232e-10
2.96383e-10
1.23269e-10
5.33303e-11
2.93747e-11
1.04227e-11
4.45722e-12
1.84567e-12
7.29748e-13
-4.83755e-13
1.35113e-13
4.96161e-14
-5.21749e-12
6.69367e-15
1.14511e-15
0
0
0
0
1.43046e-11
-2.93655e-07
-2.94155e-11
0
0
9.77908e-11
-3.04723e-07
0
3.05816e-07
1.64625e-18
-7.85699e-10
1.57381e-09
-2.91247e-16
-2.88152e-15
-2.96128e-07
2.4447e-07
3.28096e-06
4.31694e-05
0.000524009
0.00543999
0.0469038
0.333028
1.95445
9.58279
39.805
142.136
442.235
1212.14
2945.28
6350.62
12184.1
21197.1
34237.9
51615.3
73935.6
102250
138325
184831
245468
325248
430806
570917
757169
1.00492e+06
1.33453e+06
1.77313e+06
2.35686e+06
3.13399e+06
4.16915e+06
5.54907e+06
7.39052e+06
9.85133e+06
1.31216e+07
1.74174e+07
2.33707e+07
3.14035e+07
7.55643e+07
4.057e+08
3.04346e+07
2.16135e+07
1.51472e+07
1.04585e+07
7.10211e+06
4.73566e+06
3.09737e+06
1.98924e+06
1.26401e+06
815478
433148
70254.4
3348.32
73.7978
0.976683
0.0107514
0.000156438
4.54208e-06
3.1017e-07
4.44839e-08
1.10191e-08
3.58047e-09
1.35185e-09
5.93221e-10
2.66361e-10
1.15953e-10
5.25813e-11
2.18905e-11
9.50033e-12
4.01119e-12
1.82913e-12
8.23481e-13
3.15936e-13
1.2236e-13
-5.23693e-12
1.89908e-14
6.70355e-15
1.05987e-15
0
2.69591e-07
5.81734e-21
5.65981e-12
-1.15049e-11
-3.4042e-16
5.25036e-11
-2.94805e-07
1.39268e-15
0
1.91435e-10
0
3.8194e-10
-2.97666e-07
7.61284e-10
-3.82879e-17
-1.87401e-09
-2.98342e-15
2.05881e-08
1.05271e-07
3.2905e-06
4.49245e-05
0.00055176
0.00576672
0.0500726
0.358127
2.11728
10.4575
43.7535
157.339
492.671
1356.11
3298.43
7105.69
13603.6
23586.8
37804.2
56488.4
80199.5
109998
147755
196257
259363
342238
451697
596712
789119
1.04456e+06
1.38379e+06
1.83433e+06
2.43284e+06
3.22813e+06
4.28531e+06
5.69141e+06
7.56294e+06
1.00563e+07
1.33539e+07
1.7661e+07
2.35948e+07
3.15302e+07
1.48586e+08
3.40392e+08
2.94625e+07
2.08662e+07
1.45893e+07
1.00527e+07
6.8144e+06
4.5371e+06
2.96459e+06
1.90412e+06
1.21311e+06
789035
382991
52339.3
2216.59
45.4742
0.580524
0.00650609
0.000101989
3.29783e-06
2.4963e-07
3.78215e-08
9.69929e-09
3.32674e-09
1.23031e-09
5.82959e-10
2.73051e-10
1.01706e-10
5.18223e-11
2.31757e-11
9.38786e-12
3.96912e-12
1.61551e-12
6.69961e-13
3.1396e-13
-6.70275e-13
4.80328e-14
1.89734e-14
6.34569e-15
1.06345e-15
3.67517e-13
-3.01072e-12
-5.778e-21
-2.78656e-07
0
3.35662e-16
5.16623e-11
0
1.36469e-15
-3.92031e-19
0
0
0
-4.64937e-18
-6.17822e-18
-4.31576e-17
-1.47049e-09
-3.1008e-15
1.61511e-08
4.16338e-07
3.46554e-06
4.74576e-05
0.000584918
0.00615406
0.0538092
0.387615
2.30821
11.4828
48.385
175.113
550.933
1522.36
3719.9
8049.38
15320.1
26256.3
41667
61636.5
86676
117889
157248
207646
273069
358794
471753
621037
818605
1.08023e+06
1.42679e+06
1.88592e+06
2.49428e+06
3.30059e+06
4.36961e+06
5.78759e+06
7.6696e+06
1.01695e+07
1.34622e+07
1.77495e+07
2.36382e+07
3.14904e+07
2.11389e+08
2.80201e+08
2.88379e+07
2.03933e+07
1.42389e+07
9.79912e+06
6.63543e+06
4.41435e+06
2.88334e+06
1.85306e+06
1.18391e+06
775386
335188
40292.7
1547.75
29.8591
0.369898
0.00422555
7.09694e-05
2.51898e-06
2.08057e-07
3.42496e-08
9.14863e-09
3.07999e-09
1.30286e-09
5.73085e-10
2.44064e-10
1.12318e-10
4.48853e-11
1.97605e-11
8.92327e-12
2.752e-12
6.74272e-12
-1.17883e-13
2.87728e-13
1.21212e-13
4.62424e-14
7.76713e-13
5.62343e-15
5.02528e-12
0
2.67344e-07
6.10311e-12
2.76072e-07
-1.64084e-16
0
2.28006e-11
0
0
0
0
0
-2.79811e-07
-3.00328e-18
-2.76609e-07
-4.16448e-17
-3.32444e-16
-3.23582e-15
1.89854e-08
1.38364e-07
3.55132e-06
5.02994e-05
0.000623036
0.00659854
0.0580972
0.421493
2.52805
12.6669
53.7215
195.365
617.583
1720.35
4236.28
9145.11
17222.2
29132.7
45738.6
66954
93255.1
125822
166721
218952
286595
375009
491199
644325
846406
1.11326e+06
1.46577e+06
1.93153e+06
2.54705e+06
3.36072e+06
4.43674e+06
5.86039e+06
7.74511e+06
1.02411e+07
1.35181e+07
1.77821e+07
2.36278e+07
3.13993e+07
2.65562e+08
2.28135e+08
2.82636e+07
1.99925e+07
1.39611e+07
9.60888e+06
6.5073e+06
4.32983e+06
2.82937e+06
1.82059e+06
1.16706e+06
768928
285497
32027.9
1133.94
20.746
0.251019
0.00292616
5.23185e-05
2.01325e-06
1.7822e-07
3.07256e-08
8.59953e-09
3.0117e-09
1.1839e-09
5.14336e-10
2.39655e-10
9.84162e-11
5.16484e-11
2.0163e-11
3.89697e-12
3.49681e-12
1.48822e-12
6.58956e-13
2.857e-13
9.67751e-14
4.60732e-14
1.74449e-14
7.53181e-13
9.79088e-16
0
0
-5.69976e-21
-2.73503e-07
-1.62176e-16
4.68458e-20
-2.24252e-11
0
-1.30851e-15
-2.7724e-07
0
7.38761e-19
1.46558e-18
2.02471e-14
-1.53382e-09
-4.01293e-17
-3.03524e-09
-3.37829e-15
1.81799e-08
4.23555e-07
3.80087e-06
5.33778e-05
0.000665274
0.00709423
0.062896
0.459581
2.77676
14.0114
59.7834
219.085
700.738
1965.88
4845.83
10403.7
19301.6
32138.1
49884.9
72263.7
99747
133614
176015
230048
299858
390866
510121
666823
873014
1.14451e+06
1.50216e+06
1.97342e+06
2.59461e+06
3.41372e+06
4.49434e+06
5.92054e+06
7.80312e+06
1.0292e+07
1.35539e+07
1.77887e+07
2.35801e+07
3.12614e+07
3.10673e+08
1.85336e+08
2.76933e+07
1.96127e+07
1.37108e+07
9.44582e+06
6.4029e+06
4.26477e+06
2.79046e+06
1.79901e+06
1.15716e+06
764202
262285
26147.6
866.464
15.1701
0.18033
0.00214581
4.05756e-05
1.67998e-06
1.57258e-07
2.93605e-08
8.24813e-09
2.94476e-09
1.24926e-09
5.49924e-10
2.35092e-10
1.01821e-10
4.34692e-11
1.91897e-11
8.27324e-12
3.45474e-12
1.56738e-12
-1.13002e-13
2.59878e-13
9.62409e-14
4.16333e-14
1.59478e-14
5.62195e-15
9.80609e-16
-6.88199e-22
-2.65112e-07
0
-1.59207e-16
-2.44638e-11
0
-6.43921e-16
-1.2857e-15
-1.8381e-19
-1.94252e-10
-3.85337e-10
-7.63273e-10
0
-2.81038e-18
-1.93858e-14
-2.93294e-09
1.30701e-09
-3.52449e-15
2.3162e-08
3.00974e-07
4.05565e-06
5.66195e-05
0.000711263
0.00763099
0.0681169
0.501262
3.05017
15.4907
66.6363
246.96
795.609
2244.75
5540.79
11801.8
21464.6
35086.6
53865.3
77268.8
105838
140946
184820
240633
312573
406099
528287
688351
898331
1.17401e+06
1.53613e+06
2.01199e+06
2.63759e+06
3.4604e+06
4.54282e+06
5.96756e+06
7.84583e+06
1.0326e+07
1.35642e+07
1.77631e+07
2.34945e+07
3.10805e+07
3.47498e+08
1.50693e+08
2.71248e+07
1.92439e+07
1.34754e+07
9.29897e+06
6.31385e+06
4.21281e+06
2.76191e+06
1.78507e+06
1.15239e+06
761660
243414
22020.9
690.979
11.6621
0.136779
0.00165974
3.29587e-05
1.44859e-06
1.44208e-07
2.66122e-08
7.51378e-09
2.70019e-09
1.13146e-09
5.1328e-10
2.30371e-10
9.98352e-11
4.56458e-11
1.81439e-11
8.15617e-12
3.49492e-12
1.45623e-12
5.99823e-13
2.57827e-13
-5.03794e-12
4.27541e-14
1.65552e-14
7.48784e-13
9.81609e-16
-2.60674e-07
2.78394e-21
-2.68221e-12
0
0
0
0
1.80973e-19
0
1.89517e-10
-2.61229e-07
0
4.03164e-10
0
-2.48908e-07
-4.76842e-17
-1.53909e-09
-3.68113e-15
2.76006e-08
1.99414e-07
4.18881e-06
6.0059e-05
0.000758662
0.00819296
0.0736277
0.54564
3.34308
17.113
74.4019
277.859
901.769
2558.44
6316.1
13290.6
23529.7
37658.4
57263.9
81514.9
111054
147325
192630
250176
324182
420121
545081
708268
921691
1.20106e+06
1.56697e+06
2.04644e+06
2.67483e+06
3.49858e+06
4.5797e+06
6.00134e+06
7.87187e+06
1.03337e+07
1.3539e+07
1.76895e+07
2.33449e+07
3.08196e+07
3.76474e+08
1.23083e+08
2.65592e+07
1.88835e+07
1.32514e+07
9.16397e+06
6.23579e+06
4.17028e+06
2.74094e+06
1.77682e+06
1.15155e+06
760783
228794
19142
574.368
9.40393
0.109161
0.0013481
2.79054e-05
1.28989e-06
1.32602e-07
2.65604e-08
7.64942e-09
2.80124e-09
1.15243e-09
5.01609e-10
2.19328e-10
9.86796e-11
4.26764e-11
1.93104e-11
8.03477e-12
3.36588e-12
1.43927e-12
5.93801e-13
2.55657e-13
1.0083e-13
3.9644e-14
1.58544e-14
-7.36311e-13
8.93153e-16
2.60303e-07
-1.47411e-12
0
-2.65799e-07
2.66131e-07
2.38405e-11
2.64666e-07
-1.23569e-15
2.60418e-07
0
0
0
-3.89861e-10
7.67214e-10
-1.03055e-17
-2.35234e-07
2.35086e-07
2.91525e-09
2.62449e-08
4.5054e-07
4.56776e-06
6.34122e-05
0.00080599
0.00875655
0.0792108
0.591144
3.64934
18.8542
82.5829
310.851
1016.51
2899.22
7143.58
14752
25163.7
39358.3
59486.6
84355.5
114703
152021
198659
257829
333761
431926
559404
725383
941814
1.22425e+06
1.59296e+06
2.07443e+06
2.70376e+06
3.52795e+06
4.60771e+06
6.02204e+06
7.8764e+06
1.031e+07
1.34685e+07
1.75445e+07
2.30764e+07
3.03514e+07
4.05919e+08
9.82342e+07
2.59955e+07
1.85296e+07
1.30358e+07
9.03784e+06
6.166e+06
4.13487e+06
2.7257e+06
1.77289e+06
1.15364e+06
761644
218075
17162.2
496.677
7.93257
0.0913433
0.00114499
2.45254e-05
1.17905e-06
1.26784e-07
2.47937e-08
7.28617e-09
2.81653e-09
1.07633e-09
5.13315e-10
2.20472e-10
1.02211e-10
4.39788e-11
1.82586e-11
8.63065e-12
2.58558e-12
6.44506e-12
5.8755e-13
9.97513e-13
1.00115e-13
3.94327e-14
1.57982e-14
5.03683e-12
8.93368e-16
-3.64375e-13
6.58527e-13
7.72455e-17
1.54678e-16
0
-3.07664e-16
0
1.21067e-15
-1.19626e-15
3.38582e-19
6.66229e-19
0
-8.94699e-15
-2.51983e-18
-1.72389e-14
-4.86182e-17
3.29621e-14
-3.9531e-15
1.99085e-08
3.47579e-07
4.69577e-06
6.65548e-05
0.000850009
0.00928352
0.0844485
0.633865
3.9422
20.5336
90.6687
344.087
1133.75
3247.9
7958.09
15956.3
25821.4
39451.1
59740
84948.2
115867
154035
201791
262344
339907
439934
569474
737641
956247
1.24067e+06
1.61109e+06
2.09443e+06
2.7253e+06
3.54846e+06
4.6234e+06
6.02815e+06
7.86555e+06
1.02712e+07
1.33854e+07
1.73972e+07
2.28311e+07
2.99657e+07
4.24181e+08
8.14138e+07
2.54345e+07
1.81808e+07
1.28264e+07
8.91792e+06
6.10193e+06
4.10436e+06
2.71439e+06
1.77185e+06
1.15758e+06
763055
210852
15849
445.793
6.98052
0.0798751
0.00101308
2.2286e-05
1.10533e-06
1.22191e-07
2.4356e-08
7.20695e-09
2.80811e-09
1.12951e-09
4.91009e-10
2.21243e-10
9.45734e-11
4.31147e-11
1.58207e-11
8.49172e-12
3.4505e-12
2.22332e-12
5.81121e-13
2.51071e-13
9.93673e-14
3.92086e-14
5.0469e-12
4.87373e-15
8.93235e-16
1.63235e-13
0
0
0
1.52534e-16
4.34956e-20
-2.55313e-07
-2.52188e-07
-1.67691e-19
3.29657e-19
2.39713e-07
0
-2.2982e-07
-2.25644e-07
5.65329e-10
-1.10755e-09
-4.10193e-16
4.76979e-09
2.35235e-08
3.62514e-07
4.91782e-06
6.91872e-05
0.000887843
0.00974416
0.0891109
0.672975
4.2111
22.0605
98.0629
374.822
1243.06
3568.8
8637.49
16505.3
24707.7
37016.8
57084.3
82275.5
113427
152076
200526
261946
340509
441635
572320
741630
961365
1.24708e+06
1.6188e+06
2.10229e+06
2.73159e+06
3.55112e+06
4.61907e+06
6.01177e+06
7.82949e+06
1.02042e+07
1.32707e+07
1.72136e+07
2.25413e+07
2.95194e+07
4.38118e+08
6.94485e+07
2.48743e+07
1.78336e+07
1.2619e+07
8.80012e+06
6.03976e+06
4.07539e+06
2.70419e+06
1.77141e+06
1.1615e+06
765721
206571
15039.8
414.071
6.38682
0.0727274
0.000930365
2.0866e-05
1.05973e-06
1.19148e-07
2.41374e-08
7.28189e-09
2.64108e-09
1.17412e-09
5.07803e-10
2.25266e-10
9.53971e-11
3.95183e-11
1.96705e-11
7.65133e-12
3.39887e-12
1.38515e-12
5.74489e-13
-4.01317e-12
9.85904e-14
3.89742e-14
1.56711e-14
4.86244e-15
8.92813e-16
-4.76005e-18
6.52938e-13
0
0
-2.16236e-20
-2.98333e-16
-2.50657e-07
0
0
2.3761e-07
6.27166e-19
0
2.84671e-10
-2.32536e-18
-5.4065e-10
-5.30861e-17
-4.19645e-16
4.51039e-09
2.65907e-08
3.66317e-07
5.07633e-06
7.12057e-05
0.000915505
0.0100813
0.092541
0.701784
4.41163
23.2248
103.791
398.903
1328.47
3804.67
8980.1
15769.8
24010.4
31497.8
50567.4
75278.6
106113
144583
192948
254319
332823
433837
564343
733385
952680
1.23729e+06
1.60693e+06
2.08725e+06
2.71166e+06
3.52379e+06
4.5806e+06
5.95665e+06
7.74963e+06
1.00878e+07
1.31006e+07
1.6967e+07
2.21782e+07
2.89857e+07
4.47565e+08
6.19522e+07
2.43095e+07
1.74805e+07
1.2405e+07
8.67557e+06
5.97129e+06
4.04089e+06
2.6893e+06
1.76704e+06
1.16194e+06
766871
204495
14614
396.486
6.05148
0.0686668
0.000883221
2.00536e-05
1.03144e-06
1.16978e-07
2.44329e-08
7.33164e-09
2.63658e-09
1.0999e-09
5.13869e-10
2.20611e-10
9.55144e-11
4.13341e-11
1.78631e-11
7.89689e-12
3.34627e-12
1.45433e-12
6.12181e-13
2.46195e-13
9.77918e-14
3.87291e-14
-4.97269e-12
4.99771e-12
9.36546e-16
2.58821e-07
2.58461e-07
-5.77265e-12
0
2.13476e-20
-1.23597e-11
-2.46019e-07
0
-1.11191e-15
-1.65784e-10
-1.78139e-10
-2.18888e-07
-2.73795e-10
-2.22792e-18
-1.50756e-14
1.95679e-07
2.17714e-09
-1.80819e-07
2.49508e-08
3.7254e-07
4.90627e-06
7.21956e-05
0.000929836
0.0102575
0.0943487
0.717035
4.51745
23.8424
106.846
411.662
1370.91
3882.78
8754.82
16372.4
25013.4
32838
39657.2
63317.3
93021.4
130289
177328
237173
313863
412674
540454
706075
921027
1.20022e+06
1.56301e+06
2.03461e+06
2.64783e+06
3.44544e+06
4.48325e+06
5.83417e+06
7.59353e+06
9.88617e+06
1.28373e+07
1.66201e+07
2.17092e+07
2.83422e+07
4.52562e+08
5.86098e+07
2.3725e+07
1.70994e+07
1.21598e+07
8.52045e+06
5.87532e+06
3.98312e+06
2.65561e+06
1.74793e+06
1.15095e+06
760541
203299
14460.3
389.427
5.91073
0.0669387
0.000863126
1.97141e-05
1.02139e-06
1.1664e-07
2.46187e-08
7.35564e-09
2.6956e-09
1.10748e-09
4.89812e-10
2.1927e-10
9.83079e-11
4.04205e-11
1.82383e-11
8.05858e-12
3.46439e-12
1.43399e-12
6.04789e-13
2.43678e-13
1.0257e-13
3.84783e-14
1.55307e-14
4.83694e-15
8.91479e-16
0
0
0
-5.14289e-12
-1.48711e-16
2.49851e-07
-8.30114e-20
-8.66777e-11
-1.1119e-15
-2.30984e-07
-3.23084e-10
-2.18886e-07
0
0
-1.15007e-09
-5.46559e-17
-2.17714e-09
1.89317e-07
2.49504e-08
2.77949e-07
4.99304e-06
7.21984e-05
0.000929831
0.0102583
0.094357
0.717088
4.51769
23.8432
106.849
411.668
1370.92
3882.79
8754.87
16372.4
25013.4
32838.1
39655.1
63315.1
93019.1
130287
177325
237171
313861
412672
540453
706074
921027
1.20022e+06
1.56302e+06
2.03462e+06
2.64784e+06
3.44545e+06
4.48327e+06
5.83419e+06
7.59356e+06
9.88621e+06
1.28373e+07
1.66202e+07
2.17093e+07
2.83423e+07
4.52569e+08
5.86028e+07
2.37251e+07
1.70994e+07
1.21598e+07
8.52046e+06
5.87533e+06
3.98313e+06
2.65561e+06
1.74793e+06
1.15096e+06
760541
203297
14460
389.417
5.91058
0.0669371
0.000863106
1.97096e-05
1.0214e-06
1.16641e-07
2.4619e-08
7.2268e-09
2.69561e-09
1.10748e-09
4.99162e-10
2.199e-10
1.01245e-10
4.04206e-11
1.69091e-11
8.05859e-12
3.29287e-12
7.31966e-13
6.04803e-13
2.43685e-13
-6.25585e-13
4.12918e-14
1.55302e-14
5.19083e-15
8.47189e-16
-6.83307e-22
-1.90678e-17
1.09336e-20
0
0
1.02157e-11
-8.4583e-20
-2.46909e-07
1.63653e-19
2.37702e-07
2.32501e-07
0
-2.2102e-07
0
6.64494e-10
-5.30849e-17
-3.0552e-14
4.51027e-09
2.21583e-08
3.70666e-07
4.97889e-06
7.11243e-05
0.000915768
0.0100842
0.0925715
0.702001
4.41231
23.2267
103.796
398.913
1328.49
3804.7
8979.96
15768.6
24010.4
31497.8
50564.2
75275
106110
144579
192943
254315
332819
433834
564343
733388
952686
1.2373e+06
1.60695e+06
2.08727e+06
2.71169e+06
3.52383e+06
4.58066e+06
5.95673e+06
7.74973e+06
1.00879e+07
1.31007e+07
1.69672e+07
2.21784e+07
2.8986e+07
4.47585e+08
6.1931e+07
2.43096e+07
1.74806e+07
1.24051e+07
8.6756e+06
5.97131e+06
4.0409e+06
2.68931e+06
1.76704e+06
1.16195e+06
766870
204487
14613
396.457
6.05103
0.0686619
0.000883177
2.00528e-05
1.03248e-06
1.16979e-07
2.44325e-08
7.33169e-09
2.63665e-09
1.14296e-09
5.04889e-10
2.14973e-10
9.55148e-11
4.13351e-11
1.72555e-11
6.82429e-12
3.34627e-12
1.40576e-12
5.67731e-13
-4.77546e-13
1.0343e-13
4.15586e-14
7.48859e-13
5.20507e-15
4.98928e-12
2.59561e-07
0
0
0
2.59589e-07
0
-8.6154e-20
-4.06008e-11
-2.48467e-07
0
-1.89606e-10
6.33269e-19
2.29749e-07
-2.42262e-18
1.26016e-09
3.22876e-14
-4.05626e-16
-4.06338e-15
-1.81313e-07
3.57855e-07
5.01762e-06
6.93055e-05
0.000887906
0.00974382
0.0890971
0.672706
4.21078
22.0618
98.0744
374.873
1243.23
3569.24
8638.32
16506
24707.6
37017.4
57085.4
82277.2
113429
152079
200530
261951
340516
441643
572328
741641
961383
1.24711e+06
1.61884e+06
2.10234e+06
2.73165e+06
3.5512e+06
4.61917e+06
6.01191e+06
7.82966e+06
1.02045e+07
1.3271e+07
1.72139e+07
2.25417e+07
2.95199e+07
4.38152e+08
6.94126e+07
2.48744e+07
1.78337e+07
1.26191e+07
8.80014e+06
6.03977e+06
4.07539e+06
2.70419e+06
1.77141e+06
1.1615e+06
765718
206558
15038.2
414.019
6.38598
0.0727182
0.000930271
2.08626e-05
1.05975e-06
1.19152e-07
2.41376e-08
7.28604e-09
2.72336e-09
1.09755e-09
5.07805e-10
2.20566e-10
1.00185e-10
3.95184e-11
1.75964e-11
7.65134e-12
3.47817e-12
1.38515e-12
5.74504e-13
4.46526e-12
1.01139e-13
3.89733e-14
1.56711e-14
4.86244e-15
9.17275e-16
4.77365e-18
1.46789e-12
2.62882e-07
0
2.35829e-11
0
-2.59964e-07
0
1.19625e-15
0
2.46982e-07
0
0
7.38775e-10
-7.25113e-10
-2.2654e-07
3.29566e-14
2.77268e-09
2.43814e-07
4.57694e-07
4.70101e-06
6.65762e-05
0.000850145
0.00928634
0.0844837
0.634303
3.94378
20.5393
90.689
344.154
1133.94
3248.4
7959.08
15957.5
25822.4
39453.1
59742.5
84951.5
115872
154041
201799
262355
339921
439951
569494
737665
956274
1.2407e+06
1.61113e+06
2.09449e+06
2.72538e+06
3.54857e+06
4.62353e+06
6.02833e+06
7.86577e+06
1.02715e+07
1.33858e+07
1.73977e+07
2.28317e+07
2.99664e+07
4.2423e+08
8.13627e+07
2.54345e+07
1.81808e+07
1.28264e+07
8.91794e+06
6.10194e+06
4.10436e+06
2.71438e+06
1.77185e+06
1.15758e+06
763044
210835
15846.6
445.714
6.97921
0.0798604
0.00101292
2.22853e-05
1.10535e-06
1.21518e-07
2.43564e-08
7.52296e-09
2.80813e-09
1.12952e-09
4.95928e-10
2.20147e-10
1.00024e-10
4.31149e-11
1.65287e-11
7.78204e-12
3.45045e-12
1.49397e-12
5.81137e-13
2.51071e-13
9.93693e-14
4.20721e-14
1.57368e-14
4.87385e-15
9.37639e-16
6.86238e-22
1.93119e-17
0
0
-1.07114e-11
2.38403e-11
0
-5.20067e-11
0
0
0
6.75538e-19
3.17206e-10
-6.24235e-10
-7.72894e-18
-5.08015e-17
-2.32412e-07
-3.82805e-15
2.62441e-08
3.34028e-07
4.56655e-06
6.33184e-05
0.000806293
0.00875938
0.0792357
0.591337
3.65062
18.8604
82.6067
310.93
1016.73
2899.77
7144.68
14753.6
25165.5
39361.2
59490.2
84359.9
114708
152028
198668
257841
333776
431945
559429
725414
941854
1.2243e+06
1.59302e+06
2.07451e+06
2.70385e+06
3.52808e+06
4.60787e+06
6.02225e+06
7.87668e+06
1.03103e+07
1.34689e+07
1.75451e+07
2.30771e+07
3.03523e+07
4.05985e+08
9.81668e+07
2.59955e+07
1.85296e+07
1.30358e+07
9.03784e+06
6.16599e+06
4.13486e+06
2.72569e+06
1.77288e+06
1.15364e+06
761634
218052
17158.9
496.561
7.93059
0.0913209
0.00114474
2.45221e-05
1.17907e-06
1.26217e-07
2.51469e-08
7.28632e-09
2.79952e-09
1.07634e-09
4.7028e-10
2.16252e-10
1.02213e-10
4.3979e-11
2.04053e-11
2.96096e-12
3.50089e-12
1.51315e-12
5.41624e-13
2.53408e-13
1.00117e-13
5.10437e-12
1.7235e-14
-5.02635e-12
8.93397e-16
0
-1.93934e-17
0
-1.13197e-20
1.58322e-16
0
0
-9.623e-11
0
2.64045e-07
-2.61226e-07
4.85288e-15
7.3118e-10
0
-8.03776e-18
-2.45322e-07
-2.44608e-07
-3.68104e-15
2.51236e-08
3.24733e-07
4.31919e-06
6.0079e-05
0.000759119
0.00819619
0.0736564
0.545853
3.34468
17.1198
74.4275
277.941
901.999
2559
6317.24
13292.3
23531.9
37661.8
57268.1
81520
111060
147332
192640
250188
324198
420142
545107
708302
921735
1.20111e+06
1.56704e+06
2.04653e+06
2.67494e+06
3.49873e+06
4.57989e+06
6.00158e+06
7.87218e+06
1.03341e+07
1.35395e+07
1.76901e+07
2.33457e+07
3.08206e+07
3.76555e+08
1.22997e+08
2.65591e+07
1.88835e+07
1.32514e+07
9.16395e+06
6.23577e+06
4.17026e+06
2.74092e+06
1.77681e+06
1.15154e+06
760774
228764
19137.2
574.198
9.40093
0.109126
0.00134772
2.79008e-05
1.28873e-06
1.34496e-07
2.5902e-08
7.64946e-09
2.8012e-09
1.1047e-09
4.81842e-10
2.14312e-10
9.30086e-11
4.19519e-11
1.85776e-11
8.77346e-12
3.36595e-12
1.43927e-12
5.93802e-13
2.55657e-13
1.0083e-13
3.9644e-14
1.58544e-14
-5.03918e-12
8.93153e-16
2.61047e-07
0
0
-1.14279e-20
0
0
0
-5.41117e-11
0
0
0
0
0
2.60257e-07
-8.34597e-18
1.61713e-09
2.53699e-07
-3.53532e-15
2.89519e-08
3.06754e-07
4.04396e-06
5.66576e-05
0.000711483
0.00763409
0.0681428
0.501433
3.05125
15.4979
66.6625
247.044
795.844
2245.32
5541.96
11803.7
21467.3
35090.5
53870.2
77274.7
105845
140955
184831
240646
312589
406120
528314
688387
898377
1.17407e+06
1.5362e+06
2.01209e+06
2.63772e+06
3.46056e+06
4.54301e+06
5.96781e+06
7.84616e+06
1.03264e+07
1.35647e+07
1.77638e+07
2.34953e+07
3.10816e+07
3.476e+08
1.50589e+08
2.71247e+07
1.92439e+07
1.34754e+07
9.29892e+06
6.3138e+06
4.21277e+06
2.76188e+06
1.78505e+06
1.15238e+06
761646
243377
22014.3
690.726
11.6575
0.136724
0.00165914
3.29486e-05
1.45011e-06
1.4421e-07
2.69866e-08
7.66786e-09
2.87461e-09
1.08329e-09
5.38817e-10
2.18957e-10
9.74672e-11
4.27233e-11
1.88888e-11
8.15618e-12
3.49492e-12
2.21283e-12
5.99824e-13
2.57827e-13
1.01507e-13
4.27541e-14
-5.08074e-12
5.06341e-12
9.81609e-16
-2.6142e-07
-1.9557e-17
-6.06156e-12
0
1.62175e-16
2.49096e-11
0
0
-1.3085e-15
-2.60683e-15
0
4.33179e-10
0
-2.02526e-14
-8.65355e-18
-2.6849e-07
-4.01114e-14
-3.37822e-15
1.81795e-08
1.59233e-07
3.7886e-06
5.34006e-05
0.00066563
0.00709728
0.062921
0.459744
2.77762
14.0159
59.8083
219.164
700.958
1966.41
4846.91
10405.5
19304.2
32142.2
49890.1
72270.1
99754.6
133623
176026
230062
299876
390888
510150
666860
873062
1.14458e+06
1.50224e+06
1.97353e+06
2.59474e+06
3.41389e+06
4.49455e+06
5.92081e+06
7.80347e+06
1.02924e+07
1.35544e+07
1.77894e+07
2.3581e+07
3.12625e+07
3.108e+08
1.85207e+08
2.76931e+07
1.96125e+07
1.37106e+07
9.44573e+06
6.40282e+06
4.26471e+06
2.79041e+06
1.79898e+06
1.15714e+06
764190
262240
26138.2
866.081
15.1628
0.180242
0.00214484
4.05585e-05
1.68003e-06
1.58644e-07
2.93611e-08
8.05391e-09
2.94413e-09
1.2493e-09
5.03908e-10
2.35097e-10
1.02565e-10
4.34703e-11
1.91902e-11
8.27326e-12
3.45487e-12
1.56738e-12
6.52996e-13
2.36207e-13
1.08035e-13
4.29489e-14
1.59478e-14
4.33148e-12
1.06976e-15
0
0
5.73881e-21
0
0
4.75176e-20
-2.83294e-07
0
1.33657e-15
1.12323e-10
2.83249e-07
0
0
-2.78121e-07
-2.76604e-07
-4.75932e-17
-1.74049e-09
-6.31397e-09
1.26567e-08
1.41211e-07
3.6901e-06
5.01842e-05
0.000623389
0.00660173
0.0581222
0.42165
2.52886
12.6703
53.7357
195.431
617.77
1720.82
4237.31
9146.96
17225
29137
45744.4
66961.1
93263.6
125832
166734
218967
286615
375033
491231
644365
846458
1.11333e+06
1.46586e+06
1.93164e+06
2.54719e+06
3.3609e+06
4.43697e+06
5.86067e+06
7.74547e+06
1.02415e+07
1.35187e+07
1.77828e+07
2.36287e+07
3.14003e+07
2.65718e+08
2.27976e+08
2.82632e+07
1.99923e+07
1.39609e+07
9.60873e+06
6.50718e+06
4.32974e+06
2.8293e+06
1.82054e+06
1.16703e+06
768912
285443