/*--------------------------------*- C++ -*----------------------------------*\
  =========                 |
  \\      /  F ield         | OpenFOAM: The Open Source CFD Toolbox
   \\    /   O peration     | Website:  https://openfoam.org
    \\  /    A nd           | Version:  8
     \\/     M anipulation  |
\*---------------------------------------------------------------------------*/
FoamFile
{
    version     2.0;
    format      ascii;
    class       volScalarField;
    location    "560/fluid";
    object      rDeltaT;
}
// * * * * * * * * * * * * * * * * * * * * * * * * * * * * * * * * * * * * * //

dimensions      [0 0 -1 0 0 0 0];

internalField   nonuniform List<scalar> 
4000
(
513.425
539.338
564.083
587.803
610.438
631.892
652.041
670.749
687.887
703.359
717.126
729.241
739.873
749.341
758.118
766.711
775.515
784.726
794.266
803.769
812.648
820.219
825.821
828.92
829.17
826.379
820.431
811.288
798.979
783.587
765.227
744.044
747.402
784.17
827.291
869.609
911.05
951.548
991.051
1029.52
1066.92
1103.24
1138.46
1172.56
1205.55
1237.41
1268.15
1297.76
1326.23
1353.58
1379.78
1404.84
1428.75
1451.5
1473.08
1493.48
1512.67
1530.53
1546.99
1562.29
1576.25
1589.5
16449.3
1571.84
1536.25
1495.55
1450.24
1400.88
1347.92
1291.76
1232.81
1171.58
1108.65
1044.55
980.033
916.517
856.015
800.961
754.309
718.747
695.341
682.705
677.59
676.434
676.364
675.577
673.068
668.469
661.805
653.263
643.08
631.496
618.732
604.984
590.417
575.165
559.331
542.989
526.18
508.857
512.959
538.224
562.19
584.791
606
625.744
643.934
660.484
675.329
688.454
699.917
709.875
718.604
726.515
734.094
741.809
750.042
758.99
768.577
778.434
787.957
796.412
803.073
807.331
808.731
806.961
801.852
793.356
781.512
766.425
748.238
727.121
711.876
729.84
774.069
817.683
860.586
902.696
943.947
984.288
1023.68
1062.09
1099.49
1135.87
1171.23
1205.54
1238.81
1271.03
1302.19
1332.31
1361.37
1389.39
1416.36
1442.28
1467.16
1490.99
1513.76
1535.31
1555.64
1575
1593.19
2370.99
15641.5
1584.09
1543.28
1498.76
1450.42
1398.33
1342.7
1283.75
1221.77
1157.14
1090.35
1021.83
952.513
884.247
819.68
762.094
714.804
680.202
658.557
647.696
644.061
644.199
645.531
646.476
646.204
644.258
640.479
634.893
627.608
618.769
608.532
597.052
584.472
570.916
556.485
541.254
525.264
508.546
512.27
536.01
558.278
579.042
598.243
615.821
631.723
645.917
658.404
669.242
678.565
686.6
693.673
700.202
706.631
713.41
720.919
729.362
738.679
748.519
758.288
767.26
774.694
779.929
782.424
781.784
777.79
770.359
759.511
745.334
727.964
707.567
684.324
684.509
719.503
763.693
807.437
850.642
893.23
935.139
976.316
1016.72
1056.33
1095.12
1133.07
1170.16
1206.38
1241.75
1276.25
1309.88
1342.67
1374.61
1405.71
1435.99
1465.46
1494.11
1521.92
1548.7
1574.4
1599.15
1622.41
5603.06
12787.1
1604.28
1558.39
1508.75
1455.39
1398.4
1337.92
1274.12
1207.3
1137.83
1066.27
993.166
919.81
848.506
782.283
724.663
678.795
646.397
626.958
617.87
615.572
616.806
619.194
621.275
622.329
621.993
620.094
616.587
611.498
604.895
596.867
587.508
576.915
565.176
552.369
538.56
523.797
508.097
511.594
533.977
554.818
574.074
591.703
607.67
621.947
634.533
645.458
654.802
662.713
669.417
675.235
680.574
685.901
691.688
698.322
706.007
714.68
723.992
733.351
742.027
749.274
754.422
756.938
756.444
752.708
745.623
735.181
721.443
704.519
684.551
661.703
647.835
668.191
712.732
757.093
801.176
844.899
888.194
931.006
973.294
1015.01
1056.14
1096.64
1136.51
1175.74
1214.32
1252.24
1289.5
1326.11
1362.06
1397.36
1431.99
1465.94
1499.16
1531.58
1562.9
1592.94
1621.71
1648.45
9298.18
9212.07
1617.23
1567.23
1512.98
1454.74
1392.74
1327.26
1258.58
1187.11
1113.4
1038.12
962.067
886.883
815.119
749.832
694.254
651.062
621.408
604.284
596.882
595.742
597.846
601.029
603.949
605.89
606.506
605.661
603.319
599.5
594.249
587.624
579.686
570.497
560.115
548.595
535.982
522.314
507.614
510.87
531.776
551.09
568.777
584.801
599.138
611.779
622.739
632.07
639.873
646.316
651.644
656.191
660.37
664.652
669.501
675.297
682.235
690.252
698.999
707.893
716.208
723.195
728.179
730.616
730.118
726.439
719.461
709.16
695.583
678.827
659.021
636.312
611.099
619.697
664.484
709.34
754.166
798.88
843.416
887.711
931.711
975.378
1018.68
1061.59
1104.09
1146.15
1187.76
1228.91
1269.58
1309.76
1349.42
1388.53
1427.06
1464.94
1502.07
1538.29
1573.13
1606.43
1638.07
1667.08
13048.1
5477.23
1621.07
1567.98
1510
1447.65
1381.39
1311.67
1238.95
1163.78
1086.88
1008.99
931.081
855.072
783.583
719.629
666.22
625.616
598.448
583.301
577.245
576.964
579.68
583.437
587.024
589.775
591.349
591.587
590.428
587.863
583.914
578.612
572.001
564.121
555.016
544.726
533.289
520.738
507.098
510.142
529.594
547.443
563.653
578.2
591.067
602.258
611.801
619.758
626.242
631.427
635.56
638.976
642.083
645.344
649.217
654.074
660.11
667.265
675.2
683.343
690.98
697.371
701.843
703.853
703.006
699.05
691.855
681.384
667.672
650.8
630.885
608.06
582.476
582.605
619.111
664.366
709.821
755.395
801.009
846.602
892.123
937.528
982.78
1027.84
1072.69
1117.28
1161.59
1205.6
1249.27
1292.55
1335.41
1377.77
1419.55
1460.64
1500.86
1539.96
1577.41
1612.98
1646.43
1676.59
16602.8
1698.98
1616.47
1561.15
1500.1
1434.32
1364.55
1291.44
1215.61
1137.74
1058.65
979.166
900.428
824.524
754.111
692.117
641.308
603.546
579.001
565.922
561.293
561.923
565.234
569.451
573.484
576.739
578.908
579.844
579.483
577.807
574.82
570.54
564.99
558.197
550.189
540.995
530.644
519.162
506.574
509.406
527.387
543.766
558.511
571.601
583.029
592.805
600.965
607.581
612.771
616.716
619.669
621.962
624.004
626.251
629.152
633.074
638.205
644.482
651.573
658.909
665.785
671.467
675.287
676.702
675.315
670.872
663.235
652.361
638.276
621.053
600.795
577.629
551.691
545.535
575.843
621.426
667.413
713.713
760.256
806.979
853.826
900.747
947.697
994.631
1041.51
1088.29
1134.93
1181.39
1227.6
1273.51
1319.03
1364.07
1408.51
1452.16
1494.8
1536.13
1575.35
1612.67
1646.96
1677.21
18140.4
1658.29
1606.34
1547.8
1483.82
1415.27
1342.93
1267.46
1189.58
1110.04
1029.76
949.569
870.777
795.58
726.63
666.749
618.474
583.315
561.068
549.739
546.293
547.682
551.518
556.171
560.651
564.414
567.172
568.779
569.169
568.314
566.208
562.859
558.279
552.485
545.497
537.337
528.026
517.589
506.048
508.67
525.189
540.117
553.426
565.1
575.136
583.552
590.389
595.724
599.68
602.439
604.255
605.458
606.45
607.679
609.588
612.533
616.698
622.021
628.173
634.592
640.583
645.417
648.433
649.091
646.993
641.884
633.621
622.159
607.515
589.755
568.976
545.293
518.836
508.19
534.206
580.032
626.436
673.337
720.658
768.333
816.301
864.506
912.895
961.416
1010.02
1058.64
1107.24
1155.74
1204.06
1252.14
1299.85
1347.08
1393.65
1439.36
1483.94
1526.95
1567.64
1605.96
1640.56
1669.93
17639.7
1644.42
1589.51
1528.51
1462.35
1391.87
1317.79
1240.83
1161.74
1081.34
1000.58
920.313
842.004
767.923
700.696
643.046
597.296
564.649
544.583
534.912
532.6
534.729
539.071
544.128
549.001
553.194
556.443
558.614
559.639
559.488
558.148
555.62
551.909
547.024
540.979
533.788
525.469
516.042
505.529
507.935
522.996
536.479
548.364
558.637
567.301
574.376
579.909
583.981
586.718
588.303
588.988
589.103
589.042
589.247
590.152
592.104
595.282
599.622
604.794
610.244
615.28
619.184
621.297
621.083
618.15
612.24
603.212
591.016
575.666
557.225
535.782
511.448
484.345
470.545
493.675
539.657
586.379
633.754
681.705
730.159
779.052
828.32
877.904
927.741
977.77
1027.92
1078.13
1128.3
1178.36
1228.18
1277.65
1326.61
1374.86
1422.18
1468.24
1512.53
1554.37
1593.61
1628.9
2975.23
16265.9
1624.83
1567.81
1505.05
1437.4
1365.63
1290.48
1212.67
1133
1052.33
971.598
891.712
814.254
741.533
676.143
620.706
577.35
547.01
528.903
520.708
519.411
522.222
527.055
532.523
537.799
542.428
546.165
548.883
550.516
551.032
550.415
548.66
545.768
541.743
536.594
530.332
522.97
514.526
505.02
507.204
520.812
532.861
543.333
552.218
559.524
565.275
569.521
572.345
573.875
574.295
573.857
572.883
571.766
570.937
570.821
571.759
573.92
577.239
581.386
585.812
589.831
592.729
593.857
592.682
588.815
582.001
572.099
559.059
542.894
523.663
501.454
476.371
448.532
432.582
453.875
499.93
546.864
594.59
643.027
692.099
741.735
791.867
842.425
893.341
944.54
995.946
1047.47
1099.02
1150.48
1201.74
1252.63
1303
1352.63
1401.25
1448.54
1493.95
1536.84
1577.1
1613.5
5873.02
13674.8
1599.89
1541.9
1478.24
1409.8
1337.37
1261.72
1183.6
1103.83
1023.31
942.993
863.807
787.437
716.213
652.698
599.419
558.33
530.13
513.821
506.981
506.632
510.1
515.424
521.309
526.993
532.055
536.269
539.516
541.732
542.885
542.955
541.936
539.824
536.622
532.333
526.966
520.532
513.045
504.521
506.475
518.637
529.258
538.323
545.829
551.784
556.217
559.18
560.761
561.086
560.342
558.776
556.709
554.527
552.653
551.503
551.409
552.534
554.807
557.899
561.262
564.217
566.057
566.136
563.931
559.056
551.259
540.402
526.437
509.375
489.276
466.224
440.323
411.685
394.308
414.503
460.546
507.593
555.555
604.347
653.89
704.108
754.925
806.268
858.057
910.21
962.639
1015.25
1067.92
1120.55
1172.99
1225.07
1276.61
1327.39
1377.12
1425.46
1471.86
1515.65
1556.78
1593.97
8370.68
11276.2
1571.48
1513.16
1449.17
1380.45
1307.84
1232.12
1154.09
1074.59
994.55
914.905
836.634
761.499
691.84
630.187
578.974
540.001
513.761
499.084
493.477
494.008
498.11
503.927
510.248
516.36
521.873
526.577
530.357
533.155
534.935
535.681
535.38
534.03
531.627
528.176
523.681
518.151
511.597
504.034
505.749
516.47
525.668
533.333
539.463
544.071
547.189
548.873
549.21
548.331
546.419
543.722
540.555
537.299
534.369
532.173
531.031
531.101
532.305
534.315
536.583
538.436
539.173
538.157
534.868
528.927
520.089
508.217
493.266
475.249
454.226
430.28
403.514
374.039
355.738
375.337
421.288
468.355
516.446
565.475
615.358
666.015
717.365
769.327
821.815
874.739
928.001
981.495
1035.1
1088.69
1142.1
1195.18
1247.7
1299.45
1350.12
1399.35
1446.58
1491.17
1533.02
1570.84
10530.4
9194.55
1540.82
1482.53
1418.58
1349.95
1277.49
1202.04
1124.41
1045.46
966.141
887.362
810.147
736.34
668.273
608.439
559.189
522.182
497.741
484.554
480.082
481.442
486.163
492.484
499.258
505.821
511.805
517.012
521.336
524.72
527.129
528.544
528.954
528.353
526.737
524.107
520.466
515.821
510.18
503.557
505.026
514.311
522.09
528.357
533.113
536.377
538.181
538.584
537.676
535.588
532.504
528.668
524.395
520.055
516.06
512.805
510.604
509.603
509.721
510.627
511.776
512.498
512.099
509.949
505.537
498.489
488.565
475.635
459.655
440.643
418.657
393.784
366.125
335.79
316.894
336.215
381.997
428.999
477.125
526.286
576.396
627.368
679.118
731.559
784.599
838.141
892.078
946.297
1000.67
1055.06
1109.29
1163.2
1216.56
1269.13
1320.6
1370.62
1418.59
1463.87
1506.36
1544.73
12332.5
7478.76
1508.68
1450.65
1386.99
1318.71
1246.69
1171.76
1094.76
1016.55
938.122
860.349
784.305
711.878
645.399
587.323
539.925
504.739
481.945
470.117
466.691
468.837
474.168
481.004
488.255
495.292
501.771
507.503
512.387
516.368
519.413
521.502
522.622
522.766
521.929
520.11
517.312
513.537
508.793
503.091
504.305
512.158
518.522
523.392
526.777
528.695
529.184
528.305
526.149
522.848
518.586
513.606
508.218
502.788
497.717
493.394
490.121
488.038
487.056
486.84
486.85
486.419
484.859
481.548
475.982
467.796
456.755
442.735
425.697
405.662
382.69
356.87
328.302
297.098
277.806
297.024
342.569
389.428
437.504
486.705
536.941
588.122
640.16
692.962
746.43
800.462
854.945
909.758
964.765
1019.82
1074.75
1129.36
1183.44
1236.72
1288.9
1339.63
1388.26
1434.18
1477.28
1516.22
13806.4
6086.57
1475.58
1417.95
1354.76
1287.02
1215.62
1141.4
1065.21
987.914
910.501
833.842
759.041
688.024
623.114
566.728
521.071
487.57
466.281
455.697
453.242
456.138
462.075
469.439
477.19
484.728
491.725
498.005
503.468
508.062
511.753
514.522
516.356
517.246
517.185
516.172
514.207
511.291
507.43
502.633
503.586
510.01
514.96
518.436
520.449
521.021
520.194
518.029
514.621
510.103
504.658
498.528
492.018
485.49
479.337
473.938
469.585
466.408
464.314
462.965
461.82
460.218
457.477
452.984
446.243
436.897
424.718
409.588
391.474
370.399
346.428
319.651
290.17
258.096
238.504
257.688
302.934
349.582
397.533
446.693
496.968
548.268
600.497
653.559
707.353
761.769
816.691
871.99
927.526
983.141
1038.66
1093.89
1148.59
1202.51
1255.34
1306.7
1355.95
1402.5
1446.21
1485.76
14968.2
4974.67
1441.81
1384.69
1322.12
1255.07
1184.45
1111.09
1035.83
959.567
883.273
807.806
734.299
664.705
601.333
546.568
502.547
470.605
450.696
441.247
439.689
443.305
449.846
457.754
466.027
474.092
481.634
488.483
494.546
499.769
504.121
507.581
510.135
511.774
512.49
512.28
511.143
509.078
506.089
502.183
502.868
507.866
511.404
513.486
514.127
513.352
511.206
507.753
503.09
497.351
490.718
483.432
475.795
468.163
460.921
454.438
448.998
444.72
441.505
439.012
436.701
433.915
429.98
424.29
416.359
405.838
392.507
376.255
357.053
334.93
309.955
282.22
251.828
218.893
199.021
218.162
263.052
309.427
357.187
406.235
456.476
507.814
560.153
613.391
667.424
722.137
777.409
833.107
889.084
945.178
1001.21
1056.97
1112.24
1166.74
1220.16
1272.12
1321.97
1369.14
1413.51
1453.78
16147.5
3971.95
1407.48
1351.02
1289.18
1222.97
1153.25
1080.86
1006.65
931.517
856.416
782.198
710.017
641.845
579.976
526.761
484.284
453.799
435.172
426.755
426.004
430.313
437.46
445.929
454.747
463.363
471.474
478.916
485.598
491.467
496.494
500.656
503.94
506.334
507.83
508.423
508.11
506.89
504.765
501.739
502.152
505.725
507.852
508.54
507.808
505.685
502.218
497.475
491.553
484.588
476.763
468.317
459.548
450.807
442.471
434.899
428.366
422.982
418.639
414.995
411.509
407.53
402.39
395.494
386.363
374.658
360.167
342.786
322.492
299.321
273.343
244.654
213.36
179.574
159.39
178.421
222.905
268.953
316.463
365.338
415.478
466.787
519.164
572.506
626.704
681.64
737.189
793.213
849.562
906.071
962.554
1018.8
1074.58
1129.62
1183.6
1236.13
1286.58
1334.37
1379.38
1420.31
16881.7
3292.44
1372.85
1317.11
1256.12
1190.82
1122.1
1050.79
977.714
903.77
829.916
756.986
686.147
619.38
558.963
507.218
466.182
437.052
419.656
412.248
412.218
417.184
424.93
433.967
443.346
452.532
461.232
469.286
476.605
483.138
488.854
493.731
497.754
500.91
503.191
504.589
505.1
504.722
503.455
501.3
501.436
503.586
504.302
503.597
501.491
498.018
493.228
487.192
480.009
471.815
462.794
453.184
443.279
433.424
423.99
415.326
407.695
401.2
395.725
390.923
386.257
381.079
374.728
366.619
356.283
343.389
327.735
309.224
287.84
263.622
236.648
207.014
174.83
140.211
119.642
138.459
182.491
228.163
275.371
324.016
373.998
425.217
477.571
530.953
585.251
640.346
696.109
752.398
809.061
865.927
922.808
979.493
1035.74
1091.28
1145.79
1198.88
1249.91
1298.31
1343.96
1385.58
17442.2
2808.61
1338
1283.07
1222.99
1158.71
1091.07
1020.89
949.022
876.327
803.763
732.149
662.66
597.276
538.259
487.896
448.187
420.277
404.005
397.617
398.316
403.923
412.259
421.864
431.813
441.585
450.891
459.575
467.549
474.763
481.184
486.789
491.562
495.489
498.561
500.768
502.105
502.568
502.154
500.864
500.721
501.448
500.754
498.654
495.173
490.349
484.235
476.903
468.455
459.03
448.81
438.032
426.987
416.016
405.48
395.721
386.99
379.38
372.77
366.808
360.957
354.576
347.011
337.685
326.141
312.058
295.241
275.602
253.133
227.877
199.916
169.351
136.293
100.859
100
100
141.821
187.071
233.929
282.295
332.066
383.141
435.415
488.781
543.123
598.32
654.239
710.738
767.66
824.833
882.066
939.144
995.826
1051.83
1106.84
1160.47
1212.08
1261.09
1307.4
1349.74
17822.2
2505.29
1302.99
1248.94
1189.85
1126.65
1060.16
991.199
920.582
849.182
777.942
707.667
639.533
575.512
517.844
468.785
430.293
403.48
388.177
382.718
384.22
390.475
399.401
409.583
420.117
430.491
440.423
449.757
458.406
466.318
473.461
479.809
485.346
490.055
493.927
496.95
499.116
500.421
500.86
500.432
500.006
499.311
497.205
493.71
488.854
482.677
475.236
466.606
456.891
446.231
434.809
422.861
410.674
398.584
386.945
376.087
366.254
357.528
349.779
342.655
335.618
328.031
319.25
308.707
295.956
280.684
262.708
241.947
218.399
192.115
163.18
131.699
100
100
100
100
100.914
145.702
192.167
240.207
289.719
340.6
392.743
446.04
500.372
555.617
611.64
668.297
725.428
782.861
840.402
897.835
954.916
1011.37
1066.86
1121.02
1173.19
1222.82
1269.8
1312.86
18023.2
2370.01
1267.82
1214.74
1156.73
1094.68
1029.4
961.701
892.385
822.316
752.427
683.512
616.736
554.058
497.693
449.87
412.513
386.702
372.23
367.5
369.815
376.739
386.277
397.061
408.206
419.209
429.792
439.801
449.148
457.781
465.664
472.773
479.088
484.594
489.275
493.123
496.125
498.276
499.569
500
500.006
499.31
497.205
493.71
488.853
482.676
475.234
466.604
456.889
446.228
434.806
422.858
410.671
398.58
386.94
376.083
366.249
357.523
349.774
342.649
335.612
328.024
319.243
308.7
295.948
280.676
262.7
241.939
218.39
192.106
163.171
131.69
100
100
100
100
100.908
145.696
192.162
240.202
289.714
340.596
392.74
446.036
500.369
555.614
611.638
668.295
725.427
782.86
840.401
897.834
954.916
1011.37
1066.86
1121.02
1173.19
1222.82
1269.8
1312.86
18023.5
2369.72
1267.82
1214.74
1156.73
1094.68
1029.4
961.702
892.386
822.317
752.428
683.513
616.738
554.06
497.695
449.872
412.515
386.704
372.231
367.502
369.817
376.74
386.279
397.062
408.207
419.21
429.793
439.802
449.149
457.781
465.664
472.773
479.088
484.594
489.276
493.123
496.125
498.276
499.569
500
500.721
501.447
500.752
498.652
495.171
490.347
484.231
476.898
468.45
459.024
448.804
438.025
426.98
416.008
405.472
395.712
386.98
379.37
372.759
366.796
360.945
354.562
346.997
337.67
326.125
312.041
295.224
275.584
253.114
227.858
199.896
169.331
136.273
100.84
100
100
141.81
187.061
233.92
282.286
332.058
383.134
435.409
488.776
543.119
598.316
654.236
710.736
767.659
824.832
882.065
939.144
995.826
1051.83
1106.84
1160.48
1212.08
1261.09
1307.4
1349.74
17823
2504.42
1302.99
1248.94
1189.85
1126.65
1060.16
991.2
920.583
849.183
777.944
707.67
639.536
575.515
517.847
468.788
430.296
403.483
388.181
382.721
384.223
390.478
399.404
409.585
420.119
430.493
440.425
449.759
458.408
466.32
473.462
479.81
485.346
490.056
493.927
496.95
499.117
500.421
500.86
500.431
501.436
503.585
504.301
503.595
501.489
498.015
493.225
487.188
480.004
471.81
462.788
453.177
443.271
433.416
423.981
415.316
407.685
401.189
395.713
390.911
386.244
381.065
374.714
366.603
356.266
343.371
327.716
309.204
287.82
263.602
236.627
206.993
174.809
140.189
119.627
138.451
182.483
228.156
275.365
324.01
373.993
425.213
477.568
530.951
585.25
640.346
696.109
752.399
809.062
865.929
922.81
979.496
1035.75
1091.28
1145.79
1198.88
1249.91
1298.31
1343.96
1385.58
17443.6
2807.15
1338
1283.07
1222.99
1158.7
1091.06
1020.89
949.021
876.326
803.763
732.149
662.66
597.277
538.26
487.898
448.189
420.28
404.008
397.62
398.319
403.926
412.261
421.866
431.816
441.587
450.893
459.576
467.551
474.764
481.185
486.789
491.562
495.49
498.561
500.769
502.106
502.568
502.154
500.864
502.152
505.724
507.851
508.539
507.806
505.682
502.214
497.471
491.548
484.583
476.757
468.311
459.541
450.798
442.462
434.89
428.356
422.971
418.627
414.982
411.496
407.515
402.375
395.477
386.345
374.639
360.147
342.765
322.471
299.298
273.32
244.63
213.336
179.55
159.375
178.416
222.9
268.949
316.46
365.335
415.477
466.786
519.165
572.507
626.706
681.643
737.192
793.217
849.566
906.075
962.559
1018.81
1074.59
1129.63
1183.6
1236.14
1286.59
1334.37
1379.38
1420.31
16883.6
3290.36
1372.84
1317.11
1256.11
1190.82
1122.1
1050.78
977.711
903.767
829.914
756.984
686.146
619.379
558.963
507.219
466.183
437.054
419.658
412.251
412.221
417.186
424.933
433.969
443.348
452.534
461.234
469.287
476.606
483.14
488.855
493.732
497.755
500.911
503.191
504.589
505.101
504.722
503.454
501.299
502.868
507.866
511.403
513.485
514.125
513.349
511.202
507.749
503.086
497.345
490.712
483.425
475.788
468.155
460.912
454.429
448.987
444.709
441.493
439
436.688
433.9
429.964
424.273
416.341
405.819
392.486
376.233
357.03
334.907
309.931
282.195
251.802
218.866
199.006
218.159
263.051
309.427
357.188
406.237
456.478
507.817
560.157
613.396
667.429
722.143
777.416
833.114
889.091
945.185
1001.22
1056.98
1112.25
1166.75
1220.17
1272.12
1321.98
1369.15
1413.51
1453.79
16150.2
3969.21
1407.47
1351.01
1289.18
1222.96
1153.24
1080.85
1006.65
931.511
856.412
782.195
710.014
641.843
579.974
526.761
484.285
453.8
435.174
426.757
426.007
430.315
437.463
445.931
454.75
463.365
471.476
478.918
485.599
491.469
496.495
500.657
503.94
506.334
507.83
508.423
508.11
506.89
504.765
501.738
503.586
510.01
514.959
518.435
520.447
521.019
520.19
518.025
514.617
510.098
504.652
498.521
492.011
485.482
479.328
473.928
469.574
466.397
464.302
462.952
461.806
460.203
457.461
452.967
446.224
436.877
424.697
409.566
391.45
370.374
346.402
319.624
290.142
258.068
238.489
257.689
302.936
349.585
397.537
446.698
496.974
548.274
600.504
653.567
707.362
761.779
816.701
872
927.536
983.151
1038.67
1093.89
1148.6
1202.52
1255.35
1306.71
1355.96
1402.5
1446.21
1485.76
14971.5
4971.2
1441.8
1384.68
1322.11
1255.06
1184.44
1111.08
1035.82
959.559
883.266
807.8
734.293
664.701
601.33
546.566
502.547
470.606
450.697
441.249
439.692
443.308
449.849
457.757
466.03
474.094
481.636
488.485
494.548
499.77
504.122
507.582
510.136
511.774
512.491
512.281
511.143
509.078
506.089
502.182
504.305
512.158
518.521
523.391
526.775
528.692
529.181
528.301
526.144
522.843
518.58
513.599
508.21
502.779
497.708
493.385
490.111
488.027
487.044
486.828
486.837
486.404
484.843
481.53
475.963
467.775
456.733
442.712
425.672
405.635
382.663
356.841
328.272
297.067
277.792
297.028
342.575
389.435
437.512
486.714
536.95
588.133
640.171
692.974
746.442
800.475
854.958
909.771
964.778
1019.83
1074.76
1129.37
1183.45
1236.73
1288.92
1339.63
1388.26
1434.19
1477.28
1516.23
13810.5
6082.32
1475.56
1417.93
1354.75
1287.01
1215.61
1141.39
1065.19
987.903
910.491
833.833
759.033
688.018
623.109
566.725
521.069
487.57
466.282
455.699
453.244
456.141
462.077
469.442
477.192
484.73
491.727
498.006
503.47
508.063
511.754
514.523
516.357
517.246
517.186
516.173
514.207
511.291
507.43
502.633
505.026
514.311
522.09
528.356
533.112
536.374
538.178
538.58
537.672
535.583
532.498
528.662
524.387
520.047
516.051
512.796
510.593
509.592
509.71
510.614
511.762
512.483
512.083
509.932
505.518
498.468
488.542
475.61
459.629
440.615
418.628
393.753
366.093
335.756
316.881
336.224
382.007
429.01
477.137
526.299
576.409
627.383
679.134
731.575
784.615
838.157
892.095
946.314
1000.69
1055.07
1109.31
1163.21
1216.57
1269.14
1320.61
1370.63
1418.6
1463.88
1506.36
1544.74
12337.6
7473.55
1508.66
1450.63
1386.97
1318.69
1246.67
1171.74
1094.74
1016.54
938.109
860.337
784.294
711.869
645.392
587.318
539.922
504.738
481.945
470.118
466.693
468.839
474.171
481.006
488.257
495.294
501.773
507.504
512.389
516.369
519.414
521.502
522.622
522.766
521.929
520.111
517.312
513.537
508.793
503.091
505.749
516.47
525.668
533.332
539.461
544.069
547.186
548.87
549.206
548.326
546.413
543.715
540.548
537.29
534.36
532.163
531.021
531.09
532.294
534.302
536.57
538.421
539.157
538.138
534.848
528.906
520.065
508.192
493.238
475.22
454.195
430.248
403.48
374.004
355.725
375.35
421.302
468.37
516.462
565.492
615.376
666.034
717.385
769.347
821.835
874.76
928.022
981.515
1035.12
1088.71
1142.12
1195.19
1247.72
1299.46
1350.13
1399.37
1446.6
1491.18
1533.03
1570.84
10536.7
9188.12
1540.79
1482.51
1418.56
1349.92
1277.47
1202.02
1124.39
1045.44
966.124
887.346
810.134
736.329
668.264
608.432
559.185
522.18
497.741
484.555
480.084
481.445
486.166
492.487
499.261
505.823
511.807
517.014
521.338
524.721
527.13
528.545
528.955
528.353
526.737
524.107
520.467
515.821
510.18
503.557
506.475
518.636
529.257
538.322
545.827
551.782
556.214
559.177
560.756
561.081
560.336
558.77
556.702
554.519
552.644
551.494
551.399
552.524
554.796
557.887
561.249
564.202
566.04
566.118
563.911
559.033
551.234
540.376
526.408
509.344
489.243
466.19
440.286
411.647
394.297
414.521
460.565
507.613
555.576
604.369
653.913
704.131
754.949
806.292
858.081
910.235
962.664
1015.27
1067.95
1120.57
1173.01
1225.09
1276.63
1327.4
1377.13
1425.48
1471.87
1515.67
1556.79
1593.98
8378.17
11268.5
1571.45
1513.13
1449.14
1380.42
1307.81
1232.09
1154.07
1074.57
994.529
914.886
836.617
761.484
691.828
630.177
578.968
539.997
513.759
499.085
493.479
494.011
498.112
503.93
510.25
516.363
521.876
526.578
530.359
533.156
534.936
535.682
535.381
534.03
531.628
528.176
523.681
518.151
511.597
504.034
507.204
520.811
532.86
543.332
552.217
559.522
565.273
569.518
572.341
573.87
574.29
573.851
572.876
571.758
570.929
570.812
571.749
573.91
577.228
581.374
585.799
589.816
592.713
593.838
592.661
588.792
581.975
572.071
559.029
542.862
523.629
501.417
476.332
448.491
432.571
453.897
499.953
546.889
594.616
643.054
692.126
741.763
791.895
842.454
893.37
944.57
995.975
1047.5
1099.05
1150.51
1201.76
1252.66
1303.03
1352.65
1401.27
1448.56
1493.97
1536.85
1577.11
1613.51
5881.86
13665.6
1599.86
1541.87
1478.21
1409.77
1337.34
1261.69
1183.57
1103.8
1023.29
942.97
863.786
787.419
716.198
652.686
599.411
558.325
530.128
513.821
506.982
506.635
510.103
515.427
521.312
526.996
532.057
536.271
539.518
541.734
542.886
542.956
541.937
539.825
536.622
532.333
526.967
520.532
513.045
504.521
507.935
522.995
536.479
548.363
558.636
567.299
574.374
579.906
583.977
586.713
588.297
588.982
589.096
589.034
589.239
590.143
592.095
595.272
599.611
604.782
610.231
615.266
619.167
621.278
621.062
618.127
612.214
603.184
590.984
575.632
557.188
535.743
511.407
484.302
470.535
493.703
539.686
586.409
633.785
681.737
730.192
779.085
828.354
877.938
927.775
977.803
1027.96
1078.16
1128.33
1178.39
1228.21
1277.68
1326.63
1374.89
1422.2
1468.26
1512.55
1554.38
1593.62
1628.92
2985.84
16257.4
1624.8
1567.78
1505.02
1437.37
1365.59
1290.44
1212.64
1132.97
1052.3
971.571
891.688
814.233
741.515
676.129
620.695
577.344
547.007
528.903
520.709
519.414
522.225
527.058
532.526
537.802
542.43
546.167
548.885
550.518
551.033
550.416
548.661
545.768
541.743
536.594
530.332
522.97
514.526
505.02
508.67
525.189
540.117
553.425
565.099
575.135
583.55
590.387
595.721
599.676
602.435
604.25
605.452
606.443
607.672
609.579
612.524
616.688
622.011
628.161
634.58
640.569
645.401
648.415
649.069
646.969
641.857
633.591
622.126
607.479
589.716
568.934
545.249
518.79
508.182
534.24
580.067
626.472
673.374
720.696
768.372
816.34
864.545
912.934
961.455
1010.06
1058.68
1107.28
1155.77
1204.1
1252.17
1299.88
1347.11
1393.68
1439.39
1483.96
1526.97
1567.66
1605.97
1640.57
1669.93
17638.4
1644.39
1589.48
1528.47
1462.32
1391.83
1317.75
1240.79
1161.7
1081.31
1000.55
920.285
841.979
767.901
700.678
643.033
597.288
564.645
544.582
534.914
532.603
534.733
539.075
544.132
549.005
553.197
556.446
558.616
559.64
559.489
558.149
555.621
551.909
547.024
540.979
533.788
525.469
516.043
505.529
509.406
527.387
543.766
558.511
571.601
583.029
592.804
600.963
607.578
612.767
616.712
619.663
621.956
623.997
626.243
629.144
633.066
638.196
644.473
651.562
658.897
665.771
671.451
675.268
676.68
675.291
670.844
663.204
652.327
638.238
621.012
600.751
577.582
551.641
545.528
575.883
621.468
667.455
713.756
760.3
807.023
853.871
900.792
947.741
994.676
1041.55
1088.34
1134.98
1181.43
1227.64
1273.55
1319.07
1364.11
1408.54
1452.19
1494.83
1536.15
1575.37
1612.69
1646.97
1677.21
18140.3
1658.26
1606.31
1547.77
1483.78
1415.23
1342.89
1267.42
1189.54
1110.01
1029.73
949.538
870.748
795.556
726.61
666.734
618.464
583.309
561.066
549.741
546.296
547.686
551.522
556.175
560.655
564.417
567.174
568.781
569.171
568.315
566.209
562.86
558.279
552.485
545.498
537.337
528.026
517.589
506.048
510.142
529.594
547.443
563.654
578.2
591.067
602.258
611.799
619.756
626.239
631.423
635.556
638.97
642.077
645.337
649.209
654.066
660.102
667.256
675.19
683.332
690.967
697.355
701.824
703.831
702.981
699.021
691.822
681.348
667.632
650.757
630.838
608.011
582.422
582.6
619.158
664.414
709.87
755.444
801.06
846.652
892.173
937.579
982.83
1027.89
1072.73
1117.33
1161.64
1205.65
1249.31
1292.59
1335.45
1377.81
1419.59
1460.67
1500.89
1539.99
1577.43
1613
1646.44
1676.6
16614.4
1686.22
1616.42
1561.11
1500.05
1434.27
1364.51
1291.4
1215.57
1137.7
1058.62
979.132
900.396
824.496
754.087
692.098
641.295
603.539
578.999
565.924
561.297
561.927
565.239
569.455
573.488
576.742
578.911
579.846
579.485
577.808
574.821
570.541
564.99
558.197
550.189
540.995
530.644
519.162
506.574
510.87
531.776
551.091
568.777
584.802
599.138
611.779
622.738
632.068
639.871
646.313
651.64
656.186
660.365
664.646
669.494
675.29
682.227
690.243
698.989
707.882
716.195
723.179
728.16
730.594
730.092
726.409
719.427
709.122
695.542
678.782
658.971
636.259
611.097
619.75
664.538
709.395
754.222
798.937
843.473
887.768
931.768
975.434
1018.74
1061.65
1104.14
1146.2
1187.81
1228.96
1269.63
1309.8
1349.46
1388.57
1427.1
1464.98
1502.1
1538.32
1573.16
1606.45
1638.09
1667.1
13061.2
5463.79
1621.02
1567.94
1509.96
1447.61
1381.35
1311.62
1238.9
1163.74
1086.84
1008.95
931.046
855.04
783.556
719.608
666.205
625.607
598.445
583.303
577.249
576.969
579.685
583.442
587.029
589.779
591.352
591.589
590.429
587.865
583.915
578.613
572.001
564.121
555.016
544.726
533.289
520.738
507.098
511.595
533.978
554.819
574.075
591.704
607.67
621.948
634.533
645.457
654.801
662.71
669.414
675.231
680.569
685.896
691.682
698.316
706
714.673
723.983
733.34
742.014
749.258
754.403
756.916
756.417
752.677
745.588
735.142
721.399
704.471
684.499
661.646
647.835
668.251
712.793
757.156
801.24
844.963
888.258
931.07
973.357
1015.08
1056.2
1096.7
1136.57
1175.8
1214.37
1252.29
1289.55
1326.16
1362.11
1397.4
1432.03
1465.97
1499.19
1531.61
1562.93
1592.96
1621.73
1648.47
9313.78
9195.78
1617.18
1567.19
1512.93
1454.69
1392.7
1327.21
1258.54
1187.07
1113.36
1038.08
962.028
886.848
815.088
749.807
694.236
651.051
621.404
604.285
596.886
595.748
597.852
601.034
603.954
605.893
606.509
605.663
603.32
599.501
594.25
587.625
579.687
570.497
560.115
548.595
535.982
522.314
507.614
512.271
536.011
558.28
579.044
598.244
615.822
631.724
645.917
658.404
669.241
678.564
686.597
693.67
700.198
706.627
713.405
720.913
729.356
738.672
748.51
758.278
767.247
774.678