/*--------------------------------*- C++ -*----------------------------------*\
  =========                 |
  \\      /  F ield         | OpenFOAM: The Open Source CFD Toolbox
   \\    /   O peration     | Website:  https://openfoam.org
    \\  /    A nd           | Version:  8
     \\/     M anipulation  |
\*---------------------------------------------------------------------------*/
FoamFile
{
    version     2.0;
    format      ascii;
    class       volScalarField;
    location    "560/fluid";
    object      rho;
}
// * * * * * * * * * * * * * * * * * * * * * * * * * * * * * * * * * * * * * //

dimensions      [1 -3 0 0 0 0 0];

internalField   nonuniform List<scalar> 
4000
(
0.658526
0.6585
0.658456
0.658382
0.65826
0.658057
0.657723
0.657177
0.656298
0.654898
0.652707
0.649343
0.644307
0.636986
0.626721
0.612927
0.595271
0.57384
0.549222
0.522427
0.494665
0.467091
0.440618
0.415842
0.393062
0.372353
0.353643
0.336778
0.321572
0.307832
0.295376
0.284043
0.273692
0.264204
0.255483
0.247433
0.239947
0.232961
0.226425
0.220295
0.214532
0.209106
0.20399
0.19916
0.194598
0.190287
0.186215
0.182369
0.178742
0.175327
0.172119
0.169115
0.166315
0.163724
0.161347
0.159197
0.157291
0.155675
0.154381
0.153411
0.152876
0.152882
0.153597
0.162379
0.17278
0.185008
0.199357
0.216214
0.23609
0.259649
0.287757
0.32153
0.362401
0.412307
0.473628
0.548571
0.638355
0.741508
0.851641
0.956897
1.04408
1.10587
1.14381
1.16446
1.1748
1.17974
1.18201
1.18303
1.18348
1.18368
1.18376
1.1838
1.18381
1.18382
1.18382
1.18382
1.18382
1.18382
1.18382
1.18382
0.658526
0.6585
0.658456
0.658382
0.658258
0.658053
0.657716
0.657166
0.65628
0.65487
0.652669
0.6493
0.644272
0.636988
0.626805
0.613153
0.595702
0.574523
0.550171
0.523611
0.49602
0.468537
0.442078
0.417254
0.394384
0.373561
0.354727
0.33774
0.322418
0.30857
0.296018
0.284598
0.274169
0.264613
0.25583
0.247727
0.240194
0.233166
0.226593
0.220429
0.214636
0.209183
0.204042
0.199191
0.194608
0.19028
0.186192
0.182333
0.178694
0.175267
0.17205
0.169038
0.166231
0.163634
0.161254
0.159101
0.157195
0.155586
0.154303
0.153355
0.152863
0.152956
0.154209
0.1632
0.173829
0.186325
0.201
0.218268
0.238668
0.262908
0.291904
0.326844
0.369251
0.421194
0.485103
0.563082
0.655938
0.761286
0.871456
0.973849
1.05613
1.11299
1.14739
1.16607
1.17548
1.18
1.18211
1.18307
1.1835
1.18368
1.18376
1.1838
1.18381
1.18382
1.18382
1.18382
1.18382
1.18382
1.18382
1.18382
0.658526
0.658499
0.658455
0.658381
0.658256
0.65805
0.65771
0.657157
0.656265
0.654851
0.652644
0.649272
0.644248
0.636984
0.626853
0.613297
0.595991
0.574999
0.550857
0.524501
0.497081
0.469717
0.443319
0.418503
0.395599
0.374713
0.355798
0.338721
0.323306
0.309368
0.296729
0.285227
0.274722
0.265094
0.256246
0.248083
0.240496
0.233419
0.2268
0.220594
0.214762
0.209274
0.204099
0.199216
0.194607
0.190254
0.186142
0.182262
0.178605
0.175162
0.171929
0.168904
0.166087
0.163481
0.161093
0.158935
0.157025
0.155413
0.154129
0.153176
0.152678
0.152753
0.155446
0.16469
0.175632
0.188515
0.20367
0.221536
0.242688
0.267874
0.298068
0.334516
0.378821
0.433139
0.499828
0.580706
0.675964
0.782219
0.890851
0.989264
1.06651
1.11898
1.15045
1.16752
1.17612
1.18028
1.18223
1.18312
1.18351
1.18369
1.18377
1.1838
1.18381
1.18382
1.18382
1.18382
1.18382
1.18382
1.18382
1.18382
0.658526
0.658499
0.658455
0.65838
0.658256
0.658049
0.657709
0.657155
0.656263
0.654851
0.652651
0.649295
0.644303
0.637095
0.627048
0.613608
0.596447
0.575621
0.551645
0.525436
0.498125
0.470825
0.444446
0.419613
0.396664
0.375715
0.356727
0.339573
0.32408
0.310066
0.297353
0.285782
0.275211
0.265523
0.256616
0.2484
0.240764
0.233641
0.226978
0.220731
0.214861
0.209335
0.204127
0.199214
0.194575
0.190195
0.18606
0.182157
0.178479
0.175019
0.171771
0.168732
0.165904
0.16329
0.160895
0.158732
0.156821
0.155213
0.153936
0.152995
0.152511
0.152605
0.157077
0.166591
0.177879
0.191197
0.206895
0.225434
0.247422
0.273649
0.305136
0.343185
0.389481
0.446241
0.515711
0.599411
0.696904
0.803845
0.91075
1.00511
1.07732
1.12539
1.15383
1.16917
1.17689
1.18062
1.18238
1.18318
1.18354
1.1837
1.18377
1.1838
1.18381
1.18382
1.18382
1.18382
1.18382
1.18382
1.18382
1.18382
0.658526
0.658499
0.658455
0.65838
0.658256
0.658049
0.657709
0.657156
0.656267
0.654859
0.652668
0.649329
0.644365
0.637203
0.627224
0.613878
0.596837
0.576145
0.552305
0.526214
0.498991
0.471741
0.445378
0.420528
0.39754
0.376538
0.357488
0.340269
0.324711
0.310633
0.29786
0.28623
0.275605
0.265864
0.256908
0.248646
0.240968
0.233804
0.227103
0.220818
0.214913
0.209355
0.204117
0.199175
0.19451
0.190105
0.185946
0.182023
0.178327
0.17485
0.171588
0.168539
0.165703
0.163082
0.160685
0.158523
0.156616
0.155025
0.153762
0.152838
0.15238
0.152521
0.158876
0.168662
0.180305
0.194073
0.210331
0.229565
0.25241
0.279696
0.312487
0.352137
0.400417
0.459571
0.531692
0.617968
0.717301
0.824419
0.929158
1.01936
1.08681
1.13093
1.15674
1.17059
1.17755
1.18092
1.18251
1.18324
1.18357
1.18371
1.18377
1.1838
1.18381
1.18382
1.18382
1.18382
1.18382
1.18382
1.18382
1.18382
0.658526
0.6585
0.658455
0.658381
0.658256
0.65805
0.657712
0.657161
0.656276
0.654876
0.652697
0.649379
0.644448
0.637333
0.627422
0.614164
0.597226
0.576645
0.552909
0.526905
0.49974
0.472518
0.446153
0.421279
0.398251
0.377199
0.358095
0.340819
0.325205
0.311074
0.298249
0.286572
0.2759
0.266116
0.257119
0.248818
0.241104
0.233905
0.22717
0.220854
0.21492
0.209335
0.20407
0.199103
0.194415
0.189988
0.18581
0.181869
0.178157
0.174668
0.171396
0.16834
0.165499
0.162879
0.160485
0.158332
0.156439
0.154868
0.153622
0.152722
0.152295
0.152483
0.160648
0.170667
0.182662
0.196887
0.213712
0.23364
0.257335
0.28566
0.319723
0.360926
0.411126
0.472563
0.547172
0.635793
0.736674
0.843689
0.946147
1.03235
1.09542
1.13597
1.15942
1.17191
1.17818
1.18121
1.18264
1.18329
1.18359
1.18372
1.18378
1.1838
1.18381
1.18382
1.18382
1.18382
1.18382
1.18382
1.18382
1.18382
0.658526
0.6585
0.658455
0.658381
0.658257
0.658052
0.657715
0.657167
0.656287
0.654894
0.652728
0.649429
0.644527
0.637456
0.627603
0.614419
0.597568
0.577078
0.553426
0.527488
0.500365
0.473159
0.446786
0.421886
0.39882
0.377722
0.358569
0.341244
0.325582
0.311405
0.298538
0.286819
0.27611
0.266289
0.257257
0.248924
0.241178
0.23395
0.227189
0.220848
0.214889
0.20928
0.203993
0.199005
0.194297
0.189852
0.185658
0.181704
0.17798
0.174481
0.171203
0.168144
0.165305
0.16269
0.160308
0.158173
0.156305
0.154782
0.153549
0.15271
0.152349
0.152594
0.161505
0.172108
0.18464
0.199417
0.21685
0.23748
0.262008
0.291337
0.326619
0.369305
0.421333
0.484914
0.561823
0.652539
0.754665
0.861297
0.96137
1.04376
1.10286
1.14028
1.1617
1.17304
1.17871
1.18146
1.18275
1.18334
1.18361
1.18373
1.18378
1.1838
1.18381
1.18382
1.18382
1.18382
1.18382
1.18382
1.18382
1.18382
0.658526
0.6585
0.658456
0.658382
0.658259
0.658054
0.657719
0.657174
0.656298
0.654913
0.652758
0.649478
0.644603
0.637571
0.62777
0.61465
0.59787
0.577454
0.553867
0.527978
0.500883
0.473683
0.447297
0.422369
0.399266
0.378127
0.358931
0.341564
0.325861
0.311646
0.298742
0.28699
0.276248
0.266397
0.257336
0.248976
0.241206
0.233955
0.227171
0.220808
0.214829
0.2092
0.203895
0.198889
0.194165
0.189707
0.1855
0.181534
0.177802
0.174297
0.171016
0.167957
0.165122
0.162517
0.160151
0.158041
0.156218
0.154752
0.153606
0.152907
0.152772
0.153398
0.162655
0.17364
0.186593
0.201844
0.219824
0.241099
0.266399
0.296663
0.33308
0.377155
0.430892
0.496457
0.575457
0.668014
0.771118
0.877175
0.974878
1.05374
1.1093
1.14399
1.16367
1.17401
1.17918
1.18167
1.18285
1.18339
1.18363
1.18374
1.18379
1.18381
1.18382
1.18382
1.18382
1.18382
1.18382
1.18382
1.18382
1.18382
0.658526
0.6585
0.658456
0.658382
0.65826
0.658057
0.657723
0.65718
0.656309
0.65493
0.652786
0.649522
0.644672
0.637673
0.627915
0.614848
0.598128
0.57777
0.554235
0.528382
0.501305
0.474104
0.447702
0.422748
0.399611
0.378435
0.359202
0.341798
0.326062
0.311813
0.298879
0.287099
0.27633
0.266454
0.25737
0.248989
0.241198
0.233928
0.227125
0.220745
0.214748
0.209104
0.203783
0.198764
0.194028
0.189558
0.185341
0.181368
0.17763
0.174121
0.170838
0.16778
0.16495
0.162353
0.16
0.15791
0.156122
0.154694
0.153602
0.15298
0.152961
0.154377
0.163914
0.175208
0.188512
0.204169
0.222631
0.244484
0.270484
0.301601
0.33906
0.38442
0.439733
0.507109
0.587987
0.68214
0.785981
0.891319
0.986718
1.06235
1.11479
1.14713
1.16532
1.17483
1.17957
1.18185
1.18293
1.18342
1.18365
1.18375
1.18379
1.18381
1.18382
1.18382
1.18382
1.18382
1.18382
1.18382
1.18382
1.18382
0.658526
0.6585
0.658456
0.658383
0.658261
0.658059
0.657726
0.657186
0.656318
0.654946
0.652812
0.649562
0.644732
0.637761
0.62804
0.615017
0.598345
0.578033
0.554536
0.528709
0.501643
0.474438
0.448019
0.423039
0.399873
0.378665
0.3594
0.341965
0.326199
0.311924
0.298964
0.28716
0.27637
0.266474
0.257371
0.248973
0.241165
0.233879
0.227061
0.220666
0.214656
0.208999
0.203666
0.198637
0.19389
0.189412
0.185188
0.181209
0.177466
0.173955
0.170671
0.167615
0.164788
0.162196
0.159852
0.157771
0.155997
0.154581
0.153496
0.152871
0.15282
0.155496
0.16523
0.176763
0.190356
0.206362
0.225246
0.247611
0.274238
0.306124
0.344527
0.391056
0.447799
0.516805
0.599353
0.694876
0.799252
0.903788
0.997006
1.06973
1.11945
1.14978
1.16672
1.17553
1.1799
1.18201
1.183
1.18345
1.18366
1.18375
1.18379
1.18381
1.18382
1.18382
1.18382
1.18382
1.18382
1.18382
1.18382
1.18382
0.658526
0.6585
0.658457
0.658384
0.658262
0.65806
0.657729
0.657191
0.656327
0.654959
0.652833
0.649595
0.644783
0.637836
0.628145
0.615158
0.598523
0.578248
0.55478
0.528971
0.50191
0.474697
0.448262
0.423259
0.400066
0.378831
0.359539
0.342078
0.326288
0.311991
0.29901
0.287187
0.27638
0.266468
0.25735
0.248937
0.241116
0.233817
0.226986
0.22058
0.214559
0.208892
0.20355
0.198512
0.193759
0.189274
0.185045
0.181061
0.177316
0.173803
0.17052
0.167465
0.164641
0.162055
0.159716
0.157643
0.155878
0.154471
0.153392
0.15277
0.152717
0.156575
0.16648
0.17822
0.192064
0.208375
0.22763
0.250451
0.277637
0.310212
0.34946
0.397043
0.455071
0.525531
0.609547
0.706231
0.81098
0.914673
1.00587
1.07602
1.12338
1.15201
1.16788
1.1761
1.18018
1.18214
1.18306
1.18348
1.18367
1.18376
1.18379
1.18381
1.18382
1.18382
1.18382
1.18382
1.18382
1.18382
1.18382
1.18382
0.658526
0.6585
0.658457
0.658384
0.658263
0.658062
0.657732
0.657195
0.656334
0.654971
0.652852
0.649624
0.644826
0.637898
0.628232
0.615273
0.598668
0.57842
0.554974
0.529177
0.502117
0.474896
0.448445
0.423422
0.400207
0.378948
0.359633
0.342151
0.326341
0.312026
0.299029
0.28719
0.276369
0.266444
0.257314
0.248889
0.241057
0.233748
0.226908
0.220492
0.214463
0.208788
0.20344
0.198396
0.193637
0.189147
0.184915
0.180929
0.177182
0.173669
0.170387
0.167335
0.164515
0.161933
0.159601
0.157535
0.15578
0.154381
0.153309
0.152693
0.152645
0.157548
0.167608
0.179533
0.193599
0.210179
0.229763
0.252986
0.280666
0.313849
0.353846
0.402367
0.461542
0.533283
0.618574
0.716232
0.821225
0.924083
1.01344
1.08133
1.12668
1.15386
1.16885
1.17658
1.18041
1.18224
1.1831
1.1835
1.18368
1.18376
1.1838
1.18381
1.18382
1.18382
1.18382
1.18382
1.18382
1.18382
1.18382
1.18382
0.658526
0.6585
0.658457
0.658385
0.658264
0.658063
0.657734
0.657199
0.65634
0.654981
0.652867
0.649648
0.644861
0.637948
0.628301
0.615365
0.598783
0.578556
0.555125
0.529336
0.502275
0.475046
0.448581
0.42354
0.400305
0.379027
0.359693
0.342194
0.326369
0.312038
0.299029
0.287178
0.276345
0.26641
0.25727
0.248837
0.240996
0.233678
0.226831
0.220409
0.214373
0.208693
0.203339
0.19829
0.193527
0.189035
0.1848
0.180813
0.177067
0.173555
0.170274
0.167225
0.164409
0.161833
0.159508
0.15745
0.155704
0.154313
0.153249
0.152641
0.1526
0.158387
0.168591
0.180682
0.194945
0.211761
0.23163
0.255202
0.283315
0.317032
0.357688
0.407035
0.46721
0.540068
0.626456
0.724923
0.830064
0.932124
1.01984
1.08578
1.12942
1.15539
1.16965
1.17698
1.1806
1.18233
1.18315
1.18352
1.18369
1.18376
1.1838
1.18381
1.18382
1.18382
1.18382
1.18382
1.18382
1.18382
1.18382
1.18382
0.658526
0.6585
0.658457
0.658385
0.658264
0.658064
0.657736
0.657202
0.656345
0.654989
0.65288
0.649667
0.644889
0.637989
0.628357
0.615438
0.598874
0.578662
0.555242
0.529457
0.502394
0.475157
0.448679
0.423623
0.400372
0.379078
0.35973
0.342217
0.326378
0.312037
0.299017
0.287157
0.276315
0.266371
0.257224
0.248784
0.240937
0.233613
0.22676
0.220332
0.214292
0.208607
0.20325
0.198198
0.193433
0.188939
0.184703
0.180716
0.17697
0.17346
0.170182
0.167137
0.164326
0.161756
0.159437
0.157385
0.155649
0.154266
0.15321
0.152609
0.152577
0.159097
0.169429
0.181667
0.1961
0.21312
0.233237
0.257113
0.285598
0.319776
0.361001
0.411062
0.4721
0.545917
0.633235
0.732366
0.837586
0.938911
1.0252
1.08947
1.13168
1.15665
1.17031
1.1773
1.18075
1.1824
1.18318
1.18353
1.18369
1.18377
1.1838
1.18381
1.18382
1.18382
1.18382
1.18382
1.18382
1.18382
1.18382
1.18382
0.658526
0.658501
0.658457
0.658385
0.658265
0.658065
0.657737
0.657204
0.656349
0.654995
0.65289
0.649682
0.644912
0.638021
0.628401
0.615494
0.598944
0.578743
0.55533
0.529548
0.502482
0.475237
0.448748
0.42368
0.400416
0.379109
0.359749
0.342225
0.326377
0.312027
0.298998
0.287131
0.276283
0.266333
0.257181
0.248735
0.240883
0.233555
0.226697
0.220266
0.214223
0.208535
0.203175
0.198121
0.193354
0.188859
0.184624
0.180637
0.176893
0.173385
0.17011
0.167069
0.164263
0.161698
0.159385
0.15734
0.155611
0.154235
0.153187
0.152591
0.152569
0.159686
0.170131
0.182495
0.197076
0.21427
0.234596
0.258728
0.287529
0.322097
0.363805
0.414471
0.476239
0.550862
0.638955
0.738626
0.843877
0.944549
1.02962
1.09249
1.13352
1.15768
1.17084
1.17756
1.18088
1.18246
1.1832
1.18355
1.1837
1.18377
1.1838
1.18381
1.18382
1.18382
1.18382
1.18382
1.18382
1.18382
1.18382
1.18382
0.658526
0.658501
0.658458
0.658385
0.658265
0.658066
0.657738
0.657206
0.656352
0.655
0.652897
0.649693
0.644929
0.638045
0.628434
0.615537
0.598996
0.578804
0.555396
0.529615
0.502545
0.475294
0.448797
0.423718
0.400444
0.379127
0.359758
0.342226
0.32637
0.312013
0.298979
0.287106
0.276253
0.266298
0.257142
0.248693
0.240837
0.233506
0.226646
0.220212
0.214166
0.208476
0.203115
0.19806
0.193293
0.188798
0.184562
0.180577
0.176835
0.17333
0.170059
0.167021
0.164219
0.161659
0.159351
0.157311
0.155587
0.154213
0.153162
0.152556
0.15251
0.160166
0.170709
0.18318
0.197883
0.215221
0.235721
0.260064
0.289125
0.324013
0.366119
0.417285
0.479654
0.554938
0.643661
0.74376
0.849015
0.949128
1.03318
1.09492
1.13499
1.15849
1.17126
1.17777
1.18098
1.18251
1.18323
1.18356
1.1837
1.18377
1.1838
1.18381
1.18382
1.18382
1.18382
1.18382
1.18382
1.18382
1.18382
1.18382
0.658526
0.658501
0.658458
0.658386
0.658265
0.658066
0.657739
0.657208
0.656354
0.655004
0.652903
0.649702
0.644942
0.638064
0.628459
0.615569
0.599035
0.578848
0.555444
0.529662
0.50259
0.475333
0.448829
0.423743
0.400461
0.379137
0.359761
0.342222
0.326361
0.311999
0.29896
0.287084
0.276227
0.26627
0.257111
0.248659
0.240802
0.233468
0.226606
0.22017
0.214123
0.208432
0.20307
0.198015
0.193248
0.188753
0.184519
0.180536
0.176796
0.173293
0.170025
0.166992
0.164194
0.161639
0.159336
0.157302
0.155583
0.154213
0.153163
0.152557
0.15251
0.160546
0.171171
0.183729
0.198531
0.215984
0.236622
0.261133
0.290399
0.325542
0.367963
0.419524
0.482369
0.558174
0.647389
0.747814
0.853056
0.952713
1.03596
1.09681
1.13613
1.15913
1.17159
1.17793
1.18105
1.18254
1.18324
1.18356
1.18371
1.18377
1.1838
1.18381
1.18382
1.18382
1.18382
1.18382
1.18382
1.18382
1.18382
1.18382
0.658526
0.658501
0.658458
0.658386
0.658266
0.658067
0.65774
0.657209
0.656356
0.655006
0.652907
0.649709
0.644951
0.638077
0.628476
0.615592
0.599062
0.578879
0.555476
0.529695
0.50262
0.475359
0.44885
0.423758
0.400471
0.379141
0.35976
0.342218
0.326353
0.311987
0.298946
0.287067
0.276208
0.266249
0.257089
0.248636
0.240776
0.233442
0.226579
0.220142
0.214094
0.208403
0.203041
0.197985
0.193219
0.188725
0.184493
0.180511
0.176773
0.173273
0.170009
0.166979
0.164186
0.161636
0.159338
0.157308
0.155594
0.154227
0.153179
0.152569
0.152514
0.160829
0.17152
0.184149
0.199026
0.216567
0.237308
0.261943
0.291363
0.326694
0.36935
0.421206
0.484403
0.560593
0.650169
0.750826
0.856044
0.955351
1.038
1.09819
1.13697
1.15959
1.17183
1.17805
1.18111
1.18257
1.18325
1.18357
1.18371
1.18377
1.1838
1.18381
1.18382
1.18382
1.18382
1.18382
1.18382
1.18382
1.18382
1.18382
0.658526
0.658501
0.658458
0.658386
0.658266
0.658067
0.65774
0.657209
0.656357
0.655008
0.65291
0.649713
0.644957
0.638085
0.628487
0.615606
0.599079
0.578899
0.555497
0.529715
0.502639
0.475375
0.448862
0.423767
0.400476
0.379143
0.359759
0.342214
0.326347
0.311979
0.298936
0.287055
0.276195
0.266235
0.257075
0.248621
0.240762
0.233426
0.226563
0.220126
0.214078
0.208386
0.203024
0.19797
0.193204
0.188711
0.18448
0.1805
0.176764
0.173267
0.170006
0.16698
0.164191
0.161645
0.159352
0.157326
0.155616
0.154251
0.153202
0.152587
0.15252
0.161017
0.17176
0.184439
0.19937
0.21697
0.23778
0.262499
0.29202
0.327476
0.370286
0.422336
0.485765
0.562207
0.652015
0.752817
0.858009
0.957074
1.03932
1.09908
1.13751
1.15989
1.17199
1.17813
1.18115
1.18259
1.18326
1.18357
1.18371
1.18377
1.1838
1.18381
1.18382
1.18382
1.18382
1.18382
1.18382
1.18382
1.18382
1.18382
0.658526
0.658501
0.658458
0.658386
0.658266
0.658067
0.65774
0.65721
0.656357
0.655009
0.652911
0.649714
0.64496
0.638089
0.628493
0.615613
0.599087
0.578908
0.555506
0.529724
0.502647
0.475382
0.448868
0.423771
0.400478
0.379144
0.359758
0.342212
0.326343
0.311975
0.298931
0.28705
0.276189
0.266229
0.257068
0.248615
0.240755
0.23342
0.226557
0.22012
0.214072
0.20838
0.203019
0.197964
0.193199
0.188707
0.184477
0.180499
0.176764
0.173269
0.17001
0.166987
0.164201
0.161658
0.159368
0.157345
0.155638
0.154274
0.153224
0.152604
0.152524
0.16111
0.171887
0.184595
0.199554
0.217184
0.238028
0.262787
0.292357
0.327873
0.370758
0.4229
0.486438
0.562997
0.652911
0.753776
0.858946
0.957889
1.03994
1.0995
1.13776
1.16003
1.17206
1.17817
1.18116
1.1826
1.18327
1.18357
1.18371
1.18377
1.1838
1.18381
1.18382
1.18382
1.18382
1.18382
1.18382
1.18382
1.18382
1.18382
0.658526
0.658501
0.658458
0.658386
0.658266
0.658067
0.65774
0.65721
0.656357
0.655009
0.652911
0.649714
0.64496
0.638089
0.628492
0.615612
0.599087
0.578907
0.555506
0.529724
0.502647
0.475382
0.448868
0.423771
0.400478
0.379143
0.359758
0.342211
0.326343
0.311975
0.298931
0.287049
0.276189
0.266229
0.257068
0.248614
0.240755
0.23342
0.226556
0.22012
0.214072
0.20838
0.203019
0.197964
0.193199
0.188707
0.184477
0.180499
0.176764
0.173269
0.17001
0.166987
0.164201
0.161658
0.159368
0.157345
0.155638
0.154274
0.153224
0.152604
0.152524
0.16111
0.171887
0.184595
0.199555
0.217184
0.238029
0.262787
0.292357
0.327873
0.370758
0.4229
0.486438
0.562997
0.652912
0.753776
0.858947
0.957889
1.03994
1.0995
1.13776
1.16003
1.17206
1.17817
1.18116
1.1826
1.18327
1.18357
1.18371
1.18377
1.1838
1.18381
1.18382
1.18382
1.18382
1.18382
1.18382
1.18382
1.18382
1.18382
0.658526
0.658501
0.658458
0.658386
0.658266
0.658067
0.65774
0.657209
0.656357
0.655008
0.65291
0.649712
0.644957
0.638084
0.628487
0.615605
0.599079
0.578898
0.555496
0.529714
0.502637
0.475374
0.448861
0.423766
0.400475
0.379142
0.359758
0.342213
0.326346
0.311978
0.298935
0.287055
0.276195
0.266235
0.257074
0.248621
0.240761
0.233426
0.226562
0.220126
0.214078
0.208386
0.203024
0.197969
0.193204
0.188711
0.18448
0.1805
0.176764
0.173267
0.170006
0.16698
0.164191
0.161645
0.159352
0.157326
0.155616
0.154251
0.153202
0.152587
0.15252
0.161017
0.171761
0.18444
0.199371
0.216971
0.237781
0.2625
0.292021
0.327477
0.370287
0.422337
0.485767
0.562209
0.652017
0.752819
0.858011
0.957076
1.03932
1.09908
1.13751
1.15989
1.17199
1.17813
1.18115
1.18259
1.18326
1.18357
1.18371
1.18377
1.1838
1.18381
1.18382
1.18382
1.18382
1.18382
1.18382
1.18382
1.18382
1.18382
0.658526
0.658501
0.658458
0.658386
0.658266
0.658067
0.65774
0.657209
0.656356
0.655006
0.652907
0.649708
0.644951
0.638076
0.628475
0.615591
0.599061
0.578878
0.555474
0.529693
0.502618
0.475357
0.448848
0.423756
0.400469
0.37914
0.359759
0.342216
0.326352
0.311986
0.298945
0.287066
0.276207
0.266248
0.257088
0.248635
0.240776
0.233441
0.226578
0.220142
0.214094
0.208402
0.20304
0.197985
0.193218
0.188725
0.184492
0.180511
0.176773
0.173273
0.170009
0.166979
0.164186
0.161636
0.159338
0.157308
0.155594
0.154227
0.153179
0.152569
0.152514
0.16083
0.171521
0.184149
0.199027
0.216568
0.237309
0.261945
0.291365
0.326696
0.369352
0.421208
0.484406
0.560596
0.650172
0.750829
0.856048
0.955354
1.038
1.09819
1.13697
1.15959
1.17183
1.17805
1.18111
1.18257
1.18325
1.18357
1.18371
1.18377
1.1838
1.18381
1.18382
1.18382
1.18382
1.18382
1.18382
1.18382
1.18382
1.18382
0.658526
0.658501
0.658458
0.658386
0.658265
0.658066
0.657739
0.657208
0.656354
0.655003
0.652903
0.649702
0.644941
0.638063
0.628458
0.615568
0.599033
0.578846
0.555441
0.529659
0.502587
0.47533
0.448826
0.42374
0.400458
0.379135
0.359758
0.34222
0.32636
0.311998
0.298959
0.287082
0.276226
0.266269
0.25711
0.248658
0.240801
0.233467
0.226605
0.22017
0.214123
0.208432
0.20307
0.198014
0.193247
0.188753
0.184519
0.180536
0.176795
0.173293
0.170025
0.166991
0.164194
0.161639
0.159336
0.157301
0.155583
0.154213
0.153163
0.152557
0.15251
0.160547
0.171172
0.183731
0.198532
0.215986
0.236624
0.261135
0.290401
0.325544
0.367966
0.419528
0.482373
0.558178
0.647394
0.747819
0.853061
0.952717
1.03596
1.09681
1.13613
1.15913
1.17159
1.17793
1.18105
1.18254
1.18324
1.18356
1.18371
1.18377
1.1838
1.18381
1.18382
1.18382
1.18382
1.18382
1.18382
1.18382
1.18382
1.18382
0.658526
0.658501
0.658458
0.658385
0.658265
0.658066
0.657738
0.657206
0.656352
0.655
0.652897
0.649693
0.644928
0.638044
0.628433
0.615536
0.598994
0.578801
0.555393
0.529611
0.502541
0.47529
0.448793
0.423715
0.400441
0.379124
0.359755
0.342223
0.326368
0.312011
0.298977
0.287104
0.276251
0.266297
0.257141
0.248692
0.240836
0.233505
0.226645
0.220211
0.214165
0.208475
0.203114
0.198059
0.193292
0.188797
0.184562
0.180577
0.176834
0.173329
0.170058
0.167021
0.164219
0.161659
0.159351
0.157311
0.155587
0.154213
0.153162
0.152556
0.15251
0.160168
0.170711
0.183182
0.197885
0.215223
0.235723
0.260067
0.289128
0.324017
0.366123
0.417289
0.479659
0.554944
0.643668
0.743766
0.849022
0.949133
1.03318
1.09492
1.13499
1.1585
1.17126
1.17777
1.18098
1.18251
1.18323
1.18356
1.1837
1.18377
1.1838
1.18381
1.18382
1.18382
1.18382
1.18382
1.18382
1.18382
1.18382
1.18382
0.658526
0.658501
0.658457
0.658385
0.658265
0.658065
0.657737
0.657204
0.656349
0.654995
0.652889
0.649681
0.644911
0.63802
0.628399
0.615492
0.598941
0.57874
0.555326
0.529544
0.502477
0.475232
0.448744
0.423676
0.400412
0.379106
0.359746
0.342222
0.326375
0.312024
0.298996
0.287129
0.276281
0.266331
0.257179
0.248733
0.240882
0.233553
0.226696
0.220265
0.214222
0.208534
0.203174
0.19812
0.193354
0.188859
0.184623
0.180637
0.176892
0.173384
0.17011
0.167069
0.164263
0.161698
0.159385
0.15734
0.155611
0.154235
0.153186
0.152591
0.152569
0.159687
0.170133
0.182497
0.197078
0.214272
0.234599
0.258732
0.287533
0.322101
0.36381
0.414476
0.476246
0.550869
0.638963
0.738634
0.843885
0.944556
1.02962
1.0925
1.13352
1.15768
1.17084
1.17756
1.18088
1.18246
1.1832
1.18355
1.1837
1.18377
1.1838
1.18381
1.18382
1.18382
1.18382
1.18382
1.18382
1.18382
1.18382
1.18382
0.658526
0.6585
0.658457
0.658385
0.658264
0.658064
0.657736
0.657202
0.656345
0.654988
0.652879
0.649666
0.644888
0.637987
0.628355
0.615435
0.59887
0.578658
0.555237
0.529452
0.502389
0.475151
0.448674
0.423618
0.400368
0.379074
0.359726
0.342213
0.326375
0.312034
0.299014
0.287154
0.276313
0.266369
0.257222
0.248782
0.240935
0.233611
0.226758
0.220331
0.214291
0.208606
0.203249
0.198197
0.193432
0.188938
0.184702
0.180715
0.176969
0.173459
0.170181
0.167136
0.164325
0.161755
0.159437
0.157385
0.155648
0.154265
0.15321
0.152609
0.152577
0.159099
0.169431
0.181669
0.196103
0.213123
0.23324
0.257117
0.285603
0.319781
0.361007
0.411069
0.472108
0.545925
0.633244
0.732376
0.837595
0.93892
1.02521
1.08947
1.13168
1.15666
1.17031
1.1773
1.18075
1.1824
1.18318
1.18353
1.18369
1.18377
1.1838
1.18381
1.18382
1.18382
1.18382
1.18382
1.18382
1.18382
1.18382
1.18382
0.658526
0.6585
0.658457
0.658385
0.658263
0.658063
0.657734
0.657199
0.65634
0.65498
0.652867
0.649647
0.64486
0.637947
0.628299
0.615362
0.598779
0.578552
0.55512
0.52933
0.502269
0.47504
0.448575
0.423534
0.4003
0.379022
0.359689
0.34219
0.326365
0.312035
0.299025
0.287175
0.276343
0.266407
0.257268
0.248835
0.240994
0.233677
0.226829
0.220407
0.214372
0.208691
0.203338
0.198289
0.193526
0.189034
0.184799
0.180812
0.177066
0.173554
0.170274
0.167224
0.164409
0.161833
0.159508
0.157449
0.155703
0.154312
0.153249
0.152641
0.1526
0.158389
0.168594
0.180685
0.194948
0.211764
0.231634
0.255207
0.28332
0.317038
0.357695
0.407043
0.467219
0.540079
0.626468
0.724935
0.830076
0.932134
1.01985
1.08578
1.12942
1.1554
1.16965
1.17698
1.1806
1.18233
1.18315
1.18352
1.18369
1.18376
1.1838
1.18381
1.18382
1.18382
1.18382
1.18382
1.18382
1.18382
1.18382
1.18382
0.658526
0.6585
0.658457
0.658384
0.658263
0.658062
0.657732
0.657195
0.656334
0.654971
0.652851
0.649623
0.644825
0.637896
0.628229
0.615269
0.598664
0.578415
0.554968
0.52917
0.50211
0.474889
0.448439
0.423416
0.400201
0.378942
0.359628
0.342147
0.326337
0.312022
0.299025
0.287187
0.276366
0.266441
0.257311
0.248887
0.241055
0.233746
0.226906
0.220491
0.214462
0.208787
0.203439
0.198394
0.193635
0.189146
0.184913
0.180928
0.177181
0.173668
0.170386
0.167334
0.164514
0.161932
0.1596
0.157535
0.15578
0.154381
0.153309
0.152693
0.152645
0.157551
0.167611
0.179537
0.193603
0.210184
0.229768
0.252991
0.280672
0.313856
0.353854
0.402376
0.461552
0.533295
0.618588
0.716246
0.82124
0.924096
1.01345
1.08134
1.12668
1.15386
1.16885
1.17658
1.18041
1.18224
1.1831
1.1835
1.18368
1.18376
1.1838
1.18381
1.18382
1.18382
1.18382
1.18382
1.18382
1.18382
1.18382
1.18382
0.658526
0.6585
0.658457
0.658384
0.658262
0.65806
0.657729
0.657191
0.656326
0.654959
0.652833
0.649595
0.644782
0.637834
0.628142
0.615154
0.598518
0.578242
0.554773
0.528964
0.501902
0.47469
0.448254
0.423252
0.40006
0.378825
0.359533
0.342073
0.326284
0.311986
0.299007
0.287183
0.276376
0.266465
0.257347
0.248934
0.241113
0.233814
0.226984
0.220578
0.214557
0.20889
0.203549
0.198511
0.193757
0.189272
0.185043
0.18106
0.177315
0.173802
0.170519
0.167464
0.16464
0.162054
0.159715
0.157642
0.155877
0.15447
0.153392
0.15277
0.152717
0.156578
0.166483
0.178224
0.192068
0.20838
0.227635
0.250457
0.277644
0.31022
0.34947
0.397053
0.455084
0.525545
0.609563
0.706248
0.810998
0.914689
1.00588
1.07603
1.12339
1.15201
1.16788
1.1761
1.18018
1.18214
1.18306
1.18348
1.18367
1.18376
1.18379
1.18381
1.18382
1.18382
1.18382
1.18382
1.18382
1.18382
1.18382
1.18382
0.658526
0.6585
0.658456
0.658383
0.658261
0.658058
0.657726
0.657186
0.656318
0.654945
0.652811
0.64956
0.64473
0.637759
0.628037
0.615013
0.59834
0.578027
0.554529
0.528701
0.501634
0.474429
0.44801
0.423031
0.399865
0.378658
0.359393
0.341959
0.326194
0.311919
0.29896
0.287156
0.276366
0.26647
0.257368
0.24897
0.241163
0.233876
0.227058
0.220664
0.214654
0.208996
0.203664
0.198635
0.193889
0.18941
0.185186
0.181207
0.177465
0.173953
0.17067
0.167613
0.164787
0.162195
0.159851
0.15777
0.155996
0.154581
0.153496
0.15287
0.15282
0.1555
0.165234
0.176767
0.190361
0.206367
0.225252
0.247618
0.274246
0.306133
0.344537
0.391068
0.447814
0.516821
0.599372
0.694897
0.799273
0.903807
0.997021
1.06975
1.11946
1.14979
1.16672
1.17553
1.1799
1.18201
1.183
1.18345
1.18366
1.18375
1.18379
1.18381
1.18382
1.18382
1.18382
1.18382
1.18382
1.18382
1.18382
1.18382
0.658526
0.6585
0.658456
0.658382
0.65826
0.658056
0.657723
0.65718
0.656308
0.654929
0.652786
0.649521
0.64467
0.63767
0.627912
0.614844
0.598122
0.577763
0.554226
0.528373
0.501295
0.474095
0.447693
0.422739
0.399603
0.378428
0.359195
0.341792
0.326056
0.311808
0.298874
0.287094
0.276326
0.26645
0.257366
0.248985
0.241195
0.233925
0.227122
0.220742
0.214746
0.209101
0.203781
0.198762
0.194026
0.189556
0.185339
0.181366
0.177628
0.174119
0.170836
0.167779
0.164948
0.162352
0.159999
0.157909
0.156121
0.154693
0.153601
0.15298
0.152961
0.15438
0.163918
0.175212
0.188517
0.204175
0.222638
0.244492
0.270493
0.301611
0.339072
0.384433
0.439749
0.507128
0.588009
0.682164
0.786006
0.891342
0.986737
1.06236
1.1148
1.14714
1.16532
1.17484
1.17957
1.18185
1.18293
1.18342
1.18365
1.18375
1.18379
1.18381
1.18382
1.18382
1.18382
1.18382
1.18382
1.18382
1.18382
1.18382
0.658526
0.6585
0.658456
0.658382
0.658259
0.658054
0.657719
0.657174
0.656298
0.654912
0.652757
0.649476
0.644601
0.637568
0.627766
0.614645
0.597864
0.577446
0.553858
0.527968
0.500873
0.473673
0.447287
0.422359
0.399257
0.378118
0.358923
0.341557
0.325855
0.31164
0.298736
0.286984
0.276243
0.266393
0.257332
0.248972
0.241202
0.233952
0.227168
0.220805
0.214826
0.209197
0.203892
0.198887
0.194163
0.189704
0.185498
0.181533
0.177801
0.174296
0.171015
0.167956
0.165121
0.162516
0.16015
0.158041
0.156217
0.154752
0.153606
0.152907
0.152773
0.1534
0.162658
0.173644
0.186599
0.20185
0.219831
0.241107
0.266409
0.296674
0.333093
0.377171
0.43091
0.496479
0.575481
0.668042
0.771146
0.877202
0.974901
1.05375
1.10931
1.144
1.16367
1.17402
1.17918
1.18167
1.18285
1.18339
1.18363
1.18374
1.18379
1.18381
1.18382
1.18382
1.18382
1.18382
1.18382
1.18382
1.18382
1.18382
0.658526
0.6585
0.658455
0.658381
0.658257
0.658052
0.657715
0.657167
0.656287
0.654893
0.652727
0.649427
0.644525
0.637453
0.627599
0.614413
0.59756
0.577069
0.553416
0.527477
0.500354
0.473148
0.446775
0.421876
0.39881
0.377712
0.35856
0.341236
0.325575
0.311399
0.298532
0.286814
0.276104
0.266284
0.257253
0.24892
0.241175
0.233947
0.227185
0.220845
0.214886
0.209277
0.20399
0.199003
0.194294
0.18985
0.185656
0.181702
0.177978
0.174479
0.171201
0.168142
0.165303
0.162689
0.160307
0.158172
0.156304
0.154782
0.153549
0.15271
0.15235
0.152596
0.161508
0.172112
0.184646
0.199423
0.216858
0.237489
0.262019
0.29135
0.326633
0.369322
0.421353
0.484938
0.561851
0.65257
0.754698
0.861329
0.961397
1.04378
1.10287