/*--------------------------------*- C++ -*----------------------------------*\
  =========                 |
  \\      /  F ield         | OpenFOAM: The Open Source CFD Toolbox
   \\    /   O peration     | Website:  https://openfoam.org
    \\  /    A nd           | Version:  8
     \\/     M anipulation  |
\*---------------------------------------------------------------------------*/
FoamFile
{
    version     2.0;
    format      ascii;
    class       volScalarField;
    location    "560/fluid";
    object      T;
}
// * * * * * * * * * * * * * * * * * * * * * * * * * * * * * * * * * * * * * //

dimensions      [0 0 0 1 0 0 0];

internalField   nonuniform List<scalar> 
4000
(
293.004
293.017
293.038
293.075
293.135
293.236
293.401
293.672
294.109
294.808
295.909
297.615
300.207
304.058
309.63
317.453
328.076
341.988
359.541
380.886
405.958
434.508
466.175
500.556
537.262
575.958
616.371
658.29
701.556
746.045
791.66
838.308
885.9
934.332
983.487
1033.28
1083.75
1134.81
1186.37
1238.31
1290.55
1342.96
1395.44
1447.87
1500.13
1552.09
1603.62
1654.58
1704.82
1754.18
1802.48
1849.55
1895.14
1939.01
1980.84
2020.25
2056.78
2089.45
2117.53
2141.19
2158.35
2167.32
2165.58
2056.09
1939.24
1817.27
1692.01
1564.99
1437.52
1310.79
1185.92
1064.02
946.227
833.475
726.982
628.757
541.14
466.447
406.531
362.078
332.006
313.548
303.198
297.849
295.239
294.01
293.447
293.195
293.084
293.036
293.015
293.006
293.003
293.001
293
293
293
293
293
293
293.004
293.017
293.039
293.075
293.136
293.238
293.405
293.677
294.118
294.822
295.928
297.637
300.225
304.057
309.583
317.322
327.808
341.526
358.831
379.888
404.655
432.907
464.304
498.455
534.98
573.542
613.868
655.741
698.998
743.51
789.176
835.901
883.592
932.145
981.441
1031.39
1082.02
1133.26
1185
1237.15
1289.58
1342.21
1394.9
1447.54
1500.02
1552.19
1603.93
1655.09
1705.53
1755.08
1803.57
1850.8
1896.55
1940.56
1982.51
2022.03
2058.62
2091.24
2119.2
2142.57
2159.15
2166.91
2157.62
2046.37
1928.14
1805.01
1678.73
1550.78
1422.47
1294.99
1169.48
1047.08
928.984
816.152
710.001
612.725
526.762
454.42
397.347
355.811
328.237
311.552
302.258
297.438
295.069
293.943
293.422
293.185
293.08
293.034
293.015
293.006
293.003
293.001
293
293
293
293
293
293
293.004
293.017
293.039
293.076
293.137
293.239
293.408
293.682
294.125
294.832
295.941
297.651
300.238
304.059
309.557
317.238
327.629
341.205
358.319
379.142
403.641
431.611
462.726
496.611
532.898
571.257
611.416
653.163
696.331
740.792
786.443
833.19
880.938
929.583
979.004
1029.1
1079.91
1131.35
1183.32
1235.71
1288.41
1341.32
1394.31
1447.27
1500.06
1552.55
1604.6
1656.08
1706.83
1756.68
1805.46
1852.97
1898.98
1943.23
1985.4
2025.1
2061.86
2094.59
2122.64
2146.14
2162.82
2170.84
2141.51
2028.88
1909.32
1784.96
1657.58
1528.69
1399.63
1271.62
1145.85
1023.54
905.915
793.97
689.339
594.319
511.291
442.348
388.752
350.298
325.061
309.893
301.459
297.073
294.908
293.874
293.393
293.174
293.076
293.032
293.014
293.006
293.002
293.001
293
293
293
293
293
293
293.004
293.017
293.039
293.076
293.138
293.24
293.408
293.683
294.126
294.832
295.937
297.64
300.209
304
309.45
317.058
327.346
340.786
357.733
378.361
402.649
430.4
461.302
494.985
531.088
569.285
609.307
650.942
694.026
738.432
784.058
830.811
878.599
927.317
976.845
1027.08
1078.05
1129.69
1181.88
1234.52
1287.51
1340.73
1394.04
1447.33
1500.46
1553.3
1605.72
1657.55
1708.65
1758.85
1807.96
1855.78
1902.08
1946.59
1988.99
2028.89
2065.8
2098.55
2126.56
2149.93
2166.43
2174.16
2120.51
2006.92
1886.33
1760.97
1632.72
1503.15
1373.64
1245.48
1119.9
998.186
881.528
770.987
668.358
575.957
496.056
430.532
380.311
344.807
321.816
308.138
300.578
296.655
294.718
293.79
293.356
293.158
293.069
293.03
293.013
293.005
293.002
293.001
293
293
293
293
293
293
293.004
293.017
293.039
293.076
293.138
293.24
293.408
293.683
294.125
294.828
295.929
297.622
300.177
303.943
309.352
316.901
327.105
340.434
357.244
377.714
401.829
429.404
460.132
493.654
529.609
567.677
607.591
649.138
692.158
736.524
782.135
828.901
876.729
925.518
975.149
1025.51
1076.64
1128.47
1180.88
1233.78
1287.04
1340.55
1394.17
1447.78
1501.26
1554.46
1607.23
1659.43
1710.88
1761.42
1810.85
1858.97
1905.54
1950.28
1992.86
2032.9
2069.86
2102.44
2130.3
2153.5
2169.68
2176.68
2097.82
1983.53
1862.12
1735.97
1607.04
1476.99
1347.28
1219.23
1094.14
973.29
857.836
748.925
648.496
558.826
482.064
419.863
372.822
340.015
319.02
306.637
299.826
296.296
294.552
293.715
293.323
293.144
293.063
293.027
293.012
293.005
293.002
293.001
293
293
293
293
293
293
293.004
293.017
293.039
293.076
293.137
293.239
293.407
293.68
294.12
294.819
295.914
297.597
300.134
303.873
309.243
316.736
326.864
340.099
356.797
377.141
401.123
428.564
459.164
492.566
528.415
566.392
606.231
647.722
690.703
735.051
780.665
827.455
875.333
924.199
973.932
1024.42
1075.71
1127.72
1180.35
1233.48
1286.99
1340.77
1394.69
1448.62
1502.42
1555.95
1609.06
1661.59
1713.37
1764.21
1813.93
1862.3
1909.08
1953.97
1996.65
2036.7
2073.56
2105.91
2133.67
2156.58
2172.31
2178.55
2075.97
1961.44
1839.22
1712.19
1582.55
1452.06
1322.22
1194.4
1069.9
950.024
835.836
728.604
630.352
543.303
469.486
410.338
366.168
335.76
316.526
305.283
299.137
295.963
294.396
293.644
293.292
293.13
293.057
293.025
293.011
293.004
293.002
293.001
293
293
293
293
293
293
293.004
293.017
293.039
293.075
293.137
293.238
293.405
293.677
294.115
294.81
295.898
297.572
300.093
303.808
309.143
316.588
326.654
339.81
356.415
376.658
400.536
427.874
458.376
491.691
527.465
565.381
605.173
646.632
689.598
733.947
779.58
826.411
874.349
923.296
973.136
1023.76
1075.2
1127.39
1180.21
1233.55
1287.3
1341.34
1395.53
1449.75
1503.85
1557.68
1611.1
1663.92
1715.98
1767.09
1817.04
1865.61
1912.52
1957.49
2000.14
2040.05
2076.67
2108.32
2136.17
2158.19
2172.95
2178.29
2066.18
1946.16
1820.56
1691.42
1560.5
1429.33
1299.29
1171.69
1047.78
928.853
815.894
710.284
614.091
529.487
458.379
402.004
360.403
332.108
314.401
304.134
298.552
295.68
294.263
293.583
293.265
293.118
293.052
293.022
293.01
293.004
293.002
293.001
293
293
293
293
293
293
293.004
293.017
293.039
293.075
293.136
293.237
293.403
293.674
294.109
294.801
295.883
297.547
300.054
303.747
309.052
316.455
326.467
339.559
356.091
376.254
400.051
427.311
457.743
490.997
526.722
564.6
604.368
645.815
688.784
733.15
778.816
825.696
873.702
922.737
972.687
1023.44
1075.02
1127.37
1180.37
1233.91
1287.89
1342.16
1396.6
1451.08
1505.45
1559.55
1613.23
1666.31
1718.62
1769.95
1820.09
1868.8
1915.8
1960.78
2003.34
2043.01
2079.08
2109.99
2136.67
2156.69
2168.19
2168.09
2052.69
1930.02
1802.45
1671.94
1540.15
1408.55
1278.46
1151.14
1027.86
909.846
798.053
693.965
599.687
517.325
448.67
394.774
355.438
328.979
312.584
303.152
298.051
295.436
294.148
293.53
293.241
293.107
293.047
293.021
293.009
293.004
293.002
293.001
293
293
293
293
293
293
293.004
293.017
293.038
293.075
293.135
293.236
293.401
293.671
294.104
294.792
295.869
297.524
300.018
303.693
308.972
316.34
326.308
339.348
355.821
375.922
399.658
426.86
457.242
490.455
526.149
564.008
603.767
645.219
688.202
732.597
778.306
825.242
873.322
922.449
972.504
1023.37
1075.09
1127.59
1180.76
1234.49
1288.66
1343.15
1397.82
1452.53
1507.13
1561.46
1615.37
1668.68
1721.19
1772.71
1823.01
1871.83
1918.91
1963.9
2006.39
2045.88
2081.46
2111.89
2137.83
2156.74
2166.57
2155.39
2037.91
1913.66
1784.94
1653.65
1521.4
1389.63
1259.65
1132.72
1010.08
892.928
782.218
679.541
587.018
506.693
440.243
388.547
351.196
326.326
311.052
302.325
297.629
295.231
294.051
293.485
293.22
293.098
293.043
293.019
293.008
293.003
293.001
293.001
293
293
293
293
293
293
293.004
293.017
293.038
293.074
293.135
293.235
293.4
293.668
294.099
294.784
295.856
297.504
299.987
303.646
308.903
316.243
326.175
339.173
355.599
375.653
399.343
426.504
456.852
490.039
525.717
563.569
603.332
644.797
687.805
732.236
777.991
824.989
873.144
922.354
972.504
1023.48
1075.33
1127.97
1181.3
1235.2
1289.55
1344.23
1399.09
1454
1508.81
1563.35
1617.45
1670.94
1723.63
1775.3
1825.74
1874.67
1921.81
1966.83
2009.31
2048.74
2084.18
2114.45
2140.3
2159.27
2169.52
2140.81
2022.55
1897.63
1768.38
1636.73
1504.32
1372.59
1242.84
1116.34
994.35
878.011
768.316
666.941
575.995
497.478
432.98
383.219
347.592
324.085
309.763
301.632
297.275
295.058
293.969
293.447
293.203
293.091
293.04
293.017
293.007
293.003
293.001
293.001
293
293
293
293
293
293
293.004
293.017
293.038
293.074
293.134
293.234
293.398
293.665
294.095
294.778
295.845
297.487
299.96
303.606
308.845
316.162
326.066
339.03
355.421
375.438
399.094
426.227
456.553
489.726
525.397
563.252
603.026
644.512
687.549
732.019
777.825
824.884
873.105
922.396
972.64
1023.73
1075.69
1128.46
1181.93
1235.98
1290.49
1345.33
1400.36
1455.44
1510.42
1565.13
1619.41
1673.06
1725.89
1777.69
1828.23
1877.24
1924.45
1969.49
2011.96
2051.37
2086.71
2116.88
2142.64
2161.56
2171.81
2126.88
2008.13
1882.82
1753.29
1621.5
1489.07
1357.46
1228
1101.94
980.562
864.979
756.208
655.997
566.46
489.551
426.766
378.686
344.547
322.202
308.685
301.053
296.98
294.914
293.901
293.416
293.189
293.084
293.037
293.016
293.007
293.003
293.001
293.001
293
293
293
293
293
293
293.004
293.017
293.038
293.074
293.134
293.233
293.397
293.663
294.092
294.772
295.836
297.472
299.938
303.573
308.798
316.096
325.977
338.916
355.279
375.27
398.902
426.016
456.328
489.494
525.167
563.03
602.82
644.33
687.399
731.909
777.764
824.877
873.165
922.532
972.862
1024.04
1076.11
1129
1182.59
1236.77
1291.42
1346.4
1401.58
1456.81
1511.93
1566.79
1621.19
1674.97
1727.92
1779.82
1830.44
1879.52
1926.75
1971.8
2014.26
2053.6
2088.83
2118.92
2144.6
2163.42
2173.58
2114.47
1995.28
1869.66
1739.94
1608.06
1475.67
1344.23
1215.06
1089.44
968.639
853.72
745.752
646.572
558.274
482.772
421.481
374.855
341.988
320.628
307.787
300.571
296.735
294.794
293.844
293.389
293.177
293.079
293.035
293.015
293.007
293.003
293.001
293
293
293
293
293
293
293
293.004
293.017
293.038
293.074
293.134
293.233
293.396
293.661
294.089
294.767
295.828
297.46
299.92
303.547
308.759
316.042
325.906
338.825
355.168
375.14
398.755
425.856
456.162
489.328
525.006
562.881
602.689
644.223
687.325
731.873
777.771
824.938
873.287
922.723
973.13
1024.4
1076.56
1129.54
1183.24
1237.53
1292.3
1347.4
1402.7
1458.05
1513.3
1568.27
1622.78
1676.66
1729.7
1781.67
1832.35
1881.46
1928.71
1973.75
2016.16
2055.45
2090.58
2120.57
2146.13
2164.83
2174.85
2103.88
1984.22
1858.29
1728.4
1596.47
1464.16
1332.88
1203.99
1078.75
958.431
844.087
736.826
638.54
551.317
477.031
417.024
371.641
339.852
319.321
307.044
300.174
296.533
294.696
293.797
293.368
293.167
293.074
293.033
293.014
293.006
293.003
293.001
293
293
293
293
293
293
293
293.004
293.016
293.038
293.074
293.133
293.232
293.395
293.66
294.086
294.763
295.822
297.45
299.905
303.525
308.729
316
325.851
338.755
355.083
375.041
398.645
425.739
456.042
489.211
524.897
562.785
602.612
644.171
687.301
731.884
777.824
825.039
873.442
922.939
973.412
1024.75
1076.99
1130.06
1183.85
1238.24
1293.1
1348.3
1403.7
1459.15
1514.49
1569.55
1624.16
1678.11
1731.21
1783.24
1833.95
1883.08
1930.32
1975.33
2017.69
2056.92
2091.94
2121.82
2147.27
2165.86
2175.7
2095.01
1974.89
1848.66
1718.62
1586.66
1454.39
1323.26
1194.6
1069.69
949.797
835.946
729.294
631.775
545.47
472.221
413.305
368.971
338.086
318.245
306.434
299.849
296.367
294.615
293.759
293.35
293.159
293.071
293.031
293.014
293.006
293.002
293.001
293
293
293
293
293
293
293
293.004
293.016
293.038
293.073
293.133
293.232
293.394
293.659
294.084
294.76
295.817
297.443
299.894
303.508
308.705
315.968
325.808
338.701
355.018
374.967
398.564
425.654
455.957
489.131
524.826
562.727
602.572
644.153
687.31
731.924
777.901
825.156
873.606
923.154
973.684
1025.08
1077.39
1130.53
1184.39
1238.86
1293.8
1349.08
1404.56
1460.09
1515.5
1570.64
1625.3
1679.31
1732.46
1784.51
1835.24
1884.36
1931.58
1976.56
2018.89
2058.05
2092.96
2122.75
2148.1
2166.59
2176.25
2087.72
1967.14
1840.64
1710.45
1578.44
1446.22
1315.22
1186.77
1062.14
942.61
829.176
723.038
626.165
540.632
468.25
410.244
366.782
336.644
317.369
305.938
299.585
296.233
294.55
293.727
293.335
293.152
293.068
293.03
293.013
293.006
293.002
293.001
293
293
293
293
293
293
293
293.004
293.016
293.038
293.073
293.133
293.232
293.394
293.658
294.083
294.757
295.813
297.437
299.885
303.495
308.686
315.943
325.776
338.661
354.971
374.913
398.506
425.594
455.899
489.077
524.781
562.695
602.556
644.155
687.335
731.976
777.983
825.273
873.761
923.351
973.926
1025.37
1077.74
1130.93
1184.85
1239.38
1294.38
1349.72
1405.26
1460.85
1516.32
1571.5
1626.22
1680.26
1733.43
1785.49
1836.22
1885.33
1932.54
1977.49
2019.76
2058.86
2093.71
2123.47
2148.85
2167.49
2177.44
2081.8
1960.79
1834.05
1703.74
1571.7
1439.53
1308.65
1180.37
1055.99
936.757
823.67
717.956
621.615
536.715
465.043
407.778
365.023
335.489
316.669
305.544
299.375
296.127
294.498
293.703
293.324
293.147
293.066
293.029
293.013
293.005
293.002
293.001
293
293
293
293
293
293
293
293.004
293.016
293.038
293.073
293.133
293.231
293.393
293.657
294.081
294.755
295.81
297.432
299.878
303.485
308.673
315.925
325.752
338.632
354.936
374.874
398.464
425.553
455.86
489.043
524.755
562.679
602.553
644.168
687.367
732.029
778.06
825.377
873.894
923.516
974.125
1025.61
1078.01
1131.25
1185.21
1239.78
1294.83
1350.22
1405.8
1461.43
1516.94
1572.16
1626.89
1680.95
1734.13
1786.2
1836.92
1886.02
1933.19
1978.09
2020.3
2059.34
2094.11
2123.81
2149.16
2167.79
2177.73
2077.14
1955.76
1828.79
1698.38
1566.33
1434.21
1303.44
1175.31
1051.13
932.146
819.338
713.966
618.049
533.652
462.541
405.859
363.658
334.593
316.127
305.238
299.212
296.044
294.457
293.684
293.315
293.143
293.064
293.028
293.012
293.005
293.002
293.001
293
293
293
293
293
293
293
293.004
293.016
293.038
293.073
293.133
293.231
293.393
293.656
294.081
294.754
295.808
297.429
299.873
303.479
308.663
315.912
325.736
338.611
354.912
374.847
398.437
425.526
455.835
489.022
524.74
562.673
602.556
644.183
687.395
732.073
778.122
825.458
873.997
923.642
974.275
1025.79
1078.21
1131.48
1185.48
1240.08
1295.15
1350.57
1406.19
1461.84
1517.37
1572.6
1627.35
1681.42
1734.6
1786.66
1837.36
1886.42
1933.55
1978.39
2020.54
2059.52
2094.21
2123.86
2149.18
2167.85
2177.88
2073.68
1951.95
1824.8
1694.31
1562.26
1430.19
1299.5
1171.51
1047.49
928.705
816.115
711.005
615.41
531.391
460.7
404.452
362.659
333.94
315.731
305.015
299.093
295.984
294.428
293.67
293.308
293.14
293.062
293.027
293.012
293.005
293.002
293.001
293
293
293
293
293
293
293
293.004
293.016
293.038
293.073
293.133
293.231
293.393
293.656
294.08
294.753
295.807
297.427
299.87
303.474
308.657
315.904
325.725
338.599
354.897
374.831
398.42
425.509
455.82
489.01
524.732
562.67
602.561
644.195
687.417
732.105
778.165
825.514
874.066
923.724
974.372
1025.9
1078.34
1131.63
1185.64
1240.26
1295.35
1350.78
1406.41
1462.08
1517.62
1572.86
1627.62
1681.68
1734.85
1786.89
1837.56
1886.58
1933.66
1978.45
2020.55
2059.46
2094.09
2123.7
2149.02
2167.76
2177.94
2071.39
1949.34
1822.03
1691.49
1559.44
1427.43
1296.82
1168.94
1045.04
926.396
813.962
709.036
613.662
529.899
459.491
403.532
362.01
333.517
315.475
304.87
299.016
295.945
294.409
293.661
293.304
293.138
293.062
293.027
293.012
293.005
293.002
293.001
293
293
293
293
293
293
293
293.004
293.016
293.038
293.073
293.133
293.231
293.393
293.656
294.08
294.753
295.806
297.426
299.869
303.472
308.654
315.9
325.72
338.593
354.89
374.823
398.412
425.502
455.813
489.005
524.729
562.67
602.563
644.202
687.428
732.121
778.187
825.541
874.1
923.765
974.418
1025.95
1078.4
1131.69
1185.71
1240.33
1295.44
1350.88
1406.51
1462.19
1517.73
1572.97
1627.72
1681.77
1734.93
1786.95
1837.6
1886.59
1933.64
1978.38
2020.43
2059.3
2093.88
2123.46
2148.79
2167.6
2177.95
2070.25
1947.96
1820.55
1689.97
1557.95
1425.98
1295.43
1167.62
1043.8
925.238
812.893
708.067
612.81
529.178
458.911
403.095
361.704
333.319
315.356
304.803
298.98
295.927
294.4
293.656
293.302
293.137
293.061
293.027
293.012
293.005
293.002
293.001
293
293
293
293
293
293
293
293.004
293.016
293.038
293.073
293.133
293.231
293.393
293.656
294.08
294.753
295.806
297.426
299.869
303.472
308.654
315.9
325.72
338.593
354.891
374.824
398.412
425.502
455.814
489.006
524.73
562.67
602.564
644.203
687.429
732.122
778.187
825.542
874.1
923.765
974.419
1025.95
1078.4
1131.69
1185.71
1240.34
1295.44
1350.88
1406.51
1462.19
1517.73
1572.97
1627.72
1681.77
1734.93
1786.95
1837.6
1886.59
1933.64
1978.38
2020.43
2059.3
2093.88
2123.46
2148.79
2167.6
2177.95
2070.25
1947.96
1820.55
1689.97
1557.95
1425.97
1295.43
1167.62
1043.8
925.237
812.892
708.067
612.809
529.178
458.91
403.094
361.704
333.319
315.356
304.803
298.98
295.927
294.4
293.656
293.302
293.137
293.061
293.027
293.012
293.005
293.002
293.001
293
293
293
293
293
293
293
293.004
293.016
293.038
293.073
293.133
293.231
293.393
293.656
294.08
294.753
295.807
297.427
299.871
303.474
308.657
315.904
325.726
338.599
354.898
374.832
398.421
425.51
455.821
489.012
524.734
562.672
602.563
644.197
687.419
732.107
778.167
825.516
874.068
923.727
974.374
1025.9
1078.34
1131.63
1185.64
1240.26
1295.35
1350.79
1406.42
1462.08
1517.63
1572.87
1627.62
1681.68
1734.85
1786.89
1837.56
1886.59
1933.67
1978.46
2020.55
2059.46
2094.09
2123.7
2149.02
2167.76
2177.94
2071.38
1949.34
1822.03
1691.48
1559.44
1427.42
1296.82
1168.93
1045.04
926.393
813.96
709.033
613.66
529.897
459.489
403.531
362.01
333.517
315.475
304.87
299.016
295.945
294.409
293.661
293.304
293.138
293.062
293.027
293.012
293.005
293.002
293.001
293
293
293
293
293
293
293
293.004
293.016
293.038
293.073
293.133
293.231
293.393
293.656
294.081
294.754
295.808
297.429
299.874
303.479
308.664
315.913
325.736
338.612
354.914
374.849
398.439
425.528
455.837
489.025
524.743
562.676
602.559
644.187
687.399
732.077
778.126
825.462
874.001
923.646
974.279
1025.79
1078.22
1131.49
1185.48
1240.08
1295.16
1350.58
1406.19
1461.84
1517.38
1572.61
1627.36
1681.42
1734.6
1786.66
1837.36
1886.42
1933.55
1978.39
2020.55
2059.52
2094.21
2123.86
2149.19
2167.85
2177.88
2073.67
1951.94
1824.79
1694.3
1562.25
1430.18
1299.5
1171.51
1047.49
928.7
816.111
711.001
615.407
531.388
460.698
404.451
362.658
333.939
315.731
305.014
299.093
295.984
294.428
293.67
293.308
293.14
293.062
293.027
293.012
293.005
293.002
293.001
293
293
293
293
293
293
293
293.004
293.016
293.038
293.073
293.133
293.231
293.393
293.657
294.081
294.756
295.81
297.432
299.878
303.486
308.674
315.926
325.753
338.633
354.938
374.876
398.467
425.556
455.863
489.047
524.759
562.684
602.558
644.173
687.372
732.034
778.065
825.382
873.9
923.522
974.131
1025.62
1078.02
1131.26
1185.22
1239.79
1294.84
1350.22
1405.81
1461.44
1516.95
1572.16
1626.9
1680.96
1734.14
1786.21
1836.93
1886.02
1933.19
1978.09
2020.31
2059.35
2094.11
2123.81
2149.16
2167.79
2177.73
2077.13
1955.74
1828.78
1698.37
1566.32
1434.2
1303.43
1175.31
1051.12
932.138
819.332
713.96
618.045
533.648
462.538
405.857
363.656
334.592
316.126
305.238
299.212
296.044
294.457
293.684
293.315
293.143
293.064
293.028
293.012
293.005
293.002
293.001
293
293
293
293
293
293
293
293.004
293.016
293.038
293.073
293.133
293.232
293.394
293.658
294.083
294.757
295.813
297.437
299.885
303.496
308.687
315.944
325.777
338.663
354.973
374.916
398.509
425.598
455.904
489.082
524.787
562.701
602.562
644.161
687.342
731.983
777.99
825.28
873.769
923.359
973.933
1025.38
1077.74
1130.94
1184.86
1239.38
1294.38
1349.73
1405.27
1460.86
1516.33
1571.51
1626.22
1680.27
1733.43
1785.5
1836.22
1885.34
1932.55
1977.49
2019.76
2058.87
2093.72
2123.47
2148.85
2167.49
2177.44
2081.78
1960.78
1834.03
1703.72
1571.69
1439.52
1308.64
1180.36
1055.98
936.748
823.661
717.949
621.609
536.71
465.039
407.775
365.021
335.488
316.668
305.543
299.374
296.127
294.498
293.703
293.324
293.147
293.066
293.029
293.013
293.005
293.002
293.001
293
293
293
293
293
293
293
293.004
293.016
293.038
293.074
293.133
293.232
293.394
293.659
294.084
294.76
295.817
297.443
299.894
303.509
308.706
315.969
325.81
338.704
355.021
374.97
398.568
425.659
455.963
489.136
524.832
562.734
602.58
644.16
687.318
731.932
777.909
825.165
873.615
923.163
973.693
1025.09
1077.4
1130.54
1184.4
1238.87
1293.81
1349.09
1404.57
1460.1
1515.51
1570.65
1625.31
1679.32
1732.46
1784.52
1835.25
1884.37
1931.59
1976.57
2018.89
2058.06
2092.96
2122.75
2148.1
2166.6
2176.25
2087.7
1967.11
1840.62
1710.43
1578.42
1446.21
1315.21
1186.75
1062.13
942.597
829.166
723.028
626.157
540.625
468.245
410.24
366.779
336.643
317.368
305.938
299.584
296.233
294.549
293.727
293.335
293.152
293.068
293.03
293.013
293.006
293.002
293.001
293
293
293
293
293
293
293
293.004
293.016
293.038
293.074
293.133
293.232
293.395
293.66
294.086
294.763
295.822
297.451
299.906
303.526
308.73
316.002
325.853
338.758
355.086
375.045
398.65
425.745
456.048
489.218
524.904
562.793
602.621
644.179
687.311
731.894
777.834
825.049
873.453
922.95
973.423
1024.76
1077
1130.07
1183.86
1238.25
1293.11
1348.31
1403.71
1459.16
1514.5
1569.57
1624.17
1678.12
1731.22
1783.25
1833.96
1883.09
1930.33
1975.34
2017.7
2056.93
2091.94
2121.82
2147.27
2165.86
2175.71
2094.99
1974.86
1848.64
1718.6
1586.63
1454.37
1323.24
1194.58
1069.67
949.782
835.933
729.283
631.765
545.462
472.214
413.3
368.967
338.084
318.243
306.433
299.848
296.367
294.615
293.758
293.35
293.159
293.071
293.031
293.014
293.006
293.002
293.001
293
293
293
293
293
293
293
293.004
293.017
293.038
293.074
293.134
293.233
293.396
293.661
294.089
294.767
295.829
297.46
299.921
303.547
308.76
316.044
325.909
338.828
355.172
375.145
398.761
425.863
456.169
489.336
525.015
562.89
602.699
644.234
687.336
731.884
777.783
824.95
873.299
922.736
973.143
1024.41
1076.57
1129.56
1183.26
1237.55
1292.31
1347.41
1402.71
1458.07
1513.31
1568.28
1622.8
1676.68
1729.71
1781.68
1832.36
1881.47
1928.73
1973.77
2016.17
2055.45
2090.59
2120.57
2146.14
2164.84
2174.85
2103.85
1984.19
1858.26
1728.37
1596.45
1464.13
1332.86
1203.97
1078.73
958.413
844.071
736.812
638.528
551.306
477.023
417.018
371.636
339.849
319.32
307.043
300.174
296.533
294.695
293.797
293.368
293.167
293.074
293.033
293.014
293.006
293.003
293.001
293
293
293
293
293
293
293
293.004
293.017
293.038
293.074
293.134
293.234
293.397
293.663
294.092
294.772
295.836
297.472
299.939
303.574
308.799
316.098
325.98
338.919
355.283
375.276
398.909
426.023
456.336
489.504
525.177
563.041
602.832
644.341
687.411
731.922
777.777
824.89
873.179
922.546
972.877
1024.06
1076.13
1129.01
1182.61
1236.79
1291.43
1346.41
1401.59
1456.82
1511.95
1566.8
1621.21
1674.99
1727.93
1779.83
1830.45
1879.53
1926.77
1971.82
2014.27
2053.61
2088.84
2118.93
2144.61
2163.43
2173.59
2114.43
1995.24
1869.62
1739.91
1608.03
1475.64
1344.2
1215.03
1089.42
968.617
853.701
745.735
646.557
558.262
482.762
421.473
374.85
341.984
320.626
307.786
300.571
296.735
294.794
293.844
293.389
293.177
293.079
293.035
293.015
293.007
293.003
293.001
293
293
293
293
293
293
293
293.004
293.017
293.038
293.074
293.134
293.234
293.398
293.665
294.095
294.778
295.846
297.487
299.961
303.607
308.847
316.164
326.069
339.034
355.426
375.445
399.102
426.236
456.562
489.736
525.409
563.264
603.039
644.525
687.563
732.033
777.84
824.899
873.121
922.412
972.657
1023.74
1075.71
1128.48
1181.95
1236
1290.51
1345.35
1400.38
1455.46
1510.44
1565.15
1619.42
1673.07
1725.91
1777.71
1828.24
1877.26
1924.46
1969.5
2011.98
2051.38
2086.72
2116.89
2142.65
2161.56
2171.82
2126.84
2008.09
1882.78
1753.26
1621.46
1489.04
1357.43
1227.97
1101.91
980.537
864.956
756.188
655.979
566.445
489.539
426.757
378.679
344.542
322.199
308.683
301.052
296.98
294.914
293.9
293.416
293.189
293.084
293.037
293.016
293.007
293.003
293.001
293.001
293
293
293
293
293
293
293.004
293.017
293.038
293.074
293.135
293.235
293.4
293.668
294.099
294.785
295.857
297.504
299.988
303.647
308.905
316.245
326.179
339.177
355.605
375.66
399.351
426.514
456.862
490.051
525.729
563.583
603.346
644.812
687.821
732.252
778.008
825.007
873.162
922.373
972.523
1023.5
1075.35
1127.99
1181.32
1235.22
1289.57
1344.25
1399.11
1454.02
1508.83
1563.37
1617.47
1670.96
1723.65
1775.32
1825.75
1874.69
1921.83
1966.85
2009.32
2048.76
2084.2
2114.47
2140.31
2159.28
2169.53
2140.77
2022.5
1897.58
1768.34
1636.69
1504.28
1372.55
1242.81
1116.31
994.32
877.984
768.291
666.92
575.977
497.463
432.969
383.211
347.587
324.081
309.761
301.63
297.275
295.058
293.969
293.447
293.203
293.091
293.04
293.017
293.007
293.003
293.001
293.001
293
293
293
293
293
293
293.004
293.017
293.038
293.075
293.135
293.236
293.401
293.671
294.104
294.793
295.869
297.525
300.019
303.694
308.974
316.343
326.312
339.353
355.827
375.93
399.667
426.871
457.254
490.468
526.163
564.023
603.783
645.235
688.22
732.615
778.324
825.262
873.342
922.469
972.525
1023.39
1075.11
1127.61
1180.78
1234.51
1288.69
1343.17
1397.84
1452.55
1507.15
1561.49
1615.4
1668.7
1721.21
1772.73
1823.03
1871.86
1918.93
1963.91
2006.41
2045.9
2081.48
2111.9
2137.84
2156.75
2166.58
2155.35
2037.86
1913.62
1784.9
1653.6
1521.35
1389.59
1259.61
1132.68
1010.04
892.896
782.189
679.516
586.996
506.675
440.23
388.537
351.19
326.321
311.05
302.324
297.629
295.23
294.051
293.485
293.22
293.098
293.043
293.019
293.008
293.003
293.001
293.001
293
293
293
293
293
293
293.004
293.017
293.039
293.075
293.136
293.237
293.403
293.674
294.109
294.801
295.884
297.547
300.055
303.749
309.054
316.458
326.471
339.564
356.097
376.262
400.061
427.323
457.756
491.011
526.737
564.616
604.385
645.834
688.803
733.17
778.837
825.718
873.724
922.76
972.711
1023.46
1075.05
1127.39
1180.39
1233.94
1287.91
1342.19
1396.63
1451.11
1505.48
1559.58
1613.26
1666.34
1718.64
1769.97
1820.11
1868.82
1915.83
1960.8
2003.36
2043.03
2079.09
2110
2136.67
2156.69
2168.18
2168.06
2052.65
1929.97
1802.4
1671.89
1540.1
1408.5
1278.41
1151.1
1027.82
909.81
798.02
693.935
599.662
517.304
448.654
394.761
355.429
328.974
312.581
303.15
298.05
295.436
294.148
293.53
293.241
293.107
293.047
293.021
293.009
293.004
293.002
293.001
293
293
293
293
293
293
293.004
293.017
293.039
293.075
293.137
293.238
293.405
293.677
294.115
294.811
295.899
297.572
300.094
303.81
309.146
316.591
326.658
339.816
356.423
376.667
400.547
427.886
458.39
491.706
527.482
565.399
605.192
646.652
689.619
733.969
779.603
826.434
874.373
923.322
973.162
1023.79
1075.23
1127.42
1180.24
1233.58
1287.33
1341.37
1395.56
1449.78
1503.88
1557.71
1611.13
1663.95
1716.01
1767.12
1817.07
1865.63
1912.55
1957.51
2000.16
2040.07
2076.68
2108.33
2136.18
2158.19
2172.94
2178.26
2066.14
1946.11
1820.51
1691.37
1560.45
1429.28
1299.24
1171.64
1047.74
928.811
815.855
710.249
614.061
529.461
458.359
401.989
360.393
332.101
314.397
304.132
298.551
295.68
294.263
293.583
293.264
293.118
293.052
293.022
293.01
293.004
293.002
293.001
293
293
293
293
293
293
293.004
293.017
293.039
293.076
293.137
293.239
293.407
293.68
294.12
294.82
295.914
297.598
300.135
303.875
309.246
316.739
326.869
340.106
356.805
377.151
401.135
428.578
459.179
492.582
528.433
566.412
606.252
647.744
690.726
735.075
780.69
827.481
875.36
924.226
973.961
1024.45
1075.74
1127.75
1180.38
1233.51
1287.02
1340.8
1394.72
1448.65
1502.45
1555.99
1609.09
1661.62
1713.4
1764.24
1813.96
1862.33
1909.1
1954
1996.68
2036.72
2073.58
2105.93
2133.68
2156.59
2172.32
2178.56
2075.9
1961.37
1839.15
1712.13
1582.49
1452
1322.17
1194.35
1069.85
949.975
835.791
728.563
630.316
543.273
469.462
410.32
366.155
335.752
316.521
305.28
299.135
295.963
294.396
293.644
293.292
293.13
293.057
293.025
293.011
293.004
293.002
293.001
293
293
293
293
293
293
293.004
293.017
293.039
293.076
293.138
293.24
293.408
293.683
294.125
294.828
295.929
297.623
300.178
303.945
309.355
316.905
327.11
340.441
357.252
377.724
401.842
429.419
460.149
493.672
529.629
567.698
607.613
649.162
692.183
736.55
782.163
828.929
876.758
925.548
975.18
1025.54
1076.68
1128.5
1180.91
1233.81
1287.08
1340.58
1394.2
1447.82
1501.3
1554.49
1607.27
1659.46
1710.91
1761.45
1810.88
1859
1905.57
1950.31
1992.89
2032.92
2069.88
2102.46
2130.32
2153.51
2169.69
2176.69
2097.74
1983.46
1862.05
1735.89
1606.96
1476.92
1347.21
1219.17
1094.07
973.233
857.783
748.877
648.454
558.79
482.035
419.841
372.806
340.005
319.015
306.633
299.824
296.296
294.552
293.715
293.323
293.144
293.063
293.027
293.012
293.005
293.002
293.001
293
293
293
293
293
293
293.004
293.017
293.039
293.076
293.138
293.24
293.408
293.683
294.127
294.832
295.938
297.641
300.211
304.002
309.453
317.062
327.352
340.794
357.742
378.372
402.662
430.416
461.319
495.005
531.109
569.308
609.331
650.967
694.053
738.46
784.088
830.842
878.631
927.35
976.879
1027.11
1078.09
1129.72
1181.92
1234.56
1287.55
1340.77
1394.08
1447.37
1500.5
1553.34
1605.76
1657.59
1708.69
1758.89
1808
1855.82
1902.12
1946.63
1989.03
2028.92
2065.83
2098.58
2126.59
2149.96
2166.46
2174.2
2120.43
2006.84
1886.24
1760.89
1632.64
1503.07
1373.56
1245.4
1119.84
998.121
881.468
770.932
668.309
575.914
496.021
430.505
380.292
344.795
321.809
308.134
300.576
296.654
294.717
293.789
293.356
293.158
293.069
293.03
293.013
293.005
293.002
293.001
293
293
293
293
293
293
293.004
293.017
293.039
293.076
293.137
293.239
293.408
293.682
294.126
294.832
295.941
297.652
300.24
304.061
309.56
317.243
327.635
341.213
358.329
379.154
403.656
431.628
462.745
496.632
532.92
571.281
611.442
653.19
696.36
740.823
786.475
833.223
880.973
929.619
979.041
1029.14
1079.95
1131.39
1183.36
1235.75
1288.46
1341.36
1394.36
1447.32
1500.1
1552.59
1604.65
1656.12
1706.87
1756.72
1805.5
1853.01
1899.02
1943.26
1985.43
2025.14
2061.89
2094.61
2122.66
2146.16
2162.84
2170.84
2141.4
2028.78
1909.22
1784.87
1657.49
1528.61
1399.55
1271.54
1145.77
1023.47
905.847
793.907
689.282
594.27
511.25
442.316
388.728
350.283
325.052
309.888
301.456
297.072
294.908
293.874
293.393
293.174
293.076
293.032
293.014
293.006
293.002
293.001
293
293
293
293
293
293
293.004
293.017
293.039
293.075
293.136
293.238
293.405
293.678
294.119
294.822
295.929
297.638
300.227
304.059
309.587
317.327
327.815
341.535
358.842
379.902
404.671
432.925
464.324
498.477
535.004
573.568
613.896
655.77
699.029
743.543
789.21
835.936