/*--------------------------------*- C++ -*----------------------------------*\
  =========                 |
  \\      /  F ield         | OpenFOAM: The Open Source CFD Toolbox
   \\    /   O peration     | Website:  https://openfoam.org
    \\  /    A nd           | Version:  8
     \\/     M anipulation  |
\*---------------------------------------------------------------------------*/
FoamFile
{
    version     2.0;
    format      ascii;
    class       volVectorField;
    location    "560/fluid";
    object      U;
}
// * * * * * * * * * * * * * * * * * * * * * * * * * * * * * * * * * * * * * //

dimensions      [0 1 -1 0 0 0 0];

internalField   nonuniform List<vector> 
4000
(
(0.0999468 -0.00701428 0)
(0.0996571 -0.0208723 0)
(0.0991897 -0.0346156 0)
(0.098544 -0.048282 0)
(0.0977123 -0.0618897 0)
(0.0966775 -0.0754408 0)
(0.0954194 -0.0889252 0)
(0.0939193 -0.102324 0)
(0.0921621 -0.115611 0)
(0.0901395 -0.128758 0)
(0.087853 -0.14174 0)
(0.085318 -0.154536 0)
(0.0825672 -0.167137 0)
(0.0796571 -0.179533 0)
(0.0766643 -0.191757 0)
(0.0736633 -0.20388 0)
(0.0707069 -0.215961 0)
(0.0678155 -0.228041 0)
(0.0649691 -0.240132 0)
(0.0621074 -0.252208 0)
(0.059141 -0.264207 0)
(0.05597 -0.276041 0)
(0.0525035 -0.287604 0)
(0.04868 -0.298773 0)
(0.0444709 -0.309448 0)
(0.0398665 -0.319569 0)
(0.0348704 -0.329075 0)
(0.0294973 -0.337912 0)
(0.0237709 -0.346038 0)
(0.0177203 -0.353419 0)
(0.0113772 -0.360036 0)
(0.00477456 -0.365878 0)
(-0.00205311 -0.370945 0)
(-0.0090706 -0.375245 0)
(-0.0162456 -0.378793 0)
(-0.0235494 -0.381609 0)
(-0.0309558 -0.383719 0)
(-0.03844 -0.385154 0)
(-0.0459783 -0.385946 0)
(-0.0535482 -0.386133 0)
(-0.0611286 -0.385754 0)
(-0.0686989 -0.38485 0)
(-0.0762398 -0.383463 0)
(-0.0837324 -0.381635 0)
(-0.0911581 -0.37941 0)
(-0.0984988 -0.376832 0)
(-0.105736 -0.373945 0)
(-0.112851 -0.370796 0)
(-0.119826 -0.36743 0)
(-0.126642 -0.363894 0)
(-0.133278 -0.360237 0)
(-0.139714 -0.356511 0)
(-0.145927 -0.352767 0)
(-0.151894 -0.349065 0)
(-0.157588 -0.345466 0)
(-0.16298 -0.342042 0)
(-0.168029 -0.33887 0)
(-0.172681 -0.336035 0)
(-0.1769 -0.333633 0)
(-0.18071 -0.331805 0)
(-0.184201 -0.330803 0)
(-0.186913 -0.331 0)
(-0.186856 -0.332379 0)
(-0.182501 -0.333292 0)
(-0.175708 -0.33247 0)
(-0.168419 -0.329993 0)
(-0.160892 -0.32617 0)
(-0.153058 -0.321162 0)
(-0.144932 -0.315038 0)
(-0.136584 -0.307841 0)
(-0.128093 -0.299609 0)
(-0.119547 -0.290382 0)
(-0.111031 -0.280208 0)
(-0.102642 -0.269138 0)
(-0.094523 -0.257235 0)
(-0.0869155 -0.244614 0)
(-0.0801477 -0.231472 0)
(-0.0745925 -0.218091 0)
(-0.0706304 -0.205017 0)
(-0.0685648 -0.192771 0)
(-0.0684432 -0.181608 0)
(-0.0699767 -0.171441 0)
(-0.0726521 -0.161956 0)
(-0.0759269 -0.152813 0)
(-0.0793665 -0.143761 0)
(-0.0826842 -0.134651 0)
(-0.0857055 -0.125386 0)
(-0.0883598 -0.116004 0)
(-0.0906444 -0.106556 0)
(-0.0925838 -0.0970767 0)
(-0.0942121 -0.0875968 0)
(-0.0955651 -0.0781441 0)
(-0.0966774 -0.0687397 0)
(-0.0975809 -0.0593978 0)
(-0.0983046 -0.0501251 0)
(-0.0988742 -0.0409212 0)
(-0.0993117 -0.031779 0)
(-0.0996345 -0.0226849 0)
(-0.0998545 -0.0136179 0)
(-0.099982 -0.00454971 0)
(0.0999998 -0.00658594 0)
(0.0997979 -0.0196986 0)
(0.0993808 -0.032725 0)
(0.0987249 -0.0456481 0)
(0.0978319 -0.0584501 0)
(0.0966976 -0.0711088 0)
(0.0953129 -0.0835972 0)
(0.0936699 -0.0958849 0)
(0.0917667 -0.10794 0)
(0.0896103 -0.119735 0)
(0.0872197 -0.131249 0)
(0.0846285 -0.14248 0)
(0.0818862 -0.153454 0)
(0.079058 -0.164248 0)
(0.0762166 -0.174931 0)
(0.073429 -0.185557 0)
(0.0707426 -0.196198 0)
(0.0681717 -0.206918 0)
(0.0656888 -0.217757 0)
(0.0632245 -0.228713 0)
(0.0606779 -0.239741 0)
(0.0579355 -0.250762 0)
(0.0548916 -0.261681 0)
(0.0514629 -0.272413 0)
(0.0475982 -0.282856 0)
(0.0432771 -0.292877 0)
(0.0384995 -0.302376 0)
(0.0332825 -0.311276 0)
(0.0276549 -0.319522 0)
(0.0216522 -0.327076 0)
(0.015313 -0.333913 0)
(0.00867652 -0.340022 0)
(0.00178119 -0.3454 0)
(-0.00533546 -0.350053 0)
(-0.0126376 -0.353996 0)
(-0.0200924 -0.357248 0)
(-0.02767 -0.359835 0)
(-0.035343 -0.361784 0)
(-0.043086 -0.363126 0)
(-0.0508752 -0.363896 0)
(-0.0586881 -0.36413 0)
(-0.0665035 -0.363864 0)
(-0.0743016 -0.363139 0)
(-0.0820634 -0.361993 0)
(-0.0897702 -0.360467 0)
(-0.0974037 -0.358603 0)
(-0.104946 -0.356442 0)
(-0.11238 -0.354028 0)
(-0.119688 -0.351403 0)
(-0.126853 -0.348611 0)
(-0.133856 -0.345697 0)
(-0.14068 -0.342709 0)
(-0.147306 -0.339692 0)
(-0.153714 -0.336698 0)
(-0.159885 -0.333778 0)
(-0.165797 -0.330984 0)
(-0.171414 -0.328372 0)
(-0.17669 -0.325993 0)
(-0.181611 -0.323899 0)
(-0.186251 -0.322142 0)
(-0.190741 -0.320778 0)
(-0.194404 -0.319806 0)
(-0.194676 -0.318792 0)
(-0.189932 -0.317063 0)
(-0.182567 -0.314426 0)
(-0.174835 -0.310768 0)
(-0.166976 -0.306049 0)
(-0.158848 -0.300251 0)
(-0.150423 -0.293365 0)
(-0.141748 -0.285388 0)
(-0.132884 -0.276327 0)
(-0.123896 -0.266202 0)
(-0.114847 -0.255057 0)
(-0.10581 -0.242977 0)
(-0.09693 -0.230116 0)
(-0.0884846 -0.216756 0)
(-0.0808685 -0.20335 0)
(-0.0745491 -0.19053 0)
(-0.0699907 -0.178745 0)
(-0.0674954 -0.16826 0)
(-0.0670461 -0.159085 0)
(-0.0682893 -0.150941 0)
(-0.0706915 -0.143412 0)
(-0.0737299 -0.136125 0)
(-0.0770011 -0.128839 0)
(-0.0802427 -0.121443 0)
(-0.0833103 -0.113928 0)
(-0.0861184 -0.106211 0)
(-0.0886308 -0.0982641 0)
(-0.0908416 -0.090117 0)
(-0.092759 -0.0818098 0)
(-0.0943992 -0.0733814 0)
(-0.0957829 -0.0648655 0)
(-0.0969325 -0.0562898 0)
(-0.0978702 -0.0476756 0)
(-0.0986173 -0.0390377 0)
(-0.0991914 -0.0303851 0)
(-0.0996048 -0.0217217 0)
(-0.0998654 -0.0130462 0)
(-0.0999951 -0.00435428 0)
(0.0999792 -0.0063123 0)
(0.09972 -0.0188681 0)
(0.0992124 -0.0313353 0)
(0.0984378 -0.0436942 0)
(0.0974001 -0.0559232 0)
(0.0961003 -0.0679993 0)
(0.0945379 -0.0798985 0)
(0.0927156 -0.0915966 0)
(0.0906434 -0.103071 0)
(0.0883409 -0.114304 0)
(0.0858395 -0.125285 0)
(0.0831845 -0.136014 0)
(0.0804336 -0.146506 0)
(0.0776517 -0.156794 0)
(0.0749039 -0.166929 0)
(0.0722516 -0.176982 0)
(0.0697406 -0.18703 0)
(0.0673851 -0.197142 0)
(0.0651575 -0.207363 0)
(0.0629874 -0.217696 0)
(0.0607726 -0.228109 0)
(0.0583964 -0.238531 0)
(0.0557464 -0.248869 0)
(0.0527274 -0.259022 0)
(0.0492683 -0.268892 0)
(0.0453292 -0.278387 0)
(0.0408999 -0.287429 0)
(0.0359916 -0.295951 0)
(0.0306302 -0.303899 0)
(0.0248498 -0.311232 0)
(0.0186888 -0.317922 0)
(0.0121872 -0.323952 0)
(0.00538436 -0.329314 0)
(-0.00168099 -0.334009 0)
(-0.00897175 -0.338046 0)
(-0.0164537 -0.34144 0)
(-0.0240954 -0.344211 0)
(-0.0318685 -0.346384 0)
(-0.0397465 -0.347985 0)
(-0.0477047 -0.349046 0)
(-0.0557202 -0.349597 0)
(-0.0637715 -0.349674 0)
(-0.0718384 -0.349312 0)
(-0.0799015 -0.348548 0)
(-0.0879421 -0.347417 0)
(-0.0959429 -0.34596 0)
(-0.103887 -0.344213 0)
(-0.111759 -0.342215 0)
(-0.119542 -0.340007 0)
(-0.127222 -0.337628 0)
(-0.134784 -0.335117 0)
(-0.142214 -0.332515 0)
(-0.149499 -0.329861 0)
(-0.156624 -0.327196 0)
(-0.163576 -0.324559 0)
(-0.170339 -0.321987 0)
(-0.176883 -0.319513 0)
(-0.183165 -0.317165 0)
(-0.18919 -0.314963 0)
(-0.195056 -0.312928 0)
(-0.200795 -0.311073 0)
(-0.205151 -0.309337 0)
(-0.205118 -0.3071 0)
(-0.199658 -0.30398 0)
(-0.191727 -0.300135 0)
(-0.183394 -0.295501 0)
(-0.174872 -0.289983 0)
(-0.166042 -0.283521 0)
(-0.156889 -0.276093 0)
(-0.147454 -0.267697 0)
(-0.13779 -0.258359 0)
(-0.127957 -0.248132 0)
(-0.118014 -0.237108 0)
(-0.108047 -0.225425 0)
(-0.0982474 -0.213289 0)
(-0.0889573 -0.200992 0)
(-0.080643 -0.188906 0)
(-0.073838 -0.177439 0)
(-0.069015 -0.166963 0)
(-0.066405 -0.157684 0)
(-0.0658879 -0.149544 0)
(-0.0670437 -0.14225 0)
(-0.0693268 -0.135423 0)
(-0.0722334 -0.128737 0)
(-0.0753843 -0.121983 0)
(-0.078537 -0.115055 0)
(-0.0815598 -0.10792 0)
(-0.0843863 -0.100588 0)
(-0.0869792 -0.0930797 0)
(-0.0893199 -0.0854142 0)
(-0.0914035 -0.0776129 0)
(-0.0932334 -0.0696971 0)
(-0.0948179 -0.0616868 0)
(-0.096168 -0.0536001 0)
(-0.0972963 -0.0454528 0)
(-0.0982156 -0.0372577 0)
(-0.098937 -0.0290249 0)
(-0.0994672 -0.0207621 0)
(-0.0998105 -0.0124743 0)
(-0.0999871 -0.00416433 0)
(0.0999838 -0.00596467 0)
(0.0997197 -0.0178291 0)
(0.0991937 -0.0296006 0)
(0.0983867 -0.041253 0)
(0.0973074 -0.0527601 0)
(0.0959623 -0.0640955 0)
(0.0943568 -0.0752332 0)
(0.0924992 -0.0861485 0)
(0.0904041 -0.0968197 0)
(0.0880939 -0.107231 0)
(0.085601 -0.117374 0)
(0.0829692 -0.127254 0)
(0.0802541 -0.136894 0)
(0.0775214 -0.146335 0)
(0.0748409 -0.155637 0)
(0.0722776 -0.164876 0)
(0.0698772 -0.174132 0)
(0.0676528 -0.183476 0)
(0.0655749 -0.192957 0)
(0.063571 -0.202585 0)
(0.0615357 -0.212332 0)
(0.0593488 -0.222134 0)
(0.056894 -0.231908 0)
(0.0540742 -0.241556 0)
(0.0508197 -0.250983 0)
(0.0470893 -0.260097 0)
(0.0428676 -0.268817 0)
(0.0381595 -0.277076 0)
(0.0329846 -0.284822 0)
(0.0273716 -0.292011 0)
(0.0213543 -0.298616 0)
(0.0149689 -0.304617 0)
(0.00825222 -0.310004 0)
(0.00124033 -0.314777 0)
(-0.00603088 -0.318942 0)
(-0.013528 -0.32251 0)
(-0.0212207 -0.325497 0)
(-0.029081 -0.327925 0)
(-0.0370829 -0.329818 0)
(-0.0452024 -0.331201 0)
(-0.0534172 -0.332104 0)
(-0.061706 -0.332557 0)
(-0.0700486 -0.33259 0)
(-0.0784263 -0.332236 0)
(-0.0868214 -0.331529 0)
(-0.0952176 -0.330501 0)
(-0.103599 -0.329187 0)
(-0.111951 -0.32762 0)
(-0.120258 -0.325834 0)
(-0.128508 -0.323862 0)
(-0.136687 -0.321738 0)
(-0.144782 -0.319494 0)
(-0.152781 -0.317159 0)
(-0.160671 -0.314763 0)
(-0.168438 -0.312331 0)
(-0.176064 -0.309887 0)
(-0.18351 -0.307445 0)
(-0.190724 -0.305012 0)
(-0.197718 -0.302588 0)
(-0.204602 -0.300179 0)
(-0.211252 -0.297786 0)
(-0.215715 -0.295338 0)
(-0.214853 -0.29209 0)
(-0.208553 -0.287915 0)
(-0.200128 -0.283092 0)
(-0.191238 -0.277601 0)
(-0.182021 -0.271353 0)
(-0.172407 -0.264288 0)
(-0.162419 -0.256388 0)
(-0.152119 -0.247659 0)
(-0.141579 -0.238135 0)
(-0.130877 -0.227884 0)
(-0.120097 -0.21701 0)
(-0.109366 -0.20566 0)
(-0.0989389 -0.194048 0)
(-0.0892119 -0.182461 0)
(-0.0806765 -0.171253 0)
(-0.0738383 -0.160802 0)
(-0.0690934 -0.151418 0)
(-0.0665817 -0.143229 0)
(-0.0661129 -0.136119 0)
(-0.0672414 -0.129778 0)
(-0.069436 -0.123841 0)
(-0.0722251 -0.118015 0)
(-0.0752588 -0.11211 0)
(-0.0783107 -0.106027 0)
(-0.0812503 -0.0997286 0)
(-0.0840099 -0.0932059 0)
(-0.0865571 -0.0864693 0)
(-0.0888781 -0.0795381 0)
(-0.0909685 -0.0724344 0)
(-0.0928289 -0.0651808 0)
(-0.0944625 -0.0577986 0)
(-0.0958744 -0.0503076 0)
(-0.0970706 -0.0427252 0)
(-0.0980574 -0.0350672 0)
(-0.0988398 -0.0273473 0)
(-0.099419 -0.0195775 0)
(-0.0997947 -0.0117686 0)
(-0.0999873 -0.0039296 0)
(0.0999809 -0.00561534 0)
(0.0997014 -0.0167836 0)
(0.0991496 -0.027862 0)
(0.0983075 -0.0388238 0)
(0.097186 -0.0496429 0)
(0.0957946 -0.0602936 0)
(0.0941414 -0.0707515 0)
(0.0922383 -0.0809941 0)
(0.090103 -0.0910027 0)
(0.0877616 -0.100764 0)
(0.0852495 -0.110272 0)
(0.0826137 -0.119532 0)
(0.0799123 -0.128567 0)
(0.0772127 -0.137411 0)
(0.0745857 -0.146122 0)
(0.0720957 -0.154767 0)
(0.0697878 -0.163422 0)
(0.0676743 -0.172153 0)
(0.0657249 -0.181008 0)
(0.0638665 -0.19 0)
(0.0619926 -0.199108 0)
(0.0599803 -0.208279 0)
(0.0577101 -0.217438 0)
(0.0550806 -0.2265 0)
(0.0520174 -0.235376 0)
(0.048475 -0.243983 0)
(0.0444336 -0.252248 0)
(0.0398942 -0.260107 0)
(0.0348728 -0.267508 0)
(0.0293949 -0.274413 0)
(0.0234917 -0.280792 0)
(0.0171967 -0.286624 0)
(0.0105442 -0.291899 0)
(0.00356713 -0.296613 0)
(-0.00369773 -0.30077 0)
(-0.0112186 -0.304377 0)
(-0.0189689 -0.30745 0)
(-0.0269209 -0.310004 0)
(-0.0350498 -0.31206 0)
(-0.0433325 -0.313641 0)
(-0.0517471 -0.314771 0)
(-0.060273 -0.315476 0)
(-0.0688911 -0.315783 0)
(-0.0775837 -0.31572 0)
(-0.0863341 -0.315316 0)
(-0.0951264 -0.314599 0)
(-0.103945 -0.313598 0)
(-0.112775 -0.312342 0)
(-0.121603 -0.310858 0)
(-0.130415 -0.309174 0)
(-0.139197 -0.307316 0)
(-0.147934 -0.305308 0)
(-0.156613 -0.303172 0)
(-0.165216 -0.300929 0)
(-0.173726 -0.298594 0)
(-0.182115 -0.296179 0)
(-0.190328 -0.293687 0)
(-0.198302 -0.291115 0)
(-0.206062 -0.288455 0)
(-0.21373 -0.285707 0)
(-0.220987 -0.282864 0)
(-0.225151 -0.279865 0)
(-0.223188 -0.275898 0)
(-0.216055 -0.271071 0)
(-0.207213 -0.26567 0)
(-0.197832 -0.259679 0)
(-0.187972 -0.253026 0)
(-0.177624 -0.24567 0)
(-0.166858 -0.23761 0)
(-0.155766 -0.228868 0)
(-0.144443 -0.219493 0)
(-0.13299 -0.209564 0)
(-0.121511 -0.199192 0)
(-0.110174 -0.188531 0)
(-0.0992765 -0.177787 0)
(-0.0892453 -0.167227 0)
(-0.0805754 -0.157158 0)
(-0.0737456 -0.147883 0)
(-0.0690934 -0.139621 0)
(-0.0666837 -0.132417 0)
(-0.0662668 -0.126111 0)
(-0.0673756 -0.120409 0)
(-0.0694919 -0.115001 0)
(-0.0721729 -0.109646 0)
(-0.075097 -0.104195 0)
(-0.078057 -0.0985733 0)
(-0.0809318 -0.0927498 0)
(-0.0836544 -0.0867214 0)
(-0.0861894 -0.0804967 0)
(-0.0885183 -0.0740905 0)
(-0.0906324 -0.0675198 0)
(-0.0925283 -0.0608023 0)
(-0.0942057 -0.0539552 0)
(-0.0956659 -0.0469951 0)
(-0.0969113 -0.0399377 0)
(-0.097945 -0.0327978 0)
(-0.0987691 -0.0255891 0)
(-0.0993818 -0.0183249 0)
(-0.0997808 -0.0110177 0)
(-0.0999861 -0.0036791 0)
(0.0999814 -0.00525073 0)
(0.0996989 -0.0156944 0)
(0.09914 -0.0260521 0)
(0.098287 -0.0362966 0)
(0.0971525 -0.0464016 0)
(0.0957479 -0.0563416 0)
(0.0940833 -0.0660929 0)
(0.0921723 -0.0756342 0)
(0.0900346 -0.0849477 0)
(0.0876974 -0.0940214 0)
(0.0851971 -0.102851 0)
(0.0825809 -0.111443 0)
(0.079907 -0.11982 0)
(0.0772423 -0.128017 0)
(0.0746572 -0.136089 0)
(0.072216 -0.144104 0)
(0.0699641 -0.152134 0)
(0.0679145 -0.160246 0)
(0.0660379 -0.168484 0)
(0.0642624 -0.176865 0)
(0.0624823 -0.185371 0)
(0.0605746 -0.193953 0)
(0.0584186 -0.202543 0)
(0.0559107 -0.21106 0)
(0.0529736 -0.219422 0)
(0.0495584 -0.227553 0)
(0.0456414 -0.235383 0)
(0.0412202 -0.242852 0)
(0.0363069 -0.249911 0)
(0.0309237 -0.256523 0)
(0.0250987 -0.262658 0)
(0.018863 -0.268297 0)
(0.0122484 -0.273427 0)
(0.00528692 -0.278044 0)
(-0.0019894 -0.282149 0)
(-0.00955036 -0.285749 0)
(-0.0173686 -0.288855 0)
(-0.0254188 -0.291481 0)
(-0.0336772 -0.293643 0)
(-0.0421216 -0.295362 0)
(-0.0507309 -0.296657 0)
(-0.059486 -0.29755 0)
(-0.0683686 -0.298066 0)
(-0.0773616 -0.298228 0)
(-0.0864484 -0.298059 0)
(-0.0956129 -0.297585 0)
(-0.10484 -0.296829 0)
(-0.114114 -0.295814 0)
(-0.12342 -0.294564 0)
(-0.132742 -0.293099 0)
(-0.142065 -0.291441 0)
(-0.151371 -0.289607 0)
(-0.160641 -0.287614 0)
(-0.169852 -0.285475 0)
(-0.178979 -0.2832 0)
(-0.187981 -0.280792 0)
(-0.196787 -0.278251 0)
(-0.205326 -0.275565 0)
(-0.213634 -0.272725 0)
(-0.221828 -0.26972 0)
(-0.229393 -0.266522 0)
(-0.23299 -0.263096 0)
(-0.229902 -0.258728 0)
(-0.2221 -0.253613 0)
(-0.212896 -0.247924 0)
(-0.203045 -0.241665 0)
(-0.192582 -0.234809 0)
(-0.181567 -0.227349 0)
(-0.170113 -0.219298 0)
(-0.15834 -0.210693 0)
(-0.146364 -0.201589 0)
(-0.134303 -0.19207 0)
(-0.122284 -0.182242 0)
(-0.11051 -0.17225 0)
(-0.0993148 -0.162287 0)
(-0.0891459 -0.15259 0)
(-0.0804943 -0.143431 0)
(-0.0738064 -0.135064 0)
(-0.0693586 -0.127662 0)
(-0.0671432 -0.121234 0)
(-0.0668554 -0.11561 0)
(-0.0680086 -0.110511 0)
(-0.0700959 -0.105656 0)
(-0.0726993 -0.100832 0)
(-0.0755221 -0.0959082 0)
(-0.078376 -0.0908162 0)
(-0.0811517 -0.0855291 0)
(-0.083789 -0.0800424 0)
(-0.0862554 -0.0743633 0)
(-0.088533 -0.0685043 0)
(-0.0906123 -0.0624806 0)
(-0.0924878 -0.0563083 0)
(-0.0941566 -0.0500034 0)
(-0.0956172 -0.0435815 0)
(-0.0968693 -0.037058 0)
(-0.0979133 -0.0304475 0)
(-0.0987485 -0.0237645 0)
(-0.0993712 -0.0170229 0)
(-0.0997772 -0.0102364 0)
(-0.0999861 -0.00341831 0)
(0.0999809 -0.00488449 0)
(0.0996956 -0.0145999 0)
(0.0991316 -0.024235 0)
(0.098272 -0.0337636 0)
(0.0971298 -0.0431605 0)
(0.0957175 -0.0524017 0)
(0.0940462 -0.061465 0)
(0.0921308 -0.0703307 0)
(0.0899918 -0.0789825 0)
(0.0876575 -0.0874098 0)
(0.0851653 -0.0956092 0)
(0.0825631 -0.103588 0)
(0.0799094 -0.111365 0)
(0.0772715 -0.118976 0)
(0.07472 -0.12647 0)
(0.0723192 -0.133911 0)
(0.0701145 -0.141366 0)
(0.0681191 -0.148897 0)
(0.0663042 -0.156547 0)
(0.0645981 -0.164333 0)
(0.0628948 -0.172241 0)
(0.061071 -0.180228 0)
(0.0590047 -0.188233 0)
(0.0565903 -0.196183 0)
(0.0537483 -0.204004 0)
(0.0504268 -0.211624 0)
(0.0465997 -0.218979 0)
(0.0422615 -0.226014 0)
(0.0374218 -0.232683 0)
(0.0321003 -0.238949 0)
(0.0263229 -0.244785 0)
(0.0201182 -0.250171 0)
(0.0135163 -0.255095 0)
(0.00654733 -0.259551 0)
(-0.000758693 -0.263539 0)
(-0.00837314 -0.267063 0)
(-0.0162696 -0.270131 0)
(-0.0244238 -0.272757 0)
(-0.032813 -0.274952 0)
(-0.0414161 -0.276734 0)
(-0.0502133 -0.278119 0)
(-0.0591859 -0.279127 0)
(-0.0683162 -0.279777 0)
(-0.0775868 -0.28009 0)
(-0.0869813 -0.280084 0)
(-0.0964833 -0.27978 0)
(-0.106077 -0.279199 0)
(-0.115745 -0.278358 0)
(-0.125471 -0.277277 0)
(-0.135238 -0.275972 0)
(-0.145026 -0.274459 0)
(-0.154814 -0.272753 0)
(-0.164577 -0.270865 0)
(-0.174288 -0.268805 0)
(-0.18391 -0.266579 0)
(-0.193391 -0.26419 0)
(-0.202643 -0.261634 0)
(-0.211589 -0.258899 0)
(-0.220257 -0.255974 0)
(-0.228726 -0.252835 0)
(-0.236348 -0.24943 0)
(-0.239483 -0.24573 0)
(-0.235549 -0.241197 0)
(-0.227027 -0.236004 0)
(-0.217255 -0.230224 0)
(-0.206878 -0.223893 0)
(-0.195882 -0.217027 0)
(-0.184325 -0.209645 0)
(-0.172331 -0.201776 0)
(-0.160034 -0.193463 0)
(-0.147566 -0.184767 0)
(-0.135057 -0.175769 0)
(-0.122654 -0.166572 0)
(-0.110588 -0.15731 0)
(-0.0992228 -0.148161 0)
(-0.0890148 -0.13934 0)
(-0.0804453 -0.13108 0)
(-0.0739265 -0.123593 0)
(-0.0696791 -0.117001 0)
(-0.0676355 -0.111277 0)
(-0.0674514 -0.106238 0)
(-0.0686326 -0.101629 0)
(-0.0706877 -0.0972051 0)
(-0.0732222 -0.0927872 0)
(-0.0759602 -0.0882677 0)
(-0.0787278 -0.0835916 0)
(-0.0814239 -0.078737 0)
(-0.0839921 -0.0737004 0)
(-0.086401 -0.0684874 0)
(-0.0886327 -0.0631086 0)
(-0.0906766 -0.0575766 0)
(-0.0925261 -0.0519049 0)
(-0.0941769 -0.0461073 0)
(-0.095626 -0.0401976 0)
(-0.0968715 -0.0341898 0)
(-0.0979125 -0.0280975 0)
(-0.0987469 -0.0219342 0)
(-0.09937 -0.0157138 0)
(-0.0997767 -0.00944975 0)
(-0.099986 -0.0031556 0)
(0.0999811 -0.00451604 0)
(0.0996957 -0.0134992 0)
(0.0991315 -0.0224079 0)
(0.0982717 -0.0312175 0)
(0.0971297 -0.0399041 0)
(0.0957185 -0.0484453 0)
(0.0940499 -0.0568201 0)
(0.0921393 -0.0650102 0)
(0.0900077 -0.0730009 0)
(0.087684 -0.0807823 0)
(0.0852056 -0.0883517 0)
(0.0826205 -0.0957158 0)
(0.0799872 -0.102893 0)
(0.0773728 -0.109917 0)
(0.0748476 -0.116834 0)
(0.0724759 -0.123703 0)
(0.0703035 -0.130588 0)
(0.068344 -0.137545 0)
(0.0665693 -0.144618 0)
(0.0649087 -0.151823 0)
(0.0632565 -0.159147 0)
(0.0614893 -0.166553 0)
(0.0594841 -0.173985 0)
(0.057134 -0.181376 0)
(0.0543573 -0.188658 0)
(0.0511001 -0.195765 0)
(0.0473338 -0.202639 0)
(0.0430506 -0.209227 0)
(0.0382578 -0.215486 0)
(0.032973 -0.221383 0)
(0.0272199 -0.226891 0)
(0.0210257 -0.231992 0)
(0.0144185 -0.236672 0)
(0.00742683 -0.240926 0)
(7.92983e-05 -0.244752 0)
(-0.00759657 -0.248153 0)
(-0.0155752 -0.251135 0)
(-0.0238335 -0.253708 0)
(-0.0323497 -0.255884 0)
(-0.0411038 -0.257675 0)
(-0.0500762 -0.259096 0)
(-0.0592485 -0.260163 0)
(-0.068603 -0.260892 0)
(-0.0781223 -0.2613 0)
(-0.0877895 -0.261403 0)
(-0.0975875 -0.261218 0)
(-0.107499 -0.260761 0)
(-0.117506 -0.260048 0)
(-0.12759 -0.259092 0)
(-0.137731 -0.257907 0)
(-0.147907 -0.256507 0)
(-0.158092 -0.254901 0)
(-0.168257 -0.253099 0)
(-0.17837 -0.251107 0)
(-0.188386 -0.248931 0)
(-0.198242 -0.246571 0)
(-0.207837 -0.244022 0)
(-0.217085 -0.241278 0)
(-0.22599 -0.238331 0)
(-0.234572 -0.235165 0)
(-0.242024 -0.231738 0)
(-0.244617 -0.227936 0)
(-0.239929 -0.223321 0)
(-0.230783 -0.218116 0)
(-0.220494 -0.21239 0)
(-0.209648 -0.20617 0)
(-0.198199 -0.199479 0)
(-0.1862 -0.192346 0)
(-0.17378 -0.184806 0)
(-0.161079 -0.176906 0)
(-0.148239 -0.168709 0)
(-0.1354 -0.160292 0)
(-0.122725 -0.15175 0)
(-0.110471 -0.14321 0)
(-0.0990235 -0.134832 0)
(-0.0888463 -0.126808 0)
(-0.0804084 -0.119345 0)
(-0.0740895 -0.112619 0)
(-0.0700601 -0.106719 0)
(-0.0682006 -0.101596 0)
(-0.0681332 -0.0970734 0)
(-0.0693577 -0.0929135 0)
(-0.0713964 -0.0889009 0)
(-0.0738751 -0.0848815 0)
(-0.0765366 -0.0807631 0)
(-0.0792206 -0.0764988 0)
(-0.0818347 -0.0720702 0)
(-0.0843269 -0.0674741 0)
(-0.0866683 -0.0627154 0)
(-0.0888416 -0.0578032 0)
(-0.0908363 -0.0527485 0)
(-0.0926453 -0.0475631 0)
(-0.0942634 -0.0422596 0)
(-0.0956867 -0.0368505 0)
(-0.0969124 -0.0313484 0)
(-0.0979384 -0.0257661 0)
(-0.0987619 -0.0201165 0)
(-0.0993774 -0.0144125 0)
(-0.0997793 -0.00866744 0)
(-0.0999862 -0.0028943 0)
(0.0999811 -0.00414835 0)
(0.0996962 -0.0124005 0)
(0.099133 -0.0205845 0)
(0.0982748 -0.0286775 0)
(0.0971353 -0.0366574 0)
(0.0957277 -0.0445034 0)
(0.094064 -0.0521962 0)
(0.0921598 -0.0597191 0)
(0.0900367 -0.0670586 0)
(0.0877233 -0.0742058 0)
(0.0852575 -0.0811584 0)
(0.0826873 -0.0879228 0)
(0.080071 -0.0945162 0)
(0.0774756 -0.100969 0)
(0.0749714 -0.107324 0)
(0.0726228 -0.113636 0)
(0.0704757 -0.119963 0)
(0.0685441 -0.12636 0)
(0.0668005 -0.132864 0)
(0.0651745 -0.139493 0)
(0.0635606 -0.146236 0)
(0.0618352 -0.15306 0)
(0.0598743 -0.159914 0)
(0.05757 -0.166739 0)
(0.0548388 -0.173471 0)
(0.0516251 -0.180051 0)
(0.0478985 -0.186424 0)
(0.0436493 -0.192543 0)
(0.0388831 -0.198369 0)
(0.0336159 -0.203869 0)
(0.0278699 -0.209018 0)
(0.0216705 -0.213798 0)
(0.0150448 -0.218198 0)
(0.00802 -0.222211 0)
(0.000623738 -0.225833 0)
(-0.0071174 -0.229068 0)
(-0.0151789 -0.231919 0)
(-0.0235384 -0.234394 0)
(-0.0321751 -0.236503 0)
(-0.0410689 -0.238256 0)
(-0.0502006 -0.239666 0)
(-0.0595519 -0.240746 0)
(-0.0691049 -0.241508 0)
(-0.0788417 -0.241968 0)
(-0.0887448 -0.242137 0)
(-0.0987961 -0.242031 0)
(-0.108977 -0.241661 0)
(-0.119268 -0.241041 0)
(-0.129648 -0.240181 0)
(-0.140094 -0.239094 0)
(-0.150582 -0.237788 0)
(-0.161082 -0.236272 0)
(-0.171561 -0.234551 0)
(-0.18198 -0.232633 0)
(-0.192291 -0.230518 0)
(-0.202419 -0.228209 0)
(-0.212257 -0.225702 0)
(-0.221722 -0.222992 0)
(-0.230826 -0.220085 0)
(-0.239547 -0.21699 0)
(-0.246756 -0.213699 0)
(-0.24867 -0.209908 0)
(-0.243208 -0.205305 0)
(-0.233573 -0.200184 0)
(-0.222884 -0.194625 0)
(-0.211653 -0.188643 0)
(-0.19983 -0.182253 0)
(-0.187471 -0.175487 0)
(-0.174711 -0.16838 0)
(-0.161696 -0.160981 0)
(-0.148575 -0.153351 0)
(-0.135493 -0.14556 0)
(-0.122627 -0.137701 0)
(-0.110259 -0.129887 0)
(-0.0987884 -0.122267 0)
(-0.0886816 -0.115012 0)
(-0.0803944 -0.108301 0)
(-0.0742755 -0.102282 0)
(-0.0704508 -0.0970171 0)
(-0.068757 -0.092441 0)
(-0.0687914 -0.0883812 0)
(-0.0700523 -0.0846237 0)
(-0.0720759 -0.0809803 0)
(-0.0745065 -0.0773199 0)
(-0.0771023 -0.073565 0)
(-0.0797144 -0.069677 0)
(-0.0822568 -0.0656405 0)
(-0.0846815 -0.0614533 0)
(-0.0869611 -0.0571196 0)
(-0.0890792 -0.0526472 0)
(-0.0910255 -0.0480456 0)
(-0.0927925 -0.0433251 0)
(-0.0943749 -0.0384966 0)
(-0.0957684 -0.0335712 0)
(-0.0969695 -0.0285604 0)
(-0.0979758 -0.0234757 0)
(-0.0987841 -0.0183289 0)
(-0.0993885 -0.013132 0)
(-0.0997832 -0.00789732 0)
(-0.0999864 -0.00263705 0)
(0.0999812 -0.00378168 0)
(0.0996973 -0.0113048 0)
(0.0991362 -0.0187661 0)
(0.0982811 -0.0261447 0)
(0.0971458 -0.0334202 0)
(0.0957435 -0.0405737 0)
(0.0940865 -0.0475875 0)
(0.0921904 -0.0544465 0)
(0.0900767 -0.0611384 0)
(0.0877742 -0.0676551 0)
(0.0853207 -0.0739946 0)
(0.082764 -0.0801628 0)
(0.0801623 -0.0861758 0)
(0.0775825 -0.0920611 0)
(0.0750948 -0.0978584 0)
(0.0727635 -0.103617 0)
(0.0706347 -0.109391 0)
(0.0687229 -0.11523 0)
(0.0670011 -0.12117 0)
(0.0653992 -0.127226 0)
(0.0638119 -0.133391 0)
(0.0621153 -0.139635 0)
(0.060185 -0.145911 0)
(0.0579116 -0.152166 0)
(0.0552106 -0.158343 0)
(0.0520248 -0.164387 0)
(0.0483224 -0.170249 0)
(0.0440922 -0.175884 0)
(0.0393384 -0.181258 0)
(0.0340756 -0.186339 0)
(0.0283248 -0.191106 0)
(0.0221104 -0.195541 0)
(0.0154583 -0.199632 0)
(0.00839505 -0.203372 0)
(0.000947263 -0.206759 0)
(-0.00685932 -0.209793 0)
(-0.0150009 -0.212478 0)
(-0.0234556 -0.21482 0)
(-0.0322027 -0.216826 0)
(-0.0412226 -0.218505 0)
(-0.0504961 -0.219868 0)
(-0.0600046 -0.220924 0)
(-0.0697298 -0.221686 0)
(-0.0796537 -0.222164 0)
(-0.0897575 -0.222369 0)
(-0.100022 -0.222313 0)
(-0.110428 -0.222007 0)
(-0.120953 -0.22146 0)
(-0.131575 -0.220682 0)
(-0.142269 -0.219682 0)
(-0.153006 -0.218467 0)
(-0.163755 -0.217045 0)
(-0.174478 -0.215419 0)
(-0.185134 -0.213596 0)
(-0.195668 -0.211578 0)
(-0.206001 -0.209365 0)
(-0.216022 -0.206956 0)
(-0.225665 -0.204351 0)
(-0.234973 -0.20156 0)
(-0.243866 -0.198605 0)
(-0.250696 -0.195495 0)
(-0.251689 -0.191756 0)
(-0.245437 -0.187261 0)
(-0.235483 -0.182324 0)
(-0.224546 -0.177024 0)
(-0.213039 -0.171366 0)
(-0.200929 -0.165361 0)
(-0.188293 -0.159036 0)
(-0.17527 -0.152429 0)
(-0.162016 -0.145584 0)
(-0.148682 -0.138559 0)
(-0.135422 -0.131419 0)
(-0.122425 -0.124248 0)
(-0.109992 -0.11715 0)
(-0.0985347 -0.11026 0)
(-0.0885199 -0.10373 0)
(-0.0803905 -0.097718 0)
(-0.0744668 -0.0923467 0)
(-0.0708351 -0.0876567 0)
(-0.0692951 -0.0835762 0)
(-0.0694242 -0.0799417 0)
(-0.0707207 -0.076561 0)
(-0.0727339 -0.07327 0)
(-0.0751236 -0.0699562 0)
(-0.0776619 -0.0665543 0)
(-0.0802095 -0.0630319 0)
(-0.0826864 -0.0593762 0)
(-0.085048 -0.0555854 0)
(-0.0872687 -0.0516635 0)
(-0.0893329 -0.0476171 0)
(-0.0912307 -0.0434546 0)
(-0.0929549 -0.0391851 0)
(-0.0944998 -0.0348181 0)
(-0.0958611 -0.0303636 0)
(-0.0970352 -0.0258317 0)
(-0.0980193 -0.0212328 0)
(-0.0988101 -0.0165777 0)
(-0.0994016 -0.0118772 0)
(-0.0997879 -0.00714255 0)
(-0.0999868 -0.00238494 0)
(0.0999812 -0.00341654 0)
(0.0996985 -0.0102135 0)
(0.0991397 -0.0169551 0)
(0.0982879 -0.0236221 0)
(0.0971571 -0.0301964 0)
(0.0957604 -0.0366607 0)
(0.09411 -0.0429992 0)
(0.0922217 -0.0491981 0)
(0.0901167 -0.0552464 0)
(0.0878241 -0.0611369 0)
(0.0853812 -0.0668678 0)
(0.082836 -0.0724445 0)
(0.0802463 -0.0778815 0)
(0.077679 -0.0832039 0)
(0.0752041 -0.0884474 0)
(0.072886 -0.093657 0)
(0.070771 -0.0988813 0)
(0.0688739 -0.104166 0)
(0.0671679 -0.109543 0)
(0.0655834 -0.115029 0)
(0.0640151 -0.120615 0)
(0.0623387 -0.126276 0)
(0.0604292 -0.131971 0)
(0.0581764 -0.137651 0)
(0.0554948 -0.143264 0)
(0.0523258 -0.148762 0)
(0.0486366 -0.154099 0)
(0.0444148 -0.159236 0)
(0.0396634 -0.164141 0)
(0.0343962 -0.168785 0)
(0.028633 -0.173148 0)
(0.0223976 -0.177214 0)
(0.015715 -0.180972 0)
(0.00861111 -0.184414 0)
(0.00111177 -0.187538 0)
(-0.0067578 -0.190344 0)
(-0.0149742 -0.192834 0)
(-0.0235158 -0.195014 0)
(-0.0323621 -0.196888 0)
(-0.0414936 -0.198464 0)
(-0.0508909 -0.199751 0)
(-0.0605354 -0.200757 0)
(-0.0704082 -0.201492 0)
(-0.0804906 -0.201964 0)
(-0.0907632 -0.202183 0)
(-0.101206 -0.202158 0)
(-0.111797 -0.201899 0)
(-0.122515 -0.201413 0)
(-0.133334 -0.200708 0)
(-0.144227 -0.199791 0)
(-0.155163 -0.198669 0)
(-0.166109 -0.197347 0)
(-0.177025 -0.19583 0)
(-0.187865 -0.194122 0)
(-0.198573 -0.192226 0)
(-0.209064 -0.190142 0)
(-0.219225 -0.187871 0)
(-0.229006 -0.185411 0)
(-0.238472 -0.182775 0)
(-0.247461 -0.179978 0)
(-0.253808 -0.177047 0)
(-0.253869 -0.173452 0)
(-0.246958 -0.16919 0)
(-0.23679 -0.164548 0)
(-0.225689 -0.159595 0)
(-0.213979 -0.154336 0)
(-0.201651 -0.14878 0)
(-0.1888 -0.142955 0)
(-0.175577 -0.136895 0)
(-0.16214 -0.130642 0)
(-0.148648 -0.124248 0)
(-0.135257 -0.117774 0)
(-0.122172 -0.111294 0)
(-0.109707 -0.104905 0)
(-0.0982844 -0.0987246 0)
(-0.0883705 -0.0928911 0)
(-0.0803953 -0.0875407 0)
(-0.0746532 -0.0827756 0)
(-0.0711958 -0.0786204 0)
(-0.0697918 -0.0749999 0)
(-0.0700034 -0.0717623 0)
(-0.0713309 -0.0687367 0)
(-0.0733351 -0.065781 0)
(-0.0756898 -0.0627995 0)
(-0.0781787 -0.0597373 0)
(-0.0806704 -0.0565673 0)
(-0.0830901 -0.053279 0)
(-0.0853958 -0.0498713 0)
(-0.0875635 -0.0463476 0)
(-0.0895787 -0.0427138 0)
(-0.0914316 -0.038977 0)
(-0.0931153 -0.0351453 0)
(-0.0946244 -0.0312269 0)
(-0.0959544 -0.0272306 0)
(-0.0971018 -0.0231655 0)
(-0.0980637 -0.0190407 0)
(-0.0988368 -0.0148657 0)
(-0.099415 -0.0106503 0)
(-0.0997926 -0.00640456 0)
(-0.0999871 -0.00213844 0)
(0.0999813 -0.00305291 0)
(0.0996998 -0.00912672 0)
(0.0991431 -0.0151512 0)
(0.0982947 -0.0211095 0)
(0.0971682 -0.0269852 0)
(0.0957768 -0.0327629 0)
(0.0941327 -0.0384287 0)
(0.0922514 -0.04397 0)
(0.0901544 -0.0493772 0)
(0.0878704 -0.0546438 0)
(0.0854367 -0.0597684 0)
(0.0829009 -0.0647556 0)
(0.080321 -0.0696186 0)
(0.0777636 -0.0743797 0)
(0.0752985 -0.0790711 0)
(0.0729902 -0.0837329 0)
(0.0708852 -0.0884088 0)
(0.0689985 -0.0931396 0)
(0.0673038 -0.0979555 0)
(0.0657312 -0.10287 0)
(0.0641759 -0.107877 0)
(0.0625131 -0.112953 0)
(0.0606173 -0.118062 0)
(0.0583777 -0.123161 0)
(0.0557075 -0.128204 0)
(0.0525476 -0.133147 0)
(0.048864 -0.137949 0)
(0.0446434 -0.142576 0)
(0.0398881 -0.146997 0)
(0.0346109 -0.151189 0)
(0.0288313 -0.155131 0)
(0.022572 -0.15881 0)
(0.0158577 -0.162214 0)
(0.00871351 -0.165338 0)
(0.00116505 -0.168178 0)
(-0.00676287 -0.170733 0)
(-0.0150471 -0.173006 0)
(-0.0236662 -0.175 0)
(-0.0325999 -0.17672 0)
(-0.0418284 -0.178171 0)
(-0.0513323 -0.17936 0)
(-0.0610925 -0.180295 0)
(-0.07109 -0.180984 0)
(-0.0813052 -0.181432 0)
(-0.0917181 -0.18165 0)
(-0.102307 -0.181644 0)
(-0.113051 -0.18142 0)
(-0.123924 -0.180987 0)
(-0.134902 -0.180351 0)
(-0.145953 -0.179518 0)
(-0.157048 -0.178492 0)
(-0.168148 -0.177279 0)
(-0.179214 -0.175882 0)
(-0.190196 -0.174305 0)
(-0.201035 -0.172551 0)
(-0.211642 -0.17062 0)
(-0.221905 -0.168512 0)
(-0.231786 -0.166227 0)
(-0.241365 -0.163775 0)
(-0.2504 -0.161167 0)
(-0.256256 -0.158459 0)
(-0.255473 -0.155096 0)
(-0.24801 -0.151157 0)
(-0.237681 -0.146886 0)
(-0.226461 -0.142345 0)
(-0.214596 -0.137539 0)
(-0.2021 -0.132481 0)
(-0.189085 -0.127195 0)
(-0.175709 -0.121715 0)
(-0.162136 -0.116079 0)
(-0.148526 -0.110332 0)
(-0.135041 -0.104531 0)
(-0.121896 -0.0987404 0)
(-0.109421 -0.0930477 0)
(-0.0980453 -0.087559 0)
(-0.0882334 -0.0823948 0)
(-0.0804034 -0.0776733 0)
(-0.0748266 -0.0734788 0)
(-0.0715245 -0.0698245 0)
(-0.0702402 -0.0666356 0)
(-0.070524 -0.063774 0)
(-0.0718787 -0.0610894 0)
(-0.0738757 -0.0584594 0)
(-0.0762007 -0.0558029 0)
(-0.0786472 -0.0530736 0)
(-0.0810905 -0.0502491 0)
(-0.0834601 -0.0473209 0)
(-0.0857165 -0.044288 0)
(-0.0878371 -0.0411536 0)
(-0.089808 -0.0379227 0)
(-0.0916201 -0.0346017 0)
(-0.0932667 -0.0311974 0)
(-0.0947426 -0.0277172 0)
(-0.0960433 -0.0241685 0)
(-0.0971655 -0.0205593 0)
(-0.0981063 -0.0168977 0)