/*--------------------------------*- C++ -*----------------------------------*\
  =========                 |
  \\      /  F ield         | OpenFOAM: The Open Source CFD Toolbox
   \\    /   O peration     | Website:  https://openfoam.org
    \\  /    A nd           | Version:  8
     \\/     M anipulation  |
\*---------------------------------------------------------------------------*/
FoamFile
{
    version     2.0;
    format      ascii;
    class       volScalarField;
    location    "680/fluid";
    object      CH4;
}
// * * * * * * * * * * * * * * * * * * * * * * * * * * * * * * * * * * * * * //

dimensions      [0 0 0 0 0 0 0];

internalField   nonuniform List<scalar> 
4000
(
0.999997
0.999986
0.999968
0.999938
0.999888
0.999805
0.999668
0.999444
0.999082
0.998503
0.99759
0.996175
0.994024
0.990826
0.986197
0.979691
0.970843
0.959223
0.944503
0.926506
0.905221
0.880801
0.853522
0.823746
0.791886
0.758373
0.723635
0.68808
0.652093
0.616021
0.580174
0.544823
0.510197
0.476485
0.443841
0.412382
0.382203
0.353365
0.325907
0.299846
0.275181
0.251898
0.229968
0.209356
0.190017
0.171903
0.15496
0.139135
0.124371
0.110613
0.0978062
0.0858977
0.0748369
0.0645763
0.0550718
0.0462838
0.0381776
0.0308246
0.0241729
0.0179493
0.0123409
0.00735945
0.00328717
0.00230555
0.00159654
0.00108953
0.000731311
0.000481774
0.000310807
0.000195948
0.000120606
7.26925e-05
4.35868e-05
2.74446e-05
1.99881e-05
1.53336e-05
1.13651e-05
7.98393e-06
5.26122e-06
3.22821e-06
1.8411e-06
9.80793e-07
4.92618e-07
2.3709e-07
1.10761e-07
5.05287e-08
2.26076e-08
9.95307e-09
4.32264e-09
1.85577e-09
7.88901e-10
3.32555e-10
1.39161e-10
5.78411e-11
2.38674e-11
9.74844e-12
3.90497e-12
1.49351e-12
4.99427e-13
8.7611e-14
0.999997
0.999986
0.999968
0.999938
0.999888
0.999804
0.999666
0.999441
0.999077
0.998495
0.997581
0.996169
0.994028
0.990856
0.986279
0.979862
0.971151
0.959722
0.945243
0.927523
0.906534
0.882404
0.855391
0.82584
0.794152
0.760755
0.726074
0.690525
0.654496
0.618341
0.58238
0.546889
0.512106
0.478226
0.445407
0.413773
0.383419
0.354413
0.326794
0.300582
0.275776
0.252363
0.230316
0.209597
0.190163
0.171963
0.154944
0.139053
0.124232
0.110425
0.0975762
0.0856325
0.0745424
0.0642577
0.0547339
0.0459306
0.0378128
0.0304547
0.0238008
0.0175728
0.011962
0.00698673
0.00322798
0.0022628
0.00156496
0.00106598
0.00071376
0.000468827
0.000301423
0.000189318
0.000116091
6.97946e-05
4.19342e-05
2.67897e-05
1.97873e-05
1.50829e-05
1.10569e-05
7.67537e-06
4.99876e-06
3.03723e-06
1.72231e-06
9.17329e-07
4.63172e-07
2.24598e-07
1.05863e-07
4.87404e-08
2.19967e-08
9.75731e-09
4.26368e-09
1.83898e-09
7.84278e-10
3.31239e-10
1.38722e-10
5.76539e-11
2.37729e-11
9.69896e-12
3.8802e-12
1.48223e-12
4.95172e-13
8.68471e-14
0.999997
0.999986
0.999968
0.999938
0.999887
0.999803
0.999665
0.999438
0.999073
0.99849
0.997576
0.996165
0.994031
0.990878
0.986338
0.979986
0.971377
0.960093
0.945806
0.92832
0.907597
0.883751
0.857019
0.827733
0.796279
0.76307
0.728528
0.693064
0.657066
0.620894
0.58487
0.549278
0.514361
0.480323
0.447327
0.415504
0.384955
0.355751
0.327936
0.301533
0.276546
0.25296
0.230752
0.209884
0.190312
0.171988
0.154861
0.138872
0.123965
0.110084
0.0971709
0.0851725
0.0740365
0.063714
0.0541598
0.045333
0.0371981
0.0298373
0.0231831
0.0169617
0.0113726
0.00640986
0.00318417
0.00221968
0.00152688
0.00103445
0.000688868
0.000449934
0.000287607
0.000179605
0.000109576
6.57153e-05
3.97064e-05
2.60003e-05
1.94725e-05
1.47277e-05
1.06794e-05
7.33319e-06
4.72949e-06
2.85248e-06
1.61104e-06
8.57606e-07
4.34065e-07
2.11247e-07
1.00027e-07
4.62866e-08
2.09981e-08
9.36138e-09
4.10976e-09
1.77989e-09
7.6171e-10
3.22592e-10
1.35375e-10
5.63383e-11
2.32473e-11
9.48676e-12
3.79482e-12
1.44912e-12
4.83896e-13
8.48496e-14
0.999997
0.999986
0.999968
0.999938
0.999887
0.999803
0.999665
0.999439
0.999075
0.998495
0.997587
0.996187
0.994074
0.990954
0.986466
0.98019
0.971686
0.960541
0.946425
0.929137
0.908632
0.885012
0.858504
0.829429
0.798162
0.76511
0.73069
0.695307
0.65935
0.623177
0.587113
0.551445
0.516422
0.482251
0.449102
0.41711
0.386381
0.356991
0.32899
0.302402
0.277234
0.253476
0.231103
0.210077
0.190363
0.171911
0.154666
0.138572
0.123572
0.10961
0.0966269
0.0845693
0.073384
0.0630215
0.0534359
0.0445857
0.0364349
0.0290848
0.0224485
0.0162386
0.0106498
0.005708
0.00314286
0.00217609
0.00148645
0.000999971
0.000661215
0.000428849
0.000272245
0.000168909
0.000102506
6.13705e-05
3.73958e-05
2.52152e-05
1.90453e-05
1.42746e-05
1.02356e-05
6.94843e-06
4.43316e-06
2.64976e-06
1.48734e-06
7.89429e-07
3.99551e-07
1.9484e-07
9.25463e-08
4.29847e-08
1.95782e-08
8.76402e-09
3.86293e-09
1.67937e-09
7.21208e-10
3.06396e-10
1.28927e-10
5.37767e-11
2.22312e-11
9.08509e-12
3.63795e-12
1.39016e-12
4.64349e-13
8.1439e-14
0.999997
0.999986
0.999968
0.999938
0.999887
0.999804
0.999666
0.999441
0.999079
0.998503
0.997601
0.996212
0.994116
0.991026
0.986581
0.98037
0.971956
0.960927
0.946953
0.929831
0.909507
0.886075
0.859754
0.830853
0.799742
0.766821
0.732501
0.697186
0.661262
0.625088
0.588991
0.55326
0.518146
0.483862
0.45058
0.41844
0.387552
0.357997
0.329827
0.30307
0.277736
0.253816
0.231288
0.210124
0.19028
0.171706
0.154351
0.138159
0.123073
0.109034
0.0959872
0.0838757
0.0726467
0.06225
0.0526388
0.0437707
0.0356196
0.0283039
0.0216702
0.0154545
0.00988415
0.00500734
0.00309984
0.00212396
0.00143723
0.000958573
0.000628816
0.000404811
0.000255204
0.000157347
9.50396e-05
5.6872e-05
3.5071e-05
2.44572e-05
1.85097e-05
1.37478e-05
9.76174e-06
6.56383e-06
4.15197e-06
2.46512e-06
1.37801e-06
7.30324e-07
3.69897e-07
1.80754e-07
8.60893e-08
4.01041e-08
1.83203e-08
8.22395e-09
3.63425e-09
1.58361e-09
6.81471e-10
2.90022e-10
1.22218e-10
5.10407e-11
2.11208e-11
8.63776e-12
3.46066e-12
1.32282e-12
4.41876e-13
7.75028e-14
0.999997
0.999986
0.999968
0.999938
0.999888
0.999805
0.999668
0.999445
0.999085
0.998514
0.997619
0.996243
0.994167
0.991105
0.986704
0.980554
0.972219
0.961292
0.947438
0.930452
0.910274
0.886991
0.860814
0.832047
0.801055
0.768232
0.733985
0.698718
0.662813
0.626631
0.590499
0.554709
0.519514
0.485129
0.451731
0.419462
0.388437
0.358739
0.330423
0.30352
0.278039
0.253977
0.231318
0.210029
0.190068
0.171388
0.153936
0.137658
0.122497
0.108394
0.0952931
0.0831385
0.0718767
0.0614571
0.0518329
0.0429616
0.0348073
0.0275109
0.0208702
0.0146699
0.00912309
0.00430804
0.00295269
0.00200757
0.00135021
0.000895924
0.000585044
0.000375052
0.00023553
0.000144742
8.72758e-05
5.23591e-05
3.2754e-05
2.34338e-05
1.77955e-05
1.31524e-05
9.28078e-06
6.19841e-06
3.89521e-06
2.29997e-06
1.28076e-06
6.77396e-07
3.42921e-07
1.67722e-07
8.00015e-08
3.73367e-08
1.70905e-08
7.68792e-09
3.40439e-09
1.48639e-09
6.40822e-10
2.73183e-10
1.15294e-10
4.82115e-11
1.99716e-11
8.17475e-12
3.27717e-12
1.25314e-12
4.18634e-13
7.34324e-14
0.999997
0.999986
0.999968
0.999939
0.999889
0.999806
0.99967
0.999448
0.999092
0.998525
0.997637
0.996273
0.994214
0.99118
0.986817
0.980719
0.972454
0.961612
0.94786
0.930986
0.910927
0.887763
0.861701
0.833039
0.802136
0.769384
0.735189
0.69995
0.664052
0.627853
0.591683
0.555835
0.520564
0.486088
0.452586
0.420203
0.389055
0.359229
0.330784
0.303752
0.27815
0.253975
0.231204
0.209809
0.189749
0.170979
0.153447
0.137098
0.121876
0.107721
0.094579
0.0823925
0.0711086
0.0606768
0.0510509
0.042189
0.034055
0.0268419
0.0200666
0.0139381
0.00845918
0.00372655
0.002604
0.00179344
0.0012165
0.000811646
0.000531798
0.000341563
0.000214704
0.00013204
7.9766e-05
4.81548e-05
3.0678e-05
2.24743e-05
1.71294e-05
1.2633e-05
8.881e-06
5.90273e-06
3.69028e-06
2.169e-06
1.20374e-06
6.35376e-07
3.21367e-07
1.57214e-07
7.50365e-08
3.50496e-08
1.60593e-08
7.23153e-09
3.20566e-09
1.40108e-09
6.0465e-10
2.58007e-10
1.08984e-10
4.5608e-11
1.89055e-11
7.74243e-12
3.10497e-12
1.18748e-12
3.9668e-13
6.95828e-14
0.999997
0.999986
0.999969
0.999939
0.999889
0.999807
0.999672
0.999452
0.999098
0.998536
0.997655
0.996301
0.99426
0.991249
0.986921
0.980869
0.972663
0.961894
0.948225
0.931443
0.91148
0.888411
0.862437
0.833854
0.803017
0.770315
0.736152
0.700927
0.665024
0.628802
0.592592
0.556687
0.521345
0.486787
0.453193
0.420712
0.389462
0.35953
0.330973
0.303834
0.278128
0.25385
0.230983
0.209499
0.189357
0.170514
0.152916
0.13651
0.121239
0.107045
0.0938713
0.0816619
0.0703634
0.0599251
0.0503006
0.041448
0.0333593
0.0261724
0.0194288
0.0133668
0.00799416
0.00342961
0.00239461
0.0016503
0.00112076
0.000748751
0.000491195
0.000315853
0.000198806
0.000122522
7.43508e-05
4.53764e-05
2.96102e-05
2.20703e-05
1.6806e-05
1.23381e-05
8.62557e-06
5.6998e-06
3.54281e-06
2.07144e-06
1.14477e-06
6.0241e-07
3.04074e-07
1.48626e-07
7.091e-08
3.31203e-08
1.51782e-08
6.83723e-09
3.03235e-09
1.32609e-09
5.72638e-10
2.44502e-10
1.03343e-10
4.32724e-11
1.79464e-11
7.35262e-12
2.94942e-12
1.1281e-12
3.76804e-13
6.60963e-14
0.999997
0.999986
0.999969
0.999939
0.99989
0.999809
0.999674
0.999456
0.999104
0.998546
0.997672
0.996328
0.994301
0.991311
0.987012
0.981
0.972845
0.962136
0.948537
0.93183
0.911943
0.888948
0.863043
0.834519
0.803729
0.77106
0.736915
0.701693
0.665777
0.629527
0.593274
0.557315
0.521907
0.487273
0.453595
0.421024
0.38968
0.359654
0.33101
0.303784
0.277991
0.25363
0.230685
0.209128
0.188921
0.170018
0.152369
0.135918
0.12061
0.106387
0.093191
0.0809664
0.0696595
0.0592195
0.0495998
0.0407585
0.0327238
0.0255632
0.0188489
0.0128246
0.00749617
0.00326999
0.00227995
0.00156918
0.00106437
0.000710306
0.000465504
0.000299052
0.000188092
0.00011592
7.05144e-05
4.34305e-05
2.90047e-05
2.1925e-05
1.66901e-05
1.22128e-05
8.49393e-06
5.57663e-06
3.44448e-06
2.00239e-06
1.10135e-06
5.77444e-07
2.90687e-07
1.41863e-07
6.76121e-08
3.1558e-08
1.44561e-08
6.51061e-09
2.88739e-09
1.26283e-09
5.45431e-10
2.32949e-10
9.84911e-11
4.1254e-11
1.71145e-11
7.01345e-12
2.81376e-12
1.07622e-12
3.59425e-13
6.3043e-14
0.999997
0.999987
0.999969
0.99994
0.999891
0.99981
0.999676
0.999459
0.99911
0.998555
0.997687
0.996351
0.994337
0.991366
0.987092
0.981114
0.973
0.962342
0.9488
0.932153
0.912327
0.889391
0.863538
0.835056
0.804298
0.77165
0.737513
0.702286
0.666351
0.630071
0.593777
0.557766
0.522299
0.487598
0.45385
0.421203
0.389779
0.359675
0.330952
0.303649
0.277782
0.253352
0.230343
0.208727
0.188467
0.169518
0.151828
0.135344
0.120009
0.105764
0.0925533
0.0803195
0.0690088
0.0585704
0.048957
0.0401263
0.0321141
0.0249812
0.0182887
0.0122803
0.00696244
0.00320641
0.00223041
0.00153233
0.001038
0.000692061
0.000453313
0.000291202
0.000183257
0.000113119
6.90694e-05
4.29026e-05
2.91409e-05
2.21567e-05
1.67986e-05
1.22254e-05
8.45531e-06
5.51734e-06
3.38434e-06
1.95548e-06
1.07005e-06
5.58745e-07
2.80383e-07
1.36559e-07
6.4986e-08
3.02981e-08
1.38676e-08
6.24204e-09
2.7673e-09
1.21008e-09
5.22623e-10
2.23221e-10
9.43905e-11
3.95432e-11
1.64076e-11
6.72476e-12
2.69813e-12
1.03196e-12
3.44598e-13
6.0433e-14
0.999997
0.999987
0.999969
0.99994
0.999891
0.999811
0.999678
0.999462
0.999115
0.998563
0.9977
0.996371
0.994368
0.991413
0.987161
0.98121
0.973132
0.962515
0.949019
0.932421
0.912643
0.889751
0.863937
0.835487
0.80475
0.772113
0.737977
0.702738
0.666782
0.630471
0.594137
0.558077
0.522554
0.487793
0.453979
0.421267
0.38978
0.35961
0.330822
0.303455
0.277528
0.253042
0.229981
0.208319
0.188017
0.169032
0.151312
0.134803
0.119448
0.105189
0.0919685
0.0797303
0.0684198
0.0579855
0.04838
0.0395611
0.0315731
0.0244599
0.0177818
0.0117928
0.00649671
0.00317779
0.00220805
0.00151545
0.00102563
0.00068329
0.000447307
0.000287259
0.000180815
0.000111757
6.84774e-05
4.29038e-05
2.96668e-05
2.26383e-05
1.70877e-05
1.23626e-05
8.49316e-06
5.50444e-06
3.35469e-06
1.92607e-06
1.04846e-06
5.4516e-07
2.72647e-07
1.32492e-07
6.29389e-08
2.93033e-08
1.3398e-08
6.02585e-09
2.66991e-09
1.16704e-09
5.03915e-10
2.15207e-10
9.1e-11
3.81246e-11
1.58203e-11
6.48456e-12
2.60187e-12
9.95065e-13
3.32234e-13
5.82599e-14
0.999997
0.999987
0.999969
0.99994
0.999892
0.999812
0.99968
0.999465
0.999119
0.99857
0.997711
0.996389
0.994395
0.991453
0.987218
0.981291
0.973241
0.962658
0.949199
0.93264
0.9129
0.890042
0.864256
0.835828
0.805105
0.772472
0.738331
0.703079
0.667101
0.630759
0.594387
0.558285
0.522714
0.487901
0.454032
0.421264
0.389719
0.359493
0.33065
0.303231
0.277255
0.252723
0.229621
0.207921
0.187588
0.168574
0.150832
0.134304
0.118936
0.104668
0.091443
0.0792041
0.0678968
0.0574694
0.0478754
0.0390729
0.0311041
0.0240032
0.0173425
0.0113717
0.00609333
0.0031555
0.00219416
0.00150694
0.00102059
0.000680434
0.000445781
0.000286529
0.000180565
0.000111815
6.8786e-05
4.34715e-05
3.05542e-05
2.33171e-05
1.7505e-05
1.25856e-05
8.58844e-06
5.5275e-06
3.3467e-06
1.91023e-06
1.03444e-06
5.35648e-07
2.66995e-07
1.29444e-07
6.13772e-08
2.85338e-08
1.30309e-08
5.85535e-09
2.59256e-09
1.13265e-09
4.88894e-10
2.08745e-10
8.8257e-11
3.69737e-11
1.53428e-11
6.28899e-12
2.52348e-12
9.65063e-13
3.22185e-13
5.65015e-14
0.999997
0.999987
0.999969
0.999941
0.999892
0.999812
0.999681
0.999467
0.999123
0.998576
0.99772
0.996403
0.994417
0.991486
0.987266
0.981358
0.973332
0.962775
0.949346
0.932817
0.913106
0.890274
0.864509
0.836095
0.80538
0.772748
0.738599
0.703331
0.667331
0.630961
0.594554
0.558412
0.522798
0.48794
0.454026
0.42121
0.389618
0.359345
0.330457
0.302995
0.27698
0.252411
0.229277
0.207548
0.18719
0.168156
0.150396
0.133856
0.118479
0.104206
0.0909793
0.0787422
0.0674403
0.0570235
0.0474428
0.0386498
0.0306964
0.0236123
0.0169681
0.0110148
0.00575528
0.00313662
0.00218428
0.00150232
0.00101891
0.000680288
0.000446366
0.000287396
0.000181483
0.000112697
6.96329e-05
4.4348e-05
3.15505e-05
2.40608e-05
1.79756e-05
1.28513e-05
8.71652e-06
5.57469e-06
3.35463e-06
1.9047e-06
1.02672e-06
5.29511e-07
2.63096e-07
1.27269e-07
6.02362e-08
2.79618e-08
1.27542e-08
5.72546e-09
2.5331e-09
1.10601e-09
4.77188e-10
2.03683e-10
8.60989e-11
3.60651e-11
1.49647e-11
6.1338e-12
2.46117e-12
9.41201e-13
3.14227e-13
5.5108e-14
0.999997
0.999987
0.99997
0.999941
0.999893
0.999813
0.999682
0.999469
0.999126
0.998581
0.997728
0.996416
0.994436
0.991513
0.987305
0.981412
0.973405
0.96287
0.949465
0.932959
0.91327
0.890458
0.864708
0.836303
0.805591
0.772956
0.738798
0.703516
0.667495
0.631099
0.594662
0.558487
0.522836
0.487939
0.453985
0.421129
0.389497
0.359186
0.330261
0.302765
0.276718
0.252121
0.22896
0.207209
0.186832
0.167783
0.150011
0.133462
0.11808
0.103804
0.0905784
0.0783459
0.0670519
0.0566425
0.0470665
0.0382834
0.0303497
0.0232807
0.0166504
0.0107103
0.0054801
0.00312113
0.00217781
0.00150086
0.00101997
0.000682411
0.000448733
0.000289597
0.000183358
0.000114231
7.08924e-05
4.54436e-05
3.258e-05
2.48306e-05
1.84769e-05
1.31467e-05
8.86977e-06
5.64134e-06
3.37638e-06
1.90753e-06
1.02413e-06
5.26425e-07
2.60765e-07
1.25873e-07
5.94696e-08
2.75648e-08
1.25575e-08
5.63136e-09
2.48939e-09
1.08621e-09
4.684e-10
1.99854e-10
8.44568e-11
3.53702e-11
1.46746e-11
6.01431e-12
2.4132e-12
9.22756e-13
3.08109e-13
5.4033e-14
0.999997
0.999987
0.99997
0.999941
0.999893
0.999814
0.999683
0.999471
0.999128
0.998585
0.997734
0.996425
0.99445
0.991535
0.987337
0.981456
0.973464
0.962946
0.949558
0.933071
0.913399
0.8906
0.864861
0.836462
0.805751
0.773112
0.738944
0.703648
0.667608
0.631189
0.594726
0.558521
0.522841
0.487912
0.453925
0.421036
0.389372
0.359029
0.330075
0.302552
0.276479
0.25186
0.228679
0.206912
0.18652
0.16746
0.14968
0.133125
0.11774
0.103465
0.0902435
0.0780164
0.0667262
0.0563207
0.0467537
0.0379808
0.0300636
0.0230073
0.0163888
0.0104599
0.00525497
0.00310847
0.00217416
0.00150196
0.00102325
0.000686364
0.00045255
0.000292904
0.000186045
0.000116337
7.25338e-05
4.67742e-05
3.37261e-05
2.56693e-05
1.90287e-05
1.34798e-05
9.05074e-06
5.72765e-06
3.41132e-06
1.91866e-06
1.02605e-06
5.25729e-07
2.5976e-07
1.25145e-07
5.90259e-08
2.73174e-08
1.24287e-08
5.56758e-09
2.45901e-09
1.07218e-09
4.6209e-10
1.97074e-10
8.32551e-11
3.4858e-11
1.44604e-11
5.92518e-12
2.37813e-12
9.08977e-13
3.03625e-13
5.32409e-14
0.999997
0.999987
0.99997
0.999941
0.999893
0.999814
0.999684
0.999472
0.99913
0.998588
0.997739
0.996433
0.994462
0.991552
0.987362
0.981491
0.97351
0.963005
0.949631
0.933158
0.913498
0.890709
0.864977
0.836582
0.80587
0.773226
0.73905
0.70374
0.667684
0.631246
0.594762
0.558533
0.522827
0.487872
0.453858
0.420943
0.389254
0.358886
0.329909
0.302364
0.276272
0.251636
0.22844
0.20666
0.186258
0.16719
0.149405
0.132848
0.117463
0.10319
0.0899688
0.0777424
0.0664568
0.0560592
0.0465007
0.0377373
0.0298332
0.0227876
0.0161795
0.0102611
0.00507729
0.0030985
0.00217307
0.00150537
0.0010285
0.000691925
0.000457635
0.000297178
0.000189445
0.000118948
7.45177e-05
4.83199e-05
3.49836e-05
2.65774e-05
1.963e-05
1.38484e-05
9.25684e-06
5.8312e-06
3.45752e-06
1.93674e-06
1.03203e-06
5.27153e-07
2.59779e-07
1.24893e-07
5.88047e-08
2.71786e-08
1.23509e-08
5.52723e-09
2.43913e-09
1.06276e-09
4.5778e-10
1.95148e-10
8.24158e-11
3.44963e-11
1.43108e-11
5.86173e-12
2.35403e-12
8.9931e-13
3.0052e-13
5.26899e-14
0.999997
0.999987
0.99997
0.999941
0.999893
0.999814
0.999684
0.999473
0.999132
0.998591
0.997743
0.996439
0.994471
0.991566
0.987381
0.981517
0.973544
0.96305
0.949686
0.933223
0.913572
0.89079
0.865063
0.836669
0.805956
0.773307
0.739123
0.703803
0.667734
0.631281
0.594779
0.558531
0.522805
0.48783
0.453796
0.42086
0.389151
0.358765
0.32977
0.302209
0.276103
0.251453
0.228247
0.206458
0.186049
0.166977
0.149189
0.13263
0.117243
0.102969
0.0897498
0.0775279
0.0662478
0.0558567
0.0463056
0.03755
0.0296519
0.0226137
0.0160101
0.0100921
0.00491393
0.00309101
0.00217432
0.00151085
0.0010355
0.00069892
0.000463852
0.000302317
0.000193482
0.000122011
7.68025e-05
5.00429e-05
3.63249e-05
2.75342e-05
2.02643e-05
1.42401e-05
9.47938e-06
5.94626e-06
3.51138e-06
1.95958e-06
1.04078e-06
5.30118e-07
2.60599e-07
1.25042e-07
5.8779e-08
2.71289e-08
1.23147e-08
5.50574e-09
2.42787e-09
1.05712e-09
4.5512e-10
1.93928e-10
8.18797e-11
3.42615e-11
1.42158e-11
5.82123e-12
2.33855e-12
8.93055e-13
2.98533e-13
5.23358e-14
0.999997
0.999987
0.99997
0.999941
0.999894
0.999815
0.999685
0.999473
0.999133
0.998592
0.997746
0.996444
0.994478
0.991575
0.987394
0.981536
0.973569
0.963082
0.949725
0.933269
0.913624
0.890848
0.865123
0.83673
0.806016
0.773363
0.739173
0.703845
0.667766
0.631301
0.594786
0.558524
0.522784
0.487793
0.453744
0.420794
0.389071
0.358671
0.329664
0.302091
0.275975
0.251317
0.228103
0.206309
0.185895
0.166818
0.149027
0.132466
0.117079
0.102806
0.08959
0.0773718
0.0660963
0.0557105
0.0461652
0.0374156
0.0295239
0.0224916
0.0158925
0.00997776
0.00480845
0.00308561
0.00217751
0.00151801
0.00104389
0.000707023
0.000470923
0.000308094
0.000197982
0.000125394
7.92924e-05
5.18736e-05
3.76924e-05
2.84929e-05
2.08953e-05
1.4629e-05
9.70132e-06
6.0625e-06
3.56709e-06
1.98406e-06
1.05068e-06
5.33801e-07
2.6184e-07
1.25427e-07
5.88744e-08
2.71407e-08
1.23072e-08
5.49793e-09
2.42275e-09
1.05432e-09
4.53784e-10
1.93272e-10
8.1606e-11
3.41343e-11
1.41651e-11
5.79876e-12
2.3301e-12
8.89566e-13
2.97444e-13
5.21385e-14
0.999997
0.999987
0.99997
0.999941
0.999894
0.999815
0.999685
0.999474
0.999134
0.998593
0.997748
0.996446
0.994482
0.991582
0.987403
0.981548
0.973585
0.963102
0.94975
0.933299
0.913658
0.890884
0.865161
0.836768
0.806053
0.773398
0.739203
0.70387
0.667784
0.631311
0.594787
0.558517
0.522767
0.487767
0.453708
0.420749
0.389016
0.358608
0.329593
0.302013
0.27589
0.251226
0.228008
0.206208
0.185791
0.166712
0.148919
0.132358
0.116972
0.102701
0.0894871
0.0772719
0.066
0.0556183
0.0460773
0.0373321
0.0294454
0.022417
0.0158205
0.00990642
0.00473956
0.00308212
0.00218219
0.00152625
0.001053
0.000715571
0.000478253
0.000314011
0.000202547
0.000128795
8.17623e-05
5.36422e-05
3.89531e-05
2.93513e-05
2.14494e-05
1.49658e-05
9.89202e-06
6.16225e-06
3.61517e-06
2.00544e-06
1.05948e-06
5.37175e-07
2.63025e-07
1.25886e-07
5.90097e-08
2.71898e-08
1.23174e-08
5.49863e-09
2.42259e-09
1.05352e-09
4.53432e-10
1.93026e-10
8.1506e-11
3.40803e-11
1.4144e-11
5.78856e-12
2.3264e-12
8.87932e-13
2.96966e-13
5.20475e-14
0.999997
0.999987
0.99997
0.999941
0.999894
0.999815
0.999685
0.999474
0.999134
0.998594
0.997749
0.996448
0.994484
0.991584
0.987407
0.981553
0.973593
0.963112
0.949762
0.933312
0.913673
0.890901
0.865179
0.836786
0.80607
0.773414
0.739218
0.703881
0.667792
0.631315
0.594788
0.558513
0.522758
0.487753
0.45369
0.420726
0.388989
0.358576
0.329557
0.301974
0.275847
0.25118
0.22796
0.206158
0.18574
0.16666
0.148867
0.132307
0.116921
0.102651
0.0894384
0.0772251
0.0659553
0.0555759
0.0460375
0.037295
0.0294112
0.0223849
0.0157893
0.00987435
0.00470575
0.00308039
0.00218714
0.00153369
0.00106076
0.000722595
0.000484132
0.000318676
0.000206101
0.000131414
8.36367e-05
5.4943e-05
3.98157e-05
2.99061e-05
2.1793e-05
1.51682e-05
1.00039e-05
6.21981e-06
3.64266e-06
2.01764e-06
1.06453e-06
5.39143e-07
2.63717e-07
1.26182e-07
5.91027e-08
2.72252e-08
1.23284e-08
5.50076e-09
2.42345e-09
1.0535e-09
4.53413e-10
1.92965e-10
8.14812e-11
3.40632e-11
1.41374e-11
5.78501e-12
2.32514e-12
8.87338e-13
2.96794e-13
5.20146e-14
0.999997
0.999987
0.99997
0.999941
0.999894
0.999815
0.999685
0.999474
0.999134
0.998594
0.997749
0.996448
0.994484
0.991584
0.987407
0.981553
0.973593
0.963112
0.949762
0.933312
0.913673
0.890901
0.865178
0.836786
0.80607
0.773414
0.739217
0.703881
0.667792
0.631315
0.594787
0.558513
0.522758
0.487753
0.453689
0.420725
0.388988
0.358576
0.329557
0.301974
0.275847
0.25118
0.227959
0.206158
0.18574
0.16666
0.148867
0.132306
0.116921
0.102651
0.0894383
0.077225
0.0659552
0.0555759
0.0460375
0.037295
0.0294112
0.0223849
0.0157893
0.00987433
0.00470573
0.0030804
0.00218714
0.00153369
0.00106076
0.000722593
0.000484129
0.000318673
0.000206098
0.000131411
8.36347e-05
5.49417e-05
3.9815e-05
2.99059e-05
2.17929e-05
1.51682e-05
1.00039e-05
6.21981e-06
3.64267e-06
2.01764e-06
1.06453e-06
5.39149e-07
2.6372e-07
1.26179e-07
5.91029e-08
2.72211e-08
1.23296e-08
5.50058e-09
2.42345e-09
1.0535e-09
4.53402e-10
1.92962e-10
8.14781e-11
3.40622e-11
1.41368e-11
5.78478e-12
2.32499e-12
8.87297e-13
2.96762e-13
5.20108e-14
0.999997
0.999987
0.99997
0.999941
0.999894
0.999815
0.999685
0.999474
0.999134
0.998593
0.997748
0.996446
0.994482
0.991581
0.987403
0.981547
0.973585
0.963102
0.94975
0.933298
0.913657
0.890883
0.86516
0.836768
0.806052
0.773397
0.739203
0.703869
0.667783
0.63131
0.594787
0.558516
0.522766
0.487766
0.453708
0.420748
0.389016
0.358608
0.329592
0.302013
0.27589
0.251226
0.228007
0.206208
0.185791
0.166711
0.148919
0.132358
0.116972
0.102701
0.0894869
0.0772718
0.0659999
0.0556181
0.0460772
0.037332
0.0294453
0.0224169
0.0158204
0.00990636
0.00473951
0.00308212
0.0021822
0.00152626
0.00105301
0.000715574
0.000478256
0.000314014
0.00020255
0.000128798
8.17641e-05
5.36434e-05
3.89537e-05
2.93515e-05
2.14495e-05
1.49659e-05
9.89204e-06
6.16227e-06
3.61519e-06
2.00545e-06
1.05949e-06
5.37187e-07
2.63029e-07
1.25882e-07
5.90116e-08
2.71823e-08
1.23192e-08
5.49825e-09
2.42252e-09
1.05351e-09
4.53402e-10
1.93019e-10
8.14987e-11
3.40781e-11
1.41424e-11
5.78806e-12
2.32602e-12
8.87832e-13
2.96878e-13
5.20373e-14
0.999997
0.999987
0.99997
0.999941
0.999894
0.999815
0.999685
0.999473
0.999133
0.998592
0.997746
0.996443
0.994478
0.991575
0.987394
0.981535
0.973569
0.963081
0.949725
0.933268
0.913623
0.890847
0.865122
0.836729
0.806014
0.773362
0.739172
0.703844
0.667764
0.631299
0.594784
0.558523
0.522783
0.487792
0.453743
0.420793
0.389069
0.35867
0.329663
0.302091
0.275974
0.251316
0.228103
0.206308
0.185895
0.166818
0.149026
0.132466
0.117079
0.102806
0.0895897
0.0773716
0.0660961
0.0557103
0.046165
0.0374154
0.0295238
0.0224914
0.0158924
0.00997766
0.00480837
0.00308561
0.00217751
0.00151801
0.00104389
0.000707022
0.000470922
0.000308092
0.00019798
0.000125392
7.92912e-05
5.18728e-05
3.76921e-05
2.84928e-05
2.08953e-05
1.4629e-05
9.70134e-06
6.06252e-06
3.56711e-06
1.98408e-06
1.05069e-06
5.3381e-07
2.61843e-07
1.25429e-07
5.88758e-08
2.71401e-08
1.23073e-08
5.49784e-09
2.42271e-09
1.05431e-09
4.53765e-10
1.93268e-10
8.16001e-11
3.41327e-11
1.41635e-11
5.79828e-12
2.32964e-12
8.8945e-13
2.9734e-13
5.21248e-14
0.999997
0.999987
0.99997
0.999941
0.999893
0.999814
0.999684
0.999473
0.999132
0.99859
0.997743
0.996439
0.994471
0.991566
0.98738
0.981516
0.973544
0.963049
0.949685
0.933222
0.91357
0.890789
0.865061
0.836667
0.805954
0.773306
0.739121
0.703801
0.667732
0.631279
0.594777
0.55853
0.522804
0.487828
0.453794
0.420858
0.389149
0.358763
0.329769
0.302208
0.276101
0.251452
0.228246
0.206457
0.186049
0.166976
0.149188
0.13263
0.117243
0.102969
0.0897494
0.0775275
0.0662474
0.0558564
0.0463053
0.0375498
0.0296516
0.0226135
0.0160099
0.0100919
0.0049138
0.00309102
0.00217432
0.00151085
0.0010355
0.000698923
0.000463855
0.00030232
0.000193485
0.000122013
7.6804e-05
5.00439e-05
3.63255e-05
2.75345e-05
2.02644e-05
1.42402e-05
9.47943e-06
5.9463e-06
3.51142e-06
1.9596e-06
1.0408e-06
5.30128e-07
2.60605e-07
1.25045e-07
5.87806e-08
2.71294e-08
1.23149e-08
5.50586e-09
2.42793e-09
1.05714e-09
4.55129e-10
1.93932e-10
8.18798e-11
3.42617e-11
1.42151e-11
5.82105e-12
2.33814e-12
8.93027e-13
2.98439e-13
5.23235e-14
0.999997
0.999987
0.99997
0.999941
0.999893
0.999814
0.999684
0.999472
0.99913
0.998588
0.997739
0.996433
0.994462
0.991552
0.987361
0.98149
0.973509
0.963004
0.94963
0.933156
0.913496
0.890708
0.864975
0.836579
0.805868
0.773223
0.739047
0.703738
0.667682
0.631244
0.594759
0.558531
0.522825
0.48787
0.453856
0.420941
0.389252
0.358885
0.329907
0.302363
0.276271
0.251634
0.228439
0.206659
0.186257
0.167189
0.149404
0.132847
0.117462
0.103189
0.0899682
0.0777419
0.0664563
0.0560587
0.0465003
0.0377369
0.0298329
0.0227873
0.0161792
0.0102609
0.00507711
0.00309851
0.00217308
0.00150537
0.0010285
0.000691927
0.000457636
0.000297179
0.000189445
0.000118948
7.45173e-05
4.83195e-05
3.49834e-05
2.65774e-05
1.963e-05
1.38484e-05
9.25689e-06
5.83125e-06
3.45756e-06
1.93677e-06
1.03205e-06
5.27166e-07
2.59787e-07
1.24897e-07
5.88067e-08
2.71794e-08
1.23515e-08
5.52745e-09
2.43923e-09
1.06282e-09
4.57802e-10
1.95159e-10
8.242e-11
3.4498e-11
1.43111e-11
5.86196e-12
2.35362e-12
8.99356e-13
3.00433e-13
5.26793e-14
0.999997
0.999987
0.99997
0.999941
0.999893
0.999814
0.999683
0.99947
0.999128
0.998585
0.997734
0.996425
0.99445
0.991535
0.987336
0.981455
0.973463
0.962945
0.949557
0.93307
0.913397
0.890598
0.864858
0.83646
0.805748
0.773109
0.738941
0.703644
0.667605
0.631186
0.594723
0.558518
0.522838
0.487909
0.453922
0.421033
0.389369
0.359027
0.330073
0.30255
0.276477
0.251858
0.228678
0.20691
0.186519
0.167458
0.149678
0.133124
0.117739
0.103465
0.0902428
0.0780157
0.0667256
0.0563202
0.0467532
0.0379804
0.0300633
0.0230069
0.0163885
0.0104597
0.00525472
0.00310848
0.00217417
0.00150197
0.00102326
0.000686369
0.000452554
0.000292907
0.000186048
0.000116339
7.25361e-05
4.6776e-05
3.37272e-05
2.56699e-05
1.9029e-05
1.34799e-05
9.05083e-06
5.72772e-06
3.41137e-06
1.9187e-06
1.02608e-06
5.25744e-07
2.59769e-07
1.25149e-07
5.9028e-08
2.73187e-08
1.24293e-08
5.56786e-09
2.45914e-09
1.07224e-09
4.62117e-10
1.97086e-10
8.32603e-11
3.48603e-11
1.44612e-11
5.92576e-12
2.37787e-12
9.09071e-13
3.03572e-13
5.32349e-14
0.999997
0.999987
0.99997
0.999941
0.999893
0.999813
0.999682
0.999469
0.999126
0.998581
0.997728
0.996415
0.994435
0.991513
0.987305
0.981412
0.973404
0.962869
0.949463
0.932957
0.913268
0.890455
0.864705
0.8363
0.805588
0.772953
0.738794
0.703512
0.667491
0.631095
0.594658
0.558483
0.522832
0.487935
0.453982
0.421126
0.389494
0.359183
0.330259
0.302763
0.276715
0.252119
0.228958
0.207208
0.18683
0.167781
0.15001
0.133461
0.118078
0.103803
0.0905775
0.0783451
0.0670512
0.0566419
0.0470659
0.0382829
0.0303492
0.0232803
0.01665
0.0107099
0.00547977
0.00312113
0.00217781
0.00150086
0.00101997
0.000682413
0.000448734
0.000289596
0.000183355
0.000114227
7.08879e-05
4.54398e-05
3.25777e-05
2.48295e-05
1.84765e-05
1.31467e-05
8.86981e-06
5.64141e-06
3.37644e-06
1.90758e-06
1.02416e-06
5.26441e-07
2.60774e-07
1.25879e-07
5.94726e-08
2.75663e-08
1.25582e-08
5.6317e-09
2.48954e-09
1.08628e-09
4.68432e-10
1.99869e-10
8.44632e-11
3.5373e-11
1.46758e-11
6.01483e-12
2.41335e-12
9.22853e-13
3.0811e-13
5.40342e-14
0.999997
0.999987
0.999969
0.999941
0.999892
0.999812
0.999681
0.999467
0.999123
0.998576
0.99772
0.996403
0.994417
0.991485
0.987265
0.981357
0.973331
0.962774
0.949344
0.932815
0.913103
0.890271
0.864506
0.836092
0.805376
0.772744
0.738595
0.703327
0.667327
0.630957
0.59455
0.558408
0.522795
0.487936
0.454022
0.421206
0.389614
0.359342
0.330454
0.302992
0.276977
0.252409
0.229274
0.207546
0.187188
0.168154
0.150394
0.133855
0.118477
0.104205
0.0909782
0.0787412
0.0674394
0.0570227
0.0474421
0.0386492
0.0306958
0.0236118
0.0169677
0.0110144
0.00575489
0.00313664
0.00218431
0.00150234
0.00101893
0.000680309
0.000446387
0.000287417
0.000181506
0.000112721
6.9654e-05
4.43641e-05
3.15595e-05
2.40649e-05
1.79772e-05
1.2852e-05
8.71678e-06
5.57482e-06
3.35471e-06
1.90475e-06
1.02675e-06
5.2953e-07
2.63107e-07
1.27275e-07
6.02395e-08
2.79634e-08
1.2755e-08
5.72585e-09
2.53328e-09
1.1061e-09
4.77228e-10
2.03701e-10
8.61067e-11
3.60685e-11
1.49662e-11
6.13442e-12
2.46142e-12
9.41298e-13
3.14259e-13
5.51127e-14
0.999997
0.999987
0.999969
0.99994
0.999892
0.999812
0.99968
0.999465
0.999119
0.99857
0.99771
0.996389
0.994394
0.991452
0.987217
0.98129
0.97324
0.962656
0.949197
0.932637
0.912897
0.890039
0.864253
0.835824
0.8051
0.772468
0.738326
0.703074
0.667096
0.630755
0.594383
0.55828
0.522709
0.487896
0.454027
0.42126
0.389715
0.359489
0.330646
0.303227
0.277252
0.25272
0.229618
0.207919
0.187585
0.168572
0.15083
0.134303
0.118934
0.104667
0.0914417
0.079203
0.0678958
0.0574685
0.0478746
0.0390722
0.0311035
0.0240027
0.017342
0.0113712
0.00609291
0.00315551
0.00219414
0.00150689
0.00102052
0.000680355
0.000445694
0.000286437
0.000180469
0.000111733
6.87221e-05
4.343e-05
3.05333e-05
2.33089e-05
1.75025e-05
1.25851e-05
8.58843e-06
5.52761e-06
3.34679e-06
1.91029e-06
1.03447e-06
5.3567e-07
2.67008e-07
1.29451e-07
6.13808e-08
2.85356e-08
1.30318e-08
5.85579e-09
2.59277e-09
1.13274e-09
4.88939e-10
2.08765e-10
8.82659e-11