/*--------------------------------*- C++ -*----------------------------------*\
  =========                 |
  \\      /  F ield         | OpenFOAM: The Open Source CFD Toolbox
   \\    /   O peration     | Website:  https://openfoam.org
    \\  /    A nd           | Version:  8
     \\/     M anipulation  |
\*---------------------------------------------------------------------------*/
FoamFile
{
    version     2.0;
    format      ascii;
    class       volScalarField;
    location    "680/fluid";
    object      CO2;
}
// * * * * * * * * * * * * * * * * * * * * * * * * * * * * * * * * * * * * * //

dimensions      [0 0 0 0 0 0 0];

internalField   nonuniform List<scalar> 
4000
(
4.72638e-07
2.06521e-06
4.74273e-06
9.22997e-06
1.67178e-05
2.91432e-05
4.96202e-05
8.3083e-05
0.000137218
0.000223754
0.000360147
0.000571587
0.000893059
0.00137086
0.00206265
0.00303495
0.00435738
0.00609404
0.00829404
0.0109841
0.0141655
0.0178158
0.0218935
0.0263446
0.0311073
0.0361174
0.0413108
0.0466264
0.0520069
0.0574002
0.0627599
0.0680457
0.0732233
0.0782641
0.0831455
0.0878494
0.092362
0.0966735
0.100778
0.104673
0.108357
0.111833
0.115105
0.118175
0.121051
0.123737
0.12624
0.128565
0.130717
0.1327
0.134516
0.136165
0.137645
0.138948
0.140065
0.140976
0.141658
0.142069
0.142169
0.141891
0.141139
0.139786
0.137161
0.12661
0.115885
0.105166
0.0945916
0.0842713
0.0742921
0.0647252
0.0556304
0.0470606
0.0390656
0.0317313
0.0250305
0.0190692
0.0139114
0.0096206
0.0062433
0.00377367
0.00212087
0.00111398
0.00055203
0.000262351
0.000121137
5.46697e-05
2.4219e-05
1.05659e-05
4.55072e-06
1.9389e-06
8.18571e-07
3.42916e-07
1.42696e-07
5.90164e-08
2.42468e-08
9.86677e-09
3.94041e-09
1.5036e-09
5.02039e-10
8.80094e-11
4.73597e-07
2.06994e-06
4.75596e-06
9.26211e-06
1.67891e-05
2.92894e-05
4.9897e-05
8.35665e-05
0.000137989
0.000224845
0.000361426
0.00057254
0.000892476
0.00136645
0.00205056
0.00300954
0.00431144
0.00601962
0.00818367
0.0108322
0.0139694
0.0175762
0.0216142
0.0260317
0.0307686
0.0357613
0.040946
0.0462607
0.0516474
0.0570529
0.0624297
0.0677363
0.0729373
0.0780033
0.0829108
0.087641
0.0921795
0.0965161
0.100645
0.104562
0.108267
0.111763
0.115051
0.118137
0.121027
0.123725
0.126239
0.128573
0.130733
0.132722
0.134544
0.136197
0.137679
0.138985
0.140103
0.141015
0.141697
0.142107
0.142205
0.141924
0.141168
0.139808
0.136307
0.125683
0.114902
0.104137
0.0935254
0.0831755
0.0731739
0.0635925
0.0544922
0.0459279
0.037952
0.0306553
0.0240144
0.0181416
0.0131029
0.0089598
0.00574835
0.00344138
0.0019238
0.00101089
0.000504041
0.000241609
0.000112688
5.13851e-05
2.29867e-05
1.01145e-05
4.3873e-06
1.87966e-06
7.96793e-07
3.3471e-07
1.39509e-07
5.77421e-08
2.37264e-08
9.65258e-09
3.85327e-09
1.46973e-09
4.9057e-10
8.60136e-11
4.7533e-07
2.07778e-06
4.77515e-06
9.30214e-06
1.68658e-05
2.9427e-05
5.01308e-05
8.394e-05
0.000138542
0.000225585
0.000362258
0.000573137
0.000892009
0.0013632
0.00204172
0.002991
0.00427774
0.00596419
0.0080996
0.0107132
0.0138106
0.017375
0.0213707
0.0257485
0.0304505
0.035415
0.0405788
0.0458807
0.0512625
0.0566706
0.0620567
0.0673784
0.0725992
0.0776888
0.0826226
0.087381
0.0919487
0.0963148
0.100472
0.104418
0.10815
0.111671
0.114983
0.118091
0.121
0.123716
0.126245
0.128593
0.130764
0.132763
0.134592
0.136251
0.137738
0.139047
0.140166
0.141078
0.141758
0.142164
0.142256
0.141966
0.141194
0.139812
0.134786
0.124113
0.113287
0.102486
0.0918504
0.0814898
0.0714929
0.0619333
0.052874
0.0443723
0.0364831
0.0292854
0.0227875
0.0170852
0.0122391
0.0083006
0.00528705
0.00314949
0.00175735
0.000924608
0.000462756
0.000222817
0.000104446
4.78748e-05
2.15263e-05
9.51786e-06
4.14669e-06
1.78341e-06
7.5842e-07
3.19402e-07
1.3338e-07
5.52754e-08
2.27298e-08
9.25026e-09
3.69286e-09
1.40838e-09
4.69986e-10
8.23966e-11
4.75575e-07
2.07884e-06
4.77756e-06
9.30648e-06
1.68716e-05
2.94297e-05
5.01117e-05
8.38484e-05
0.00013826
0.000224866
0.000360634
0.000569788
0.000885631
0.00135188
0.00202271
0.00296064
0.00423156
0.00589728
0.00800714
0.010591
0.0136559
0.0171865
0.0211487
0.0254949
0.0301688
0.0351096
0.0402552
0.0455448
0.0509205
0.0563286
0.0617205
0.0670534
0.07229
0.0773993
0.0823559
0.0871395
0.0917339
0.0961277
0.100313
0.104286
0.108045
0.111591
0.114927
0.118058
0.120988
0.123722
0.126267
0.128628
0.130811
0.13282
0.134656
0.136321
0.137811
0.139121
0.140239
0.141148
0.141822
0.142218
0.142296
0.141988
0.141193
0.139776
0.132886
0.122199
0.111356
0.100545
0.0899095
0.0795649
0.0696026
0.060098
0.051116
0.0427153
0.0349521
0.0278784
0.0215527
0.016039
0.0113931
0.00765717
0.00483413
0.002858
0.00158643
0.000832676
0.000416822
0.000201097
9.45444e-05
4.34884e-05
1.9628e-05
8.71211e-06
3.81018e-06
1.64468e-06
7.01804e-07
2.96462e-07
1.24131e-07
5.15594e-08
2.12413e-08
8.6574e-09
3.4601e-09
1.32064e-09
4.40881e-10
7.73145e-11
4.74472e-07
2.07394e-06
4.76589e-06
9.2825e-06
1.68247e-05
2.93396e-05
4.994e-05
8.35232e-05
0.000137649
0.000223735
0.000358576
0.000566127
0.000879295
0.00134125
0.00200548
0.00293377
0.00419136
0.00583969
0.00792818
0.0104873
0.013525
0.0170274
0.0209618
0.0252818
0.0299323
0.0348535
0.0399839
0.0452632
0.0506338
0.0560419
0.0614387
0.0667809
0.072031
0.0771572
0.0821335
0.086939
0.091557
0.0959753
0.100186
0.104183
0.107967
0.111536
0.114895
0.118046
0.120993
0.123744
0.126304
0.128678
0.130871
0.132888
0.13473
0.136398
0.137889
0.139196
0.140308
0.141209
0.14187
0.142247
0.142305
0.141969
0.141135
0.139675
0.130884
0.120216
0.109372
0.0985604
0.087937
0.0776216
0.0677085
0.0582742
0.0493837
0.0410953
0.0334786
0.0265542
0.0203996
0.0150721
0.0106211
0.00707858
0.00443325
0.00260386
0.00143914
0.000753935
0.000377469
0.000182384
8.59329e-05
3.9625e-05
1.79297e-05
7.97792e-06
3.49716e-06
1.51276e-06
6.46736e-07
2.73655e-07
1.14746e-07
4.7719e-08
1.96788e-08
8.02691e-09
3.20999e-09
1.22564e-09
4.09208e-10
7.1767e-11
4.72246e-07
2.06408e-06
4.74268e-06
9.23567e-06
1.6736e-05
2.91766e-05
4.96457e-05
8.29986e-05
0.000136726
0.000222131
0.000355837
0.000561543
0.0008718
0.00132932
0.00198708
0.00290634
0.00415194
0.00578519
0.00785569
0.0103945
0.0134104
0.0168905
0.0208031
0.0251029
0.0297356
0.034642
0.0397613
0.0450335
0.050401
0.0558101
0.0612119
0.0665629
0.071825
0.0769661
0.0819598
0.0867844
0.0914229
0.0958625
0.100094
0.104114
0.107919
0.111509
0.114886
0.118054
0.121018
0.123783
0.126355
0.128739
0.13094
0.132962
0.134806
0.136474
0.137961
0.139261
0.140362
0.141245
0.141886
0.142235
0.142262
0.141887
0.141014
0.13953
0.129231
0.118476
0.107567
0.0967192
0.0860896
0.0757963
0.0659313
0.0565684
0.0477704
0.0395934
0.032119
0.0253394
0.0193483
0.0141971
0.00992776
0.00656249
0.00407714
0.00237803
0.00130745
0.000682693
0.00034127
0.000164901
7.7761e-05
3.59057e-05
1.62743e-05
7.25497e-06
3.18648e-06
1.38106e-06
5.91539e-07
2.50738e-07
1.05304e-07
4.38533e-08
1.81061e-08
7.39256e-09
2.95845e-09
1.1301e-09
3.77364e-10
6.61895e-11
4.69504e-07
2.05202e-06
4.71458e-06
9.17988e-06
1.66324e-05
2.89904e-05
4.9318e-05
8.24304e-05
0.000135753
0.00022049
0.00035311
0.00055709
0.000864683
0.00131822
0.00197026
0.00288163
0.0041169
0.00573731
0.0077927
0.0103146
0.0133127
0.0167748
0.0206702
0.0249543
0.0295735
0.0344691
0.0395807
0.0448484
0.0502148
0.0556262
0.0610336
0.0663931
0.0716664
0.076821
0.0818299
0.0866714
0.0913278
0.0957859
0.100037
0.104075
0.107898
0.111504
0.114897
0.11808
0.121057
0.123833
0.126415
0.128806
0.131012
0.133037
0.134881
0.136545
0.138024
0.139311
0.140394
0.141251
0.141854
0.142155
0.142119
0.141662
0.140687
0.1391
0.128213
0.117123
0.106029
0.0950874
0.0844251
0.0741424
0.0643203
0.0550256
0.0463153
0.0382398
0.0308806
0.0242315
0.0183958
0.0134134
0.00931626
0.00611284
0.00376999
0.00218485
0.00119545
0.000622265
0.000310546
0.00015001
7.07611e-05
3.26967e-05
1.48339e-05
6.62009e-06
2.91106e-06
1.26321e-06
5.41707e-07
2.29879e-07
9.66467e-08
4.02872e-08
1.66477e-08
6.80176e-09
2.72336e-09
1.04058e-09
3.47474e-10
6.09491e-11
4.66577e-07
2.03917e-06
4.68478e-06
9.12102e-06
1.65237e-05
2.87968e-05
4.89805e-05
8.18514e-05
0.000134774
0.000218858
0.000350435
0.000552789
0.000857913
0.00130783
0.00195475
0.00285922
0.00408561
0.00569516
0.00773798
0.0102461
0.0132299
0.0166778
0.0205598
0.0248321
0.0294413
0.0343293
0.0394358
0.0447013
0.0500682
0.055483
0.0608963
0.066264
0.0715477
0.0767145
0.0817371
0.0865933
0.0912651
0.0957391
0.100006
0.10406
0.107897
0.111518
0.114924
0.118118
0.121106
0.123891
0.12648
0.128877
0.131086
0.133111
0.134953
0.13661
0.13808
0.139352
0.140412
0.141236
0.14179
0.142023
0.141885
0.14127
0.140046
0.13806
0.12697
0.115737
0.104554
0.0935691
0.0829019
0.0726455
0.062876
0.0536568
0.0450432
0.0370856
0.0298566
0.023349
0.0176352
0.0127694
0.00879978
0.0057307
0.00350877
0.00202051
0.00109999
0.000570552
0.000284094
0.000137111
6.466e-05
2.9883e-05
1.35641e-05
6.0577e-06
2.66603e-06
1.15797e-06
4.97064e-07
2.1114e-07
8.88518e-08
3.70698e-08
1.53298e-08
6.26714e-09
2.51038e-09
9.59404e-10
3.20355e-10
5.61931e-11
4.63708e-07
2.02659e-06
4.65571e-06
9.06386e-06
1.64188e-05
2.8611e-05
4.86589e-05
8.13039e-05
0.000133856
0.000217343
0.000347977
0.000548874
0.000851814
0.00129856
0.00194106
0.00283961
0.00405846
0.00565891
0.00769133
0.0101882
0.0131604
0.0165971
0.0204689
0.0247321
0.0293342
0.0342171
0.0393207
0.0445856
0.0499543
0.0553731
0.0607925
0.0661682
0.0714616
0.0766394
0.0816742
0.0865433
0.0912288
0.0957166
0.0999966
0.104063
0.107912
0.111545
0.114961
0.118165
0.121161
0.123953
0.126547
0.128947
0.131158
0.133182
0.135021
0.136673
0.138134
0.139393
0.140436
0.141238
0.141761
0.141957
0.141767
0.141087
0.139779
0.136882
0.12568
0.114376
0.103155
0.092162
0.0815115
0.0712935
0.0615816
0.052438
0.0439179
0.036075
0.0289805
0.0226029
0.0170155
0.012264
0.00837894
0.00540717
0.00328712
0.00188122
0.00101921
0.000526808
0.0002617
0.00012617
5.94711e-05
2.74823e-05
1.24766e-05
5.57424e-06
2.45458e-06
1.06682e-06
4.58256e-07
1.94797e-07
8.20329e-08
3.4248e-08
1.41713e-08
5.79631e-09
2.32253e-09
8.87723e-10
2.96396e-10
5.19874e-11
4.61026e-07
2.01485e-06
4.62861e-06
9.0107e-06
1.63215e-05
2.84394e-05
4.8363e-05
8.08028e-05
0.000133021
0.000215973
0.000345766
0.000545379
0.000846409
0.00129041
0.00192911
0.00282264
0.00403516
0.00562806
0.00765195
0.0101397
0.0131028
0.0165307
0.0203945
0.0246512
0.0292483
0.0341279
0.0392303
0.0444957
0.049867
0.0552901
0.0607155
0.0660988
0.071401
0.0765886
0.081634
0.0865144
0.0912114
0.0957103
0.100001
0.104078
0.107938
0.11158
0.115005
0.118216
0.121218
0.124015
0.126612
0.129014
0.131226
0.133249
0.135085
0.136732
0.138186
0.139437
0.140469
0.141258
0.141767
0.141951
0.141753
0.141075
0.139792
0.135614
0.124392
0.113079
0.101863
0.0908904
0.0802742
0.0701037
0.0604511
0.0513771
0.0429388
0.0351818
0.0281201
0.0218257
0.016348
0.0117293
0.00800065
0.0051312
0.00309508
0.00176167
0.000950295
0.000489621
0.000242685
0.000116879
5.506e-05
2.5438e-05
1.15489e-05
5.16091e-06
2.27341e-06
9.88545e-07
4.24867e-07
1.80709e-07
7.61456e-08
3.18081e-08
1.31683e-08
5.38823e-09
2.15957e-09
8.25507e-10
2.75601e-10
4.83336e-11
4.58604e-07
2.00426e-06
4.60419e-06
8.96289e-06
1.62342e-05
2.82858e-05
4.80992e-05
8.03577e-05
0.000132282
0.000214766
0.000343831
0.000542336
0.000841729
0.00128339
0.00191889
0.0028082
0.00401547
0.00560215
0.00761908
0.0100996
0.0130553
0.0164764
0.0203344
0.0245863
0.02918
0.0340577
0.0391598
0.0444267
0.0498009
0.0552284
0.0606596
0.0660498
0.07136
0.0765564
0.0816111
0.0865012
0.0912075
0.0957158
0.100016
0.104102
0.10797
0.111619
0.115051
0.118268
0.121274
0.124074
0.126673
0.129076
0.131287
0.133309
0.135141
0.136784
0.138232
0.139476
0.140499
0.14128
0.141779
0.141955
0.141751
0.141071
0.139792
0.134415
0.12319
0.111884
0.100686
0.0897428
0.0791698
0.0690531
0.0594632
0.0504583
0.0420844
0.0343735
0.0273888
0.0211794
0.0157946
0.0112739
0.0076431
0.00489264
0.00293461
0.00166038
0.00089215
0.000458329
0.000226704
0.000109071
5.13506e-05
2.3717e-05
1.07667e-05
4.81184e-06
2.12014e-06
9.2221e-07
3.96519e-07
1.68729e-07
7.1131e-08
2.9727e-08
1.23119e-08
5.03951e-09
2.02027e-09
7.72304e-10
2.57817e-10
4.52117e-11
4.56472e-07
1.99493e-06
4.58273e-06
8.92092e-06
1.61577e-05
2.81516e-05
4.78691e-05
7.99707e-05
0.000131642
0.000213724
0.000342166
0.000539729
0.000837738
0.00127744
0.00191025
0.00279608
0.00399902
0.00558062
0.00759196
0.0100666
0.0130166
0.0164326
0.0202861
0.0245346
0.0291261
0.034003
0.0391056
0.0443743
0.0497516
0.0551834
0.0606199
0.0660164
0.0713335
0.0765375
0.0816002
0.0864981
0.0912125
0.0957287
0.100037
0.10413
0.108004
0.111659
0.115095
0.118316
0.121325
0.124128
0.126728
0.129131
0.13134
0.133359
0.135189
0.136827
0.138269
0.139505
0.140521
0.141293
0.141784
0.141951
0.141741
0.141057
0.139778
0.133357
0.12213
0.110836
0.099666
0.0887629
0.0782342
0.0681593
0.0586096
0.049643
0.041308
0.0336643
0.0267532
0.0206235
0.0153224
0.0108878
0.00734244
0.0046716
0.00279933
0.00157585
0.000843161
0.000432081
0.00021333
0.000102543
4.82499e-05
2.2278e-05
1.01123e-05
4.5195e-06
1.99164e-06
8.66526e-07
3.72693e-07
1.58647e-07
6.6906e-08
2.79717e-08
1.15889e-08
4.74489e-09
1.90256e-09
7.27378e-10
2.4281e-10
4.2583e-11
4.54635e-07
1.98691e-06
4.56426e-06
8.88484e-06
1.60921e-05
2.80366e-05
4.76725e-05
7.96406e-05
0.000131097
0.000212841
0.000340759
0.000537533
0.00083439
0.00127246
0.00190307
0.00278603
0.00398545
0.00556296
0.00756981
0.0100398
0.0129855
0.0163974
0.0202477
0.0244939
0.029084
0.0339607
0.0390642
0.0443349
0.0497152
0.055151
0.0605924
0.0659944
0.0713176
0.0765281
0.0815973
0.0865018
0.0912228
0.0957455
0.100059
0.104158
0.108037
0.111696
0.115136
0.11836
0.121371
0.124175
0.126775
0.129177
0.131384
0.1334
0.135225
0.136858
0.138294
0.139523
0.140531
0.141295
0.141777
0.141937
0.141719
0.141031
0.139753
0.13245
0.121215
0.109929
0.0987792
0.0878932
0.0773799
0.0673342
0.0578244
0.0489083
0.0406365
0.0330568
0.0262117
0.0201519
0.0149236
0.0105637
0.00709236
0.00449038
0.00267645
0.00150715
0.000803449
0.000410348
0.000202245
9.71433e-05
4.56876e-05
2.10888e-05
9.57113e-06
4.27755e-06
1.88516e-06
8.20331e-07
3.52901e-07
1.50261e-07
6.33873e-08
2.65081e-08
1.09854e-08
4.49881e-09
1.80418e-09
6.8982e-10
2.30285e-10
4.03885e-11
4.53085e-07
1.98013e-06
4.54868e-06
8.85445e-06
1.60368e-05
2.79399e-05
4.75075e-05
7.93643e-05
0.000130642
0.000212105
0.00033959
0.000535714
0.000831624
0.00126837
0.00189717
0.00277782
0.00397441
0.00554865
0.00755195
0.0100184
0.0129606
0.0163696
0.0202175
0.0244621
0.0290515
0.0339284
0.039033
0.0443057
0.0496888
0.0551282
0.0605737
0.0659804
0.0713088
0.0765245
0.0815991
0.0865092
0.0912355
0.0957632
0.100082
0.104185
0.108068
0.11173
0.115172
0.118397
0.12141
0.124213
0.126812
0.129212
0.131417
0.133429
0.13525
0.136877
0.138307
0.139529
0.140529
0.141285
0.141758
0.141911
0.141687
0.140995
0.139723
0.131686
0.120436
0.109152
0.0980038
0.087135
0.0766523
0.0666412
0.0571708
0.0482989
0.040076
0.0325485
0.0257588
0.0197577
0.014591
0.0102944
0.00688578
0.00434211
0.00257747
0.00144534
0.000771286
0.00039327
0.000193352
9.27739e-05
4.36094e-05
2.01219e-05
9.13005e-06
4.07991e-06
1.79802e-06
7.82454e-07
3.36649e-07
1.43365e-07
6.04903e-08
2.53018e-08
1.04876e-08
4.29565e-09
1.72296e-09
6.58796e-10
2.19952e-10
3.85764e-11
4.51804e-07
1.97454e-06
4.53582e-06
8.82938e-06
1.59913e-05
2.78604e-05
4.7372e-05
7.91377e-05
0.00013027
0.000211503
0.000338636
0.000534234
0.00082938
0.00126505
0.00189242
0.00277122
0.00396556
0.00553723
0.00753776
0.0100014
0.012941
0.0163478
0.020194
0.0244375
0.0290267
0.033904
0.0390097
0.0442842
0.0496699
0.0551123
0.0605614
0.065972
0.0713045
0.0765245
0.0816034
0.0865178
0.0912482
0.0957798
0.100102
0.104208
0.108093
0.111758
0.115201
0.118427
0.12144
0.124242
0.12684
0.129238
0.13144
0.133448
0.135264
0.136886
0.138309
0.139524
0.140517
0.141265
0.14173
0.141876
0.141647
0.140953
0.139688
0.131046
0.11978
0.108492
0.0973562
0.0865063
0.0760487
0.0660673
0.0566306
0.0477959
0.0396134
0.0321292
0.0253851
0.0194328
0.0143172
0.0100732
0.00671683
0.00422156
0.00249772
0.00139628
0.000742815
0.00037919
0.000186538
8.93589e-05
4.19456e-05
1.93412e-05
8.77306e-06
3.91973e-06
1.72731e-06
7.51691e-07
3.23437e-07
1.37755e-07
5.81322e-08
2.43193e-08
1.00823e-08
4.13005e-09
1.65708e-09
6.33573e-10
2.11583e-10
3.71074e-11
4.50775e-07
1.97004e-06
4.52549e-06
8.80924e-06
1.59548e-05
2.77966e-05
4.72634e-05
7.89564e-05
0.000129972
0.000211023
0.000337878
0.000533059
0.000827602
0.00126243
0.00188867
0.00276603
0.00395862
0.0055283
0.00752671
0.00998824
0.0129259
0.016331
0.0201761
0.0244189
0.029008
0.0338858
0.0389925
0.0442687
0.0496564
0.0551013
0.0605533
0.065967
0.0713027
0.076526
0.0816083
0.0865259
0.0912593
0.0957937
0.100118
0.104226
0.108113
0.111779
0.115223
0.118449
0.121461
0.124262
0.126858
0.129254
0.131452
0.133456
0.135267
0.136884
0.138301
0.13951
0.140496
0.141237
0.141697
0.141838
0.141606
0.140913
0.139653
0.130529
0.119248
0.107957
0.0968286
0.0859941
0.0755573
0.0656008
0.0561922
0.0473883
0.0392389
0.0317899
0.025083
0.0191704
0.0140964
0.00989519
0.00658115
0.00412508
0.00243419
0.00135744
0.000720451
0.000366741
0.000180217
8.64739e-05
4.06012e-05
1.87142e-05
8.48546e-06
3.79068e-06
1.6704e-06
7.26965e-07
3.12831e-07
1.33256e-07
5.62428e-08
2.35325e-08
9.759e-09
3.99798e-09
1.60493e-09
6.13577e-10
2.04963e-10
3.59451e-11
4.49976e-07
1.96655e-06
4.51748e-06
8.79364e-06
1.59265e-05
2.77473e-05
4.71795e-05
7.88164e-05
0.000129743
0.000210654
0.000337294
0.000532156
0.000826239
0.00126043
0.00188581
0.00276208
0.00395335
0.00552154
0.00751836
0.00997833
0.0129146
0.0163185
0.0201627
0.0244052
0.0289943
0.0338725
0.0389802
0.0442576
0.049647
0.0550938
0.0605479
0.0659639
0.071302
0.0765278
0.0816124
0.0865322
0.0912677
0.0958039
0.10013
0.104239
0.108127
0.111793
0.115238
0.118463
0.121474
0.124274
0.126867
0.12926
0.131455
0.133455
0.135261
0.136872
0.138284
0.139487
0.140467
0.141204
0.141661
0.141804
0.141581
0.140907
0.139691
0.130119
0.118822
0.10753
0.0964086
0.0855874
0.0751681
0.0652323
0.0558467
0.0470677
0.0389449
0.0315241
0.0248467
0.0189654
0.0139242
0.00975663
0.00647582
0.0040504
0.00238517
0.00132765
0.000703533
0.000357639
0.000175532
8.41302e-05
3.95298e-05
1.82314e-05
8.26604e-06
3.69175e-06
1.62662e-06
7.07833e-07
3.04617e-07
1.29769e-07
5.47825e-08
2.29258e-08
9.51132e-09
3.89711e-09
1.56506e-09
5.98308e-10
1.99914e-10
3.50589e-11
4.49393e-07
1.964e-06
4.51163e-06
8.78225e-06
1.59058e-05
2.77113e-05
4.71183e-05
7.87144e-05
0.000129576
0.000210386
0.00033687
0.000531502
0.000825251
0.00125898
0.00188374
0.00275922
0.00394956
0.00551668
0.00751238
0.00997124
0.0129065
0.0163097
0.0201533
0.0243955
0.0289846
0.0338633
0.0389716
0.04425
0.0496406
0.0550888
0.0605444
0.065962
0.0713017
0.076529
0.0816151
0.0865361
0.0912728
0.09581
0.100137
0.104247
0.108135
0.111801
0.115245
0.11847
0.121479
0.124277
0.126868
0.129258
0.131449
0.133445
0.135247
0.136853
0.138259
0.139456
0.140431
0.141163
0.141617
0.141758
0.141536
0.140868
0.139664
0.129824
0.118507
0.107209
0.0960921
0.0852808
0.0748752
0.0649557
0.0555882
0.0468286
0.0387263
0.0313268
0.0246718
0.0188139
0.0137973
0.0096548
0.00639866
0.00399586
0.00234947
0.00130597
0.000691229
0.000351041
0.000172148
8.24542e-05
3.8707e-05
1.78473e-05
8.09727e-06
3.61845e-06
1.59473e-06
6.94128e-07
2.98786e-07
1.27302e-07
5.3758e-08
2.24991e-08
9.33702e-09
3.8259e-09
1.53688e-09
5.87516e-10
1.96343e-10
3.44312e-11
4.49013e-07
1.96234e-06
4.50781e-06
8.77483e-06
1.58924e-05
2.76878e-05
4.70785e-05
7.86481e-05
0.000129467
0.000210211
0.000336595
0.000531077
0.000824611
0.00125804
0.0018824
0.00275738
0.00394711
0.00551355
0.00750853
0.00996669
0.0129013
0.016304
0.0201473
0.0243894
0.0289785
0.0338574
0.0389662
0.0442452
0.0496366
0.0550857
0.0605422
0.0659608
0.0713014
0.0765295
0.0816163
0.0865379
0.091275
0.0958126
0.10014
0.10425
0.108138
0.111803
0.115247
0.11847
0.121478
0.124275
0.126864
0.129251
0.131439
0.133431
0.135229
0.13683
0.138231
0.139423
0.140393
0.14112
0.14157
0.141709
0.141489
0.140829
0.139644
0.129631
0.118294
0.10699
0.0958744
0.0850703
0.074675
0.0647677
0.0554134
0.0466677
0.0385799
0.0311953
0.0245556
0.0187138
0.0137136
0.00958798
0.00634827
0.00396043
0.00232639
0.00129197
0.000683272
0.000346772
0.000169962
8.14075e-05
3.82033e-05
1.76149e-05
7.98797e-06
3.56908e-06
1.57365e-06
6.85055e-07
2.95002e-07
1.25703e-07
5.30996e-08
2.22251e-08
9.22569e-09
3.78041e-09
1.51894e-09
5.8064e-10
1.94076e-10
3.4033e-11
4.48828e-07
1.96154e-06
4.50597e-06
8.77124e-06
1.58859e-05
2.76766e-05
4.70593e-05
7.86163e-05
0.000129415
0.000210128
0.000336465
0.000530876
0.000824308
0.00125759
0.00188177
0.00275651
0.00394596
0.00551207
0.00750671
0.00996454
0.0128989
0.0163013
0.0201445
0.0243865
0.0289757
0.0338547
0.0389637
0.044243
0.0496347
0.0550842
0.0605411
0.0659602
0.0713012
0.0765297
0.0816167
0.0865384
0.0912754
0.0958129
0.10014
0.10425
0.108138
0.111803
0.115246
0.118469
0.121475
0.12427
0.126858
0.129243
0.131429
0.133419
0.135213
0.136811
0.138209
0.139397
0.140363
0.141086
0.141533
0.141671
0.141453
0.1408
0.139632
0.129535
0.118181
0.106872
0.0957583
0.0849589
0.0745702
0.0646703
0.0553239
0.0465862
0.0385064
0.03113
0.0244985
0.0186649
0.0136732
0.00955593
0.00632429
0.00394372
0.0023156
0.00128548
0.000679593
0.000344798
0.000168955
8.09363e-05
3.79758e-05
1.75104e-05
7.93984e-06
3.54694e-06
1.56392e-06
6.80743e-07
2.93179e-07
1.24926e-07
5.2779e-08
2.20916e-08
9.17144e-09
3.75825e-09
1.5102e-09
5.77294e-10
1.92971e-10
3.38389e-11
4.4883e-07
1.96155e-06
4.50598e-06
8.77127e-06
1.5886e-05
2.76767e-05
4.70595e-05
7.86166e-05
0.000129416
0.000210129
0.000336466
0.000530878
0.000824311
0.0012576
0.00188178
0.00275652
0.00394597
0.00551209
0.00750673
0.00996457
0.0128989
0.0163013
0.0201445
0.0243865
0.0289757
0.0338547
0.0389637
0.044243
0.0496347
0.0550842
0.0605412
0.0659602
0.0713012
0.0765297
0.0816167
0.0865384
0.0912754
0.0958129
0.10014
0.10425
0.108138
0.111803
0.115246
0.118469
0.121475
0.12427
0.126858
0.129243
0.131429
0.133419
0.135213
0.136811
0.138209
0.139397
0.140363
0.141086
0.141533
0.141671
0.141453
0.1408
0.139632
0.129535
0.118181
0.106872
0.0957583
0.0849589
0.0745702
0.0646703
0.0553239
0.0465862
0.0385064
0.0311299
0.0244985
0.0186649
0.0136732
0.00955593
0.0063243
0.00394373
0.0023156
0.00128548
0.000679594
0.000344799
0.000168956
8.09351e-05
3.79753e-05
1.75085e-05
7.93998e-06
3.54689e-06
1.56392e-06
6.80738e-07
2.93173e-07
1.24923e-07
5.27773e-08
2.20909e-08
9.17106e-09
3.7581e-09
1.51011e-09
5.77262e-10
1.92954e-10
3.38359e-11
4.49018e-07
1.96237e-06
4.50787e-06
8.77493e-06
1.58926e-05
2.76882e-05
4.7079e-05
7.8649e-05
0.000129469
0.000210213
0.000336599
0.000531083
0.000824619
0.00125805
0.00188242
0.0027574
0.00394714
0.00551359
0.00750858
0.00996676
0.0129014
0.0163041
0.0201474
0.0243895
0.0289787
0.0338575
0.0389664
0.0442454
0.0496367
0.0550858
0.0605423
0.0659609
0.0713015
0.0765296
0.0816164
0.086538
0.0912751
0.0958127
0.10014
0.10425
0.108138
0.111803
0.115247
0.118471
0.121478
0.124275
0.126864
0.129251
0.131439
0.133431
0.135229
0.13683
0.138231
0.139423
0.140393
0.14112
0.14157
0.141709
0.141489
0.140829
0.139644
0.129631
0.118293
0.10699
0.0958743
0.0850702
0.0746749
0.0647676
0.0554133
0.0466676
0.0385798
0.0311953
0.0245556
0.0187137
0.0137136
0.00958798
0.00634827
0.00396044
0.00232639
0.00129198
0.000683277
0.000346776
0.000169965
8.14061e-05
3.82027e-05
1.76116e-05
7.98821e-06
3.56895e-06
1.57362e-06
6.8504e-07
2.94987e-07
1.25698e-07
5.30959e-08
2.22236e-08
9.2248e-09
3.78005e-09
1.51872e-09
5.80558e-10
1.9403e-10
3.40247e-11
4.49402e-07
1.96404e-06
4.51172e-06
8.78243e-06
1.59062e-05
2.77118e-05
4.71192e-05
7.8716e-05
0.000129578
0.00021039
0.000336877
0.000531511
0.000825265
0.001259
0.00188377
0.00275926
0.00394961
0.00551675
0.00751247
0.00997135
0.0129066
0.0163098
0.0201535
0.0243957
0.0289848
0.0338635
0.0389718
0.0442502
0.0496408
0.055089
0.0605446
0.0659622
0.0713019
0.0765292
0.0816152
0.0865363
0.091273
0.0958102
0.100137
0.104247
0.108135
0.111801
0.115245
0.11847
0.121479
0.124277
0.126868
0.129258
0.131449
0.133445
0.135247
0.136853
0.138259
0.139456
0.140431
0.141163
0.141617
0.141758
0.141536
0.140868
0.139664
0.129824
0.118507
0.107209
0.0960919
0.0852805
0.074875
0.0649555
0.0555881
0.0468285
0.0387262
0.0313267
0.0246717
0.0188139
0.0137973
0.00965481
0.00639867
0.00399587
0.00234949
0.00130598
0.000691236
0.000351045
0.000172151
8.24552e-05
3.87071e-05
1.78471e-05
8.09715e-06
3.61839e-06
1.59469e-06
6.94107e-07
2.98769e-07
1.27294e-07
5.37531e-08
2.24969e-08
9.33581e-09
3.82538e-09
1.53657e-09
5.87396e-10
1.96282e-10
3.44209e-11
4.49989e-07
1.96661e-06
4.5176e-06
8.79389e-06
1.59269e-05
2.7748e-05
4.71807e-05
7.88185e-05
0.000129746
0.00021066
0.000337303
0.00053217
0.000826258
0.00126046
0.00188585
0.00276213
0.00395343
0.00552164
0.00751849
0.00997848
0.0129148
0.0163187
0.020163
0.0244055
0.0289945
0.0338728
0.0389805
0.0442579
0.0496473
0.0550941
0.0605482
0.0659642
0.0713023
0.076528
0.0816126
0.0865324
0.0912679
0.0958041
0.10013
0.104239
0.108127
0.111793
0.115238
0.118463
0.121474
0.124274
0.126867
0.12926
0.131455
0.133455
0.135261
0.136872
0.138284
0.139487
0.140467
0.141204
0.141661
0.141804
0.141581
0.140907
0.139691
0.130119
0.118821
0.107529
0.0964083
0.0855871
0.0751678
0.065232
0.0558465
0.0470675
0.0389448
0.0315239
0.0248467
0.0189653
0.0139242
0.00975663
0.00647584
0.00405041
0.00238519
0.00132767
0.000703543
0.000357647
0.000175536
8.41328e-05
3.95311e-05
1.82319e-05
8.26609e-06
3.69178e-06
1.62663e-06
7.07833e-07
3.04616e-07
1.29768e-07
5.47812e-08
2.29249e-08
9.51063e-09
3.89677e-09
1.56478e-09
5.98223e-10
1.99858e-10
3.50492e-11
4.50791e-07
1.97011e-06
4.52565e-06
8.80955e-06
1.59553e-05
2.77976e-05
4.7265e-05
7.8959e-05
0.000129977
0.00021103
0.000337889
0.000533075
0.000827626
0.00126247
0.00188872
0.0027661
0.00395872
0.00552843
0.00752687
0.00998843
0.0129261
0.0163313
0.0201763
0.0244193
0.0290083
0.0338861
0.0389929
0.044269
0.0496568
0.0551017
0.0605536
0.0659674
0.071303
0.0765263
0.0816086
0.0865262
0.0912596
0.095794
0.100119
0.104226
0.108114
0.111779
0.115223
0.11845
0.121461
0.124263
0.126859
0.129254
0.131452
0.133456
0.135267
0.136884
0.138301
0.13951
0.140496
0.141237
0.141697
0.141838
0.141606
0.140913
0.139653
0.130528
0.119247
0.107956
0.096828
0.0859936
0.0755568
0.0656003
0.0561918
0.0473879
0.0392386
0.0317897
0.0250829
0.0191703
0.0140964
0.00989518
0.00658116
0.00412509
0.00243421
0.00135746
0.000720466
0.000366752
0.000180224
8.6478e-05
4.06031e-05
1.87151e-05
8.48605e-06
3.79092e-06
1.6705e-06
7.27007e-07
3.12847e-07
1.33261e-07
5.62447e-08
2.35331e-08
9.75896e-09
3.99792e-09
1.6047e-09
6.13529e-10
2.04912e-10
3.59366e-11
4.51824e-07
1.97462e-06
4.53601e-06
8.82975e-06
1.5992e-05
2.78615e-05
4.73739e-05
7.91409e-05
0.000130275
0.000211511
0.000338649
0.000534254
0.00082941
0.0012651
0.00189248
0.00277131
0.00396568
0.00553738
0.00753795
0.0100016
0.0129413
0.0163481
0.0201943
0.0244379
0.0290271
0.0339044
0.0390101
0.0442847
0.0496703
0.0551127
0.0605618
0.0659724
0.0713049
0.0765249
0.0816038
0.0865182
0.0912486
0.0957802
0.100102
0.104208
0.108094
0.111758
0.115202
0.118428
0.12144
0.124242
0.12684
0.129238
0.13144
0.133448
0.135264
0.136886
0.138309
0.139524
0.140517
0.141265
0.14173
0.141876
0.141647
0.140953
0.139687
0.131045
0.119779
0.108491
0.0973553
0.0865055
0.0760478
0.0660665
0.0566299
0.0477953
0.0396129
0.0321288
0.0253848
0.0194326
0.0143171
0.0100732
0.00671682
0.00422157
0.00249774
0.00139629
0.000742824
0.000379196
0.000186541
8.93604e-05
4.19463e-05
1.93418e-05
8.77331e-06
3.91986e-06
1.72736e-06
7.51716e-07
3.23448e-07
1.3776e-07
5.81341e-08
2.43201e-08
1.00825e-08
4.13022e-09
1.65694e-09
6.33562e-10
2.11551e-10
3.71019e-11
4.53107e-07
1.98023e-06
4.5489e-06
8.85488e-06
1.60376e-05
2.79412e-05
4.75098e-05
7.93681e-05
0.000130648
0.000212114
0.000339605
0.000535737
0.000831659
0.00126842
0.00189725
0.00277792
0.00397454
0.00554883
0.00755217
0.0100186
0.0129609
0.0163699
0.0202179
0.0244625
0.029052
0.0339289
0.0390335
0.0443062
0.0496894
0.0551287
0.0605743
0.065981
0.0713093
0.076525
0.0815996
0.0865096
0.0912359
0.0957636
0.100082
0.104185
0.108068
0.11173
0.115172
0.118398
0.12141
0.124213
0.126813
0.129213
0.131417
0.13343
0.13525
0.136877
0.138307
0.139529
0.140529
0.141285
0.141758
0.141911
0.141687
0.140995
0.139723
0.131685
0.120434
0.109151
0.0980025
0.0871336
0.0766508
0.0666396
0.0571693
0.0482976
0.040075
0.0325478
0.0257583
0.0197574
0.0145909
0.0102943
0.00688576
0.00434211
0.00257748
0.00144535
0.000771294
0.000393274
0.000193353
9.27746e-05
4.36098e-05
2.0122e-05
9.13011e-06
4.07996e-06
1.79805e-06
7.82469e-07
3.36657e-07
1.43369e-07
6.04921e-08
2.53027e-08
1.0488e-08
4.2958e-09
1.72299e-09
6.58817e-10
2.19948e-10
3.85755e-11
4.54661e-07
1.98702e-06
4.56451e-06
8.88533e-06
1.60929e-05
2.80381e-05
4.7675e-05
7.96448e-05
0.000131104
0.000212852
0.000340776
0.000537559
0.000834429
0.00127252
0.00190315
0.00278615
0.0039856
0.00556316
0.00757006
0.0100401
0.0129858
0.0163978
0.0202481
0.0244944
0.0290846
0.0339613
0.0390648
0.0443355
0.0497158
0.0551516
0.060593
0.065995
0.0713182
0.0765286
0.0815978
0.0865023
0.0912233
0.0957459
0.10006
0.104158
0.108038
0.111697
0.115137
0.11836
0.121371
0.124175
0.126775
0.129177
0.131384
0.1334
0.135225
0.136858
0.138294
0.139523
0.140531
0.141295
0.141777
0.141937
0.141719
0.141031
0.139753
0.132448
0.121214
0.109928
0.0987771
0.0878907
0.0773769
0.0673306
0.0578203
0.0489046
0.0406339
0.0330551
0.0262107
0.0201513
0.0149234
0.0105636
0.00709233
0.00449039
0.00267647
0.00150717
0.000803459
0.000410354
0.000202248
9.71446e-05
4.56882e-05
2.10891e-05
9.57129e-06
4.27764e-06
1.88521e-06
8.20354e-07
3.52913e-07
1.50267e-07
6.33898e-08
2.65092e-08
1.09859e-08
4.499e-09
1.80426e-09
6.89849e-10
2.30295e-10
4.03899e-11
4.565e-07
1.99506e-06
4.58301e-06
8.92146e-06
1.61587e-05
2.81533e-05
4.7872e-05
7.99754e-05
0.000131649
0.000213736
0.000342185
0.000539758
0.000837783
0.00127751
0.00191035
0.00279621
0.00399919
0.00558085
0.00759224
0.0100669
0.0130171