/*--------------------------------*- C++ -*----------------------------------*\
  =========                 |
  \\      /  F ield         | OpenFOAM: The Open Source CFD Toolbox
   \\    /   O peration     | Website:  https://openfoam.org
    \\  /    A nd           | Version:  8
     \\/     M anipulation  |
\*---------------------------------------------------------------------------*/
FoamFile
{
    version     2.0;
    format      ascii;
    class       volScalarField;
    location    "680/fluid";
    object      H2O;
}
// * * * * * * * * * * * * * * * * * * * * * * * * * * * * * * * * * * * * * //

dimensions      [0 0 0 0 0 0 0];

internalField   nonuniform List<scalar> 
4000
(
3.86945e-07
1.69077e-06
3.88283e-06
7.5565e-06
1.36867e-05
2.38593e-05
4.06236e-05
6.80193e-05
0.000112339
0.000183186
0.000294849
0.000467953
0.00073114
0.00112231
0.00168868
0.00248469
0.00356735
0.00498914
0.00679026
0.00899258
0.0115972
0.0145856
0.017924
0.0215681
0.0254673
0.029569
0.0338208
0.0381726
0.0425776
0.046993
0.051381
0.0557084
0.0599472
0.0640741
0.0680705
0.0719216
0.0756159
0.0791458
0.0825061
0.0856947
0.0887112
0.091557
0.094235
0.0967489
0.0991031
0.101302
0.103352
0.105255
0.107017
0.108641
0.110127
0.111477
0.112689
0.113756
0.11467
0.115416
0.115974
0.116311
0.116392
0.116165
0.115549
0.114441
0.112292
0.103654
0.0948742
0.0860985
0.0774413
0.0689921
0.0608223
0.0529899
0.0455441
0.0385281
0.0319827
0.0259781
0.0204923
0.0156118
0.0113892
0.0078763
0.00511133
0.00308947
0.00173634
0.000912009
0.000451942
0.000214785
9.91739e-05
4.47576e-05
1.98279e-05
8.65019e-06
3.72564e-06
1.58736e-06
6.70157e-07
2.80742e-07
1.16824e-07
4.83162e-08
1.98506e-08
8.07784e-09
3.22598e-09
1.23098e-09
4.11015e-10
7.20525e-11
3.8773e-07
1.69464e-06
3.89366e-06
7.58281e-06
1.37451e-05
2.3979e-05
4.08502e-05
6.84151e-05
0.00011297
0.000184079
0.000295897
0.000468734
0.000730662
0.0011187
0.00167877
0.00246388
0.00352974
0.00492821
0.0066999
0.00886823
0.0114366
0.0143895
0.0176954
0.0213119
0.02519
0.0292775
0.0335221
0.0378732
0.0422832
0.0467087
0.0511107
0.0554551
0.0597131
0.0638606
0.0678783
0.0717509
0.0754665
0.0790169
0.0823969
0.0856039
0.0886375
0.091499
0.0941912
0.0967179
0.0990834
0.101293
0.103351
0.105262
0.10703
0.108659
0.11015
0.111503
0.112717
0.113786
0.114701
0.115448
0.116006
0.116342
0.116422
0.116192
0.115573
0.114459
0.111594
0.102896
0.0940689
0.0852559
0.0765684
0.068095
0.0599069
0.0520626
0.0446123
0.0376008
0.031071
0.0250972
0.0196604
0.0148524
0.0107272
0.00733531
0.00470613
0.00281743
0.001575
0.00082761
0.000412654
0.000197803
9.22565e-05
4.20685e-05
1.8819e-05
8.28066e-06
3.59185e-06
1.53886e-06
6.52327e-07
2.74024e-07
1.14215e-07
4.72729e-08
1.94246e-08
7.90249e-09
3.15464e-09
1.20326e-09
4.01625e-10
7.04186e-11
3.89149e-07
1.70106e-06
3.90937e-06
7.61558e-06
1.38078e-05
2.40916e-05
4.10417e-05
6.8721e-05
0.000113423
0.000184684
0.000296577
0.000469222
0.00073028
0.00111604
0.00167154
0.00244871
0.00350215
0.00488283
0.00663107
0.00877077
0.0113066
0.0142248
0.017496
0.0210801
0.0249296
0.0289939
0.0332215
0.0375621
0.0419682
0.0463957
0.0508053
0.0551621
0.0594364
0.0636032
0.0676424
0.071538
0.0752776
0.0788521
0.0822559
0.085486
0.0885417
0.091424
0.0941355
0.0966799
0.0990618
0.101286
0.103356
0.105278
0.107056
0.108692
0.110189
0.111548
0.112765
0.113836
0.114752
0.115499
0.116056
0.116388
0.116464
0.116226
0.115595
0.114463
0.110348
0.10161
0.0927467
0.0839044
0.0751971
0.066715
0.0585306
0.0507042
0.0432875
0.0363272
0.0298684
0.0239757
0.0186559
0.0139875
0.0100201
0.00679563
0.00432846
0.00257846
0.00143873
0.000756968
0.000378854
0.000182418
8.55089e-05
3.91947e-05
1.76234e-05
7.79219e-06
3.39486e-06
1.46006e-06
6.20912e-07
2.61491e-07
1.09197e-07
4.52535e-08
1.86087e-08
7.57311e-09
3.02331e-09
1.15303e-09
3.84773e-10
6.74574e-11
3.89349e-07
1.70193e-06
3.91135e-06
7.61913e-06
1.38126e-05
2.40938e-05
4.1026e-05
6.8646e-05
0.000113192
0.000184096
0.000295248
0.000466481
0.000725058
0.00110677
0.00165597
0.00242385
0.00346434
0.00482805
0.00655538
0.00867078
0.01118
0.0140704
0.0173143
0.0208725
0.024699
0.0287439
0.0329566
0.0372871
0.0416881
0.0461157
0.05053
0.054896
0.0591832
0.0633661
0.0674241
0.0713403
0.0751018
0.0786989
0.0821255
0.0853781
0.0884555
0.0913586
0.0940898
0.0966529
0.0990514
0.10129
0.103374
0.105307
0.107094
0.108739
0.110242
0.111605
0.112825
0.113897
0.114812
0.115557
0.116108
0.116432
0.116497
0.116244
0.115593
0.114433
0.108793
0.100043
0.0911665
0.0823151
0.0736081
0.0651391
0.056983
0.0492017
0.0418483
0.0349706
0.028615
0.0228238
0.017645
0.013131
0.00932746
0.00626886
0.00395766
0.00233982
0.0012988
0.000681705
0.000341249
0.000164636
7.74027e-05
3.56036e-05
1.60693e-05
7.13253e-06
3.11936e-06
1.34649e-06
5.74561e-07
2.42711e-07
1.01625e-07
4.22112e-08
1.73901e-08
7.08774e-09
2.83275e-09
1.0812e-09
3.60945e-10
6.32967e-11
3.88446e-07
1.69791e-06
3.9018e-06
7.5995e-06
1.37743e-05
2.40201e-05
4.08855e-05
6.83797e-05
0.000112692
0.00018317
0.000293563
0.000463484
0.000719871
0.00109807
0.00164187
0.00240185
0.00343143
0.0047809
0.00649073
0.00858586
0.0110728
0.0139402
0.0171612
0.020698
0.0245053
0.0285342
0.0327345
0.0370566
0.0414534
0.045881
0.0502993
0.0546729
0.0589711
0.0631679
0.067242
0.0711762
0.0749569
0.0785741
0.0820211
0.085294
0.0883914
0.0913138
0.0940634
0.0966429
0.0990562
0.101308
0.103404
0.105348
0.107143
0.108794
0.110302
0.111668
0.112888
0.113958
0.114869
0.115606
0.116147
0.116457
0.116504
0.116229
0.115546
0.114351
0.107154
0.0984194
0.0895419
0.0806906
0.0719933
0.0635482
0.0554323
0.0477085
0.04043
0.0336443
0.0274087
0.0217397
0.016701
0.0123394
0.00869538
0.00579517
0.00362946
0.00213176
0.00117821
0.00061724
0.00030903
0.000149316
7.03525e-05
3.24406e-05
1.46789e-05
6.53146e-06
2.8631e-06
1.23849e-06
5.29477e-07
2.24039e-07
9.39419e-08
3.90671e-08
1.61109e-08
6.57156e-09
2.62799e-09
1.00342e-09
3.35015e-10
5.8755e-11
3.86624e-07
1.68984e-06
3.88279e-06
7.56117e-06
1.37016e-05
2.38866e-05
4.06445e-05
6.79503e-05
0.000111936
0.000181857
0.000291321
0.000459731
0.000713735
0.0010883
0.00162681
0.00237939
0.00339916
0.00473628
0.00643139
0.00850988
0.010979
0.0138281
0.0170313
0.0205515
0.0243443
0.0283611
0.0325523
0.0368685
0.0412628
0.0456912
0.0501137
0.0544945
0.0588025
0.0630115
0.0670997
0.0710496
0.0748471
0.0784817
0.0819464
0.085237
0.0883519
0.0912913
0.094056
0.0966496
0.099076
0.10134
0.103445
0.105397
0.107199
0.108855
0.110365
0.11173
0.112947
0.114012
0.114913
0.115636
0.11616
0.116447
0.116468
0.116162
0.115447
0.114232
0.1058
0.0969952
0.0880641
0.0791831
0.0704808
0.0620538
0.0539773
0.0463121
0.0391092
0.0324147
0.0262955
0.0207451
0.0158403
0.011623
0.00812777
0.00537266
0.00333792
0.00194687
0.00107039
0.000558915
0.000279395
0.000135003
6.36623e-05
2.93957e-05
1.33236e-05
5.93958e-06
2.60874e-06
1.13066e-06
4.84288e-07
2.05277e-07
8.62112e-08
3.59023e-08
1.48233e-08
6.05222e-09
2.42206e-09
9.25205e-10
3.08945e-10
5.41888e-11
3.84379e-07
1.67997e-06
3.85979e-06
7.51549e-06
1.36168e-05
2.37342e-05
4.03762e-05
6.74851e-05
0.00011114
0.000180513
0.000289088
0.000456085
0.000707908
0.00107922
0.00161303
0.00235917
0.00337047
0.00469709
0.00637981
0.0084445
0.010899
0.0137334
0.0169225
0.0204299
0.0242116
0.0282196
0.0324043
0.036717
0.0411104
0.0455407
0.0499677
0.0543554
0.0586726
0.0628926
0.0669934
0.0709571
0.0747693
0.0784191
0.0818992
0.0852053
0.0883348
0.0912874
0.0940651
0.0966707
0.0991079
0.101381
0.103494
0.105452
0.107259
0.108916
0.110426
0.111788
0.112999
0.114053
0.114939
0.115641
0.116135
0.116381
0.116352
0.115977
0.115179
0.11388
0.104967
0.095888
0.0868049
0.0778472
0.0691181
0.0606997
0.0526584
0.045049
0.037918
0.0313066
0.0252816
0.0198381
0.0150605
0.0109814
0.00762714
0.00500453
0.00308646
0.00178872
0.000978703
0.000509443
0.000254241
0.000122812
5.79315e-05
2.67685e-05
1.21443e-05
5.41981e-06
2.38326e-06
1.03418e-06
4.43491e-07
1.882e-07
7.91238e-08
3.29827e-08
1.36294e-08
5.56854e-09
2.22959e-09
8.51914e-10
2.84474e-10
4.98985e-11
3.81983e-07
1.66945e-06
3.83539e-06
7.4673e-06
1.35278e-05
2.35757e-05
4.00999e-05
6.7011e-05
0.000110338
0.000179177
0.000286898
0.000452563
0.000702366
0.00107071
0.00160034
0.00234082
0.00334485
0.00466258
0.00633502
0.00838842
0.0108312
0.013654
0.0168322
0.0203298
0.0241033
0.0281051
0.0322858
0.0365965
0.0409904
0.0454234
0.0498552
0.0542498
0.0585755
0.0628055
0.0669175
0.0708932
0.0747179
0.0783808
0.0818742
0.0851929
0.0883343
0.0912986
0.0940871
0.0967024
0.0991483
0.101429
0.103548
0.10551
0.107319
0.108977
0.110484
0.111842
0.113045
0.114086
0.114954
0.115629
0.116082
0.116273
0.11616
0.115657
0.114655
0.113028
0.103949
0.0947529
0.085597
0.0766042
0.067871
0.0594742
0.051476
0.0439284
0.0368765
0.0303617
0.0244434
0.0191156
0.0144378
0.0104542
0.00720431
0.00469167
0.0028726
0.00165417
0.000900553
0.000467106
0.000232585
0.000112251
5.29366e-05
2.4465e-05
1.11048e-05
4.95938e-06
2.18266e-06
9.48024e-07
4.06942e-07
1.72859e-07
7.27422e-08
3.03488e-08
1.25504e-08
5.13086e-09
2.05523e-09
7.85455e-10
2.62272e-10
4.60048e-11
3.79634e-07
1.65915e-06
3.81159e-06
7.4205e-06
1.34419e-05
2.34236e-05
3.98366e-05
6.65628e-05
0.000109587
0.000177937
0.000284885
0.000449358
0.000697373
0.00106312
0.00158913
0.00232476
0.00332263
0.0046329
0.00629683
0.00834101
0.0107743
0.0135879
0.0167577
0.020248
0.0240157
0.0280132
0.0321915
0.0365018
0.0408972
0.0453334
0.0497702
0.0541713
0.058505
0.062744
0.0668659
0.0708523
0.0746882
0.0783623
0.0818663
0.0851953
0.0883469
0.0913206
0.0941178
0.0967409
0.0991934
0.101479
0.103603
0.105568
0.107378
0.109035
0.11054
0.111893
0.113089
0.11412
0.114974
0.11563
0.116058
0.116219
0.116064
0.115507
0.114436
0.112064
0.102893
0.0936384
0.0844517
0.0754522
0.0667328
0.0583674
0.0504163
0.0429305
0.0359552
0.0295343
0.0237261
0.0185048
0.0139304
0.0100405
0.00685977
0.00442681
0.00269113
0.00154014
0.000834415
0.000431293
0.000214252
0.000103294
4.86885e-05
2.24995e-05
1.02145e-05
4.56358e-06
2.00954e-06
8.73393e-07
3.7517e-07
1.59478e-07
6.71596e-08
2.80385e-08
1.16019e-08
4.74538e-09
1.90143e-09
7.26771e-10
2.42657e-10
4.25616e-11
3.77438e-07
1.64954e-06
3.78941e-06
7.37698e-06
1.33623e-05
2.32831e-05
3.95944e-05
6.61525e-05
0.000108903
0.000176815
0.000283076
0.000446497
0.000692948
0.00105645
0.00157935
0.00231087
0.00330355
0.00460764
0.00626458
0.00830131
0.0107271
0.0135335
0.0166968
0.0201818
0.0239453
0.0279402
0.0321175
0.0364283
0.0408257
0.0452655
0.0497072
0.0541145
0.0584553
0.0627024
0.066833
0.0708286
0.074674
0.0783572
0.0818702
0.0852081
0.088368
0.0913494
0.0941535
0.0967826
0.0992402
0.10153
0.103656
0.105623
0.107433
0.10909
0.110593
0.111941
0.113132
0.114155
0.115
0.115647
0.116063
0.116214
0.116052
0.115497
0.114446
0.111026
0.101838
0.0925765
0.0833945
0.0744112
0.0657197
0.0573933
0.0494908
0.0420619
0.0351536
0.028803
0.0230216
0.0178685
0.013384
0.00960264
0.00655006
0.00420086
0.00253391
0.00144226
0.000777998
0.000400849
0.000198684
9.56876e-05
4.50772e-05
2.08259e-05
9.455e-06
4.22519e-06
1.86122e-06
8.09313e-07
3.47834e-07
1.47945e-07
6.23398e-08
2.6041e-08
1.07808e-08
4.4113e-09
1.76802e-09
6.75835e-10
2.25632e-10
3.95703e-11
3.75455e-07
1.64087e-06
3.76941e-06
7.33784e-06
1.32908e-05
2.31574e-05
3.93784e-05
6.57881e-05
0.000108298
0.000175827
0.000281491
0.000444005
0.000689116
0.0010507
0.00157098
0.00229905
0.00328743
0.00458643
0.00623768
0.00826842
0.0106883
0.0134891
0.0166476
0.0201286
0.0238894
0.0278828
0.0320598
0.0363717
0.0407716
0.045215
0.0496615
0.0540744
0.0584218
0.062676
0.0668143
0.0708178
0.0746708
0.0783617
0.0818823
0.0852274
0.088394
0.0913815
0.0941909
0.0968246
0.0992858
0.101578
0.103706
0.105674
0.107484
0.109138
0.110639
0.111984
0.113169
0.114187
0.115026
0.115665
0.116073
0.116217
0.11605
0.115494
0.114447
0.110044
0.100854
0.0915985
0.0824308
0.0734716
0.0648156
0.0565332
0.048682
0.0413098
0.0344542
0.0281413
0.022423
0.0173394
0.0129309
0.00922985
0.00625734
0.00400556
0.00240254
0.00135933
0.000730395
0.00037523
0.0001856
8.92953e-05
4.20403e-05
1.94169e-05
8.81463e-06
3.93941e-06
1.73574e-06
7.55005e-07
3.24626e-07
1.38137e-07
5.82343e-08
2.43372e-08
1.00797e-08
4.1258e-09
1.65397e-09
6.32279e-10
2.11073e-10
3.70144e-11
3.7371e-07
1.63323e-06
3.75184e-06
7.30347e-06
1.32282e-05
2.30474e-05
3.919e-05
6.54713e-05
0.000107774
0.000174974
0.000280128
0.000441871
0.000685849
0.00104583
0.00156391
0.00228912
0.00327396
0.00456881
0.00621547
0.00824143
0.0106566
0.0134532
0.016608
0.0200863
0.0238453
0.027838
0.0320154
0.0363288
0.0407312
0.0451781
0.049629
0.054047
0.0584001
0.0626606
0.0668054
0.0708153
0.0746748
0.0783723
0.0818991
0.0852499
0.0884218
0.091414
0.0942274
0.0968644
0.0993281
0.101622
0.103751
0.105718
0.107527
0.10918
0.110678
0.112019
0.113199
0.114212
0.115043
0.115675
0.116077
0.116214
0.116042
0.115482
0.114435
0.109178
0.0999865
0.0907408
0.0815956
0.0726694
0.0640496
0.0558014
0.0479832
0.0406423
0.0338185
0.0275607
0.0219026
0.0168843
0.0125443
0.00891372
0.00601119
0.00382459
0.00229179
0.00129014
0.000690288
0.000353741
0.000174652
8.39508e-05
3.95017e-05
1.82388e-05
8.27882e-06
3.70007e-06
1.63053e-06
7.09417e-07
3.05121e-07
1.29883e-07
5.47753e-08
2.29002e-08
9.4877e-09
3.8846e-09
1.55761e-09
5.95498e-10
1.98787e-10
3.48623e-11
3.72206e-07
1.62666e-06
3.73672e-06
7.27394e-06
1.31744e-05
2.29533e-05
3.9029e-05
6.52011e-05
0.000107328
0.000174251
0.000278976
0.000440074
0.000683108
0.00104175
0.00155803
0.0022809
0.00326285
0.00455435
0.00619734
0.00821953
0.0106311
0.0134244
0.0165766
0.0200529
0.0238108
0.0278034
0.0319815
0.0362966
0.0407014
0.0451517
0.0496065
0.054029
0.0583871
0.0626529
0.066803
0.0708183
0.0746833
0.078386
0.0819178
0.0852731
0.0884491
0.0914448
0.0942611
0.0969003
0.0993655
0.101661
0.103789
0.105756
0.107563
0.109213
0.110707
0.112044
0.11322
0.114226
0.115051
0.115677
0.116071
0.116202
0.116024
0.115461
0.114415
0.108436
0.0992377
0.0899982
0.0808697
0.0719574
0.0633502
0.0551259
0.0473403
0.0400408
0.0332688
0.0270633
0.0214593
0.0164982
0.0122179
0.00864841
0.00580646
0.00367624
0.00219118
0.00123389
0.000657777
0.000335949
0.000165576
7.95303e-05
3.7404e-05
1.72652e-05
7.8358e-06
3.502e-06
1.54337e-06
6.71597e-07
2.88917e-07
1.23018e-07
5.18946e-08
2.1702e-08
8.99366e-09
3.68313e-09
1.47707e-09
5.64749e-10
1.88532e-10
3.30657e-11
3.70937e-07
1.62112e-06
3.72396e-06
7.24906e-06
1.31292e-05
2.28742e-05
3.8894e-05
6.49749e-05
0.000106956
0.000173648
0.000278019
0.000438584
0.000680843
0.0010384
0.0015532
0.00227418
0.00325381
0.00454263
0.00618272
0.00820196
0.0106107
0.0134016
0.0165518
0.0200269
0.0237842
0.0277769
0.031956
0.0362727
0.0406798
0.045133
0.0495912
0.0540176
0.0583799
0.06265
0.0668045
0.0708243
0.0746937
0.0784005
0.0819361
0.085295
0.0884739
0.0914721
0.0942904
0.096931
0.0993969
0.101692
0.10382
0.105785
0.10759
0.109238
0.110728
0.11206
0.11323
0.114231
0.11505
0.115669
0.116056
0.116181
0.115998
0.115432
0.11439
0.10781
0.0985995
0.0893616
0.0802349
0.0713367
0.0627546
0.0545585
0.0468052
0.0395419
0.0328099
0.0266472
0.0210885
0.0161755
0.0119455
0.00842791
0.00563733
0.00355484
0.00211015
0.00118328
0.000631445
0.000321967
0.000158296
7.59532e-05
3.57026e-05
1.64736e-05
7.47469e-06
3.34019e-06
1.47202e-06
6.40588e-07
2.75611e-07
1.17372e-07
4.95229e-08
2.07144e-08
8.58612e-09
3.51681e-09
1.41057e-09
5.39351e-10
1.80073e-10
3.15822e-11
3.69888e-07
1.61654e-06
3.71344e-06
7.22854e-06
1.30919e-05
2.2809e-05
3.8783e-05
6.47893e-05
0.000106651
0.000173156
0.000277239
0.000437373
0.000679006
0.00103569
0.00154931
0.00226877
0.00324657
0.00453328
0.0061711
0.00818806
0.0105947
0.0133838
0.0165326
0.0200068
0.0237639
0.0277569
0.0319369
0.0362551
0.0406643
0.0451199
0.0495811
0.0540107
0.0583763
0.0626499
0.066808
0.0708314
0.0747041
0.0784141
0.0819526
0.0853139
0.088495
0.0914949
0.0943143
0.0969555
0.0994215
0.101716
0.103843
0.105806
0.107609
0.109253
0.110739
0.112067
0.113232
0.114227
0.11504
0.115652
0.116033
0.116153
0.115965
0.115397
0.114361
0.107286
0.0980625
0.0888217
0.0797046
0.070822
0.0622604
0.0540887
0.046363
0.0391301
0.0324311
0.0263039
0.0207826
0.0159095
0.0117214
0.00824686
0.00549901
0.00345615
0.00204486
0.00114312
0.000608136
0.000310439
0.000152717
7.31573e-05
3.43405e-05
1.58344e-05
7.18243e-06
3.20905e-06
1.41413e-06
6.15403e-07
2.64795e-07
1.12779e-07
4.75923e-08
1.991e-08
8.25429e-09
3.38124e-09
1.35664e-09
5.187e-10
1.73221e-10
3.03795e-11
3.69045e-07
1.61285e-06
3.70498e-06
7.21205e-06
1.3062e-05
2.27568e-05
3.86941e-05
6.46409e-05
0.000106407
0.000172763
0.000276618
0.00043641
0.00067755
0.00103354
0.00154624
0.00226452
0.00324089
0.00452597
0.00616205
0.00817728
0.0105823
0.0133701
0.016518
0.0199916
0.0237486
0.027742
0.0319229
0.0362424
0.0406533
0.045111
0.0495744
0.0540066
0.0583749
0.0626512
0.066812
0.070838
0.0747132
0.0784255
0.081966
0.085329
0.0885115
0.0915123
0.0943323
0.0969735
0.099439
0.101733
0.103858
0.105819
0.107619
0.109259
0.110742
0.112065
0.113226
0.114215
0.115023
0.11563
0.116006
0.116121
0.115932
0.115364
0.114333
0.106863
0.0976272
0.0883835
0.0792727
0.0704026
0.0618581
0.0537068
0.0460041
0.0387963
0.0321245
0.0260261
0.0205353
0.0156946
0.0115406
0.00810111
0.00538793
0.00337716
0.00199285
0.00111132
0.000589827
0.000300248
0.000147542
7.07954e-05
3.32398e-05
1.53211e-05
6.94697e-06
3.1034e-06
1.36754e-06
5.9516e-07
2.56112e-07
1.09095e-07
4.60455e-08
1.92658e-08
7.9896e-09
3.27311e-09
1.31395e-09
5.0233e-10
1.67801e-10
2.94279e-11
3.68392e-07
1.61e-06
3.69842e-06
7.19928e-06
1.30389e-05
2.27164e-05
3.86254e-05
6.45263e-05
0.000106219
0.000172461
0.00027614
0.000435672
0.000676434
0.0010319
0.00154389
0.00226129
0.00323658
0.00452044
0.00615522
0.00816917
0.0105731
0.0133598
0.0165071
0.0199803
0.0237373
0.0277311
0.0319127
0.0362333
0.0406455
0.0451048
0.04957
0.0540041
0.0583743
0.0626526
0.0668154
0.0708431
0.0747201
0.0784338
0.0819756
0.0853397
0.0885229
0.0915241
0.0943441
0.0969848
0.0994495
0.101742
0.103865
0.105824
0.107621
0.109258
0.110737
0.112056
0.113212
0.114197
0.114999
0.115603
0.115977
0.116094
0.115911
0.115359
0.114364
0.106527
0.0972783
0.0880337
0.0789289
0.0700697
0.0615395
0.0534051
0.0457212
0.0385339
0.0318839
0.0258085
0.0203418
0.0155268
0.0113996
0.00798767
0.0053017
0.00331602
0.00195272
0.00108694
0.000575976
0.000292796
0.000143706
6.88767e-05
3.23627e-05
1.49259e-05
6.76733e-06
3.0224e-06
1.3317e-06
5.79497e-07
2.49387e-07
1.06241e-07
4.48499e-08
1.87691e-08
7.78683e-09
3.19053e-09
1.2813e-09
4.8983e-10
1.63668e-10
2.87024e-11
3.67914e-07
1.60791e-06
3.69363e-06
7.18995e-06
1.3022e-05
2.2687e-05
3.85753e-05
6.44428e-05
0.000106083
0.000172241
0.000275793
0.000435136
0.000675625
0.00103071
0.0015422
0.00225895
0.00323347
0.00451646
0.00615032
0.00816337
0.0105664
0.0133526
0.0164993
0.0199724
0.0237295
0.0277236
0.0319057
0.0362271
0.0406403
0.0451007
0.0495672
0.0540025
0.0583741
0.0626536
0.0668175
0.0708464
0.0747242
0.0784388
0.0819813
0.0853459
0.0885292
0.0915304
0.09435
0.0969901
0.0994537
0.101744
0.103866
0.105822
0.107616
0.10925
0.110726
0.11204
0.113191
0.114172
0.11497
0.115569
0.11594
0.116056
0.115874
0.115327
0.114342
0.106286
0.0970206
0.0877714
0.0786698
0.0698186
0.0612997
0.0531787
0.0455096
0.0383381
0.0317049
0.025647
0.0201986
0.0154028
0.0112957
0.0079043
0.00523853
0.00327138
0.00192349
0.00106919
0.000565903
0.000287394
0.000140936
6.75045e-05
3.16891e-05
1.46115e-05
6.62916e-06
2.9624e-06
1.30559e-06
5.68276e-07
2.44613e-07
1.04221e-07
4.40112e-08
1.84198e-08
7.64414e-09
3.13223e-09
1.25823e-09
4.80994e-10
1.60744e-10
2.81885e-11
3.67603e-07
1.60655e-06
3.69051e-06
7.18387e-06
1.3011e-05
2.26678e-05
3.85427e-05
6.43885e-05
0.000105994
0.000172098
0.000275568
0.000434788
0.000675102
0.00102994
0.00154111
0.00225744
0.00323146
0.00451389
0.00614717
0.00815964
0.0105622
0.0133479
0.0164944
0.0199674
0.0237245
0.0277188
0.0319013
0.0362232
0.040637
0.0450982
0.0495654
0.0540015
0.0583738
0.062654
0.0668185
0.0708478
0.0747261
0.0784409
0.0819836
0.0853482
0.0885315
0.0915324
0.0943514
0.0969907
0.0994532
0.101742
0.103862
0.105816
0.107608
0.109239
0.110711
0.112022
0.113168
0.114144
0.114938
0.115534
0.115902
0.116016
0.115836
0.115296
0.114325
0.106127
0.0968459
0.0875916
0.0784916
0.0696463
0.0611358
0.0530247
0.0453665
0.0382064
0.031585
0.0255393
0.0201035
0.0153208
0.0112272
0.00784959
0.00519727
0.00324237
0.00190459
0.00105773
0.000559389
0.0002839
0.000139146
6.66476e-05
3.12767e-05
1.44211e-05
6.53968e-06
2.92198e-06
1.28833e-06
5.60849e-07
2.41516e-07
1.02912e-07
4.34722e-08
1.81955e-08
7.55299e-09
3.09499e-09
1.24354e-09
4.75365e-10
1.58888e-10
2.78625e-11
3.67452e-07
1.60589e-06
3.68899e-06
7.18093e-06
1.30056e-05
2.26585e-05
3.85271e-05
6.43625e-05
0.000105951
0.00017203
0.000275461
0.000434623
0.000674854
0.00102958
0.00154059
0.00225673
0.00323052
0.00451268
0.00614568
0.00815788
0.0105602
0.0133457
0.0164921
0.019965
0.0237221
0.0277165
0.0318992
0.0362213
0.0406355
0.0450969
0.0495645
0.054001
0.0583736
0.0626542
0.0668189
0.0708482
0.0747264
0.0784412
0.0819838
0.0853483
0.0885313
0.0915319
0.0943505
0.0969891
0.0994508
0.101739
0.103858
0.10581
0.1076
0.109229
0.110698
0.112006
0.11315
0.114123
0.114914
0.115506
0.115872
0.115985
0.115806
0.115272
0.114316
0.106049
0.096754
0.0874954
0.0783965
0.0695551
0.06105
0.052945
0.0452932
0.0381397
0.0315248
0.0254858
0.0200567
0.0152808
0.0111941
0.00782336
0.00517764
0.00322869
0.00189576
0.00105241
0.000556377
0.000282283
0.000138322
6.62618e-05
3.10905e-05
1.43356e-05
6.50028e-06
2.90385e-06
1.28037e-06
5.57319e-07
2.40023e-07
1.02276e-07
4.32097e-08
1.80862e-08
7.50857e-09
3.07685e-09
1.23639e-09
4.72625e-10
1.57983e-10
2.77036e-11
3.67453e-07
1.6059e-06
3.68901e-06
7.18096e-06
1.30057e-05
2.26586e-05
3.85272e-05
6.43627e-05
0.000105952
0.000172031
0.000275462
0.000434625
0.000674856
0.00102958
0.00154059
0.00225674
0.00323053
0.0045127
0.00614569
0.0081579
0.0105602
0.0133458
0.0164921
0.019965
0.0237221
0.0277166
0.0318993
0.0362214
0.0406355
0.045097
0.0495645
0.054001
0.0583737
0.0626542
0.0668189
0.0708483
0.0747264
0.0784412
0.0819838
0.0853483
0.0885314
0.0915319
0.0943505
0.0969892
0.0994508
0.101739
0.103858
0.10581
0.1076
0.109229
0.110698
0.112006
0.11315
0.114123
0.114914
0.115506
0.115872
0.115985
0.115806
0.115272
0.114316
0.106049
0.096754
0.0874954
0.0783965
0.0695551
0.06105
0.052945
0.0452932
0.0381397
0.0315248
0.0254858
0.0200567
0.0152808
0.0111941
0.00782336
0.00517765
0.00322869
0.00189576
0.00105241
0.000556378
0.000282284
0.000138323
6.62608e-05
3.109e-05
1.43341e-05
6.5004e-06
2.90381e-06
1.28037e-06
5.57315e-07
2.40018e-07
1.02273e-07
4.32083e-08
1.80856e-08
7.50826e-09
3.07672e-09
1.23632e-09
4.72599e-10
1.5797e-10
2.77011e-11
3.67607e-07
1.60657e-06
3.69055e-06
7.18396e-06
1.30111e-05
2.2668e-05
3.85432e-05
6.43892e-05
0.000105995
0.0001721
0.000275571
0.000434793
0.000675109
0.00102995
0.00154112
0.00225746
0.00323149
0.00451393
0.00614721
0.0081597
0.0105623
0.013348
0.0164945
0.0199674
0.0237246
0.0277189
0.0319014
0.0362233
0.0406371
0.0450982
0.0495655
0.0540016
0.0583739
0.0626541
0.0668186
0.0708479
0.0747261
0.078441
0.0819837
0.0853483
0.0885316
0.0915324
0.0943515
0.0969908
0.0994533
0.101743
0.103862
0.105816
0.107608
0.109239
0.110711
0.112022
0.113168
0.114144
0.114938
0.115534
0.115902
0.116016
0.115836
0.115296
0.114325
0.106127
0.0968458
0.0875914
0.0784914
0.0696462
0.0611357
0.0530246
0.0453664
0.0382064
0.031585
0.0255393
0.0201035
0.0153208
0.0112272
0.0078496
0.00519728
0.00324238
0.0019046
0.00105773
0.000559393
0.000283902
0.000139148
6.66465e-05
3.12762e-05
1.44185e-05
6.53988e-06
2.92187e-06
1.28831e-06
5.60836e-07
2.41504e-07
1.02908e-07
4.34691e-08
1.81943e-08
7.55226e-09
3.09469e-09
1.24336e-09
4.75298e-10
1.58851e-10
2.78558e-11
3.67922e-07
1.60795e-06
3.6937e-06
7.1901e-06
1.30222e-05
2.26874e-05
3.85761e-05
6.44441e-05
0.000106085
0.000172244
0.000275798
0.000435144
0.000675637
0.00103073
0.00154223
0.00225899
0.00323351
0.00451652
0.00615039
0.00816346
0.0105665
0.0133527
0.0164995
0.0199725
0.0237296
0.0277237
0.0319059
0.0362272
0.0406405
0.0451009
0.0495673
0.0540027
0.0583742
0.0626538
0.0668177
0.0708465
0.0747244
0.0784389
0.0819814
0.085346
0.0885293
0.0915305
0.0943501
0.0969902
0.0994537
0.101744
0.103866
0.105822
0.107616
0.109251
0.110726
0.11204
0.113191
0.114172
0.11497
0.115569
0.11594
0.116056
0.115874
0.115327
0.114342
0.106286
0.0970204
0.0877712
0.0786696
0.0698184
0.0612995
0.0531785
0.0455095
0.038338
0.0317048
0.0256469
0.0201985
0.0154028
0.0112957
0.0079043
0.00523854
0.00327139
0.0019235
0.0010692
0.000565909
0.000287398
0.000140938
6.75053e-05
3.16892e-05
1.46113e-05
6.62907e-06
2.96234e-06
1.30556e-06
5.6826e-07
2.446e-07
1.04214e-07
4.40072e-08
1.8418e-08
7.64314e-09
3.13181e-09
1.25798e-09
4.80896e-10
1.60694e-10
2.81801e-11
3.68402e-07
1.61004e-06
3.69852e-06
7.19948e-06
1.30392e-05
2.27171e-05
3.86265e-05
6.4528e-05
0.000106222
0.000172465
0.000276147
0.000435683
0.000676451
0.00103192
0.00154393
0.00226133
0.00323664
0.00452052
0.00615532
0.00816929
0.0105732
0.01336
0.0165072
0.0199805
0.0237376
0.0277313
0.031913
0.0362335
0.0406458
0.0451051
0.0495703
0.0540043
0.0583745
0.0626528
0.0668156
0.0708433
0.0747202
0.078434
0.0819758
0.0853398
0.088523
0.0915242
0.0943442
0.096985
0.0994496
0.101742
0.103865
0.105824
0.107621
0.109258
0.110737
0.112056
0.113212
0.114197
0.114999
0.115603
0.115977
0.116094
0.115911
0.115359
0.114364
0.106527
0.097278
0.0880334
0.0789286
0.0700694
0.0615392
0.0534049
0.045721
0.0385338
0.0318838
0.0258084
0.0203417
0.0155267
0.0113996
0.00798767
0.00530171
0.00331604
0.00195274
0.00108695
0.000575985
0.000292802
0.00014371
6.88788e-05
3.23638e-05
1.49263e-05
6.76738e-06
3.02243e-06
1.3317e-06
5.79497e-07
2.49387e-07
1.0624e-07
4.48489e-08
1.87685e-08
7.78627e-09
3.19025e-09
1.28107e-09
4.8976e-10
1.63622e-10
2.86945e-11
3.69058e-07
1.61291e-06
3.70511e-06
7.2123e-06
1.30625e-05
2.27576e-05
3.86954e-05
6.46431e-05
0.000106411
0.000172769
0.000276626
0.000436424
0.000677571
0.00103357
0.00154628
0.00226458
0.00324097
0.00452608
0.00616218
0.00817744
0.0105825
0.0133703
0.0165182
0.0199918
0.0237488
0.0277423
0.0319231
0.0362427
0.0406536
0.0451113
0.0495747
0.0540069
0.0583751
0.0626514
0.0668123
0.0708382
0.0747134
0.0784257
0.0819662
0.0853292
0.0885117
0.0915125
0.0943324
0.0969736
0.0994392
0.101733
0.103858
0.105819
0.107619
0.109259
0.110742
0.112065
0.113226
0.114215
0.115023
0.11563
0.116006
0.116121
0.115932
0.115364
0.114333
0.106862
0.0976267
0.088383
0.0792723
0.0704022
0.0618576
0.0537064
0.0460037
0.0387961
0.0321243
0.0260259
0.0205352
0.0156945
0.0115406
0.0081011
0.00538793
0.00337718
0.00199286
0.00111134
0.000589839
0.000300257
0.000147548
7.07988e-05
3.32414e-05
1.53219e-05
6.94745e-06
3.10359e-06
1.36762e-06
5.95194e-07
2.56125e-07
1.091e-07
4.60471e-08
1.92664e-08
7.98958e-09
3.27306e-09
1.31375e-09
5.0229e-10
1.6776e-10
2.94209e-11
3.69904e-07
1.61661e-06
3.71359e-06
7.22884e-06
1.30925e-05
2.281e-05
3.87846e-05
6.47919e-05
0.000106655
0.000173163
0.000277249
0.000437389
0.000679031
0.00103572
0.00154936
0.00226885
0.00324667
0.0045334
0.00617125
0.00818825
0.0105949
0.013384
0.0165329
0.0200071
0.0237642
0.0277572
0.0319372
0.0362555
0.0406647
0.0451203
0.0495814
0.054011
0.0583767
0.0626502
0.0668083
0.0708317
0.0747044
0.0784144
0.0819529
0.0853142
0.0884952
0.0914951
0.0943145
0.0969557
0.0994217
0.101716
0.103843
0.105806
0.107609
0.109253
0.110739
0.112067
0.113232
0.114227
0.11504
0.115652
0.116033
0.116153
0.115965
0.115397
0.114361
0.107285
0.0980618
0.088821
0.0797039
0.0708213
0.0622597
0.0540881
0.0463624
0.0391296
0.0324307
0.0263036
0.0207823
0.0159093
0.0117213
0.00824683
0.005499
0.00345616
0.00204487
0.00114313
0.000608144
0.000310444
0.000152719
7.31586e-05
3.4341e-05
1.58349e-05
7.18263e-06
3.20915e-06
1.41418e-06
6.15423e-07
2.64804e-07
1.12783e-07
4.75938e-08
1.99107e-08
8.25448e-09
3.38138e-09
1.35652e-09
5.18691e-10
1.73195e-10
3.0375e-11
3.70955e-07
1.6212e-06
3.72415e-06
7.24941e-06
1.31298e-05
2.28753e-05
3.88958e-05
6.49779e-05
0.000106961
0.000173656
0.000278031
0.000438603
0.000680872
0.00103844
0.00155326
0.00227426
0.00325392
0.00454277
0.0061829
0.00820218
0.010611
0.0134019
0.0165522
0.0200272
0.0237846
0.0277773
0.0319564
0.0362731
0.0406802
0.0451334
0.0495916
0.054018
0.0583803
0.0626504
0.0668049
0.0708247
0.074694
0.0784008
0.0819364
0.0852952
0.0884742
0.0914724
0.0942906
0.0969312
0.0993971
0.101692
0.10382
0.105785
0.10759
0.109238
0.110728
0.11206
0.113231
0.114231
0.11505
0.115669
0.116056
0.116181
0.115998
0.115432
0.11439
0.107809
0.0985986
0.0893606
0.0802338
0.0713355
0.0627533
0.0545573
0.046804
0.0395408
0.032809
0.0266466
0.0210881
0.0161752
0.0119454
0.00842785
0.00563731
0.00355485
0.00211016
0.00118329
0.000631451
0.00032197
0.000158297
7.59537e-05
3.57029e-05
1.64737e-05
7.47474e-06
3.34023e-06
1.47204e-06
6.40601e-07
2.75618e-07
1.17375e-07
4.95244e-08
2.07151e-08
8.5864e-09
3.51694e-09
1.4106e-09
5.39368e-10
1.80069e-10
3.15814e-11
3.72227e-07
1.62675e-06
3.73692e-06
7.27434e-06
1.31752e-05
2.29545e-05
3.90311e-05
6.52045e-05
0.000107334
0.00017426
0.00027899
0.000440095
0.00068314
0.0010418
0.00155809
0.00228099
0.00326298
0.00455451
0.00619755
0.00821978
0.0106314
0.0134248
0.016577
0.0200533
0.0238113
0.0278038
0.031982
0.0362971
0.0407019
0.0451522
0.0496069
0.0540295
0.0583876
0.0626533
0.0668034
0.0708187
0.0746837
0.0783864
0.0819181
0.0852735
0.0884494
0.0914451
0.0942614
0.0969005
0.0993658
0.101661
0.10379
0.105756
0.107563
0.109213
0.110708
0.112044
0.11322
0.114226
0.115051
0.115677
0.116071
0.116202
0.116024
0.115461
0.114415
0.108434
0.0992365
0.0899968
0.080868
0.0719553
0.0633478
0.0551229
0.047337
0.0400377
0.0332666
0.0270619
0.0214585
0.0164977
0.0122176
0.00864831
0.00580643
0.00367624
0.0021912
0.0012339
0.000657785
0.000335953
0.000165578
7.95315e-05
3.74045e-05
1.72655e-05
7.83593e-06
3.50207e-06
1.5434e-06
6.71617e-07
2.88927e-07
1.23022e-07
5.18967e-08
2.17029e-08
8.99405e-09
3.6833e-09
1.47713e-09