/*--------------------------------*- C++ -*----------------------------------*\
  =========                 |
  \\      /  F ield         | OpenFOAM: The Open Source CFD Toolbox
   \\    /   O peration     | Website:  https://openfoam.org
    \\  /    A nd           | Version:  8
     \\/     M anipulation  |
\*---------------------------------------------------------------------------*/
FoamFile
{
    version     2.0;
    format      ascii;
    class       volScalarField;
    location    "680/fluid";
    object      N2;
}
// * * * * * * * * * * * * * * * * * * * * * * * * * * * * * * * * * * * * * //

dimensions      [0 0 0 0 0 0 0];

internalField   nonuniform List<scalar> 
4000
(
2.3033e-06
1.00643e-05
2.31124e-05
4.49795e-05
8.1468e-05
0.000142017
0.0002418
0.000404858
0.000668644
0.00109031
0.00175489
0.00278512
0.00435143
0.00667938
0.0100498
0.0147867
0.0212291
0.0296892
0.040406
0.0535094
0.0690056
0.0867848
0.106646
0.128324
0.151519
0.175917
0.201208
0.227093
0.253293
0.279555
0.305652
0.331389
0.356598
0.38114
0.404906
0.427809
0.44978
0.470775
0.490766
0.509739
0.527697
0.544649
0.560617
0.575626
0.58971
0.602904
0.615247
0.62678
0.637544
0.647581
0.656932
0.665639
0.67374
0.681275
0.68828
0.694791
0.700841
0.706388
0.711482
0.716352
0.720881
0.725097
0.728969
0.732687
0.736243
0.739642
0.742886
0.745975
0.748908
0.751681
0.754292
0.756734
0.759001
0.761072
0.762959
0.764636
0.766086
0.767293
0.768243
0.768938
0.769403
0.769687
0.769845
0.769926
0.769966
0.769985
0.769993
0.769997
0.769999
0.769999
0.77
0.77
0.77
0.77
0.77
0.77
0.77
0.77
0.77
0.77
2.3078e-06
1.00866e-05
2.31751e-05
4.51325e-05
8.18089e-05
0.000142718
0.000243128
0.000407181
0.000672345
0.00109553
0.00176098
0.00278956
0.0043483
0.00665748
0.00999032
0.0146622
0.0210045
0.0293256
0.0398672
0.0527683
0.0680494
0.0856168
0.105284
0.126799
0.149868
0.174183
0.199432
0.225313
0.251543
0.277865
0.304046
0.329884
0.355207
0.379873
0.403766
0.426797
0.448895
0.470012
0.49012
0.509204
0.527264
0.544311
0.560364
0.575451
0.589604
0.602861
0.615259
0.626841
0.637646
0.647719
0.657102
0.665834
0.673957
0.68151
0.68853
0.695052
0.701111
0.706662
0.711758
0.716632
0.721165
0.725378
0.729254
0.73298
0.736543
0.739949
0.743199
0.746292
0.749229
0.752004
0.754615
0.757055
0.759315
0.761375
0.763244
0.764896
0.766314
0.767479
0.768383
0.769032
0.769459
0.769716
0.769858
0.769932
0.769968
0.769986
0.769994
0.769997
0.769999
0.769999
0.77
0.77
0.77
0.77
0.77
0.77
0.77
0.77
0.77
0.77
2.31606e-06
1.0124e-05
2.32668e-05
4.53241e-05
8.21766e-05
0.000143379
0.000244253
0.000408978
0.000675005
0.00109908
0.00176495
0.00279233
0.00434581
0.00664131
0.00994684
0.0145713
0.0208396
0.0290548
0.0394568
0.0521875
0.0672749
0.0846362
0.104098
0.125419
0.14832
0.172497
0.197645
0.223464
0.249672
0.276006
0.302233
0.328145
0.353565
0.378346
0.402368
0.425536
0.447777
0.469038
0.489289
0.508511
0.526704
0.543876
0.560047
0.575243
0.589497
0.602843
0.615322
0.626974
0.637843
0.64797
0.6574
0.666173
0.67433
0.681911
0.688954
0.695494
0.701567
0.707121
0.712219
0.717091
0.721611
0.725821
0.729715
0.733454
0.737026
0.740437
0.743688
0.74678
0.749711
0.752477
0.755074
0.757494
0.759729
0.76176
0.763589
0.765193
0.766556
0.767664
0.768512
0.769114
0.769505
0.76974
0.76987
0.769937
0.769971
0.769987
0.769994
0.769997
0.769999
0.769999
0.77
0.77
0.77
0.77
0.77
0.77
0.77
0.77
0.77
0.77
2.31706e-06
1.01284e-05
2.32767e-05
4.53416e-05
8.21986e-05
0.00014338
0.00024414
0.000408498
0.000673579
0.0010955
0.00175693
0.00277585
0.00431452
0.00658588
0.00985385
0.0144229
0.020614
0.0287282
0.0390057
0.051592
0.0665209
0.0837175
0.103016
0.124185
0.146948
0.171011
0.196071
0.221831
0.248009
0.274344
0.3006
0.326567
0.352065
0.376942
0.401076
0.424367
0.446738
0.468135
0.488522
0.507879
0.526203
0.543501
0.559792
0.575103
0.589461
0.602902
0.615466
0.627195
0.638132
0.648319
0.657801
0.666618
0.674812
0.682423
0.689491
0.69605
0.702137
0.707686
0.712773
0.717641
0.722168
0.726371
0.73028
0.734024
0.737599
0.741008
0.744254
0.747336
0.750253
0.753001
0.755573
0.757963
0.76016
0.762155
0.763935
0.765487
0.766794
0.767845
0.76864
0.769196
0.769554
0.769766
0.769883
0.769943
0.769973
0.769988
0.769994
0.769998
0.769999
0.77
0.77
0.77
0.77
0.77
0.77
0.77
0.77
0.77
0.77
0.77
2.31148e-06
1.01035e-05
2.32178e-05
4.52209e-05
8.19635e-05
0.00014293
0.000243286
0.000406887
0.000670563
0.00108993
0.00174681
0.00275789
0.00428348
0.00653386
0.00976962
0.0142917
0.0204178
0.0284472
0.0386206
0.0510863
0.0658832
0.0829427
0.102106
0.123147
0.145798
0.169766
0.194752
0.220463
0.246617
0.272952
0.299233
0.325246
0.35081
0.37577
0.4
0.423399
0.445886
0.467403
0.487913
0.507394
0.525839
0.543255
0.559659
0.575071
0.589523
0.603053
0.615697
0.627499
0.6385
0.648743
0.658272
0.66713
0.675358
0.682996
0.690085
0.69666
0.702751
0.708278
0.71337
0.71825
0.722774
0.726939
0.730875
0.734621
0.738193
0.741597
0.744832
0.7479
0.750798
0.753521
0.756065
0.758421
0.760575
0.762527
0.764259
0.765759
0.767011
0.768008
0.768752
0.769267
0.769595
0.769788
0.769894
0.769949
0.769976
0.769989
0.769995
0.769998
0.769999
0.77
0.77
0.77
0.77
0.77
0.77
0.77
0.77
0.77
0.77
0.77
2.30046e-06
1.00548e-05
2.3103e-05
4.49896e-05
8.15258e-05
0.000142127
0.000241838
0.000404309
0.000666031
0.00108207
0.0017334
0.00273546
0.00424683
0.00647558
0.00967977
0.0141578
0.0202255
0.0281815
0.0382673
0.0506341
0.065325
0.0822762
0.101334
0.122277
0.144842
0.168738
0.193671
0.219347
0.245487
0.271829
0.298134
0.324191
0.349814
0.374848
0.399163
0.422655
0.445243
0.466864
0.487479
0.507065
0.525618
0.543139
0.559638
0.575141
0.589679
0.603287
0.616003
0.627868
0.638924
0.649215
0.658785
0.667676
0.67593
0.683589
0.69069
0.697273
0.703372
0.708892
0.713998
0.718877
0.723393
0.727518
0.731452
0.735199
0.738767
0.742161
0.745384
0.748435
0.751312
0.75401
0.756524
0.758846
0.760959
0.762869
0.764555
0.766005
0.767206
0.768153
0.768852
0.769331
0.769632
0.769808
0.769904
0.769954
0.769978
0.76999
0.769995
0.769998
0.769999
0.77
0.77
0.77
0.77
0.77
0.77
0.77
0.77
0.77
0.77
0.77
2.28695e-06
9.99534e-06
2.29647e-05
4.47151e-05
8.10161e-05
0.000141212
0.00024023
0.000401523
0.000661267
0.00107403
0.00172005
0.00271369
0.00421206
0.00642138
0.00959765
0.0140372
0.0200546
0.0279481
0.0379604
0.0502453
0.0648495
0.0817136
0.100688
0.121555
0.144054
0.167899
0.192795
0.21845
0.244586
0.27094
0.297273
0.323372
0.34905
0.37415
0.398541
0.422117
0.444793
0.466509
0.487219
0.506899
0.525539
0.543142
0.559723
0.575303
0.589914
0.603587
0.616362
0.628279
0.639382
0.649712
0.659314
0.668231
0.676504
0.684175
0.691283
0.697866
0.70396
0.709429
0.714657
0.719504
0.723996
0.728086
0.732006
0.735743
0.739301
0.742684
0.745892
0.748925
0.75178
0.754452
0.756938
0.759229
0.761308
0.763181
0.764823
0.766225
0.767378
0.768279
0.768939
0.769385
0.769663
0.769825
0.769913
0.769958
0.76998
0.769991
0.769996
0.769998
0.769999
0.77
0.77
0.77
0.77
0.77
0.77
0.77
0.77
0.77
0.77
0.77
2.27257e-06
9.93222e-06
2.28183e-05
4.44262e-05
8.04832e-05
0.000140264
0.000238576
0.000398688
0.000656475
0.00106605
0.00170698
0.00269268
0.00417901
0.00637068
0.00952204
0.013928
0.0199021
0.0277428
0.0376941
0.049912
0.0644466
0.0812419
0.100152
0.120962
0.143413
0.167221
0.192094
0.217739
0.243878
0.270249
0.296612
0.322752
0.348482
0.373641
0.398099
0.421746
0.444496
0.466288
0.487079
0.506839
0.525556
0.543234
0.559885
0.575531
0.590202
0.603929
0.616753
0.628713
0.639851
0.650212
0.659839
0.668775
0.677062
0.684742
0.691856
0.698441
0.704513
0.709982
0.715213
0.720053
0.724534
0.728606
0.732516
0.736242
0.739789
0.743159
0.746351
0.749365
0.752197
0.754844
0.757299
0.759555
0.761596
0.763429
0.765037
0.766406
0.767523
0.768387
0.769012
0.769431
0.76969
0.769839
0.76992
0.769961
0.769982
0.769992
0.769996
0.769998
0.769999
0.77
0.77
0.77
0.77
0.77
0.77
0.77
0.77
0.77
0.77
0.77
2.25849e-06
9.87054e-06
2.26758e-05
4.4146e-05
7.99691e-05
0.000139354
0.000237002
0.00039601
0.000651989
0.00105865
0.00169497
0.00267357
0.00414925
0.00632548
0.00945529
0.0138325
0.0197699
0.0275664
0.0374671
0.0496305
0.0641092
0.0808504
0.0997105
0.120478
0.142895
0.166679
0.191538
0.217182
0.24333
0.269722
0.296115
0.322295
0.348073
0.373289
0.397807
0.421521
0.44434
0.466201
0.487055
0.506878
0.525658
0.543396
0.560104
0.575804
0.590522
0.604294
0.617155
0.629148
0.640315
0.650699
0.660343
0.669292
0.677589
0.685274
0.692388
0.698971
0.705011
0.710469
0.715693
0.720522
0.724992
0.72906
0.732966
0.736686
0.740225
0.743583
0.746761
0.749757
0.752569
0.755191
0.757618
0.75984
0.761842
0.763638
0.765211
0.766548
0.767641
0.768478
0.769075
0.76947
0.769713
0.769852
0.769926
0.769964
0.769983
0.769992
0.769996
0.769998
0.769999
0.77
0.77
0.77
0.77
0.77
0.77
0.77
0.77
0.77
0.77
0.77
2.24535e-06
9.81301e-06
2.2543e-05
4.38857e-05
7.94929e-05
0.000138514
0.000235555
0.000393561
0.000647908
0.00105196
0.00168419
0.00265653
0.00412291
0.00628577
0.0093971
0.0137498
0.0196566
0.0274164
0.0372757
0.049395
0.0638294
0.0805284
0.0993507
0.120087
0.14248
0.166249
0.191103
0.21675
0.242912
0.269326
0.29575
0.321967
0.347789
0.373052
0.397622
0.42139
0.444268
0.466186
0.487098
0.506977
0.525811
0.5436
0.560355
0.576098
0.590855
0.604661
0.617553
0.629571
0.640759
0.651159
0.660816
0.669774
0.678075
0.685761
0.692874
0.699452
0.705478
0.710919
0.716128
0.720945
0.725399
0.729464
0.733366
0.737079
0.740607
0.743954
0.747117
0.750097
0.75289
0.755491
0.757893
0.760091
0.762084
0.763856
0.765398
0.766698
0.767748
0.768555
0.769129
0.769504
0.769732
0.769862
0.769932
0.769967
0.769984
0.769993
0.769997
0.769999
0.769999
0.77
0.77
0.77
0.77
0.77
0.77
0.77
0.77
0.77
0.77
0.77
2.23349e-06
9.76115e-06
2.24235e-05
4.36518e-05
7.90661e-05
0.000137764
0.000234267
0.000391388
0.000644303
0.00104608
0.00167475
0.0026417
0.00410011
0.00625161
0.00934735
0.0136796
0.0195609
0.0272905
0.0371163
0.0492002
0.0635996
0.080266
0.0990601
0.119773
0.142151
0.165912
0.190766
0.216421
0.242599
0.269035
0.295489
0.321742
0.347604
0.372912
0.39753
0.421345
0.444269
0.466235
0.487194
0.50712
0.525997
0.543828
0.560621
0.576398
0.591186
0.605019
0.617934
0.629971
0.641174
0.651586
0.661251
0.670213
0.678515
0.686201
0.693309
0.699881
0.705891
0.711319
0.716518
0.721321
0.725758
0.729823
0.73372
0.737427
0.740947
0.744282
0.747432
0.750395
0.753169
0.75575
0.758134
0.760318
0.762289
0.764037
0.765553
0.766826
0.767848
0.768622
0.769174
0.769532
0.769749
0.769871
0.769936
0.769969
0.769986
0.769993
0.769997
0.769999
0.769999
0.77
0.77
0.77
0.77
0.77
0.77
0.77
0.77
0.77
0.77
0.77
2.22306e-06
9.71556e-06
2.23186e-05
4.34467e-05
7.86924e-05
0.000137108
0.000233144
0.000389501
0.000641181
0.001041
0.00166665
0.00262901
0.0040807
0.00622265
0.00930539
0.0136207
0.019481
0.0271862
0.0369849
0.0490407
0.0634127
0.0800543
0.0988276
0.119525
0.141893
0.165651
0.190508
0.216174
0.242367
0.268826
0.295306
0.321591
0.347488
0.372834
0.397492
0.421348
0.444314
0.466321
0.487321
0.507285
0.526199
0.544062
0.560886
0.57669
0.591503
0.605356
0.618288
0.630339
0.641553
0.651972
0.661642
0.670606
0.678908
0.68659
0.693692
0.700253
0.706251
0.711671
0.716859
0.721649
0.726072
0.730136
0.734028
0.737727
0.741237
0.74456
0.747696
0.750646
0.753409
0.755978
0.758351
0.760516
0.762466
0.764193
0.765685
0.766934
0.767932
0.768684
0.769212
0.769556
0.769762
0.769878
0.76994
0.769971
0.769986
0.769994
0.769997
0.769999
0.769999
0.77
0.77
0.77
0.77
0.77
0.77
0.77
0.77
0.77
0.77
0.77
2.21409e-06
9.67635e-06
2.22284e-05
4.32706e-05
7.83722e-05
0.000136547
0.000232185
0.000387893
0.000638529
0.0010367
0.0016598
0.00261833
0.00406442
0.00619848
0.00927052
0.013572
0.0194153
0.0271007
0.0368778
0.0489116
0.0632625
0.0798853
0.0986435
0.11933
0.141693
0.165451
0.190314
0.21599
0.2422
0.26868
0.295186
0.321499
0.347428
0.372807
0.397498
0.421389
0.44439
0.466431
0.487463
0.507458
0.526401
0.544292
0.56114
0.576965
0.591796
0.605665
0.61861
0.630672
0.641893
0.652317
0.661989
0.670953
0.679252
0.686928
0.694022
0.700578
0.706567
0.711976
0.717153
0.72193
0.726339
0.730405
0.734292
0.737985
0.741487
0.744804
0.747935
0.750877
0.753628
0.756184
0.758539
0.760686
0.762617
0.764324
0.765797
0.767025
0.768002
0.768735
0.769246
0.769575
0.769774
0.769884
0.769943
0.769973
0.769987
0.769994
0.769997
0.769999
0.769999
0.77
0.77
0.77
0.77
0.77
0.77
0.77
0.77
0.77
0.77
0.77
2.20653e-06
9.6433e-06
2.21524e-05
4.31224e-05
7.8103e-05
0.000136076
0.000231382
0.000386548
0.000636317
0.00103312
0.00165412
0.0026095
0.004051
0.00617862
0.00924196
0.0135323
0.0193619
0.0270315
0.0367917
0.0488083
0.063143
0.079752
0.0984994
0.11918
0.14154
0.1653
0.190169
0.215857
0.242082
0.26858
0.295108
0.321446
0.347401
0.372808
0.397528
0.421449
0.444479
0.466548
0.487608
0.507628
0.526595
0.544506
0.561373
0.577216
0.592061
0.605942
0.618896
0.630965
0.642191
0.652618
0.66229
0.671252
0.679547
0.687219
0.694312
0.700863
0.706839
0.712239
0.717407
0.722175
0.726559
0.730632
0.734516
0.738204
0.741704
0.745015
0.748137
0.75107
0.75381
0.756354
0.758695
0.760828
0.762744
0.764434
0.76589
0.7671
0.76806
0.768777
0.769274
0.769593
0.769783
0.769889
0.769946
0.769974
0.769988
0.769994
0.769997
0.769999
0.769999
0.77
0.77
0.77
0.77
0.77
0.77
0.77
0.77
0.77
0.77
0.77
2.20029e-06
9.61606e-06
2.20898e-05
4.30004e-05
7.78815e-05
0.00013569
0.000230724
0.000385447
0.000634508
0.0010302
0.0016495
0.00260233
0.00404013
0.00616257
0.00921897
0.0135004
0.0193192
0.0269765
0.0367234
0.0487269
0.0630495
0.0796482
0.0983881
0.119064
0.141424
0.165187
0.190063
0.215761
0.242001
0.268516
0.295063
0.321422
0.347399
0.372829
0.397574
0.421519
0.444572
0.466664
0.487746
0.507786
0.526771
0.5447
0.561582
0.577437
0.592293
0.606182
0.619144
0.631217
0.642446
0.652873
0.662544
0.671504
0.679798
0.687468
0.694556
0.701101
0.707067
0.712459
0.717619
0.722379
0.726742
0.730821
0.734703
0.738389
0.741883
0.745188
0.748304
0.751228
0.75396
0.756493
0.758824
0.760945
0.762848
0.764525
0.765966
0.767162
0.768107
0.76881
0.769296
0.769607
0.769791
0.769893
0.769947
0.769975
0.769988
0.769995
0.769998
0.769999
0.77
0.77
0.77
0.77
0.77
0.77
0.77
0.77
0.77
0.77
0.77
0.77
2.19528e-06
9.59418e-06
2.20396e-05
4.29026e-05
7.77041e-05
0.00013538
0.000230197
0.000384568
0.000633067
0.00102788
0.00164583
0.00259664
0.00403154
0.00614992
0.00920088
0.0134754
0.0192858
0.0269336
0.0366705
0.048664
0.0629776
0.0795689
0.0983038
0.118977
0.141337
0.165104
0.189987
0.215694
0.241945
0.268475
0.295038
0.321414
0.34741
0.37286
0.397624
0.421588
0.44466
0.46677
0.487869
0.507925
0.526925
0.544866
0.561759
0.577625
0.592489
0.606385
0.61935
0.631426
0.642656
0.653083
0.662755
0.671715
0.680007
0.687674
0.694757
0.701296
0.707254
0.712639
0.717792
0.722544
0.726889
0.730974
0.734853
0.738536
0.742027
0.745327
0.748438
0.751356
0.75408
0.756606
0.758927
0.761039
0.762932
0.764598
0.766028
0.767211
0.768145
0.768837
0.769314
0.769617
0.769797
0.769897
0.769949
0.769976
0.769989
0.769995
0.769998
0.769999
0.77
0.77
0.77
0.77
0.77
0.77
0.77
0.77
0.77
0.77
0.77
0.77
2.19141e-06
9.57726e-06
2.20007e-05
4.28269e-05
7.7567e-05
0.000135141
0.000229791
0.000383891
0.000631957
0.0010261
0.00164301
0.00259229
0.00402497
0.00614026
0.0091871
0.0134564
0.0192605
0.0269012
0.0366306
0.0486168
0.0629239
0.0795102
0.0982416
0.118914
0.141275
0.165045
0.189934
0.215649
0.24191
0.26845
0.295026
0.321417
0.347427
0.372892
0.397671
0.42165
0.444737
0.466861
0.487973
0.508041
0.527052
0.545003
0.561904
0.577776
0.592646
0.606546
0.619514
0.631592
0.642824
0.653254
0.662925
0.671884
0.680173
0.687836
0.694915
0.70145
0.707403
0.712782
0.71793
0.722675
0.727004
0.731094
0.734971
0.738652
0.74214
0.745436
0.748542
0.751455
0.754174
0.756693
0.759008
0.761112
0.762997
0.764655
0.766075
0.76725
0.768175
0.768858
0.769328
0.769626
0.769802
0.769899
0.769951
0.769976
0.769989
0.769995
0.769998
0.769999
0.77
0.77
0.77
0.77
0.77
0.77
0.77
0.77
0.77
0.77
0.77
0.77
2.18859e-06
9.56494e-06
2.19724e-05
4.27719e-05
7.74672e-05
0.000134967
0.000229495
0.000383399
0.000631152
0.0010248
0.00164097
0.00258914
0.00402022
0.00613329
0.00917718
0.0134427
0.0192424
0.0268781
0.0366022
0.0485833
0.0628859
0.0794687
0.098198
0.11887
0.141232
0.165005
0.189898
0.215619
0.241887
0.268437
0.295022
0.321423
0.347444
0.37292
0.39771
0.4217
0.444798
0.466932
0.488053
0.50813
0.527148
0.545106
0.562013
0.57789
0.592763
0.606667
0.619638
0.631719
0.642952
0.653381
0.663052
0.672009
0.680296
0.687957
0.695033
0.701565
0.707514
0.712889
0.718033
0.722774
0.727092
0.731181
0.735057
0.738736
0.742222
0.745516
0.748619
0.751529
0.754243
0.756758
0.759068
0.761166
0.763045
0.764696
0.766111
0.767278
0.768196
0.768874
0.769338
0.769632
0.769805
0.769901
0.769951
0.769977
0.769989
0.769995
0.769998
0.769999
0.77
0.77
0.77
0.77
0.77
0.77
0.77
0.77
0.77
0.77
0.77
0.77
2.18675e-06
9.55693e-06
2.1954e-05
4.27361e-05
7.74024e-05
0.000134854
0.000229304
0.00038308
0.000630631
0.00102396
0.00163965
0.0025871
0.00401715
0.0061288
0.00917079
0.0134339
0.0192307
0.0268632
0.036584
0.0485619
0.0628617
0.0794424
0.0981705
0.118842
0.141205
0.16498
0.189876
0.215602
0.241875
0.26843
0.295021
0.321429
0.347457
0.37294
0.397738
0.421735
0.444839
0.46698
0.488107
0.508189
0.527212
0.545175
0.562086
0.577967
0.592843
0.606749
0.619723
0.631804
0.643037
0.653466
0.663136
0.672092
0.680378
0.688038
0.695112
0.701641
0.707588
0.71296
0.718101
0.72284
0.727151
0.731238
0.735113
0.738791
0.742276
0.745568
0.748669
0.751577
0.754288
0.7568
0.759107
0.761201
0.763077
0.764724
0.766134
0.767297
0.76821
0.768883
0.769344
0.769636
0.769807
0.769902
0.769952
0.769977
0.769989
0.769995
0.769998
0.769999
0.77
0.77
0.77
0.77
0.77
0.77
0.77
0.77
0.77
0.77
0.77
0.77
2.18586e-06
9.55306e-06
2.19452e-05
4.27189e-05
7.73713e-05
0.0001348
0.000229212
0.000382928
0.000630383
0.00102357
0.00163902
0.00258614
0.00401571
0.00612668
0.00916779
0.0134298
0.0192253
0.0268562
0.0365754
0.0485518
0.0628503
0.07943
0.0981576
0.118829
0.141193
0.164969
0.189866
0.215593
0.241869
0.268427
0.295021
0.321432
0.347464
0.372951
0.397752
0.421753
0.44486
0.467004
0.488134
0.50822
0.527245
0.54521
0.562124
0.578006
0.592884
0.606791
0.619764
0.631846
0.64308
0.653509
0.663178
0.672134
0.680419
0.688077
0.695151
0.701679
0.707624
0.712996
0.718135
0.722873
0.72718
0.731266
0.735141
0.738819
0.742302
0.745594
0.748694
0.7516
0.754311
0.756821
0.759126
0.761219
0.763092
0.764737
0.766145
0.767306
0.768217
0.768888
0.769347
0.769638
0.769808
0.769903
0.769952
0.769977
0.769989
0.769995
0.769998
0.769999
0.77
0.77
0.77
0.77
0.77
0.77
0.77
0.77
0.77
0.77
0.77
0.77
2.18588e-06
9.55311e-06
2.19453e-05
4.27191e-05
7.73718e-05
0.000134801
0.000229213
0.000382931
0.000630386
0.00102357
0.00163903
0.00258615
0.00401573
0.00612671
0.00916782
0.0134298
0.0192253
0.0268563
0.0365755
0.0485519
0.0628505
0.0794302
0.0981578
0.118829
0.141193
0.164969
0.189866
0.215594
0.241869
0.268427
0.295022
0.321432
0.347465
0.372951
0.397752
0.421753
0.444861
0.467004
0.488134
0.50822
0.527246
0.54521
0.562124
0.578006
0.592884
0.606791
0.619764
0.631846
0.64308
0.653509
0.663178
0.672134
0.680419
0.688077
0.695151
0.701679
0.707624
0.712996
0.718135
0.722873
0.72718
0.731266
0.735141
0.738819
0.742303
0.745594
0.748694
0.7516
0.754311
0.756821
0.759126
0.761219
0.763092
0.764737
0.766145
0.767306
0.768217
0.768888
0.769347
0.769638
0.769808
0.769903
0.769952
0.769977
0.769989
0.769995
0.769998
0.769999
0.77
0.77
0.77
0.77
0.77
0.77
0.77
0.77
0.77
0.77
0.77
0.77
2.18679e-06
9.5571e-06
2.19544e-05
4.27368e-05
7.74038e-05
0.000134857
0.000229307
0.000383086
0.000630641
0.00102398
0.00163967
0.00258714
0.0040172
0.00612887
0.0091709
0.0134341
0.0192309
0.0268635
0.0365843
0.0485622
0.0628621
0.0794428
0.098171
0.118843
0.141206
0.164981
0.189877
0.215602
0.241875
0.26843
0.295022
0.321429
0.347458
0.372941
0.397738
0.421735
0.44484
0.46698
0.488107
0.50819
0.527213
0.545175
0.562087
0.577967
0.592844
0.60675
0.619723
0.631804
0.643037
0.653467
0.663137
0.672093
0.680378
0.688038
0.695112
0.701641
0.707588
0.71296
0.718101
0.72284
0.727151
0.731238
0.735113
0.738791
0.742276
0.745568
0.748669
0.751577
0.754288
0.7568
0.759107
0.761201
0.763077
0.764724
0.766134
0.767297
0.76821
0.768883
0.769344
0.769636
0.769807
0.769902
0.769952
0.769977
0.769989
0.769995
0.769998
0.769999
0.77
0.77
0.77
0.77
0.77
0.77
0.77
0.77
0.77
0.77
0.77
0.77
2.18865e-06
9.56522e-06
2.19731e-05
4.27731e-05
7.74694e-05
0.000134971
0.000229501
0.000383409
0.000631169
0.00102483
0.00164101
0.0025892
0.00402031
0.00613342
0.00917736
0.0134429
0.0192427
0.0268785
0.0366027
0.0485839
0.0628866
0.0794695
0.0981989
0.118871
0.141233
0.165006
0.189899
0.21562
0.241889
0.268438
0.295023
0.321424
0.347445
0.372921
0.397711
0.421701
0.444799
0.466932
0.488053
0.50813
0.527148
0.545106
0.562013
0.57789
0.592763
0.606667
0.619639
0.63172
0.642952
0.653382
0.663052
0.672009
0.680297
0.687957
0.695033
0.701565
0.707514
0.712889
0.718033
0.722774
0.727092
0.731181
0.735057
0.738736
0.742222
0.745516
0.748619
0.751529
0.754243
0.756758
0.759068
0.761166
0.763045
0.764696
0.766111
0.767278
0.768196
0.768874
0.769338
0.769632
0.769805
0.769901
0.769951
0.769977
0.769989
0.769995
0.769998
0.769999
0.77
0.77
0.77
0.77
0.77
0.77
0.77
0.77
0.77
0.77
0.77
0.77
2.1915e-06
9.57765e-06
2.20016e-05
4.28286e-05
7.757e-05
0.000135146
0.000229799
0.000383905
0.00063198
0.00102613
0.00164306
0.00259237
0.00402509
0.00614044
0.00918735
0.0134567
0.019261
0.0269018
0.0366313
0.0486177
0.0629249
0.0795113
0.0982428
0.118915
0.141276
0.165047
0.189935
0.21565
0.241911
0.268452
0.295028
0.321418
0.347429
0.372893
0.397672
0.421652
0.444739
0.466862
0.487974
0.508042
0.527053
0.545004
0.561905
0.577777
0.592646
0.606546
0.619515
0.631593
0.642824
0.653254
0.662925
0.671884
0.680173
0.687836
0.694915
0.70145
0.707403
0.712782
0.71793
0.722675
0.727004
0.731094
0.734971
0.738652
0.74214
0.745436
0.748542
0.751455
0.754174
0.756693
0.759008
0.761112
0.762997
0.764655
0.766075
0.76725
0.768175
0.768858
0.769328
0.769626
0.769802
0.769899
0.769951
0.769976
0.769989
0.769995
0.769998
0.769999
0.77
0.77
0.77
0.77
0.77
0.77
0.77
0.77
0.77
0.77
0.77
0.77
2.1954e-06
9.59467e-06
2.20407e-05
4.29047e-05
7.77079e-05
0.000135387
0.000230208
0.000384586
0.000633095
0.00102792
0.0016459
0.00259675
0.00403169
0.00615014
0.00920119
0.0134758
0.0192864
0.0269343
0.0366714
0.048665
0.0629788
0.0795703
0.0983053
0.118979
0.141339
0.165106
0.189989
0.215696
0.241947
0.268477
0.29504
0.321416
0.347412
0.372861
0.397625
0.421589
0.444662
0.466772
0.48787
0.507926
0.526926
0.544867
0.56176
0.577625
0.592489
0.606385
0.619351
0.631427
0.642656
0.653084
0.662755
0.671716
0.680007
0.687674
0.694757
0.701297
0.707254
0.712639
0.717792
0.722544
0.726889
0.730974
0.734853
0.738536
0.742027
0.745328
0.748438
0.751356
0.75408
0.756606
0.758927
0.761039
0.762932
0.764598
0.766028
0.767211
0.768145
0.768837
0.769314
0.769617
0.769797
0.769897
0.769949
0.769976
0.769989
0.769995
0.769998
0.769999
0.77
0.77
0.77
0.77
0.77
0.77
0.77
0.77
0.77
0.77
0.77
0.77
2.20043e-06
9.61664e-06
2.20911e-05
4.3003e-05
7.78861e-05
0.000135698
0.000230737
0.000385469
0.000634542
0.00103026
0.00164958
0.00260245
0.00404032
0.00616284
0.00921934
0.0135009
0.0193199
0.0269774
0.0367245
0.0487281
0.0630509
0.0796499
0.0983899
0.119066
0.141426
0.165189
0.190065
0.215764
0.242003
0.268518
0.295065
0.321424
0.347401
0.372831
0.397576
0.421521
0.444574
0.466666
0.487747
0.507788
0.526773
0.544701
0.561583
0.577438
0.592294
0.606183
0.619144
0.631218
0.642446
0.652874
0.662545
0.671504
0.679798
0.687469
0.694557
0.701102
0.707067
0.712459
0.71762
0.72238
0.726743
0.730821
0.734703
0.738389
0.741883
0.745188
0.748304
0.751229
0.75396
0.756493
0.758824
0.760945
0.762848
0.764525
0.765966
0.767162
0.768107
0.76881
0.769296
0.769607
0.769791
0.769893
0.769947
0.769975
0.769988
0.769995
0.769998
0.769999
0.77
0.77
0.77
0.77
0.77
0.77
0.77
0.77
0.77
0.77
0.77
0.77
2.20668e-06
9.64398e-06
2.2154e-05
4.31254e-05
7.81082e-05
0.000136085
0.000231397
0.000386573
0.000636356
0.00103318
0.00165422
0.00260964
0.00405122
0.00617893
0.00924239
0.0135329
0.0193627
0.0270325
0.0367929
0.0488098
0.0631448
0.0797539
0.0985015
0.119182
0.141542
0.165302
0.190172
0.215859
0.242085
0.268583
0.295111
0.321449
0.347404
0.372811
0.397531
0.421452
0.444481
0.46655
0.48761
0.50763
0.526596
0.544508
0.561375
0.577217
0.592062
0.605943
0.618897
0.630966
0.642191
0.652618
0.662291
0.671253
0.679548
0.68722
0.694312
0.700863
0.706839
0.712239
0.717407
0.722175
0.726559
0.730632
0.734516
0.738205
0.741704
0.745015
0.748138
0.75107
0.75381
0.756354
0.758696
0.760828
0.762744
0.764434
0.76589
0.7671
0.76806
0.768777
0.769274
0.769593
0.769783
0.769889
0.769946
0.769974
0.769988
0.769994
0.769997
0.769999
0.769999
0.77
0.77
0.77
0.77
0.77
0.77
0.77
0.77
0.77
0.77
0.77
2.21427e-06
9.67711e-06
2.22301e-05
4.32739e-05
7.83781e-05
0.000136557
0.000232202
0.00038792
0.000638573
0.00103677
0.00165991
0.00261849
0.00406467
0.00619883
0.00927101
0.0135727
0.0194162
0.0271018
0.0368792
0.0489133
0.0632644
0.0798876
0.0986459
0.119333
0.141696
0.165454
0.190317
0.215993
0.242204
0.268683
0.295189
0.321502
0.34743
0.372809
0.3975
0.421392
0.444392
0.466433
0.487466
0.50746
0.526403
0.544293
0.561141
0.576967
0.591798
0.605667
0.618611
0.630673
0.641894
0.652318
0.661989
0.670953
0.679253
0.686928
0.694022
0.700578
0.706567
0.711977
0.717154
0.721931
0.726339
0.730406
0.734293
0.737986
0.741488
0.744804
0.747936
0.750878
0.753629
0.756185
0.75854
0.760687
0.762618
0.764324
0.765797
0.767025
0.768002
0.768735
0.769246
0.769575
0.769774
0.769884
0.769943
0.769973
0.769987
0.769994
0.769997
0.769999
0.769999
0.77
0.77
0.77
0.77
0.77
0.77
0.77
0.77
0.77
0.77
0.77
2.22326e-06
9.71639e-06
2.23205e-05
4.34503e-05
7.8699e-05
0.000137119
0.000233162
0.000389531
0.000641229
0.00104108
0.00166676
0.00262919
0.00408096
0.00622304
0.00930594
0.0136215
0.019482
0.0271874
0.0369864
0.0490426
0.0634149
0.0800568
0.0988304
0.119528
0.141896
0.165655
0.190512
0.216177
0.242371
0.26883
0.29531
0.321595
0.347492
0.372837
0.397495
0.421351
0.444317
0.466324
0.487324
0.507287
0.526201
0.544064
0.560888
0.576692
0.591504
0.605358
0.618289
0.630341
0.641554
0.651973
0.661643
0.670607
0.678908
0.68659
0.693692
0.700253
0.706251
0.711672
0.71686
0.721649
0.726072
0.730137
0.734028
0.737728
0.741238
0.744561
0.747697
0.750649
0.753413
0.755983
0.758353
0.760517
0.762467
0.764193
0.765685
0.766934
0.767932
0.768684
0.769212
0.769556
0.769762
0.769878
0.76994
0.769971
0.769986
0.769994
0.769997
0.769999
0.769999
0.77
0.77
0.77
0.77
0.77
0.77
0.77
0.77
0.77
0.77
0.77
2.2337e-06
9.76205e-06
2.24256e-05
4.36557e-05
7.90731e-05
0.000137776
0.000234287
0.000391421
0.000644355
0.00104616
0.00167488
0.00264189
0.0041004
0.00625203
0.00934795
0.0136805
0.019562
0.0272919
0.037118
0.0492023
0.063602
0.0802688
0.0990632
0.119777
0.142155
0.165916
0.19077
0.216425
0.242603
0.269039
0.295492
0.321745
0.347607
0.372915
0.397532
0.421348
0.444272
0.466238
0.487197
0.507123
0.526
0.54383
0.560623
0.5764
0.591188
0.605021
0.617935
0.629972
0.641175
0.651587
0.661252
0.670214
0.678516
0.686201
0.69331
0.699881
0.705892
0.711319
0.716519
0.721321
0.725758
0.729823
0.73372
0.737426
0.740946
0.74428
0.747429
0.750391
0.753164
0.755746
0.758131
0.760314
0.762287
0.764037
0.765553
0.766825
0.767848
0.768622
0.769174
0.769532
0.769749
0.769871
0.769936
0.769969
0.769986
0.769993
0.769997
0.769999
0.769999
0.77
0.77
0.77
0.77
0.77
0.77
0.77
0.77
0.77
0.77
0.77
2.24557e-06
9.81398e-06
2.25452e-05
4.38899e-05
7.95004e-05
0.000138527
0.000235577
0.000393597
0.000647965
0.00105205
0.00168433
0.00265674
0.00412322
0.00628622
0.00939774
0.0137507
0.0196578
0.0274179
0.0372776
0.0493973
0.063832
0.0805314
0.0993541
0.12009
0.142484
0.166253
0.191107
0.216755
0.242917
0.26933
0.295754
0.321972
0.347794
0.373057
0.397628
0.421396
0.444273
0.46619
0.487101
0.50698
0.525814
0.543603
0.560358
0.5761
0.590858
0.604663
0.617555
0.629573
0.64076
0.651161
0.660817
0.669775
0.678075
0.685762
0.692874
0.699452
0.705478
0.710919
0.716128
0.720945
0.725399
0.729464
0.733366
0.73708
0.740609
0.743956
0.74712
0.7501
0.752893
0.755494
0.757898
0.760098
0.762086
0.763856
0.765398
0.766698
0.767747
0.768555
0.769129
0.769504
0.769732
0.769862
0.769932
0.769967
0.769984
0.769993
0.769997
0.769999
0.769999
0.77
0.77
0.77
0.77
0.77
0.77
0.77
0.77
0.77
0.77
0.77
2.25872e-06
9.87156e-06
2.26781e-05
4.41504e-05
7.9977e-05
0.000139367
0.000237025
0.000396047
0.000652049
0.00105875
0.00169512
0.0026738
0.00414959
0.00632597
0.00945597
0.0138334
0.0197712
0.027568
0.0374692
0.049633
0.0641121
0.0808537
0.0997142
0.120482
0.142899
0.166683
0.191543
0.217186
0.243335
0.269727
0.29612
0.3223
0.348078
0.373293
0.39781
0.421522
0.444342
0.466203
0.487058
0.506881
0.525661
0.543399
0.560107
0.575806
0.590525
0.604296
0.617157
0.62915
0.640317
0.6507
0.660344
0.669293
0.677589
0.685273
0.692385
0.698963
0.705007
0.710468
0.715692
0.720522
0.724992
0.729059
0.732965
0.736684
0.740222
0.743579
0.746756
0.749751
0.752561
0.755182
0.757607
0.75983
0.761841
0.763638
0.765211
0.766548
0.767641
0.768478
0.769075
0.76947
0.769713
0.769852
0.769926
0.769964
0.769983
0.769992
0.769996
0.769998
0.769999
0.77
0.77
0.77
0.77
0.77
0.77
0.77
0.77
0.77
0.77
0.77
2.27281e-06
9.93327e-06
2.28207e-05
4.44308e-05
8.04915e-05
0.000140278
0.0002386
0.000398727
0.000656538
0.00106615
0.00170713
0.00269291
0.00417936
0.00637119
0.00952277
0.013929
0.0199035
0.0277446
0.0376962
0.0499147
0.0644497
0.0812455
0.100156
0.120966
0.143418
0.167226
0.192099
0.217744
0.243884
0.270255
0.296617
0.322757
0.348487
0.373647
0.398105
0.421752
0.444504
0.466296
0.487086
0.506845
0.52556
0.543238
0.559888
0.575535
0.590204
0.603932
0.616755
0.628715
0.639853
0.650214
0.659841
0.668777
0.677065
0.684746
0.691861
0.698449
0.704518
0.709984
0.715215
0.720054
0.724534
0.728607
0.732516
0.736243
0.73979
0.74316
0.746353
0.749367
0.7522
0.754848
0.757304
0.759561
0.761603
0.763435
0.765041
0.766408
0.767524
0.768387
0.769012
0.769431