/*--------------------------------*- C++ -*----------------------------------*\
  =========                 |
  \\      /  F ield         | OpenFOAM: The Open Source CFD Toolbox
   \\    /   O peration     | Website:  https://openfoam.org
    \\  /    A nd           | Version:  8
     \\/     M anipulation  |
\*---------------------------------------------------------------------------*/
FoamFile
{
    version     2.0;
    format      ascii;
    class       volScalarField;
    location    "680/fluid";
    object      O2;
}
// * * * * * * * * * * * * * * * * * * * * * * * * * * * * * * * * * * * * * //

dimensions      [0 0 0 0 0 0 0];

internalField   nonuniform List<scalar> 
4000
(
4.56295e-10
1.99232e-09
4.56761e-09
8.86494e-09
1.59948e-08
2.77422e-08
4.69371e-08
7.79925e-08
1.27653e-07
2.05979e-07
3.27542e-07
5.12703e-07
7.88706e-07
1.19022e-06
1.75781e-06
2.53458e-06
3.56024e-06
4.86381e-06
6.45674e-06
8.32899e-06
1.04493e-05
1.27693e-05
1.52294e-05
1.77649e-05
2.03111e-05
2.28068e-05
2.51967e-05
2.74329e-05
2.94759e-05
3.12951e-05
3.28709e-05
3.41975e-05
3.52897e-05
3.61923e-05
3.69938e-05
3.78404e-05
3.89485e-05
4.06153e-05
4.32296e-05
4.72878e-05
5.34227e-05
6.24485e-05
7.54195e-05
9.37071e-05
0.0001191
0.000153939
0.000201286
0.000265064
0.000350739
0.000465282
0.000617872
0.000820571
0.00108921
0.00144454
0.00191381
0.00253272
0.00334818
0.00440748
0.00578397
0.00764287
0.0100892
0.0133166
0.0182906
0.0347436
0.0514012
0.0680039
0.0843498
0.10028
0.115667
0.130408
0.144413
0.157604
0.169907
0.181191
0.191499
0.200668
0.208602
0.215202
0.220397
0.224195
0.226738
0.228286
0.229151
0.229596
0.229814
0.229916
0.229963
0.229984
0.229993
0.229997
0.229999
0.229999
0.23
0.23
0.23
0.23
0.23
0.23
0.23
0.23
4.63802e-10
2.02655e-09
4.65198e-09
9.0438e-09
1.63486e-08
2.84109e-08
4.81533e-08
8.01417e-08
1.31342e-07
2.12114e-07
3.37392e-07
5.27837e-07
8.10469e-07
1.22138e-06
1.80134e-06
2.59377e-06
3.63895e-06
4.96676e-06
6.58985e-06
8.49948e-06
1.06655e-05
1.304e-05
1.55633e-05
1.81697e-05
2.0793e-05
2.337e-05
2.58432e-05
2.81624e-05
3.02859e-05
3.21814e-05
3.38275e-05
3.52177e-05
3.63662e-05
3.73193e-05
3.81684e-05
3.90655e-05
4.02364e-05
4.19907e-05
4.47319e-05
4.89726e-05
5.53622e-05
6.47301e-05
7.81448e-05
9.6991e-05
0.000123071
0.000158676
0.000206782
0.000271753
0.000358742
0.000474749
0.000628968
0.000833466
0.00110408
0.00146156
0.00193315
0.00255458
0.00337284
0.00443484
0.00581438
0.00767843
0.010132
0.0133688
0.0196166
0.0361788
0.0529214
0.0695924
0.0859938
0.101968
0.117389
0.132151
0.146164
0.159347
0.17162
0.182846
0.193061
0.202095
0.209845
0.216218
0.221158
0.224706
0.227041
0.228445
0.229225
0.229628
0.229827
0.229921
0.229965
0.229984
0.229993
0.229997
0.229999
0.229999
0.23
0.23
0.23
0.23
0.23
0.23
0.23
0.23
4.73896e-10
2.07096e-09
4.75527e-09
9.24731e-09
1.67192e-08
2.90512e-08
4.92081e-08
8.18795e-08
1.34166e-07
2.16645e-07
3.44647e-07
5.39679e-07
8.30857e-07
1.25248e-06
1.84632e-06
2.65687e-06
3.72574e-06
5.08433e-06
6.74699e-06
8.70667e-06
1.09346e-05
1.33837e-05
1.59942e-05
1.86997e-05
2.14323e-05
2.41268e-05
2.6723e-05
2.91678e-05
3.14167e-05
3.34345e-05
3.51974e-05
3.66969e-05
3.79467e-05
3.8994e-05
3.99346e-05
4.09291e-05
4.22171e-05
4.41275e-05
4.70868e-05
5.16335e-05
5.84431e-05
6.83703e-05
8.25054e-05
0.000102255
0.000129358
0.000166137
0.000216033
0.000282902
0.000372101
0.000490662
0.000647812
0.000855654
0.00113006
0.00149185
0.00196835
0.00259545
0.00342038
0.00448929
0.00587798
0.00775552
0.0102272
0.0134952
0.0219663
0.0386038
0.0554141
0.0721387
0.0885758
0.104565
0.119978
0.134705
0.148655
0.16174
0.17388
0.184953
0.194948
0.20372
0.211174
0.217232
0.221868
0.225155
0.227297
0.228578
0.229288
0.229657
0.229839
0.229926
0.229967
0.229985
0.229994
0.229997
0.229999
0.23
0.23
0.23
0.23
0.23
0.23
0.23
0.23
0.23
4.84181e-10
2.11592e-09
4.85925e-09
9.45328e-09
1.71045e-08
2.97601e-08
5.05226e-08
8.4136e-08
1.37878e-07
2.22551e-07
3.53729e-07
5.53071e-07
8.49408e-07
1.27908e-06
1.88482e-06
2.7125e-06
3.80547e-06
5.1972e-06
6.90423e-06
8.92154e-06
1.12219e-05
1.37589e-05
1.64727e-05
1.92958e-05
2.21586e-05
2.49933e-05
2.77371e-05
3.03339e-05
3.27359e-05
3.4905e-05
3.68146e-05
3.8454e-05
3.98361e-05
4.10095e-05
4.20756e-05
4.32058e-05
4.46573e-05
4.67831e-05
5.00392e-05
5.49969e-05
6.23672e-05
7.30415e-05
8.81253e-05
0.000108948
0.000137388
0.000176186
0.00022826
0.000297749
0.00039008
0.000512367
0.000673937
0.000887014
0.00116763
0.00153679
0.00202209
0.00265981
0.00349772
0.0045798
0.00598499
0.00788734
0.0103961
0.0137118
0.0248984
0.0415572
0.0583921
0.0751325
0.0915674
0.107531
0.122889
0.137531
0.15136
0.16429
0.176235
0.187118
0.196848
0.205329
0.212475
0.218222
0.222564
0.225604
0.22756
0.228719
0.229359
0.229691
0.229855
0.229933
0.22997
0.229987
0.229994
0.229997
0.229999
0.23
0.23
0.23
0.23
0.23
0.23
0.23
0.23
0.23
4.9518e-10
2.16435e-09
4.9717e-09
9.67406e-09
1.75047e-08
3.04464e-08
5.16374e-08
8.59531e-08
1.40815e-07
2.27241e-07
3.61122e-07
5.64574e-07
8.67086e-07
1.30592e-06
1.92506e-06
2.77196e-06
3.89194e-06
5.32075e-06
7.07728e-06
9.15868e-06
1.15393e-05
1.41737e-05
1.70018e-05
1.99553e-05
2.29627e-05
2.59539e-05
2.88631e-05
3.16312e-05
3.4207e-05
3.65491e-05
3.8628e-05
4.04308e-05
4.19694e-05
4.32949e-05
4.45153e-05
4.58154e-05
4.74736e-05
4.98714e-05
5.3499e-05
5.89644e-05
6.70175e-05
7.8567e-05
9.46686e-05
0.000116893
0.000147411
0.000188481
0.00024335
0.000316265
0.000412785
0.000540193
0.000708022
0.000928756
0.00121875
0.00159942
0.00209891
0.00275417
0.00361215
0.00471411
0.00615061
0.00809768
0.0106609
0.0140278
0.0279871
0.0446202
0.0614557
0.0781939
0.0946086
0.110525
0.125806
0.140339
0.154026
0.166783
0.178502
0.189154
0.198621
0.206816
0.213663
0.219112
0.223181
0.225995
0.227786
0.22884
0.229419
0.229719
0.229868
0.229939
0.229972
0.229988
0.229995
0.229998
0.229999
0.23
0.23
0.23
0.23
0.23
0.23
0.23
0.23
0.23
5.04615e-10
2.20546e-09
5.06561e-09
9.85546e-09
1.78301e-08
3.1007e-08
5.25804e-08
8.75161e-08
1.43376e-07
2.31395e-07
3.67792e-07
5.75174e-07
8.83754e-07
1.33182e-06
1.96478e-06
2.83196e-06
3.98094e-06
5.45007e-06
7.26086e-06
9.41277e-06
1.18818e-05
1.46234e-05
1.75773e-05
2.06742e-05
2.38407e-05
2.70042e-05
3.0096e-05
3.30537e-05
3.58226e-05
3.8358e-05
4.06271e-05
4.26146e-05
4.4332e-05
4.58332e-05
4.7235e-05
4.87379e-05
5.06453e-05
5.33732e-05
5.74544e-05
6.3529e-05
7.23443e-05
8.48114e-05
0.00010226
0.000126445
0.000159142
0.000202939
0.000261213
0.000338374
0.000440196
0.000574236
0.000750382
0.000981567
0.00128471
0.00168195
0.00220226
0.00288356
0.00377459
0.00491496
0.00640186
0.00840358
0.0110228
0.0144124
0.0305637
0.0473229
0.064252
0.0810404
0.0974602
0.11334
0.128544
0.142965
0.15651
0.169094
0.180594
0.191023
0.200238
0.208162
0.214729
0.219906
0.223729
0.226342
0.227989
0.22895
0.229475
0.229746
0.22988
0.229945
0.229975
0.229989
0.229995
0.229998
0.229999
0.23
0.23
0.23
0.23
0.23
0.23
0.23
0.23
0.23
5.13194e-10
2.24286e-09
5.15124e-09
1.00216e-08
1.81304e-08
3.15302e-08
5.34722e-08
8.90144e-08
1.45865e-07
2.35488e-07
3.74455e-07
5.85909e-07
9.00849e-07
1.3587e-06
2.0064e-06
2.89534e-06
4.07557e-06
5.58825e-06
7.45775e-06
9.68604e-06
1.2251e-05
1.51089e-05
1.81996e-05
2.14526e-05
2.47926e-05
2.81446e-05
3.14368e-05
3.46031e-05
3.75855e-05
4.03353e-05
4.28165e-05
4.50113e-05
4.69309e-05
4.86326e-05
5.02434e-05
5.19818e-05
5.41763e-05
5.72745e-05
6.18465e-05
6.85514e-05
7.82095e-05
9.19078e-05
0.000111113
0.00013725
0.000172411
0.000219308
0.00028148
0.000363557
0.000471608
0.00061358
0.000799894
0.0010442
0.0013644
0.00178392
0.00233349
0.00305333
0.00399577
0.0051924
0.00680635
0.00891863
0.0116779
0.0152078
0.0322106
0.0494523
0.0666485
0.0835696
0.100033
0.115891
0.131027
0.145341
0.158749
0.171177
0.182499
0.192727
0.201704
0.209368
0.21567
0.220597
0.224201
0.226639
0.228161
0.229043
0.229522
0.229769
0.229891
0.22995
0.229977
0.22999
0.229996
0.229998
0.229999
0.23
0.23
0.23
0.23
0.23
0.23
0.23
0.23
0.23
5.2135e-10
2.27847e-09
5.23294e-09
1.01807e-08
1.8419e-08
3.20356e-08
5.43386e-08
9.04794e-08
1.48316e-07
2.3955e-07
3.81124e-07
5.96749e-07
9.18271e-07
1.38633e-06
2.04958e-06
2.9616e-06
4.17517e-06
5.73451e-06
7.66707e-06
9.97758e-06
1.2646e-05
1.56296e-05
1.88683e-05
2.22906e-05
2.58196e-05
2.93773e-05
3.2889e-05
3.6285e-05
3.95033e-05
4.24914e-05
4.52096e-05
4.76376e-05
4.97864e-05
5.17183e-05
5.35732e-05
5.55929e-05
5.81401e-05
6.16713e-05
6.6728e-05
7.40795e-05
8.48218e-05
0.000100042
0.000120915
0.000149151
0.000186941
0.000237129
0.000303429
0.000390704
0.000505339
0.000655722
0.000852879
0.00111133
0.0014502
0.00189479
0.00247859
0.00324612
0.00425499
0.005549
0.00731372
0.00965286
0.012771
0.0168763
0.0341698
0.0516177
0.0689398
0.0859194
0.102385
0.118199
0.133252
0.147448
0.160707
0.172953
0.184074
0.194085
0.202874
0.210358
0.216464
0.221185
0.224603
0.226892
0.228308
0.229122
0.229563
0.229789
0.229901
0.229954
0.229979
0.229991
0.229996
0.229998
0.229999
0.23
0.23
0.23
0.23
0.23
0.23
0.23
0.23
0.23
5.2933e-10
2.31333e-09
5.31309e-09
1.03371e-08
1.87039e-08
3.25364e-08
5.52013e-08
9.19457e-08
1.50783e-07
2.43664e-07
3.87921e-07
6.07867e-07
9.36248e-07
1.41501e-06
2.09461e-06
3.031e-06
4.27989e-06
5.88876e-06
7.88844e-06
1.02867e-05
1.30657e-05
1.61842e-05
1.95823e-05
2.31878e-05
2.69217e-05
3.0704e-05
3.44563e-05
3.81055e-05
4.15853e-05
4.48392e-05
4.78235e-05
5.0515e-05
5.29245e-05
5.5119e-05
5.72506e-05
5.95808e-05
6.24853e-05
6.64342e-05
7.21463e-05
8.05713e-05
9.24952e-05
0.000109057
0.000131649
0.000162037
0.000202493
0.000255972
0.000326329
0.000418619
0.000539471
0.000697593
0.000904433
0.00117506
0.00152935
0.00199356
0.00260247
0.00340232
0.00444645
0.0057921
0.00762768
0.0100589
0.0132965
0.0187251
0.0361803
0.0537302
0.0711046
0.0880925
0.104529
0.120283
0.135245
0.149325
0.162439
0.174507
0.185422
0.195232
0.203827
0.211135
0.217111
0.221683
0.224944
0.227106
0.228432
0.22919
0.229597
0.229806
0.229909
0.229958
0.229981
0.229991
0.229996
0.229998
0.229999
0.23
0.23
0.23
0.23
0.23
0.23
0.23
0.23
0.23
5.37212e-10
2.34779e-09
5.39239e-09
1.04922e-08
1.89869e-08
3.30352e-08
5.60632e-08
9.34161e-08
1.53267e-07
2.47824e-07
3.94827e-07
6.19215e-07
9.54679e-07
1.44454e-06
2.14117e-06
3.10304e-06
4.38895e-06
6.04994e-06
8.12044e-06
1.06115e-05
1.35081e-05
1.67705e-05
2.03394e-05
2.4142e-05
2.8098e-05
3.21248e-05
3.6141e-05
4.00696e-05
4.38403e-05
4.73921e-05
5.06772e-05
5.36697e-05
5.63812e-05
5.8887e-05
6.13575e-05
6.4042e-05
6.73052e-05
7.18143e-05
7.84153e-05
8.77858e-05
0.000100902
0.000118936
0.000143333
0.000175919
0.000219038
0.000275733
0.000349966
0.00044692
0.000573377
0.000738219
0.000953094
0.00123328
0.00159887
0.00207626
0.00270027
0.00351685
0.00457729
0.00593557
0.00777933
0.0102039
0.0134002
0.0206891
0.0381738
0.0557339
0.073097
0.0900527
0.106435
0.122115
0.136985
0.150957
0.163945
0.175881
0.186745
0.196427
0.204853
0.211958
0.217693
0.222107
0.225239
0.22729
0.228538
0.229247
0.229627
0.22982
0.229915
0.229961
0.229982
0.229992
0.229997
0.229998
0.229999
0.23
0.23
0.23
0.23
0.23
0.23
0.23
0.23
0.23
5.44992e-10
2.38182e-09
5.47078e-09
1.06456e-08
1.92675e-08
3.35309e-08
5.69221e-08
9.48858e-08
1.55758e-07
2.52011e-07
4.01801e-07
6.30717e-07
9.7343e-07
1.47469e-06
2.18886e-06
3.17705e-06
4.50136e-06
6.21654e-06
8.36098e-06
1.09494e-05
1.39698e-05
1.73845e-05
2.11352e-05
2.5149e-05
2.93446e-05
3.36371e-05
3.79424e-05
4.21798e-05
4.62749e-05
5.01619e-05
5.37884e-05
5.71247e-05
6.01813e-05
6.30375e-05
6.58601e-05
6.89077e-05
7.27199e-05
7.80444e-05
8.54791e-05
9.58904e-05
0.000110289
0.000129884
0.000156162
0.000191
0.000236803
0.00029668
0.000374678
0.000476067
0.000607726
0.000778635
0.00100053
0.00128877
0.00166344
0.00215092
0.00278579
0.00361351
0.00468297
0.00604903
0.00789857
0.0103217
0.013507
0.0225405
0.0400281
0.0575751
0.0749104
0.0918198
0.108135
0.123731
0.138505
0.15237
0.165259
0.177125
0.18787
0.197421
0.205704
0.212658
0.218243
0.222474
0.225486
0.227446
0.228628
0.229295
0.229651
0.229832
0.229921
0.229964
0.229983
0.229993
0.229997
0.229999
0.229999
0.23
0.23
0.23
0.23
0.23
0.23
0.23
0.23
0.23
5.52604e-10
2.41512e-09
5.54755e-09
1.07961e-08
1.9543e-08
3.40185e-08
5.77689e-08
9.63385e-08
1.58227e-07
2.56173e-07
4.08754e-07
6.4222e-07
9.9224e-07
1.50503e-06
2.237e-06
3.25201e-06
4.61556e-06
6.38637e-06
8.60701e-06
1.12963e-05
1.44456e-05
1.80199e-05
2.19625e-05
2.62009e-05
3.06533e-05
3.52332e-05
3.98542e-05
4.44324e-05
4.88895e-05
5.31553e-05
5.71737e-05
6.09131e-05
6.43876e-05
6.76581e-05
7.08636e-05
7.44492e-05
7.90328e-05
8.51258e-05
9.35062e-05
0.000105072
0.000120865
0.000142129
0.000170389
0.000207569
0.000256127
0.000319237
0.000401014
0.000506801
0.000643552
0.000820319
0.0010489
0.00134467
0.00172773
0.00222436
0.00286875
0.00370577
0.00478426
0.00615947
0.00801544
0.010441
0.0136225
0.0241727
0.0416615
0.0591887
0.0764806
0.0933276
0.109575
0.125107
0.139818
0.153625
0.166454
0.178215
0.188847
0.198276
0.206431
0.213252
0.218706
0.222814
0.225694
0.227576
0.228703
0.229335
0.229672
0.229842
0.229926
0.229966
0.229984
0.229993
0.229997
0.229999
0.229999
0.23
0.23
0.23
0.23
0.23
0.23
0.23
0.23
0.23
5.5994e-10
2.44723e-09
5.62159e-09
1.09413e-08
1.98093e-08
3.44908e-08
5.85905e-08
9.7751e-08
1.60634e-07
2.60239e-07
4.15568e-07
6.53524e-07
1.01078e-06
1.53502e-06
2.28474e-06
3.32657e-06
4.72954e-06
6.55648e-06
8.85442e-06
1.16466e-05
1.49282e-05
1.86676e-05
2.28102e-05
2.72847e-05
3.20096e-05
3.68978e-05
4.18611e-05
4.68132e-05
5.1672e-05
5.63635e-05
6.08263e-05
6.50236e-05
6.89653e-05
7.26944e-05
7.64921e-05
8.08644e-05
8.62033e-05
9.31975e-05
0.000102658
0.000115511
0.000132828
0.000155887
0.000186254
0.000225897
0.000277331
0.00034379
0.000429453
0.000539735
0.00068166
0.000864345
0.00109964
0.00140297
0.00179433
0.00229957
0.00295301
0.00380052
0.00488892
0.00627226
0.0081347
0.0105622
0.0137374
0.0255726
0.0430707
0.0605849
0.0778449
0.0946654
0.110889
0.126375
0.141026
0.154754
0.167486
0.179149
0.18968
0.199002
0.207044
0.21375
0.21909
0.223093
0.225883
0.227682
0.228764
0.229369
0.229689
0.229851
0.22993
0.229968
0.229985
0.229993
0.229997
0.229999
0.229999
0.23
0.23
0.23
0.23
0.23
0.23
0.23
0.23
0.23
5.66862e-10
2.47752e-09
5.6915e-09
1.10786e-08
2.00613e-08
3.49382e-08
5.93703e-08
9.90943e-08
1.62928e-07
2.64125e-07
4.22094e-07
6.6438e-07
1.02863e-06
1.56399e-06
2.33099e-06
3.39907e-06
4.84078e-06
6.72316e-06
9.09788e-06
1.19928e-05
1.54078e-05
1.93147e-05
2.36621e-05
2.83809e-05
3.33908e-05
3.86051e-05
4.39351e-05
4.92932e-05
5.45957e-05
5.97664e-05
6.47432e-05
6.94927e-05
7.39864e-05
7.83754e-05
8.29493e-05
8.80898e-05
9.4327e-05
0.000102373
0.000113063
0.000127349
0.000146332
0.000171324
0.000203933
0.000246178
0.000300627
0.000370577
0.000460272
0.000575195
0.000722438
0.000911188
0.00115331
0.0014641
0.00186351
0.00237795
0.00304215
0.0039001
0.00499723
0.0063888
0.00825792
0.010688
0.0138474
0.0267516
0.0442712
0.0617813
0.0790374
0.0958311
0.112007
0.127441
0.142031
0.155691
0.168348
0.179931
0.190376
0.199608
0.207555
0.214165
0.219408
0.223321
0.226035
0.227777
0.228814
0.229395
0.229703
0.229857
0.229933
0.229969
0.229986
0.229994
0.229997
0.229999
0.229999
0.23
0.23
0.23
0.23
0.23
0.23
0.23
0.23
0.23
5.73213e-10
2.50533e-09
5.75569e-09
1.12047e-08
2.02931e-08
3.53502e-08
6.00897e-08
1.00336e-07
1.65052e-07
2.67731e-07
4.28165e-07
6.74506e-07
1.04533e-06
1.59117e-06
2.37453e-06
3.46755e-06
4.94625e-06
6.88186e-06
9.33076e-06
1.23258e-05
1.58714e-05
1.99441e-05
2.44962e-05
2.94618e-05
3.47629e-05
4.03148e-05
4.60295e-05
5.18195e-05
5.75999e-05
6.32918e-05
6.88292e-05
7.41709e-05
7.93017e-05
8.44555e-05
8.99495e-05
9.60843e-05
0.000103417
0.000112694
0.000124776
0.000140643
0.000161431
0.000188489
0.000223472
0.00026845
0.000326048
0.000399622
0.000493482
0.000613176
0.000765813
0.000960531
0.00120916
0.00152724
0.00193533
0.00245949
0.00313318
0.00400071
0.00510614
0.00650512
0.00837973
0.0108108
0.0139542
0.027739
0.045281
0.0627954
0.0800328
0.0967972
0.112935
0.128323
0.142861
0.156464
0.169059
0.180576
0.190951
0.200107
0.207976
0.214505
0.219668
0.223506
0.226158
0.227852
0.228857
0.229417
0.229713
0.229863
0.229935
0.22997
0.229987
0.229994
0.229997
0.229999
0.23
0.23
0.23
0.23
0.23
0.23
0.23
0.23
0.23
0.23
5.78829e-10
2.52991e-09
5.81248e-09
1.13164e-08
2.04985e-08
3.57158e-08
6.07287e-08
1.01441e-07
1.66946e-07
2.70952e-07
4.33602e-07
6.83595e-07
1.06036e-06
1.6157e-06
2.41396e-06
3.52979e-06
5.04249e-06
7.0273e-06
9.5452e-06
1.2634e-05
1.63031e-05
2.0534e-05
2.52834e-05
3.04897e-05
3.60789e-05
4.19695e-05
4.8077e-05
5.43163e-05
6.06049e-05
6.68655e-05
7.30335e-05
7.90524e-05
8.5059e-05
9.11492e-05
9.76173e-05
0.00010487
0.000113445
0.000124099
0.000137711
0.000155286
0.000177993
0.000207225
0.000244686
0.000292504
0.000353355
0.000430642
0.000528704
0.000653065
0.000810903
0.00101151
0.00126719
0.00159338
0.00200968
0.00254201
0.00322397
0.00409936
0.00521097
0.00661422
0.0084903
0.0109186
0.0140486
0.0285365
0.0460992
0.0636179
0.0808431
0.0975838
0.113689
0.129039
0.143534
0.157091
0.169635
0.181097
0.191415
0.200511
0.208316
0.214778
0.219876
0.223655
0.226256
0.227912
0.228892
0.229436
0.229723
0.229867
0.229938
0.229971
0.229987
0.229994
0.229997
0.229999
0.23
0.23
0.23
0.23
0.23
0.23
0.23
0.23
0.23
0.23
5.83548e-10
2.55058e-09
5.86023e-09
1.14103e-08
2.06714e-08
3.60239e-08
6.1268e-08
1.02374e-07
1.68549e-07
2.73685e-07
4.38222e-07
6.91338e-07
1.0732e-06
1.63671e-06
2.44784e-06
3.58344e-06
5.12576e-06
7.15368e-06
9.73241e-06
1.29044e-05
1.66842e-05
2.10579e-05
2.59876e-05
3.14166e-05
3.72758e-05
4.34891e-05
4.99776e-05
5.66623e-05
6.34672e-05
7.03231e-05
7.71757e-05
8.4003e-05
9.08653e-05
9.79531e-05
0.000105576
0.000114119
0.000124087
0.000136244
0.000151488
0.000170852
0.000195541
0.000226993
0.000266956
0.000317597
0.000381637
0.000462525
0.000564689
0.000693805
0.0008573
0.00106447
0.001327
0.00166026
0.002084
0.00262375
0.00331251
0.00419312
0.00530699
0.00670654
0.00856895
0.010966
0.0140271
0.0291685
0.0467544
0.0642739
0.0814874
0.0982078
0.114287
0.129605
0.144065
0.157583
0.170086
0.181506
0.191778
0.200826
0.208581
0.214991
0.220038
0.223769
0.226331
0.227958
0.228918
0.22945
0.22973
0.229871
0.229939
0.229972
0.229987
0.229994
0.229997
0.229999
0.23
0.23
0.23
0.23
0.23
0.23
0.23
0.23
0.23
0.23
5.87223e-10
2.56668e-09
5.89743e-09
1.14835e-08
2.08062e-08
3.62644e-08
6.16895e-08
1.03105e-07
1.69805e-07
2.75829e-07
4.41855e-07
6.97439e-07
1.08334e-06
1.65335e-06
2.47473e-06
3.62617e-06
5.1923e-06
7.25505e-06
9.88322e-06
1.31233e-05
1.69942e-05
2.14867e-05
2.65675e-05
3.2185e-05
3.82758e-05
4.47695e-05
5.15939e-05
5.86776e-05
6.59531e-05
7.33609e-05
8.08572e-05
8.84475e-05
9.62056e-05
0.000104351
0.000113226
0.000123151
0.000134576
0.000148265
0.000165132
0.000186242
0.000212836
0.000246398
0.000288734
0.000342076
0.000409226
0.000493811
0.000600308
0.000734452
0.000903376
0.0011164
0.00138543
0.00172572
0.00215688
0.00270418
0.0034002
0.00428713
0.0054053
0.00680603
0.0086652
0.0110528
0.0140932
0.0296229
0.0472378
0.064765
0.0819724
0.0986776
0.114736
0.130029
0.144461
0.15795
0.170422
0.181809
0.192047
0.201058
0.208776
0.215148
0.220157
0.223853
0.226386
0.227991
0.228937
0.22946
0.229735
0.229873
0.22994
0.229973
0.229988
0.229994
0.229998
0.229999
0.23
0.23
0.23
0.23
0.23
0.23
0.23
0.23
0.23
0.23
5.89732e-10
2.57766e-09
5.92282e-09
1.15335e-08
2.08983e-08
3.64286e-08
6.19773e-08
1.03604e-07
1.70664e-07
2.77297e-07
4.44343e-07
7.01623e-07
1.0903e-06
1.66479e-06
2.49328e-06
3.65571e-06
5.23846e-06
7.3256e-06
9.98856e-06
1.32768e-05
1.72126e-05
2.17902e-05
2.69802e-05
3.27353e-05
3.89964e-05
4.56988e-05
5.27761e-05
6.01642e-05
6.78046e-05
7.56491e-05
8.36718e-05
9.19066e-05
0.000100442
0.000109533
0.000119525
0.000130781
0.000143594
0.000158696
0.000177028
0.000199698
0.000228005
0.00026349
0.000308024
0.00036391
0.000434025
0.000521901
0.00063209
0.000770352
0.000943994
0.00116234
0.00143728
0.00178405
0.00222216
0.00277664
0.00347974
0.00437303
0.00549576
0.00689799
0.00875358
0.011129
0.0141407
0.0299217
0.0475649
0.065101
0.0823051
0.0989994
0.115042
0.130317
0.144729
0.158197
0.170647
0.18201
0.192225
0.201212
0.208904
0.215251
0.220234
0.223908
0.226421
0.228013
0.228949
0.229467
0.229739
0.229875
0.229941
0.229973
0.229988
0.229995
0.229998
0.229999
0.23
0.23
0.23
0.23
0.23
0.23
0.23
0.23
0.23
0.23
5.90987e-10
2.58315e-09
5.93547e-09
1.15583e-08
2.09439e-08
3.65097e-08
6.2119e-08
1.03849e-07
1.71084e-07
2.78014e-07
4.45558e-07
7.03664e-07
1.0937e-06
1.67038e-06
2.50234e-06
3.67017e-06
5.26109e-06
7.36031e-06
1.00406e-05
1.3353e-05
1.73215e-05
2.19425e-05
2.71886e-05
3.30149e-05
3.93652e-05
4.61781e-05
5.33914e-05
6.09459e-05
6.87896e-05
7.68827e-05
8.52091e-05
9.38017e-05
0.000102788
0.000112427
0.000123116
0.000135289
0.000149322
0.00016553
0.000184923
0.000208673
0.000238128
0.000274877
0.000320829
0.000378322
0.000450254
0.000540255
0.000652901
0.00079399
0.000970876
0.00119292
0.00147203
0.00182345
0.00226663
0.00282651
0.00353507
0.00443346
0.00556005
0.00696377
0.00881642
0.0111806
0.0141656
0.0300691
0.0477365
0.0652799
0.082482
0.0991691
0.115202
0.130466
0.144866
0.158322
0.170759
0.182111
0.192313
0.201287
0.208966
0.2153
0.220271
0.223933
0.226438
0.228023
0.228955
0.22947
0.22974
0.229875
0.229942
0.229973
0.229988
0.229995
0.229998
0.229999
0.23
0.23
0.23
0.23
0.23
0.23
0.23
0.23
0.23
0.23
5.9099e-10
2.58316e-09
5.9355e-09
1.15584e-08
2.0944e-08
3.65099e-08
6.21194e-08
1.0385e-07
1.71085e-07
2.78016e-07
4.45561e-07
7.03669e-07
1.09371e-06
1.67039e-06
2.50235e-06
3.6702e-06
5.26114e-06
7.36038e-06
1.00407e-05
1.33532e-05
1.73217e-05
2.19427e-05
2.71889e-05
3.30154e-05
3.93659e-05
4.61791e-05
5.33926e-05
6.09475e-05
6.87916e-05
7.6885e-05
8.52114e-05
9.3803e-05
0.000102788
0.000112426
0.000123115
0.000135287
0.00014932
0.000165528
0.000184922
0.000208672
0.000238128
0.000274878
0.00032083
0.000378322
0.000450255
0.000540256
0.000652903
0.000793992
0.000970879
0.00119292
0.00147204
0.00182346
0.00226664
0.00282651
0.00353508
0.00443347
0.00556006
0.00696378
0.00881643
0.0111806
0.0141656
0.0300692
0.0477365
0.06528
0.082482
0.0991691
0.115202
0.130466
0.144866
0.158322
0.170759
0.182111
0.192313
0.201287
0.208966
0.2153
0.220271
0.223933
0.226438
0.228023
0.228955
0.22947
0.22974
0.229875
0.229942
0.229973
0.229988
0.229995
0.229998
0.229999
0.23
0.23
0.23
0.23
0.23
0.23
0.23
0.23
0.23
0.23
5.8974e-10
2.5777e-09
5.9229e-09
1.15336e-08
2.08986e-08
3.64291e-08
6.19782e-08
1.03605e-07
1.70666e-07
2.77301e-07
4.44351e-07
7.01636e-07
1.09032e-06
1.66483e-06
2.49333e-06
3.65579e-06
5.23858e-06
7.32577e-06
9.98881e-06
1.32772e-05
1.7213e-05
2.17908e-05
2.69811e-05
3.27365e-05
3.89981e-05
4.57011e-05
5.27793e-05
6.01688e-05
6.78113e-05
7.56588e-05
8.36844e-05
9.19119e-05
0.000100441
0.000109525
0.000119517
0.000130774
0.000143587
0.000158689
0.000177023
0.000199695
0.000228003
0.00026349
0.000308025
0.000363911
0.000434028
0.000521905
0.000632095
0.000770358
0.000944001
0.00116234
0.00143729
0.00178407
0.00222217
0.00277666
0.00347976
0.00437306
0.00549579
0.00689802
0.00875362
0.011129
0.0141408
0.0299219
0.0475652
0.0651013
0.0823053
0.0989996
0.115042
0.130317
0.144729
0.158197
0.170647
0.18201
0.192225
0.201212
0.208904
0.215251
0.220234
0.223908
0.226421
0.228013
0.228949
0.229467
0.229739
0.229875
0.229941
0.229973
0.229988
0.229995
0.229998
0.229999
0.23
0.23
0.23
0.23
0.23
0.23
0.23
0.23
0.23
0.23
5.87234e-10
2.56672e-09
5.89754e-09
1.14837e-08
2.08066e-08
3.62651e-08
6.16907e-08
1.03107e-07
1.69808e-07
2.75835e-07
4.41864e-07
6.97454e-07
1.08336e-06
1.65338e-06
2.47478e-06
3.62624e-06
5.19242e-06
7.25521e-06
9.88343e-06
1.31236e-05
1.69945e-05
2.14871e-05
2.6568e-05
3.21856e-05
3.82764e-05
4.47702e-05
5.15944e-05
5.86775e-05
6.59518e-05
7.33576e-05
8.08514e-05
8.8448e-05
9.62098e-05
0.000104358
0.000113233
0.000123157
0.000134582
0.00014827
0.000165137
0.000186246
0.000212838
0.000246399
0.000288735
0.000342077
0.000409229
0.000493816
0.000600315
0.000734461
0.000903387
0.00111642
0.00138544
0.00172574
0.0021569
0.00270421
0.00340023
0.00428716
0.00540534
0.00680608
0.00866526
0.0110529
0.0140933
0.0296233
0.0472382
0.0647654
0.0819728
0.0986779
0.114736
0.130029
0.144462
0.15795
0.170422
0.181809
0.192047
0.201058
0.208776
0.215148
0.220157
0.223853
0.226386
0.227991
0.228937
0.22946
0.229735
0.229873
0.22994
0.229973
0.229988
0.229994
0.229998
0.229999
0.23
0.23
0.23
0.23
0.23
0.23
0.23
0.23
0.23
0.23
5.83563e-10
2.55064e-09
5.86038e-09
1.14106e-08
2.06719e-08
3.60248e-08
6.12697e-08
1.02377e-07
1.68553e-07
2.73692e-07
4.38234e-07
6.91358e-07
1.07323e-06
1.63676e-06
2.44791e-06
3.58354e-06
5.1259e-06
7.15386e-06
9.73265e-06
1.29047e-05
1.66845e-05
2.10584e-05
2.59881e-05
3.1417e-05
3.72762e-05
4.34896e-05
4.99782e-05
5.66631e-05
6.34688e-05
7.03265e-05
7.71834e-05
8.40131e-05
9.08816e-05
9.79693e-05
0.00010559
0.000114131
0.000124098
0.000136255
0.000151497
0.000170861
0.00019555
0.000227001
0.000266965
0.000317605
0.000381642
0.00046253
0.000564695
0.000693814
0.000857313
0.00106449
0.00132702
0.00166028
0.00208403
0.00262378
0.00331255
0.00419317
0.00530705
0.0067066
0.00856902
0.0109661
0.0140272
0.0291691
0.046755
0.0642745
0.081488
0.0982083
0.114287
0.129605
0.144065
0.157584
0.170087
0.181506
0.191778
0.200826
0.208581
0.214991
0.220038
0.223769
0.226331
0.227958
0.228918
0.22945
0.22973
0.229871
0.229939
0.229972
0.229987
0.229994
0.229997
0.229999
0.23
0.23
0.23
0.23
0.23
0.23
0.23
0.23
0.23
0.23
5.78847e-10
2.52999e-09
5.81267e-09
1.13167e-08
2.04991e-08
3.57169e-08
6.07308e-08
1.01444e-07
1.66951e-07
2.70962e-07
4.33617e-07
6.8362e-07
1.0604e-06
1.61576e-06
2.41405e-06
3.52991e-06
5.04265e-06
7.02751e-06
9.54545e-06
1.26342e-05
1.63035e-05
2.05343e-05
2.52837e-05
3.049e-05
3.60791e-05
4.19696e-05
4.80768e-05
5.43159e-05
6.06039e-05
6.68635e-05
7.30294e-05
7.90512e-05
8.50586e-05
9.11521e-05
9.76219e-05
0.000104876
0.000113451
0.000124105
0.000137717
0.000155292
0.000178
0.000207233
0.000244695
0.000292514
0.000353366
0.000430654
0.000528717
0.000653077
0.000810917
0.00101153
0.00126722
0.00159341
0.00200971
0.00254205
0.00322402
0.00409942
0.00521104
0.0066143
0.00849039
0.0109187
0.0140487
0.0285374
0.0461002
0.0636188
0.080844
0.0975847
0.11369
0.12904
0.143535
0.157091
0.169635
0.181097
0.191415
0.200511
0.208316
0.214778
0.219876
0.223654
0.226256
0.227912
0.228892
0.229436
0.229723
0.229867
0.229938
0.229971
0.229987
0.229994
0.229997
0.229999
0.23
0.23
0.23
0.23
0.23
0.23
0.23
0.23
0.23
0.23
5.73234e-10
2.50542e-09
5.75591e-09
1.12051e-08
2.02939e-08
3.53516e-08
6.0092e-08
1.0034e-07
1.65058e-07
2.67742e-07
4.28182e-07
6.74533e-07
1.04538e-06
1.59123e-06
2.37462e-06
3.46768e-06
4.94642e-06
6.88208e-06
9.33102e-06
1.2326e-05
1.58717e-05
1.99444e-05
2.44964e-05
2.94619e-05
3.47629e-05
4.03144e-05
4.60288e-05
5.18185e-05
5.75985e-05
6.32902e-05
6.88279e-05
7.41702e-05
7.92977e-05
8.44541e-05
8.99501e-05
9.60862e-05
0.00010342
0.000112697
0.00012478
0.000140648
0.000161437
0.000188496
0.00022348
0.000268459
0.000326058
0.000399634
0.000493497
0.000613193
0.000765833
0.000960551
0.00120919
0.00152727
0.00193537
0.00245954
0.00313324
0.00400078
0.00510622
0.00650521
0.00837984
0.010811
0.0139544
0.0277403
0.0452823
0.0627967
0.0800342
0.0967986
0.112936
0.128324
0.142862
0.156465
0.16906
0.180576
0.190951
0.200107
0.207976
0.214505
0.219668
0.223506
0.226158
0.227852
0.228857
0.229417
0.229713
0.229863
0.229935
0.22997
0.229987
0.229994
0.229997
0.229999
0.23
0.23
0.23
0.23
0.23
0.23
0.23
0.23
0.23
0.23
5.66886e-10
2.47763e-09
5.69175e-09
1.10791e-08
2.00622e-08
3.49397e-08
5.93729e-08
9.90988e-08
1.62935e-07
2.64137e-07
4.22113e-07
6.6441e-07
1.02868e-06
1.56406e-06
2.33109e-06
3.39921e-06
4.84096e-06
6.7234e-06
9.09816e-06
1.19932e-05
1.54081e-05
1.9315e-05
2.36624e-05
2.83812e-05
3.3391e-05
3.86051e-05
4.39349e-05
4.92928e-05
5.45951e-05
5.97653e-05
6.47411e-05
6.94885e-05
7.39848e-05
7.83765e-05
8.29505e-05
8.80913e-05
9.4329e-05
0.000102376
0.000113066
0.000127353
0.000146337
0.000171329
0.000203939
0.000246185
0.000300636
0.000370588
0.000460285
0.000575211
0.000722457
0.000911212
0.00115334
0.00146413
0.00186355
0.00237799
0.00304221
0.00390017
0.00499732
0.0063889
0.00825805
0.0106881
0.0138476
0.0267533
0.044273
0.0617832
0.0790394
0.0958333
0.11201
0.127443
0.142033
0.155693
0.16835
0.179932
0.190377
0.199608
0.207556
0.214165
0.219408
0.223321
0.226035
0.227777
0.228814
0.229395
0.229703
0.229857
0.229933
0.229969
0.229986
0.229994
0.229997
0.229999
0.229999
0.23
0.23
0.23
0.23
0.23
0.23
0.23
0.23
0.23
5.59966e-10
2.44734e-09
5.62185e-09
1.09418e-08
1.98103e-08
3.44924e-08
5.85934e-08
9.77558e-08
1.60642e-07
2.60252e-07
4.15588e-07
6.53557e-07
1.01083e-06
1.53509e-06
2.28484e-06
3.32672e-06
4.72974e-06
6.55674e-06
8.85473e-06
1.16469e-05
1.49286e-05
1.8668e-05
2.28106e-05
2.72852e-05
3.201e-05
3.68982e-05
4.18615e-05
4.68135e-05
5.16724e-05
5.6364e-05
6.08272e-05
6.50259e-05
6.89692e-05
7.26953e-05
7.64931e-05
8.08657e-05
8.62049e-05
9.31995e-05
0.00010266
0.000115514
0.000132832
0.000155892
0.000186259
0.000225904
0.000277339
0.000343799
0.000429464
0.000539749
0.000681677
0.000864366
0.00109967
0.001403
0.00179436
0.00229962
0.00295307
0.00380059
0.00488901
0.00627237
0.00813483
0.0105624
0.0137376
0.0255747
0.043073
0.0605875
0.0778481
0.0946693
0.110893
0.126381
0.141032
0.15476
0.16749
0.179152
0.189681
0.199002
0.207044
0.213751
0.21909
0.223093
0.225883
0.227682
0.228764
0.229369
0.229689
0.229851
0.22993
0.229968
0.229985
0.229993
0.229997
0.229999
0.229999
0.23
0.23
0.23
0.23
0.23
0.23
0.23
0.23
0.23
5.52632e-10
2.41524e-09
5.54783e-09
1.07966e-08
1.9544e-08
3.40203e-08
5.77719e-08
9.63436e-08
1.58236e-07
2.56186e-07
4.08776e-07
6.42254e-07
9.92292e-07
1.50511e-06
2.23711e-06
3.25216e-06
4.61576e-06
6.38663e-06
8.60734e-06
1.12967e-05
1.4446e-05
1.80204e-05
2.1963e-05
2.62014e-05
3.06538e-05
3.52337e-05
3.98547e-05
4.44329e-05
4.88899e-05
5.31557e-05
5.71738e-05
6.09123e-05
6.43844e-05
6.76555e-05
7.08641e-05
7.44507e-05
7.90346e-05
8.51278e-05
9.35083e-05
0.000105074
0.000120868