/*--------------------------------*- C++ -*----------------------------------*\
  =========                 |
  \\      /  F ield         | OpenFOAM: The Open Source CFD Toolbox
   \\    /   O peration     | Website:  https://openfoam.org
    \\  /    A nd           | Version:  8
     \\/     M anipulation  |
\*---------------------------------------------------------------------------*/
FoamFile
{
    version     2.0;
    format      ascii;
    class       surfaceScalarField;
    location    "680/fluid";
    object      phi;
}
// * * * * * * * * * * * * * * * * * * * * * * * * * * * * * * * * * * * * * //

dimensions      [1 0 -1 0 0 0 0];

internalField   nonuniform List<scalar> 
7860
(
6.5727e-07
-1.77523e-08
6.54601e-07
-5.32568e-08
6.50802e-07
-8.85842e-08
6.45764e-07
-1.23631e-07
6.39353e-07
-1.58399e-07
6.31408e-07
-1.92843e-07
6.21743e-07
-2.2688e-07
6.10161e-07
-2.6039e-07
5.96459e-07
-2.93206e-07
5.80442e-07
-3.25107e-07
5.61939e-07
-3.55806e-07
5.40827e-07
-3.84939e-07
5.17079e-07
-4.12049e-07
4.90864e-07
-4.36594e-07
4.62459e-07
-4.57937e-07
4.32228e-07
-4.75412e-07
4.00636e-07
-4.88464e-07
3.68225e-07
-4.96794e-07
3.35553e-07
-5.00484e-07
3.03129e-07
-5.00015e-07
2.71362e-07
-4.96169e-07
2.40537e-07
-4.89852e-07
2.10835e-07
-4.81922e-07
1.82387e-07
-4.73077e-07
1.55243e-07
-4.63806e-07
1.29367e-07
-4.54408e-07
1.04691e-07
-4.45048e-07
8.11395e-08
-4.35795e-07
5.86407e-08
-4.26662e-07
3.71322e-08
-4.17631e-07
1.65612e-08
-4.08674e-07
-3.11551e-09
-3.99764e-07
-2.19261e-08
-3.90882e-07
-3.98977e-08
-3.82018e-07
-5.70618e-08
-3.73176e-07
-7.34423e-08
-3.64344e-07
-8.90585e-08
-3.55484e-07
-1.03929e-07
-3.46607e-07
-1.18073e-07
-3.37732e-07
-1.31508e-07
-3.28881e-07
-1.44252e-07
-3.20079e-07
-1.56323e-07
-3.11349e-07
-1.67741e-07
-3.02718e-07
-1.78523e-07
-2.94213e-07
-1.8869e-07
-2.8586e-07
-1.98262e-07
-2.77685e-07
-2.07256e-07
-2.69716e-07
-2.15695e-07
-2.61977e-07
-2.23598e-07
-2.54495e-07
-2.30985e-07
-2.47295e-07
-2.37878e-07
-2.40403e-07
-2.44299e-07
-2.33848e-07
-2.50271e-07
-2.27657e-07
-2.55818e-07
-2.21864e-07
-2.6097e-07
-2.16507e-07
-2.6576e-07
-2.11629e-07
-2.7023e-07
-2.07285e-07
-2.74434e-07
-2.03569e-07
-2.78429e-07
-2.00549e-07
-2.82289e-07
-1.98288e-07
-2.86142e-07
-1.97027e-07
-2.90419e-07
-1.96942e-07
-2.95412e-07
-1.99074e-07
-3.02302e-07
-2.1019e-07
-3.10243e-07
-2.22621e-07
-3.19039e-07
-2.36339e-07
-3.28743e-07
-2.51524e-07
-3.39472e-07
-2.68417e-07
-3.51387e-07
-2.87292e-07
-3.64704e-07
-3.08476e-07
-3.79719e-07
-3.32363e-07
-3.96824e-07
-3.59421e-07
-4.1655e-07
-3.90186e-07
-4.3958e-07
-4.25382e-07
-4.66779e-07
-4.65668e-07
-4.99122e-07
-5.11064e-07
-5.37509e-07
-5.605e-07
-5.82228e-07
-6.11043e-07
-6.33039e-07
-6.57208e-07
-6.88751e-07
-6.91888e-07
-7.47009e-07
-7.09462e-07
-8.04881e-07
-7.08858e-07
-8.59852e-07
-6.93319e-07
-9.10364e-07
-6.67519e-07
-9.55757e-07
-6.35481e-07
-9.95846e-07
-5.99809e-07
-1.03051e-06
-5.61939e-07
-1.0601e-06
-5.22558e-07
-1.08515e-06
-4.82103e-07
-1.10621e-06
-4.40904e-07
-1.12376e-06
-3.99213e-07
-1.13825e-06
-3.57225e-07
-1.15009e-06
-3.15089e-07
-1.15965e-06
-2.72914e-07
-1.16725e-06
-2.30775e-07
-1.17316e-06
-1.8871e-07
-1.17762e-06
-1.46729e-07
-1.18082e-06
-1.04809e-07
-1.18292e-06
-6.28917e-08
-2.09695e-08
6.5791e-07
-1.71289e-08
6.55783e-07
-5.11299e-08
6.52076e-07
-8.48763e-08
6.46785e-07
-1.18341e-07
6.39845e-07
-1.51459e-07
6.31156e-07
-1.84154e-07
6.20605e-07
-2.16329e-07
6.08076e-07
-2.47861e-07
5.93466e-07
-2.78595e-07
5.76692e-07
-3.08333e-07
5.5771e-07
-3.36823e-07
5.3652e-07
-3.63748e-07
5.13187e-07
-3.88715e-07
4.87871e-07
-4.11276e-07
4.60799e-07
-4.30861e-07
4.32264e-07
-4.46872e-07
4.0263e-07
-4.58823e-07
3.72311e-07
-4.66468e-07
3.41733e-07
-4.69896e-07
3.1128e-07
-4.69552e-07
2.81264e-07
-4.66142e-07
2.51908e-07
-4.60484e-07
2.23357e-07
-4.53359e-07
1.95708e-07
-4.45417e-07
1.69014e-07
-4.37101e-07
1.43286e-07
-4.2867e-07
1.18514e-07
-4.20267e-07
9.4678e-08
-4.11951e-07
7.17557e-08
-4.03732e-07
4.97249e-08
-3.95593e-07
2.85646e-08
-3.87507e-07
8.25475e-09
-3.79448e-07
-1.12239e-08
-3.71398e-07
-2.98884e-08
-3.63348e-07
-4.77567e-08
-3.55302e-07
-6.48433e-08
-3.47253e-07
-8.1162e-08
-3.3916e-07
-9.6728e-08
-3.31036e-07
-1.11557e-07
-3.22898e-07
-1.25666e-07
-3.14768e-07
-1.39072e-07
-3.06668e-07
-1.51793e-07
-2.98623e-07
-1.63849e-07
-2.90657e-07
-1.7526e-07
-2.82798e-07
-1.86045e-07
-2.7507e-07
-1.96228e-07
-2.67499e-07
-2.05829e-07
-2.60111e-07
-2.14871e-07
-2.52931e-07
-2.23379e-07
-2.45984e-07
-2.31376e-07
-2.39295e-07
-2.38888e-07
-2.32887e-07
-2.45945e-07
-2.26788e-07
-2.52575e-07
-2.21023e-07
-2.58816e-07
-2.15621e-07
-2.64706e-07
-2.10614e-07
-2.70295e-07
-2.06038e-07
-2.75643e-07
-2.01935e-07
-2.80826e-07
-1.98384e-07
-2.85945e-07
-1.95428e-07
-2.91143e-07
-1.93088e-07
-2.96648e-07
-1.9152e-07
-3.02741e-07
-1.90846e-07
-3.0857e-07
-1.93295e-07
-3.15623e-07
-2.03143e-07
-3.23908e-07
-2.14343e-07
-3.33322e-07
-2.26932e-07
-3.43856e-07
-2.40998e-07
-3.55585e-07
-2.56696e-07
-3.68641e-07
-2.74245e-07
-3.83205e-07
-2.9392e-07
-3.99512e-07
-3.16065e-07
-4.17855e-07
-3.41088e-07
-4.38576e-07
-3.69474e-07
-4.62057e-07
-4.01911e-07
-4.88771e-07
-4.38963e-07
-5.19255e-07
-4.8059e-07
-5.54025e-07
-5.25739e-07
-5.93409e-07
-5.71667e-07
-6.37493e-07
-6.13129e-07
-6.85705e-07
-6.43679e-07
-7.36502e-07
-6.58667e-07
-7.87738e-07
-6.57621e-07
-8.37456e-07
-6.43601e-07
-8.84334e-07
-6.20641e-07
-9.27723e-07
-5.92092e-07
-9.67364e-07
-5.60168e-07
-1.0031e-06
-5.26203e-07
-1.03492e-06
-4.90737e-07
-1.06293e-06
-4.54091e-07
-1.08731e-06
-4.16528e-07
-1.10827e-06
-3.78253e-07
-1.12607e-06
-3.39428e-07
-1.14097e-06
-3.00187e-07
-1.15324e-06
-2.60639e-07
-1.16315e-06
-2.2087e-07
-1.17091e-06
-1.80946e-07
-1.17673e-06
-1.40908e-07
-1.18077e-06
-1.00778e-07
-1.18309e-06
-6.05672e-08
-2.02386e-08
6.57613e-07
-1.62082e-08
6.5495e-07
-4.84664e-08
6.50555e-07
-8.04813e-08
6.44393e-07
-1.1218e-07
6.36425e-07
-1.4349e-07
6.266e-07
-1.74329e-07
6.14873e-07
-2.04601e-07
6.01205e-07
-2.34193e-07
5.85578e-07
-2.62968e-07
5.68e-07
-2.90754e-07
5.4851e-07
-3.17333e-07
5.27186e-07
-3.42423e-07
5.04137e-07
-3.65665e-07
4.79479e-07
-3.86616e-07
4.53389e-07
-4.04769e-07
4.26127e-07
-4.19607e-07
3.98014e-07
-4.30706e-07
3.69402e-07
-4.3785e-07
3.4064e-07
-4.41127e-07
3.12034e-07
-4.40938e-07
2.83829e-07
-4.37927e-07
2.56194e-07
-4.32841e-07
2.29231e-07
-4.26388e-07
2.02973e-07
-4.1915e-07
1.77424e-07
-4.11544e-07
1.52594e-07
-4.03832e-07
1.2849e-07
-3.96155e-07
1.05118e-07
-3.88572e-07
8.24828e-08
-3.8109e-07
6.05857e-08
-3.7369e-07
3.94272e-08
-3.66344e-07
1.90063e-08
-3.59023e-07
-6.79902e-10
-3.51707e-07
-1.96367e-08
-3.44387e-07
-3.78701e-08
-3.37065e-07
-5.53853e-08
-3.29733e-07
-7.21882e-08
-3.22353e-07
-8.82871e-08
-3.14933e-07
-1.03692e-07
-3.07489e-07
-1.18416e-07
-3.0004e-07
-1.3247e-07
-2.92609e-07
-1.45872e-07
-2.85217e-07
-1.58638e-07
-2.77888e-07
-1.70785e-07
-2.70646e-07
-1.82335e-07
-2.63516e-07
-1.93309e-07
-2.56521e-07
-2.0373e-07
-2.49687e-07
-2.13622e-07
-2.43035e-07
-2.23013e-07
-2.3659e-07
-2.31932e-07
-2.30372e-07
-2.40412e-07
-2.24405e-07
-2.48486e-07
-2.18711e-07
-2.56196e-07
-2.13311e-07
-2.63586e-07
-2.08229e-07
-2.70708e-07
-2.0349e-07
-2.77623e-07
-1.99121e-07
-2.84403e-07
-1.95153e-07
-2.91132e-07
-1.91654e-07
-2.97911e-07
-1.88646e-07
-3.04864e-07
-1.86134e-07
-3.12127e-07
-1.84256e-07
-3.19862e-07
-1.83108e-07
-3.26659e-07
-1.86537e-07
-3.34459e-07
-1.95349e-07
-3.43337e-07
-2.05471e-07
-3.53317e-07
-2.16958e-07
-3.64444e-07
-2.29877e-07
-3.76794e-07
-2.44353e-07
-3.90468e-07
-2.60578e-07
-4.0559e-07
-2.78804e-07
-4.22305e-07
-2.99356e-07
-4.40774e-07
-3.22625e-07
-4.61149e-07
-3.49106e-07
-4.83579e-07
-3.79486e-07
-5.08295e-07
-4.14253e-07
-5.35626e-07
-4.53262e-07
-5.66084e-07
-4.95284e-07
-6.00461e-07
-5.37291e-07
-6.39328e-07
-5.74261e-07
-6.82474e-07
-6.00532e-07
-7.28626e-07
-6.12513e-07
-7.75855e-07
-6.10391e-07
-8.22333e-07
-5.97122e-07
-8.66765e-07
-5.76209e-07
-9.08427e-07
-5.5043e-07
-9.47012e-07
-5.21583e-07
-9.82523e-07
-4.90691e-07
-1.01493e-06
-4.5833e-07
-1.04419e-06
-4.24828e-07
-1.07033e-06
-3.90396e-07
-1.09339e-06
-3.55186e-07
-1.1135e-06
-3.19323e-07
-1.13077e-06
-2.82914e-07
-1.14535e-06
-2.46055e-07
-1.1574e-06
-2.08826e-07
-1.16705e-06
-1.71299e-07
-1.17442e-06
-1.3353e-07
-1.17964e-06
-9.55647e-08
-1.18276e-06
-5.74404e-08
-1.9181e-08
6.57631e-07
-1.5306e-08
6.54901e-07
-4.57363e-08
6.50338e-07
-7.59179e-08
6.43939e-07
-1.05781e-07
6.35694e-07
-1.35245e-07
6.25592e-07
-1.64227e-07
6.13624e-07
-1.92633e-07
5.99788e-07
-2.20357e-07
5.8409e-07
-2.4727e-07
5.66552e-07
-2.73216e-07
5.47214e-07
-2.97995e-07
5.26145e-07
-3.21353e-07
5.03445e-07
-3.42964e-07
4.79258e-07
-3.62428e-07
4.5378e-07
-3.79289e-07
4.27259e-07
-3.93083e-07
3.99983e-07
-4.03425e-07
3.72257e-07
-4.1012e-07
3.44381e-07
-4.13246e-07
3.16618e-07
-4.13169e-07
2.89179e-07
-4.10482e-07
2.62215e-07
-4.0587e-07
2.35824e-07
-3.9999e-07
2.10061e-07
-3.9338e-07
1.84951e-07
-3.86428e-07
1.60503e-07
-3.79379e-07
1.36721e-07
-3.72368e-07
1.13603e-07
-3.65448e-07
9.11456e-08
-3.58629e-07
6.93493e-08
-3.5189e-07
4.82135e-08
-3.45204e-07
2.7738e-08
-3.38543e-07
7.92216e-09
-3.31888e-07
-1.1235e-08
-3.25227e-07
-2.97368e-08
-3.1856e-07
-4.7585e-08
-3.11882e-07
-6.47815e-08
-3.05153e-07
-8.1331e-08
-2.9838e-07
-9.72401e-08
-2.91576e-07
-1.12518e-07
-2.8476e-07
-1.27175e-07
-2.77949e-07
-1.41224e-07
-2.71165e-07
-1.54681e-07
-2.64429e-07
-1.67562e-07
-2.57762e-07
-1.79885e-07
-2.51189e-07
-1.91674e-07
-2.4473e-07
-2.02949e-07
-2.38408e-07
-2.13739e-07
-2.32243e-07
-2.2407e-07
-2.26256e-07
-2.33973e-07
-2.20467e-07
-2.43483e-07
-2.14893e-07
-2.52636e-07
-2.09555e-07
-2.61475e-07
-2.0447e-07
-2.70046e-07
-1.99656e-07
-2.78401e-07
-1.95133e-07
-2.86599e-07
-1.90921e-07
-2.94706e-07
-1.87045e-07
-3.02792e-07
-1.83566e-07
-3.10947e-07
-1.8049e-07
-3.1926e-07
-1.7782e-07
-3.27828e-07
-1.75686e-07
-3.36736e-07
-1.74192e-07
-3.44517e-07
-1.78783e-07
-3.5314e-07
-1.8673e-07
-3.62683e-07
-1.95933e-07
-3.73206e-07
-2.0644e-07
-3.84779e-07
-2.18308e-07
-3.9748e-07
-2.31657e-07
-4.11396e-07
-2.46665e-07
-4.26627e-07
-2.63578e-07
-4.4328e-07
-2.82706e-07
-4.61479e-07
-3.04428e-07
-4.81339e-07
-3.29248e-07
-5.03013e-07
-3.57812e-07
-5.26776e-07
-3.90489e-07
-5.53025e-07
-4.2701e-07
-5.82307e-07
-4.65998e-07
-6.15241e-07
-5.04352e-07
-6.52209e-07
-5.37286e-07
-6.92924e-07
-5.59811e-07
-7.36245e-07
-5.69188e-07
-7.80558e-07
-5.66075e-07
-8.24362e-07
-5.53315e-07
-8.6657e-07
-5.33999e-07
-9.06519e-07
-5.10481e-07
-9.4385e-07
-4.84252e-07
-9.78399e-07
-4.56142e-07
-1.01011e-06
-4.26616e-07
-1.03899e-06
-3.95949e-07
-1.06506e-06
-3.64325e-07
-1.08837e-06
-3.31881e-07
-1.10896e-06
-2.98731e-07
-1.1269e-06
-2.64972e-07
-1.14226e-06
-2.30694e-07
-1.15511e-06
-1.95974e-07
-1.16552e-06
-1.60887e-07
-1.17356e-06
-1.25495e-07
-1.17927e-06
-8.98565e-08
-1.18268e-06
-5.40245e-08
-1.8043e-08
6.57569e-07
-1.43408e-08
6.54699e-07
-4.28668e-08
6.49938e-07
-7.11568e-08
6.43291e-07
-9.91333e-08
6.34763e-07
-1.26718e-07
6.24364e-07
-1.53828e-07
6.12106e-07
-1.80375e-07
5.98009e-07
-2.0626e-07
5.82105e-07
-2.31366e-07
5.64439e-07
-2.5555e-07
5.45076e-07
-2.78632e-07
5.24105e-07
-3.00381e-07
5.01642e-07
-3.205e-07
4.77839e-07
-3.38625e-07
4.52888e-07
-3.54337e-07
4.27016e-07
-3.67209e-07
4.00482e-07
-3.7689e-07
3.73559e-07
-3.83194e-07
3.46506e-07
-3.86189e-07
3.19553e-07
-3.86212e-07
2.9288e-07
-3.83806e-07
2.6662e-07
-3.79605e-07
2.40855e-07
-3.7422e-07
2.15634e-07
-3.68155e-07
1.90985e-07
-3.61773e-07
1.66917e-07
-3.55307e-07
1.43435e-07
-3.48882e-07
1.20542e-07
-3.42551e-07
9.82376e-08
-3.36321e-07
7.6524e-08
-3.30173e-07
5.54026e-08
-3.24079e-07
3.48753e-08
-3.18013e-07
1.49437e-08
-3.11954e-07
-4.3919e-09
-3.05889e-07
-2.31321e-08
-2.99818e-07
-4.12777e-08
-2.93734e-07
-5.88287e-08
-2.876e-07
-7.57876e-08
-2.81419e-07
-9.21591e-08
-2.75202e-07
-1.0795e-07
-2.68966e-07
-1.23169e-07
-2.62727e-07
-1.37828e-07
-2.56503e-07
-1.5194e-07
-2.50314e-07
-1.6552e-07
-2.4418e-07
-1.78586e-07
-2.38121e-07
-1.91158e-07
-2.32156e-07
-2.03259e-07
-2.26305e-07
-2.14913e-07
-2.20587e-07
-2.26147e-07
-2.1502e-07
-2.36992e-07
-2.0962e-07
-2.4748e-07
-2.04404e-07
-2.57645e-07
-1.99388e-07
-2.67526e-07
-1.94587e-07
-2.77164e-07
-1.90016e-07
-2.86606e-07
-1.8569e-07
-2.959e-07
-1.81625e-07
-3.05101e-07
-1.77842e-07
-3.14264e-07
-1.74403e-07
-3.23461e-07
-1.71292e-07
-3.3276e-07
-1.6852e-07
-3.42241e-07
-1.66204e-07
-3.5197e-07
-1.64458e-07
-3.60746e-07
-1.70016e-07
-3.70187e-07
-1.77293e-07
-3.80377e-07
-1.85746e-07
-3.91409e-07
-1.9541e-07
-4.03371e-07
-2.06348e-07
-4.16349e-07
-2.1868e-07
-4.30429e-07
-2.32586e-07
-4.457e-07
-2.48307e-07
-4.62259e-07
-2.66145e-07
-4.80212e-07
-2.86473e-07
-4.99654e-07
-3.09801e-07
-5.20735e-07
-3.36727e-07
-5.43711e-07
-3.67506e-07
-5.68955e-07
-4.01757e-07
-5.96973e-07
-4.37969e-07
-6.2832e-07
-4.72993e-07
-6.63327e-07
-5.02268e-07
-7.0171e-07
-5.21419e-07
-7.42454e-07
-5.28437e-07
-7.84173e-07
-5.24352e-07
-8.25595e-07
-5.11891e-07
-8.65795e-07
-4.93797e-07
-9.0419e-07
-4.72085e-07
-9.40435e-07
-4.48007e-07
-9.74324e-07
-4.22252e-07
-1.00574e-06
-3.95204e-07
-1.0346e-06
-3.67088e-07
-1.06087e-06
-3.38053e-07
-1.08454e-06
-3.0821e-07
-1.10562e-06
-2.77656e-07
-1.12411e-06
-2.46474e-07
-1.14006e-06
-2.14746e-07
-1.15349e-06
-1.82546e-07
-1.16443e-06
-1.49945e-07
-1.17292e-06
-1.17011e-07
-1.17897e-06
-8.38046e-08
-1.1826e-06
-5.03891e-08
-1.68256e-08
6.57565e-07
-1.33723e-08
6.54667e-07
-3.99687e-08
6.49852e-07
-6.63418e-08
6.43135e-07
-9.24166e-08
6.34535e-07
-1.18117e-07
6.24071e-07
-1.43364e-07
6.1177e-07
-1.68074e-07
5.97664e-07
-1.92155e-07
5.81797e-07
-2.15498e-07
5.64221e-07
-2.37974e-07
5.45006e-07
-2.59418e-07
5.24243e-07
-2.79617e-07
5.02045e-07
-2.98302e-07
4.78561e-07
-3.1514e-07
4.53974e-07
-3.29749e-07
4.28502e-07
-3.41737e-07
4.02392e-07
-3.50778e-07
3.75902e-07
-3.56702e-07
3.4928e-07
-3.59566e-07
3.22745e-07
-3.59675e-07
2.96471e-07
-3.57529e-07
2.70581e-07
-3.53712e-07
2.45155e-07
-3.48792e-07
2.2024e-07
-3.43237e-07
1.95858e-07
-3.37389e-07
1.72017e-07
-3.31464e-07
1.4872e-07
-3.25582e-07
1.25964e-07
-3.19794e-07
1.0375e-07
-3.14105e-07
8.20762e-08
-3.08497e-07
6.09434e-08
-3.02945e-07
4.03528e-08
-2.97421e-07
2.03057e-08
-2.91905e-07
8.02851e-10
-2.86385e-07
-1.81565e-08
-2.80857e-07
-3.6572e-08
-2.75317e-07
-5.44431e-08
-2.69728e-07
-7.1771e-08
-2.64089e-07
-8.85594e-08
-2.58413e-07
-1.04814e-07
-2.52711e-07
-1.20541e-07
-2.46999e-07
-1.35751e-07
-2.41292e-07
-1.50454e-07
-2.35609e-07
-1.64665e-07
-2.29967e-07
-1.784e-07
-2.24384e-07
-1.91678e-07
-2.18877e-07
-2.04519e-07
-2.13463e-07
-2.16945e-07
-2.0816e-07
-2.2898e-07
-2.02982e-07
-2.40653e-07
-1.97946e-07
-2.5199e-07
-1.93066e-07
-2.63023e-07
-1.88354e-07
-2.73784e-07
-1.83825e-07
-2.84306e-07
-1.79492e-07
-2.94627e-07
-1.75368e-07
-3.04781e-07
-1.7147e-07
-3.1481e-07
-1.67813e-07
-3.24747e-07
-1.64464e-07
-3.3466e-07
-1.61378e-07
-3.44573e-07
-1.58607e-07
-3.54563e-07
-1.56214e-07
-3.64706e-07
-1.5431e-07
-3.74487e-07
-1.60236e-07
-3.8467e-07
-1.6711e-07
-3.95434e-07
-1.74983e-07
-4.06912e-07
-1.83931e-07
-4.1921e-07
-1.94049e-07
-4.3242e-07
-2.05469e-07
-4.46631e-07
-2.18373e-07
-4.61934e-07
-2.32999e-07
-4.78427e-07
-2.49647e-07
-4.96217e-07
-2.68676e-07
-5.15412e-07
-2.90598e-07
-5.36189e-07
-3.15938e-07
-5.58829e-07
-3.44852e-07
-5.83723e-07
-3.76848e-07
-6.11371e-07
-4.10304e-07
-6.42268e-07
-4.42079e-07
-6.76618e-07
-4.67903e-07
-7.14011e-07
-4.84014e-07
-7.53411e-07
-4.8903e-07
-7.9353e-07
-4.84227e-07
-8.33253e-07
-4.72166e-07
-8.7179e-07
-4.55258e-07
-9.08651e-07
-4.35224e-07
-9.43543e-07
-4.13114e-07
-9.76292e-07
-3.89503e-07
-1.00679e-06
-3.6471e-07
-1.03495e-06
-3.38924e-07
-1.06073e-06
-3.1227e-07
-1.0841e-06
-2.84846e-07
-1.10502e-06
-2.56733e-07
-1.12349e-06
-2.28008e-07
-1.13949e-06
-1.98742e-07
-1.15303e-06
-1.69006e-07
-1.16411e-06
-1.38868e-07
-1.17272e-06
-1.08393e-07
-1.17888e-06
-7.7645e-08
-1.18258e-06
-4.66881e-08
-1.55889e-08
6.57555e-07
-1.23938e-08
6.54634e-07
-3.70478e-08
6.49787e-07
-6.14949e-08
6.43033e-07
-8.56625e-08
6.34395e-07
-1.09479e-07
6.239e-07
-1.32869e-07
6.11583e-07
-1.55756e-07
5.97483e-07
-1.78055e-07
5.8165e-07
-1.99666e-07
5.64146e-07
-2.2047e-07
5.45045e-07
-2.40317e-07
5.24443e-07
-2.59015e-07
5.02456e-07
-2.76316e-07
4.79232e-07
-2.91916e-07
4.54949e-07
-3.05465e-07
4.29815e-07
-3.16603e-07
4.04066e-07
-3.25028e-07
3.77943e-07
-3.30579e-07
3.51683e-07
-3.33306e-07
3.25492e-07
-3.33484e-07
2.99535e-07
-3.31571e-07
2.73932e-07
-3.28108e-07
2.48759e-07
-3.23618e-07
2.24062e-07
-3.18539e-07
1.99863e-07
-3.13188e-07
1.76169e-07
-3.07769e-07
1.52983e-07
-3.02394e-07
1.303e-07
-2.9711e-07
1.0812e-07
-2.91923e-07
8.644e-08
-2.86816e-07
6.52602e-08
-2.81764e-07
4.45809e-08
-2.76741e-07
2.4403e-08
-2.71727e-07
4.72705e-09
-2.66708e-07
-1.44469e-08
-2.61682e-07
-3.31194e-08
-2.56644e-07
-5.12892e-08
-2.51557e-07
-6.89567e-08
-2.46421e-07
-8.61244e-08
-2.41244e-07
-1.02796e-07
-2.36038e-07
-1.18978e-07
-2.30815e-07
-1.34678e-07
-2.25591e-07
-1.49906e-07
-2.20381e-07
-1.64674e-07
-2.15198e-07
-1.78996e-07
-2.10061e-07
-1.92888e-07
-2.04983e-07
-2.06368e-07
-1.99982e-07
-2.19456e-07
-1.95071e-07
-2.32174e-07
-1.90264e-07
-2.44544e-07
-1.85576e-07
-2.56591e-07
-1.81018e-07
-2.68342e-07
-1.76603e-07
-2.79822e-07
-1.72344e-07
-2.9106e-07
-1.68253e-07
-3.02084e-07
-1.64343e-07
-3.12921e-07
-1.60632e-07
-3.23593e-07
-1.57141e-07
-3.34124e-07
-1.53933e-07
-3.44549e-07
-1.50953e-07
-3.54862e-07
-1.48293e-07
-3.65071e-07
-1.46004e-07
-3.75177e-07
-1.44199e-07
-3.85549e-07
-1.49862e-07
-3.9632e-07
-1.56338e-07
-4.0761e-07
-1.63691e-07
-4.19535e-07
-1.72003e-07
-4.32199e-07
-1.8138e-07
-4.45699e-07
-1.91964e-07
-4.60126e-07
-2.03939e-07
-4.75577e-07
-2.1754e-07
-4.92157e-07
-2.33057e-07
-5.0998e-07
-2.50839e-07
-5.29172e-07
-2.71387e-07
-5.49936e-07
-2.95155e-07
-5.7256e-07
-3.22208e-07
-5.9742e-07
-3.51967e-07
-6.24959e-07
-3.82743e-07
-6.55566e-07
-4.1145e-07
-6.89316e-07
-4.34134e-07
-7.25725e-07
-4.4759e-07
-7.63808e-07
-4.50937e-07
-8.02432e-07
-4.45598e-07
-8.40637e-07
-4.33958e-07
-8.77751e-07
-4.18142e-07
-9.13341e-07
-3.99633e-07
-9.47139e-07
-3.79316e-07
-9.78969e-07
-3.57673e-07
-1.00871e-06
-3.34968e-07
-1.03628e-06
-3.11359e-07
-1.06159e-06
-2.86951e-07
-1.08462e-06
-2.61825e-07
-1.1053e-06
-2.36052e-07
-1.12361e-06
-2.09699e-07
-1.13952e-06
-1.82831e-07
-1.15301e-06
-1.55511e-07
-1.16408e-06
-1.27803e-07
-1.1727e-06
-9.97706e-08
-1.17887e-06
-7.14741e-08
-1.18258e-06
-4.29772e-08
-1.43483e-08
6.57558e-07
-1.14178e-08
6.54641e-07
-3.41309e-08
6.498e-07
-5.66536e-08
6.43055e-07
-7.89185e-08
6.34435e-07
-1.00858e-07
6.23969e-07
-1.22404e-07
6.11696e-07
-1.43484e-07
5.97661e-07
-1.64019e-07
5.81915e-07
-1.8392e-07
5.64524e-07
-2.03078e-07
5.45563e-07
-2.21356e-07
5.25127e-07
-2.38579e-07
5.03332e-07
-2.54521e-07
4.80321e-07
-2.68905e-07
4.56266e-07
-2.81411e-07
4.3137e-07
-2.91708e-07
4.05861e-07
-2.99519e-07
3.79973e-07
-3.04693e-07
3.53937e-07
-3.0727e-07
3.27955e-07
-3.07502e-07
3.02189e-07
-3.05805e-07
2.76756e-07
-3.02675e-07
2.51734e-07
-2.98596e-07
2.27165e-07
-2.93971e-07
2.03071e-07
-2.89094e-07
1.79458e-07
-2.84156e-07
1.56325e-07
-2.79262e-07
1.33668e-07
-2.74454e-07
1.11484e-07
-2.69739e-07
8.97696e-08
-2.65101e-07
6.85226e-08
-2.60517e-07
4.77427e-08
-2.55961e-07
2.74303e-08
-2.51414e-07
7.58567e-09
-2.46864e-07
-1.17914e-08
-2.42305e-07
-3.07012e-08
-2.37734e-07
-4.91425e-08
-2.33116e-07
-6.71151e-08
-2.28448e-07
-8.46201e-08
-2.23739e-07
-1.0166e-07
-2.18998e-07
-1.18239e-07
-2.14236e-07
-1.34365e-07
-2.09466e-07
-1.50044e-07
-2.04701e-07
-1.65288e-07
-1.99954e-07
-1.80109e-07
-1.9524e-07
-1.94519e-07
-1.90573e-07
-2.08534e-07
-1.85966e-07
-2.22171e-07
-1.81433e-07
-2.35449e-07
-1.76986e-07
-2.48387e-07
-1.72637e-07
-2.61006e-07
-1.68398e-07
-2.73329e-07
-1.6428e-07
-2.8538e-07
-1.60293e-07
-2.97181e-07
-1.56451e-07
-3.08756e-07
-1.52767e-07
-3.20131e-07
-1.49257e-07
-3.31322e-07
-1.4595e-07
-3.42359e-07
-1.42895e-07
-3.53255e-07
-1.40056e-07
-3.64004e-07
-1.37543e-07
-3.74565e-07
-1.35442e-07
-3.84638e-07
-1.34108e-07
-3.95168e-07
-1.3933e-07
-4.06199e-07
-1.45304e-07
-4.17793e-07
-1.52093e-07
-4.30024e-07
-1.59767e-07
-4.42973e-07
-1.68426e-07
-4.56725e-07
-1.78206e-07
-4.71369e-07
-1.89288e-07
-4.87003e-07
-2.01897e-07
-5.03738e-07
-2.16311e-07
-5.21698e-07
-2.32868e-07
-5.4103e-07
-2.52041e-07
-5.61952e-07
-2.74213e-07
-5.84762e-07
-2.99374e-07
-6.09825e-07
-3.26875e-07
-6.37539e-07
-3.55001e-07
-6.68191e-07
-3.80771e-07
-7.01731e-07
-4.00573e-07
-7.3759e-07
-4.11715e-07
-7.74801e-07
-4.13715e-07
-8.12327e-07
-4.08066e-07
-8.49328e-07
-3.96953e-07
-8.85226e-07
-3.82243e-07
-9.19652e-07
-3.65206e-07
-9.52374e-07
-3.46593e-07
-9.83238e-07
-3.26809e-07
-1.01213e-06
-3.06076e-07
-1.03896e-06
-2.84526e-07
-1.06367e-06
-2.62249e-07
-1.08618e-06
-2.39315e-07
-1.10644e-06
-2.15785e-07
-1.12442e-06
-1.91719e-07
-1.14008e-06
-1.67174e-07
-1.15338e-06
-1.42209e-07
-1.1643e-06
-1.16882e-07
-1.17282e-06
-9.12499e-08
-1.17892e-06
-6.53716e-08
-1.1826e-06
-3.93069e-08
-1.3122e-08
6.57561e-07
-1.04445e-08
6.54653e-07
-3.1223e-08
6.49827e-07
-5.18284e-08
6.43107e-07
-7.2198e-08
6.34519e-07
-9.227e-08
6.24097e-07
-1.11982e-07
6.11881e-07
-1.31267e-07
5.97917e-07
-1.50055e-07
5.82259e-07
-1.68263e-07
5.64974e-07
-1.85793e-07
5.46138e-07
-2.0252e-07
5.25845e-07
-2.18286e-07
5.0421e-07
-2.32887e-07
4.81373e-07
-2.46069e-07
4.57503e-07
-2.57541e-07
4.32797e-07
-2.67003e-07
4.07476e-07
-2.74198e-07
3.81769e-07
-2.78987e-07
3.559e-07
-2.81404e-07
3.30069e-07
-2.81673e-07
3.04435e-07
-2.80173e-07
2.79115e-07
-2.77358e-07
2.54187e-07
-2.73669e-07
2.29692e-07
-2.69478e-07
2.05653e-07
-2.65056e-07
1.82075e-07
-2.60579e-07
1.58956e-07
-2.56143e-07
1.36291e-07
-2.5179e-07
1.14074e-07
-2.47524e-07
9.23029e-08
-2.4333e-07
7.09733e-08
-2.39188e-07
5.00845e-08
-2.35072e-07
2.96362e-08
-2.30966e-07
9.62841e-09
-2.26856e-07
-9.93904e-09
-2.22738e-07
-2.90665e-08
-2.18606e-07
-4.77523e-08
-2.1443e-07
-6.59953e-08
-2.10205e-07
-8.37956e-08
-2.05938e-07
-1.01155e-07
-2.01638e-07
-1.18077e-07
-1.97314e-07
-1.34565e-07
-1.92977e-07
-1.50628e-07
-1.88638e-07
-1.66271e-07
-1.8431e-07
-1.81506e-07
-1.80005e-07
-1.96343e-07
-1.75736e-07
-2.10795e-07
-1.71515e-07
-2.24875e-07
-1.67353e-07
-2.386e-07
-1.63261e-07
-2.51986e-07
-1.59252e-07
-2.6505e-07
-1.55334e-07
-2.77811e-07
-1.51519e-07
-2.90289e-07
-1.47816e-07
-3.02503e-07
-1.44237e-07
-3.14476e-07
-1.40795e-07
-3.26228e-07
-1.37505e-07
-3.37778e-07
-1.344e-07
-3.49155e-07
-1.31519e-07
-3.60376e-07
-1.28835e-07
-3.71459e-07
-1.26461e-07
-3.82414e-07
-1.24486e-07
-3.92606e-07
-1.23879e-07
-4.03313e-07
-1.28617e-07
-4.14551e-07
-1.34059e-07
-4.26369e-07
-1.40266e-07
-4.38831e-07
-1.47294e-07
-4.52008e-07
-1.55236e-07
-4.65978e-07
-1.6422e-07
-4.8083e-07
-1.74417e-07
-4.96666e-07
-1.86042e-07
-5.13602e-07
-1.99353e-07
-5.31773e-07
-2.14674e-07
-5.51343e-07
-2.32446e-07
-5.72546e-07
-2.52983e-07
-5.95673e-07
-2.76216e-07
-6.21068e-07
-3.01449e-07
-6.49063e-07
-3.26975e-07
-6.7984e-07
-3.49964e-07
-7.13232e-07
-3.67157e-07
-7.48614e-07
-3.76315e-07
-7.85058e-07
-3.7726e-07
-8.2163e-07
-3.71488e-07
-8.57595e-07
-3.60985e-07
-8.92454e-07
-3.47382e-07
-9.25885e-07
-3.31775e-07
-9.5768e-07
-3.14798e-07
-9.87696e-07
-2.96792e-07
-1.01582e-06
-2.77946e-07
-1.04198e-06
-2.58371e-07
-1.06609e-06
-2.38143e-07
-1.08808e-06
-2.17321e-07
-1.1079e-06
-1.9596e-07
-1.12551e-06
-1.74111e-07
-1.14086e-06
-1.51826e-07
-1.15391e-06
-1.29157e-07
-1.16464e-06
-1.06157e-07
-1.17301e-06
-8.28777e-08
-1.17901e-06
-5.93732e-08
-1.18262e-06
-3.56988e-08
-1.19166e-08
6.57566e-07
-9.47641e-09
6.54672e-07
-2.83298e-08
6.49871e-07
-4.7027e-08
6.43184e-07
-6.55111e-08
6.3464e-07
-8.37258e-08
6.24272e-07
-1.01614e-07
6.12122e-07
-1.19117e-07
5.98236e-07
-1.36169e-07
5.8267e-07
-1.52697e-07
5.65488e-07
-1.68611e-07
5.46768e-07
-1.838e-07
5.26602e-07
-1.98121e-07
5.05103e-07
-2.11388e-07
4.82408e-07
-2.23375e-07
4.58683e-07
-2.33817e-07
4.34119e-07
-2.42441e-07
4.08933e-07
-2.49014e-07
3.83351e-07
-2.53408e-07
3.57594e-07
-2.5565e-07
3.3186e-07
-2.55941e-07
3.06307e-07
-2.54623e-07
2.81053e-07
-2.52106e-07
2.56174e-07
-2.48793e-07
2.31716e-07
-2.45022e-07
2.07697e-07
-2.4104e-07
1.84123e-07
-2.37007e-07
1.60991e-07
-2.33014e-07
1.38297e-07
-2.29097e-07
1.16032e-07
-2.25261e-07
9.41931e-08
-2.21492e-07
7.27754e-08
-2.17771e-07
5.17775e-08
-2.14075e-07
3.11988e-08
-2.10388e-07
1.10391e-08
-2.06697e-07
-8.70169e-09
-2.02997e-07
-2.80239e-08
-1.99285e-07
-4.69253e-08
-1.95529e-07
-6.5404e-08
-1.91727e-07
-8.34592e-08
-1.87884e-07
-1.01092e-07
-1.84006e-07
-1.18303e-07
-1.80103e-07
-1.35097e-07
-1.76184e-07
-1.51478e-07
-1.72258e-07
-1.67452e-07
-1.68337e-07
-1.83027e-07
-1.64431e-07
-1.98211e-07
-1.60553e-07
-2.13014e-07
-1.56711e-07
-2.27449e-07
-1.52918e-07
-2.41528e-07
-1.49183e-07
-2.55264e-07
-1.45516e-07
-2.68672e-07
-1.41927e-07
-2.81767e-07
-1.38424e-07
-2.94567e-07
-1.35017e-07
-3.07088e-07
-1.31717e-07
-3.19348e-07
-1.28535e-07
-3.31366e-07
-1.25487e-07
-3.43163e-07
-1.22603e-07
-3.54764e-07
-1.19918e-07
-3.66192e-07
-1.17408e-07
-3.77481e-07
-1.15172e-07
-3.88676e-07
-1.13292e-07
-3.99103e-07
-1.13408e-07
-4.10033e-07
-1.17682e-07
-4.21483e-07
-1.22602e-07
-4.33513e-07
-1.2823e-07
-4.46184e-07
-1.34616e-07
-4.59567e-07
-1.41845e-07
-4.73742e-07
-1.50036e-07
-4.888e-07
-1.59349e-07
-5.04845e-07
-1.69982e-07
-5.22003e-07
-1.82176e-07
-5.40418e-07
-1.96238e-07
-5.60269e-07
-2.12568e-07
-5.81802e-07
-2.31419e-07
-6.05306e-07
-2.52677e-07
-6.31094e-07
-2.75625e-07
-6.59435e-07
-2.98598e-07
-6.90414e-07
-3.18954e-07
-7.2376e-07
-3.33785e-07
-7.58804e-07
-3.41253e-07
-7.9465e-07
-3.41403e-07
-8.30448e-07
-3.35683e-07
-8.6555e-07
-3.25879e-07
-8.9952e-07
-3.1341e-07
-9.32078e-07
-2.99216e-07
-9.6304e-07
-2.83835e-07
-9.92276e-07
-2.67556e-07
-1.01969e-06
-2.50536e-07
-1.04519e-06
-2.32871e-07
-1.0687e-06
-2.14625e-07
-1.09017e-06
-1.95851e-07
-1.10954e-06
-1.76594e-07
-1.12675e-06
-1.569e-07
-1.14176e-06
-1.36815e-07
-1.15453e-06
-1.16385e-07
-1.16503e-06
-9.56572e-08
-1.17323e-06
-7.46791e-08
-1.17911e-06
-5.34982e-08
-1.18264e-06
-3.2165e-08
-1.07363e-08
6.57571e-07
-8.51343e-09
6.54693e-07
-2.54517e-08
6.49916e-07
-4.22505e-08
6.43264e-07
-5.88587e-08
6.34764e-07
-7.52258e-08
6.2445e-07
-9.13008e-08
6.12364e-07
-1.07031e-07
5.98552e-07
-1.22357e-07
5.83068e-07
-1.37214e-07
5.65979e-07
-1.51522e-07
5.47359e-07
-1.65181e-07
5.273e-07
-1.78063e-07
5.05914e-07
-1.90002e-07
4.83334e-07
-2.00796e-07
4.59722e-07
-2.10207e-07
4.35268e-07
-2.17989e-07
4.10185e-07
-2.23933e-07
3.84695e-07
-2.27921e-07
3.59017e-07
-2.29975e-07
3.33347e-07
-2.30274e-07
3.07844e-07
-2.29124e-07
2.82626e-07
-2.26892e-07
2.57772e-07
-2.23942e-07
2.33324e-07
-2.20577e-07
2.09303e-07
-2.17022e-07
1.85714e-07
-2.13422e-07
1.62555e-07
-2.09857e-07
1.39818e-07
-2.06362e-07
1.17497e-07
-2.02941e-07
9.55856e-08
-1.99582e-07
7.40795e-08
-1.96266e-07
5.29768e-08
-1.92974e-07
3.22764e-08
-1.89689e-07
1.19784e-08
-1.864e-07
-7.91752e-09
-1.83102e-07
-2.74112e-08
-1.79792e-07
-4.64999e-08
-1.76441e-07
-6.51812e-08
-1.73046e-07
-8.34538e-08
-1.69612e-07
-1.01317e-07
-1.66144e-07
-1.18771e-07
-1.6265e-07
-1.35819e-07
-1.59137e-07
-1.52462e-07
-1.55615e-07
-1.68706e-07
-1.52094e-07
-1.84556e-07
-1.48582e-07
-2.0002e-07
-1.4509e-07
-2.15105e-07
-1.41627e-07
-2.29821e-07
-1.38203e-07
-2.44177e-07
-1.34827e-07
-2.58187e-07
-1.31508e-07
-2.71861e-07
-1.28253e-07
-2.85213e-07
-1.25072e-07
-2.98257e-07
-1.21973e-07
-3.11008e-07
-1.18966e-07
-3.23483e-07
-1.16062e-07
-3.35698e-07
-1.13273e-07
-3.47673e-07
-1.10629e-07
-3.59433e-07
-1.08158e-07
-3.71002e-07
-1.05839e-07
-3.82415e-07
-1.0376e-07
-3.93705e-07
-1.02006e-07
-4.0438e-07
-1.0268e-07
-4.15542e-07
-1.06512e-07
-4.27205e-07
-1.10929e-07
-4.39435e-07
-1.15988e-07
-4.52301e-07
-1.21737e-07
-4.65876e-07
-1.28254e-07
-4.80245e-07
-1.3565e-07
-4.95502e-07
-1.44072e-07
-5.11758e-07
-1.53703e-07
-5.29149e-07
-1.64761e-07
-5.47824e-07
-1.77533e-07
-5.67982e-07
-1.9238e-07
-5.8987e-07
-2.09497e-07
-6.13771e-07
-2.28739e-07
-6.39967e-07
-2.49389e-07
-6.68663e-07
-2.69864e-07
-6.99851e-07
-2.87732e-07
-7.33177e-07
-3.00433e-07
-7.67937e-07
-3.06474e-07
-8.03275e-07
-3.06052e-07
-8.38418e-07
-3.00534e-07
-8.72787e-07
-2.91506e-07
-9.06e-07
-2.80195e-07
-9.37809e-07
-2.67407e-07
-9.68049e-07
-2.53595e-07
-9.96602e-07
-2.39003e-07
-1.02337e-06
-2.23766e-07
-1.04828e-06
-2.07963e-07
-1.07126e-06
-1.91649e-07
-1.09224e-06
-1.74869e-07
-1.11117e-06
-1.57664e-07
-1.128e-06
-1.40073e-07
-1.14268e-06
-1.22135e-07
-1.15517e-06
-1.03892e-07
-1.16544e-06
-8.53858e-08
-1.17346e-06
-6.66575e-08
-1.17921e-06
-4.77499e-08
-1.18267e-06
-2.87077e-08
-9.58174e-09
6.57576e-07
-7.55547e-09
6.54712e-07
-2.25883e-08
6.4996e-07
-3.7498e-08
6.43341e-07
-5.22394e-08
6.34883e-07
-6.67677e-08
6.2462e-07
-8.1038e-08
6.12592e-07
-9.50029e-08
5.98846e-07
-1.08611e-07
5.83437e-07
-1.21805e-07
5.66428e-07
-1.34513e-07
5.47893e-07
-1.46647e-07
5.27925e-07
-1.58094e-07
5.0663e-07
-1.68709e-07
4.84142e-07
-1.78309e-07
4.6062e-07
-1.86686e-07
4.3625e-07
-1.93621e-07
4.11241e-07
-1.98927e-07
3.85816e-07
-2.02499e-07
3.60191e-07
-2.04353e-07
3.34561e-07
-2.04648e-07
3.09087e-07
-2.03653e-07
2.83886e-07
-2.01696e-07
2.59037e-07
-1.99097e-07
2.34584e-07
-1.96128e-07
2.10548e-07
-1.9299e-07
1.86935e-07
-1.89811e-07
1.63739e-07
-1.86665e-07
1.40955e-07
-1.83581e-07
1.18575e-07
-1.80563e-07
9.65919e-08
-1.77601e-07
7.50019e-08
-1.74678e-07
5.38022e-08
-1.71776e-07
3.29919e-08
-1.6888e-07
1.25708e-08
-1.6598e-07
-7.46082e-09
-1.63072e-07
-2.71027e-08
-1.60151e-07
-4.63519e-08
-1.57193e-07
-6.52052e-08
-1.54194e-07
-8.36603e-08
-1.51158e-07
-1.01716e-07
-1.4809e-07
-1.19371e-07
-1.44996e-07
-1.36626e-07
-1.41883e-07
-1.53484e-07
-1.38759e-07
-1.69946e-07
-1.35632e-07
-1.86019e-07
-1.32511e-07
-2.01705e-07
-1.29404e-07
-2.17014e-07
-1.2632e-07
-2.31951e-07
-1.23267e-07
-2.46525e-07
-1.20254e-07
-2.60747e-07
-1.17287e-07
-2.74626e-07
-1.14375e-07
-2.88174e-07
-1.11525e-07
-3.01404e-07
-1.08745e-07
-3.14328e-07
-1.06043e-07
-3.26961e-07
-1.0343e-07
-3.39319e-07
-1.00916e-07
-3.51421e-07
-9.85278e-08
-3.63291e-07
-9.62899e-08