/*--------------------------------*- C++ -*----------------------------------*\
  =========                 |
  \\      /  F ield         | OpenFOAM: The Open Source CFD Toolbox
   \\    /   O peration     | Website:  https://openfoam.org
    \\  /    A nd           | Version:  8
     \\/     M anipulation  |
\*---------------------------------------------------------------------------*/
FoamFile
{
    version     2.0;
    format      ascii;
    class       volScalarField;
    location    "680/fluid";
    object      Qdot;
}
// * * * * * * * * * * * * * * * * * * * * * * * * * * * * * * * * * * * * * //

dimensions      [1 -1 -3 0 0 0 0];

internalField   nonuniform List<scalar> 
4000
(
0
2.0515e-17
0
0
3.16187e-07
2.93654e-11
0
0
0
-3.42496e-15
0
0
1.0994e-09
3.88751e-07
1.01028e-09
-5.9697e-14
4.05645e-07
-2.99658e-15
1.88579e-08
5.12887e-07
4.11952e-06
5.42423e-05
0.000644172
0.00635765
0.0512225
0.336355
1.81613
8.1797
31.2364
102.786
295.764
753.651
1719.44
3548.38
6682.8
11611
18858
29018.3
42894.3
61663.1
87006
121161
167044
228510
310688
420481
566993
762050
1.02203e+06
1.36777e+06
1.82666e+06
2.43462e+06
3.23882e+06
4.30125e+06
5.70357e+06
7.55371e+06
9.99498e+06
1.31765e+07
1.73314e+07
2.29797e+07
3.04904e+07
6.57919e+07
3.82622e+08
2.95598e+07
2.12834e+07
1.51384e+07
1.06167e+07
7.32719e+06
4.96652e+06
3.30036e+06
2.14881e+06
1.3755e+06
879831
564566
149426
11117
304.405
4.28118
0.0405019
0.000414289
7.83526e-06
3.72791e-07
4.14347e-08
9.43956e-09
2.86861e-09
1.03158e-09
3.97438e-10
1.75921e-10
7.64615e-11
3.36879e-11
1.08075e-11
7.19818e-12
2.2144e-12
1.11085e-12
4.1267e-13
1.66342e-13
6.60912e-14
2.691e-14
5.25438e-12
1.65679e-15
2.65553e-07
-2.04721e-17
2.9113e-07
0
0
-1.60321e-11
-7.83967e-16
-6.76819e-11
0
0
0
9.91803e-19
-5.88579e-10
0
9.78009e-10
-3.3136e-17
-1.99758e-09
3.96332e-07
3.23939e-08
2.66893e-07
3.75914e-06
4.93193e-05
0.000587846
0.00584198
0.0475838
0.316484
1.73202
7.90535
30.5727
101.787
296.03
761.546
1751.17
3635.59
6879.76
11988.2
19493.9
29984.6
44244.9
63424.5
89175.6
123704
169919
231690
314183
424186
570611
766522
1.02743e+06
1.37438e+06
1.835e+06
2.44557e+06
3.25385e+06
4.32278e+06
5.73549e+06
7.60223e+06
1.00699e+07
1.32914e+07
1.75089e+07
2.32605e+07
3.09322e+07
1.08117e+08
3.45843e+08
2.93657e+07
2.1072e+07
1.49398e+07
1.04426e+07
7.18072e+06
4.8474e+06
3.20668e+06
2.07798e+06
1.32497e+06
847561
517768
111324
6613.87
156.364
1.98109
0.0183721
0.000206744
4.67632e-06
2.67351e-07
3.51021e-08
8.56938e-09
2.63643e-09
9.86569e-10
4.41378e-10
1.62889e-10
7.79844e-11
2.94915e-11
1.42735e-11
6.63325e-12
2.41862e-12
1.0357e-12
4.0829e-13
1.65085e-13
6.57649e-14
2.51428e-14
7.78525e-13
1.47677e-15
0
-2.03866e-17
0
1.76211e-16
3.09803e-07
1.57741e-11
0
0
0
0
4.73969e-19
0
0
1.95505e-18
-3.94511e-18
-3.58386e-17
-2.81618e-16
-2.89739e-15
3.11241e-08
2.66355e-07
3.36706e-06
4.66107e-05
0.000551168
0.00549654
0.0450921
0.302859
1.67635
7.74419
30.3179
102.157
300.553
781.629
1814.42
3794.37
7224.57
12639.9
20592
31668.2
46636
66618.6
93243.7
128693
175897
238779
322323
433423
582371
780871
1.04515e+06
1.39658e+06
1.86325e+06
2.48223e+06
3.30245e+06
4.38861e+06
5.82659e+06
7.73074e+06
1.02541e+07
1.35546e+07
1.78901e+07
2.38201e+07
3.17422e+07
1.80672e+08
2.77246e+08
2.94191e+07
2.09628e+07
1.47579e+07
1.02421e+07
6.9917e+06
4.68446e+06
3.07528e+06
1.97846e+06
1.25521e+06
804960
439004
73147.2
3489.44
73.0849
0.874959
0.00844465
0.000109109
2.96632e-06
1.98544e-07
2.93647e-08
7.13876e-09
2.41758e-09
1.01494e-09
4.25641e-10
1.64194e-10
7.62919e-11
3.28333e-11
1.29338e-11
7.3743e-12
2.1571e-12
1.03086e-12
4.32274e-13
1.63622e-13
6.5375e-14
2.67455e-14
8.84359e-15
1.47867e-15
0
0
3.55259e-12
1.33336e-11
0
1.26628e-11
5.77757e-11
0
-3.1413e-15
-3.18624e-15
-4.62823e-19
3.46727e-07
-1.31344e-14
0
-7.65744e-18
-3.47415e-17
4.14371e-09
1.06916e-13
-3.60649e-07
2.40419e-07
3.39309e-06
4.41167e-05
0.000524021
0.00525857
0.0435158
0.295298
1.6529
7.72481
30.5951
104.273
310.179
815.161
1910.61
4025.73
7702.17
13525.9
22068.4
33918.6
49828.7
70904.4
98754.9
135569
184314
248711
334195
448802
601467
804793
1.07539e+06
1.43513e+06
1.9129e+06
2.54681e+06
3.38734e+06
4.50139e+06
5.97796e+06
7.93582e+06
1.05342e+07
1.39301e+07
1.83978e+07
2.4523e+07
3.27229e+07
2.67805e+08
1.92447e+08
2.93878e+07
2.07714e+07
1.44995e+07
9.97521e+06
6.74904e+06
4.48135e+06
2.91604e+06
1.86128e+06
1.17556e+06
757422
348040
44492.4
1751.13
32.7654
0.373205
0.00376731
5.59061e-05
1.82257e-06
1.45587e-07
2.35271e-08
6.09264e-09
2.25664e-09
8.67724e-10
3.59805e-10
1.46399e-10
6.79091e-11
3.22346e-11
1.44648e-11
5.14139e-12
2.5577e-12
8.56996e-13
3.76988e-13
1.62695e-13
6.85813e-14
2.19911e-14
-7.56523e-13
1.48283e-15
0
0
6.39933e-12
0
0
0
0
-3.22316e-07
0
3.11267e-15
4.51303e-19
0
0
0
-7.4192e-18
1.78237e-09
-1.79737e-09
-3.56864e-07
1.27015e-08
4.2913e-07
3.27507e-06
4.25389e-05
0.000508827
0.0051366
0.0428582
0.293646
1.66081
7.84525
31.407
108.175
325.09
862.684
2040.09
4327.5
8310.12
14634
23888.7
36661.4
53687.6
76067.3
105415
143881
194273
260928
350148
468810
626787
837091
1.11689e+06
1.48881e+06
1.98277e+06
2.63831e+06
3.50782e+06
4.66081e+06
6.18979e+06
8.21827e+06
1.09064e+07
1.4407e+07
1.90341e+07
2.53877e+07
3.38762e+07
3.5292e+08
1.05492e+08
2.90884e+07
2.03538e+07
1.40717e+07
9.59138e+06
6.43116e+06
4.23328e+06
2.73225e+06
1.73227e+06
1.09117e+06
705811
248146
26082.2
875.688
14.9091
0.165022
0.00177513
3.04485e-05
1.1795e-06
1.08565e-07
1.96561e-08
5.52898e-09
1.88909e-09
7.55329e-10
3.51713e-10
1.50038e-10
6.26219e-11
3.16488e-11
1.25209e-11
5.45118e-12
2.22215e-12
5.71901e-14
3.74233e-13
1.49241e-13
6.21747e-14
2.19815e-14
-7.54953e-13
1.30813e-15
-2.64077e-07
-2.89109e-21
-6.3566e-12
0
-2.52508e-20
2.74499e-11
-5.59328e-11
-3.16624e-07
-1.03262e-10
-3.24128e-07
-3.26622e-07
0
-9.48521e-10
1.90588e-09
-8.59144e-10
1.72823e-09
3.88049e-09
7.83082e-09
1.22779e-08
6.58962e-08
3.0499e-06
4.18768e-05
0.000502246
0.00510694
0.0429704
0.297195
1.69757
8.09975
32.7507
113.909
345.557
925.174
2205.41
4705.2
9057.78
15969.9
26049.7
39869.3
58136
81938.2
112811
152901
205626
275851
368955
492720
657441
876693
1.16839e+06
1.55621e+06
2.07143e+06
2.75547e+06
3.66318e+06
4.86727e+06
6.46431e+06
8.58271e+06
1.13904e+07
1.50385e+07
1.98636e+07
2.64455e+07
3.51768e+07
4.24742e+08
3.94976e+07
2.77112e+07
1.92665e+07
1.32417e+07
8.97451e+06
5.98389e+06
3.91715e+06
2.51522e+06
1.58863e+06
1.001e+06
641378
184431
15070.5
445.084
7.00961
0.0764486
0.000882196
1.74101e-05
7.89594e-07
8.42398e-08
1.68816e-08
4.78563e-09
1.64446e-09
7.84219e-10
3.03926e-10
1.48375e-10
6.25017e-11
2.63003e-11
9.92381e-12
5.58231e-12
1.99275e-12
-4.74581e-12
3.21212e-13
9.61855e-13
8.48737e-13
2.19782e-14
6.66005e-15
1.31343e-15
-2.63693e-07
2.73009e-07
-2.81488e-07
-2.89115e-07
2.49609e-20
-3.54693e-16
0
0
0
-1.25455e-10
3.19201e-07
-3.20969e-07
-4.14188e-10
-1.74161e-18
8.33737e-10
3.73328e-09
-2.07089e-09
-2.80494e-15
1.18588e-08
6.35916e-08
3.0261e-06
4.1556e-05
0.000503663
0.0051577
0.0437636
0.305442
1.76117
8.48309
34.6226
121.521
371.882
1003.8
2409.89
5168.41
9965.03
17541.4
28551.5
43534.6
63141.3
88350.7
120755
162932
218694
292217
389654
519162
691525
920992
1.22641e+06
1.63273e+06
2.17307e+06
2.89133e+06
3.84584e+06
5.11412e+06
6.79924e+06
9.03826e+06
1.20125e+07
1.58518e+07
2.10977e+07
2.80658e+07
3.72814e+07
4.5062e+08
3.48775e+07
2.47952e+07
1.73868e+07
1.20123e+07
8.16491e+06
5.45099e+06
3.5693e+06
2.29207e+06
1.44977e+06
919332
572745
134425
8908.73
236.302
3.48958
0.0379609
0.000472531
1.06642e-05
5.59485e-07
6.54543e-08
1.41824e-08
4.52009e-09
1.76545e-09
6.65633e-10
3.13154e-10
1.32715e-10
6.07033e-11
2.41078e-11
1.05445e-11
4.91363e-12
2.06566e-12
8.35789e-13
-4.76626e-13
9.47451e-13
4.96623e-14
2.19695e-14
7.40814e-15
1.22873e-15
0
0
6.27095e-12
0
0
-2.97671e-07
7.09919e-16
1.03092e-19
3.08227e-07
0
0
0
0
-8.07541e-10
-9.94328e-10
-3.74159e-17
-1.63034e-09
-4.03403e-09
2.2134e-08
2.53289e-07
3.06516e-06
4.2227e-05
0.000512115
0.0052818
0.045186
0.318152
1.85101
8.99622
37.0422
131.131
404.586
1100.31
2658.27
5723.94
11034
19353.5
31364.5
47507
68332.6
94879.4
129184
173912
232304
309203
411047
546359
726403
966089
1.28519e+06
1.70998e+06
2.27545e+06
3.02825e+06
4.03076e+06
5.36653e+06
7.14789e+06
9.52637e+06
1.27018e+07
1.68457e+07
2.25731e+07
3.02826e+07
4.06827e+07
4.38171e+08
3.20151e+07
2.27634e+07
1.59716e+07
1.10402e+07
7.50544e+06
5.00948e+06
3.27842e+06
2.10454e+06
1.33286e+06
851022
500492
97589.6
5470.45
132.674
1.85913
0.0203403
0.000273097
6.97512e-06
4.16244e-07
5.52252e-08
1.25609e-08
3.73746e-09
1.57691e-09
6.54422e-10
2.96455e-10
1.17717e-10
4.77502e-11
2.60686e-11
1.04182e-11
4.45476e-12
1.02989e-12
1.58308e-12
1.11931e-12
1.34982e-13
-5.26636e-12
2.04631e-14
6.68583e-15
-7.39707e-13
-2.03221e-13
-2.70724e-07
-6.22851e-12
-5.71207e-12
-1.16376e-11
0
-2.97265e-07
-3.00134e-07
1.19573e-10
-4.09691e-19
0
-3.92318e-10
0
-2.29054e-14
-9.64252e-10
-3.50224e-09
1.57609e-09
3.16851e-09
-2.95472e-07
4.00047e-07
3.3016e-06
4.32451e-05
0.000526861
0.00547271
0.047201
0.335179
1.96699
9.64238
40.0387
142.901
444.336
1216.94
2956.62
6384.8
12286.6
21445.3
34552.9
51869.8
74026.2
102391
138556
185216
246073
326146
432091
572706
759609
1.00819e+06
1.33885e+06
1.77874e+06
2.36403e+06
3.14297e+06
4.18011e+06
5.562e+06
7.40497e+06
9.86595e+06
1.31331e+07
1.7419e+07
2.33474e+07
3.13273e+07
8.14907e+07
4.00381e+08
3.03423e+07
2.15424e+07
1.50972e+07
1.04261e+07
7.08318e+06
4.72619e+06
3.09396e+06
1.98913e+06
1.26491e+06
815548
440001
72565.2
3535.52
79.278
1.06406
0.01177
0.000170043
4.85921e-06
3.23394e-07
4.59766e-08
1.10163e-08
3.68794e-09
1.54944e-09
5.92987e-10
2.52339e-10
1.20534e-10
5.25449e-11
2.25142e-11
9.49118e-12
4.81375e-12
1.82719e-12
7.50862e-13
2.90947e-13
1.27642e-13
5.54478e-14
2.04436e-14
6.69322e-15
1.14743e-15
4.82166e-18
-3.02331e-12
0
0
-1.67965e-16
1.1655e-11
-2.35478e-11
0
-1.1719e-10
0
2.35122e-10
4.69816e-10
4.68945e-10
0
2.95892e-07
-4.45997e-17
-2.99891e-16
-2.95208e-15
1.36967e-08
2.48275e-07
3.2549e-06
4.46369e-05
0.000547193
0.00572707
0.0497888
0.356491
2.10961
10.4277
43.6542
157.041
491.962
1356.32
3311.2
7159.69
13715
23734.3
37889.2
56451.9
80190.9
110033
147851
196437
259651
342664
452294
597517
790166
1.04588e+06
1.38538e+06
1.83616e+06
2.43478e+06
3.22993e+06
4.28649e+06
5.69112e+06
7.55978e+06
1.00479e+07
1.33371e+07
1.76289e+07
2.3539e+07
3.14417e+07
1.47008e+08
3.41105e+08
2.94397e+07
2.08493e+07
1.45774e+07
1.00449e+07
6.80969e+06
4.53465e+06
2.96363e+06
1.90402e+06
1.21328e+06
788866
390717
55284.7
2406.25
50.3849
0.652066
0.00732265
0.000113347
3.58001e-06
2.63829e-07
3.99941e-08
1.0064e-08
3.5141e-09
1.32667e-09
5.83204e-10
2.48089e-10
1.14041e-10
4.63847e-11
2.15756e-11
9.3749e-12
4.18066e-12
1.61283e-12
6.07377e-12
2.89105e-13
1.21599e-13
-7.24364e-13
1.74621e-14
5.96983e-15
1.06117e-15
0
-2.68457e-07
0
-6.89143e-12
-1.66019e-16
0
0
4.6584e-11
9.34214e-11
0
-2.29422e-10
0
-2.87904e-07
-4.64431e-18
7.3598e-10
-3.69394e-17
-3.13876e-16
-3.04597e-15
1.67964e-08
2.54493e-07
3.38543e-06
4.63594e-05
0.000573161
0.00604121
0.0529306
0.382058
2.27945
11.3592
47.9363
173.796
548.483
1521.95
3732.03
8071.91
15348.5
26240.9
41545.7
61517.4
86570.5
117803
157182
207599
273036
358765
471713
620954
818430
1.07988e+06
1.42612e+06
1.88469e+06
2.49215e+06
3.29702e+06
4.36378e+06
5.77832e+06
7.65515e+06
1.0147e+07
1.34273e+07
1.76982e+07
2.35659e+07
3.13839e+07
2.05029e+08
2.85686e+08
2.88379e+07
2.04037e+07
1.42547e+07
9.81651e+06
6.65213e+06
4.42889e+06
2.89496e+06
1.86145e+06
1.1891e+06
777770
349244
43435.9
1721.1
33.9676
0.426784
0.00487021
8.03686e-05
2.77512e-06
2.22422e-07
3.63463e-08
9.49909e-09
3.26179e-09
1.30092e-09
5.23532e-10
2.19457e-10
1.12151e-10
4.92687e-11
2.50418e-11
8.8273e-12
3.91853e-12
1.59703e-12
6.8497e-13
2.76317e-13
1.14356e-13
4.77757e-14
4.42382e-12
5.97199e-15
-7.37457e-13
4.80779e-18
-2.99804e-12
-7.9944e-17
0
0
-1.1333e-11
-2.83199e-07
0
1.33604e-15
0
-2.23738e-10
0
0
2.77857e-07
-5.96716e-18
-4.15917e-17
-3.26037e-16
-2.82806e-09
1.89523e-08
1.24773e-07
3.55563e-06
4.86562e-05
0.000603932
0.00641071
0.0566005
0.411803
2.47676
12.4424
52.9289
193.404
614.889
1716.92
4225.22
9115.93
17135.4
28961.9
45545.9
66752.6
93051.1
125610
166489
218677
286248
374547
490565
643434
845137
1.11144e+06
1.46313e+06
1.92768e+06
2.54145e+06
3.35257e+06
4.42491e+06
5.84332e+06
7.72004e+06
1.02047e+07
1.34686e+07
1.77134e+07
2.35282e+07
3.12579e+07
2.54788e+08
2.38296e+08
2.8275e+07
2.00134e+07
1.39855e+07
9.63313e+06
6.52915e+06
4.34831e+06
2.84406e+06
1.83139e+06
1.17402e+06
772932
306897
35195.9
1289.51
24.184
0.296697
0.00344427
6.01946e-05
2.24482e-06
1.92909e-07
3.27497e-08
9.09833e-09
3.00383e-09
1.27407e-09
5.65308e-10
2.39192e-10
1.10215e-10
4.71212e-11
2.09611e-11
8.78914e-12
3.87206e-12
1.63348e-12
6.78903e-13
2.6114e-13
8.88395e-13
5.23362e-12
1.74e-14
5.60913e-15
9.76267e-16
-6.89172e-22
8.23071e-13
5.69933e-21
-6.76395e-12
1.62152e-16
0
-2.75553e-11
2.78709e-07
1.10105e-10
-8.92311e-11
0
-2.73495e-07
0
-1.54442e-09
1.53237e-09
-4.58114e-17
-3.30656e-16
2.69468e-07
1.8152e-08
4.168e-07
3.60001e-06
5.1033e-05
0.000638749
0.00682905
0.0607527
0.445487
2.70083
13.6779
58.6573
216.059
692.183
1945.34
4802.28
10303.2
19113.3
31910.2
49623.9
71981
99442
133271
175608
229537
299192
389974
508909
665158
870711
1.14131e+06
1.49769e+06
1.96715e+06
2.58579e+06
3.4013e+06
4.4766e+06
5.89446e+06
7.76605e+06
1.02419e+07
1.34861e+07
1.76944e+07
2.3447e+07
3.10749e+07
2.96513e+08
1.99018e+08
2.77156e+07
1.9644e+07
1.37443e+07
9.47769e+06
6.43099e+06
4.28809e+06
2.80876e+06
1.81249e+06
1.16615e+06
771047
276297
29317.3
1006.98
18.0901
0.217826
0.00257276
4.73276e-05
1.88815e-06
1.72862e-07
3.09324e-08
8.18326e-09
2.93635e-09
1.24616e-09
5.27995e-10
2.34535e-10
1.02318e-10
4.63336e-11
2.06389e-11
9.00556e-12
3.82397e-12
7.9734e-13
6.51267e-13
2.82824e-13
9.59336e-14
4.41398e-14
1.58989e-14
5.60558e-15
9.77611e-16
2.61043e-07
-1.94743e-17
-2.68392e-07
-5.4517e-12
-1.3487e-11
-1.35358e-11
-6.43791e-16
0
8.76701e-11
2.54398e-15
-1.728e-10
0
-1.41957e-18
-2.60088e-07
8.15028e-10
-1.61565e-09
-1.30567e-09
-3.37862e-15
1.73488e-08
2.94775e-07
3.81863e-06
5.37341e-05
0.000676717
0.00728684
0.0653063
0.482588
2.94906
15.0563
65.0991
241.743
780.407
2206.58
5455.63
11648.9
21247.9
34802.8
53531.9
76896.1
105419
140457
184221
239868
311570
404762
526486
685912
895012
1.16948e+06
1.52993e+06
2.0035e+06
2.62584e+06
3.44376e+06
4.51924e+06
5.93527e+06
7.80281e+06
1.02655e+07
1.34817e+07
1.76476e+07
2.33307e+07
3.08493e+07
3.30779e+08
1.67342e+08
2.71546e+07
1.92819e+07
1.35149e+07
9.33597e+06
6.34616e+06
4.23949e+06
2.78281e+06
1.80047e+06
1.16272e+06
770333
259295
25092.5
817.589
14.1723
0.16821
0.00201993
3.88691e-05
1.6397e-06
1.57362e-07
2.918e-08
8.51193e-09
2.94313e-09
1.2172e-09
5.36615e-10
2.29727e-10
1.0356e-10
4.55214e-11
2.03091e-11
8.1323e-12
3.94191e-12
1.59718e-12
6.44887e-13
2.5704e-13
1.07034e-13
3.97057e-14
1.66524e-14
5.59936e-15
9.78435e-16
0
0
0
-2.68338e-07
-2.27248e-20
0
0
-9.62128e-11
0
0
0
6.96401e-19
7.30879e-10
0
-6.38764e-10
-2.46415e-07
2.44408e-07
-2.41198e-07
2.4531e-08
3.04851e-07
3.91472e-06
5.64919e-05
0.000716663
0.00776848
0.0701272
0.522143
3.21597
16.553
72.1702
270.265
879.48
2501.43
6185.98
13069.2
23253.1
37291.1
56837.8
81034
110503
146668
191814
249130
322812
418304
542652
705009
917308
1.19516e+06
1.55893e+06
2.03528e+06
2.65926e+06
3.4775e+06
4.55256e+06
5.96559e+06
7.82272e+06
1.02663e+07
1.34489e+07
1.75651e+07
2.3169e+07
3.05669e+07
3.58664e+08
1.41695e+08
2.65935e+07
1.8926e+07
1.32949e+07
9.20442e+06
6.27094e+06
4.19922e+06
2.76355e+06
1.79345e+06
1.16267e+06
771214
246049
22106.1
689.809
11.6079
0.13623
0.00166049
3.31959e-05
1.46855e-06
1.4793e-07
2.77243e-08
7.94863e-09
2.96044e-09
1.27378e-09
5.2491e-10
2.29792e-10
1.073e-10
4.46862e-11
1.92363e-11
8.00905e-12
-1.52133e-12
1.52711e-12
6.38247e-13
2.54834e-13
1.06292e-13
-5.0533e-12
7.61803e-13
5.23229e-15
9.78826e-16
0
-2.62882e-07
-2.64707e-07
6.57367e-12
-2.66132e-07
-3.12253e-16
-2.64637e-07
0
1.75731e-19
-2.57407e-07
6.85607e-19
-2.50189e-07
3.89769e-10
0
7.55059e-10
-5.0777e-17
-3.66195e-16
-3.60681e-15
2.33321e-08
3.20987e-07
4.13404e-06
5.94148e-05
0.000756489
0.00825256
0.0750073
0.562552
3.49151
18.1164
79.651
300.827
986.739
2821.92
6988.53
14525.7
24883.8
38931.5
58978.7
83765.9
114010
151181
197607
256476
331991
429593
556305
721221
936149
1.21641e+06
1.58219e+06
2.06001e+06
2.68543e+06
3.50423e+06
4.57589e+06
5.97981e+06
7.82072e+06
1.02373e+07
1.33769e+07
1.74302e+07
2.29381e+07
3.01981e+07
3.80087e+08
1.21722e+08
2.60333e+07
1.85751e+07
1.30821e+07
9.08069e+06
6.2032e+06
4.16549e+06
2.74964e+06
1.79048e+06
1.16537e+06
773389
236415
20039.3
603.827
9.91695
0.115348
0.00142379
2.93709e-05
1.34777e-06
1.39744e-07
2.69027e-08
8.04449e-09
2.87905e-09
1.24083e-09
5.11483e-10
2.3737e-10
9.63129e-11
4.22765e-11
1.81945e-11
7.88257e-12
3.48914e-12
1.46717e-12
6.31396e-13
2.52536e-13
-4.96298e-12
4.21692e-14
1.57401e-14
5.22247e-15
9.78785e-16
-6.85253e-22
0
0
0
0
-2.61746e-07
-8.772e-20
0
-2.54433e-07
0
6.6619e-19
0
1.28422e-18
2.34059e-07
-5.89867e-10
-2.26215e-07
-3.78172e-16
5.0265e-09
2.48725e-08
3.20522e-07
4.45315e-06
6.20708e-05
0.000793802
0.00870927
0.0796528
0.601426
3.75987
19.6612
87.1675
332.126
1098.79
3160.7
7786.4
15735.1
25557.1
38958.7
59143.2
84242.6
115027
153007
200497
260668
337689
436952
565416
732095
948747
1.23072e+06
1.59837e+06
2.07786e+06
2.70295e+06
3.51846e+06
4.58308e+06
5.97394e+06
7.79253e+06
1.01727e+07
1.32556e+07
1.72208e+07
2.25866e+07
2.96234e+07
4.03205e+08
1.03331e+08
2.54726e+07
1.8227e+07
1.28736e+07
8.96177e+06
6.1401e+06
4.13584e+06
2.73902e+06
1.78994e+06
1.16957e+06
777199
230018
18667.2
547.22
8.81448
0.101799
0.00126905
2.68268e-05
1.27045e-06
1.33872e-07
2.60455e-08
7.48658e-09
2.95643e-09
1.20706e-09
5.41148e-10
2.25201e-10
9.9661e-11
4.14312e-11
1.92654e-11
7.74613e-12
3.43815e-12
1.39846e-12
-1.55075e-13
9.97749e-13
1.04704e-13
7.84938e-13
1.56758e-14
5.21087e-15
8.89616e-16
3.63853e-13
0
7.67038e-17
-2.60685e-07
-2.1899e-20
2.57789e-07
-4.58119e-11
-9.05026e-11
0
0
0
0
2.3013e-07
5.77946e-10
1.64998e-14
-1.10751e-09
-3.87352e-16
4.76876e-09
2.35177e-08
3.34548e-07
4.51798e-06
6.42545e-05
0.000825667
0.00910155
0.0836794
0.63544
3.99719
21.043
93.9708
360.741
1201.49
3467.24
8448.84
16308.7
24470.4
36423.6
56350.9
81389
112351
150744
198835
259754
337624
437806
567246
735072
952964
1.23615e+06
1.60411e+06
2.0826e+06
2.70515e+06
3.51557e+06
4.57123e+06
5.94728e+06
7.74241e+06
1.00864e+07
1.31157e+07
1.70036e+07
2.22538e+07
2.91273e+07
4.15798e+08
9.2316e+07
2.49111e+07
1.78793e+07
1.26662e+07
8.8442e+06
6.0783e+06
4.1073e+06
2.72922e+06
1.78983e+06
1.17369e+06
780964
226403
17830.9
511.998
8.12542
0.0933246
0.00117171
2.5209e-05
1.21848e-06
1.31674e-07
2.57595e-08
7.7174e-09
2.86624e-09
1.17259e-09
5.26181e-10
2.34829e-10
9.74052e-11
4.47796e-11
1.89031e-11
8.31903e-12
3.38587e-12
2.18914e-12
5.92347e-13
2.47715e-13
1.09547e-13
4.16638e-14
1.63926e-14
5.19806e-15
9.77838e-16
-4.76003e-18
2.73718e-21
0
0
0
0
0
0
0
-2.37816e-07
0
-2.26787e-07
2.84732e-10
-2.32585e-18
-1.20539e-09
-5.3094e-17
-2.0034e-07
2.00902e-07
2.21598e-08
2.42826e-07
4.65655e-06
6.56816e-05
0.000848877
0.00939027
0.0866629
0.660865
4.17636
22.0982
99.2307
383.109
1281.73
3692.34
8788.91
15652.7
23795.2
31343.4
49689.1
74208.9
104814
142991
190973
251842
329683
429826
559183
726585
943582
1.22514e+06
1.59068e+06
2.06549e+06
2.68248e+06
3.4846e+06
4.52794e+06
5.88583e+06
7.65429e+06
9.95935e+06
1.29325e+07
1.67409e+07
2.18713e+07
2.85713e+07
4.24737e+08
8.54499e+07
2.43443e+07
1.75248e+07
1.24512e+07
8.71905e+06
6.00952e+06
4.07268e+06
2.71435e+06
1.78554e+06
1.17424e+06
782456
224784
17403
492.678
7.73753
0.088514
0.00111627
2.42873e-05
1.18915e-06
1.29498e-07
2.65669e-08
7.58311e-09
2.92642e-09
1.17244e-09
5.22635e-10
2.24245e-10
9.51059e-11
4.50138e-11
1.85333e-11
8.1733e-12
2.62979e-12
1.44871e-12
6.09776e-13
2.45222e-13
5.05967e-12
4.4229e-14
1.55364e-14
7.39445e-13
9.77049e-16
-6.82332e-22
0
0
0
0
0
8.30212e-20
1.63034e-19
0
0
-1.7819e-10
2.1896e-07
-7.99719e-15
-6.53451e-10
2.01006e-07
-5.4676e-17
-2.89251e-14
-3.90214e-15
2.68247e-08
3.48645e-07
4.73832e-06
6.66072e-05
0.000860728
0.00953924
0.088215
0.674206
4.27127
22.6629
102.07
395.149
1322.55
3770.49
8559.17
16125.5
24789.8
32679.3
39245.7
62201.1
91681.6
128662
175320
234654
310656
408537
535056
698961
911588
1.18764e+06
1.54621e+06
2.01213e+06
2.61771e+06
3.40503e+06
4.42901e+06
5.76131e+06
7.49562e+06
9.75456e+06
1.26654e+07
1.63897e+07
2.13974e+07
2.79226e+07
4.29489e+08
8.24218e+07
2.37583e+07
1.71422e+07
1.22047e+07
8.5629e+06
5.91276e+06
4.01433e+06
2.68025e+06
1.76616e+06
1.16311e+06
776015
223670
17256.3
485.08
7.57602
0.0864742
0.00109271
2.38984e-05
1.17878e-06
1.29704e-07
2.61034e-08
7.72341e-09
2.90912e-09
1.17746e-09
5.16265e-10
2.32719e-10
9.50661e-11
4.28469e-11
1.94874e-11
8.02557e-12
4.14292e-12
2.13008e-12
6.02316e-13
2.64874e-13
1.07736e-13
4.11286e-14
1.68761e-14
5.16988e-15
7.33572e-13
0
2.58463e-07
2.57374e-07
0
6.25908e-12
2.24177e-11
-8.3021e-20
2.41569e-07
0
0
-6.07776e-19
0
-6.10515e-10
-2.22875e-18
1.50617e-14
-5.04699e-17
1.20083e-09
2.34439e-09
2.30922e-08
3.48224e-07
4.73828e-06
6.66222e-05
0.000860767
0.00953961
0.0882188
0.674235
4.27145
22.6638
102.073
395.161
1322.57
3770.5
8559.08
16125.2
24789.3
32678.8
39245.1
62199.1
91679.5
128660
175318
234653
310655
408535
535055
698961
911588
1.18764e+06
1.54622e+06
2.01214e+06
2.61771e+06
3.40504e+06
4.42902e+06
5.76132e+06
7.49563e+06
9.75458e+06
1.26654e+07
1.63897e+07
2.13974e+07
2.79226e+07
4.29492e+08
8.24197e+07
2.37583e+07
1.71422e+07
1.22047e+07
8.56295e+06
5.91282e+06
4.01439e+06
2.68031e+06
1.76621e+06
1.16315e+06
776042
223675
17256.6
485.085
7.57609
0.0864749
0.00109271
2.39018e-05
1.17758e-06
1.29706e-07
2.58561e-08
7.5948e-09
2.82788e-09
1.17746e-09
5.26989e-10
2.28249e-10
9.78779e-11
4.28477e-11
1.81598e-11
8.02557e-12
2.68089e-12
1.4282e-12
6.0233e-13
2.42694e-13
1.07736e-13
-4.90134e-12
1.68766e-14
5.524e-15
9.31884e-16
-3.6334e-13
-2.73718e-21
0
0
0
0
5.89174e-16
-1.6662e-19
0
-1.70566e-10
2.3236e-07
0
2.2107e-07
-2.32583e-18
6.64627e-10
-4.8669e-17
2.30063e-09
2.02354e-09
2.19555e-07
4.39471e-07
4.55445e-06
6.57844e-05
0.000848989
0.00939134
0.0866734
0.660947
4.17688
22.101
99.2427
383.152
1281.86
3692.52
8788.65
15650.7
23793.3
31341.5
49684.6
74203.6
104808
142985
190969
251839
329681
429824
559182
726586
943585
1.22515e+06
1.59069e+06
2.0655e+06
2.68249e+06
3.48462e+06
4.52797e+06
5.88586e+06
7.65434e+06
9.9594e+06
1.29325e+07
1.67409e+07
2.18714e+07
2.85714e+07
4.24744e+08
8.54439e+07
2.43443e+07
1.75248e+07
1.24512e+07
8.71902e+06
6.00948e+06
4.07263e+06
2.71431e+06
1.78549e+06
1.17421e+06
782433
224780
17403
492.682
7.73766
0.0885159
0.0011163
2.42884e-05
1.18916e-06
1.29497e-07
2.65669e-08
7.71604e-09
2.92577e-09
1.18046e-09
5.31597e-10
2.34476e-10
9.51059e-11
4.38205e-11
1.98873e-11
8.1733e-12
3.50682e-12
2.15978e-12
5.85284e-13
2.45229e-13
1.0865e-13
-4.19968e-12
-4.97278e-12
5.18437e-15
9.77078e-16
-2.5956e-07
0
0
-2.60673e-07
-1.52553e-16
2.3128e-11
-2.55312e-07
0
2.48477e-07
-2.44239e-07
1.5428e-10
4.41117e-15
2.29832e-07
2.24362e-07
6.9483e-10
-1.36118e-09
1.08708e-09
2.6294e-09
2.14074e-08
3.36627e-07
4.4129e-06
6.42715e-05
0.000825697
0.00910284
0.083691
0.635533
3.99782
21.0469
93.9927
360.853
1201.98
3468.13
8450.41
16310.8
24471.9
36425.3
56353
81391.5
112353
150746
198836
259754
337623
437807
567250
735079
952974
1.23616e+06
1.60413e+06
2.08263e+06
2.70518e+06
3.51561e+06
4.57128e+06
5.94734e+06
7.74248e+06
1.00865e+07
1.31158e+07
1.70038e+07
2.22539e+07
2.91275e+07
4.1581e+08
9.23055e+07
2.49112e+07
1.78794e+07
1.26662e+07
8.84424e+06
6.07835e+06
4.10734e+06
2.72927e+06
1.78987e+06
1.17373e+06
780986
226409
17831.3
512.012
8.12568
0.0933279
0.00117176
2.521e-05
1.21612e-06
1.31021e-07
2.57595e-08
7.68255e-09
2.86629e-09
1.17262e-09
5.26181e-10
2.25436e-10
9.44626e-11
4.35632e-11
1.8143e-11
7.62082e-12
3.56253e-12
1.41978e-12
5.72201e-13
5.21743e-12
1.03871e-13
4.16647e-14
1.70326e-14
5.19806e-15
9.77838e-16
-2.0091e-13
2.76047e-21
0
0
0
0
-6.11073e-16
1.73783e-19
-2.54431e-07
-8.07638e-11
-4.64078e-15
0
0
-1.75535e-14
-2.29715e-07
1.42498e-09
1.40345e-09
2.77144e-09
2.48722e-08
3.23236e-07
4.44869e-06
6.20891e-05
0.000793846
0.00871061
0.0796638
0.601501
3.76028
19.663
87.1728
332.13
1098.72
3161.18
7788.9
15739.3
25561.6
38963.9
59149.2
84249.3
115034
153015
200505
260677
337699
436961
565424
732103
948757
1.23074e+06
1.59839e+06
2.0779e+06
2.703e+06
3.51851e+06
4.58314e+06
5.97402e+06
7.79264e+06
1.01728e+07
1.32558e+07
1.7221e+07
2.25868e+07
2.96236e+07
4.03223e+08
1.03315e+08
2.54726e+07
1.8227e+07
1.28736e+07
8.96177e+06
6.14008e+06
4.13582e+06
2.739e+06
1.78991e+06
1.16954e+06
777184
230017
18667.4
547.233
8.81479
0.101804
0.0012691
2.68268e-05
1.27045e-06
1.34549e-07
2.66654e-08
7.65637e-09
2.79522e-09
1.20706e-09
4.98456e-10
2.25204e-10
9.96592e-11
4.41984e-11
1.92654e-11
8.46262e-12
3.43809e-12
1.39846e-12
5.78918e-13
2.50164e-13
1.04706e-13
4.19221e-14
1.56762e-14
5.37105e-15
8.89646e-16
4.78041e-18
1.47405e-12
0
0
-2.24493e-20
0
0
1.23553e-15
-1.7573e-19
2.57591e-07
0
4.70429e-15
2.46613e-07
-2.61598e-18
-1.03012e-17
1.21123e-09
-1.47073e-09
-3.60677e-15
2.62236e-08
1.99365e-07
4.13398e-06
5.94252e-05
0.000756629
0.00825396
0.0750168
0.56261
3.49177
18.1173
79.6528
300.829
986.746
2821.85
6988.18
14525.8
24884.6
38933.4
58981.7
83770
114015
151188
197615
256485
332003
429608
556323
721242
936173
1.21644e+06
1.58221e+06
2.06005e+06
2.68548e+06
3.5043e+06
4.57597e+06
5.97991e+06
7.82085e+06
1.02375e+07
1.33771e+07
1.74304e+07
2.29383e+07
3.01984e+07
3.80112e+08
1.21699e+08
2.60333e+07
1.85752e+07
1.30821e+07
9.08073e+06
6.20324e+06
4.16553e+06
2.74967e+06
1.79051e+06
1.1654e+06
773412
236422
20040
603.85
9.9174
0.115354
0.00142386
2.93722e-05
1.35031e-06
1.39046e-07
2.71896e-08
8.3695e-09
2.95335e-09
1.24083e-09
5.11484e-10
2.3064e-10
1.01871e-10
4.38307e-11
1.81941e-11
8.20583e-12
3.57063e-12
6.78262e-13
6.31396e-13
2.52536e-13
1.08101e-13
4.21683e-14
1.5741e-14
5.22247e-15
4.26719e-12
0
-1.48027e-12
0
0
0
0
0
2.681e-07
1.05398e-10
2.6398e-07
-2.61151e-07
2.58706e-07
-4.02984e-10
-6.47004e-10
-5.35535e-18
-1.55227e-09
-3.51423e-16
-3.50046e-15
2.75712e-08
3.05413e-07
4.03406e-06
5.66269e-05
0.000716685
0.00776985
0.0701372
0.522202
3.21622
16.5537
72.17
270.25
879.368
2501.07
6184.77
13067.6
23251.7
37290.7
56838.7
81036.3
110506
146673
191821
249139
322823
418319
542671
705032
917337
1.19519e+06
1.55897e+06
2.03532e+06
2.65931e+06
3.47758e+06
4.55265e+06
5.96571e+06
7.82287e+06
1.02665e+07
1.34492e+07
1.75654e+07
2.31694e+07
3.05673e+07
3.587e+08
1.41664e+08
2.65935e+07
1.8926e+07
1.3295e+07
9.20444e+06
6.27096e+06
4.19922e+06
2.76354e+06
1.79343e+06
1.16264e+06
771189
246044
22106.2
689.825
11.6084
0.136237
0.00166058
3.31958e-05
1.46854e-06
1.47209e-07
2.77241e-08
7.94874e-09
2.96044e-09
1.27378e-09
5.48495e-10
2.35959e-10
9.83665e-11
4.46862e-11
1.85184e-11
2.98325e-12
3.72316e-12
1.43452e-12
6.84674e-13
2.54827e-13
1.06292e-13
-7.06644e-13
-7.30203e-13
5.23205e-15
9.78826e-16
0
-1.4865e-12
0
-1.59202e-16
0
4.61671e-20
0
2.73402e-07
-1.28008e-15
2.70551e-07
5.04614e-15
0
2.63677e-07
0
-8.33951e-18
-4.40852e-17
-2.53435e-07
-3.37858e-15
1.73486e-08
2.88991e-07
3.82495e-06
5.37397e-05
0.000676776
0.00728845
0.065319
0.482671
2.94952
15.0585
65.1083
241.781
780.56
2207.19
5457.34
11651.3
21250.4
34805.6
53535
76899.8
105423
140463
184228
239878
311581
404776
526504
685935
895041
1.16952e+06
1.52997e+06
2.00355e+06
2.62591e+06
3.44384e+06
4.51934e+06
5.93541e+06
7.80298e+06
1.02657e+07
1.3482e+07
1.7648e+07
2.33311e+07
3.08498e+07
3.30828e+08
1.67302e+08
2.71548e+07
1.92821e+07
1.35151e+07
9.33607e+06
6.34625e+06
4.23959e+06
2.78293e+06
1.8006e+06
1.16284e+06
770437
259326
25094.8
817.646
14.1732
0.16822
0.00202005
3.8873e-05
1.63998e-06
1.57968e-07
2.94832e-08
8.51193e-09
2.86487e-09
1.2172e-09
5.37325e-10
2.19477e-10
1.00371e-10
4.55205e-11
2.31541e-11
1.24913e-11
-1.35572e-12
1.54552e-12
1.40293e-12
2.57032e-13
1.0118e-13
3.97057e-14
1.52029e-14
5.59936e-15
1.01838e-15
0
1.95561e-17
5.69933e-21
-1.60711e-16
-2.75918e-07
-1.11729e-11
0
-2.78753e-07
1.30804e-15
0
0
5.14252e-15
-3.49365e-10
-2.90449e-18
-2.68406e-07
-4.5811e-17
-3.30653e-16
-3.25405e-15
2.42024e-08
2.78793e-07
3.61211e-06
5.10688e-05
0.000638934
0.006831
0.0607672
0.445585
2.70138
13.6805
58.6676
216.093
692.263
1945.39
4802.1
10304
19115.3
31913
49627.3
71985
99446.8
133277
175615
229546
299203
389988
508927
665181
870740
1.14135e+06
1.49773e+06
1.96721e+06
2.58586e+06
3.40139e+06
4.47671e+06
5.89459e+06
7.76622e+06
1.02421e+07
1.34864e+07
1.76947e+07
2.34474e+07
3.10754e+07
2.96573e+08
1.9897e+08
2.77156e+07
1.96439e+07
1.37442e+07
9.47752e+06
6.43074e+06
4.28777e+06
2.80837e+06
1.81206e+06
1.16574e+06
770726
276210
29312.5
1006.92
18.0902
0.217833
0.00257289
4.73332e-05
1.88534e-06
1.72861e-07
3.03065e-08
8.37765e-09
2.93636e-09
1.1554e-09
5.01894e-10
2.57846e-10
1.02318e-10
4.84664e-11
1.91396e-11
8.24424e-12
9.0238e-12
1.4685e-12
5.86358e-12
2.5914e-13
1.0773e-13
4.86901e-14
1.73547e-14
5.60558e-15
9.77611e-16
4.80779e-18
0
6.10268e-12
-1.16437e-20
2.3554e-20
0
2.83198e-07
4.57263e-11
0
0
0
-7.59259e-19
0
-3.00037e-18
8.74749e-10
-1.41737e-09
-3.26034e-16
3.4759e-09
1.89521e-08
2.66299e-07
3.55559e-06
4.86696e-05
0.000603988
0.0064125
0.0566156
0.411904
2.47732
12.445
52.9394
193.441
615.006
1717.28
4226.35
9118.51
17138.8
28966.4
45551.5
66758.9
93057.9
125618
166497
218686
286259
374561
490582
643456
845164
1.11147e+06
1.46317e+06
1.92774e+06
2.54151e+06
3.35265e+06
4.42502e+06
5.84345e+06
7.7202e+06
1.02049e+07
1.34689e+07
1.77137e+07
2.35286e+07
3.12584e+07
2.54852e+08
2.38246e+08
2.82761e+07
2.00146e+07
1.3987e+07
9.63473e+06
6.53082e+06
4.35007e+06
2.84588e+06
1.83306e+06
1.17541e+06
773877
307175
35213.3
1289.83
24.1872
0.296721
0.00344449
6.02003e-05
2.24481e-06
1.93545e-07
3.27494e-08
8.93614e-09
3.18765e-09