/*--------------------------------*- C++ -*----------------------------------*\
  =========                 |
  \\      /  F ield         | OpenFOAM: The Open Source CFD Toolbox
   \\    /   O peration     | Website:  https://openfoam.org
    \\  /    A nd           | Version:  8
     \\/     M anipulation  |
\*---------------------------------------------------------------------------*/
FoamFile
{
    version     2.0;
    format      ascii;
    class       volScalarField;
    location    "680/fluid";
    object      rDeltaT;
}
// * * * * * * * * * * * * * * * * * * * * * * * * * * * * * * * * * * * * * //

dimensions      [0 0 -1 0 0 0 0];

internalField   nonuniform List<scalar> 
4000
(
513.485
539.504
564.34
588.135
610.828
632.32
652.483
671.178
688.274
703.671
717.331
729.31
739.785
749.083
757.694
766.12
774.751
783.772
793.087
802.314
810.851
818.009
823.13
825.689
825.358
821.949
815.35
805.529
792.522
776.41
757.316
740.819
756.536
800.918
844.517
887.224
928.957
969.645
1009.23
1047.68
1084.96
1121.05
1155.93
1189.61
1222.08
1253.34
1283.41
1312.29
1339.98
1366.5
1391.86
1416.05
1439.1
1460.98
1481.72
1501.3
1519.73
1536.85
1552.66
1567.4
1580.95
2594.6
15332.5
1571.59
1535.18
1493.87
1448.11
1398.45
1345.29
1289.03
1230.08
1168.91
1106.1
1042.18
977.883
914.666
854.536
799.916
753.766
718.722
695.758
683.414
678.425
677.268
677.121
676.224
673.598
668.89
662.134
653.518
643.275
631.643
618.842
605.063
590.472
575.201
559.354
543.002
526.185
508.857
513.011
538.376
562.423
585.085
606.334
626.095
644.276
660.788
675.567
688.597
699.937
709.749
718.316
726.062
733.473
741.019
749.081
757.849
767.236
776.858
786.095
794.208
800.467
804.27
805.164
802.843
797.145
788.027
775.535
759.777
740.9
719.077
714.961
745.131
789.903
833.978
877.252
919.639
961.067
1001.48
1040.84
1079.11
1116.28
1152.33
1187.25
1221.05
1253.73
1285.28
1315.73
1345.08
1373.34
1400.53
1426.66
1451.74
1475.79
1498.81
1520.82
1541.67
1561.4
1580.33
1598.34
4272.58
13876.6
1582.53
1541.32
1496.48
1447.89
1395.65
1339.94
1280.98
1219.06
1154.55
1087.94
1019.65
950.613
882.716
818.598
761.525
714.761
680.633
659.336
648.662
645.071
645.158
646.392
647.223
646.836
644.781
640.905
635.236
627.88
618.98
608.693
597.172
584.557
570.974
556.522
541.276
525.274
508.548
512.312
536.128
558.453
579.252
598.466
616.034
631.901
646.034
658.435
669.165
678.359
686.249
693.167
699.533
705.795
712.407
719.751
728.026
737.161
746.794
756.322
765.011
772.117
776.98
779.056
777.956
773.467
765.512
754.113
739.362
721.398
700.387
677.7
688.278
733.345
778.01
822.154
865.676
908.493
950.538
991.757
1032.11
1071.56
1110.1
1147.71
1184.39
1220.12
1254.92
1288.79
1321.75
1353.82
1385.02
1415.36
1444.88
1473.58
1501.49
1528.59
1554.7
1579.77
1603.95
1626.69
7153.32
11149.4
1601.8
1555.8
1506.07
1452.65
1395.66
1335.22
1271.52
1204.84
1135.58
1064.26
991.44
918.43
847.537
781.776
724.647
679.237
647.206
628.002
619.014
616.709
617.869
620.15
622.115
623.056
622.613
620.615
617.019
611.851
605.18
597.091
587.68
577.042
565.266
552.43
538.597
523.815
508.101
511.627
534.069
554.951
574.228
591.858
607.803
622.036
634.555
645.391
654.625
662.406
668.966
674.629
679.807
684.972
690.599
697.075
704.599
713.102
722.225
731.368
739.797
746.76
751.591
753.757
752.882
748.739
741.223
730.327
716.115
698.696
678.215
654.836
649.89
680.006
725.001
769.755
814.16
858.13
901.59
944.482
986.758
1028.38
1069.33
1109.57
1149.11
1187.92
1226.01
1263.39
1300.06
1336.04
1371.32
1405.92
1439.85
1473.09
1505.6
1537.33
1567.94
1597.31
1625.43
1651.54
10623
7762.24
1614.3
1564.4
1510.21
1452.04
1390.15
1324.8
1256.31
1185.06
1111.63
1036.67
960.953
886.157
814.81
749.945
694.764
651.903
622.48
605.476
598.093
596.902
598.915
601.989
604.797
606.629
607.144
606.205
603.778
599.883
594.564
587.877
579.885
570.648
560.225
548.671
536.03
522.339
507.621
510.895
531.843
551.182
568.876
584.888
599.193
611.782
622.669
631.908
639.602
645.919
651.108
655.507
659.534
663.661
668.358
674.003
680.79
688.648
697.225
705.93
714.033
720.783
725.504
727.655
726.848
722.841
715.515
704.849
690.89
673.734
653.509
630.367
612.702
629.564
674.763
719.979
765.109
810.062
854.763
899.149
943.17
986.786
1029.96
1072.66
1114.88
1156.59
1197.79
1238.47
1278.62
1318.23
1357.29
1395.78
1433.66
1470.88
1507.34
1542.86
1577
1609.61
1640.55
1668.78
14028
4268.07
1618.21
1565.36
1507.5
1445.26
1379.15
1309.62
1237.14
1162.27
1085.69
1008.15
930.622
855.002
783.896
720.291
667.168
626.766
599.704
584.575
578.473
578.11
580.725
584.377
587.86
590.512
591.993
592.144
590.904
588.267
584.25
578.887
572.22
564.291
555.143
544.816
533.348
520.769
507.106
510.159
529.639
547.501
563.709
578.236
591.066
602.203
611.674
619.542
625.922
630.987
634.991
638.268
641.232
644.347
648.074
652.787
658.679
665.686
673.465
681.441
688.896
695.089
699.347
701.127
700.036
695.822
688.354
677.599
663.588
646.404
626.16
602.993
577.05
583.811
627.534
673.109
718.835
764.622
810.393
856.084
901.641
947.012
992.159
1037.05
1081.65
1125.95
1169.9
1213.5
1256.7
1299.49
1341.8
1383.6
1424.79
1465.26
1504.85
1543.33
1580.1
1614.99
1647.7
1677.06
16917.3
1662.65
1614.23
1558.77
1497.74
1432.1
1362.56
1289.73
1214.22
1136.72
1058.02
978.933
900.589
825.058
754.974
693.238
642.599
604.911
580.358
567.211
562.485
563.008
566.214
570.331
574.27
577.438
579.525
580.384
579.951
578.208
575.159
570.821
565.218
558.377
550.326
541.095
530.71
519.198
506.584
509.416
527.414
543.796
558.53
571.596
582.984
592.705
600.795
607.326
612.419
616.254
619.087
621.254
623.163
625.274
628.04
631.826
636.82
642.961
649.911
657.101
663.824
669.345
672.994
674.23
672.657
668.018
660.177
649.09
634.782
617.323
596.818
573.39
547.177
546.404
582.571
628.426
674.643
721.133
767.82
814.633
861.51
908.402
955.262
1002.05
1048.72
1095.24
1141.56
1187.65
1233.45
1278.91
1323.96
1368.49
1412.39
1455.49
1497.57
1538.32
1576.95
1613.65
1647.26
1676.71
17984.1
1656.08
1603.96
1545.43
1481.59
1413.29
1341.26
1266.16
1188.68
1109.56
1029.71
949.925
871.519
796.657
727.962
668.239
620.015
584.812
562.457
550.993
547.413
548.682
552.413
556.975
561.374
565.061
567.748
569.289
569.616
568.702
566.541
563.139
558.509
552.67
545.64
537.443
528.098
517.629
506.06
508.675
525.201
540.124
553.417
565.063
575.059
583.422
590.194
595.451
599.319
601.979
603.687
604.775
605.646
606.75
608.532
611.35
615.388
620.586
626.611
632.905
638.769
643.475
646.361
646.886
644.654
639.405
631
619.388
604.587
586.662
565.706
541.836
515.179
508.776
539.408
585.46
632.06
679.12
726.559
774.303
822.292
870.466
918.771
967.156
1015.57
1063.96
1112.27
1160.44
1208.39
1256.06
1303.33
1350.09
1396.18
1441.39
1485.45
1527.93
1568.09
1605.87
1639.94
1668.77
17524.3
1642.14
1587.24
1526.37
1460.46
1390.28
1316.58
1240.03
1161.37
1081.42
1001.09
921.227
843.272
769.467
702.414
644.819
599.01
566.214
545.956
536.097
533.623
535.624
539.865
544.841
549.645
553.775
556.966
559.081
560.054
559.852
558.464
555.889
552.134
547.207
541.122
533.896
525.544
516.085
505.542
507.936
522.995
536.469
548.334
558.577
567.202
574.228
579.702
583.704
586.362
587.859
588.449
588.461
588.291
588.383
589.172
591.007
594.068
598.293
603.354
608.698
613.632
617.438
619.458
619.155
616.133
610.135
601.018
588.729
573.282
554.736
533.18
508.723
481.486
470.898
497.521
543.685
590.563
638.063
686.101
734.605
783.505
832.736
882.238
931.948
981.803
1031.74
1081.68
1131.56
1181.28
1230.73
1279.81
1328.34
1376.16
1423.03
1468.63
1512.46
1553.86
1592.7
1627.68
3222.22
16043.1
1622.41
1565.62
1503.15
1435.83
1364.45
1289.73
1212.38
1133.16
1052.94
972.635
893.134
815.988
743.476
678.174
622.69
579.171
548.59
530.224
521.797
520.32
523
527.739
533.137
538.356
542.934
546.625
549.299
550.89
551.365
550.708
548.913
545.982
541.919
536.734
530.439
523.045
514.57
505.033
507.201
520.802
532.837
543.288
552.144
559.414
565.12
569.313
572.077
573.538
573.883
573.361
572.297
571.083
570.153
569.932
570.762
572.818
576.033
580.084
584.422
588.362
591.192
592.26
591.033
587.119
580.263
570.32
557.238
541.028
521.747
499.479
474.33
446.413
432.751
456.527
502.72
549.77
597.586
646.083
695.183
744.811
794.898
845.372
896.165
947.202
998.407
1049.69
1100.97
1152.13
1203.06
1253.6
1303.59
1352.83
1401.06
1447.95
1492.98
1535.49
1575.39
1611.47
5819.89
13692.8
1597.61
1539.95
1476.66
1408.62
1336.63
1261.44
1183.79
1104.49
1024.41
944.502
865.673
789.565
718.482
654.969
601.55
560.205
531.685
515.061
507.958
507.418
510.756
515.992
521.818
527.457
532.482
536.662
539.876
542.06
543.18
543.218
542.166
540.022
536.787
532.467
527.07
520.606
513.088
504.535
506.47
518.62
529.225
538.269
545.747
551.67
556.064
558.982
560.511
560.779
559.97
558.333
556.19
553.923
551.96
550.716
550.525
551.554
553.736
556.746
560.039
562.937
564.735
564.785
562.562
557.678
549.879
539.024
525.06
507.999
487.896
464.835
438.915
410.25
394.336
416.112
462.25
509.376
557.396
606.221
655.771
705.966
756.729
807.983
859.651
911.65
963.891
1016.28
1068.71
1121.06
1173.2
1224.96
1276.17
1326.6
1375.98
1423.97
1470.03
1513.5
1554.31
1591.22
8126.15
11485.7
1569.48
1511.54
1447.96
1379.68
1307.52
1232.28
1154.73
1075.69
996.081
916.826
838.875
763.949
694.364
632.633
581.196
541.885
515.26
500.224
494.332
494.665
498.639
504.379
510.65
516.73
522.217
526.898
530.656
533.431
535.189
535.91
535.584
534.207
531.778
528.3
523.778
518.221
511.638
504.047
505.743
516.45
525.631
533.275
539.38
543.96
547.046
548.692
548.987
548.061
546.096
543.34
540.109
536.781
533.774
531.494
530.266
530.251
531.376
533.317
535.533
537.35
538.069
537.051
533.775
527.86
519.054
507.221
492.31
474.333
453.346
429.432
402.69
373.23
355.661
376.044
422.052
469.163
517.283
566.321
616.19
666.809
718.095
769.964
822.331
875.106
928.192
981.482
1034.86
1088.2
1141.34
1194.13
1246.36
1297.79
1348.15
1397.08
1444.01
1488.32
1529.9
1567.48
10107.5
9593.72
1539.15
1481.26
1417.73
1349.55
1277.57
1202.61
1125.45
1046.95
968.039
889.622
812.692
739.042
670.986
611.003
561.454
524.042
499.163
485.582
480.808
481.967
486.566
492.818
499.554
506.095
512.064
517.259
521.572
524.942
527.337
528.736
529.129
528.508
526.871
524.219
520.555
515.886
510.22
503.57
505.019
514.289
522.052
528.3
533.035
536.275
538.053
538.427
537.486
535.362
532.236
528.354
524.027
519.628
515.566
512.239
509.962
508.887
508.938
509.789
510.901
511.607
511.212
509.086
504.714
497.72
487.86
475
459.093
440.154
418.239
393.432
365.832
335.548
316.746
336.154
381.959
428.974
477.101
526.248
576.325
627.245
678.922
731.265
784.184
837.581
891.352
945.381
999.543
1053.7
1107.69
1161.34
1214.43
1266.72
1317.92
1367.68
1415.4
1460.44
1502.71
1540.9
11772.1
8021.44
1507.33
1449.7
1386.48
1318.66
1247.11
1172.66
1096.13
1018.36
940.318
862.88
787.082
714.767
648.243
589.956
542.195
506.547
483.271
471.024
467.287
469.232
474.446
481.222
488.445
495.471
501.946
507.676
512.558
516.535
519.574
521.655
522.764
522.895
522.043
520.208
517.39
513.595
508.829
503.102
504.297
512.136
518.485
523.339
526.707
528.607
529.077
528.176
525.997
522.669
518.377
513.362
507.932
502.453
497.328
492.943
489.605
487.457
486.419
486.162
486.15
485.72
484.184
480.919
475.418
467.311
456.361
442.438
425.501
405.567
382.694
356.968
328.488
297.364
277.616
296.32
341.857
388.702
436.755
485.921
536.107
587.223
639.178
691.878
745.226
799.117
853.44
908.075
962.887
1017.73
1072.44
1126.82
1180.65
1233.69
1285.64
1336.13
1384.55
1430.28
1473.21
1512.03
13141.3
6750.76
1474.51
1417.29
1354.54
1287.27
1216.34
1142.59
1066.85
989.976
912.93
836.58
761.991
691.044
626.039
569.388
523.315
489.305
467.502
456.481
453.708
456.405
462.232
469.545
477.277
484.814
491.817
498.104
503.574
508.172
511.866
514.634
516.465
517.348
517.278
516.254
514.274
511.342
507.462
502.643
503.579
509.99
514.927
518.391
520.391
520.951
520.111
517.933
514.51
509.975
504.51
498.355
491.815
485.249
479.051
473.599
469.191
465.961
463.822
462.444
461.291
459.706
457.007
452.579
445.924
436.679
424.612
409.602
391.611
370.66
346.811
320.151
290.781
258.811
238.297
256.459
301.67
348.279
396.185
445.292
495.503
546.726
598.864
651.821
705.493
759.773
814.542
869.673
925.028
980.449
1035.76
1090.78
1145.27
1198.99
1251.61
1302.77
1351.85
1398.24
1441.82
1481.29
14257.2
5719.97
1440.98
1384.28
1322.15
1255.56
1185.4
1112.5
1037.68
961.822
885.873
810.69
737.365
667.803
604.295
549.219
504.74
472.253
451.804
441.906
440.028
443.448
449.886
457.751
466.015
474.087
481.644
488.509
494.587
499.823
504.184
507.651
510.208
511.847
512.56
512.344
511.197
509.12
506.116
502.192
502.862
507.849
511.377
513.45
514.083
513.302
511.15
507.691
503.022
497.274
490.631
483.33
475.672
468.012
460.735
454.21
448.724
444.403
441.153
438.642
436.336
433.581
429.704
424.096
416.268
405.866
392.665
376.551
357.49
335.509
310.674
283.073
252.81
219.995
198.818
216.518
261.35
307.665
355.362
404.34
454.504
505.755
557.997
611.126
665.037
719.617
774.742
830.281
886.088
942.004
997.851
1053.43
1108.51
1162.82
1216.06
1267.85
1317.56
1364.6
1408.84
1448.99
15115.7
4916.05
1406.94
1350.86
1289.45
1223.67
1154.4
1082.46
1008.67
933.91
859.132
785.175
713.148
644.975
582.935
529.374
486.406
455.348
436.164
427.294
426.22
430.336
437.388
445.821
454.639
463.271
471.405
478.87
485.575
491.465
496.509
500.684
503.977
506.377
507.876
508.468
508.151
506.923
504.787
501.746
502.147
505.711
507.832
508.516
507.781
505.657
502.19
497.448
491.528
484.563
476.736
468.283
459.503
450.742
442.38
434.775
428.205
422.787
418.419
414.768
411.299
407.363
402.295
395.494
386.48
374.908
360.562
343.332
323.193
300.176
274.35
245.808
214.654
181.002
159.207
176.465
220.871
266.842
314.273
363.064
413.116
464.33
516.605
569.835
623.911
678.716
734.123
789.996
846.186
902.528
958.839
1014.91
1070.52
1125.38
1179.19
1231.58
1281.91
1329.6
1374.55
1415.5
16040.5
4174.41
1372.45
1317.11
1256.53
1191.67
1123.38
1052.49
979.824
906.239
832.688
759.999
689.291
622.498
561.884
509.766
468.215
438.495
420.527
412.668
412.317
417.096
424.753
433.761
443.147
452.356
461.086
469.171
476.52
483.081
488.821
493.717
497.756
500.924
503.212
504.615
505.127
504.746
503.471
501.305
501.433
503.577
504.29
503.585
501.481
498.013
493.229
487.2
480.025
471.838
462.823
453.214
443.305
433.439
423.987
415.298
407.639
401.118
395.628
390.829
386.19
381.065
374.797
366.795
356.586
343.836
328.336
309.985
288.765
264.71
237.895
208.416
176.38
141.902
119.494
136.289
180.227
225.806
272.922
321.473
371.359
422.477
474.725
527.994
582.172
637.139
692.765
748.911
805.423
862.132
918.853
975.376
1031.46
1086.85
1141.2
1194.16
1245.11
1293.44
1339.07
1380.74
16546
3730
1337.73
1283.18
1223.51
1159.64
1092.42
1022.66
951.173
878.819
806.54
735.15
665.773
600.345
541.11
490.358
450.119
421.612
404.762
397.92
398.304
403.73
411.983
421.567
431.529
441.33
450.673
459.395
467.405
474.652
481.103
486.733
491.528
495.473
498.558
500.774
502.117
502.581
502.164
500.868
500.719
501.444
500.751
498.655
495.181
490.366
484.263
476.944
468.51
459.098
448.89
438.12
427.079
416.104
405.557
395.78
387.029
379.401
372.783
366.832
361.017
354.698
347.224
338.014
326.605
312.672
296.015
276.542
254.24
229.15
201.352
170.944
138.037
102.746
100
100
139.42
184.567
231.324
279.588
329.257
380.228
432.395
485.648
539.872
594.944
650.733
707.095
763.874
820.9
877.982
934.909
991.441
1047.31
1102.18
1155.7
1207.23
1256.19
1302.5
1344.9
16904.9
3452.85
1302.82
1249.13
1190.43
1127.63
1061.54
992.975
922.724
851.648
780.676
710.61
642.574
578.495
520.597
471.138
432.112
404.699
388.825
382.914
384.107
390.187
399.035
409.201
419.754
430.163
440.137
449.515
458.206
466.157
473.334
479.714
485.277
490.009
493.899
496.936
499.113
500.424
500.864
500.433
500.006
499.312
497.211
493.724
488.879
482.716
475.29
466.677
456.981
446.34
434.935
423
410.822
398.734
387.09
376.221
366.374
357.637
349.888
342.782
335.787
328.269
319.585
309.163
296.551
281.432
263.619
243.025
219.644
193.525
164.752
133.426
100
100
100
100
100
143.145
189.503
237.437
286.844
337.62
389.656
442.841
497.059
552.184
608.083
664.61
721.607
778.901
836.3
893.591
950.532
1006.85
1062.22
1116.27
1168.38
1217.96
1264.94
1308.06
17095.6
3330.62
1267.72
1214.98
1157.33
1095.66
1030.77
963.442
894.474
824.711
755.076
686.356
619.668
556.923
500.324
452.1
414.21
387.803
372.766
367.59
369.605
376.36
385.827
396.6
407.769
418.813
429.443
439.501
448.894
457.571
465.494
472.639
478.986
484.519
489.224
493.09
496.107
498.268
499.567
500
500.006
499.312
497.211
493.724
488.878
482.715
475.289
466.676
456.98
446.338
434.934
422.999
410.821
398.732
387.088
376.219
366.372
357.635
349.886
342.779
335.784
328.266
319.582
309.159
296.547
281.428
263.615
243.02
219.64
193.521
164.747
133.421
100
100
100
100
100
143.142
189.5
237.434
286.842
337.617
389.654
442.839
497.057
552.183
608.082
664.609
721.606
778.9
836.299
893.59
950.531
1006.85
1062.22
1116.27
1168.38
1217.96
1264.94
1308.06
17095.7
3330.53
1267.72
1214.98
1157.33
1095.66
1030.77
963.442
894.474
824.711
755.076
686.356
619.668
556.924
500.324
452.101
414.21
387.803
372.767
367.59
369.605
376.36
385.827
396.6
407.769
418.813
429.443
439.501
448.895
457.571
465.494
472.639
478.986
484.519
489.224
493.09
496.107
498.268
499.567
500
500.719
501.444
500.75
498.654
495.18
490.365
484.261
476.942
468.508
459.096
448.887
438.117
427.076
416.1
405.553
395.776
387.024
379.396
372.778
366.827
361.011
354.692
347.217
338.006
326.597
312.663
296.006
276.533
254.23
229.141
201.342
170.934
138.027
102.736
100
100
139.414
184.561
231.318
279.583
329.252
380.224
432.391
485.644
539.869
594.942
650.731
707.093
763.873
820.899
877.981
934.909
991.441
1047.31
1102.18
1155.7
1207.23
1256.19
1302.5
1344.9
16905.2
3452.61
1302.82
1249.13
1190.43
1127.63
1061.54
992.975
922.725
851.648
780.677
710.611
642.575
578.496
520.597
471.139
432.112
404.699
388.825
382.914
384.107
390.187
399.035
409.201
419.754
430.163
440.137
449.515
458.206
466.157
473.335
479.714
485.277
490.01
493.899
496.936
499.113
500.424
500.864
500.433
501.432
503.576
504.29
503.584
501.48
498.011
493.227
487.198
480.022
471.836
462.82
453.211
443.302
433.436
423.983
415.294
407.635
401.113
395.622
390.823
386.183
381.059
374.79
366.787
356.578
343.827
328.327
309.976
288.755
264.7
237.885
208.405
176.369
141.891
119.485
136.283
180.221
225.801
272.917
321.469
371.355
422.474
474.722
527.992
582.17
637.137
692.764
748.91
805.423
862.132
918.853
975.376
1031.46
1086.85
1141.21
1194.17
1245.11
1293.44
1339.07
1380.74
16546.5
3729.57
1337.73
1283.18
1223.51
1159.64
1092.42
1022.66
951.173
878.819
806.541
735.15
665.773
600.345
541.11
490.359
450.119
421.612
404.762
397.92
398.304
403.731
411.983
421.567
431.529
441.33
450.673
459.395
467.405
474.653
481.103
486.734
491.528
495.473
498.558
500.774
502.117
502.581
502.164
500.868
502.147
505.711
507.831
508.515
507.78
505.656
502.189
497.446
491.525
484.56
476.733
468.28
459.499
450.738
442.375
434.771
428.2
422.782
418.414
414.762
411.293
407.356
402.288
395.486
386.472
374.899
360.552
343.322
323.182
300.165
274.339
245.796
214.643
180.991
159.199
176.461
220.867
266.838
314.269
363.061
413.114
464.328
516.603
569.834
623.911
678.716
734.123
789.996
846.187
902.529
958.84
1014.91
1070.52
1125.38
1179.2
1231.58
1281.91
1329.6
1374.55
1415.5
16041.2
4173.77
1372.45
1317.1
1256.52
1191.66
1123.38
1052.49
979.823
906.238
832.688
759.999
689.291
622.499
561.884
509.767
468.215
438.495
420.528
412.669
412.318
417.096
424.753
433.761
443.147
452.356
461.086
469.172
476.521
483.081
488.821
493.718
497.756
500.924
503.212
504.615
505.127
504.745
503.471
501.305
502.862
507.848
511.376
513.449
514.082
513.301
511.148
507.689
503.02
497.272
490.628
483.327
475.669
468.008
460.73
454.205
448.719
444.397
441.148
438.637
436.33
433.574
429.697
424.088
416.259
405.856
392.655
376.54
357.479
335.498
310.662
283.061
252.797
219.983
198.81
216.514
261.347
307.663
355.36
404.339
454.503
505.755
557.997
611.126
665.038
719.617
774.743
830.282
886.09
942.006
997.853
1053.43
1108.51
1162.82
1216.06
1267.85
1317.56
1364.6
1408.85
1449
15116.7
4915.12
1406.93
1350.85
1289.44
1223.67
1154.4
1082.46
1008.67
933.909
859.131
785.175
713.148
644.976
582.935
529.375
486.406
455.349
436.164
427.294
426.22
430.336
437.388
445.821
454.639
463.271
471.405
478.871
485.575
491.465
496.509
500.684
503.978
506.377
507.876
508.468
508.151
506.923
504.787
501.746
503.579
509.989
514.926
518.39
520.39
520.949
520.109
517.931
514.508
509.973
504.507
498.352
491.811
485.245
479.046
473.595
469.186
465.956
463.817
462.438
461.285
459.699
457
452.571
445.915
436.669
424.602
409.591
391.6
370.648
346.799
320.138
290.768
258.798
238.289
256.457
301.669
348.278
396.185
445.292
495.503
546.726
598.865
651.822
705.495
759.775
814.544
869.676
925.03
980.452
1035.77
1090.78
1145.28
1198.99
1251.61
1302.77
1351.85
1398.24
1441.82
1481.3
14258.7
5718.72
1440.97
1384.27
1322.14
1255.56
1185.4
1112.5
1037.68
961.821
885.872
810.69
737.365
667.804
604.296
549.22
504.741
472.253
451.805
441.907
440.029
443.449
449.886
457.751
466.015
474.087
481.644
488.51
494.587
499.823
504.185
507.651
510.209
511.847
512.56
512.344
511.197
509.12
506.116
502.192
504.297
512.136
518.484
523.339
526.706
528.606
529.075
528.174
525.994
522.667
518.374
513.359
507.928
502.449
497.323
492.938
489.6
487.452
486.414
486.157
486.144
485.713
484.176
480.91
475.408
467.301
456.35
442.427
425.489
405.554
382.681
356.954
328.474
297.35
277.608
296.319
341.857
388.703
436.756
485.922
536.109
587.226
639.181
691.881
745.229
799.12
853.444
908.079
962.891
1017.73
1072.44
1126.82
1180.66
1233.7
1285.65
1336.14
1384.56
1430.29
1473.21
1512.04
13143.3
6749.1
1474.51
1417.28
1354.54
1287.26
1216.34
1142.59
1066.85
989.974
912.929
836.58
761.991
691.045
626.04
569.389
523.316
489.306
467.503
456.481
453.708
456.405
462.232
469.545
477.277
484.814
491.817
498.104
503.574
508.172
511.866
514.635
516.465
517.348
517.278
516.254
514.274
511.342
507.462
502.643
505.018
514.289
522.051
528.299
533.034
536.274
538.051
538.425
537.484
535.359
532.233
528.351
524.024
519.624
515.562
512.235
509.957
508.882
508.933
509.783
510.895
511.6
511.204
509.077
504.705
497.71
487.849
474.988
459.081
440.141
418.225
393.418
365.817
335.532
316.739
336.155
381.961
428.976
477.104
526.251
576.328
627.249
678.925
731.27
784.189
837.586
891.356
945.386
999.548
1053.7
1107.69
1161.34
1214.44
1266.73
1317.93
1367.68
1415.4
1460.45
1502.71
1540.91
11774.5
8019.42
1507.33
1449.69
1386.47
1318.65
1247.11
1172.66
1096.12
1018.36
940.317
862.88
787.082
714.768
648.244
589.957
542.196
506.548
483.271
471.025
467.287
469.232
474.447
481.222
488.445
495.472
501.946
507.676
512.558
516.536
519.574
521.655
522.764
522.895
522.043
520.208
517.39
513.595
508.829
503.102
505.742
516.45
525.631
533.274
539.379
543.959
547.044
548.691
548.985
548.058
546.093
543.337
540.105
536.777
533.769
531.489
530.262
530.246
531.371
533.311
535.526
537.343
538.061
537.042
533.766
527.849
519.043
507.209
492.296
474.319
453.332
429.416
402.673
373.213
355.654
376.047
422.055
469.167
517.287
566.325
616.196
666.815
718.1
769.97
822.337
875.112
928.198
981.488
1034.87
1088.2
1141.35
1194.13
1246.36
1297.8
1348.15
1397.08
1444.02
1488.33
1529.91
1567.48
10110
9591.45
1539.15
1481.25
1417.73
1349.55
1277.57
1202.6
1125.44
1046.94
968.038
889.621
812.691
739.042
670.987
611.004
561.455
524.043
499.163
485.582
480.809
481.968
486.566
492.818
499.555
506.095
512.064
517.26
521.572
524.943
527.337
528.736
529.129
528.508
526.871
524.219
520.555
515.886
510.22
503.57
506.47
518.62
529.225
538.269
545.747
551.668
556.062
558.98
560.509
560.776
559.967
558.33
556.186
553.919
551.956
550.711
550.52
551.549
553.731
556.74
560.033
562.93
564.727
564.776
562.552
557.667
549.867
539.011
525.046
507.984
487.881
464.818
438.898
410.232
394.329
416.117
462.256
509.382
557.402
606.228
655.778
705.973
756.736
807.991
859.659
911.657
963.899
1016.29
1068.72
1121.07
1173.2
1224.97
1276.18
1326.61
1375.99
1423.98
1470.03
1513.5
1554.32
1591.22
8128.42
11483.4
1569.48
1511.54
1447.96
1379.68
1307.52
1232.28
1154.73
1075.69
996.079
916.825
838.874
763.949
694.364
632.634
581.197
541.886
515.261
500.224
494.332
494.665
498.64
504.379
510.651
516.73
522.217
526.898
530.656
533.431
535.189
535.91
535.584
534.207
531.778
528.3
523.778
518.221
511.638
504.047
507.201
520.802
532.837
543.287
552.144
559.413
565.119
569.312
572.075
573.536
573.88
573.358
572.294
571.08
570.149
569.928
570.758
572.813
576.028
580.079
584.416
588.355
591.184
592.251
591.023
587.108
580.25
570.307
557.223
541.012
521.73
499.462
474.311
446.394
432.745
456.535
502.728
549.779
597.595
646.092
695.192
744.821
794.907
845.382
896.174
947.212
998.416
1049.7
1100.98
1152.14
1203.06
1253.61
1303.6
1352.84
1401.07
1447.96
1492.98
1535.49
1575.39
1611.46
5819.37
13690.7
1597.61
1539.94
1476.65
1408.61
1336.62
1261.43
1183.78
1104.48
1024.41
944.503
865.675
789.567
718.483
654.97
601.551
560.206
531.685
515.061
507.959
507.418
510.756
515.993
521.819
527.458
532.482
536.662
539.876
542.06
543.18
543.218
542.166
540.022
536.787
532.467
527.07
520.606
513.088
504.535
507.936
522.995
536.469
548.333
558.577
567.201
574.227
579.7
583.702
586.36
587.857
588.446
588.457
588.288
588.379
589.167
591.002
594.063
598.288
603.349
608.691
613.625
617.43
619.449
619.144
616.122
610.123
601.004
588.714
573.266
554.718
533.162
508.704
481.465
470.892
497.531
543.695
590.574
638.074
686.113
734.616
783.517
832.748
882.25
931.959
981.815
1031.75
1081.69
1131.57
1181.29
1230.74
1279.81
1328.35
1376.17
1423.03
1468.64
1512.47
1553.87
1592.71
1627.68
3223
16043.8
1622.4
1565.62
1503.14
1435.83
1364.45
1289.72
1212.37
1133.15
1052.93
972.622
893.124
815.981
743.473
678.173
622.69
579.171
548.591
530.224
521.797
520.321
523.001
527.739
533.137
538.356
542.934
546.625
549.3
550.891
551.365
550.708
548.913
545.982
541.919
536.734
530.439
523.045
514.57
505.033
508.675
525.201
540.124
553.417
565.062
575.058
583.421
590.192
595.45
599.317
601.977
603.684
604.771
605.642
606.746
608.528
611.346
615.384
620.581
626.606
632.899
638.762
643.467
646.352
646.876
644.642
639.392
630.985
619.372
604.57
586.643
565.686
541.815
515.156
508.771
539.421
585.473
632.073
679.134
726.573
774.318
822.306
870.48
918.785
967.17
1015.58
1063.97
1112.28
1160.45
1208.41
1256.07
1303.34
1350.1
1396.19
1441.4
1485.46
1527.93
1568.09
1605.87
1639.94
1668.76
17523.9
1642.14
1587.24
1526.37
1460.45
1390.28
1316.57
1240.03
1161.37
1081.41
1001.08
921.224
843.273
769.468
702.414
644.819
599.01
566.214
545.957
536.097
533.623
535.624
539.865
544.842
549.645
553.775
556.966
559.081
560.054
559.852
558.464
555.89
552.134
547.207
541.122
533.896
525.544
516.085
505.542
509.416
527.414
543.796
558.53
571.595
582.983
592.704
600.794
607.325
612.417
616.252
619.085
621.251
623.16
625.27
628.036
631.821
636.816
642.956
649.906
657.095
663.817
669.337
672.985
674.22
672.645
668.005
660.162
649.074
634.763
617.303
596.797
573.367
547.153
546.399
582.587
628.443
674.661
721.151
767.837
814.651
861.528
908.419
955.279
1002.06
1048.74
1095.25
1141.58
1187.67
1233.47
1278.93
1323.97
1368.5
1412.4
1455.5
1497.58
1538.33
1576.96
1613.65
1647.26
1676.71
17983.7
1656.07
1603.94
1545.42
1481.58
1413.28
1341.25
1266.15
1188.67
1109.56
1029.7
949.921
871.513
796.651
727.957
668.236
620.014
584.812
562.457
550.994
547.413
548.683
552.413
556.975
561.374
565.062
567.748
569.29
569.617
568.702
566.541
563.139
558.509
552.67
545.64
537.442
528.098
517.629
506.06
510.159
529.64
547.502
563.709
578.236
591.066
602.202
611.673
619.541
625.92
630.985
634.989
638.265
641.229
644.343
648.071
652.783
658.675
665.681
673.46
681.435
688.889
695.081
699.337
701.116
700.023
695.807
688.338
677.581
663.568
646.382
626.137
602.968
577.024
583.807
627.553
673.129
718.855
764.642
810.413
856.105
901.662
947.032
992.179
1037.07
1081.67
1125.97
1169.92
1213.52
1256.72
1299.5
1341.82
1383.61
1424.8
1465.27
1504.86
1543.33
1580.1
1614.99
1647.7
1677.06
16919.3
1662.64
1614.22
1558.76
1497.73
1432.09
1362.55
1289.72
1214.22
1136.71
1058.02
978.927
900.583
825.054
754.971
693.236
642.598
604.911
580.358
567.212
562.486
563.009
566.215
570.331
574.271
577.438
579.525
580.384
579.951
578.208
575.159
570.822
565.218
558.377
550.326
541.095
530.71
519.198
506.584
510.895
531.843
551.182
568.876
584.888
599.193
611.781
622.669
631.907
639.601
645.917
651.106
655.504
659.531
663.658
668.355
674
680.786
688.644
697.221
705.924
714.026
720.775
725.495
727.644
726.835
722.826
715.498
704.83
690.869
673.711
653.485
630.34
612.699
629.587
674.786
720.003
765.133
810.087
854.788
899.174
943.194
986.809
1029.98
1072.68
1114.9
1156.61
1197.81
1238.49
1278.64
1318.25
1357.31
1395.79
1433.68
1470.89
1507.35
1542.87
1577.01
1609.62
1640.55
1668.79
14032.9
4262.51
1618.2
1565.35
1507.49
1445.25
1379.14
1309.61
1237.13
1162.26
1085.68
1008.15
930.615
854.996
783.892
720.288
667.167
626.765
599.704
584.575
578.474
578.111
580.726
584.378
587.861
590.513
591.994
592.144
590.905
588.267
584.25
578.887
572.22
564.291
555.143
544.816
533.348
520.77
507.106
511.627
534.069
554.952
574.228
591.858
607.803
622.037
634.555
645.39
654.624
662.405
668.965
674.627
679.805
684.97
690.596
697.072
704.595
713.098
722.22
731.363
739.79
746.752
751.581
753.745
752.869
748.723
741.205
730.307
716.092
698.671
678.188
654.807
649.888
680.033
725.029
769.782
814.188
858.158
901.618
944.509
986.784
1028.41
1069.35
1109.6
1149.13
1187.94
1226.04
1263.41
1300.08
1336.05
1371.34
1405.94
1439.86
1473.1
1505.62
1537.34
1567.95
1597.31
1625.43
1651.54
10629.5
7755.43
1614.28
1564.38
1510.2
1452.03
1390.13
1324.79
1256.29
1185.05
1111.62
1036.66
960.945
886.15
814.804
749.941
694.761
651.902
622.48
605.477
598.094
596.904
598.916
601.991
604.798
606.63
607.145
606.205
603.778
599.883
594.564
587.877
579.885
570.648
560.225
548.671
536.03
522.339
507.621
512.312
536.128
558.453
579.253
598.467
616.034
631.902
646.034
658.435
669.165
678.358
686.248
693.166
699.531
705.793
712.404
719.748
728.023
737.158
746.79
756.317
765.004
772.109
776.971
779.044
777.942