/*--------------------------------*- C++ -*----------------------------------*\
  =========                 |
  \\      /  F ield         | OpenFOAM: The Open Source CFD Toolbox
   \\    /   O peration     | Website:  https://openfoam.org
    \\  /    A nd           | Version:  8
     \\/     M anipulation  |
\*---------------------------------------------------------------------------*/
FoamFile
{
    version     2.0;
    format      ascii;
    class       volScalarField;
    location    "680/fluid";
    object      rho;
}
// * * * * * * * * * * * * * * * * * * * * * * * * * * * * * * * * * * * * * //

dimensions      [1 -3 0 0 0 0 0];

internalField   nonuniform List<scalar> 
4000
(
0.658526
0.658499
0.658455
0.65838
0.658255
0.658048
0.657708
0.657152
0.656255
0.654827
0.652592
0.649161
0.644025
0.636564
0.626115
0.612098
0.594193
0.572516
0.547685
0.520735
0.492888
0.465297
0.438862
0.414161
0.391477
0.370873
0.352268
0.335503
0.32039
0.306734
0.294354
0.28309
0.2728
0.26337
0.2547
0.246695
0.239248
0.2323
0.225799
0.219701
0.213969
0.208573
0.203484
0.198681
0.194145
0.18986
0.185812
0.181991
0.178387
0.174994
0.171808
0.168825
0.166046
0.163475
0.161118
0.158988
0.157102
0.155511
0.154242
0.153302
0.152807
0.152876
0.154164
0.163048
0.173549
0.185885
0.200351
0.217342
0.237373
0.261117
0.289444
0.323482
0.364673
0.414976
0.476764
0.552211
0.642454
0.745867
0.855861
0.960475
1.04667
1.10747
1.14468
1.16488
1.175
1.17982
1.18205
1.18305
1.18349
1.18368
1.18376
1.1838
1.18381
1.18382
1.18382
1.18382
1.18382
1.18382
1.18382
1.18382
0.658526
0.658499
0.658454
0.658379
0.658254
0.658046
0.657703
0.657144
0.656242
0.654809
0.652571
0.649146
0.644034
0.636632
0.626295
0.612455
0.594795
0.573406
0.548868
0.522169
0.494495
0.466986
0.440548
0.415779
0.392983
0.372245
0.353498
0.336595
0.321351
0.307575
0.295088
0.283727
0.273353
0.263846
0.255108
0.247044
0.239547
0.232552
0.226009
0.219874
0.214109
0.208683
0.203567
0.198741
0.194183
0.189878
0.185812
0.181975
0.178358
0.174952
0.171755
0.168763
0.165976
0.163398
0.161035
0.1589
0.157011
0.155417
0.154146
0.153204
0.152709
0.152781
0.154848
0.163902
0.174606
0.187189
0.201966
0.219352
0.239892
0.264298
0.293494
0.328672
0.371366
0.423657
0.487963
0.566341
0.659515
0.764954
0.874845
0.97657
1.058
1.1141
1.14797
1.16635
1.17561
1.18006
1.18214
1.18308
1.1835
1.18368
1.18376
1.1838
1.18381
1.18382
1.18382
1.18382
1.18382
1.18382
1.18382
1.18382
0.658526
0.658499
0.658454
0.658379
0.658253
0.658043
0.657699
0.657138
0.656233
0.654797
0.652557
0.649136
0.644042
0.636683
0.626426
0.612717
0.595237
0.574072
0.549774
0.5233
0.495807
0.468417
0.442032
0.417257
0.394412
0.373593
0.354748
0.337738
0.322387
0.308508
0.295922
0.284469
0.274008
0.264422
0.255611
0.247482
0.239924
0.232875
0.226281
0.220099
0.214291
0.208825
0.203673
0.198813
0.194224
0.18989
0.185799
0.181939
0.1783
0.174876
0.171662
0.168656
0.165856
0.163268
0.160896
0.158754
0.15686
0.155265
0.153994
0.153057
0.152573
0.152659
0.156093
0.165378
0.176374
0.189325
0.204563
0.222527
0.243796
0.269123
0.299482
0.336125
0.380663
0.435256
0.502238
0.583385
0.678813
0.785031
0.893338
0.991177
1.06777
1.11971
1.15082
1.16769
1.17621
1.18032
1.18224
1.18312
1.18352
1.18369
1.18377
1.1838
1.18381
1.18382
1.18382
1.18382
1.18382
1.18382
1.18382
1.18382
0.658526
0.658499
0.658454
0.658379
0.658253
0.658043
0.657699
0.657139
0.656238
0.654809
0.652584
0.64919
0.644143
0.636857
0.626709
0.613145
0.595845
0.574878
0.550775
0.524467
0.497094
0.469769
0.443397
0.418594
0.39569
0.374793
0.355859
0.338758
0.323316
0.309348
0.296678
0.285146
0.274611
0.264955
0.256078
0.247889
0.240276
0.233175
0.226533
0.220306
0.214455
0.208949
0.20376
0.198864
0.194243
0.18988
0.185761
0.181875
0.178214
0.17477
0.171538
0.168516
0.165704
0.163105
0.160725
0.158578
0.156682
0.155092
0.153832
0.152906
0.152437
0.15255
0.157677
0.167214
0.17854
0.191908
0.207668
0.226283
0.248362
0.274695
0.306305
0.344496
0.390956
0.447899
0.517548
0.601384
0.698914
0.805728
0.912315
1.00623
1.07801
1.12576
1.15401
1.16925
1.17692
1.18064
1.18238
1.18318
1.18354
1.1837
1.18377
1.1838
1.18381
1.18382
1.18382
1.18382
1.18382
1.18382
1.18382
1.18382
0.658526
0.658499
0.658454
0.658379
0.658253
0.658045
0.657702
0.657145
0.656248
0.654828
0.652618
0.649249
0.644243
0.637022
0.626965
0.613524
0.596375
0.575573
0.551633
0.525463
0.498189
0.470918
0.444556
0.419726
0.396771
0.375807
0.356798
0.339619
0.324099
0.310057
0.297316
0.285716
0.275118
0.265402
0.256469
0.248227
0.240567
0.23342
0.226735
0.220467
0.214578
0.209035
0.20381
0.198882
0.194231
0.18984
0.185696
0.181787
0.178104
0.174641
0.171394
0.168358
0.165536
0.162929
0.160546
0.158398
0.156508
0.154934
0.153686
0.152778
0.15234
0.152509
0.159374
0.169162
0.180828
0.194632
0.210936
0.230224
0.253132
0.280487
0.313354
0.353085
0.401452
0.460689
0.53287
0.619153
0.718412
0.825355
0.929839
1.01977
1.08701
1.13101
1.15677
1.17059
1.17755
1.18092
1.18251
1.18324
1.18357
1.18371
1.18377
1.1838
1.18381
1.18382
1.18382
1.18382
1.18382
1.18382
1.18382
1.18382
0.658526
0.658499
0.658455
0.65838
0.658255
0.658048
0.657707
0.657153
0.656263
0.654854
0.652662
0.649324
0.644362
0.637206
0.627239
0.613912
0.596895
0.576234
0.552423
0.526359
0.499154
0.471912
0.445546
0.420683
0.397677
0.37665
0.357574
0.340326
0.324739
0.310632
0.297831
0.286174
0.275522
0.265755
0.256775
0.248489
0.240788
0.233602
0.22688
0.220577
0.214653
0.209078
0.203824
0.198868
0.19419
0.189775
0.185608
0.181678
0.177978
0.1745
0.171239
0.168195
0.165367
0.162758
0.160377
0.158237
0.156357
0.154803
0.153573
0.152691
0.152283
0.152488
0.160805
0.170912
0.18297
0.197244
0.214111
0.234077
0.257807
0.286163
0.320252
0.361471
0.411675
0.473091
0.547642
0.636155
0.736878
0.84371
0.946013
1.03213
1.09521
1.13581
1.15932
1.17185
1.17815
1.1812
1.18263
1.18329
1.18359
1.18372
1.18378
1.1838
1.18381
1.18382
1.18382
1.18382
1.18382
1.18382
1.18382
1.18382
0.658526
0.6585
0.658455
0.658381
0.658257
0.658051
0.657713
0.657163
0.656279
0.654881
0.652707
0.649396
0.644475
0.637378
0.62749
0.614262
0.597359
0.576816
0.553113
0.527133
0.49998
0.472757
0.446379
0.421483
0.398427
0.377343
0.358207
0.340898
0.325253
0.311091
0.298237
0.286532
0.275835
0.266025
0.257004
0.248681
0.240945
0.233726
0.226972
0.220638
0.214686
0.209085
0.203805
0.198825
0.194125
0.189689
0.185503
0.181557
0.177843
0.174353
0.171084
0.168034
0.165205
0.1626
0.160229
0.158106
0.156252
0.154746
0.153534
0.152725
0.152405
0.152714
0.161651
0.17228
0.184836
0.19963
0.217075
0.237711
0.262236
0.29155
0.326801
0.369434
0.421379
0.484836
0.561575
0.652081
0.753991
0.860466
0.960511
1.04302
1.10231
1.13993
1.1615
1.17293
1.17866
1.18143
1.18274
1.18334
1.18361
1.18373
1.18378
1.1838
1.18381
1.18382
1.18382
1.18382
1.18382
1.18382
1.18382
1.18382
0.658526
0.6585
0.658456
0.658382
0.658258
0.658054
0.657718
0.657172
0.656296
0.654908
0.652751
0.649465
0.644583
0.637538
0.627721
0.61458
0.597774
0.577329
0.553714
0.527799
0.500684
0.47347
0.447075
0.422145
0.399043
0.377907
0.358717
0.341355
0.325659
0.31145
0.298552
0.286805
0.276069
0.266223
0.257169
0.248814
0.241048
0.233802
0.227021
0.220662
0.214687
0.209063
0.203762
0.198762
0.194044
0.18959
0.18539
0.18143
0.177705
0.174206
0.170932
0.16788
0.165052
0.162454
0.160096
0.157995
0.156183
0.154728
0.153596
0.152917
0.15281
0.153484
0.162745
0.173731
0.186681
0.201921
0.219883
0.241129
0.266387
0.296588
0.332918
0.376871
0.430438
0.495779
0.574504
0.666764
0.769616
0.875569
0.973387
1.05255
1.10848
1.14349
1.16338
1.17387
1.17911
1.18164
1.18283
1.18338
1.18363
1.18374
1.18379
1.18381
1.18382
1.18382
1.18382
1.18382
1.18382
1.18382
1.18382
1.18382
0.658526
0.6585
0.658456
0.658383
0.65826
0.658057
0.657724
0.657182
0.656311
0.654933
0.652791
0.649528
0.64468
0.637682
0.627925
0.614858
0.598135
0.577772
0.554228
0.528365
0.501276
0.474064
0.447651
0.422688
0.399543
0.378361
0.359123
0.341716
0.325976
0.311726
0.29879
0.287008
0.27624
0.266364
0.257281
0.2489
0.241109
0.233839
0.227037
0.220657
0.214663
0.20902
0.203702
0.198686
0.193952
0.189485
0.185272
0.181303
0.177569
0.174064
0.170785
0.167732
0.164906
0.162314
0.159966
0.15788
0.156096
0.154671
0.15358
0.152955
0.152922
0.154415
0.163934
0.175207
0.188484
0.204108
0.222524
0.244316
0.270234
0.301242
0.338557
0.383725
0.438786
0.505843
0.586353
0.680139
0.783715
0.889021
0.984684
1.0608
1.11375
1.14651
1.16498
1.17466
1.17949
1.18181
1.18291
1.18341
1.18364
1.18374
1.18379
1.18381
1.18382
1.18382
1.18382
1.18382
1.18382
1.18382
1.18382
1.18382
0.658526
0.6585
0.658457
0.658384
0.658262
0.65806
0.657729
0.65719
0.656325
0.654956
0.652827
0.649585
0.644766
0.637808
0.628104
0.615099
0.598445
0.578149
0.554662
0.528839
0.501769
0.474555
0.448123
0.423129
0.399946
0.378723
0.359444
0.341997
0.32622
0.311935
0.298968
0.287156
0.27636
0.266459
0.257352
0.24895
0.241139
0.233849
0.227029
0.220633
0.214622
0.208964
0.203632
0.198603
0.193857
0.18938
0.185157
0.18118
0.177439
0.17393
0.170648
0.167594
0.16477
0.162181
0.159838
0.157759
0.155987
0.154572
0.153488
0.152861
0.152807
0.155452
0.165159
0.176658
0.190209
0.20616
0.224974
0.247249
0.273759
0.305492
0.343697
0.389967
0.446374
0.514974
0.597073
0.692175
0.796292
0.90088
0.994511
1.06788
1.11824
1.14908
1.16633
1.17533
1.17981
1.18196
1.18298
1.18344
1.18366
1.18375
1.18379
1.18381
1.18382
1.18382
1.18382
1.18382
1.18382
1.18382
1.18382
1.18382
0.658526
0.6585
0.658457
0.658384
0.658263
0.658063
0.657733
0.657197
0.656337
0.654976
0.652859
0.649634
0.64484
0.637917
0.628257
0.615305
0.598707
0.578466
0.555026
0.529233
0.502176
0.474957
0.448507
0.423484
0.400268
0.379009
0.359695
0.342214
0.326405
0.312091
0.299097
0.287261
0.276443
0.26652
0.257394
0.248973
0.241146
0.233841
0.227006
0.220596
0.214572
0.208902
0.203558
0.198518
0.193764
0.189278
0.185048
0.181065
0.17732
0.173807
0.170524
0.16747
0.164647
0.16206
0.159722
0.157649
0.155884
0.154476
0.153395
0.15277
0.152714
0.156448
0.166316
0.17801
0.191796
0.208035
0.227198
0.249901
0.276937
0.309318
0.348318
0.395578
0.453199
0.523175
0.606669
0.702891
0.807399
0.911235
1.00299
1.07392
1.12204
1.15123
1.16746
1.17589
1.18007
1.18209
1.18303
1.18347
1.18367
1.18375
1.18379
1.18381
1.18382
1.18382
1.18382
1.18382
1.18382
1.18382
1.18382
1.18382
0.658526
0.658501
0.658457
0.658385
0.658265
0.658065
0.657737
0.657204
0.656348
0.654993
0.652886
0.649676
0.644904
0.638009
0.628386
0.615477
0.598927
0.578731
0.555326
0.529557
0.502508
0.475284
0.448816
0.423767
0.400522
0.379233
0.359888
0.342379
0.326544
0.312206
0.299189
0.287333
0.276496
0.266557
0.257414
0.248979
0.241138
0.23382
0.226973
0.220552
0.214518
0.208838
0.203486
0.198438
0.193676
0.189184
0.184949
0.180962
0.177213
0.173699
0.170416
0.167362
0.164541
0.161958
0.159625
0.157558
0.1558
0.154398
0.153323
0.152702
0.152648
0.157337
0.167353
0.179222
0.193218
0.20971
0.229181
0.252261
0.27976
0.312712
0.352416
0.400558
0.459257
0.530444
0.615154
0.712319
0.817098
0.920192
1.01023
1.07903
1.12523
1.15303
1.16841
1.17636
1.1803
1.18219
1.18308
1.18349
1.18368
1.18376
1.18379
1.18381
1.18382
1.18382
1.18382
1.18382
1.18382
1.18382
1.18382
1.18382
0.658526
0.658501
0.658458
0.658386
0.658266
0.658067
0.65774
0.657209
0.656357
0.655008
0.652909
0.649712
0.644957
0.638087
0.628494
0.615621
0.599108
0.578948
0.555572
0.529821
0.502777
0.475545
0.449062
0.423991
0.400721
0.379406
0.360036
0.342503
0.326646
0.312288
0.299253
0.287381
0.276528
0.266575
0.25742
0.248973
0.241121
0.233793
0.226937
0.220507
0.214464
0.208777
0.203418
0.198364
0.193597
0.1891
0.184862
0.180872
0.177122
0.173607
0.170324
0.167273
0.164454
0.161876
0.159548
0.157487
0.155736
0.15434
0.153271
0.152655
0.152603
0.158103
0.168255
0.18028
0.194461
0.211173
0.230911
0.254319
0.282223
0.315676
0.355997
0.404914
0.464556
0.536799
0.622553
0.720507
0.825466
0.927852
1.01638
1.08333
1.12789
1.15452
1.16919
1.17675
1.18048
1.18228
1.18312
1.18351
1.18368
1.18376
1.1838
1.18381
1.18382
1.18382
1.18382
1.18382
1.18382
1.18382
1.18382
1.18382
0.658526
0.658501
0.658458
0.658386
0.658267
0.658068
0.657743
0.657214
0.656364
0.65502
0.652928
0.649741
0.645001
0.63815
0.628582
0.615738
0.599256
0.579124
0.555771
0.530033
0.502992
0.475753
0.449256
0.424167
0.400876
0.379539
0.360149
0.342596
0.326721
0.312347
0.299297
0.287411
0.276547
0.266582
0.257417
0.248961
0.2411
0.233764
0.226901
0.220463
0.214415
0.208722
0.203357
0.198299
0.193528
0.189029
0.184788
0.180797
0.177046
0.173532
0.170251
0.167202
0.164387
0.161813
0.15949
0.157433
0.15569
0.154301
0.153237
0.152625
0.152576
0.158747
0.169021
0.181185
0.195525
0.212428
0.232399
0.25609
0.284342
0.318226
0.35908
0.408666
0.469118
0.542266
0.628909
0.727515
0.832586
0.93432
1.02152
1.0869
1.13008
1.15575
1.16983
1.17707
1.18064
1.18235
1.18315
1.18352
1.18369
1.18376
1.1838
1.18381
1.18382
1.18382
1.18382
1.18382
1.18382
1.18382
1.18382
1.18382
0.658526
0.658501
0.658458
0.658387
0.658267
0.65807
0.657745
0.657218
0.65637
0.65503
0.652944
0.649765
0.645037
0.638202
0.628653
0.615832
0.599374
0.579264
0.555928
0.5302
0.503161
0.475916
0.449407
0.424302
0.400994
0.37964
0.360232
0.342664
0.326775
0.312388
0.299327
0.28743
0.276556
0.266583
0.25741
0.248947
0.241079
0.233737
0.226868
0.220425
0.214372
0.208675
0.203307
0.198245
0.193472
0.18897
0.184729
0.180737
0.176987
0.173474
0.170195
0.167149
0.164338
0.161768
0.159449
0.157399
0.155662
0.154278
0.153219
0.152609
0.152561
0.159285
0.169665
0.181947
0.196424
0.21349
0.233656
0.257586
0.286133
0.32038
0.361685
0.411837
0.472975
0.546885
0.634268
0.733406
0.838544
0.939698
1.02576
1.08982
1.13188
1.15676
1.17035
1.17732
1.18076
1.18241
1.18318
1.18353
1.1837
1.18377
1.1838
1.18381
1.18382
1.18382
1.18382
1.18382
1.18382
1.18382
1.18382
1.18382
0.658526
0.658501
0.658458
0.658387
0.658268
0.658071
0.657747
0.657221
0.656375
0.655038
0.652957
0.649784
0.645065
0.638243
0.62871
0.615906
0.599467
0.579374
0.556051
0.53033
0.503292
0.476042
0.449522
0.424405
0.401083
0.379715
0.360294
0.342714
0.326814
0.312417
0.299346
0.287442
0.27656
0.266581
0.257402
0.248933
0.241061
0.233714
0.22684
0.220394
0.214337
0.208637
0.203267
0.198204
0.193428
0.188926
0.184684
0.180693
0.176944
0.173433
0.170156
0.167113
0.164305
0.161739
0.159425
0.157379
0.155648
0.154268
0.153212
0.152603
0.152557
0.159721
0.170193
0.182576
0.197168
0.214368
0.234695
0.258822
0.287611
0.322158
0.363833
0.414452
0.476154
0.55069
0.638676
0.738238
0.84341
0.944068
1.02919
1.09218
1.13331
1.15756
1.17077
1.17753
1.18086
1.18245
1.1832
1.18354
1.1837
1.18377
1.1838
1.18381
1.18382
1.18382
1.18382
1.18382
1.18382
1.18382
1.18382
1.18382
0.658526
0.658501
0.658459
0.658387
0.658268
0.658072
0.657748
0.657223
0.656379
0.655044
0.652966
0.649799
0.645087
0.638274
0.628753
0.615963
0.599538
0.579458
0.556145
0.530429
0.50339
0.476135
0.449608
0.424481
0.401149
0.37977
0.360339
0.34275
0.326841
0.312436
0.299359
0.287449
0.276562
0.266578
0.257395
0.248922
0.241046
0.233697
0.22682
0.220371
0.214312
0.20861
0.203238
0.198174
0.193398
0.188896
0.184654
0.180664
0.176917
0.173407
0.170133
0.167092
0.164289
0.161727
0.159416
0.157374
0.155644
0.154263
0.1532
0.152575
0.152498
0.160065
0.170614
0.183079
0.197764
0.215072
0.235528
0.25981
0.288791
0.323574
0.365544
0.416532
0.47868
0.553708
0.642167
0.742053
0.847239
0.947493
1.03187
1.09401
1.13443
1.15818
1.17109
1.17769
1.18093
1.18249
1.18322
1.18355
1.1837
1.18377
1.1838
1.18381
1.18382
1.18382
1.18382
1.18382
1.18382
1.18382
1.18382
1.18382
0.658526
0.658501
0.658459
0.658387
0.658269
0.658072
0.657749
0.657225
0.656382
0.655048
0.652973
0.64981
0.645103
0.638296
0.628784
0.616004
0.599588
0.579518
0.556211
0.530499
0.50346
0.476202
0.449669
0.424535
0.401195
0.379808
0.36037
0.342774
0.32686
0.31245
0.299368
0.287453
0.276563
0.266576
0.25739
0.248915
0.241037
0.233686
0.226807
0.220357
0.214297
0.208593
0.203221
0.198156
0.19338
0.188878
0.184637
0.180648
0.176902
0.173395
0.170124
0.167087
0.164286
0.161728
0.159422
0.157382
0.155655
0.154275
0.153211
0.152581
0.152496
0.160319
0.170933
0.183464
0.19822
0.215609
0.236161
0.26056
0.289684
0.324643
0.36683
0.418093
0.480572
0.555964
0.644768
0.744887
0.850071
0.950015
1.03384
1.09535
1.13525
1.15863
1.17133
1.17781
1.18099
1.18252
1.18323
1.18356
1.1837
1.18377
1.1838
1.18381
1.18382
1.18382
1.18382
1.18382
1.18382
1.18382
1.18382
1.18382
0.658526
0.658501
0.658459
0.658388
0.658269
0.658073
0.65775
0.657226
0.656384
0.655051
0.652978
0.649817
0.645113
0.638311
0.628804
0.61603
0.599621
0.579557
0.556254
0.530544
0.503505
0.476245
0.449708
0.424569
0.401224
0.379833
0.36039
0.342789
0.326871
0.312458
0.299374
0.287457
0.276564
0.266575
0.257388
0.248912
0.241033
0.23368
0.226801
0.22035
0.214289
0.208585
0.203213
0.198148
0.193372
0.188871
0.184631
0.180643
0.176899
0.173394
0.170125
0.167092
0.164295
0.16174
0.159438
0.157402
0.155677
0.154298
0.153232
0.152595
0.152497
0.160488
0.171151
0.18373
0.198537
0.215982
0.236599
0.261075
0.290292
0.325368
0.3677
0.419143
0.481839
0.557469
0.646497
0.746762
0.851933
0.951662
1.03512
1.09622
1.13578
1.15893
1.17149
1.17788
1.18103
1.18253
1.18324
1.18356
1.18371
1.18377
1.1838
1.18381
1.18382
1.18382
1.18382
1.18382
1.18382
1.18382
1.18382
1.18382
0.658526
0.658501
0.658459
0.658388
0.658269
0.658073
0.65775
0.657226
0.656385
0.655052
0.65298
0.64982
0.645118
0.638318
0.628813
0.616042
0.599637
0.579575
0.556275
0.530565
0.503526
0.476265
0.449726
0.424585
0.401238
0.379844
0.360399
0.342797
0.326877
0.312462
0.299376
0.287458
0.276565
0.266575
0.257387
0.248911
0.241032
0.233679
0.2268
0.220348
0.214287
0.208584
0.203211
0.198146
0.193371
0.18887
0.184631
0.180644
0.176902
0.173399
0.170132
0.1671
0.164306
0.161754
0.159455
0.157421
0.155699
0.154321
0.153253
0.15261
0.152498
0.160571
0.171267
0.183874
0.198708
0.216181
0.236829
0.261343
0.290606
0.325737
0.368138
0.419667
0.482465
0.558206
0.647336
0.747664
0.852822
0.952441
1.03572
1.09663
1.13603
1.15907
1.17156
1.17792
1.18104
1.18254
1.18324
1.18356
1.18371
1.18377
1.1838
1.18381
1.18382
1.18382
1.18382
1.18382
1.18382
1.18382
1.18382
1.18382
0.658526
0.658501
0.658459
0.658388
0.658269
0.658073
0.65775
0.657226
0.656385
0.655052
0.65298
0.64982
0.645118
0.638318
0.628813
0.616042
0.599637
0.579575
0.556275
0.530565
0.503526
0.476265
0.449726
0.424585
0.401238
0.379844
0.360399
0.342797
0.326877
0.312462
0.299376
0.287458
0.276565
0.266575
0.257387
0.248911
0.241032
0.233679
0.2268
0.220348
0.214287
0.208583
0.203211
0.198146
0.193371
0.18887
0.184631
0.180644
0.176902
0.173399
0.170132
0.1671
0.164306
0.161754
0.159455
0.157421
0.155699
0.154321
0.153253
0.15261
0.152498
0.160572
0.171267
0.183874
0.198708
0.216181
0.236829
0.261343
0.290606
0.325737
0.368138
0.419667
0.482465
0.558206
0.647336
0.747664
0.852822
0.952441
1.03571
1.09663
1.13603
1.15907
1.17156
1.17792
1.18104
1.18254
1.18324
1.18356
1.18371
1.18377
1.1838
1.18381
1.18382
1.18382
1.18382
1.18382
1.18382
1.18382
1.18382
1.18382
0.658526
0.658501
0.658459
0.658388
0.658269
0.658073
0.65775
0.657226
0.656384
0.655051
0.652978
0.649817
0.645113
0.638311
0.628804
0.61603
0.599621
0.579556
0.556254
0.530543
0.503504
0.476244
0.449707
0.424569
0.401223
0.379832
0.36039
0.342789
0.326871
0.312458
0.299373
0.287456
0.276564
0.266575
0.257388
0.248912
0.241033
0.23368
0.226801
0.22035
0.214289
0.208585
0.203212
0.198147
0.193372
0.18887
0.184631
0.180643
0.176899
0.173394
0.170125
0.167091
0.164295
0.16174
0.159437
0.157401
0.155677
0.154298
0.153232
0.152595
0.152497
0.160488
0.171151
0.18373
0.198537
0.215982
0.236599
0.261075
0.290292
0.325368
0.3677
0.419143
0.481839
0.557469
0.646497
0.746761
0.851932
0.951662
1.03512
1.09622
1.13578
1.15893
1.17149
1.17788
1.18103
1.18253
1.18324
1.18356
1.18371
1.18377
1.1838
1.18381
1.18382
1.18382
1.18382
1.18382
1.18382
1.18382
1.18382
1.18382
0.658526
0.658501
0.658459
0.658387
0.658269
0.658072
0.657749
0.657225
0.656382
0.655048
0.652973
0.64981
0.645102
0.638296
0.628783
0.616003
0.599588
0.579517
0.55621
0.530498
0.503459
0.476201
0.449668
0.424534
0.401194
0.379807
0.36037
0.342773
0.326859
0.312449
0.299368
0.287453
0.276563
0.266576
0.25739
0.248915
0.241037
0.233685
0.226807
0.220357
0.214296
0.208593
0.203221
0.198156
0.19338
0.188878
0.184637
0.180648
0.176902
0.173395
0.170123
0.167086
0.164286
0.161728
0.159422
0.157382
0.155655
0.154275
0.153211
0.152581
0.152496
0.160319
0.170933
0.183464
0.19822
0.215609
0.236161
0.260561
0.289684
0.324643
0.36683
0.418093
0.480572
0.555964
0.644768
0.744887
0.85007
0.950014
1.03384
1.09535
1.13525
1.15863
1.17133
1.17781
1.18099
1.18252
1.18323
1.18356
1.1837
1.18377
1.1838
1.18381
1.18382
1.18382
1.18382
1.18382
1.18382
1.18382
1.18382
1.18382
0.658526
0.658501
0.658459
0.658387
0.658268
0.658072
0.657748
0.657223
0.656379
0.655044
0.652966
0.649799
0.645087
0.638273
0.628752
0.615962
0.599537
0.579457
0.556143
0.530427
0.503388
0.476134
0.449607
0.42448
0.401147
0.379769
0.360338
0.342749
0.32684
0.312435
0.299359
0.287448
0.276562
0.266577
0.257394
0.248922
0.241046
0.233696
0.22682
0.220371
0.214312
0.20861
0.203238
0.198173
0.193398
0.188895
0.184654
0.180664
0.176916
0.173407
0.170132
0.167092
0.164288
0.161726
0.159416
0.157373
0.155643
0.154262
0.1532
0.152575
0.152498
0.160065
0.170614
0.183079
0.197764
0.215072
0.235528
0.25981
0.288791
0.323574
0.365544
0.416532
0.47868
0.553708
0.642166
0.742052
0.847238
0.947492
1.03187
1.09401
1.13443
1.15818
1.17109
1.17769
1.18093
1.18249
1.18322
1.18355
1.1837
1.18377
1.1838
1.18381
1.18382
1.18382
1.18382
1.18382
1.18382
1.18382
1.18382
1.18382
0.658526
0.658501
0.658458
0.658387
0.658268
0.658071
0.657747
0.657221
0.656375
0.655038
0.652956
0.649784
0.645065
0.638242
0.628709
0.615905
0.599466
0.579373
0.55605
0.530329
0.50329
0.47604
0.44952
0.424403
0.401081
0.379714
0.360293
0.342713
0.326813
0.312416
0.299345
0.287441
0.27656
0.26658
0.257401
0.248932
0.24106
0.233714
0.22684
0.220394
0.214337
0.208637
0.203266
0.198203
0.193428
0.188926
0.184684
0.180692
0.176944
0.173433
0.170156
0.167113
0.164305
0.161739
0.159425
0.157379
0.155648
0.154268
0.153211
0.152602
0.152557
0.159721
0.170193
0.182576
0.197168
0.214368
0.234695
0.258822
0.287611
0.322158
0.363833
0.414452
0.476154
0.550689
0.638676
0.738237
0.843409
0.944067
1.02919
1.09218
1.13331
1.15756
1.17077
1.17753
1.18086
1.18245
1.1832
1.18354
1.1837
1.18377
1.1838
1.18381
1.18382
1.18382
1.18382
1.18382
1.18382
1.18382
1.18382
1.18382
0.658526
0.658501
0.658458
0.658387
0.658267
0.65807
0.657745
0.657218
0.65637
0.65503
0.652944
0.649765
0.645036
0.638201
0.628653
0.615831
0.599373
0.579263
0.555926
0.530198
0.503159
0.475914
0.449404
0.4243
0.400992
0.379638
0.360231
0.342663
0.326774
0.312387
0.299326
0.287429
0.276555
0.266582
0.257409
0.248946
0.241079
0.233737
0.226867
0.220425
0.214371
0.208674
0.203306
0.198245
0.193471
0.18897
0.184728
0.180736
0.176987
0.173474
0.170195
0.167149
0.164338
0.161768
0.159449
0.157398
0.155662
0.154278
0.153218
0.152608
0.152561
0.159285
0.169665
0.181947
0.196424
0.21349
0.233656
0.257586
0.286133
0.32038
0.361685
0.411837
0.472975
0.546885
0.634268
0.733405
0.838543
0.939696
1.02576
1.08982
1.13188
1.15676
1.17035
1.17732
1.18076
1.18241
1.18318
1.18353
1.1837
1.18377
1.1838
1.18381
1.18382
1.18382
1.18382
1.18382
1.18382
1.18382
1.18382
1.18382
0.658526
0.658501
0.658458
0.658386
0.658267
0.658068
0.657743
0.657214
0.656364
0.65502
0.652928
0.649741
0.645001
0.63815
0.628581
0.615737
0.599254
0.579122
0.555768
0.53003
0.502989
0.475751
0.449253
0.424164
0.400874
0.379537
0.360147
0.342594
0.32672
0.312345
0.299296
0.28741
0.276546
0.266581
0.257416
0.24896
0.2411
0.233764
0.2269
0.220463
0.214414
0.208721
0.203357
0.198299
0.193528
0.189028
0.184788
0.180796
0.177046
0.173532
0.17025
0.167201
0.164387
0.161813
0.159489
0.157433
0.15569
0.1543
0.153236
0.152624
0.152575
0.158747
0.169021
0.181185
0.195525
0.212429
0.232399
0.25609
0.284343
0.318226
0.35908
0.408666
0.469118
0.542266
0.628908
0.727514
0.832585
0.934319
1.02152
1.0869
1.13008
1.15575
1.16983
1.17707
1.18064
1.18235
1.18315
1.18352
1.18369
1.18376
1.1838
1.18381
1.18382
1.18382
1.18382
1.18382
1.18382
1.18382
1.18382
1.18382
0.658526
0.658501
0.658458
0.658386
0.658266
0.658067
0.65774
0.657209
0.656357
0.655007
0.652909
0.649712
0.644956
0.638086
0.628493
0.615619
0.599106
0.578945
0.555569
0.529818
0.502774
0.475542
0.449059
0.423989
0.400719
0.379404
0.360034
0.342501
0.326645
0.312287
0.299252
0.287379
0.276527
0.266574
0.257419
0.248972
0.24112
0.233792
0.226936
0.220506
0.214463
0.208776
0.203417
0.198363
0.193596
0.189099
0.184861
0.180871
0.177121
0.173607
0.170324
0.167272
0.164454
0.161876
0.159548
0.157486
0.155735
0.154339
0.15327
0.152655
0.152603
0.158103
0.168255
0.180281
0.194461
0.211173
0.230912
0.25432
0.282223
0.315676
0.355997
0.404914
0.464556
0.536798
0.622552
0.720506
0.825465
0.927851
1.01637
1.08333
1.12789
1.15452
1.16919
1.17675
1.18048
1.18228
1.18312
1.18351
1.18368
1.18376
1.1838
1.18381
1.18382
1.18382
1.18382
1.18382
1.18382
1.18382
1.18382
1.18382
0.658526
0.658501
0.658457
0.658385
0.658265
0.658065
0.657737
0.657204
0.656348
0.654993
0.652886
0.649676
0.644903
0.638009
0.628385
0.615476
0.598925
0.578728
0.555323
0.529554
0.502505
0.47528
0.448812
0.423764
0.400519
0.37923
0.359886
0.342377
0.326542
0.312204
0.299187
0.287331
0.276494
0.266555
0.257413
0.248978
0.241137
0.233819
0.226972
0.220551
0.214517
0.208837
0.203485
0.198437
0.193675
0.189183
0.184948
0.180961
0.177213
0.173699
0.170415
0.167362
0.164541
0.161958
0.159625
0.157558
0.1558
0.154397
0.153322
0.152702
0.152648
0.157337
0.167354
0.179223
0.193219
0.20971
0.229181
0.252261
0.279759
0.312711
0.352416
0.400558
0.459257
0.530445
0.615153
0.712318
0.817097
0.920191
1.01023
1.07903
1.12523
1.15303
1.16841
1.17636
1.1803
1.18219
1.18308
1.18349
1.18368
1.18376
1.18379
1.18381
1.18382
1.18382
1.18382
1.18382
1.18382
1.18382
1.18382
1.18382
0.658526
0.6585
0.658457
0.658384
0.658263
0.658063
0.657733
0.657197
0.656337
0.654976
0.652859
0.649634
0.644839
0.637916
0.628256
0.615303
0.598705
0.578464
0.555022
0.52923
0.502172
0.474954
0.448503
0.42348
0.400265
0.379006
0.359692
0.342211
0.326403
0.312089
0.299095
0.287259
0.276441
0.266519
0.257393
0.248972
0.241145
0.23384
0.227005
0.220595
0.214571
0.208901
0.203557
0.198518
0.193763
0.189277
0.185048
0.181064
0.177319
0.173807
0.170524
0.167469
0.164646
0.16206
0.159722
0.157649
0.155884
0.154476
0.153395
0.15277
0.152714
0.156449
0.166317
0.178011
0.191798
0.208036
0.2272
0.249903
0.27694
0.30932
0.34832
0.39558
0.4532
0.523176
0.60667
0.702891
0.807399
0.911235
1.00299
1.07392
1.12204
1.15123
1.16746
1.17589
1.18007
1.18209
1.18303
1.18347
1.18367
1.18375
1.18379
1.18381
1.18382
1.18382
1.18382
1.18382
1.18382
1.18382
1.18382
1.18382
0.658526
0.6585
0.658457
0.658384
0.658262
0.65806
0.657729
0.65719
0.656325
0.654956
0.652827
0.649584
0.644765
0.637807
0.628102
0.615097
0.598442
0.578146
0.554659
0.528835
0.501765
0.474551
0.448119
0.423125
0.399943
0.37872
0.359441
0.341994
0.326218
0.311933
0.298965
0.287154
0.276359
0.266458
0.257351
0.248948
0.241137
0.233848
0.227028
0.220632
0.214621
0.208963
0.203631
0.198602
0.193856
0.189379
0.185156
0.181179
0.177438
0.173929
0.170648
0.167594
0.164769
0.16218
0.159838
0.157759
0.155987
0.154572
0.153488
0.152861
0.152807
0.155453
0.165159
0.176659
0.190209
0.20616
0.224973
0.247248
0.273758
0.305491
0.343696
0.389965
0.446375
0.514976
0.597074
0.692175
0.796292
0.90088
0.994511
1.06788
1.11824
1.14908
1.16633
1.17533
1.17981
1.18196
1.18298
1.18344
1.18366
1.18375
1.18379
1.18381
1.18382
1.18382
1.18382
1.18382
1.18382
1.18382
1.18382
1.18382
0.658526
0.6585
0.658456
0.658383
0.65826
0.658057
0.657724
0.657181
0.656311
0.654933
0.652791
0.649528
0.644679
0.637681
0.627924
0.614856
0.598132
0.577768
0.554224
0.52836
0.501271
0.474059
0.447647
0.422683
0.399539
0.378357
0.35912
0.341713
0.325973
0.311723
0.298788
0.287006
0.276238
0.266362
0.257279
0.248898
0.241108
0.233838
0.227035
0.220656
0.214662
0.209019
0.203701
0.198685
0.193951
0.189484
0.185272
0.181302
0.177568
0.174063
0.170785
0.167732
0.164906
0.162314
0.159966
0.157881
0.156097
0.154672
0.15358
0.152955
0.152922
0.154415
0.163935
0.175208
0.188487
0.20411
0.222527
0.24432
0.270239
0.301247
0.338563
0.38373
0.438788
0.505844
0.586354
0.68014
0.783716
0.889022
0.984684
1.0608
1.11376
1.14651
1.16498
1.17466
1.17949
1.18181
1.18291
1.18341
1.18364
1.18374
1.18379
1.18381
1.18382
1.18382
1.18382
1.18382
1.18382
1.18382
1.18382
1.18382
0.658526
0.6585
0.658456
0.658382
0.658258
0.658054
0.657718
0.657172
0.656296
0.654908
0.65275
0.649464
0.644582
0.637537
0.627719
0.614577
0.597771
0.577325
0.55371
0.527795
0.500679
0.473465
0.44707
0.42214
0.399039
0.377903
0.358713
0.341352
0.325656
0.311447
0.298549
0.286803
0.276067
0.266221
0.257167
0.248812
0.241047
0.2338
0.227019
0.22066
0.214686
0.209062
0.203761
0.198761
0.194043
0.189589
0.185389
0.181429
0.177704
0.174205
0.170931
0.167879
0.165051
0.162453
0.160095
0.157993
0.156182
0.154728
0.153596
0.152917
0.15281
0.153484
0.162746
0.173731
0.186681
0.201921
0.219883
0.24113
0.266387
0.296588
0.332917
0.37687
0.430438
0.495779
0.574505
0.666765
0.769618
0.87557
0.973388
1.05255
1.10848
1.14349
1.16338
1.17387
1.17911
1.18164
1.18283
1.18338
1.18363
1.18374
1.18379
1.18381
1.18382
1.18382
1.18382
1.18382
1.18382
1.18382
1.18382
1.18382
0.658526
0.6585
0.658455
0.658381
0.658257
0.658051
0.657713
0.657163
0.656279
0.654881
0.652707
0.649395
0.644474
0.637376
0.627488
0.614259
0.597356
0.576811
0.553108
0.527128
0.499975
0.472752
0.446374
0.421478
0.398423
0.377339
0.358203
0.340895
0.32525
0.311088
0.298235
0.286529
0.275832
0.266023
0.257002
0.248679
0.240943
0.233724
0.22697
0.220637
0.214685
0.209083
0.203804
0.198824
0.194124
0.189688
0.185502
0.181556
0.177842
0.174352
0.171083
0.168033
0.165204
0.162599
0.160228
0.158105
0.156252
0.154746
0.153534
0.152724
0.152405
0.152714
0.161651
0.172281
0.184837
0.199631
0.217076
0.237712
0.262237
0.291551
0.326803
0.369437
0.421383