/*--------------------------------*- C++ -*----------------------------------*\
  =========                 |
  \\      /  F ield         | OpenFOAM: The Open Source CFD Toolbox
   \\    /   O peration     | Website:  https://openfoam.org
    \\  /    A nd           | Version:  8
     \\/     M anipulation  |
\*---------------------------------------------------------------------------*/
FoamFile
{
    version     2.0;
    format      ascii;
    class       volScalarField;
    location    "680/fluid";
    object      T;
}
// * * * * * * * * * * * * * * * * * * * * * * * * * * * * * * * * * * * * * //

dimensions      [0 0 0 1 0 0 0];

internalField   nonuniform List<scalar> 
4000
(
293.004
293.017
293.039
293.076
293.138
293.24
293.409
293.685
294.131
294.844
295.967
297.708
300.354
304.283
309.966
317.937
328.748
342.888
360.7
382.323
407.68
436.512
468.449
503.084
540.029
578.95
619.576
661.7
705.164
749.845
795.644
842.471
890.231
938.821
988.119
1038.05
1088.65
1139.83
1191.49
1243.52
1295.81
1348.27
1400.77
1453.2
1505.43
1557.35
1608.81
1659.68
1709.81
1759.05
1807.21
1854.11
1899.52
1943.19
1984.8
2023.99
2060.26
2092.56
2120.28
2143.47
2160.01
2168.05
2158.21
2048.18
1931.1
1809.1
1683.96
1557.16
1430
1303.63
1179.18
1057.73
940.438
828.196
722.261
624.657
537.718
463.742
404.54
360.737
331.189
313.097
302.97
297.741
295.19
293.988
293.438
293.191
293.082
293.035
293.015
293.006
293.003
293.001
293
293
293
293
293
293
293.004
293.017
293.039
293.076
293.138
293.241
293.411
293.689
294.137
294.853
295.978
297.716
300.349
304.247
309.866
317.728
328.373
342.283
359.808
381.106
406.122
434.625
466.266
500.652
537.4
576.175
616.706
658.777
702.226
746.927
792.775
839.677
887.538
936.251
985.693
1035.78
1086.55
1137.91
1189.76
1241.99
1294.5
1347.17
1399.9
1452.55
1505
1557.14
1608.83
1659.91
1710.25
1759.69
1808.04
1855.13
1900.71
1944.54
1986.3
2025.61
2062
2094.39
2122.17
2145.43
2162
2170
2149.29
2038.1
1919.99
1797.05
1671.03
1543.39
1415.44
1288.36
1163.29
1041.37
923.786
811.476
705.892
609.236
523.931
452.257
395.818
354.826
327.661
311.245
302.106
297.367
295.037
293.929
293.416
293.183
293.079
293.034
293.014
293.006
293.003
293.001
293
293
293
293
293
293
293.004
293.017
293.039
293.077
293.139
293.243
293.413
293.692
294.142
294.859
295.984
297.721
300.345
304.22
309.793
317.576
328.097
341.832
359.129
380.151
404.86
433.04
464.363
498.45
534.931
573.477
613.819
655.743
699.086
743.72
789.541
836.454
884.362
933.159
982.722
1032.96
1083.9
1135.46
1187.54
1240.02
1292.8
1345.76
1398.79
1451.76
1504.55
1557.02
1609.03
1660.45
1711.11
1760.86
1809.52
1856.89
1902.75
1946.83
1988.83
2028.34
2064.9
2097.38
2125.21
2148.46
2164.89
2172.69
2133.11
2020.87
1901.66
1777.65
1650.63
1522.12
1393.46
1265.88
1140.57
1018.74
901.605
790.166
686.072
591.618
509.164
440.776
387.676
349.626
324.678
309.692
301.361
297.027
294.888
293.865
293.389
293.172
293.075
293.032
293.014
293.006
293.002
293.001
293
293
293
293
293
293
293.004
293.017
293.039
293.077
293.139
293.243
293.413
293.691
294.139
294.853
295.971
297.693
300.293
304.127
309.637
317.327
327.72
341.287
358.381
379.171
403.629
431.554
462.627
496.478
532.744
571.099
611.276
653.064
696.3
740.857
786.633
833.533
881.465
930.321
979.98
1030.34
1081.44
1133.19
1185.49
1238.22
1291.28
1344.54
1397.89
1451.21
1504.35
1557.19
1609.57
1661.36
1712.39
1762.5
1811.51
1859.21
1905.37
1949.73
1991.96
2031.67
2068.38
2100.86
2128.61
2151.74
2168.01
2175.43
2112.87
1999.81
1879.67
1754.73
1626.87
1497.69
1368.6
1240.86
1115.73
994.462
878.257
768.173
666.014
574.085
494.641
429.534
379.662
344.424
321.61
308.036
300.532
296.635
294.709
293.786
293.355
293.157
293.069
293.03
293.013
293.005
293.002
293.001
293
293
293
293
293
293
293.004
293.017
293.039
293.076
293.139
293.242
293.412
293.688
294.134
294.843
295.954
297.663
300.24
304.039
309.495
317.107
327.391
340.819
357.742
378.338
402.588
430.3
461.164
494.82
530.907
569.105
609.146
650.821
693.968
738.461
784.199
831.091
879.044
927.954
977.7
1028.18
1079.42
1131.35
1183.85
1236.83
1290.15
1343.71
1397.39
1451.04
1504.52
1557.72
1610.47
1662.62
1714.02
1764.48
1813.83
1861.84
1908.29
1952.89
1995.32
2035.17
2071.91
2104.22
2131.88
2154.84
2170.69
2177.24
2091.61
1977.97
1856.99
1731.19
1602.6
1472.9
1343.55
1215.88
1091.18
970.726
855.66
747.131
647.08
557.766
481.324
419.39
372.551
339.878
318.961
306.615
299.82
296.296
294.553
293.716
293.324
293.144
293.063
293.027
293.012
293.005
293.002
293.001
293
293
293
293
293
293
293.004
293.017
293.039
293.076
293.138
293.24
293.409
293.684
294.127
294.83
295.931
297.625
300.179
303.941
309.344
316.882
327.069
340.375
357.156
377.593
401.676
429.22
459.923
493.428
529.38
567.459
607.399
648.992
692.076
736.527
782.245
829.141
877.123
926.09
975.922
1026.51
1077.89
1129.99
1182.69
1235.88
1289.46
1343.31
1397.27
1451.23
1505.05
1558.58
1611.67
1664.17
1715.9
1766.69
1816.33
1864.6
1911.27
1956.04
1998.57
2038.45
2075.16
2107.26
2134.76
2157.39
2172.82
2178.78
2074.2
1958.85
1836.31
1709.24
1579.72
1449.44
1319.87
1192.36
1068.17
948.619
834.739
727.801
629.817
542.997
469.357
410.328
366.219
335.828
316.586
305.326
299.163
295.978
294.404
293.648
293.294
293.131
293.058
293.025
293.011
293.005
293.002
293.001
293
293
293
293
293
293
293.004
293.017
293.039
293.076
293.137
293.239
293.406
293.679
294.119
294.817
295.909
297.588
300.12
303.85
309.206
316.679
326.782
339.985
356.646
376.952
400.898
428.307
458.882
492.272
528.121
566.113
605.981
647.519
690.564
734.994
780.71
827.624
875.647
924.677
974.598
1025.3
1076.81
1129.07
1181.96
1235.37
1289.18
1343.27
1397.5
1451.74
1505.86
1559.69
1613.1
1665.9
1717.92
1768.98
1818.87
1867.36
1914.18
1959.04
2001.56
2041.31
2077.73
2109.14
2136.67
2158.25
2172.39
2176.8
2064.48
1944.35
1818.75
1689.7
1558.95
1427.99
1298.2
1170.85
1047.21
928.536
815.809
710.398
614.361
529.856
458.786
402.39
360.724
332.343
314.556
304.228
298.605
295.707
294.277
293.59
293.268
293.119
293.053
293.023
293.01
293.004
293.002
293.001
293
293
293
293
293
293
293.004
293.017
293.039
293.075
293.136
293.237
293.404
293.674
294.11
294.803
295.887
297.553
300.064
303.764
309.078
316.495
326.526
339.642
356.203
376.402
400.238
427.541
458.018
491.32
527.094
565.024
604.845
646.349
689.375
733.802
779.53
826.474
874.545
923.644
973.653
1024.46
1076.1
1128.51
1181.58
1235.18
1289.2
1343.51
1397.99
1452.49
1506.87
1560.98
1614.65
1667.72
1720
1771.29
1821.38
1870.03
1916.96
1961.86
2004.32
2043.87
2079.77
2110.52
2136.98
2156.71
2167.78
2167
2051.64
1929.08
1801.66
1671.33
1539.75
1408.38
1278.51
1151.42
1028.35
910.517
798.875
694.896
600.668
518.284
449.538
395.493
355.979
329.348
312.814
303.284
298.122
295.472
294.166
293.539
293.245
293.109
293.048
293.021
293.009
293.004
293.002
293.001
293
293
293
293
293
293
293.004
293.017
293.038
293.075
293.135
293.236
293.401
293.67
294.103
294.791
295.867
297.521
300.014
303.688
308.966
316.335
326.304
339.347
355.826
375.936
399.684
426.904
457.305
490.542
526.262
564.151
603.943
645.43
688.452
732.888
778.639
825.621
873.746
922.917
973.016
1023.93
1075.7
1128.25
1181.47
1235.24
1289.45
1343.97
1398.66
1453.39
1508
1562.35
1616.25
1669.55
1722.04
1773.53
1823.8
1872.59
1919.61
1964.55
2006.98
2046.41
2081.93
2112.3
2138.21
2157.17
2167.18
2154.9
2037.68
1913.68
1785.2
1654.13
1522.11
1390.56
1260.79
1134.04
1011.55
894.514
783.876
681.218
588.634
508.167
441.505
389.545
351.918
326.801
311.34
302.488
297.715
295.274
294.072
293.495
293.225
293.101
293.044
293.019
293.008
293.004
293.001
293.001
293
293
293
293
293
293
293.004
293.017
293.038
293.074
293.134
293.234
293.398
293.666
294.096
294.779
295.848
297.492
299.969
303.621
308.868
316.195
326.114
339.096
355.507
375.546
399.225
426.379
456.723
489.912
525.595
563.457
603.234
644.716
687.745
732.198
777.98
825.005
873.186
922.427
972.611
1023.63
1075.51
1128.19
1181.55
1235.48
1289.86
1344.56
1399.44
1454.37
1509.18
1563.73
1617.83
1671.32
1724
1775.65
1826.06
1874.97
1922.09
1967.07
2009.52
2048.93
2084.34
2114.58
2140.41
2159.39
2169.68
2141.38
2023.38
1898.7
1769.7
1638.28
1506.08
1374.54
1244.96
1118.6
996.704
880.423
770.74
669.288
578.178
499.408
434.58
384.448
348.46
324.645
310.096
301.817
297.372
295.106
293.993
293.459
293.208
293.093
293.041
293.018
293.008
293.003
293.001
293.001
293
293
293
293
293
293
293.004
293.017
293.038
293.074
293.134
293.233
293.396
293.662
294.09
294.769
295.832
297.467
299.931
303.563
308.784
316.077
325.953
338.885
355.241
375.223
398.846
425.95
456.251
489.406
525.065
562.911
602.682
644.168
687.21
731.687
777.503
824.572
872.81
922.12
972.386
1023.49
1075.48
1128.27
1181.76
1235.83
1290.36
1345.22
1400.27
1455.36
1510.35
1565.06
1619.34
1672.99
1725.81
1777.61
1828.13
1877.14
1924.33
1969.36
2011.82
2051.21
2086.55
2116.73
2142.52
2161.47
2171.77
2128.51
2010.01
1884.94
1755.64
1624.05
1491.81
1360.36
1231.03
1105.06
983.721
868.136
759.294
658.92
569.123
491.859
428.646
380.105
345.531
322.828
309.053
301.255
297.086
294.966
293.926
293.428
293.194
293.087
293.038
293.017
293.007
293.003
293.001
293.001
293
293
293
293
293
293
293.004
293.016
293.038
293.074
293.133
293.232
293.394
293.659
294.085
294.761
295.819
297.445
299.898
303.514
308.713
315.977
325.818
338.709
355.021
374.958
398.538
425.603
455.873
489.003
524.646
562.486
602.257
643.752
686.812
731.315
777.165
824.278
872.569
921.942
972.282
1023.47
1075.55
1128.45
1182.05
1236.24
1290.9
1345.89
1401.08
1456.32
1511.45
1566.31
1620.72
1674.5
1727.45
1779.35
1829.96
1879.04
1926.28
1971.33
2013.78
2053.14
2088.4
2118.53
2144.25
2163.13
2173.38
2117.15
1998.17
1872.75
1743.23
1611.53
1479.3
1347.98
1218.9
1093.32
972.501
857.518
749.415
649.994
561.35
485.403
423.595
376.43
343.066
321.306
308.182
300.787
296.847
294.85
293.87
293.402
293.182
293.082
293.036
293.016
293.007
293.003
293.001
293.001
293
293
293
293
293
293
293.004
293.016
293.038
293.073
293.133
293.231
293.393
293.656
294.08
294.753
295.807
297.427
299.87
303.473
308.654
315.895
325.707
338.565
354.841
374.743
398.29
425.326
455.572
488.686
524.32
562.157
601.934
643.441
686.519
731.048
776.932
824.087
872.428
921.859
972.264
1023.53
1075.69
1128.68
1182.38
1236.67
1291.44
1346.55
1401.85
1457.21
1512.46
1567.43
1621.95
1675.84
1728.87
1780.85
1831.54
1880.66
1927.92
1972.96
2015.39
2054.71
2089.91
2119.96
2145.6
2164.4
2174.6
2107.45
1987.99
1862.25
1732.53
1600.76
1468.57
1337.38
1208.53
1083.28
962.903
848.44
740.982
642.387
554.742
479.932
419.331
373.342
341.005
320.04
307.459
300.399
296.649
294.753
293.824
293.381
293.173
293.077
293.034
293.015
293.006
293.003
293.001
293
293
293
293
293
293
293
293.004
293.016
293.037
293.073
293.132
293.23
293.391
293.654
294.076
294.747
295.797
297.412
299.847
303.439
308.605
315.828
325.617
338.449
354.697
374.571
398.091
425.105
455.335
488.438
524.068
561.906
601.69
643.21
686.308
730.862
776.776
823.969
872.354
921.835
972.297
1023.63
1075.86
1128.92
1182.7
1237.08
1291.94
1347.14
1402.55
1458
1513.34
1568.41
1623.02
1676.98
1730.08
1782.12
1832.84
1881.99
1929.25
1974.28
2016.69
2055.97
2091.07
2121.04
2146.61
2165.36
2175.47
2099.37
1979.42
1853.36
1723.48
1591.64
1459.47
1328.4
1199.75
1074.79
954.789
840.774
733.871
635.982
549.189
475.346
415.77
370.773
339.298
318.994
306.864
300.081
296.487
294.674
293.787
293.363
293.165
293.074
293.032
293.014
293.006
293.003
293.001
293
293
293
293
293
293
293
293.004
293.016
293.037
293.073
293.132
293.23
293.39
293.652
294.073
294.742
295.789
297.4
299.829
303.412
308.566
315.773
325.544
338.356
354.582
374.434
397.935
424.933
455.151
488.248
523.875
561.717
601.509
643.042
686.157
730.733
776.675
823.9
872.323
921.847
972.357
1023.74
1076.03
1129.15
1183
1237.46
1292.39
1347.67
1403.14
1458.67
1514.09
1569.22
1623.9
1677.91
1731.07
1783.14
1833.88
1883.02
1930.28
1975.3
2017.68
2056.9
2091.91
2121.81
2147.31
2166.02
2176.07
2092.68
1972.27
1845.94
1715.9
1584
1451.86
1320.9
1192.42
1067.71
948.037
834.4
727.965
630.67
544.59
471.557
412.836
368.664
337.902
318.142
306.38
299.823
296.355
294.609
293.756
293.349
293.158
293.071
293.031
293.014
293.006
293.002
293.001
293
293
293
293
293
293
293
293.004
293.016
293.037
293.073
293.131
293.229
293.389
293.651
294.071
294.738
295.783
297.39
299.814
303.39
308.535
315.731
325.487
338.283
354.492
374.328
397.815
424.801
455.011
488.103
523.73
561.576
601.376
642.92
686.05
730.646
776.611
823.863
872.316
921.876
972.424
1023.85
1076.19
1129.36
1183.26
1237.77
1292.76
1348.1
1403.63
1459.22
1514.69
1569.87
1624.59
1678.64
1731.82
1783.9
1834.65
1883.81
1931.05
1976.04
2018.37
2057.54
2092.48
2122.32
2147.78
2166.46
2176.44
2087.28
1966.44
1839.85
1709.68
1577.74
1445.63
1314.76
1186.44
1061.94
942.539
829.215
723.167
626.36
540.866
468.495
410.47
366.968
336.781
317.46
305.994
299.616
296.25
294.558
293.732
293.337
293.153
293.068
293.03
293.013
293.006
293.002
293.001
293
293
293
293
293
293
293
293.004
293.016
293.037
293.072
293.131
293.229
293.389
293.649
294.069
294.735
295.778
297.383
299.803
303.374
308.512
315.698
325.444
338.228
354.425
374.248
397.724
424.702
454.906
487.996
523.624
561.474
601.28
642.834
685.977
730.587
776.571
823.844
872.321
921.907
972.485
1023.94
1076.31
1129.53
1183.47
1238.02
1293.05
1348.43
1404
1459.63
1515.13
1570.35
1625.09
1679.16
1732.36
1784.45
1835.2
1884.33
1931.55
1976.5
2018.79
2057.92
2092.84
2122.69
2148.23
2167.14
2177.54
2083.05
1961.82
1835
1704.71
1572.75
1440.67
1309.89
1181.7
1057.39
938.206
825.137
719.399
622.982
537.953
466.105
408.628
365.649
335.912
316.931
305.695
299.457
296.169
294.518
293.713
293.329
293.149
293.067
293.029
293.013
293.005
293.002
293.001
293
293
293
293
293
293
293
293.004
293.016
293.037
293.072
293.131
293.228
293.388
293.649
294.068
294.733
295.775
297.377
299.795
303.362
308.495
315.675
325.413
338.188
354.376
374.191
397.66
424.632
454.833
487.921
523.55
561.402
601.214
642.775
685.927
730.549
776.546
823.834
872.328
921.933
972.53
1024.01
1076.4
1129.64
1183.61
1238.19
1293.25
1348.65
1404.25
1459.9
1515.43
1570.67
1625.42
1679.5
1732.7
1784.79
1835.52
1884.62
1931.8
1976.71
2018.95
2058.04
2092.92
2122.74
2148.29
2167.27
2177.75
2079.92
1958.34
1831.31
1700.93
1568.95
1436.92
1306.22
1178.15
1053.98
934.972
822.101
716.602
620.48
535.802
464.345
407.275
364.684
335.276
316.544
305.475
299.339
296.109
294.489
293.699
293.322
293.146
293.065
293.029
293.013
293.005
293.002
293.001
293
293
293
293
293
293
293
293.004
293.016
293.037
293.072
293.131
293.228
293.388
293.648
294.067
294.732
295.773
297.374
299.79
303.354
308.483
315.66
325.393
338.163
354.345
374.155
397.619
424.587
454.786
487.873
523.503
561.358
601.173
642.739
685.897
730.526
776.531
823.828
872.333
921.949
972.558
1024.05
1076.46
1129.71
1183.69
1238.29
1293.36
1348.78
1404.4
1460.06
1515.6
1570.84
1625.6
1679.68
1732.87
1784.94
1835.64
1884.71
1931.85
1976.72
2018.9
2057.94
2092.77
2122.57
2148.14
2167.2
2177.87
2077.85
1955.94
1828.76
1698.31
1566.33
1434.34
1303.7
1175.73
1051.68
932.799
820.071
714.741
618.822
534.382
463.188
406.391
364.057
334.865
316.294
305.333
299.263
296.07
294.47
293.69
293.318
293.144
293.064
293.028
293.012
293.005
293.002
293.001
293
293
293
293
293
293
293
293.004
293.016
293.037
293.072
293.131
293.228
293.388
293.648
294.066
294.731
295.772
297.372
299.787
303.351
308.478
315.653
325.384
338.151
354.33
374.137
397.599
424.566
454.763
487.851
523.481
561.336
601.153
642.722
685.883
730.515
776.524
823.826
872.336
921.957
972.571
1024.07
1076.48
1129.74
1183.73
1238.33
1293.41
1348.83
1404.46
1460.12
1515.66
1570.9
1625.66
1679.73
1732.91
1784.96
1835.64
1884.69
1931.79
1976.62
2018.76
2057.75
2092.55
2122.33
2147.92
2167.06
2177.92
2076.83
1954.67
1827.37
1696.9
1564.93
1432.98
1302.4
1174.49
1050.51
931.708
819.062
713.825
618.014
533.695
462.634
405.97
363.761
334.672
316.178
305.267
299.228
296.052
294.461
293.686
293.316
293.143
293.064
293.028
293.012
293.005
293.002
293.001
293
293
293
293
293
293
293
293.004
293.016
293.037
293.072
293.131
293.228
293.388
293.648
294.066
294.731
295.772
297.372
299.787
303.351
308.478
315.653
325.384
338.151
354.33
374.138
397.599
424.566
454.764
487.851
523.481
561.337
601.153
642.722
685.883
730.516
776.525
823.826
872.336
921.957
972.572
1024.07
1076.48
1129.74
1183.73
1238.33
1293.41
1348.83
1404.46
1460.12
1515.66
1570.9
1625.66
1679.73
1732.91
1784.96
1835.64
1884.69
1931.79
1976.62
2018.76
2057.75
2092.55
2122.33
2147.92
2167.06
2177.92
2076.83
1954.67
1827.37
1696.9
1564.93
1432.98
1302.4
1174.49
1050.51
931.708
819.062
713.825
618.014
533.695
462.634
405.97
363.761
334.673
316.178
305.267
299.228
296.052
294.461
293.686
293.316
293.143
293.064
293.028
293.012
293.005
293.002
293.001
293
293
293
293
293
293
293
293.004
293.016
293.037
293.072
293.131
293.228
293.388
293.648
294.067
294.732
295.773
297.374
299.79
303.354
308.484
315.66
325.393
338.163
354.345
374.155
397.619
424.588
454.786
487.874
523.504
561.358
601.174
642.74
685.898
730.527
776.532
823.829
872.334
921.95
972.56
1024.05
1076.46
1129.71
1183.69
1238.29
1293.36
1348.78
1404.4
1460.06
1515.6
1570.84
1625.6
1679.68
1732.87
1784.94
1835.64
1884.72
1931.86
1976.72
2018.91
2057.94
2092.77
2122.57
2148.15
2167.2
2177.87
2077.85
1955.94
1828.76
1698.31
1566.33
1434.34
1303.7
1175.73
1051.68
932.799
820.072
714.741
618.823
534.382
463.189
406.391
364.057
334.865
316.294
305.333
299.263
296.07
294.47
293.69
293.318
293.144
293.064
293.028
293.012
293.005
293.002
293.001
293
293
293
293
293
293
293
293.004
293.016
293.037
293.072
293.131
293.228
293.388
293.649
294.068
294.733
295.775
297.377
299.795
303.362
308.495
315.675
325.414
338.189
354.377
374.192
397.661
424.633
454.834
487.923
523.551
561.404
601.216
642.777
685.929
730.551
776.548
823.836
872.33
921.935
972.532
1024.01
1076.41
1129.64
1183.61
1238.19
1293.25
1348.65
1404.26
1459.9
1515.43
1570.67
1625.42
1679.51
1732.7
1784.79
1835.52
1884.63
1931.81
1976.72
2018.95
2058.04
2092.92
2122.74
2148.3
2167.27
2177.76
2079.92
1958.34
1831.31
1700.93
1568.95
1436.92
1306.22
1178.15
1053.98
934.972
822.101
716.603
620.481
535.802
464.346
407.276
364.685
335.276
316.544
305.475
299.339
296.109
294.489
293.699
293.322
293.146
293.065
293.029
293.013
293.005
293.002
293.001
293
293
293
293
293
293
293
293.004
293.016
293.037
293.072
293.131
293.229
293.389
293.649
294.069
294.735
295.778
297.383
299.803
303.374
308.512
315.699
325.445
338.229
354.426
374.25
397.726
424.704
454.908
487.998
523.626
561.476
601.282
642.836
685.979
730.59
776.573
823.846
872.324
921.91
972.488
1023.94
1076.32
1129.53
1183.47
1238.02
1293.05
1348.43
1404.01
1459.63
1515.14
1570.35
1625.09
1679.17
1732.36
1784.46
1835.2
1884.34
1931.55
1976.51
2018.79
2057.93
2092.85
2122.69
2148.23
2167.14
2177.54
2083.05
1961.82
1835
1704.71
1572.75
1440.67
1309.89
1181.7
1057.39
938.206
825.137
719.4
622.982
537.954
466.106
408.628
365.65
335.912
316.931
305.695
299.457
296.169
294.518
293.713
293.329
293.149
293.067
293.029
293.013
293.005
293.002
293.001
293
293
293
293
293
293
293
293.004
293.016
293.037
293.073
293.131
293.229
293.389
293.651
294.071
294.739
295.783
297.39
299.815
303.391
308.535
315.731
325.488
338.284
354.493
374.33
397.816
424.803
455.013
488.105
523.733
561.579
601.378
642.923
686.053
730.649
776.614
823.866
872.32
921.879
972.428
1023.85
1076.19
1129.36
1183.27
1237.78
1292.77
1348.1
1403.64
1459.22
1514.69
1569.88
1624.59
1678.64
1731.82
1783.91
1834.66
1883.81
1931.05
1976.05
2018.37
2057.54
2092.49
2122.32
2147.78
2166.47
2176.45
2087.28
1966.44
1839.85
1709.68
1577.74
1445.63
1314.76
1186.44
1061.94
942.539
829.216
723.167
626.36
540.867
468.496
410.471
366.968
336.782
317.46
305.994
299.616
296.25
294.558
293.732
293.337
293.153
293.068
293.03
293.013
293.006
293.002
293.001
293
293
293
293
293
293
293
293.004
293.016
293.037
293.073
293.132
293.23
293.39
293.652
294.073
294.742
295.79
297.4
299.829
303.412
308.566
315.774
325.545
338.357
354.583
374.436
397.937
424.936
455.154
488.251
523.878
561.72
601.512
643.045
686.16
730.737
776.679
823.904
872.327
921.851
972.361
1023.74
1076.03
1129.16
1183.01
1237.46
1292.39
1347.67
1403.15
1458.68
1514.09
1569.23
1623.9
1677.92
1731.07
1783.14
1833.88
1883.03
1930.29
1975.31
2017.68
2056.91
2091.92
2121.81
2147.32
2166.03
2176.08
2092.68
1972.27
1845.94
1715.9
1584
1451.86
1320.9
1192.42
1067.71
948.037
834.4
727.966
630.67
544.591
471.558
412.837
368.665
337.902
318.142
306.381
299.823
296.355
294.609
293.756
293.349
293.158
293.071
293.031
293.014
293.006
293.002
293.001
293
293
293
293
293
293
293
293.004
293.016
293.037
293.073
293.132
293.23
293.391
293.654
294.076
294.747
295.797
297.412
299.848
303.44
308.606
315.828
325.618
338.45
354.698
374.573
398.094
425.108
455.338
488.442
524.071
561.91
601.694
643.215
686.312
730.866
776.781
823.974
872.359
921.841
972.302
1023.63
1075.86
1128.93
1182.71
1237.09
1291.95
1347.15
1402.55
1458
1513.35
1568.41
1623.02
1676.98
1730.09
1782.13
1832.85
1881.99
1929.25
1974.29
2016.7
2055.98
2091.08
2121.05
2146.62
2165.37
2175.48
2099.37
1979.41
1853.36
1723.47
1591.64
1459.47
1328.4
1199.75
1074.79
954.789
840.774
733.872
635.983
549.189
475.346
415.77
370.773
339.298
318.994
306.864
300.081
296.487
294.674
293.787
293.363
293.165
293.074
293.032
293.014
293.006
293.003
293.001
293
293
293
293
293
293
293
293.004
293.016
293.038
293.073
293.133
293.231
293.393
293.656
294.08
294.754
295.807
297.427
299.871
303.473
308.654
315.896
325.708
338.567
354.843
374.746
398.292
425.329
455.575
488.69
524.324
562.162
601.939
643.446
686.525
731.054
776.938
824.093
872.434
921.865
972.27
1023.54
1075.7
1128.68
1182.38
1236.68
1291.45
1346.55
1401.86
1457.21
1512.46
1567.44
1621.96
1675.84
1728.88
1780.86
1831.54
1880.67
1927.93
1972.97
2015.4
2054.72
2089.92
2119.96
2145.6
2164.41
2174.61
2107.45
1987.98
1862.25
1732.53
1600.76
1468.57
1337.38
1208.53
1083.28
962.903
848.44
740.982
642.388
554.742
479.932
419.332
373.342
341.005
320.04
307.459
300.399
296.649
294.753
293.824
293.381
293.173
293.077
293.034
293.015
293.006
293.003
293.001
293
293
293
293
293
293
293
293.004
293.016
293.038
293.074
293.133
293.232
293.394
293.659
294.085
294.761
295.819
297.445
299.898
303.515
308.713
315.978
325.819
338.711
355.023
374.961
398.541
425.607
455.877
489.008
524.651
562.491
602.263
643.758
686.818
731.321
777.171
824.284
872.576
921.949
972.289
1023.48
1075.56
1128.46
1182.06
1236.25
1290.91
1345.9
1401.09
1456.33
1511.46
1566.32
1620.73
1674.51
1727.45
1779.35
1829.97
1879.05
1926.28
1971.34
2013.79
2053.14
2088.41
2118.54
2144.26
2163.14
2173.39
2117.14
1998.16
1872.75
1743.23
1611.53
1479.3
1347.98
1218.91
1093.33
972.503
857.518
749.415
649.994
561.35
485.403
423.595
376.43
343.066
321.306
308.182
300.787
296.847
294.85
293.87
293.402
293.182
293.082
293.036
293.016
293.007
293.003
293.001
293.001
293
293
293
293
293
293
293.004
293.017
293.038
293.074
293.134
293.233
293.396
293.662
294.09
294.769
295.832
297.467
299.931
303.564
308.784
316.078
325.954
338.887
355.243
375.226
398.85
425.954
456.256
489.411
525.07
562.917
602.688
644.174
687.217
731.694
777.51
824.579
872.817
922.127
972.393
1023.5
1075.49
1128.28
1181.77
1235.84
1290.37
1345.23
1400.27
1455.37
1510.36
1565.07
1619.35
1672.99
1725.82
1777.61
1828.14
1877.15
1924.33
1969.36
2011.82
2051.22
2086.55
2116.73
2142.53
2161.48
2171.77
2128.5
2010
1884.93
1755.63
1624.04
1491.8
1360.35
1231.01
1105.05
983.715
868.129
759.291
658.919
569.122
491.859
428.646
380.106
345.531
322.828
309.053
301.255
297.086
294.966
293.926
293.428
293.194
293.087
293.038
293.017
293.007
293.003
293.001
293.001
293
293
293
293
293
293
293.004
293.017
293.038
293.074
293.134
293.234
293.399
293.666
294.096
294.779
295.848
297.492
299.97
303.621
308.868
316.197
326.115
339.098
355.509
375.55
399.229
426.383
456.728
489.917
525.601
563.464
603.241
644.723
687.752
732.206
777.988
825.013
873.195
922.436
972.62
1023.64
1075.52
1128.2
1181.56
1235.49
1289.87
1344.57
1399.45
1454.38
1509.19
1563.74
1617.84
1671.33
1724.01
1775.66
1826.07
1874.98
1922.09
1967.08
2009.52
2048.93
2084.34
2114.58
2140.41
2159.39
2169.68
2141.37
2023.37
1898.7
1769.7
1638.28
1506.09
1374.55
1244.97
1118.61
996.711
880.433
770.741
669.287
578.177
499.407
434.579
384.448
348.46
324.645
310.096
301.817
297.372
295.106
293.993
293.459
293.208
293.093
293.041
293.018
293.008
293.003
293.001
293.001
293
293
293
293
293
293
293.004
293.017
293.038
293.075
293.135
293.236
293.401
293.67
294.103
294.791
295.867
297.521
300.014
303.689
308.967
316.336
326.306
339.349
355.829
375.94
399.689
426.909
457.311
490.548
526.269
564.158
603.95
645.438
688.46
732.896
778.648
825.63
873.756
922.926
973.025
1023.94
1075.71
1128.26
1181.48
1235.25
1289.46
1343.98
1398.67
1453.4
1508.01
1562.36
1616.26
1669.56
1722.05
1773.54
1823.8
1872.59
1919.62
1964.54
2006.97
2046.38
2081.91
2112.29
2138.21
2157.16
2167.17
2154.89
2037.66
1913.66
1785.17
1654.1
1522.08
1390.53
1260.76
1134.01
1011.52
894.494
783.87
681.217
588.634
508.166
441.505
389.545
351.917
326.801
311.34
302.488
297.715
295.274
294.072
293.495
293.225
293.1
293.044
293.019
293.008
293.004
293.001
293.001
293
293
293
293
293
293
293.004
293.017
293.039
293.075
293.136
293.237
293.404
293.674
294.111
294.803
295.887
297.553
300.065
303.765
309.079
316.497
326.528
339.645
356.207
376.406
400.243
427.546
458.024
491.326
527.101
565.032
604.854
646.358
689.384
733.811
779.54
826.484
874.555
923.654
973.664
1024.47
1076.12
1128.53
1181.59
1235.19
1289.21
1343.52
1398
1452.5
1506.88
1560.99
1614.66
1667.73
1720.01
1771.3
1821.39
1870.04
1916.98
1961.88
2004.35
2043.91
2079.79
2110.53
2136.98
2156.71
2167.78
2166.99
2051.64
1929.07
1801.65
1671.33
1539.76
1408.38
1278.52
1151.43
1028.36
910.525
798.882
694.9
600.669
518.284
449.538
395.492
355.979
329.348
312.814
303.284
298.122
295.472
294.166
293.539
293.245
293.109
293.048
293.021
293.009
293.004
293.002
293.001
293
293
293
293
293
293
293.004
293.017
293.039
293.076
293.137
293.239
293.406
293.679
294.119
294.817
295.909
297.589
300.12
303.851
309.207
316.681
326.784
339.988
356.65
376.956
400.903
428.313
458.889
492.279
528.129
566.121
605.99
647.528
690.574
735.005
780.721
827.635
875.658
924.689
974.61
1025.31
1076.83
1129.08
1181.97
1235.38
1289.2
1343.28
1397.51
1451.75
1505.87
1559.71
1613.11
1665.91
1717.94
1769
1818.88
1867.37
1914.19
1959.05
2001.57
2041.32
2077.74
2109.15
2136.68
2158.26
2172.39
2176.79
2064.48
1944.34
1818.74
1689.7
1558.94
1427.99
1298.2
1170.85
1047.2
928.527
815.797
710.388
614.356
529.853
458.784
402.389
360.723
332.343
314.556
304.227
298.604
295.707
294.277
293.59
293.268
293.119
293.053
293.023
293.01
293.004
293.002
293.001
293
293
293
293
293
293
293.004
293.017
293.039
293.076
293.138
293.24
293.409
293.684
294.127
294.83
295.932
297.626
300.179
303.942
309.345
316.884
327.071
340.378
357.16
377.598
401.681
429.226
459.93
493.436
529.389
567.468
607.409
649.002
692.086
736.538
782.257
829.153
877.136
926.103
975.935
1026.52
1077.91
1130
1182.7
1235.9
1289.48
1343.32
1397.29
1451.24
1505.06
1558.59
1611.69
1664.18
1715.91
1766.7
1816.34
1864.62
1911.28
1956.05
1998.59
2038.46
2075.17
2107.27
2134.77
2157.4
2172.83
2178.79
2074.2
1958.85
1836.3
1709.23
1579.71
1449.43
1319.87
1192.35
1068.16
948.611
834.732
727.795
629.812
542.993
469.354
410.326
366.218
335.827
316.586
305.326
299.163
295.978
294.404
293.648
293.294
293.131
293.058
293.025
293.011
293.005
293.002
293.001
293
293
293
293
293
293
293.004
293.017
293.039
293.077
293.139
293.242
293.412
293.688
294.134
294.844
295.954
297.663
300.241
304.04
309.497
317.109
327.394
340.822
357.747
378.344
402.594
430.307
461.172
494.829
530.917
569.115
609.157
650.832
693.979
738.473
784.212
831.105
879.058
927.969
977.715
1028.19
1079.44
1131.36
1183.87
1236.84
1290.17
1343.73
1397.4
1451.05
1504.54
1557.73
1610.48
1662.64
1714.04
1764.5
1813.84
1861.86
1908.3
1952.9
1995.33
2035.19
2071.93
2104.23
2131.89
2154.85
2170.7
2177.25
2091.59
1977.96
1856.98
1731.18
1602.58
1472.88
1343.54
1215.87
1091.16
970.716
855.65
747.123
647.074
557.761
481.32
419.387
372.549
339.877
318.96
306.615
299.82
296.296
294.553
293.716
293.324
293.144
293.063
293.027
293.012
293.005
293.002
293.001
293
293
293
293
293
293
293.004
293.017
293.039
293.077
293.139
293.243
293.413
293.691
294.139
294.853
295.971
297.694
300.293
304.128
309.639
317.329
327.722
341.291
358.386
379.177
403.636
431.562
462.636
496.488
532.754
571.11
611.288
653.076
696.313
740.871
786.647
833.548
881.48
930.337
979.996
1030.36
1081.46
1133.21
1185.51
1238.24
1291.3
1344.56
1397.91
1451.23
1504.37
1557.2
1609.59
1661.37
1712.41
1762.52
1811.52
1859.22
1905.39
1949.74
1991.97
2031.69
2068.39
2100.87
2128.63
2151.76
2168.02
2175.44
2112.85
1999.79
1879.64
1754.7
1626.85
1497.67
1368.58
1240.84
1115.71
994.448
878.245
768.162
666.005
574.078
494.635
429.529
379.659
344.422
321.609
308.036
300.531
296.634
294.709
293.786
293.355
293.157
293.069
293.03
293.013
293.005
293.002
293.001
293
293
293
293
293
293
293.004
293.017
293.039
293.077
293.139
293.243
293.413
293.692
294.142
294.859
295.985
297.721
300.346
304.221
309.795
317.579
328.1
341.836
359.134
380.157
404.867
433.049
464.373
498.46
534.942
573.489
613.832
655.757
699.1
743.735
789.556
836.47
884.379
933.176
982.739
1032.98
1083.92
1135.48
1187.56
1240.04
1292.82
1345.78
1398.81
1451.78
1504.56
1557.04
1609.05
1660.46
1711.13
1760.88
1809.54
1856.91
1902.77
1946.85
1988.84
2028.36
2064.91
2097.39
2125.23
2148.47
2164.9
2172.7
2133.08
2020.84
1901.63
1777.62
1650.6
1522.09
1393.43
1265.86
1140.55
1018.72
901.59
790.152
686.06
591.608
509.156
440.77
387.672
349.623
324.677
309.692
301.361
297.027
294.888
293.865
293.389
293.172
293.075
293.032
293.014
293.006
293.002
293.001
293
293
293
293
293
293
293.004
293.017
293.039
293.076
293.138
293.241
293.411
293.689
294.137
294.853
295.978
297.716
300.35
304.248
309.868
317.731
328.376
342.287
359.814
381.112
406.13
434.634
466.276
500.663
537.411
576.188
616.719
658.791
702.241
746.943
792.792
839.695
887.556
936.269