/*--------------------------------*- C++ -*----------------------------------*\
  =========                 |
  \\      /  F ield         | OpenFOAM: The Open Source CFD Toolbox
   \\    /   O peration     | Website:  https://openfoam.org
    \\  /    A nd           | Version:  8
     \\/     M anipulation  |
\*---------------------------------------------------------------------------*/
FoamFile
{
    version     2.0;
    format      ascii;
    class       volVectorField;
    location    "680/fluid";
    object      U;
}
// * * * * * * * * * * * * * * * * * * * * * * * * * * * * * * * * * * * * * //

dimensions      [0 1 -1 0 0 0 0];

internalField   nonuniform List<vector> 
4000
(
(0.0999458 -0.00704912 0)
(0.099651 -0.0209762 0)
(0.0991751 -0.0347889 0)
(0.0985178 -0.0485252 0)
(0.0976711 -0.0622031 0)
(0.0966174 -0.0758245 0)
(0.0953361 -0.089379 0)
(0.0938082 -0.102846 0)
(0.0920182 -0.1162 0)
(0.0899577 -0.129412 0)
(0.0876284 -0.142454 0)
(0.085046 -0.155307 0)
(0.0822443 -0.167962 0)
(0.0792818 -0.180405 0)
(0.0762363 -0.19268 0)
(0.0731813 -0.204856 0)
(0.0701678 -0.216993 0)
(0.067214 -0.229134 0)
(0.0642969 -0.241289 0)
(0.0613532 -0.253433 0)
(0.0582914 -0.265501 0)
(0.0550107 -0.277405 0)
(0.0514211 -0.289036 0)
(0.0474645 -0.300268 0)
(0.0431148 -0.311005 0)
(0.0383639 -0.321184 0)
(0.0332172 -0.330742 0)
(0.0276914 -0.339623 0)
(0.0218117 -0.347781 0)
(0.015609 -0.355182 0)
(0.00911643 -0.361803 0)
(0.00236857 -0.367632 0)
(-0.00459804 -0.372665 0)
(-0.0117472 -0.37691 0)
(-0.0190462 -0.38038 0)
(-0.0264656 -0.383092 0)
(-0.0339781 -0.385074 0)
(-0.0415582 -0.386354 0)
(-0.0491814 -0.386967 0)
(-0.0568244 -0.386952 0)
(-0.0644654 -0.386349 0)
(-0.0720834 -0.385201 0)
(-0.0796588 -0.383553 0)
(-0.0871722 -0.381451 0)
(-0.094605 -0.378943 0)
(-0.101939 -0.376075 0)
(-0.109156 -0.372898 0)
(-0.116238 -0.369461 0)
(-0.123167 -0.365815 0)
(-0.129924 -0.362012 0)
(-0.13649 -0.358104 0)
(-0.142844 -0.354146 0)
(-0.148965 -0.350197 0)
(-0.154831 -0.346317 0)
(-0.160416 -0.342572 0)
(-0.165691 -0.339036 0)
(-0.170615 -0.335791 0)
(-0.175137 -0.332924 0)
(-0.179228 -0.330534 0)
(-0.182923 -0.328776 0)
(-0.186294 -0.327923 0)
(-0.188748 -0.328336 0)
(-0.188201 -0.329874 0)
(-0.18342 -0.330805 0)
(-0.176438 -0.330012 0)
(-0.169014 -0.327617 0)
(-0.16136 -0.323915 0)
(-0.153407 -0.319053 0)
(-0.145179 -0.313092 0)
(-0.136742 -0.306071 0)
(-0.128179 -0.298022 0)
(-0.119573 -0.288979 0)
(-0.111012 -0.278984 0)
(-0.102591 -0.268084 0)
(-0.0944564 -0.256341 0)
(-0.0868527 -0.243864 0)
(-0.0801083 -0.230853 0)
(-0.074593 -0.217588 0)
(-0.0706835 -0.204631 0)
(-0.0686754 -0.192491 0)
(-0.0686024 -0.181412 0)
(-0.070165 -0.171303 0)
(-0.072848 -0.161853 0)
(-0.0761135 -0.152728 0)
(-0.0795339 -0.143687 0)
(-0.0828281 -0.134584 0)
(-0.0858245 -0.125323 0)
(-0.0884559 -0.115949 0)
(-0.0907205 -0.106509 0)
(-0.0926432 -0.0970382 0)
(-0.0942578 -0.0875659 0)
(-0.0955996 -0.0781199 0)
(-0.0967028 -0.0687212 0)
(-0.0975992 -0.0593838 0)
(-0.0983173 -0.0501147 0)
(-0.0988826 -0.0409138 0)
(-0.0993168 -0.0317741 0)
(-0.0996372 -0.0226815 0)
(-0.0998556 -0.0136153 0)
(-0.0999821 -0.00454839 0)
(0.0999999 -0.00661334 0)
(0.0997949 -0.019782 0)
(0.099371 -0.032865 0)
(0.0987046 -0.0458442 0)
(0.0977969 -0.0587013 0)
(0.0966439 -0.0714134 0)
(0.0952361 -0.0839526 0)
(0.0935657 -0.0962876 0)
(0.0916307 -0.108386 0)
(0.0894383 -0.120219 0)
(0.0870081 -0.131766 0)
(0.0843742 -0.143026 0)
(0.081587 -0.154028 0)
(0.0787131 -0.164853 0)
(0.0758255 -0.175566 0)
(0.0729907 -0.186223 0)
(0.0702553 -0.196899 0)
(0.0676317 -0.20766 0)
(0.0650898 -0.218546 0)
(0.0625574 -0.229554 0)
(0.0599313 -0.240639 0)
(0.0570968 -0.251721 0)
(0.0539478 -0.262705 0)
(0.0504022 -0.27351 0)
(0.046411 -0.284021 0)
(0.0419554 -0.294107 0)
(0.0370373 -0.303666 0)
(0.0316759 -0.31262 0)
(0.0259016 -0.320912 0)
(0.0197517 -0.328501 0)
(0.0132665 -0.335362 0)
(0.00648652 -0.34148 0)
(-0.000548177 -0.34685 0)
(-0.00779876 -0.351477 0)
(-0.0152284 -0.355374 0)
(-0.0228031 -0.358558 0)
(-0.0304919 -0.361054 0)
(-0.0382665 -0.362889 0)
(-0.0461005 -0.364095 0)
(-0.053969 -0.364705 0)
(-0.061849 -0.364758 0)
(-0.0697186 -0.364292 0)
(-0.0775573 -0.363349 0)
(-0.0853455 -0.361971 0)
(-0.0930646 -0.360203 0)
(-0.100696 -0.358089 0)
(-0.108223 -0.355676 0)
(-0.115628 -0.353009 0)
(-0.122893 -0.350136 0)
(-0.130001 -0.347106 0)
(-0.136935 -0.343967 0)
(-0.143678 -0.34077 0)
(-0.150212 -0.337566 0)
(-0.156518 -0.334409 0)
(-0.162579 -0.331352 0)
(-0.168373 -0.328452 0)
(-0.173866 -0.325765 0)
(-0.179015 -0.323344 0)
(-0.183821 -0.321242 0)
(-0.18838 -0.319512 0)
(-0.192807 -0.318208 0)
(-0.196163 -0.31732 0)
(-0.195817 -0.316345 0)
(-0.19058 -0.314678 0)
(-0.183074 -0.312123 0)
(-0.175263 -0.308575 0)
(-0.167312 -0.303989 0)
(-0.15909 -0.298342 0)
(-0.150582 -0.29162 0)
(-0.141836 -0.283815 0)
(-0.132913 -0.27493 0)
(-0.123878 -0.264982 0)
(-0.114794 -0.25401 0)
(-0.105734 -0.242096 0)
(-0.0968486 -0.229395 0)
(-0.0884167 -0.21619 0)
(-0.0808334 -0.202936 0)
(-0.0745623 -0.190265 0)
(-0.0700609 -0.178599 0)
(-0.0676202 -0.168205 0)
(-0.0672112 -0.159091 0)
(-0.0684745 -0.150981 0)
(-0.0708781 -0.143464 0)
(-0.073905 -0.136178 0)
(-0.077158 -0.128887 0)
(-0.0803787 -0.121485 0)
(-0.0834257 -0.113965 0)
(-0.0862139 -0.106241 0)
(-0.0887084 -0.0982882 0)
(-0.0909035 -0.0901365 0)
(-0.0928073 -0.081826 0)
(-0.0944361 -0.0733951 0)
(-0.0958104 -0.0648771 0)
(-0.0969522 -0.0562994 0)
(-0.0978837 -0.0476834 0)
(-0.0986259 -0.039044 0)
(-0.0991964 -0.0303901 0)
(-0.0996072 -0.0217251 0)
(-0.0998662 -0.0130475 0)
(-0.0999951 -0.00435432 0)
(0.0999788 -0.00633561 0)
(0.0997158 -0.018939 0)
(0.0992004 -0.0314542 0)
(0.0984141 -0.0438606 0)
(0.0973606 -0.056136 0)
(0.0960411 -0.068257 0)
(0.0944549 -0.0801986 0)
(0.0926051 -0.0919361 0)
(0.0905018 -0.103446 0)
(0.0881653 -0.114711 0)
(0.0856275 -0.12572 0)
(0.0829345 -0.136473 0)
(0.0801446 -0.146986 0)
(0.0773227 -0.157292 0)
(0.0745342 -0.167444 0)
(0.0718409 -0.177516 0)
(0.0692878 -0.187587 0)
(0.0668878 -0.197726 0)
(0.064611 -0.207979 0)
(0.0623848 -0.218351 0)
(0.0601051 -0.228807 0)
(0.0576539 -0.239276 0)
(0.0549185 -0.249665 0)
(0.0518033 -0.259872 0)
(0.048238 -0.269797 0)
(0.0441847 -0.279348 0)
(0.0396346 -0.288445 0)
(0.0346008 -0.297019 0)
(0.0291107 -0.305014 0)
(0.0231999 -0.312387 0)
(0.0169083 -0.319108 0)
(0.0102769 -0.325156 0)
(0.00334614 -0.330523 0)
(-0.00384298 -0.335207 0)
(-0.0112525 -0.339216 0)
(-0.0188479 -0.342562 0)
(-0.0265965 -0.345265 0)
(-0.0344684 -0.347347 0)
(-0.0424363 -0.348838 0)
(-0.0504745 -0.349766 0)
(-0.0585589 -0.350165 0)
(-0.0666673 -0.350071 0)
(-0.0747785 -0.349521 0)
(-0.0828731 -0.348554 0)
(-0.0909323 -0.347211 0)
(-0.0989384 -0.345532 0)
(-0.106874 -0.34356 0)
(-0.114724 -0.341337 0)
(-0.122472 -0.338906 0)
(-0.130104 -0.336311 0)
(-0.137606 -0.333596 0)
(-0.144964 -0.330803 0)
(-0.152166 -0.327978 0)
(-0.159199 -0.325161 0)
(-0.166052 -0.322395 0)
(-0.172709 -0.319719 0)
(-0.179141 -0.317169 0)
(-0.185308 -0.31477 0)
(-0.191224 -0.312542 0)
(-0.197004 -0.310502 0)
(-0.202635 -0.308657 0)
(-0.206605 -0.306943 0)
(-0.205949 -0.304712 0)
(-0.200071 -0.301683 0)
(-0.19205 -0.29796 0)
(-0.183673 -0.293467 0)
(-0.175087 -0.288104 0)
(-0.166188 -0.28181 0)
(-0.156972 -0.274558 0)
(-0.147484 -0.266345 0)
(-0.137778 -0.25719 0)
(-0.127913 -0.247144 0)
(-0.117948 -0.236297 0)
(-0.107971 -0.224783 0)
(-0.0981778 -0.212806 0)
(-0.0889108 -0.200657 0)
(-0.0806355 -0.188702 0)
(-0.0738814 -0.177347 0)
(-0.0691122 -0.16696 0)
(-0.0665473 -0.157745 0)
(-0.0660592 -0.149642 0)
(-0.0672264 -0.142364 0)
(-0.0695066 -0.135536 0)
(-0.072401 -0.128842 0)
(-0.075535 -0.122077 0)
(-0.0786691 -0.115137 0)
(-0.0816735 -0.107992 0)
(-0.0844827 -0.100651 0)
(-0.0870594 -0.0931345 0)
(-0.0893853 -0.0854623 0)
(-0.0914558 -0.0776551 0)
(-0.0932743 -0.0697337 0)
(-0.0948489 -0.0617181 0)
(-0.0961907 -0.0536263 0)
(-0.0973122 -0.0454742 0)
(-0.098226 -0.0372747 0)
(-0.0989431 -0.029038 0)
(-0.0994703 -0.0207711 0)
(-0.0998116 -0.012479 0)
(-0.0999872 -0.00416546 0)
(0.0999836 -0.00598301 0)
(0.099716 -0.017885 0)
(0.0991831 -0.0296943 0)
(0.0983653 -0.0413839 0)
(0.0972715 -0.0529267 0)
(0.0959084 -0.0642959 0)
(0.0942813 -0.0754647 0)
(0.0923989 -0.086408 0)
(0.0902758 -0.0971035 0)
(0.0879351 -0.107535 0)
(0.0854094 -0.117694 0)
(0.0827434 -0.127587 0)
(0.0799931 -0.137237 0)
(0.0772247 -0.146685 0)
(0.0745086 -0.155995 0)
(0.0719095 -0.165242 0)
(0.0694728 -0.174509 0)
(0.0672103 -0.183868 0)
(0.0650905 -0.193369 0)
(0.0630391 -0.203022 0)
(0.060949 -0.2128 0)
(0.0586989 -0.222638 0)
(0.0561721 -0.232452 0)
(0.0532717 -0.242145 0)
(0.0499288 -0.251619 0)
(0.046103 -0.260783 0)
(0.0417802 -0.269554 0)
(0.0369665 -0.277863 0)
(0.0316825 -0.285655 0)
(0.0259581 -0.292887 0)
(0.0198281 -0.299528 0)
(0.0133301 -0.305555 0)
(0.00650168 -0.310959 0)
(-0.000619483 -0.315734 0)
(-0.00799694 -0.319886 0)
(-0.0155964 -0.323424 0)
(-0.0233862 -0.326365 0)
(-0.0313373 -0.328727 0)
(-0.0394227 -0.330534 0)
(-0.0476172 -0.331812 0)
(-0.0558972 -0.332592 0)
(-0.0642409 -0.332903 0)
(-0.0726278 -0.332779 0)
(-0.0810387 -0.332255 0)
(-0.0894553 -0.331366 0)
(-0.0978603 -0.330148 0)
(-0.106238 -0.328638 0)
(-0.114573 -0.326873 0)
(-0.122851 -0.324891 0)
(-0.13106 -0.322729 0)
(-0.139185 -0.320422 0)
(-0.147216 -0.318006 0)
(-0.15514 -0.315513 0)
(-0.162946 -0.312976 0)
(-0.170621 -0.310422 0)
(-0.178147 -0.307875 0)
(-0.185484 -0.305351 0)
(-0.192583 -0.302855 0)
(-0.199466 -0.300388 0)
(-0.206254 -0.297951 0)
(-0.212771 -0.295539 0)
(-0.21684 -0.293089 0)
(-0.215418 -0.289862 0)
(-0.2088 -0.285806 0)
(-0.200324 -0.281134 0)
(-0.191408 -0.275806 0)
(-0.182144 -0.269728 0)
(-0.172478 -0.262842 0)
(-0.162445 -0.255124 0)
(-0.152108 -0.246578 0)
(-0.141542 -0.237237 0)
(-0.130824 -0.227163 0)
(-0.120038 -0.216458 0)
(-0.109314 -0.205267 0)
(-0.0989052 -0.1938 0)
(-0.0892096 -0.182342 0)
(-0.0807144 -0.171245 0)
(-0.0739193 -0.160882 0)
(-0.0692135 -0.15156 0)
(-0.0667302 -0.14341 0)
(-0.0662763 -0.136316 0)
(-0.067407 -0.129974 0)
(-0.0695946 -0.124028 0)
(-0.072371 -0.118186 0)
(-0.0753895 -0.112264 0)
(-0.0784253 -0.106166 0)
(-0.0813492 -0.0998514 0)
(-0.0840939 -0.0933145 0)
(-0.0866275 -0.0865651 0)
(-0.0889361 -0.0796222 0)
(-0.0910153 -0.0725078 0)
(-0.0928658 -0.0652443 0)
(-0.0944909 -0.0578528 0)
(-0.0958954 -0.0503528 0)
(-0.0970854 -0.0427622 0)
(-0.0980672 -0.0350966 0)
(-0.0988456 -0.0273696 0)
(-0.0994218 -0.019593 0)
(-0.0997957 -0.0117771 0)
(-0.0999874 -0.00393199 0)
(0.0999806 -0.00562939 0)
(0.0996979 -0.0168266 0)
(0.0991394 -0.027934 0)
(0.0982873 -0.0389243 0)
(0.0971524 -0.0497706 0)
(0.0957444 -0.0604468 0)
(0.0940715 -0.0709278 0)
(0.0921458 -0.0811908 0)
(0.0899853 -0.0912164 0)
(0.0876165 -0.100991 0)
(0.0850753 -0.110509 0)
(0.0824092 -0.119776 0)
(0.0796768 -0.128814 0)
(0.0769461 -0.13766 0)
(0.074288 -0.146372 0)
(0.0717671 -0.155018 0)
(0.069428 -0.163675 0)
(0.0672819 -0.172412 0)
(0.0652973 -0.181276 0)
(0.0633994 -0.190282 0)
(0.0614804 -0.199409 0)
(0.0594164 -0.208604 0)
(0.0570875 -0.217792 0)
(0.0543924 -0.226888 0)
(0.0512571 -0.235801 0)
(0.0476366 -0.24445 0)
(0.0435123 -0.252758 0)
(0.0388858 -0.260661 0)
(0.0337741 -0.268107 0)
(0.0282033 -0.275054 0)
(0.0222056 -0.281469 0)
(0.0158155 -0.287331 0)
(0.00906826 -0.292628 0)
(0.00199909 -0.297353 0)
(-0.00535729 -0.301507 0)
(-0.0129681 -0.305099 0)
(-0.0208034 -0.308139 0)
(-0.0288351 -0.310645 0)
(-0.0370377 -0.312635 0)
(-0.045387 -0.314133 0)
(-0.0538603 -0.315163 0)
(-0.0624368 -0.315751 0)
(-0.0710967 -0.315928 0)
(-0.0798212 -0.315721 0)
(-0.0885925 -0.315162 0)
(-0.0973944 -0.314282 0)
(-0.106211 -0.313113 0)
(-0.115028 -0.311685 0)
(-0.123832 -0.31003 0)
(-0.132607 -0.308178 0)
(-0.141341 -0.306158 0)
(-0.150021 -0.303997 0)
(-0.158631 -0.301721 0)
(-0.167157 -0.29935 0)
(-0.17558 -0.296903 0)
(-0.183872 -0.294392 0)
(-0.191978 -0.291823 0)
(-0.199838 -0.289191 0)
(-0.207483 -0.286487 0)
(-0.215035 -0.283707 0)
(-0.222129 -0.280839 0)
(-0.225925 -0.277832 0)
(-0.22353 -0.273932 0)
(-0.216211 -0.269261 0)
(-0.207345 -0.264025 0)
(-0.197939 -0.258198 0)
(-0.188038 -0.25171 0)
(-0.177648 -0.244526 0)
(-0.16685 -0.236641 0)
(-0.155736 -0.228073 0)
(-0.144403 -0.218868 0)
(-0.132949 -0.209104 0)
(-0.121479 -0.198887 0)
(-0.11016 -0.188367 0)
(-0.0992897 -0.177749 0)
(-0.0892917 -0.167295 0)
(-0.0806569 -0.157309 0)
(-0.0738589 -0.148093 0)
(-0.0692304 -0.139866 0)
(-0.0668337 -0.132677 0)
(-0.0664193 -0.126369 0)
(-0.0675225 -0.120656 0)
(-0.0696285 -0.11523 0)
(-0.0722968 -0.109856 0)
(-0.0752075 -0.104386 0)
(-0.0781543 -0.0987453 0)
(-0.0810162 -0.0929046 0)
(-0.0837268 -0.08686 0)
(-0.0862504 -0.0806205 0)
(-0.0885689 -0.0742004 0)
(-0.0906736 -0.0676167 0)
(-0.0925611 -0.0608867 0)
(-0.0942311 -0.0540276 0)
(-0.0956847 -0.0470561 0)
(-0.0969247 -0.0399879 0)
(-0.0979539 -0.0328378 0)
(-0.0987743 -0.0256197 0)
(-0.0993844 -0.0183462 0)
(-0.0997817 -0.0110297 0)
(-0.0999861 -0.00368264 0)
(0.0999812 -0.00526077 0)
(0.0996959 -0.0157253 0)
(0.0991311 -0.026104 0)
(0.0982693 -0.0363689 0)
(0.097123 -0.0464931 0)
(0.0957038 -0.0564507 0)
(0.0940219 -0.0662176 0)
(0.0920913 -0.0757719 0)
(0.0899317 -0.0850954 0)
(0.0875707 -0.094176 0)
(0.0850451 -0.103009 0)
(0.0824026 -0.111602 0)
(0.0797018 -0.119976 0)
(0.0770098 -0.128169 0)
(0.0743976 -0.136237 0)
(0.0719294 -0.144246 0)
(0.0696503 -0.152272 0)
(0.0675724 -0.160382 0)
(0.0656659 -0.168621 0)
(0.0638574 -0.177008 0)
(0.0620401 -0.185524 0)
(0.0600905 -0.194121 0)
(0.0578872 -0.202731 0)
(0.0553268 -0.211273 0)
(0.0523321 -0.219666 0)
(0.0488545 -0.227831 0)
(0.0448711 -0.235698 0)
(0.0403798 -0.243207 0)
(0.0353935 -0.250307 0)
(0.029935 -0.256958 0)
(0.024033 -0.26313 0)
(0.0177193 -0.268801 0)
(0.0110264 -0.273956 0)
(0.00398708 -0.27859 0)
(-0.0033657 -0.282702 0)
(-0.011001 -0.286296 0)
(-0.0188906 -0.289382 0)
(-0.0270082 -0.291974 0)
(-0.0353293 -0.294087 0)
(-0.0438311 -0.29574 0)
(-0.0524921 -0.296955 0)
(-0.0612918 -0.297755 0)
(-0.070211 -0.298163 0)
(-0.0792315 -0.298204 0)
(-0.0883363 -0.297906 0)
(-0.0975093 -0.297293 0)
(-0.106734 -0.296392 0)
(-0.115996 -0.29523 0)
(-0.12528 -0.293831 0)
(-0.134569 -0.292221 0)
(-0.143849 -0.290421 0)
(-0.153101 -0.288453 0)
(-0.162308 -0.286336 0)
(-0.171447 -0.284085 0)
(-0.180492 -0.281711 0)
(-0.189403 -0.279221 0)
(-0.198108 -0.276613 0)
(-0.206535 -0.273878 0)
(-0.214723 -0.271006 0)
(-0.222785 -0.267983 0)
(-0.23018 -0.264777 0)
(-0.233525 -0.261361 0)
(-0.230177 -0.257092 0)
(-0.222228 -0.252128 0)
(-0.212951 -0.246592 0)
(-0.203055 -0.240486 0)
(-0.192561 -0.233786 0)
(-0.181526 -0.226486 0)
(-0.170064 -0.218599 0)
(-0.158291 -0.210155 0)
(-0.146326 -0.201209 0)
(-0.134282 -0.191839 0)
(-0.122287 -0.182148 0)
(-0.110542 -0.172279 0)
(-0.0993793 -0.162419 0)
(-0.0892418 -0.152805 0)
(-0.0806168 -0.143704 0)
(-0.0739468 -0.135373 0)
(-0.0695064 -0.127984 0)
(-0.0672888 -0.121554 0)
(-0.0669919 -0.115916 0)
(-0.0681327 -0.110798 0)
(-0.070207 -0.105921 0)
(-0.0727978 -0.101076 0)
(-0.0756089 -0.0961307 0)
(-0.0784521 -0.0910185 0)
(-0.0812178 -0.0857124 0)
(-0.0838459 -0.0802077 0)
(-0.0863036 -0.0745117 0)
(-0.0885733 -0.0686367 0)
(-0.0906453 -0.0625978 0)
(-0.0925142 -0.0564108 0)
(-0.0941771 -0.0500917 0)
(-0.0956326 -0.0436562 0)
(-0.0968803 -0.0371196 0)
(-0.0979206 -0.0304969 0)
(-0.0987529 -0.0238023 0)
(-0.0993734 -0.0170492 0)
(-0.099778 -0.0102514 0)
(-0.0999861 -0.00342286 0)
(0.0999808 -0.00489108 0)
(0.0996929 -0.0146204 0)
(0.0991239 -0.0242696 0)
(0.0982566 -0.0338118 0)
(0.0971043 -0.0432212 0)
(0.0956794 -0.0524736 0)
(0.0939933 -0.0615463 0)
(0.092061 -0.0704192 0)
(0.0899032 -0.0790758 0)
(0.0875486 -0.0875051 0)
(0.0850348 -0.0957038 0)
(0.08241 -0.103679 0)
(0.0797332 -0.11145 0)
(0.0770719 -0.119053 0)
(0.074497 -0.126538 0)
(0.0720728 -0.133969 0)
(0.0698447 -0.141415 0)
(0.0678253 -0.148938 0)
(0.0659851 -0.156583 0)
(0.0642517 -0.164367 0)
(0.0625185 -0.172278 0)
(0.0606615 -0.180272 0)
(0.0585581 -0.18829 0)
(0.0561028 -0.196258 0)
(0.0532161 -0.204102 0)
(0.0498462 -0.21175 0)
(0.0459675 -0.219137 0)
(0.0415747 -0.226207 0)
(0.0366778 -0.232913 0)
(0.0312969 -0.239216 0)
(0.0254584 -0.245087 0)
(0.0191915 -0.250506 0)
(0.0125268 -0.255457 0)
(0.00549511 -0.259933 0)
(-0.00187285 -0.263932 0)
(-0.0095477 -0.267457 0)
(-0.0175024 -0.270515 0)
(-0.025712 -0.273118 0)
(-0.0341532 -0.275277 0)
(-0.0428044 -0.277009 0)
(-0.0516446 -0.278332 0)
(-0.060654 -0.279264 0)
(-0.069814 -0.279825 0)
(-0.0791069 -0.280038 0)
(-0.0885157 -0.279923 0)
(-0.0980234 -0.279502 0)
(-0.107614 -0.278798 0)
(-0.117269 -0.277831 0)
(-0.126974 -0.276622 0)
(-0.13671 -0.275191 0)
(-0.146458 -0.273556 0)
(-0.156197 -0.271733 0)
(-0.165903 -0.269737 0)
(-0.175547 -0.267579 0)
(-0.185096 -0.265266 0)
(-0.194495 -0.262804 0)
(-0.203657 -0.260189 0)
(-0.212504 -0.257411 0)
(-0.221063 -0.254459 0)
(-0.229406 -0.251312 0)
(-0.236862 -0.247918 0)
(-0.239789 -0.24425 0)
(-0.23567 -0.239812 0)
(-0.227055 -0.234745 0)
(-0.217232 -0.229108 0)
(-0.206827 -0.222929 0)
(-0.195818 -0.21622 0)
(-0.184261 -0.208998 0)
(-0.172277 -0.201288 0)
(-0.159999 -0.19313 0)
(-0.147556 -0.184581 0)
(-0.135078 -0.175719 0)
(-0.122708 -0.166643 0)
(-0.110676 -0.157486 0)
(-0.0993423 -0.148421 0)
(-0.0891593 -0.139661 0)
(-0.0806045 -0.131439 0)
(-0.074088 -0.123968 0)
(-0.0698315 -0.117374 0)
(-0.0677716 -0.111633 0)
(-0.0675687 -0.106573 0)
(-0.0687323 -0.10194 0)
(-0.0707728 -0.0974919 0)
(-0.0732954 -0.0930511 0)
(-0.0760238 -0.0885098 0)
(-0.0787832 -0.0838131 0)
(-0.0814721 -0.0789389 0)
(-0.0840337 -0.0738836 0)
(-0.0864365 -0.0686528 0)
(-0.0886625 -0.063257 0)
(-0.0907012 -0.0577085 0)
(-0.0925459 -0.0520207 0)
(-0.0941923 -0.0462075 0)
(-0.0956376 -0.0402827 0)
(-0.0968799 -0.0342604 0)
(-0.097918 -0.0281542 0)
(-0.0987503 -0.0219777 0)
(-0.0993717 -0.0157441 0)
(-0.0997773 -0.00946713 0)
(-0.099986 -0.00316097 0)
(0.0999809 -0.0045197 0)
(0.0996935 -0.0135108 0)
(0.0991251 -0.0224277 0)
(0.0982588 -0.0312451 0)
(0.0971084 -0.0399386 0)
(0.0956867 -0.0484855 0)
(0.0940057 -0.0568645 0)
(0.092081 -0.0650571 0)
(0.0899338 -0.0730481 0)
(0.0875931 -0.0808275 0)
(0.0850966 -0.0883925 0)
(0.0824927 -0.0957498 0)
(0.0798399 -0.102918 0)
(0.0772056 -0.109932 0)
(0.0746603 -0.116836 0)
(0.0722685 -0.123692 0)
(0.0700759 -0.130564 0)
(0.0680958 -0.137509 0)
(0.0663001 -0.144572 0)
(0.0646172 -0.15177 0)
(0.0629413 -0.159091 0)
(0.0611484 -0.166499 0)
(0.0591152 -0.173937 0)
(0.0567346 -0.18134 0)
(0.0539248 -0.18864 0)
(0.0506317 -0.195769 0)
(0.0468271 -0.20267 0)
(0.042503 -0.209288 0)
(0.0376673 -0.215581 0)
(0.0323375 -0.221512 0)
(0.026538 -0.227054 0)
(0.020296 -0.232186 0)
(0.0136402 -0.236895 0)
(0.0065999 -0.241171 0)
(-0.000795868 -0.245012 0)
(-0.00851908 -0.248419 0)
(-0.0165439 -0.251399 0)
(-0.0248464 -0.253958 0)
(-0.0334045 -0.256108 0)
(-0.0421968 -0.257862 0)
(-0.0512029 -0.259234 0)
(-0.0604038 -0.26024 0)
(-0.0697811 -0.260897 0)
(-0.0793169 -0.261223 0)
(-0.0889936 -0.261235 0)
(-0.0987937 -0.260952 0)
(-0.1087 -0.260391 0)
(-0.118693 -0.25957 0)
(-0.128755 -0.258506 0)
(-0.138865 -0.257214 0)
(-0.149002 -0.255709 0)
(-0.15914 -0.254003 0)
(-0.16925 -0.252107 0)
(-0.1793 -0.25003 0)
(-0.189246 -0.247778 0)
(-0.199025 -0.245353 0)
(-0.208535 -0.242753 0)
(-0.217693 -0.23997 0)
(-0.226504 -0.236999 0)
(-0.234987 -0.23383 0)
(-0.242314 -0.230429 0)
(-0.244758 -0.226674 0)
(-0.239944 -0.222155 0)
(-0.230748 -0.217071 0)
(-0.220438 -0.211482 0)
(-0.209582 -0.205409 0)
(-0.198137 -0.19887 0)
(-0.186151 -0.19189 0)
(-0.173754 -0.1845 0)
(-0.161082 -0.176744 0)
(-0.148277 -0.16868 0)
(-0.135476 -0.160383 0)
(-0.122839 -0.151947 0)
(-0.11062 -0.143494 0)
(-0.0992 -0.135182 0)
(-0.0890378 -0.127203 0)
(-0.0806003 -0.119761 0)
(-0.0742673 -0.113035 0)
(-0.0702131 -0.10712 0)
(-0.0683246 -0.101974 0)
(-0.0682302 -0.097424 0)
(-0.069433 -0.0932375 0)
(-0.0714559 -0.0892002 0)
(-0.0739235 -0.0851576 0)
(-0.0765773 -0.0810175 0)
(-0.0792556 -0.0767326 0)
(-0.081865 -0.0722843 0)
(-0.0843532 -0.0676692 0)
(-0.0866908 -0.0628922 0)
(-0.0888607 -0.0579623 0)
(-0.0908522 -0.0528904 0)
(-0.0926582 -0.0476882 0)
(-0.0942736 -0.0423682 0)
(-0.0956944 -0.0369429 0)
(-0.096918 -0.0314252 0)
(-0.0979421 -0.025828 0)
(-0.0987642 -0.0201639 0)
(-0.0993786 -0.0144457 0)
(-0.0997797 -0.00868657 0)
(-0.0999862 -0.00290027 0)
(0.099981 -0.00414961 0)
(0.0996943 -0.0124049 0)
(0.0991278 -0.0205923 0)
(0.0982644 -0.0286883 0)
(0.097118 -0.0366705 0)
(0.0957019 -0.0445178 0)
(0.0940282 -0.0522108 0)
(0.0921127 -0.0597324 0)
(0.0899768 -0.0670688 0)
(0.0876497 -0.074211 0)
(0.0851691 -0.0811566 0)
(0.0825833 -0.0879119 0)
(0.0799508 -0.0944944 0)
(0.0773388 -0.100934 0)
(0.0748176 -0.107276 0)
(0.0724519 -0.113572 0)
(0.0702875 -0.119884 0)
(0.0683386 -0.126265 0)
(0.0665776 -0.132756 0)
(0.0649339 -0.139374 0)
(0.0633019 -0.14611 0)
(0.0615575 -0.152931 0)
(0.0595766 -0.159787 0)
(0.0572509 -0.166618 0)
(0.0544969 -0.173363 0)
(0.0512585 -0.179961 0)
(0.0475054 -0.186357 0)
(0.0432278 -0.192503 0)
(0.0384314 -0.198358 0)
(0.0331323 -0.203889 0)
(0.0273528 -0.20907 0)
(0.0211188 -0.213881 0)
(0.0144575 -0.218308 0)
(0.00739675 -0.222344 0)
(-3.55341e-05 -0.225984 0)
(-0.00781244 -0.229229 0)
(-0.015909 -0.232083 0)
(-0.0243022 -0.234551 0)
(-0.0329704 -0.236643 0)
(-0.0418927 -0.238369 0)
(-0.0510494 -0.239741 0)
(-0.0604216 -0.240773 0)
(-0.0699905 -0.241477 0)
(-0.0797381 -0.241869 0)
(-0.0896459 -0.241964 0)
(-0.0996955 -0.241776 0)
(-0.109868 -0.24132 0)
(-0.120143 -0.24061 0)
(-0.1305 -0.23966 0)
(-0.140916 -0.238482 0)
(-0.151366 -0.237088 0)
(-0.161821 -0.235488 0)
(-0.172248 -0.23369 0)
(-0.182609 -0.231701 0)
(-0.192854 -0.229525 0)
(-0.202912 -0.227165 0)
(-0.212674 -0.224619 0)
(-0.222063 -0.221883 0)
(-0.231095 -0.218962 0)
(-0.239751 -0.21587 0)
(-0.246874 -0.212602 0)
(-0.248667 -0.208853 0)
(-0.243117 -0.204347 0)
(-0.233475 -0.199344 0)
(-0.222797 -0.193915 0)
(-0.211581 -0.188069 0)
(-0.19978 -0.181821 0)
(-0.18745 -0.175195 0)
(-0.174725 -0.168225 0)
(-0.161749 -0.160956 0)
(-0.148669 -0.153445 0)
(-0.135629 -0.14576 0)
(-0.122804 -0.137991 0)
(-0.110469 -0.130248 0)
(-0.0990185 -0.122678 0)
(-0.0889153 -0.115452 0)
(-0.0806138 -0.108749 0)
(-0.0744649 -0.102719 0)
(-0.0706009 -0.0974306 0)
(-0.0688671 -0.0928252 0)
(-0.0688676 -0.0887357 0)
(-0.0701036 -0.0849508 0)
(-0.072111 -0.0812827 0)
(-0.0745315 -0.0775996 0)
(-0.0771216 -0.0738236 0)
(-0.0797302 -0.0699156 0)
(-0.0822703 -0.0658598 0)
(-0.0846933 -0.0616539 0)
(-0.0869714 -0.057302 0)
(-0.0890881 -0.0528118 0)
(-0.091033 -0.0481928 0)
(-0.0927988 -0.0434551 0)
(-0.0943799 -0.0386097 0)
(-0.0957722 -0.0336678 0)
(-0.0969723 -0.0286409 0)
(-0.0979777 -0.0235407 0)
(-0.0987853 -0.0183788 0)
(-0.0993891 -0.013167 0)
(-0.0997835 -0.00791754 0)
(-0.0999865 -0.0026434 0)
(0.0999811 -0.00378105 0)
(0.0996959 -0.0113034 0)
(0.0991322 -0.0187643 0)
(0.098273 -0.0261421 0)
(0.0971324 -0.0334164 0)
(0.0957235 -0.0405678 0)
(0.0940587 -0.0475787 0)
(0.0921537 -0.0544335 0)
(0.09003 -0.0611197 0)
(0.0877167 -0.0676292 0)
(0.0852515 -0.0739598 0)
(0.0826824 -0.0801175 0)
(0.0800677 -0.0861181 0)
(0.0774742 -0.0919894 0)
(0.0749723 -0.0977714 0)
(0.0726265 -0.103514 0)
(0.0704832 -0.109271 0)
(0.0685569 -0.115093 0)
(0.0668209 -0.121017 0)
(0.0652052 -0.12706 0)
(0.0636046 -0.133215 0)
(0.0618951 -0.139452 0)
(0.0599518 -0.145726 0)
(0.0576652 -0.151985 0)
(0.0549505 -0.15817 0)
(0.05175 -0.164228 0)
(0.0480316 -0.170109 0)
(0.043784 -0.175767 0)
(0.0390113 -0.181167 0)
(0.0337282 -0.186277 0)
(0.0279557 -0.191073 0)
(0.0217183 -0.195536 0)
(0.0150423 -0.199654 0)
(0.0079543 -0.203418 0)
(0.000481381 -0.206824 0)
(-0.00735041 -0.209872 0)
(-0.0155167 -0.212563 0)
(-0.0239951 -0.214903 0)
(-0.0327643 -0.216899 0)
(-0.0418039 -0.218559 0)
(-0.0510944 -0.219893 0)
(-0.0606165 -0.220911 0)
(-0.0703514 -0.221626 0)
(-0.0802804 -0.22205 0)
(-0.0903843 -0.222194 0)
(-0.100644 -0.222071 0)
(-0.111038 -0.221694 0)
(-0.121546 -0.221073 0)
(-0.132145 -0.220219 0)
(-0.142808 -0.219144 0)
(-0.153509 -0.217856 0)
(-0.164216 -0.216364 0)
(-0.174891 -0.214675 0)
(-0.185493 -0.212794 0)
(-0.195969 -0.210726 0)
(-0.206239 -0.208473 0)
(-0.216195 -0.206034 0)
(-0.225771 -0.20341 0)
(-0.235011 -0.20061 0)
(-0.24384 -0.197654 0)
(-0.250617 -0.194552 0)
(-0.25157 -0.190859 0)
(-0.245305 -0.18647 0)
(-0.235369 -0.181653 0)
(-0.224458 -0.176479 0)
(-0.212981 -0.170949 0)
(-0.200907 -0.165074 0)
(-0.188311 -0.158878 0)
(-0.175333 -0.152394 0)
(-0.162125 -0.145666 0)
(-0.148838 -0.138744 0)
(-0.135623 -0.131696 0)
(-0.122666 -0.1246 0)
(-0.110261 -0.11756 0)
(-0.0988147 -0.110706 0)
(-0.0887911 -0.104193 0)
(-0.0806327 -0.0981778 0)
(-0.0746641 -0.0927874 0)
(-0.0709801 -0.0880685 0)
(-0.0693906 -0.0839558 0)
(-0.0694802 -0.0802908 0)
(-0.0707496 -0.0768829 0)
(-0.0727462 -0.0735679 0)
(-0.0751271 -0.0702326 0)
(-0.0776614 -0.0668106 0)
(-0.0802076 -0.063269 0)
(-0.0826844 -0.0595948 0)
(-0.0850464 -0.055786 0)
(-0.0872675 -0.0518463 0)
(-0.0893322 -0.0477825 0)
(-0.0912304 -0.0436028 0)
(-0.0929549 -0.0393163 0)
(-0.0945 -0.0349325 0)
(-0.0958614 -0.0304614 0)
(-0.0970355 -0.0259134 0)
(-0.0980195 -0.0212989 0)
(-0.0988103 -0.0166285 0)
(-0.0994017 -0.0119129 0)
(-0.0997879 -0.0071632 0)
(-0.0999868 -0.00239145 0)
(0.0999812 -0.0034145 0)
(0.0996975 -0.0102079 0)
(0.0991367 -0.0169461 0)
(0.098282 -0.0236096 0)
(0.0971473 -0.0301799 0)
(0.0957457 -0.0366397 0)
(0.0940896 -0.0429729 0)
(0.0921946 -0.0491656 0)
(0.0900823 -0.0552065 0)
(0.0877815 -0.0610884 0)
(0.0853298 -0.0668092 0)
(0.082775 -0.0723745 0)
(0.0801751 -0.0777985 0)
(0.0775968 -0.0831064 0)
(0.0751102 -0.0883342 0)
(0.0727801 -0.0935269 0)
(0.0706529 -0.0987336 0)
(0.0687437 -0.104 0)
(0.0670265 -0.109361 0)
(0.0654316 -0.114832 0)
(0.0638543 -0.120406 0)
(0.0621702 -0.126058 0)
(0.0602541 -0.131748 0)
(0.0579954 -0.137428 0)
(0.055308 -0.143047 0)
(0.0521331 -0.148556 0)
(0.0484372 -0.153909 0)
(0.0442077 -0.159066 0)
(0.0394475 -0.163993 0)
(0.0341702 -0.168663 0)
(0.0283956 -0.173053 0)
(0.0221476 -0.177146 0)
(0.0154512 -0.180929 0)
(0.00833264 -0.184395 0)
(0.000817996 -0.187539 0)
(-0.00706714 -0.190359 0)
(-0.0152989 -0.192858 0)
(-0.0238552 -0.19504 0)
(-0.0327152 -0.196909 0)
(-0.0418586 -0.198472 0)
(-0.0512657 -0.199738 0)
(-0.0609171 -0.200715 0)
(-0.0707937 -0.201412 0)
(-0.0808762 -0.201841 0)
(-0.0911446 -0.202011 0)
(-0.101578 -0.201932 0)
(-0.112156 -0.201614 0)
(-0.122855 -0.201067 0)
(-0.133649 -0.200299 0)
(-0.144512 -0.199321 0)
(-0.155414 -0.198138 0)
(-0.166319 -0.196759 0)
(-0.17719 -0.19519 0)
(-0.187981 -0.193435 0)
(-0.198635 -0.191498 0)
(-0.20907 -0.189381 0)
(-0.219173 -0.187085 0)
(-0.228894 -0.184611 0)
(-0.238297 -0.181967 0)
(-0.247228 -0.17917 0)
(-0.253576 -0.176248 0)
(-0.253687 -0.17271 0)
(-0.246822 -0.168554 0)
(-0.236687 -0.164027 0)
(-0.225619 -0.159193 0)
(-0.213949 -0.154052 0)
(-0.201666 -0.148614 0)
(-0.188864 -0.142904 0)
(-0.175691 -0.136954 0)
(-0.162306 -0.130802 0)
(-0.148864 -0.124498 0)
(-0.13552 -0.118101 0)
(-0.122472 -0.111683 0)
(-0.110029 -0.105338 0)
(-0.0986088 -0.0991836 0)
(-0.0886741 -0.0933569 0)
(-0.0806561 -0.0879958 0)
(-0.0748554 -0.0832062 0)
(-0.0713342 -0.0790192 0)
(-0.0698727 -0.0753656 0)
(-0.0700404 -0.0720978 0)
(-0.071339 -0.0690462 0)
(-0.0733268 -0.066068 0)
(-0.0756738 -0.0630663 0)
(-0.0781604 -0.0599853 0)
(-0.0806526 -0.0567973 0)
(-0.083074 -0.0534916 0)
(-0.085382 -0.0500668 0)
(-0.087552 -0.0465261 0)
(-0.0895693 -0.0428756 0)
(-0.0914242 -0.0391222 0)
(-0.0931096 -0.035274 0)
(-0.0946202 -0.0313394 0)
(-0.0959514 -0.027327 0)
(-0.0970997 -0.0232461 0)
(-0.0980624 -0.0191059 0)
(-0.098836 -0.0149159 0)
(-0.0994146 -0.0106856 0)
(-0.0997925 -0.00642502 0)
(-0.0999871 -0.00214492 0)
(0.0999813 -0.00304989 0)
(0.0996991 -0.00911812 0)
(0.0991411 -0.0151373 0)
(0.0982907 -0.0210901 0)
(0.0971616 -0.0269599 0)
(0.0957669 -0.0327314 0)
(0.0941189 -0.0383904 0)
(0.0922332 -0.0439242 0)
(0.0901311 -0.049323 0)
(0.0878413 -0.0545802 0)
(0.0854013 -0.0596942 0)
(0.0828586 -0.0646697 0)
(0.0802709 -0.0695196 0)
(0.0777049 -0.0742664 0)
(0.0752305 -0.0789421 0)
(0.0729123 -0.0835871 0)
(0.0707972 -0.0882455 0)
(0.0689007 -0.0929586 0)
(0.0671971 -0.0977572 0)
(0.0656173 -0.102656 0)
(0.0640568 -0.107649 0)
(0.0623909 -0.112715 0)
(0.060494 -0.117818 0)
(0.0582547 -0.122916 0)
(0.0555859 -0.127962 0)
(0.0524277 -0.132913 0)
(0.0487455 -0.137728 0)
(0.0445259 -0.142372 0)
(0.0397706 -0.146814 0)
(0.0344923 -0.151028 0)
(0.0287102 -0.154994 0)
(0.0224473 -0.158698 0)
(0.0157282 -0.162126 0)
(0.00857825 -0.165272 0)
(0.00102322 -0.168131 0)
(-0.00691174 -0.170702 0)
(-0.0152031 -0.172986 0)
(-0.0238291 -0.174984 0)
(-0.032769 -0.176702 0)
(-0.0420024 -0.178145 0)
(-0.0515097 -0.179319 0)
(-0.0612711 -0.180233 0)
(-0.0712671 -0.180892 0)
(-0.0814777 -0.181307 0)
(-0.0918825 -0.181485 0)
(-0.10246 -0.181434 0)
(-0.113187 -0.181164 0)
(-0.12404 -0.180681 0)
(-0.134993 -0.179994 0)
(-0.146015 -0.17911 0)
(-0.157075 -0.178036 0)
(-0.168138 -0.176776 0)
(-0.179161 -0.175337 0)
(-0.190097 -0.173722 0)
(-0.200887 -0.171935 0)
(-0.211444 -0.169978 0)
(-0.221656 -0.167852 0)
(-0.231483 -0.165557 0)
(-0.241003 -0.163101 0)
(-0.249991 -0.160496 0)
(-0.255903 -0.157799 0)
(-0.255255 -0.154497 0)
(-0.247889 -0.150658 0)
(-0.2376 -0.146494 0)
(-0.226416 -0.142059 0)
(-0.214599 -0.13736 0)
(-0.202155 -0.132407 0)
(-0.189196 -0.127223 0)
(-0.175876 -0.121839 0)
(-0.162358 -0.116289 0)
(-0.1488 -0.11062 0)
(-0.135361 -0.104882 0)
(-0.12225 -0.0991422 0)
(-0.109791 -0.0934836 0)
(-0.0984089 -0.0880117 0)
(-0.0885646 -0.0828472 0)
(-0.080679 -0.0781099 0)
(-0.0750313 -0.0738881 0)
(-0.0716555 -0.0702011 0)
(-0.0703071 -0.0669797 0)
(-0.0705434 -0.0640894 0)
(-0.071868 -0.0613804 0)
(-0.0738489 -0.0587297 0)
(-0.0761674 -0.0560547 0)
(-0.078613 -0.0533082 0)
(-0.0810585 -0.0504672 0)
(-0.0834316 -0.0475228 0)
(-0.085692 -0.0444739 0)
(-0.0878164 -0.0413237 0)
(-0.089791 -0.0380772 0)
(-0.0916064 -0.0347405 0)
(-0.093256 -0.0313207 0)
(-0.0947344 -0.027825 0)
(-0.0960373 -0.024261 0)
(-0.0971613 -0.0206368 0)