/*--------------------------------*- C++ -*----------------------------------*\
  =========                 |
  \\      /  F ield         | OpenFOAM: The Open Source CFD Toolbox
   \\    /   O peration     | Website:  https://openfoam.org
    \\  /    A nd           | Version:  8
     \\/     M anipulation  |
\*---------------------------------------------------------------------------*/
FoamFile
{
    version     2.0;
    format      ascii;
    class       volScalarField;
    location    "660/fluid";
    object      CO2;
}
// * * * * * * * * * * * * * * * * * * * * * * * * * * * * * * * * * * * * * //

dimensions      [0 0 0 0 0 0 0];

internalField   nonuniform List<scalar> 
4000
(
4.71825e-07
2.06164e-06
4.73446e-06
9.2137e-06
1.66878e-05
2.90901e-05
4.95278e-05
8.29248e-05
0.00013695
0.000223308
0.000359413
0.000570401
0.000891184
0.00136797
0.00205833
0.00302869
0.00434863
0.00608226
0.00827877
0.010965
0.0141424
0.0177886
0.0218625
0.0263099
0.0310694
0.0360766
0.0412676
0.0465812
0.0519602
0.0573525
0.0627117
0.0679974
0.0731751
0.0782166
0.0830989
0.087804
0.0923181
0.0966312
0.100738
0.104634
0.108321
0.111799
0.115072
0.118145
0.121022
0.123711
0.126216
0.128543
0.130697
0.132682
0.134499
0.13615
0.137631
0.138935
0.140053
0.140965
0.141648
0.14206
0.14216
0.141881
0.141129
0.139774
0.137223
0.126669
0.115941
0.105218
0.0946393
0.0843148
0.0743315
0.0647604
0.0556616
0.047088
0.0390892
0.0317513
0.0250472
0.0190827
0.013922
0.00962847
0.00624874
0.00377712
0.00212284
0.00111499
0.000552501
0.000262557
0.000121222
5.47033e-05
2.42317e-05
1.05705e-05
4.55231e-06
1.93941e-06
8.18724e-07
3.42956e-07
1.42704e-07
5.9016e-08
2.42454e-08
9.86582e-09
3.93991e-09
1.50337e-09
5.01954e-10
8.79921e-11
4.72876e-07
2.06679e-06
4.74867e-06
9.2478e-06
1.67629e-05
2.92432e-05
4.98179e-05
8.34323e-05
0.000137763
0.000224472
0.000360818
0.000571563
0.000890927
0.00136407
0.00204701
0.00300442
0.0043043
0.00600997
0.00817111
0.0108164
0.0139502
0.0175534
0.021588
0.0260021
0.030736
0.035726
0.0409083
0.0462211
0.0516062
0.0570106
0.0623867
0.067693
0.072894
0.0779604
0.0828685
0.0875996
0.0921393
0.0964774
0.100607
0.104526
0.108234
0.111731
0.115021
0.118109
0.121
0.123701
0.126216
0.128552
0.130714
0.132705
0.134528
0.136182
0.137666
0.138973
0.140092
0.141005
0.141688
0.142098
0.142197
0.141917
0.141161
0.1398
0.136365
0.125738
0.114952
0.104184
0.0935683
0.0832142
0.0732085
0.063623
0.0545187
0.0459506
0.037971
0.030671
0.024027
0.0181513
0.0131099
0.0089646
0.00575132
0.00344301
0.00192458
0.00101121
0.000504143
0.000241636
0.00011269
5.13819e-05
2.29834e-05
1.01123e-05
4.38603e-06
1.87899e-06
7.96464e-07
3.34555e-07
1.39439e-07
5.77111e-08
2.3713e-08
9.64701e-09
3.85102e-09
1.46887e-09
4.90278e-10
8.59574e-11
4.74751e-07
2.07525e-06
4.76934e-06
9.29075e-06
1.68448e-05
2.93895e-05
5.0064e-05
8.3825e-05
0.000138348
0.000225264
0.000361738
0.000572314
0.000890744
0.00136128
0.00203888
0.00298691
0.00427202
0.00595648
0.00808956
0.0107005
0.0137952
0.0173567
0.0213496
0.0257246
0.030424
0.0353861
0.0405478
0.045848
0.0512283
0.0566353
0.0620206
0.0673418
0.0725625
0.0776523
0.0825865
0.0873455
0.0919141
0.0962814
0.10044
0.104387
0.108121
0.111643
0.114957
0.118066
0.120977
0.123695
0.126226
0.128575
0.130747
0.132748
0.134578
0.136238
0.137726
0.139036
0.140156
0.141069
0.141751
0.142157
0.14225
0.141961
0.14119
0.139808
0.134838
0.124161
0.113331
0.102526
0.091886
0.0815211
0.0715201
0.0619563
0.0528933
0.0443879
0.0364954
0.0292953
0.0227946
0.01709
0.0122422
0.0083022
0.00528769
0.00314958
0.00175721
0.000924427
0.00046261
0.000222725
0.000104393
4.78465e-05
2.15118e-05
9.51069e-06
4.14326e-06
1.78181e-06
7.57697e-07
3.19081e-07
1.3324e-07
5.52157e-08
2.27047e-08
9.23995e-09
3.68874e-09
1.40682e-09
4.69457e-10
8.22955e-11
4.75123e-07
2.07687e-06
4.77301e-06
9.29756e-06
1.68553e-05
2.9401e-05
5.00627e-05
8.37654e-05
0.000138121
0.000224636
0.00036026
0.00056919
0.000884693
0.00135044
0.00202057
0.00295755
0.00422723
0.00589143
0.0079995
0.0105814
0.0136441
0.0171724
0.0211324
0.0254764
0.0301482
0.035087
0.0402309
0.0455189
0.0508934
0.0563005
0.0616917
0.067024
0.0722604
0.0773698
0.0823266
0.0871106
0.0917057
0.0961002
0.100287
0.104261
0.108021
0.111568
0.114905
0.118038
0.120968
0.123704
0.12625
0.128613
0.130797
0.132807
0.134645
0.13631
0.137802
0.139112
0.140231
0.141141
0.141816
0.142213
0.142293
0.141985
0.141191
0.139776
0.132939
0.122243
0.111394
0.100576
0.089936
0.0795869
0.0696205
0.0601121
0.0511267
0.0427228
0.0349569
0.0278809
0.0215536
0.0160387
0.0113921
0.00765571
0.00483263
0.00285672
0.00158549
0.000832062
0.000416457
0.0002009
9.44425e-05
4.34376e-05
1.96034e-05
8.70049e-06
3.80482e-06
1.64226e-06
7.00731e-07
2.95995e-07
1.23931e-07
5.14744e-08
2.12059e-08
8.64287e-09
3.4543e-09
1.31844e-09
4.40137e-10
7.7172e-11
4.74175e-07
2.07264e-06
4.76293e-06
9.27671e-06
1.68142e-05
2.9321e-05
4.99078e-05
8.34681e-05
0.000137556
0.00022358
0.000358322
0.000565718
0.00087865
0.00134025
0.00200399
0.00293161
0.00418832
0.00583557
0.00792277
0.0104804
0.0135166
0.0170173
0.02095
0.0252683
0.0299172
0.0348369
0.039966
0.0452441
0.0506136
0.0560208
0.0614169
0.0667587
0.0720085
0.0771346
0.0821111
0.0869168
0.0915352
0.095954
0.100165
0.104164
0.107948
0.111518
0.114878
0.118029
0.120978
0.12373
0.126291
0.128666
0.13086
0.132878
0.134721
0.136389
0.137881
0.139189
0.140302
0.141203
0.141865
0.142244
0.142303
0.141968
0.141135
0.139677
0.130919
0.120244
0.109395
0.0985787
0.0879513
0.0776321
0.0677155
0.0582779
0.0493843
0.0410928
0.0334744
0.0265481
0.0203933
0.0150664
0.010616
0.00707426
0.00442986
0.00260143
0.00143755
0.000752977
0.000376932
0.000182105
8.57924e-05
3.95565e-05
1.78971e-05
7.96279e-06
3.49027e-06
1.50968e-06
6.45383e-07
2.7307e-07
1.14496e-07
4.76136e-08
1.96349e-08
8.00894e-09
3.20282e-09
1.22291e-09
4.08285e-10
7.15896e-11
4.72094e-07
2.06342e-06
4.74118e-06
9.23275e-06
1.67307e-05
2.91671e-05
4.9629e-05
8.29696e-05
0.000136676
0.000222047
0.000355696
0.000561313
0.000871431
0.00132875
0.00198621
0.00290506
0.00415011
0.00578268
0.00785236
0.0103902
0.0134051
0.0168841
0.0207955
0.0250942
0.0297258
0.0346311
0.0397494
0.0450206
0.0503873
0.0557957
0.061197
0.0665475
0.0718093
0.0769503
0.0819439
0.0867686
0.0914073
0.0958472
0.10008
0.104099
0.107905
0.111496
0.114873
0.118042
0.121007
0.123772
0.126345
0.12873
0.130932
0.132954
0.1348
0.136468
0.137956
0.139256
0.140358
0.141242
0.141883
0.142233
0.14226
0.141887
0.141014
0.139532
0.129238
0.118483
0.107573
0.0967226
0.0860905
0.0757948
0.0659274
0.0565624
0.0477622
0.0395822
0.0321002
0.0253174
0.0193323
0.0141874
0.00992029
0.00655641
0.00407247
0.00237476
0.00130536
0.000681471
0.0003406
0.000164557
7.75902e-05
3.58233e-05
1.62355e-05
7.23708e-06
3.1784e-06
1.37747e-06
5.89969e-07
2.50061e-07
1.05015e-07
4.3732e-08
1.80557e-08
7.37192e-09
2.95021e-09
1.12697e-09
3.76301e-10
6.5984e-11
4.69488e-07
2.05195e-06
4.71444e-06
9.1796e-06
1.66318e-05
2.89892e-05
4.93157e-05
8.24256e-05
0.000135744
0.000220471
0.000353074
0.000557025
0.000864569
0.00131803
0.00196995
0.00288115
0.00411619
0.00573629
0.00779128
0.0103127
0.0133103
0.0167718
0.0206665
0.02495
0.0295685
0.0344634
0.0395742
0.0448413
0.0502071
0.055618
0.061025
0.066384
0.0716571
0.0768114
0.0818203
0.0866617
0.0913181
0.0957763
0.100027
0.104066
0.107889
0.111496
0.114889
0.118072
0.12105
0.123827
0.126409
0.128801
0.131007
0.133032
0.134877
0.136541
0.138021
0.139308
0.140391
0.141249
0.141853
0.142154
0.142118
0.141661
0.140687
0.139102
0.128211
0.117119
0.106022
0.0950776
0.084413
0.0741285
0.0643054
0.0550112
0.0463043
0.0382388
0.0309057
0.0242675
0.0184184
0.0134179
0.00931151
0.00610617
0.00376433
0.00218086
0.00119294
0.000620818
0.000309764
0.000149612
7.05656e-05
3.26031e-05
1.47901e-05
6.60005e-06
2.90205e-06
1.25923e-06
5.3997e-07
2.29132e-07
9.63294e-08
4.01538e-08
1.65924e-08
6.77911e-09
2.71432e-09
1.03714e-09
3.46304e-10
6.07215e-11
4.66685e-07
2.03964e-06
4.68589e-06
9.12318e-06
1.65276e-05
2.88035e-05
4.89915e-05
8.18689e-05
0.000134801
0.0002189
0.000350496
0.000552876
0.000858035
0.001308
0.00195497
0.00285949
0.00408592
0.0056955
0.00773833
0.0102464
0.0132301
0.0166779
0.0205597
0.0248317
0.0294406
0.0343283
0.0394345
0.0446996
0.0500662
0.0554805
0.0608935
0.0662609
0.0715444
0.0767109
0.0817334
0.0865894
0.0912612
0.0957354
0.100002
0.104056
0.107893
0.111514
0.11492
0.118115
0.121103
0.123888
0.126477
0.128874
0.131084
0.133109
0.134951
0.136609
0.138078
0.139351
0.14041
0.141235
0.141789
0.142022
0.141883
0.141268
0.140042
0.138052
0.126958
0.115721
0.104534
0.0935461
0.0828761
0.0726172
0.0628451
0.0536232
0.0450058
0.0370431
0.0298079
0.0233002
0.017595
0.0127418
0.00878249
0.00571945
0.00350122
0.00201565
0.00109707
0.000568905
0.000283219
0.000136671
6.44453e-05
2.97809e-05
1.35166e-05
6.03605e-06
2.65633e-06
1.1537e-06
4.95205e-07
2.10342e-07
8.85134e-08
3.69278e-08
1.52709e-08
6.24303e-09
2.50076e-09
9.55739e-10
3.19107e-10
5.59484e-11
4.63931e-07
2.02757e-06
4.65797e-06
9.06826e-06
1.64267e-05
2.86248e-05
4.8682e-05
8.13419e-05
0.000133918
0.00021744
0.000348126
0.000549101
0.000852151
0.00129905
0.00194175
0.00284055
0.0040597
0.0056605
0.00769328
0.0101905
0.0131631
0.0166001
0.020472
0.0247354
0.0293376
0.0342205
0.0393241
0.0445888
0.0499574
0.0553759
0.060795
0.0661705
0.0714636
0.0766411
0.0816756
0.0865445
0.0912298
0.0957175
0.0999972
0.104063
0.107913
0.111545
0.114962
0.118166
0.121161
0.123953
0.126547
0.128947
0.131158
0.133182
0.135021
0.136674
0.138134
0.139394
0.140436
0.141238
0.141761
0.141957
0.141767
0.141087
0.139779
0.136863
0.12566
0.114355
0.103134
0.0921427
0.0814945
0.0712798
0.061572
0.0524321
0.0439129
0.0360602
0.02895
0.0225694
0.0169865
0.0122411
0.0083617
0.00539491
0.00327871
0.00187579
0.00101597
0.000525011
0.000260755
0.000125698
5.92424e-05
2.73741e-05
1.24265e-05
5.55146e-06
2.4444e-06
1.06234e-06
4.56312e-07
1.93964e-07
8.16797e-08
3.40998e-08
1.41099e-08
5.77117e-09
2.3125e-09
8.83904e-10
2.95093e-10
5.17298e-11
4.61353e-07
2.01628e-06
4.63192e-06
9.01714e-06
1.63332e-05
2.84596e-05
4.83972e-05
8.08594e-05
0.000133113
0.000216119
0.000345996
0.000545733
0.000846942
0.00129119
0.00193023
0.00282419
0.00403725
0.00563077
0.00765534
0.0101439
0.0131076
0.0165362
0.0204007
0.0246579
0.0292553
0.0341353
0.0392378
0.0445034
0.0498746
0.0552976
0.0607229
0.066106
0.0714079
0.0765954
0.0816406
0.0865207
0.0912172
0.0957156
0.100006
0.104083
0.107943
0.111584
0.115009
0.11822
0.121222
0.124018
0.126615
0.129017
0.131228
0.133251
0.135087
0.136734
0.138188
0.139439
0.14047
0.14126
0.141768
0.141951
0.141753
0.141075
0.139791
0.135578
0.124351
0.113034
0.101815
0.0908393
0.0802214
0.0700505
0.0603989
0.0513277
0.0428936
0.0351483
0.0280911
0.0217982
0.0163226
0.0117071
0.00798249
0.00511717
0.00308576
0.00175575
0.000946823
0.000487713
0.000241691
0.000116385
5.48219e-05
2.53258e-05
1.14971e-05
5.1374e-06
2.26293e-06
9.83938e-07
4.22869e-07
1.79854e-07
7.57831e-08
3.1656e-08
1.31053e-08
5.36243e-09
2.14927e-09
8.21585e-10
2.7426e-10
4.80666e-11
4.59025e-07
2.0061e-06
4.60844e-06
8.97116e-06
1.62492e-05
2.83119e-05
4.81434e-05
8.04311e-05
0.000132402
0.000214958
0.000344133
0.000542803
0.000842436
0.00128444
0.00192039
0.0028103
0.00401831
0.00560586
0.00762378
0.0101053
0.0130621
0.0164843
0.0203431
0.0245959
0.0291903
0.0340687
0.0391712
0.0444383
0.0498127
0.0552403
0.0606714
0.0660614
0.0713712
0.0765673
0.0816218
0.0865114
0.0912172
0.0957251
0.100025
0.10411
0.107978
0.111627
0.115058
0.118274
0.12128
0.12408
0.126679
0.129082
0.131292
0.133313
0.135146
0.136788
0.138236
0.139479
0.140502
0.141283
0.141781
0.141956
0.141752
0.141071
0.13979
0.134357
0.123134
0.111831
0.100636
0.0896941
0.0791217
0.0690054
0.0594152
0.0504096
0.0420371
0.0343288
0.0273486
0.021144
0.0157641
0.0112485
0.00762301
0.00487768
0.00292412
0.00165409
0.000888499
0.00045634
0.000225675
0.000108562
5.11059e-05
2.3602e-05
1.07137e-05
4.78785e-06
2.10946e-06
9.17521e-07
3.94488e-07
1.6786e-07
7.07628e-08
2.95726e-08
1.22478e-08
5.01326e-09
2.00976e-09
7.6834e-10
2.56465e-10
4.49442e-11
4.56976e-07
1.99714e-06
4.58781e-06
8.93083e-06
1.61757e-05
2.81829e-05
4.79223e-05
8.0059e-05
0.000131786
0.000213956
0.000342533
0.000540297
0.000838601
0.00127872
0.0019121
0.00279867
0.00400253
0.00558524
0.00759781
0.0100738
0.0130252
0.0164425
0.0202972
0.0245469
0.0291394
0.0340171
0.0391203
0.0443895
0.0497671
0.055199
0.0606356
0.066032
0.0713489
0.0765527
0.0816148
0.0865122
0.091226
0.0957417
0.100049
0.104141
0.108015
0.111669
0.115105
0.118326
0.121334
0.124136
0.126736
0.129138
0.131347
0.133366
0.135194
0.136832
0.138274
0.13951
0.140525
0.141296
0.141786
0.141953
0.141742
0.141056
0.139775
0.133291
0.122065
0.110772
0.0996025
0.0887013
0.0781746
0.0681016
0.0585539
0.0495894
0.0412571
0.0336169
0.0267101
0.0205853
0.0152895
0.0108606
0.00732119
0.00465602
0.00278873
0.00156911
0.00083938
0.000430035
0.000212277
0.000102023
4.80005e-05
2.21609e-05
1.00584e-05
4.49516e-06
1.98081e-06
8.61782e-07
3.70641e-07
1.57769e-07
6.65343e-08
2.78158e-08
1.15242e-08
4.71839e-09
1.89193e-09
7.23384e-10
2.41462e-10
4.23171e-11
4.55214e-07
1.98944e-06
4.57008e-06
8.89621e-06
1.61127e-05
2.80725e-05
4.77335e-05
7.97422e-05
0.000131263
0.000213108
0.000341183
0.000538191
0.00083539
0.00127395
0.00190522
0.00278905
0.00398956
0.00556837
0.00757669
0.0100483
0.0129956
0.0164091
0.0202609
0.0245085
0.0290999
0.0339776
0.0390819
0.0443532
0.049734
0.05517
0.0606114
0.0660133
0.0713363
0.0765465
0.0816151
0.0865192
0.0912396
0.0957616
0.100075
0.104173
0.108051
0.11171
0.115149
0.118372
0.121382
0.124185
0.126785
0.129186
0.131393
0.133408
0.135232
0.136864
0.1383
0.139528
0.140536
0.141299
0.14178
0.141938
0.14172
0.14103
0.139751
0.132376
0.121142
0.109857
0.0987086
0.0878243
0.0773131
0.0672698
0.0577629
0.0488499
0.0405819
0.0330064
0.026166
0.0201115
0.014889
0.0105352
0.00707021
0.0044743
0.00266564
0.00150043
0.000799535
0.00040827
0.000201176
9.66144e-05
4.54332e-05
2.09695e-05
9.51638e-06
4.25288e-06
1.87422e-06
8.15542e-07
3.50833e-07
1.49377e-07
6.30132e-08
2.63513e-08
1.09203e-08
4.47214e-09
1.79349e-09
6.85801e-10
2.28928e-10
4.01177e-11
4.53728e-07
1.98294e-06
4.55515e-06
8.86707e-06
1.60597e-05
2.79798e-05
4.75753e-05
7.94773e-05
0.000130827
0.000212403
0.000340062
0.000536449
0.000832743
0.00127003
0.00189958
0.00278121
0.00397903
0.00555474
0.00755971
0.0100279
0.012972
0.0163828
0.0202325
0.0244787
0.0290696
0.0339477
0.0390532
0.0443267
0.0497104
0.0551501
0.0605958
0.0660025
0.0713305
0.0765459
0.08162
0.0865295
0.0912551
0.0957821
0.1001
0.104202
0.108084
0.111745
0.115187
0.118411
0.121423
0.124225
0.126824
0.129223
0.131427
0.133439
0.135258
0.136885
0.138314
0.139535
0.140534
0.141289
0.141761
0.141912
0.141687
0.140993
0.139719
0.131605
0.120356
0.109073
0.097927
0.0870603
0.0765801
0.0665718
0.0571048
0.0482366
0.040018
0.0324952
0.0257106
0.0197153
0.0145548
0.0102647
0.00686285
0.00432557
0.00256644
0.00143853
0.000767352
0.000391099
0.000192227
9.22213e-05
4.33443e-05
1.9999e-05
9.07414e-06
4.05487e-06
1.78696e-06
7.77629e-07
3.34568e-07
1.42477e-07
6.01147e-08
2.51445e-08
1.04223e-08
4.26891e-09
1.71228e-09
6.54767e-10
2.18598e-10
3.83009e-11
4.52502e-07
1.97759e-06
4.54284e-06
8.84307e-06
1.60161e-05
2.79037e-05
4.74456e-05
7.92604e-05
0.000130471
0.000211828
0.000339151
0.000535035
0.0008306
0.00126687
0.00189505
0.00277493
0.00397062
0.0055439
0.00754627
0.0100119
0.0129536
0.0163624
0.0202105
0.0244559
0.0290466
0.0339253
0.0390321
0.0443075
0.0496938
0.0551366
0.0605859
0.0659966
0.0713287
0.0765483
0.0816268
0.0865405
0.0912702
0.095801
0.100122
0.104227
0.108112
0.111775
0.115218
0.118443
0.121454
0.124256
0.126853
0.12925
0.131451
0.133458
0.135273
0.136894
0.138316
0.139531
0.140523
0.141269
0.141733
0.141877
0.141646
0.14095
0.139682
0.130958
0.119693
0.108408
0.0972741
0.0864268
0.0759721
0.065994
0.056561
0.0477305
0.0395526
0.0320734
0.0253349
0.0193887
0.0142797
0.0100426
0.00669329
0.00420468
0.00248654
0.00138942
0.00073886
0.000376981
0.000185265
8.87701e-05
4.16783e-05
1.9219e-05
8.71785e-06
3.895e-06
1.71637e-06
7.46916e-07
3.21376e-07
1.36875e-07
5.77597e-08
2.41632e-08
1.00176e-08
4.10348e-09
1.6467e-09
6.29609e-10
2.10286e-10
3.68385e-11
4.51517e-07
1.97329e-06
4.53296e-06
8.82382e-06
1.59812e-05
2.78427e-05
4.73418e-05
7.90872e-05
0.000130187
0.00021137
0.000338427
0.000533914
0.000828905
0.00126437
0.00189149
0.00277
0.00396404
0.00553545
0.00753584
0.00999951
0.0129394
0.0163467
0.0201939
0.0244387
0.0290295
0.0339087
0.0390168
0.0442939
0.0496823
0.0551277
0.0605798
0.0659935
0.071329
0.076552
0.0816337
0.0865506
0.0912833
0.0958168
0.10014
0.104247
0.108134
0.111798
0.115241
0.118467
0.121477
0.124278
0.126873
0.129267
0.131464
0.133467
0.135277
0.136893
0.138309
0.139517
0.140502
0.141242
0.141699
0.141839
0.141605
0.140909
0.139646
0.130435
0.119157
0.107868
0.0967425
0.0859108
0.0754772
0.0655243
0.0561197
0.0473202
0.0391757
0.0317321
0.0250311
0.0191249
0.0140578
0.00986387
0.00655716
0.00410798
0.00242295
0.00135065
0.00071667
0.000364821
0.000179387
8.60245e-05
4.03739e-05
1.86049e-05
8.43419e-06
3.76738e-06
1.65997e-06
7.22377e-07
3.10838e-07
1.324e-07
5.58799e-08
2.33792e-08
9.69746e-09
3.9726e-09
1.59553e-09
6.09856e-10
2.038e-10
3.56981e-11
4.50755e-07
1.96996e-06
4.52531e-06
8.80893e-06
1.59542e-05
2.77956e-05
4.72617e-05
7.89536e-05
0.000129968
0.000211018
0.000337871
0.000533054
0.000827608
0.00126247
0.00188877
0.00276625
0.00395906
0.00552907
0.00752798
0.00999021
0.0129288
0.0163351
0.0201815
0.0244261
0.029017
0.0338968
0.0390058
0.0442843
0.0496745
0.0551218
0.0605762
0.0659922
0.07133
0.0765554
0.0816395
0.0865585
0.0912932
0.0958285
0.100154
0.104262
0.108149
0.111814
0.115257
0.118482
0.121491
0.12429
0.126882
0.129274
0.131468
0.133467
0.135272
0.136882
0.138292
0.139494
0.140473
0.141209
0.141664
0.141805
0.141579
0.140902
0.139683
0.130024
0.118729
0.107439
0.09632
0.0855016
0.0750856
0.0651535
0.0557721
0.0469977
0.0388801
0.0314648
0.0247936
0.0189189
0.0138848
0.00972476
0.00645148
0.00403309
0.00237383
0.00132078
0.000699667
0.000355594
0.000174504
8.3629e-05
3.92906e-05
1.81193e-05
8.21457e-06
3.66852e-06
1.61617e-06
7.0329e-07
3.02654e-07
1.28928e-07
5.44319e-08
2.27778e-08
9.45389e-09
3.87324e-09
1.55663e-09
5.94924e-10
1.98909e-10
3.4838e-11
4.50199e-07
1.96753e-06
4.51974e-06
8.79806e-06
1.59345e-05
2.77613e-05
4.72034e-05
7.88564e-05
0.000129809
0.000210762
0.000337468
0.000532432
0.00082667
0.00126109
0.00188681
0.00276355
0.00395547
0.00552449
0.00752236
0.00998358
0.0129213
0.0163269
0.0201729
0.0244172
0.0290083
0.0338886
0.0389984
0.0442778
0.0496692
0.055118
0.0605738
0.0659915
0.071331
0.0765579
0.0816433
0.0865637
0.0912995
0.0958358
0.100162
0.10427
0.108158
0.111822
0.115265
0.118489
0.121497
0.124294
0.126884
0.129272
0.131463
0.133458
0.135258
0.136863
0.138268
0.139464
0.140437
0.141168
0.141619
0.141758
0.141533
0.140862
0.139654
0.129727
0.118411
0.107116
0.0960013
0.085193
0.0747908
0.0648752
0.055512
0.0467572
0.0386602
0.0312665
0.0246177
0.0187667
0.0137573
0.00962253
0.00637406
0.00397842
0.00233806
0.00129907
0.000687336
0.000348971
0.000171099
8.19444e-05
3.84649e-05
1.77351e-05
8.04608e-06
3.59563e-06
1.58473e-06
6.89708e-07
2.96866e-07
1.26478e-07
5.34211e-08
2.23566e-08
9.28325e-09
3.80343e-09
1.52924e-09
5.84414e-10
1.95459e-10
3.42312e-11
4.49837e-07
1.96595e-06
4.5161e-06
8.79099e-06
1.59217e-05
2.7739e-05
4.71655e-05
7.87933e-05
0.000129706
0.000210596
0.000337206
0.000532028
0.000826063
0.0012602
0.00188554
0.00276181
0.00395317
0.00552155
0.00751876
0.00997934
0.0129165
0.0163216
0.0201673
0.0244116
0.0290028
0.0338834
0.0389937
0.0442738
0.049666
0.0551156
0.0605725
0.0659911
0.0713315
0.0765592
0.0816454
0.0865662
0.0913025
0.0958391
0.100165
0.104274
0.108161
0.111825
0.115267
0.11849
0.121497
0.124292
0.12688
0.129266
0.131453
0.133444
0.13524
0.13684
0.13824
0.139431
0.140399
0.141124
0.141572
0.141709
0.141486
0.140822
0.139633
0.129531
0.118196
0.106895
0.0957822
0.0849811
0.0745894
0.064686
0.0553362
0.0465954
0.0385129
0.0311343
0.024501
0.018666
0.0136734
0.00955546
0.00632352
0.00394291
0.00231493
0.00128505
0.000679368
0.000344693
0.000168907
8.09155e-05
3.79673e-05
1.75103e-05
7.93931e-06
3.54863e-06
1.56382e-06
6.80816e-07
2.93158e-07
1.24905e-07
5.27797e-08
2.20883e-08
9.17523e-09
3.75907e-09
1.51191e-09
5.77745e-10
1.93279e-10
3.38471e-11
4.49661e-07
1.96518e-06
4.51434e-06
8.78757e-06
1.59155e-05
2.77283e-05
4.71473e-05
7.87631e-05
0.000129656
0.000210517
0.000337082
0.000531837
0.000825775
0.00125978
0.00188495
0.00276099
0.00395208
0.00552017
0.00751706
0.00997733
0.0129142
0.0163192
0.0201647
0.024409
0.0290002
0.033881
0.0389915
0.0442719
0.0496645
0.0551145
0.0605718
0.0659908
0.0713317
0.0765598
0.0816462
0.0865671
0.0913033
0.0958398
0.100166
0.104274
0.108161
0.111825
0.115267
0.118488
0.121494
0.124288
0.126874
0.129258
0.131443
0.133432
0.135225
0.136822
0.138218
0.139405
0.140369
0.14109
0.141535
0.141671
0.141449
0.140793
0.139621
0.129434
0.118083
0.106777
0.0956653
0.0848691
0.074484
0.0645881
0.0552462
0.0465134
0.0384391
0.0310686
0.0244436
0.018617
0.0136328
0.0095233
0.00629948
0.00392617
0.00230413
0.00127855
0.000675681
0.000342711
0.000167899
8.04637e-05
3.77465e-05
1.74124e-05
7.89289e-06
3.52832e-06
1.55451e-06
6.76689e-07
2.91395e-07
1.24144e-07
5.24692e-08
2.19579e-08
9.1228e-09
3.73752e-09
1.50348e-09
5.74502e-10
1.92213e-10
3.36595e-11
4.49663e-07
1.96519e-06
4.51436e-06
8.78761e-06
1.59156e-05
2.77284e-05
4.71475e-05
7.87634e-05
0.000129657
0.000210518
0.000337083
0.000531839
0.000825778
0.00125978
0.00188495
0.002761
0.00395209
0.00552018
0.00751708
0.00997736
0.0129142
0.0163192
0.0201648
0.024409
0.0290003
0.033881
0.0389915
0.044272
0.0496645
0.0551146
0.0605718
0.0659909
0.0713317
0.0765598
0.0816462
0.0865672
0.0913033
0.0958398
0.100166
0.104274
0.108161
0.111825
0.115267
0.118488
0.121494
0.124288
0.126874
0.129258
0.131443
0.133432
0.135225
0.136822
0.138218
0.139405
0.140369
0.14109
0.141535
0.141671
0.141449
0.140793
0.139621
0.129434
0.118083
0.106776
0.0956652
0.084869
0.074484
0.0645881
0.0552462
0.0465134
0.0384391
0.0310686
0.0244436
0.018617
0.0136328
0.00952331
0.00629948
0.00392617
0.00230413
0.00127855
0.000675683
0.000342713
0.0001679
8.04618e-05
3.77458e-05
1.74115e-05
7.89261e-06
3.52807e-06
1.55443e-06
6.76611e-07
2.91383e-07
1.2414e-07
5.24671e-08
2.1957e-08
9.12222e-09
3.73729e-09
1.50335e-09
5.74453e-10
1.92186e-10
3.36547e-11
4.49842e-07
1.96597e-06
4.51616e-06
8.7911e-06
1.59219e-05
2.77393e-05
4.7166e-05
7.87942e-05
0.000129707
0.000210598
0.00033721
0.000532034
0.000826072
0.00126021
0.00188556
0.00276184
0.0039532
0.0055216
0.00751881
0.00997941
0.0129166
0.0163217
0.0201674
0.0244118
0.0290029
0.0338835
0.0389938
0.0442739
0.0496661
0.0551158
0.0605726
0.0659912
0.0713316
0.0765593
0.0816455
0.0865663
0.0913026
0.0958392
0.100165
0.104274
0.108161
0.111825
0.115268
0.11849
0.121497
0.124292
0.12688
0.129266
0.131453
0.133444
0.13524
0.13684
0.13824
0.139431
0.140399
0.141124
0.141572
0.141709
0.141486
0.140822
0.139633
0.129531
0.118196
0.106895
0.0957821
0.084981
0.0745893
0.0646859
0.0553361
0.0465953
0.0385129
0.0311342
0.024501
0.018666
0.0136734
0.00955547
0.00632353
0.00394292
0.00231494
0.00128506
0.000679374
0.000344697
0.00016891
8.09133e-05
3.79667e-05
1.75086e-05
7.93877e-06
3.54816e-06
1.56366e-06
6.80693e-07
2.93129e-07
1.24895e-07
5.27731e-08
2.20858e-08
9.17367e-09
3.75848e-09
1.51156e-09
5.77621e-10
1.93206e-10
3.38344e-11
4.50208e-07
1.96757e-06
4.51983e-06
8.79825e-06
1.59349e-05
2.77619e-05
4.72044e-05
7.8858e-05
0.000129812
0.000210766
0.000337474
0.000532442
0.000826685
0.00126111
0.00188684
0.0027636
0.00395553
0.00552457
0.00752246
0.0099837
0.0129214
0.016327
0.020173
0.0244174
0.0290085
0.0338888
0.0389986
0.044278
0.0496694
0.0551182
0.0605741
0.0659917
0.0713312
0.0765581
0.0816435
0.0865639
0.0912997
0.095836
0.100162
0.10427
0.108158
0.111822
0.115265
0.118489
0.121497
0.124294
0.126884
0.129272
0.131463
0.133458
0.135258
0.136863
0.138268
0.139464
0.140437
0.141168
0.141619
0.141758
0.141533
0.140862
0.139654
0.129727
0.118411
0.107116
0.0960011
0.0851927
0.0747906
0.064875
0.0555119
0.0467571
0.0386601
0.0312664
0.0246177
0.0187667
0.0137574
0.00962255
0.00637409
0.00397844
0.00233807
0.00129908
0.000687343
0.000348975
0.000171101
8.1945e-05
3.84649e-05
1.77348e-05
8.04588e-06
3.59547e-06
1.58464e-06
6.89656e-07
2.9685e-07
1.26469e-07
5.34144e-08
2.23534e-08
9.28132e-09
3.80264e-09
1.52878e-09
5.84249e-10
1.95365e-10
3.42149e-11
4.50768e-07
1.97002e-06
4.52544e-06
8.80918e-06
1.59547e-05
2.77964e-05
4.7263e-05
7.89558e-05
0.000129972
0.000211023
0.00033788
0.000533068
0.000827629
0.0012625
0.00188881
0.00276631
0.00395914
0.00552918
0.00752812
0.00999038
0.012929
0.0163353
0.0201818
0.0244263
0.0290173
0.0338971
0.0390061
0.0442846
0.0496748
0.0551221
0.0605765
0.0659925
0.0713303
0.0765557
0.0816397
0.0865588
0.0912935
0.0958287
0.100154
0.104262
0.108149
0.111814
0.115257
0.118482
0.121491
0.12429
0.126882
0.129274
0.131468
0.133467
0.135272
0.136882
0.138292
0.139494
0.140473
0.141209
0.141664
0.141805
0.141579
0.140902
0.139683
0.130024
0.118728
0.107438
0.0963196
0.0855013
0.0750853
0.0651532
0.0557719
0.0469976
0.03888
0.0314647
0.0247935
0.0189188
0.0138848
0.00972477
0.0064515
0.00403312
0.00237385
0.0013208
0.000699677
0.000355599
0.000174506
8.36302e-05
3.9291e-05
1.81194e-05
8.21441e-06
3.66847e-06
1.61611e-06
7.03272e-07
3.02644e-07
1.28922e-07
5.44283e-08
2.27758e-08
9.4527e-09
3.87274e-09
1.55632e-09
5.94817e-10
1.98833e-10
3.48253e-11
4.51534e-07
1.97336e-06
4.53313e-06
8.82414e-06
1.59818e-05
2.78437e-05
4.73435e-05
7.909e-05
0.000130191
0.000211377
0.000338438
0.000533931
0.000828931
0.00126441
0.00189154
0.00277007
0.00396415
0.00553559
0.00753601
0.00999972
0.0129396
0.016347
0.0201942
0.024439
0.0290298
0.0339091
0.0390172
0.0442943
0.0496827
0.0551281
0.0605802
0.0659939
0.0713294
0.0765523
0.0816341
0.0865509
0.0912836
0.0958171
0.100141
0.104248
0.108134
0.111798
0.115242
0.118467
0.121477
0.124278
0.126873
0.129267
0.131464
0.133467
0.135277
0.136893
0.138309
0.139517
0.140502
0.141242
0.141699
0.141839
0.141605
0.140908
0.139646
0.130434
0.119156
0.107868
0.0967418
0.0859102
0.0754766
0.0655238
0.0561193
0.0473199
0.0391755
0.031732
0.025031
0.0191248
0.0140578
0.00986389
0.00655718
0.00410801
0.00242298
0.00135067
0.000716681
0.000364827
0.000179391
8.6026e-05
4.03747e-05
1.8605e-05
8.43445e-06
3.76742e-06
1.66001e-06
7.2238e-07
3.10838e-07
1.32399e-07
5.58793e-08
2.33787e-08
9.69747e-09
3.9726e-09
1.59554e-09
6.09879e-10
2.03778e-10
3.56944e-11
4.52522e-07
1.97767e-06
4.54304e-06
8.84346e-06
1.60168e-05
2.79049e-05
4.74476e-05
7.92638e-05
0.000130476
0.000211836
0.000339165
0.000535056
0.000830632
0.00126691
0.00189512
0.00277502
0.00397074
0.00554406
0.00754648
0.0100122
0.0129539
0.0163627
0.0202109
0.0244563
0.029047
0.0339257
0.0390326
0.044308
0.0496943
0.0551371
0.0605864
0.065997
0.0713292
0.0765488
0.0816272
0.0865409
0.0912706
0.0958014
0.100123
0.104227
0.108112
0.111775
0.115218
0.118443
0.121455
0.124256
0.126853
0.12925
0.131451
0.133458
0.135273
0.136894
0.138316
0.139531
0.140523
0.141269
0.141733
0.141877
0.141646
0.14095
0.139682
0.130957
0.119692
0.108407
0.0972728
0.0864256
0.0759709
0.065993
0.0565602
0.0477299
0.0395521
0.0320731
0.0253347
0.0193886
0.0142797
0.0100426
0.00669331
0.00420471
0.00248656
0.00138944
0.000738872
0.000376988
0.000185268
8.87725e-05
4.16787e-05
1.92196e-05
8.71808e-06
3.89511e-06
1.71642e-06
7.46937e-07
3.21384e-07
1.36878e-07
5.77609e-08
2.41633e-08
1.00182e-08
4.10352e-09
1.64709e-09
6.29714e-10
2.10311e-10
3.68447e-11
4.53751e-07
1.98304e-06
4.55538e-06
8.86751e-06
1.60605e-05
2.79812e-05
4.75777e-05
7.94812e-05
0.000130834
0.000212413
0.000340078
0.000536473
0.00083278
0.00127008
0.00189966
0.00278132
0.00397917
0.00555493
0.00755995
0.0100282
0.0129724
0.0163832
0.0202329
0.0244792
0.0290701
0.0339482
0.0390538
0.0443273
0.049711
0.0551507
0.0605963
0.066003
0.0713311
0.0765464
0.0816205
0.0865299
0.0912555
0.0957825
0.1001
0.104202
0.108084
0.111746
0.115187
0.118412
0.121423
0.124225
0.126824
0.129223
0.131427
0.133439
0.135259
0.136885
0.138314
0.139535
0.140534
0.141289
0.141761
0.141912
0.141687
0.140993
0.139719
0.131603
0.120354
0.109071
0.0979244
0.0870575
0.0765776
0.0665698
0.0571033
0.0482356
0.0400173
0.0324948
0.0257104
0.0197152
0.0145548
0.0102647
0.00686288
0.0043256
0.00256647
0.00143855
0.000767365
0.000391107
0.000192232
9.22234e-05
4.33459e-05
1.99997e-05
9.07447e-06
4.05502e-06
1.78703e-06
7.77659e-07
3.34581e-07
1.42482e-07
6.01169e-08
2.51453e-08
1.04228e-08
4.26905e-09
1.71243e-09
6.54814e-10
2.18613e-10
3.83092e-11
4.5524e-07
1.98955e-06
4.57034e-06
8.89671e-06
1.61136e-05
2.8074e-05
4.77361e-05
7.97466e-05
0.000131271
0.00021312
0.000341201
0.000538219
0.000835432
0.00127401
0.00190531
0.00278917
0.00398972
0.00556859
0.00757696
0.0100486
0.0129959
0.0164096
0.0202614
0.024509
0.0291004
0.0339782
0.0390825
0.0443539
0.0497347
0.0551707
0.0606121
0.066014
0.071337
0.0765471
0.0816157
0.0865198
0.0912401
0.0957621
0.100075
0.104173
0.108052
0.11171
0.115149
0.118372
0.121383
0.124185
0.126785
0.129186
0.131393
0.133408
0.135232
0.136865
0.1383
0.139528
0.140536
0.141299
0.141779
0.141938
0.14172
0.14103
0.13975
0.132375
0.12114
0.109853
0.098703
0.087815
0.0773074
0.067266
0.0577605
0.048849
0.0405822
0.0330068
0.0261664
0.0201118
0.0148892
0.0105354
0.0070703
0.00447435
0.00266568
0.00150045
0.000799549
0.000408279
0.000201181
9.66171e-05
4.54347e-05
2.09703e-05
9.51673e-06
4.25304e-06
1.87429e-06
8.15575e-07
3.50847e-07
1.49383e-07
6.30157e-08
2.63523e-08
1.09207e-08
4.4723e-09
1.79356e-09
6.85836e-10
2.28929e-10
4.01257e-11
4.57006e-07
1.99727e-06
4.5881e-06
8.9314e-06
1.61767e-05
2.81846e-05
4.79252e-05
8.0064e-05
0.000131794
0.000213969
0.000342553
0.000540328
0.000838648
0.00127879
0.0019122
0.00279881
0.00400272
0.00558549
0.00759812