/*--------------------------------*- C++ -*----------------------------------*\
  =========                 |
  \\      /  F ield         | OpenFOAM: The Open Source CFD Toolbox
   \\    /   O peration     | Website:  https://openfoam.org
    \\  /    A nd           | Version:  8
     \\/     M anipulation  |
\*---------------------------------------------------------------------------*/
FoamFile
{
    version     2.0;
    format      ascii;
    class       volScalarField;
    location    "660/fluid";
    object      H2O;
}
// * * * * * * * * * * * * * * * * * * * * * * * * * * * * * * * * * * * * * //

dimensions      [0 0 0 0 0 0 0];

internalField   nonuniform List<scalar> 
4000
(
3.86279e-07
1.68785e-06
3.87606e-06
7.54317e-06
1.36622e-05
2.38158e-05
4.0548e-05
6.78898e-05
0.00011212
0.00018282
0.000294249
0.000466983
0.000729604
0.00111995
0.00168514
0.00247956
0.00356018
0.00497949
0.00677775
0.00897694
0.0115782
0.0145634
0.0178987
0.0215397
0.0254362
0.0295356
0.0337854
0.0381356
0.0425393
0.046954
0.0513415
0.0556688
0.0599078
0.0640352
0.0680323
0.0718844
0.07558
0.0791112
0.082473
0.0856631
0.0886813
0.0915288
0.0942085
0.0967241
0.09908
0.101281
0.103332
0.105237
0.107
0.108625
0.110113
0.111465
0.112677
0.113745
0.11466
0.115407
0.115966
0.116303
0.116385
0.116157
0.115541
0.114431
0.112343
0.103703
0.0949197
0.0861409
0.0774804
0.0690278
0.0608545
0.0530188
0.0455697
0.0385505
0.032002
0.0259945
0.0205059
0.0156229
0.0113978
0.00788274
0.00511579
0.00309229
0.00173795
0.000912836
0.000452327
0.000214953
9.92436e-05
4.47851e-05
1.98383e-05
8.65396e-06
3.72693e-06
1.58778e-06
6.70282e-07
2.80775e-07
1.1683e-07
4.83159e-08
1.98495e-08
8.07706e-09
3.22557e-09
1.2308e-09
4.10945e-10
7.20383e-11
3.8714e-07
1.69206e-06
3.8877e-06
7.57109e-06
1.37236e-05
2.39412e-05
4.07855e-05
6.83053e-05
0.000112786
0.000183774
0.000295398
0.000467933
0.000729394
0.00111675
0.00167587
0.00245969
0.00352389
0.00492031
0.00668961
0.00885529
0.0114209
0.0143708
0.0176739
0.0212877
0.0251633
0.0292486
0.0334913
0.0378408
0.0422495
0.0466741
0.0510754
0.0554196
0.0596777
0.0638255
0.0678437
0.0717171
0.0754337
0.0789852
0.0823664
0.0855748
0.0886098
0.0914729
0.0941666
0.0966948
0.0990619
0.101273
0.103332
0.105245
0.107014
0.108644
0.110137
0.111491
0.112706
0.113776
0.114692
0.11544
0.115999
0.116335
0.116416
0.116186
0.115567
0.114453
0.111641
0.10294
0.0941105
0.0852944
0.0766036
0.0681268
0.0599352
0.0520876
0.044634
0.0376193
0.0310866
0.0251101
0.0196707
0.0148603
0.010733
0.00733924
0.00470856
0.00281876
0.00157563
0.000827866
0.000412737
0.000197825
9.22586e-05
4.20659e-05
1.88163e-05
8.27883e-06
3.5908e-06
1.53831e-06
6.52058e-07
2.73897e-07
1.14157e-07
4.72475e-08
1.94136e-08
7.89792e-09
3.1528e-09
1.20255e-09
4.01387e-10
7.03726e-11
3.88675e-07
1.69899e-06
3.90461e-06
7.60625e-06
1.37907e-05
2.40609e-05
4.09869e-05
6.86268e-05
0.000113264
0.000184422
0.000296152
0.000468548
0.000729244
0.00111447
0.00166921
0.00244535
0.00349746
0.00487652
0.00662285
0.00876041
0.011294
0.0142098
0.0174787
0.0210605
0.0249079
0.0289703
0.0331962
0.0375353
0.0419402
0.0463668
0.0507757
0.0551322
0.0594063
0.0635732
0.0676128
0.071509
0.0752493
0.0788247
0.0822295
0.0854608
0.0885176
0.0914012
0.094114
0.0966597
0.099043
0.101268
0.10334
0.105263
0.107042
0.108679
0.110178
0.111537
0.112755
0.113828
0.114745
0.115492
0.11605
0.116383
0.116459
0.116222
0.115591
0.11446
0.110391
0.10165
0.092783
0.0839371
0.0752263
0.0667406
0.0585528
0.0507231
0.0433032
0.03634
0.0298785
0.0239838
0.0186618
0.0139914
0.0100225
0.00679694
0.00432899
0.00257853
0.00143862
0.00075682
0.000378735
0.000182343
8.5466e-05
3.91715e-05
1.76115e-05
7.78632e-06
3.39205e-06
1.45875e-06
6.2032e-07
2.61229e-07
1.09082e-07
4.52046e-08
1.85882e-08
7.56467e-09
3.01994e-09
1.15175e-09
3.84341e-10
6.73746e-11
3.88979e-07
1.70031e-06
3.90762e-06
7.61183e-06
1.37993e-05
2.40703e-05
4.09859e-05
6.8578e-05
0.000113078
0.000183908
0.000294942
0.00046599
0.00072429
0.0011056
0.00165422
0.00242132
0.00346079
0.00482326
0.00654912
0.00866287
0.0111703
0.0140589
0.0173009
0.0208573
0.0246821
0.0287254
0.0329367
0.037266
0.0416659
0.0460927
0.0505064
0.054872
0.059159
0.0633419
0.0674001
0.0713167
0.0750786
0.0786764
0.0821038
0.0853572
0.0884356
0.0913398
0.0940721
0.0966363
0.0990357
0.101275
0.10336
0.105294
0.107083
0.108728
0.110232
0.111596
0.112817
0.11389
0.114806
0.115551
0.116104
0.116428
0.116494
0.116242
0.115592
0.114433
0.108836
0.100079
0.0911969
0.0823408
0.0736298
0.0651571
0.0569977
0.0492132
0.0418569
0.0349768
0.0286189
0.0228259
0.0176457
0.0131308
0.00932658
0.00626766
0.00395643
0.00233877
0.00129803
0.000681202
0.00034095
0.000164475
7.73192e-05
3.5562e-05
1.60491e-05
7.12302e-06
3.11498e-06
1.34451e-06
5.73682e-07
2.42328e-07
1.01461e-07
4.21417e-08
1.73611e-08
7.07584e-09
2.828e-09
1.0794e-09
3.60336e-10
6.31801e-11
3.88203e-07
1.69685e-06
3.89936e-06
7.59476e-06
1.37656e-05
2.40048e-05
4.08591e-05
6.83346e-05
0.000112616
0.000183043
0.000293355
0.000463149
0.000719343
0.00109725
0.00164065
0.00240008
0.00342894
0.00477753
0.0064863
0.00858023
0.0110659
0.0139319
0.0171515
0.020687
0.024493
0.0285207
0.0327198
0.0370409
0.0414369
0.0458637
0.0502815
0.0546548
0.0589527
0.0631494
0.0672236
0.071158
0.0749391
0.0785567
0.0820042
0.0852778
0.0883758
0.0912991
0.0940496
0.0966297
0.0990439
0.101297
0.103393
0.105338
0.107134
0.108786
0.110295
0.111661
0.112882
0.113953
0.114864
0.115602
0.116144
0.116454
0.116502
0.116228
0.115546
0.114352
0.107182
0.0984423
0.0895605
0.0807055
0.0720049
0.0635567
0.0554381
0.0477116
0.0404305
0.0336423
0.0274052
0.0217347
0.0166958
0.0123347
0.0086912
0.00579164
0.00362669
0.00212977
0.00117691
0.000616456
0.000308591
0.000149088
7.02375e-05
3.23845e-05
1.46522e-05
6.51907e-06
2.85746e-06
1.23597e-06
5.28369e-07
2.2356e-07
9.37371e-08
3.89808e-08
1.60749e-08
6.55685e-09
2.62212e-09
1.00119e-09
3.34259e-10
5.86098e-11
3.865e-07
1.68931e-06
3.88156e-06
7.55877e-06
1.36973e-05
2.38788e-05
4.06308e-05
6.79265e-05
0.000111895
0.000181788
0.000291206
0.000459542
0.000713433
0.00108783
0.00162609
0.00237834
0.00339766
0.00473423
0.00642866
0.00850638
0.0109746
0.0138228
0.0170251
0.0205444
0.0243362
0.0283522
0.0325425
0.036858
0.0412516
0.0456794
0.0501014
0.0544818
0.0587897
0.0629985
0.0670867
0.0710367
0.0748344
0.0784692
0.0819343
0.0852253
0.0883409
0.0912806
0.0940458
0.09664
0.099067
0.101331
0.103438
0.10539
0.107193
0.108849
0.110359
0.111725
0.112943
0.114008
0.11491
0.115634
0.116158
0.116445
0.116467
0.116161
0.115447
0.114234
0.105806
0.0970008
0.0880687
0.0791859
0.0704815
0.0620525
0.0539742
0.0463071
0.0391025
0.0324056
0.0262801
0.0207271
0.0158272
0.0116151
0.00812166
0.00536767
0.00333409
0.00194419
0.00106869
0.000557914
0.000278846
0.000134722
6.35224e-05
2.93283e-05
1.32918e-05
5.92494e-06
2.60213e-06
1.12772e-06
4.83002e-07
2.04722e-07
8.59751e-08
3.5803e-08
1.47821e-08
6.03533e-09
2.41531e-09
9.22639e-10
3.08074e-10
5.40205e-11
3.84366e-07
1.67991e-06
3.85967e-06
7.51525e-06
1.36163e-05
2.37332e-05
4.03743e-05
6.74811e-05
0.000111132
0.000180498
0.000289058
0.000456032
0.000707815
0.00107906
0.00161278
0.00235878
0.00336989
0.00469625
0.00637866
0.00844296
0.010897
0.0137309
0.0169195
0.0204263
0.0242074
0.0282149
0.0323991
0.0367112
0.0411041
0.045534
0.0499606
0.054348
0.058665
0.0628849
0.0669855
0.0709492
0.0747613
0.0784112
0.0818915
0.0851979
0.0883276
0.0912805
0.0940586
0.0966646
0.0991022
0.101376
0.10349
0.105448
0.107255
0.108912
0.110423
0.111785
0.112996
0.114051
0.114937
0.115639
0.116133
0.11638
0.116351
0.115977
0.11518
0.113881
0.104965
0.0958843
0.086799
0.0778392
0.0691082
0.0606883
0.0526462
0.0450372
0.0379089
0.0313057
0.0253022
0.0198676
0.015079
0.0109851
0.00762325
0.00499907
0.00308182
0.00178545
0.000976648
0.000508258
0.000253601
0.000122486
5.77715e-05
2.66919e-05
1.21085e-05
5.4034e-06
2.37588e-06
1.03092e-06
4.42068e-07
1.87588e-07
7.8864e-08
3.28736e-08
1.3584e-08
5.54999e-09
2.22219e-09
8.49096e-10
2.83516e-10
4.97121e-11
3.82071e-07
1.66984e-06
3.83629e-06
7.46907e-06
1.3531e-05
2.35811e-05
4.01089e-05
6.70253e-05
0.000110361
0.000179211
0.000286948
0.000452635
0.000702466
0.00107084
0.00160052
0.00234104
0.00334511
0.00466286
0.0063353
0.00838867
0.0108314
0.013654
0.0168321
0.0203295
0.0241028
0.0281043
0.0322847
0.0365951
0.0409887
0.0454214
0.049853
0.0542472
0.0585727
0.0628026
0.0669144
0.07089
0.0747148
0.0783777
0.0818711
0.0851896
0.0883311
0.0912955
0.0940841
0.0966996
0.0991456
0.101426
0.103546
0.105508
0.107317
0.108975
0.110483
0.111841
0.113044
0.114085
0.114953
0.115628
0.116082
0.116273
0.116158
0.115655
0.114651
0.113022
0.10394
0.0947397
0.0855807
0.0765854
0.06785
0.0594511
0.0514508
0.0439008
0.0368459
0.0303268
0.0244034
0.0190757
0.0144049
0.0104316
0.00719015
0.00468246
0.00286642
0.00165019
0.000898158
0.000465758
0.000231869
0.000111891
5.27608e-05
2.43814e-05
1.10659e-05
4.94166e-06
2.17472e-06
9.44522e-07
4.0542e-07
1.72205e-07
7.24651e-08
3.02325e-08
1.25021e-08
5.11111e-09
2.04735e-09
7.82455e-10
2.6125e-10
4.58045e-11
3.79816e-07
1.65995e-06
3.81344e-06
7.4241e-06
1.34484e-05
2.34349e-05
3.98555e-05
6.65939e-05
0.000109637
0.000178016
0.000285008
0.000449544
0.000697649
0.00106352
0.00158969
0.00232553
0.00332364
0.0046342
0.00629842
0.0083429
0.0107765
0.0135903
0.0167603
0.0202507
0.0240184
0.028016
0.0321943
0.0365045
0.0408997
0.0453357
0.0497723
0.0541732
0.0585066
0.0627454
0.0668671
0.0708532
0.0746891
0.0783631
0.0818668
0.0851957
0.0883472
0.0913209
0.0941181
0.0967412
0.0991937
0.10148
0.103603
0.105568
0.107378
0.109035
0.110541
0.111893
0.113089
0.11412
0.114974
0.115631
0.116059
0.116219
0.116064
0.115507
0.114436
0.112049
0.102877
0.0936215
0.084435
0.0754365
0.0667188
0.0583562
0.0504084
0.0429257
0.0359511
0.0295222
0.0237011
0.0184774
0.0139067
0.0100217
0.00684565
0.00441676
0.00268425
0.0015357
0.000831768
0.000429822
0.000213478
0.000102908
4.85013e-05
2.24109e-05
1.01735e-05
4.54493e-06
2.00121e-06
8.69726e-07
3.73579e-07
1.58796e-07
6.68704e-08
2.79172e-08
1.15516e-08
4.72481e-09
1.89322e-09
7.23644e-10
2.4159e-10
4.23507e-11
3.77706e-07
1.65071e-06
3.79211e-06
7.38225e-06
1.33718e-05
2.32997e-05
3.96224e-05
6.61989e-05
0.000108978
0.000176935
0.000283264
0.000446787
0.000693384
0.00105709
0.00158026
0.00231214
0.00330526
0.00460986
0.00626736
0.00830468
0.0107311
0.013538
0.0167018
0.0201872
0.0239511
0.0279463
0.0321236
0.0364345
0.0408319
0.0452717
0.0497133
0.0541204
0.058461
0.062708
0.0668384
0.0708338
0.0746787
0.0783615
0.0818743
0.0852119
0.0883716
0.0913528
0.0941567
0.0967856
0.099243
0.101533
0.103659
0.105625
0.107436
0.109092
0.110595
0.111943
0.113133
0.114157
0.115002
0.115648
0.116064
0.116214
0.116052
0.115497
0.114446
0.110996
0.101805
0.0925398
0.0833547
0.0743693
0.0656766
0.0573498
0.049448
0.0420215
0.0351166
0.0287756
0.022998
0.017846
0.0133632
0.00958449
0.00653519
0.00418938
0.00252628
0.00143742
0.000775155
0.000399286
0.00019787
9.52837e-05
4.48822e-05
2.0734e-05
9.41255e-06
4.20594e-06
1.85264e-06
8.05542e-07
3.46199e-07
1.47245e-07
6.2043e-08
2.59165e-08
1.07292e-08
4.39017e-09
1.75959e-09
6.72624e-10
2.24534e-10
3.93517e-11
3.758e-07
1.64238e-06
3.77289e-06
7.34461e-06
1.33031e-05
2.31787e-05
3.94146e-05
6.58482e-05
0.000108396
0.000175984
0.000281739
0.000444388
0.000689695
0.00105156
0.00157221
0.00230077
0.00328976
0.00458947
0.00624153
0.00827312
0.0106938
0.0134955
0.0166547
0.0201365
0.0238978
0.0278917
0.0320691
0.0363813
0.0407812
0.0452247
0.0496711
0.0540839
0.058431
0.062685
0.0668231
0.0708261
0.0746787
0.0783693
0.0818896
0.0852343
0.0884005
0.0913877
0.0941967
0.0968301
0.099291
0.101583
0.103711
0.105678
0.107488
0.109142
0.110643
0.111987
0.113172
0.11419
0.115028
0.115667
0.116075
0.116218
0.116051
0.115493
0.114445
0.109997
0.100809
0.0915551
0.0823898
0.0734318
0.0647763
0.0564941
0.0486427
0.0412699
0.0344154
0.0281047
0.0223901
0.0173104
0.012906
0.00920909
0.00624089
0.00399331
0.00239396
0.00135419
0.000727407
0.000373602
0.000184758
8.88789e-05
4.184e-05
1.93227e-05
8.77123e-06
3.91977e-06
1.72699e-06
7.51166e-07
3.22964e-07
1.37425e-07
5.79329e-08
2.42108e-08
1.00272e-08
4.10431e-09
1.64538e-09
6.29033e-10
2.09966e-10
3.67954e-11
3.74123e-07
1.63504e-06
3.756e-06
7.31159e-06
1.32429e-05
2.30731e-05
3.92335e-05
6.55436e-05
0.000107892
0.000175164
0.000280429
0.000442337
0.000686556
0.00104688
0.00156542
0.00229124
0.00327684
0.00457259
0.00622026
0.00824732
0.0106636
0.0134613
0.0166171
0.0200963
0.0238561
0.0278495
0.0320274
0.0363413
0.0407439
0.045191
0.0496418
0.0540598
0.0584128
0.062673
0.0668173
0.0708267
0.0746859
0.0783828
0.0819092
0.0852596
0.088431
0.0914227
0.0942356
0.0968721
0.0993354
0.101629
0.103758
0.105724
0.107533
0.109185
0.110683
0.112023
0.113203
0.114215
0.115046
0.115678
0.116079
0.116216
0.116043
0.115481
0.114433
0.109124
0.0999332
0.0906882
0.0815437
0.072619
0.0640009
0.0557542
0.0479375
0.0405984
0.0337768
0.0275219
0.0218673
0.016853
0.0125174
0.00889151
0.00599379
0.00381184
0.00228311
0.00128462
0.000687193
0.000352066
0.000173789
8.35256e-05
3.92976e-05
1.81429e-05
8.23472e-06
3.68015e-06
1.62167e-06
7.05534e-07
3.0344e-07
1.29164e-07
5.4471e-08
2.27726e-08
9.43474e-09
3.8629e-09
1.54891e-09
5.92228e-10
1.97683e-10
3.46447e-11
3.72679e-07
1.62873e-06
3.74149e-06
7.28325e-06
1.31913e-05
2.29827e-05
3.9079e-05
6.52842e-05
0.000107464
0.00017447
0.000279323
0.000440612
0.000683926
0.00104297
0.00155978
0.00228337
0.00326622
0.00455877
0.00620297
0.00822646
0.0106393
0.013434
0.0165874
0.0200649
0.0238238
0.0278171
0.031996
0.0363116
0.0407168
0.0451672
0.049622
0.0540445
0.0584024
0.0626679
0.0668176
0.0708325
0.074697
0.0783992
0.0819304
0.0852852
0.0884605
0.0914556
0.0942714
0.09691
0.0993747
0.101669
0.103797
0.105763
0.10757
0.10922
0.110713
0.11205
0.113225
0.114231
0.115055
0.11568
0.116074
0.116204
0.116025
0.11546
0.114413
0.108375
0.099178
0.0899392
0.0808118
0.071901
0.0632956
0.0550732
0.04729
0.039993
0.0332241
0.027022
0.0214219
0.0164651
0.0121895
0.00862509
0.00578832
0.00366307
0.00218234
0.00122839
0.000654572
0.000334247
0.000164701
7.90973e-05
3.71958e-05
1.71676e-05
7.79098e-06
3.48179e-06
1.5344e-06
6.67677e-07
2.87224e-07
1.22294e-07
5.15883e-08
2.15736e-08
8.94037e-09
3.6613e-09
1.46832e-09
5.61459e-10
1.87421e-10
3.2844e-11
3.71463e-07
1.62342e-06
3.72926e-06
7.25939e-06
1.3148e-05
2.29068e-05
3.89495e-05
6.50674e-05
0.000107107
0.000173892
0.000278406
0.000439186
0.000681759
0.00103976
0.00155517
0.00227695
0.00325759
0.00454762
0.00618907
0.00820979
0.0106201
0.0134125
0.0165641
0.0200405
0.023799
0.0277927
0.0319725
0.0362899
0.0406975
0.0451509
0.0496092
0.0540356
0.0583977
0.0626674
0.0668216
0.0708409
0.0747097
0.078416
0.0819509
0.0853091
0.0884874
0.0914849
0.0943025
0.0969424
0.0994076
0.101702
0.10383
0.105794
0.107598
0.109245
0.110735
0.112067
0.113236
0.114236
0.115054
0.115672
0.116059
0.116182
0.115998
0.11543
0.114387
0.107743
0.0985341
0.0892973
0.080172
0.0712755
0.0626954
0.0545018
0.0467512
0.0394909
0.0327624
0.0266035
0.021049
0.0161407
0.0119159
0.00840364
0.00561856
0.00354131
0.00210112
0.00117771
0.000628224
0.00032019
0.000157375
7.55007e-05
3.54856e-05
1.6373e-05
7.42892e-06
3.31969e-06
1.46296e-06
6.36638e-07
2.73908e-07
1.16645e-07
4.92154e-08
2.05856e-08
8.53268e-09
3.49492e-09
1.40183e-09
5.36052e-10
1.78965e-10
3.13566e-11
3.70459e-07
1.61903e-06
3.71918e-06
7.23975e-06
1.31123e-05
2.28445e-05
3.88433e-05
6.48898e-05
0.000106815
0.000173421
0.00027766
0.000438028
0.000680005
0.00103717
0.00155146
0.00227181
0.00325071
0.00453874
0.00617807
0.00819666
0.010605
0.0133957
0.0165462
0.0200218
0.0237802
0.0277743
0.0319553
0.0362742
0.0406839
0.0451399
0.0496011
0.0540308
0.0583962
0.0626695
0.0668271
0.07085
0.0747221
0.0784314
0.0819692
0.0853298
0.0885102
0.0915093
0.0943279
0.0969683
0.0994336
0.101727
0.103854
0.105816
0.107618
0.109261
0.110747
0.112074
0.113238
0.114233
0.115045
0.115656
0.116036
0.116154
0.115965
0.115394
0.114356
0.107214
0.0979918
0.0887527
0.0796375
0.0707569
0.0621977
0.0540287
0.046306
0.0390765
0.0323813
0.0262582
0.0207414
0.0158733
0.0116907
0.00822182
0.00547974
0.00344234
0.00203571
0.00113751
0.000604898
0.000308631
0.000151675
7.26753e-05
3.41217e-05
1.57344e-05
7.13723e-06
3.1888e-06
1.40518e-06
6.11493e-07
2.63107e-07
1.12058e-07
4.72873e-08
1.97822e-08
8.20135e-09
3.35948e-09
1.34814e-09
5.15455e-10
1.72159e-10
3.01593e-11
3.69653e-07
1.61551e-06
3.71109e-06
7.22398e-06
1.30837e-05
2.27946e-05
3.87583e-05
6.4748e-05
0.000106583
0.000173046
0.000277067
0.00043711
0.000678617
0.00103513
0.00154854
0.00226777
0.00324533
0.00453183
0.00616952
0.00818651
0.0105934
0.0133829
0.0165325
0.0200077
0.0237662
0.0277608
0.0319427
0.036263
0.0406745
0.0451326
0.0495962
0.0540283
0.0583964
0.0626724
0.0668328
0.0708582
0.0747328
0.0784444
0.0819841
0.0853464
0.088528
0.091528
0.0943471
0.0969875
0.0994522
0.101745
0.103869
0.10583
0.107629
0.109269
0.11075
0.112073
0.113232
0.114221
0.115027
0.115633
0.116008
0.116122
0.115931
0.115361
0.114327
0.106786
0.0975525
0.0883108
0.0792022
0.0703344
0.0617925
0.0536441
0.0459447
0.0387406
0.0320728
0.0259788
0.0204928
0.0156574
0.011509
0.00807547
0.00536829
0.00336317
0.00198365
0.00110576
0.000586731
0.000298676
0.000146863
7.04275e-05
3.30538e-05
1.52317e-05
6.905e-06
3.08432e-06
1.359e-06
5.91403e-07
2.5448e-07
1.08394e-07
4.57484e-08
1.91404e-08
7.93923e-09
3.25233e-09
1.30624e-09
4.99284e-10
1.66849e-10
2.92257e-11
3.69029e-07
1.61279e-06
3.70483e-06
7.21179e-06
1.30616e-05
2.2756e-05
3.86927e-05
6.46386e-05
0.000106404
0.000172758
0.000276612
0.000436407
0.000677556
0.00103357
0.00154632
0.00226471
0.00324124
0.0045266
0.00616309
0.0081789
0.0105847
0.0133734
0.0165224
0.0199974
0.023756
0.027751
0.0319337
0.0362552
0.0406681
0.0451277
0.0495932
0.0540272
0.0583973
0.0626752
0.0668375
0.0708647
0.074741
0.078454
0.081995
0.0853582
0.0885405
0.0915408
0.0943599
0.0969998
0.0994635
0.101755
0.103877
0.105835
0.107631
0.109268
0.110746
0.112064
0.113219
0.114203
0.115004
0.115606
0.115979
0.116094
0.115909
0.115355
0.114357
0.10645
0.0972022
0.0879592
0.0788563
0.0699994
0.0614719
0.0533406
0.0456601
0.0384766
0.0318308
0.02576
0.0202983
0.0154887
0.0113674
0.00796157
0.00528177
0.00330186
0.00194343
0.00108131
0.000572811
0.000291122
0.000142865
6.84663e-05
3.21668e-05
1.48341e-05
6.7252e-06
3.00338e-06
1.32314e-06
5.75778e-07
2.4778e-07
1.05552e-07
4.45629e-08
1.8648e-08
7.73982e-09
3.17099e-09
1.2744e-09
4.87059e-10
1.62845e-10
2.85216e-11
3.68574e-07
1.6108e-06
3.70027e-06
7.2029e-06
1.30455e-05
2.27279e-05
3.8645e-05
6.45591e-05
0.000106273
0.000172549
0.000276282
0.000435897
0.000676787
0.00103244
0.00154471
0.0022625
0.00323831
0.00452286
0.00615849
0.00817347
0.0105785
0.0133667
0.0165153
0.0199902
0.0237488
0.0277443
0.0319276
0.0362499
0.0406638
0.0451246
0.0495913
0.0540267
0.058398
0.0626773
0.0668407
0.0708689
0.0747461
0.0784599
0.0820016
0.0853652
0.0885477
0.0915479
0.0943666
0.0970057
0.0994683
0.101758
0.103879
0.105834
0.107627
0.109261
0.110735
0.112049
0.113199
0.114178
0.114975
0.115573
0.115942
0.116056
0.115872
0.115322
0.114334
0.106206
0.0969424
0.087695
0.0785955
0.0697467
0.0612306
0.0531127
0.0454472
0.0382797
0.0316507
0.0255976
0.0201543
0.0153641
0.011263
0.00787788
0.00521839
0.0032571
0.00191415
0.00106354
0.000562716
0.000285699
0.000140077
6.70872e-05
3.14909e-05
1.45196e-05
6.58726e-06
2.94371e-06
1.2974e-06
5.64658e-07
2.43042e-07
1.03547e-07
4.37354e-08
1.83032e-08
7.60012e-09
3.11384e-09
1.25198e-09
4.78454e-10
1.60021e-10
2.80247e-11
3.68277e-07
1.6095e-06
3.69729e-06
7.19711e-06
1.3035e-05
2.27097e-05
3.86139e-05
6.45074e-05
0.000106189
0.000172413
0.000276068
0.000435567
0.00067629
0.00103172
0.00154368
0.00226107
0.00323642
0.00452045
0.00615554
0.00816999
0.0105746
0.0133624
0.0165108
0.0199856
0.0237443
0.0277401
0.0319238
0.0362466
0.0406611
0.0451227
0.0495901
0.0540263
0.0583984
0.0626783
0.0668424
0.070871
0.0747486
0.0784626
0.0820044
0.0853681
0.0885505
0.0915504
0.0943685
0.0970068
0.0994683
0.101757
0.103875
0.105829
0.107619
0.109249
0.11072
0.11203
0.113176
0.114151
0.114943
0.115537
0.115903
0.116016
0.115833
0.11529
0.114316
0.106046
0.0967662
0.0875138
0.078416
0.0695733
0.0610657
0.0529579
0.0453032
0.0381472
0.0315302
0.0254893
0.0200587
0.0152817
0.0111943
0.00782297
0.00517701
0.00322802
0.00189521
0.00105206
0.000556193
0.000282197
0.000138282
6.62448e-05
3.10835e-05
1.43355e-05
6.49984e-06
2.90523e-06
1.28029e-06
5.57378e-07
2.40006e-07
1.02259e-07
4.32103e-08
1.80835e-08
7.51168e-09
3.07752e-09
1.23779e-09
4.72995e-10
1.58236e-10
2.77103e-11
3.68133e-07
1.60888e-06
3.69585e-06
7.19431e-06
1.30299e-05
2.27009e-05
3.85991e-05
6.44826e-05
0.000106148
0.000172348
0.000275966
0.00043541
0.000676055
0.00103137
0.00154319
0.0022604
0.00323553
0.00451931
0.00615415
0.00816836
0.0105727
0.0133604
0.0165087
0.0199834
0.0237422
0.0277381
0.031922
0.036245
0.0406599
0.0451218
0.0495896
0.0540261
0.0583986
0.0626788
0.066843
0.0708718
0.0747492
0.0784632
0.0820049
0.0853685
0.0885506
0.0915501
0.0943678
0.0970054
0.0994661
0.101753
0.103871
0.105822
0.107611
0.109239
0.110707
0.112015
0.113158
0.114129
0.114919
0.11551
0.115873
0.115984
0.115803
0.115266
0.114307
0.105967
0.0966735
0.087417
0.0783203
0.0694816
0.0609794
0.0528777
0.0452296
0.0380802
0.0314698
0.0254356
0.0200117
0.0152416
0.011161
0.00779665
0.00515733
0.00321432
0.00188637
0.00104674
0.000553174
0.000280574
0.000137457
6.58749e-05
3.09027e-05
1.42554e-05
6.46184e-06
2.8886e-06
1.27266e-06
5.53999e-07
2.38562e-07
1.01636e-07
4.29561e-08
1.79767e-08
7.46875e-09
3.05988e-09
1.23089e-09
4.7034e-10
1.57363e-10
2.75567e-11
3.68135e-07
1.60888e-06
3.69587e-06
7.19434e-06
1.303e-05
2.2701e-05
3.85992e-05
6.44829e-05
0.000106149
0.000172349
0.000275967
0.000435412
0.000676057
0.00103137
0.0015432
0.00226041
0.00323554
0.00451932
0.00615416
0.00816838
0.0105728
0.0133604
0.0165087
0.0199835
0.0237423
0.0277381
0.031922
0.0362451
0.0406599
0.0451218
0.0495896
0.0540262
0.0583986
0.0626788
0.066843
0.0708718
0.0747492
0.0784632
0.0820049
0.0853685
0.0885506
0.0915502
0.0943678
0.0970054
0.0994661
0.101753
0.103871
0.105822
0.107611
0.109239
0.110707
0.112015
0.113158
0.114129
0.114919
0.115509
0.115873
0.115984
0.115803
0.115266
0.114307
0.105967
0.0966735
0.087417
0.0783203
0.0694815
0.0609794
0.0528777
0.0452295
0.0380801
0.0314697
0.0254356
0.0200117
0.0152416
0.011161
0.00779665
0.00515733
0.00321432
0.00188637
0.00104674
0.000553176
0.000280576
0.000137458
6.58734e-05
3.09022e-05
1.42546e-05
6.46161e-06
2.8884e-06
1.2726e-06
5.53935e-07
2.38553e-07
1.01633e-07
4.29544e-08
1.7976e-08
7.46828e-09
3.05968e-09
1.23078e-09
4.703e-10
1.57341e-10
2.75528e-11
3.68282e-07
1.60952e-06
3.69734e-06
7.1972e-06
1.30351e-05
2.27099e-05
3.86144e-05
6.45081e-05
0.00010619
0.000172415
0.000276071
0.000435572
0.000676298
0.00103173
0.00154369
0.00226109
0.00323645
0.00452048
0.00615559
0.00817005
0.0105747
0.0133625
0.0165109
0.0199857
0.0237444
0.0277402
0.0319239
0.0362467
0.0406612
0.0451228
0.0495902
0.0540264
0.0583985
0.0626784
0.0668424
0.0708711
0.0747486
0.0784627
0.0820045
0.0853682
0.0885506
0.0915504
0.0943685
0.0970068
0.0994683
0.101757
0.103875
0.105829
0.107619
0.109249
0.11072
0.11203
0.113176
0.114151
0.114943
0.115537
0.115903
0.116016
0.115833
0.11529
0.114316
0.106046
0.0967661
0.0875137
0.0784159
0.0695732
0.0610656
0.0529578
0.0453032
0.0381472
0.0315302
0.0254893
0.0200587
0.0152817
0.0111943
0.00782298
0.00517702
0.00322803
0.00189522
0.00105207
0.000556197
0.000282201
0.000138285
6.6243e-05
3.1083e-05
1.43341e-05
6.4994e-06
2.90484e-06
1.28016e-06
5.57278e-07
2.39982e-07
1.0225e-07
4.32049e-08
1.80814e-08
7.5104e-09
3.07703e-09
1.2375e-09
4.72893e-10
1.58176e-10
2.77e-11
3.68582e-07
1.61083e-06
3.70035e-06
7.20305e-06
1.30457e-05
2.27284e-05
3.86458e-05
6.45604e-05
0.000106276
0.000172552
0.000276287
0.000435906
0.0006768
0.00103246
0.00154474
0.00226253
0.00323836
0.00452292
0.00615857
0.00817357
0.0105787
0.0133668
0.0165155
0.0199903
0.023749
0.0277445
0.0319278
0.03625
0.0406639
0.0451248
0.0495914
0.0540268
0.0583982
0.0626774
0.0668408
0.0708691
0.0747463
0.0784601
0.0820017
0.0853653
0.0885478
0.091548
0.0943666
0.0970058
0.0994684
0.101758
0.103879
0.105834
0.107627
0.109261
0.110735
0.112049
0.113199
0.114178
0.114975
0.115573
0.115942
0.116056
0.115872
0.115322
0.114334
0.106206
0.0969422
0.0876948
0.0785953
0.0697465
0.0612304
0.0531126
0.0454471
0.0382796
0.0316507
0.0255975
0.0201543
0.0153641
0.011263
0.0078779
0.00521841
0.00325711
0.00191416
0.00106354
0.000562722
0.000285703
0.000140079
6.70876e-05
3.14909e-05
1.45194e-05
6.58709e-06
2.94358e-06
1.29733e-06
5.64615e-07
2.43029e-07
1.03539e-07
4.37299e-08
1.83005e-08
7.59854e-09
3.11319e-09
1.2516e-09
4.7832e-10
1.59944e-10
2.80115e-11
3.6904e-07
1.61283e-06
3.70494e-06
7.212e-06
1.30619e-05
2.27567e-05
3.86938e-05
6.46404e-05
0.000106407
0.000172763
0.000276619
0.000436418
0.000677573
0.0010336
0.00154636
0.00226476
0.00324131
0.00452669
0.0061632
0.00817903
0.0105849
0.0133736
0.0165226
0.0199976
0.0237562
0.0277513
0.031934
0.0362554
0.0406683
0.045128
0.0495934
0.0540275
0.0583975
0.0626755
0.0668377
0.0708649
0.0747411
0.0784541
0.0819951
0.0853584
0.0885406
0.0915409
0.09436
0.0969999
0.0994636
0.101755
0.103878
0.105835
0.107631
0.109268
0.110746
0.112064
0.113219
0.114203
0.115004
0.115606
0.115979
0.116094
0.115909
0.115355
0.114357
0.10645
0.0972018
0.0879588
0.078856
0.0699991
0.0614716
0.0533404
0.0456599
0.0384765
0.0318307
0.0257599
0.0202982
0.0154887
0.0113674
0.00796159
0.00528179
0.00330188
0.00194345
0.00108133
0.000572819
0.000291126
0.000142867
6.84673e-05
3.21672e-05
1.48342e-05
6.72506e-06
3.00334e-06
1.3231e-06
5.75763e-07
2.47772e-07
1.05548e-07
4.456e-08
1.86464e-08
7.73884e-09
3.17058e-09
1.27414e-09
4.86972e-10
1.62783e-10
2.85111e-11
3.69667e-07
1.61557e-06
3.71123e-06
7.22424e-06
1.30842e-05
2.27954e-05
3.87597e-05
6.47502e-05
0.000106586
0.000173052
0.000277076
0.000437125
0.000678639
0.00103516
0.00154859
0.00226784
0.00324541
0.00453194
0.00616966
0.00818668
0.0105936
0.0133832
0.0165328
0.020008
0.0237665
0.0277611
0.031943
0.0362633
0.0406748
0.0451329
0.0495965
0.0540286
0.0583967
0.0626727
0.0668331
0.0708585
0.0747331
0.0784446
0.0819843
0.0853466
0.0885282
0.0915282
0.0943473
0.0969876
0.0994523
0.101745
0.10387
0.10583
0.107629
0.109269
0.11075
0.112073
0.113232
0.114221
0.115027
0.115633
0.116008
0.116122
0.115931
0.115361
0.114327
0.106785
0.0975519
0.0883103
0.0792016
0.0703339
0.061792
0.0536437
0.0459444
0.0387404
0.0320726
0.0259787
0.0204927
0.0156573
0.011509
0.00807548
0.00536831
0.00336319
0.00198367
0.00110578
0.00058674
0.000298681
0.000146866
7.04287e-05
3.30544e-05
1.52317e-05
6.90521e-06
3.08435e-06
1.35903e-06
5.91406e-07
2.54481e-07
1.08394e-07
4.57479e-08
1.91399e-08
7.93923e-09
3.25233e-09
1.30625e-09
4.99302e-10
1.66831e-10
2.92227e-11
3.70476e-07
1.6191e-06
3.71935e-06
7.24006e-06
1.31128e-05
2.28455e-05
3.88449e-05
6.48925e-05
0.00010682
0.000173429
0.000277671
0.000438045
0.000680031
0.00103721
0.00155152
0.00227189
0.00325081
0.00453888
0.00617823
0.00819686
0.0106052
0.013396
0.0165465
0.0200221
0.0237806
0.0277747
0.0319556
0.0362746
0.0406843
0.0451403
0.0496015
0.0540312
0.0583966
0.0626698
0.0668275
0.0708503
0.0747224
0.0784317
0.0819695
0.0853301
0.0885104
0.0915095
0.0943281
0.0969685
0.0994337
0.101727
0.103854
0.105816
0.107618
0.109261
0.110747
0.112074
0.113238
0.114233
0.115045
0.115656
0.116036
0.116154
0.115964
0.115394
0.114356
0.107213
0.0979909
0.0887517
0.0796364
0.0707558
0.0621967
0.0540279
0.0463054
0.039076
0.032381
0.026258
0.0207413
0.0158733
0.0116906
0.00822182
0.00547975
0.00344236
0.00203573
0.00113752
0.000604908
0.000308637
0.000151677
7.26772e-05
3.4122e-05
1.57349e-05
7.13741e-06
3.18889e-06
1.40522e-06
6.11511e-07
2.63114e-07
1.12061e-07
4.72884e-08
1.97823e-08
8.20178e-09
3.35952e-09
1.34846e-09
5.15542e-10
1.7218e-10
3.01644e-11
3.71482e-07
1.6235e-06
3.72945e-06
7.25976e-06
1.31486e-05
2.2908e-05
3.89514e-05
6.50706e-05
0.000107112
0.000173901
0.000278419
0.000439206
0.000681789
0.00103981
0.00155524
0.00227704
0.00325771
0.00454777
0.00618927
0.00821003
0.0106204
0.0134128
0.0165645
0.0200409
0.0237994
0.0277931
0.031973
0.0362903
0.0406979
0.0451514
0.0496097
0.0540361
0.0583981
0.0626678
0.066822
0.0708413
0.0747101
0.0784163
0.0819513
0.0853094
0.0884877
0.0914851
0.0943027
0.0969426
0.0994078
0.101702
0.10383
0.105794
0.107598
0.109245
0.110735
0.112067
0.113236
0.114236
0.115054
0.115672
0.116059
0.116182
0.115998
0.11543
0.114386
0.107742
0.0985326
0.0892954
0.0801698
0.0712732
0.0626934
0.0545001
0.0467499
0.03949
0.0327618
0.0266032
0.0210489
0.0161407
0.0119159
0.00840365
0.00561858
0.00354133
0.00210115
0.00117773
0.000628235
0.000320196
0.000157379
7.55025e-05
3.54869e-05
1.63736e-05
7.42919e-06
3.31981e-06
1.46302e-06
6.36663e-07
2.73918e-07
1.16649e-07
4.92172e-08
2.05863e-08
8.53306e-09
3.49503e-09
1.40195e-09
5.3609e-10
1.78976e-10
3.13634e-11
3.72701e-07
1.62883e-06
3.7417e-06
7.28366e-06
1.31921e-05
2.2984e-05
3.90811e-05
6.52878e-05
0.00010747
0.000174479
0.000279338
0.000440635
0.000683961
0.00104302
0.00155986
0.00228347
0.00326635
0.00455895
0.00620319
0.00822673
0.0106397
0.0134344
0.0165878
0.0200653
0.0238243
0.0278177
0.0319965
0.0363121
0.0407173
0.0451678
0.0496226
0.0540451
0.058403
0.0626684
0.0668181
0.070833
0.0746975
0.0783996
0.0819308
0.0852855
0.0884609
0.0914559
0.0942716
0.0969102
0.0993749
0.101669
0.103798
0.105763
0.10757
0.10922
0.110714
0.11205
0.113225
0.114231
0.115055
0.11568
0.116074
0.116204
0.116025
0.11546
0.114412
0.108374
0.0991759
0.089936
0.0808073
0.0718934
0.0632909
0.0550701
0.047288
0.0399922
0.0332242
0.0270224
0.0214222
0.0164654
0.0121897
0.0086252
0.00578839
0.00366311
0.00218237
0.00122841
0.000654583
0.000334254
0.000164705
7.90996e-05
3.7197e-05
1.71682e-05
7.79127e-06
3.48193e-06
1.53447e-06
6.67704e-07
2.87235e-07
1.22299e-07
5.15904e-08
2.15744e-08
8.94072e-09