/*--------------------------------*- C++ -*----------------------------------*\
  =========                 |
  \\      /  F ield         | OpenFOAM: The Open Source CFD Toolbox
   \\    /   O peration     | Website:  https://openfoam.org
    \\  /    A nd           | Version:  8
     \\/     M anipulation  |
\*---------------------------------------------------------------------------*/
FoamFile
{
    version     2.0;
    format      ascii;
    class       volScalarField;
    location    "660/fluid";
    object      N2;
}
// * * * * * * * * * * * * * * * * * * * * * * * * * * * * * * * * * * * * * //

dimensions      [0 0 0 0 0 0 0];

internalField   nonuniform List<scalar> 
4000
(
2.2999e-06
1.00494e-05
2.30778e-05
4.4911e-05
8.13416e-05
0.000141792
0.000241407
0.000404182
0.000667495
0.00108838
0.0017517
0.00277994
0.00434321
0.00666665
0.0100307
0.0147589
0.0211901
0.0296366
0.0403376
0.0534236
0.0689016
0.0866626
0.106506
0.128167
0.151347
0.175733
0.201012
0.226888
0.253081
0.279338
0.305433
0.331169
0.356378
0.380924
0.404694
0.427602
0.449581
0.470583
0.490582
0.509564
0.527531
0.544493
0.56047
0.575489
0.589582
0.602785
0.615138
0.62668
0.637452
0.647497
0.656856
0.665569
0.673677
0.681218
0.688229
0.694745
0.700801
0.706352
0.71145
0.716323
0.720856
0.725074
0.728948
0.732668
0.736226
0.739627
0.742872
0.745962
0.748896
0.751671
0.754283
0.756727
0.758994
0.761067
0.762954
0.764632
0.766083
0.767291
0.768242
0.768937
0.769403
0.769686
0.769845
0.769926
0.769966
0.769985
0.769993
0.769997
0.769999
0.769999
0.77
0.77
0.77
0.77
0.77
0.77
0.77
0.77
0.77
0.77
2.30481e-06
1.00735e-05
2.31448e-05
4.50727e-05
8.1699e-05
0.000142523
0.000242795
0.000406611
0.000671385
0.00109394
0.00175836
0.00278532
0.00434155
0.00664706
0.00997473
0.0146395
0.0209727
0.0292827
0.0398111
0.0526976
0.0679631
0.0855146
0.105166
0.126666
0.149721
0.174024
0.199261
0.225133
0.251357
0.277673
0.30385
0.329687
0.35501
0.379677
0.403574
0.426609
0.448712
0.469836
0.489951
0.509043
0.527111
0.544166
0.560228
0.575324
0.589486
0.602751
0.615158
0.626747
0.637561
0.647641
0.65703
0.665769
0.673899
0.681457
0.688482
0.69501
0.701074
0.706629
0.711729
0.716608
0.721144
0.72536
0.729237
0.732963
0.736528
0.739935
0.743186
0.746281
0.749219
0.751996
0.754608
0.757048
0.75931
0.76137
0.763241
0.764893
0.766312
0.767478
0.768382
0.769031
0.769458
0.769715
0.769858
0.769932
0.769968
0.769986
0.769994
0.769997
0.769999
0.769999
0.77
0.77
0.77
0.77
0.77
0.77
0.77
0.77
0.77
0.77
2.3137e-06
1.01137e-05
2.32431e-05
4.52775e-05
8.20905e-05
0.000143223
0.000243974
0.000408495
0.000674186
0.00109772
0.00176273
0.00278879
0.00434034
0.00663296
0.0099344
0.0145533
0.0208143
0.0290206
0.0394121
0.0521311
0.0672058
0.0845542
0.104003
0.125312
0.1482
0.172367
0.197505
0.223316
0.249517
0.275846
0.302069
0.327979
0.353398
0.37818
0.402204
0.425375
0.44762
0.468887
0.489142
0.508371
0.526571
0.54375
0.559929
0.575132
0.589394
0.602747
0.615233
0.626892
0.637767
0.647901
0.657337
0.666116
0.674279
0.681865
0.688912
0.695457
0.701534
0.707093
0.712195
0.717072
0.721598
0.725807
0.7297
0.73344
0.737013
0.740425
0.743678
0.746771
0.749703
0.752471
0.755069
0.75749
0.759725
0.761757
0.763587
0.765192
0.766555
0.767664
0.768512
0.769114
0.769506
0.76974
0.76987
0.769937
0.769971
0.769987
0.769994
0.769997
0.769999
0.769999
0.77
0.77
0.77
0.77
0.77
0.77
0.77
0.77
0.77
0.77
2.31528e-06
1.01206e-05
2.32587e-05
4.53062e-05
8.21335e-05
0.000143265
0.000243941
0.00040816
0.000673007
0.00109455
0.00175536
0.00277332
0.00431052
0.00657972
0.0098446
0.0144095
0.0205951
0.0287025
0.038972
0.0515492
0.0664683
0.0836548
0.102943
0.124102
0.146856
0.17091
0.195961
0.221714
0.247886
0.274217
0.300469
0.326434
0.351931
0.376808
0.400943
0.424236
0.44661
0.468011
0.488402
0.507764
0.526094
0.543398
0.559695
0.575012
0.589375
0.602822
0.615392
0.627127
0.638069
0.648262
0.657748
0.66657
0.674769
0.682385
0.689456
0.696019
0.702109
0.707661
0.712751
0.717619
0.722145
0.726353
0.730265
0.734012
0.737588
0.740999
0.744247
0.74733
0.750248
0.752997
0.75557
0.757961
0.760159
0.762155
0.763935
0.765487
0.766794
0.767846
0.76864
0.769196
0.769554
0.769766
0.769883
0.769943
0.769973
0.769988
0.769994
0.769998
0.769999
0.77
0.77
0.77
0.77
0.77
0.77
0.77
0.77
0.77
0.77
0.77
2.31039e-06
1.00988e-05
2.32068e-05
4.51995e-05
8.19241e-05
0.00014286
0.000243163
0.000406674
0.000670198
0.00108931
0.00174578
0.00275622
0.00428081
0.0065297
0.00976333
0.0142825
0.0204047
0.0284294
0.0385971
0.0510563
0.065846
0.0828981
0.102054
0.123088
0.145731
0.169692
0.194672
0.220377
0.246526
0.272858
0.299135
0.325146
0.350709
0.375668
0.399899
0.423299
0.445788
0.467308
0.48782
0.507304
0.525753
0.543174
0.559583
0.574999
0.589456
0.60299
0.61564
0.627446
0.638451
0.648699
0.658232
0.667094
0.675325
0.682967
0.690058
0.696637
0.70273
0.70826
0.713354
0.718236
0.72276
0.726928
0.730866
0.734613
0.738187
0.741591
0.744828
0.747897
0.750796
0.75352
0.756065
0.758422
0.760577
0.762529
0.764261
0.76576
0.767013
0.768009
0.768753
0.769268
0.769595
0.769788
0.769894
0.769949
0.769976
0.769989
0.769995
0.769998
0.769999
0.77
0.77
0.77
0.77
0.77
0.77
0.77
0.77
0.77
0.77
0.77
2.30001e-06
1.00528e-05
2.30986e-05
4.49809e-05
8.15096e-05
0.000142097
0.000241784
0.000404213
0.000665859
0.00108177
0.00173288
0.00273459
0.00424541
0.00647331
0.00967626
0.0141525
0.0202179
0.0281709
0.0382532
0.0506159
0.0653021
0.0822484
0.101301
0.122239
0.144798
0.16869
0.193618
0.21929
0.245426
0.271765
0.298068
0.324122
0.349744
0.374777
0.399092
0.422585
0.445173
0.466796
0.487414
0.507004
0.525559
0.543082
0.559584
0.57509
0.589632
0.603243
0.615962
0.62783
0.63889
0.649184
0.658757
0.667651
0.675908
0.683569
0.690673
0.697258
0.703359
0.708881
0.713989
0.718869
0.723387
0.727512
0.731448
0.735196
0.738765
0.742161
0.745384
0.748436
0.751313
0.754012
0.756526
0.758849
0.760964
0.762875
0.76456
0.766007
0.767208
0.768155
0.768854
0.769332
0.769633
0.769808
0.769904
0.769954
0.769978
0.76999
0.769995
0.769998
0.769999
0.77
0.77
0.77
0.77
0.77
0.77
0.77
0.77
0.77
0.77
0.77
2.28711e-06
9.99606e-06
2.29663e-05
4.47182e-05
8.10214e-05
0.00014122
0.00024024
0.000401535
0.000661275
0.00107403
0.00172001
0.00271357
0.00421179
0.00642085
0.0095967
0.0140357
0.0200521
0.0279444
0.0379551
0.050238
0.0648398
0.0817013
0.100673
0.121537
0.144033
0.167874
0.192767
0.21842
0.244553
0.270904
0.297235
0.323332
0.349009
0.374108
0.398498
0.422074
0.44475
0.466464
0.487175
0.506858
0.5255
0.543104
0.559688
0.575271
0.589884
0.60356
0.616337
0.628257
0.639362
0.649694
0.659298
0.668217
0.676492
0.684165
0.691275
0.697859
0.703954
0.709425
0.714653
0.719502
0.723995
0.728085
0.732007
0.735744
0.739303
0.742687
0.745896
0.748929
0.751784
0.754456
0.756941
0.759229
0.761301
0.763171
0.764817
0.766224
0.767379
0.768281
0.76894
0.769386
0.769664
0.769825
0.769913
0.769958
0.76998
0.769991
0.769996
0.769998
0.769999
0.77
0.77
0.77
0.77
0.77
0.77
0.77
0.77
0.77
0.77
0.77
2.27329e-06
9.93538e-06
2.28256e-05
4.44403e-05
8.05084e-05
0.000140306
0.000238646
0.0003988
0.00065665
0.00106632
0.00170737
0.00269324
0.0041798
0.00637176
0.00952345
0.0139298
0.0199043
0.0277453
0.0376967
0.0499147
0.064449
0.0812439
0.100153
0.120962
0.143412
0.167219
0.192089
0.217733
0.243871
0.27024
0.296601
0.32274
0.348468
0.373627
0.398085
0.421733
0.444485
0.466278
0.487068
0.506826
0.525542
0.54322
0.559872
0.575519
0.59019
0.603919
0.616744
0.628705
0.639845
0.650207
0.659834
0.668771
0.67706
0.684741
0.691855
0.698441
0.704514
0.709984
0.715216
0.720056
0.724537
0.72861
0.732521
0.736248
0.739796
0.743167
0.74636
0.749374
0.752207
0.754854
0.75731
0.759567
0.76161
0.763443
0.765048
0.766414
0.767528
0.76839
0.769014
0.769433
0.769691
0.76984
0.76992
0.769962
0.769982
0.769992
0.769996
0.769998
0.769999
0.77
0.77
0.77
0.77
0.77
0.77
0.77
0.77
0.77
0.77
0.77
2.25972e-06
9.87594e-06
2.26882e-05
4.41701e-05
8.00125e-05
0.000139428
0.000237127
0.000396215
0.000652316
0.00105917
0.00169577
0.00267477
0.00415102
0.00632802
0.00945885
0.0138373
0.0197763
0.0275745
0.0374771
0.0496423
0.0641227
0.0808654
0.0997266
0.120495
0.142912
0.166696
0.191555
0.217198
0.243346
0.269736
0.296129
0.322308
0.348084
0.373297
0.397812
0.421523
0.444343
0.466204
0.487059
0.506882
0.525662
0.5434
0.560109
0.575808
0.590527
0.604298
0.617161
0.629154
0.640321
0.650705
0.66035
0.669299
0.677596
0.685281
0.692396
0.698978
0.705018
0.710476
0.715699
0.720528
0.724999
0.729067
0.732973
0.736692
0.74023
0.743588
0.746765
0.749761
0.752571
0.755192
0.757619
0.759844
0.761851
0.763648
0.765219
0.766554
0.767646
0.768481
0.769077
0.769472
0.769714
0.769852
0.769927
0.769965
0.769983
0.769992
0.769997
0.769998
0.769999
0.77
0.77
0.77
0.77
0.77
0.77
0.77
0.77
0.77
0.77
0.77
2.24705e-06
9.82045e-06
2.25601e-05
4.39189e-05
7.9553e-05
0.000138618
0.00023573
0.000393849
0.000648374
0.0010527
0.00168534
0.00265829
0.00412555
0.00628964
0.00940261
0.0137575
0.0196668
0.0274296
0.0372923
0.0494151
0.0638529
0.0805551
0.0993805
0.120119
0.142514
0.166285
0.19114
0.216788
0.24295
0.269363
0.295786
0.322004
0.347825
0.373089
0.39766
0.421426
0.4443
0.466214
0.487125
0.507002
0.525835
0.543622
0.560377
0.576119
0.590875
0.60468
0.617572
0.629589
0.640776
0.651176
0.660833
0.66979
0.678091
0.685777
0.692889
0.699466
0.705492
0.710933
0.716141
0.720957
0.72541
0.729476
0.733379
0.737093
0.740623
0.74397
0.747134
0.750114
0.752906
0.755506
0.757907
0.760101
0.762092
0.763864
0.765405
0.766704
0.767753
0.768559
0.769131
0.769506
0.769733
0.769863
0.769932
0.769967
0.769985
0.769993
0.769997
0.769999
0.769999
0.77
0.77
0.77
0.77
0.77
0.77
0.77
0.77
0.77
0.77
0.77
2.23561e-06
9.77042e-06
2.24448e-05
4.36933e-05
7.91411e-05
0.000137894
0.000234486
0.000391752
0.000644893
0.00104702
0.00167623
0.00264398
0.00410355
0.00625667
0.00935462
0.0136898
0.0195746
0.0273084
0.0371388
0.0492277
0.0636321
0.0803034
0.099102
0.119819
0.1422
0.165965
0.19082
0.216477
0.242655
0.269092
0.295544
0.321796
0.347655
0.37296
0.397577
0.421392
0.444315
0.466279
0.487237
0.507161
0.526037
0.543866
0.560657
0.576433
0.591219
0.605051
0.617964
0.63
0.641202
0.651612
0.661276
0.670237
0.678539
0.686223
0.693331
0.699902
0.705911
0.711339
0.716538
0.72134
0.725777
0.729841
0.733737
0.737443
0.740962
0.744297
0.747446
0.750409
0.753183
0.755764
0.758147
0.760331
0.7623
0.764047
0.765562
0.766833
0.767854
0.768627
0.769177
0.769534
0.76975
0.769871
0.769936
0.769969
0.769986
0.769993
0.769997
0.769999
0.769999
0.77
0.77
0.77
0.77
0.77
0.77
0.77
0.77
0.77
0.77
0.77
2.22556e-06
9.72646e-06
2.23436e-05
4.34955e-05
7.87807e-05
0.000137261
0.000233403
0.000389931
0.000641882
0.00104212
0.00166842
0.00263174
0.00408484
0.00622878
0.00931422
0.0136331
0.0194978
0.0272081
0.0370127
0.0490749
0.0634533
0.0801012
0.0988804
0.119583
0.141956
0.165718
0.190578
0.216246
0.242441
0.268901
0.295382
0.321668
0.347565
0.372909
0.397564
0.421417
0.444381
0.466384
0.487382
0.507343
0.526254
0.544115
0.560936
0.576738
0.591548
0.605399
0.618329
0.630379
0.64159
0.652008
0.661676
0.670638
0.678938
0.686619
0.69372
0.70028
0.706276
0.711696
0.716882
0.721671
0.726093
0.730157
0.734048
0.737747
0.741257
0.744578
0.747713
0.750663
0.753425
0.755994
0.758366
0.76053
0.762479
0.764204
0.765695
0.766942
0.767938
0.768689
0.769215
0.769558
0.769764
0.769879
0.76994
0.769971
0.769986
0.769994
0.769997
0.769999
0.769999
0.77
0.77
0.77
0.77
0.77
0.77
0.77
0.77
0.77
0.77
0.77
2.21691e-06
9.68869e-06
2.22568e-05
4.33259e-05
7.84722e-05
0.000136721
0.00023248
0.000388382
0.000639327
0.00103798
0.00166183
0.00262147
0.00406918
0.00620554
0.00928071
0.0135863
0.0194347
0.0271262
0.0369103
0.0489516
0.0633101
0.0799405
0.0987058
0.119399
0.141768
0.165531
0.190397
0.216077
0.242289
0.268769
0.295275
0.321587
0.347514
0.372892
0.397582
0.421471
0.444469
0.466507
0.487537
0.507529
0.526469
0.544356
0.561202
0.577024
0.591852
0.605719
0.618661
0.63072
0.641938
0.65236
0.662029
0.670991
0.679289
0.686963
0.694055
0.700609
0.706596
0.712004
0.71718
0.721955
0.726361
0.730428
0.734315
0.738007
0.741509
0.744824
0.747955
0.750896
0.753646
0.756201
0.758555
0.760701
0.762631
0.764336
0.765807
0.767033
0.768009
0.76874
0.769249
0.769577
0.769775
0.769885
0.769943
0.769973
0.769987
0.769994
0.769997
0.769999
0.769999
0.77
0.77
0.77
0.77
0.77
0.77
0.77
0.77
0.77
0.77
0.77
2.20964e-06
9.6569e-06
2.21837e-05
4.31833e-05
7.82132e-05
0.000136268
0.000231707
0.000387089
0.0006372
0.00103454
0.00165637
0.00261298
0.0040563
0.00618648
0.00925334
0.0135483
0.0193837
0.0270602
0.0368282
0.0488533
0.0631968
0.0798144
0.09857
0.119258
0.141625
0.165391
0.190265
0.215956
0.242184
0.268684
0.295213
0.321551
0.347505
0.37291
0.397628
0.421546
0.444573
0.466639
0.487695
0.507712
0.526674
0.544582
0.561446
0.577285
0.592126
0.606004
0.618955
0.63102
0.642243
0.652667
0.662337
0.671297
0.67959
0.687259
0.69435
0.700898
0.706871
0.71227
0.717436
0.722202
0.726584
0.730657
0.73454
0.738228
0.741727
0.745037
0.748159
0.75109
0.753829
0.756372
0.758712
0.760843
0.762758
0.764447
0.7659
0.767108
0.768067
0.768781
0.769277
0.769595
0.769784
0.76989
0.769946
0.769974
0.769988
0.769994
0.769997
0.769999
0.769999
0.77
0.77
0.77
0.77
0.77
0.77
0.77
0.77
0.77
0.77
0.77
2.20364e-06
9.63071e-06
2.21235e-05
4.3066e-05
7.80004e-05
0.000135897
0.000231074
0.000386031
0.000635463
0.00103174
0.00165193
0.00260611
0.00404589
0.00617113
0.00923136
0.0135178
0.019343
0.0270079
0.0367634
0.0487762
0.0631085
0.0797168
0.0984658
0.11915
0.141517
0.165287
0.190169
0.215871
0.242113
0.26863
0.295177
0.321537
0.347513
0.372942
0.397684
0.421626
0.444677
0.466765
0.487843
0.507879
0.52686
0.544784
0.561662
0.577514
0.592366
0.606252
0.619209
0.631279
0.642504
0.652929
0.662597
0.671553
0.679844
0.687512
0.694597
0.70114
0.707102
0.712493
0.717651
0.722409
0.726769
0.730848
0.734729
0.738414
0.741908
0.745212
0.748326
0.75125
0.75398
0.756512
0.758841
0.760961
0.762862
0.764538
0.765977
0.76717
0.768114
0.768815
0.769299
0.769608
0.769792
0.769894
0.769948
0.769975
0.769988
0.769995
0.769998
0.769999
0.77
0.77
0.77
0.77
0.77
0.77
0.77
0.77
0.77
0.77
0.77
0.77
2.19884e-06
9.60971e-06
2.20753e-05
4.29721e-05
7.783e-05
0.000135599
0.000230569
0.000385188
0.000634081
0.00102951
0.00164841
0.00260067
0.00403767
0.00615904
0.00921411
0.013494
0.0193113
0.0269672
0.0367133
0.0487169
0.0630409
0.0796426
0.0983874
0.11907
0.141438
0.165212
0.190101
0.215813
0.242068
0.268599
0.295164
0.32154
0.347535
0.372983
0.397744
0.421706
0.444775
0.466881
0.487975
0.508027
0.527022
0.544959
0.561848
0.577708
0.592568
0.60646
0.619422
0.631494
0.642719
0.653143
0.662811
0.671768
0.680057
0.687721
0.694801
0.701338
0.707292
0.712675
0.717826
0.722575
0.726917
0.731002
0.73488
0.738563
0.742053
0.745352
0.748461
0.751378
0.754101
0.756625
0.758946
0.761055
0.762946
0.764611
0.766039
0.76722
0.768152
0.768842
0.769317
0.769619
0.769798
0.769897
0.769949
0.769976
0.769989
0.769995
0.769998
0.769999
0.77
0.77
0.77
0.77
0.77
0.77
0.77
0.77
0.77
0.77
0.77
0.77
2.19512e-06
9.59349e-06
2.2038e-05
4.28996e-05
7.76986e-05
0.00013537
0.00023018
0.000384539
0.000633019
0.00102781
0.00164572
0.00259651
0.0040314
0.00614984
0.009201
0.013476
0.0192873
0.0269366
0.0366758
0.0486726
0.0629907
0.0795879
0.0983299
0.119012
0.141382
0.16516
0.190054
0.215774
0.242039
0.268582
0.295159
0.321549
0.347559
0.373022
0.397799
0.421775
0.444858
0.466978
0.488085
0.508149
0.527155
0.545101
0.561998
0.577866
0.59273
0.606626
0.61959
0.631664
0.642891
0.653317
0.662985
0.67194
0.680226
0.687886
0.694962
0.701494
0.707443
0.71282
0.717965
0.722709
0.727033
0.731123
0.735
0.738679
0.742166
0.745462
0.748566
0.751479
0.754196
0.756713
0.759027
0.761129
0.763012
0.764668
0.766087
0.767259
0.768182
0.768863
0.769331
0.769628
0.769803
0.7699
0.769951
0.769976
0.769989
0.769995
0.769998
0.769999
0.77
0.77
0.77
0.77
0.77
0.77
0.77
0.77
0.77
0.77
0.77
0.77
2.19242e-06
9.58169e-06
2.20109e-05
4.28468e-05
7.76031e-05
0.000135204
0.000229897
0.000384068
0.000632249
0.00102657
0.00164377
0.0025935
0.00402687
0.00614321
0.00919157
0.013463
0.0192701
0.0269147
0.036649
0.0486412
0.0629553
0.0795495
0.0982898
0.118972
0.141343
0.165124
0.190024
0.21575
0.242022
0.268574
0.295161
0.321562
0.347583
0.373057
0.397844
0.421831
0.444925
0.467055
0.488171
0.508243
0.527256
0.545209
0.562111
0.577983
0.592852
0.606751
0.619718
0.631794
0.643022
0.653448
0.663115
0.672068
0.680352
0.688009
0.695082
0.701611
0.707556
0.712928
0.718069
0.722809
0.727123
0.731211
0.735086
0.738764
0.742249
0.745542
0.748644
0.751552
0.754265
0.756778
0.759087
0.761183
0.76306
0.76471
0.766122
0.767288
0.768203
0.768879
0.769341
0.769634
0.769806
0.769902
0.769952
0.769977
0.769989
0.769995
0.769998
0.769999
0.77
0.77
0.77
0.77
0.77
0.77
0.77
0.77
0.77
0.77
0.77
0.77
2.19066e-06
9.57402e-06
2.19933e-05
4.28126e-05
7.75411e-05
0.000135096
0.000229714
0.000383764
0.000631751
0.00102577
0.00164251
0.00259156
0.00402396
0.00613894
0.00918552
0.0134547
0.0192591
0.0269008
0.036632
0.0486212
0.0629328
0.0795252
0.0982646
0.118947
0.141319
0.165102
0.190005
0.215736
0.242013
0.26857
0.295164
0.321571
0.347599
0.37308
0.397875
0.421869
0.44497
0.467106
0.488228
0.508306
0.527324
0.545281
0.562188
0.578063
0.592935
0.606836
0.619804
0.631881
0.64311
0.653535
0.663201
0.672153
0.680435
0.688091
0.695162
0.701688
0.70763
0.713
0.718139
0.722876
0.727183
0.731268
0.735143
0.73882
0.742303
0.745595
0.748694
0.751601
0.754311
0.756821
0.759126
0.761219
0.763092
0.764738
0.766145
0.767306
0.768217
0.768888
0.769347
0.769638
0.769808
0.769903
0.769952
0.769977
0.769989
0.769995
0.769998
0.769999
0.77
0.77
0.77
0.77
0.77
0.77
0.77
0.77
0.77
0.77
0.77
0.77
2.18981e-06
9.57032e-06
2.19848e-05
4.27961e-05
7.75114e-05
0.000135044
0.000229626
0.000383619
0.000631515
0.00102539
0.00164192
0.00259065
0.00402259
0.00613694
0.00918268
0.0134508
0.019254
0.0268942
0.036624
0.0486118
0.0629223
0.0795138
0.0982528
0.118935
0.141308
0.165092
0.189997
0.21573
0.242009
0.26857
0.295166
0.321577
0.347609
0.373093
0.397892
0.421889
0.444993
0.467132
0.488258
0.508338
0.527359
0.545318
0.562226
0.578103
0.592976
0.606878
0.619847
0.631924
0.643153
0.653578
0.663243
0.672195
0.680477
0.688131
0.695201
0.701727
0.707667
0.713036
0.718173
0.722909
0.727212
0.731297
0.735171
0.738847
0.74233
0.745621
0.74872
0.751625
0.754333
0.756842
0.759145
0.761236
0.763108
0.764751
0.766156
0.767315
0.768224
0.768893
0.76935
0.76964
0.76981
0.769903
0.769953
0.769977
0.769989
0.769995
0.769998
0.769999
0.77
0.77
0.77
0.77
0.77
0.77
0.77
0.77
0.77
0.77
0.77
0.77
2.18983e-06
9.57038e-06
2.1985e-05
4.27964e-05
7.75118e-05
0.000135045
0.000229628
0.000383621
0.000631518
0.0010254
0.00164193
0.00259066
0.0040226
0.00613696
0.00918271
0.0134508
0.0192541
0.0268943
0.0366241
0.048612
0.0629224
0.079514
0.098253
0.118935
0.141308
0.165093
0.189997
0.21573
0.242009
0.26857
0.295166
0.321577
0.347608
0.373093
0.397891
0.421889
0.444993
0.467132
0.488258
0.508338
0.527359
0.545318
0.562227
0.578103
0.592976
0.606878
0.619847
0.631924
0.643153
0.653578
0.663243
0.672195
0.680477
0.688131
0.695201
0.701727
0.707667
0.713036
0.718173
0.722909
0.727212
0.731297
0.735171
0.738847
0.74233
0.745621
0.74872
0.751625
0.754333
0.756842
0.759145
0.761236
0.763108
0.764751
0.766156
0.767315
0.768224
0.768893
0.76935
0.76964
0.76981
0.769903
0.769953
0.769977
0.769989
0.769995
0.769998
0.769999
0.77
0.77
0.77
0.77
0.77
0.77
0.77
0.77
0.77
0.77
0.77
0.77
2.1907e-06
9.5742e-06
2.19937e-05
4.28134e-05
7.75425e-05
0.000135098
0.000229718
0.00038377
0.000631761
0.00102579
0.00164254
0.0025916
0.00402401
0.00613902
0.00918563
0.0134548
0.0192593
0.026901
0.0366323
0.0486216
0.0629332
0.0795257
0.0982652
0.118947
0.14132
0.165103
0.190006
0.215737
0.242014
0.268572
0.295165
0.321572
0.3476
0.373081
0.397876
0.42187
0.44497
0.467106
0.488229
0.508306
0.527324
0.545282
0.562188
0.578063
0.592935
0.606836
0.619804
0.631881
0.64311
0.653535
0.663201
0.672153
0.680435
0.688091
0.695162
0.701688
0.70763
0.713
0.718139
0.722876
0.727183
0.731268
0.735143
0.73882
0.742304
0.745595
0.748695
0.751601
0.754311
0.756821
0.759126
0.761219
0.763092
0.764738
0.766145
0.767306
0.768217
0.768888
0.769347
0.769638
0.769808
0.769903
0.769952
0.769977
0.769989
0.769995
0.769998
0.769999
0.77
0.77
0.77
0.77
0.77
0.77
0.77
0.77
0.77
0.77
0.77
0.77
2.19248e-06
9.58198e-06
2.20116e-05
4.28481e-05
7.76054e-05
0.000135208
0.000229904
0.000384079
0.000632266
0.0010266
0.00164381
0.00259357
0.00402697
0.00614334
0.00919177
0.0134633
0.0192705
0.0269152
0.0366496
0.0486418
0.062956
0.0795503
0.0982907
0.118973
0.141344
0.165125
0.190025
0.215751
0.242023
0.268575
0.295162
0.321563
0.347584
0.373058
0.397845
0.421832
0.444926
0.467056
0.488172
0.508244
0.527257
0.54521
0.562112
0.577984
0.592852
0.606751
0.619718
0.631794
0.643023
0.653448
0.663115
0.672068
0.680352
0.688009
0.695082
0.701611
0.707556
0.712929
0.71807
0.722809
0.727123
0.731211
0.735086
0.738764
0.742249
0.745542
0.748644
0.751552
0.754265
0.756778
0.759087
0.761183
0.76306
0.76471
0.766122
0.767288
0.768203
0.768879
0.769341
0.769634
0.769806
0.769902
0.769952
0.769977
0.769989
0.769995
0.769998
0.769999
0.77
0.77
0.77
0.77
0.77
0.77
0.77
0.77
0.77
0.77
0.77
0.77
2.19521e-06
9.5939e-06
2.2039e-05
4.29014e-05
7.77018e-05
0.000135376
0.000230189
0.000384554
0.000633043
0.00102784
0.00164578
0.00259659
0.00403153
0.00615002
0.00920126
0.0134763
0.0192878
0.0269372
0.0366765
0.0486735
0.0629918
0.0795891
0.0983312
0.119013
0.141383
0.165161
0.190056
0.215776
0.242041
0.268584
0.295161
0.321551
0.347561
0.373024
0.3978
0.421776
0.44486
0.466979
0.488087
0.508151
0.527156
0.545102
0.561999
0.577867
0.592731
0.606627
0.619591
0.631665
0.642892
0.653318
0.662986
0.67194
0.680226
0.687886
0.694962
0.701494
0.707443
0.71282
0.717965
0.722709
0.727034
0.731123
0.735
0.738679
0.742166
0.745462
0.748567
0.751479
0.754196
0.756714
0.759027
0.761129
0.763012
0.764668
0.766087
0.767259
0.768182
0.768863
0.769331
0.769628
0.769803
0.7699
0.769951
0.769976
0.769989
0.769995
0.769998
0.769999
0.77
0.77
0.77
0.77
0.77
0.77
0.77
0.77
0.77
0.77
0.77
0.77
2.19895e-06
9.61023e-06
2.20764e-05
4.29743e-05
7.7834e-05
0.000135606
0.00023058
0.000385206
0.000634111
0.00102956
0.00164849
0.00260078
0.00403783
0.00615928
0.00921444
0.0134945
0.0193119
0.026968
0.0367143
0.048718
0.0630422
0.0796441
0.098389
0.119072
0.14144
0.165214
0.190103
0.215815
0.24207
0.268601
0.295165
0.321542
0.347537
0.372985
0.397746
0.421708
0.444777
0.466883
0.487977
0.508029
0.527024
0.54496
0.561849
0.57771
0.592569
0.606461
0.619422
0.631494
0.64272
0.653144
0.662812
0.671769
0.680058
0.687721
0.694802
0.701339
0.707292
0.712675
0.717826
0.722576
0.726917
0.731003
0.734881
0.738563
0.742053
0.745352
0.748461
0.751379
0.754101
0.756625
0.758946
0.761055
0.762947
0.764611
0.766039
0.76722
0.768152
0.768842
0.769317
0.769619
0.769798
0.769897
0.769949
0.769976
0.769989
0.769995
0.769998
0.769999
0.77
0.77
0.77
0.77
0.77
0.77
0.77
0.77
0.77
0.77
0.77
0.77
2.20378e-06
9.63132e-06
2.21249e-05
4.30687e-05
7.80051e-05
0.000135905
0.000231088
0.000386053
0.000635499
0.0010318
0.00165202
0.00260624
0.00404608
0.00617141
0.00923176
0.0135184
0.0193437
0.0270088
0.0367646
0.0487776
0.0631101
0.0797186
0.0984678
0.119152
0.14152
0.16529
0.190171
0.215874
0.242116
0.268633
0.29518
0.321539
0.347516
0.372944
0.397686
0.421628
0.444679
0.466767
0.487844
0.507881
0.526862
0.544786
0.561664
0.577515
0.592367
0.606253
0.61921
0.63128
0.642505
0.65293
0.662597
0.671554
0.679845
0.687513
0.694598
0.701141
0.707103
0.712493
0.717651
0.722409
0.726769
0.730848
0.73473
0.738415
0.741908
0.745212
0.748327
0.75125
0.75398
0.756512
0.758842
0.760961
0.762862
0.764538
0.765977
0.767171
0.768114
0.768815
0.769299
0.769608
0.769792
0.769894
0.769948
0.769975
0.769988
0.769995
0.769998
0.769999
0.77
0.77
0.77
0.77
0.77
0.77
0.77
0.77
0.77
0.77
0.77
0.77
2.2098e-06
9.6576e-06
2.21853e-05
4.31864e-05
7.82187e-05
0.000136278
0.000231723
0.000387114
0.000637241
0.00103461
0.00165647
0.00261314
0.00405653
0.00618681
0.0092538
0.0135489
0.0193845
0.0270613
0.0368296
0.0488549
0.0631987
0.0798165
0.0985724
0.11926
0.141627
0.165393
0.190267
0.215959
0.242187
0.268687
0.295216
0.321554
0.347508
0.372913
0.397631
0.421549
0.444576
0.466641
0.487697
0.507714
0.526676
0.544584
0.561448
0.577286
0.592128
0.606005
0.618956
0.631021
0.642244
0.652668
0.662338
0.671298
0.67959
0.68726
0.69435
0.700899
0.706872
0.71227
0.717437
0.722203
0.726584
0.730657
0.734541
0.738229
0.741728
0.745038
0.748159
0.751091
0.75383
0.756372
0.758712
0.760843
0.762758
0.764447
0.7659
0.767108
0.768067
0.768781
0.769277
0.769595
0.769784
0.76989
0.769946
0.769974
0.769988
0.769994
0.769997
0.769999
0.769999
0.77
0.77
0.77
0.77
0.77
0.77
0.77
0.77
0.77
0.77
0.77
2.2171e-06
9.68948e-06
2.22586e-05
4.33293e-05
7.84784e-05
0.000136732
0.000232498
0.000388411
0.000639374
0.00103806
0.00166194
0.00262164
0.00406944
0.00620591
0.00928124
0.013587
0.0194357
0.0271275
0.0369118
0.0489534
0.0633123
0.079943
0.0987085
0.119402
0.141771
0.165534
0.190401
0.21608
0.242292
0.268773
0.295279
0.321591
0.347518
0.372895
0.397584
0.421474
0.444472
0.46651
0.48754
0.507532
0.526472
0.544359
0.561204
0.577026
0.591854
0.60572
0.618662
0.630721
0.641939
0.652361
0.662031
0.670992
0.67929
0.686964
0.694056
0.70061
0.706597
0.712005
0.71718
0.721956
0.726362
0.730429
0.734316
0.738009
0.74151
0.744827
0.747957
0.750897
0.753647
0.756201
0.758555
0.760701
0.762631
0.764336
0.765807
0.767033
0.768009
0.76874
0.769249
0.769577
0.769775
0.769885
0.769943
0.769973
0.769987
0.769994
0.769997
0.769999
0.769999
0.77
0.77
0.77
0.77
0.77
0.77
0.77
0.77
0.77
0.77
0.77
2.22576e-06
9.72733e-06
2.23456e-05
4.34993e-05
7.87875e-05
0.000137273
0.000233423
0.000389963
0.000641933
0.0010422
0.00166854
0.00263193
0.00408512
0.00622919
0.0093148
0.0136339
0.0194988
0.0272095
0.0370144
0.0490769
0.0634557
0.0801039
0.0988834
0.119587
0.14196
0.165722
0.190582
0.21625
0.242446
0.268905
0.295386
0.321671
0.347569
0.372913
0.397568
0.421421
0.444384
0.466388
0.487385
0.507346
0.526257
0.544117
0.560939
0.57674
0.59155
0.605401
0.618331
0.63038
0.641592
0.652009
0.661677
0.670639
0.678939
0.68662
0.693721
0.70028
0.706277
0.711696
0.716883
0.721671
0.726093
0.730157
0.734048
0.737746
0.741255
0.744577
0.747714
0.750664
0.753425
0.755994
0.758363
0.760529
0.762478
0.764203
0.765694
0.766942
0.767938
0.768689
0.769215
0.769558
0.769764
0.769879
0.76994
0.769971
0.769986
0.769994
0.769997
0.769999
0.769999
0.77
0.77
0.77
0.77
0.77
0.77
0.77
0.77
0.77
0.77
0.77
2.23583e-06
9.77136e-06
2.2447e-05
4.36974e-05
7.91484e-05
0.000137906
0.000234507
0.000391786
0.000644948
0.00104711
0.00167637
0.00264418
0.00410386
0.00625712
0.00935526
0.0136906
0.0195757
0.0273099
0.0371407
0.04923
0.0636348
0.0803064
0.0991054
0.119823
0.142204
0.165969
0.190824
0.216481
0.242659
0.269096
0.295548
0.3218
0.34766
0.372965
0.397582
0.421397
0.444319
0.466283
0.487241
0.507165
0.52604
0.543869
0.56066
0.576435
0.591222
0.605053
0.617966
0.630002
0.641203
0.651614
0.661278
0.670239
0.67854
0.686224
0.693332
0.699903
0.705912
0.711339
0.716538
0.72134
0.725778
0.729841
0.733738
0.737444
0.740964
0.744299
0.747449
0.750413
0.753187
0.755769
0.758151
0.760331
0.7623
0.764047
0.765562
0.766833
0.767854
0.768627
0.769177
0.769534
0.76975
0.769871
0.769936
0.769969
0.769986
0.769993
0.769997
0.769999
0.769999
0.77
0.77
0.77
0.77
0.77
0.77
0.77
0.77
0.77
0.77
0.77
2.24728e-06
9.82145e-06
2.25624e-05
4.39233e-05
7.95608e-05
0.000138631
0.000235753
0.000393886
0.000648433
0.00105279
0.00168549
0.00265852
0.00412589
0.00629013
0.0094033
0.0137584
0.0196681
0.0274313
0.0372944
0.0494176
0.0638558
0.0805585
0.0993842
0.120123
0.142519
0.16629
0.191144
0.216793
0.242955
0.269369
0.295792
0.322009
0.347831
0.373094
0.397664
0.42143
0.444304
0.466219
0.487129
0.507006
0.525838
0.543626
0.56038
0.576121
0.590878
0.604683
0.617574
0.629591
0.640778
0.651178
0.660834
0.669791
0.678092
0.685778
0.69289
0.699467
0.705493
0.710933
0.716141
0.720957
0.72541
0.729476
0.733377
0.737089
0.740616
0.743961
0.747123
0.750101
0.752892
0.755493
0.757899
0.760098
0.762088
0.763863
0.765405
0.766704
0.767753
0.768559
0.769131
0.769506
0.769733
0.769863
0.769932
0.769967
0.769985
0.769993
0.769997
0.769999
0.769999
0.77
0.77
0.77
0.77
0.77
0.77
0.77
0.77
0.77
0.77
0.77
2.25997e-06
9.87699e-06
2.26906e-05
4.41747e-05
8.00208e-05
0.000139443
0.000237151
0.000396254
0.000652379
0.00105927
0.00169592
0.00267501
0.00415137
0.00632854
0.00945959
0.0138383
0.0197777
0.0275763
0.0374793
0.049645
0.0641259
0.080869
0.0997307
0.120499
0.142917
0.166702
0.191561
0.217204
0.243352
0.269742
0.296134
0.322313
0.348089
0.373302
0.397818
0.421529
0.444349
0.466209
0.487063
0.506886
0.525666
0.543404
0.560112
0.575811
0.59053
0.604301
0.617163
0.629156
0.640323
0.650707
0.660352
0.669301
0.677597
0.685283
0.692397
0.69898
0.705019
0.710478
0.715701
0.72053
0.725
0.729068
0.732976
0.736697
0.740237
0.743595
0.746774
0.74977
0.752582
0.755204
0.75763
0.759853
0.761861
0.76365
0.765219
0.766554
0.767646
0.768481
0.769077
0.769472
0.769714
0.769852
0.769927
0.769965
0.769983
0.769992
0.769997
0.769998
0.769999
0.77
0.77
0.77
0.77
0.77
0.77
0.77
0.77
0.77
0.77
0.77
2.27354e-06
9.93647e-06
2.28281e-05
4.44451e-05
8.0517e-05
0.000140321
0.000238671
0.000398841
0.000656715
0.00106642
0.00170753
0.00269349
0.00418018
0.00637231
0.00952424
0.0139309
0.0199058
0.0277472
0.0376991
0.0499176
0.0644525
0.0812479
0.100157
0.120967
0.143417
0.167224
0.192095
0.217739
0.243877
0.270246
0.296608
0.322747
0.348475
0.373635
0.398092
0.421739
0.444491
0.466284
0.487074
0.506831
0.525547
0.543224
0.559876
0.575523
0.590194
0.603922
0.616747
0.628707
0.639847
0.650209
0.659837
0.668773
0.677061
0.684743
0.691857
0.698442
0.704515
0.709984
0.715216
0.720057
0.724538
0.728611
0.732521
0.736247
0.739795
0.743166
0.746359
0.749373
0.752206
0.754852
0.757306
0.75956
0.761598
0.763434
0.765042
0.766411
0.767527
0.76839
0.769014
0.769433
0.769691
0.76984