/*--------------------------------*- C++ -*----------------------------------*\
  =========                 |
  \\      /  F ield         | OpenFOAM: The Open Source CFD Toolbox
   \\    /   O peration     | Website:  https://openfoam.org
    \\  /    A nd           | Version:  8
     \\/     M anipulation  |
\*---------------------------------------------------------------------------*/
FoamFile
{
    version     2.0;
    format      ascii;
    class       volScalarField;
    location    "660/fluid";
    object      O2;
}
// * * * * * * * * * * * * * * * * * * * * * * * * * * * * * * * * * * * * * //

dimensions      [0 0 0 0 0 0 0];

internalField   nonuniform List<scalar> 
4000
(
4.55424e-10
1.98852e-09
4.55889e-09
8.84801e-09
1.59642e-08
2.7689e-08
4.68462e-08
7.78386e-08
1.27396e-07
2.05559e-07
3.26871e-07
5.11658e-07
7.87118e-07
1.18788e-06
1.75448e-06
2.52999e-06
3.55419e-06
4.85618e-06
6.44756e-06
8.31846e-06
1.04378e-05
1.27574e-05
1.52177e-05
1.77542e-05
2.03022e-05
2.28004e-05
2.51937e-05
2.74341e-05
2.94819e-05
3.13067e-05
3.28886e-05
3.42218e-05
3.53208e-05
3.62302e-05
3.70384e-05
3.78911e-05
3.90048e-05
4.06767e-05
4.3296e-05
4.73597e-05
5.35016e-05
6.2537e-05
7.55216e-05
9.38288e-05
0.000119251
0.000154133
0.000201465
0.000265253
0.000350951
0.000465533
0.000618178
0.000820953
0.0010897
0.00144518
0.00191466
0.00253389
0.0033498
0.0044098
0.00578728
0.00764761
0.0100961
0.0133267
0.0181932
0.0346514
0.0513147
0.0679236
0.0842758
0.100212
0.115606
0.130353
0.144364
0.157562
0.169871
0.18116
0.191473
0.200647
0.208585
0.21519
0.220388
0.22419
0.226735
0.228285
0.22915
0.229596
0.229814
0.229916
0.229963
0.229984
0.229993
0.229997
0.229999
0.229999
0.23
0.23
0.23
0.23
0.23
0.23
0.23
0.23
4.62989e-10
2.02299e-09
4.64385e-09
9.02816e-09
1.63208e-08
2.83638e-08
4.80769e-08
8.00101e-08
1.31118e-07
2.11747e-07
3.36806e-07
5.26927e-07
8.09086e-07
1.21935e-06
1.79845e-06
2.5898e-06
3.63371e-06
4.96015e-06
6.58186e-06
8.49026e-06
1.06554e-05
1.30294e-05
1.55528e-05
1.81601e-05
2.07849e-05
2.33641e-05
2.58403e-05
2.81632e-05
3.02912e-05
3.21918e-05
3.38436e-05
3.52399e-05
3.6395e-05
3.73546e-05
3.82101e-05
3.91132e-05
4.02896e-05
4.20489e-05
4.47949e-05
4.90408e-05
5.54365e-05
6.48119e-05
7.82358e-05
9.70923e-05
0.000123183
0.000158752
0.000206897
0.000271897
0.000358913
0.00047495
0.000629206
0.000833751
0.00110442
0.00146199
0.0019337
0.00255531
0.00337381
0.00443624
0.00581633
0.00768113
0.0101358
0.013374
0.0195273
0.0360943
0.0528425
0.0695195
0.0859272
0.101908
0.117336
0.132104
0.146123
0.159312
0.171591
0.182822
0.193042
0.20208
0.209834
0.216211
0.221153
0.224704
0.22704
0.228445
0.229225
0.229628
0.229827
0.229921
0.229965
0.229984
0.229993
0.229997
0.229999
0.229999
0.23
0.23
0.23
0.23
0.23
0.23
0.23
0.23
4.73237e-10
2.06813e-09
4.74892e-09
9.23541e-09
1.66986e-08
2.90166e-08
4.91478e-08
8.17635e-08
1.33963e-07
2.16313e-07
3.44122e-07
5.38874e-07
8.29662e-07
1.25075e-06
1.84385e-06
2.65349e-06
3.72127e-06
5.07868e-06
6.74014e-06
8.69874e-06
1.09258e-05
1.33745e-05
1.5985e-05
1.86911e-05
2.1425e-05
2.41213e-05
2.67201e-05
2.91682e-05
3.1421e-05
3.34433e-05
3.52113e-05
3.67164e-05
3.79721e-05
3.90255e-05
3.99719e-05
4.0972e-05
4.22652e-05
4.41803e-05
4.71444e-05
5.16963e-05
5.85122e-05
6.84476e-05
8.25934e-05
0.000102356
0.000129425
0.000166219
0.000216131
0.000283014
0.000372225
0.000490795
0.000647951
0.000855793
0.0011302
0.00149197
0.00196845
0.00259552
0.00342042
0.00448943
0.00587819
0.00775603
0.0102284
0.013495
0.0218855
0.0385286
0.0553454
0.0720767
0.0885205
0.104517
0.119936
0.13467
0.148625
0.161716
0.173861
0.184938
0.194937
0.203712
0.211169
0.21723
0.221866
0.225155
0.227297
0.228578
0.229288
0.229657
0.229839
0.229926
0.229967
0.229985
0.229994
0.229997
0.229999
0.23
0.23
0.23
0.23
0.23
0.23
0.23
0.23
0.23
4.83458e-10
2.11273e-09
4.85175e-09
9.43813e-09
1.70757e-08
2.97074e-08
5.04313e-08
8.40049e-08
1.37688e-07
2.22269e-07
3.53302e-07
5.52424e-07
8.48442e-07
1.27766e-06
1.88281e-06
2.70974e-06
3.80181e-06
5.19254e-06
6.89856e-06
8.91494e-06
1.12145e-05
1.37511e-05
1.64649e-05
1.92884e-05
2.21522e-05
2.49884e-05
2.77343e-05
3.03338e-05
3.27392e-05
3.49121e-05
3.68262e-05
3.84705e-05
3.98578e-05
4.10366e-05
4.2108e-05
4.32432e-05
4.46992e-05
4.68292e-05
5.00895e-05
5.5052e-05
6.24283e-05
7.31104e-05
8.81959e-05
0.000108985
0.000137445
0.000176256
0.00022834
0.000297835
0.000390165
0.000512442
0.00067399
0.000887028
0.00116757
0.00153663
0.00202177
0.00265923
0.00349677
0.0045785
0.00598295
0.00788395
0.0103905
0.0137055
0.0248171
0.041489
0.0583345
0.0750836
0.0915262
0.107497
0.122861
0.137509
0.151344
0.164278
0.176228
0.187113
0.196846
0.205329
0.212477
0.218224
0.222566
0.225606
0.227561
0.22872
0.229359
0.229691
0.229855
0.229933
0.22997
0.229987
0.229994
0.229997
0.229999
0.23
0.23
0.23
0.23
0.23
0.23
0.23
0.23
0.23
4.94632e-10
2.16196e-09
4.96622e-09
9.66346e-09
1.74857e-08
3.04139e-08
5.15842e-08
8.58688e-08
1.40682e-07
2.27034e-07
3.608e-07
5.6408e-07
8.66341e-07
1.30483e-06
1.92349e-06
2.76981e-06
3.88908e-06
5.3171e-06
7.07281e-06
9.15344e-06
1.15334e-05
1.41674e-05
1.69954e-05
1.99491e-05
2.29572e-05
2.59496e-05
2.88605e-05
3.16308e-05
3.42094e-05
3.65548e-05
3.86376e-05
4.04446e-05
4.19879e-05
4.33181e-05
4.45432e-05
4.58476e-05
4.75094e-05
4.991e-05
5.35398e-05
5.90075e-05
6.70654e-05
7.85966e-05
9.46848e-05
0.00011693
0.000147464
0.000188545
0.000243421
0.000316338
0.000412854
0.000540247
0.000708046
0.000928728
0.00121864
0.00159918
0.00209847
0.00275342
0.00361107
0.0047126
0.00614831
0.00809423
0.0106559
0.0140213
0.0279339
0.0445766
0.06142
0.0781653
0.0945862
0.110509
0.125795
0.140332
0.154025
0.166786
0.178508
0.189163
0.198631
0.206825
0.21367
0.219118
0.223186
0.225998
0.227789
0.228842
0.22942
0.22972
0.229868
0.229939
0.229972
0.229988
0.229995
0.229998
0.229999
0.23
0.23
0.23
0.23
0.23
0.23
0.23
0.23
0.23
5.04255e-10
2.2039e-09
5.06207e-09
9.84871e-09
1.78181e-08
3.09866e-08
5.25464e-08
8.74605e-08
1.43286e-07
2.31252e-07
3.67566e-07
5.74826e-07
8.83226e-07
1.33105e-06
1.96367e-06
2.83042e-06
3.97889e-06
5.44744e-06
7.25762e-06
9.40894e-06
1.18775e-05
1.46187e-05
1.75725e-05
2.06695e-05
2.38364e-05
2.70008e-05
3.00939e-05
3.30532e-05
3.58244e-05
3.83625e-05
4.06349e-05
4.26262e-05
4.43479e-05
4.58536e-05
4.72601e-05
4.87675e-05
5.06787e-05
5.34086e-05
5.74875e-05
6.35524e-05
7.2341e-05
8.48214e-05
0.000102288
0.000126489
0.000159199
0.000203007
0.000261288
0.000338454
0.000440275
0.000574306
0.000750433
0.000981587
0.00128468
0.00168185
0.00220204
0.00288318
0.00377387
0.00491394
0.00640025
0.00840112
0.0110191
0.0144074
0.0305525
0.0473113
0.0642427
0.0810346
0.0974583
0.113341
0.12855
0.142974
0.156522
0.169111
0.180623
0.191057
0.200263
0.208177
0.214741
0.219915
0.223736
0.226347
0.227992
0.228952
0.229476
0.229747
0.229881
0.229945
0.229975
0.229989
0.229995
0.229998
0.229999
0.23
0.23
0.23
0.23
0.23
0.23
0.23
0.23
0.23
5.12986e-10
2.24197e-09
5.14922e-09
1.00178e-08
1.81235e-08
3.15185e-08
5.34525e-08
8.89819e-08
1.45812e-07
2.35403e-07
3.74321e-07
5.85702e-07
9.00535e-07
1.35823e-06
2.00574e-06
2.89441e-06
4.07434e-06
5.58666e-06
7.45577e-06
9.68367e-06
1.22483e-05
1.5106e-05
1.81965e-05
2.14495e-05
2.47898e-05
2.81423e-05
3.14353e-05
3.46029e-05
3.75869e-05
4.03388e-05
4.28227e-05
4.50209e-05
4.69445e-05
4.86509e-05
5.02672e-05
5.2012e-05
5.42153e-05
5.73281e-05
6.18921e-05
6.8535e-05
7.81268e-05
9.18965e-05
0.000111139
0.000137299
0.000172475
0.000219384
0.000281566
0.000363652
0.000471709
0.000613686
0.000800001
0.00104431
0.00136449
0.001784
0.00233355
0.00305336
0.00399579
0.00519233
0.00680611
0.00891803
0.0116765
0.0152044
0.0322122
0.0494584
0.0666589
0.0835841
0.100051
0.115912
0.131049
0.145363
0.158766
0.171178
0.18246
0.192672
0.201669
0.209361
0.215677
0.220607
0.22421
0.226645
0.228165
0.229045
0.229524
0.22977
0.229891
0.22995
0.229977
0.22999
0.229996
0.229998
0.229999
0.23
0.23
0.23
0.23
0.23
0.23
0.23
0.23
0.23
5.21271e-10
2.27813e-09
5.23219e-09
1.01793e-08
1.84166e-08
3.20315e-08
5.43319e-08
9.04683e-08
1.48298e-07
2.39521e-07
3.81079e-07
5.96679e-07
9.18165e-07
1.38618e-06
2.04936e-06
2.96128e-06
4.17475e-06
5.73395e-06
7.66635e-06
9.9767e-06
1.2645e-05
1.56285e-05
1.88671e-05
2.22894e-05
2.58184e-05
2.93764e-05
3.28885e-05
3.62851e-05
3.95043e-05
4.24937e-05
4.52138e-05
4.76444e-05
4.97967e-05
5.1733e-05
5.35925e-05
5.56144e-05
5.81595e-05
6.16845e-05
6.67439e-05
7.41594e-05
8.49889e-05
0.000100152
0.000121003
0.000149233
0.000187026
0.000237222
0.000303532
0.000390819
0.000505469
0.000655868
0.000853044
0.00111152
0.00145042
0.00189506
0.00247892
0.00324657
0.00425562
0.00555008
0.00731549
0.00965601
0.0127768
0.0168874
0.034188
0.0516422
0.0689701
0.0859544
0.102424
0.118243
0.133299
0.1475
0.160764
0.173018
0.184149
0.19416
0.202935
0.2104
0.216491
0.221202
0.224614
0.226899
0.228312
0.229125
0.229564
0.22979
0.229901
0.229954
0.229979
0.229991
0.229996
0.229998
0.229999
0.23
0.23
0.23
0.23
0.23
0.23
0.23
0.23
0.23
5.29368e-10
2.31351e-09
5.31352e-09
1.0338e-08
1.87056e-08
3.25395e-08
5.52067e-08
9.1955e-08
1.50798e-07
2.43689e-07
3.87962e-07
6.07931e-07
9.36344e-07
1.41515e-06
2.09481e-06
3.03127e-06
4.28025e-06
5.88922e-06
7.88899e-06
1.02873e-05
1.30664e-05
1.6185e-05
1.95831e-05
2.31885e-05
2.69225e-05
3.07047e-05
3.4457e-05
3.81062e-05
4.1586e-05
4.484e-05
4.78247e-05
5.05172e-05
5.29292e-05
5.51298e-05
5.72764e-05
5.96193e-05
6.25047e-05
6.64395e-05
7.21651e-05
8.06082e-05
9.2549e-05
0.000109119
0.000131718
0.000162114
0.000202581
0.000256073
0.000326446
0.000418756
0.000539631
0.000697781
0.000904655
0.00117533
0.00152967
0.00199394
0.00260294
0.0034029
0.00444714
0.00579294
0.00762869
0.01006
0.0132976
0.0187529
0.0362108
0.0537615
0.0711353
0.0881215
0.104555
0.120303
0.135259
0.149333
0.162446
0.17453
0.185469
0.195283
0.203871
0.211171
0.217138
0.221701
0.224957
0.227115
0.228437
0.229192
0.229599
0.229807
0.229909
0.229958
0.229981
0.229991
0.229996
0.229998
0.229999
0.23
0.23
0.23
0.23
0.23
0.23
0.23
0.23
0.23
5.37359e-10
2.34845e-09
5.39392e-09
1.04952e-08
1.89925e-08
3.30451e-08
5.60803e-08
9.34449e-08
1.53315e-07
2.47901e-07
3.94949e-07
6.19405e-07
9.54969e-07
1.44497e-06
2.14178e-06
3.10388e-06
4.39008e-06
6.05138e-06
8.12221e-06
1.06136e-05
1.35105e-05
1.67732e-05
2.03423e-05
2.41449e-05
2.8101e-05
3.21276e-05
3.61436e-05
4.00717e-05
4.38416e-05
4.7392e-05
5.0675e-05
5.36637e-05
5.63679e-05
5.88587e-05
6.13032e-05
6.39654e-05
6.72557e-05
7.17933e-05
7.84161e-05
8.78047e-05
0.000100936
0.000118984
0.000143395
0.000175995
0.000219132
0.000275846
0.000350103
0.000447086
0.000573578
0.000738465
0.000953397
0.00123366
0.00159934
0.00207685
0.00270101
0.0035178
0.00457848
0.00593715
0.00778143
0.0102067
0.0134035
0.0207446
0.0382362
0.0558024
0.0731712
0.0901308
0.106516
0.122196
0.137065
0.151033
0.164014
0.175932
0.18679
0.19647
0.204892
0.211992
0.217721
0.222129
0.225253
0.227299
0.228544
0.22925
0.229628
0.229821
0.229916
0.229961
0.229982
0.229992
0.229997
0.229998
0.229999
0.23
0.23
0.23
0.23
0.23
0.23
0.23
0.23
0.23
5.45243e-10
2.38293e-09
5.47335e-09
1.06507e-08
1.92768e-08
3.35473e-08
5.69502e-08
9.49331e-08
1.55836e-07
2.52137e-07
4.02001e-07
6.31028e-07
9.73902e-07
1.47539e-06
2.18986e-06
3.17844e-06
4.50321e-06
6.21892e-06
8.36391e-06
1.09529e-05
1.39738e-05
1.73889e-05
2.114e-05
2.51541e-05
2.93497e-05
3.36422e-05
3.79473e-05
4.21843e-05
4.62786e-05
5.01645e-05
5.379e-05
5.71267e-05
6.01888e-05
6.30379e-05
6.5795e-05
6.87863e-05
7.26578e-05
7.80188e-05
8.54781e-05
9.5908e-05
0.000110323
0.000129933
0.000156228
0.000191084
0.000236908
0.000296811
0.000374841
0.000476271
0.000607981
0.000778957
0.00100094
0.00128929
0.00166412
0.00215179
0.00278695
0.00361505
0.00468502
0.00605178
0.00790239
0.010327
0.0135147
0.0226294
0.0401131
0.0576562
0.0749868
0.0918941
0.108209
0.123804
0.138579
0.152445
0.165332
0.177193
0.187931
0.197476
0.205751
0.212697
0.218274
0.222497
0.225502
0.227456
0.228633
0.229298
0.229653
0.229833
0.229921
0.229964
0.229984
0.229993
0.229997
0.229999
0.229999
0.23
0.23
0.23
0.23
0.23
0.23
0.23
0.23
0.23
5.52953e-10
2.41665e-09
5.55109e-09
1.0803e-08
1.95558e-08
3.4041e-08
5.78074e-08
9.6403e-08
1.58334e-07
2.56345e-07
4.09027e-07
6.42645e-07
9.92885e-07
1.50598e-06
2.23836e-06
3.2539e-06
4.61808e-06
6.3896e-06
8.611e-06
1.1301e-05
1.4451e-05
1.80259e-05
2.19689e-05
2.62077e-05
3.06602e-05
3.52403e-05
3.98613e-05
4.44394e-05
4.88959e-05
5.31601e-05
5.7174e-05
6.09018e-05
6.43484e-05
6.75845e-05
7.07959e-05
7.44993e-05
7.90641e-05
8.51512e-05
9.35332e-05
0.000105106
0.000120909
0.000142186
0.000170463
0.000207664
0.000256249
0.000319392
0.000401211
0.000507051
0.000643872
0.000820729
0.00104943
0.00134536
0.00172862
0.00222553
0.00287031
0.00370783
0.00478687
0.0061629
0.00802003
0.0104471
0.0136306
0.0242738
0.0417612
0.0592869
0.0765777
0.0934219
0.109666
0.125195
0.139903
0.153706
0.166531
0.178288
0.188913
0.198335
0.206481
0.213294
0.218738
0.222838
0.22571
0.227586
0.228709
0.229338
0.229673
0.229843
0.229926
0.229966
0.229985
0.229993
0.229997
0.229999
0.229999
0.23
0.23
0.23
0.23
0.23
0.23
0.23
0.23
0.23
5.60378e-10
2.44915e-09
5.62604e-09
1.09501e-08
1.98253e-08
3.45188e-08
5.86386e-08
9.78316e-08
1.60767e-07
2.60454e-07
4.15909e-07
6.54054e-07
1.01158e-06
1.53621e-06
2.28644e-06
3.32893e-06
4.7327e-06
6.56053e-06
8.8594e-06
1.16524e-05
1.49349e-05
1.86749e-05
2.28179e-05
2.72927e-05
3.20177e-05
3.69058e-05
4.18692e-05
4.68216e-05
5.16821e-05
5.63781e-05
6.08517e-05
6.50712e-05
6.90062e-05
7.2742e-05
7.65963e-05
8.0928e-05
8.62459e-05
9.32315e-05
0.000102691
0.00011555
0.000132878
0.000155952
0.000186338
0.000226007
0.000277474
0.000343974
0.00042969
0.000540041
0.000682055
0.000864856
0.0011003
0.00140382
0.00179546
0.0023011
0.00295501
0.00380316
0.00489229
0.00627672
0.00814068
0.0105703
0.0137471
0.0256851
0.0431823
0.0606951
0.077953
0.0947707
0.110991
0.126474
0.14112
0.154844
0.16757
0.179227
0.18975
0.199063
0.207097
0.213794
0.219124
0.223117
0.2259
0.227692
0.22877
0.229372
0.229691
0.229851
0.22993
0.229968
0.229985
0.229993
0.229997
0.229999
0.229999
0.23
0.23
0.23
0.23
0.23
0.23
0.23
0.23
0.23
5.67382e-10
2.47981e-09
5.69678e-09
1.10889e-08
2.00802e-08
3.49713e-08
5.94271e-08
9.91896e-08
1.63085e-07
2.64379e-07
4.22498e-07
6.65009e-07
1.02959e-06
1.5654e-06
2.33303e-06
3.40189e-06
4.84455e-06
6.728e-06
9.10384e-06
1.19999e-05
1.54157e-05
1.93234e-05
2.36711e-05
2.839e-05
3.33994e-05
3.86128e-05
4.39413e-05
4.9297e-05
5.45957e-05
5.97597e-05
6.47243e-05
6.94531e-05
7.39198e-05
7.82872e-05
8.29176e-05
8.80842e-05
9.43347e-05
0.00010239
0.000113089
0.000127386
0.000146384
0.000171395
0.000204028
0.000246304
0.000300793
0.000370794
0.000460555
0.000575565
0.000722921
0.000911816
0.00115414
0.00146522
0.001865
0.00237986
0.00304465
0.00390339
0.00500142
0.00639434
0.00826535
0.0106979
0.0138597
0.0268758
0.0443935
0.0619015
0.0791549
0.0959455
0.112118
0.127547
0.142132
0.155787
0.168437
0.180013
0.19045
0.199673
0.207611
0.21421
0.219443
0.223346
0.226052
0.227787
0.22882
0.229398
0.229704
0.229858
0.229933
0.229969
0.229986
0.229994
0.229997
0.229999
0.229999
0.23
0.23
0.23
0.23
0.23
0.23
0.23
0.23
0.23
5.73807e-10
2.50793e-09
5.76171e-09
1.12165e-08
2.03146e-08
3.5388e-08
6.01544e-08
1.00444e-07
1.65231e-07
2.68021e-07
4.28627e-07
6.75226e-07
1.04643e-06
1.59279e-06
2.37688e-06
3.47081e-06
4.95063e-06
6.88751e-06
9.33775e-06
1.23341e-05
1.58809e-05
1.99544e-05
2.4507e-05
2.94727e-05
3.47734e-05
4.03243e-05
4.60375e-05
5.18253e-05
5.76028e-05
6.3291e-05
6.88223e-05
7.41016e-05
7.92804e-05
8.45111e-05
8.99801e-05
9.61038e-05
0.000103434
0.000112713
0.000124802
0.000140682
0.000161487
0.000188567
0.000223579
0.000268594
0.00032624
0.000399876
0.000493814
0.000613615
0.000766401
0.000961332
0.00121022
0.0015286
0.00193709
0.0024618
0.00313621
0.00400469
0.0051112
0.00651181
0.00838869
0.0108228
0.0139691
0.0278738
0.0454133
0.0629245
0.0801584
0.0969189
0.113052
0.128435
0.142967
0.156565
0.169152
0.180661
0.191028
0.200175
0.208034
0.214552
0.219704
0.223532
0.226175
0.227863
0.228863
0.22942
0.229715
0.229863
0.229936
0.22997
0.229987
0.229994
0.229997
0.229999
0.23
0.23
0.23
0.23
0.23
0.23
0.23
0.23
0.23
0.23
5.79487e-10
2.5328e-09
5.81914e-09
1.13294e-08
2.05223e-08
3.57576e-08
6.08004e-08
1.01561e-07
1.67144e-07
2.71275e-07
4.34115e-07
6.84398e-07
1.06159e-06
1.61753e-06
2.4166e-06
3.53348e-06
5.04747e-06
7.03378e-06
9.55329e-06
1.26436e-05
1.63143e-05
2.05464e-05
2.52968e-05
3.05036e-05
3.60929e-05
4.19834e-05
4.80907e-05
5.43302e-05
6.06201e-05
6.68847e-05
7.30637e-05
7.91194e-05
8.5112e-05
9.11846e-05
9.76398e-05
0.000104885
0.000113458
0.000124116
0.000137736
0.000155326
0.000178053
0.000207312
0.000244806
0.000292666
0.000353576
0.000430942
0.000529112
0.000653626
0.000811642
0.00101246
0.00126842
0.00159497
0.00201176
0.00254474
0.00322755
0.00410406
0.00521692
0.00662208
0.00850077
0.0109326
0.0140659
0.0286802
0.0462389
0.0637538
0.080975
0.0977113
0.113812
0.129156
0.143645
0.157195
0.169731
0.181186
0.191495
0.20058
0.208375
0.214826
0.219913
0.223681
0.226273
0.227922
0.228898
0.229439
0.229724
0.229868
0.229938
0.229971
0.229987
0.229994
0.229997
0.229999
0.23
0.23
0.23
0.23
0.23
0.23
0.23
0.23
0.23
0.23
5.84259e-10
2.5537e-09
5.86742e-09
1.14244e-08
2.06971e-08
3.60691e-08
6.13455e-08
1.02504e-07
1.68764e-07
2.74035e-07
4.38781e-07
6.92213e-07
1.07454e-06
1.63871e-06
2.45074e-06
3.58753e-06
5.13131e-06
7.16094e-06
9.74156e-06
1.29155e-05
1.66971e-05
2.10726e-05
2.60035e-05
3.14332e-05
3.72926e-05
4.35053e-05
4.99922e-05
5.66738e-05
6.34739e-05
7.03221e-05
7.71472e-05
8.40012e-05
9.08764e-05
9.79579e-05
0.000105578
0.000114119
0.000124088
0.000136252
0.000151508
0.00017089
0.000195605
0.000227091
0.0002671
0.000317805
0.00038193
0.000462918
0.000565202
0.000694454
0.000858136
0.00106555
0.00132841
0.00166209
0.0020864
0.00262689
0.00331663
0.00419853
0.00531384
0.00671555
0.00858094
0.010982
0.0140469
0.0293132
0.0468968
0.0644133
0.0816232
0.0983391
0.114413
0.129726
0.144179
0.15769
0.170186
0.181596
0.19186
0.200897
0.208641
0.21504
0.220076
0.223796
0.226348
0.227968
0.228924
0.229453
0.229732
0.229871
0.22994
0.229972
0.229987
0.229994
0.229998
0.229999
0.23
0.23
0.23
0.23
0.23
0.23
0.23
0.23
0.23
0.23
5.87975e-10
2.56997e-09
5.90503e-09
1.14984e-08
2.08335e-08
3.63122e-08
6.17715e-08
1.03243e-07
1.70033e-07
2.76201e-07
4.4245e-07
6.98372e-07
1.08477e-06
1.65549e-06
2.47786e-06
3.63059e-06
5.19835e-06
7.26302e-06
9.89335e-06
1.31357e-05
1.70089e-05
2.15036e-05
2.65864e-05
3.22055e-05
3.82974e-05
4.47917e-05
5.16159e-05
5.86981e-05
6.59705e-05
7.33733e-05
8.08789e-05
8.84741e-05
9.62371e-05
0.000104382
0.000113256
0.000123181
0.000134607
0.000148303
0.000165183
0.000186315
0.000212943
0.000246548
0.000288934
0.000342337
0.000409556
0.000494237
0.00060086
0.000735168
0.000904307
0.00111761
0.00138701
0.00172778
0.00215957
0.0027077
0.00340481
0.00429318
0.00541295
0.00681608
0.00867856
0.0110705
0.0141153
0.0297721
0.0473841
0.0649078
0.0821114
0.098812
0.114865
0.130152
0.144578
0.15806
0.170523
0.181901
0.19213
0.201131
0.208837
0.215197
0.220195
0.22388
0.226403
0.228002
0.228943
0.229463
0.229737
0.229874
0.229941
0.229973
0.229988
0.229994
0.229998
0.229999
0.23
0.23
0.23
0.23
0.23
0.23
0.23
0.23
0.23
0.23
5.90512e-10
2.58108e-09
5.9307e-09
1.15489e-08
2.09265e-08
3.64782e-08
6.20624e-08
1.03747e-07
1.70901e-07
2.77683e-07
4.44963e-07
7.02596e-07
1.0918e-06
1.66704e-06
2.49656e-06
3.66037e-06
5.24485e-06
7.33407e-06
9.9994e-06
1.32902e-05
1.72286e-05
2.18089e-05
2.70015e-05
3.27591e-05
3.90226e-05
4.57274e-05
5.28073e-05
6.01985e-05
6.78431e-05
7.56937e-05
8.37244e-05
9.19521e-05
0.000100485
0.000109584
0.00011958
0.000130842
0.00014366
0.00015877
0.000177116
0.000199804
0.000228132
0.00026365
0.00030823
0.000364178
0.000434374
0.000522357
0.000632686
0.000771129
0.000945006
0.00116366
0.001439
0.0017863
0.00222509
0.00278047
0.00348475
0.00437958
0.00550403
0.00690884
0.00876796
0.011148
0.0141644
0.0300741
0.047714
0.0652464
0.0824464
0.0991359
0.115173
0.130442
0.144847
0.158308
0.170749
0.182104
0.192309
0.201285
0.208966
0.215301
0.220272
0.223935
0.226439
0.228023
0.228955
0.22947
0.22974
0.229876
0.229942
0.229973
0.229988
0.229995
0.229998
0.229999
0.23
0.23
0.23
0.23
0.23
0.23
0.23
0.23
0.23
0.23
5.9178e-10
2.58663e-09
5.9435e-09
1.15741e-08
2.09726e-08
3.65602e-08
6.22057e-08
1.03995e-07
1.71326e-07
2.78408e-07
4.4619e-07
7.04657e-07
1.09523e-06
1.67268e-06
2.5057e-06
3.67494e-06
5.26766e-06
7.36904e-06
1.00518e-05
1.33669e-05
1.73383e-05
2.19621e-05
2.72111e-05
3.30401e-05
3.93932e-05
4.62088e-05
5.34247e-05
6.09818e-05
6.88282e-05
7.69238e-05
8.52523e-05
9.38458e-05
0.000102833
0.000112476
0.000123169
0.000135347
0.000149385
0.000165598
0.000185002
0.00020877
0.000238252
0.000275038
0.000321039
0.000378598
0.000450617
0.00054073
0.000653524
0.000794803
0.000971937
0.0011943
0.00147384
0.0018258
0.0022697
0.00283051
0.0035403
0.0044403
0.00556867
0.00697505
0.00883135
0.0112004
0.0141902
0.0302231
0.047887
0.0654266
0.0826243
0.0993066
0.115334
0.130591
0.144985
0.158433
0.170862
0.182205
0.192397
0.201361
0.209028
0.21535
0.220309
0.22396
0.226455
0.228033
0.228961
0.229473
0.229742
0.229876
0.229942
0.229973
0.229988
0.229995
0.229998
0.229999
0.23
0.23
0.23
0.23
0.23
0.23
0.23
0.23
0.23
0.23
5.91783e-10
2.58664e-09
5.94352e-09
1.15741e-08
2.09727e-08
3.65604e-08
6.2206e-08
1.03995e-07
1.71327e-07
2.7841e-07
4.46193e-07
7.04661e-07
1.09523e-06
1.67269e-06
2.50571e-06
3.67496e-06
5.26769e-06
7.36909e-06
1.00519e-05
1.3367e-05
1.73384e-05
2.19623e-05
2.72112e-05
3.30403e-05
3.93934e-05
4.6209e-05
5.34248e-05
6.09818e-05
6.8828e-05
7.69235e-05
8.52519e-05
9.3845e-05
0.000102832
0.000112474
0.000123168
0.000135345
0.000149384
0.000165597
0.000185002
0.00020877
0.000238252
0.000275038
0.00032104
0.000378599
0.000450618
0.000540731
0.000653525
0.000794805
0.000971939
0.0011943
0.00147384
0.00182581
0.00226971
0.00283052
0.0035403
0.00444031
0.00556868
0.00697506
0.00883136
0.0112004
0.0141902
0.0302232
0.0478871
0.0654267
0.0826244
0.0993067
0.115334
0.130591
0.144985
0.158433
0.170862
0.182205
0.192397
0.201361
0.209028
0.21535
0.220309
0.22396
0.226455
0.228033
0.228961
0.229473
0.229742
0.229876
0.229942
0.229973
0.229988
0.229995
0.229998
0.229999
0.23
0.23
0.23
0.23
0.23
0.23
0.23
0.23
0.23
0.23
5.90518e-10
2.58111e-09
5.93077e-09
1.15491e-08
2.09268e-08
3.64787e-08
6.20633e-08
1.03749e-07
1.70903e-07
2.77687e-07
4.44969e-07
7.02607e-07
1.09182e-06
1.66707e-06
2.4966e-06
3.66043e-06
5.24494e-06
7.3342e-06
9.99958e-06
1.32905e-05
1.7229e-05
2.18094e-05
2.70021e-05
3.27598e-05
3.90234e-05
4.57282e-05
5.28079e-05
6.01987e-05
6.78422e-05
7.56913e-05
8.37242e-05
9.19508e-05
0.00010048
0.000109579
0.000119576
0.000130838
0.000143656
0.000158767
0.000177113
0.000199801
0.00022813
0.00026365
0.000308231
0.00036418
0.000434378
0.000522361
0.000632691
0.000771135
0.000945013
0.00116366
0.00143901
0.00178631
0.0022251
0.00278049
0.00348477
0.00437961
0.00550406
0.00690887
0.008768
0.011148
0.0141645
0.0300743
0.0477142
0.0652466
0.0824465
0.099136
0.115173
0.130442
0.144848
0.158308
0.170749
0.182104
0.192309
0.201285
0.208966
0.215301
0.220272
0.223934
0.226439
0.228023
0.228955
0.22947
0.22974
0.229876
0.229942
0.229973
0.229988
0.229995
0.229998
0.229999
0.23
0.23
0.23
0.23
0.23
0.23
0.23
0.23
0.23
0.23
5.87985e-10
2.57001e-09
5.90513e-09
1.14986e-08
2.08338e-08
3.63128e-08
6.17725e-08
1.03244e-07
1.70036e-07
2.76205e-07
4.42456e-07
6.98382e-07
1.08479e-06
1.65551e-06
2.47789e-06
3.63063e-06
5.19841e-06
7.2631e-06
9.89346e-06
1.31359e-05
1.70091e-05
2.15039e-05
2.65868e-05
3.22062e-05
3.82985e-05
4.47936e-05
5.1619e-05
5.87035e-05
6.598e-05
7.33891e-05
8.08879e-05
8.84814e-05
9.62462e-05
0.00010439
0.000113263
0.000123186
0.000134612
0.000148307
0.000165187
0.000186319
0.000212947
0.000246551
0.000288937
0.000342341
0.000409561
0.000494243
0.000600869
0.000735179
0.00090432
0.00111763
0.00138703
0.0017278
0.0021596
0.00270773
0.00340485
0.00429322
0.005413
0.00681614
0.00867863
0.0110706
0.0141154
0.0297724
0.0473844
0.0649082
0.0821117
0.0988123
0.114865
0.130153
0.144578
0.15806
0.170523
0.181901
0.19213
0.201131
0.208837
0.215197
0.220195
0.22388
0.226403
0.228002
0.228943
0.229463
0.229737
0.229874
0.229941
0.229973
0.229988
0.229994
0.229998
0.229999
0.23
0.23
0.23
0.23
0.23
0.23
0.23
0.23
0.23
0.23
5.84271e-10
2.55375e-09
5.86755e-09
1.14246e-08
2.06976e-08
3.60699e-08
6.13468e-08
1.02507e-07
1.68768e-07
2.7404e-07
4.3879e-07
6.92227e-07
1.07456e-06
1.63874e-06
2.45078e-06
3.58758e-06
5.13139e-06
7.16104e-06
9.74169e-06
1.29157e-05
1.66973e-05
2.10728e-05
2.60039e-05
3.14338e-05
3.72933e-05
4.35063e-05
4.99933e-05
5.66749e-05
6.34739e-05
7.03189e-05
7.71493e-05
8.40061e-05
9.08828e-05
9.79642e-05
0.000105584
0.000114125
0.000124095
0.000136259
0.000151514
0.000170897
0.000195612
0.000227098
0.000267107
0.000317811
0.000381937
0.000462926
0.000565211
0.000694466
0.000858151
0.00106557
0.00132843
0.00166212
0.00208643
0.00262693
0.00331668
0.00419859
0.00531391
0.00671563
0.00858104
0.0109821
0.0140471
0.0293137
0.0468974
0.0644139
0.0816237
0.0983397
0.114413
0.129726
0.144179
0.157691
0.170186
0.181596
0.19186
0.200897
0.208641
0.21504
0.220076
0.223796
0.226348
0.227968
0.228924
0.229453
0.229732
0.229871
0.22994
0.229972
0.229987
0.229994
0.229998
0.229999
0.23
0.23
0.23
0.23
0.23
0.23
0.23
0.23
0.23
0.23
5.79502e-10
2.53287e-09
5.8193e-09
1.13297e-08
2.05228e-08
3.57586e-08
6.0802e-08
1.01564e-07
1.67149e-07
2.71282e-07
4.34127e-07
6.84415e-07
1.06162e-06
1.61756e-06
2.41665e-06
3.53355e-06
5.04756e-06
7.03388e-06
9.55341e-06
1.26438e-05
1.63145e-05
2.05466e-05
2.52969e-05
3.05038e-05
3.60932e-05
4.19838e-05
4.80912e-05
5.43312e-05
6.06222e-05
6.68894e-05
7.30723e-05
7.91262e-05
8.51168e-05
9.11885e-05
9.76435e-05
0.000104889
0.000113463
0.00012412
0.000137741
0.000155331
0.000178059
0.000207318
0.000244813
0.000292674
0.000353586
0.000430953
0.000529125
0.00065364
0.000811658
0.00101248
0.00126844
0.00159501
0.0020118
0.00254479
0.00322761
0.00410413
0.00521702
0.00662219
0.0085009
0.0109327
0.0140661
0.0286812
0.0462399
0.0637548
0.080976
0.0977123
0.113813
0.129157
0.143646
0.157196
0.169732
0.181186
0.191495
0.20058
0.208375
0.214826
0.219913
0.223681
0.226273
0.227922
0.228898
0.229439
0.229724
0.229868
0.229938
0.229971
0.229987
0.229994
0.229997
0.229999
0.23
0.23
0.23
0.23
0.23
0.23
0.23
0.23
0.23
0.23
5.73825e-10
2.50801e-09
5.76189e-09
1.12169e-08
2.03153e-08
3.53891e-08
6.01563e-08
1.00448e-07
1.65236e-07
2.68029e-07
4.2864e-07
6.75245e-07
1.04646e-06
1.59283e-06
2.37693e-06
3.47089e-06
4.95072e-06
6.88762e-06
9.33786e-06
1.23342e-05
1.58809e-05
1.99545e-05
2.45071e-05
2.94726e-05
3.47732e-05
4.03239e-05
4.60367e-05
5.18238e-05
5.75998e-05
6.3285e-05
6.88114e-05
7.40943e-05
7.92759e-05
8.45076e-05
8.99776e-05
9.61025e-05
0.000103434
0.000112714
0.000124805
0.000140686
0.000161491
0.000188573
0.000223585
0.000268602
0.000326249
0.000399886
0.000493828
0.000613632
0.000766421
0.000961354
0.00121025
0.00152863
0.00193714
0.00246186
0.00313628
0.00400479
0.00511133
0.00651196
0.00838888
0.0108231
0.0139694
0.0278751
0.0454148
0.0629262
0.0801603
0.0969208
0.113054
0.128436
0.142969
0.156566
0.169153
0.180661
0.191028
0.200175
0.208034
0.214552
0.219704
0.223532
0.226175
0.227863
0.228863
0.22942
0.229715
0.229863
0.229936
0.22997
0.229987
0.229994
0.229997
0.229999
0.23
0.23
0.23
0.23
0.23
0.23
0.23
0.23
0.23
0.23
5.67402e-10
2.47989e-09
5.69698e-09
1.10893e-08
2.00809e-08
3.49726e-08
5.94293e-08
9.91932e-08
1.63091e-07
2.64388e-07
4.22512e-07
6.65031e-07
1.02962e-06
1.56545e-06
2.33309e-06
3.40197e-06
4.84464e-06
6.72811e-06
9.10395e-06
1.2e-05
1.54158e-05
1.93234e-05
2.3671e-05
2.83898e-05
3.3399e-05
3.86121e-05
4.39402e-05
4.92955e-05
5.45936e-05
5.97575e-05
6.47232e-05
6.94497e-05
7.39098e-05
7.82718e-05
8.28993e-05
8.80697e-05
9.43249e-05
0.000102384
0.000113087
0.000127386
0.000146386
0.000171398
0.000204033
0.00024631
0.000300801
0.000370804
0.000460568
0.000575581
0.000722941
0.000911842
0.00115417
0.00146526
0.00186504
0.00237992
0.00304474
0.0039035
0.00500156
0.00639453
0.0082656
0.0106983
0.0138601
0.026878
0.0443963
0.0619049
0.0791589
0.0959498
0.112121
0.12755
0.142134
0.155788
0.168438
0.180013
0.19045
0.199673
0.207611
0.21421
0.219443
0.223346
0.226052
0.227787
0.22882
0.229398
0.229704
0.229858
0.229933
0.229969
0.229986
0.229994
0.229997
0.229999
0.229999
0.23
0.23
0.23
0.23
0.23
0.23
0.23
0.23
0.23
5.60399e-10
2.44924e-09
5.62625e-09
1.09505e-08
1.98261e-08
3.45201e-08
5.86408e-08
9.78354e-08
1.60773e-07
2.60464e-07
4.15925e-07
6.54078e-07
1.01162e-06
1.53626e-06
2.28651e-06
3.32902e-06
4.7328e-06
6.56065e-06
8.85953e-06
1.16525e-05
1.4935e-05
1.86749e-05
2.28178e-05
2.72925e-05
3.20172e-05
3.69051e-05
4.1868e-05
4.68197e-05
5.16789e-05
5.63725e-05
6.08412e-05
6.5053e-05
6.89782e-05
7.26907e-05
7.64948e-05
8.0876e-05
8.62193e-05
9.32182e-05
0.000102685
0.000115548
0.000132879
0.000155955
0.000186343
0.000226013
0.000277481
0.000343983
0.000429702
0.000540057
0.000682074
0.00086488
0.00110033
0.00140386
0.0017955
0.00230116
0.00295509
0.00380326
0.00489242
0.00627689
0.00814092
0.0105706
0.0137476
0.0256877
0.0431862
0.0607011
0.0779615
0.094785
0.111
0.12648
0.141123
0.154845
0.167569
0.179226
0.189749
0.199063
0.207097
0.213794
0.219124
0.223117
0.225899
0.227692
0.22877
0.229372
0.229691
0.229851
0.22993
0.229968
0.229985
0.229993
0.229997
0.229999
0.229999
0.23
0.23
0.23
0.23
0.23
0.23
0.23
0.23
0.23
5.52974e-10
2.41675e-09
5.55131e-09
1.08035e-08
1.95565e-08
3.40424e-08
5.78098e-08
9.6407e-08
1.5834e-07
2.56355e-07
4.09044e-07
6.4267e-07
9.92923e-07
1.50603e-06
2.23844e-06
3.25399e-06
4.6182e-06
6.38974e-06
8.61115e-06
1.13012e-05
1.44511e-05
1.8026e-05
2.19689e-05
2.62076e-05
3.06601e-05
3.52401e-05
3.98611e-05
4.44393e-05
4.88961e-05
5.31615e-05
5.7178e-05
6.09121e-05
6.43719e-05
6.76305e-05
7.08875e-05
7.45425e-05
7.90847e-05
8.51614e-05
9.35389e-05
0.000105109
0.000120913
0.00014219
0.000170468