/*--------------------------------*- C++ -*----------------------------------*\
  =========                 |
  \\      /  F ield         | OpenFOAM: The Open Source CFD Toolbox
   \\    /   O peration     | Website:  https://openfoam.org
    \\  /    A nd           | Version:  8
     \\/     M anipulation  |
\*---------------------------------------------------------------------------*/
FoamFile
{
    version     2.0;
    format      ascii;
    class       surfaceScalarField;
    location    "660/fluid";
    object      phi;
}
// * * * * * * * * * * * * * * * * * * * * * * * * * * * * * * * * * * * * * //

dimensions      [1 0 -1 0 0 0 0];

internalField   nonuniform List<scalar> 
7860
(
6.57272e-07
-1.77453e-08
6.54609e-07
-5.32343e-08
6.50818e-07
-8.85448e-08
6.4579e-07
-1.23575e-07
6.39392e-07
-1.58325e-07
6.31464e-07
-1.92753e-07
6.2182e-07
-2.26774e-07
6.10262e-07
-2.60269e-07
5.96589e-07
-2.93071e-07
5.80606e-07
-3.24959e-07
5.62141e-07
-3.55649e-07
5.41073e-07
-3.84776e-07
5.17373e-07
-4.11883e-07
4.91205e-07
-4.3643e-07
4.6285e-07
-4.5778e-07
4.32667e-07
-4.75269e-07
4.01121e-07
-4.88339e-07
3.68752e-07
-4.9669e-07
3.36118e-07
-5.00402e-07
3.03728e-07
-4.99952e-07
2.7199e-07
-4.96122e-07
2.41191e-07
-4.89815e-07
2.11512e-07
-4.81891e-07
1.83084e-07
-4.73048e-07
1.55959e-07
-4.63776e-07
1.301e-07
-4.54376e-07
1.0544e-07
-4.45014e-07
8.19025e-08
-4.35759e-07
5.94166e-08
-4.26625e-07
3.79194e-08
-4.17594e-07
1.73579e-08
-4.08639e-07
-2.31166e-09
-3.99733e-07
-2.11176e-08
-3.90856e-07
-3.90864e-08
-3.81999e-07
-5.62498e-08
-3.73165e-07
-7.26319e-08
-3.64343e-07
-8.82522e-08
-3.55495e-07
-1.03129e-07
-3.46631e-07
-1.17282e-07
-3.3777e-07
-1.30727e-07
-3.28934e-07
-1.43484e-07
-3.20147e-07
-1.55571e-07
-3.11433e-07
-1.67005e-07
-3.02818e-07
-1.77807e-07
-2.94329e-07
-1.87994e-07
-2.85991e-07
-1.97587e-07
-2.77831e-07
-2.06605e-07
-2.69875e-07
-2.15067e-07
-2.62148e-07
-2.22995e-07
-2.54677e-07
-2.30407e-07
-2.47487e-07
-2.37326e-07
-2.40603e-07
-2.43773e-07
-2.34054e-07
-2.4977e-07
-2.27867e-07
-2.55344e-07
-2.22077e-07
-2.60522e-07
-2.1672e-07
-2.65337e-07
-2.11842e-07
-2.69832e-07
-2.07495e-07
-2.74059e-07
-2.03774e-07
-2.78077e-07
-2.00748e-07
-2.81959e-07
-1.98479e-07
-2.85829e-07
-1.97208e-07
-2.90117e-07
-1.97116e-07
-2.95134e-07
-1.99161e-07
-3.02028e-07
-2.10272e-07
-3.09975e-07
-2.22699e-07
-3.18779e-07
-2.3641e-07
-3.28489e-07
-2.51587e-07
-3.39223e-07
-2.68469e-07
-3.51142e-07
-2.87331e-07
-3.64463e-07
-3.08499e-07
-3.79479e-07
-3.32368e-07
-3.96584e-07
-3.59407e-07
-4.16306e-07
-3.90149e-07
-4.39331e-07
-4.25321e-07
-4.6652e-07
-4.65582e-07
-4.98851e-07
-5.10954e-07
-5.37224e-07
-5.6037e-07
-5.81934e-07
-6.10902e-07
-6.32741e-07
-6.57068e-07
-6.88457e-07
-6.9176e-07
-7.4673e-07
-7.09351e-07
-8.04627e-07
-7.08764e-07
-8.59629e-07
-6.93239e-07
-9.10172e-07
-6.6745e-07
-9.55595e-07
-6.35422e-07
-9.95712e-07
-5.99759e-07
-1.0304e-06
-5.61896e-07
-1.06001e-06
-5.22523e-07
-1.08509e-06
-4.82074e-07
-1.10615e-06
-4.4088e-07
-1.12372e-06
-3.99192e-07
-1.13822e-06
-3.57206e-07
-1.15007e-06
-3.15071e-07
-1.15964e-06
-2.72898e-07
-1.16724e-06
-2.30761e-07
-1.17315e-06
-1.88699e-07
-1.17761e-06
-1.46723e-07
-1.18082e-06
-1.04809e-07
-1.18292e-06
-6.28953e-08
-2.09715e-08
6.57911e-07
-1.71229e-08
6.55788e-07
-5.11112e-08
6.52087e-07
-8.48436e-08
6.46807e-07
-1.18294e-07
6.3988e-07
-1.51398e-07
6.31207e-07
-1.8408e-07
6.20676e-07
-2.16243e-07
6.0817e-07
-2.47763e-07
5.93587e-07
-2.78487e-07
5.76845e-07
-3.08217e-07
5.57898e-07
-3.36701e-07
5.36746e-07
-3.63622e-07
5.13454e-07
-3.88589e-07
4.8818e-07
-4.11153e-07
4.6115e-07
-4.30746e-07
4.32656e-07
-4.46769e-07
4.0306e-07
-4.58736e-07
3.72777e-07
-4.66398e-07
3.42231e-07
-4.69844e-07
3.11806e-07
-4.69515e-07
2.81815e-07
-4.66117e-07
2.52482e-07
-4.60468e-07
2.23953e-07
-4.53347e-07
1.96324e-07
-4.45405e-07
1.69649e-07
-4.37088e-07
1.43939e-07
-4.28655e-07
1.19184e-07
-4.20248e-07
9.53648e-08
-4.11929e-07
7.24577e-08
-4.03709e-07
5.04407e-08
-3.95569e-07
2.92924e-08
-3.87483e-07
8.9926e-09
-3.79426e-07
-1.04783e-08
-3.71378e-07
-2.91363e-08
-3.63334e-07
-4.70006e-08
-3.55294e-07
-6.40857e-08
-3.47252e-07
-8.04055e-08
-3.39169e-07
-9.59749e-08
-3.31055e-07
-1.1081e-07
-3.22929e-07
-1.24927e-07
-3.14811e-07
-1.38344e-07
-3.06725e-07
-1.51078e-07
-2.98693e-07
-1.63149e-07
-2.90742e-07
-1.74576e-07
-2.82896e-07
-1.85381e-07
-2.75181e-07
-1.95584e-07
-2.67623e-07
-2.05207e-07
-2.60247e-07
-2.14272e-07
-2.53078e-07
-2.22803e-07
-2.46142e-07
-2.30825e-07
-2.39461e-07
-2.38363e-07
-2.33061e-07
-2.45445e-07
-2.26968e-07
-2.52102e-07
-2.21207e-07
-2.58368e-07
-2.15808e-07
-2.64283e-07
-2.10802e-07
-2.69897e-07
-2.06225e-07
-2.7527e-07
-2.0212e-07
-2.80476e-07
-1.98565e-07
-2.85617e-07
-1.95604e-07
-2.90835e-07
-1.93259e-07
-2.96357e-07
-1.91685e-07
-3.02462e-07
-1.91006e-07
-3.08328e-07
-1.93384e-07
-3.15384e-07
-2.03227e-07
-3.23673e-07
-2.14421e-07
-3.33092e-07
-2.27002e-07
-3.43632e-07
-2.41059e-07
-3.55365e-07
-2.56748e-07
-3.68425e-07
-2.74285e-07
-3.82992e-07
-2.93946e-07
-3.993e-07
-3.16075e-07
-4.17642e-07
-3.4108e-07
-4.38361e-07
-3.69448e-07
-4.61836e-07
-4.01863e-07
-4.88543e-07
-4.38894e-07
-5.19015e-07
-4.805e-07
-5.53772e-07
-5.25632e-07
-5.93145e-07
-5.71545e-07
-6.37223e-07
-6.13003e-07
-6.85437e-07
-6.43555e-07
-7.36245e-07
-6.58548e-07
-7.87503e-07
-6.57509e-07
-8.37247e-07
-6.43497e-07
-8.84151e-07
-6.20546e-07
-9.27567e-07
-5.92007e-07
-9.67232e-07
-5.60093e-07
-1.00299e-06
-5.26138e-07
-1.03483e-06
-4.90682e-07
-1.06286e-06
-4.54045e-07
-1.08725e-06
-4.16489e-07
-1.10822e-06
-3.78219e-07
-1.12603e-06
-3.39398e-07
-1.14094e-06
-3.0016e-07
-1.15323e-06
-2.60615e-07
-1.16314e-06
-2.20851e-07
-1.17091e-06
-1.80931e-07
-1.17673e-06
-1.40898e-07
-1.18076e-06
-1.00775e-07
-1.18309e-06
-6.05694e-08
-2.02402e-08
6.57615e-07
-1.62038e-08
6.54956e-07
-4.84522e-08
6.50568e-07
-8.04561e-08
6.44418e-07
-1.12144e-07
6.36463e-07
-1.43443e-07
6.26655e-07
-1.74272e-07
6.14947e-07
-2.04535e-07
6.01303e-07
-2.34119e-07
5.85702e-07
-2.62886e-07
5.68153e-07
-2.90667e-07
5.48694e-07
-3.17242e-07
5.27403e-07
-3.4233e-07
5.04388e-07
-3.65573e-07
4.79766e-07
-3.86528e-07
4.53712e-07
-4.04688e-07
4.26484e-07
-4.19537e-07
3.98403e-07
-4.30648e-07
3.6982e-07
-4.37807e-07
3.41083e-07
-4.41098e-07
3.12499e-07
-4.40921e-07
2.84313e-07
-4.3792e-07
2.56696e-07
-4.3284e-07
2.2975e-07
-4.2639e-07
2.03508e-07
-4.19152e-07
1.77975e-07
-4.11545e-07
1.5316e-07
-4.0383e-07
1.29072e-07
-3.9615e-07
1.05715e-07
-3.88564e-07
8.30939e-08
-3.8108e-07
6.12101e-08
-3.73678e-07
4.00637e-08
-3.6633e-07
1.96537e-08
-3.5901e-07
-2.26997e-11
-3.51696e-07
-1.89734e-08
-3.44379e-07
-3.72021e-08
-3.3706e-07
-5.47144e-08
-3.29735e-07
-7.15163e-08
-3.22362e-07
-8.76166e-08
-3.1495e-07
-1.03025e-07
-3.07515e-07
-1.17754e-07
-3.00077e-07
-1.31817e-07
-2.92657e-07
-1.45229e-07
-2.85276e-07
-1.58007e-07
-2.77959e-07
-1.70169e-07
-2.70729e-07
-1.81736e-07
-2.6361e-07
-1.92727e-07
-2.56627e-07
-2.03167e-07
-2.49803e-07
-2.1308e-07
-2.43161e-07
-2.22493e-07
-2.36725e-07
-2.31435e-07
-2.30515e-07
-2.39937e-07
-2.24555e-07
-2.48035e-07
-2.18866e-07
-2.55769e-07
-2.1347e-07
-2.63183e-07
-2.08391e-07
-2.70329e-07
-2.03653e-07
-2.77268e-07
-1.99284e-07
-2.8407e-07
-1.95315e-07
-2.9082e-07
-1.91814e-07
-2.9762e-07
-1.88803e-07
-3.0459e-07
-1.86286e-07
-3.11871e-07
-1.84403e-07
-3.19622e-07
-1.83249e-07
-3.26452e-07
-1.8662e-07
-3.34258e-07
-1.9543e-07
-3.43141e-07
-2.05547e-07
-3.53126e-07
-2.17028e-07
-3.64257e-07
-2.29938e-07
-3.7661e-07
-2.44405e-07
-3.90287e-07
-2.60619e-07
-4.05412e-07
-2.78833e-07
-4.22129e-07
-2.9937e-07
-4.40597e-07
-3.22624e-07
-4.60969e-07
-3.49088e-07
-4.83395e-07
-3.7945e-07
-5.08103e-07
-4.14199e-07
-5.35423e-07
-4.53191e-07
-5.65868e-07
-4.95197e-07
-6.0023e-07
-5.37191e-07
-6.39088e-07
-5.74151e-07
-6.82233e-07
-6.00413e-07
-7.28394e-07
-6.12388e-07
-7.75639e-07
-6.10264e-07
-8.22138e-07
-5.96997e-07
-8.66592e-07
-5.76092e-07
-9.08276e-07
-5.50323e-07
-9.46882e-07
-5.21487e-07
-9.82413e-07
-4.90607e-07
-1.01484e-06
-4.58257e-07
-1.04412e-06
-4.24765e-07
-1.07026e-06
-3.90342e-07
-1.09334e-06
-3.55139e-07
-1.11346e-06
-3.19281e-07
-1.13074e-06
-2.82878e-07
-1.14533e-06
-2.46024e-07
-1.15739e-06
-2.088e-07
-1.16704e-06
-1.71279e-07
-1.17442e-06
-1.33517e-07
-1.17963e-06
-9.55595e-08
-1.18276e-06
-5.7441e-08
-1.9182e-08
6.57633e-07
-1.53029e-08
6.54907e-07
-4.57261e-08
6.5035e-07
-7.58995e-08
6.4396e-07
-1.05754e-07
6.35728e-07
-1.35211e-07
6.25641e-07
-1.64185e-07
6.13691e-07
-1.92585e-07
5.99876e-07
-2.20303e-07
5.84201e-07
-2.47211e-07
5.66688e-07
-2.73154e-07
5.47378e-07
-2.97932e-07
5.26338e-07
-3.21289e-07
5.03668e-07
-3.42902e-07
4.79511e-07
-3.6237e-07
4.54064e-07
-3.79238e-07
4.27572e-07
-3.93041e-07
4.00321e-07
-4.03394e-07
3.7262e-07
-4.101e-07
3.44765e-07
-4.13236e-07
3.17021e-07
-4.1317e-07
2.89598e-07
-4.10489e-07
2.62649e-07
-4.05882e-07
2.36271e-07
-4.00004e-07
2.10521e-07
-3.93394e-07
1.85424e-07
-3.8644e-07
1.60989e-07
-3.79388e-07
1.3722e-07
-3.72374e-07
1.14113e-07
-3.65451e-07
9.16684e-08
-3.58629e-07
6.98835e-08
-3.51887e-07
4.87582e-08
-3.452e-07
2.82919e-08
-3.38539e-07
8.48391e-09
-3.31884e-07
-1.06659e-08
-3.25225e-07
-2.91622e-08
-3.1856e-07
-4.70068e-08
-3.11886e-07
-6.42015e-08
-3.05163e-07
-8.07511e-08
-2.98396e-07
-9.66624e-08
-2.916e-07
-1.11944e-07
-2.84791e-07
-1.26607e-07
-2.7799e-07
-1.40665e-07
-2.71215e-07
-1.54132e-07
-2.64488e-07
-1.67025e-07
-2.57832e-07
-1.79362e-07
-2.51269e-07
-1.91166e-07
-2.4482e-07
-2.02459e-07
-2.38507e-07
-2.13266e-07
-2.3235e-07
-2.23617e-07
-2.26371e-07
-2.3354e-07
-2.20589e-07
-2.43071e-07
-2.15022e-07
-2.52246e-07
-2.09688e-07
-2.61107e-07
-2.04607e-07
-2.697e-07
-1.99795e-07
-2.78077e-07
-1.95274e-07
-2.86297e-07
-1.91062e-07
-2.94425e-07
-1.87185e-07
-3.02532e-07
-1.83705e-07
-3.10706e-07
-1.80627e-07
-3.19038e-07
-1.77953e-07
-3.27624e-07
-1.75816e-07
-3.3655e-07
-1.74318e-07
-3.44345e-07
-1.78863e-07
-3.52974e-07
-1.86808e-07
-3.62523e-07
-1.96006e-07
-3.73051e-07
-2.06507e-07
-3.84629e-07
-2.18368e-07
-3.97334e-07
-2.31708e-07
-4.11254e-07
-2.46706e-07
-4.26487e-07
-2.63607e-07
-4.43142e-07
-2.82722e-07
-4.61341e-07
-3.04432e-07
-4.81197e-07
-3.29237e-07
-5.02866e-07
-3.57787e-07
-5.26619e-07
-3.9045e-07
-5.52856e-07
-4.26958e-07
-5.82124e-07
-4.65931e-07
-6.15044e-07
-5.0427e-07
-6.52005e-07
-5.37188e-07
-6.9272e-07
-5.59695e-07
-7.36049e-07
-5.69057e-07
-7.80375e-07
-5.65935e-07
-8.24196e-07
-5.53175e-07
-8.66423e-07
-5.33864e-07
-9.06389e-07
-5.10356e-07
-9.43737e-07
-4.84139e-07
-9.78302e-07
-4.56042e-07
-1.01003e-06
-4.26528e-07
-1.03892e-06
-3.95873e-07
-1.06501e-06
-3.64259e-07
-1.08832e-06
-3.31823e-07
-1.10892e-06
-2.9868e-07
-1.12687e-06
-2.64928e-07
-1.14224e-06
-2.30655e-07
-1.1551e-06
-1.95943e-07
-1.16552e-06
-1.60862e-07
-1.17355e-06
-1.25478e-07
-1.17927e-06
-8.98486e-08
-1.18268e-06
-5.40235e-08
-1.80435e-08
6.5757e-07
-1.4339e-08
6.54704e-07
-4.28603e-08
6.49949e-07
-7.11447e-08
6.43311e-07
-9.91154e-08
6.34795e-07
-1.26694e-07
6.24409e-07
-1.538e-07
6.12167e-07
-1.80343e-07
5.98089e-07
-2.06224e-07
5.82205e-07
-2.31328e-07
5.64562e-07
-2.5551e-07
5.45223e-07
-2.78592e-07
5.24276e-07
-3.00342e-07
5.01838e-07
-3.20464e-07
4.78062e-07
-3.38592e-07
4.53135e-07
-3.5431e-07
4.27287e-07
-3.6719e-07
4.00775e-07
-3.76879e-07
3.73871e-07
-3.83192e-07
3.46835e-07
-3.86196e-07
3.19896e-07
-3.86226e-07
2.93237e-07
-3.83824e-07
2.66987e-07
-3.79627e-07
2.41233e-07
-3.74243e-07
2.16023e-07
-3.68178e-07
1.91383e-07
-3.61794e-07
1.67325e-07
-3.55325e-07
1.43854e-07
-3.48897e-07
1.2097e-07
-3.42563e-07
9.86759e-08
-3.3633e-07
7.69716e-08
-3.30179e-07
5.58589e-08
-3.24083e-07
3.53397e-08
-3.18016e-07
1.54151e-08
-3.11956e-07
-3.91438e-09
-3.05892e-07
-2.26497e-08
-2.99822e-07
-4.07918e-08
-2.93741e-07
-5.83408e-08
-2.87611e-07
-7.52993e-08
-2.81434e-07
-9.16722e-08
-2.75224e-07
-1.07466e-07
-2.68994e-07
-1.2269e-07
-2.62762e-07
-1.37356e-07
-2.56546e-07
-1.51477e-07
-2.50365e-07
-1.65067e-07
-2.44239e-07
-1.78144e-07
-2.38188e-07
-1.9073e-07
-2.32231e-07
-2.02845e-07
-2.26388e-07
-2.14515e-07
-2.20678e-07
-2.25767e-07
-2.15117e-07
-2.3663e-07
-2.09724e-07
-2.47136e-07
-2.04513e-07
-2.5732e-07
-1.99502e-07
-2.67221e-07
-1.94704e-07
-2.7688e-07
-1.90135e-07
-2.86342e-07
-1.8581e-07
-2.95656e-07
-1.81746e-07
-3.04877e-07
-1.77963e-07
-3.14059e-07
-1.74522e-07
-3.23275e-07
-1.71409e-07
-3.32594e-07
-1.68634e-07
-3.42094e-07
-1.66315e-07
-3.51845e-07
-1.64565e-07
-3.60623e-07
-1.701e-07
-3.70066e-07
-1.77371e-07
-3.80261e-07
-1.85817e-07
-3.91298e-07
-1.95475e-07
-4.03265e-07
-2.06406e-07
-4.16247e-07
-2.1873e-07
-4.3033e-07
-2.32627e-07
-4.45604e-07
-2.48337e-07
-4.62164e-07
-2.66166e-07
-4.80116e-07
-2.86482e-07
-4.99554e-07
-3.09799e-07
-5.20627e-07
-3.36713e-07
-5.43593e-07
-3.67482e-07
-5.68823e-07
-4.01722e-07
-5.96826e-07
-4.37921e-07
-6.28161e-07
-4.72927e-07
-6.63161e-07
-5.02179e-07
-7.01545e-07
-5.21305e-07
-7.42295e-07
-5.28301e-07
-7.84024e-07
-5.24203e-07
-8.25459e-07
-5.11739e-07
-8.65673e-07
-4.93649e-07
-9.04082e-07
-4.71947e-07
-9.40339e-07
-4.47881e-07
-9.74242e-07
-4.22139e-07
-1.00567e-06
-3.95104e-07
-1.03454e-06
-3.67e-07
-1.06082e-06
-3.37975e-07
-1.0845e-06
-3.08142e-07
-1.10559e-06
-2.77596e-07
-1.12409e-06
-2.46422e-07
-1.14005e-06
-2.14702e-07
-1.15348e-06
-1.82509e-07
-1.16442e-06
-1.49916e-07
-1.17291e-06
-1.16991e-07
-1.17897e-06
-8.37945e-08
-1.1826e-06
-5.03868e-08
-1.68256e-08
6.57566e-07
-1.33716e-08
6.54671e-07
-3.99655e-08
6.49862e-07
-6.63351e-08
6.43153e-07
-9.24063e-08
6.34562e-07
-1.18103e-07
6.2411e-07
-1.43348e-07
6.11823e-07
-1.68056e-07
5.97733e-07
-1.92135e-07
5.81883e-07
-2.15478e-07
5.64326e-07
-2.37953e-07
5.45132e-07
-2.59398e-07
5.24389e-07
-2.79599e-07
5.02213e-07
-2.98287e-07
4.7875e-07
-3.15129e-07
4.54184e-07
-3.29743e-07
4.28731e-07
-3.41737e-07
4.02639e-07
-3.50785e-07
3.76164e-07
-3.56715e-07
3.49556e-07
-3.59585e-07
3.23033e-07
-3.59699e-07
2.96768e-07
-3.57556e-07
2.70887e-07
-3.53741e-07
2.45469e-07
-3.48822e-07
2.20562e-07
-3.43266e-07
1.96187e-07
-3.37416e-07
1.72354e-07
-3.31488e-07
1.49064e-07
-3.25604e-07
1.26317e-07
-3.19812e-07
1.0411e-07
-3.1412e-07
8.24433e-08
-3.0851e-07
6.13174e-08
-3.02955e-07
4.07332e-08
-2.9743e-07
2.06919e-08
-2.91913e-07
1.19389e-09
-2.86392e-07
-1.77613e-08
-2.80865e-07
-3.6174e-08
-2.75327e-07
-5.40433e-08
-2.6974e-07
-7.1371e-08
-2.64105e-07
-8.81604e-08
-2.58433e-07
-1.04417e-07
-2.52736e-07
-1.20149e-07
-2.47029e-07
-1.35364e-07
-2.41329e-07
-1.50074e-07
-2.35653e-07
-1.64294e-07
-2.30017e-07
-1.7804e-07
-2.24441e-07
-1.91329e-07
-2.1894e-07
-2.04182e-07
-2.13533e-07
-2.16622e-07
-2.08236e-07
-2.28673e-07
-2.03065e-07
-2.40361e-07
-1.98034e-07
-2.51715e-07
-1.93158e-07
-2.62765e-07
-1.8845e-07
-2.73544e-07
-1.83924e-07
-2.84085e-07
-1.79592e-07
-2.94423e-07
-1.7547e-07
-3.04596e-07
-1.71572e-07
-3.14643e-07
-1.67915e-07
-3.24599e-07
-1.64565e-07
-3.3453e-07
-1.61477e-07
-3.44461e-07
-1.58703e-07
-3.5447e-07
-1.56306e-07
-3.64638e-07
-1.54397e-07
-3.74422e-07
-1.60317e-07
-3.84609e-07
-1.67185e-07
-3.95374e-07
-1.75052e-07
-4.06856e-07
-1.83994e-07
-4.19156e-07
-1.94105e-07
-4.32368e-07
-2.05517e-07
-4.46581e-07
-2.18413e-07
-4.61885e-07
-2.33031e-07
-4.78377e-07
-2.4967e-07
-4.96164e-07
-2.68689e-07
-5.15353e-07
-2.90602e-07
-5.36121e-07
-3.15935e-07
-5.58749e-07
-3.44842e-07
-5.8363e-07
-3.76829e-07
-6.11265e-07
-4.10272e-07
-6.4215e-07
-4.42027e-07
-6.76495e-07
-4.67822e-07
-7.13888e-07
-4.83901e-07
-7.53293e-07
-4.8889e-07
-7.9342e-07
-4.84071e-07
-8.33151e-07
-4.72005e-07
-8.71698e-07
-4.551e-07
-9.08568e-07
-4.35076e-07
-9.4347e-07
-4.12978e-07
-9.76228e-07
-3.89381e-07
-1.00673e-06
-3.64601e-07
-1.0349e-06
-3.38828e-07
-1.06069e-06
-3.12185e-07
-1.08406e-06
-2.84771e-07
-1.10499e-06
-2.56667e-07
-1.12347e-06
-2.2795e-07
-1.13948e-06
-1.98692e-07
-1.15302e-06
-1.68965e-07
-1.1641e-06
-1.38836e-07
-1.17272e-06
-1.08371e-07
-1.17888e-06
-7.76329e-08
-1.18258e-06
-4.66845e-08
-1.55885e-08
6.57556e-07
-1.2394e-08
6.54638e-07
-3.70473e-08
6.49796e-07
-6.14929e-08
6.43048e-07
-8.56588e-08
6.34418e-07
-1.09473e-07
6.23933e-07
-1.32863e-07
6.11627e-07
-1.5575e-07
5.97541e-07
-1.78048e-07
5.81723e-07
-1.9966e-07
5.64234e-07
-2.20465e-07
5.4515e-07
-2.40314e-07
5.24565e-07
-2.59014e-07
5.02596e-07
-2.76318e-07
4.79389e-07
-2.91922e-07
4.55122e-07
-3.05475e-07
4.30004e-07
-3.16618e-07
4.04269e-07
-3.25048e-07
3.78159e-07
-3.30604e-07
3.51909e-07
-3.33334e-07
3.25727e-07
-3.33515e-07
2.99777e-07
-3.31604e-07
2.7418e-07
-3.28142e-07
2.49013e-07
-3.23653e-07
2.24321e-07
-3.18573e-07
2.00128e-07
-3.1322e-07
1.7644e-07
-3.07798e-07
1.53258e-07
-3.02421e-07
1.30582e-07
-2.97134e-07
1.08407e-07
-2.91944e-07
8.67326e-08
-2.86834e-07
6.5558e-08
-2.81779e-07
4.48837e-08
-2.76754e-07
2.47103e-08
-2.71738e-07
5.03822e-09
-2.66719e-07
-1.41326e-08
-2.61693e-07
-3.28028e-08
-2.56655e-07
-5.09713e-08
-2.5157e-07
-6.86388e-08
-2.46436e-07
-8.58078e-08
-2.41262e-07
-1.02482e-07
-2.3606e-07
-1.18668e-07
-2.30842e-07
-1.34372e-07
-2.25623e-07
-1.49606e-07
-2.20417e-07
-1.64381e-07
-2.1524e-07
-1.78712e-07
-2.10108e-07
-1.92614e-07
-2.05037e-07
-2.06106e-07
-2.0004e-07
-2.19206e-07
-1.95134e-07
-2.31937e-07
-1.90333e-07
-2.4432e-07
-1.85649e-07
-2.56382e-07
-1.81095e-07
-2.68148e-07
-1.76683e-07
-2.79644e-07
-1.72426e-07
-2.90899e-07
-1.68337e-07
-3.01939e-07
-1.64429e-07
-3.12792e-07
-1.60718e-07
-3.23481e-07
-1.57226e-07
-3.34027e-07
-1.54018e-07
-3.44468e-07
-1.51036e-07
-3.54796e-07
-1.48374e-07
-3.65018e-07
-1.46084e-07
-3.75144e-07
-1.44274e-07
-3.85525e-07
-1.49936e-07
-3.96301e-07
-1.56409e-07
-4.07595e-07
-1.63757e-07
-4.19524e-07
-1.72064e-07
-4.32192e-07
-1.81436e-07
-4.45693e-07
-1.92014e-07
-4.60121e-07
-2.03982e-07
-4.75572e-07
-2.17577e-07
-4.9215e-07
-2.33087e-07
-5.0997e-07
-2.50864e-07
-5.29161e-07
-2.71408e-07
-5.49918e-07
-2.9517e-07
-5.72529e-07
-3.22217e-07
-5.97372e-07
-3.51966e-07
-6.24896e-07
-3.82727e-07
-6.55493e-07
-4.11409e-07
-6.89237e-07
-4.3406e-07
-7.25645e-07
-4.47479e-07
-7.63732e-07
-4.50794e-07
-8.02359e-07
-4.45437e-07
-8.4057e-07
-4.33792e-07
-8.77689e-07
-4.17979e-07
-9.13285e-07
-3.9948e-07
-9.47088e-07
-3.79175e-07
-9.78924e-07
-3.57545e-07
-1.00867e-06
-3.34854e-07
-1.03624e-06
-3.11257e-07
-1.06157e-06
-2.86861e-07
-1.08459e-06
-2.61745e-07
-1.10528e-06
-2.35981e-07
-1.12359e-06
-2.09637e-07
-1.13951e-06
-1.82777e-07
-1.153e-06
-1.55467e-07
-1.16407e-06
-1.27769e-07
-1.1727e-06
-9.9746e-08
-1.17887e-06
-7.14605e-08
-1.18258e-06
-4.29726e-08
-1.43476e-08
6.57558e-07
-1.14186e-08
6.54644e-07
-3.41326e-08
6.49806e-07
-5.66554e-08
6.43067e-07
-7.892e-08
6.34454e-07
-1.0086e-07
6.23996e-07
-1.22406e-07
6.11733e-07
-1.43487e-07
5.97708e-07
-1.64023e-07
5.81974e-07
-1.83926e-07
5.64596e-07
-2.03086e-07
5.45648e-07
-2.21366e-07
5.25226e-07
-2.38592e-07
5.03445e-07
-2.54537e-07
4.80447e-07
-2.68924e-07
4.56405e-07
-2.81434e-07
4.31521e-07
-2.91734e-07
4.06022e-07
-2.99549e-07
3.80144e-07
-3.04726e-07
3.54116e-07
-3.07306e-07
3.2814e-07
-3.07539e-07
3.02379e-07
-3.05843e-07
2.7695e-07
-3.02713e-07
2.51932e-07
-2.98634e-07
2.27366e-07
-2.94007e-07
2.03276e-07
-2.89129e-07
1.79666e-07
-2.84188e-07
1.56537e-07
-2.79291e-07
1.33885e-07
-2.74481e-07
1.11705e-07
-2.69763e-07
8.9994e-08
-2.65122e-07
6.87507e-08
-2.60535e-07
4.79744e-08
-2.55977e-07
2.76652e-08
-2.51428e-07
7.82335e-09
-2.46877e-07
-1.15515e-08
-2.42317e-07
-3.04598e-08
-2.37746e-07
-4.89004e-08
-2.33129e-07
-6.68731e-08
-2.28463e-07
-8.43791e-08
-2.23756e-07
-1.01421e-07
-2.19017e-07
-1.18003e-07
-2.14259e-07
-1.34133e-07
-2.09493e-07
-1.49818e-07
-2.04731e-07
-1.65069e-07
-1.99989e-07
-1.79897e-07
-1.9528e-07
-1.94315e-07
-1.90617e-07
-2.0834e-07
-1.86015e-07
-2.21988e-07
-1.81486e-07
-2.35277e-07
-1.77043e-07
-2.48227e-07
-1.72698e-07
-2.6086e-07
-1.68462e-07
-2.73196e-07
-1.64346e-07
-2.8526e-07
-1.60362e-07
-2.97076e-07
-1.56521e-07
-3.08666e-07
-1.52838e-07
-3.20056e-07
-1.49328e-07
-3.31261e-07
-1.46021e-07
-3.42312e-07
-1.42966e-07
-3.53223e-07
-1.40125e-07
-3.63986e-07
-1.37611e-07
-3.74562e-07
-1.35507e-07
-3.84644e-07
-1.34177e-07
-3.9518e-07
-1.39397e-07
-4.06216e-07
-1.45368e-07
-4.17814e-07
-1.52153e-07
-4.30049e-07
-1.59822e-07
-4.43001e-07
-1.68474e-07
-4.56755e-07
-1.78248e-07
-4.71399e-07
-1.89323e-07
-4.87032e-07
-2.01927e-07
-5.03765e-07
-2.16335e-07
-5.21718e-07
-2.32887e-07
-5.41042e-07
-2.52059e-07
-5.61956e-07
-2.74229e-07
-5.84758e-07
-2.99389e-07
-6.09813e-07
-3.26886e-07
-6.37517e-07
-3.54997e-07
-6.68161e-07
-3.8074e-07
-7.01697e-07
-4.00504e-07
-7.37555e-07
-4.11605e-07
-7.74766e-07
-4.13573e-07
-8.12293e-07
-4.07904e-07
-8.49295e-07
-3.96786e-07
-8.85194e-07
-3.82078e-07
-9.19622e-07
-3.65051e-07
-9.52347e-07
-3.4645e-07
-9.83213e-07
-3.26678e-07
-1.01211e-06
-3.05958e-07
-1.03894e-06
-2.84421e-07
-1.06365e-06
-2.62156e-07
-1.08616e-06
-2.39232e-07
-1.10643e-06
-2.15712e-07
-1.12441e-06
-1.91655e-07
-1.14007e-06
-1.67119e-07
-1.15338e-06
-1.42163e-07
-1.1643e-06
-1.16845e-07
-1.17282e-06
-9.1224e-08
-1.17892e-06
-6.5357e-08
-1.18259e-06
-3.93016e-08
-1.3121e-08
6.57561e-07
-1.04459e-08
6.54655e-07
-3.12266e-08
6.49833e-07
-5.18331e-08
6.43116e-07
-7.22038e-08
6.34534e-07
-9.2277e-08
6.24118e-07
-1.1199e-07
6.11909e-07
-1.31278e-07
5.97954e-07
-1.50067e-07
5.82305e-07
-1.68278e-07
5.6503e-07
-1.8581e-07
5.46204e-07
-2.0254e-07
5.25921e-07
-2.18309e-07
5.04297e-07
-2.32913e-07
4.8147e-07
-2.46098e-07
4.5761e-07
-2.57574e-07
4.32913e-07
-2.67038e-07
4.07599e-07
-2.74235e-07
3.81898e-07
-2.79026e-07
3.56035e-07
-2.81443e-07
3.30208e-07
-2.81713e-07
3.04577e-07
-2.80213e-07
2.7926e-07
-2.77397e-07
2.54333e-07
-2.73708e-07
2.29841e-07
-2.69515e-07
2.05804e-07
-2.65092e-07
1.82228e-07
-2.60613e-07
1.59111e-07
-2.56174e-07
1.36448e-07
-2.51818e-07
1.14234e-07
-2.47549e-07
9.24651e-08
-2.43353e-07
7.11381e-08
-2.39208e-07
5.02516e-08
-2.35091e-07
2.98054e-08
-2.30982e-07
9.7995e-09
-2.26871e-07
-9.76652e-09
-2.22751e-07
-2.88931e-08
-2.1862e-07
-4.75788e-08
-2.14443e-07
-6.58222e-08
-2.10219e-07
-8.36235e-08
-2.05954e-07
-1.00985e-07
-2.01656e-07
-1.17909e-07
-1.97334e-07
-1.34402e-07
-1.93e-07
-1.50469e-07
-1.88664e-07
-1.66118e-07
-1.8434e-07
-1.81359e-07
-1.80038e-07
-1.96204e-07
-1.75773e-07
-2.10664e-07
-1.71555e-07
-2.24754e-07
-1.67396e-07
-2.38488e-07
-1.63308e-07
-2.51885e-07
-1.59301e-07
-2.6496e-07
-1.55386e-07
-2.77733e-07
-1.51573e-07
-2.90223e-07
-1.47872e-07
-3.0245e-07
-1.44294e-07
-3.14435e-07
-1.40853e-07
-3.26199e-07
-1.37564e-07
-3.37762e-07
-1.34458e-07
-3.49151e-07
-1.31577e-07
-3.60384e-07
-1.28892e-07
-3.71477e-07
-1.26518e-07
-3.82444e-07
-1.24542e-07
-3.92655e-07
-1.2395e-07
-4.03363e-07
-1.28687e-07
-4.14605e-07
-1.34126e-07
-4.26429e-07
-1.4033e-07
-4.38896e-07
-1.47355e-07
-4.52078e-07
-1.55293e-07
-4.66052e-07
-1.64273e-07
-4.80908e-07
-1.74465e-07
-4.96745e-07
-1.86085e-07
-5.13681e-07
-1.99392e-07
-5.31846e-07
-2.14709e-07
-5.51407e-07
-2.32479e-07
-5.72598e-07
-2.53014e-07
-5.95714e-07
-2.76244e-07
-6.21098e-07
-3.0147e-07
-6.49083e-07
-3.2698e-07
-6.79853e-07
-3.4994e-07
-7.13241e-07
-3.67092e-07
-7.48621e-07
-3.76208e-07
-7.85063e-07
-3.7712e-07
-8.21632e-07
-3.71329e-07
-8.57595e-07
-3.6082e-07
-8.92452e-07
-3.4722e-07
-9.25881e-07
-3.31621e-07
-9.57675e-07
-3.14655e-07
-9.8769e-07
-2.96662e-07
-1.01582e-06
-2.77829e-07
-1.04197e-06
-2.58266e-07
-1.06608e-06
-2.38049e-07
-1.08807e-06
-2.17238e-07
-1.1079e-06
-1.95886e-07
-1.12551e-06
-1.74047e-07
-1.14086e-06
-1.51771e-07
-1.15391e-06
-1.29111e-07
-1.16464e-06
-1.0612e-07
-1.17301e-06
-8.28514e-08
-1.17901e-06
-5.93581e-08
-1.18262e-06
-3.56931e-08
-1.19154e-08
6.57566e-07
-9.47824e-09
6.54674e-07
-2.83346e-08
6.49875e-07
-4.70339e-08
6.43191e-07
-6.55199e-08
6.34651e-07
-8.37367e-08
6.24288e-07
-1.01628e-07
6.12143e-07
-1.19133e-07
5.98263e-07
-1.36188e-07
5.82704e-07
-1.52718e-07
5.65529e-07
-1.68636e-07
5.46816e-07
-1.83828e-07
5.26658e-07
-1.98151e-07
5.05166e-07
-2.11422e-07
4.82478e-07
-2.23411e-07
4.58759e-07
-2.33855e-07
4.34201e-07
-2.42481e-07
4.0902e-07
-2.49056e-07
3.83442e-07
-2.5345e-07
3.57689e-07
-2.55692e-07
3.31956e-07
-2.55982e-07
3.06405e-07
-2.54664e-07
2.81152e-07
-2.52146e-07
2.56274e-07
-2.48832e-07
2.31816e-07
-2.45059e-07
2.07798e-07
-2.41075e-07
1.84225e-07
-2.37041e-07
1.61094e-07
-2.33045e-07
1.38401e-07
-2.29126e-07
1.16137e-07
-2.25287e-07
9.42994e-08
-2.21516e-07
7.2883e-08
-2.17792e-07
5.18865e-08
-2.14095e-07
3.13089e-08
-2.10405e-07
1.11501e-08
-2.06712e-07
-8.59002e-09
-2.03012e-07
-2.7912e-08
-1.99298e-07
-4.68134e-08
-1.95542e-07
-6.52925e-08
-1.9174e-07
-8.3349e-08
-1.87898e-07
-1.00983e-07
-1.84022e-07
-1.18198e-07
-1.8012e-07
-1.34995e-07
-1.76203e-07
-1.5138e-07
-1.72279e-07
-1.67359e-07
-1.68361e-07
-1.82939e-07
-1.64458e-07
-1.9813e-07
-1.60582e-07
-2.1294e-07
-1.56744e-07
-2.27383e-07
-1.52954e-07
-2.4147e-07
-1.49221e-07
-2.55215e-07
-1.45556e-07
-2.68633e-07
-1.41969e-07
-2.81739e-07
-1.38467e-07
-2.94549e-07
-1.35062e-07
-3.0708e-07
-1.31763e-07
-3.19351e-07
-1.28582e-07
-3.31381e-07
-1.25534e-07
-3.43189e-07
-1.2265e-07
-3.54802e-07
-1.19964e-07
-3.66241e-07
-1.17453e-07
-3.77543e-07
-1.15216e-07
-3.8875e-07
-1.13335e-07
-3.99175e-07
-1.13474e-07
-4.10111e-07
-1.17743e-07
-4.21566e-07
-1.2266e-07
-4.33599e-07
-1.28283e-07
-4.46274e-07
-1.34665e-07
-4.59659e-07
-1.4189e-07
-4.73836e-07
-1.50077e-07
-4.88895e-07
-1.59386e-07
-5.04941e-07
-1.70017e-07
-5.221e-07
-1.8221e-07
-5.40513e-07
-1.96271e-07
-5.6036e-07
-2.12602e-07
-5.81887e-07
-2.31455e-07
-6.05384e-07
-2.52713e-07
-6.31164e-07
-2.75654e-07
-6.59497e-07
-2.98611e-07
-6.9047e-07
-3.18936e-07
-7.23812e-07
-3.33725e-07
-7.58851e-07
-3.4115e-07
-7.94692e-07
-3.41267e-07
-8.30484e-07
-3.35529e-07
-8.65581e-07
-3.25719e-07
-8.99545e-07
-3.13253e-07
-9.32098e-07
-2.99068e-07
-9.63055e-07
-2.83697e-07
-9.92288e-07
-2.6743e-07
-1.0197e-06
-2.50422e-07
-1.04519e-06
-2.32769e-07
-1.06871e-06
-2.14534e-07
-1.09018e-06
-1.95769e-07
-1.10954e-06
-1.76521e-07
-1.12675e-06
-1.56836e-07
-1.14176e-06
-1.3676e-07
-1.15453e-06
-1.16339e-07
-1.16503e-06
-9.56208e-08
-1.17323e-06
-7.46529e-08
-1.17911e-06
-5.3483e-08
-1.18264e-06
-3.21591e-08
-1.0735e-08
6.57571e-07
-8.51551e-09
6.54694e-07
-2.54573e-08
6.49919e-07
-4.22588e-08
6.43268e-07
-5.88695e-08
6.34771e-07
-7.52393e-08
6.24461e-07
-9.13173e-08
6.12378e-07
-1.0705e-07
5.98569e-07
-1.2238e-07
5.83091e-07
-1.3724e-07
5.66006e-07
-1.51551e-07
5.4739e-07
-1.65213e-07
5.27336e-07
-1.78098e-07
5.05954e-07
-1.9004e-07
4.83379e-07
-2.00836e-07
4.59771e-07
-2.10249e-07
4.35321e-07
-2.18032e-07
4.1024e-07
-2.23977e-07
3.84752e-07
-2.27964e-07
3.59075e-07
-2.30018e-07
3.33405e-07
-2.30316e-07
3.07902e-07
-2.29164e-07
2.82685e-07
-2.26931e-07
2.57829e-07
-2.2398e-07
2.33381e-07
-2.20613e-07
2.09359e-07
-2.17057e-07
1.8577e-07
-2.13455e-07
1.62611e-07
-2.09888e-07
1.39874e-07
-2.06391e-07
1.17553e-07
-2.02967e-07
9.56418e-08
-1.99606e-07
7.41361e-08
-1.96288e-07
5.30338e-08
-1.92993e-07
3.23338e-08
-1.89706e-07
1.2036e-08
-1.86415e-07
-7.85987e-09
-1.83116e-07
-2.73536e-08
-1.79805e-07
-4.64427e-08
-1.76454e-07
-6.51249e-08
-1.73059e-07
-8.33987e-08
-1.69625e-07
-1.01264e-07
-1.66157e-07
-1.1872e-07
-1.62664e-07
-1.35771e-07
-1.59153e-07
-1.52418e-07
-1.55633e-07
-1.68666e-07
-1.52113e-07
-1.84521e-07
-1.48604e-07
-1.9999e-07
-1.45114e-07
-2.15082e-07
-1.41653e-07
-2.29804e-07
-1.38232e-07
-2.44168e-07
-1.34858e-07
-2.58185e-07
-1.3154e-07
-2.71868e-07
-1.28287e-07
-2.85229e-07
-1.25107e-07
-2.98282e-07
-1.22009e-07
-3.11043e-07
-1.19003e-07
-3.23527e-07
-1.16099e-07
-3.35751e-07
-1.1331e-07
-3.47736e-07
-1.10665e-07
-3.59507e-07
-1.08194e-07
-3.71086e-07
-1.05874e-07
-3.82509e-07
-1.03793e-07
-3.93803e-07
-1.02038e-07
-4.04491e-07
-1.02742e-07
-4.15656e-07
-1.06571e-07
-4.27324e-07
-1.10985e-07
-4.39559e-07
-1.1604e-07
-4.52429e-07
-1.21786e-07
-4.66007e-07
-1.28299e-07
-4.80377e-07
-1.35692e-07
-4.95635e-07
-1.44111e-07
-5.1189e-07
-1.53739e-07
-5.29279e-07
-1.64796e-07
-5.47953e-07
-1.77569e-07
-5.68106e-07
-1.92418e-07
-5.89989e-07
-2.09537e-07
-6.13884e-07
-2.2878e-07
-6.40074e-07
-2.49424e-07
-6.68764e-07
-2.69882e-07
-6.99947e-07
-2.87719e-07
-7.33267e-07
-3.00378e-07
-7.6802e-07
-3.06377e-07
-8.03351e-07
-3.05924e-07
-8.38485e-07
-3.00389e-07
-8.72846e-07
-2.91355e-07
-9.0605e-07
-2.80047e-07
-9.37851e-07
-2.67266e-07
-9.68084e-07
-2.53464e-07
-9.9663e-07
-2.38883e-07
-1.0234e-06
-2.23657e-07
-1.0483e-06
-2.07865e-07
-1.07127e-06
-1.91561e-07
-1.09225e-06
-1.74791e-07
-1.11118e-06
-1.57594e-07
-1.128e-06
-1.40011e-07
-1.14268e-06
-1.22082e-07
-1.15517e-06
-1.03848e-07
-1.16544e-06
-8.53507e-08
-1.17346e-06
-6.66323e-08
-1.17921e-06
-4.77351e-08
-1.18267e-06
-2.87017e-08
-9.5804e-09
6.57576e-07
-7.55767e-09
6.54713e-07
-2.25943e-08
6.49961e-07
-3.75071e-08
6.43343e-07
-5.22514e-08
6.34886e-07
-6.67828e-08
6.24625e-07
-8.10562e-08
6.126e-07
-9.50244e-08
5.98856e-07
-1.08636e-07
5.83449e-07
-1.21833e-07
5.66442e-07
-1.34544e-07
5.4791e-07
-1.46681e-07
5.27944e-07
-1.58132e-07
5.06651e-07
-1.68748e-07
4.84165e-07
-1.78351e-07
4.60644e-07
-1.86729e-07
4.36275e-07
-1.93665e-07
4.11267e-07
-1.98972e-07
3.85842e-07
-2.02542e-07
3.60216e-07
-2.04395e-07
3.34586e-07
-2.04689e-07
3.0911e-07
-2.03692e-07
2.83907e-07
-2.01733e-07
2.59057e-07
-1.99133e-07
2.34602e-07
-1.96163e-07
2.10565e-07
-1.93023e-07
1.8695e-07
-1.89842e-07
1.63754e-07
-1.86694e-07
1.40969e-07
-1.83608e-07
1.18587e-07
-1.80588e-07
9.66039e-08
-1.77624e-07
7.50134e-08
-1.74699e-07
5.38133e-08
-1.71794e-07
3.30027e-08
-1.68896e-07
1.25813e-08
-1.65995e-07
-7.45076e-09
-1.63085e-07
-2.70931e-08
-1.60163e-07
-4.6343e-08
-1.57204e-07
-6.51974e-08
-1.54205e-07
-8.36538e-08
-1.51169e-07
-1.01711e-07
-1.48101e-07
-1.19368e-07
-1.45008e-07
-1.36626e-07
-1.41896e-07
-1.53487e-07
-1.38773e-07
-1.69953e-07
-1.35648e-07
-1.8603e-07
-1.32528e-07
-2.01721e-07
-1.29423e-07
-2.17035e-07
-1.26341e-07
-2.31977e-07
-1.2329e-07
-2.46558e-07
-1.20278e-07
-2.60786e-07
-1.17312e-07
-2.74673e-07
-1.14401e-07
-2.88228e-07
-1.11552e-07
-3.01465e-07
-1.08773e-07
-3.14397e-07
-1.06072e-07
-3.27039e-07
-1.03458e-07
-3.39405e-07
-1.00944e-07
-3.51515e-07
-9.85557e-08
-3.63392e-07
-9.6317e-08