/*--------------------------------*- C++ -*----------------------------------*\
  =========                 |
  \\      /  F ield         | OpenFOAM: The Open Source CFD Toolbox
   \\    /   O peration     | Website:  https://openfoam.org
    \\  /    A nd           | Version:  8
     \\/     M anipulation  |
\*---------------------------------------------------------------------------*/
FoamFile
{
    version     2.0;
    format      ascii;
    class       volScalarField;
    location    "660/fluid";
    object      Qdot;
}
// * * * * * * * * * * * * * * * * * * * * * * * * * * * * * * * * * * * * * //

dimensions      [1 -1 -3 0 0 0 0];

internalField   nonuniform List<scalar> 
4000
(
3.726e-13
-1.40496e-12
0
0
0
-1.61905e-11
0
0
0
-1.44144e-10
0
1.01915e-18
4.93231e-10
0
-2.95102e-14
-2.51136e-09
6.0058e-14
-2.97084e-15
2.82928e-08
5.0446e-07
4.04365e-06
5.32614e-05
0.000633542
0.00626031
0.0504971
0.332006
1.79491
8.09412
30.9465
101.949
293.68
749.139
1710.88
3534.19
6662.28
11585
18829.3
28990.7
42871.6
61647.3
86996.6
121155
167034
228487
310636
420377
566569
761693
1.02166e+06
1.36736e+06
1.8262e+06
2.43411e+06
3.2383e+06
4.3008e+06
5.70332e+06
7.55387e+06
9.99589e+06
1.31787e+07
1.73359e+07
2.29874e+07
3.05032e+07
6.21047e+07
3.86203e+08
2.95923e+07
2.13069e+07
1.51555e+07
1.06291e+07
7.33609e+06
4.97289e+06
3.30487e+06
2.15193e+06
1.3776e+06
881165
565841
150253
11212.4
307.38
4.32505
0.0408989
0.000417739
7.88907e-06
3.71456e-07
4.1971e-08
9.2171e-09
3.0074e-09
9.62079e-10
4.59916e-10
1.69209e-10
6.95519e-11
3.48178e-11
1.36154e-11
4.81121e-13
2.46178e-12
1.06151e-12
4.42166e-13
-5.5673e-12
6.95831e-14
2.52101e-14
9.19538e-15
1.47638e-15
0
2.04715e-17
6.13983e-21
6.09463e-12
2.81572e-11
-2.90749e-11
0
1.15419e-19
0
0
2.86772e-10
0
-1.39859e-14
2.0294e-18
-8.20068e-18
1.97639e-09
-1.99801e-09
-1.20935e-13
2.73713e-08
2.68868e-07
3.72298e-06
4.87503e-05
0.000579473
0.00576483
0.0469979
0.312903
1.71419
7.83209
30.3199
101.044
294.153
757.437
1743.31
3622.35
6860.44
11963.6
19466.5
29958.2
44223.1
63409.7
89168.3
123702
169922
231697
314202
424087
570663
766343
1.02708e+06
1.37387e+06
1.83433e+06
2.44474e+06
3.25287e+06
4.32165e+06
5.73426e+06
7.60099e+06
1.00688e+07
1.32909e+07
1.75093e+07
2.32622e+07
3.09361e+07
1.04952e+08
3.48946e+08
2.93806e+07
2.1085e+07
1.49507e+07
1.04512e+07
7.18733e+06
4.85231e+06
3.21021e+06
2.08046e+06
1.32665e+06
848642
519109
111887
6659.39
157.505
1.9951
0.0184852
0.000207721
4.68942e-06
2.66167e-07
3.55193e-08
8.35054e-09
2.63569e-09
1.10749e-09
4.41286e-10
1.62864e-10
7.79732e-11
3.37869e-11
1.41864e-11
6.13722e-12
2.41838e-12
1.09536e-12
4.37497e-13
1.79351e-13
6.5762e-14
5.42065e-12
8.8514e-15
1.47674e-15
2.6519e-07
-2.03833e-17
-2.89067e-07
7.4159e-12
0
-1.28343e-11
-3.23602e-11
1.12846e-19
0
2.48624e-10
4.73996e-19
0
-5.68049e-10
0
-3.67504e-07
-3.6884e-07
5.57826e-14
-2.87371e-15
2.14658e-08
2.58471e-07
3.51011e-06
4.58045e-05
0.000544871
0.00543677
0.044633
0.300012
1.66195
7.68403
30.1069
101.527
298.935
778.034
1807.46
3782.49
7207.05
12617.3
20566.5
31643.2
46614.6
66602.9
93234.1
128687
175891
238749
322140
433219
582112
780508
1.04465e+06
1.39589e+06
1.86234e+06
2.48105e+06
3.30093e+06
4.38668e+06
5.82417e+06
7.72776e+06
1.02505e+07
1.35507e+07
1.78857e+07
2.38158e+07
3.1739e+07
1.78075e+08
2.79869e+08
2.94206e+07
2.09672e+07
1.47631e+07
1.02471e+07
6.99592e+06
4.68775e+06
3.07764e+06
1.98e+06
1.25611e+06
805391
439849
73381.9
3503.21
73.3628
0.877749
0.00846378
0.000109254
2.971e-06
1.99489e-07
2.93559e-08
7.59056e-09
2.53774e-09
9.51035e-10
3.67692e-10
1.85395e-10
7.95167e-11
3.28294e-11
1.29323e-11
6.97959e-12
2.25411e-12
1.01983e-12
4.3227e-13
1.63622e-13
6.88295e-14
2.64315e-14
-7.59434e-13
1.4787e-15
0
2.0308e-17
0
2.97235e-07
3.60086e-16
1.55639e-11
0
6.49958e-11
0
1.34108e-10
0
-1.30245e-14
-4.49831e-10
0
-3.54633e-07
-3.4749e-17
-2.80607e-16
-2.82068e-15
8.48049e-09
2.405e-07
3.35955e-06
4.3859e-05
0.000519227
0.00521379
0.0431655
0.293096
1.6416
7.67683
30.4242
103.756
308.83
812.125
1904.73
4015.74
7686.85
13505.9
22045.3
33894.9
49806.2
70884.5
98739
135564
184288
248549
334006
448565
601155
804371
1.07481e+06
1.43435e+06
1.91184e+06
2.5454e+06
3.38545e+06
4.49886e+06
5.97458e+06
7.93129e+06
1.05281e+07
1.39225e+07
1.83873e+07
2.45077e+07
3.27002e+07
2.65458e+08
1.95296e+08
2.93924e+07
2.07765e+07
1.45043e+07
9.97965e+06
6.75297e+06
4.48478e+06
2.91901e+06
1.86381e+06
1.17762e+06
758989
348953
44589.9
1753.42
32.7735
0.372895
0.00376109
5.58006e-05
1.81703e-06
1.45562e-07
2.35218e-08
6.53638e-09
2.25709e-09
8.79105e-10
3.59754e-10
1.46381e-10
7.08942e-11
3.38605e-11
1.36829e-11
5.52843e-12
8.08637e-12
6.69514e-12
3.76992e-13
1.82407e-13
6.23614e-14
-5.31816e-12
8.84938e-15
5.06137e-12
-6.97189e-22
-2.02235e-17
-2.87084e-12
0
0
1.24834e-11
3.13316e-11
-6.37794e-11
0
3.31235e-07
0
0
-9.74292e-10
0
-7.4207e-18
-3.73672e-17
3.52987e-07
-4.46404e-09
3.72962e-07
2.32177e-07
3.25026e-06
4.24016e-05
0.00050536
0.00510424
0.042602
0.292012
1.65229
7.80856
31.2744
107.768
324.017
860.244
2035.34
4319.42
8297.57
14617.4
23869.1
36639.6
53662.5
76033.4
105350
143737
194064
260746
349957
468581
626490
836693
1.11635e+06
1.48808e+06
1.98178e+06
2.63697e+06
3.50601e+06
4.65836e+06
6.18648e+06
8.21374e+06
1.09005e+07
1.43995e+07
1.90239e+07
2.53737e+07
3.38573e+07
3.51475e+08
1.07339e+08
2.9093e+07
2.03594e+07
1.40762e+07
9.59423e+06
6.43236e+06
4.23314e+06
2.73123e+06
1.73087e+06
1.08983e+06
704630
247778
26027.1
872.984
14.8456
0.164153
0.00176515
3.02989e-05
1.17603e-06
1.0856e-07
1.96537e-08
5.52896e-09
1.76907e-09
7.98362e-10
3.5168e-10
1.64645e-10
6.64099e-11
2.8217e-11
1.25204e-11
5.87516e-12
2.31645e-12
9.52913e-13
3.74253e-13
1.36661e-13
5.49289e-12
2.19832e-14
8.12027e-15
-7.41745e-13
0
0
0
0
0
1.23146e-11
0
0
2.16449e-19
0
2.10354e-10
-3.29679e-07
-4.25596e-10
0
-7.20477e-18
-3.62333e-17
2.14011e-09
-3.45375e-07
3.5261e-07
4.1465e-07
3.21855e-06
4.15025e-05
0.000500403
0.00508532
0.042799
0.296081
1.69166
8.07386
32.6556
113.613
344.771
923.383
2201.95
4699.76
9050.09
15958.6
26036.7
39856
58126
81913.5
112713
152791
205510
275730
368815
492546
657213
876386
1.16798e+06
1.55565e+06
2.07069e+06
2.75449e+06
3.66188e+06
4.86558e+06
6.46211e+06
8.57987e+06
1.13864e+07
1.50335e+07
1.98568e+07
2.64362e+07
3.51644e+07
4.24578e+08
3.95505e+07
2.77419e+07
1.92856e+07
1.32546e+07
8.98434e+06
5.99195e+06
3.92395e+06
2.52087e+06
1.59315e+06
1.00446e+06
643901
184747
15036.5
442.738
6.95613
0.0757558
0.000874161
1.72738e-05
7.88211e-07
8.25743e-08
1.65056e-08
5.01724e-09
1.7394e-09
7.84144e-10
3.18694e-10
1.4837e-10
5.86242e-11
2.78103e-11
1.0677e-11
1.05154e-11
2.92225e-12
8.4245e-13
3.49166e-13
1.54207e-13
5.92715e-14
2.19809e-14
7.39659e-15
1.31364e-15
-2.63693e-07
2.73009e-07
0
0
-1.46367e-11
-1.2146e-11
-3.03552e-11
3.11008e-07
-1.01232e-10
1.25463e-10
0
0
-9.23389e-10
-1.74193e-18
1.85881e-09
-3.51131e-17
1.68539e-09
-2.80576e-15
1.5293e-08
2.47339e-07
3.20597e-06
4.16338e-05
0.000502592
0.00514669
0.0436709
0.304823
1.75779
8.46791
34.5657
121.341
371.401
1002.71
2407.91
5165.77
9962.19
17537.4
28546.7
43519.7
63090.1
88192.5
120469
162776
218596
292139
389573
519064
691395
920817
1.22617e+06
1.63243e+06
2.17268e+06
2.89083e+06
3.84523e+06
5.1134e+06
6.7984e+06
9.03733e+06
1.20116e+07
1.58507e+07
2.10963e+07
2.80636e+07
3.72771e+07
4.50887e+08
3.48885e+07
2.48012e+07
1.73877e+07
1.2009e+07
8.15884e+06
5.4436e+06
3.56171e+06
2.28493e+06
1.44323e+06
913466
567319
133013
8808.26
233.456
3.44405
0.0374487
0.000466583
1.05561e-05
5.56559e-07
6.54702e-08
1.37283e-08
4.51918e-09
1.54789e-09
6.65599e-10
3.08351e-10
1.32717e-10
5.70596e-11
2.41089e-11
1.05453e-11
4.68732e-12
1.86144e-12
8.35882e-13
3.19406e-13
1.35579e-13
5.57626e-14
2.04757e-14
7.40932e-15
-5.04327e-12
2.63309e-07
0
0
0
-2.92502e-07
0
-1.01913e-19
-1.03097e-19
2.08035e-19
0
-2.46653e-10
8.43699e-19
0
1.69295e-18
-6.78435e-18
-3.74245e-17
-3.63505e-09
-2.8283e-15
1.47606e-08
2.38469e-07
3.23843e-06
4.22059e-05
0.000512168
0.00528055
0.0451704
0.318024
1.8502
8.99208
37.0251
131.074
404.43
1099.98
2657.86
5724.36
11037.5
19365.3
31400.2
47557.8
68370.7
94987
129443
174050
232377
309240
411062
546360
726392
966069
1.28516e+06
1.70996e+06
2.27544e+06
3.02828e+06
4.03087e+06
5.36681e+06
7.14845e+06
9.52745e+06
1.27038e+07
1.68494e+07
2.25798e+07
3.02946e+07
4.07046e+07
4.38233e+08
3.20145e+07
2.277e+07
1.59832e+07
1.10542e+07
7.52008e+06
5.02369e+06
3.29155e+06
2.11633e+06
1.3433e+06
859723
504913
97471.9
5423.38
130.964
1.82984
0.0200008
0.000268901
6.89097e-06
4.13091e-07
5.36533e-08
1.25626e-08
3.94815e-09
1.57776e-09
6.26303e-10
2.82282e-10
1.10596e-10
5.9816e-11
2.37923e-11
1.00548e-11
4.45527e-12
1.84465e-12
7.29228e-13
3.03868e-13
1.22736e-13
5.56228e-14
2.04672e-14
-5.13771e-12
1.14392e-15
-3.68578e-13
0
0
-1.27327e-11
0
0
6.98761e-16
3.00091e-07
3.02264e-07
0
2.40873e-10
0
4.82247e-10
1.64443e-18
-6.57892e-18
-3.50305e-09
3.07578e-07
-2.89635e-15
2.13453e-08
8.77569e-08
3.15163e-06
4.33483e-05
0.000527672
0.00548102
0.0472629
0.335557
1.96887
9.65004
40.065
142.978
444.534
1217.39
2957.54
6386.33
12286
21433.6
34515.9
51824
74015
102413
138606
185274
246133
326210
432163
572792
759718
1.00833e+06
1.33904e+06
1.77901e+06
2.36441e+06
3.14351e+06
4.1809e+06
5.56313e+06
7.40659e+06
9.86828e+06
1.31364e+07
1.74237e+07
2.33541e+07
3.13368e+07
8.24209e+07
3.99681e+08
3.03218e+07
2.1518e+07
1.50702e+07
1.0399e+07
7.05771e+06
4.70347e+06
3.0747e+06
1.97376e+06
1.25379e+06
808893
435936
71784.7
3483.46
77.8718
1.04285
0.0115323
0.000166982
4.79101e-06
3.22036e-07
4.59934e-08
1.10241e-08
3.58042e-09
1.49501e-09
6.15492e-10
2.5237e-10
1.21598e-10
5.25519e-11
2.26816e-11
9.49266e-12
3.20074e-12
7.09975e-12
7.73208e-13
3.04576e-13
1.22206e-13
4.94454e-14
1.89652e-14
6.69475e-15
1.14782e-15
-4.82098e-18
0
0
2.81237e-07
-1.67969e-16
0
5.24915e-11
0
-1.39232e-15
0
0
0
0
-2.22388e-14
2.9688e-07
-1.86841e-09
1.52245e-09
-2.96564e-15
3.1881e-07
2.55248e-07
3.26218e-06
4.48184e-05
0.000549212
0.00574513
0.0499305
0.357398
2.11438
10.4484
43.7295
157.274
492.584
1357.8
3314.6
7168.45
13730.5
23730.3
37877.3
56442.7
80194.8
110055
147892
196496
259731
342769
452431
597699
790408
1.04621e+06
1.38582e+06
1.83676e+06
2.43561e+06
3.23107e+06
4.28806e+06
5.6933e+06
7.56279e+06
1.00521e+07
1.33426e+07
1.76366e+07
2.35496e+07
3.14557e+07
1.4869e+08
3.39697e+08
2.94429e+07
2.08564e+07
1.45882e+07
1.00575e+07
6.82208e+06
4.54536e+06
2.97186e+06
1.90955e+06
1.21637e+06
790054
389076
54616.4
2364.26
49.3261
0.636929
0.00715367
0.00011105
3.52557e-06
2.60995e-07
3.92588e-08
1.00671e-08
3.32307e-09
1.32693e-09
5.82532e-10
2.61765e-10
1.01604e-10
4.63936e-11
2.07124e-11
9.3772e-12
4.18148e-12
1.61324e-12
1.50919e-12
2.89183e-13
1.21631e-13
4.79547e-14
1.89429e-14
5.97161e-15
-5.02814e-12
-2.62168e-07
0
2.7395e-07
0
1.66023e-16
-2.85588e-07
-2.31713e-11
2.89411e-07
-1.14827e-10
-1.14885e-10
-1.86682e-10
-7.80296e-19
0
-3.09664e-18
-2.15051e-14
-4.3104e-17
2.865e-07
2.94245e-09
1.68008e-08
4.02351e-07
3.26808e-06
4.66086e-05
0.000575959
0.00606894
0.0531545
0.383527
2.28735
11.3944
48.0679
174.21
549.568
1524.14
3734.37
8066.4
15314.8
26170.8
41508.1
61509.4
86588.4
117844
157246
207689
273158
358928
471930
621245
818821
1.08041e+06
1.42683e+06
1.88566e+06
2.49348e+06
3.29883e+06
4.36626e+06
5.78173e+06
7.65985e+06
1.01536e+07
1.34363e+07
1.77107e+07
2.35836e+07
3.14094e+07
2.07648e+08
2.8292e+08
2.88259e+07
2.03901e+07
1.42406e+07
9.80377e+06
6.6418e+06
4.42136e+06
2.89009e+06
1.85875e+06
1.18782e+06
777370
346577
42806.8
1686.41
33.1522
0.415616
0.00474559
7.85928e-05
2.72784e-06
2.20479e-07
3.56311e-08
9.50253e-09
3.36175e-09
1.30127e-09
5.71652e-10
2.43763e-10
9.99413e-11
4.71204e-11
2.05832e-11
8.48123e-12
3.91962e-12
2.57653e-12
5.98828e-12
2.63098e-13
1.14389e-13
4.91215e-14
1.74414e-14
5.97377e-15
1.1042e-15
-3.66987e-13
1.96385e-17
2.72089e-07
-2.76047e-07
0
0
0
0
1.33592e-15
0
0
0
1.0515e-14
-2.77892e-07
1.58672e-09
2.75166e-07
-1.73835e-09
-3.15425e-15
1.89567e-08
2.62872e-07
3.58907e-06
4.88499e-05
0.000607636
0.00644837
0.0569085
0.413853
2.48798
12.4936
53.1276
194.073
616.888
1722.43
4238
9128.48
17141
29033
45615.8
66823.5
93127.1
125698
166595
218811
286422
374777
490871
643844
845686
1.11218e+06
1.46413e+06
1.92903e+06
2.54327e+06
3.35505e+06
4.42829e+06
5.84793e+06
7.7264e+06
1.02133e+07
1.34801e+07
1.77289e+07
2.35494e+07
3.12866e+07
2.57754e+08
2.35378e+08
2.82685e+07
2.00073e+07
1.39799e+07
9.62784e+06
6.52424e+06
4.34392e+06
2.84035e+06
1.8285e+06
1.17203e+06
771754
302857
34590.5
1259.95
23.5346
0.288132
0.00334841
5.87716e-05
2.20446e-06
1.90869e-07
3.27704e-08
8.74013e-09
3.18877e-09
1.27447e-09
5.60445e-10
2.40015e-10
1.04855e-10
4.71359e-11
2.09667e-11
8.36985e-12
4.26424e-12
-3.65019e-12
-4.56254e-12
2.85129e-13
4.56568e-12
4.59733e-14
1.74056e-14
-5.07996e-12
9.76801e-16
0
-1.49276e-12
5.69941e-21
-1.15353e-20
1.62156e-16
2.49057e-11
0
0
0
0
2.75523e-07
0
0
2.69007e-07
2.66909e-07
-4.00907e-17
3.03193e-09
-3.27745e-15
1.81558e-08
2.8492e-07
3.6373e-06
5.1471e-05
0.000643405
0.0068768
0.0611446
0.448113
2.7153
13.7443
58.9147
216.912
694.586
1950.9
4812.38
10332.8
19189.1
31993.3
49711.9
72073.5
99542.2
133386
175747
229713
299420
390274
509308
665690
871424
1.14227e+06
1.49897e+06
1.96888e+06
2.5881e+06
3.4044e+06
4.4808e+06
5.90024e+06
7.77383e+06
1.02524e+07
1.34999e+07
1.7713e+07
2.34722e+07
3.11089e+07
2.99719e+08
1.95867e+08
2.77077e+07
1.96361e+07
1.37373e+07
9.47196e+06
6.42658e+06
4.28486e+06
2.80652e+06
1.81102e+06
1.16528e+06
770405
273939
28748
981.433
17.5582
0.211019
0.00249615
4.61451e-05
1.85037e-06
1.69636e-07
3.06411e-08
8.38209e-09
3.03623e-09
1.24664e-09
5.02812e-10
2.34611e-10
1.01609e-10
4.33733e-11
2.57943e-11
3.82972e-12
3.82523e-12
1.56388e-12
-4.56066e-12
2.82919e-13
5.29318e-12
4.57728e-14
1.73617e-14
5.80639e-15
4.27881e-12
0
2.79556e-21
0
1.1427e-20
0
-2.45492e-11
-4.91429e-11
0
-1.27995e-15
0
0
0
0
0
1.47829e-09
3.83491e-14
1.30585e-09
-3.39005e-15
2.05411e-08
2.94831e-07
3.72822e-06
5.42531e-05
0.00068246
0.00734448
0.065782
0.485786
2.96671
15.1373
65.4142
242.807
783.632
2214.22
5466.16
11655.6
21275.8
34854.8
53603.7
76985.4
105527
140590
184388
240084
311852
405134
526981
686572
895894
1.17066e+06
1.53151e+06
2.00561e+06
2.6287e+06
3.44768e+06
4.52452e+06
5.94228e+06
7.81217e+06
1.0278e+07
1.34981e+07
1.76696e+07
2.33605e+07
3.08895e+07
3.342e+08
1.63931e+08
2.71468e+07
1.92732e+07
1.35062e+07
9.32789e+06
6.33909e+06
4.23361e+06
2.77818e+06
1.79705e+06
1.16042e+06
768670
256537
24550
795.091
13.7253
0.162628
0.00195667
3.78545e-05
1.60569e-06
1.56788e-07
2.85231e-08
8.0192e-09
2.86628e-09
1.21703e-09
5.36827e-10
2.29096e-10
1.06194e-10
4.26146e-11
1.8841e-11
8.13531e-12
3.77564e-12
-3.60201e-12
6.45137e-13
2.57143e-13
1.07076e-13
4.26389e-14
7.65111e-13
5.60148e-15
9.78937e-16
-2.60671e-07
0
0
0
-2.27252e-20
2.41938e-11
0
0
2.66337e-07
2.6399e-07
2.61369e-07
0
-2.55325e-07
6.47068e-10
2.48632e-07
-1.55239e-09
1.538e-09
2.41229e-07
-2.18065e-07
4.24606e-07
3.9543e-06
5.7097e-05
0.000723375
0.0078366
0.0706918
0.525959
3.23704
16.6489
72.5317
271.378
882.086
2504.66
6200.22
13114.6
23308.3
37364.9
56926.9
81139.7
110630
146824
192013
249387
323149
418750
543244
705795
918353
1.19656e+06
1.56082e+06
2.03787e+06
2.66274e+06
3.4821e+06
4.55867e+06
5.97374e+06
7.8336e+06
1.02808e+07
1.34679e+07
1.75904e+07
2.32032e+07
3.06129e+07
3.62251e+08
1.38077e+08
2.6587e+07
1.89192e+07
1.32886e+07
9.19901e+06
6.26652e+06
4.19574e+06
2.76092e+06
1.79156e+06
1.16144e+06
769784
243261
21598.6
669.747
11.2226
0.131501
0.0016065
3.23027e-05
1.43936e-06
1.43455e-07
2.81111e-08
8.10373e-09
2.962e-09
1.18775e-09
5.24434e-10
2.2487e-10
1.07208e-10
4.1109e-11
1.77935e-11
8.01234e-12
3.54044e-12
1.5277e-12
6.38498e-13
-5.19346e-13
1.06335e-13
4.24205e-14
-5.05915e-12
5.59294e-15
-5.00505e-12
0
1.93114e-17
5.93723e-12
0
0
-3.12302e-16
4.74771e-11
0
1.86888e-10
0
-6.85621e-19
2.50195e-07
3.17139e-10
-2.6161e-18
-7.72635e-18
1.48883e-09
-3.71241e-16
-3.63697e-15
-2.05047e-07
4.28815e-07
4.30401e-06
5.9985e-05
0.000764104
0.00833143
0.0756694
0.567093
3.51715
18.2377
80.1446
302.615
992.488
2838.26
7020.11
14570.9
24939.1
39013.5
59078.5
83885.5
114155
151363
197838
256776
332384
430109
556992
722142
937395
1.21812e+06
1.58446e+06
2.06299e+06
2.68937e+06
3.50947e+06
4.58285e+06
5.98907e+06
7.83307e+06
1.02538e+07
1.33983e+07
1.74587e+07
2.29764e+07
3.02495e+07
3.83793e+08
1.17904e+08
2.60261e+07
1.85666e+07
1.30735e+07
9.07276e+06
6.19634e+06
4.15989e+06
2.7453e+06
1.78733e+06
1.16331e+06
771618
233425
19551.7
585.433
9.57415
0.111203
0.00137617
2.85573e-05
1.32206e-06
1.37948e-07
2.59347e-08
7.54551e-09
2.80634e-09
1.19488e-09
5.11723e-10
2.24707e-10
9.63546e-11
4.45612e-11
1.74825e-11
7.88589e-12
3.49062e-12
1.46776e-12
6.31648e-13
2.52648e-13
1.0555e-13
4.2187e-14
1.57452e-14
5.22447e-15
8.9028e-16
0
-6.58512e-13
5.89599e-12
0
0
0
-2.59954e-07
0
0
-9.9264e-11
-4.64083e-15
0
-2.38163e-07
-2.5195e-18
-9.89112e-18
2.25063e-07
-3.37269e-14
2.77165e-09
2.48744e-08
3.25478e-07
4.28946e-06
6.26194e-05
0.00080241
0.00879811
0.0804056
0.606609
3.78904
19.7964
87.6849
333.735
1102.85
3173.42
7815.06
15773.1
25603.9
39044
59249.6
84373
115188
153211
200759
261012
338147
437569
566254
733211
950218
1.23263e+06
1.60087e+06
2.08118e+06
2.70734e+06
3.52428e+06
4.5908e+06
5.98421e+06
7.8062e+06
1.01909e+07
1.32792e+07
1.72522e+07
2.26287e+07
2.96798e+07
4.07093e+08
9.94181e+07
2.54669e+07
1.82205e+07
1.28671e+07
8.95588e+06
6.13502e+06
4.13165e+06
2.73573e+06
1.7875e+06
1.16793e+06
775421
226962
18195.5
529.987
8.50056
0.0980465
0.0012257
2.60749e-05
1.24318e-06
1.32266e-07
2.60701e-08
7.62965e-09
2.86937e-09
1.17079e-09
4.98714e-10
2.30119e-10
9.72615e-11
4.29775e-11
1.92745e-11
7.43146e-12
3.52007e-12
1.44894e-12
5.79172e-13
2.50276e-13
-4.9196e-12
7.84951e-13
1.56795e-14
-5.01311e-12
-4.26166e-12
0
-1.46166e-12
-2.6104e-07
0
2.18991e-20
3.02996e-16
0
-2.52191e-07
-1.67695e-19
-2.44238e-07
-1.54279e-10
2.34597e-07
0
-2.42273e-18
-9.47963e-18
-5.107e-17
-2.11012e-07
4.76896e-09
2.28317e-07
2.35487e-07
4.58146e-06
6.48826e-05
0.000835062
0.00920025
0.0845233
0.641344
4.03122
21.2071
94.6441
363.127
1208.66
3484.87
8483.12
16348.2
24518.4
36530.6
56485.7
81554.6
112554
150999
199164
260180
338176
438521
568163
736266
954529
1.2382e+06
1.60683e+06
2.08619e+06
2.70989e+06
3.52186e+06
4.57958e+06
5.95837e+06
7.75715e+06
1.0106e+07
1.31411e+07
1.70374e+07
2.2299e+07
2.91878e+07
4.19735e+08
8.8291e+07
2.49053e+07
1.78721e+07
1.26587e+07
8.83724e+06
6.07228e+06
4.10239e+06
2.72544e+06
1.7871e+06
1.17193e+06
778991
223277
17368.1
495.493
7.82992
0.0898222
0.00113112
2.44946e-05
1.1933e-06
1.29356e-07
2.63853e-08
7.71588e-09
2.86812e-09
1.17263e-09
4.85452e-10
2.30244e-10
9.74521e-11
4.20866e-11
1.89119e-11
8.70812e-12
3.3875e-12
1.46961e-12
5.5362e-12
2.47842e-13
1.03898e-13
4.16835e-14
1.56109e-14
5.20006e-15
9.38296e-16
-2.5919e-07
0
-2.59207e-07
0
-2.56334e-07
2.27729e-11
-2.48003e-11
0
0
-2.23418e-15
-6.2726e-19
0
0
2.15383e-07
-9.06732e-18
-5.30928e-17
-2.3006e-09
4.51061e-09
2.21597e-08
2.49591e-07
4.71657e-06
6.65684e-05
0.000858926
0.00949579
0.08757
0.667244
4.21329
22.2767
99.9614
385.69
1289.86
3712.05
8823.66
15681
23839.8
31380
49845.8
74403.4
105052
143283
191332
252289
330252
430559
560134
727828
945215
1.22729e+06
1.59353e+06
2.06925e+06
2.68746e+06
3.4912e+06
4.5367e+06
5.89745e+06
7.66973e+06
9.97986e+06
1.2959e+07
1.67761e+07
2.19184e+07
2.86342e+07
4.2871e+08
8.1364e+07
2.43396e+07
1.75186e+07
1.24447e+07
8.71284e+06
6.00399e+06
4.06801e+06
2.7106e+06
1.78271e+06
1.17231e+06
780280
221571
16941.3
476.516
7.452
0.0851523
0.00107723
2.35907e-05
1.16296e-06
1.28528e-07
2.57533e-08
7.58913e-09
2.77633e-09
1.2161e-09
5.02939e-10
2.34571e-10
9.51602e-11
4.23718e-11
1.91501e-11
8.17742e-12
3.33428e-12
1.49798e-12
5.85497e-13
-4.65555e-12
1.03042e-13
-6.89921e-13
1.55392e-14
5.18613e-15
8.88629e-16
2.58821e-07
-1.89866e-17
-7.56269e-17
0
0
0
8.30197e-20
2.41563e-07
-2.36543e-07
2.31107e-07
0
-4.11751e-15
2.12645e-07
-2.22863e-18
-1.15045e-09
1.94735e-07
2.81333e-14
4.25171e-09
2.0798e-08
3.48629e-07
4.715e-06
6.75221e-05
0.000871111
0.00964834
0.0891563
0.680852
4.30994
22.8507
102.842
397.868
1330.69
3789.93
8593.89
16171.5
24834.8
32715.6
39273.2
62393.6
91916.3
128950
175676
235102
311227
409272
536013
700214
913236
1.18981e+06
1.54909e+06
2.01593e+06
2.62274e+06
3.41171e+06
4.43786e+06
5.77306e+06
7.51123e+06
9.7753e+06
1.26922e+07
1.64252e+07
2.1445e+07
2.79861e+07
4.3348e+08
7.83061e+07
2.37537e+07
1.71362e+07
1.21983e+07
8.55696e+06
5.90763e+06
4.01015e+06
2.67704e+06
1.76386e+06
1.16162e+06
774259
220516
16797.2
469.079
7.29483
0.0831731
0.00105433
2.32107e-05
1.15254e-06
1.27688e-07
2.55711e-08
7.60086e-09
2.83e-09
1.17808e-09
5.2729e-10
2.29553e-10
9.51175e-11
4.40326e-11
1.81691e-11
8.02971e-12
3.4519e-12
7.27063e-13
6.02559e-13
2.65002e-13
1.07763e-13
4.11474e-14
1.54661e-14
5.36707e-15
8.8783e-16
-6.82332e-22
-2.58462e-07
0
0
2.53059e-07
1.23605e-11
-5.7833e-16
2.41601e-07
1.59641e-19
-7.43881e-11
-1.78186e-10
4.11749e-15
-3.36603e-10
-2.22862e-18
-1.08177e-17
1.94734e-07
-9.76962e-10
4.25162e-09
2.26639e-08
3.46379e-07
4.71495e-06
6.75214e-05
0.000871071
0.00964867
0.0891609
0.680891
4.31021
22.8523
102.85
397.894
1330.75
3790
8593.9
16171.4
24834.6
32715.3
39272.9
62391.6
91914
128947
175674
235100
311225
409271
536013
700214
913237
1.18982e+06
1.54909e+06
2.01594e+06
2.62275e+06
3.41171e+06
4.43787e+06
5.77307e+06
7.51124e+06
9.77532e+06
1.26922e+07
1.64253e+07
2.1445e+07
2.79861e+07
4.33481e+08
7.83045e+07
2.37536e+07
1.71359e+07
1.21979e+07
8.55633e+06
5.90685e+06
4.0093e+06
2.6762e+06
1.7631e+06
1.16102e+06
773857
220441
16794.4
469.045
7.29465
0.0831728
0.00105433
2.32142e-05
1.15231e-06
1.27687e-07
2.55718e-08
7.60086e-09
2.91184e-09
1.14407e-09
5.16565e-10
2.28339e-10
9.28298e-11
3.95585e-11
1.89014e-11
8.70552e-12
3.45184e-12
6.40198e-13
6.02559e-13
2.42822e-13
1.02172e-13
4.25951e-12
1.54666e-14
5.52577e-15
8.8783e-16
-4.75935e-18
0
-1.09336e-20
-2.58121e-07
2.56327e-07
-2.53829e-07
0
2.46967e-07
-2.42512e-07
0
-2.32687e-07
6.51062e-10
-2.21347e-07
6.81887e-10
5.40745e-10
-5.30921e-17
2.30056e-09
4.51054e-09
2.4603e-08
2.4763e-07
4.71648e-06
6.65755e-05
0.00085903
0.0094969
0.0875816
0.667346
4.21406
22.2817
99.9893
385.812
1290.05
3712.16
8823.04
15679.5
23838.9
31379
49842.4
74399.4
105048
143278
191327
252286
330250
430558
560135
727831
945221
1.2273e+06
1.59354e+06
2.06926e+06
2.68747e+06
3.49122e+06
4.53672e+06
5.89748e+06
7.66977e+06
9.97991e+06
1.2959e+07
1.67761e+07
2.19185e+07
2.86343e+07
4.28714e+08
8.13596e+07
2.43396e+07
1.75188e+07
1.2445e+07
8.7134e+06
6.00469e+06
4.06878e+06
2.71135e+06
1.78337e+06
1.17283e+06
780623
221635
16943.9
476.555
7.45238
0.0851555
0.00107727
2.35953e-05
1.16397e-06
1.28017e-07
2.54335e-08
7.75263e-09
2.84454e-09
1.1731e-09
4.91923e-10
2.2435e-10
9.58983e-11
4.38394e-11
1.98966e-11
8.17742e-12
4.21127e-12
1.4889e-12
6.10018e-13
2.67749e-13
1.03044e-13
4.14173e-14
1.55396e-14
5.54118e-15
4.9893e-12
0
0
0
1.53193e-16
-5.224e-12
3.02952e-16
-6.00081e-16
0
1.67694e-19
-2.2962e-15
0
0
3.63239e-10
-2.4227e-18
-1.65185e-14
-2.14972e-07
-1.08709e-09
-3.84748e-15
2.09248e-08
3.39201e-07
4.4773e-06
6.47958e-05
0.000835049
0.0092013
0.0845299
0.641379
4.03128
21.2062
94.6313
363.037
1208.63
3485.19
8484.47
16349.8
24519.4
36531.4
56486.7
81555.6
112555
151000
199164
260180
338176
438522
568167
736273
954539
1.23822e+06
1.60684e+06
2.08621e+06
2.70993e+06
3.52191e+06
4.57963e+06
5.95843e+06
7.75723e+06
1.01061e+07
1.31412e+07
1.70375e+07
2.22992e+07
2.91879e+07
4.19742e+08
8.82831e+07
2.49051e+07
1.78718e+07
1.26583e+07
8.83672e+06
6.07169e+06
4.10177e+06
2.72486e+06
1.78661e+06
1.17156e+06
778752
223235
17366.7
495.485
7.83005
0.0898254
0.00113117
2.44945e-05
1.1946e-06
1.29478e-07
2.57853e-08
7.55107e-09
2.93838e-09
1.20923e-09
4.94647e-10
2.36015e-10
9.98467e-11
4.48009e-11
1.89119e-11
8.32313e-12
3.48487e-12
1.46964e-12
5.51142e-12
2.47842e-13
1.07032e-13
-4.96064e-12
-7.20808e-13
5.55591e-15
9.29267e-16
0
0
-2.64509e-12
0
1.5447e-16
0
0
9.24077e-11
-1.19603e-15
2.35816e-15
0
6.54377e-19
-3.7652e-10
-2.33321e-07
-1.72356e-14
-4.86055e-17
2.54549e-09
2.77161e-09
2.7617e-08
3.32617e-07
4.39045e-06
6.26225e-05
0.000802541
0.00879944
0.080416
0.606685
3.78954
19.7995
87.7047
333.858
1103.13
3174.14
7816.4
15775
25605.9
39046.9
59253.2
84377
115192
153216
200765
261018
338153
437575
566261
733221
950232
1.23265e+06
1.6009e+06
2.08121e+06
2.70738e+06
3.52433e+06
4.59087e+06
5.9843e+06
7.80631e+06
1.0191e+07
1.32794e+07
1.72524e+07
2.26289e+07
2.96801e+07
4.07105e+08
9.94077e+07
2.54667e+07
1.82204e+07
1.28672e+07
8.95601e+06
6.13522e+06
4.13189e+06
2.73597e+06
1.78771e+06
1.1681e+06
775540
226987
18196.9
530.02
8.50107
0.0980525
0.00122578
2.60734e-05
1.24318e-06
1.33489e-07
2.64119e-08
7.48804e-09
2.95817e-09
1.20769e-09
4.99391e-10
2.36022e-10
9.42579e-11
4.14513e-11
1.9274e-11
7.7568e-12
4.16314e-12
1.39912e-12
6.24608e-13
5.26636e-12
1.04738e-13
4.19408e-14
1.71107e-14
5.21287e-15
-4.99621e-12
0
0
1.11657e-20
-1.19226e-11
0
0
0
9.43102e-11
-1.86888e-10
2.4204e-15
-6.85616e-19
-2.50193e-07
2.4623e-07
-2.61607e-18
-7.72627e-18
-5.07797e-17
-1.19673e-09
-3.64686e-15
2.62264e-08
2.01728e-07
4.18634e-06
6.0111e-05
0.000764364
0.00833279
0.0756807
0.56717
3.51758
18.2396
80.1498
302.611
992.535
2838.53
7020.86
14572.2
24940.8
39016
59081.7
83889.3
114159
151368
197844
256783
332392
430119
557005
722158
937415
1.21814e+06
1.58449e+06
2.06304e+06
2.68943e+06
3.50954e+06
4.58294e+06
5.98919e+06
7.83322e+06
1.0254e+07
1.33985e+07
1.74589e+07
2.29768e+07
3.02499e+07
3.83816e+08
1.17883e+08
2.6026e+07
1.85667e+07
1.30737e+07
9.07298e+06
6.19656e+06
4.16007e+06
2.74543e+06
1.78741e+06
1.16334e+06
771622
233423
19551.8
585.448
9.57459
0.11121
0.00137625
2.85635e-05
1.32205e-06
1.37945e-07
2.62871e-08
7.72481e-09
2.71501e-09
1.15696e-09
5.11722e-10
2.30746e-10
1.01916e-10
4.38496e-11
1.7482e-11
8.61341e-12
8.563e-12
6.78893e-13
6.77594e-13
5.31519e-12
5.17399e-12
4.50677e-14
1.57452e-14
5.22436e-15
-7.34308e-13
2.01483e-13
-2.63991e-07
0
1.13189e-20
0
-2.69692e-07
0
-2.68203e-07
-1.25216e-15
-2.63989e-07
2.6116e-07
6.96426e-19
0
1.8893e-14
6.38806e-10
-4.7654e-17
2.44432e-07
-7.61049e-14
2.51009e-08
3.02427e-07
3.95424e-06
5.71119e-05
0.000723524
0.007838
0.0707026
0.526031
3.23743
16.6507
72.5393
271.412
882.26
2504.89
6200.75
13115.6
23309.7
37367.3
56929.9
81143.4
110634
146830
192019
249394
323158
418762
543259
705815
918378
1.19659e+06
1.56087e+06
2.03792e+06
2.6628e+06
3.48219e+06
4.55879e+06
5.97389e+06
7.8338e+06
1.02811e+07
1.34682e+07
1.75908e+07
2.32037e+07
3.06135e+07
3.62283e+08
1.38054e+08
2.65862e+07
1.89185e+07
1.32879e+07
9.19827e+06
6.26583e+06
4.19516e+06
2.76049e+06
1.79129e+06
1.1613e+06
769742
243268
21600.1
669.797
11.2234
0.131511
0.00160662
3.23037e-05
1.43935e-06
1.45346e-07
2.81108e-08
7.95365e-09
3.13273e-09
1.27435e-09
5.04694e-10
2.29888e-10
1.07208e-10
4.1108e-11
1.85259e-11
3.72561e-12
4.28428e-12
1.5277e-12
6.38482e-13
2.31693e-13
5.21339e-12
5.13806e-12
1.58057e-14
7.46832e-13
9.79299e-16
0
0
0
-1.14269e-20
2.3001e-20
2.73632e-07
2.73876e-07
0
-1.28013e-15
0
-1.72808e-10
4.99761e-15
1.41966e-18
-6.70019e-10
-1.93724e-14
-4.96017e-17
-3.50341e-16
5.79607e-09
2.31356e-08
2.94827e-07
3.85401e-06
5.42753e-05
0.000682632
0.00734607
0.0657934
0.48586
2.96709
15.1389
65.4194
242.817
783.612
2214.27
5466.5
11656.4
21276.9
34856.7
53606.3
76988.8
105531
140595
184395
240092
311862
405147
526998
686593
895922
1.1707e+06
1.53156e+06
2.00567e+06
2.62878e+06
3.44778e+06
4.52465e+06
5.94245e+06
7.8124e+06
1.02783e+07
1.34985e+07
1.76701e+07
2.33612e+07
3.08904e+07
3.34252e+08
1.63895e+08
2.71463e+07
1.92731e+07
1.35063e+07
9.32814e+06
6.33939e+06
4.23389e+06
2.77837e+06
1.79713e+06
1.1604e+06
768593
256503
24547.9
795.071
13.7256
0.162636
0.00195679
3.78555e-05
1.60568e-06
1.56185e-07
2.88276e-08
7.82971e-09
3.04078e-09
1.217e-09
5.36811e-10
2.29816e-10
1.06194e-10
4.05182e-11
1.8841e-11
8.13506e-12
3.77564e-12
1.54608e-12
-1.12919e-13
5.38989e-12
1.07072e-13
-7.1382e-13
-7.34841e-13
5.96085e-15
9.78938e-16
0
-6.69683e-13
6.0612e-12
1.15353e-20
0
2.49053e-11
0
2.78764e-07
1.3081e-15
-2.77336e-07
0
0
-3.49396e-10
-2.90479e-18
-8.44995e-10
-3.04537e-09
-4.00566e-14
-3.27741e-15
1.81556e-08
1.46884e-07
3.63725e-06
5.13621e-05
0.000643576
0.00687854
0.061157
0.448193
2.71572
13.7461
58.9216
216.936
694.675
1951.27
4813.18
10333.8
19190.5
31995.4
49714.8
72077.1
99546.7
133391
175754
229721
299430
390288
509325
665713
871453
1.14231e+06
1.49902e+06
1.96894e+06
2.58819e+06
3.40451e+06
4.48095e+06
5.90042e+06
7.77407e+06
1.02527e+07
1.35003e+07
1.77135e+07
2.3473e+07
3.111e+07
2.9978e+08
1.95827e+08
2.77082e+07
1.96371e+07
1.37383e+07
9.47302e+06
6.42757e+06
4.28573e+06
2.80733e+06
1.8118e+06
1.16599e+06
770957
274096
28757.8
981.617
17.5601
0.211036
0.00249632
4.61448e-05
1.85442e-06
1.70258e-07
3.06411e-08
8.38209e-09
2.9376e-09
1.24661e-09
5.4883e-10
2.58664e-10
9.72925e-11
4.12405e-11
2.06461e-11
1.41873e-11
3.82523e-12
1.46902e-12
-1.62093e-13
2.82919e-13
1.07769e-13
4.28397e-14
-5.10219e-12
5.60735e-15
9.78144e-16
2.61792e-07
-1.96385e-17
-5.73848e-21
-6.82777e-12
2.50498e-11
3.30913e-16
0
0
-1.33611e-15
-9.13506e-11
-4.05807e-10
-4.45244e-10
0
-3.00074e-18
-5.96797e-18
-4.15982e-17
-2.74534e-07
-3.172e-15
1.89566e-08
2.6352e-07
3.582e-06
4.90209e-05
0.000607844
0.00645011
0.0569218
0.413938
2.48842
12.4955
53.1344
194.093
616.933
1722.47
4238.09
9129.11
17142.4
29035.2
45618.5
66826.8
93131.1
125703
166601
218819
286432
374790
490888
643866
845715
1.11221e+06
1.46417e+06
1.92909e+06
2.54335e+06
3.35515e+06
4.42841e+06
5.84807e+06
7.72658e+06
1.02136e+07
1.34804e+07
1.77292e+07
2.35498e+07
3.12872e+07
2.57783e+08
2.35343e+08
2.82652e+07
2.00026e+07
1.39744e+07
9.62237e+06
6.51923e+06
4.33917e+06
2.83619e+06
1.82514e+06
1.16955e+06
770128
302412
34565.2
1259.56
23.5321
0.288128
0.00334847
5.87714e-05
2.20446e-06
1.90868e-07
3.27704e-08
8.57866e-09