/*--------------------------------*- C++ -*----------------------------------*\
  =========                 |
  \\      /  F ield         | OpenFOAM: The Open Source CFD Toolbox
   \\    /   O peration     | Website:  https://openfoam.org
    \\  /    A nd           | Version:  8
     \\/     M anipulation  |
\*---------------------------------------------------------------------------*/
FoamFile
{
    version     2.0;
    format      ascii;
    class       volScalarField;
    location    "660/fluid";
    object      rDeltaT;
}
// * * * * * * * * * * * * * * * * * * * * * * * * * * * * * * * * * * * * * //

dimensions      [0 0 -1 0 0 0 0];

internalField   nonuniform List<scalar> 
4000
(
513.479
539.489
564.315
588.103
610.791
632.28
652.443
671.141
688.242
703.649
717.323
729.319
739.813
749.133
757.765
766.213
774.867
783.914
793.26
802.522
811.104
818.313
823.495
826.121
825.862
822.53
816.012
806.275
793.353
777.33
758.325
740.488
754.736
799.064
842.619
885.292
927.003
967.679
1007.27
1045.73
1083.03
1119.14
1154.07
1187.8
1220.33
1251.66
1281.8
1310.76
1338.54
1365.14
1390.58
1414.87
1438
1459.97
1480.79
1500.45
1518.94
1536.13
1551.99
1566.77
1580.35
2445.98
15476.7
1571.51
1535.15
1493.87
1448.15
1398.5
1345.35
1289.09
1230.14
1168.96
1106.14
1042.2
977.891
914.656
854.504
799.862
753.689
718.624
695.645
683.295
678.31
677.162
677.028
676.146
673.533
668.838
662.092
653.484
643.248
631.622
618.824
605.049
590.46
575.193
559.349
542.999
526.186
508.858
513.007
538.362
562.401
585.057
606.303
626.063
644.247
660.765
675.552
688.594
699.95
709.78
718.366
726.134
733.566
741.134
749.22
758.013
767.426
777.08
786.354
794.511
800.82
804.68
805.637
803.385
797.759
788.718
776.306
760.63
741.837
720.099
714.69
743.445
788.164
832.196
875.438
917.803
959.219
999.633
1039
1077.3
1114.5
1150.59
1185.56
1219.42
1252.16
1283.79
1314.31
1343.74
1372.09
1399.36
1425.58
1450.74
1474.87
1497.97
1520.04
1540.96
1560.75
1579.73
1597.78
4143.71
14003.2
1582.55
1541.36
1496.53
1447.96
1395.72
1340.01
1281.05
1219.11
1154.59
1087.96
1019.64
950.586
882.663
818.516
761.416
714.63
680.487
659.186
648.516
644.936
645.037
646.287
647.133
646.761
644.718
640.854
635.194
627.846
618.953
608.671
597.154
584.543
570.963
556.515
541.273
525.274
508.549
512.309
536.118
558.437
579.234
598.447
616.018
631.891
646.032
658.444
669.187
678.397
686.305
693.243
699.629
705.913
712.547
719.913
728.212
737.372
747.032
756.592
765.317
772.465
777.375
779.503
778.46
774.032
766.142
754.811
740.13
722.239
701.302
677.506
686.844
731.837
776.458
820.566
864.061
906.861
948.898
990.12
1030.48
1069.96
1108.53
1146.18
1182.91
1218.69
1253.56
1287.5
1320.53
1352.67
1383.95
1414.37
1443.96
1472.74
1500.72
1527.89
1554.07
1579.2
1603.45
1626.24
7047.11
11256.9
1601.88
1555.89
1506.16
1452.75
1395.74
1335.28
1271.57
1204.87
1135.58
1064.23
991.383
918.343
847.42
781.632
724.481
679.058
647.025
627.827
618.851
616.562
617.739
620.036
622.016
622.972
622.541
620.555
616.969
611.81
605.145
597.063
587.657
577.024
565.253
552.421
538.593
523.815
508.103
511.625
534.062
554.94
574.216
591.847
607.796
622.036
634.564
645.41
654.658
662.455
669.033
674.716
679.914
685.1
690.748
697.246
704.792
713.318
722.467
731.638
740.099
747.099
751.969
754.179
753.351
749.258
741.795
730.955
716.8
699.441
679.022
655.705
649.736
678.737
723.69
768.408
812.786
856.736
900.185
943.075
985.357
1027
1067.97
1108.25
1147.82
1186.68
1224.83
1262.27
1299
1335.04
1370.39
1405.07
1439.06
1472.37
1504.96
1536.76
1567.44
1596.86
1625.04
1651.2
10528.4
7877.29
1614.45
1564.52
1510.32
1452.12
1390.21
1324.83
1256.31
1185.04
1111.57
1036.57
960.824
885.996
814.622
749.737
694.546
651.687
622.275
605.288
597.924
596.754
598.784
601.875
604.697
606.542
607.07
606.142
603.725
599.838
594.526
587.846
579.86
570.628
560.211
548.661
536.025
522.338
507.622
510.893
531.838
551.176
568.87
584.885
599.195
611.791
622.688
631.938
639.645
645.978
651.184
655.601
659.648
663.795
668.513
674.178
680.986
688.866
697.466
706.196
714.326
721.107
725.861
728.048
727.279
723.312
716.029
705.407
691.494
674.385
654.211
631.118
612.598
628.526
673.686
718.87
763.974
808.909
853.598
897.98
942.006
985.634
1028.83
1071.55
1113.8
1155.56
1196.8
1237.53
1277.74
1317.41
1356.53
1395.09
1433.04
1470.32
1506.84
1542.43
1576.64
1609.31
1640.31
1668.62
13969.1
4343.38
1618.35
1565.47
1507.58
1445.31
1379.17
1309.6
1237.09
1162.17
1085.56
1007.98
930.417
854.767
783.641
720.026
666.908
626.521
599.483
584.381
578.304
577.963
580.596
584.264
587.762
590.426
591.919
592.08
590.85
588.22
584.211
578.855
572.193
564.269
555.126
544.805
533.341
520.768
507.107
510.159
529.638
547.499
563.708
578.238
591.074
602.218
611.698
619.578
625.97
631.05
635.07
638.364
641.346
644.48
648.227
652.96
658.871
665.899
673.7
681.698
689.177
695.395
699.68
701.488
700.427
696.244
688.81
678.089
664.113
646.966
626.761
603.632
577.73
583.753
626.676
672.223
717.927
763.697
809.458
855.146
900.706
946.086
991.249
1036.16
1080.8
1125.13
1169.12
1212.76
1256.02
1298.85
1341.23
1383.08
1424.33
1464.86
1504.52
1543.05
1579.88
1614.83
1647.61
1677.03
16910
1662.75
1614.33
1558.86
1497.8
1432.12
1362.53
1289.66
1214.11
1136.56
1057.82
978.69
900.311
824.756
754.659
692.927
642.306
604.648
580.13
567.018
562.322
562.868
566.093
570.224
574.177
577.355
579.453
580.322
579.897
578.162
575.12
570.788
565.191
558.355
550.309
541.083
530.703
519.196
506.585
509.417
527.414
543.796
558.533
571.602
582.996
592.724
600.823
607.365
612.47
616.319
619.167
621.349
623.275
625.404
628.187
631.992
637.006
643.166
650.135
657.345
664.088
669.629
673.3
674.558
673.008
668.392
660.576
649.514
635.232
617.8
597.323
573.924
547.741
546.381
581.912
627.745
673.944
720.421
767.1
813.91
860.789
907.69
954.565
1001.37
1048.07
1094.62
1140.98
1187.11
1232.96
1278.46
1323.56
1368.14
1412.1
1455.26
1497.39
1538.19
1576.88
1613.63
1647.29
1676.78
17995.1
1656.21
1604.06
1545.5
1481.61
1413.27
1341.18
1266.03
1188.5
1109.34
1029.43
949.611
871.171
796.29
727.595
667.889
619.699
584.539
562.23
550.807
547.259
548.553
552.301
556.877
561.287
564.985
567.681
569.23
569.565
568.658
566.502
563.106
558.482
552.647
545.623
537.43
528.09
517.627
506.06
508.676
525.203
540.127
553.423
565.073
575.075
583.445
590.225
595.492
599.37
602.043
603.764
604.866
605.752
606.873
608.672
611.507
615.563
620.778
626.821
633.132
639.013
643.735
646.637
647.179
644.962
639.73
631.342
619.747
604.964
587.057
566.12
542.27
515.633
508.781
538.927
584.961
631.549
678.6
726.033
773.777
821.769
869.952
918.272
966.677
1015.11
1063.53
1111.87
1160.08
1208.08
1255.79
1303.11
1349.91
1396.05
1441.31
1485.42
1527.94
1568.15
1605.97
1640.08
1668.92
17527
1642.28
1587.32
1526.4
1460.43
1390.2
1316.44
1239.84
1161.12
1081.12
1000.74
920.849
842.872
769.059
702.014
644.446
598.681
565.939
545.735
535.921
533.482
535.507
539.765
544.754
549.567
553.706
556.904
559.027
560.006
559.81
558.428
555.858
552.107
547.185
541.105
533.883
525.536
516.082
505.542
507.937
522.998
536.474
548.342
558.59
567.219
574.252
579.733
583.744
586.412
587.919
588.521
588.545
588.39
588.497
589.301
591.152
594.23
598.471
603.548
608.906
613.854
617.672
619.704
619.411
616.4
610.412
601.305
589.025
573.588
555.053
533.508
509.063
481.837
470.925
497.198
543.351
590.221
637.714
685.75
734.256
783.162
832.403
881.919
931.648
981.526
1031.49
1081.46
1131.37
1181.13
1230.62
1279.73
1328.31
1376.18
1423.08
1468.73
1512.6
1554.04
1592.92
1627.93
3258.89
16017.3
1622.51
1565.67
1503.13
1435.76
1364.31
1289.53
1212.12
1132.84
1052.57
972.228
892.696
815.533
743.022
677.741
622.298
578.836
548.319
530.012
521.635
520.194
522.898
527.652
533.061
538.288
542.874
546.571
549.251
550.848
551.327
550.674
548.883
545.956
541.898
536.717
530.426
523.037
514.567
505.033
507.203
520.806
532.843
543.297
552.158
559.432
565.144
569.344
572.115
573.585
573.938
573.426
572.374
571.173
570.256
570.049
570.894
572.964
576.195
580.259
584.609
588.56
591.399
592.473
591.253
587.344
580.492
570.552
557.474
541.267
521.99
499.726
474.581
446.669
432.794
456.343
502.53
549.575
597.389
645.888
694.992
744.628
794.726
845.215
896.026
947.085
998.314
1049.63
1100.94
1152.13
1203.09
1253.67
1303.7
1352.98
1401.25
1448.18
1493.24
1535.78
1575.71
1611.82
5886.75
13636.1
1597.67
1539.94
1476.58
1408.48
1336.43
1261.18
1183.47
1104.12
1024
944.048
865.191
789.073
717.999
654.516
601.149
559.87
531.422
514.863
507.812
507.308
510.668
515.92
521.755
527.401
532.431
536.616
539.834
542.022
543.146
543.188
542.139
539.999
536.767
532.451
527.057
520.598
513.085
504.535
506.472
518.625
529.232
538.279
545.761
551.688
556.087
559.011
560.546
560.821
560.019
558.392
556.257
554.001
552.05
550.819
550.642
551.685
553.879
556.901
560.204
563.11
564.913
564.967
562.745
557.861
550.061
539.204
525.238
508.175
488.069
465.005
439.084
410.417
394.39
416.049
462.185
509.311
557.332
606.162
655.719
705.923
756.698
807.968
859.655
911.674
963.94
1016.35
1068.81
1121.19
1173.36
1225.16
1276.4
1326.87
1376.28
1424.31
1470.39
1513.89
1554.73
1591.66
8228.61
11377.3
1569.47
1511.48
1447.84
1379.5
1307.28
1231.98
1154.37
1075.28
995.628
916.337
838.36
763.428
693.859
632.168
580.791
541.556
515.009
500.042
494.203
494.572
498.568
504.321
510.6
516.685
522.176
526.86
530.622
533.4
535.16
535.884
535.561
534.186
531.76
528.285
523.767
518.213
511.635
504.047
505.744
516.454
525.638
533.285
539.393
543.977
547.067
548.718
549.018
548.097
546.139
543.39
540.167
536.848
533.851
531.582
530.367
530.364
531.501
533.452
535.675
537.497
538.219
537.2
533.922
528.002
519.191
507.351
492.433
474.449
453.454
429.532
402.782
373.315
355.722
376.084
422.094
469.209
517.334
566.379
616.258
666.888
718.188
770.073
822.459
875.255
928.363
981.678
1035.08
1088.45
1141.62
1194.44
1246.69
1298.16
1348.55
1397.5
1444.46
1488.79
1530.39
1567.98
10224.8
9477.84
1539.1
1481.15
1417.57
1349.33
1277.29
1202.26
1125.05
1046.5
967.547
889.097
812.147
738.499
670.467
610.531
561.052
523.722
498.926
485.417
480.697
481.891
486.511
492.774
499.517
506.061
512.033
517.231
521.545
524.917
527.313
528.714
529.108
528.489
526.855
524.205
520.545
515.879
510.217
503.57
505.02
514.293
522.059
528.309
533.047
536.29
538.071
538.449
537.512
535.392
532.271
528.394
524.074
519.683
515.63
512.313
510.047
508.982
509.043
509.902
511.02
511.728
511.333
509.204
504.826
497.824
487.954
475.083
459.165
440.213
418.286
393.467
365.855
335.559
316.81
336.28
382.092
429.114
477.25
526.407
576.495
627.429
679.12
731.48
784.418
837.836
891.628
945.68
999.867
1054.05
1108.07
1161.74
1214.86
1267.18
1318.4
1368.18
1415.91
1460.97
1503.25
1541.45
11899.9
7895.63
1507.26
1449.56
1386.28
1318.4
1246.79
1172.28
1095.69
1017.88
939.797
862.331
786.517
714.209
647.715
589.483
541.798
506.238
483.049
470.876
467.193
469.172
474.407
481.192
488.421
495.449
501.925
507.656
512.539
516.517
519.556
521.637
522.748
522.88
522.029
520.196
517.381
513.589
508.826
503.102
504.299
512.14
518.491
523.348
526.717
528.62
529.092
528.194
526.017
522.693
518.403
513.393
507.968
502.496
497.377
493.001
489.673
487.535
486.505
486.255
486.246
485.816
484.277
481.005
475.495
467.377
456.413
442.477
425.524
405.574
382.686
356.944
328.448
297.308
277.678
296.517
342.065
388.921
436.985
486.163
536.363
587.494
639.465
692.182
745.549
799.46
853.805
908.462
963.297
1018.16
1072.89
1127.3
1181.16
1234.22
1286.19
1336.69
1385.13
1430.87
1473.8
1512.62
13278.2
6613.91
1474.41
1417.12
1354.32
1286.98
1215.99
1142.19
1066.39
989.471
912.388
836.012
761.413
690.477
625.508
568.918
522.926
489.009
467.296
456.35
453.631
456.361
462.207
469.529
477.265
484.803
491.806
498.092
503.562
508.16
511.853
514.622
516.452
517.336
517.267
516.244
514.266
511.337
507.46
502.643
503.58
509.993
514.932
518.398
520.399
520.961
520.122
517.946
514.525
509.991
504.528
498.376
491.84
485.279
479.087
473.643
469.243
466.021
463.889
462.515
461.364
459.777
457.073
452.636
445.969
436.71
424.627
409.6
391.59
370.62
346.752
320.073
290.684
258.696
238.356
256.714
301.938
348.561
396.481
445.602
495.829
547.067
599.223
652.198
705.89
760.189
814.979
870.132
925.508
980.952
1036.29
1091.33
1145.84
1199.57
1252.21
1303.38
1352.47
1398.86
1442.45
1481.91
14401.2
5574.44
1440.85
1384.09
1321.9
1255.25
1185.03
1112.08
1037.21
961.301
885.318
810.112
736.779
667.233
603.765
548.755
504.361
471.97
451.614
441.791
439.967
443.42
449.875
457.748
466.014
474.087
481.643
488.506
494.583
499.817
504.177
507.643
510.2
511.838
512.552
512.336
511.191
509.116
506.114
502.191
502.863
507.852
511.381
513.456
514.09
513.309
511.157
507.699
503.03
497.283
490.641
483.342
475.686
468.03
460.757
454.239
448.759
444.445
441.201
438.694
436.388
433.629
429.744
424.125
416.283
405.864
392.645
376.51
357.429
335.426
310.569
282.947
252.663
219.827
198.87
216.817
261.665
307.996
355.709
404.704
454.884
506.153
558.413
611.561
665.492
720.091
775.237
830.797
886.625
942.561
998.428
1054.03
1109.12
1163.45
1216.7
1268.5
1318.22
1365.26
1409.5
1449.63
15264.8
4762.13
1406.79
1350.65
1289.18
1223.35
1154.02
1082.02
1008.18
933.38
858.57
784.592
712.56
644.407
582.41
528.919
486.039
455.08
435.989
427.194
426.174
430.322
437.39
445.83
454.649
463.28
471.412
478.876
485.578
491.466
496.507
500.681
503.973
506.372
507.87
508.462
508.146
506.92
504.785
501.746
502.148
505.714
507.835
508.519
507.785
505.661
502.194
497.451
491.53
484.565
476.738
468.286
459.506
450.748
442.39
434.79
428.226
422.813
418.45
414.801
411.33
407.389
402.311
395.497
386.467
374.876
360.509
343.257
323.096
300.055
274.206
245.641
214.464
180.79
159.252
176.796
221.22
267.208
314.657
363.467
413.537
464.77
517.064
570.314
624.41
679.234
734.661
790.555
846.765
903.126
959.456
1015.55
1071.17
1126.05
1179.87
1232.26
1282.6
1330.28
1375.23
1416.15
16197.1
4016.44
1372.29
1316.89
1256.25
1191.33
1122.99
1052.05
979.329
905.705
832.126
759.417
688.707
621.936
561.368
509.322
467.861
438.241
420.368
412.583
412.285
417.095
424.767
433.782
443.168
452.375
461.102
469.184
476.53
483.088
488.825
493.719
497.755
500.922
503.209
504.611
505.123
504.743
503.469
501.305
501.433
503.578
504.292
503.586
501.482
498.013
493.228
487.198
480.021
471.833
462.817
453.208
443.299
433.435
423.985
415.3
407.646
401.129
395.642
390.844
386.201
381.07
374.791
366.774
356.548
343.777
328.255
309.881
288.636
264.557
237.718
208.214
176.154
141.652
119.529
136.64
180.597
226.196
273.332
321.902
371.807
422.945
475.213
528.502
582.7
637.687
693.333
749.499
806.031
862.759
919.498
976.038
1032.14
1087.54
1141.91
1194.87
1245.82
1294.14
1339.76
1381.41
16704.8
3567.36
1337.56
1282.96
1223.22
1159.3
1092.02
1022.21
950.68
878.289
805.983
734.575
665.197
599.792
540.606
489.927
449.78
421.373
404.617
397.849
398.285
403.742
412.009
421.598
431.56
441.358
450.697
459.415
467.422
474.665
481.112
486.74
491.531
495.474
498.557
500.773
502.115
502.579
502.164
500.868
500.719
501.445
500.751
498.654
495.18
490.363
484.258
476.937
468.501
459.087
448.877
438.106
427.064
416.089
405.545
395.771
387.023
379.399
372.782
366.831
361.012
354.685
347.198
337.972
326.544
312.59
295.91
276.413
254.086
228.971
201.147
170.714
137.782
102.468
100
100
139.802
184.969
231.747
280.032
329.721
380.712
432.899
486.172
540.416
595.509
651.317
707.699
764.498
821.542
878.642
935.586
992.133
1048.01
1102.9
1156.42
1207.95
1256.91
1303.2
1345.57
17065.2
3287.62
1302.64
1248.9
1190.15
1127.29
1061.15
992.533
922.239
851.127
780.13
710.048
642.012
577.957
520.108
470.723
431.789
404.475
388.694
382.857
384.1
390.21
399.072
409.242
419.794
430.2
440.169
449.542
458.228
466.175
473.349
479.724
485.284
490.014
493.902
496.937
499.113
500.423
500.864
500.433
500.006
499.312
497.21
493.722
488.875
482.709
475.281
466.666
456.967
446.322
434.915
422.978
410.799
398.711
387.068
376.201
366.357
357.622
349.875
342.767
335.767
328.24
319.542
309.103
296.471
281.331
263.494
242.875
219.469
193.325
164.526
133.175
100
100
100
100
100
143.548
189.927
237.882
287.31
338.106
390.163
443.369
497.607
552.753
608.671
665.218
722.234
779.546
836.963
894.27
951.225
1007.55
1062.93
1116.99
1169.1
1218.67
1265.64
1308.74
17256.7
3164.15
1267.55
1214.75
1157.05
1095.33
1030.39
963.011
894.001
824.204
754.545
685.81
619.123
556.403
499.853
451.702
413.903
387.595
372.65
367.546
369.61
376.393
385.873
396.65
407.817
418.857
429.482
439.534
448.923
457.594
465.513
472.654
478.997
484.527
489.229
493.093
496.108
498.268
499.567
500
500.006
499.311
497.21
493.721
488.874
482.709
475.28
466.665
456.966
446.321
434.914
422.977
410.798
398.709
387.065
376.199
366.354
357.62
349.872
342.763
335.763
328.236
319.539
309.099
296.467
281.327
263.489
242.87
219.464
193.32
164.521
133.17
100
100
100
100
100
143.544
189.924
237.879
287.307
338.104
390.161
443.367
497.605
552.751
608.67
665.216
722.233
779.545
836.962
894.269
951.225
1007.55
1062.93
1116.99
1169.1
1218.67
1265.64
1308.74
17256.8
3164.09
1267.55
1214.75
1157.05
1095.33
1030.39
963.011
894.001
824.205
754.545
685.81
619.123
556.403
499.853
451.703
413.903
387.595
372.65
367.546
369.61
376.393
385.873
396.65
407.817
418.857
429.482
439.534
448.923
457.594
465.513
472.654
478.997
484.527
489.229
493.093
496.108
498.268
499.567
500
500.719
501.444
500.75
498.653
495.178
490.362
484.256
476.935
468.498
459.084
448.874
438.102
427.06
416.085
405.54
395.766
387.018
379.393
372.777
366.825
361.005
354.677
347.191
337.964
326.535
312.58
295.9
276.403
254.075
228.96
201.136
170.703
137.771
102.456
100
100
139.795
184.963
231.741
280.026
329.716
380.707
432.894
486.168
540.413
595.506
651.315
707.697
764.496
821.541
878.641
935.585
992.133
1048.01
1102.9
1156.42
1207.95
1256.91
1303.2
1345.57
17065.4
3287.45
1302.64
1248.9
1190.15
1127.29
1061.15
992.533
922.239
851.127
780.13
710.048
642.012
577.957
520.108
470.724
431.789
404.475
388.694
382.857
384.1
390.21
399.072
409.242
419.794
430.2
440.169
449.542
458.228
466.175
473.348
479.724
485.284
490.014
493.902
496.937
499.113
500.423
500.864
500.433
501.433
503.578
504.291
503.585
501.481
498.012
493.226
487.196
480.019
471.831
462.814
453.204
443.295
433.431
423.981
415.295
407.641
401.124
395.636
390.837
386.194
381.063
374.783
366.765
356.538
343.767
328.245
309.87
288.625
264.545
237.706
208.202
176.142
141.64
119.519
136.634
180.592
226.191
273.327
321.898
371.804
422.942
475.21
528.5
582.698
637.686
693.333
749.499
806.031
862.76
919.499
976.039
1032.14
1087.54
1141.91
1194.87
1245.82
1294.14
1339.76
1381.41
16705.1
3567.06
1337.56
1282.95
1223.22
1159.3
1092.02
1022.21
950.679
878.288
805.983
734.574
665.197
599.792
540.606
489.927
449.78
421.372
404.617
397.849
398.285
403.741
412.009
421.598
431.56
441.358
450.697
459.415
467.421
474.665
481.112
486.739
491.531
495.474
498.557
500.773
502.115
502.579
502.164
500.868
502.148
505.713
507.834
508.518
507.783
505.659
502.192
497.449
491.527
484.562
476.734
468.282
459.502
450.744
442.385
434.785
428.221
422.807
418.444
414.794
411.323
407.381
402.303
395.488
386.458
374.866
360.498
343.246
323.084
300.043
274.193
245.628
214.451
180.776
159.242
176.792
221.216
267.205
314.654
363.464
413.535
464.769
517.063
570.313
624.409
679.234
734.662
790.556
846.766
903.128
959.458
1015.55
1071.17
1126.05
1179.87
1232.26
1282.6
1330.29
1375.23
1416.16
16197.5
4016.06
1372.29
1316.89
1256.25
1191.33
1122.99
1052.05
979.328
905.704
832.125
759.416
688.706
621.935
561.367
509.321
467.861
438.241
420.368
412.583
412.285
417.094
424.767
433.781
443.167
452.375
461.102
469.184
476.53
483.087
488.824
493.719
497.755
500.922
503.209
504.611
505.123
504.743
503.47
501.305
502.863
507.851
511.381
513.455
514.088
513.308
511.155
507.697
503.028
497.28
490.637
483.338
475.682
468.025
460.753
454.234
448.754
444.439
441.195
438.687
436.381
433.621
429.736
424.116
416.273
405.853
392.633
376.498
357.416
335.413
310.556
282.933
252.648
219.813
198.861
216.814
261.662
307.994
355.707
404.703
454.884
506.153
558.413
611.562
665.493
720.093
775.239
830.799
886.628
942.564
998.432
1054.03
1109.13
1163.46
1216.71
1268.5
1318.22
1365.26
1409.5
1449.64
15265.7
4761.27
1406.79
1350.65
1289.18
1223.34
1154.01
1082.02
1008.18
933.378
858.569
784.591
712.559
644.406
582.409
528.918
486.039
455.08
435.988
427.193
426.173
430.321
437.39
445.83
454.649
463.28
471.412
478.875
485.577
491.465
496.507
500.681
503.973
506.372
507.87
508.462
508.146
506.92
504.785
501.746
503.58
509.993
514.932
518.397
520.398
520.96
520.12
517.944
514.522
509.989
504.525
498.373
491.836
485.274
479.082
473.638
469.237
466.015
463.883
462.509
461.357
459.769
457.065
452.627
445.959
436.699
424.615
409.587
391.577
370.606
346.738
320.058
290.669
258.68
238.347
256.712
301.937
348.561
396.481
445.603
495.83
547.069
599.225
652.201
705.892
760.192
814.983
870.136
925.512
980.956
1036.29
1091.33
1145.84
1199.58
1252.21
1303.39
1352.47
1398.87
1442.45
1481.91
14402.4
5573.61
1440.84
1384.08
1321.89
1255.25
1185.03
1112.07
1037.2
961.298
885.316
810.11
736.778
667.232
603.764
548.754
504.361
471.97
451.613
441.791
439.966
443.419
449.875
457.748
466.014
474.086
481.642
488.506
494.582
499.817
504.177
507.643
510.2
511.838
512.552
512.336
511.191
509.116
506.114
502.191
504.299
512.14
518.49
523.347
526.716
528.618
529.09
528.192
526.014
522.69
518.4
513.389
507.964
502.491
497.373
492.996
489.667
487.529
486.499
486.248
486.239
485.808
484.268
480.996
475.485
467.366
456.401
442.464
425.51
405.559
382.67
356.928
328.432
297.292
277.67
296.518
342.066
388.922
436.987
486.165
536.366
587.497
639.469
692.187
745.553
799.465
853.81
908.467
963.303
1018.17
1072.9
1127.3
1181.16
1234.23
1286.2
1336.7
1385.13
1430.87
1473.8
1512.62
13280.1
6612.55
1474.4
1417.12
1354.31
1286.98
1215.99
1142.18
1066.39
989.468
912.386
836.011
761.412
690.476
625.508
568.917
522.926
489.009
467.296
456.349
453.63
456.361
462.207
469.528
477.264
484.802
491.806
498.092
503.562
508.16
511.853
514.622
516.452
517.335
517.267
516.244
514.266
511.337
507.46
502.643
505.02
514.293
522.058
528.308
533.046
536.289
538.07
538.447
537.51
535.389
532.267
528.391
524.07
519.679
515.625
512.308
510.041
508.977
509.037
509.896
511.013
511.72
511.324
509.194
504.815
497.812
487.941
475.07
459.15
440.198
418.27
393.45
365.837
335.541
316.801
336.282
382.095
429.118
477.254
526.411
576.5
627.434
679.125
731.486
784.424
837.842
891.634
945.687
999.874
1054.05
1108.07
1161.75
1214.86
1267.18
1318.41
1368.18
1415.92
1460.98
1503.26
1541.45
11902.1
7894.08
1507.25
1449.56
1386.28
1318.39
1246.79
1172.28
1095.69
1017.88
939.794
862.328
786.516
714.208
647.715
589.482
541.798
506.238
483.049
470.876
467.192
469.172
474.406
481.192
488.42
495.449
501.925
507.656
512.539
516.517
519.556
521.637
522.748
522.88
522.029
520.196
517.381
513.589
508.826
503.102
505.744
516.454
525.638
533.284
539.392
543.976
547.065
548.716
549.016
548.094
546.135
543.386
540.162
536.843
533.846
531.577
530.362
530.358
531.495
533.445
535.668
537.489
538.21
537.191
533.912
527.99
519.178
507.337
492.418
474.432
453.437
429.514
402.764
373.296
355.714
376.088
422.099
469.215
517.34
566.386
616.265
666.896
718.195
770.081
822.467
875.263
928.371
981.686
1035.09
1088.45
1141.63
1194.44
1246.7
1298.17
1348.55
1397.51
1444.47
1488.8
1530.39
1567.98
10225.9
9476.77
1539.1
1481.15
1417.57
1349.33
1277.29
1202.26
1125.05
1046.5
967.545
889.095
812.146
738.498
670.466
610.531
561.052
523.722
498.926
485.417
480.697
481.891
486.511
492.774
499.517
506.062
512.033
517.231
521.545
524.917
527.314
528.714
529.108
528.489
526.855
524.205
520.545
515.879
510.217
503.57
506.472
518.624
529.232
538.278
545.76
551.686
556.085
559.009
560.543
560.818
560.016
558.388
556.253
553.997
552.045
550.814
550.636
551.679
553.873
556.894
560.197
563.102
564.904
564.957
562.734
557.849
550.047
539.189
525.222
508.158
488.051
464.986
439.064
410.397
394.382
416.055
462.192
509.319
557.341
606.171
655.728
705.932
756.708
807.978
859.665
911.684
963.949
1016.36
1068.82
1121.2
1173.37
1225.17
1276.41
1326.87
1376.28
1424.31
1470.39
1513.89
1554.73
1591.66
8228.34
11376.6
1569.47
1511.47
1447.83
1379.49
1307.27
1231.97
1154.36
1075.28
995.628
916.335
838.359
763.426
693.858
632.167
580.791
541.556
515.009
500.042
494.203
494.572
498.568
504.321
510.601
516.685
522.176
526.86
530.622
533.4
535.16
535.884
535.561
534.186
531.76
528.285
523.767
518.214
511.635
504.047
507.203
520.806
532.843
543.296
552.157
559.431
565.143
569.342
572.113
573.582
573.935
573.423
572.37
571.168
570.251
570.044
570.889
572.959
576.189
580.253
584.602
588.552
591.39
592.463
591.241
587.332
580.478
570.537
557.457
541.249
521.971
499.706
474.559
446.647
432.787
456.353
502.54
549.586
597.4
645.899
695.003
744.64
794.738
845.227
896.038
947.097
998.326
1049.64
1100.95
1152.14
1203.1
1253.68
1303.71
1352.99
1401.25
1448.18
1493.24
1535.78
1575.72
1611.82
5889.91
13633.4
1597.66
1539.94
1476.58
1408.48
1336.43
1261.17
1183.47
1104.11
1023.99
944.047
865.188
789.069
717.997
654.516
601.149
559.87
531.422
514.864
507.813
507.308
510.669
515.92
521.756
527.402
532.431
536.616
539.835
542.023
543.146
543.188
542.14
539.999
536.767
532.451
527.058
520.598
513.085
504.535
507.937
522.998
536.473
548.341
558.589
567.219
574.251
579.732
583.742
586.409
587.917
588.518
588.541
588.386
588.492
589.296
591.147
594.224
598.465
603.541
608.898
613.846
617.663
619.693
619.399
616.387
610.398
601.289
589.008
573.57
555.033
533.487
509.04
481.814
470.918
497.211
543.364
590.234
637.728
685.765
734.27
783.176
832.418
881.934
931.662
981.54
1031.5
1081.48
1131.38
1181.14
1230.63
1279.74
1328.32
1376.18
1423.09
1468.73
1512.61
1554.04
1592.92
1627.93
3262.78
16013.2
1622.5
1565.65
1503.11
1435.74
1364.3
1289.52
1212.11
1132.84
1052.57
972.231
892.701
815.537
743.024
677.741
622.298
578.836
548.319
530.013
521.636
520.195
522.898
527.653
533.062
538.289
542.875
546.572
549.252
550.848
551.327
550.674
548.884
545.956
541.898
536.717
530.426
523.037
514.567
505.033
508.676
525.202
540.127
553.422
565.072
575.074
583.444
590.223
595.49
599.368
602.04
603.761
604.862
605.748
606.868
608.667
611.502
615.558
620.772
626.815
633.125
639.005
643.726
646.627
647.167
644.949
639.716
631.325
619.729
604.944
587.035
566.097
542.245
515.607
508.775
538.943
584.977
631.565
678.617
726.05
773.794
821.787
869.97
918.29
966.694
1015.13
1063.55
1111.89
1160.09
1208.09
1255.8
1303.12
1349.92
1396.06
1441.32
1485.42
1527.95
1568.15
1605.98
1640.08
1668.93
17527.2
1642.25
1587.31
1526.39
1460.42
1390.19
1316.43
1239.82
1161.11
1081.11
1000.74
920.84
842.863
769.051
702.009
644.443
598.68
565.939
545.736
535.922
533.483
535.508
539.766
544.755
549.568
553.707
556.905
559.028
560.007
559.811
558.428
555.858
552.107
547.185
541.105
533.883
525.536
516.082
505.542
509.417
527.414
543.796
558.533
571.602
582.996
592.724
600.822
607.364
612.468
616.316
619.164
621.345
623.271
625.399
628.183
631.987
637.001
643.16
650.129
657.338
664.08
669.62
673.289
674.546
672.994
668.377
660.558
649.495
635.211
617.777
597.299
573.898
547.713
546.375
581.931
627.764
673.964
720.442
767.121
813.93
860.81
907.71
954.585
1001.39
1048.09
1094.64
1141
1187.13
1232.97
1278.48
1323.57
1368.16
1412.11
1455.27
1497.4
1538.2
1576.89
1613.63
1647.29
1676.78
17993.8
1656.2
1604.05
1545.48
1481.6
1413.25
1341.17
1266.02
1188.48
1109.32
1029.42
949.603
871.168
796.29
727.595
667.889
619.698
584.539
562.231
550.808
547.26
548.554
552.303
556.878
561.289
564.986
567.682
569.231
569.566
568.658
566.503
563.106
558.482
552.647
545.623
537.43
528.09
517.627
506.06
510.159
529.638
547.499
563.708
578.238
591.074
602.218
611.697
619.577
625.968
631.048
635.067
638.361
641.343
644.476
648.223
652.955
658.867
665.893
673.694
681.691
689.169
695.386
699.669
701.476
700.413
696.228
688.792
678.068
664.091
646.942
626.735
603.605
577.7
583.748
626.699
672.247
717.95
763.721
809.482
855.17
900.73
946.109
991.272
1036.19
1080.82
1125.15
1169.14
1212.78
1256.04
1298.87
1341.24
1383.1
1424.35
1464.88
1504.53
1543.06
1579.89
1614.84
1647.61
1677.03
16912.2
1662.74
1614.32
1558.84
1497.78
1432.1
1362.52
1289.65
1214.1
1136.55
1057.81
978.68
900.303
824.75
754.656
692.925
642.305
604.648
580.131
567.02
562.324
562.87
566.095
570.226
574.179
577.357
579.454
580.323
579.898
578.163
575.12
570.789
565.191
558.355
550.309
541.083
530.703
519.196
506.585
510.893
531.839
551.176
568.87
584.885
599.195
611.79
622.687
631.937
639.644
645.976
651.182
655.598
659.644
663.792
668.509
674.174
680.981
688.861
697.461
706.19
714.319
721.098
725.85
728.035
727.264
723.295
716.009
705.385
691.47
674.36
654.183
631.088
612.595
628.553
673.713
718.898
764.002
808.937
853.626
898.008
942.033
985.661
1028.85
1071.58
1113.83
1155.58
1196.83
1237.56
1277.76
1317.43
1356.55
1395.11
1433.05
1470.33
1506.85
1542.44
1576.64
1609.32
1640.31
1668.62
13974
4337.54
1618.34
1565.45
1507.57
1445.3
1379.15
1309.59
1237.07
1162.16
1085.55
1007.97
930.408
854.76
783.636
720.023
666.906
626.521
599.484
584.383
578.307
577.965
580.599
584.267
587.764
590.428
591.92
592.081
590.851
588.221
584.211
578.855
572.194
564.27
555.126
544.805
533.341
520.768
507.107
511.625
534.062
554.941
574.216
591.848
607.796
622.036
634.564
645.41
654.657
662.454
669.031
674.713
679.911
685.097
690.745
697.242
704.788
713.314
722.462
731.632
740.092
747.09
751.958
754.165
753.336
749.24
741.775
730.932
716.775
699.413
678.991
655.673
649.734
678.768
723.722
768.44
812.818
856.768
900.217
943.106
985.388
1027.03
1068
1108.28
1147.85
1186.71
1224.85
1262.29
1299.02
1335.06
1370.41
1405.08
1439.08
1472.39
1504.97
1536.77
1567.44
1596.87
1625.05
1651.21
10534.4
7870.81
1614.43
1564.5
1510.3
1452.11
1390.19
1324.82
1256.3
1185.02
1111.56
1036.56
960.813
885.987
814.615
749.732
694.543
651.686
622.276
605.29
597.927
596.756
598.787
601.877
604.7
606.544
607.071
606.143
603.726
599.839
594.527
587.847
579.86
570.628
560.211
548.661
536.025
522.338
507.622
512.309
536.118
558.438
579.235
598.448
616.018
631.891
646.032
658.444
669.187
678.396
686.304
693.241
699.627
705.91
712.544
719.91
728.208
737.368
747.027
756.586
765.31
772.456
777.364