/*--------------------------------*- C++ -*----------------------------------*\
  =========                 |
  \\      /  F ield         | OpenFOAM: The Open Source CFD Toolbox
   \\    /   O peration     | Website:  https://openfoam.org
    \\  /    A nd           | Version:  8
     \\/     M anipulation  |
\*---------------------------------------------------------------------------*/
FoamFile
{
    version     2.0;
    format      ascii;
    class       volScalarField;
    location    "660/fluid";
    object      rho;
}
// * * * * * * * * * * * * * * * * * * * * * * * * * * * * * * * * * * * * * //

dimensions      [1 -3 0 0 0 0 0];

internalField   nonuniform List<scalar> 
4000
(
0.658526
0.658499
0.658455
0.65838
0.658256
0.658049
0.657709
0.657154
0.656259
0.654835
0.652604
0.64918
0.644054
0.636608
0.626179
0.612185
0.594307
0.572656
0.547848
0.520914
0.493076
0.465487
0.439048
0.414339
0.391645
0.371029
0.352412
0.335637
0.320514
0.306849
0.294461
0.283189
0.272893
0.263456
0.254781
0.24677
0.23932
0.232368
0.225862
0.219761
0.214026
0.208626
0.203534
0.198729
0.19419
0.189902
0.185851
0.182027
0.178421
0.175026
0.171837
0.168852
0.166072
0.163498
0.16114
0.159008
0.157121
0.155528
0.154258
0.153318
0.152823
0.152893
0.154115
0.162994
0.173491
0.185821
0.20028
0.217264
0.237286
0.261019
0.289335
0.323359
0.364534
0.414817
0.476583
0.552008
0.642234
0.745642
0.855654
0.960308
1.04656
1.10741
1.14465
1.16487
1.17499
1.17982
1.18205
1.18305
1.18349
1.18368
1.18376
1.1838
1.18381
1.18382
1.18382
1.18382
1.18382
1.18382
1.18382
1.18382
0.658526
0.658499
0.658455
0.65838
0.658254
0.658047
0.657704
0.657146
0.656246
0.654815
0.652581
0.649161
0.644058
0.636669
0.626347
0.612527
0.594888
0.573521
0.549002
0.522317
0.494652
0.467146
0.440706
0.415931
0.393128
0.372381
0.353625
0.336713
0.321461
0.307678
0.295184
0.283817
0.273436
0.263924
0.255182
0.247114
0.239612
0.232614
0.226068
0.219929
0.214162
0.208732
0.203614
0.198784
0.194224
0.189917
0.185849
0.182009
0.178389
0.174982
0.171783
0.168789
0.166
0.16342
0.161055
0.158918
0.157028
0.155432
0.15416
0.153217
0.152722
0.152793
0.154802
0.163852
0.174551
0.187129
0.201901
0.219281
0.239814
0.264212
0.293398
0.328566
0.371248
0.423527
0.487819
0.566188
0.659359
0.764809
0.874725
0.976487
1.05795
1.11408
1.14796
1.16635
1.17561
1.18006
1.18214
1.18308
1.1835
1.18368
1.18376
1.1838
1.18381
1.18382
1.18382
1.18382
1.18382
1.18382
1.18382
1.18382
0.658526
0.658499
0.658454
0.658379
0.658253
0.658044
0.6577
0.657139
0.656236
0.654802
0.652566
0.649149
0.644061
0.636712
0.626468
0.612774
0.595312
0.574164
0.549881
0.523419
0.495934
0.468547
0.442161
0.417382
0.394531
0.373706
0.354853
0.337837
0.32248
0.308594
0.296003
0.284545
0.27408
0.264489
0.255674
0.247541
0.239981
0.232928
0.226332
0.220148
0.214337
0.208868
0.203714
0.198851
0.19426
0.189925
0.185831
0.181969
0.178328
0.174903
0.171687
0.168678
0.165877
0.163287
0.160914
0.15877
0.156874
0.155278
0.154006
0.153067
0.15258
0.152666
0.156051
0.165332
0.176326
0.189273
0.204507
0.222468
0.243733
0.269054
0.299408
0.336048
0.380581
0.435169
0.502151
0.583302
0.678741
0.784979
0.893312
0.991173
1.06778
1.11972
1.15083
1.1677
1.17621
1.18032
1.18225
1.18312
1.18352
1.18369
1.18377
1.1838
1.18381
1.18382
1.18382
1.18382
1.18382
1.18382
1.18382
1.18382
0.658526
0.658499
0.658454
0.658379
0.658253
0.658044
0.6577
0.65714
0.65624
0.654813
0.65259
0.6492
0.644157
0.636879
0.62674
0.613187
0.595901
0.574947
0.550856
0.524558
0.497191
0.469869
0.443497
0.418691
0.395783
0.374881
0.355943
0.338837
0.323389
0.309417
0.296743
0.285207
0.274669
0.265009
0.25613
0.247938
0.240323
0.233219
0.226575
0.220346
0.214493
0.208985
0.203794
0.198896
0.194273
0.189908
0.185788
0.181901
0.178238
0.174792
0.171559
0.168535
0.165721
0.163121
0.16074
0.158592
0.156694
0.155103
0.153841
0.152915
0.152445
0.152555
0.157634
0.167173
0.178498
0.191867
0.207626
0.22624
0.248318
0.274651
0.306261
0.344455
0.390919
0.44787
0.517531
0.601385
0.698939
0.805777
0.912383
1.0063
1.07807
1.1258
1.15404
1.16926
1.17693
1.18064
1.18239
1.18318
1.18354
1.1837
1.18377
1.1838
1.18381
1.18382
1.18382
1.18382
1.18382
1.18382
1.18382
1.18382
0.658526
0.658499
0.658454
0.658379
0.658254
0.658045
0.657703
0.657145
0.656249
0.65483
0.652622
0.649256
0.644253
0.637037
0.626987
0.613554
0.596414
0.575622
0.55169
0.525528
0.498259
0.47099
0.444628
0.419797
0.396839
0.375872
0.35686
0.339677
0.324154
0.310109
0.297365
0.285763
0.275162
0.265444
0.256508
0.248265
0.240603
0.233455
0.226768
0.220498
0.214608
0.209063
0.203837
0.198908
0.194255
0.189863
0.185717
0.181807
0.178123
0.174659
0.17141
0.168373
0.16555
0.162942
0.160558
0.158409
0.156517
0.154942
0.153693
0.152783
0.152344
0.152511
0.159345
0.169134
0.180802
0.194608
0.210913
0.230203
0.253114
0.280473
0.313347
0.353088
0.401469
0.460726
0.532932
0.619247
0.718539
0.825506
0.929996
1.01991
1.08712
1.13107
1.15681
1.17061
1.17756
1.18093
1.18251
1.18324
1.18357
1.18371
1.18377
1.1838
1.18381
1.18382
1.18382
1.18382
1.18382
1.18382
1.18382
1.18382
0.658526
0.658499
0.658455
0.65838
0.658255
0.658048
0.657707
0.657154
0.656264
0.654856
0.652665
0.649327
0.644368
0.637214
0.627251
0.613929
0.596918
0.576263
0.552459
0.526399
0.499198
0.471958
0.445592
0.42073
0.397722
0.376693
0.357615
0.340365
0.324777
0.310668
0.297865
0.286207
0.275553
0.265785
0.256803
0.248516
0.240814
0.233627
0.226904
0.220599
0.214675
0.209098
0.203844
0.198887
0.194208
0.189792
0.185624
0.181693
0.177992
0.174513
0.171251
0.168206
0.165377
0.162767
0.160386
0.158245
0.156364
0.154809
0.153578
0.152695
0.152286
0.152489
0.160801
0.170906
0.182964
0.19724
0.214111
0.234082
0.257818
0.286184
0.320286
0.361522
0.41175
0.473198
0.547789
0.636345
0.737108
0.84396
0.946253
1.03233
1.09535
1.13589
1.15937
1.17188
1.17816
1.1812
1.18263
1.18329
1.18359
1.18372
1.18378
1.1838
1.18381
1.18382
1.18382
1.18382
1.18382
1.18382
1.18382
1.18382
0.658526
0.6585
0.658455
0.658381
0.658257
0.658051
0.657713
0.657163
0.65628
0.654882
0.652708
0.649396
0.644477
0.63738
0.627494
0.614268
0.597368
0.576827
0.553127
0.52715
0.5
0.472779
0.446402
0.421506
0.39845
0.377366
0.358229
0.34092
0.325274
0.311112
0.298257
0.286551
0.275853
0.266043
0.257022
0.248698
0.240961
0.233742
0.226987
0.220653
0.2147
0.209098
0.203819
0.198838
0.194137
0.1897
0.185514
0.181567
0.177852
0.174361
0.171092
0.168041
0.165211
0.162606
0.160234
0.158111
0.156256
0.15475
0.153537
0.152727
0.152406
0.152713
0.161653
0.172286
0.184845
0.199644
0.217096
0.237741
0.262277
0.291607
0.326878
0.369539
0.42152
0.485022
0.56181
0.652368
0.75432
0.860809
0.960825
1.04326
1.10248
1.14003
1.16155
1.17296
1.17867
1.18144
1.18274
1.18334
1.18361
1.18373
1.18378
1.1838
1.18381
1.18382
1.18382
1.18382
1.18382
1.18382
1.18382
1.18382
0.658526
0.6585
0.658456
0.658382
0.658258
0.658054
0.657718
0.657172
0.656295
0.654907
0.65275
0.649463
0.64458
0.637535
0.627717
0.614575
0.597769
0.577324
0.553709
0.527795
0.500681
0.473468
0.447075
0.422146
0.399045
0.377911
0.358721
0.34136
0.325665
0.311456
0.298559
0.286812
0.276076
0.266231
0.257176
0.248822
0.241056
0.233809
0.227028
0.220669
0.214694
0.20907
0.203769
0.198769
0.19405
0.189596
0.185395
0.181435
0.177709
0.17421
0.170935
0.167883
0.165055
0.162457
0.160099
0.157997
0.156185
0.15473
0.153598
0.152919
0.152814
0.153491
0.162757
0.173748
0.186704
0.201952
0.219924
0.241183
0.266457
0.296679
0.333035
0.377023
0.430635
0.496033
0.574822
0.667145
0.770042
0.875997
0.973766
1.05284
1.10868
1.1436
1.16345
1.1739
1.17912
1.18165
1.18283
1.18338
1.18363
1.18374
1.18379
1.18381
1.18382
1.18382
1.18382
1.18382
1.18382
1.18382
1.18382
1.18382
0.658526
0.6585
0.658456
0.658383
0.65826
0.658057
0.657723
0.657181
0.65631
0.654932
0.652788
0.649524
0.644674
0.637674
0.627914
0.614844
0.598117
0.577751
0.554205
0.528341
0.501252
0.474041
0.447631
0.422669
0.399527
0.378347
0.359111
0.341706
0.325968
0.311719
0.298785
0.287004
0.276237
0.266362
0.257279
0.248899
0.241109
0.233838
0.227037
0.220658
0.214663
0.209021
0.203703
0.198686
0.193953
0.189486
0.185273
0.181303
0.177569
0.174064
0.170785
0.167732
0.164906
0.162314
0.159966
0.15788
0.156096
0.154671
0.15358
0.152955
0.152923
0.154433
0.163959
0.17524
0.188527
0.204161
0.222591
0.2444
0.27034
0.301375
0.338723
0.383933
0.439048
0.50617
0.586754
0.680609
0.784228
0.889525
0.985119
1.06112
1.11397
1.14664
1.16505
1.1747
1.1795
1.18182
1.18291
1.18342
1.18364
1.18374
1.18379
1.18381
1.18382
1.18382
1.18382
1.18382
1.18382
1.18382
1.18382
1.18382
0.658526
0.6585
0.658457
0.658383
0.658262
0.65806
0.657728
0.657189
0.656323
0.654953
0.652823
0.649579
0.644757
0.637796
0.628087
0.615076
0.598416
0.578115
0.554624
0.528798
0.501727
0.474514
0.448084
0.423092
0.399913
0.378693
0.359417
0.341973
0.326199
0.311917
0.298951
0.287142
0.276348
0.266448
0.257342
0.24894
0.24113
0.233842
0.227023
0.220627
0.214616
0.208959
0.203627
0.198598
0.193853
0.189375
0.185153
0.181176
0.177435
0.173926
0.170645
0.167591
0.164766
0.162177
0.159835
0.157757
0.155984
0.15457
0.153486
0.152859
0.152806
0.155483
0.165197
0.176705
0.190265
0.20623
0.225059
0.247354
0.273889
0.305655
0.3439
0.390223
0.446696
0.515373
0.597554
0.692729
0.796885
0.901451
0.994993
1.06823
1.11847
1.14921
1.1664
1.17537
1.17982
1.18197
1.18298
1.18345
1.18366
1.18375
1.18379
1.18381
1.18382
1.18382
1.18382
1.18382
1.18382
1.18382
1.18382
1.18382
0.658526
0.6585
0.658457
0.658384
0.658263
0.658062
0.657732
0.657196
0.656335
0.654972
0.652854
0.649626
0.644828
0.6379
0.628234
0.615274
0.598669
0.57842
0.554973
0.529176
0.502117
0.474899
0.448451
0.423431
0.400219
0.378965
0.359655
0.342178
0.326373
0.312062
0.299071
0.287237
0.276421
0.266501
0.257376
0.248957
0.241131
0.233827
0.226993
0.220584
0.214561
0.208891
0.203548
0.198509
0.193755
0.189269
0.18504
0.181057
0.177312
0.1738
0.170518
0.167464
0.164641
0.162055
0.159717
0.157644
0.15588
0.154472
0.153392
0.152768
0.152713
0.156498
0.166372
0.178075
0.191873
0.208126
0.227307
0.250033
0.277098
0.309515
0.348562
0.395881
0.453575
0.523637
0.607222
0.70352
0.808063
0.911865
1.00351
1.0743
1.12228
1.15137
1.16754
1.17593
1.18009
1.1821
1.18304
1.18347
1.18367
1.18375
1.18379
1.18381
1.18382
1.18382
1.18382
1.18382
1.18382
1.18382
1.18382
1.18382
0.658526
0.6585
0.658457
0.658385
0.658264
0.658064
0.657736
0.657202
0.656345
0.654989
0.65288
0.649667
0.644889
0.637989
0.628358
0.61544
0.598879
0.578673
0.55526
0.529486
0.502434
0.47521
0.448744
0.4237
0.40046
0.379176
0.359836
0.342332
0.326501
0.312167
0.299154
0.287301
0.276467
0.26653
0.25739
0.248956
0.241117
0.233801
0.226955
0.220535
0.214502
0.208823
0.203471
0.198424
0.193663
0.189172
0.184938
0.180951
0.177203
0.173689
0.170406
0.167353
0.164533
0.161951
0.159618
0.157551
0.155794
0.154393
0.153318
0.152699
0.152647
0.157394
0.167419
0.179299
0.193308
0.209816
0.229308
0.252414
0.279946
0.312939
0.352694
0.400903
0.459683
0.530965
0.615771
0.713015
0.817824
0.92087
1.01079
1.07943
1.12547
1.15317
1.16848
1.1764
1.18032
1.1822
1.18309
1.18349
1.18368
1.18376
1.18379
1.18381
1.18382
1.18382
1.18382
1.18382
1.18382
1.18382
1.18382
1.18382
0.658526
0.658501
0.658458
0.658386
0.658265
0.658066
0.657739
0.657207
0.656354
0.655003
0.652902
0.649701
0.644941
0.638063
0.628461
0.615577
0.599052
0.57888
0.555495
0.529737
0.50269
0.475458
0.448977
0.423911
0.400647
0.379338
0.359974
0.342446
0.326595
0.312241
0.299211
0.287342
0.276492
0.266542
0.25739
0.248945
0.241095
0.233769
0.226914
0.220485
0.214444
0.208758
0.2034
0.198347
0.19358
0.189085
0.184847
0.180858
0.177109
0.173595
0.170313
0.167262
0.164444
0.161867
0.15954
0.157479
0.155729
0.154334
0.153266
0.152652
0.152603
0.158167
0.168328
0.180366
0.194562
0.211292
0.231054
0.25449
0.28243
0.315928
0.356306
0.405295
0.465025
0.537369
0.623226
0.72126
0.826243
0.928569
1.01695
1.08373
1.12814
1.15467
1.16927
1.17679
1.1805
1.18229
1.18312
1.18351
1.18368
1.18376
1.1838
1.18381
1.18382
1.18382
1.18382
1.18382
1.18382
1.18382
1.18382
1.18382
0.658526
0.658501
0.658458
0.658386
0.658266
0.658068
0.657742
0.657212
0.656361
0.655015
0.652921
0.649729
0.644983
0.638124
0.628545
0.615689
0.599193
0.579048
0.555684
0.529938
0.502893
0.475654
0.449159
0.424075
0.400791
0.379461
0.360077
0.342531
0.326662
0.312293
0.299248
0.287366
0.276505
0.266544
0.257382
0.248928
0.24107
0.233736
0.226874
0.220438
0.214391
0.208699
0.203336
0.198279
0.193509
0.18901
0.184771
0.18078
0.177031
0.173518
0.170237
0.167189
0.164375
0.161802
0.159479
0.157424
0.155682
0.154294
0.153232
0.152622
0.152576
0.158818
0.169102
0.181279
0.195636
0.212559
0.232554
0.256277
0.284568
0.3185
0.359415
0.409078
0.469626
0.542881
0.629629
0.728316
0.833407
0.93507
1.02212
1.08731
1.13034
1.1559
1.16991
1.1771
1.18065
1.18236
1.18316
1.18352
1.18369
1.18376
1.1838
1.18381
1.18382
1.18382
1.18382
1.18382
1.18382
1.18382
1.18382
1.18382
0.658526
0.658501
0.658458
0.658386
0.658267
0.658069
0.657744
0.657215
0.656367
0.655024
0.652935
0.649752
0.645017
0.638173
0.628613
0.615779
0.599306
0.579181
0.555833
0.530096
0.503052
0.475807
0.4493
0.424201
0.4009
0.379553
0.360153
0.342592
0.326709
0.312328
0.299272
0.28738
0.27651
0.26654
0.25737
0.24891
0.241045
0.233705
0.226837
0.220397
0.214345
0.208649
0.203283
0.198223
0.19345
0.18895
0.184709
0.180718
0.17697
0.173458
0.17018
0.167135
0.164325
0.161756
0.159438
0.157389
0.155654
0.154271
0.153214
0.152607
0.152563
0.159362
0.169753
0.182048
0.196543
0.21363
0.233823
0.257786
0.286374
0.320673
0.362042
0.412276
0.473514
0.547536
0.63503
0.734248
0.8394
0.940473
1.02638
1.09025
1.13214
1.1569
1.17043
1.17736
1.18078
1.18242
1.18318
1.18354
1.1837
1.18377
1.1838
1.18381
1.18382
1.18382
1.18382
1.18382
1.18382
1.18382
1.18382
1.18382
0.658526
0.658501
0.658458
0.658387
0.658268
0.65807
0.657746
0.657218
0.656372
0.655032
0.652947
0.64977
0.645044
0.638212
0.628667
0.615849
0.599394
0.579286
0.555949
0.530219
0.503175
0.475924
0.449408
0.424297
0.400982
0.379621
0.360209
0.342636
0.326742
0.312351
0.299287
0.287387
0.27651
0.266534
0.257359
0.248893
0.241023
0.233679
0.226807
0.220363
0.214308
0.208609
0.20324
0.198178
0.193405
0.188904
0.184663
0.180673
0.176925
0.173415
0.170139
0.167097
0.164291
0.161726
0.159413
0.157369
0.155639
0.154261
0.153207
0.152601
0.15256
0.159803
0.170287
0.182684
0.197294
0.214516
0.234871
0.259033
0.287865
0.322466
0.364209
0.414914
0.476719
0.551371
0.63947
0.739112
0.844294
0.944864
1.02982
1.09261
1.13357
1.1577
1.17085
1.17757
1.18088
1.18246
1.1832
1.18355
1.1837
1.18377
1.1838
1.18381
1.18382
1.18382
1.18382
1.18382
1.18382
1.18382
1.18382
1.18382
0.658526
0.658501
0.658458
0.658387
0.658268
0.658071
0.657747
0.657221
0.656375
0.655038
0.652956
0.649784
0.645065
0.638242
0.628708
0.615903
0.599461
0.579364
0.556037
0.530311
0.503266
0.476012
0.449487
0.424367
0.401041
0.379671
0.360249
0.342667
0.326765
0.312367
0.299296
0.28739
0.276508
0.266528
0.257349
0.248879
0.241006
0.233659
0.226785
0.220338
0.214281
0.20858
0.20321
0.198147
0.193373
0.188872
0.184631
0.180642
0.176896
0.173388
0.170115
0.167076
0.164273
0.161712
0.159403
0.157362
0.155634
0.154255
0.153195
0.152573
0.1525
0.16015
0.170712
0.183192
0.197895
0.215226
0.235711
0.26003
0.289056
0.323895
0.365934
0.417011
0.479266
0.554413
0.642986
0.742953
0.848144
0.948304
1.03251
1.09444
1.13469
1.15832
1.17117
1.17773
1.18095
1.1825
1.18322
1.18355
1.1837
1.18377
1.1838
1.18381
1.18382
1.18382
1.18382
1.18382
1.18382
1.18382
1.18382
1.18382
0.658526
0.658501
0.658458
0.658387
0.658268
0.658071
0.657748
0.657222
0.656378
0.655042
0.652963
0.649794
0.64508
0.638263
0.628737
0.615941
0.599509
0.579421
0.5561
0.530376
0.503332
0.476073
0.449543
0.424416
0.401083
0.379705
0.360276
0.342688
0.326781
0.312377
0.299302
0.287392
0.276507
0.266524
0.257342
0.24887
0.240995
0.233646
0.22677
0.220322
0.214263
0.208562
0.203191
0.198128
0.193353
0.188853
0.184613
0.180625
0.176881
0.173375
0.170105
0.167069
0.16427
0.161713
0.159408
0.157371
0.155646
0.154268
0.153206
0.152579
0.152499
0.160407
0.171034
0.18358
0.198355
0.215769
0.23635
0.260787
0.289956
0.324972
0.367232
0.418585
0.481173
0.556686
0.645607
0.745805
0.850992
0.950836
1.03448
1.09579
1.13551
1.15878
1.17141
1.17784
1.18101
1.18252
1.18323
1.18356
1.18371
1.18377
1.1838
1.18381
1.18382
1.18382
1.18382
1.18382
1.18382
1.18382
1.18382
1.18382
0.658526
0.658501
0.658459
0.658387
0.658269
0.658072
0.657749
0.657223
0.65638
0.655045
0.652967
0.649801
0.645089
0.638277
0.628756
0.615966
0.59954
0.579457
0.55614
0.530419
0.503374
0.476113
0.449579
0.424447
0.40111
0.379727
0.360293
0.342701
0.32679
0.312384
0.299305
0.287394
0.276506
0.266522
0.257339
0.248866
0.24099
0.23364
0.226763
0.220314
0.214255
0.208553
0.203182
0.198119
0.193345
0.188845
0.184606
0.18062
0.176877
0.173374
0.170106
0.167074
0.164278
0.161725
0.159424
0.15739
0.155667
0.154291
0.153227
0.152594
0.152501
0.160578
0.171254
0.183849
0.198675
0.216145
0.236792
0.261306
0.29057
0.325704
0.368108
0.419644
0.482451
0.558203
0.647348
0.747691
0.852864
0.95249
1.03576
1.09666
1.13604
1.15908
1.17156
1.17792
1.18105
1.18254
1.18324
1.18356
1.18371
1.18377
1.1838
1.18381
1.18382
1.18382
1.18382
1.18382
1.18382
1.18382
1.18382
1.18382
0.658526
0.658501
0.658459
0.658387
0.658269
0.658072
0.657749
0.657224
0.656381
0.655046
0.652969
0.649804
0.645094
0.638284
0.628765
0.615978
0.599554
0.579475
0.556159
0.530439
0.503393
0.476132
0.449596
0.424462
0.401122
0.379737
0.360301
0.342707
0.326795
0.312387
0.299307
0.287394
0.276506
0.266521
0.257337
0.248864
0.240988
0.233638
0.226761
0.220312
0.214253
0.208551
0.20318
0.198117
0.193343
0.188844
0.184606
0.180621
0.17688
0.173378
0.170112
0.167082
0.164289
0.161739
0.159441
0.157409
0.155689
0.154314
0.153249
0.152609
0.152502
0.160663
0.171372
0.183995
0.198848
0.216345
0.237024
0.261576
0.290886
0.326076
0.36855
0.420172
0.483082
0.558946
0.648193
0.748599
0.853757
0.953272
1.03636
1.09707
1.13629
1.15921
1.17163
1.17796
1.18106
1.18255
1.18324
1.18356
1.18371
1.18377
1.1838
1.18381
1.18382
1.18382
1.18382
1.18382
1.18382
1.18382
1.18382
1.18382
0.658526
0.658501
0.658459
0.658387
0.658269
0.658072
0.657749
0.657224
0.656381
0.655046
0.652969
0.649804
0.645094
0.638284
0.628765
0.615978
0.599554
0.579474
0.556159
0.530438
0.503393
0.476131
0.449596
0.424462
0.401122
0.379737
0.360301
0.342707
0.326795
0.312387
0.299307
0.287394
0.276506
0.266521
0.257337
0.248864
0.240988
0.233638
0.226761
0.220312
0.214252
0.208551
0.20318
0.198117
0.193343
0.188844
0.184606
0.180621
0.17688
0.173378
0.170112
0.167082
0.164289
0.161739
0.159441
0.157409
0.155689
0.154314
0.153249
0.152609
0.152502
0.160663
0.171372
0.183995
0.198848
0.216345
0.237024
0.261576
0.290886
0.326076
0.36855
0.420172
0.483082
0.558946
0.648193
0.748599
0.853757
0.953272
1.03636
1.09707
1.13629
1.15921
1.17163
1.17796
1.18106
1.18255
1.18324
1.18356
1.18371
1.18377
1.1838
1.18381
1.18382
1.18382
1.18382
1.18382
1.18382
1.18382
1.18382
1.18382
0.658526
0.658501
0.658459
0.658387
0.658269
0.658072
0.657749
0.657223
0.65638
0.655045
0.652967
0.649801
0.645089
0.638277
0.628756
0.615966
0.599539
0.579457
0.556139
0.530418
0.503373
0.476112
0.449579
0.424446
0.401109
0.379726
0.360293
0.3427
0.32679
0.312383
0.299305
0.287394
0.276506
0.266522
0.257338
0.248866
0.24099
0.23364
0.226763
0.220314
0.214255
0.208553
0.203182
0.198119
0.193345
0.188844
0.184606
0.18062
0.176877
0.173374
0.170106
0.167073
0.164278
0.161725
0.159424
0.15739
0.155667
0.154291
0.153227
0.152594
0.152501
0.160578
0.171255
0.183849
0.198676
0.216145
0.236792
0.261306
0.29057
0.325703
0.368108
0.419644
0.482451
0.558203
0.647347
0.747691
0.852863
0.95249
1.03576
1.09666
1.13604
1.15908
1.17156
1.17792
1.18105
1.18254
1.18324
1.18356
1.18371
1.18377
1.1838
1.18381
1.18382
1.18382
1.18382
1.18382
1.18382
1.18382
1.18382
1.18382
0.658526
0.658501
0.658458
0.658387
0.658268
0.658071
0.657748
0.657222
0.656378
0.655042
0.652963
0.649794
0.645079
0.638263
0.628737
0.615941
0.599508
0.57942
0.556099
0.530375
0.503331
0.476072
0.449542
0.424415
0.401082
0.379704
0.360275
0.342687
0.32678
0.312377
0.299301
0.287392
0.276507
0.266524
0.257342
0.24887
0.240995
0.233646
0.22677
0.220322
0.214263
0.208562
0.203191
0.198128
0.193353
0.188853
0.184613
0.180625
0.176881
0.173375
0.170105
0.167069
0.16427
0.161713
0.159408
0.157371
0.155646
0.154268
0.153206
0.152579
0.152499
0.160408
0.171034
0.18358
0.198356
0.215769
0.236351
0.260787
0.289956
0.324972
0.367232
0.418585
0.481173
0.556686
0.645606
0.745804
0.850991
0.950835
1.03448
1.09579
1.13551
1.15878
1.17141
1.17784
1.18101
1.18252
1.18323
1.18356
1.18371
1.18377
1.1838
1.18381
1.18382
1.18382
1.18382
1.18382
1.18382
1.18382
1.18382
1.18382
0.658526
0.658501
0.658458
0.658387
0.658268
0.658071
0.657747
0.657221
0.656375
0.655038
0.652956
0.649784
0.645064
0.638241
0.628707
0.615902
0.59946
0.579363
0.556036
0.530309
0.503265
0.47601
0.449486
0.424365
0.40104
0.37967
0.360248
0.342666
0.326764
0.312366
0.299295
0.28739
0.276508
0.266528
0.257348
0.248879
0.241006
0.233659
0.226784
0.220338
0.21428
0.20858
0.20321
0.198147
0.193372
0.188871
0.184631
0.180642
0.176896
0.173388
0.170115
0.167075
0.164273
0.161712
0.159403
0.157362
0.155634
0.154255
0.153195
0.152573
0.1525
0.16015
0.170712
0.183192
0.197896
0.215226
0.235711
0.26003
0.289056
0.323895
0.365934
0.417011
0.479266
0.554412
0.642985
0.742952
0.848143
0.948302
1.03251
1.09444
1.13469
1.15832
1.17117
1.17773
1.18095
1.1825
1.18322
1.18355
1.1837
1.18377
1.1838
1.18381
1.18382
1.18382
1.18382
1.18382
1.18382
1.18382
1.18382
1.18382
0.658526
0.658501
0.658458
0.658387
0.658267
0.65807
0.657746
0.657218
0.656372
0.655032
0.652947
0.64977
0.645044
0.638212
0.628666
0.615848
0.599393
0.579284
0.555948
0.530217
0.503173
0.475922
0.449406
0.424295
0.40098
0.37962
0.360207
0.342634
0.326741
0.31235
0.299286
0.287386
0.276509
0.266533
0.257358
0.248892
0.241023
0.233678
0.226807
0.220363
0.214307
0.208609
0.20324
0.198178
0.193404
0.188903
0.184663
0.180672
0.176925
0.173415
0.170139
0.167097
0.16429
0.161726
0.159413
0.157369
0.155639
0.154261
0.153207
0.152601
0.15256
0.159803
0.170287
0.182684
0.197294
0.214516
0.234871
0.259033
0.287865
0.322466
0.364209
0.414913
0.476719
0.55137
0.639469
0.739111
0.844293
0.944863
1.02982
1.09261
1.13357
1.1577
1.17085
1.17757
1.18088
1.18246
1.1832
1.18355
1.1837
1.18377
1.1838
1.18381
1.18382
1.18382
1.18382
1.18382
1.18382
1.18382
1.18382
1.18382
0.658526
0.658501
0.658458
0.658386
0.658267
0.658069
0.657744
0.657215
0.656367
0.655024
0.652935
0.649752
0.645017
0.638173
0.628612
0.615777
0.599304
0.57918
0.555831
0.530094
0.50305
0.475805
0.449298
0.424199
0.400898
0.379551
0.360152
0.34259
0.326708
0.312326
0.29927
0.287379
0.276509
0.266539
0.25737
0.248909
0.241044
0.233704
0.226837
0.220396
0.214344
0.208649
0.203282
0.198222
0.19345
0.18895
0.184709
0.180718
0.176969
0.173457
0.170179
0.167134
0.164324
0.161755
0.159438
0.157388
0.155653
0.154271
0.153214
0.152606
0.152562
0.159362
0.169753
0.182048
0.196543
0.21363
0.233823
0.257786
0.286374
0.320673
0.362042
0.412276
0.473514
0.547535
0.635028
0.734247
0.839398
0.940472
1.02638
1.09025
1.13214
1.1569
1.17043
1.17736
1.18078
1.18242
1.18318
1.18354
1.1837
1.18377
1.1838
1.18381
1.18382
1.18382
1.18382
1.18382
1.18382
1.18382
1.18382
1.18382
0.658526
0.658501
0.658458
0.658386
0.658266
0.658068
0.657742
0.657212
0.656361
0.655015
0.65292
0.649729
0.644982
0.638123
0.628544
0.615687
0.599191
0.579046
0.555681
0.529935
0.50289
0.475651
0.449157
0.424073
0.400788
0.379459
0.360075
0.342529
0.32666
0.312291
0.299247
0.287365
0.276504
0.266543
0.257381
0.248927
0.241069
0.233735
0.226873
0.220437
0.21439
0.208699
0.203336
0.198279
0.193509
0.18901
0.184771
0.18078
0.177031
0.173517
0.170237
0.167188
0.164375
0.161802
0.159479
0.157424
0.155682
0.154294
0.153232
0.152621
0.152575
0.158818
0.169102
0.181279
0.195636
0.212559
0.232554
0.256277
0.284568
0.3185
0.359415
0.409078
0.469625
0.54288
0.629628
0.728315
0.833406
0.935069
1.02212
1.08731
1.13034
1.1559
1.16991
1.1771
1.18065
1.18236
1.18316
1.18352
1.18369
1.18376
1.1838
1.18381
1.18382
1.18382
1.18382
1.18382
1.18382
1.18382
1.18382
1.18382
0.658526
0.658501
0.658458
0.658386
0.658265
0.658066
0.657739
0.657207
0.656354
0.655003
0.652902
0.649701
0.64494
0.638062
0.62846
0.615575
0.59905
0.578878
0.555492
0.529734
0.502686
0.475455
0.448974
0.423908
0.400644
0.379335
0.359972
0.342444
0.326593
0.31224
0.299209
0.28734
0.276491
0.266541
0.257389
0.248944
0.241094
0.233768
0.226913
0.220484
0.214443
0.208757
0.203399
0.198346
0.19358
0.189084
0.184847
0.180857
0.177108
0.173594
0.170312
0.167261
0.164444
0.161866
0.159539
0.157478
0.155728
0.154333
0.153266
0.152652
0.152602
0.158167
0.168328
0.180366
0.194562
0.211292
0.231054
0.25449
0.28243
0.315928
0.356306
0.405295
0.465025
0.537369
0.623225
0.721259
0.826242
0.928568
1.01695
1.08373
1.12814
1.15467
1.16927
1.17679
1.1805
1.18229
1.18312
1.18351
1.18368
1.18376
1.1838
1.18381
1.18382
1.18382
1.18382
1.18382
1.18382
1.18382
1.18382
1.18382
0.658526
0.6585
0.658457
0.658385
0.658264
0.658064
0.657736
0.657202
0.656345
0.654989
0.65288
0.649666
0.644889
0.637988
0.628356
0.615438
0.598877
0.57867
0.555257
0.529482
0.502431
0.475206
0.448741
0.423697
0.400457
0.379173
0.359834
0.342329
0.326499
0.312165
0.299152
0.287299
0.276465
0.266528
0.257388
0.248955
0.241116
0.2338
0.226954
0.220534
0.214501
0.208822
0.203471
0.198424
0.193662
0.189171
0.184937
0.18095
0.177203
0.173689
0.170406
0.167353
0.164532
0.16195
0.159617
0.157551
0.155794
0.154392
0.153318
0.152699
0.152647
0.157395
0.16742
0.1793
0.193309
0.209817
0.229309
0.252415
0.279946
0.31294
0.352696
0.400904
0.459684
0.530965
0.615771
0.713015
0.817823
0.920869
1.01079
1.07943
1.12547
1.15317
1.16848
1.1764
1.18032
1.1822
1.18309
1.18349
1.18368
1.18376
1.18379
1.18381
1.18382
1.18382
1.18382
1.18382
1.18382
1.18382
1.18382
1.18382
0.658526
0.6585
0.658457
0.658384
0.658263
0.658062
0.657732
0.657196
0.656335
0.654972
0.652854
0.649626
0.644828
0.637899
0.628232
0.615272
0.598666
0.578417
0.554969
0.529172
0.502113
0.474895
0.448447
0.423427
0.400216
0.378962
0.359652
0.342175
0.32637
0.31206
0.299069
0.287236
0.276419
0.266499
0.257375
0.248956
0.24113
0.233826
0.226992
0.220583
0.21456
0.20889
0.203548
0.198509
0.193754
0.189269
0.18504
0.181057
0.177312
0.1738
0.170517
0.167463
0.16464
0.162054
0.159716
0.157644
0.155879
0.154472
0.153392
0.152768
0.152713
0.156498
0.166372
0.178075
0.191873
0.208125
0.227307
0.250032
0.277097
0.309514
0.348561
0.395881
0.453576
0.523638
0.607223
0.703521
0.808064
0.911865
1.00351
1.0743
1.12228
1.15137
1.16754
1.17593
1.18009
1.1821
1.18304
1.18347
1.18367
1.18375
1.18379
1.18381
1.18382
1.18382
1.18382
1.18382
1.18382
1.18382
1.18382
1.18382
0.658526
0.6585
0.658457
0.658383
0.658262
0.65806
0.657728
0.657189
0.656323
0.654953
0.652823
0.649578
0.644756
0.637794
0.628085
0.615074
0.598413
0.578111
0.55462
0.528793
0.501722
0.474509
0.448079
0.423088
0.399909
0.37869
0.359414
0.34197
0.326196
0.311914
0.298949
0.28714
0.276346
0.266446
0.257341
0.248939
0.241129
0.233841
0.227021
0.220626
0.214615
0.208958
0.203626
0.198597
0.193852
0.189375
0.185152
0.181175
0.177435
0.173926
0.170644
0.16759
0.164766
0.162177
0.159835
0.157756
0.155984
0.15457
0.153486
0.152859
0.152806
0.155484
0.165199
0.176708
0.190269
0.206234
0.225065
0.247361
0.273896
0.305661
0.343905
0.390226
0.446699
0.515375
0.597555
0.69273
0.796887
0.901452
0.994995
1.06823
1.11847
1.14921
1.1664
1.17537
1.17982
1.18197
1.18298
1.18345
1.18366
1.18375
1.18379
1.18381
1.18382
1.18382
1.18382
1.18382
1.18382
1.18382
1.18382
1.18382
0.658526
0.6585
0.658456
0.658383
0.65826
0.658057
0.657723
0.657181
0.65631
0.654931
0.652788
0.649524
0.644673
0.637673
0.627913
0.614841
0.598114
0.577747
0.554201
0.528336
0.501247
0.474036
0.447626
0.422664
0.399523
0.378343
0.359108
0.341703
0.325965
0.311717
0.298782
0.287002
0.276234
0.26636
0.257277
0.248897
0.241107
0.233837
0.227035
0.220656
0.214662
0.209019
0.203702
0.198685
0.193952
0.189485
0.185272
0.181302
0.177568
0.174063
0.170785
0.167731
0.164905
0.162313
0.159965
0.157879
0.156096
0.154671
0.153579
0.152955
0.152922
0.154433
0.163959
0.175239
0.188525
0.204159
0.222589
0.244397
0.270337
0.301372
0.338721
0.383932
0.439047
0.506173
0.586758
0.680613
0.784231
0.889528
0.985121
1.06112
1.11397
1.14664
1.16505
1.1747
1.1795
1.18182
1.18291
1.18342
1.18364
1.18374
1.18379
1.18381
1.18382
1.18382
1.18382
1.18382
1.18382
1.18382
1.18382
1.18382
0.658526
0.6585
0.658456
0.658382
0.658258
0.658054
0.657718
0.657172
0.656295
0.654907
0.652749
0.649463
0.644579
0.637534
0.627715
0.614572
0.597766
0.577319
0.553704
0.52779
0.500676
0.473462
0.44707
0.422141
0.399041
0.377906
0.358717
0.341357
0.325662
0.311453
0.298556
0.28681
0.276074
0.266229
0.257174
0.24882
0.241054
0.233807
0.227026
0.220668
0.214693
0.209068
0.203768
0.198767
0.194049
0.189595
0.185394
0.181434
0.177708
0.17421
0.170935
0.167882
0.165054
0.162456
0.160098
0.157997
0.156185
0.15473
0.153598
0.152919
0.152815
0.153491
0.162759
0.17375
0.186707
0.201955
0.219928
0.241187
0.266461
0.296684
0.333041
0.37703
0.430643
0.496039
0.574827
0.667149
0.770046
0.876002
0.97377
1.05284
1.10868
1.14361
1.16345
1.1739
1.17912
1.18165
1.18283
1.18338
1.18363
1.18374
1.18379
1.18381
1.18382
1.18382
1.18382
1.18382
1.18382
1.18382
1.18382
1.18382
0.658526
0.6585
0.658455
0.658381
0.658257
0.658051
0.657713
0.657163
0.656279
0.654881
0.652707
0.649396
0.644476
0.637378
0.627491
0.614265
0.597364
0.576822
0.553122
0.527144
0.499994
0.472773
0.446396
0.421501
0.398445
0.377361
0.358225
0.340916
0.32527
0.311108
0.298254
0.286549
0.275851
0.266041
0.25702
0.248696
0.240959
0.23374
0.226986
0.220651
0.214699
0.209097
0.203817
0.198837
0.194136
0.189699
0.185513
0.181566
0.177851
0.17436
0.171091
0.16804
0.16521
0.162605
0.160234
0.15811
0.156256
0.15475
0.153537
0.152727
0.152406
0.152714
0.161654
0.172287
0.184847
0.199646
0.217098
0.237743
0.26228
0.29161
0.326881
0.369541
0.421521
0.485024
0.561814
0.652374