/*--------------------------------*- C++ -*----------------------------------*\
  =========                 |
  \\      /  F ield         | OpenFOAM: The Open Source CFD Toolbox
   \\    /   O peration     | Website:  https://openfoam.org
    \\  /    A nd           | Version:  8
     \\/     M anipulation  |
\*---------------------------------------------------------------------------*/
FoamFile
{
    version     2.0;
    format      ascii;
    class       volScalarField;
    location    "660/fluid";
    object      T;
}
// * * * * * * * * * * * * * * * * * * * * * * * * * * * * * * * * * * * * * //

dimensions      [0 0 0 1 0 0 0];

internalField   nonuniform List<scalar> 
4000
(
293.004
293.017
293.039
293.076
293.138
293.24
293.408
293.683
294.129
294.84
295.961
297.699
300.339
304.26
309.931
317.886
328.678
342.793
360.578
382.172
407.499
436.301
468.21
502.818
539.739
578.637
619.241
661.344
704.788
749.45
795.231
842.041
889.785
938.36
987.645
1037.57
1088.16
1139.33
1190.97
1243
1295.29
1347.74
1400.24
1452.68
1504.92
1556.84
1608.31
1659.19
1709.34
1758.59
1806.77
1853.68
1899.12
1942.8
1984.44
2023.64
2059.93
2092.25
2119.98
2143.19
2159.73
2167.76
2158.84
2048.81
1931.71
1809.7
1684.53
1557.7
1430.5
1304.11
1179.61
1058.13
940.791
828.509
722.532
624.885
537.901
463.881
404.637
360.799
331.224
313.115
302.978
297.744
295.191
293.989
293.438
293.191
293.082
293.035
293.015
293.006
293.003
293.001
293
293
293
293
293
293
293.004
293.017
293.039
293.076
293.138
293.241
293.411
293.688
294.135
294.85
295.973
297.708
300.337
304.228
309.837
317.687
328.315
342.205
359.708
380.981
405.972
434.449
466.065
500.426
537.151
575.905
616.414
658.466
701.895
746.577
792.408
839.293
887.138
935.835
985.264
1035.34
1086.1
1137.45
1189.29
1241.51
1294.02
1346.69
1399.41
1452.06
1504.52
1556.67
1608.36
1659.46
1709.81
1759.26
1807.63
1854.73
1900.33
1944.18
1985.96
2025.29
2061.7
2094.11
2121.91
2145.19
2161.78
2169.79
2149.89
2038.69
1920.56
1797.6
1671.54
1543.87
1415.89
1288.77
1163.66
1041.7
924.074
811.723
706.097
609.399
524.053
452.343
395.872
354.855
327.675
311.25
302.107
297.367
295.037
293.929
293.415
293.183
293.079
293.034
293.014
293.006
293.003
293.001
293
293
293
293
293
293
293.004
293.017
293.039
293.077
293.139
293.242
293.413
293.691
294.14
294.856
295.98
297.714
300.335
304.205
309.77
317.543
328.051
341.77
359.049
380.051
404.739
432.899
464.201
498.267
534.728
573.256
613.58
655.486
698.812
743.429
789.233
836.13
884.023
932.807
982.356
1032.58
1083.51
1135.06
1187.13
1239.61
1292.38
1345.34
1398.37
1451.33
1504.13
1556.6
1608.62
1660.04
1710.72
1760.48
1809.16
1856.54
1902.42
1946.52
1988.53
2028.06
2064.64
2097.14
2125
2148.28
2164.75
2172.56
2133.66
2021.4
1902.16
1778.11
1651.06
1522.51
1393.81
1266.19
1140.84
1018.97
901.797
790.32
686.19
591.701
509.217
440.804
387.688
349.628
324.676
309.689
301.358
297.026
294.887
293.865
293.389
293.172
293.075
293.032
293.014
293.006
293.002
293.001
293
293
293
293
293
293
293.004
293.017
293.039
293.077
293.139
293.242
293.413
293.69
294.138
294.851
295.968
297.688
300.285
304.115
309.62
317.303
327.685
341.241
358.32
379.095
403.537
431.445
462.502
496.337
532.586
570.926
611.089
652.862
696.083
740.626
786.387
833.274
881.193
930.036
979.683
1030.03
1081.12
1132.86
1185.15
1237.88
1290.93
1344.19
1397.54
1450.86
1504
1556.84
1609.23
1661.02
1712.06
1762.18
1811.2
1858.91
1905.09
1949.46
1991.71
2031.44
2068.16
2100.66
2128.43
2151.57
2167.85
2175.32
2113.42
2000.29
1880.08
1755.09
1627.19
1497.97
1368.83
1241.05
1115.88
994.579
878.339
768.223
666.036
574.084
494.623
429.507
379.634
344.4
321.592
308.025
300.525
296.631
294.707
293.785
293.354
293.157
293.069
293.03
293.013
293.005
293.002
293.001
293
293
293
293
293
293
293.004
293.017
293.039
293.076
293.139
293.242
293.411
293.688
294.133
294.842
295.952
297.66
300.235
304.031
309.484
317.09
327.367
340.786
357.7
378.285
402.523
430.222
461.074
494.718
530.793
568.978
609.008
650.671
693.806
738.288
784.015
830.895
878.837
927.737
977.472
1027.94
1079.17
1131.09
1183.59
1236.56
1289.88
1343.44
1397.11
1450.76
1504.25
1557.44
1610.2
1662.36
1713.76
1764.23
1813.59
1861.61
1908.06
1952.68
1995.12
2034.99
2071.75
2104.07
2131.75
2154.73
2170.6
2177.19
2091.97
1978.28
1857.25
1731.4
1602.77
1473.03
1343.64
1215.94
1091.2
970.718
855.624
747.074
647.006
557.682
481.24
419.313
372.488
339.832
318.931
306.597
299.81
296.29
294.55
293.715
293.323
293.144
293.063
293.027
293.012
293.005
293.002
293.001
293
293
293
293
293
293
293.004
293.017
293.039
293.076
293.138
293.24
293.409
293.684
294.126
294.83
295.93
297.623
300.176
303.937
309.337
316.872
327.055
340.356
357.13
377.56
401.635
429.171
459.865
493.362
529.305
567.375
607.307
648.891
691.966
736.409
782.118
829.005
876.979
925.937
975.761
1026.34
1077.72
1129.8
1182.5
1235.69
1289.27
1343.11
1397.07
1451.02
1504.84
1558.38
1611.47
1663.97
1715.71
1766.5
1816.15
1864.44
1911.11
1955.89
1998.44
2038.33
2075.04
2107.16
2134.67
2157.32
2172.78
2178.76
2074.24
1958.91
1836.36
1709.27
1579.72
1449.41
1319.82
1192.27
1068.06
948.487
834.592
727.642
629.651
542.836
469.212
410.206
366.127
335.764
316.546
305.302
299.151
295.972
294.401
293.647
293.293
293.131
293.057
293.025
293.011
293.005
293.002
293.001
293
293
293
293
293
293
293.004
293.017
293.039
293.076
293.137
293.239
293.406
293.679
294.118
294.816
295.909
297.588
300.119
303.849
309.204
316.676
326.777
339.978
356.636
376.938
400.88
428.284
458.855
492.239
528.083
566.069
605.932
647.464
690.503
734.927
780.637
827.544
875.56
924.585
974.499
1025.19
1076.7
1128.95
1181.84
1235.25
1289.05
1343.13
1397.37
1451.61
1505.72
1559.56
1612.97
1665.77
1717.8
1768.87
1818.76
1867.25
1914.08
1958.95
2001.48
2041.23
2077.66
2109.08
2136.62
2158.21
2172.36
2176.8
2064.45
1944.29
1818.66
1689.59
1558.8
1427.82
1298
1170.63
1046.96
928.272
815.529
710.119
614.1
529.622
458.586
402.23
360.606
332.264
314.507
304.2
298.59
295.7
294.273
293.588
293.267
293.119
293.052
293.023
293.01
293.004
293.002
293.001
293
293
293
293
293
293
293.004
293.017
293.039
293.075
293.136
293.237
293.404
293.675
294.111
294.804
295.887
297.554
300.065
303.766
309.081
316.498
326.53
339.646
356.207
376.405
400.241
427.542
458.018
491.318
527.09
565.018
604.836
646.336
689.359
733.782
779.506
826.446
874.513
923.608
973.614
1024.42
1076.06
1128.47
1181.53
1235.12
1289.14
1343.45
1397.93
1452.43
1506.81
1560.92
1614.59
1667.66
1719.94
1771.24
1821.33
1869.99
1916.92
1961.82
2004.29
2043.84
2079.74
2110.49
2136.95
2156.67
2167.72
2166.91
2051.5
1928.9
1801.44
1671.08
1539.48
1408.07
1278.19
1151.08
1028
910.161
798.521
694.55
600.342
517.992
449.292
395.301
355.841
329.258
312.76
303.254
298.106
295.464
294.162
293.537
293.244
293.109
293.048
293.021
293.009
293.004
293.002
293.001
293
293
293
293
293
293
293.004
293.017
293.038
293.075
293.135
293.236
293.401
293.67
294.103
294.791
295.868
297.523
300.017
303.692
308.972
316.343
326.315
339.361
355.842
375.956
399.706
426.928
457.331
490.568
526.29
564.178
603.969
645.455
688.476
732.911
778.661
825.64
873.763
922.931
973.027
1023.94
1075.71
1128.26
1181.47
1235.24
1289.45
1343.97
1398.66
1453.39
1508
1562.35
1616.26
1669.55
1722.05
1773.54
1823.81
1872.6
1919.63
1964.56
2006.99
2046.43
2081.94
2112.31
2138.22
2157.17
2167.18
2154.66
2037.38
1913.33
1784.81
1653.71
1521.66
1390.09
1260.3
1133.54
1011.05
894.032
783.415
680.783
588.237
507.819
441.219
389.326
351.763
326.702
311.281
302.455
297.698
295.265
294.068
293.493
293.224
293.1
293.044
293.019
293.008
293.003
293.001
293.001
293
293
293
293
293
293
293.004
293.017
293.038
293.074
293.135
293.235
293.399
293.666
294.097
294.781
295.85
297.495
299.974
303.628
308.877
316.208
326.131
339.118
355.535
375.58
399.264
426.423
456.771
489.964
525.65
563.515
603.293
644.776
687.806
732.26
778.042
825.067
873.249
922.491
972.676
1023.69
1075.57
1128.25
1181.61
1235.54
1289.92
1344.62
1399.5
1454.43
1509.24
1563.79
1617.89
1671.38
1724.06
1775.72
1826.13
1875.04
1922.15
1967.14
2009.58
2048.99
2084.4
2114.64
2140.46
2159.44
2169.71
2140.98
2022.94
1898.23
1769.19
1637.75
1505.53
1373.98
1244.39
1118.02
996.128
879.854
770.193
668.776
577.717
499.012
434.259
384.206
348.292
324.538
310.033
301.782
297.354
295.098
293.988
293.457
293.207
293.093
293.041
293.018
293.008
293.003
293.001
293.001
293
293
293
293
293
293
293.004
293.017
293.038
293.074
293.134
293.233
293.397
293.663
294.091
294.771
295.835
297.471
299.937
303.572
308.796
316.095
325.976
338.916
355.279
375.27
398.901
426.012
456.32
489.481
525.145
562.996
602.77
644.26
687.304
731.784
777.601
824.672
872.911
922.221
972.488
1023.6
1075.58
1128.38
1181.87
1235.94
1290.47
1345.33
1400.38
1455.47
1510.46
1565.18
1619.45
1673.1
1725.93
1777.72
1828.25
1877.25
1924.44
1969.47
2011.93
2051.32
2086.65
2116.82
2142.61
2161.55
2171.83
2127.87
2009.37
1884.28
1754.97
1623.37
1491.12
1359.66
1230.33
1104.37
983.048
867.484
758.673
658.345
568.61
491.422
428.296
379.845
345.353
322.716
308.987
301.219
297.067
294.957
293.921
293.426
293.193
293.086
293.038
293.017
293.007
293.003
293.001
293.001
293
293
293
293
293
293
293.004
293.016
293.038
293.074
293.133
293.232
293.395
293.66
294.086
294.763
295.822
297.45
299.905
303.525
308.728
315.999
325.847
338.747
355.069
375.017
398.607
425.682
455.96
489.099
524.749
562.595
602.372
643.872
686.936
731.443
777.297
824.414
872.709
922.086
972.427
1023.62
1075.7
1128.6
1182.2
1236.4
1291.05
1346.05
1401.24
1456.48
1511.61
1566.47
1620.88
1674.66
1727.6
1779.5
1830.12
1879.19
1926.43
1971.48
2013.93
2053.27
2088.53
2118.65
2144.36
2163.22
2173.45
2116.42
1997.42
1871.99
1742.46
1610.75
1478.5
1347.19
1218.11
1092.54
971.747
856.793
748.73
649.364
560.793
484.933
423.221
376.155
342.879
321.19
308.114
300.75
296.828
294.84
293.866
293.4
293.181
293.081
293.036
293.016
293.007
293.003
293.001
293.001
293
293
293
293
293
293
293.004
293.016
293.038
293.073
293.133
293.231
293.393
293.657
294.082
294.756
295.811
297.433
299.879
303.485
308.671
315.92
325.741
338.61
354.898
374.812
398.37
425.418
455.675
488.799
524.442
562.287
602.071
643.585
686.669
731.203
777.092
824.251
872.597
922.032
972.44
1023.71
1075.87
1128.86
1182.57
1236.86
1291.63
1346.74
1402.05
1457.41
1512.66
1567.63
1622.15
1676.03
1729.07
1781.05
1831.73
1880.85
1928.1
1973.15
2015.56
2054.88
2090.06
2120.09
2145.71
2164.5
2174.66
2106.65
1987.16
1861.4
1731.67
1599.89
1467.69
1336.51
1207.67
1082.44
962.083
847.655
740.244
641.713
554.148
479.434
418.939
373.055
340.812
319.92
307.39
300.362
296.63
294.744
293.82
293.378
293.172
293.077
293.034
293.015
293.006
293.003
293.001
293
293
293
293
293
293
293
293.004
293.016
293.038
293.073
293.132
293.231
293.392
293.655
294.078
294.75
295.801
297.418
299.857
303.453
308.625
315.856
325.655
338.499
354.76
374.648
398.182
425.21
455.452
488.567
524.207
562.055
601.847
643.375
686.48
731.041
776.962
824.16
872.551
922.037
972.503
1023.84
1076.07
1129.14
1182.92
1237.31
1292.17
1347.38
1402.78
1458.23
1513.58
1568.64
1623.25
1677.21
1730.32
1782.35
1833.07
1882.21
1929.46
1974.49
2016.89
2056.16
2091.24
2121.19
2146.73
2165.46
2175.52
2098.49
1978.51
1852.44
1722.54
1590.7
1458.52
1327.46
1198.82
1073.88
953.914
839.939
733.089
635.27
548.565
474.827
415.363
370.477
339.1
318.872
306.794
300.043
296.468
294.664
293.782
293.361
293.164
293.073
293.032
293.014
293.006
293.003
293.001
293
293
293
293
293
293
293
293.004
293.016
293.037
293.073
293.132
293.23
293.391
293.653
294.075
294.745
295.794
297.407
299.839
303.427
308.588
315.804
325.586
338.41
354.651
374.519
398.035
425.048
455.28
488.39
524.029
561.881
601.683
643.224
686.348
730.932
776.881
824.113
872.542
922.072
972.588
1023.98
1076.27
1129.4
1183.25
1237.71
1292.65
1347.93
1403.41
1458.94
1514.35
1569.49
1624.16
1678.18
1731.33
1783.4
1834.13
1883.27
1930.52
1975.54
2017.9
2057.11
2092.09
2121.97
2147.44
2166.11
2176.1
2091.73
1971.3
1844.95
1714.9
1583
1450.86
1319.9
1191.44
1066.76
947.117
833.524
727.147
629.928
543.944
471.021
412.418
368.362
337.701
318.019
306.31
299.785
296.336
294.6
293.752
293.347
293.157
293.07
293.031
293.013
293.006
293.002
293.001
293
293
293
293
293
293
293
293.004
293.016
293.037
293.073
293.132
293.229
293.39
293.652
294.073
294.741
295.788
297.397
299.825
303.407
308.558
315.764
325.532
338.342
354.566
374.419
397.922
424.925
455.15
488.256
523.896
561.753
601.563
643.118
686.257
730.861
776.835
824.094
872.555
922.121
972.676
1024.11
1076.45
1129.63
1183.54
1238.05
1293.04
1348.38
1403.92
1459.51
1514.98
1570.16
1624.88
1678.93
1732.11
1784.19
1834.93
1884.08
1931.31
1976.29
2018.61
2057.76
2092.67
2122.49
2147.91
2166.55
2176.46
2086.27
1965.42
1838.81
1708.63
1576.69
1444.58
1313.72
1185.42
1060.95
941.582
828.307
722.32
625.594
540.201
467.945
410.043
366.661
336.578
317.336
305.924
299.579
296.231
294.549
293.727
293.335
293.152
293.068
293.03
293.013
293.006
293.002
293.001
293
293
293
293
293
293
293
293.004
293.016
293.037
293.073
293.131
293.229
293.389
293.651
294.071
294.738
295.783
297.39
299.815
303.391
308.536
315.733
325.491
338.289
354.503
374.344
397.838
424.833
455.053
488.158
523.799
561.661
601.479
643.043
686.196
730.816
776.808
824.089
872.575
922.168
972.753
1024.22
1076.59
1129.81
1183.76
1238.31
1293.35
1348.73
1404.31
1459.94
1515.44
1570.66
1625.4
1679.47
1732.66
1784.75
1835.5
1884.62
1931.83
1976.77
2019.04
2058.16
2093.05
2122.87
2148.37
2167.24
2177.57
2082
1960.76
1833.93
1703.62
1571.66
1439.59
1308.81
1180.65
1056.36
937.222
824.203
718.53
622.198
537.274
465.545
408.194
365.339
335.706
316.806
305.624
299.419
296.15
294.509
293.708
293.327
293.148
293.066
293.029
293.013
293.005
293.002
293.001
293
293
293
293
293
293
293
293.004
293.016
293.037
293.072
293.131
293.229
293.389
293.65
294.069
294.736
295.78
297.385
299.807
303.38
308.52
315.711
325.462
338.252
354.457
374.291
397.778
424.768
454.985
488.089
523.732
561.598
601.421
642.993
686.156
730.788
776.794
824.09
872.593
922.206
972.811
1024.3
1076.7
1129.94
1183.92
1238.5
1293.56
1348.97
1404.58
1460.23
1515.76
1570.99
1625.75
1679.83
1733.02
1785.1
1835.83
1884.92
1932.09
1976.99
2019.21
2058.28
2093.13
2122.92
2148.44
2167.36
2177.78
2078.84
1957.24
1830.2
1699.82
1567.83
1435.8
1305.11
1177.07
1052.93
933.968
821.149
715.718
619.684
535.112
463.778
406.838
364.371
335.07
316.419
305.404
299.301
296.09
294.48
293.694
293.32
293.145
293.065
293.029
293.012
293.005
293.002
293.001
293
293
293
293
293
293
293
293.004
293.016
293.037
293.072
293.131
293.229
293.389
293.649
294.069
294.735
295.778
297.382
299.802
303.372
308.509
315.696
325.443
338.228
354.428
374.256
397.739
424.726
454.942
488.046
523.69
561.558
601.385
642.963
686.131
730.771
776.786
824.092
872.606
922.23
972.847
1024.34
1076.76
1130.02
1184.01
1238.61
1293.69
1349.11
1404.73
1460.39
1515.94
1571.18
1625.94
1680.01
1733.2
1785.26
1835.96
1885.02
1932.15
1977
2019.17
2058.18
2092.99
2122.76
2148.29
2167.29
2177.89
2076.75
1954.82
1827.63
1697.17
1565.19
1433.2
1302.59
1174.63
1050.61
931.782
819.107
713.846
618.017
533.686
462.617
405.951
363.742
334.658
316.168
305.262
299.225
296.051
294.461
293.685
293.316
293.143
293.064
293.028
293.012
293.005
293.002
293.001
293
293
293
293
293
293
293
293.004
293.016
293.037
293.072
293.131
293.228
293.388
293.649
294.068
294.734
295.777
297.38
299.799
303.369
308.505
315.689
325.434
338.217
354.414
374.24
397.721
424.707
454.922
488.025
523.67
561.539
601.368
642.948
686.12
730.763
776.782
824.093
872.612
922.241
972.864
1024.37
1076.79
1130.05
1184.05
1238.65
1293.74
1349.17
1404.79
1460.46
1516
1571.24
1626
1680.07
1733.24
1785.29
1835.96
1885
1932.1
1976.91
2019.03
2058
2092.77
2122.51
2148.06
2167.15
2177.93
2075.71
1953.54
1826.23
1695.75
1563.78
1431.83
1301.27
1173.39
1049.44
930.684
818.092
712.925
617.205
532.996
462.06
405.529
363.446
334.465
316.052
305.196
299.19
296.033
294.452
293.681
293.314
293.142
293.064
293.028
293.012
293.005
293.002
293.001
293
293
293
293
293
293
293
293.004
293.016
293.037
293.072
293.131
293.228
293.388
293.649
294.068
294.734
295.777
297.38
299.799
303.369
308.505
315.69
325.434
338.217
354.414
374.241
397.721
424.707
454.922
488.026
523.67
561.539
601.369
642.949
686.121
730.764
776.782
824.094
872.612
922.242
972.864
1024.37
1076.79
1130.05
1184.05
1238.65
1293.74
1349.17
1404.79
1460.46
1516
1571.25
1626
1680.07
1733.24
1785.29
1835.96
1885
1932.1
1976.91
2019.04
2058
2092.77
2122.52
2148.06
2167.15
2177.93
2075.71
1953.54
1826.23
1695.75
1563.78
1431.83
1301.27
1173.38
1049.44
930.683
818.092
712.925
617.205
532.996
462.06
405.529
363.446
334.466
316.052
305.196
299.19
296.033
294.452
293.681
293.314
293.142
293.064
293.028
293.012
293.005
293.002
293.001
293
293
293
293
293
293
293
293.004
293.016
293.037
293.072
293.131
293.229
293.389
293.649
294.069
294.735
295.778
297.382
299.802
303.372
308.51
315.696
325.443
338.228
354.428
374.257
397.74
424.727
454.943
488.047
523.691
561.559
601.386
642.964
686.133
730.772
776.787
824.093
872.607
922.231
972.848
1024.35
1076.76
1130.02
1184.01
1238.61
1293.69
1349.11
1404.73
1460.4
1515.94
1571.18
1625.94
1680.01
1733.2
1785.26
1835.96
1885.02
1932.15
1977
2019.17
2058.19
2092.99
2122.76
2148.29
2167.3
2177.89
2076.75
1954.82
1827.62
1697.17
1565.19
1433.2
1302.59
1174.63
1050.61
931.782
819.107
713.846
618.018
533.686
462.617
405.951
363.742
334.658
316.168
305.262
299.225
296.051
294.461
293.685
293.316
293.143
293.064
293.028
293.012
293.005
293.002
293.001
293
293
293
293
293
293
293
293.004
293.016
293.037
293.072
293.131
293.229
293.389
293.65
294.07
294.736
295.78
297.385
299.807
303.38
308.52
315.711
325.462
338.253
354.458
374.292
397.779
424.769
454.987
488.091
523.734
561.599
601.423
642.995
686.158
730.789
776.795
824.092
872.595
922.208
972.813
1024.3
1076.7
1129.94
1183.92
1238.5
1293.56
1348.97
1404.58
1460.23
1515.76
1570.99
1625.75
1679.83
1733.02
1785.1
1835.83
1884.93
1932.1
1976.99
2019.22
2058.28
2093.13
2122.92
2148.44
2167.36
2177.78
2078.84
1957.24
1830.2
1699.81
1567.83
1435.8
1305.11
1177.07
1052.93
933.968
821.149
715.718
619.684
535.113
463.778
406.838
364.372
335.07
316.419
305.404
299.301
296.09
294.48
293.694
293.32
293.145
293.065
293.029
293.012
293.005
293.002
293.001
293
293
293
293
293
293
293
293.004
293.016
293.037
293.073
293.131
293.229
293.389
293.651
294.071
294.739
295.783
297.39
299.815
303.391
308.536
315.733
325.492
338.29
354.504
374.345
397.839
424.835
455.055
488.16
523.802
561.663
601.481
643.046
686.198
730.818
776.811
824.092
872.578
922.171
972.756
1024.22
1076.6
1129.82
1183.76
1238.32
1293.35
1348.73
1404.31
1459.94
1515.45
1570.66
1625.4
1679.47
1732.67
1784.76
1835.5
1884.63
1931.83
1976.77
2019.05
2058.16
2093.05
2122.87
2148.38
2167.24
2177.57
2082
1960.76
1833.92
1703.62
1571.66
1439.58
1308.81
1180.65
1056.36
937.222
824.203
718.531
622.199
537.275
465.546
408.195
365.339
335.707
316.806
305.624
299.419
296.15
294.509
293.708
293.327
293.148
293.066
293.029
293.013
293.005
293.002
293.001
293
293
293
293
293
293
293
293.004
293.016
293.037
293.073
293.132
293.229
293.39
293.652
294.073
294.741
295.788
297.398
299.825
303.407
308.559
315.764
325.533
338.343
354.568
374.421
397.924
424.927
455.152
488.259
523.899
561.756
601.566
643.121
686.26
730.864
776.838
824.098
872.559
922.125
972.68
1024.11
1076.45
1129.63
1183.54
1238.05
1293.05
1348.39
1403.92
1459.51
1514.98
1570.17
1624.88
1678.93
1732.11
1784.19
1834.94
1884.08
1931.32
1976.29
2018.61
2057.76
2092.68
2122.49
2147.91
2166.56
2176.47
2086.27
1965.41
1838.81
1708.62
1576.69
1444.58
1313.72
1185.42
1060.95
941.583
828.307
722.321
625.595
540.202
467.946
410.044
366.661
336.578
317.336
305.924
299.579
296.231
294.549
293.727
293.335
293.152
293.068
293.03
293.013
293.006
293.002
293.001
293
293
293
293
293
293
293
293.004
293.016
293.037
293.073
293.132
293.23
293.391
293.653
294.075
294.745
295.794
297.407
299.839
303.427
308.588
315.805
325.587
338.412
354.653
374.521
398.038
425.051
455.283
488.393
524.032
561.885
601.686
643.228
686.352
730.936
776.885
824.117
872.546
922.077
972.592
1023.98
1076.27
1129.41
1183.26
1237.72
1292.65
1347.93
1403.41
1458.94
1514.36
1569.49
1624.17
1678.18
1731.33
1783.4
1834.14
1883.28
1930.53
1975.54
2017.9
2057.11
2092.1
2121.97
2147.44
2166.12
2176.11
2091.73
1971.3
1844.95
1714.9
1583
1450.86
1319.9
1191.44
1066.76
947.117
833.525
727.147
629.929
543.945
471.022
412.419
368.363
337.701
318.019
306.31
299.785
296.336
294.6
293.752
293.347
293.157
293.07
293.031
293.013
293.006
293.002
293.001
293
293
293
293
293
293
293
293.004
293.016
293.038
293.073
293.132
293.231
293.392
293.655
294.078
294.75
295.801
297.419
299.857
303.454
308.626
315.856
325.656
338.5
354.762
374.65
398.185
425.213
455.456
488.571
524.211
562.059
601.852
643.38
686.484
731.045
776.967
824.165
872.556
922.042
972.509
1023.84
1076.08
1129.14
1182.93
1237.32
1292.18
1347.38
1402.78
1458.24
1513.58
1568.65
1623.26
1677.22
1730.32
1782.36
1833.08
1882.21
1929.47
1974.5
2016.9
2056.17
2091.25
2121.2
2146.74
2165.47
2175.53
2098.49
1978.51
1852.44
1722.54
1590.7
1458.52
1327.46
1198.82
1073.88
953.914
839.939
733.089
635.271
548.566
474.827
415.364
370.478
339.101
318.873
306.794
300.043
296.468
294.664
293.782
293.361
293.164
293.073
293.032
293.014
293.006
293.003
293.001
293
293
293
293
293
293
293
293.004
293.016
293.038
293.073
293.133
293.231
293.393
293.657
294.082
294.756
295.811
297.433
299.879
303.486
308.672
315.921
325.742
338.612
354.9
374.814
398.373
425.422
455.679
488.804
524.447
562.292
602.076
643.59
686.674
731.209
777.098
824.257
872.603
922.038
972.446
1023.71
1075.88
1128.87
1182.57
1236.87
1291.64
1346.75
1402.06
1457.41
1512.66
1567.64
1622.16
1676.04
1729.08
1781.06
1831.74
1880.86
1928.11
1973.15
2015.57
2054.88
2090.07
2120.1
2145.72
2164.51
2174.67
2106.65
1987.16
1861.4
1731.67
1599.9
1467.7
1336.51
1207.67
1082.44
962.083
847.655
740.244
641.713
554.149
479.435
418.94
373.056
340.812
319.92
307.39
300.362
296.63
294.744
293.82
293.378
293.172
293.077
293.034
293.015
293.006
293.003
293.001
293
293
293
293
293
293
293
293.004
293.016
293.038
293.074
293.133
293.232
293.395
293.66
294.086
294.763
295.822
297.45
299.906
303.525
308.729
316
325.849
338.749
355.071
375.02
398.61
425.686
455.965
489.104
524.754
562.6
602.378
643.878
686.942
731.449
777.304
824.421
872.716
922.093
972.435
1023.63
1075.71
1128.61
1182.21
1236.4
1291.06
1346.06
1401.25
1456.48
1511.62
1566.47
1620.89
1674.67
1727.61
1779.51
1830.13
1879.2
1926.43
1971.48
2013.93
2053.28
2088.53
2118.65
2144.36
2163.23
2173.45
2116.41
1997.41
1871.98
1742.45
1610.73
1478.5
1347.18
1218.11
1092.54
971.74
856.789
748.728
649.364
560.793
484.933
423.222
376.155
342.879
321.19
308.114
300.75
296.828
294.84
293.866
293.4
293.181
293.081
293.036
293.016
293.007
293.003
293.001
293.001
293
293
293
293
293
293
293.004
293.017
293.038
293.074
293.134
293.233
293.397
293.663
294.091
294.771
295.835
297.471
299.937
303.572
308.797
316.096
325.978
338.918
355.282
375.273
398.905
426.017
456.325
489.486
525.151
563.002
602.777
644.266
687.312
731.791
777.609
824.68
872.919
922.229
972.497
1023.61
1075.59
1128.39
1181.88
1235.95
1290.48
1345.33
1400.38
1455.48
1510.47
1565.18
1619.46
1673.11
1725.93
1777.73
1828.25
1877.26
1924.44
1969.47
2011.93
2051.32
2086.65
2116.82
2142.61
2161.55
2171.83
2127.86
2009.36
1884.28
1754.97
1623.37
1491.12
1359.67
1230.34
1104.38
983.053
867.484
758.671
658.344
568.609
491.422
428.296
379.845
345.352
322.716
308.987
301.219
297.067
294.957
293.921
293.426
293.193
293.086
293.038
293.017
293.007
293.003
293.001
293.001
293
293
293
293
293
293
293.004
293.017
293.038
293.074
293.135
293.235
293.399
293.666
294.097
294.781
295.85
297.495
299.974
303.628
308.878
316.21
326.133
339.121
355.538
375.584
399.268
426.428
456.777
489.97
525.657
563.522
603.3
644.784
687.814
732.269
778.051
825.076
873.258
922.5
972.684
1023.7
1075.58
1128.26
1181.62
1235.55
1289.93
1344.63
1399.51
1454.44
1509.25
1563.8
1617.9
1671.39
1724.07
1775.73
1826.14
1875.05
1922.16
1967.15
2009.59
2048.99
2084.4
2114.64
2140.46
2159.44
2169.71
2140.96
2022.91
1898.19
1769.15
1637.7
1505.48
1373.92
1244.34
1117.98
996.105
879.844
770.184
668.773
577.715
499.01
434.258
384.205
348.291
324.537
310.033
301.782
297.354
295.097
293.988
293.457
293.207
293.093
293.041
293.018
293.008
293.003
293.001
293.001
293
293
293
293
293
293
293.004
293.017
293.038
293.075
293.135
293.236
293.401
293.67
294.104
294.792
295.868
297.523
300.017
303.693
308.973
316.344
326.317
339.363
355.846
375.96
399.711
426.933
457.337
490.575
526.297
564.186
603.977
645.464
688.485
732.92
778.67
825.65
873.773
922.941
973.037
1023.95
1075.72
1128.27
1181.48
1235.26
1289.46
1343.98
1398.67
1453.4
1508.01
1562.36
1616.27
1669.56
1722.06
1773.55
1823.82
1872.61
1919.64
1964.57
2007
2046.44
2081.95
2112.32
2138.23
2157.18
2167.19
2154.66
2037.39
1913.35
1784.83
1653.73
1521.69
1390.12
1260.33
1133.56
1011.07
894.043
783.423
680.781
588.233
507.816
441.217
389.324
351.762
326.701
311.28
302.455
297.698
295.265
294.068
293.493
293.224
293.1
293.044
293.019
293.008
293.003
293.001
293.001
293
293
293
293
293
293
293.004
293.017
293.039
293.075
293.136
293.237
293.404
293.675
294.111
294.804
295.888
297.554
300.066
303.767
309.082
316.5
326.532
339.649
356.211
376.41
400.246
427.548
458.025
491.325
527.098
565.026
604.845
646.346
689.369
733.792
779.517
826.457
874.524
923.62
973.626
1024.43
1076.07
1128.48
1181.54
1235.14
1289.15
1343.46
1397.94
1452.44
1506.82
1560.93
1614.6
1667.67
1719.95
1771.25
1821.34
1870
1916.93
1961.83
2004.3
2043.85
2079.75
2110.5
2136.95
2156.67
2167.72
2166.89
2051.48
1928.87
1801.41
1671.06
1539.45
1408.05
1278.17
1151.06
1027.98
910.137
798.496
694.534
600.333
517.987
449.289
395.299
355.84
329.257
312.759
303.253
298.106
295.464
294.162
293.537
293.244
293.109
293.048
293.021
293.009
293.004
293.002
293.001
293
293
293
293
293
293
293.004
293.017
293.039
293.076
293.137
293.239
293.406
293.679
294.119
294.817
295.909
297.588
300.12
303.849
309.205
316.678
326.78
339.981
356.64
376.943
400.885
428.291
458.862
492.247
528.092
566.079
605.942
647.474
690.514
734.938
780.649
827.556
875.573
924.597
974.512
1025.21
1076.72
1128.97
1181.85
1235.26
1289.07
1343.15
1397.38
1451.62
1505.74
1559.58
1612.98
1665.79
1717.82
1768.88
1818.77
1867.27
1914.09
1958.96
2001.49
2041.24
2077.67
2109.09
2136.63
2158.21
2172.36
2176.79
2064.44
1944.28
1818.65
1689.57
1558.79
1427.81
1297.99
1170.62
1046.96
928.272
815.538
710.128
614.102
529.62
458.583
402.227
360.604
332.263
314.507
304.2
298.59
295.7
294.273
293.588
293.267
293.119
293.052
293.023
293.01
293.004
293.002
293.001
293
293
293
293
293
293
293.004
293.017
293.039
293.076
293.138
293.24
293.409
293.684
294.126
294.83
295.931
297.624
300.176
303.938
309.339
316.874
327.057
340.359
357.134
377.566
401.641
429.178
459.873
493.371
529.315
567.386
607.318
648.902
691.978
736.421
782.131
829.019
876.993
925.952
975.776
1026.36
1077.73
1129.82
1182.52
1235.71
1289.29
1343.13
1397.08
1451.04
1504.86
1558.39
1611.49
1663.99
1715.73
1766.52
1816.16
1864.45
1911.13
1955.91
1998.45
2038.34
2075.05
2107.16
2134.68
2157.33
2172.78
2178.76
2074.24
1958.9
1836.34
1709.25
1579.7
1449.39
1319.8
1192.25
1068.05
948.47
834.574
727.626
629.64
542.828
469.206
410.202
366.124
335.762
316.545
305.302
299.15
295.972
294.401
293.647
293.293
293.131
293.057
293.025
293.011
293.005
293.002
293.001
293
293
293
293
293
293
293.004
293.017
293.039
293.076
293.139
293.242
293.411
293.688
294.134
294.842
295.952
297.66
300.236
304.033
309.485
317.092
327.37
340.79
357.704
378.291
402.529
430.23
461.083
494.727
530.803
568.989
609.02
650.683
693.819
738.302
784.029
830.91
878.852
927.752
977.488
1027.96
1079.19
1131.11
1183.61
1236.58
1289.9
1343.45
1397.13
1450.77
1504.26
1557.46
1610.21
1662.37
1713.78
1764.25
1813.6
1861.62
1908.08
1952.69
1995.13
2035
2071.76
2104.08
2131.75
2154.74
2170.61
2177.19
2091.94
1978.25
1857.22
1731.38
1602.74
1473
1343.62
1215.92
1091.18
970.699
855.607
747.059
646.993
557.672
481.232
419.308
372.484
339.83
318.929
306.596
299.809
296.29
294.55
293.715
293.323
293.144
293.063
293.027
293.012
293.005
293.002
293.001
293
293
293
293
293
293
293.004
293.017
293.039
293.077
293.139
293.242
293.413
293.69
294.138
294.851
295.968
297.689
300.286
304.116
309.622
317.305
327.688
341.245
358.326
379.101
403.545
431.454
462.511
496.347
532.597
570.938
611.101
652.875
696.097
740.641
786.403
833.291
881.209
930.054
979.701
1030.05
1081.14
1132.88
1185.17
1237.9
1290.95
1344.21
1397.56
1450.88
1504.02
1556.86
1609.25
1661.04
1712.08
1762.2
1811.22
1858.93
1905.1
1949.48
1991.72
2031.45
2068.17
2100.67
2128.44
2151.58
2167.85
2175.32
2113.39
2000.25
1880.05
1755.06
1627.16
1497.94
1368.8
1241.03
1115.86
994.556
878.318
768.204
666.02
574.071
494.613
429.5
379.629
344.396
321.59
308.023
300.524
296.631
294.707
293.785
293.354
293.157
293.069
293.03
293.013
293.005
293.002
293.001
293
293
293
293
293
293
293.004
293.017
293.039
293.077
293.139
293.242
293.413
293.691
294.14
294.856
295.981
297.715
300.336
304.206
309.772
317.546
328.055
341.774
359.054
380.058
404.747
432.908
464.211
498.278
534.74
573.269
613.593
655.501
698.827
743.445
789.25
836.148
884.042
932.825
982.375
1032.6
1083.53
1135.08
1187.15
1239.63
1292.4
1345.36
1398.39
1451.35
1504.15
1556.62
1608.64
1660.06
1710.74
1760.5
1809.18
1856.56
1902.44
1946.53
1988.54
2028.08
2064.65
2097.15
2125.02
2148.29
2164.76
2172.56
2133.62
2021.36
1902.12
1778.07
1651.02
1522.47
1393.78
1266.16
1140.81
1018.94
901.773
790.298
686.17
591.685
509.204
440.794
387.681
349.623
324.673
309.688
301.358
297.025
294.887
293.865
293.389
293.172
293.075
293.032
293.014
293.006
293.002
293.001
293
293
293
293
293
293
293.004
293.017
293.039
293.076
293.138
293.241
293.411
293.688
294.135
294.85
295.973
297.709
300.337
304.229
309.839
317.69
328.319
342.21
359.714
380.988
405.98
434.459
466.076
500.438
537.164
575.919
616.429
658.481
701.912
746.595
792.426
839.312
887.157
935.856
985.285
1035.36
1086.12
1137.47