/*--------------------------------*- C++ -*----------------------------------*\
  =========                 |
  \\      /  F ield         | OpenFOAM: The Open Source CFD Toolbox
   \\    /   O peration     | Website:  https://openfoam.org
    \\  /    A nd           | Version:  8
     \\/     M anipulation  |
\*---------------------------------------------------------------------------*/
FoamFile
{
    version     2.0;
    format      ascii;
    class       volVectorField;
    location    "660/fluid";
    object      U;
}
// * * * * * * * * * * * * * * * * * * * * * * * * * * * * * * * * * * * * * //

dimensions      [0 1 -1 0 0 0 0];

internalField   nonuniform List<vector> 
4000
(
(0.0999459 -0.00704582 0)
(0.0996517 -0.0209661 0)
(0.0991768 -0.0347716 0)
(0.0985208 -0.0485004 0)
(0.0976759 -0.0621709 0)
(0.0966243 -0.0757848 0)
(0.0953458 -0.0893319 0)
(0.0938211 -0.102792 0)
(0.092035 -0.116139 0)
(0.0899789 -0.129343 0)
(0.0876547 -0.142378 0)
(0.0850779 -0.155225 0)
(0.0822823 -0.167874 0)
(0.079326 -0.180312 0)
(0.076287 -0.192581 0)
(0.0732386 -0.204751 0)
(0.0702321 -0.216883 0)
(0.067286 -0.229017 0)
(0.0643775 -0.241166 0)
(0.0614438 -0.253303 0)
(0.0583936 -0.265364 0)
(0.0551259 -0.27726 0)
(0.051551 -0.288885 0)
(0.0476101 -0.300112 0)
(0.0432768 -0.310843 0)
(0.038543 -0.321018 0)
(0.0334137 -0.330573 0)
(0.0279054 -0.339452 0)
(0.0220433 -0.347609 0)
(0.0158579 -0.355011 0)
(0.00938212 -0.361635 0)
(0.00265034 -0.367469 0)
(-0.00430103 -0.37251 0)
(-0.0114358 -0.376765 0)
(-0.0187214 -0.380247 0)
(-0.0261285 -0.382974 0)
(-0.03363 -0.384973 0)
(-0.0412004 -0.386272 0)
(-0.0488151 -0.386908 0)
(-0.0564512 -0.386916 0)
(-0.0640866 -0.386339 0)
(-0.0717007 -0.385218 0)
(-0.0792735 -0.383599 0)
(-0.086786 -0.381526 0)
(-0.0942195 -0.379046 0)
(-0.101556 -0.376208 0)
(-0.108776 -0.373059 0)
(-0.115863 -0.36965 0)
(-0.122799 -0.36603 0)
(-0.129563 -0.36225 0)
(-0.136137 -0.358364 0)
(-0.142501 -0.354426 0)
(-0.148634 -0.350493 0)
(-0.154511 -0.346626 0)
(-0.160108 -0.342891 0)
(-0.165396 -0.339361 0)
(-0.170334 -0.336118 0)
(-0.174869 -0.333249 0)
(-0.178973 -0.330852 0)
(-0.18268 -0.329081 0)
(-0.186063 -0.328208 0)
(-0.188545 -0.328596 0)
(-0.188051 -0.330115 0)
(-0.183312 -0.33104 0)
(-0.176344 -0.330238 0)
(-0.168932 -0.32783 0)
(-0.161288 -0.32411 0)
(-0.153347 -0.319229 0)
(-0.145128 -0.313248 0)
(-0.136701 -0.306207 0)
(-0.128144 -0.298137 0)
(-0.119544 -0.289074 0)
(-0.110988 -0.279061 0)
(-0.102571 -0.268145 0)
(-0.0944393 -0.256386 0)
(-0.0868368 -0.243896 0)
(-0.0800925 -0.230875 0)
(-0.0745764 -0.217602 0)
(-0.0706656 -0.204637 0)
(-0.068656 -0.192491 0)
(-0.0685822 -0.181407 0)
(-0.070145 -0.171296 0)
(-0.0728292 -0.161845 0)
(-0.0760967 -0.152721 0)
(-0.0795193 -0.143681 0)
(-0.0828158 -0.134579 0)
(-0.0858144 -0.125319 0)
(-0.0884478 -0.115946 0)
(-0.0907141 -0.106507 0)
(-0.0926382 -0.0970358 0)
(-0.0942539 -0.0875637 0)
(-0.0955966 -0.0781177 0)
(-0.0967007 -0.0687189 0)
(-0.0975976 -0.0593816 0)
(-0.0983162 -0.0501127 0)
(-0.0988819 -0.0409123 0)
(-0.0993164 -0.0317733 0)
(-0.099637 -0.0226818 0)
(-0.0998555 -0.0136163 0)
(-0.0999821 -0.00454888 0)
(0.0999998 -0.0066109 0)
(0.0997952 -0.0197743 0)
(0.0993721 -0.0328515 0)
(0.0987069 -0.0458248 0)
(0.097801 -0.0586762 0)
(0.0966501 -0.0713829 0)
(0.095245 -0.0839169 0)
(0.0935778 -0.096247 0)
(0.0916465 -0.108341 0)
(0.0894583 -0.12017 0)
(0.0870327 -0.131714 0)
(0.0844039 -0.14297 0)
(0.0816221 -0.153969 0)
(0.0787537 -0.164791 0)
(0.0758717 -0.175501 0)
(0.0730428 -0.186155 0)
(0.0703134 -0.196828 0)
(0.0676964 -0.207585 0)
(0.0651618 -0.218466 0)
(0.0626377 -0.229469 0)
(0.0600212 -0.240548 0)
(0.0571977 -0.251624 0)
(0.0540611 -0.262602 0)
(0.0505292 -0.2734 0)
(0.0465528 -0.283905 0)
(0.0421129 -0.293986 0)
(0.0372111 -0.30354 0)
(0.0318662 -0.31249 0)
(0.0261087 -0.32078 0)
(0.0199755 -0.328368 0)
(0.0135067 -0.335229 0)
(0.00674276 -0.341349 0)
(-0.000276696 -0.346723 0)
(-0.00751262 -0.351357 0)
(-0.0149283 -0.355262 0)
(-0.0224902 -0.358456 0)
(-0.0301674 -0.360965 0)
(-0.0379316 -0.362815 0)
(-0.0457565 -0.364037 0)
(-0.0536174 -0.364666 0)
(-0.0614912 -0.36474 0)
(-0.0693561 -0.364296 0)
(-0.0771917 -0.363376 0)
(-0.0849784 -0.362023 0)
(-0.0926976 -0.360279 0)
(-0.100331 -0.35819 0)
(-0.107861 -0.355801 0)
(-0.11527 -0.353158 0)
(-0.122541 -0.350308 0)
(-0.129657 -0.347299 0)
(-0.1366 -0.34418 0)
(-0.143353 -0.341001 0)
(-0.149897 -0.337812 0)
(-0.156216 -0.334666 0)
(-0.162289 -0.331619 0)
(-0.168096 -0.328725 0)
(-0.173602 -0.32604 0)
(-0.178765 -0.32362 0)
(-0.183584 -0.321514 0)
(-0.188155 -0.319778 0)
(-0.192593 -0.318464 0)
(-0.195978 -0.317567 0)
(-0.195689 -0.316581 0)
(-0.190492 -0.3149 0)
(-0.182999 -0.31233 0)
(-0.175195 -0.308766 0)
(-0.167253 -0.304163 0)
(-0.159041 -0.298497 0)
(-0.150541 -0.291755 0)
(-0.141801 -0.28393 0)
(-0.132884 -0.275026 0)
(-0.123854 -0.265059 0)
(-0.114773 -0.254069 0)
(-0.105716 -0.242139 0)
(-0.0968314 -0.229423 0)
(-0.0883995 -0.216205 0)
(-0.0808151 -0.202938 0)
(-0.0745425 -0.190256 0)
(-0.0700396 -0.178584 0)
(-0.067598 -0.168185 0)
(-0.0671891 -0.159069 0)
(-0.0684536 -0.150959 0)
(-0.0708592 -0.143444 0)
(-0.0738884 -0.136159 0)
(-0.0771436 -0.12887 0)
(-0.0803665 -0.121471 0)
(-0.0834155 -0.113953 0)
(-0.0862055 -0.106231 0)
(-0.0887016 -0.0982797 0)
(-0.0908981 -0.0901294 0)
(-0.0928031 -0.0818199 0)
(-0.0944329 -0.0733896 0)
(-0.095808 -0.0648722 0)
(-0.0969505 -0.0562952 0)
(-0.0978825 -0.0476798 0)
(-0.0986251 -0.0390412 0)
(-0.099196 -0.0303885 0)
(-0.0996069 -0.0217247 0)
(-0.0998661 -0.0130481 0)
(-0.0999951 -0.00435469 0)
(0.0999789 -0.00633364 0)
(0.0997162 -0.0189327 0)
(0.0992018 -0.0314431 0)
(0.0984168 -0.0438446 0)
(0.0973651 -0.0561154 0)
(0.0960479 -0.0682318 0)
(0.0944644 -0.0801693 0)
(0.0926178 -0.0919028 0)
(0.0905182 -0.103409 0)
(0.0881856 -0.114671 0)
(0.0856521 -0.125677 0)
(0.0829636 -0.136427 0)
(0.0801784 -0.146938 0)
(0.0773613 -0.157242 0)
(0.0745778 -0.167393 0)
(0.0718896 -0.177463 0)
(0.0693417 -0.187532 0)
(0.0669473 -0.197669 0)
(0.0646766 -0.207919 0)
(0.0624573 -0.218288 0)
(0.0601854 -0.22874 0)
(0.0577432 -0.239205 0)
(0.0550179 -0.249589 0)
(0.0519138 -0.259791 0)
(0.0483609 -0.269712 0)
(0.0443207 -0.279259 0)
(0.0397845 -0.288351 0)
(0.0347651 -0.296922 0)
(0.0292896 -0.304914 0)
(0.0233936 -0.312285 0)
(0.0171168 -0.319005 0)
(0.0104996 -0.325054 0)
(0.00358157 -0.330423 0)
(-0.00359401 -0.335111 0)
(-0.0109894 -0.339126 0)
(-0.0185727 -0.34248 0)
(-0.0263102 -0.345192 0)
(-0.0341722 -0.347287 0)
(-0.0421311 -0.348791 0)
(-0.0501616 -0.349734 0)
(-0.0582397 -0.350151 0)
(-0.066343 -0.350075 0)
(-0.0744507 -0.349545 0)
(-0.0825433 -0.3486 0)
(-0.0906021 -0.347278 0)
(-0.0986092 -0.345621 0)
(-0.106548 -0.34367 0)
(-0.114401 -0.341468 0)
(-0.122154 -0.339058 0)
(-0.129793 -0.336482 0)
(-0.137303 -0.333784 0)
(-0.14467 -0.331007 0)
(-0.151882 -0.328195 0)
(-0.158926 -0.32539 0)
(-0.165791 -0.322632 0)
(-0.172461 -0.319963 0)
(-0.178905 -0.317416 0)
(-0.185085 -0.315018 0)
(-0.191015 -0.312789 0)
(-0.196805 -0.310746 0)
(-0.202449 -0.308896 0)
(-0.206451 -0.307174 0)
(-0.205845 -0.304937 0)
(-0.200004 -0.301893 0)
(-0.191993 -0.298152 0)
(-0.183622 -0.29364 0)
(-0.175041 -0.288258 0)
(-0.166149 -0.281944 0)
(-0.156939 -0.274672 0)
(-0.147455 -0.266437 0)
(-0.137753 -0.257262 0)
(-0.12789 -0.247198 0)
(-0.117927 -0.236333 0)
(-0.107951 -0.224802 0)
(-0.0981575 -0.212811 0)
(-0.0888896 -0.20065 0)
(-0.080613 -0.188685 0)
(-0.0738576 -0.177324 0)
(-0.0690876 -0.166933 0)
(-0.0665231 -0.157715 0)
(-0.0660363 -0.149612 0)
(-0.0672055 -0.142336 0)
(-0.069488 -0.135511 0)
(-0.0723848 -0.128819 0)
(-0.075521 -0.122056 0)
(-0.0786571 -0.115119 0)
(-0.0816633 -0.107976 0)
(-0.0844741 -0.100638 0)
(-0.0870523 -0.0931231 0)
(-0.0893796 -0.0854525 0)
(-0.0914512 -0.0776466 0)
(-0.0932707 -0.0697262 0)
(-0.0948462 -0.0617115 0)
(-0.0961888 -0.0536206 0)
(-0.0973108 -0.0454695 0)
(-0.0982251 -0.0372711 0)
(-0.0989426 -0.0290357 0)
(-0.09947 -0.0207703 0)
(-0.0998115 -0.0124793 0)
(-0.0999872 -0.00416573 0)
(0.0999836 -0.0059816 0)
(0.0997164 -0.0178804 0)
(0.0991843 -0.0296861 0)
(0.0983678 -0.041372 0)
(0.0972756 -0.0529114 0)
(0.0959145 -0.0642774 0)
(0.09429 -0.0754433 0)
(0.0924104 -0.0863839 0)
(0.0902906 -0.097077 0)
(0.0879533 -0.107506 0)
(0.0854316 -0.117664 0)
(0.0827695 -0.127556 0)
(0.0800235 -0.137205 0)
(0.0772594 -0.146653 0)
(0.0745477 -0.155962 0)
(0.0719531 -0.165209 0)
(0.069521 -0.174475 0)
(0.0672632 -0.183834 0)
(0.0651487 -0.193333 0)
(0.0631031 -0.202985 0)
(0.0610196 -0.212759 0)
(0.058777 -0.222595 0)
(0.0562586 -0.232405 0)
(0.0533676 -0.242095 0)
(0.0500348 -0.251565 0)
(0.0462199 -0.260725 0)
(0.0419086 -0.269492 0)
(0.0371068 -0.277798 0)
(0.0318351 -0.285587 0)
(0.026123 -0.292817 0)
(0.0200055 -0.299456 0)
(0.0135198 -0.305483 0)
(0.00670343 -0.310887 0)
(-0.000405956 -0.315664 0)
(-0.007772 -0.31982 0)
(-0.0153607 -0.323363 0)
(-0.0231406 -0.326311 0)
(-0.0310825 -0.328682 0)
(-0.0391597 -0.3305 0)
(-0.0473471 -0.331791 0)
(-0.0556211 -0.332584 0)
(-0.0639601 -0.33291 0)
(-0.0723436 -0.332803 0)
(-0.0807525 -0.332296 0)
(-0.0891683 -0.331425 0)
(-0.0975739 -0.330225 0)
(-0.105953 -0.328733 0)
(-0.114292 -0.326987 0)
(-0.122575 -0.325023 0)
(-0.130789 -0.322877 0)
(-0.138922 -0.320585 0)
(-0.146962 -0.318182 0)
(-0.154895 -0.315702 0)
(-0.162711 -0.313175 0)
(-0.170397 -0.31063 0)
(-0.177935 -0.308088 0)
(-0.185284 -0.305568 0)
(-0.192395 -0.303074 0)
(-0.199291 -0.300607 0)
(-0.206089 -0.298169 0)
(-0.21262 -0.295754 0)
(-0.216723 -0.2933 0)
(-0.215347 -0.290065 0)
(-0.208753 -0.285993 0)
(-0.200281 -0.281303 0)
(-0.191368 -0.275955 0)
(-0.182107 -0.269856 0)
(-0.172446 -0.262949 0)
(-0.162415 -0.25521 0)
(-0.152082 -0.246643 0)
(-0.141517 -0.237282 0)
(-0.1308 -0.22719 0)
(-0.120014 -0.216468 0)
(-0.109289 -0.205262 0)
(-0.0988791 -0.193783 0)
(-0.0891823 -0.182315 0)
(-0.0806861 -0.171211 0)
(-0.073891 -0.160843 0)
(-0.0691863 -0.15152 0)
(-0.0667052 -0.14337 0)
(-0.066254 -0.136279 0)
(-0.0673876 -0.129939 0)
(-0.0695779 -0.123996 0)
(-0.0723567 -0.118157 0)
(-0.0753772 -0.112239 0)
(-0.0784148 -0.106143 0)
(-0.0813403 -0.0998314 0)
(-0.0840864 -0.0932972 0)
(-0.0866212 -0.0865501 0)
(-0.0889309 -0.0796092 0)
(-0.0910112 -0.0724965 0)
(-0.0928625 -0.0652344 0)
(-0.0944884 -0.0578442 0)
(-0.0958936 -0.0503455 0)
(-0.0970841 -0.0427561 0)
(-0.0980663 -0.0350918 0)
(-0.0988451 -0.0273665 0)
(-0.0994216 -0.0195916 0)
(-0.0997956 -0.011777 0)
(-0.0999874 -0.00393215 0)
(0.0999807 -0.00562846 0)
(0.0996982 -0.0168235 0)
(0.0991406 -0.0279283 0)
(0.0982896 -0.0389159 0)
(0.0971562 -0.0497597 0)
(0.09575 -0.0604336 0)
(0.0940794 -0.0709126 0)
(0.0921563 -0.0811739 0)
(0.0899988 -0.091198 0)
(0.0876331 -0.100971 0)
(0.0850953 -0.110488 0)
(0.0824328 -0.119755 0)
(0.0797041 -0.128793 0)
(0.0769772 -0.13764 0)
(0.0743229 -0.146351 0)
(0.0718059 -0.154998 0)
(0.0694707 -0.163656 0)
(0.0673288 -0.172393 0)
(0.0653486 -0.181256 0)
(0.0634556 -0.190262 0)
(0.061542 -0.199388 0)
(0.0594841 -0.208581 0)
(0.0571621 -0.217768 0)
(0.0544744 -0.226861 0)
(0.0513473 -0.235772 0)
(0.0477356 -0.244417 0)
(0.0436205 -0.252722 0)
(0.0390038 -0.260623 0)
(0.0339019 -0.268066 0)
(0.0283414 -0.275009 0)
(0.0223539 -0.281423 0)
(0.015974 -0.287284 0)
(0.00923685 -0.292581 0)
(0.00217755 -0.297306 0)
(-0.0051693 -0.301463 0)
(-0.0127711 -0.305058 0)
(-0.0205978 -0.308104 0)
(-0.0286217 -0.310616 0)
(-0.0368172 -0.312615 0)
(-0.0451602 -0.314122 0)
(-0.0536284 -0.315163 0)
(-0.0622009 -0.315764 0)
(-0.0708578 -0.315954 0)
(-0.0795804 -0.315761 0)
(-0.088351 -0.315217 0)
(-0.0971535 -0.314353 0)
(-0.105972 -0.313199 0)
(-0.114792 -0.311786 0)
(-0.1236 -0.310146 0)
(-0.132381 -0.308308 0)
(-0.141122 -0.306301 0)
(-0.149809 -0.304152 0)
(-0.158428 -0.301886 0)
(-0.166963 -0.299524 0)
(-0.175396 -0.297085 0)
(-0.183699 -0.294579 0)
(-0.191817 -0.292014 0)
(-0.199689 -0.289384 0)
(-0.207346 -0.28668 0)
(-0.214911 -0.283899 0)
(-0.222021 -0.281029 0)
(-0.225846 -0.278019 0)
(-0.223483 -0.274107 0)
(-0.216176 -0.269418 0)
(-0.20731 -0.264162 0)
(-0.197906 -0.258314 0)
(-0.188007 -0.251807 0)
(-0.177619 -0.244603 0)
(-0.166822 -0.236697 0)
(-0.155709 -0.228109 0)
(-0.144376 -0.218887 0)
(-0.132921 -0.209106 0)
(-0.12145 -0.198874 0)
(-0.110129 -0.188341 0)
(-0.0992569 -0.177713 0)
(-0.0892579 -0.167251 0)
(-0.0806232 -0.157261 0)
(-0.0738268 -0.148043 0)
(-0.0692013 -0.139817 0)
(-0.0668084 -0.13263 0)
(-0.066398 -0.126327 0)
(-0.0675049 -0.120616 0)
(-0.0696138 -0.115194 0)
(-0.0722845 -0.109823 0)
(-0.075197 -0.104357 0)
(-0.0781453 -0.0987195 0)
(-0.0810086 -0.0928818 0)
(-0.0837203 -0.08684 0)
(-0.086245 -0.080603 0)
(-0.0885644 -0.0741851 0)
(-0.0906699 -0.0676033 0)
(-0.0925582 -0.0608749 0)
(-0.0942288 -0.0540174 0)
(-0.0956831 -0.0470473 0)
(-0.0969235 -0.0399806 0)
(-0.0979531 -0.0328322 0)
(-0.0987739 -0.0256158 0)
(-0.0993842 -0.0183443 0)
(-0.0997816 -0.0110293 0)
(-0.0999861 -0.00368269 0)
(0.0999813 -0.00526028 0)
(0.0996962 -0.0157235 0)
(0.0991321 -0.0261005 0)
(0.0982713 -0.0363636 0)
(0.0971263 -0.0464863 0)
(0.0957087 -0.0564425 0)
(0.0940288 -0.0662083 0)
(0.0921004 -0.0757616 0)
(0.0899434 -0.0850845 0)
(0.0875851 -0.0941646 0)
(0.0850625 -0.102998 0)
(0.0824231 -0.111591 0)
(0.0797254 -0.119966 0)
(0.0770368 -0.12816 0)
(0.0744279 -0.136228 0)
(0.0719631 -0.144239 0)
(0.0696875 -0.152266 0)
(0.0676133 -0.160376 0)
(0.0657105 -0.168617 0)
(0.0639061 -0.177004 0)
(0.0620933 -0.18552 0)
(0.0601485 -0.194116 0)
(0.0579507 -0.202725 0)
(0.0553962 -0.211266 0)
(0.0524079 -0.219657 0)
(0.0489372 -0.22782 0)
(0.0449611 -0.235684 0)
(0.0404774 -0.243191 0)
(0.0354989 -0.250288 0)
(0.0300484 -0.256937 0)
(0.0241546 -0.263107 0)
(0.0178491 -0.268776 0)
(0.0111643 -0.273931 0)
(0.00413301 -0.278564 0)
(-0.00321209 -0.282677 0)
(-0.0108401 -0.286273 0)
(-0.0187229 -0.289363 0)
(-0.0268341 -0.291959 0)
(-0.0351494 -0.294078 0)
(-0.0436462 -0.295739 0)
(-0.0523029 -0.296963 0)
(-0.0610993 -0.297772 0)
(-0.070016 -0.298191 0)
(-0.079035 -0.298244 0)
(-0.0881396 -0.297958 0)
(-0.0973133 -0.297357 0)
(-0.10654 -0.29647 0)
(-0.115805 -0.29532 0)
(-0.125093 -0.293934 0)
(-0.134387 -0.292335 0)
(-0.143673 -0.290546 0)
(-0.152933 -0.288589 0)
(-0.162148 -0.286481 0)
(-0.171295 -0.284237 0)
(-0.18035 -0.281869 0)
(-0.189271 -0.279383 0)
(-0.197987 -0.276779 0)
(-0.206426 -0.274045 0)
(-0.214625 -0.271173 0)
(-0.2227 -0.268148 0)
(-0.23011 -0.264938 0)
(-0.233473 -0.261517 0)
(-0.230141 -0.257233 0)
(-0.2222 -0.252252 0)
(-0.212925 -0.246696 0)
(-0.20303 -0.240571 0)
(-0.192536 -0.233852 0)
(-0.1815 -0.226534 0)
(-0.170037 -0.218628 0)
(-0.158263 -0.210166 0)
(-0.146294 -0.201204 0)
(-0.134248 -0.191818 0)
(-0.122251 -0.182115 0)
(-0.110504 -0.172234 0)
(-0.0993391 -0.162367 0)
(-0.0892015 -0.152748 0)
(-0.0805782 -0.143645 0)
(-0.0739117 -0.135315 0)
(-0.0694762 -0.127929 0)
(-0.0672641 -0.121503 0)
(-0.0669723 -0.115869 0)
(-0.0681174 -0.110755 0)
(-0.0701948 -0.105883 0)
(-0.0727879 -0.101041 0)
(-0.0756006 -0.096099 0)
(-0.0784451 -0.0909901 0)
(-0.0812118 -0.0856871 0)
(-0.0838408 -0.0801854 0)
(-0.0862993 -0.074492 0)
(-0.0885697 -0.0686194 0)
(-0.0906424 -0.0625826 0)
(-0.0925119 -0.0563974 0)
(-0.0941753 -0.05008 0)
(-0.0956312 -0.0436462 0)
(-0.0968793 -0.0371114 0)
(-0.0979199 -0.0304904 0)
(-0.0987525 -0.0237977 0)
(-0.0993732 -0.0170468 0)
(-0.0997779 -0.0102507 0)
(-0.0999861 -0.00342282 0)
(0.0999808 -0.00489097 0)
(0.0996932 -0.0146198 0)
(0.0991248 -0.024268 0)
(0.0982583 -0.0338092 0)
(0.0971071 -0.0432178 0)
(0.0956836 -0.0524696 0)
(0.0939992 -0.0615419 0)
(0.0920687 -0.0704144 0)
(0.0899131 -0.0790709 0)
(0.0875608 -0.0875004 0)
(0.0850495 -0.0956995 0)
(0.0824274 -0.103675 0)
(0.0797533 -0.111448 0)
(0.0770949 -0.119052 0)
(0.0745229 -0.126539 0)
(0.0721017 -0.133971 0)
(0.0698766 -0.141419 0)
(0.0678602 -0.148943 0)
(0.0660233 -0.15659 0)
(0.0642933 -0.164375 0)
(0.0625637 -0.172287 0)
(0.0607105 -0.180282 0)
(0.0586113 -0.188299 0)
(0.0561606 -0.196266 0)
(0.0532787 -0.204109 0)
(0.049914 -0.211756 0)
(0.0460407 -0.219141 0)
(0.0416536 -0.226209 0)
(0.0367627 -0.232912 0)
(0.031388 -0.239213 0)
(0.0255556 -0.245082 0)
(0.019295 -0.250499 0)
(0.0126366 -0.255448 0)
(0.00561099 -0.259924 0)
(-0.00175101 -0.263923 0)
(-0.00942017 -0.26745 0)
(-0.0173695 -0.27051 0)
(-0.0255741 -0.273116 0)
(-0.0340111 -0.27528 0)
(-0.0426585 -0.277018 0)
(-0.0514954 -0.278347 0)
(-0.0605023 -0.279286 0)
(-0.0696607 -0.279856 0)
(-0.0789528 -0.280078 0)
(-0.0883617 -0.279973 0)
(-0.0978705 -0.279562 0)
(-0.107463 -0.278868 0)
(-0.117122 -0.277912 0)
(-0.12683 -0.276713 0)
(-0.136571 -0.275292 0)
(-0.146325 -0.273666 0)
(-0.15607 -0.271852 0)
(-0.165784 -0.269863 0)
(-0.175437 -0.267711 0)
(-0.184994 -0.265403 0)
(-0.194403 -0.262945 0)
(-0.203574 -0.260332 0)
(-0.212431 -0.257554 0)
(-0.221001 -0.254602 0)
(-0.229354 -0.251452 0)
(-0.236821 -0.248054 0)
(-0.239759 -0.244378 0)
(-0.23565 -0.239926 0)
(-0.227035 -0.234842 0)
(-0.217213 -0.229188 0)
(-0.206806 -0.222991 0)
(-0.195795 -0.216264 0)
(-0.184234 -0.209023 0)
(-0.172248 -0.201296 0)
(-0.159966 -0.193121 0)
(-0.147519 -0.184557 0)
(-0.135037 -0.175681 0)
(-0.122664 -0.166594 0)
(-0.110631 -0.157429 0)
(-0.0992961 -0.148358 0)
(-0.0891139 -0.139595 0)
(-0.0805621 -0.131373 0)
(-0.0740507 -0.123905 0)
(-0.069801 -0.117315 0)
(-0.067748 -0.11158 0)
(-0.0675512 -0.106525 0)
(-0.0687195 -0.101896 0)
(-0.0707632 -0.0974517 0)
(-0.073288 -0.0930144 0)
(-0.0760178 -0.0884765 0)
(-0.0787782 -0.0837831 0)
(-0.0814679 -0.0789121 0)
(-0.0840301 -0.0738597 0)
(-0.0864334 -0.0686317 0)
(-0.0886599 -0.0632383 0)
(-0.090699 -0.0576919 0)
(-0.0925442 -0.0520061 0)
(-0.094191 -0.0461948 0)
(-0.0956366 -0.0402718 0)
(-0.0968791 -0.0342513 0)
(-0.0979175 -0.028147 0)
(-0.09875 -0.0219726 0)
(-0.0993715 -0.0157414 0)
(-0.0997772 -0.00946627 0)
(-0.099986 -0.00316085 0)
(0.0999809 -0.0045199 0)
(0.0996937 -0.0135111 0)
(0.0991258 -0.0224277 0)
(0.0982602 -0.0312447 0)
(0.0971107 -0.0399381 0)
(0.0956901 -0.0484849 0)
(0.0940105 -0.0568641 0)
(0.0920874 -0.0650569 0)
(0.089942 -0.0730483 0)
(0.0876031 -0.0808284 0)
(0.0851088 -0.0883942 0)
(0.082507 -0.0957527 0)
(0.0798565 -0.102923 0)
(0.0772246 -0.109937 0)
(0.0746819 -0.116844 0)
(0.0722927 -0.123702 0)
(0.0701026 -0.130575 0)
(0.0681253 -0.137523 0)
(0.0663322 -0.144588 0)
(0.0646522 -0.151788 0)
(0.0629791 -0.15911 0)
(0.0611892 -0.166519 0)
(0.0591591 -0.173957 0)
(0.0567817 -0.18136 0)
(0.0539753 -0.188659 0)
(0.0506859 -0.195788 0)
(0.0468851 -0.202687 0)
(0.0425652 -0.209304 0)
(0.0377336 -0.215594 0)
(0.0324082 -0.221523 0)
(0.0266131 -0.227063 0)
(0.0203756 -0.232194 0)
(0.0137244 -0.2369 0)
(0.00668849 -0.241176 0)
(-0.000702977 -0.245016 0)
(-0.00842208 -0.248424 0)
(-0.016443 -0.251405 0)
(-0.0247421 -0.253966 0)
(-0.033297 -0.256119 0)
(-0.0420865 -0.257877 0)
(-0.0510905 -0.259254 0)
(-0.0602898 -0.260266 0)
(-0.0696663 -0.26093 0)
(-0.079202 -0.261263 0)
(-0.0888794 -0.261283 0)
(-0.098681 -0.261008 0)
(-0.108589 -0.260456 0)
(-0.118586 -0.259643 0)
(-0.128651 -0.258587 0)
(-0.138767 -0.257303 0)
(-0.148909 -0.255805 0)
(-0.159053 -0.254106 0)
(-0.169171 -0.252216 0)
(-0.179228 -0.250144 0)
(-0.189182 -0.247895 0)
(-0.19897 -0.245473 0)
(-0.208489 -0.242874 0)
(-0.217656 -0.240092 0)
(-0.226475 -0.23712 0)
(-0.234966 -0.233948 0)
(-0.242301 -0.230543 0)
(-0.244747 -0.226781 0)
(-0.239932 -0.222247 0)
(-0.230735 -0.217146 0)
(-0.22042 -0.211539 0)
(-0.209561 -0.205448 0)
(-0.198111 -0.198891 0)
(-0.186122 -0.191893 0)
(-0.173719 -0.184487 0)
(-0.161043 -0.176716 0)
(-0.148233 -0.16864 0)
(-0.135427 -0.160332 0)
(-0.122786 -0.151887 0)
(-0.110565 -0.143428 0)
(-0.0991449 -0.135112 0)
(-0.0889857 -0.127132 0)
(-0.0805537 -0.119691 0)
(-0.0742283 -0.112969 0)
(-0.0701828 -0.10706 0)
(-0.0683026 -0.101919 0)
(-0.0682151 -0.0973746 0)
(-0.0694228 -0.0931927 0)
(-0.071449 -0.0891593 0)
(-0.0739187 -0.0851203 0)
(-0.0765737 -0.0809834 0)
(-0.0792527 -0.0767018 0)
(-0.0818625 -0.0722566 0)
(-0.0843511 -0.0676444 0)
(-0.086689 -0.0628702 0)
(-0.0888592 -0.0579428 0)
(-0.0908509 -0.052873 0)
(-0.0926572 -0.0476729 0)
(-0.0942727 -0.0423548 0)
(-0.0956938 -0.0369314 0)
(-0.0969175 -0.0314156 0)
(-0.0979418 -0.0258204 0)
(-0.098764 -0.0201586 0)
(-0.0993784 -0.0144427 0)
(-0.0997797 -0.00868552 0)
(-0.0999862 -0.00290009 0)
(0.099981 -0.00415006 0)
(0.0996945 -0.0124059 0)
(0.0991283 -0.0205936 0)
(0.0982655 -0.0286898 0)
(0.0971199 -0.0366723 0)
(0.0957046 -0.0445201 0)
(0.094032 -0.0522136 0)
(0.0921177 -0.0597359 0)
(0.0899832 -0.0670731 0)
(0.0876576 -0.0742162 0)
(0.0851787 -0.0811629 0)
(0.0825947 -0.0879196 0)
(0.0799641 -0.0945036 0)
(0.0773542 -0.100945 0)
(0.0748352 -0.107289 0)
(0.0724716 -0.113588 0)
(0.0703095 -0.119902 0)
(0.0683629 -0.126286 0)
(0.0666042 -0.132779 0)
(0.0649627 -0.139399 0)
(0.0633329 -0.146136 0)
(0.0615906 -0.152959 0)
(0.0596119 -0.159816 0)
(0.0572883 -0.166648 0)
(0.0545365 -0.173393 0)
(0.0513004 -0.17999 0)
(0.0475497 -0.186384 0)
(0.0432747 -0.192529 0)
(0.038481 -0.198382 0)
(0.0331846 -0.203911 0)
(0.027408 -0.20909 0)
(0.0211769 -0.213899 0)
(0.0145185 -0.218325 0)
(0.00746071 -0.22236 0)
(3.12589e-05 -0.225999 0)
(-0.00774298 -0.229244 0)
(-0.0158371 -0.232098 0)
(-0.0242281 -0.234568 0)
(-0.0328943 -0.236662 0)
(-0.041815 -0.23839 0)
(-0.0509706 -0.239766 0)
(-0.0603421 -0.240802 0)
(-0.0699111 -0.241511 0)
(-0.0796591 -0.241909 0)
(-0.0895681 -0.242009 0)
(-0.0996196 -0.241828 0)
(-0.109795 -0.241379 0)
(-0.120073 -0.240675 0)
(-0.130434 -0.239732 0)
(-0.140855 -0.23856 0)
(-0.15131 -0.237172 0)
(-0.161771 -0.235577 0)
(-0.172204 -0.233784 0)
(-0.182572 -0.231798 0)
(-0.192825 -0.229626 0)
(-0.20289 -0.227268 0)
(-0.21266 -0.224722 0)
(-0.222056 -0.221986 0)
(-0.231096 -0.219064 0)
(-0.239761 -0.21597 0)
(-0.246882 -0.2127 0)
(-0.24867 -0.20894 0)
(-0.243111 -0.20442 0)
(-0.23346 -0.1994 0)
(-0.222778 -0.193954 0)
(-0.211556 -0.188091 0)
(-0.19975 -0.181826 0)
(-0.187415 -0.175184 0)
(-0.174684 -0.168199 0)
(-0.161703 -0.160917 0)
(-0.148619 -0.153393 0)
(-0.135575 -0.145699 0)
(-0.122746 -0.137922 0)
(-0.110408 -0.130175 0)
(-0.0989584 -0.122604 0)
(-0.088859 -0.115378 0)
(-0.0805645 -0.108677 0)
(-0.074425 -0.102653 0)
(-0.0705713 -0.0973704 0)
(-0.068847 -0.092771 0)
(-0.068855 -0.0886868 0)
(-0.0700962 -0.0849064 0)
(-0.0721068 -0.0812421 0)
(-0.0745292 -0.0775624 0)
(-0.0771202 -0.0737897 0)
(-0.0797292 -0.0698847 0)
(-0.0822696 -0.065832 0)
(-0.0846927 -0.0616289 0)
(-0.0869708 -0.0572797 0)
(-0.0890876 -0.052792 0)
(-0.0910326 -0.0481751 0)
(-0.0927984 -0.0434395 0)
(-0.0943796 -0.038596 0)
(-0.095772 -0.0336561 0)
(-0.0969721 -0.0286311 0)
(-0.0979775 -0.0235329 0)
(-0.0987851 -0.0183733 0)
(-0.099389 -0.0131639 0)
(-0.0997834 -0.00791636 0)
(-0.0999865 -0.00264317 0)
(0.0999811 -0.00378167 0)
(0.0996961 -0.0113051 0)
(0.0991326 -0.0187666 0)
(0.0982738 -0.026145 0)
(0.0971337 -0.0334199 0)
(0.0957255 -0.0405721 0)
(0.0940615 -0.0475839 0)
(0.0921574 -0.0544397 0)
(0.0900348 -0.061127 0)
(0.0877227 -0.0676377 0)
(0.0852588 -0.0739696 0)
(0.0826911 -0.0801287 0)
(0.0800779 -0.0861311 0)
(0.0774862 -0.0920044 0)
(0.0749861 -0.0977885 0)
(0.0726422 -0.103533 0)
(0.0705008 -0.109293 0)
(0.0685764 -0.115117 0)
(0.0668423 -0.121044 0)
(0.0652284 -0.12709 0)
(0.0636294 -0.133246 0)
(0.0619213 -0.139485 0)
(0.0599793 -0.145761 0)
(0.0576939 -0.15202 0)
(0.0549802 -0.158206 0)
(0.0517808 -0.164264 0)
(0.0480635 -0.170143 0)
(0.0438172 -0.175801 0)
(0.0390458 -0.181199 0)
(0.033764 -0.186307 0)
(0.0279929 -0.191101 0)
(0.0217571 -0.195563 0)
(0.0150826 -0.199679 0)
(0.00799613 -0.203441 0)
(0.00052467 -0.206846 0)
(-0.00730575 -0.209893 0)
(-0.0154708 -0.212584 0)
(-0.0239481 -0.214925 0)
(-0.0327164 -0.216922 0)
(-0.0417555 -0.218584 0)
(-0.0510458 -0.21992 0)
(-0.0605681 -0.220942 0)
(-0.0703038 -0.221661 0)
(-0.0802339 -0.222089 0)
(-0.0903396 -0.222238 0)
(-0.100601 -0.22212 0)
(-0.110999 -0.221747 0)
(-0.12151 -0.221131 0)
(-0.132113 -0.220283 0)
(-0.142781 -0.219212 0)
(-0.153487 -0.217929 0)
(-0.164199 -0.216441 0)
(-0.17488 -0.214755 0)
(-0.185489 -0.212877 0)
(-0.195971 -0.210811 0)
(-0.206249 -0.208559 0)
(-0.216211 -0.206121 0)
(-0.225795 -0.203496 0)
(-0.235043 -0.200695 0)
(-0.24388 -0.197737 0)
(-0.250651 -0.194633 0)
(-0.251579 -0.190929 0)
(-0.245293 -0.186525 0)
(-0.235351 -0.181691 0)
(-0.224435 -0.176501 0)
(-0.212952 -0.170956 0)
(-0.200871 -0.165066 0)
(-0.188268 -0.158856 0)
(-0.175284 -0.152359 0)
(-0.16207 -0.145619 0)
(-0.148777 -0.138687 0)
(-0.135558 -0.13163 0)
(-0.122598 -0.124528 0)
(-0.110192 -0.117485 0)
(-0.0987486 -0.11063 0)
(-0.0887308 -0.104119 0)
(-0.0805814 -0.0981074 0)
(-0.0746239 -0.0927225 0)
(-0.0709516 -0.0880099 0)
(-0.0693725 -0.0839032 0)
(-0.0694701 -0.0802434 0)
(-0.0707448 -0.0768398 0)
(-0.0727446 -0.0735285 0)
(-0.0751271 -0.0701964 0)
(-0.0776622 -0.0667775 0)
(-0.0802085 -0.0632388 0)
(-0.0826853 -0.0595674 0)
(-0.0850471 -0.0557613 0)
(-0.0872681 -0.0518242 0)
(-0.0893327 -0.0477628 0)
(-0.0912308 -0.0435852 0)
(-0.0929551 -0.0393007 0)
(-0.0945002 -0.0349188 0)
(-0.0958615 -0.0304497 0)
(-0.0970355 -0.0259036 0)
(-0.0980195 -0.0212911 0)
(-0.0988102 -0.0166229 0)
(-0.0994016 -0.0119096 0)
(-0.0997879 -0.00716196 0)
(-0.0999868 -0.0023912 0)
(0.0999812 -0.00341525 0)
(0.0996976 -0.0102099 0)
(0.0991369 -0.0169491 0)
(0.0982825 -0.0236134 0)
(0.0971482 -0.0301847 0)
(0.0957471 -0.0366455 0)
(0.0940915 -0.0429798 0)
(0.0921972 -0.0491737 0)
(0.0900857 -0.0552158 0)
(0.0877857 -0.061099 0)
(0.085335 -0.0668213 0)
(0.0827812 -0.0723882 0)
(0.0801825 -0.077814 0)
(0.0776056 -0.0831239 0)
(0.0751205 -0.0883538 0)
(0.072792 -0.0935489 0)
(0.0706664 -0.0987582 0)
(0.0687589 -0.104028 0)
(0.0670432 -0.109391 0)
(0.0654497 -0.114864 0)
(0.0638735 -0.12044 0)
(0.0621902 -0.126095 0)
(0.0602746 -0.131786 0)
(0.0580161 -0.137467 0)
(0.0553289 -0.143087 0)
(0.052154 -0.148595 0)
(0.0484581 -0.153948 0)
(0.0442286 -0.159104 0)
(0.0394685 -0.16403 0)
(0.0341913 -0.168698 0)
(0.028417 -0.173086 0)
(0.0221692 -0.177177 0)
(0.0154731 -0.180959 0)
(0.00835482 -0.184423 0)
(0.000840446 -0.187566 0)
(-0.00704445 -0.190385 0)
(-0.015276 -0.192884 0)
(-0.0238323 -0.195065 0)
(-0.0326924 -0.196935 0)
(-0.0418362 -0.198499 0)
(-0.051244 -0.199766 0)
(-0.0608965 -0.200745 0)
(-0.0707744 -0.201446 0)
(-0.0808586 -0.201878 0)
(-0.0911292 -0.202051 0)
(-0.101566 -0.201976 0)
(-0.112147 -0.201662 0)
(-0.122849 -0.201118 0)
(-0.133647 -0.200355 0)
(-0.144515 -0.19938 0)
(-0.155421 -0.198201 0)
(-0.166332 -0.196825 0)
(-0.177209 -0.195258 0)
(-0.188005 -0.193505 0)
(-0.198666 -0.191569 0)
(-0.209107 -0.189453 0)
(-0.219217 -0.187157 0)
(-0.228944 -0.184681 0)
(-0.238356 -0.182036 0)
(-0.247293 -0.179235 0)
(-0.25362 -0.17631 0)
(-0.253693 -0.17276 0)
(-0.246805 -0.16859 0)
(-0.236663 -0.164048 0)
(-0.225592 -0.159199 0)
(-0.213916 -0.154044 0)
(-0.201625 -0.148593 0)
(-0.188816 -0.142871 0)
(-0.175637 -0.136909 0)
(-0.162245 -0.130747 0)
(-0.148797 -0.124436 0)
(-0.135448 -0.118032 0)
(-0.122397 -0.11161 0)
(-0.109955 -0.105263 0)
(-0.0985379 -0.099109 0)
(-0.0886104 -0.0932848 0)
(-0.0806031 -0.0879281 0)
(-0.0748151 -0.0831444 0)
(-0.0713068 -0.0789636 0)
(-0.0698566 -0.0753158 0)
(-0.0700326 -0.072053 0)
(-0.0713366 -0.0690053 0)
(-0.0733275 -0.0660305 0)
(-0.075676 -0.0630318 0)
(-0.078163 -0.0599536 0)
(-0.0806552 -0.0567684 0)
(-0.0830764 -0.0534653 0)
(-0.0853841 -0.050043 0)
(-0.0875538 -0.0465048 0)
(-0.0895707 -0.0428565 0)
(-0.0914253 -0.0391052 0)
(-0.0931105 -0.0352589 0)
(-0.0946208 -0.0313261 0)
(-0.0959518 -0.0273156 0)
(-0.0971 -0.0232365 0)
(-0.0980625 -0.0190983 0)
(-0.098836 -0.0149105 0)
(-0.0994146 -0.0106824 0)
(-0.0997925 -0.00642376 0)
(-0.0999871 -0.00214465 0)
(0.0999813 -0.0030507 0)
(0.0996991 -0.00912035 0)
(0.0991412 -0.0151406 0)
(0.098291 -0.0210945 0)
(0.0971621 -0.0269655 0)
(0.0957677 -0.0327382 0)
(0.09412 -0.0383983 0)
(0.0922347 -0.0439335 0)
(0.0901331 -0.0493336 0)
(0.0878439 -0.0545922 0)
(0.0854045 -0.0597076 0)
(0.0828625 -0.0646847 0)
(0.0802758 -0.0695364 0)
(0.0777108 -0.0742851 0)
(0.0752376 -0.078963 0)
(0.0729208 -0.0836104 0)
(0.0708071 -0.0882713 0)
(0.068912 -0.092987 0)
(0.0672096 -0.0977882 0)
(0.0656309 -0.102689 0)
(0.0640709 -0.107685 0)
(0.0624053 -0.112753 0)
(0.0605082 -0.117858 0)
(0.0582684 -0.122956 0)
(0.0555989 -0.128003 0)
(0.0524398 -0.132954 0)
(0.0487567 -0.137769 0)
(0.044536 -0.142412 0)
(0.0397797 -0.146853 0)
(0.0345004 -0.151066 0)
(0.0287175 -0.155031 0)
(0.0224537 -0.158732 0)
(0.0157338 -0.162159 0)
(0.00858308 -0.165303 0)
(0.0010273 -0.168161 0)
(-0.00690841 -0.170731 0)
(-0.0152006 -0.173013 0)
(-0.0238275 -0.175011 0)
(-0.0327684 -0.176729 0)
(-0.0420031 -0.178173 0)
(-0.0515117 -0.179348 0)
(-0.0612748 -0.180263 0)
(-0.0712727 -0.180925 0)
(-0.0814857 -0.181341 0)
(-0.0918931 -0.181522 0)
(-0.102473 -0.181474 0)
(-0.113204 -0.181206 0)
(-0.124061 -0.180727 0)
(-0.135017 -0.180043 0)
(-0.146044 -0.179161 0)
(-0.157109 -0.178089 0)
(-0.168177 -0.176831 0)
(-0.179205 -0.175394 0)
(-0.190147 -0.17378 0)
(-0.200943 -0.171994 0)
(-0.211505 -0.170037 0)
(-0.221722 -0.167909 0)
(-0.231555 -0.165612 0)
(-0.241081 -0.163154 0)
(-0.250073 -0.160545 0)
(-0.255958 -0.157845 0)
(-0.255263 -0.154534 0)
(-0.247869 -0.150682 0)
(-0.237573 -0.146504 0)
(-0.226385 -0.142057 0)
(-0.21456 -0.137345 0)
(-0.202109 -0.13238 0)
(-0.189142 -0.127186 0)
(-0.175815 -0.121792 0)
(-0.16229 -0.116234 0)
(-0.148726 -0.110557 0)
(-0.135283 -0.104815 0)
(-0.12217 -0.0990715 0)
(-0.109712 -0.0934116 0)
(-0.0983339 -0.0879407 0)
(-0.0884982 -0.0827791 0)
(-0.0806247 -0.0780464 0)
(-0.0749912 -0.0738305 0)
(-0.0716294 -0.0701495 0)
(-0.0702928 -0.0669335 0)
(-0.0705378 -0.0640477 0)
(-0.0718679 -0.0613425 0)
(-0.0738517 -0.0586948 0)
(-0.0761715 -0.0560225 0)
(-0.0786174 -0.0532786 0)
(-0.0810627 -0.05044 0)
(-0.0834353 -0.0474981 0)
(-0.0856951 -0.0444516 0)
(-0.0878191 -0.0413036 0)
(-0.0897932 -0.0380591 0)
(-0.0916082 -0.0347244 0)
(-0.0932573 -0.0313063 0)
(-0.0947354 -0.0278123 0)
(-0.096038 -0.0242501 0)
(-0.0971618 -0.0206277 0)