/*--------------------------------*- C++ -*----------------------------------*\
  =========                 |
  \\      /  F ield         | OpenFOAM: The Open Source CFD Toolbox
   \\    /   O peration     | Website:  https://openfoam.org
    \\  /    A nd           | Version:  8
     \\/     M anipulation  |
\*---------------------------------------------------------------------------*/
FoamFile
{
    version     2.0;
    format      ascii;
    class       volScalarField;
    location    "360/fluid";
    object      CH4;
}
// * * * * * * * * * * * * * * * * * * * * * * * * * * * * * * * * * * * * * //

dimensions      [0 0 0 0 0 0 0];

internalField   nonuniform List<scalar> 
4000
(
0.999997
0.999987
0.999971
0.999944
0.999898
0.999823
0.9997
0.999498
0.999172
0.998653
0.997836
0.996569
0.994644
0.991779
0.987622
0.981756
0.973736
0.963136
0.949609
0.932941
0.913062
0.890074
0.864208
0.835794
0.80521
0.772866
0.739172
0.704527
0.669307
0.633857
0.598489
0.563475
0.529051
0.495415
0.46273
0.431121
0.400685
0.371501
0.34362
0.317069
0.291858
0.26798
0.245419
0.224146
0.204127
0.185321
0.167681
0.151159
0.135705
0.121267
0.107794
0.0952367
0.0835459
0.0726752
0.0625811
0.0532233
0.0445654
0.0365763
0.029353
0.0227859
0.0166602
0.0111495
0.00627523
0.0031185
0.0021841
0.00150773
0.00102413
0.000683177
0.000446627
0.000285527
0.000178181
0.000108542
6.49537e-05
3.91762e-05
2.57117e-05
1.92741e-05
1.45269e-05
1.04555e-05
7.09064e-06
4.4874e-06
2.63573e-06
1.43877e-06
7.3554e-07
3.56731e-07
1.67263e-07
7.63875e-08
3.41597e-08
1.50164e-08
6.5084e-09
2.78778e-09
1.18236e-09
4.97303e-10
2.07679e-10
8.61677e-11
3.5504e-11
1.44844e-11
5.79664e-12
2.21522e-12
7.40219e-13
1.29872e-13
0.999997
0.999987
0.999971
0.999943
0.999897
0.99982
0.999694
0.999489
0.999157
0.998629
0.997798
0.996514
0.994567
0.991681
0.987506
0.981635
0.973631
0.963074
0.94962
0.933049
0.913305
0.890471
0.864758
0.836473
0.805989
0.77371
0.740047
0.7054
0.670148
0.634642
0.599197
0.564092
0.529566
0.49582
0.463017
0.431295
0.400762
0.371489
0.343523
0.316892
0.291608
0.267665
0.245047
0.223725
0.203665
0.184823
0.167155
0.15061
0.135139
0.120689
0.107208
0.0946469
0.0829552
0.0720864
0.0619963
0.0526441
0.0439928
0.0360103
0.0287975
0.0222463
0.0161377
0.0106466
0.00578203
0.00308476
0.00214842
0.00147479
0.000996108
0.000660691
0.000429411
0.000272881
0.000169265
0.000102544
6.11796e-05
3.70973e-05
2.49332e-05
1.87808e-05
1.39822e-05
9.9137e-06
6.61666e-06
4.12307e-06
2.39159e-06
1.29634e-06
6.62473e-07
3.22884e-07
1.52573e-07
7.03158e-08
3.17371e-08
1.40722e-08
6.14491e-09
2.64823e-09
1.1285e-09
4.76299e-10
1.9938e-10
8.28482e-11
3.41659e-11
1.3945e-11
5.58212e-12
2.13356e-12
7.13106e-13
1.25297e-13
0.999997
0.999987
0.99997
0.999942
0.999895
0.999817
0.999689
0.999479
0.999141
0.998604
0.99776
0.99646
0.994493
0.991584
0.987388
0.981502
0.973495
0.962954
0.949542
0.93304
0.913383
0.890648
0.86504
0.83686
0.80647
0.774265
0.740649
0.706021
0.670758
0.635213
0.599703
0.564513
0.529889
0.496043
0.463142
0.431317
0.400671
0.371282
0.343205
0.31647
0.291089
0.267058
0.244361
0.222969
0.202849
0.183957
0.166246
0.149669
0.134172
0.119704
0.106212
0.0936448
0.0819534
0.0710898
0.0610093
0.0516705
0.0430355
0.0350714
0.0279182
0.0214123
0.015328
0.00985572
0.00503483
0.00301271
0.00207378
0.00140903
0.000942921
0.000620056
0.000399706
0.000252001
0.000155153
9.343e-05
5.56603e-05
3.41983e-05
2.38797e-05
1.80084e-05
1.32476e-05
9.27288e-06
6.11351e-06
3.77034e-06
2.17181e-06
1.17384e-06
6.00406e-07
2.93536e-07
1.39293e-07
6.45006e-08
2.92546e-08
1.30326e-08
5.71561e-09
2.47258e-09
1.05699e-09
4.47236e-10
1.87559e-10
7.80329e-11
3.22032e-11
1.31481e-11
5.26327e-12
2.01145e-12
6.72281e-13
1.18282e-13
0.999997
0.999987
0.99997
0.999941
0.999894
0.999815
0.999685
0.999473
0.999132
0.99859
0.99774
0.996432
0.994456
0.991537
0.987331
0.981439
0.973433
0.962904
0.949513
0.933045
0.913427
0.890739
0.865185
0.837058
0.806713
0.774542
0.740943
0.706313
0.671031
0.635451
0.599897
0.564648
0.529951
0.496012
0.463003
0.431063
0.4003
0.370797
0.34261
0.31577
0.290292
0.266172
0.243394
0.221932
0.201751
0.182807
0.165055
0.148444
0.132923
0.118439
0.104939
0.0923714
0.0806864
0.069836
0.0597755
0.0504632
0.0418618
0.0339381
0.0268502
0.0203445
0.0142783
0.00882848
0.00405495
0.00279776
0.00191246
0.00129157
0.000859461
0.000562065
0.000360319
0.000225914
0.000138386
8.307e-05
4.96351e-05
3.11235e-05
2.24675e-05
1.69683e-05
1.23767e-05
8.57219e-06
5.58751e-06
3.40873e-06
1.94636e-06
1.04606e-06
5.33761e-07
2.611e-07
1.24154e-07
5.76578e-08
2.62393e-08
1.17315e-08
5.16393e-09
2.24196e-09
9.61672e-10
4.08168e-10
1.71645e-10
7.15798e-11
2.95974e-11
1.21028e-11
4.85042e-12
1.85511e-12
6.20419e-13
1.09368e-13
0.999997
0.999987
0.99997
0.999941
0.999893
0.999813
0.999682
0.999468
0.999124
0.998578
0.997723
0.996407
0.994421
0.991491
0.987274
0.981372
0.973359
0.962829
0.949447
0.932996
0.913405
0.890747
0.865219
0.837114
0.806787
0.774624
0.741025
0.706383
0.671075
0.635452
0.599833
0.564504
0.529715
0.495677
0.462564
0.430518
0.399649
0.370042
0.341755
0.314821
0.289254
0.265054
0.242205
0.22068
0.200445
0.181457
0.16367
0.147033
0.131494
0.117001
0.1035
0.0909393
0.0792688
0.0684406
0.0584103
0.0491372
0.0405857
0.0327664
0.0257492
0.0191844
0.0132605
0.00798809
0.00346812
0.00243214
0.00167965
0.00114108
0.000761493
0.000498317
0.000319159
0.00019974
0.000122142
7.3378e-05
4.42648e-05
2.86422e-05
2.12525e-05
1.60182e-05
1.15894e-05
7.94868e-06
5.12739e-06
3.09788e-06
1.7555e-06
9.38998e-07
4.78138e-07
2.33938e-07
1.11382e-07
5.18227e-08
2.3634e-08
1.05898e-08
4.6712e-09
2.03205e-09
8.73197e-10
3.71206e-10
1.56317e-10
6.52632e-11
2.7011e-11
1.10532e-11
4.43191e-12
1.6955e-12
5.67215e-13
1.0019e-13
0.999997
0.999987
0.999969
0.99994
0.999892
0.999812
0.99968
0.999465
0.999119
0.99857
0.997711
0.99639
0.994397
0.991459
0.987233
0.981321
0.973298
0.96276
0.949372
0.932918
0.913327
0.89067
0.865144
0.837038
0.806703
0.774524
0.740897
0.706216
0.670857
0.635172
0.599482
0.564075
0.529201
0.495073
0.461868
0.429727
0.398764
0.369067
0.340692
0.313676
0.288035
0.263767
0.240858
0.219282
0.199004
0.179983
0.16217
0.145517
0.12997
0.115477
0.101983
0.0894363
0.0777867
0.066986
0.0569894
0.0477564
0.0392515
0.0315437
0.0246208
0.0181336
0.0123169
0.00720333
0.00319343
0.00223127
0.00153589
0.00104017
0.000691902
0.000451206
0.000287928
0.000179557
0.000109533
6.59018e-05
4.02735e-05
2.70427e-05
2.03866e-05
1.527e-05
1.09404e-05
7.42094e-06
4.7322e-06
2.82855e-06
1.58879e-06
8.44477e-07
4.28341e-07
2.09283e-07
9.96284e-08
4.6386e-08
2.11806e-08
9.50547e-09
4.20035e-09
1.83059e-09
7.88061e-10
3.35593e-10
1.41544e-10
5.91774e-11
2.45209e-11
1.00435e-11
4.02956e-12
1.54211e-12
5.16105e-13
9.13754e-14
0.999997
0.999987
0.999969
0.99994
0.999891
0.999811
0.999678
0.999462
0.999115
0.998563
0.997701
0.996374
0.994376
0.991429
0.987192
0.981267
0.97323
0.962676
0.949271
0.932801
0.913192
0.890517
0.864969
0.836838
0.806473
0.774257
0.740587
0.705854
0.670436
0.634685
0.598924
0.563439
0.528484
0.494272
0.460982
0.428756
0.397712
0.367935
0.339486
0.312402
0.286699
0.262376
0.239421
0.217806
0.197498
0.178454
0.160627
0.143968
0.128422
0.113937
0.100458
0.0879332
0.0763109
0.0655426
0.0555828
0.0463899
0.0379273
0.0302737
0.0234004
0.0169696
0.011198
0.00609062
0.00311203
0.00214936
0.00146514
0.000983788
0.000649372
0.00042049
0.000266593
0.00016531
0.000100446
6.04777e-05
3.74704e-05
2.61422e-05
1.97749e-05
1.4667e-05
1.03907e-05
6.9658e-06
4.39091e-06
2.59755e-06
1.44712e-06
7.64789e-07
3.86564e-07
1.88622e-07
8.97643e-08
4.18068e-08
1.91035e-08
8.58155e-09
3.79626e-09
1.65641e-09
7.1391e-10
3.0436e-10
1.28506e-10
5.37767e-11
2.23007e-11
9.13959e-12
3.66821e-12
1.404e-12
4.70011e-13
8.3427e-14
0.999997
0.999987
0.999969
0.99994
0.999891
0.99981
0.999676
0.99946
0.999111
0.998557
0.997692
0.996361
0.994356
0.991401
0.987153
0.981213
0.973159
0.962584
0.949155
0.932658
0.913019
0.89031
0.864726
0.836554
0.806143
0.773877
0.740152
0.705359
0.669876
0.634055
0.59822
0.56266
0.527627
0.493338
0.459971
0.427671
0.396554
0.36671
0.3382
0.311059
0.285307
0.260942
0.237952
0.21631
0.195982
0.176927
0.159096
0.142439
0.126904
0.112435
0.0989785
0.0864817
0.0748927
0.0641624
0.0542446
0.0450974
0.0366887
0.0291244
0.0223157
0.0159303
0.0102013
0.00516571
0.00303556
0.00208114
0.00140813
0.000938703
0.000615365
0.000395893
0.000249495
0.000153902
9.31874e-05
5.61588e-05
3.52484e-05
2.52213e-05
1.91062e-05
1.40644e-05
9.87268e-06
6.55288e-06
4.08967e-06
2.39779e-06
1.32632e-06
6.97387e-07
3.51334e-07
1.712e-07
8.14314e-08
3.79276e-08
1.73381e-08
7.79368e-09
3.45056e-09
1.50694e-09
6.50106e-10
2.77418e-10
1.17234e-10
4.90986e-11
2.03742e-11
8.35413e-12
3.35381e-12
1.28373e-12
4.29851e-13
7.65109e-14
0.999997
0.999986
0.999969
0.999939
0.99989
0.999809
0.999675
0.999458
0.999108
0.998552
0.997684
0.996349
0.994338
0.991373
0.987113
0.981158
0.973083
0.962483
0.949025
0.932494
0.912817
0.890066
0.864435
0.836213
0.805748
0.773423
0.739636
0.704777
0.669226
0.633335
0.597427
0.561795
0.526689
0.492329
0.458892
0.426526
0.395348
0.365448
0.336886
0.309701
0.28391
0.259514
0.2365
0.214841
0.194504
0.175446
0.157619
0.140973
0.125455
0.111009
0.0975813
0.0851185
0.0735686
0.0628823
0.0530133
0.0439194
0.0355721
0.0280834
0.021293
0.0149481
0.00927329
0.00434481
0.00291889
0.00198331
0.00133308
0.000884071
0.000577046
0.000369844
0.000232317
0.000142951
8.65075e-05
5.23697e-05
3.34382e-05
2.44301e-05
1.84893e-05
1.3523e-05
9.41966e-06
6.19957e-06
3.83659e-06
2.23245e-06
1.22745e-06
6.42603e-07
3.22793e-07
1.57092e-07
7.46739e-08
3.47729e-08
1.58972e-08
7.148e-09
3.16602e-09
1.38339e-09
5.97143e-10
2.54967e-10
1.07808e-10
4.51743e-11
1.87538e-11
7.69193e-12
3.08826e-12
1.18204e-12
3.95877e-13
7.06678e-14
0.999997
0.999986
0.999969
0.999939
0.99989
0.999808
0.999674
0.999456
0.999105
0.998547
0.997676
0.996337
0.994319
0.991346
0.987073
0.981101
0.973004
0.962377
0.948886
0.932317
0.912596
0.889797
0.864114
0.835836
0.805312
0.772925
0.739072
0.704147
0.668527
0.632566
0.59659
0.560889
0.525717
0.491292
0.457794
0.425371
0.394141
0.364193
0.33559
0.30837
0.28255
0.258133
0.235103
0.213436
0.193097
0.174043
0.156227
0.139598
0.124101
0.109683
0.0962873
0.0838618
0.0723541
0.061715
0.0518989
0.0428643
0.0345728
0.02723
0.0203303
0.014092
0.00851529
0.00370069
0.00258639
0.00178175
0.00120898
0.000806986
0.000529077
0.000340136
0.000214139
0.000132064
8.02356e-05
4.90366e-05
3.20082e-05
2.37889e-05
1.79811e-05
1.30851e-05
9.05755e-06
5.91874e-06
3.63624e-06
2.10198e-06
1.14956e-06
5.99421e-07
3.00243e-07
1.45909e-07
6.92952e-08
3.22508e-08
1.47401e-08
6.62717e-09
2.93554e-09
1.28292e-09
5.53926e-10
2.36588e-10
1.0007e-10
4.19447e-11
1.74174e-11
7.14483e-12
2.86858e-12
1.09782e-12
3.67729e-13
6.58379e-14
0.999997
0.999986
0.999969
0.999939
0.99989
0.999808
0.999673
0.999454
0.999102
0.998543
0.997668
0.996325
0.994301
0.991319
0.987033
0.981044
0.972924
0.962268
0.948743
0.932132
0.912366
0.889517
0.863779
0.835443
0.804858
0.772408
0.738491
0.703499
0.667813
0.631786
0.595745
0.559981
0.524748
0.490266
0.456715
0.424243
0.392968
0.362982
0.334346
0.307099
0.28126
0.256828
0.23379
0.212121
0.191786
0.172741
0.15494
0.138331
0.122859
0.108469
0.0951071
0.0827188
0.071252
0.0606575
0.0508895
0.041907
0.033703
0.0264216
0.0195863
0.0134455
0.00800552
0.0033885
0.0023727
0.00163923
0.0011157
0.000746913
0.000490993
0.00031641
0.000199673
0.000123509
7.54329e-05
4.66456e-05
3.12137e-05
2.34838e-05
1.77096e-05
1.28197e-05
8.81593e-06
5.72117e-06
3.49086e-06
2.00543e-06
1.09114e-06
5.66707e-07
2.83008e-07
1.37297e-07
6.51236e-08
3.02817e-08
1.38311e-08
6.21577e-09
2.75257e-09
1.2028e-09
5.19318e-10
2.21818e-10
9.38311e-11
3.9334e-11
1.63347e-11
6.70082e-12
2.68997e-12
1.02926e-12
3.44799e-13
6.1923e-14
0.999997
0.999986
0.999969
0.999939
0.999889
0.999807
0.999672
0.999452
0.999099
0.998538
0.997661
0.996314
0.994284
0.991293
0.986994
0.980987
0.972845
0.96216
0.9486
0.931948
0.912136
0.889236
0.863444
0.83505
0.804405
0.771894
0.737914
0.70286
0.667111
0.631023
0.594923
0.559101
0.523815
0.489282
0.455685
0.423171
0.39186
0.361843
0.333181
0.305915
0.280061
0.255621
0.232581
0.210915
0.190587
0.171555
0.153772
0.137184
0.121737
0.107377
0.0940472
0.0816943
0.0702656
0.0597118
0.0499871
0.0410504
0.0329404
0.0257159
0.0189364
0.012858
0.00749063
0.0032285
0.00225934
0.00156057
0.00106228
0.000711426
0.000467952
0.000301825
0.00019072
0.000118245
7.25625e-05
4.53413e-05
3.09638e-05
2.34721e-05
1.76511e-05
1.27193e-05
8.69634e-06
5.60392e-06
3.39558e-06
1.93867e-06
1.04938e-06
5.42788e-07
2.70192e-07
1.30813e-07
6.19506e-08
2.87708e-08
1.31284e-08
5.89568e-09
2.60942e-09
1.13981e-09
4.91997e-10
2.10115e-10
8.88726e-11
3.72533e-11
1.54699e-11
6.34563e-12
2.54689e-12
9.74277e-13
3.26391e-13
5.88034e-14
0.999997
0.999986
0.999968
0.999939
0.999889
0.999807
0.999671
0.999451
0.999096
0.998534
0.997655
0.996303
0.994267
0.991267
0.986957
0.980933
0.972768
0.962056
0.948461
0.93177
0.911913
0.888964
0.86312
0.834672
0.80397
0.771401
0.737362
0.70225
0.666444
0.6303
0.594146
0.558274
0.522941
0.488364
0.454728
0.422179
0.390839
0.360797
0.332116
0.304835
0.278972
0.254528
0.231489
0.209829
0.189512
0.170495
0.152729
0.136163
0.120742
0.10641
0.0931109
0.0807907
0.0693966
0.0588786
0.0491905
0.0402903
0.0322161
0.0250278
0.0182797
0.0122247
0.00686403
0.00316783
0.00221266
0.00152632
0.0010381
0.000694941
0.000457095
0.00029494
0.000186555
0.000115903
7.14382e-05
4.50563e-05
3.13443e-05
2.38214e-05
1.78264e-05
1.27674e-05
8.67318e-06
5.55303e-06
3.34159e-06
1.89599e-06
1.02102e-06
5.25924e-07
2.60928e-07
1.26046e-07
5.9586e-08
2.76327e-08
1.25945e-08
5.65063e-09
2.49913e-09
1.09102e-09
4.70739e-10
2.00974e-10
8.4987e-11
3.56186e-11
1.4789e-11
6.06553e-12
2.43397e-12
9.3085e-13
3.11848e-13
5.63558e-14
0.999997
0.999986
0.999968
0.999939
0.999889
0.999806
0.99967
0.999449
0.999094
0.99853
0.997648
0.996293
0.994252
0.991244
0.986922
0.980882
0.972697
0.961958
0.948331
0.931604
0.911705
0.88871
0.862818
0.834319
0.803565
0.770943
0.736851
0.701687
0.665829
0.629637
0.593436
0.557519
0.522145
0.487532
0.453863
0.421285
0.389921
0.359859
0.331164
0.303873
0.278005
0.253561
0.230525
0.208872
0.188567
0.169565
0.151818
0.135273
0.119876
0.10557
0.0922997
0.0800097
0.0686471
0.0581617
0.0485068
0.0396409
0.031605
0.0244544
0.0177385
0.0117104
0.00637118
0.00314005
0.00219263
0.00151236
0.00102873
0.000688919
0.000453409
0.000292817
0.000185455
0.000115475
7.14792e-05
4.54946e-05
3.21843e-05
2.44345e-05
1.81787e-05
1.29355e-05
8.72705e-06
5.54888e-06
3.31851e-06
1.87178e-06
1.00295e-06
5.1455e-07
2.54451e-07
1.22636e-07
5.78659e-08
2.67937e-08
1.21966e-08
5.46642e-09
2.41563e-09
1.05386e-09
4.54468e-10
1.93949e-10
8.1991e-11
3.43548e-11
1.42616e-11
5.8484e-12
2.34649e-12
8.97161e-13
3.00566e-13
5.4471e-14
0.999997
0.999986
0.999968
0.999938
0.999888
0.999806
0.99967
0.999448
0.999092
0.998527
0.997643
0.996285
0.994238
0.991223
0.98689
0.980836
0.972632
0.961869
0.948214
0.931453
0.911517
0.888481
0.862545
0.834001
0.803201
0.770532
0.736394
0.701184
0.665282
0.629046
0.592805
0.556851
0.521443
0.486799
0.453102
0.420502
0.389118
0.359042
0.330336
0.303038
0.277168
0.252725
0.229694
0.20805
0.187756
0.168769
0.15104
0.134515
0.11914
0.104858
0.0916131
0.0793501
0.0680158
0.0575602
0.0479377
0.0391056
0.0311044
0.0239824
0.0172931
0.0112909
0.00597602
0.00311618
0.00217944
0.00150553
0.00102561
0.000687855
0.000453423
0.00029335
0.000186193
0.000116266
7.22788e-05
4.63229e-05
3.30763e-05
2.51038e-05
1.85947e-05
1.31613e-05
8.82735e-06
5.57832e-06
3.31644e-06
1.86142e-06
9.92916e-07
5.07458e-07
2.50167e-07
1.20305e-07
5.66609e-08
2.61951e-08
1.19086e-08
5.33162e-09
2.35397e-09
1.02622e-09
4.42293e-10
1.88669e-10
7.97311e-11
3.33993e-11
1.38628e-11
5.68418e-12
2.28025e-12
8.71615e-13
2.92011e-13
5.30553e-14
0.999997
0.999986
0.999968
0.999938
0.999888
0.999805
0.999669
0.999447
0.99909
0.998524
0.997638
0.996277
0.994226
0.991204
0.986863
0.980797
0.972576
0.961793
0.948113
0.931323
0.911354
0.888283
0.86231
0.833727
0.802887
0.770178
0.736
0.700751
0.664812
0.628541
0.592266
0.556282
0.520845
0.486176
0.452458
0.419839
0.38844
0.358353
0.329639
0.302337
0.276466
0.252025
0.229
0.207364
0.187082
0.168108
0.150394
0.133887
0.118532
0.104271
0.0910483
0.0788091
0.0675004
0.0570718
0.0474748
0.0386648
0.0306886
0.0235894
0.0169226
0.0109425
0.00565377
0.00309618
0.00217042
0.00150273
0.00102604
0.000689757
0.000455792
0.000295656
0.000188206
0.000117933
7.3645e-05
4.74897e-05
3.4133e-05
2.5869e-05
1.90807e-05
1.34394e-05
8.96598e-06
5.63479e-06
3.33214e-06
1.86121e-06
9.8902e-07
5.0378e-07
2.47624e-07
1.18833e-07
5.58678e-08
2.57893e-08
1.17092e-08
5.2367e-09
2.31002e-09
1.00634e-09
4.33477e-10
1.84829e-10
7.80855e-11
3.27036e-11
1.35719e-11
5.56409e-12
2.23171e-12
8.52854e-13
2.85724e-13
5.20283e-14
0.999997
0.999986
0.999968
0.999938
0.999888
0.999805
0.999668
0.999446
0.999089
0.998521
0.997634
0.99627
0.994216
0.991189
0.98684
0.980764
0.97253
0.96173
0.948029
0.931215
0.91122
0.88812
0.862116
0.833501
0.802629
0.769888
0.735678
0.700398
0.664428
0.628129
0.591827
0.555818
0.520359
0.485671
0.451935
0.419302
0.387893
0.357797
0.329078
0.301774
0.275903
0.251464
0.228445
0.206817
0.186544
0.167582
0.149881
0.133389
0.11805
0.103807
0.0906038
0.0783852
0.0670969
0.0566863
0.0471061
0.038315
0.0303635
0.0232838
0.0166347
0.0106703
0.00541016
0.00308027
0.00216514
0.00150318
0.00102924
0.000693907
0.000459917
0.000299286
0.000191181
0.000120269
7.5456e-05
4.893e-05
3.53215e-05
2.67117e-05
1.96213e-05
1.37572e-05
9.13345e-06
5.71161e-06
3.36146e-06
1.86945e-06
9.89647e-07
5.02581e-07
2.46409e-07
1.18017e-07
5.53916e-08
2.55333e-08
1.15792e-08
5.17359e-09
2.28043e-09
9.92858e-10
4.27475e-10
1.82205e-10
7.69547e-11
3.22226e-11
1.33697e-11
5.48029e-12
2.19772e-12
8.39671e-13
2.81301e-13
5.13167e-14
0.999997
0.999986
0.999968
0.999938
0.999888
0.999805
0.999668
0.999445
0.999088
0.998519
0.997631
0.996266
0.994209
0.991178
0.986823
0.980739
0.972495
0.961681
0.947965
0.931133
0.911118
0.887996
0.861969
0.833329
0.802433
0.769667
0.735433
0.700128
0.664136
0.627815
0.591494
0.555466
0.519991
0.485288
0.45154
0.418897
0.38748
0.357378
0.328655
0.30135
0.275479
0.251044
0.228029
0.206407
0.186142
0.167189
0.1495
0.13302
0.117694
0.103465
0.0902764
0.0780712
0.0667956
0.0563997
0.0468356
0.0380604
0.0301275
0.0230626
0.0164266
0.0104734
0.00523341
0.00306798
0.00216314
0.00150645
0.00103473
0.000699862
0.000465417
0.00030393
0.000194879
0.000123101
7.75804e-05
5.05358e-05
3.6566e-05
2.75779e-05
2.01774e-05
1.40875e-05
9.31208e-06
5.79805e-06
3.39822e-06
1.88279e-06
9.93418e-07
5.03068e-07
2.46105e-07
1.17674e-07
5.51554e-08
2.53959e-08
1.15062e-08
5.13693e-09
2.26278e-09
9.84636e-10
4.23743e-10
1.80548e-10
7.62322e-11
3.19122e-11
1.32383e-11
5.42549e-12
2.17539e-12
8.30966e-13
2.78374e-13
5.0854e-14
0.999997
0.999986
0.999968
0.999938
0.999888
0.999805
0.999668
0.999445
0.999087
0.998518
0.997629
0.996262
0.994204
0.99117
0.986812
0.980722
0.972471
0.961649
0.947922
0.931078
0.911049
0.887912
0.861869
0.833214
0.802301
0.769518
0.735268
0.699948
0.66394
0.627605
0.59127
0.55523
0.519744
0.485032
0.451276
0.418627
0.387204
0.357099
0.328374
0.301068
0.275198
0.250765
0.227753
0.206136
0.185876
0.16693
0.149248
0.132777
0.117459
0.103239
0.0900588
0.0778635
0.066599
0.0562141
0.0466613
0.0378971
0.0299768
0.0229219
0.0162942
0.010347
0.00511762
0.00305965
0.00216423
0.00151203
0.00104186
0.000706954
0.000471681
0.000309075
0.000198894
0.000126118
7.97928e-05
5.21449e-05
3.77373e-05
2.83691e-05
2.06776e-05
1.43827e-05
9.47235e-06
5.87706e-06
3.43323e-06
1.89654e-06
9.98059e-07
5.04283e-07
2.46327e-07
1.17632e-07
5.50785e-08
2.53385e-08
1.14718e-08
5.11847e-09
2.25349e-09
9.80169e-10
4.2167e-10
1.79611e-10
7.58181e-11
3.17325e-11
1.31615e-11
5.39325e-12
2.16218e-12
8.25788e-13
2.76629e-13
5.05826e-14
0.999997
0.999986
0.999968
0.999938
0.999888
0.999804
0.999668
0.999445
0.999086
0.998517
0.997628
0.996261
0.994201
0.991166
0.986806
0.980714
0.97246
0.961634
0.947902
0.931052
0.911016
0.887872
0.861821
0.833158
0.802236
0.769446
0.735187
0.699859
0.663844
0.627501
0.59116
0.555114
0.519622
0.484905
0.451145
0.418493
0.387067
0.35696
0.328235
0.300928
0.275059
0.250627
0.227617
0.206001
0.185745
0.166802
0.149124
0.132656
0.117343
0.103127
0.0899527
0.077763
0.0665043
0.0561254
0.0465786
0.0378203
0.0299067
0.0228569
0.016233
0.0102877
0.0050606
0.00305553
0.00216742
0.00151817
0.00104866
0.000713263
0.00047703
0.000313349
0.000202162
0.000128532
8.15269e-05
5.33574e-05
3.85499e-05
2.88873e-05
2.09928e-05
1.45636e-05
9.56883e-06
5.92427e-06
3.45428e-06
1.90502e-06
1.00109e-06
5.05199e-07
2.46576e-07
1.17672e-07
5.50658e-08
2.53207e-08
1.14592e-08
5.11114e-09
2.24964e-09
9.78266e-10
4.2077e-10
1.79199e-10
7.5634e-11
3.16519e-11
1.31268e-11
5.37861e-12
2.15615e-12
8.23416e-13
2.75827e-13
5.04588e-14
0.999997
0.999986
0.999968
0.999938
0.999888
0.999804
0.999668
0.999445
0.999086
0.998517
0.997628
0.996261
0.994201
0.991166
0.986806
0.980714
0.972459
0.961633
0.947901
0.931051
0.911015
0.887871
0.86182
0.833156
0.802235
0.769444
0.735185
0.699857
0.663842
0.6275
0.591158
0.555112
0.519621
0.484904
0.451144
0.418491
0.387066
0.356959
0.328233
0.300927
0.275058
0.250625
0.227615
0.206
0.185744
0.166801
0.149123
0.132655
0.117342
0.103127
0.089952
0.0777623
0.0665037
0.0561248
0.046578
0.0378198
0.0299063
0.0228565
0.0162327
0.0102874
0.00506036
0.00305551
0.0021674
0.00151816
0.00104865
0.000713257
0.000477025
0.000313345
0.000202159
0.00012853
8.15256e-05
5.33566e-05
3.85494e-05
2.8887e-05
2.09925e-05
1.45634e-05
9.56869e-06
5.92418e-06
3.45422e-06
1.90499e-06
1.00107e-06
5.0519e-07
2.46572e-07
1.1767e-07
5.50648e-08
2.53202e-08
1.1459e-08
5.11105e-09
2.2496e-09
9.78249e-10
4.20763e-10
1.79196e-10
7.56327e-11
3.16513e-11
1.31266e-11
5.37852e-12
2.15611e-12
8.23402e-13
2.75822e-13
5.04579e-14
0.999997
0.999986
0.999968
0.999938
0.999888
0.999804
0.999668
0.999445
0.999087
0.998518
0.997629
0.996262
0.994203
0.99117
0.986811
0.980721
0.97247
0.961648
0.947921
0.931076
0.911046
0.887909
0.861866
0.83321
0.802296
0.769514
0.735263
0.699943
0.663935
0.6276
0.591265
0.555225
0.519739
0.485027
0.451271
0.418622
0.387199
0.357094
0.32837
0.301064
0.275194
0.250761
0.22775
0.206132
0.185873
0.166927
0.149246
0.132774
0.117457
0.103237
0.0900567
0.0778615
0.0665972
0.0562124
0.0466597
0.0378957
0.0299755
0.0229207
0.0162931
0.0103461
0.00511687
0.0030596
0.00216419
0.001512
0.00104184
0.000706936
0.000471667
0.000309065
0.000198887
0.000126113
7.97893e-05
5.21428e-05
3.77363e-05
2.83683e-05
2.0677e-05
1.43822e-05
9.47198e-06
5.8768e-06
3.43306e-06
1.89644e-06
9.98006e-07
5.04256e-07
2.46313e-07
1.17626e-07
5.50755e-08
2.53372e-08
1.14712e-08
5.1182e-09
2.25337e-09
9.80118e-10
4.21648e-10
1.79602e-10
7.58141e-11
3.17308e-11
1.31608e-11
5.39297e-12
2.16207e-12
8.25745e-13
2.76612e-13
5.0579e-14
0.999997
0.999986
0.999968
0.999938
0.999888
0.999805
0.999668
0.999445
0.999087
0.998519
0.997631
0.996265
0.994208
0.991177
0.986822
0.980737
0.972493
0.961679
0.947962
0.931129
0.911113
0.887991
0.861963
0.833323
0.802425
0.769659
0.735425
0.70012
0.664128
0.627807
0.591485
0.555458
0.519983
0.48528
0.451532
0.418889
0.387472
0.35737
0.328648
0.301343
0.275473
0.251038
0.228023
0.206401
0.186136
0.167184
0.149495
0.133015
0.11769
0.103461
0.0902728
0.0780678
0.0667925
0.0563968
0.046833
0.038058
0.0301253
0.0230607
0.0164249
0.0104718
0.00523213
0.0030679
0.00216307
0.0015064
0.00103469
0.000699833
0.000465396
0.000303915
0.000194868
0.000123093
7.75753e-05
5.05329e-05
3.65647e-05
2.75769e-05
2.01765e-05
1.40868e-05
9.31155e-06
5.79767e-06
3.39797e-06
1.88264e-06
9.93334e-07
5.03025e-07
2.46083e-07
1.17664e-07
5.51505e-08
2.53936e-08
1.15051e-08
5.13647e-09
2.26258e-09
9.84546e-10
4.23705e-10
1.80532e-10
7.62253e-11
3.19094e-11
1.32371e-11
5.425e-12
2.1752e-12
8.30891e-13
2.78346e-13
5.0848e-14
0.999997
0.999986
0.999968
0.999938
0.999888
0.999805
0.999668
0.999446
0.999089
0.998521
0.997634
0.99627
0.994216
0.991188
0.986839
0.980762
0.972527
0.961726
0.948025
0.93121
0.911214
0.888113
0.862108
0.833492
0.802619
0.769877
0.735667
0.700386
0.664416
0.628116
0.591815
0.555806
0.520347
0.485659
0.451924
0.419291
0.387882
0.357786
0.329067
0.301764
0.275893
0.251455
0.228436
0.206808
0.186536
0.167574
0.149874
0.133383
0.118044
0.103801
0.0905987
0.0783805
0.0670925
0.0566822
0.0471024
0.0383116
0.0303605
0.0232811
0.0166323
0.0106681
0.00540835
0.00308016
0.00216504
0.00150311
0.00102918
0.00069387
0.00045989
0.000299266
0.000191167
0.00012026
7.54497e-05
4.89265e-05
3.53201e-05
2.67106e-05
1.96204e-05
1.37564e-05
9.13279e-06
5.71113e-06
3.36114e-06
1.86925e-06
9.89534e-07
5.02521e-07
2.46379e-07
1.18003e-07
5.53846e-08
2.55301e-08
1.15777e-08
5.17293e-09
2.28014e-09
9.9273e-10
4.27419e-10
1.82181e-10
7.69447e-11
3.22184e-11
1.33679e-11
5.47958e-12
2.19744e-12
8.39562e-13
2.8126e-13
5.1308e-14
0.999997
0.999986
0.999968
0.999938
0.999888
0.999805
0.999669
0.999447
0.99909
0.998523
0.997638
0.996276
0.994225
0.991203
0.986861
0.980794
0.972573
0.961789
0.948107
0.931316
0.911346
0.888274
0.862299
0.833715
0.802874
0.770164
0.735986
0.700736
0.664796
0.628525
0.59225
0.556266
0.520829
0.48616
0.452442
0.419824
0.388426
0.358339
0.329625
0.302324
0.276454
0.252013
0.228989
0.207354
0.187072
0.168098
0.150385
0.133879
0.118524
0.104264
0.0910416
0.0788029
0.0674947
0.0570666
0.04747
0.0386604
0.0306847
0.0235858
0.0169194
0.0109395
0.00565131
0.00309605
0.00217031
0.00150264
0.00102597
0.000689708
0.000455758
0.000295632
0.000188189
0.000117921
7.36379e-05
4.74859e-05
3.41318e-05
2.58682e-05
1.90798e-05
1.34386e-05
8.9653e-06
5.63425e-06
3.33176e-06
1.86097e-06
9.88881e-07
5.03705e-07
2.47586e-07
1.18814e-07
5.58587e-08
2.57851e-08
1.17072e-08
5.23582e-09
2.30963e-09
1.00617e-09
4.33403e-10
1.84797e-10
7.8072e-11
3.26979e-11
1.35695e-11
5.56313e-12
2.23133e-12
8.52705e-13
2.85669e-13
5.20167e-14
0.999997
0.999986
0.999968
0.999938
0.999888
0.999806
0.999669
0.999448
0.999092
0.998526
0.997642
0.996284
0.994237
0.991221
0.986888
0.980833
0.972628
0.961864
0.948208
0.931445
0.911507
0.88847
0.862533
0.833987
0.803185
0.770515
0.736376
0.701165
0.665263
0.629027
0.592785
0.556832
0.521423
0.48678
0.453084
0.420484
0.3891
0.359025
0.330319
0.303023
0.277153
0.25271
0.22968
0.208037
0.187744
0.168757
0.151029
0.134505
0.11913
0.104849
0.0916048
0.0793425
0.0680087
0.0575537
0.0479318
0.0391002
0.0310996
0.023978
0.0172891
0.0112873
0.00597285
0.00311601
0.00217928
0.0015054
0.00102551
0.000687782
0.000453372
0.000293315
0.00018617
0.000116251
7.22697e-05
4.63183e-05
3.30752e-05
2.51032e-05
1.8594e-05
1.31606e-05
8.82666e-06
5.57774e-06
3.31601e-06
1.86115e-06
9.92752e-07
5.07367e-07
2.5012e-07
1.20281e-07
5.66497e-08
2.61898e-08
1.19062e-08
5.3305e-09
2.35347e-09
1.026e-09
4.42198e-10
1.88628e-10
7.97136e-11
3.33919e-11
1.38597e-11
5.68293e-12
2.27975e-12
8.7142e-13
2.9194e-13
5.30405e-14
0.999997
0.999986
0.999968
0.999938
0.999889
0.999806
0.99967
0.999449
0.999094
0.99853
0.997648
0.996293
0.994251
0.991242
0.986919
0.980879
0.972692
0.961952
0.948324
0.931594
0.911693
0.888697
0.862803
0.834302
0.803546
0.770923
0.73683
0.701665
0.665807
0.629614
0.593412
0.557496
0.522122
0.487509
0.45384
0.421263
0.389899
0.359839
0.331144
0.303854
0.277987
0.253543
0.230509
0.208857
0.188552
0.169551
0.151805
0.135261
0.119865
0.10556
0.0922898
0.0800005
0.0686386
0.0581538
0.0484995
0.0396342
0.0315989
0.0244488
0.0177335
0.0117061
0.00636742
0.00313982
0.00219244
0.00151219
0.0010286
0.000688812
0.000453331
0.000292763
0.000185419
0.000115452
7.14661e-05
4.54881e-05
3.21827e-05
2.44339e-05
1.81781e-05
1.29348e-05
8.7263e-06
5.54821e-06
3.31801e-06
1.87145e-06
1.00275e-06
5.14441e-07
2.54394e-07
1.22608e-07
5.7852e-08
2.67871e-08
1.21935e-08
5.46501e-09
2.415e-09
1.05358e-09
4.54346e-10
1.93897e-10
8.19685e-11
3.43453e-11
1.42576e-11
5.84678e-12
2.34584e-12
8.96909e-13
3.00474e-13
5.44524e-14
0.999997
0.999986
0.999968
0.999939
0.999889
0.999806
0.999671
0.999451
0.999096
0.998534
0.997654
0.996302
0.994266
0.991266
0.986954
0.980929
0.972763
0.962049
0.948452
0.931759
0.9119
0.888949
0.863102
0.834652
0.803948
0.771378
0.737338
0.702225
0.666418
0.630274
0.594119
0.558247
0.522914
0.488338
0.454702
0.422154
0.390814
0.360773
0.332093
0.304813
0.278951
0.254508
0.23147
0.209811
0.189494
0.170478
0.152714
0.136149
0.120729
0.106397
0.0930993
0.08078
0.0693866
0.0588694
0.0491819
0.0402824
0.0322088
0.0250211
0.0182737
0.0122193
0.00685899
0.0031676
0.00221246
0.00152614
0.00103793
0.000694799
0.000456984
0.00029486
0.000186501
0.000115869
7.14174e-05
4.50458e-05
3.13417e-05
2.38202e-05
1.78253e-05
1.27663e-05
8.67211e-06
5.55216e-06
3.34096e-06
1.89557e-06
1.02077e-06
5.25787e-07
2.60856e-07
1.2601e-07
5.95683e-08
2.76243e-08
1.25905e-08
5.64883e-09
2.49832e-09
1.09066e-09
4.70582e-10
2.00907e-10
8.49581e-11
3.56064e-11
1.47839e-11
6.06342e-12
2.43312e-12
9.30522e-13
3.1173e-13
5.63323e-14
0.999997
0.999986
0.999969
0.999939
0.999889
0.999807
0.999672
0.999452
0.999099
0.998538
0.997661
0.996313
0.994282
0.991291
0.986991
0.980983
0.972839
0.962152
0.948589
0.931936
0.912121
0.889218
0.863424
0.835028
0.804381
0.771868
0.737886
0.702831
0.667081
0.630993
0.594892
0.55907
0.523784
0.489251
0.455655
0.423142
0.391831
0.361815
0.333155
0.305889
0.280037
0.255598
0.232559
0.210893
0.190567
0.171537
0.153754
0.137167
0.121722
0.107362
0.0940339
0.081682
0.0702543
0.0597014
0.0499775
0.0410416
0.0329325
0.0257086
0.0189299
0.0128519
0.00748453
0.00322774
0.00225879
0.00156016
0.00106197
0.000711193
0.000467785
0.00030171
0.000190644
0.000118197
7.25341e-05
4.53261e-05
3.09579e-05
2.34688e-05
1.76484e-05
1.27171e-05
8.6946e-06
5.60261e-06
3.39467e-06
1.93809e-06
1.04905e-06
5.42603e-07
2.70097e-07
1.30766e-07
6.19272e-08
2.87597e-08
1.31233e-08
5.89333e-09
2.60836e-09
1.13934e-09
4.91793e-10
2.10027e-10
8.88349e-11