/*--------------------------------*- C++ -*----------------------------------*\
  =========                 |
  \\      /  F ield         | OpenFOAM: The Open Source CFD Toolbox
   \\    /   O peration     | Website:  https://openfoam.org
    \\  /    A nd           | Version:  8
     \\/     M anipulation  |
\*---------------------------------------------------------------------------*/
FoamFile
{
    version     2.0;
    format      ascii;
    class       volScalarField;
    location    "360/fluid";
    object      CO2;
}
// * * * * * * * * * * * * * * * * * * * * * * * * * * * * * * * * * * * * * //

dimensions      [0 0 0 0 0 0 0];

internalField   nonuniform List<scalar> 
4000
(
4.30416e-07
1.88011e-06
4.31453e-06
8.38752e-06
1.51703e-05
2.6401e-05
4.48664e-05
7.49736e-05
0.000123577
0.00020113
0.000323194
0.000512275
0.00079977
0.00122755
0.00184841
0.00272434
0.00392192
0.00550478
0.00752461
0.0100135
0.0129818
0.0164143
0.0202765
0.0245192
0.0290858
0.0339155
0.0389467
0.04412
0.0493793
0.0546732
0.0599553
0.0651847
0.0703264
0.0753508
0.0802336
0.084956
0.0895035
0.0938641
0.0980299
0.101997
0.105762
0.109327
0.112694
0.115865
0.118845
0.121639
0.124253
0.12669
0.128957
0.131057
0.132993
0.134766
0.136376
0.137819
0.139087
0.140169
0.141047
0.141693
0.142064
0.14212
0.141789
0.14097
0.139527
0.134456
0.123776
0.112968
0.102198
0.0915984
0.0812736
0.0713102
0.0617799
0.0527441
0.0442582
0.0363748
0.0291687
0.0226536
0.0169236
0.0120451
0.00808002
0.0050589
0.00293996
0.00158811
0.000803635
0.000385951
0.0001793
8.11825e-05
3.60151e-05
1.57158e-05
6.76564e-06
2.88015e-06
1.21472e-06
5.08344e-07
2.11336e-07
8.7336e-08
3.58607e-08
1.45868e-08
5.82359e-09
2.22145e-09
7.41394e-10
1.30002e-10
4.35041e-07
1.90115e-06
4.36641e-06
8.49778e-06
1.53892e-05
2.68161e-05
4.56239e-05
7.63052e-05
0.000125828
0.000204779
0.00032884
0.000520562
0.000811212
0.00124226
0.00186569
0.00274236
0.00393757
0.00551394
0.007523
0.00999748
0.0129456
0.016355
0.0201943
0.0244177
0.0289695
0.0337894
0.038816
0.0439897
0.0492538
0.0545562
0.0598497
0.0650929
0.0702498
0.0752909
0.0801913
0.0849307
0.0894928
0.0938668
0.0980453
0.102024
0.1058
0.109374
0.112749
0.115927
0.118913
0.121712
0.124328
0.126768
0.129036
0.131136
0.133072
0.134843
0.136451
0.13789
0.139155
0.140232
0.141105
0.141746
0.142112
0.142165
0.141833
0.141016
0.139585
0.133207
0.122512
0.111681
0.100884
0.090257
0.0799097
0.0699306
0.0603934
0.0513625
0.0428966
0.0350535
0.0278873
0.0214635
0.0158559
0.0111345
0.0073572
0.00453721
0.00260427
0.00139705
0.000706855
0.000341297
0.000159887
7.31061e-05
3.27598e-05
1.4431e-05
6.26448e-06
2.68546e-06
1.13896e-06
4.78703e-07
1.99656e-07
8.27037e-08
3.40172e-08
1.38551e-08
5.5373e-09
2.11411e-09
7.06165e-10
1.24048e-10
4.42051e-07
1.93234e-06
4.44044e-06
8.64762e-06
1.56711e-05
2.73227e-05
4.65014e-05
7.77746e-05
0.000128207
0.000208496
0.000334431
0.000528623
0.000822293
0.00125666
0.00188325
0.00276221
0.00395786
0.0055318
0.00753461
0.00999867
0.0129339
0.0163286
0.0201524
0.0243601
0.0288978
0.0337067
0.0387263
0.0438973
0.0491632
0.0544715
0.0597749
0.0650308
0.0702025
0.0752585
0.0801737
0.0849285
0.0895076
0.0938986
0.0980934
0.102087
0.105878
0.109465
0.11285
0.116038
0.119032
0.121837
0.124459
0.126902
0.129171
0.131272
0.133205
0.134973
0.136576
0.138008
0.139263
0.14033
0.141189
0.141815
0.142163
0.142198
0.141847
0.141008
0.13954
0.131211
0.120512
0.109654
0.0988289
0.0881849
0.0778363
0.0678748
0.0583769
0.0494089
0.0410319
0.0333255
0.0263058
0.0200656
0.0146737
0.010192
0.00666193
0.00407084
0.00232262
0.00124341
0.000630073
0.000305293
0.000143659
6.60044e-05
2.97216e-05
1.31536e-05
5.73421e-06
2.46729e-06
1.04969e-06
4.42283e-07
1.84811e-07
7.66557e-08
3.15566e-08
1.28595e-08
5.14077e-09
1.96299e-09
6.55824e-10
1.15375e-10
4.47801e-07
1.95747e-06
4.49818e-06
8.75976e-06
1.58725e-05
2.76674e-05
4.70698e-05
7.86815e-05
0.000129608
0.000210589
0.000337448
0.000532809
0.00082786
0.00126371
0.00189167
0.00277147
0.00396698
0.00553931
0.00753879
0.00999792
0.0129273
0.0163152
0.020131
0.024331
0.028862
0.0336661
0.0386833
0.0438546
0.0491235
0.0544371
0.0597474
0.0650123
0.0701952
0.0752653
0.0801967
0.0849688
0.0895651
0.093973
0.098184
0.102193
0.105997
0.109597
0.112994
0.116192
0.119194
0.122005
0.124631
0.127076
0.129347
0.131445
0.133375
0.135137
0.136731
0.138151
0.139389
0.140434
0.141265
0.141857
0.142165
0.142162
0.141779
0.140944
0.139595
0.129136
0.118299
0.107345
0.0964659
0.0858046
0.075473
0.0655603
0.0561411
0.0472807
0.0390394
0.031511
0.0246803
0.0186564
0.0135016
0.00926901
0.00598482
0.00361515
0.00204352
0.00108739
0.000549544
0.000266387
0.000125604
5.78808e-05
2.61551e-05
1.16191e-05
5.08495e-06
2.1963e-06
9.37791e-07
3.96449e-07
1.6615e-07
6.90912e-08
2.85034e-08
1.16354e-08
4.65759e-09
1.78016e-09
5.95193e-10
1.04918e-10
4.52341e-07
1.97725e-06
4.54338e-06
8.84708e-06
1.60289e-05
2.79353e-05
4.75144e-05
7.93997e-05
0.000130738
0.00021232
0.00034002
0.000536506
0.000832972
0.00127048
0.00190016
0.00278151
0.00397803
0.00555044
0.00754872
0.0100052
0.0129306
0.0163141
0.0201261
0.0243228
0.0288515
0.0336543
0.0386718
0.0438452
0.0491183
0.0544388
0.059759
0.065036
0.0702327
0.0753175
0.0802644
0.0850523
0.0896642
0.0940875
0.0983132
0.102336
0.106153
0.109764
0.113171
0.116377
0.119385
0.122202
0.124831
0.127278
0.129547
0.131643
0.133567
0.13532
0.136901
0.138303
0.139518
0.140529
0.141314
0.141835
0.142045
0.141891
0.141278
0.140088
0.138195
0.127224
0.116094
0.104979
0.0940248
0.0833503
0.0730525
0.0632119
0.0538977
0.0451715
0.0370909
0.0297422
0.0231202
0.0173254
0.0124132
0.00842806
0.00538077
0.00321727
0.00180447
0.000955637
0.000482042
0.000233776
0.000110403
5.09859e-05
2.3095e-05
1.02848e-05
4.51159e-06
1.95292e-06
8.35535e-07
3.53847e-07
1.48525e-07
6.18433e-08
2.5541e-08
1.04351e-08
4.17967e-09
1.59809e-09
5.34527e-10
9.44167e-11
4.55739e-07
1.992e-06
4.57685e-06
8.91116e-06
1.61425e-05
2.81277e-05
4.78303e-05
7.99046e-05
0.000131526
0.000213516
0.000341789
0.000539045
0.000836503
0.00127522
0.00190629
0.00278912
0.00398708
0.00556072
0.00755991
0.0100169
0.0129424
0.0163257
0.0201375
0.0243347
0.0288647
0.0336703
0.038692
0.0438715
0.0491523
0.0544821
0.0598128
0.0651016
0.0703111
0.0754094
0.0803702
0.0851722
0.0897981
0.0942348
0.0984733
0.102508
0.106336
0.109956
0.113371
0.116584
0.119597
0.122416
0.125047
0.127493
0.12976
0.131851
0.133769
0.135512
0.13708
0.138465
0.139657
0.140637
0.141379
0.141839
0.141967
0.141685
0.140867
0.13933
0.136084
0.124943
0.113699
0.102526
0.0915627
0.0809197
0.0706881
0.0609443
0.0517544
0.0431777
0.0352707
0.0280856
0.0216777
0.0161084
0.0114291
0.00767608
0.0048462
0.00286789
0.00159518
0.00083992
0.000422244
0.000204587
9.6644e-05
4.46786e-05
2.02694e-05
9.0432e-06
3.97497e-06
1.7242e-06
7.39173e-07
3.13638e-07
1.31878e-07
5.49971e-08
2.27435e-08
9.30191e-09
3.72853e-09
1.42622e-09
4.77262e-10
8.4501e-11
4.58414e-07
2.00362e-06
4.60324e-06
8.96178e-06
1.62325e-05
2.8281e-05
4.80842e-05
8.03152e-05
0.000132175
0.000214522
0.000343312
0.000541294
0.000839736
0.00127973
0.0019124
0.00279713
0.00399723
0.0055732
0.00757482
0.0100343
0.0129625
0.0163487
0.0201637
0.0243647
0.0288994
0.0337105
0.038739
0.0439262
0.049216
0.0545557
0.0598973
0.0651977
0.0704195
0.0755304
0.0805039
0.0853185
0.0899566
0.0944049
0.0986543
0.102699
0.106535
0.110163
0.113584
0.116801
0.119817
0.122638
0.125268
0.127713
0.129976
0.132061
0.133971
0.135705
0.13726
0.138631
0.139806
0.140767
0.141489
0.141929
0.142044
0.141766
0.140997
0.139609
0.133509
0.122418
0.11121
0.100076
0.0891651
0.0785926
0.0684518
0.0588192
0.0497602
0.0413329
0.0336007
0.0265948
0.0203839
0.0150232
0.0105588
0.00701841
0.00438472
0.00257029
0.00141896
0.00074329
0.000372527
0.000180325
8.51809e-05
3.94013e-05
1.78917e-05
7.99156e-06
3.51717e-06
1.52764e-06
6.55772e-07
2.78605e-07
1.17287e-07
4.89648e-08
2.02675e-08
8.29519e-09
3.32652e-09
1.27271e-09
4.26031e-10
7.56245e-11
4.60601e-07
2.01312e-06
4.62484e-06
9.00321e-06
1.63062e-05
2.8407e-05
4.82932e-05
8.0655e-05
0.000132717
0.000215369
0.000344612
0.000543249
0.000842612
0.00128387
0.0019182
0.00280505
0.00400777
0.00558686
0.00759209
0.0100556
0.0129883
0.0163795
0.0202002
0.0244073
0.0289488
0.0337675
0.0388043
0.0440006
0.0493003
0.0546505
0.0600031
0.0653149
0.0705483
0.0756709
0.0806559
0.0854816
0.0901303
0.0945885
0.0988468
0.102899
0.106742
0.110376
0.113801
0.11702
0.120038
0.122858
0.125487
0.127927
0.130185
0.132263
0.134164
0.135886
0.137428
0.138783
0.139939
0.14088
0.14158
0.141994
0.142086
0.141786
0.140992
0.139576
0.131102
0.120049
0.10888
0.0977948
0.086945
0.07645
0.0664035
0.056882
0.04795
0.0396648
0.0321038
0.0252652
0.0192358
0.0140665
0.0097981
0.00644938
0.00398986
0.00231824
0.0012708
0.000662335
0.000330873
0.000159953
7.55233e-05
3.49382e-05
1.58731e-05
7.09535e-06
3.12568e-06
1.35902e-06
5.84024e-07
2.48392e-07
1.04676e-07
4.3741e-08
1.81198e-08
7.42076e-09
2.97694e-09
1.13913e-09
3.81428e-10
6.78969e-11
4.62489e-07
2.02133e-06
4.64354e-06
9.03922e-06
1.63706e-05
2.85175e-05
4.84782e-05
8.09585e-05
0.000133207
0.000216146
0.000345825
0.000545108
0.000845404
0.00128797
0.0019241
0.00281332
0.00401905
0.00560184
0.00761147
0.0100801
0.0130185
0.0164161
0.0202436
0.0244583
0.029008
0.0338355
0.0388816
0.0440878
0.0493977
0.0547585
0.060122
0.0654447
0.0706889
0.0758222
0.0808175
0.085653
0.0903108
0.0947772
0.0990428
0.103101
0.10695
0.110587
0.114014
0.117234
0.120252
0.12307
0.125695
0.12813
0.130381
0.13245
0.134339
0.136048
0.137573
0.138908
0.140041
0.140954
0.141621
0.141998
0.14205
0.141706
0.140868
0.139429
0.129034
0.117993
0.106833
0.095772
0.084967
0.0745373
0.0645752
0.0551551
0.0463394
0.0381838
0.0307693
0.024084
0.0182217
0.0132279
0.00913778
0.00596107
0.0036551
0.00210696
0.00114772
0.000595472
0.00029657
0.000143181
6.75618e-05
3.12504e-05
1.42002e-05
6.3502e-06
2.79905e-06
1.21784e-06
5.23752e-07
2.22932e-07
9.40191e-08
3.93155e-08
1.62964e-08
6.67702e-09
2.67921e-09
1.02527e-09
3.43395e-10
6.13055e-11
4.64178e-07
2.02868e-06
4.66032e-06
9.07162e-06
1.64288e-05
2.86178e-05
4.86471e-05
8.12376e-05
0.000133661
0.000216874
0.000346974
0.000546892
0.000848125
0.00129204
0.00193003
0.00282177
0.00403077
0.00561765
0.0076322
0.0101066
0.0130515
0.0164562
0.0202915
0.0245146
0.0290732
0.03391
0.0389658
0.044182
0.0495022
0.0548734
0.0602472
0.0655803
0.0708344
0.0759772
0.0809816
0.0858255
0.0904909
0.0949641
0.0992354
0.103298
0.10715
0.11079
0.114218
0.117438
0.120453
0.123268
0.125888
0.128317
0.130559
0.132618
0.134494
0.136186
0.137692
0.139002
0.140105
0.14098
0.141599
0.141913
0.141892
0.141452
0.140502
0.138951
0.127791
0.116464
0.105165
0.0940524
0.0832519
0.0728643
0.0629711
0.0536397
0.0449277
0.0368864
0.0295842
0.0230328
0.0173252
0.0124956
0.00856956
0.00554606
0.00337382
0.00193113
0.001046
0.000540438
0.000268378
0.000129391
6.10071e-05
2.82083e-05
1.28172e-05
5.73271e-06
2.52774e-06
1.10031e-06
4.73467e-07
2.01648e-07
8.50935e-08
3.56032e-08
1.47647e-08
6.05159e-09
2.42866e-09
9.29405e-10
3.11362e-10
5.57535e-11
4.65728e-07
2.03544e-06
4.67576e-06
9.10152e-06
1.64826e-05
2.87112e-05
4.8805e-05
8.15002e-05
0.000134091
0.00021757
0.000348082
0.000548629
0.000850798
0.00129607
0.00193598
0.00283031
0.00404272
0.00563388
0.00765361
0.010134
0.0130858
0.016498
0.0203415
0.0245733
0.0291409
0.0339871
0.0390527
0.0442788
0.0496088
0.0549899
0.0603734
0.0657157
0.0709789
0.0761302
0.0811425
0.0859935
0.0906652
0.0951438
0.0994194
0.103486
0.10734
0.11098
0.114408
0.117626
0.120639
0.12345
0.126064
0.128486
0.130719
0.132767
0.134629
0.136305
0.13779
0.139074
0.140143
0.140974
0.14153
0.141763
0.14162
0.141
0.139771
0.13779
0.126442
0.114995
0.103636
0.0925086
0.0817289
0.0713894
0.0615657
0.0523212
0.0437111
0.0357873
0.0286023
0.0221988
0.0166129
0.0118986
0.00809544
0.00519986
0.00314063
0.0017862
0.000962528
0.000495394
0.000245327
0.00011811
5.56387e-05
2.57129e-05
1.16806e-05
5.22431e-06
2.30392e-06
1.00317e-06
4.31828e-07
1.83993e-07
7.7678e-08
3.25145e-08
1.3489e-08
5.5302e-09
2.2196e-09
8.49365e-10
2.84605e-10
5.11214e-11
4.67162e-07
2.04169e-06
4.69008e-06
9.12929e-06
1.65328e-05
2.87984e-05
4.89532e-05
8.17478e-05
0.000134499
0.000218233
0.000349144
0.000550304
0.000853392
0.0013
0.00194181
0.00283875
0.00405456
0.00565003
0.00767498
0.0101615
0.0131201
0.0165399
0.0203916
0.0246318
0.0292084
0.0340638
0.0391387
0.0443741
0.0497134
0.0551036
0.0604958
0.0658466
0.0711177
0.0762764
0.0812954
0.0861524
0.0908292
0.0953119
0.0995907
0.103659
0.107514
0.111155
0.114582
0.117798
0.120807
0.123614
0.126222
0.128637
0.130861
0.132898
0.134749
0.13641
0.137878
0.139142
0.140186
0.140986
0.141503
0.141688
0.141481
0.140773
0.139419
0.13651
0.125083
0.113596
0.102227
0.0911158
0.0803735
0.0700899
0.060338
0.0511799
0.0426706
0.0348646
0.0278036
0.021511
0.0160415
0.0114373
0.00772432
0.00491841
0.00294889
0.0016671
0.000894044
0.000458492
0.000226457
0.000108874
5.12407e-05
2.36669e-05
1.07478e-05
4.80655e-06
2.1198e-06
9.23156e-07
3.97488e-07
1.69415e-07
7.15478e-08
2.99585e-08
1.24322e-08
5.09807e-09
2.04624e-09
7.8298e-10
2.62398e-10
4.72836e-11
4.68485e-07
2.04746e-06
4.70331e-06
9.15499e-06
1.65793e-05
2.88794e-05
4.90913e-05
8.19794e-05
0.000134882
0.000218858
0.000350149
0.000551894
0.000855864
0.00130377
0.00194741
0.00284686
0.00406599
0.00566563
0.00769564
0.0101881
0.0131533
0.0165804
0.0204398
0.0246883
0.0292733
0.0341373
0.0392208
0.0444648
0.0498126
0.0552109
0.0606111
0.0659693
0.0712472
0.0764122
0.0814368
0.0862986
0.0909795
0.0954653
0.0997464
0.103816
0.107671
0.111311
0.114737
0.11795
0.120956
0.123758
0.12636
0.128768
0.130985
0.133013
0.134853
0.136503
0.137958
0.139209
0.140239
0.141026
0.141532
0.141714
0.141519
0.140852
0.139597
0.135173
0.123759
0.112292
0.100951
0.0898798
0.0791886
0.0689677
0.0592879
0.0502096
0.0417859
0.0340488
0.0270414
0.0208299
0.0154613
0.0109741
0.00739241
0.00468341
0.00278834
0.00156772
0.000837344
0.000428105
0.000210973
0.000101308
4.76415e-05
2.19929e-05
9.98447e-06
4.46455e-06
1.96896e-06
8.57553e-07
3.69308e-07
1.57441e-07
6.65082e-08
2.78556e-08
1.15622e-08
4.74215e-09
1.90346e-09
7.28296e-10
2.44101e-10
4.41232e-11
4.69686e-07
2.0527e-06
4.71534e-06
9.1784e-06
1.66217e-05
2.89536e-05
4.92179e-05
8.21921e-05
0.000135235
0.000219434
0.000351079
0.000553369
0.000858163
0.00130728
0.00195264
0.00285444
0.00407667
0.00568024
0.00771499
0.0102129
0.0131844
0.0166183
0.0204849
0.0247409
0.0293336
0.0342054
0.0392968
0.0445485
0.0499037
0.0553093
0.0607162
0.0660808
0.0713646
0.0765347
0.0815639
0.0864296
0.0911135
0.0956016
0.099884
0.103954
0.107809
0.111448
0.114871
0.118082
0.121084
0.123881
0.126478
0.128879
0.131089
0.133109
0.13494
0.13658
0.138025
0.139265
0.140285
0.141063
0.141561
0.14174
0.141547
0.140892
0.139657
0.133968
0.122572
0.111132
0.0998314
0.0888105
0.0781773
0.0680173
0.0583945
0.0493689
0.04099
0.0333158
0.0263893
0.0202619
0.0149813
0.0105845
0.00709134
0.00448074
0.00265731
0.00148599
0.000790726
0.00040326
0.000198356
9.51538e-05
4.47158e-05
2.06324e-05
9.36403e-06
4.18646e-06
1.84623e-06
8.04145e-07
3.4635e-07
1.4768e-07
6.23975e-08
2.61393e-08
1.08519e-08
4.4516e-09
1.787e-09
6.83678e-10
2.29173e-10
4.15434e-11
4.70754e-07
2.05736e-06
4.72603e-06
9.19922e-06
1.66595e-05
2.90197e-05
4.9331e-05
8.23824e-05
0.000135551
0.000219952
0.000351915
0.000554698
0.000860236
0.00131044
0.00195736
0.00286129
0.00408633
0.00569344
0.00773248
0.0102354
0.0132124
0.0166524
0.0205255
0.0247882
0.0293877
0.0342664
0.0393646
0.044623
0.0499847
0.0553964
0.0608091
0.0661789
0.0714675
0.0766419
0.0816747
0.0865432
0.0912294
0.095719
0.100002
0.104073
0.107927
0.111564
0.114985
0.118192
0.12119
0.123983
0.126575
0.12897
0.131172
0.133185
0.135007
0.136639
0.138074
0.139304
0.140314
0.141083
0.141573
0.141745
0.141548
0.140892
0.139661
0.132959
0.121566
0.110147
0.0988816
0.0878954
0.0772966
0.0671697
0.0575919
0.0486207
0.0403078
0.032701
0.0258443
0.0197899
0.0145843
0.0102637
0.00684525
0.00430327
0.00254753
0.00142154
0.000753681
0.000383325
0.000188229
9.02139e-05
4.23668e-05
1.95397e-05
8.86541e-06
3.96284e-06
1.7475e-06
7.61154e-07
3.27862e-07
1.39816e-07
5.9085e-08
2.47563e-08
1.02801e-08
4.2178e-09
1.69329e-09
6.47767e-10
2.17158e-10
3.94665e-11
4.7167e-07
2.06136e-06
4.73522e-06
9.21711e-06
1.6692e-05
2.90766e-05
4.94284e-05
8.25466e-05
0.000135823
0.0002204
0.000352638
0.000555849
0.000862033
0.00131319
0.00196146
0.00286725
0.00409472
0.00570491
0.00774767
0.0102549
0.0132368
0.0166819
0.0205605
0.024829
0.0294344
0.0343189
0.0394228
0.0446868
0.0500539
0.0554707
0.060888
0.0662622
0.0715545
0.0767322
0.0817676
0.0866383
0.0913259
0.0958163
0.1001
0.10417
0.108023
0.111658
0.115077
0.118281
0.121275
0.124063
0.12665
0.129039
0.131235
0.13324
0.135055
0.136678
0.138104
0.139325
0.140326
0.141085
0.141566
0.141731
0.14153
0.140872
0.139649
0.132122
0.120729
0.109324
0.0980731
0.0871135
0.0765502
0.0664679
0.0569365
0.0480145
0.0397538
0.0322019
0.0254023
0.0194076
0.0142638
0.0100058
0.00664865
0.00416285
0.00245392
0.00136788
0.000724913
0.000367814
0.000180244
8.63054e-05
4.0507e-05
1.86742e-05
8.47045e-06
3.78574e-06
1.66932e-06
7.27127e-07
3.13235e-07
1.336e-07
5.64707e-08
2.36668e-08
9.82973e-09
4.03366e-09
1.61947e-09
6.19476e-10
2.07691e-10
3.78304e-11
4.7242e-07
2.06464e-06
4.74274e-06
9.23177e-06
1.67186e-05
2.91232e-05
4.95083e-05
8.26814e-05
0.000136048
0.000220768
0.000353234
0.000556797
0.000863514
0.00131545
0.00196484
0.00287215
0.00410164
0.00571436
0.00776017
0.0102709
0.0132568
0.0167062
0.0205894
0.0248624
0.0294726
0.0343619
0.0394704
0.0447389
0.0501102
0.055531
0.060952
0.0663293
0.0716245
0.0768045
0.0818418
0.0867138
0.0914022
0.095893
0.100176
0.104245
0.108097
0.111731
0.115147
0.118348
0.121339
0.124123
0.126704
0.129088
0.131278
0.133276
0.135084
0.136699
0.138117
0.139329
0.140321
0.141071
0.141544
0.141703
0.141497
0.14084
0.139628
0.131467
0.120064
0.108663
0.0974299
0.086495
0.0759618
0.0659139
0.0564198
0.0475376
0.0393187
0.0318105
0.0250562
0.0191089
0.0140139
0.00980545
0.0064966
0.00405484
0.00238235
0.00132314
0.000699789
0.000355279
0.000173984
8.32548e-05
3.90576e-05
1.80018e-05
8.16468e-06
3.64912e-06
1.60923e-06
7.01061e-07
3.0207e-07
1.28867e-07
5.44816e-08
2.28377e-08
9.48695e-09
3.89347e-09
1.56325e-09
5.97926e-10
2.00478e-10
3.65843e-11
4.72991e-07
2.06713e-06
4.74846e-06
9.24292e-06
1.67389e-05
2.91587e-05
4.95692e-05
8.27841e-05
0.000136219
0.000221049
0.000353688
0.00055752
0.000864645
0.00131718
0.00196742
0.0028759
0.00410693
0.00572158
0.00776974
0.0102832
0.0132721
0.0167248
0.0206114
0.024888
0.0295017
0.0343945
0.0395066
0.0447784
0.0501529
0.0555765
0.0610002
0.0663799
0.071677
0.0768585
0.0818969
0.0867696
0.0914583
0.0959489
0.100232
0.1043
0.10815
0.111782
0.115196
0.118395
0.121382
0.124162
0.126739
0.129118
0.131303
0.133295
0.135096
0.136704
0.138114
0.139318
0.140302
0.141044
0.14151
0.141664
0.141456
0.140802
0.139604
0.130985
0.119569
0.108169
0.0969477
0.0860313
0.0755214
0.0654999
0.0560345
0.0471827
0.0389957
0.0315205
0.0248002
0.0188884
0.01383
0.00965858
0.00638576
0.00397676
0.00233134
0.00129217
0.00068219
0.00034576
0.000169362
8.1047e-05
3.80187e-05
1.75214e-05
7.94636e-06
3.55152e-06
1.56627e-06
6.82408e-07
2.94068e-07
1.2547e-07
5.30529e-08
2.22418e-08
9.24043e-09
3.79261e-09
1.5228e-09
5.82412e-10
1.95283e-10
3.56872e-11
4.73374e-07
2.0688e-06
4.7523e-06
9.25041e-06
1.67525e-05
2.91825e-05
4.961e-05
8.28529e-05
0.000136333
0.000221236
0.000353992
0.000558004
0.000865401
0.00131834
0.00196915
0.00287842
0.00411047
0.00572643
0.00777615
0.0102914
0.0132823
0.0167372
0.0206261
0.0249051
0.0295213
0.0344165
0.0395308
0.0448049
0.0501815
0.055607
0.0610323
0.0664135
0.0717117
0.0768941
0.0819329
0.0868058
0.0914944
0.0959847
0.100267
0.104334
0.108183
0.111813
0.115225
0.118422
0.121407
0.124184
0.126757
0.129132
0.131312
0.1333
0.135095
0.136697
0.1381
0.139298
0.140274
0.14101
0.14147
0.141621
0.141413
0.140765
0.139584
0.130665
0.119233
0.107833
0.0966192
0.0857163
0.0752233
0.0652208
0.0557758
0.0469453
0.0387802
0.0313277
0.0246306
0.0187428
0.013709
0.00956225
0.00631343
0.00392613
0.00229849
0.00127234
0.000670949
0.000339705
0.000166287
7.95841e-05
3.73372e-05
1.72087e-05
7.80519e-06
3.48872e-06
1.53869e-06
6.70447e-07
2.88937e-07
1.23291e-07
5.2136e-08
2.1859e-08
9.08197e-09
3.72773e-09
1.49677e-09
5.72419e-10
1.91936e-10
3.51089e-11
4.73566e-07
2.06964e-06
4.75422e-06
9.25412e-06
1.67592e-05
2.91943e-05
4.963e-05
8.28864e-05
0.000136389
0.000221327
0.000354139
0.000558238
0.000865765
0.0013189
0.00196998
0.00287962
0.00411217
0.00572876
0.00777924
0.0102954
0.0132873
0.0167433
0.0206333
0.0249135
0.0295308
0.0344272
0.0395427
0.0448178
0.0501955
0.0556219
0.0610481
0.0664299
0.0717287
0.0769114
0.0819505
0.0868232
0.0915115
0.0960014
0.100283
0.10435
0.108198
0.111827
0.115238
0.118433
0.121416
0.124191
0.126763
0.129136
0.131313
0.133297
0.135088
0.136686
0.138085
0.139278
0.14025
0.140981
0.141437
0.141585
0.141378
0.140737
0.139573
0.130507
0.119061
0.107657
0.096448
0.085553
0.0750699
0.0650784
0.0556448
0.046826
0.0386728
0.0312323
0.0245473
0.0186718
0.0136504
0.00951597
0.00627894
0.00390219
0.0022831
0.00126313
0.000665747
0.000336913
0.000164882
7.88882e-05
3.70073e-05
1.70569e-05
7.73677e-06
3.45835e-06
1.52539e-06
6.6469e-07
2.86471e-07
1.22245e-07
5.16956e-08
2.16751e-08
9.00573e-09
3.69646e-09
1.48419e-09
5.67587e-10
1.90315e-10
3.48282e-11
4.73575e-07
2.06968e-06
4.7543e-06
9.25429e-06
1.67595e-05
2.91948e-05
4.96309e-05
8.28879e-05
0.000136391
0.000221331
0.000354145
0.000558247
0.000865779
0.00131892
0.00197001
0.00287966
0.00411223
0.00572883
0.00777933
0.0102955
0.0132874
0.0167434
0.0206335
0.0249137
0.029531
0.0344274
0.0395429
0.0448181
0.0501957
0.0556222
0.0610483
0.0664301
0.071729
0.0769117
0.0819507
0.0868235
0.0915117
0.0960016
0.100283
0.10435
0.108198
0.111827
0.115238
0.118433
0.121416
0.124191
0.126763
0.129136
0.131313
0.133297
0.135088
0.136686
0.138086
0.139278
0.14025
0.140981
0.141437
0.141585
0.141378
0.140737
0.139573
0.130506
0.11906
0.107657
0.0964474
0.0855525
0.0750694
0.0650779
0.0556444
0.0468256
0.0386725
0.031232
0.0245471
0.0186715
0.0136502
0.00951582
0.00627883
0.0039021
0.00228304
0.00126309
0.000665729
0.000336903
0.000164877
7.88858e-05
3.70063e-05
1.70565e-05
7.73655e-06
3.45825e-06
1.52535e-06
6.64671e-07
2.86463e-07
1.22241e-07
5.16941e-08
2.16744e-08
9.00546e-09
3.69635e-09
1.48415e-09
5.6757e-10
1.90309e-10
3.48271e-11
4.73399e-07
2.06891e-06
4.75256e-06
9.25089e-06
1.67534e-05
2.91841e-05
4.96126e-05
8.28571e-05
0.00013634
0.000221248
0.00035401
0.000558032
0.000865443
0.0013184
0.00196924
0.00287854
0.00411064
0.00572665
0.00777643
0.0102918
0.0132827
0.0167377
0.0206266
0.0249057
0.0295219
0.0344171
0.0395315
0.0448055
0.0501822
0.0556077
0.061033
0.0664141
0.0717124
0.0768947
0.0819336
0.0868064
0.091495
0.0959853
0.100267
0.104335
0.108184
0.111814
0.115226
0.118422
0.121407
0.124184
0.126758
0.129133
0.131313
0.1333
0.135095
0.136697
0.138101
0.139298
0.140275
0.14101
0.14147
0.141621
0.141413
0.140765
0.139584
0.130663
0.119231
0.107831
0.0966175
0.0857147
0.0752218
0.0652194
0.0557745
0.0469441
0.0387792
0.0313268
0.0246298
0.0187421
0.0137084
0.0095618
0.00631308
0.00392588
0.00229834
0.00127225
0.000670899
0.000339679
0.000166274
7.95781e-05
3.73346e-05
1.72075e-05
7.80466e-06
3.48848e-06
1.53858e-06
6.70398e-07
2.88916e-07
1.23282e-07
5.21319e-08
2.18573e-08
9.08124e-09
3.72742e-09
1.49664e-09
5.72372e-10
1.91919e-10
3.51053e-11
4.73032e-07
2.06731e-06
4.74888e-06
9.24374e-06
1.67404e-05
2.91613e-05
4.95736e-05
8.27913e-05
0.000136231
0.000221068
0.000353719
0.000557567
0.000864716
0.00131729
0.00196757
0.00287612
0.00410722
0.00572196
0.00777021
0.0102838
0.0132727
0.0167256
0.0206122
0.0248889
0.0295027
0.0343956
0.0395077
0.0447796
0.0501541
0.0555777
0.0610014
0.0663811
0.0716782
0.0768596
0.081898
0.0867707
0.0914593
0.09595
0.100233
0.104301
0.108151
0.111783
0.115197
0.118395
0.121383
0.124163
0.12674
0.129119
0.131303
0.133295
0.135096
0.136704
0.138114
0.139318
0.140302
0.141044
0.14151
0.141664
0.141456
0.140802
0.139604
0.130981
0.119566
0.108166
0.0969447
0.0860286
0.0755189
0.0654976
0.0560323
0.0471807
0.0389939
0.0315189
0.0247988
0.0188872
0.013829
0.00965778
0.00638515
0.00397633
0.00233107
0.00129201
0.000682101
0.000345714
0.000169339
8.10367e-05
3.80137e-05
1.7519e-05
7.94529e-06
3.55103e-06
1.56605e-06
6.82313e-07
2.94027e-07
1.25452e-07
5.30454e-08
2.22386e-08
9.23911e-09
3.79206e-09
1.52258e-09
5.82328e-10
1.95255e-10
3.5681e-11
4.72477e-07
2.06489e-06
4.74332e-06
9.23289e-06
1.67206e-05
2.91267e-05
4.95143e-05
8.26913e-05
0.000136064
0.000220794
0.000353275
0.000556861
0.000863611
0.0013156
0.00196505
0.00287245
0.00410204
0.00571488
0.00776083
0.0102717
0.0132577
0.0167073
0.0205906
0.0248638
0.029474
0.0343634
0.039472
0.0447405
0.0501119
0.0555326
0.0609537
0.066331
0.0716262
0.0768062
0.0818434
0.0867154
0.0914037
0.0958944
0.100178
0.104247
0.108098
0.111732
0.115148
0.118349
0.12134
0.124124
0.126705
0.129089
0.131279
0.133277
0.135085
0.136699
0.138117
0.139329
0.140321
0.141071
0.141544
0.141703
0.141497
0.14084
0.139628
0.131463
0.120059
0.108659
0.0974256
0.086491
0.0759581
0.0659105
0.0564166
0.0475347
0.0393161
0.0318082
0.0250542
0.0191071
0.0140125
0.0098043
0.00649574
0.00405423
0.00238196
0.00132291
0.000699663
0.000355215
0.000173953
8.32394e-05
3.90503e-05
1.79983e-05
8.1631e-06
3.64842e-06
1.60892e-06
7.00926e-07
3.02011e-07
1.28842e-07
5.44711e-08
2.28333e-08
9.48509e-09
3.8927e-09
1.56294e-09
5.97809e-10
2.00437e-10
3.65756e-11
4.71743e-07
2.06168e-06
4.73595e-06
9.21854e-06
1.66946e-05
2.9081e-05
4.9436e-05
8.25592e-05
0.000135844
0.000220433
0.000352691
0.000555931
0.000862157
0.00131337
0.00196172
0.00286762
0.00409523
0.00570557
0.0077485
0.0102559
0.013238
0.0166833
0.0205621
0.0248307
0.0294362
0.0343209
0.0394249
0.0446889
0.0500561
0.0554728
0.0608902
0.0662643
0.0715567
0.0767343
0.0817697
0.0866403
0.0913278
0.0958182
0.100102
0.104171
0.108024
0.11166
0.115078
0.118283
0.121277
0.124065
0.126651
0.12904
0.131236
0.133241
0.135056
0.136679
0.138105
0.139326
0.140326
0.141085
0.141567
0.141732
0.14153
0.140872
0.139649
0.132116
0.120723
0.109318
0.0980675
0.0871082
0.0765453
0.0664633
0.0569322
0.0480106
0.0397502
0.0321988
0.0253996
0.0194053
0.0142618
0.0100043
0.00664749
0.00416204
0.00245341
0.00136757
0.000724745
0.000367728
0.000180201
8.62844e-05
4.0497e-05
1.86696e-05
8.46837e-06
3.78481e-06
1.66891e-06
7.2695e-07
3.13159e-07
1.33568e-07
5.64569e-08
2.36611e-08
9.82731e-09
4.03266e-09
1.61906e-09
6.19324e-10
2.07638e-10
3.78191e-11
4.70842e-07
2.05775e-06
4.72692e-06
9.20094e-06
1.66626e-05
2.90251e-05
4.93401e-05
8.23976e-05
0.000135575
0.000219992
0.000351978
0.000554796
0.000860385
0.00131066
0.00195768
0.00286174
0.00408694
0.00569424
0.0077335
0.0102366
0.0132139
0.0166541
0.0205274
0.0247902
0.02939
0.0342688
0.0393671
0.0446256
0.0499874
0.0553991
0.0608118
0.0661816
0.0714702
0.0766445
0.0816772
0.0865458
0.0912318
0.0957213
0.100004
0.104075
0.107929
0.111566
0.114987
0.118194
0.121192
0.123984
0.126576
0.128971
0.131174
0.133186
0.135008
0.13664
0.138075
0.139305
0.140315
0.141083
0.141573
0.141745
0.141548
0.140892
0.139661
0.132951
0.121558
0.11014
0.0988746
0.087889
0.0772906
0.0671641
0.0575866
0.0486157
0.040303
0.0326967
0.0258405
0.0197867
0.0145817
0.0102617
0.00684376
0.00430225
0.00254689
0.00142117
0.000753477
0.000383216
0.000188174
9.01874e-05
4.23543e-05
1.95339e-05
8.86279e-06
3.96167e-06
1.74698e-06
7.60931e-07
3.27766e-07
1.39775e-07
5.90676e-08
2.4749e-08
1.0277e-08
4.21654e-09
1.69278e-09
6.47578e-10
2.17092e-10
3.94525e-11
4.69789e-07
2.05315e-06
4.71637e-06
9.1804e-06
1.66253e-05
2.89599e-05
4.92286e-05
8.22099e-05
0.000135264
0.000219481
0.000351153
0.000553485
0.000858338
0.00130754
0.00195301
0.00285497
0.00407739
0.00568117
0.00771618
0.0102144
0.0131861
0.0166203
0.0204871
0.0247434
0.0293363
0.0342083
0.0392997
0.0445515
0.0499069
0.0553125
0.0607194
0.066084
0.0713677
0.0765379
0.081567
0.0864326
0.0911164
0.0956044
0.0998868
0.103957
0.107812
0.11145
0.114874
0.118084
0.121086
0.123883
0.12648
0.128881
0.13109
0.13311
0.134941
0.136581
0.138026
0.139266
0.140286
0.141064
0.141562
0.141741
0.141548
0.140892
0.139657
0.133959
0.122563
0.111124
0.0998231
0.0888027
0.0781698
0.0680099
0.0583873
0.0493617
0.040983
0.03331
0.0263845
0.0202581
0.0149782
0.010582
0.00708956
0.00447952
0.00265653
0.00148551
0.000790462
0.000403123
0.000198287
9.51207e-05
4.47003e-05
2.06253e-05
9.3608e-06
4.18502e-06
1.8456e-06
8.03871e-07
3.46232e-07
1.4763e-07
6.23763e-08
2.61304e-08
1.08482e-08
4.45008e-09
1.78639e-09
6.83449e-10
2.29093e-10
4.15265e-11
4.68602e-07
2.04797e-06
4.70448e-06
9.15728e-06
1.65834e-05
2.88866e-05
4.91035e-05
8.19997e-05
0.000134915
0.000218911
0.000350234
0.000552026
0.000856065
0.00130407
0.00194784
0.00284746
0.00406681
0.00566671
0.00769701
0.0101897
0.0131553
0.0165827
0.0204424
0.0246912
0.0292764
0.0341406
0.0392243
0.0444684
0.0498163
0.0552147
0.0606148
0.065973
0.0712509
0.0764158
0.0814404
0.0863021
0.0909829
0.0954686
0.0997495
0.103819
0.107674
0.111314
0.114739
0.117953
0.120958
0.12376
0.126362
0.12877
0.130987
0.133014
0.134854
0.136504
0.137959
0.139209
0.14024
0.141027
0.141533
0.141715
0.141519
0.140853
0.139599
0.135161
0.123748
0.112282
0.100942
0.089871
0.0791804
0.0689605
0.0592816
0.0502044
0.0417818
0.034045
0.0270377
0.0208264
0.0154582
0.0109715
0.00739046
0.00468205
0.00278741
0.00156715
0.000837026
0.000427938
0.000210889
0.000101268
4.76228e-05
2.19843e-05
9.9806e-06
4.46283e-06
1.9682e-06
8.57226e-07
3.69167e-07
1.57381e-07
6.64831e-08
2.7845e-08
1.15578e-08
4.74035e-09
1.90274e-09
7.28025e-10
2.44008e-10
4.41035e-11
4.67294e-07
2.04226e-06
4.6914e-06
9.13186e-06
1.65374e-05
2.88065e-05
4.89669e-05
8.17706e-05
0.000134536
0.000218293
0.00034924
0.000550452
0.000853617
0.00130034
0.0019423
0.00283943
0.00405549
0.00565125
0.00767652
0.0101634