/*--------------------------------*- C++ -*----------------------------------*\
  =========                 |
  \\      /  F ield         | OpenFOAM: The Open Source CFD Toolbox
   \\    /   O peration     | Website:  https://openfoam.org
    \\  /    A nd           | Version:  8
     \\/     M anipulation  |
\*---------------------------------------------------------------------------*/
FoamFile
{
    version     2.0;
    format      ascii;
    class       volScalarField;
    location    "360/fluid";
    object      H2O;
}
// * * * * * * * * * * * * * * * * * * * * * * * * * * * * * * * * * * * * * //

dimensions      [0 0 0 0 0 0 0];

internalField   nonuniform List<scalar> 
4000
(
3.52378e-07
1.53923e-06
3.53227e-06
6.86679e-06
1.24198e-05
2.16142e-05
3.67317e-05
6.13802e-05
0.000101172
0.000164663
0.000264596
0.000419395
0.000654765
0.00100499
0.00151328
0.00223039
0.00321084
0.00450672
0.00616033
0.00819798
0.0106281
0.0134383
0.0166002
0.0200737
0.0238123
0.0277663
0.0318853
0.0361207
0.0404264
0.0447605
0.0490848
0.0533661
0.0575756
0.0616891
0.0656866
0.0695527
0.0732757
0.0768457
0.0802562
0.0835037
0.0865867
0.0895054
0.0922614
0.0948577
0.0972976
0.0995852
0.101725
0.10372
0.105576
0.107295
0.10888
0.110332
0.11165
0.112831
0.11387
0.114755
0.115474
0.116003
0.116306
0.116352
0.116081
0.115411
0.11423
0.110078
0.101334
0.0924859
0.083669
0.0749908
0.066538
0.0583811
0.0505786
0.0431811
0.0362338
0.0297798
0.0238802
0.0185463
0.0138552
0.00986118
0.00661504
0.00414168
0.00240692
0.00130017
0.000657929
0.000315975
0.000146791
6.64634e-05
2.94852e-05
1.28664e-05
5.53897e-06
2.35795e-06
9.94479e-07
4.16177e-07
1.73019e-07
7.15012e-08
2.93589e-08
1.19421e-08
4.76772e-09
1.81868e-09
6.06973e-10
1.06431e-10
3.56164e-07
1.55646e-06
3.57474e-06
6.95705e-06
1.2599e-05
2.19541e-05
3.73519e-05
6.24704e-05
0.000103015
0.000167651
0.000269218
0.000426179
0.000664132
0.00101702
0.00152742
0.00224515
0.00322365
0.00451421
0.00615902
0.00818485
0.0105984
0.0133897
0.0165329
0.0199906
0.0237171
0.027663
0.0317783
0.036014
0.0403237
0.0446647
0.0489985
0.053291
0.0575129
0.06164
0.0656519
0.069532
0.073267
0.0768479
0.0802688
0.0835258
0.0866174
0.0895438
0.0923065
0.0949084
0.0973529
0.0996442
0.101786
0.103784
0.105641
0.10736
0.108945
0.110395
0.111711
0.11289
0.113925
0.114807
0.115521
0.116046
0.116346
0.11639
0.116117
0.115449
0.114277
0.109056
0.1003
0.091432
0.0825925
0.0738926
0.0654214
0.0572515
0.0494436
0.04205
0.0351191
0.028698
0.0228311
0.017572
0.0129811
0.00911573
0.00602328
0.00371458
0.0021321
0.00114375
0.000578696
0.000279417
0.000130898
5.98513e-05
2.68202e-05
1.18146e-05
5.12868e-06
2.19856e-06
9.32456e-07
3.9191e-07
1.63456e-07
6.77088e-08
2.78496e-08
1.13431e-08
4.53334e-09
1.73081e-09
5.78131e-10
1.01557e-10
3.61903e-07
1.58199e-06
3.63535e-06
7.07973e-06
1.28298e-05
2.23688e-05
3.80703e-05
6.36734e-05
0.000104962
0.000170694
0.000273796
0.000432779
0.000673204
0.00102881
0.0015418
0.0022614
0.00324027
0.00452883
0.00616852
0.00818583
0.0105889
0.0133681
0.0164986
0.0199434
0.0236584
0.0275954
0.0317049
0.0359383
0.0402495
0.0445954
0.0489372
0.0532401
0.0574741
0.0616135
0.0656375
0.0695303
0.0732791
0.076874
0.0803082
0.0835779
0.086681
0.0896178
0.0923897
0.0949994
0.0974505
0.099747
0.101893
0.103893
0.105752
0.107471
0.109054
0.110502
0.111813
0.112986
0.114014
0.114887
0.11559
0.116102
0.116387
0.116416
0.116129
0.115442
0.11424
0.107421
0.0986621
0.0897725
0.0809104
0.0721962
0.0637239
0.0555685
0.0477927
0.0404506
0.0335925
0.0272833
0.0215363
0.0164275
0.0120132
0.00834412
0.00545406
0.00333276
0.00190151
0.00101797
0.000515835
0.00024994
0.000117612
5.40372e-05
2.43328e-05
1.07687e-05
4.69455e-06
2.01995e-06
8.59374e-07
3.62093e-07
1.51303e-07
6.27574e-08
2.58351e-08
1.05279e-08
4.20871e-09
1.60708e-09
5.36918e-10
9.44567e-11
3.66611e-07
1.60257e-06
3.68262e-06
7.17154e-06
1.29947e-05
2.2651e-05
3.85356e-05
6.44158e-05
0.000106109
0.000172407
0.000276266
0.000436206
0.000677761
0.00103459
0.00154869
0.00226898
0.00324773
0.00453499
0.00617194
0.00818521
0.0105835
0.0133571
0.0164811
0.0199195
0.0236291
0.0275621
0.0316697
0.0359034
0.040217
0.0445672
0.0489147
0.053225
0.0574682
0.061619
0.0656563
0.0695632
0.0733262
0.0769349
0.0803824
0.0836645
0.0867792
0.0897264
0.0925075
0.0951251
0.0975827
0.0998843
0.102034
0.104036
0.105895
0.107613
0.109193
0.110636
0.11194
0.113103
0.114117
0.114972
0.115653
0.116137
0.11639
0.116386
0.116073
0.115389
0.114285
0.105723
0.0968504
0.0878826
0.0789758
0.0702475
0.061789
0.0536736
0.0459623
0.0387083
0.0319612
0.0257978
0.0202055
0.0152739
0.0110537
0.00758845
0.00489972
0.00295969
0.00167302
0.000890241
0.000449907
0.000218089
0.000102831
4.73865e-05
2.1413e-05
9.51245e-06
4.163e-06
1.79809e-06
7.67761e-07
3.24569e-07
1.36025e-07
5.65643e-08
2.33354e-08
9.52579e-09
3.81313e-09
1.4574e-09
4.87279e-10
8.58952e-11
3.70327e-07
1.61876e-06
3.71962e-06
7.24303e-06
1.31227e-05
2.28704e-05
3.88997e-05
6.50038e-05
0.000107034
0.000173824
0.000278372
0.000439233
0.000681947
0.00104013
0.00155564
0.0022772
0.00325678
0.0045441
0.00618007
0.00819116
0.0105862
0.0133562
0.016477
0.0199129
0.0236205
0.0275525
0.0316603
0.0358957
0.0402128
0.0445686
0.0489241
0.0532444
0.0574989
0.0616618
0.0657118
0.0696316
0.0734073
0.0770286
0.0804882
0.0837816
0.0869067
0.0898632
0.0926524
0.0952768
0.0977399
0.100045
0.102198
0.104201
0.106059
0.107775
0.10935
0.110785
0.11208
0.113228
0.114222
0.11505
0.115692
0.116119
0.116291
0.116165
0.115663
0.114689
0.113139
0.104157
0.095045
0.0859453
0.0769773
0.0682382
0.0598074
0.051751
0.0441256
0.0369815
0.030366
0.0243497
0.0189283
0.0141841
0.0101626
0.00689998
0.00440519
0.00263395
0.00147731
0.000782371
0.000394643
0.00019139
9.03857e-05
4.17417e-05
1.89077e-05
8.42005e-06
3.6936e-06
1.59884e-06
6.84045e-07
2.89691e-07
1.21596e-07
5.06305e-08
2.09102e-08
8.54313e-09
3.42186e-09
1.30835e-09
4.37612e-10
7.72981e-11
3.7311e-07
1.63083e-06
3.74703e-06
7.29549e-06
1.32157e-05
2.30279e-05
3.91582e-05
6.54172e-05
0.000107679
0.000174803
0.00027982
0.000441312
0.000684838
0.00104401
0.00156066
0.00228343
0.00326419
0.00455252
0.00618923
0.00820072
0.0105958
0.0133657
0.0164864
0.0199226
0.0236313
0.0275655
0.0316768
0.0359172
0.0402406
0.044604
0.0489682
0.0532981
0.057563
0.061737
0.0657984
0.0697297
0.0735169
0.0771492
0.0806192
0.0839223
0.0870562
0.0900204
0.0928161
0.0954459
0.097913
0.100221
0.102375
0.104378
0.106234
0.107946
0.109515
0.110943
0.112226
0.11336
0.114336
0.115138
0.115746
0.116122
0.116227
0.115996
0.115327
0.114068
0.111411
0.10229
0.0930841
0.0839372
0.0749616
0.0662483
0.0578717
0.0498946
0.0423709
0.0353492
0.0288759
0.0229935
0.0177473
0.0131878
0.00935689
0.00628434
0.00396754
0.00234791
0.00130596
0.000687635
0.000345688
0.000167494
7.91216e-05
3.6578e-05
1.65943e-05
7.40359e-06
3.25427e-06
1.41158e-06
6.05154e-07
2.56772e-07
1.07967e-07
4.50256e-08
1.86199e-08
7.61539e-09
3.05251e-09
1.16764e-09
3.9073e-10
6.91802e-11
3.753e-07
1.64034e-06
3.76864e-06
7.33693e-06
1.32894e-05
2.31534e-05
3.93661e-05
6.57533e-05
0.000108211
0.000175627
0.000281066
0.000443153
0.000687484
0.0010477
0.00156566
0.00228998
0.0032725
0.00456273
0.00620144
0.008215
0.0106123
0.0133845
0.0165079
0.0199472
0.0236597
0.0275985
0.0317153
0.035962
0.0402927
0.0446643
0.0490374
0.0533768
0.0576518
0.0618361
0.0659079
0.0698495
0.0736467
0.0772885
0.0807674
0.0840786
0.0872195
0.0901898
0.0929904
0.0956239
0.0980934
0.100403
0.102556
0.104557
0.10641
0.108118
0.109681
0.1111
0.112374
0.113496
0.114458
0.115245
0.115836
0.116196
0.11629
0.116063
0.115433
0.114297
0.109302
0.100223
0.0910468
0.0819316
0.0729987
0.0643431
0.0560409
0.0481548
0.0407382
0.0338389
0.0275086
0.021773
0.0166881
0.0122994
0.00864443
0.00574591
0.00358973
0.00210427
0.00116169
0.000608525
0.000304985
0.000147631
6.97368e-05
3.22575e-05
1.46478e-05
6.54262e-06
2.87948e-06
1.25066e-06
5.36874e-07
2.28092e-07
9.60222e-08
4.00871e-08
1.65928e-08
6.7912e-09
2.72339e-09
1.04196e-09
3.48788e-10
6.19131e-11
3.7709e-07
1.64812e-06
3.78631e-06
7.37085e-06
1.33498e-05
2.32565e-05
3.95373e-05
6.60315e-05
0.000108654
0.000176321
0.000282131
0.000444754
0.000689839
0.00105109
0.00157041
0.00229647
0.00328113
0.00457392
0.00621558
0.00823247
0.0106334
0.0134098
0.0165377
0.019982
0.0237001
0.0276452
0.0317687
0.0360229
0.0403617
0.0447419
0.049124
0.0534728
0.0577572
0.0619511
0.0660323
0.069983
0.0737889
0.0774388
0.080925
0.0842427
0.0873891
0.0903639
0.0931679
0.0958035
0.098274
0.100583
0.102735
0.104733
0.106581
0.108283
0.109838
0.111249
0.112511
0.11362
0.114567
0.115338
0.11591
0.116249
0.116325
0.116079
0.115429
0.114269
0.107332
0.0982832
0.0891395
0.0800637
0.0711811
0.0625889
0.054364
0.0465688
0.0392563
0.0324732
0.0262831
0.0206844
0.0157482
0.0115161
0.00802161
0.00528005
0.00326647
0.00189793
0.0010404
0.000542248
0.000270883
0.000130952
6.18303e-05
2.86036e-05
1.29951e-05
5.8089e-06
2.55897e-06
1.11262e-06
4.78135e-07
2.03356e-07
8.56975e-08
3.58104e-08
1.48345e-08
6.07531e-09
2.43719e-09
9.32593e-10
3.12272e-10
5.55866e-11
3.78635e-07
1.65484e-06
3.80162e-06
7.40033e-06
1.34025e-05
2.3347e-05
3.96887e-05
6.628e-05
0.000109055
0.000176957
0.000283124
0.000446275
0.000692125
0.00105445
0.00157524
0.00230324
0.00329036
0.00458618
0.00623144
0.00825249
0.0106581
0.0134397
0.0165733
0.0200238
0.0237486
0.0277008
0.031832
0.0360943
0.0404414
0.0448303
0.0492213
0.053579
0.0578724
0.062075
0.0661646
0.0701233
0.0739366
0.0775933
0.0810854
0.0844081
0.0875586
0.0905364
0.0933424
0.0959788
0.0984489
0.100756
0.102905
0.104899
0.106742
0.108435
0.109982
0.111381
0.11263
0.113723
0.11465
0.115398
0.115944
0.116252
0.116295
0.116013
0.115328
0.114149
0.105639
0.0965995
0.0874634
0.0784077
0.0695617
0.061023
0.0528671
0.045155
0.0379377
0.0312607
0.0251905
0.0197173
0.014918
0.0108296
0.00748102
0.00488028
0.0029924
0.00172495
0.000939628
0.000487508
0.000242799
0.000117221
5.53123e-05
2.55844e-05
1.16256e-05
5.19885e-06
2.29156e-06
9.97037e-07
4.28791e-07
1.82513e-07
7.69726e-08
3.21873e-08
1.33417e-08
5.46642e-09
2.19345e-09
8.39382e-10
2.81135e-10
5.01903e-11
3.80019e-07
1.66086e-06
3.81536e-06
7.42686e-06
1.34501e-05
2.34292e-05
3.9827e-05
6.65085e-05
0.000109427
0.000177553
0.000284065
0.000447736
0.000694352
0.00105778
0.0015801
0.00231016
0.00329996
0.00459912
0.00624841
0.00827415
0.0106851
0.0134725
0.0166125
0.0200699
0.0238019
0.0277618
0.031901
0.0361715
0.040527
0.0449244
0.0493239
0.05369
0.0579915
0.0622019
0.066299
0.0702646
0.0740841
0.0777463
0.0812431
0.0845696
0.0877229
0.0907025
0.0935092
0.0961453
0.0986139
0.100919
0.103063
0.105052
0.106888
0.108573
0.110109
0.111495
0.112727
0.1138
0.114703
0.115419
0.115926
0.116183
0.116165
0.115806
0.115028
0.113758
0.104621
0.0953477
0.0860977
0.0769999
0.0681576
0.0596534
0.0515539
0.0439144
0.0367819
0.0301986
0.0242203
0.0188567
0.014184
0.01023
0.00701583
0.00454051
0.00276211
0.001581
0.000856351
0.000442452
0.000219719
0.000105931
4.99459e-05
2.30939e-05
1.04933e-05
4.69332e-06
2.06944e-06
9.00816e-07
3.87623e-07
1.65087e-07
6.96653e-08
2.9148e-08
1.20878e-08
4.95439e-09
1.98832e-09
7.60896e-10
2.5491e-10
4.56449e-11
3.81287e-07
1.66639e-06
3.82801e-06
7.45133e-06
1.34942e-05
2.35056e-05
3.99562e-05
6.67235e-05
0.000109779
0.000178123
0.000284972
0.000449158
0.000696541
0.00106108
0.00158497
0.00231715
0.00330974
0.00461241
0.00626594
0.00829663
0.0107132
0.0135068
0.0166534
0.0201179
0.0238574
0.027825
0.0319721
0.0362506
0.0406143
0.0450197
0.0494271
0.0538009
0.0581098
0.0623271
0.0664306
0.0704021
0.0742268
0.0778934
0.0813938
0.0847229
0.087878
0.0908583
0.0936649
0.0962998
0.0987661
0.101067
0.103208
0.10519
0.107019
0.108695
0.11022
0.111592
0.112807
0.113859
0.114734
0.115414
0.11587
0.11606
0.115943
0.115435
0.114429
0.112807
0.103517
0.0941457
0.0848458
0.075736
0.0669107
0.0584459
0.0504033
0.0428349
0.0357859
0.0292987
0.0234165
0.018174
0.0136009
0.00974127
0.00662767
0.00425708
0.00257121
0.00146235
0.000788013
0.000405575
0.000200847
9.66956e-05
4.55509e-05
2.1051e-05
9.56284e-06
4.27709e-06
1.8862e-06
8.21286e-07
3.53534e-07
1.50633e-07
6.35943e-08
2.66193e-08
1.10433e-08
4.52752e-09
1.81716e-09
6.95368e-10
2.33004e-10
4.18526e-11
3.82462e-07
1.67151e-06
3.83973e-06
7.47407e-06
1.35352e-05
2.3577e-05
4.00775e-05
6.69262e-05
0.000110113
0.000178666
0.000285841
0.000450529
0.000698664
0.0010643
0.00158975
0.00232406
0.00331944
0.00462563
0.00628344
0.00831911
0.0107413
0.0135411
0.0166944
0.0201659
0.0239127
0.0278878
0.0320425
0.0363287
0.0406999
0.0451128
0.0495274
0.0539081
0.0582235
0.0624468
0.0665558
0.0705322
0.0743611
0.078031
0.0815341
0.084865
0.088021
0.0910014
0.093807
0.0964401
0.0989037
0.101201
0.103337
0.105314
0.107135
0.108803
0.110318
0.111678
0.112879
0.113914
0.114769
0.115424
0.115847
0.115999
0.115829
0.11525
0.114141
0.111759
0.102405
0.0930003
0.0836925
0.0745957
0.0658011
0.0573819
0.0493982
0.0419005
0.034934
0.0285433
0.0227626
0.0176108
0.013133
0.00936365
0.00632383
0.00402666
0.00241423
0.00136484
0.000731946
0.000375364
0.000185398
8.9134e-05
4.19503e-05
1.93759e-05
8.79912e-06
3.93508e-06
1.73546e-06
7.5578e-07
3.2542e-07
1.38699e-07
5.85756e-08
2.45267e-08
1.01781e-08
4.17375e-09
1.67524e-09
6.41019e-10
2.14823e-10
3.87107e-11
3.83544e-07
1.67624e-06
3.85056e-06
7.49511e-06
1.35733e-05
2.36434e-05
4.01906e-05
6.71158e-05
0.000110427
0.000179177
0.000286664
0.000451831
0.000700689
0.00106738
0.00159433
0.0023307
0.00332879
0.0046384
0.00630036
0.00834087
0.0107685
0.0135742
0.0167339
0.0202121
0.0239658
0.0279479
0.0321097
0.036403
0.0407811
0.0452007
0.0496218
0.0540085
0.0583295
0.062558
0.0666716
0.0706519
0.0744841
0.0781566
0.0816615
0.0849934
0.0881497
0.0911295
0.0939338
0.0965648
0.0990254
0.101319
0.10345
0.105421
0.107236
0.108896
0.110403
0.111754
0.112945
0.113969
0.114813
0.115457
0.115871
0.11602
0.11586
0.115314
0.114287
0.110665
0.10132
0.0919323
0.082648
0.0735838
0.064831
0.0564633
0.0485385
0.0411061
0.0342097
0.0278755
0.0221386
0.0170533
0.012658
0.00898438
0.0060521
0.00383427
0.00228279
0.00128348
0.000685526
0.000350486
0.000172721
8.29401e-05
3.90037e-05
1.80054e-05
8.1742e-06
3.65509e-06
1.61197e-06
7.02071e-07
3.02349e-07
1.28895e-07
5.44497e-08
2.28051e-08
9.46589e-09
3.88236e-09
1.55835e-09
5.96249e-10
1.99843e-10
3.61233e-11
3.84528e-07
1.68053e-06
3.86041e-06
7.51427e-06
1.3608e-05
2.3704e-05
4.02943e-05
6.729e-05
0.000110715
0.000179649
0.000287425
0.000453039
0.00070257
0.00107026
0.00159861
0.00233691
0.00333753
0.00465036
0.0063162
0.00836123
0.0107939
0.0136052
0.0167708
0.0202551
0.0240152
0.0280037
0.0321719
0.0364714
0.0408558
0.0452812
0.0497078
0.0540997
0.0584255
0.0626583
0.0667756
0.0707591
0.0745938
0.0782682
0.0817742
0.0851066
0.0882626
0.0912415
0.0940441
0.0966727
0.0991301
0.10142
0.103546
0.105512
0.107321
0.108975
0.110474
0.111817
0.113
0.114015
0.11485
0.115487
0.115895
0.116041
0.115884
0.115347
0.114336
0.109679
0.100348
0.0909831
0.0817311
0.0727084
0.0640031
0.0556851
0.0478071
0.0404179
0.0335582
0.0272754
0.0216047
0.0165883
0.012265
0.0086654
0.00580562
0.00366834
0.00217552
0.00121657
0.00064736
0.000330146
0.000162392
7.79016e-05
3.66084e-05
1.68916e-05
7.66625e-06
3.42742e-06
1.5115e-06
6.58347e-07
2.83554e-07
1.20904e-07
5.10843e-08
2.14e-08
8.88438e-09
3.64449e-09
1.46301e-09
5.59721e-10
1.87622e-10
3.40112e-11
3.85402e-07
1.68435e-06
3.86916e-06
7.53132e-06
1.3639e-05
2.37581e-05
4.03868e-05
6.74457e-05
0.000110974
0.000180073
0.00028811
0.000454126
0.000704267
0.00107285
0.00160247
0.00234252
0.00334545
0.00466117
0.00633052
0.00837963
0.0108169
0.0136332
0.016804
0.0202938
0.0240595
0.0280536
0.0322274
0.0365324
0.040922
0.0453525
0.0497839
0.0541801
0.0585098
0.0627461
0.0668663
0.0708522
0.0746887
0.0783643
0.0818709
0.0852033
0.0883587
0.0913363
0.094137
0.0967631
0.0992174
0.101504
0.103625
0.105586
0.10739
0.109037
0.110529
0.111865
0.11304
0.114047
0.114874
0.115503
0.115904
0.116045
0.115884
0.115347
0.11434
0.108853
0.0995251
0.0901765
0.0809535
0.0719592
0.0632821
0.0549913
0.04715
0.0398054
0.0329996
0.026772
0.0211585
0.0162018
0.01194
0.00840279
0.00560415
0.00352305
0.00208564
0.0011638
0.000617032
0.000313825
0.000154101
7.38573e-05
3.46854e-05
1.5997e-05
7.25803e-06
3.24434e-06
1.43066e-06
6.2315e-07
2.68418e-07
1.14466e-07
4.83723e-08
2.02678e-08
8.41619e-09
3.45308e-09
1.38628e-09
5.30321e-10
1.77785e-10
3.23109e-11
3.86152e-07
1.68762e-06
3.87668e-06
7.54597e-06
1.36656e-05
2.38047e-05
4.04666e-05
6.75802e-05
0.000111197
0.000180439
0.000288702
0.000455069
0.000705739
0.0010751
0.00160583
0.00234739
0.00335231
0.00467056
0.00634295
0.00839558
0.0108368
0.0136573
0.0168327
0.0203273
0.0240977
0.0280966
0.0322751
0.0365847
0.0409787
0.0454133
0.0498485
0.0542483
0.0585811
0.0628199
0.0669424
0.07093
0.0747677
0.078444
0.0819507
0.0852828
0.0884372
0.0914134
0.0942122
0.0968357
0.0992869
0.101569
0.103687
0.105643
0.107441
0.109083
0.110568
0.111897
0.113065
0.114064
0.114884
0.115505
0.115899
0.116034
0.115869
0.115331
0.114329
0.108167
0.0988398
0.0895028
0.0802916
0.071319
0.062671
0.0544167
0.0466134
0.0393091
0.0325461
0.0263634
0.0207967
0.0158888
0.0116776
0.00819165
0.00544319
0.00340809
0.00200901
0.00111987
0.00059348
0.000301126
0.000147565
7.06574e-05
3.31627e-05
1.52884e-05
6.93468e-06
3.09935e-06
1.36666e-06
5.95292e-07
2.56443e-07
1.09377e-07
4.6232e-08
1.93758e-08
8.04751e-09
3.30232e-09
1.32584e-09
5.07159e-10
1.70034e-10
3.09714e-11
3.86766e-07
1.6903e-06
3.88284e-06
7.55797e-06
1.36874e-05
2.38429e-05
4.0532e-05
6.76905e-05
0.000111381
0.000180741
0.00028919
0.000455845
0.000706951
0.00107695
0.0016086
0.00235141
0.00335798
0.0046783
0.00635319
0.00840873
0.0108532
0.0136772
0.0168563
0.0203547
0.024129
0.0281318
0.0323141
0.0366273
0.0410248
0.0454627
0.0499008
0.0543033
0.0586384
0.0628792
0.0670032
0.0709918
0.0748302
0.0785067
0.0820133
0.0853448
0.0884982
0.0914728
0.0942696
0.0968906
0.0993389
0.101618
0.103732
0.105683
0.107476
0.109112
0.110592
0.111914
0.113075
0.114067
0.114879
0.115494
0.115881
0.116011
0.115842
0.115304
0.114312
0.107631
0.0982951
0.0889614
0.079765
0.0708127
0.0621893
0.0539631
0.0461904
0.0389186
0.0321899
0.026043
0.0205133
0.0156443
0.0114731
0.00802763
0.00531871
0.00331966
0.00195041
0.00108325
0.000572911
0.000290864
0.000142439
6.816e-05
3.19761e-05
1.47379e-05
6.68435e-06
2.9875e-06
1.31746e-06
5.73952e-07
2.47302e-07
1.05502e-07
4.46036e-08
1.86971e-08
7.76688e-09
3.18755e-09
1.27982e-09
4.89517e-10
1.64129e-10
2.99512e-11
3.87233e-07
1.69234e-06
3.88752e-06
7.5671e-06
1.3704e-05
2.3872e-05
4.05819e-05
6.77746e-05
0.000111521
0.000180971
0.000289562
0.000456437
0.000707877
0.00107837
0.00161071
0.00235448
0.00336231
0.00468421
0.00636102
0.00841877
0.0108657
0.0136924
0.0168743
0.0203756
0.0241528
0.0281585
0.0323437
0.0366597
0.0410597
0.0455
0.0499403
0.0543446
0.0586813
0.0629234
0.0670482
0.0710375
0.0748761
0.0785526
0.0820587
0.0853894
0.0885417
0.0915149
0.0943099
0.0969286
0.0993743
0.10165
0.10376
0.105708
0.107496
0.109127
0.110602
0.111918
0.113073
0.114058
0.114864
0.115471
0.115853
0.115979
0.115809
0.115273
0.114292
0.107236
0.0978903
0.0885573
0.0793702
0.0704331
0.0618287
0.0536242
0.045875
0.0386281
0.0319254
0.0258055
0.0203037
0.0154638
0.0113225
0.00790739
0.00522796
0.00325573
0.00190865
0.00105789
0.000558503
0.000283071
0.000138655
6.63525e-05
3.11256e-05
1.43446e-05
6.50562e-06
2.9076e-06
1.28229e-06
5.58682e-07
2.40751e-07
1.02721e-07
4.3434e-08
1.82092e-08
7.56506e-09
3.10498e-09
1.24671e-09
4.76815e-10
1.59877e-10
2.92168e-11
3.87547e-07
1.69371e-06
3.89067e-06
7.57323e-06
1.37151e-05
2.38915e-05
4.06153e-05
6.78309e-05
0.000111615
0.000181124
0.00028981
0.000456833
0.000708496
0.00107931
0.00161213
0.00235653
0.00336521
0.00468818
0.00636627
0.00842551
0.0108741
0.0137026
0.0168864
0.0203896
0.0241688
0.0281765
0.0323635
0.0366814
0.0410831
0.045525
0.0499666
0.0543721
0.0587098
0.0629525
0.0670778
0.0710671
0.0749056
0.0785818
0.0820875
0.0854174
0.0885687
0.0915407
0.0943341
0.096951
0.0993945
0.101668
0.103775
0.10572
0.107504
0.109131
0.110601
0.111912
0.113062
0.114042
0.114841
0.115444
0.115821
0.115944
0.115773
0.115243
0.114276
0.106974
0.0976153
0.0882818
0.0791013
0.0701752
0.0615846
0.0533957
0.0456631
0.0384337
0.031749
0.0256477
0.0201649
0.0153445
0.0112234
0.00782853
0.00516875
0.00321428
0.00188176
0.00104166
0.0005493
0.000278114
0.000136137
6.51548e-05
3.05676e-05
1.40886e-05
6.39004e-06
2.85618e-06
1.25971e-06
5.48889e-07
2.3655e-07
1.00937e-07
4.26833e-08
1.78958e-08
7.43533e-09
3.05186e-09
1.22539e-09
4.68634e-10
1.57136e-10
2.87434e-11
3.87704e-07
1.6944e-06
3.89224e-06
7.57627e-06
1.37206e-05
2.39011e-05
4.06316e-05
6.78584e-05
0.00011166
0.000181199
0.000289931
0.000457024
0.000708794
0.00107977
0.0016128
0.00235752
0.0033666
0.00469008
0.00636879
0.00842876
0.0108782
0.0137076
0.0168923
0.0203965
0.0241766
0.0281852
0.0323733
0.036692
0.0410946
0.0455372
0.0499795
0.0543856
0.0587237
0.0629667
0.0670921
0.0710814
0.0749197
0.0785955
0.0821008
0.0854302
0.0885809
0.091552
0.0943445
0.0969603
0.0994024
0.101674
0.10378
0.105722
0.107504
0.109129
0.110596
0.111904
0.113049
0.114026
0.114821
0.11542
0.115794
0.115915
0.115745
0.11522
0.114267
0.106845
0.0974738
0.0881382
0.0789611
0.0700415
0.0614591
0.0532791
0.0455559
0.038336
0.0316611
0.0255696
0.0200967
0.0152864
0.0111754
0.00779064
0.00514052
0.00319469
0.00186915
0.00103411
0.000545041
0.000275827
0.000134987
6.45851e-05
3.02976e-05
1.39644e-05
6.33402e-06
2.83132e-06
1.24882e-06
5.44176e-07
2.34532e-07
1.00081e-07
4.23227e-08
1.77452e-08
7.37291e-09
3.02626e-09
1.2151e-09
4.64678e-10
1.55809e-10
2.85136e-11
3.87711e-07
1.69443e-06
3.89231e-06
7.5764e-06
1.37209e-05
2.39015e-05
4.06324e-05
6.78596e-05
0.000111662
0.000181202
0.000289936
0.000457032
0.000708806
0.00107979
0.00161283
0.00235756
0.00336665
0.00469014
0.00636887
0.00842885
0.0108783
0.0137077
0.0168924
0.0203966
0.0241768
0.0281854
0.0323734
0.0366922
0.0410948
0.0455374
0.0499797
0.0543858
0.0587239
0.0629669
0.0670923
0.0710816
0.0749198
0.0785957
0.0821009
0.0854303
0.088581
0.0915522
0.0943446
0.0969604
0.0994025
0.101674
0.10378
0.105722
0.107505
0.109129
0.110596
0.111904
0.113049
0.114026
0.114821
0.11542
0.115794
0.115915
0.115745
0.11522
0.114267
0.106844
0.0974733
0.0881376
0.0789606
0.070041
0.0614587
0.0532787
0.0455556
0.0383357
0.0316608
0.0255693
0.0200965
0.0152862
0.0111753
0.00779052
0.00514042
0.00319462
0.00186911
0.00103408
0.000545026
0.000275819
0.000134983
6.45831e-05
3.02967e-05
1.3964e-05
6.33385e-06
2.83124e-06
1.24879e-06
5.44161e-07
2.34525e-07
1.00078e-07
4.23215e-08
1.77447e-08
7.37269e-09
3.02617e-09
1.21506e-09
4.64664e-10
1.55804e-10
2.85126e-11
3.87568e-07
1.6938e-06
3.89088e-06
7.57363e-06
1.37158e-05
2.38927e-05
4.06174e-05
6.78344e-05
0.00011162
0.000181133
0.000289825
0.000456856
0.00070853
0.00107936
0.0016122
0.00235664
0.00336535
0.00468836
0.00636649
0.00842579
0.0108744
0.013703
0.0168868
0.0203901
0.0241693
0.028177
0.0323641
0.0366819
0.0410837
0.0455255
0.0499672
0.0543727
0.0587103
0.062953
0.0670783
0.0710676
0.0749062
0.0785823
0.082088
0.0854179
0.0885692
0.0915411
0.0943345
0.0969514
0.0993948
0.101668
0.103775
0.10572
0.107505
0.109131
0.110601
0.111913
0.113062
0.114042
0.114842
0.115444
0.115821
0.115944
0.115773
0.115243
0.114276
0.106972
0.0976137
0.0882803
0.0790999
0.0701739
0.0615834
0.0533946
0.0456621
0.0384328
0.0317482
0.025647
0.0201642
0.015344
0.0112229
0.00782816
0.00516847
0.00321409
0.00188163
0.00104158
0.000549259
0.000278092
0.000136127
6.51499e-05
3.05655e-05
1.40876e-05
6.38961e-06
2.85599e-06
1.25962e-06
5.48849e-07
2.36533e-07
1.0093e-07
4.268e-08
1.78944e-08
7.43473e-09
3.05161e-09
1.22529e-09
4.68596e-10
1.57123e-10
2.87404e-11
3.87267e-07
1.69249e-06
3.88787e-06
7.56777e-06
1.37052e-05
2.38741e-05
4.05854e-05
6.77805e-05
0.000111531
0.000180986
0.000289586
0.000456475
0.000707935
0.00107845
0.00161083
0.00235465
0.00336254
0.00468452
0.0063614
0.00841924
0.0108663
0.0136931
0.0168751
0.0203764
0.0241536
0.0281594
0.0323446
0.0366606
0.0410607
0.045501
0.0499413
0.0543456
0.0586823
0.0629243
0.0670492
0.0710384
0.074877
0.0785534
0.0820596
0.0853902
0.0885425
0.0915156
0.0943105
0.0969293
0.0993749
0.101651
0.103761
0.105709
0.107497
0.109128
0.110602
0.111918
0.113073
0.114059
0.114864
0.115472
0.115853
0.115979
0.115809
0.115273
0.114292
0.107233
0.0978876
0.0885547
0.0793678
0.0704308
0.0618266
0.0536223
0.0458732
0.0386265
0.031924
0.0258042
0.0203026
0.0154628
0.0113217
0.00790674
0.00522747
0.00325539
0.00190842
0.00105776
0.00055843
0.000283033
0.000138637
6.6344e-05
3.11215e-05
1.43427e-05
6.50474e-06
2.9072e-06
1.28211e-06
5.58604e-07
2.40717e-07
1.02707e-07
4.34278e-08
1.82066e-08
7.56397e-09
3.10453e-09
1.24652e-09
4.76747e-10
1.59853e-10
2.92117e-11
3.86813e-07
1.69051e-06
3.88331e-06
7.55889e-06
1.3689e-05
2.38458e-05
4.05369e-05
6.76986e-05
0.000111394
0.000180762
0.000289223
0.000455897
0.000707031
0.00107707
0.00160877
0.00235165
0.0033583
0.00467872
0.00635372
0.00840938
0.010854
0.0136781
0.0168573
0.0203558
0.0241301
0.028133
0.0323154
0.0366287
0.0410262
0.0454641
0.0499022
0.0543046
0.0586397
0.0628805
0.0670045
0.0709931
0.0748314
0.0785079
0.0820145
0.0853459
0.0884992
0.0914738
0.0942706
0.0968915
0.0993398
0.101619
0.103732
0.105684
0.107477
0.109113
0.110593
0.111915
0.113075
0.114068
0.11488
0.115494
0.115881
0.116011
0.115842
0.115304
0.114312
0.107627
0.0982913
0.0889578
0.0797615
0.0708094
0.0621863
0.0539603
0.0461878
0.0389163
0.0321878
0.0260411
0.0205116
0.0156429
0.0114719
0.00802669
0.005318
0.00331916
0.00195009
0.00108306
0.000572808
0.000290812
0.000142414
6.81474e-05
3.19702e-05
1.47351e-05
6.68306e-06
2.98693e-06
1.31721e-06
5.73842e-07
2.47254e-07
1.05482e-07
4.4595e-08
1.86934e-08
7.76536e-09
3.18692e-09
1.27957e-09
4.89421e-10
1.64096e-10
2.99441e-11
3.86212e-07
1.68788e-06
3.87728e-06
7.54714e-06
1.36677e-05
2.38084e-05
4.04728e-05
6.75905e-05
0.000111214
0.000180467
0.000288745
0.000455135
0.00070584
0.00107525
0.00160605
0.00234769
0.00335273
0.0046711
0.00634363
0.00839642
0.0108378
0.0136585
0.016834
0.0203287
0.0240992
0.0280982
0.0322768
0.0365864
0.0409805
0.0454151
0.0498503
0.05425
0.0585828
0.0628217
0.0669441
0.0709317
0.0747693
0.0784455
0.0819522
0.0852842
0.0884386
0.0914147
0.0942134
0.0968369
0.099288
0.101571
0.103688
0.105644
0.107442
0.109083
0.110569
0.111898
0.113065
0.114065
0.114884
0.115505
0.115899
0.116034
0.115869
0.115331
0.114329
0.108162
0.0988346
0.0894979
0.080287
0.0713147
0.0626669
0.0544129
0.0466099
0.0393059
0.0325432
0.0263608
0.0207944
0.0158869
0.011676
0.0081904
0.00544224
0.00340743
0.00200858
0.00111962
0.000593343
0.000301055
0.000147529
7.06402e-05
3.31546e-05
1.52846e-05
6.93298e-06
3.09859e-06
1.36633e-06
5.95147e-07
2.56381e-07
1.09351e-07
4.62208e-08
1.93711e-08
8.04553e-09
3.30151e-09
1.32551e-09
5.07035e-10
1.69992e-10
3.09622e-11
3.85474e-07
1.68466e-06
3.86989e-06
7.53273e-06
1.36415e-05
2.37626e-05
4.03943e-05
6.74582e-05
0.000110994
0.000180106
0.000288161
0.000454207
0.00070439
0.00107303
0.00160274
0.00234288
0.00334594
0.00466183
0.00633135
0.00838064
0.0108181
0.0136345
0.0168056
0.0202956
0.0240613
0.0280556
0.0322295
0.0365346
0.0409242
0.0453547
0.0497861
0.0541823
0.058512
0.0627482
0.0668684
0.0708542
0.0746907
0.0783662
0.0818727
0.0852051
0.0883604
0.0913379
0.0941386
0.0967645
0.0992188
0.101505
0.103627
0.105588
0.107391
0.109038
0.11053
0.111866
0.113041
0.114048
0.114875
0.115504
0.115905
0.116046
0.115884
0.115347
0.11434
0.108846
0.0995188
0.0901705
0.0809478
0.0719539
0.0632771
0.0549866
0.0471456
0.0398013
0.0329957
0.0267685
0.0211554
0.0161992
0.0119379
0.00840114
0.00560293
0.00352221
0.00208511
0.0011635
0.000616865
0.000313736
0.000154056
7.38356e-05
3.46751e-05
1.59922e-05
7.25588e-06
3.24339e-06
1.43024e-06
6.22967e-07
2.68339e-07
1.14432e-07
4.83581e-08
2.02618e-08
8.4137e-09
3.45205e-09
1.38586e-09
5.30166e-10
1.77731e-10
3.22994e-11
3.84612e-07
1.6809e-06
3.86125e-06
7.51591e-06
1.3611e-05
2.37092e-05
4.0303e-05
6.73045e-05
0.000110739
0.000179687
0.000287486
0.000453133
0.000702714
0.00107047
0.00159892
0.00233734
0.00333812
0.00465113
0.00631717
0.00836242
0.0107954
0.0136069
0.0167726
0.0202572
0.0240174
0.028006
0.0321743
0.036474
0.0408583
0.0452838
0.0497105
0.0541024
0.0584281
0.0626609
0.0667782
0.0707616
0.0745962
0.0782705
0.0817764
0.0851087
0.0882646
0.0912434
0.094046
0.0966744
0.0991318
0.101422
0.103548
0.105514
0.107322
0.108976
0.110475
0.111818
0.113001
0.114016
0.114851
0.115487
0.115896
0.116042
0.115884
0.115347
0.114336
0.109671
0.100341
0.090976
0.0817243
0.072702
0.0639969
0.0556791
0.0478011
0.040412
0.0335525
0.0272706
0.0216008
0.0165851
0.0122625
0.00866343
0.00580416
0.00366734
0.00217488
0.00121618
0.000647144
0.000330033
0.000162336
7.78745e-05
3.65957e-05
1.68857e-05
7.6636e-06
3.42624e-06
1.51098e-06
6.58122e-07
2.83457e-07
1.20863e-07
5.10669e-08
2.13927e-08
8.88135e-09
3.64324e-09
1.4625e-09
5.59533e-10
1.87557e-10
3.39974e-11
3.8364e-07
1.67666e-06
3.85152e-06
7.49698e-06
1.35767e-05
2.36492e-05
4.02006e-05
6.71324e-05
0.000110454
0.000179221
0.000286733
0.000451939
0.000700853
0.00106763
0.00159468
0.00233119
0.00332946
0.00463929
0.00630147
0.00834224
0.0107701
0.0135761
0.016736
0.0202144
0.0239683
0.0279506
0.0321126
0.0364059
0.0407841
0.0452038
0.0496248
0.0540115
0.0583325
0.062561
0.0666745
0.0706548
0.0744869
0.0781593
0.0816641
0.0849959
0.0881521
0.0911318
0.093936
0.0965668
0.0990273
0.101321
0.103452
0.105423
0.107238
0.108898
0.110404
0.111755
0.112946
0.11397
0.114813
0.115457
0.115871
0.116021
0.115861
0.115315
0.114288
0.110655
0.101312
0.0919241
0.0826403
0.0735766
0.0648243
0.0564573
0.0485334
0.0411019
0.0342064
0.0278723
0.0221355
0.0170504
0.0126555
0.00898227
0.0060505
0.00383315
0.00228203
0.00128301
0.000685265
0.000350349
0.000172653
8.29074e-05
3.89883e-05
1.79983e-05
8.17103e-06
3.65368e-06
1.61135e-06
7.01803e-07
3.02234e-07
1.28847e-07
5.44291e-08
2.27965e-08
9.46231e-09