/*--------------------------------*- C++ -*----------------------------------*\
  =========                 |
  \\      /  F ield         | OpenFOAM: The Open Source CFD Toolbox
   \\    /   O peration     | Website:  https://openfoam.org
    \\  /    A nd           | Version:  8
     \\/     M anipulation  |
\*---------------------------------------------------------------------------*/
FoamFile
{
    version     2.0;
    format      ascii;
    class       volScalarField;
    location    "360/fluid";
    object      N2;
}
// * * * * * * * * * * * * * * * * * * * * * * * * * * * * * * * * * * * * * //

dimensions      [0 0 0 0 0 0 0];

internalField   nonuniform List<scalar> 
4000
(
2.09949e-06
9.17077e-06
2.10453e-05
4.0912e-05
7.39959e-05
0.000128774
0.000218838
0.000365683
0.000602739
0.000980983
0.00157631
0.00249849
0.00390063
0.00598696
0.00901493
0.013287
0.0191278
0.026848
0.0366996
0.0488396
0.063318
0.0800616
0.0989005
0.119596
0.141872
0.16543
0.189971
0.215205
0.240858
0.266677
0.292438
0.317939
0.343011
0.367508
0.391312
0.414331
0.436495
0.457747
0.478049
0.497383
0.51574
0.533127
0.549554
0.565044
0.579621
0.593316
0.606163
0.618198
0.629458
0.639982
0.649809
0.658976
0.667522
0.675482
0.682894
0.68979
0.696205
0.70217
0.707623
0.712658
0.717463
0.72193
0.726083
0.729932
0.733643
0.737192
0.740581
0.743814
0.746889
0.749804
0.752557
0.755142
0.757553
0.759781
0.76181
0.76364
0.765249
0.766619
0.767732
0.76858
0.769175
0.769554
0.769774
0.769892
0.76995
0.769977
0.76999
0.769996
0.769998
0.769999
0.77
0.77
0.77
0.77
0.77
0.77
0.77
0.77
0.77
0.77
2.12195e-06
9.27309e-06
2.12977e-05
4.14491e-05
7.50629e-05
0.000130799
0.000222535
0.000372183
0.000613731
0.000998806
0.0016039
0.00253899
0.00395657
0.00605888
0.00909949
0.0133752
0.0192045
0.0268929
0.0366917
0.0487611
0.0631412
0.0797718
0.0984995
0.119101
0.141304
0.164814
0.189333
0.214568
0.240244
0.266104
0.29192
0.317488
0.342634
0.367211
0.3911
0.414202
0.436437
0.457753
0.478118
0.497509
0.51592
0.533353
0.549823
0.565348
0.579956
0.593677
0.606545
0.618596
0.62987
0.640403
0.650236
0.659407
0.667954
0.675914
0.683324
0.690217
0.696629
0.70259
0.708035
0.713059
0.717851
0.722303
0.726446
0.730307
0.734024
0.737578
0.740971
0.744207
0.747284
0.7502
0.752952
0.755533
0.757937
0.760153
0.76217
0.763974
0.765548
0.766874
0.767935
0.768726
0.769269
0.769608
0.769802
0.769904
0.769955
0.769979
0.769991
0.769996
0.769998
0.769999
0.77
0.77
0.77
0.77
0.77
0.77
0.77
0.77
0.77
0.77
2.15631e-06
9.42591e-06
2.16603e-05
4.21827e-05
7.64426e-05
0.000133277
0.000226827
0.000379369
0.000625363
0.00101698
0.00163123
0.00257839
0.00401073
0.00612926
0.00918532
0.0134722
0.0193037
0.0269803
0.0367487
0.048767
0.063084
0.0796425
0.098294
0.118819
0.140953
0.164409
0.188893
0.214115
0.239798
0.265687
0.291549
0.317179
0.342395
0.367046
0.391006
0.414182
0.436499
0.4579
0.478345
0.497813
0.516295
0.533793
0.55032
0.565896
0.580548
0.594306
0.607205
0.619282
0.630574
0.641122
0.650964
0.66014
0.668689
0.676647
0.684051
0.690938
0.697341
0.703292
0.708697
0.713691
0.718469
0.722913
0.727032
0.730921
0.734641
0.738195
0.741587
0.744818
0.747887
0.750792
0.753527
0.756087
0.758463
0.760639
0.762613
0.764366
0.76588
0.767138
0.76813
0.768857
0.769348
0.769651
0.769823
0.769914
0.76996
0.769981
0.769992
0.769996
0.769998
0.769999
0.77
0.77
0.77
0.77
0.77
0.77
0.77
0.77
0.77
0.77
2.1845e-06
9.5491e-06
2.19433e-05
4.27322e-05
7.74295e-05
0.000134966
0.000229611
0.000383811
0.000632223
0.00102723
0.001646
0.00259889
0.004038
0.00616384
0.00922658
0.0135177
0.0193485
0.0270172
0.0367692
0.0487632
0.0630513
0.0795756
0.0981873
0.118673
0.140774
0.164206
0.188677
0.213899
0.239596
0.26551
0.291405
0.317076
0.342346
0.367062
0.391101
0.414361
0.436764
0.458248
0.478773
0.498317
0.51687
0.534433
0.551019
0.566647
0.581344
0.59514
0.60807
0.620171
0.631483
0.642043
0.651893
0.661071
0.669617
0.677569
0.684963
0.691835
0.69822
0.70415
0.709516
0.714521
0.719295
0.72372
0.727769
0.731667
0.735385
0.738932
0.742313
0.745529
0.748579
0.75146
0.754166
0.756691
0.759026
0.761149
0.76307
0.764761
0.766209
0.767397
0.76832
0.768985
0.769426
0.769695
0.769846
0.769925
0.769965
0.769984
0.769993
0.769997
0.769999
0.769999
0.77
0.77
0.77
0.77
0.77
0.77
0.77
0.77
0.77
0.77
2.20678e-06
9.64614e-06
2.21651e-05
4.31606e-05
7.81965e-05
0.000136279
0.000231791
0.000387331
0.000637762
0.00103571
0.00165861
0.002617
0.00406304
0.00619696
0.00926819
0.0135668
0.0194026
0.0270716
0.0368177
0.0487986
0.0630667
0.0795691
0.0981617
0.118631
0.140719
0.164143
0.188614
0.213845
0.23956
0.265504
0.291446
0.317175
0.342511
0.3673
0.391414
0.414752
0.437231
0.458791
0.47939
0.499003
0.517619
0.535241
0.55188
0.567554
0.58229
0.596119
0.609076
0.621197
0.632522
0.64309
0.652943
0.662118
0.670657
0.678596
0.685974
0.692825
0.699185
0.705054
0.710393
0.715486
0.720215
0.724604
0.728611
0.732482
0.73618
0.739709
0.743071
0.746264
0.749288
0.752137
0.754807
0.757289
0.759575
0.761646
0.763507
0.765135
0.766514
0.767633
0.768489
0.769097
0.769493
0.769732
0.769865
0.769934
0.769969
0.769986
0.769994
0.769997
0.769999
0.769999
0.77
0.77
0.77
0.77
0.77
0.77
0.77
0.77
0.77
0.77
2.22348e-06
9.71864e-06
2.23296e-05
4.34754e-05
7.87543e-05
0.000137224
0.000233342
0.00038981
0.000641625
0.00104158
0.00166728
0.00262946
0.00408036
0.00622021
0.00929825
0.0136041
0.0194469
0.0271219
0.0368722
0.0488552
0.0631233
0.0796241
0.0982147
0.118684
0.140778
0.164214
0.188704
0.213963
0.239714
0.265704
0.291696
0.317482
0.34288
0.367734
0.391916
0.415322
0.437869
0.459495
0.480157
0.49983
0.518502
0.536173
0.552855
0.568567
0.583335
0.597189
0.610164
0.622299
0.633631
0.644201
0.65405
0.663217
0.671743
0.679667
0.687026
0.693855
0.700191
0.705992
0.711282
0.716351
0.721054
0.725418
0.729412
0.733275
0.736961
0.740473
0.743813
0.746981
0.749974
0.752787
0.755416
0.757853
0.760088
0.762111
0.763912
0.765476
0.76679
0.767844
0.768639
0.769195
0.769552
0.769764
0.769881
0.769943
0.769973
0.769987
0.769994
0.769997
0.769999
0.77
0.77
0.77
0.77
0.77
0.77
0.77
0.77
0.77
0.77
0.77
2.23664e-06
9.7758e-06
2.24594e-05
4.37244e-05
7.91969e-05
0.000137978
0.000234589
0.000391826
0.000644816
0.00104652
0.00167476
0.00264049
0.00409621
0.00624234
0.00932818
0.0136433
0.0194966
0.0271829
0.036945
0.0489401
0.0632208
0.0797351
0.098341
0.118829
0.140943
0.164406
0.188928
0.214223
0.240017
0.266054
0.292099
0.317941
0.343398
0.368312
0.392556
0.416023
0.43863
0.460314
0.48103
0.500752
0.519469
0.53718
0.553897
0.569637
0.584428
0.598299
0.611285
0.623425
0.634757
0.645323
0.655162
0.664316
0.672825
0.680727
0.688062
0.694866
0.701175
0.70694
0.712196
0.717221
0.721876
0.726194
0.730195
0.734044
0.737711
0.741202
0.744517
0.747656
0.750616
0.753393
0.755981
0.758374
0.760558
0.762529
0.764274
0.76578
0.767034
0.768029
0.768768
0.769278
0.769601
0.769791
0.769895
0.769949
0.769976
0.769989
0.769995
0.769998
0.769999
0.77
0.77
0.77
0.77
0.77
0.77
0.77
0.77
0.77
0.77
0.77
2.24741e-06
9.82257e-06
2.25657e-05
4.39283e-05
7.95597e-05
0.000138597
0.000235617
0.000393496
0.000647475
0.00105068
0.00168114
0.00265008
0.00411031
0.0062626
0.00935658
0.0136821
0.0195481
0.0272496
0.0370293
0.0490441
0.0633466
0.079885
0.0985175
0.119035
0.141182
0.164681
0.189242
0.214581
0.240423
0.26651
0.292607
0.318504
0.344017
0.368988
0.393287
0.416809
0.439468
0.4612
0.481961
0.501725
0.520478
0.53822
0.554962
0.570722
0.585527
0.599408
0.612398
0.624537
0.635863
0.646418
0.656243
0.665378
0.673865
0.681744
0.689051
0.695826
0.7021
0.707804
0.713016
0.718013
0.722642
0.726913
0.730926
0.734759
0.738407
0.741875
0.745164
0.748274
0.751202
0.753944
0.756494
0.758844
0.760978
0.762902
0.764596
0.766049
0.767248
0.768188
0.768879
0.769349
0.769643
0.769814
0.769907
0.769955
0.769979
0.76999
0.769996
0.769998
0.769999
0.77
0.77
0.77
0.77
0.77
0.77
0.77
0.77
0.77
0.77
0.77
2.2567e-06
9.86298e-06
2.26577e-05
4.41054e-05
7.98763e-05
0.000139141
0.000236526
0.000394986
0.000649879
0.00105449
0.00168708
0.00265919
0.00412399
0.0062827
0.00938544
0.0137225
0.0196032
0.0273228
0.0371238
0.0491633
0.0634935
0.0800626
0.0987287
0.119282
0.141469
0.16501
0.189616
0.215002
0.240893
0.267032
0.293181
0.319131
0.344696
0.369719
0.394068
0.417637
0.440341
0.462115
0.482913
0.502709
0.52149
0.539255
0.556015
0.571788
0.586601
0.600484
0.613472
0.625604
0.636919
0.647459
0.657265
0.666379
0.67484
0.68269
0.689967
0.696709
0.702945
0.708601
0.713811
0.718788
0.723389
0.727584
0.731594
0.735409
0.739037
0.742482
0.745747
0.748829
0.751727
0.754436
0.75695
0.759261
0.761353
0.763234
0.764881
0.766284
0.767433
0.768325
0.768973
0.769408
0.769678
0.769833
0.769917
0.76996
0.769981
0.769991
0.769996
0.769998
0.769999
0.77
0.77
0.77
0.77
0.77
0.77
0.77
0.77
0.77
0.77
0.77
2.26501e-06
9.89915e-06
2.27403e-05
4.42647e-05
8.0162e-05
0.000139634
0.000237355
0.000396355
0.000652105
0.00105805
0.00169271
0.00266792
0.0041373
0.00630257
0.00941444
0.0137638
0.0196605
0.0273999
0.0372249
0.0492922
0.0636539
0.0802577
0.0989615
0.119556
0.141785
0.165371
0.190025
0.215459
0.2414
0.267588
0.293788
0.319787
0.345401
0.37047
0.394863
0.418474
0.441216
0.463024
0.483853
0.503674
0.522476
0.540257
0.557029
0.572809
0.587623
0.601503
0.614485
0.626606
0.637907
0.648429
0.658214
0.667303
0.675738
0.683559
0.690804
0.697511
0.703718
0.709279
0.714594
0.719516
0.724073
0.728211
0.732197
0.735991
0.739599
0.743022
0.746263
0.74932
0.75219
0.754868
0.757349
0.759627
0.761686
0.763528
0.765132
0.766489
0.767592
0.768442
0.769052
0.769457
0.769706
0.769848
0.769925
0.769964
0.769983
0.769992
0.769996
0.769998
0.769999
0.77
0.77
0.77
0.77
0.77
0.77
0.77
0.77
0.77
0.77
0.77
2.27263e-06
9.93233e-06
2.28161e-05
4.44115e-05
8.04262e-05
0.000140091
0.000238129
0.000397642
0.000654213
0.00106146
0.00169813
0.00267641
0.00415036
0.00632227
0.00944346
0.0138055
0.0197187
0.027479
0.0373292
0.0494259
0.0638209
0.0804613
0.0992046
0.119841
0.142114
0.165746
0.190446
0.215929
0.241918
0.268154
0.2944
0.320445
0.346103
0.371214
0.395646
0.419292
0.442066
0.463902
0.484755
0.504596
0.523413
0.541205
0.557982
0.573764
0.588576
0.602451
0.615423
0.627531
0.638815
0.649318
0.659081
0.668147
0.676556
0.68435
0.691567
0.698247
0.704403
0.709941
0.71524
0.720138
0.724668
0.728775
0.732738
0.736511
0.740098
0.7435
0.746719
0.749751
0.752594
0.755244
0.757694
0.759936
0.761962
0.763762
0.765332
0.766656
0.767725
0.768539
0.769117
0.769498
0.76973
0.769861
0.769931
0.769967
0.769984
0.769993
0.769997
0.769999
0.769999
0.77
0.77
0.77
0.77
0.77
0.77
0.77
0.77
0.77
0.77
0.77
2.27966e-06
9.96299e-06
2.28863e-05
4.45476e-05
8.06719e-05
0.000140518
0.000238854
0.000398853
0.000656207
0.0010647
0.00170332
0.00268459
0.00416302
0.00634147
0.00947192
0.0138466
0.0197765
0.0275577
0.0374333
0.0495596
0.0639881
0.0806653
0.0994481
0.120126
0.142443
0.166119
0.190865
0.216393
0.242427
0.268707
0.294997
0.321083
0.34678
0.371927
0.396393
0.42007
0.44287
0.464729
0.4856
0.505455
0.524283
0.542081
0.558861
0.574641
0.589449
0.603315
0.616275
0.628368
0.639635
0.650119
0.65986
0.668903
0.677288
0.685056
0.692247
0.6989
0.704996
0.710503
0.715777
0.720652
0.725161
0.729256
0.733205
0.736962
0.740533
0.743917
0.747116
0.750126
0.752944
0.755567
0.757987
0.760196
0.762185
0.763955
0.765492
0.766786
0.767829
0.768618
0.769171
0.769531
0.769749
0.769871
0.769936
0.769969
0.769986
0.769993
0.769997
0.769999
0.769999
0.77
0.77
0.77
0.77
0.77
0.77
0.77
0.77
0.77
0.77
0.77
2.28613e-06
9.99122e-06
2.2951e-05
4.46732e-05
8.08992e-05
0.000140914
0.000239529
0.000399984
0.000658076
0.00106775
0.00170822
0.00269234
0.00417507
0.00635982
0.00949921
0.0138861
0.0198321
0.0276337
0.037534
0.049689
0.0641498
0.0808625
0.0996832
0.120401
0.142759
0.166477
0.191265
0.216835
0.242911
0.269231
0.29556
0.321683
0.347414
0.372593
0.397087
0.420789
0.443611
0.465488
0.486373
0.50624
0.525074
0.542875
0.559654
0.575431
0.590232
0.604088
0.617035
0.629114
0.640364
0.650828
0.660549
0.66957
0.677932
0.685676
0.692843
0.699472
0.705543
0.711023
0.71627
0.721116
0.725592
0.729676
0.733611
0.737353
0.740908
0.744275
0.747455
0.750445
0.753241
0.75584
0.758235
0.760424
0.762398
0.764145
0.765654
0.766915
0.767922
0.768684
0.769216
0.769559
0.769765
0.76988
0.769941
0.769972
0.769987
0.769994
0.769997
0.769999
0.769999
0.77
0.77
0.77
0.77
0.77
0.77
0.77
0.77
0.77
0.77
0.77
2.292e-06
1.00168e-05
2.30097e-05
4.47875e-05
8.11063e-05
0.000141276
0.000240146
0.000401021
0.000659794
0.00107056
0.00171275
0.00269953
0.00418626
0.00637689
0.00952464
0.013923
0.0198841
0.0277048
0.0376281
0.0498101
0.0643011
0.0810467
0.0999026
0.120657
0.143053
0.166809
0.191636
0.217244
0.243356
0.269713
0.296076
0.322231
0.347991
0.373197
0.397715
0.421438
0.444278
0.466169
0.487065
0.506938
0.525777
0.543579
0.560356
0.576128
0.59092
0.604766
0.617701
0.629765
0.640999
0.651445
0.661147
0.670147
0.678488
0.68621
0.693355
0.699959
0.706003
0.711456
0.716677
0.721499
0.725953
0.730034
0.733958
0.737688
0.741228
0.744579
0.747741
0.750712
0.753492
0.756076
0.758458
0.760629
0.76258
0.764304
0.765788
0.767024
0.768006
0.76874
0.769253
0.769582
0.769778
0.769887
0.769944
0.769973
0.769987
0.769994
0.769997
0.769999
0.769999
0.77
0.77
0.77
0.77
0.77
0.77
0.77
0.77
0.77
0.77
0.77
2.2972e-06
1.00395e-05
2.30618e-05
4.48889e-05
8.12902e-05
0.000141598
0.000240696
0.000401946
0.00066133
0.00107307
0.00171681
0.00270598
0.00419633
0.00639228
0.00954759
0.0139564
0.0199311
0.027769
0.0377132
0.0499194
0.0644377
0.0812129
0.1001
0.120887
0.143317
0.167108
0.191968
0.217609
0.243754
0.270142
0.296533
0.322715
0.348501
0.373729
0.398267
0.422007
0.444861
0.466762
0.487667
0.507545
0.526386
0.544187
0.560962
0.576728
0.591512
0.605348
0.618271
0.630321
0.64154
0.65197
0.661654
0.670636
0.678958
0.68666
0.693783
0.700364
0.706384
0.711816
0.717018
0.72182
0.726255
0.730334
0.734249
0.737969
0.741496
0.744836
0.747987
0.750949
0.753716
0.756285
0.758648
0.7608
0.762732
0.764435
0.765899
0.767114
0.768075
0.76879
0.769284
0.7696
0.769788
0.769892
0.769947
0.769975
0.769988
0.769995
0.769998
0.769999
0.77
0.77
0.77
0.77
0.77
0.77
0.77
0.77
0.77
0.77
0.77
0.77
2.30165e-06
1.0059e-05
2.31064e-05
4.49757e-05
8.14479e-05
0.000141874
0.000241168
0.000402742
0.000662654
0.00107524
0.00172032
0.00271157
0.00420505
0.00640561
0.00956748
0.0139852
0.0199718
0.0278247
0.037787
0.0500142
0.064556
0.0813568
0.100271
0.121087
0.143545
0.167364
0.192254
0.217923
0.244095
0.270508
0.296925
0.323129
0.348935
0.374181
0.398735
0.422489
0.445354
0.467264
0.488174
0.508056
0.526897
0.544698
0.561468
0.577228
0.592006
0.605832
0.618745
0.630783
0.641989
0.652404
0.662074
0.67104
0.679344
0.687029
0.694134
0.700702
0.706705
0.712121
0.717307
0.722093
0.726505
0.730583
0.73449
0.738201
0.741722
0.745053
0.748194
0.751144
0.753898
0.756453
0.758802
0.760939
0.762855
0.764542
0.765988
0.767186
0.76813
0.768829
0.76931
0.769615
0.769796
0.769897
0.769949
0.769976
0.769989
0.769995
0.769998
0.769999
0.77
0.77
0.77
0.77
0.77
0.77
0.77
0.77
0.77
0.77
0.77
0.77
2.30528e-06
1.00748e-05
2.31428e-05
4.50466e-05
8.15767e-05
0.000142099
0.000241555
0.000403394
0.000663738
0.00107702
0.0017232
0.00271615
0.00421222
0.00641656
0.00958384
0.014009
0.0200053
0.0278705
0.0378477
0.0500921
0.0646532
0.0814751
0.100412
0.12125
0.143732
0.167575
0.192487
0.21818
0.244373
0.270808
0.297243
0.323466
0.349288
0.374548
0.399115
0.422879
0.445752
0.467668
0.488583
0.508467
0.527308
0.545107
0.561874
0.57763
0.5924
0.606219
0.619123
0.631151
0.642346
0.65275
0.662407
0.671359
0.67965
0.687323
0.694418
0.700974
0.70696
0.712363
0.717537
0.722311
0.726698
0.730778
0.73468
0.738385
0.741899
0.745223
0.748355
0.751296
0.75404
0.756584
0.758923
0.761048
0.762951
0.764625
0.766058
0.767242
0.768173
0.768859
0.76933
0.769628
0.769803
0.7699
0.769951
0.769977
0.769989
0.769995
0.769998
0.769999
0.77
0.77
0.77
0.77
0.77
0.77
0.77
0.77
0.77
0.77
0.77
0.77
2.30803e-06
1.00868e-05
2.31704e-05
4.51004e-05
8.16743e-05
0.00014227
0.000241848
0.000403888
0.000664561
0.00107837
0.00172539
0.00271964
0.00421767
0.00642491
0.0095963
0.0140271
0.0200309
0.0279055
0.037894
0.0501516
0.0647274
0.0815653
0.100519
0.121375
0.143874
0.167735
0.192665
0.218375
0.244585
0.271035
0.297485
0.323721
0.349555
0.374827
0.399402
0.423174
0.446053
0.467974
0.488891
0.508777
0.527618
0.545415
0.562179
0.577931
0.592696
0.606509
0.619405
0.631426
0.642612
0.653007
0.662654
0.671598
0.679882
0.687546
0.694631
0.701176
0.70715
0.712544
0.717708
0.722472
0.72684
0.730923
0.734819
0.738521
0.74203
0.745348
0.748474
0.751408
0.754145
0.756682
0.759011
0.761127
0.763022
0.764686
0.766109
0.767283
0.768203
0.768881
0.769344
0.769637
0.769808
0.769903
0.769952
0.769977
0.769989
0.769995
0.769998
0.769999
0.77
0.77
0.77
0.77
0.77
0.77
0.77
0.77
0.77
0.77
0.77
0.77
2.30987e-06
1.00948e-05
2.31888e-05
4.51362e-05
8.17394e-05
0.000142384
0.000242043
0.000404218
0.000665109
0.00107927
0.00172684
0.00272196
0.0042213
0.00643047
0.00960461
0.0140392
0.020048
0.0279288
0.037925
0.0501914
0.0647772
0.0816258
0.100591
0.121458
0.14397
0.167843
0.192785
0.218506
0.244728
0.271188
0.297648
0.323893
0.349735
0.375013
0.399595
0.423371
0.446254
0.468178
0.489097
0.508983
0.527824
0.54562
0.562382
0.578131
0.592893
0.606701
0.619593
0.631608
0.642789
0.653179
0.662821
0.67176
0.680036
0.687694
0.694772
0.701311
0.707277
0.712664
0.717822
0.722579
0.726934
0.731018
0.734912
0.738611
0.742116
0.74543
0.748553
0.751482
0.754214
0.756746
0.75907
0.76118
0.763068
0.764726
0.766142
0.767309
0.768224
0.768895
0.769353
0.769642
0.769811
0.769904
0.769953
0.769978
0.769989
0.769995
0.769998
0.769999
0.77
0.77
0.77
0.77
0.77
0.77
0.77
0.77
0.77
0.77
0.77
0.77
2.31078e-06
1.00988e-05
2.31978e-05
4.51538e-05
8.17712e-05
0.00014244
0.000242138
0.000404377
0.000665373
0.00107971
0.00172754
0.00272306
0.00422303
0.00643311
0.00960857
0.014045
0.0200561
0.02794
0.0379398
0.0502105
0.0648011
0.081655
0.100626
0.121499
0.144017
0.167896
0.192844
0.21857
0.244797
0.271263
0.297728
0.323977
0.349823
0.375105
0.39969
0.423469
0.446354
0.468279
0.489199
0.509086
0.527927
0.545722
0.562484
0.578231
0.592991
0.606797
0.619687
0.6317
0.642878
0.653265
0.662905
0.67184
0.680113
0.687767
0.694842
0.701378
0.70734
0.712723
0.717878
0.722633
0.726981
0.731066
0.734958
0.738655
0.742159
0.745471
0.748592
0.751519
0.754249
0.756777
0.759099
0.761206
0.763091
0.764745
0.766159
0.767322
0.768233
0.768902
0.769358
0.769645
0.769813
0.769905
0.769954
0.769978
0.76999
0.769995
0.769998
0.769999
0.77
0.77
0.77
0.77
0.77
0.77
0.77
0.77
0.77
0.77
0.77
0.77
2.31081e-06
1.00989e-05
2.31981e-05
4.51543e-05
8.17721e-05
0.000142441
0.000242141
0.000404381
0.000665381
0.00107972
0.00172756
0.0027231
0.00422308
0.00643319
0.00960869
0.0140451
0.0200563
0.0279403
0.0379402
0.0502111
0.0648017
0.0816557
0.100626
0.1215
0.144018
0.167897
0.192845
0.218572
0.244799
0.271264
0.297729
0.323979
0.349825
0.375107
0.399692
0.42347
0.446355
0.468281
0.4892
0.509087
0.527928
0.545723
0.562485
0.578232
0.592992
0.606798
0.619688
0.631701
0.642879
0.653266
0.662905
0.67184
0.680114
0.687768
0.694843
0.701378
0.70734
0.712724
0.717879
0.722633
0.726981
0.731066
0.734959
0.738655
0.742159
0.745471
0.748592
0.751519
0.754249
0.756777
0.759099
0.761206
0.763091
0.764745
0.766159
0.767322
0.768233
0.768902
0.769358
0.769645
0.769813
0.769905
0.769954
0.769978
0.76999
0.769995
0.769998
0.769999
0.77
0.77
0.77
0.77
0.77
0.77
0.77
0.77
0.77
0.77
0.77
0.77
2.30995e-06
1.00952e-05
2.31896e-05
4.51378e-05
8.17423e-05
0.000142389
0.000242052
0.000404232
0.000665134
0.00107931
0.00172691
0.00272206
0.00422146
0.0064307
0.00960496
0.0140397
0.0200487
0.0279297
0.0379262
0.0501929
0.064779
0.0816279
0.100593
0.121461
0.143973
0.167846
0.192789
0.21851
0.244731
0.271192
0.297652
0.323897
0.349739
0.375017
0.399599
0.423375
0.446258
0.468182
0.4891
0.508986
0.527827
0.545623
0.562385
0.578133
0.592895
0.606703
0.619595
0.63161
0.642791
0.653181
0.662823
0.671761
0.680038
0.687695
0.694773
0.701312
0.707278
0.712665
0.717823
0.72258
0.726935
0.731019
0.734913
0.738611
0.742117
0.745431
0.748553
0.751482
0.754215
0.756746
0.75907
0.76118
0.763069
0.764726
0.766143
0.767309
0.768224
0.768895
0.769353
0.769642
0.769811
0.769904
0.769953
0.769978
0.769989
0.769995
0.769998
0.769999
0.77
0.77
0.77
0.77
0.77
0.77
0.77
0.77
0.77
0.77
0.77
0.77
2.30817e-06
1.00874e-05
2.31718e-05
4.51031e-05
8.16794e-05
0.000142279
0.000241863
0.000403914
0.000664604
0.00107845
0.0017255
0.00271982
0.00421795
0.00642533
0.00959693
0.014028
0.0200321
0.0279071
0.0378961
0.0501543
0.0647307
0.0815691
0.100523
0.12138
0.14388
0.167741
0.192671
0.218381
0.244592
0.271042
0.297492
0.323728
0.349562
0.374833
0.399409
0.42318
0.446059
0.46798
0.488897
0.508782
0.527623
0.54542
0.562184
0.577935
0.5927
0.606513
0.619409
0.631429
0.642615
0.65301
0.662657
0.671601
0.679884
0.687548
0.694633
0.701178
0.707152
0.712545
0.71771
0.722473
0.726841
0.730924
0.73482
0.738522
0.742031
0.745349
0.748475
0.751409
0.754146
0.756682
0.759012
0.761128
0.763022
0.764686
0.766109
0.767283
0.768204
0.768881
0.769344
0.769637
0.769808
0.769903
0.769952
0.769977
0.769989
0.769995
0.769998
0.769999
0.77
0.77
0.77
0.77
0.77
0.77
0.77
0.77
0.77
0.77
0.77
0.77
2.30548e-06
1.00757e-05
2.31448e-05
4.50506e-05
8.1584e-05
0.000142112
0.000241577
0.000403431
0.0006638
0.00107712
0.00172336
0.00271641
0.00421261
0.00641716
0.00958472
0.0140103
0.0200071
0.0278728
0.0378507
0.0500959
0.0646577
0.0814804
0.100418
0.121257
0.143739
0.167583
0.192496
0.218188
0.244382
0.270817
0.297253
0.323475
0.349297
0.374557
0.399124
0.422887
0.44576
0.467677
0.488591
0.508474
0.527316
0.545114
0.561881
0.577636
0.592406
0.606225
0.619128
0.631156
0.64235
0.652754
0.662411
0.671363
0.679654
0.687326
0.694421
0.700976
0.706962
0.712365
0.717539
0.722312
0.726699
0.73078
0.734681
0.738387
0.7419
0.745224
0.748357
0.751297
0.754041
0.756585
0.758923
0.761048
0.762952
0.764625
0.766058
0.767242
0.768173
0.76886
0.76933
0.769628
0.769803
0.7699
0.769951
0.769977
0.769989
0.769995
0.769998
0.769999
0.77
0.77
0.77
0.77
0.77
0.77
0.77
0.77
0.77
0.77
0.77
0.77
2.30192e-06
1.00601e-05
2.31091e-05
4.4981e-05
8.14574e-05
0.00014189
0.000241197
0.000402791
0.000662735
0.00107538
0.00172053
0.0027119
0.00420557
0.00640638
0.00956862
0.0139869
0.019974
0.0278277
0.0377908
0.050019
0.0645617
0.0813636
0.100279
0.121095
0.143554
0.167375
0.192264
0.217934
0.244106
0.27052
0.296936
0.323141
0.348947
0.374193
0.398747
0.4225
0.445364
0.467274
0.488184
0.508066
0.526906
0.544706
0.561476
0.577236
0.592013
0.605839
0.618751
0.630789
0.641994
0.65241
0.662079
0.671045
0.679349
0.687033
0.694138
0.700705
0.706708
0.712124
0.71731
0.722095
0.726507
0.730585
0.734492
0.738203
0.741724
0.745055
0.748196
0.751145
0.753899
0.756454
0.758803
0.76094
0.762856
0.764542
0.765989
0.767186
0.76813
0.76883
0.76931
0.769615
0.769796
0.769897
0.769949
0.769976
0.769989
0.769995
0.769998
0.769999
0.77
0.77
0.77
0.77
0.77
0.77
0.77
0.77
0.77
0.77
0.77
0.77
2.29753e-06
1.0041e-05
2.30651e-05
4.48954e-05
8.1302e-05
0.000141618
0.000240731
0.000402006
0.00066143
0.00107324
0.00171707
0.00270639
0.00419697
0.00639323
0.00954899
0.0139583
0.0199338
0.0277726
0.0377179
0.0499253
0.0644447
0.0812212
0.10011
0.120898
0.143329
0.16712
0.191981
0.217623
0.243768
0.270156
0.296548
0.32273
0.348515
0.373743
0.398281
0.422021
0.444874
0.466775
0.487679
0.507557
0.526397
0.544198
0.560972
0.576737
0.591521
0.605357
0.618279
0.630329
0.641547
0.651977
0.661661
0.670642
0.678963
0.686665
0.693787
0.700368
0.706388
0.711819
0.717021
0.721823
0.726257
0.730337
0.734251
0.737971
0.741498
0.744838
0.747989
0.750951
0.753718
0.756286
0.75865
0.760802
0.762733
0.764436
0.7659
0.767115
0.768076
0.76879
0.769284
0.7696
0.769788
0.769892
0.769947
0.769975
0.769988
0.769995
0.769998
0.769999
0.77
0.77
0.77
0.77
0.77
0.77
0.77
0.77
0.77
0.77
0.77
0.77
2.2924e-06
1.00186e-05
2.30137e-05
4.47953e-05
8.11205e-05
0.000141301
0.000240189
0.000401093
0.000659914
0.00107075
0.00171306
0.00270002
0.00418702
0.00637803
0.00952631
0.0139254
0.0198874
0.0277091
0.0376337
0.049817
0.0643095
0.0810566
0.0999139
0.120669
0.143067
0.166824
0.191652
0.21726
0.243373
0.26973
0.296093
0.322248
0.348008
0.373214
0.397732
0.421454
0.444294
0.466184
0.48708
0.506953
0.52579
0.543592
0.560369
0.57614
0.590931
0.604776
0.617711
0.629774
0.641007
0.651453
0.661154
0.670154
0.678494
0.686216
0.69336
0.699965
0.706008
0.71146
0.716681
0.721502
0.725956
0.730037
0.733961
0.737691
0.741231
0.744581
0.747743
0.750715
0.753494
0.756078
0.75846
0.760631
0.762582
0.764305
0.765789
0.767025
0.768007
0.768741
0.769253
0.769582
0.769778
0.769887
0.769944
0.769973
0.769987
0.769994
0.769997
0.769999
0.769999
0.77
0.77
0.77
0.77
0.77
0.77
0.77
0.77
0.77
0.77
0.77
2.2866e-06
9.99327e-06
2.29557e-05
4.46824e-05
8.0916e-05
0.000140944
0.000239579
0.000400068
0.000658216
0.00106798
0.00170858
0.00269292
0.00417595
0.00636114
0.00950115
0.0138889
0.0198359
0.0276387
0.0375404
0.0496971
0.0641595
0.0808739
0.0996962
0.120415
0.142775
0.166494
0.191283
0.216854
0.24293
0.269252
0.29558
0.321703
0.347434
0.372613
0.397107
0.420808
0.44363
0.465506
0.486391
0.506256
0.52509
0.54289
0.559669
0.575445
0.590245
0.6041
0.617047
0.629124
0.640374
0.650837
0.660558
0.669578
0.677939
0.685683
0.69285
0.699478
0.705549
0.711028
0.716275
0.72112
0.725595
0.729679
0.733614
0.737356
0.740911
0.744278
0.747458
0.750447
0.753243
0.755842
0.758237
0.760425
0.7624
0.764146
0.765655
0.766916
0.767923
0.768684
0.769217
0.76956
0.769765
0.76988
0.769941
0.769972
0.769987
0.769994
0.769997
0.769999
0.769999
0.77
0.77
0.77
0.77
0.77
0.77
0.77
0.77
0.77
0.77
0.77
2.2802e-06
9.96536e-06
2.28917e-05
4.45582e-05
8.06913e-05
0.000140552
0.000238912
0.00039895
0.000656368
0.00106496
0.00170374
0.00268525
0.00416403
0.00634299
0.00947415
0.0138498
0.0197808
0.0275635
0.0374407
0.0495689
0.0639992
0.0806783
0.0994629
0.120142
0.142461
0.166139
0.190886
0.216414
0.242449
0.26873
0.29502
0.321107
0.346803
0.37195
0.396415
0.420092
0.442892
0.464749
0.48562
0.505475
0.524301
0.542099
0.558878
0.574657
0.589464
0.603328
0.616288
0.62838
0.639647
0.650129
0.65987
0.668912
0.677296
0.685064
0.692254
0.698907
0.705002
0.710508
0.715782
0.720657
0.725166
0.72926
0.733209
0.736966
0.740536
0.74392
0.747118
0.750128
0.752947
0.755569
0.757989
0.760197
0.762187
0.763956
0.765493
0.766787
0.76783
0.768618
0.769172
0.769532
0.769749
0.769871
0.769936
0.769969
0.769986
0.769993
0.769997
0.769999
0.769999
0.77
0.77
0.77
0.77
0.77
0.77
0.77
0.77
0.77
0.77
0.77
2.27325e-06
9.93502e-06
2.28223e-05
4.44236e-05
8.04482e-05
0.00014013
0.000238195
0.000397753
0.000654396
0.00106176
0.00169861
0.00267716
0.00415151
0.00632399
0.00944598
0.0138091
0.0197236
0.0274855
0.0373376
0.0494363
0.0638334
0.080476
0.0992214
0.119859
0.142135
0.165768
0.19047
0.215953
0.241943
0.26818
0.294427
0.320472
0.346129
0.37124
0.395671
0.419317
0.442091
0.463926
0.484777
0.504618
0.523434
0.541224
0.558001
0.573782
0.588593
0.602467
0.615437
0.627544
0.638828
0.64933
0.659092
0.668157
0.676565
0.684358
0.691575
0.698254
0.70441
0.709947
0.715245
0.720143
0.724673
0.72878
0.732742
0.736515
0.740101
0.743504
0.746722
0.749754
0.752597
0.755246
0.757696
0.759938
0.761963
0.763764
0.765333
0.766658
0.767726
0.768539
0.769118
0.769498
0.76973
0.769861
0.769931
0.769967
0.769984
0.769993
0.769997
0.769999
0.769999
0.77
0.77
0.77
0.77
0.77
0.77
0.77
0.77
0.77
0.77
0.77
2.26571e-06
9.9022e-06
2.27473e-05
4.42784e-05
8.01869e-05
0.000139677
0.000237429
0.00039648
0.000652311
0.00105839
0.00169324
0.00266876
0.00413858
0.0063045
0.00941725
0.0137678
0.0196659
0.0274072
0.0372342
0.0493038
0.0636679
0.0802741
0.0989802
0.119576
0.141808
0.165396
0.190051
0.215487
0.241428
0.267617
0.293817
0.319817
0.34543
0.370499
0.394892
0.418502
0.441244
0.463051
0.483878
0.503699
0.522499
0.54028
0.55705
0.572828
0.587642
0.601521
0.614502
0.626622
0.637922
0.648442
0.658226
0.667315
0.675749
0.683569
0.690813
0.69752
0.703725
0.709286
0.7146
0.719522
0.724078
0.728216
0.732201
0.735995
0.739603
0.743026
0.746267
0.749323
0.752193
0.754871
0.757352
0.759629
0.761688
0.76353
0.765134
0.76649
0.767593
0.768443
0.769053
0.769458
0.769706
0.769848
0.769925
0.769964
0.769983
0.769992
0.769996
0.769998
0.769999
0.77
0.77
0.77
0.77
0.77
0.77
0.77
0.77
0.77
0.77
0.77
2.25748e-06
9.86638e-06
2.26656e-05
4.41207e-05
7.9904e-05
0.000139189
0.000236609
0.000395125
0.000650108
0.00105486
0.00168767
0.00266011
0.00412541
0.00628483
0.00938855
0.0137269
0.0196093
0.0273308
0.0371342
0.0491761
0.063509
0.0800808
0.0987494
0.119305
0.141494
0.165037
0.189645
0.215033
0.240925
0.267064
0.293214
0.319163
0.344728
0.369751
0.394099
0.417668
0.440371
0.462144
0.482941
0.502736
0.521516
0.53928
0.556038
0.57181
0.586621
0.600503
0.61349
0.625621
0.636935
0.647474
0.657279
0.666391
0.674852
0.682701
0.689977
0.696718
0.702953
0.708609
0.713818
0.718796
0.723396
0.727588
0.731598
0.735413
0.739041
0.742487
0.745751
0.748833
0.75173
0.754439
0.756952
0.759264
0.761356
0.763236
0.764883
0.766285
0.767434
0.768326
0.768974
0.769408
0.769678
0.769833
0.769917
0.76996
0.769981
0.769991
0.769996
0.769998
0.769999
0.77
0.77
0.77
0.77
0.77
0.77
0.77
0.77
0.77
0.77
0.77
2.24828e-06
9.82635e-06
2.25744e-05
4.39452e-05
7.95904e-05
0.000138651
0.000235708
0.000393649
0.000647728
0.00105108
0.00168179
0.0026511
0.00411188
0.00626495
0.00936001
0.013687
0.0195548
0.0272585
0.0370407
0.0490583
0.0633637
0.079905
0.0985404
0.11906
0.14121
0.164711
0.189274
0.214614
0.240457
0.266545
0.292643
0.31854
0.344052
0.369023
0.393322
0.416843
0.439501
0.461232
0.481992
0.501754
0.520506
0.538247
0.554987
0.570747
0.58555
0.599429
0.612418
0.624555
0.63588
0.646434
0.656257
0.665392
0.673878
0.681755
0.689062
0.695836
0.702109
0.707812
0.713025
0.718023
0.722655
0.726921
0.730933
0.734764
0.738412
0.741879
0.745168
0.748278
0.751206
0.753947
0.756497
0.758847
0.760981
0.762905
0.764598
0.76605
0.767249
0.768189
0.76888
0.769349
0.769643