/*--------------------------------*- C++ -*----------------------------------*\
  =========                 |
  \\      /  F ield         | OpenFOAM: The Open Source CFD Toolbox
   \\    /   O peration     | Website:  https://openfoam.org
    \\  /    A nd           | Version:  8
     \\/     M anipulation  |
\*---------------------------------------------------------------------------*/
FoamFile
{
    version     2.0;
    format      ascii;
    class       volScalarField;
    location    "360/fluid";
    object      O2;
}
// * * * * * * * * * * * * * * * * * * * * * * * * * * * * * * * * * * * * * //

dimensions      [0 0 0 0 0 0 0];

internalField   nonuniform List<scalar> 
4000
(
4.21406e-10
1.83938e-09
4.21396e-09
8.16996e-09
1.47213e-08
2.54943e-08
4.30632e-08
7.14367e-08
1.16741e-07
1.88128e-07
2.98899e-07
4.67759e-07
7.19938e-07
1.08775e-06
1.60993e-06
2.32909e-06
3.28714e-06
4.51927e-06
6.04847e-06
7.85815e-06
9.9184e-06
1.21987e-05
1.46475e-05
1.72051e-05
1.98063e-05
2.23893e-05
2.48974e-05
2.72809e-05
2.94974e-05
3.15131e-05
3.33038e-05
3.48572e-05
3.61776e-05
3.72948e-05
3.82788e-05
3.92428e-05
4.03403e-05
4.18367e-05
4.41256e-05
4.76442e-05
5.29491e-05
6.0745e-05
7.19274e-05
8.76408e-05
0.000109356
0.000138973
0.00017896
0.000232539
0.000303919
0.00039861
0.000523828
0.000689015
0.000906533
0.00119257
0.00156831
0.00206156
0.00270882
0.00355814
0.00465437
0.00608323
0.00800707
0.0105394
0.0138847
0.0224155
0.039063
0.0558465
0.0725269
0.0889138
0.104853
0.120219
0.134906
0.148824
0.16189
0.174025
0.185115
0.19514
0.203958
0.211465
0.217566
0.222215
0.225476
0.227556
0.228763
0.229406
0.229724
0.229875
0.229945
0.229976
0.22999
0.229996
0.229998
0.229999
0.23
0.23
0.23
0.23
0.23
0.23
0.23
0.23
4.31693e-10
1.88575e-09
4.3263e-09
8.40364e-09
1.51754e-08
2.63409e-08
4.45916e-08
7.41182e-08
1.21315e-07
1.95707e-07
3.11087e-07
4.86742e-07
7.48531e-07
1.12935e-06
1.66824e-06
2.40759e-06
3.38814e-06
4.64204e-06
6.18547e-06
8.03605e-06
1.01507e-05
1.25025e-05
1.50271e-05
1.76582e-05
2.03331e-05
2.29902e-05
2.55722e-05
2.80281e-05
3.03138e-05
3.23934e-05
3.42425e-05
3.58487e-05
3.7214e-05
3.83562e-05
3.93403e-05
4.02959e-05
4.1433e-05
4.30828e-05
4.55478e-05
4.92917e-05
5.48956e-05
6.30875e-05
7.4786e-05
9.11593e-05
0.000113704
0.000144352
0.00018561
0.000240745
0.00031402
0.00041101
0.000538995
0.000707487
0.000928907
0.00121947
0.00160038
0.00209933
0.00275264
0.00360797
0.00470875
0.00613931
0.00806169
0.0105858
0.0139112
0.0243454
0.041015
0.0578348
0.0745566
0.0909831
0.106956
0.122345
0.137042
0.150951
0.163986
0.176059
0.187087
0.196972
0.205601
0.212866
0.218678
0.223018
0.225992
0.22785
0.228912
0.229475
0.229754
0.229887
0.22995
0.229978
0.22999
0.229996
0.229998
0.229999
0.23
0.23
0.23
0.23
0.23
0.23
0.23
0.23
4.47008e-10
1.95354e-09
4.48562e-09
8.72242e-09
1.5769e-08
2.74003e-08
4.64253e-08
7.72107e-08
1.26406e-07
2.03892e-07
3.23935e-07
5.06416e-07
7.77894e-07
1.17199e-06
1.72856e-06
2.49092e-06
3.50081e-06
4.79216e-06
6.38566e-06
8.28874e-06
1.04919e-05
1.29255e-05
1.55307e-05
1.82503e-05
2.10206e-05
2.37778e-05
2.64616e-05
2.90175e-05
3.13971e-05
3.35572e-05
3.54713e-05
3.71268e-05
3.85229e-05
3.96868e-05
4.07696e-05
4.18892e-05
4.32578e-05
4.51029e-05
4.78215e-05
5.19109e-05
5.79861e-05
6.68102e-05
7.93388e-05
9.67812e-05
0.000120684
0.000153039
0.000196431
0.000254228
0.00033082
0.000431938
0.000565056
0.000739918
0.000969214
0.00126946
0.00166215
0.00217526
0.00284528
0.0037199
0.00483523
0.00628202
0.00822703
0.0107824
0.0141528
0.0274339
0.044111
0.0609697
0.0777308
0.094181
0.110153
0.125513
0.140148
0.15396
0.166857
0.178718
0.189521
0.199123
0.20742
0.214316
0.219748
0.223736
0.226426
0.228087
0.22903
0.22953
0.229779
0.229898
0.229954
0.22998
0.229991
0.229996
0.229998
0.229999
0.23
0.23
0.23
0.23
0.23
0.23
0.23
0.23
4.62195e-10
2.02005e-09
4.63898e-09
9.02216e-09
1.63133e-08
2.83488e-08
4.80322e-08
7.98746e-08
1.30741e-07
2.10826e-07
3.34847e-07
5.23321e-07
8.03672e-07
1.21067e-06
1.78553e-06
2.57294e-06
3.61569e-06
4.9474e-06
6.5848e-06
8.52141e-06
1.07582e-05
1.3268e-05
1.59725e-05
1.88022e-05
2.16884e-05
2.45641e-05
2.7365e-05
3.00308e-05
3.25056e-05
3.47366e-05
3.67731e-05
3.85849e-05
4.01775e-05
4.16015e-05
4.28649e-05
4.41279e-05
4.56224e-05
4.76678e-05
5.06847e-05
5.5201e-05
6.18676e-05
7.1488e-05
8.50632e-05
0.000103857
0.000129483
0.000164024
0.000210183
0.000271487
0.000352539
0.000459357
0.000599801
0.000784126
0.0010257
0.00134194
0.00175544
0.00229553
0.00300009
0.00391783
0.00507841
0.00658597
0.00857583
0.0111184
0.0142954
0.0306762
0.0475534
0.0645488
0.0813863
0.0978572
0.113799
0.129081
0.143592
0.157237
0.169924
0.181511
0.192022
0.201291
0.209224
0.215737
0.22079
0.224437
0.226855
0.228327
0.229154
0.22959
0.229807
0.229911
0.22996
0.229982
0.229992
0.229997
0.229999
0.229999
0.23
0.23
0.23
0.23
0.23
0.23
0.23
0.23
4.76692e-10
2.0834e-09
4.78459e-09
9.30588e-09
1.68277e-08
2.92453e-08
4.95559e-08
8.24162e-08
1.34912e-07
2.17571e-07
3.4559e-07
5.40166e-07
8.29658e-07
1.25008e-06
1.84423e-06
2.65877e-06
3.73884e-06
5.12081e-06
6.82461e-06
8.84795e-06
1.11636e-05
1.37184e-05
1.64869e-05
1.94038e-05
2.2399e-05
2.54041e-05
2.83564e-05
3.12023e-05
3.39017e-05
3.64337e-05
3.86923e-05
4.06753e-05
4.23958e-05
4.38961e-05
4.52648e-05
4.66626e-05
4.83368e-05
5.06366e-05
5.40167e-05
5.90431e-05
6.64079e-05
7.69594e-05
9.17499e-05
0.000112105
0.000139719
0.000176781
0.000226139
0.000291519
0.000377802
0.000491395
0.000640709
0.000836799
0.0010942
0.00143206
0.00187561
0.00245816
0.00322383
0.00422594
0.00552191
0.00727344
0.00958314
0.0126318
0.0165872
0.033705
0.0510013
0.0682255
0.0851656
0.101649
0.117533
0.1327
0.147048
0.160485
0.172923
0.184233
0.194423
0.20334
0.210898
0.217031
0.22172
0.225049
0.227223
0.228529
0.229258
0.22964
0.22983
0.229922
0.229964
0.229984
0.229993
0.229997
0.229999
0.229999
0.23
0.23
0.23
0.23
0.23
0.23
0.23
0.23
4.90312e-10
2.14286e-09
4.92099e-09
9.57108e-09
1.73075e-08
3.00808e-08
5.09761e-08
8.47878e-08
1.38815e-07
2.23908e-07
3.55738e-07
5.56195e-07
8.54601e-07
1.28828e-06
1.90176e-06
2.74384e-06
3.86226e-06
5.29639e-06
7.06965e-06
9.18405e-06
1.16184e-05
1.4331e-05
1.72651e-05
2.03545e-05
2.35284e-05
2.67168e-05
2.98528e-05
3.28758e-05
3.57323e-05
3.83768e-05
4.07716e-05
4.28969e-05
4.47574e-05
4.63959e-05
4.79123e-05
4.94845e-05
5.13845e-05
5.39938e-05
5.78052e-05
6.34255e-05
7.15902e-05
8.31937e-05
9.93401e-05
0.000121419
0.000151203
0.000190989
0.000243763
0.00031344
0.000405153
0.000525653
0.000683829
0.000891407
0.00116389
0.00152184
0.00199263
0.00261288
0.00343195
0.00450331
0.0059034
0.00783373
0.0104347
0.0139803
0.0199001
0.0372609
0.0547206
0.0720235
0.0889704
0.1054
0.121179
0.136194
0.150349
0.163554
0.175725
0.186783
0.196643
0.205213
0.212413
0.218188
0.222543
0.225587
0.227545
0.228707
0.22935
0.229685
0.229851
0.229931
0.229969
0.229986
0.229994
0.229997
0.229999
0.23
0.23
0.23
0.23
0.23
0.23
0.23
0.23
0.23
5.03353e-10
2.1998e-09
5.05173e-09
9.8256e-09
1.7769e-08
3.08867e-08
5.23511e-08
8.70952e-08
1.42634e-07
2.30148e-07
3.65802e-07
5.72199e-07
8.79673e-07
1.32691e-06
1.9602e-06
2.8305e-06
3.98803e-06
5.47479e-06
7.31676e-06
9.51816e-06
1.20594e-05
1.48992e-05
1.79798e-05
2.12326e-05
2.45842e-05
2.79608e-05
3.1292e-05
3.45126e-05
3.75648e-05
4.04e-05
4.29807e-05
4.52861e-05
4.73216e-05
4.91344e-05
5.08361e-05
5.26247e-05
5.48004e-05
5.77808e-05
6.20997e-05
6.8407e-05
7.74824e-05
9.02667e-05
0.000107917
0.000131883
0.00016402
0.000206718
0.000263092
0.000337208
0.000434394
0.000561631
0.000728085
0.000945796
0.0012306
0.00160338
0.00209165
0.00273184
0.00357217
0.00466103
0.00606967
0.00798038
0.0104962
0.0138101
0.0238821
0.0411657
0.0585667
0.0758065
0.09267
0.108988
0.124625
0.139468
0.15342
0.166394
0.178295
0.189077
0.198634
0.206882
0.213752
0.2192
0.223253
0.226045
0.227816
0.228856
0.229427
0.229722
0.229869
0.229939
0.229972
0.229988
0.229995
0.229998
0.229999
0.23
0.23
0.23
0.23
0.23
0.23
0.23
0.23
0.23
5.1596e-10
2.25487e-09
5.17823e-09
1.00721e-08
1.82166e-08
3.16697e-08
5.36903e-08
8.93497e-08
1.4638e-07
2.36296e-07
3.75768e-07
5.88141e-07
9.04797e-07
1.36586e-06
2.01949e-06
2.91894e-06
4.11704e-06
5.65852e-06
7.57194e-06
9.86363e-06
1.25154e-05
1.54865e-05
1.87186e-05
2.21418e-05
2.56805e-05
2.92582e-05
3.28009e-05
3.62399e-05
3.95138e-05
4.25701e-05
4.53687e-05
4.78868e-05
5.01306e-05
5.21532e-05
5.40799e-05
5.61319e-05
5.86405e-05
6.20635e-05
6.69787e-05
7.4081e-05
8.41961e-05
9.83138e-05
0.000117647
0.000143715
0.000178456
0.000224368
0.000284698
0.000363677
0.000466826
0.000601359
0.000776704
0.00100519
0.00130296
0.00169113
0.00219745
0.00285833
0.00372101
0.00482823
0.00625736
0.00819255
0.0107357
0.0140767
0.0276043
0.044828
0.0621654
0.0793282
0.0960944
0.112291
0.127781
0.142451
0.156207
0.168962
0.180599
0.191123
0.2004
0.208355
0.214923
0.220076
0.22386
0.226433
0.228044
0.228981
0.229491
0.229754
0.229884
0.229946
0.229976
0.229989
0.229995
0.229998
0.229999
0.23
0.23
0.23
0.23
0.23
0.23
0.23
0.23
0.23
5.2824e-10
2.30854e-09
5.30158e-09
1.03127e-08
1.86543e-08
3.24372e-08
5.50068e-08
9.15734e-08
1.50089e-07
2.4241e-07
3.85726e-07
6.04146e-07
9.30153e-07
1.40538e-06
2.07995e-06
3.00955e-06
4.24982e-06
5.84842e-06
7.83674e-06
1.02234e-05
1.29919e-05
1.61021e-05
1.94955e-05
2.3101e-05
2.68414e-05
3.06373e-05
3.44117e-05
3.80924e-05
4.16141e-05
4.49206e-05
4.79683e-05
5.07326e-05
5.32206e-05
5.54924e-05
5.76895e-05
6.00591e-05
6.29668e-05
6.69143e-05
7.25255e-05
8.05427e-05
9.18396e-05
0.000107459
0.000128678
0.000157095
0.000194749
0.000244272
0.000309075
0.000393601
0.000503637
0.00064673
0.000832717
0.00107443
0.0013886
0.00179708
0.00232836
0.0030197
0.0039177
0.00506498
0.00655044
0.00854401
0.0111423
0.0144933
0.0308135
0.0480159
0.0653337
0.082454
0.0991474
0.115241
0.130598
0.145111
0.158687
0.171242
0.182653
0.192941
0.201961
0.209645
0.215939
0.220827
0.224375
0.226758
0.228234
0.229084
0.229544
0.22978
0.229896
0.229952
0.229978
0.22999
0.229996
0.229998
0.229999
0.23
0.23
0.23
0.23
0.23
0.23
0.23
0.23
0.23
5.40202e-10
2.36082e-09
5.42186e-09
1.05476e-08
1.90821e-08
3.31887e-08
5.62988e-08
9.37616e-08
1.53751e-07
2.48468e-07
3.9563e-07
6.20134e-07
9.55593e-07
1.44521e-06
2.14117e-06
3.10176e-06
4.38558e-06
6.04349e-06
8.10996e-06
1.05963e-05
1.34878e-05
1.67455e-05
2.03109e-05
2.41123e-05
2.80706e-05
3.21041e-05
3.6133e-05
4.00814e-05
4.38802e-05
4.74693e-05
5.08015e-05
5.385e-05
5.66234e-05
5.91901e-05
6.17103e-05
6.44602e-05
6.78424e-05
7.24042e-05
7.88167e-05
8.78697e-05
0.000100486
0.000117767
0.000141057
0.000172046
0.000212893
0.000266382
0.000336132
0.000426851
0.000544679
0.000697627
0.000896152
0.00115391
0.00148872
0.0019239
0.00248986
0.00322634
0.00418508
0.00539466
0.00701902
0.00913395
0.0118828
0.0153784
0.032805
0.0504159
0.0679298
0.0851182
0.101798
0.117822
0.133071
0.147446
0.160861
0.173239
0.184477
0.194558
0.203341
0.210772
0.216813
0.221466
0.224808
0.227028
0.22839
0.229168
0.229587
0.229801
0.229906
0.229957
0.22998
0.229991
0.229996
0.229998
0.229999
0.23
0.23
0.23
0.23
0.23
0.23
0.23
0.23
0.23
5.51797e-10
2.41152e-09
5.53854e-09
1.07757e-08
1.94981e-08
3.39208e-08
5.756e-08
9.59032e-08
1.57345e-07
2.54432e-07
4.05417e-07
6.35992e-07
9.80928e-07
1.48504e-06
2.20267e-06
3.19478e-06
4.52314e-06
6.24206e-06
8.38935e-06
1.09793e-05
1.39997e-05
1.74128e-05
2.11608e-05
2.51716e-05
2.93647e-05
3.36566e-05
3.79644e-05
4.22093e-05
4.6318e-05
5.02266e-05
5.3884e-05
5.72614e-05
6.0369e-05
6.32851e-05
6.6191e-05
6.93941e-05
7.33347e-05
7.86057e-05
8.59239e-05
9.6124e-05
0.000110177
0.000129238
0.000154724
0.000188418
0.000232596
0.000290205
0.00036507
0.000462181
0.000588054
0.000751209
0.000962813
0.00123751
0.00159458
0.00205942
0.00266562
0.00345782
0.00449329
0.00581457
0.00761046
0.0099807
0.0131259
0.017239
0.034931
0.0527089
0.0703049
0.0875081
0.104151
0.120097
0.135237
0.149477
0.162734
0.174931
0.185988
0.195842
0.204437
0.211691
0.217543
0.221998
0.225167
0.227251
0.228519
0.229238
0.229622
0.229818
0.229914
0.22996
0.229982
0.229992
0.229996
0.229998
0.229999
0.23
0.23
0.23
0.23
0.23
0.23
0.23
0.23
0.23
5.62927e-10
2.46019e-09
5.65063e-09
1.0995e-08
1.98985e-08
3.46265e-08
5.87783e-08
9.79765e-08
1.60833e-07
2.60239e-07
4.14975e-07
6.51534e-07
1.00585e-06
1.52438e-06
2.26365e-06
3.28743e-06
4.66079e-06
6.44167e-06
8.67158e-06
1.13682e-05
1.4522e-05
1.80974e-05
2.20376e-05
2.62705e-05
3.07151e-05
3.52863e-05
3.9899e-05
4.44712e-05
4.89262e-05
5.31959e-05
5.72257e-05
6.09845e-05
6.44851e-05
6.78168e-05
7.11847e-05
7.49274e-05
7.95219e-05
8.56037e-05
9.39312e-05
0.000105379
0.000120959
0.000141879
0.000169618
0.000206038
0.000253522
0.000315144
0.000394899
0.000497987
0.000631193
0.000803389
0.00102619
0.00131484
0.00168939
0.00217632
0.00281067
0.00363906
0.00471408
0.00609437
0.00797585
0.0104669
0.0137886
0.0192467
0.0370482
0.0548804
0.0724854
0.0896599
0.106242
0.122101
0.137129
0.151234
0.164336
0.176351
0.187217
0.1969
0.205316
0.212401
0.218114
0.222432
0.225462
0.227435
0.228624
0.229294
0.229652
0.229832
0.229921
0.229964
0.229983
0.229993
0.229997
0.229999
0.229999
0.23
0.23
0.23
0.23
0.23
0.23
0.23
0.23
0.23
5.73455e-10
2.50624e-09
5.75672e-09
1.12027e-08
2.02782e-08
3.52968e-08
5.99375e-08
9.99536e-08
1.64168e-07
2.65805e-07
4.24166e-07
6.66527e-07
1.02998e-06
1.56261e-06
2.32317e-06
3.37823e-06
4.79631e-06
6.63915e-06
8.95223e-06
1.1757e-05
1.50471e-05
1.87897e-05
2.29296e-05
2.73957e-05
3.21069e-05
3.69776e-05
4.19209e-05
4.68525e-05
5.16928e-05
5.637e-05
6.0826e-05
6.50282e-05
6.89925e-05
7.28215e-05
7.67454e-05
8.1133e-05
8.64931e-05
9.34994e-05
0.000102945
0.000115738
0.000132929
0.000155765
0.000185781
0.000224904
0.000275595
0.000341023
0.000425291
0.00053372
0.000673229
0.000852825
0.00108425
0.00138282
0.00176857
0.00226773
0.00291473
0.00375478
0.00483744
0.00621438
0.00807099
0.0104932
0.01366
0.021319
0.0390976
0.0568963
0.0744545
0.091566
0.108068
0.123829
0.138746
0.152728
0.165698
0.177607
0.18839
0.197948
0.206209
0.213113
0.218625
0.222793
0.225709
0.227588
0.228711
0.229341
0.229675
0.229844
0.229927
0.229966
0.229985
0.229993
0.229997
0.229999
0.229999
0.23
0.23
0.23
0.23
0.23
0.23
0.23
0.23
0.23
5.8322e-10
2.54896e-09
5.85518e-09
1.13957e-08
2.06313e-08
3.59209e-08
6.10186e-08
1.01801e-07
1.67291e-07
2.71032e-07
4.32821e-07
6.80693e-07
1.05286e-06
1.59899e-06
2.38003e-06
3.46538e-06
4.92698e-06
6.83052e-06
9.22564e-06
1.21379e-05
1.55647e-05
1.94764e-05
2.38203e-05
2.85271e-05
3.35168e-05
3.8704e-05
4.40015e-05
4.93237e-05
5.45888e-05
5.97228e-05
6.46648e-05
6.93816e-05
7.38939e-05
7.83196e-05
8.29156e-05
8.80757e-05
9.43333e-05
0.000102394
0.000113079
0.000127324
0.000146212
0.000171031
0.000203362
0.000245187
0.00029903
0.00036813
0.000456662
0.000570022
0.000715192
0.000901223
0.00113986
0.00144636
0.00184057
0.00234835
0.00300346
0.00384992
0.00493498
0.00630836
0.00815339
0.0105525
0.013683
0.023179
0.0409297
0.058684
0.0761806
0.0932131
0.109625
0.125292
0.140121
0.154022
0.166922
0.178734
0.189394
0.198822
0.206947
0.213713
0.219088
0.223105
0.225911
0.227713
0.228783
0.229379
0.229695
0.229854
0.229931
0.229968
0.229986
0.229994
0.229997
0.229999
0.229999
0.23
0.23
0.23
0.23
0.23
0.23
0.23
0.23
0.23
5.92043e-10
2.58756e-09
5.9442e-09
1.15702e-08
2.09511e-08
3.64868e-08
6.20005e-08
1.03482e-07
1.7014e-07
2.75811e-07
4.40756e-07
6.9372e-07
1.07396e-06
1.63269e-06
2.4329e-06
3.54676e-06
5.04958e-06
7.01099e-06
9.4849e-06
1.25012e-05
1.60616e-05
2.014e-05
2.46871e-05
2.96366e-05
3.49106e-05
4.04253e-05
4.60946e-05
5.18332e-05
5.75594e-05
6.3198e-05
6.86878e-05
7.39967e-05
7.91528e-05
8.42925e-05
8.96991e-05
9.57813e-05
0.000103086
0.000112343
0.000124397
0.000140209
0.000160895
0.00018778
0.00022249
0.000267063
0.000324078
0.000396835
0.000489571
0.000607738
0.000758368
0.000950542
0.001196
0.00150996
0.00191213
0.00242808
0.00309093
0.00394421
0.00503436
0.00641099
0.00825612
0.0106499
0.0137681
0.0247377
0.0424803
0.0602021
0.0776432
0.0946217
0.110981
0.126597
0.141356
0.155173
0.167972
0.17968
0.190232
0.199548
0.207558
0.214206
0.219467
0.223378
0.22608
0.227812
0.22884
0.22941
0.22971
0.229861
0.229935
0.22997
0.229986
0.229994
0.229997
0.229999
0.229999
0.23
0.23
0.23
0.23
0.23
0.23
0.23
0.23
0.23
5.99742e-10
2.62125e-09
6.02192e-09
1.17227e-08
2.12306e-08
3.69822e-08
6.28614e-08
1.04959e-07
1.72647e-07
2.80027e-07
4.47774e-07
7.05274e-07
1.09275e-06
1.66277e-06
2.4803e-06
3.62002e-06
5.16046e-06
7.17503e-06
9.72186e-06
1.28353e-05
1.65213e-05
2.07582e-05
2.55009e-05
3.06864e-05
3.62407e-05
4.20829e-05
4.81301e-05
5.42995e-05
6.05116e-05
6.66934e-05
7.2786e-05
7.87624e-05
8.46621e-05
9.06438e-05
9.70144e-05
0.00010418
0.000112687
0.000123283
0.000136831
0.00015432
0.000176898
0.000205934
0.000243103
0.000290494
0.000350748
0.000427226
0.000524224
0.000647255
0.000803402
0.00100178
0.00125416
0.00157566
0.00198582
0.00251
0.00318144
0.00404372
0.00514165
0.00652386
0.0083713
0.0107613
0.0138625
0.0260309
0.043771
0.0614693
0.0788874
0.0958248
0.112129
0.127676
0.142364
0.156106
0.168824
0.180448
0.190912
0.200136
0.208051
0.214603
0.219769
0.223594
0.226224
0.227895
0.228884
0.229434
0.229723
0.229867
0.229938
0.229971
0.229987
0.229994
0.229997
0.229999
0.23
0.23
0.23
0.23
0.23
0.23
0.23
0.23
0.23
0.23
6.06142e-10
2.64926e-09
6.08654e-09
1.18496e-08
2.14634e-08
3.73952e-08
6.35799e-08
1.06193e-07
1.74746e-07
2.83564e-07
4.53678e-07
7.15018e-07
1.10863e-06
1.68831e-06
2.52067e-06
3.68267e-06
5.2557e-06
7.31662e-06
9.92746e-06
1.31268e-05
1.6925e-05
2.13049e-05
2.62256e-05
3.16289e-05
3.74451e-05
4.35983e-05
5.00101e-05
5.6603e-05
6.33029e-05
7.00425e-05
7.67702e-05
8.34693e-05
9.01974e-05
9.71407e-05
0.000104622
0.000113018
0.00012286
0.000134906
0.000150038
0.000169275
0.000193802
0.000225035
0.000264702
0.00031495
0.000378481
0.00045872
0.000560029
0.000687986
0.000849723
0.00105437
0.00131366
0.00164267
0.00206103
0.00259442
0.00327566
0.00414706
0.00525203
0.00663956
0.00848901
0.0108746
0.0139519
0.0270427
0.0447962
0.062487
0.0798767
0.0967758
0.113033
0.128528
0.143158
0.156839
0.169493
0.18105
0.191444
0.200596
0.208436
0.214911
0.220003
0.22376
0.226334
0.227964
0.228923
0.229453
0.229732
0.229872
0.22994
0.229972
0.229987
0.229994
0.229998
0.229999
0.23
0.23
0.23
0.23
0.23
0.23
0.23
0.23
0.23
0.23
6.11082e-10
2.67088e-09
6.13645e-09
1.19476e-08
2.16434e-08
3.77147e-08
6.41365e-08
1.07151e-07
1.76377e-07
2.86318e-07
4.58282e-07
7.22637e-07
1.12109e-06
1.70838e-06
2.5525e-06
3.73225e-06
5.33138e-06
7.42962e-06
1.00923e-05
1.33618e-05
1.72523e-05
2.17508e-05
2.68209e-05
3.24089e-05
3.84501e-05
4.48742e-05
5.16091e-05
5.85844e-05
6.57339e-05
7.30005e-05
8.0345e-05
8.77684e-05
9.53549e-05
0.000103326
0.000112009
0.000121723
0.000132964
0.000146495
0.000163219
0.000184184
0.00021062
0.000243992
0.000286084
0.000339103
0.000405814
0.000489704
0.000595197
0.000727918
0.000895051
0.00110576
0.00137186
0.00170871
0.00213583
0.00267813
0.00336813
0.00424795
0.00535953
0.00675133
0.00860088
0.0109791
0.0140302
0.0277883
0.0455578
0.0632461
0.0806176
0.097488
0.11371
0.129164
0.143751
0.157385
0.16999
0.181496
0.191838
0.200935
0.208718
0.215137
0.220173
0.22388
0.226412
0.228012
0.22895
0.229468
0.229739
0.229875
0.229941
0.229973
0.229988
0.229995
0.229998
0.229999
0.23
0.23
0.23
0.23
0.23
0.23
0.23
0.23
0.23
0.23
6.14434e-10
2.68556e-09
6.17032e-09
1.20141e-08
2.17656e-08
3.79316e-08
6.45146e-08
1.07802e-07
1.77486e-07
2.88192e-07
4.61421e-07
7.27838e-07
1.1296e-06
1.72214e-06
2.57439e-06
3.76645e-06
5.38376e-06
7.50812e-06
1.02074e-05
1.35265e-05
1.74829e-05
2.20667e-05
2.72451e-05
3.29684e-05
3.91763e-05
4.58036e-05
5.27842e-05
6.00549e-05
6.75587e-05
7.52496e-05
8.31036e-05
9.11429e-05
9.94835e-05
0.000108381
0.00011816
0.000129185
0.00014177
0.000156679
0.000174838
0.000197335
0.000225443
0.000260677
0.000304876
0.000360306
0.000429788
0.000516874
0.000626054
0.00076303
0.000935067
0.00115147
0.00142408
0.00176795
0.00220252
0.00275273
0.00345074
0.00433808
0.0054554
0.0068502
0.00869786
0.0110655
0.0140879
0.028283
0.0460746
0.0637628
0.0811215
0.0979712
0.114167
0.129592
0.144148
0.157749
0.170321
0.181792
0.192098
0.201159
0.208905
0.215285
0.220285
0.223958
0.226463
0.228042
0.228968
0.229477
0.229744
0.229878
0.229943
0.229974
0.229988
0.229995
0.229998
0.229999
0.23
0.23
0.23
0.23
0.23
0.23
0.23
0.23
0.23
0.23
6.16106e-10
2.69286e-09
6.18714e-09
1.2047e-08
2.18258e-08
3.80383e-08
6.46999e-08
1.0812e-07
1.78027e-07
2.89104e-07
4.62945e-07
7.30362e-07
1.13374e-06
1.72882e-06
2.58502e-06
3.78308e-06
5.40929e-06
7.54652e-06
1.02639e-05
1.36077e-05
1.75972e-05
2.22242e-05
2.74579e-05
3.32508e-05
3.95454e-05
4.62793e-05
5.33903e-05
6.08198e-05
6.85164e-05
7.64417e-05
8.45814e-05
9.29718e-05
0.000101746
0.000111167
0.000121624
0.000133536
0.000147266
0.000163206
0.000182368
0.000205895
0.000235111
0.000271575
0.00031717
0.000374206
0.000445551
0.000534805
0.000646511
0.000786422
0.000961847
0.00118209
0.00145901
0.00180774
0.00224767
0.00280365
0.00350761
0.00440066
0.00552247
0.00691958
0.00876531
0.0111229
0.0141187
0.0285274
0.04634
0.0640314
0.0813835
0.0982211
0.114402
0.129811
0.144349
0.157932
0.170486
0.181939
0.192226
0.201268
0.208995
0.215357
0.220338
0.223995
0.226487
0.228056
0.228976
0.229482
0.229746
0.229879
0.229943
0.229974
0.229988
0.229995
0.229998
0.229999
0.23
0.23
0.23
0.23
0.23
0.23
0.23
0.23
0.23
0.23
6.16115e-10
2.6929e-09
6.18723e-09
1.20472e-08
2.18262e-08
3.80388e-08
6.47007e-08
1.08121e-07
1.78029e-07
2.89108e-07
4.6295e-07
7.30369e-07
1.13375e-06
1.72883e-06
2.58504e-06
3.7831e-06
5.40932e-06
7.54655e-06
1.02639e-05
1.36077e-05
1.75972e-05
2.22242e-05
2.74578e-05
3.32507e-05
3.95452e-05
4.6279e-05
5.339e-05
6.08194e-05
6.85159e-05
7.6441e-05
8.45806e-05
9.2971e-05
0.000101745
0.000111166
0.000121623
0.000133535
0.000147265
0.000163206
0.000182367
0.000205894
0.00023511
0.000271574
0.000317169
0.000374204
0.000445549
0.000534803
0.000646509
0.00078642
0.000961846
0.00118209
0.00145901
0.00180774
0.00224768
0.00280366
0.00350763
0.00440069
0.00552252
0.00691965
0.0087654
0.011123
0.0141188
0.0285285
0.046341
0.0640323
0.0813844
0.0982219
0.114403
0.129811
0.144349
0.157933
0.170486
0.181939
0.192227
0.201268
0.208995
0.215357
0.220338
0.223995
0.226487
0.228056
0.228976
0.229482
0.229746
0.229879
0.229943
0.229974
0.229988
0.229995
0.229998
0.229999
0.23
0.23
0.23
0.23
0.23
0.23
0.23
0.23
0.23
0.23
6.14462e-10
2.68568e-09
6.1706e-09
1.20146e-08
2.17665e-08
3.79332e-08
6.45171e-08
1.07806e-07
1.77493e-07
2.88202e-07
4.61435e-07
7.27859e-07
1.12963e-06
1.72218e-06
2.57444e-06
3.76651e-06
5.38383e-06
7.50819e-06
1.02074e-05
1.35265e-05
1.74828e-05
2.20666e-05
2.72449e-05
3.2968e-05
3.91758e-05
4.58028e-05
5.27832e-05
6.00537e-05
6.75572e-05
7.52478e-05
8.31014e-05
9.11405e-05
9.94809e-05
0.000108378
0.000118157
0.000129182
0.000141767
0.000156675
0.000174835
0.000197331
0.000225439
0.000260672
0.000304872
0.0003603
0.000429782
0.000516868
0.000626047
0.000763023
0.000935062
0.00115147
0.00142409
0.00176797
0.00220254
0.00275277
0.00345079
0.00433816
0.00545552
0.00685038
0.00869811
0.0110659
0.0140882
0.0282861
0.0460776
0.0637656
0.0811241
0.0979737
0.11417
0.129594
0.14415
0.157751
0.170323
0.181794
0.1921
0.20116
0.208905
0.215286
0.220285
0.223959
0.226463
0.228042
0.228968
0.229477
0.229744
0.229878
0.229943
0.229974
0.229988
0.229995
0.229998
0.229999
0.23
0.23
0.23
0.23
0.23
0.23
0.23
0.23
0.23
0.23
6.11132e-10
2.6711e-09
6.13695e-09
1.19486e-08
2.16451e-08
3.77177e-08
6.41415e-08
1.07159e-07
1.7639e-07
2.86339e-07
4.58315e-07
7.22687e-07
1.12116e-06
1.70849e-06
2.55266e-06
3.73246e-06
5.33166e-06
7.42996e-06
1.00927e-05
1.33622e-05
1.72528e-05
2.17513e-05
2.68213e-05
3.24092e-05
3.84504e-05
4.48743e-05
5.1609e-05
5.8584e-05
6.57333e-05
7.29996e-05
8.03438e-05
8.77669e-05
9.53532e-05
0.000103324
0.000112007
0.000121721
0.000132962
0.000146493
0.000163217
0.000184183
0.000210619
0.000243991
0.000286083
0.000339102
0.000405813
0.000489703
0.000595197
0.000727919
0.000895052
0.00110576
0.00137187
0.00170873
0.00213586
0.00267818
0.00336822
0.00424808
0.00535972
0.00675161
0.00860127
0.0109796
0.0140308
0.0277936
0.045563
0.063251
0.0806221
0.0974923
0.113714
0.129168
0.143754
0.157388
0.169993
0.181498
0.19184
0.200937
0.20872
0.215139
0.220174
0.223881
0.226413
0.228012
0.22895
0.229468
0.229739
0.229875
0.229942
0.229973
0.229988
0.229995
0.229998
0.229999
0.23
0.23
0.23
0.23
0.23
0.23
0.23
0.23
0.23
0.23
6.06209e-10
2.64955e-09
6.08722e-09
1.18509e-08
2.14658e-08
3.73992e-08
6.35866e-08
1.06204e-07
1.74764e-07
2.83592e-07
4.53721e-07
7.15085e-07
1.10873e-06
1.68845e-06
2.52086e-06
3.68293e-06
5.25605e-06
7.31704e-06
9.92796e-06
1.31273e-05
1.69256e-05
2.13054e-05
2.62261e-05
3.16293e-05
3.74453e-05
4.35982e-05
5.00098e-05
5.66024e-05
6.33018e-05
7.0041e-05
7.67683e-05
8.3467e-05
9.01947e-05
9.71379e-05
0.000104619
0.000113015
0.000122857
0.000134903
0.000150035
0.000169273
0.0001938
0.000225034
0.000264701
0.000314949
0.000378481
0.000458721
0.000560033
0.000687993
0.000849732
0.00105439
0.00131367
0.00164269
0.00206107
0.00259449
0.00327577
0.00414723
0.00525228
0.00663992
0.00848952
0.0108753
0.0139526
0.0270502
0.0448035
0.0624939
0.0798832
0.0967819
0.113039
0.128533
0.143163
0.156843
0.169497
0.181054
0.191447
0.200598
0.208438
0.214913
0.220004
0.223761
0.226335
0.227964
0.228923
0.229453
0.229732
0.229872
0.22994
0.229972
0.229987
0.229994
0.229998
0.229999
0.23
0.23
0.23
0.23
0.23
0.23
0.23
0.23
0.23
0.23
5.99827e-10
2.62162e-09
6.02276e-09
1.17243e-08
2.12335e-08
3.69872e-08
6.28698e-08
1.04973e-07
1.72669e-07
2.80061e-07
4.47828e-07
7.05355e-07
1.09287e-06
1.66295e-06
2.48054e-06
3.62035e-06
5.16088e-06
7.17555e-06
9.72247e-06
1.28359e-05
1.6522e-05
2.07589e-05
2.55015e-05
3.06869e-05
3.62409e-05
4.20829e-05
4.81297e-05
5.42987e-05
6.05104e-05
6.66917e-05
7.27838e-05
7.87597e-05
8.4659e-05
9.06405e-05
9.7011e-05
0.000104176
0.000112684
0.00012328
0.000136828
0.000154318
0.000176898
0.000205935
0.000243105
0.000290499
0.000350755
0.000427236
0.000524238
0.000647274
0.000803427
0.00100182
0.0012542
0.00157572
0.00198589
0.00251009
0.00318158
0.00404392
0.00514192
0.00652426
0.00837187
0.010762
0.0138632
0.0260408
0.0437806
0.0614784
0.078896
0.0958329
0.112136
0.127683
0.142371
0.156112
0.16883
0.180453
0.190916
0.20014
0.208054
0.214606
0.219771
0.223595
0.226225
0.227896
0.228885
0.229434
0.229723
0.229867
0.229938
0.229971
0.229987
0.229994
0.229997
0.229999
0.23
0.23
0.23
0.23
0.23
0.23
0.23
0.23
0.23
0.23
5.92144e-10
2.588e-09
5.9452e-09
1.15721e-08
2.09545e-08
3.64927e-08
6.20104e-08
1.03499e-07
1.70166e-07
2.75852e-07
4.4082e-07
6.93817e-07
1.07411e-06
1.6329e-06
2.43319e-06
3.54715e-06
5.05008e-06
7.01161e-06
9.48563e-06
1.2502e-05
1.60624e-05
2.01408e-05
2.46879e-05
2.96372e-05
3.4911e-05
4.04253e-05
4.60943e-05
5.18325e-05
5.75582e-05
6.31963e-05
6.86856e-05
7.39941e-05
7.91498e-05
8.42894e-05
8.9696e-05
9.57785e-05
0.000103084
0.000112342
0.000124397
0.000140211
0.000160899
0.000187787
0.000222502
0.000267079
0.000324099
0.000396863
0.000489607
0.000607783
0.000758423
0.000950609
0.00119608
0.00151005
0.00191224
0.0024282
0.00309107
0.0039444
0.00503463
0.00641139
0.0082567
0.0106507
0.0137689
0.02475
0.0424922
0.0602133
0.0776538
0.0946317
0.11099
0.126605
0.141364
0.155181
0.167979
0.179687
0.190238
0.199553
0.207562
0.21421
0.219469
0.22338
0.226081
0.227813
0.228841
0.22941
0.22971
0.229861
0.229935
0.22997
0.229986
0.229994
0.229997
0.229999
0.229999
0.23
0.23
0.23
0.23
0.23
0.23
0.23
0.23
0.23
5.83336e-10
2.54946e-09
5.85634e-09
1.13979e-08
2.06353e-08
3.59277e-08
6.10301e-08
1.0182e-07
1.67321e-07
2.7108e-07
4.32895e-07
6.80806e-07
1.05302e-06
1.59923e-06
2.38037e-06
3.46583e-06
4.92756e-06
6.83124e-06
9.22649e-06
1.21388e-05
1.55657e-05
1.94774e-05
2.38212e-05
2.85279e-05
3.35174e-05
3.87043e-05
4.40014e-05
4.93232e-05
5.45879e-05
5.97213e-05
6.46629e-05
6.93793e-05
7.38914e-05
7.8317e-05
8.29133e-05
8.8074e-05
9.43326e-05
0.000102395
0.000113082
0.00012733
0.000146222
0.000171046
0.000203383
0.000245216
0.00029907
0.000368182
0.00045673
0.000570108
0.0007153
0.000901357
0.00114002
0.00144656
0.00184081
0.00234865
0.00300383
0.00385038
0.00493554
0.00630905
0.00815421
0.0105533
0.0136837
0.0231932
0.0409436
0.0586973
0.0761933
0.0932251
0.109637
0.125304
0.140132
0.154033
0.166933
0.178743
0.189401
0.198828
0.206952
0.213717
0.219091
0.223107
0.225912
0.227714
0.228784
0.22938
0.229695
0.229854
0.229931
0.229968
0.229986
0.229994
0.229997
0.229999
0.229999
0.23
0.23
0.23
0.23
0.23
0.23
0.23
0.23
0.23
5.73587e-10
2.50681e-09
5.75803e-09
1.12053e-08
2.02828e-08
3.53046e-08
5.99505e-08
9.99748e-08
1.64202e-07
2.65859e-07
4.24249e-07
6.66655e-07
1.03017e-06
1.56288e-06
2.32355e-06
3.37875e-06
4.79697e-06
6.63997e-06
8.95321e-06
1.17581e-05
1.50483e-05
1.87909e-05
2.29307e-05
2.73967e-05
3.21077e-05
3.69781e-05
4.19211e-05
4.68523e-05
5.16921e-05
5.63689e-05
6.08245e-05
6.50264e-05
6.89905e-05
7.28195e-05
7.67438e-05
8.11323e-05
8.6494e-05
9.35025e-05
0.000102952
0.000115749
0.000132945
0.000155789
0.000185816
0.000224952
0.000275661
0.000341112
0.00042541
0.000533878
0.000673437
0.000853098
0.0010846
0.00138327
0.00176915
0.00226846
0.00291561
0.00375579
0.00483852
0.00621536
0.0080716
0.0104931
0.0136587
0.0213361
0.0391138
0.0569117
0.0744691
0.0915796
0.108081
0.12384
0.138755
0.152736
0.165704
0.177612
0.188396
0.197953
0.206214
0.213117
0.218628
0.222795
0.225711
0.227588
0.228712
0.229341
0.229675
0.229844
0.229927
0.229966
0.229985
0.229993
0.229997
0.229999
0.229999
0.23
0.23
0.23
0.23
0.23
0.23
0.23
0.23
0.23
5.63073e-10
2.46083e-09
5.65208e-09
1.09978e-08
1.99035e-08
3.46351e-08
5.87927e-08
9.80002e-08
1.60871e-07
2.60299e-07
4.15069e-07
6.51676e-07
1.00606e-06
1.52468e-06
2.26408e-06
3.28801e-06
4.66154e-06
6.4426e-06
8.67269e-06
1.13695e-05
1.45234e-05
1.80988e-05
2.20389e-05
2.62717e-05
3.07161e-05
3.52871e-05
3.98995e-05
4.44712e-05
4.89258e-05
5.31951e-05
5.72245e-05
6.0983e-05
6.44834e-05
6.78152e-05
7.11835e-05
7.49272e-05
7.95233e-05
8.56077e-05