/*--------------------------------*- C++ -*----------------------------------*\
  =========                 |
  \\      /  F ield         | OpenFOAM: The Open Source CFD Toolbox
   \\    /   O peration     | Website:  https://openfoam.org
    \\  /    A nd           | Version:  8
     \\/     M anipulation  |
\*---------------------------------------------------------------------------*/
FoamFile
{
    version     2.0;
    format      ascii;
    class       surfaceScalarField;
    location    "360/fluid";
    object      phi;
}
// * * * * * * * * * * * * * * * * * * * * * * * * * * * * * * * * * * * * * //

dimensions      [1 0 -1 0 0 0 0];

internalField   nonuniform List<scalar> 
7860
(
6.57381e-07
-1.72917e-08
6.54945e-07
-5.18992e-08
6.51479e-07
-8.63656e-08
6.46883e-07
-1.20575e-07
6.41037e-07
-1.5452e-07
6.33797e-07
-1.88166e-07
6.24995e-07
-2.21446e-07
6.14451e-07
-2.54256e-07
6.01977e-07
-2.8645e-07
5.8739e-07
-3.17832e-07
5.70524e-07
-3.48143e-07
5.51247e-07
-3.77048e-07
5.29493e-07
-4.04124e-07
5.05325e-07
-4.28859e-07
4.78999e-07
-4.50659e-07
4.50814e-07
-4.68865e-07
4.21167e-07
-4.82883e-07
3.90537e-07
-4.92323e-07
3.59444e-07
-4.9713e-07
3.28389e-07
-4.97638e-07
2.97814e-07
-4.94511e-07
2.6805e-07
-4.88591e-07
2.39313e-07
-4.80728e-07
2.11729e-07
-4.71657e-07
1.85405e-07
-4.61935e-07
1.60332e-07
-4.51927e-07
1.36456e-07
-4.41857e-07
1.13704e-07
-4.31844e-07
9.19994e-08
-4.21943e-07
7.12729e-08
-4.12171e-07
5.1462e-08
-4.02527e-07
3.25126e-08
-3.93006e-07
1.43774e-08
-3.83608e-07
-2.98477e-09
-3.74338e-07
-1.96034e-08
-3.65207e-07
-3.55067e-08
-3.56235e-07
-5.07239e-08
-3.47401e-07
-6.52812e-08
-3.38699e-07
-7.92038e-08
-3.3015e-07
-9.25151e-08
-3.21774e-07
-1.05237e-07
-3.1359e-07
-1.17391e-07
-3.05614e-07
-1.28998e-07
-2.97862e-07
-1.40075e-07
-2.90348e-07
-1.50642e-07
-2.83081e-07
-1.60716e-07
-2.76073e-07
-1.70315e-07
-2.6933e-07
-1.79453e-07
-2.62859e-07
-1.88146e-07
-2.56665e-07
-1.96409e-07
-2.50752e-07
-2.04256e-07
-2.45125e-07
-2.11702e-07
-2.39789e-07
-2.18759e-07
-2.34753e-07
-2.25443e-07
-2.30027e-07
-2.3177e-07
-2.25626e-07
-2.37759e-07
-2.21572e-07
-2.43436e-07
-2.17898e-07
-2.48835e-07
-2.14643e-07
-2.54001e-07
-2.11904e-07
-2.58982e-07
-2.09733e-07
-2.63857e-07
-2.08219e-07
-2.68811e-07
-2.07606e-07
-2.74044e-07
-2.07996e-07
-2.81578e-07
-2.13633e-07
-2.89509e-07
-2.25717e-07
-2.9853e-07
-2.39104e-07
-3.08469e-07
-2.53802e-07
-3.19391e-07
-2.69983e-07
-3.31433e-07
-2.87869e-07
-3.44775e-07
-3.07732e-07
-3.59659e-07
-3.29901e-07
-3.76415e-07
-3.5478e-07
-3.95483e-07
-3.82847e-07
-4.17447e-07
-4.14675e-07
-4.43067e-07
-4.51036e-07
-4.7328e-07
-4.9239e-07
-5.09091e-07
-5.38359e-07
-5.51289e-07
-5.87176e-07
-5.99868e-07
-6.34841e-07
-6.54285e-07
-6.74853e-07
-7.12829e-07
-7.00292e-07
-7.72697e-07
-7.07451e-07
-8.30892e-07
-6.97634e-07
-8.85185e-07
-6.75214e-07
-9.344e-07
-6.44732e-07
-9.78118e-07
-6.09547e-07
-1.01622e-06
-5.71586e-07
-1.04875e-06
-5.31853e-07
-1.07625e-06
-4.90849e-07
-1.09933e-06
-4.48968e-07
-1.11852e-06
-4.06512e-07
-1.13434e-06
-3.63712e-07
-1.14725e-06
-3.20745e-07
-1.15764e-06
-2.77736e-07
-1.16589e-06
-2.34769e-07
-1.1723e-06
-1.91883e-07
-1.17712e-06
-1.49067e-07
-1.18058e-06
-1.06287e-07
-1.18285e-06
-6.35832e-08
-2.11257e-08
6.57958e-07
-1.67163e-08
6.56001e-07
-4.9942e-08
6.52592e-07
-8.29569e-08
6.47731e-07
-1.15714e-07
6.41357e-07
-1.48145e-07
6.33378e-07
-1.80187e-07
6.23689e-07
-2.11757e-07
6.12182e-07
-2.42748e-07
5.98755e-07
-2.73022e-07
5.83325e-07
-3.02399e-07
5.65835e-07
-3.30649e-07
5.4627e-07
-3.57476e-07
5.24664e-07
-3.82508e-07
5.01121e-07
-4.053e-07
4.75832e-07
-4.25347e-07
4.49036e-07
-4.42037e-07
4.2104e-07
-4.54843e-07
3.92211e-07
-4.63438e-07
3.62948e-07
-4.678e-07
3.33638e-07
-4.68252e-07
3.04626e-07
-4.65417e-07
2.76177e-07
-4.60055e-07
2.48475e-07
-4.52936e-07
2.21634e-07
-4.44726e-07
1.95737e-07
-4.3595e-07
1.70814e-07
-4.26918e-07
1.46859e-07
-4.1782e-07
1.23852e-07
-4.0876e-07
1.01764e-07
-3.99783e-07
8.05661e-08
-3.90904e-07
6.02254e-08
-3.82122e-07
4.07118e-08
-3.73433e-07
2.1996e-08
-3.64837e-07
4.04958e-09
-3.5634e-07
-1.31535e-08
-3.47954e-07
-2.9638e-08
-3.397e-07
-4.54283e-08
-3.31559e-07
-6.05487e-08
-3.23526e-07
-7.5023e-08
-3.15622e-07
-8.88745e-08
-3.07868e-07
-1.02126e-07
-3.00282e-07
-1.148e-07
-2.92883e-07
-1.26918e-07
-2.85686e-07
-1.38501e-07
-2.78706e-07
-1.49571e-07
-2.71953e-07
-1.60147e-07
-2.65438e-07
-1.70249e-07
-2.59169e-07
-1.79896e-07
-2.53153e-07
-1.89108e-07
-2.47395e-07
-1.97902e-07
-2.419e-07
-2.06296e-07
-2.36673e-07
-2.14311e-07
-2.31719e-07
-2.21966e-07
-2.27044e-07
-2.29282e-07
-2.22658e-07
-2.36286e-07
-2.18572e-07
-2.43008e-07
-2.14802e-07
-2.49487e-07
-2.11373e-07
-2.55777e-07
-2.08311e-07
-2.61945e-07
-2.05699e-07
-2.68092e-07
-2.03551e-07
-2.74372e-07
-2.01909e-07
-2.81023e-07
-2.00928e-07
-2.88161e-07
-2.00696e-07
-2.96198e-07
-2.07076e-07
-3.04358e-07
-2.17849e-07
-3.13808e-07
-2.29973e-07
-3.24456e-07
-2.43508e-07
-3.36309e-07
-2.58524e-07
-3.49458e-07
-2.75161e-07
-3.6405e-07
-2.93632e-07
-3.80284e-07
-3.1422e-07
-3.9841e-07
-3.37277e-07
-4.18737e-07
-3.6322e-07
-4.41604e-07
-3.926e-07
-4.67411e-07
-4.26123e-07
-4.96662e-07
-4.64132e-07
-5.29907e-07
-5.06189e-07
-5.6765e-07
-5.50542e-07
-6.1015e-07
-5.93398e-07
-6.57328e-07
-6.28576e-07
-7.08201e-07
-6.50092e-07
-7.6079e-07
-6.55299e-07
-8.12821e-07
-6.45855e-07
-8.62494e-07
-6.25672e-07
-9.08768e-07
-5.98522e-07
-9.51186e-07
-5.67159e-07
-9.89556e-07
-5.33229e-07
-1.02378e-06
-4.97637e-07
-1.05393e-06
-4.60701e-07
-1.08018e-06
-4.22724e-07
-1.10274e-06
-3.83946e-07
-1.12189e-06
-3.44561e-07
-1.13792e-06
-3.04721e-07
-1.1511e-06
-2.6455e-07
-1.16173e-06
-2.24142e-07
-1.17005e-06
-1.83563e-07
-1.17628e-06
-1.4284e-07
-1.18058e-06
-1.01988e-07
-1.18305e-06
-6.11135e-08
-2.03518e-08
6.57685e-07
-1.58673e-08
6.55225e-07
-4.74824e-08
6.51164e-07
-7.88959e-08
6.4547e-07
-1.1002e-07
6.38103e-07
-1.40778e-07
6.29018e-07
-1.71101e-07
6.18166e-07
-2.00905e-07
6.05508e-07
-2.30089e-07
5.91017e-07
-2.5853e-07
5.7469e-07
-2.8607e-07
5.56549e-07
-3.12505e-07
5.3665e-07
-3.37572e-07
5.15082e-07
-3.60931e-07
4.91952e-07
-3.82158e-07
4.6738e-07
-4.00757e-07
4.41575e-07
-4.16206e-07
4.1481e-07
-4.28044e-07
3.87404e-07
-4.35989e-07
3.59693e-07
-4.40035e-07
3.31992e-07
-4.4049e-07
3.04564e-07
-4.37922e-07
2.77616e-07
-4.33036e-07
2.51294e-07
-4.26541e-07
2.25681e-07
-4.1904e-07
2.00794e-07
-4.10991e-07
1.76648e-07
-4.02703e-07
1.53253e-07
-3.94358e-07
1.30614e-07
-3.86056e-07
1.08728e-07
-3.77836e-07
8.75911e-08
-3.6971e-07
6.71956e-08
-3.61672e-07
4.75307e-08
-3.53717e-07
2.85835e-08
-3.45842e-07
1.03395e-08
-3.3805e-07
-7.21681e-09
-3.30355e-07
-2.41016e-08
-3.22772e-07
-4.03325e-08
-3.15283e-07
-5.59274e-08
-3.07885e-07
-7.09049e-08
-3.00597e-07
-8.52845e-08
-2.93439e-07
-9.90864e-08
-2.8643e-07
-1.12331e-07
-2.79587e-07
-1.2504e-07
-2.72925e-07
-1.37235e-07
-2.66458e-07
-1.48936e-07
-2.60198e-07
-1.60167e-07
-2.54153e-07
-1.70949e-07
-2.48333e-07
-1.81304e-07
-2.42743e-07
-1.91254e-07
-2.3739e-07
-2.00825e-07
-2.32276e-07
-2.10038e-07
-2.27406e-07
-2.18921e-07
-2.22784e-07
-2.27501e-07
-2.18414e-07
-2.35809e-07
-2.14302e-07
-2.43878e-07
-2.10456e-07
-2.51751e-07
-2.06887e-07
-2.59476e-07
-2.03609e-07
-2.67113e-07
-2.0064e-07
-2.74737e-07
-1.9805e-07
-2.82456e-07
-1.95815e-07
-2.90402e-07
-1.93954e-07
-2.98752e-07
-1.9258e-07
-3.07811e-07
-1.91777e-07
-3.16388e-07
-1.99388e-07
-3.25381e-07
-2.09144e-07
-3.35457e-07
-2.20212e-07
-3.46675e-07
-2.3264e-07
-3.59112e-07
-2.46481e-07
-3.72859e-07
-2.61855e-07
-3.88027e-07
-2.7896e-07
-4.04745e-07
-2.9806e-07
-4.23154e-07
-3.19493e-07
-4.43404e-07
-3.43672e-07
-4.65608e-07
-3.71185e-07
-4.89916e-07
-4.02698e-07
-5.16579e-07
-4.38436e-07
-5.45988e-07
-4.77805e-07
-5.78803e-07
-5.18757e-07
-6.15953e-07
-5.57198e-07
-6.57816e-07
-5.87497e-07
-7.03684e-07
-6.04792e-07
-7.5178e-07
-6.07565e-07
-8.00005e-07
-5.97836e-07
-8.46671e-07
-5.79113e-07
-8.90728e-07
-5.54518e-07
-9.31668e-07
-5.26244e-07
-9.69347e-07
-4.95561e-07
-1.0038e-06
-4.63189e-07
-1.03497e-06
-4.29537e-07
-1.06283e-06
-3.94859e-07
-1.08745e-06
-3.59334e-07
-1.1089e-06
-3.23104e-07
-1.12733e-06
-2.8629e-07
-1.14289e-06
-2.48994e-07
-1.15573e-06
-2.11303e-07
-1.16601e-06
-1.73287e-07
-1.17386e-06
-1.34989e-07
-1.17939e-06
-9.64509e-08
-1.1827e-06
-5.78022e-08
-1.92348e-08
6.57693e-07
-1.50261e-08
6.55148e-07
-4.49378e-08
6.50894e-07
-7.46423e-08
6.44928e-07
-1.04053e-07
6.37239e-07
-1.3309e-07
6.27815e-07
-1.61677e-07
6.16645e-07
-1.89734e-07
6.03719e-07
-2.17164e-07
5.8904e-07
-2.4385e-07
5.72618e-07
-2.69646e-07
5.54482e-07
-2.94366e-07
5.3468e-07
-3.17765e-07
5.13289e-07
-3.39533e-07
4.90421e-07
-3.5928e-07
4.66235e-07
-3.76556e-07
4.40938e-07
-3.90887e-07
4.14782e-07
-4.01859e-07
3.8805e-07
-4.0922e-07
3.61034e-07
-4.12973e-07
3.34006e-07
-4.1341e-07
3.07201e-07
-4.11059e-07
2.80799e-07
-4.06576e-07
2.54933e-07
-4.00614e-07
2.29686e-07
-3.93732e-07
2.05104e-07
-3.8635e-07
1.81211e-07
-3.78752e-07
1.58014e-07
-3.71106e-07
1.35513e-07
-3.63501e-07
1.13703e-07
-3.55975e-07
9.25768e-08
-3.48534e-07
7.21263e-08
-3.41175e-07
5.23422e-08
-3.33889e-07
3.32146e-08
-3.26672e-07
1.4732e-08
-3.19528e-07
-3.11783e-09
-3.12468e-07
-2.03462e-08
-3.05507e-07
-3.69659e-08
-2.98626e-07
-5.29907e-08
-2.9182e-07
-6.84363e-08
-2.8511e-07
-8.33195e-08
-2.78513e-07
-9.76586e-08
-2.72047e-07
-1.11473e-07
-2.65728e-07
-1.24783e-07
-2.59569e-07
-1.3761e-07
-2.53584e-07
-1.49975e-07
-2.47784e-07
-1.61902e-07
-2.42177e-07
-1.73414e-07
-2.36771e-07
-1.84536e-07
-2.31572e-07
-1.95293e-07
-2.26583e-07
-2.05711e-07
-2.21809e-07
-2.15818e-07
-2.1725e-07
-2.25643e-07
-2.12911e-07
-2.35218e-07
-2.08793e-07
-2.44577e-07
-2.04899e-07
-2.53755e-07
-2.01237e-07
-2.62792e-07
-1.97812e-07
-2.71729e-07
-1.94638e-07
-2.80605e-07
-1.91736e-07
-2.89478e-07
-1.89162e-07
-2.98412e-07
-1.86877e-07
-3.07449e-07
-1.84929e-07
-3.16707e-07
-1.83357e-07
-3.26931e-07
-1.82209e-07
-3.36204e-07
-1.90268e-07
-3.46142e-07
-1.99425e-07
-3.56929e-07
-2.09702e-07
-3.68715e-07
-2.21182e-07
-3.8161e-07
-2.33965e-07
-3.95704e-07
-2.48192e-07
-4.11093e-07
-2.64059e-07
-4.27872e-07
-2.81829e-07
-4.46147e-07
-3.01835e-07
-4.66022e-07
-3.24488e-07
-4.87587e-07
-3.50393e-07
-5.1102e-07
-3.80121e-07
-5.3664e-07
-4.13744e-07
-5.6493e-07
-4.50483e-07
-5.96548e-07
-4.88086e-07
-6.32148e-07
-5.22449e-07
-6.71903e-07
-5.48422e-07
-7.15073e-07
-5.62101e-07
-7.60116e-07
-5.6282e-07
-8.05314e-07
-5.52804e-07
-8.49303e-07
-5.3521e-07
-8.91187e-07
-5.12675e-07
-9.30467e-07
-4.86984e-07
-9.66891e-07
-4.59146e-07
-1.00036e-06
-4.29722e-07
-1.03086e-06
-3.99041e-07
-1.0584e-06
-3.67317e-07
-1.08303e-06
-3.34707e-07
-1.10479e-06
-3.01342e-07
-1.12375e-06
-2.67328e-07
-1.13999e-06
-2.32761e-07
-1.15356e-06
-1.97725e-07
-1.16456e-06
-1.62292e-07
-1.17304e-06
-1.26512e-07
-1.17905e-06
-9.04398e-08
-1.18263e-06
-5.42173e-08
-1.80454e-08
6.57629e-07
-1.41212e-08
6.54936e-07
-4.22454e-08
6.50467e-07
-7.01728e-08
6.44224e-07
-9.78109e-08
6.36213e-07
-1.25078e-07
6.26438e-07
-1.51902e-07
6.14907e-07
-1.78203e-07
6.01636e-07
-2.03891e-07
5.86645e-07
-2.28858e-07
5.6997e-07
-2.5297e-07
5.5166e-07
-2.76054e-07
5.31787e-07
-2.97888e-07
5.10443e-07
-3.18184e-07
4.87756e-07
-3.36584e-07
4.63883e-07
-3.52671e-07
4.39022e-07
-3.66009e-07
4.13402e-07
-3.76217e-07
3.87277e-07
-3.83067e-07
3.60904e-07
-3.86565e-07
3.34522e-07
-3.86987e-07
3.08336e-07
-3.84828e-07
2.82506e-07
-3.80697e-07
2.57144e-07
-3.75201e-07
2.32323e-07
-3.6886e-07
2.08089e-07
-3.62065e-07
1.84464e-07
-3.55077e-07
1.61459e-07
-3.48053e-07
1.39079e-07
-3.41075e-07
1.1732e-07
-3.34173e-07
9.61813e-08
-3.27354e-07
7.56564e-08
-3.20611e-07
5.57402e-08
-3.13935e-07
3.64263e-08
-3.07324e-07
1.77072e-08
-3.00777e-07
-4.25965e-10
-2.94304e-07
-1.79836e-08
-2.87919e-07
-3.4975e-08
-2.81603e-07
-5.14118e-08
-2.7535e-07
-6.73077e-08
-2.69179e-07
-8.2678e-08
-2.63107e-07
-9.75392e-08
-2.57148e-07
-1.1191e-07
-2.51318e-07
-1.25809e-07
-2.4563e-07
-1.39257e-07
-2.40095e-07
-1.52276e-07
-2.34723e-07
-1.64888e-07
-2.29521e-07
-1.77118e-07
-2.24497e-07
-1.88991e-07
-2.19655e-07
-2.00532e-07
-2.14997e-07
-2.11769e-07
-2.10527e-07
-2.22731e-07
-2.06244e-07
-2.33447e-07
-2.02151e-07
-2.4395e-07
-1.98248e-07
-2.54273e-07
-1.94536e-07
-2.64452e-07
-1.9102e-07
-2.74524e-07
-1.87708e-07
-2.84526e-07
-1.8461e-07
-2.94487e-07
-1.81763e-07
-3.0444e-07
-1.79202e-07
-3.14419e-07
-1.76904e-07
-3.24388e-07
-1.7499e-07
-3.34274e-07
-1.73546e-07
-3.45116e-07
-1.73025e-07
-3.55005e-07
-1.80578e-07
-3.65587e-07
-1.89083e-07
-3.76962e-07
-1.98611e-07
-3.89235e-07
-2.09235e-07
-4.02507e-07
-2.21066e-07
-4.16867e-07
-2.34254e-07
-4.32399e-07
-2.49003e-07
-4.49187e-07
-2.65577e-07
-4.67314e-07
-2.84306e-07
-4.86858e-07
-3.05613e-07
-5.07896e-07
-3.301e-07
-5.30608e-07
-3.58228e-07
-5.55294e-07
-3.89933e-07
-5.82417e-07
-4.24257e-07
-6.12596e-07
-4.58768e-07
-6.46414e-07
-4.89384e-07
-6.83983e-07
-5.11438e-07
-7.24593e-07
-5.21891e-07
-7.66882e-07
-5.20775e-07
-8.09397e-07
-5.10425e-07
-8.50997e-07
-4.93679e-07
-8.90927e-07
-4.7278e-07
-9.28738e-07
-4.4919e-07
-9.64164e-07
-4.23727e-07
-9.97049e-07
-3.96841e-07
-1.0273e-06
-3.68796e-07
-1.05485e-06
-3.39763e-07
-1.07969e-06
-3.0987e-07
-1.10181e-06
-2.79221e-07
-1.12122e-06
-2.4791e-07
-1.13796e-06
-2.16021e-07
-1.15206e-06
-1.83631e-07
-1.16354e-06
-1.50812e-07
-1.17243e-06
-1.17617e-07
-1.17877e-06
-8.41073e-08
-1.18256e-06
-5.04259e-08
-1.67804e-08
6.57618e-07
-1.32056e-08
6.54877e-07
-3.95044e-08
6.50321e-07
-6.56167e-08
6.43963e-07
-9.14528e-08
6.35818e-07
-1.16933e-07
6.25903e-07
-1.41986e-07
6.14239e-07
-1.66539e-07
6.00852e-07
-1.90504e-07
5.85775e-07
-2.13781e-07
5.69053e-07
-2.36247e-07
5.50741e-07
-2.57741e-07
5.30912e-07
-2.78057e-07
5.09664e-07
-2.96931e-07
4.87118e-07
-3.14032e-07
4.63431e-07
-3.28976e-07
4.38795e-07
-3.41361e-07
4.13433e-07
-3.50838e-07
3.87586e-07
-3.57199e-07
3.61502e-07
-3.60455e-07
3.35409e-07
-3.60864e-07
3.095e-07
-3.58886e-07
2.83928e-07
-3.55088e-07
2.58798e-07
-3.50033e-07
2.34179e-07
-3.44203e-07
2.10111e-07
-3.37958e-07
1.86613e-07
-3.31541e-07
1.63693e-07
-3.25097e-07
1.41353e-07
-3.18699e-07
1.19591e-07
-3.12376e-07
9.84023e-08
-3.06132e-07
7.77834e-08
-2.9996e-07
5.77291e-08
-2.93851e-07
3.82338e-08
-2.878e-07
1.92907e-08
-2.81807e-07
8.91918e-10
-2.7588e-07
-1.69706e-08
-2.70032e-07
-3.43061e-08
-2.64241e-07
-5.11246e-08
-2.58504e-07
-6.7438e-08
-2.52837e-07
-8.32597e-08
-2.47254e-07
-9.8605e-08
-2.4177e-07
-1.13491e-07
-2.36399e-07
-1.27935e-07
-2.3115e-07
-1.41958e-07
-2.26036e-07
-1.55579e-07
-2.21064e-07
-1.68821e-07
-2.16241e-07
-1.81706e-07
-2.11572e-07
-1.94259e-07
-2.07062e-07
-2.06504e-07
-2.02712e-07
-2.18467e-07
-1.98523e-07
-2.30176e-07
-1.94495e-07
-2.41658e-07
-1.90628e-07
-2.52944e-07
-1.86922e-07
-2.64063e-07
-1.83378e-07
-2.75048e-07
-1.79997e-07
-2.85933e-07
-1.76787e-07
-2.9675e-07
-1.73756e-07
-3.07529e-07
-1.70948e-07
-3.18315e-07
-1.68385e-07
-3.29136e-07
-1.66057e-07
-3.39977e-07
-1.64124e-07
-3.50742e-07
-1.62731e-07
-3.61806e-07
-1.63869e-07
-3.71955e-07
-1.7066e-07
-3.82902e-07
-1.78396e-07
-3.94659e-07
-1.87144e-07
-4.0728e-07
-1.96941e-07
-4.20836e-07
-2.07877e-07
-4.35396e-07
-2.20104e-07
-4.51034e-07
-2.33825e-07
-4.67823e-07
-2.49302e-07
-4.85844e-07
-2.66857e-07
-5.05173e-07
-2.86922e-07
-5.25911e-07
-3.10069e-07
-5.48276e-07
-3.36635e-07
-5.72601e-07
-3.66423e-07
-5.99374e-07
-3.98308e-07
-6.29188e-07
-4.29729e-07
-6.62505e-07
-4.56726e-07
-6.99255e-07
-4.75188e-07
-7.38606e-07
-4.82875e-07
-7.79246e-07
-4.80335e-07
-8.1989e-07
-4.6989e-07
-8.59578e-07
-4.54046e-07
-8.97688e-07
-4.34698e-07
-9.3385e-07
-4.13041e-07
-9.67845e-07
-3.89737e-07
-9.99536e-07
-3.65153e-07
-1.02883e-06
-3.39504e-07
-1.05566e-06
-3.12931e-07
-1.07999e-06
-2.85542e-07
-1.10178e-06
-2.57428e-07
-1.12102e-06
-2.28671e-07
-1.1377e-06
-1.99345e-07
-1.15181e-06
-1.69524e-07
-1.16335e-06
-1.39273e-07
-1.17232e-06
-1.08647e-07
-1.17871e-06
-7.77078e-08
-1.18255e-06
-4.65943e-08
-1.55054e-08
6.57602e-07
-1.22739e-08
6.54819e-07
-3.67215e-08
6.50198e-07
-6.0996e-08
6.43756e-07
-8.50107e-08
6.35513e-07
-1.0869e-07
6.25492e-07
-1.31965e-07
6.13722e-07
-1.54768e-07
6.00236e-07
-1.77018e-07
5.85077e-07
-1.98622e-07
5.68294e-07
-2.19464e-07
5.49952e-07
-2.39398e-07
5.3013e-07
-2.58234e-07
5.08929e-07
-2.75727e-07
4.86474e-07
-2.91574e-07
4.62921e-07
-3.05418e-07
4.38458e-07
-3.1689e-07
4.13298e-07
-3.25668e-07
3.87676e-07
-3.31562e-07
3.61823e-07
-3.34584e-07
3.35956e-07
-3.34976e-07
3.1026e-07
-3.33166e-07
2.84877e-07
-3.29679e-07
2.59909e-07
-3.25037e-07
2.35419e-07
-3.19685e-07
2.11447e-07
-3.13957e-07
1.88011e-07
-3.08076e-07
1.65118e-07
-3.02176e-07
1.42769e-07
-2.96322e-07
1.20961e-07
-2.90542e-07
9.9691e-08
-2.84836e-07
7.89539e-08
-2.79199e-07
5.87453e-08
-2.73619e-07
3.906e-08
-2.68092e-07
1.9892e-08
-2.62618e-07
1.23418e-09
-2.57202e-07
-1.69211e-08
-2.51856e-07
-3.45818e-08
-2.46559e-07
-5.17569e-08
-2.41306e-07
-6.84568e-08
-2.36112e-07
-8.46938e-08
-2.30991e-07
-1.00482e-07
-2.25955e-07
-1.15836e-07
-2.21015e-07
-1.30773e-07
-2.16183e-07
-1.4531e-07
-2.11466e-07
-1.59468e-07
-2.06873e-07
-1.73266e-07
-2.02409e-07
-1.86724e-07
-1.98079e-07
-1.99866e-07
-1.93885e-07
-2.12713e-07
-1.89829e-07
-2.25288e-07
-1.85911e-07
-2.37615e-07
-1.82131e-07
-2.4972e-07
-1.78488e-07
-2.61626e-07
-1.74981e-07
-2.73359e-07
-1.71609e-07
-2.84947e-07
-1.68375e-07
-2.96417e-07
-1.65284e-07
-3.07798e-07
-1.62343e-07
-3.19121e-07
-1.59595e-07
-3.30426e-07
-1.57052e-07
-3.41752e-07
-1.54707e-07
-3.53156e-07
-1.52693e-07
-3.64622e-07
-1.51091e-07
-3.75739e-07
-1.54007e-07
-3.86447e-07
-1.60186e-07
-3.97849e-07
-1.67252e-07
-4.10004e-07
-1.75277e-07
-4.22966e-07
-1.84298e-07
-4.36797e-07
-1.94401e-07
-4.51565e-07
-2.05732e-07
-4.67342e-07
-2.18489e-07
-4.84206e-07
-2.32927e-07
-5.02246e-07
-2.49361e-07
-5.21545e-07
-2.68227e-07
-5.42235e-07
-2.90043e-07
-5.64554e-07
-3.15036e-07
-5.88839e-07
-3.4289e-07
-6.15549e-07
-3.72346e-07
-6.45187e-07
-4.00781e-07
-6.7806e-07
-4.24427e-07
-7.13946e-07
-4.39726e-07
-7.51992e-07
-4.45107e-07
-7.91016e-07
-4.41475e-07
-8.29926e-07
-4.31068e-07
-8.67921e-07
-4.16097e-07
-9.04475e-07
-3.98166e-07
-9.39262e-07
-3.78263e-07
-9.72075e-07
-3.56929e-07
-1.00277e-06
-3.34461e-07
-1.03124e-06
-3.11032e-07
-1.05741e-06
-2.8676e-07
-1.08122e-06
-2.61735e-07
-1.10262e-06
-2.36033e-07
-1.12156e-06
-2.09724e-07
-1.13803e-06
-1.82877e-07
-1.152e-06
-1.55556e-07
-1.16345e-06
-1.27823e-07
-1.17237e-06
-9.97307e-08
-1.17873e-06
-7.13388e-08
-1.18255e-06
-4.2778e-08
-1.42348e-08
6.57597e-07
-1.13376e-08
6.54797e-07
-3.39213e-08
6.50147e-07
-5.63457e-08
6.43665e-07
-7.85292e-08
6.35376e-07
-1.004e-07
6.25307e-07
-1.21896e-07
6.13491e-07
-1.42952e-07
5.99966e-07
-1.63493e-07
5.84777e-07
-1.83433e-07
5.67979e-07
-2.02665e-07
5.49638e-07
-2.21056e-07
5.29836e-07
-2.38431e-07
5.08674e-07
-2.54564e-07
4.86277e-07
-2.69175e-07
4.628e-07
-2.81938e-07
4.38427e-07
-2.92512e-07
4.1337e-07
-3.00604e-07
3.87855e-07
-3.06039e-07
3.62112e-07
-3.08831e-07
3.36353e-07
-3.09204e-07
3.10757e-07
-3.07554e-07
2.85461e-07
-3.04366e-07
2.60564e-07
-3.00121e-07
2.36128e-07
-2.95229e-07
2.12188e-07
-2.89996e-07
1.8876e-07
-2.84628e-07
1.6585e-07
-2.79245e-07
1.43457e-07
-2.73909e-07
1.21578e-07
-2.68643e-07
1.00209e-07
-2.63447e-07
7.93432e-08
-2.58314e-07
5.89773e-08
-2.53235e-07
3.91057e-08
-2.48203e-07
1.97228e-08
-2.43218e-07
8.21808e-10
-2.38285e-07
-1.76039e-08
-2.33415e-07
-3.55621e-08
-2.28583e-07
-5.30604e-08
-2.23789e-07
-7.01081e-08
-2.19044e-07
-8.67161e-08
-2.14361e-07
-1.02897e-07
-2.09751e-07
-1.18664e-07
-2.05224e-07
-1.34032e-07
-2.00788e-07
-1.49019e-07
-1.96452e-07
-1.6364e-07
-1.92223e-07
-1.77915e-07
-1.88105e-07
-1.91861e-07
-1.84102e-07
-2.05499e-07
-1.80216e-07
-2.18847e-07
-1.76448e-07
-2.31927e-07
-1.72799e-07
-2.44759e-07
-1.69267e-07
-2.57363e-07
-1.65852e-07
-2.6976e-07
-1.62552e-07
-2.81972e-07
-1.59367e-07
-2.9402e-07
-1.56298e-07
-3.05927e-07
-1.53349e-07
-3.17719e-07
-1.50528e-07
-3.2942e-07
-1.47874e-07
-3.41073e-07
-1.45383e-07
-3.52716e-07
-1.43052e-07
-3.6441e-07
-1.40992e-07
-3.76198e-07
-1.39316e-07
-3.87462e-07
-1.4347e-07
-3.98744e-07
-1.49135e-07
-4.10609e-07
-1.55639e-07
-4.23138e-07
-1.63027e-07
-4.36406e-07
-1.71337e-07
-4.50487e-07
-1.80661e-07
-4.65453e-07
-1.91143e-07
-4.81385e-07
-2.02975e-07
-4.98369e-07
-2.16407e-07
-5.16504e-07
-2.31738e-07
-5.35892e-07
-2.49405e-07
-5.56697e-07
-2.69858e-07
-5.79173e-07
-2.93226e-07
-6.03661e-07
-3.19091e-07
-6.30588e-07
-3.46094e-07
-6.60364e-07
-3.71615e-07
-6.93146e-07
-3.92143e-07
-7.28566e-07
-4.04665e-07
-7.65734e-07
-4.0817e-07
-8.03557e-07
-4.03787e-07
-8.41085e-07
-3.93613e-07
-8.77643e-07
-3.79576e-07
-9.12793e-07
-3.63034e-07
-9.46263e-07
-3.44802e-07
-9.77873e-07
-3.25323e-07
-1.00749e-06
-3.04842e-07
-1.03502e-06
-2.83502e-07
-1.06039e-06
-2.614e-07
-1.08351e-06
-2.38613e-07
-1.10433e-06
-2.15207e-07
-1.12281e-06
-1.91243e-07
-1.13891e-06
-1.66781e-07
-1.15259e-06
-1.4188e-07
-1.16381e-06
-1.16596e-07
-1.17257e-06
-9.09775e-08
-1.17882e-06
-6.50819e-08
-1.18257e-06
-3.90285e-08
-1.29873e-08
6.57593e-07
-1.03973e-08
6.54782e-07
-3.11098e-08
6.50113e-07
-5.16772e-08
6.43608e-07
-7.20236e-08
6.3529e-07
-9.20828e-08
6.2519e-07
-1.11797e-07
6.13343e-07
-1.31105e-07
5.9979e-07
-1.4994e-07
5.84578e-07
-1.68221e-07
5.67766e-07
-1.85852e-07
5.4942e-07
-2.0271e-07
5.29624e-07
-2.18635e-07
5.0848e-07
-2.3342e-07
4.86115e-07
-2.46809e-07
4.62682e-07
-2.58503e-07
4.38363e-07
-2.68192e-07
4.13367e-07
-2.75605e-07
3.87918e-07
-2.80586e-07
3.62241e-07
-2.83148e-07
3.36543e-07
-2.83499e-07
3.10999e-07
-2.82002e-07
2.85745e-07
-2.79102e-07
2.60876e-07
-2.75241e-07
2.36451e-07
-2.70792e-07
2.12504e-07
-2.66036e-07
1.89051e-07
-2.61161e-07
1.66096e-07
-2.56276e-07
1.43636e-07
-2.51436e-07
1.21669e-07
-2.46661e-07
1.00188e-07
-2.41952e-07
7.91884e-08
-2.37301e-07
5.86654e-08
-2.32698e-07
3.86138e-08
-2.28138e-07
1.90283e-08
-2.2362e-07
-9.72791e-11
-2.19148e-07
-1.87712e-08
-2.14728e-07
-3.69984e-08
-2.10342e-07
-5.47857e-08
-2.05986e-07
-7.21413e-08
-2.01672e-07
-8.90751e-08
-1.97409e-07
-1.05598e-07
-1.93208e-07
-1.21722e-07
-1.89078e-07
-1.37461e-07
-1.85026e-07
-1.5283e-07
-1.8106e-07
-1.67843e-07
-1.77185e-07
-1.82517e-07
-1.73405e-07
-1.96868e-07
-1.69724e-07
-2.10913e-07
-1.66143e-07
-2.2467e-07
-1.62663e-07
-2.38156e-07
-1.59285e-07
-2.51387e-07
-1.56007e-07
-2.64382e-07
-1.52829e-07
-2.77157e-07
-1.49749e-07
-2.89729e-07
-1.46769e-07
-3.02115e-07
-1.43889e-07
-3.14331e-07
-1.41113e-07
-3.26395e-07
-1.38447e-07
-3.38324e-07
-1.35936e-07
-3.50164e-07
-1.3354e-07
-3.6193e-07
-1.31292e-07
-3.73706e-07
-1.2923e-07
-3.85768e-07
-1.27472e-07
-3.97302e-07
-1.32178e-07
-4.09085e-07
-1.37565e-07
-4.21339e-07
-1.43622e-07
-4.34193e-07
-1.50435e-07
-4.4774e-07
-1.58082e-07
-4.62061e-07
-1.66663e-07
-4.77239e-07
-1.76321e-07
-4.93363e-07
-1.87246e-07
-5.10529e-07
-1.99676e-07
-5.28848e-07
-2.13899e-07
-5.48444e-07
-2.30338e-07
-5.69505e-07
-2.49373e-07
-5.92294e-07
-2.71049e-07
-6.17141e-07
-2.94872e-07
-6.44418e-07
-3.19423e-07
-6.74425e-07
-3.42146e-07
-7.07166e-07
-3.59831e-07
-7.42164e-07
-3.69972e-07
-7.7853e-07
-3.71997e-07
-8.15279e-07
-3.67149e-07
-8.51594e-07
-3.57357e-07
-8.86905e-07
-3.44295e-07
-9.20841e-07
-3.29112e-07
-9.53167e-07
-3.12483e-07
-9.83719e-07
-2.94774e-07
-1.01238e-06
-2.76186e-07
-1.03904e-06
-2.56836e-07
-1.06364e-06
-2.36808e-07
-1.08608e-06
-2.16165e-07
-1.10633e-06
-1.94964e-07
-1.12431e-06
-1.73259e-07
-1.13999e-06
-1.51101e-07
-1.15333e-06
-1.28545e-07
-1.16428e-06
-1.0564e-07
-1.17283e-06
-8.24309e-08
-1.17894e-06
-5.89703e-08
-1.1826e-06
-3.53654e-08
-1.17687e-08
6.57592e-07
-9.45554e-09
6.54775e-07
-2.82931e-08
6.50098e-07
-4.69996e-08
6.4358e-07
-6.55054e-08
6.35247e-07
-8.37502e-08
6.25131e-07
-1.01681e-07
6.13267e-07
-1.19242e-07
5.99699e-07
-1.36371e-07
5.84474e-07
-1.52997e-07
5.67652e-07
-1.69031e-07
5.49301e-07
-1.8436e-07
5.29506e-07
-1.9884e-07
5.08369e-07
-2.12283e-07
4.86015e-07
-2.24456e-07
4.62598e-07
-2.35087e-07
4.38299e-07
-2.43894e-07
4.13325e-07
-2.50633e-07
3.879e-07
-2.55161e-07
3.62244e-07
-2.57493e-07
3.36564e-07
-2.57818e-07
3.11032e-07
-2.56468e-07
2.85782e-07
-2.53849e-07
2.60907e-07
-2.5036e-07
2.36464e-07
-2.46343e-07
2.12487e-07
-2.42051e-07
1.88988e-07
-2.37654e-07
1.65971e-07
-2.3325e-07
1.43433e-07
-2.28889e-07
1.2137e-07
-2.24588e-07
9.97757e-08
-2.20348e-07
7.86447e-08
-2.16159e-07
5.79718e-08
-2.12015e-07
3.77521e-08
-2.07908e-07
1.79802e-08
-2.03838e-07
-1.34981e-09
-1.99808e-07
-2.02436e-08
-1.95825e-07
-3.87076e-08
-1.91867e-07
-5.67474e-08
-1.87934e-07
-7.43701e-08
-1.84035e-07
-9.15842e-08
-1.8018e-07
-1.08399e-07
-1.76377e-07
-1.24827e-07
-1.72633e-07
-1.40878e-07
-1.68956e-07
-1.56565e-07
-1.65352e-07
-1.71903e-07
-1.61826e-07
-1.86905e-07
-1.5838e-07
-2.01586e-07
-1.55019e-07
-2.1596e-07
-1.51744e-07
-2.30043e-07
-1.48555e-07
-2.43849e-07
-1.45453e-07
-2.57394e-07
-1.42437e-07
-2.70691e-07
-1.39507e-07
-2.83754e-07
-1.36662e-07
-2.96597e-07
-1.33905e-07
-3.0923e-07
-1.31237e-07
-3.21664e-07
-1.28664e-07
-3.33906e-07
-1.26197e-07
-3.45961e-07
-1.23882e-07
-3.5785e-07
-1.21668e-07
-3.69563e-07
-1.19619e-07
-3.81103e-07
-1.17765e-07
-3.93797e-07
-1.16237e-07
-4.05452e-07
-1.20685e-07
-4.17522e-07
-1.25687e-07
-4.30078e-07
-1.31283e-07
-4.43219e-07
-1.37538e-07
-4.57035e-07
-1.44538e-07
-4.71609e-07
-1.52389e-07
-4.8703e-07
-1.61235e-07
-5.0339e-07
-1.71255e-07
-5.20797e-07
-1.82675e-07
-5.39372e-07
-1.95772e-07
-5.5926e-07
-2.10942e-07
-5.80669e-07
-2.28495e-07
-6.03868e-07
-2.48412e-07
-6.29167e-07
-2.70142e-07
-6.56878e-07
-2.92254e-07
-6.87191e-07
-3.12308e-07
-7.19976e-07
-3.27419e-07
-7.54668e-07
-3.3554e-07
-7.90393e-07
-3.36434e-07
-8.26258e-07
-3.31376e-07
-8.61554e-07
-3.2211e-07
-8.95796e-07
-3.10078e-07
-9.2867e-07
-2.9625e-07
-9.59972e-07
-2.81187e-07
-9.89559e-07
-2.6519e-07
-1.01732e-06
-2.48425e-07
-1.04317e-06
-2.30992e-07
-1.06701e-06
-2.1296e-07
-1.0888e-06
-1.94382e-07
-1.10845e-06
-1.75308e-07
-1.12593e-06
-1.55785e-07
-1.14117e-06
-1.35859e-07
-1.15414e-06
-1.15575e-07
-1.1648e-06
-9.49791e-08
-1.17312e-06
-7.41118e-08
-1.17907e-06
-5.30201e-08
-1.18264e-06
-3.17989e-08
-1.05825e-08
6.57591e-07
-8.51282e-09
6.54771e-07
-2.54732e-08
6.50088e-07
-4.23162e-08
6.43561e-07
-5.89792e-08
6.35219e-07
-7.54074e-08
6.25091e-07
-9.15527e-08
6.13214e-07
-1.07365e-07
5.99633e-07
-1.2279e-07
5.84396e-07
-1.3776e-07
5.67562e-07
-1.52197e-07
5.49201e-07
-1.66e-07
5.29398e-07
-1.79038e-07
5.08254e-07
-1.91141e-07
4.85897e-07
-2.02101e-07
4.62478e-07
-2.11671e-07
4.3818e-07
-2.19599e-07
4.13207e-07
-2.25664e-07
3.87782e-07
-2.2974e-07
3.62125e-07
-2.3184e-07
3.36441e-07
-2.32137e-07
3.109e-07
-2.3093e-07
2.85633e-07
-2.28584e-07
2.60734e-07
-2.25461e-07
2.36257e-07
-2.21866e-07
2.12235e-07
-2.18027e-07
1.88679e-07
-2.14095e-07
1.65593e-07
-2.10159e-07
1.42974e-07
-2.06264e-07
1.20814e-07
-2.02423e-07
9.91098e-08
-1.98636e-07
7.78541e-08
-1.94897e-07
5.70423e-08
-1.91196e-07
3.66693e-08
-1.87528e-07
1.67304e-08
-1.83892e-07
-2.78005e-09
-1.80291e-07
-2.1868e-08
-1.76729e-07
-4.05382e-08
-1.73188e-07
-5.87958e-08
-1.69666e-07
-7.6647e-08
-1.66173e-07
-9.40989e-08
-1.62716e-07
-1.1116e-07
-1.59302e-07
-1.2784e-07
-1.55938e-07
-1.4415e-07
-1.5263e-07
-1.601e-07
-1.49384e-07
-1.75703e-07
-1.46204e-07
-1.90971e-07
-1.43093e-07
-2.05917e-07
-1.40053e-07
-2.20554e-07
-1.37085e-07
-2.34895e-07
-1.34192e-07
-2.48954e-07
-1.31371e-07
-2.62744e-07
-1.28624e-07
-2.76278e-07
-1.2595e-07
-2.89569e-07
-1.2335e-07
-3.02629e-07
-1.20825e-07
-3.15469e-07
-1.18378e-07
-3.28102e-07
-1.16017e-07
-3.40532e-07
-1.13759e-07
-3.52776e-07
-1.11639e-07
-3.64832e-07
-1.09625e-07
-3.76688e-07
-1.07799e-07
-3.88307e-07
-1.06215e-07
-4.00814e-07
-1.05167e-07
-4.12476e-07
-1.09179e-07
-4.24653e-07
-1.1369e-07
-4.37387e-07
-1.18752e-07
-4.50739e-07
-1.24414e-07
-4.64778e-07
-1.30752e-07
-4.79583e-07
-1.37866e-07
-4.95238e-07
-1.45889e-07
-5.11843e-07
-1.54993e-07
-5.29511e-07
-1.65383e-07
-5.48375e-07
-1.77322e-07
-5.68597e-07
-1.91172e-07
-5.90401e-07
-2.07179e-07
-6.14051e-07
-2.25274e-07
-6.39832e-07
-2.44875e-07
-6.67993e-07
-2.64578e-07
-6.98614e-07
-2.82105e-07
-7.31449e-07
-2.94907e-07
-7.65871e-07
-3.0134e-07
-8.01036e-07
-3.01406e-07
-8.36138e-07
-2.96352e-07
-8.7056e-07
-2.87729e-07
-9.03886e-07
-2.76773e-07
-9.35845e-07
-2.64301e-07
-9.66259e-07
-2.50777e-07
-9.95001e-07
-2.3645e-07
-1.02197e-06
-2.21459e-07
-1.04707e-06
-2.05886e-07
-1.07025e-06
-1.89789e-07
-1.09141e-06
-1.73214e-07
-1.11052e-06
-1.56203e-07
-1.12751e-06
-1.38797e-07
-1.14233e-06
-1.21036e-07
-1.15494e-06
-1.0296e-07
-1.16531e-06
-8.46087e-08
-1.17341e-06
-6.60183e-08
-1.1792e-06
-4.72307e-08
-1.18267e-06
-2.83285e-08
-9.42822e-09
6.5759e-07
-7.56947e-09
6.54768e-07
-2.2651e-08
6.50081e-07
-3.76288e-08
6.43549e-07
-5.24469e-08
6.35198e-07
-6.70568e-08
6.2506e-07
-8.14154e-08
6.13173e-07
-9.54784e-08
5.9958e-07
-1.09196e-07
5.84329e-07
-1.2251e-07
5.67482e-07
-1.3535e-07
5.49107e-07
-1.47626e-07
5.2929e-07
-1.59222e-07
5.08132e-07
-1.69986e-07
4.8576e-07
-1.79732e-07
4.62328e-07
-1.88242e-07
4.38015e-07
-1.95291e-07
4.13027e-07
-2.00683e-07
3.87587e-07
-2.04306e-07
3.61913e-07
-2.06174e-07
3.36209e-07
-2.0644e-07
3.10644e-07
-2.05372e-07
2.8535e-07
-2.03296e-07
2.60416e-07
-2.00532e-07
2.35897e-07
-1.97351e-07
2.11824e-07
-1.93956e-07
1.88209e-07
-1.9048e-07
1.65052e-07
-1.87002e-07
1.42352e-07
-1.83561e-07
1.20101e-07
-1.80169e-07
9.82934e-08
-1.76825e-07
7.69236e-08
-1.73523e-07
5.59865e-08
-1.70254e-07
3.54772e-08
-1.67014e-07
1.53912e-08
-1.63801e-07
-4.27662e-09
-1.60618e-07
-2.35319e-08
-1.57469e-07
-4.23787e-08
-1.54334e-07
-6.08211e-08
-1.51216e-07
-7.88645e-08
-1.48121e-07
-9.65153e-08
-1.45055e-07
-1.13781e-07
-1.42025e-07
-1.30669e-07
-1.39037e-07
-1.4719e-07
-1.36096e-07
-1.63353e-07
-1.33206e-07
-1.79169e-07
-1.30372e-07
-1.94648e-07
-1.27596e-07
-2.09802e-07
-1.2488e-07
-2.24643e-07
-1.22225e-07
-2.39182e-07
-1.19632e-07
-2.53431e-07
-1.17101e-07
-2.67402e-07
-1.14632e-07
-2.81107e-07
-1.12225e-07
-2.94556e-07
-1.09879e-07
-3.07762e-07
-1.07598e-07
-3.20735e-07
-1.05385e-07
-3.33489e-07
-1.03245e-07
-3.46032e-07
-1.01199e-07
-3.58382e-07