/*--------------------------------*- C++ -*----------------------------------*\
  =========                 |
  \\      /  F ield         | OpenFOAM: The Open Source CFD Toolbox
   \\    /   O peration     | Website:  https://openfoam.org
    \\  /    A nd           | Version:  8
     \\/     M anipulation  |
\*---------------------------------------------------------------------------*/
FoamFile
{
    version     2.0;
    format      ascii;
    class       volScalarField;
    location    "360/fluid";
    object      Qdot;
}
// * * * * * * * * * * * * * * * * * * * * * * * * * * * * * * * * * * * * * //

dimensions      [1 -1 -3 0 0 0 0];

internalField   nonuniform List<scalar> 
4000
(
0
0
0
0
1.41347e-11
0
-6.03825e-11
-1.16833e-19
-5.71837e-11
1.16996e-10
0
5.41526e-10
-1.0998e-09
0
-4.2459e-18
-2.57844e-17
4.62611e-09
-1.45363e-15
1.89813e-08
1.20659e-07
1.32784e-06
2.18759e-05
0.000266451
0.00274127
0.0232471
0.161499
0.923778
4.40375
17.7641
61.6022
186.411
498.763
1192.93
2572.92
5050.11
9111.95
15248.1
23970.6
35933.5
51998.6
73398.5
101828
139515
189437
255561
343223
459524
613850
818530
1.08974e+06
1.44868e+06
1.92318e+06
2.54978e+06
3.37651e+06
4.46666e+06
5.90382e+06
7.79891e+06
1.02998e+07
1.35521e+07
1.78276e+07
2.36409e+07
3.14012e+07
1.77827e+08
2.73905e+08
2.81733e+07
2.02978e+07
1.4422e+07
1.00863e+07
6.93001e+06
4.66864e+06
3.07932e+06
1.98926e+06
1.26708e+06
816593
434665
70324.8
3175.64
61.6387
0.661789
0.00566382
6.72069e-05
1.79998e-06
1.26372e-07
1.92451e-08
5.03932e-09
1.59032e-09
6.85538e-10
3.01118e-10
1.27267e-10
5.26378e-11
2.59279e-11
1.01858e-11
9.88267e-12
1.49404e-12
6.91815e-13
2.63193e-13
1.04611e-13
-7.57131e-13
1.21903e-14
2.30674e-15
-4.87321e-18
-1.56018e-12
-2.90469e-07
0
1.40374e-11
0
0
-1.15135e-19
-6.90633e-11
-2.55527e-10
0
0
3.73592e-07
2.03526e-18
-4.11652e-18
-2.4979e-17
-1.68502e-16
-1.54424e-15
-4.00333e-07
1.21162e-07
1.81301e-06
2.22751e-05
0.000269522
0.0027631
0.0234596
0.163494
0.939373
4.50098
18.2516
63.6126
193.405
519.698
1247.4
2694.73
5281.59
9497.69
15860.6
24950
37352
53908.9
75840.3
104829
143122
193746
260741
349543
467364
623731
831145
1.10602e+06
1.46986e+06
1.95091e+06
2.58625e+06
3.42464e+06
4.53031e+06
5.98813e+06
7.91073e+06
1.04484e+07
1.37481e+07
1.80848e+07
2.39851e+07
3.18599e+07
2.4161e+08
2.14411e+08
2.80773e+07
2.00748e+07
1.41659e+07
9.84304e+06
6.71946e+06
4.49718e+06
2.94636e+06
1.89112e+06
1.19929e+06
774885
352689
42995.7
1545.38
25.363
0.245933
0.0021557
3.01096e-05
1.01588e-06
8.84791e-08
1.57207e-08
4.84743e-09
1.52839e-09
5.66926e-10
2.74094e-10
1.084e-10
5.04363e-11
1.99769e-11
7.78729e-12
3.6453e-12
1.59678e-12
6.03745e-13
5.12376e-12
9.17291e-14
3.80469e-14
1.37017e-14
2.31299e-15
-3.71565e-13
-2.77168e-07
0
1.26221e-20
-1.81677e-16
0
0
-1.12724e-19
0
-1.37144e-10
0
0
-5.70062e-10
3.63823e-07
3.6843e-07
-1.91294e-09
-4.31211e-09
-1.69126e-15
1.37273e-08
1.34588e-07
1.7204e-06
2.34406e-05
0.000281607
0.00287888
0.0244088
0.170259
0.980631
4.71468
19.1909
67.1194
204.714
551.52
1326.02
2867.4
5634.45
10157.5
17025
26741.7
39912.8
57373.7
80350.5
110541
150259
202643
271896
363670
485449
647108
861626
1.14605e+06
1.52275e+06
2.02115e+06
2.67988e+06
3.54976e+06
4.69774e+06
6.21216e+06
8.21005e+06
1.08473e+07
1.42581e+07
1.87417e+07
2.48546e+07
3.30217e+07
3.2834e+08
1.25367e+08
2.77433e+07
1.96062e+07
1.36846e+07
9.41013e+06
6.35948e+06
4.21428e+06
2.73455e+06
1.7403e+06
1.09881e+06
711017
236753
21947.3
642.976
9.3298
0.088165
0.000859571
1.48052e-05
6.27001e-07
6.42953e-08
1.24884e-08
3.76337e-09
1.47681e-09
6.43587e-10
2.49422e-10
1.04302e-10
3.8725e-11
1.77356e-11
8.02803e-12
3.39069e-12
1.26667e-12
5.74553e-13
2.34533e-13
1.04013e-13
3.63481e-14
-5.2111e-12
2.14246e-15
0
0
0
-1.33134e-11
-1.79777e-16
0
3.18284e-11
-5.28657e-11
1.5713e-15
-1.34271e-10
0
-6.53399e-15
0
0
-9.19485e-10
-1.94513e-17
1.87521e-09
-1.7973e-15
8.56677e-09
3.36666e-07
2.00683e-06
2.44274e-05
0.000294497
0.003017
0.0256386
0.179313
1.03585
4.99497
20.3846
71.4294
218.932
593.74
1439.34
3144.46
6201.88
11165.1
18644.1
29160
43312.1
61935.3
86279.2
118084
159780
214668
287199
383335
510980
680572
905869
1.20501e+06
1.6019e+06
2.12808e+06
2.82517e+06
3.74803e+06
4.96897e+06
6.58319e+06
8.71575e+06
1.15303e+07
1.51516e+07
1.99199e+07
2.63058e+07
3.45931e+07
4.44843e+08
3.7025e+07
2.6212e+07
1.83785e+07
1.27291e+07
8.68577e+06
5.82398e+06
3.82875e+06
2.46538e+06
1.55969e+06
984712
620328
153061
10070.5
246.863
3.21433
0.0301402
0.000331741
7.08125e-06
3.77081e-07
4.68496e-08
1.05424e-08
3.12923e-09
1.22486e-09
5.12873e-10
2.04235e-10
1.09471e-10
3.81761e-11
1.7505e-11
7.07322e-12
3.12335e-12
1.3527e-12
5.4313e-13
2.08486e-13
9.14554e-14
3.6413e-14
1.08088e-14
-5.05811e-12
2.64372e-07
0
-2.85027e-07
1.31958e-11
3.02484e-07
0
0
-3.22463e-07
3.27494e-07
0
4.52693e-19
0
0
8.85008e-10
0
-3.01404e-17
-2.1296e-16
-1.95293e-15
4.56407e-09
1.59354e-07
1.97361e-06
2.6335e-05
0.000314193
0.00320611
0.0272628
0.191195
1.10939
5.38304
22.1604
78.6341
242.906
662.109
1609.3
3513.11
6915.07
12397.2
20616.4
32078.2
47370
67332.8
93239.6
126912
170923
228776
305212
406559
541221
720322
958591
1.27556e+06
1.69718e+06
2.25797e+06
3.00398e+06
3.9967e+06
5.31851e+06
7.08007e+06
9.43047e+06
1.25574e+07
1.6653e+07
2.22726e+07
2.98009e+07
3.98545e+07
4.37953e+08
3.26883e+07
2.33801e+07
1.64818e+07
1.14365e+07
7.79792e+06
5.21511e+06
3.41568e+06
2.19104e+06
1.38412e+06
880097
505452
90232.4
4465.7
94.219
1.13141
0.01088
0.00013847
3.66631e-06
2.40414e-07
3.43596e-08
8.2231e-09
2.54298e-09
1.03234e-09
4.23894e-10
2.00589e-10
8.03903e-11
3.41958e-11
1.55707e-11
1.18222e-12
2.67556e-12
1.19285e-12
4.66493e-13
9.96415e-13
8.83731e-13
3.04265e-14
1.04542e-14
1.80901e-15
0
6.89277e-13
0
-2.91609e-07
-1.75822e-16
-1.2313e-11
-3.08509e-11
3.16994e-07
0
1.28547e-10
0
0
0
-1.80414e-18
1.06417e-09
-2.92338e-17
-1.7577e-09
-3.44538e-07
1.15937e-08
3.50178e-07
2.18417e-06
2.88284e-05
0.000346189
0.00354738
0.0302469
0.212685
1.23733
6.0182
24.8143
88.0188
272.325
743.888
1811.26
3955.77
7771.18
13867.7
22935.8
35470
52029.5
73462.6
101073
136784
183332
244434
325122
432083
574198
763227
1.01479e+06
1.34965e+06
1.79551e+06
2.38942e+06
3.18105e+06
4.23725e+06
5.64838e+06
7.5372e+06
1.00717e+07
1.34438e+07
1.79411e+07
2.42335e+07
3.28633e+07
8.12677e+07
3.7989e+08
3.033e+07
2.16016e+07
1.51667e+07
1.04791e+07
7.11176e+06
4.73227e+06
3.08373e+06
1.96999e+06
1.2441e+06
799574
383880
50614.6
1994.53
36.9488
0.417234
0.00419061
6.20317e-05
2.01598e-06
1.58201e-07
2.53745e-08
6.87879e-09
2.51267e-09
9.65396e-10
3.88938e-10
1.83149e-10
6.67123e-11
3.04795e-11
1.28218e-11
6.1031e-12
2.65862e-12
1.02782e-12
4.14556e-13
9.89042e-13
-4.52166e-12
2.44961e-14
9.43847e-15
1.82182e-15
-4.84186e-18
-3.06051e-12
8.26791e-17
0
1.7387e-16
1.49325e-11
-7.2177e-16
5.01373e-11
0
3.18057e-07
0
0
3.23866e-07
0
-1.87301e-09
3.27961e-07
-3.31929e-07
-3.43218e-09
3.52008e-07
1.74353e-08
2.23404e-06
3.17998e-05
0.000380864
0.00391293
0.0334736
0.236146
1.37837
6.72629
27.8232
98.998
307.222
841.506
2052.86
4484.3
8784.1
15586.1
25616.7
39336.6
57270
80276.4
109702
147596
196856
261430
346615
459430
609163
808097
1.07251e+06
1.42404e+06
1.89145e+06
2.51313e+06
3.34034e+06
4.44171e+06
5.90932e+06
7.86708e+06
1.04821e+07
1.3935e+07
1.84879e+07
2.47636e+07
3.31815e+07
2.35645e+08
2.44503e+08
2.94085e+07
2.0729e+07
1.44189e+07
9.87703e+06
6.6491e+06
4.39074e+06
2.84137e+06
1.80558e+06
1.13948e+06
738196
265009
27937
916.388
15.187
0.164612
0.00175736
3.03643e-05
1.19478e-06
1.11024e-07
2.03344e-08
5.76029e-09
1.95399e-09
8.53972e-10
3.31627e-10
1.63099e-10
6.89523e-11
2.68797e-11
1.19746e-11
5.23412e-12
2.43708e-12
9.2209e-13
4.13533e-13
-6.34521e-13
6.69659e-14
2.75852e-14
8.75038e-15
-7.39978e-13
0
0
5.89557e-21
-1.20832e-20
1.17752e-11
1.1988e-11
0
0
1.45224e-15
1.00194e-10
-3.13273e-07
0
0
0
-8.15265e-10
-4.78296e-14
3.211e-07
-2.48114e-15
1.49169e-08
3.78402e-07
2.48581e-06
3.47172e-05
0.000420468
0.00433779
0.0372308
0.263538
1.54353
7.55842
31.3748
112.023
348.794
958.102
2341.47
5112.73
9972.15
17568.9
28677.7
43685.1
63086.9
87751.9
119100
159326
211506
279827
369856
488947
646790
856177
1.13402e+06
1.50273e+06
1.99203e+06
2.64138e+06
3.50329e+06
4.64764e+06
6.16763e+06
8.18786e+06
1.08733e+07
1.4388e+07
1.90096e+07
2.53667e+07
3.38688e+07
3.43069e+08
1.36944e+08
2.85347e+07
1.99587e+07
1.3776e+07
9.36516e+06
6.25832e+06
4.10389e+06
2.63904e+06
1.66922e+06
1.05311e+06
676689
194226
15405.4
436.536
6.60414
0.070054
0.000804615
1.61746e-05
7.56066e-07
8.23389e-08
1.66603e-08
4.72267e-09
2.04226e-09
8.20487e-10
3.33286e-10
1.41193e-10
6.43911e-11
2.66376e-11
1.3498e-11
4.38071e-12
2.12992e-12
9.18303e-13
3.62653e-13
1.45453e-13
-7.27143e-13
2.16814e-14
8.38582e-15
1.4846e-15
0
3.03575e-12
0
0
-2.8927e-07
2.93856e-07
-2.97614e-07
4.8397e-11
1.42394e-15
0
1.9672e-10
0
0
-2.30535e-14
1.76168e-09
-3.98444e-17
1.59031e-09
-2.68914e-15
2.15606e-08
2.17536e-07
2.79083e-06
3.83827e-05
0.000466666
0.00483109
0.04161
0.295567
1.73723
8.53741
35.5669
127.448
398.179
1096.9
2684.82
5855.54
11352
19826.5
32121.6
48496
69432.8
95815.6
129174
171866
227169
299523
394788
520687
687372
908232
1.20095e+06
1.58891e+06
2.1031e+06
2.78455e+06
3.68767e+06
4.88464e+06
6.47126e+06
8.5748e+06
1.13583e+07
1.49866e+07
1.97696e+07
2.62915e+07
3.49359e+07
4.32106e+08
4.86813e+07
2.71473e+07
1.88609e+07
1.29453e+07
8.75705e+06
5.82561e+06
3.80446e+06
2.43821e+06
1.53982e+06
974869
605177
138359
8705.12
218.787
3.07537
0.0324393
0.000403792
9.37816e-06
5.1375e-07
6.18939e-08
1.41804e-08
4.27819e-09
1.62548e-09
6.82388e-10
2.98547e-10
1.26876e-10
5.82129e-11
2.09e-11
1.60161e-11
3.95264e-12
-3.65502e-12
8.14768e-13
1.15486e-12
1.33091e-13
5.49475e-14
-5.19053e-12
-4.36627e-12
1.22442e-15
0
1.9804e-17
2.75854e-07
-1.65315e-16
0
3.40624e-16
2.92946e-07
1.38804e-15
0
0
2.35985e-10
-8.04769e-19
0
0
-9.62654e-18
-3.85223e-17
-2.99479e-07
-3.78923e-09
2.07439e-08
2.46941e-07
2.97364e-06
4.24681e-05
0.000519256
0.00539674
0.0466578
0.332643
1.96236
9.67994
40.4797
145.601
456.52
1261.27
3091.07
6726.89
12944.1
22382.8
35924.7
53708.8
76200.4
104317
139728
184955
243501
320060
420808
553864
729907
963027
1.27185e+06
1.68106e+06
2.22338e+06
2.9422e+06
3.89517e+06
5.15877e+06
6.83455e+06
9.05719e+06
1.20048e+07
1.58014e+07
2.09764e+07
2.7828e+07
3.68543e+07
4.63729e+08
3.41031e+07
2.42537e+07
1.70062e+07
1.17439e+07
7.97582e+06
5.31901e+06
3.47915e+06
2.23315e+06
1.41475e+06
903436
526552
97723.6
5118.36
116.477
1.54512
0.0164048
0.000221838
5.89254e-06
3.70049e-07
5.0145e-08
1.17465e-08
3.83975e-09
1.45793e-09
6.24187e-10
2.89301e-10
1.17451e-10
5.7543e-11
2.07929e-11
9.28994e-12
5.51356e-12
1.9931e-12
8.10501e-13
3.11382e-13
1.3284e-13
5.49317e-14
-5.1674e-12
-7.4497e-13
1.23128e-15
6.91154e-22
-1.97225e-17
-8.05155e-17
-1.17579e-20
1.66134e-16
0
0
-2.89926e-07
0
2.73716e-15
1.87303e-10
-1.09145e-14
-4.57907e-10
2.88308e-07
9.10217e-10
-3.71979e-17
-2.87166e-07
-3.177e-15
1.69444e-08
1.18773e-07
3.48413e-06
4.74369e-05
0.000578301
0.00603637
0.0523951
0.375007
2.22098
10.9994
46.1849
166.797
524.982
1454.79
3568.7
7739.58
14748
25203.3
40026.5
59218.5
83221.5
113026
150446
198171
259915
340601
446702
586709
771806
1.01677e+06
1.34118e+06
1.77106e+06
2.34104e+06
3.09728e+06
4.10152e+06
5.43644e+06
7.21309e+06
9.58123e+06
1.27381e+07
1.68497e+07
2.25239e+07
3.01426e+07
4.03819e+07
4.48083e+08
3.1009e+07
2.21087e+07
1.55454e+07
1.07632e+07
7.32636e+06
4.89538e+06
3.20795e+06
2.06396e+06
1.31357e+06
847999
446080
69981
3168.55
66.3545
0.841163
0.00906317
0.00013295
3.98482e-06
2.80223e-07
4.15277e-08
1.01066e-08
3.59453e-09
1.38347e-09
5.67003e-10
2.66114e-10
1.11431e-10
4.4525e-11
2.20067e-11
9.983e-12
-2.61479e-13
1.58954e-12
7.57057e-13
1.08854e-12
1.20484e-13
-7.24103e-13
-4.3859e-12
5.94957e-15
1.14733e-15
0
1.96409e-17
-3.36589e-12
-2.76179e-07
1.64202e-16
2.81867e-07
-2.28246e-11
-2.845e-07
2.84768e-07
-2.84509e-07
-5.33219e-15
-2.82265e-07
0
-2.79203e-07
-9.0001e-18
-4.1849e-17
-3.52135e-16
-3.43361e-15
2.54667e-08
4.3315e-07
3.90529e-06
5.23627e-05
0.000643723
0.00674747
0.0588144
0.422712
2.51411
12.5053
52.7411
191.325
604.704
1681.03
4125.95
8902.5
16750.7
28234.4
44323
64863.8
90283.9
121678
160995
211077
275805
360284
471206
617331
810197
1.06504e+06
1.40205e+06
1.84806e+06
2.43877e+06
3.22185e+06
4.26105e+06
5.6419e+06
7.47954e+06
9.9296e+06
1.31766e+07
1.7436e+07
2.33379e+07
3.13011e+07
7.83876e+07
4.07605e+08
2.91879e+07
2.07979e+07
1.46204e+07
1.01229e+07
6.89197e+06
4.60707e+06
3.02149e+06
1.94745e+06
1.24459e+06
811152
390928
51438.8
2072.43
40.4864
0.496052
0.00545222
8.63634e-05
2.88286e-06
2.24437e-07
3.66472e-08
9.58162e-09
3.16712e-09
1.35982e-09
5.57738e-10
2.38238e-10
9.78406e-11
5.21599e-11
1.93802e-11
9.88057e-12
2.70625e-12
1.38535e-12
7.03969e-13
2.60642e-13
1.08186e-13
-7.1649e-13
1.73736e-14
5.09056e-12
1.06227e-15
-2.61426e-07
0
0
0
-1.36589e-11
0
0
4.4938e-11
0
2.61108e-15
5.19453e-15
0
-2.72219e-07
-2.91642e-18
1.53954e-09
-5.18093e-17
-4.0324e-14
-2.65081e-07
2.43636e-08
1.84464e-07
4.18677e-06
5.79277e-05
0.000714336
0.00752285
0.0658647
0.475506
2.84109
14.1989
60.1783
219.388
696.624
1943.13
4769.32
10215.4
18908.7
31372.3
48651.9
70427.9
97139.4
130001
171072
223325
290753
378582
493627
644798
843794
1.10603e+06
1.45187e+06
1.90828e+06
2.51103e+06
3.30763e+06
4.36126e+06
5.75613e+06
7.6046e+06
1.00569e+07
1.32869e+07
1.74876e+07
2.32476e+07
3.091e+07
1.61547e+08
3.36065e+08
2.81888e+07
2.00547e+07
1.40817e+07
9.74232e+06
6.62993e+06
4.43164e+06
2.90785e+06
1.87706e+06
1.20416e+06
790840
339072
39350.9
1441.01
26.5052
0.315881
0.00355062
6.03513e-05
2.21279e-06
1.89995e-07
3.21339e-08
8.69509e-09
2.92864e-09
1.15299e-09
5.4283e-10
2.34241e-10
9.63338e-11
4.6298e-11
1.91304e-11
8.24903e-12
3.82289e-12
1.56318e-12
6.51297e-13
1.04721e-12
-5.07461e-12
4.28367e-14
1.73619e-14
5.96929e-15
5.01542e-12
-2.61055e-07
2.79603e-21
2.68473e-07
0
0
0
0
0
0
0
0
-2.66381e-07
-1.42359e-18
-1.49829e-09
-8.37094e-18
-4.98077e-17
-3.87109e-14
-3.96563e-15
2.64623e-08
3.37057e-07
4.5139e-06
6.35844e-05
0.000789048
0.00834758
0.0734303
0.532659
3.19838
16.0677
68.4695
250.998
801.123
2242.66
5500.23
11657.9
21125.1
34434.8
52776.5
75618.8
103480
137683
180377
234630
304499
395281
513849
669173
872990
1.14072e+06
1.49267e+06
1.95561e+06
2.56495e+06
3.36747e+06
4.42515e+06
5.82014e+06
7.66158e+06
1.00942e+07
1.32834e+07
1.74126e+07
2.30539e+07
3.0532e+07
2.22818e+08
2.77379e+08
2.7491e+07
1.95524e+07
1.37267e+07
9.49677e+06
6.46406e+06
4.32252e+06
2.83849e+06
1.83527e+06
1.18164e+06
780868
288581
31303
1059.78
18.531
0.216235
0.00248427
4.49787e-05
1.78343e-06
1.62793e-07
2.91334e-08
8.0113e-09
2.96183e-09
1.30653e-09
5.37092e-10
2.17405e-10
1.005e-10
4.26612e-11
1.88631e-11
8.14532e-12
4.53334e-12
1.36081e-12
5.99083e-13
2.57517e-13
-6.48824e-13
4.27038e-14
1.44385e-14
5.41319e-15
9.78512e-16
4.78676e-18
2.64034e-07
0
2.68452e-07
3.16785e-16
3.17122e-16
-6.33398e-16
0
0
-2.48544e-15
1.68433e-10
0
0
2.51784e-07
-2.48663e-07
2.82421e-09
1.54333e-09
-4.23574e-15
2.46301e-08
3.75343e-07
5.07859e-06
6.92816e-05
0.000865237
0.0091983
0.0813053
0.592746
3.57803
18.0762
77.4873
285.795
917.398
2577.68
6308.73
13170.6
23210.6
37117.8
56306.7
80020.3
108884
144300
188501
244601
316698
410117
531756
690590
898340
1.17036e+06
1.52679e+06
1.99416e+06
2.60737e+06
3.41246e+06
4.47025e+06
5.86097e+06
7.69055e+06
1.01002e+07
1.32504e+07
1.7322e+07
2.28729e+07
3.02155e+07
2.71024e+08
2.31688e+08
2.68373e+07
1.9113e+07
1.34347e+07
9.30548e+06
6.34127e+06
4.24596e+06
2.79272e+06
1.80975e+06
1.16945e+06
775006
265787
25766.7
819.551
13.7546
0.158059
0.00185528
3.54642e-05
1.5077e-06
1.46098e-07
2.67649e-08
7.63633e-09
2.72285e-09
1.10437e-09
4.81837e-10
2.25497e-10
9.6147e-11
4.25206e-11
1.92982e-11
1.30582e-11
3.36624e-12
6.92179e-13
5.93828e-13
2.5566e-13
1.00829e-13
3.96429e-14
1.44124e-14
5.25123e-15
8.91051e-16
2.60311e-07
-2.94855e-12
5.93868e-12
0
0
0
-6.22331e-16
1.77476e-19
1.75857e-19
-2.578e-07
0
-6.76121e-19
1.33106e-18
-2.61985e-18
-7.73949e-18
2.70557e-09
-4.52533e-16
5.29694e-09
3.15507e-08
4.03058e-07
5.29708e-06
7.50566e-05
0.000939892
0.0100392
0.0891689
0.653404
3.96583
20.154
86.9433
322.786
1042.47
2939.34
7162.8
14623.6
24831.4
38958.6
58694
83045
112736
149223
194793
252572
326678
422440
546760
708600
919636
1.19512e+06
1.55504e+06
2.02559e+06
2.64123e+06
3.44715e+06
4.50278e+06
5.88662e+06
7.70309e+06
1.00914e+07
1.32056e+07
1.72211e+07
2.26818e+07
2.98866e+07
3.10067e+08
1.94882e+08
2.61978e+07
1.86972e+07
1.3169e+07
9.13977e+06
6.24106e+06
4.1878e+06
2.76099e+06
1.79428e+06
1.16384e+06
772426
248292
22020.7
666.333
10.8184
0.122919
0.00147074
2.94297e-05
1.32154e-06
1.34729e-07
2.60581e-08
7.76204e-09
2.80288e-09
1.12458e-09
4.9478e-10
2.14776e-10
9.37323e-11
4.1221e-11
1.90037e-11
7.19973e-12
3.50495e-12
1.42332e-12
5.88199e-13
2.53647e-13
1.00206e-13
3.94692e-14
1.58129e-14
5.24702e-15
8.91957e-16
2.59939e-07
1.92295e-17
0
0
-2.21802e-20
0
2.60055e-07
-4.14683e-11
0
2.35919e-15
1.58967e-10
0
-3.06474e-10
-1.34041e-09
-2.30467e-07
-6.32422e-17
-4.6963e-16
-4.72252e-15
2.98802e-08
4.29852e-07
5.69828e-06
8.01603e-05
0.00100888
0.0108224
0.0965705
0.711148
4.33962
22.1843
96.3191
360.008
1169.8
3307.02
7992.17
15771.1
25450.5
39270.8
59199.6
83912.5
114191
151542
198249
257438
333218
430912
557410
721645
935236
1.21333e+06
1.5757e+06
2.0482e+06
2.66462e+06
3.46934e+06
4.52101e+06
5.89754e+06
7.70079e+06
1.00645e+07
1.31368e+07
1.70908e+07
2.24551e+07
2.95144e+07
3.39858e+08
1.67516e+08
2.5572e+07
1.8297e+07
1.29198e+07
8.98953e+06
6.15431e+06
4.14069e+06
2.73781e+06
1.78501e+06
1.16234e+06
771229
235770
19546.1
568.888
8.99789
0.101379
0.00123236
2.5566e-05
1.19977e-06
1.2714e-07
2.50217e-08
7.36794e-09
2.6547e-09
1.1329e-09
5.01897e-10
2.20759e-10
9.48314e-11
3.97554e-11
2.00856e-11
7.79983e-12
3.27835e-12
1.31616e-12
5.82202e-13
5.24401e-12
8.44527e-13
4.33357e-12
1.43312e-14
4.88299e-15
9.81144e-16
-2.59567e-07
2.74904e-21
0
0
0
2.57808e-07
0
1.18543e-15
0
0
1.89555e-10
0
-2.30032e-07
-2.24271e-07
-1.25972e-09
-6.03382e-17
-2.42264e-09
-2.04957e-07
2.82093e-08
4.40549e-07
5.94254e-06
8.45938e-05
0.0010669
0.0114901
0.102942
0.761405
4.66896
23.9975
104.816
394.232
1287.88
3642.36
8666.57
16193.2
24297.1
37190.5
56933.7
81656.9
112187
150036
197462
257565
334425
433342
561175
726807
941768
1.22105e+06
1.58418e+06
2.05663e+06
2.67183e+06
3.47393e+06
4.52041e+06
5.88621e+06
7.6706e+06
1.00044e+07
1.30297e+07
1.69151e+07
2.21727e+07
2.90733e+07
3.61436e+08
1.48147e+08
2.49556e+07
1.79074e+07
1.26807e+07
8.84833e+06
6.07512e+06
4.09956e+06
2.7191e+06
1.7788e+06
1.16253e+06
772149
227604
17994
508.763
7.88955
0.0883433
0.00108682
2.31574e-05
1.11762e-06
1.22391e-07
2.42305e-08
7.31324e-09
2.73521e-09
1.058e-09
4.89283e-10
2.10921e-10
9.04039e-11
4.08788e-11
1.76547e-11
7.67479e-12
3.23163e-12
1.38888e-12
-4.36354e-12
2.26612e-13
9.31368e-14
3.90575e-14
1.42793e-14
4.87433e-15
-4.99166e-12
0
1.30595e-12
3.20573e-12
-2.58122e-07
0
2.27695e-11
-2.50605e-07
-1.66552e-19
0
-7.64607e-11
0
-6.11562e-19
0
2.15102e-07
5.4001e-10
1.29536e-09
-3.0588e-14
2.00574e-07
3.09625e-08
3.57695e-07
6.19865e-06
8.77359e-05
0.00110915
0.0119796
0.107654
0.79893
4.91751
25.3823
111.387
420.954
1379.59
3884.81
8972.69
15663.3
23764.5
31793.8
50987.5
75269.2
105523
143237
190628
250740
327605
426469
554129
719390
933673
1.21182e+06
1.57316e+06
2.04295e+06
2.65413e+06
3.44944e+06
4.4851e+06
5.83469e+06
7.59478e+06
9.89237e+06
1.2864e+07
1.66729e+07
2.18136e+07
2.8542e+07
3.75838e+08
1.35877e+08
2.43471e+07
1.75223e+07
1.24435e+07
8.70713e+06
5.99489e+06
4.05689e+06
2.69865e+06
1.77076e+06
1.16073e+06
771637
222977
17130.5
474.941
7.26534
0.081004
0.00100435
2.1775e-05
1.07475e-06
1.18679e-07
2.36625e-08
7.07529e-09
2.80406e-09
1.07076e-09
4.76313e-10
2.001e-10
9.07104e-11
3.88418e-11
1.73247e-11
8.24036e-12
2.47993e-12
1.37068e-12
5.69461e-13
2.24468e-13
-4.85602e-12
3.88298e-14
-4.97262e-12
4.86371e-15
9.80593e-16
0
2.5846e-07
-1.08558e-20
0
-1.01831e-11
0
1.9794e-11
0
0
2.30759e-07
2.24982e-07
0
0
0
1.14776e-09
-6.2927e-17
2.79516e-14
4.23907e-09
2.90165e-08
3.74254e-07
6.35805e-06
8.91402e-05
0.00113079
0.0122304
0.110085
0.818453
5.04795
26.1154
114.887
435.071
1424.58
3957.32
8828.68
16318.4
24745.3
32362.8
40757.7
64003.9
93157.6
129706
175809
234437
309531
406239
531244
693212
903381
1.17635e+06
1.53113e+06
1.99244e+06
2.59254e+06
3.37349e+06
4.39028e+06
5.71482e+06
7.44129e+06
9.69324e+06
1.26026e+07
1.63272e+07
2.13444e+07
2.7896e+07
3.83255e+08
1.30204e+08
2.37346e+07
1.7121e+07
1.21839e+07
8.54211e+06
5.89221e+06
3.99467e+06
2.6621e+06
1.74991e+06
1.14881e+06
764395
220424
16779.6
460.722
6.99842
0.0778518
0.000968867
2.11799e-05
1.05502e-06
1.16252e-07
2.42194e-08
7.11638e-09
2.71311e-09
1.11435e-09
4.91237e-10
2.10438e-10
9.36743e-11
3.91744e-11
1.69866e-11
7.41374e-12
3.30541e-12
1.35197e-12
1.2731e-12
9.61557e-13
-6.31022e-13
-4.9046e-12
1.55728e-14
5.20561e-15
8.91331e-16
4.75257e-18
1.59819e-12
2.57361e-07
5.14254e-12
-1.25155e-11
1.23557e-11
0
3.88611e-11
2.36317e-07
7.43012e-11
-1.77926e-10
5.90054e-19
3.35944e-10
-2.22378e-18
-5.14895e-10
-6.29249e-17
-4.98301e-16
1.90166e-09
2.90152e-08
4.62571e-07
6.35774e-06
8.92354e-05
0.0011309
0.0122313
0.110093
0.818501
5.04821
26.1166
114.891
435.084
1424.61
3957.33
8828.78
16318.5
24745.2
32362.7
40754.2
64000.1
93153.4
129701
175804
234431
309524
406232
531236
693203
903371
1.17634e+06
1.53112e+06
1.99243e+06
2.59253e+06
3.37349e+06
4.39028e+06
5.71483e+06
7.44132e+06
9.69329e+06
1.26027e+07
1.63273e+07
2.13446e+07
2.78962e+07
3.83282e+08
1.30176e+08
2.37345e+07
1.71209e+07
1.21839e+07
8.54206e+06
5.89218e+06
3.99465e+06
2.66209e+06
1.7499e+06
1.14881e+06
764388
220409
16777.4
460.649
6.99717
0.0778377
0.000968703
2.11784e-05
1.05285e-06
1.16254e-07
2.42199e-08
7.11651e-09
2.71316e-09
1.08022e-09
4.62972e-10
2.04927e-10
9.59733e-11
4.17858e-11
1.8317e-11
7.41379e-12
3.13377e-12
1.35198e-12
5.18766e-13
2.44432e-13
9.72667e-14
-4.90461e-12
7.44313e-13
4.98508e-12
8.91331e-16
6.83314e-22
0
-7.61674e-17
-1.15789e-11
-2.56304e-07
0
-2.5062e-07
1.16021e-15
1.63576e-19
-7.64582e-11
-2.32288e-07
0
2.21138e-07
-5.54059e-10
5.39979e-10
1.29527e-09
-4.92471e-16
-5.03016e-15
2.65372e-08
4.56255e-07
6.20663e-06
8.77654e-05
0.00110956
0.0119824
0.107676
0.799073
4.91828
25.3857
111.4
420.994
1379.69
3884.97
8972.42
15663.5
23764.4
31789.4
50982.4
75263.3
105516
143230
190619
250730
327594
426456
554114
719373
933653
1.2118e+06
1.57314e+06
2.04294e+06
2.65412e+06
3.44945e+06
4.48513e+06
5.83475e+06
7.59489e+06
9.89256e+06
1.28643e+07
1.66733e+07
2.18142e+07
2.85428e+07
3.75919e+08
1.3579e+08
2.43467e+07
1.7522e+07
1.24433e+07
8.70698e+06
5.99478e+06
4.05681e+06
2.69859e+06
1.77072e+06
1.1607e+06
771610
222929
17123.7
474.712
7.26144
0.0809598
0.00100386
2.17664e-05
1.07379e-06
1.18688e-07
2.39851e-08
7.37343e-09
2.65161e-09
1.07079e-09
4.64635e-10
2.05756e-10
9.07123e-11
4.15065e-11
1.73255e-11
7.54628e-12
3.18342e-12
1.28262e-12
5.2499e-13
2.24469e-13
9.80566e-14
4.16596e-14
1.42224e-14
5.21864e-15
8.91939e-16
-2.59566e-07
-1.31156e-12
-1.1012e-20
0
0
-3.02969e-16
0
9.04964e-11
0
2.29596e-15
-2.39488e-07
2.34499e-07
-3.63077e-10
-2.24969e-07
1.25965e-09
-6.03344e-17
-4.82916e-16
4.76739e-09
2.82072e-08
3.39456e-07
6.04589e-06
8.45415e-05
0.00106747
0.0114954
0.102984
0.761684
4.67048
24.0044
104.843
394.319
1288.12
3642.89
8667.25
16192.3
24294.6
37189.9
56933
81655.9
112185
150035
197461
257564
334424
433342
561176
726809
941772
1.22105e+06
1.58419e+06
2.05665e+06
2.67186e+06
3.47399e+06
4.5205e+06
5.88636e+06
7.67083e+06
1.00047e+07
1.30302e+07
1.69158e+07
2.21738e+07
2.90748e+07
3.61577e+08
1.47999e+08
2.49549e+07
1.79069e+07
1.26803e+07
8.84805e+06
6.07492e+06
4.09941e+06
2.71899e+06
1.77872e+06
1.16248e+06
772104
227525
17982.1
508.349
7.88236
0.0882609
0.00108589
2.31428e-05
1.12009e-06
1.22399e-07
2.42314e-08
7.31432e-09
2.57824e-09
1.10237e-09
4.68761e-10
2.10933e-10
9.28035e-11
4.23781e-11
1.7655e-11
7.6749e-12
3.23167e-12
6.68505e-13
5.75956e-13
-5.03936e-13
9.31374e-14
7.77598e-13
1.42803e-14
5.23016e-15
8.92314e-16
0
0
0
0
0
4.4175e-20
-4.66572e-11
5.09655e-11
0
0
2.46841e-07
2.42472e-07
-2.37941e-07
-2.52067e-18
-7.25425e-10
2.25243e-07
2.548e-09
-4.72219e-15
3.21119e-08
4.24375e-07
5.81402e-06
8.02249e-05
0.0010093
0.0108291
0.0966245
0.711505
4.34156
22.1931
96.3527
360.118
1170.11
3307.71
7993.28
15771.4
25449.8
39272.3
59201.1
83913.9
114193
151544
198251
257441
333222
430918
557419
721657
935253
1.21336e+06
1.57574e+06
2.04824e+06
2.66468e+06
3.46943e+06
4.52114e+06
5.89774e+06
7.70111e+06
1.0065e+07
1.31375e+07
1.70919e+07
2.24566e+07
2.95164e+07
3.4006e+08
1.67304e+08
2.55711e+07
1.82963e+07
1.29193e+07
8.98914e+06
6.15402e+06
4.14047e+06
2.73765e+06
1.7849e+06
1.16227e+06
771172
235658
19528.1
568.242
8.98644
0.101247
0.00123091
2.55401e-05
1.19878e-06
1.27147e-07
2.5645e-08
7.40093e-09
2.74392e-09
1.13297e-09
4.59846e-10
2.15961e-10
9.1828e-11
4.04547e-11
1.72019e-11
7.08358e-12
4.00192e-12
1.40647e-12
5.575e-12
2.28681e-13
9.95344e-14
3.92735e-14
-5.01628e-12
4.88312e-15
-4.99584e-12
6.86259e-22
0
-2.64772e-07
0
0
0
-2.64735e-07
-2.62962e-07
-2.60563e-07
0
-2.54557e-07
0
2.4652e-07
2.42605e-07
2.38897e-07
-2.35585e-07
1.47411e-09
-4.5023e-15
3.15484e-08
3.97262e-07
5.28624e-06
7.50098e-05
0.000940422
0.010047
0.0892329
0.653826
3.96811
20.1643
86.9825
322.913
1042.82
2940.16
7164.27
14625
24832.4
38961.9
58697.8
83049.1
112740
149229
194801
252582
326692
422458
546784
708632
919679
1.19518e+06
1.55511e+06
2.02569e+06
2.64136e+06
3.44732e+06
4.50299e+06
5.88691e+06
7.70351e+06
1.0092e+07
1.32064e+07
1.72223e+07
2.26836e+07
2.98888e+07
3.10348e+08
1.9459e+08
2.61968e+07
1.86963e+07
1.31683e+07
9.13927e+06
6.24069e+06
4.18753e+06
2.76079e+06
1.79414e+06
1.16375e+06
772355
248149
21995
665.362
10.8007
0.122712
0.00146848
2.93922e-05
1.32029e-06
1.35441e-07
2.57728e-08
7.61647e-09
2.82007e-09
1.16255e-09
4.7106e-10
2.16605e-10
9.12401e-11
4.05104e-11
1.76437e-11
1.2148e-11
-1.5846e-12
1.42336e-12
5.88204e-13
2.43319e-13
1.0021e-13
3.94694e-14
1.725e-14
4.88938e-15
8.91957e-16
-3.65432e-13
2.96103e-12
3.29725e-12
2.26469e-20
0
0
0
-1.26165e-15
2.66622e-07
-2.64319e-07
0
-7.41885e-10
7.32358e-10
1.44564e-09
-1.074e-17
-5.84212e-17
-4.26352e-16
-7.70978e-14
2.46284e-08
3.75315e-07
5.1002e-06
6.93743e-05
0.000866105
0.00920716
0.081377
0.593218
3.58058
18.0876
77.5308
285.936
917.791
2578.61
6310.51
13173
23213.3
37123
56313
80027.9
108894
144312
188517
244622
316727
410156
531807
690658
898428
1.17047e+06
1.52694e+06
1.99434e+06
2.60759e+06
3.41273e+06
4.47058e+06
5.86138e+06
7.69105e+06
1.01008e+07
1.32513e+07
1.73234e+07
2.28748e+07
3.0218e+07
2.71383e+08
2.3131e+08
2.68358e+07
1.91117e+07
1.34336e+07
9.30467e+06
6.34068e+06
4.24555e+06
2.79244e+06
1.80958e+06
1.16934e+06
774933
265616
25730.6
818.089
13.7268
0.157728
0.00185171
3.54082e-05
1.50528e-06
1.46701e-07
2.6767e-08
7.82128e-09
2.79929e-09
1.14326e-09
4.81851e-10
2.25507e-10
9.8694e-11
4.55531e-11
1.85806e-11
8.76719e-12
3.36635e-12
1.43939e-12
5.93849e-13
2.55662e-13
1.00831e-13
4.38479e-12
1.58556e-14
5.25135e-15
8.91051e-16
-2.61054e-07
0
2.70143e-12
2.71028e-07
0
0
0
0
-1.84027e-19
-2.54841e-15
0
0
-2.64414e-07
-2.81758e-18
-8.37051e-18
-4.9805e-17
1.31179e-09
-3.97634e-15
2.3255e-08
3.48655e-07
4.51356e-06
6.36604e-05
0.00078987
0.00835714
0.0735075
0.533166
3.20112
16.08
68.5161
251.149
801.545
2243.68
5502.26
11661
21129.2
34441.9
52785.6
75630.3
103495
137702
180403
234665
304548
395347
513939
669293
873149
1.14093e+06
1.49294e+06
1.95597e+06
2.5654e+06
3.36805e+06
4.42588e+06
5.82108e+06
7.66277e+06
1.00958e+07
1.32852e+07
1.7415e+07
2.30567e+07
3.0535e+07
2.2323e+08
2.76942e+08
2.74892e+07
1.95508e+07
1.37252e+07
9.49551e+06
6.46308e+06
4.3218e+06
2.83799e+06
1.83494e+06
1.18145e+06
780771
288387
31252.2
1057.54
18.4862
0.215689
0.00247846
4.48926e-05
1.78371e-06
1.64906e-07
2.95098e-08
7.82208e-09
3.04022e-09
1.16926e-09
5.37108e-10
2.17415e-10
9.55447e-11
4.2663e-11
2.3924e-11
8.14569e-12
3.40696e-12
6.0471e-13
6.46012e-13
2.57526e-13
9.55358e-14
-7.10534e-13
5.11138e-12
5.61166e-15
9.78542e-16
-3.66474e-13
0
-2.7032e-07
-1.60792e-16
1.62265e-16
0
0
0
1.10303e-10
0
0
-1.03176e-14
0
0
-1.53946e-09
-5.18066e-17
3.04893e-09
-3.69803e-15
2.43622e-08
1.84452e-07
4.31957e-06
5.80088e-05
0.00071534
0.00753284
0.0659458
0.476036
2.84395
14.2116
60.2267
219.545
697.064
1944.19
4771.52
10219
18914
31381.1
48663.7
70443.5
97160.2
130029
171111
223379
290828
378686
493772
644999
844071
1.10641e+06
1.45238e+06
1.90898e+06
2.51196e+06
3.30886e+06
4.36287e+06
5.75819e+06
7.60716e+06
1.00599e+07
1.32902e+07
1.74908e+07
2.32498e+07
3.091e+07
1.62185e+08
3.3546e+08
2.81872e+07
2.00529e+07
1.40798e+07
9.74058e+06
6.62851e+06
4.43058e+06
2.90712e+06
1.87658e+06
1.20387e+06
790685
338646
39275.3
1437.4
26.4292
0.314931
0.00354065
6.02092e-05
2.20759e-06
1.87868e-07
3.18253e-08
8.69576e-09
2.92809e-09
1.24365e-09
4.96922e-10
2.33516e-10
9.63418e-11
4.63009e-11
1.91312e-11
7.91158e-12
3.82306e-12
1.56329e-12
6.51302e-13
2.82857e-13
9.59717e-14
4.28388e-14
1.73629e-14
5.60893e-15
9.76287e-16
2.61797e-07
1.96409e-17
5.74009e-21
0
-2.79417e-07
-2.52869e-11
-6.66522e-16
0
0
0
-1.82589e-10
-2.82619e-07
0
-6.02959e-18
-8.79539e-10
-3.17881e-09
-3.52116e-16
-2.76486e-07
2.54652e-08
1.54857e-07
3.75247e-06
5.24547e-05
0.000644755
0.00675784
0.0588975
0.423254
2.51702
12.5183
52.7902
191.484
605.15
1682.12
4128.23
8906.47
16756.8
28244.2
44336.6
64882.1
90308.6
121712
161042
211142
275896
360412
471382
617575
810533
1.0655e+06
1.40267e+06
1.84889e+06
2.43986e+06
3.22327e+06
4.26285e+06
5.64412e+06
7.48216e+06
9.93253e+06
1.31796e+07
1.74386e+07
2.33397e+07
3.13024e+07
7.91741e+07
4.0691e+08
2.91828e+07
2.07937e+07
1.46167e+07
1.01199e+07
6.88965e+06
4.60536e+06
3.0203e+06
1.94666e+06
1.2441e+06
810884
390498
51325.3
2066.35
40.3501
0.494294
0.00543398
8.61238e-05
2.8764e-06
2.25901e-07
3.59371e-08
9.42099e-09
3.24929e-09
1.26742e-09
5.578e-10
2.38252e-10
9.78487e-11