/*--------------------------------*- C++ -*----------------------------------*\
  =========                 |
  \\      /  F ield         | OpenFOAM: The Open Source CFD Toolbox
   \\    /   O peration     | Website:  https://openfoam.org
    \\  /    A nd           | Version:  8
     \\/     M anipulation  |
\*---------------------------------------------------------------------------*/
FoamFile
{
    version     2.0;
    format      ascii;
    class       volScalarField;
    location    "360/fluid";
    object      rDeltaT;
}
// * * * * * * * * * * * * * * * * * * * * * * * * * * * * * * * * * * * * * //

dimensions      [0 0 -1 0 0 0 0];

internalField   nonuniform List<scalar> 
4000
(
513.134
538.568
562.93
586.332
608.721
630.014
650.102
668.861
686.173
701.946
716.141
728.795
740.053
750.186
759.607
768.82
778.228
788.058
798.283
808.592
818.467
827.244
834.252
838.91
840.805
839.733
835.564
828.253
817.831
804.389
788.058
769.001
747.402
728.583
739.939
777.93
815.383
852.298
888.683
924.553
959.925
994.818
1029.25
1063.22
1096.74
1129.81
1162.41
1194.53
1226.12
1257.15
1287.57
1317.31
1346.31
1374.48
1401.75
1428.03
1453.21
1477.21
1499.77
1520.89
1540.7
1559.29
6825.17
11218.9
1554.61
1520.98
1481.93
1437.76
1388.94
1335.86
1278.97
1218.77
1155.84
1090.92
1024.65
958.205
893.481
832.926
779.381
736.044
705.137
686.568
677.737
674.845
674.42
673.998
672.189
668.308
662.241
654.14
644.249
632.826
620.116
606.336
591.669
576.263
560.227
543.624
526.51
508.925
512.698
537.522
561.145
583.488
604.528
624.202
642.432
659.138
674.259
687.778
699.741
710.288
719.662
728.23
736.461
744.805
753.64
763.18
773.387
783.94
794.257
803.644
811.389
816.863
819.604
819.274
815.688
808.789
798.616
785.278
768.934
749.771
727.994
703.821
702.364
733.329
772.049
810.329
848.167
885.57
922.549
959.117
995.288
1031.07
1066.47
1101.48
1136.1
1170.31
1204.08
1237.39
1270.18
1302.41
1334.02
1364.94
1395.1
1424.44
1452.87
1480.31
1506.53
1531.55
1555.61
1578.66
9392.52
8824.9
1564.54
1526.21
1483.54
1436.3
1384.56
1328.53
1268.5
1204.83
1138.05
1068.74
997.562
926.015
856.584
792.512
737.521
694.81
665.938
649.791
643.061
641.848
642.951
644.227
644.512
643.21
640.025
634.933
628.028
619.459
609.391
597.991
585.413
571.792
557.233
541.801
525.548
508.598
512.054
535.447
557.474
578.083
597.221
614.838
630.886
645.334
658.181
669.477
679.34
687.975
695.683
702.854
709.927
717.319
725.405
734.398
744.269
754.701
765.134
774.859
783.143
789.322
792.861
793.348
790.546
784.369
774.838
762.055
746.174
727.379
705.875
681.874
669.117
688.742
728.383
767.775
806.902
845.759
884.347
922.673
960.743
998.565
1036.14
1073.48
1110.56
1147.38
1183.93
1220.17
1256.08
1291.62
1326.75
1361.4
1395.53
1429.07
1461.92
1494
1524.95
1554.77
1583.52
1610.71
12881.8
5231.89
1583.37
1539.84
1491.61
1438.78
1381.5
1320
1254.54
1185.52
1113.51
1039.14
963.333
888.103
816.374
751.743
698.002
657.861
631.92
618.285
613.415
613.576
615.848
618.291
619.877
620.13
618.803
615.807
611.149
604.891
597.121
587.939
577.445
565.734
552.886
538.955
524.001
508.126
511.415
533.522
554.186
573.349
590.973
607.028
621.491
634.359
645.661
655.468
663.916
671.216
677.665
683.646
689.602
695.984
703.172
711.379
720.565
730.409
740.349
749.666
757.608
763.509
766.828
767.181
764.332
758.179
748.719
736.029
720.239
701.517
680.052
656.046
635.389
647.214
687.672
728.082
768.422
808.679
848.848
888.93
928.928
968.846
1008.69
1048.45
1088.13
1127.72
1167.21
1206.56
1245.76
1284.77
1323.54
1362.02
1400.12
1437.75
1474.78
1511.01
1545.95
1579.55
1611.57
1641.26
17668.2
1637.11
1595.22
1546.89
1493.21
1434.72
1371.77
1304.71
1233.96
1160.05
1083.72
1005.75
927.442
851.166
780.026
717.512
666.905
630.272
607.526
596.329
593.111
594.391
597.535
600.815
603.281
604.458
604.144
602.277
598.865
593.949
587.588
579.846
570.786
560.471
548.951
536.264
522.452
507.624
510.728
531.429
550.632
568.286
584.357
598.826
611.687
622.953
632.672
640.939
647.908
653.81
658.958
663.744
668.618
674.029
680.346
687.769
696.248
705.458
714.831
723.658
731.191
736.747
739.778
739.887
736.834
730.504
720.889
708.054
692.119
673.237
651.584
627.349
601.279
607.965
649.182
690.549
732.038
773.632
815.32
857.098
898.966
940.923
982.968
1025.1
1067.3
1109.57
1151.88
1194.21
1236.52
1278.77
1320.88
1362.79
1404.38
1445.5
1485.95
1525.39
1563.21
1599.36
1632.64
1661.57
17534.3
1648.61
1600.72
1546.91
1487.87
1424.12
1356.11
1284.3
1209.19
1131.48
1052.02
971.69
892.082
815.787
745.932
685.852
638.421
605.093
585.167
575.989
574.044
576.127
579.886
583.8
587.018
589.097
589.826
589.115
586.946
583.332
578.307
571.911
564.189
555.183
544.932
533.463
520.815
507.09
510.034
529.34
547.128
563.347
577.973
590.996
602.418
612.267
620.602
627.528
633.209
637.88
641.858
645.534
649.352
653.755
659.106
665.598
673.179
681.522
690.066
698.104
704.898
709.773
712.182
711.73
708.169
701.377
691.334
678.095
661.768
642.495
620.439
595.777
568.691
572.905
612.802
655.039
697.581
740.403
783.493
826.84
870.436
914.278
958.356
1002.66
1047.18
1091.88
1136.75
1181.73
1226.79
1271.84
1316.82
1361.6
1406.04
1449.95
1493.06
1534.83
1574.8
1612.63
1646.88
3051.56
15384.9
1648.74
1595.83
1537.49
1474.14
1406.26
1334.34
1258.94
1180.68
1100.38
1018.96
937.439
857.675
782.379
714.648
657.608
613.711
583.835
566.766
559.616
558.952
561.81
566.077
570.417
574.088
576.702
578.069
578.106
576.785
574.107
570.087
564.747
558.116
550.22
541.086
530.731
519.188
506.551
509.326
527.215
543.575
558.362
571.556
583.152
593.162
601.62
608.594
614.198
618.602
622.049
624.859
627.423
630.182
633.574
637.953
643.503
650.164
657.605
665.266
672.443
678.402
682.474
684.117
682.936
678.683
671.234
660.565
646.723
629.808
609.952
587.308
562.043
534.329
537.857
577.73
620.753
664.245
708.178
752.532
797.291
842.443
887.973
933.867
980.104
1026.66
1073.5
1120.58
1167.85
1215.23
1262.64
1309.97
1357.07
1403.76
1449.83
1494.98
1538.65
1580.36
1619.9
1656.24
9186.81
9990.81
1636.96
1581.48
1520.27
1453.97
1383.18
1308.51
1230.63
1150.29
1068.44
986.018
904.182
825.019
751.271
685.961
631.989
591.405
564.594
549.95
544.462
544.829
548.324
553.04
557.79
561.911
565.052
567.035
567.776
567.238
565.412
562.304
557.924
552.29
545.421
537.334
528.042
517.573
506.014
508.616
525.085
540.027
553.401
565.191
575.399
584.041
591.158
596.823
601.156
604.331
606.592
608.26
609.725
611.421
613.777
617.141
621.687
627.35
633.798
640.469
646.667
651.663
654.796
655.529
653.47
648.374
640.115
628.665
614.069
596.418
575.837
552.472
526.478
498.019
502.219
543.481
587.183
631.502
676.404
721.864
767.859
814.368
861.37
908.841
956.751
1005.06
1053.73
1102.7
1151.89
1201.21
1250.57
1299.82
1348.79
1397.28
1445.04
1491.71
1536.67
1579.49
1619.95
1656.9
13514
5664.39
1618.07
1561
1497.84
1429.44
1356.57
1279.99
1200.47
1118.89
1036.25
953.518
872.008
793.955
722.109
659.402
608.511
571.114
547.168
534.754
530.792
532.115
536.202
541.327
546.43
550.924
554.495
556.983
558.306
558.428
557.334
555.02
551.491
546.756
540.826
533.715
525.43
515.995
505.487
507.902
522.946
536.469
548.434
558.829
567.66
574.947
580.737
585.106
588.178
590.131
591.211
591.737
592.096
592.718
594.025
596.355
599.873
604.506
609.918
615.549
620.705
624.665
626.773
626.5
623.46
617.41
608.228
595.883
580.417
561.919
540.507
516.32
489.507
460.308
466.081
509.562
553.834
598.851
644.577
690.979
738.027
785.694
833.95
882.76
932.085
981.877
1032.08
1082.61
1133.39
1184.31
1235.25
1286.03
1336.47
1386.33
1435.31
1483.02
1528.79
1572.21
1612.96
1649.75
17106.3
2069.49
1594.86
1536.65
1471.98
1402.01
1327.67
1249.83
1169.35
1087.16
1004.33
921.833
841.113
764.507
694.749
634.67
586.726
552.26
530.869
520.403
517.764
519.927
524.559
530.083
535.546
540.42
544.42
547.399
549.281
550.027
549.619
548.05
545.319
541.43
536.391
530.209
522.891
514.455
504.973
507.187
520.806
532.911
543.472
552.478
559.941
565.884
570.358
573.443
575.264
576.003
575.905
575.288
574.537
574.075
574.315
575.585
578.044
581.609
585.942
590.481
594.537
597.395
598.409
597.054
592.954
585.869
575.68
562.357
545.942
526.518
504.203
479.128
451.438
423.82
431.821
475.634
520.358
565.944
612.346
659.528
707.453
756.085
805.386
855.312
905.815
956.834
1008.3
1060.12
1112.2
1164.42
1216.62
1268.63
1320.22
1371.12
1420.99
1469.42
1515.47
1559.24
1599.49
1635.04
18551.3
1623.68
1570.33
1509.9
1443.55
1372.27
1296.95
1218.42
1137.56
1055.33
972.801
890.953
811.367
736.435
668.861
611.377
566.231
534.472
515.395
506.675
505.23
508.171
513.328
519.253
525.081
530.334
534.756
538.211
540.627
541.967
542.21
541.347
539.373
536.29
532.101
526.812
520.425
512.958
504.471
506.471
518.663
529.351
538.507
546.127
552.224
556.826
559.986
561.788
562.36
561.883
560.605
558.84
556.97
555.412
554.571
554.765
556.143
558.615
561.837
565.25
568.165
569.877
569.746
567.256
562.039
553.861
542.606
528.248
510.827
490.428
467.163
441.161
412.561
386.849
397.384
441.43
486.494
532.521
579.462
627.272
675.909
725.328
775.484
826.326
877.794
929.819
982.32
1035.2
1088.34
1141.62
1194.85
1247.86
1300.39
1352.16
1402.8
1451.78
1498.25
1542.08
1581.81
1615.82
17961.8
1598.02
1542.42
1480.41
1412.95
1340.91
1265.11
1186.39
1105.61
1023.75
941.881
860.984
782.757
709.624
644.252
589.27
546.74
517.448
500.443
493.279
492.908
496.572
502.242
508.58
514.794
520.448
525.308
529.247
532.199
534.127
535.009
534.835
533.599
531.298
527.934
523.51
518.028
511.501
503.984
505.755
516.519
525.788
533.539
539.773
544.505
547.766
549.613
550.132
549.453
547.759
545.296
542.378
539.382
536.717
534.782
533.884
534.161
535.518
537.605
539.862
541.606
542.136
540.822
537.16
530.786
521.475
509.115
493.685
475.225
453.819
429.579
402.631
373.109
349.43
362.589
406.771
452.067
498.417
545.766
594.064
643.262
693.309
744.151
795.729
847.976
900.813
954.15
1007.88
1061.88
1115.99
1170.05
1223.85
1277.13
1329.58
1380.83
1430.25
1477.12
1521.21
1561.05
2982.03
16449.7
1568.89
1511.92
1448.99
1380.95
1308.61
1232.75
1154.21
1073.85
992.672
911.698
831.951
755.22
683.938
620.73
568.129
528.023
500.974
485.832
480.066
480.678
485.027
491.209
497.977
504.601
510.679
515.995
520.433
523.928
526.446
527.965
528.472
527.96
526.426
523.87
520.291
515.692
510.083
503.509
505.038
514.373
522.222
528.568
533.414
536.779
538.699
539.231
538.465
536.533
533.618
529.966
525.888
521.758
517.978
514.938
512.935
512.098
512.323
513.255
514.335
514.884
514.209
511.688
506.826
499.269
488.8
475.312
458.787
439.27
416.843
391.619
363.72
333.281
311.605
327.31
371.536
416.964
463.528
511.169
559.829
609.455
659.988
711.369
763.531
816.4
869.888
923.897
978.313
1033
1087.8
1142.53
1196.98
1250.88
1303.92
1355.71
1405.66
1453.06
1497.77
1538.53
6275.99
13614.9
1535.96
1478.84
1415.82
1347.81
1275.65
1200.14
1122.11
1042.46
962.194
882.304
803.85
728.691
659.26
598.143
547.781
509.906
484.889
471.418
466.913
468.429
473.435
480.133
487.352
494.413
500.943
506.74
511.696
515.749
518.867
521.027
522.216
522.426
521.652
519.891
517.144
513.41
508.698
503.045
504.321
512.225
518.653
523.592
527.049
529.046
529.622
528.837
526.784
523.596
519.456
514.611
509.37
504.099
499.198
495.044
491.926
489.963
489.042
488.806
488.694
488.032
486.134
482.389
476.312
467.557
455.915
441.288
423.66
403.079
379.63
353.424
324.583
293.239
273.419
291.471
335.656
381.123
427.801
475.628
524.539
574.476
625.374
677.169
729.786
783.145
837.153
891.705
946.678
1001.93
1057.31
1112.61
1167.61
1222.06
1275.64
1327.95
1378.41
1426.31
1471.58
1512.92
8735.57
11259.3
1501.27
1444.43
1381.73
1314.12
1242.45
1167.56
1090.31
1011.58
932.389
853.711
776.631
703.081
635.476
576.36
528.088
492.257
469.073
457.103
453.738
456.095
461.739
468.961
476.653
484.179
491.189
497.493
502.989
507.62
511.351
514.162
516.038
516.97
516.953
515.982
514.056
511.174
507.343
502.592
503.603
510.076
515.081
518.611
520.678
521.306
520.536
518.432
515.09
510.642
505.276
499.235
492.825
486.411
480.382
475.108
470.869
467.771
465.696
464.28
462.966
461.082
457.952
452.974
445.673
435.714
422.895
407.125
388.395
366.754
342.29
315.113
285.347
253.12
234.921
255.025
299.09
344.512
391.216
439.134
488.198
538.342
589.499
641.597
694.558
748.296
802.712
857.696
913.121
968.841
1024.69
1080.47
1135.95
1190.88
1244.93
1297.71
1348.63
1397
1442.74
1484.53
10664.6
9425.18
1465.74
1409.35
1347.17
1280.19
1209.25
1135.2
1058.9
981.245
903.258
825.881
750.241
678.305
612.48
555.265
508.937
474.972
453.44
442.815
440.48
443.624
449.893
457.65
465.84
473.86
481.379
488.218
494.278
499.505
503.866
507.34
509.912
511.571
512.311
512.127
511.017
508.977
506.012
502.147
502.884
507.924
511.506
513.626
514.301
513.558
511.441
508.017
503.384
497.677
491.082
483.842
476.263
468.701
461.541
455.144
449.777
445.539
442.303
439.702
437.179
434.069
429.702
423.487
414.96
403.797
389.804
372.897
353.071
330.381
304.917
276.789
246.119
213.037
196.159
217.955
261.828
307.128
353.776
401.7
450.827
501.088
552.41
604.717
657.926
711.946
766.674
821.997
877.782
933.88
990.12
1046.3
1102.2
1157.54
1212.01
1265.22
1316.58
1365.39
1411.57
1453.82
12230.2
7943.67
1429.75
1373.94
1312.46
1246.26
1176.21
1103.15
1027.93
951.472
874.777
798.769
724.601
654.27
590.167
534.751
490.231
457.979
437.952
428.529
427.096
430.981
437.87
446.177
454.889
463.431
471.487
478.886
485.534
491.379
496.387
500.538
503.815
506.209
507.71
508.313
508.014
506.809
504.702
501.709
502.165
505.772
507.928
508.638
507.92
505.805
502.34
497.596
491.671
484.704
476.879
468.441
459.691
450.981
442.688
435.164
428.667
423.285
418.884
415.096
411.361
407.022
401.418
393.969
384.22
371.858
356.699
338.665
317.758
294.036
267.59
238.534
206.99
173.083
157.18
180.26
223.874
268.982
315.501
363.354
412.466
462.762
514.165
566.596
619.968
674.186
729.144
784.724
840.792
897.196
953.76
1010.29
1066.54
1122.26
1177.12
1230.73
1282.49
1331.73
1378.37
1421.1
13427.9
6839.39
1393.56
1338.43
1277.74
1212.46
1143.42
1071.47
997.443
922.259
846.92
772.324
699.643
630.889
568.433
514.7
471.838
441.148
422.523
414.252
413.617
418.193
425.684
434.545
443.795
452.88
461.496
469.479
476.737
483.219
488.892
493.735
497.73
500.867
503.135
504.527
505.039
504.666
503.407
501.277
501.446
503.618
504.348
503.647
501.536
498.049
493.237
487.172
479.956
471.728
462.675
453.039
443.117
433.259
423.833
415.182
407.554
401.027
395.461
390.483
385.537
379.971
373.134
364.455
353.492
339.941
323.628
304.483
282.513
257.779
230.378
200.421
168.032
133.336
118.032
141.958
185.251
230.101
276.423
324.135
373.158
423.415
474.825
527.304
580.763
635.104
690.219
745.987
802.271
858.917
915.75
972.569
1029.14
1085.2
1140.42
1194.42
1246.58
1296.27
1343.39
1386.64
14295.7
6057.16
1357.26
1302.9
1243.12
1178.85
1110.93
1040.18
967.434
893.598
819.664
746.511
675.319
608.106
547.22
495.048
453.69
424.384
407.009
399.845
400.001
405.242
413.324
422.741
432.541
442.187
451.385
459.974
467.864
475.004
481.36
486.91
491.637
495.527
498.57
500.757
502.081
502.538
502.124
500.849
500.726
501.463
500.768
498.655
495.151
490.292
484.133
476.749
468.243
458.757
448.476
437.643
426.552
415.547
404.989
395.211
386.452
378.78
372.049
365.883
359.73
352.941
344.877
334.977
322.811
308.085
290.634
270.396
247.384
221.664
193.334
162.508
129.308
100
100
103.074
145.987
190.52
236.581
284.087
332.955
383.104
434.451
486.909
540.386
594.783
649.988
705.88
762.321
819.156
876.209
933.278
990.131
1046.5
1102.06
1156.43
1209.01
1259.15
1306.77
1350.6
14875.3
5561.12
1320.89
1267.4
1208.63
1145.47
1078.76
1009.29
937.899
865.466
792.976
721.288
651.584
585.873
526.479
475.753
435.75
407.661
391.357
385.179
386.173
392.074
400.741
410.722
421.089
431.319
441.122
450.341
458.886
466.706
473.765
480.041
485.515
490.172
494
496.989
499.131
500.419
500.849
500.424
500.006
499.307
497.187
493.664
488.767
482.538
475.033
466.331
456.537
445.794
434.289
422.261
410.003
397.853
386.165
375.262
365.373
356.559
348.665
341.315
333.957
325.953
316.67
305.56
292.204
276.319
257.75
236.441
212.411
185.732
156.503
124.84
100
100
100
100
106.124
150.28
196.022
243.26
291.909
341.886
393.104
445.475
498.905
553.292
608.526
664.482
721.024
777.996
835.222
892.501
949.602
1006.26
1062.14
1116.89
1169.88
1220.49
1268.64
1313.06
15173.8
5331.64
1284.45
1231.95
1174.29
1112.35
1046.92
978.81
908.823
837.838
766.823
696.619
628.398
564.152
506.179
456.796
418.021
391.01
375.594
370.177
372.003
378.577
387.852
398.423
409.387
420.231
430.67
440.548
449.776
458.3
466.086
473.108
479.347
484.786
489.412
493.213
496.179
498.302
499.576
500
500.006
499.306
497.185
493.661
488.763
482.534
475.028
466.325
456.531
445.787
434.281
422.252
409.994
397.843
386.153
375.25
365.36
356.545
348.65
341.299
333.941
325.936
316.652
305.542
292.185
276.3
257.73
236.42
212.391
185.711
156.482
124.82
100
100
100
100
106.114
150.271
196.013
243.252
291.902
341.879
393.098
445.47
498.9
553.288
608.522
664.479
721.021
777.993
835.22
892.499
949.601
1006.25
1062.14
1116.89
1169.88
1220.49
1268.64
1313.06
15174.8
5330.48
1284.45
1231.94
1174.29
1112.35
1046.92
978.813
908.827
837.842
766.828
696.624
628.404
564.159
506.186
456.803
418.028
391.018
375.602
370.185
372.011
378.584
387.859
398.43
409.393
420.236
430.675
440.553
449.78
458.304
466.09
473.111
479.35
484.788
489.414
493.214
496.18
498.303
499.577
500
500.725
501.46
500.764
498.65
495.144
490.284
484.123
476.737
468.23
458.742
448.46
437.624
426.532
415.525
404.965
395.186
386.425
378.752
372.019
365.852
359.696
352.906
344.84
334.939
322.771
308.044
290.593
270.354
247.341
221.621
193.29
162.464
129.264
100
100
103.057
145.973
190.506
236.569
284.077
332.947
383.097
434.445
486.904
540.383
594.78
649.987
705.879
762.321
819.157
876.21
933.28
990.134
1046.5
1102.06
1156.44
1209.02
1259.15
1306.78
1350.6
14878.6
5557.57
1320.88
1267.39
1208.62
1145.47
1078.76
1009.29
937.902
865.47
792.982
721.295
651.593
585.883
526.49
475.765
435.763
407.675
391.373
385.195
386.189
392.089
400.756
410.736
421.102
431.33
441.133
450.351
458.895
466.714
473.773
480.047
485.52
490.177
494.004
496.992
499.133
500.42
500.849
500.424
501.445
503.615
504.345
503.642
501.529
498.04
493.227
487.16
479.942
471.713
462.658
453.019
443.096
433.236
423.809
415.156
407.526
400.998
395.429
390.45
385.502
379.935
373.095
364.415
353.45
339.898
323.583
304.436
282.465
257.731
230.328
200.371
167.982
133.285
118.002
141.951
185.246
230.098
276.422
324.136
373.161
423.419
474.83
527.311
580.772
635.114
690.23
745.998
802.283
858.93
915.763
972.583
1029.16
1085.21
1140.43
1194.43
1246.6
1296.28
1343.4
1386.65
14301.4
6051.14
1357.24
1302.88
1243.11
1178.84
1110.92
1040.17
967.428
893.594
819.662
746.511
675.321
608.11
547.225
495.056
453.7
424.396
407.023
399.861
400.017
405.258
413.339
422.755
432.554
442.199
451.396
459.984
467.873
475.012
481.367
486.916
491.642
495.531
498.574
500.76
502.084
502.539
502.125
500.849
502.165
505.769
507.925
508.633
507.913
505.796
502.33
497.584
491.657
484.688
476.862
468.421
459.669
450.957
442.663
435.137
428.638
423.255
418.852
415.062
411.325
406.984
401.378
393.926
384.175
371.811
356.65
338.614
317.706
293.982
267.535
238.478
206.932
173.025
157.151
180.263
223.88
268.99
315.511
363.366
412.48
462.778
514.183
566.615
619.988
674.207
729.167
784.748
840.816
897.22
953.785
1010.31
1066.56
1122.28
1177.14
1230.75
1282.51
1331.75
1378.39
1421.12
13436.1
6830.8
1393.53
1338.4
1277.72
1212.44
1143.4
1071.45
997.428
922.247
846.91
772.315
699.636
630.885
568.432
514.702
471.844
441.158
422.536
414.267
413.633
418.209
425.7
434.56
443.809
452.893
461.508
469.489
476.747
483.228
488.9
493.741
497.736
500.871
503.138
504.53
505.041
504.667
503.408
501.277
502.884
507.922
511.502
513.622
514.295
513.55
511.431
508.006
503.37
497.661
491.064
483.822
476.241
468.678
461.516
455.117
449.748
445.508
442.27
439.668
437.142
434.03
429.66
423.443
414.914
403.748
389.752
372.842
353.015
330.323
304.856
276.726
246.056
212.971
196.131
217.968
261.844
307.146
353.797
401.723
450.853
501.116
552.44
604.748
657.958
711.979
766.709
822.032
877.817
933.916
990.156
1046.34
1102.24
1157.58
1212.04
1265.26
1316.61
1365.42
1411.6
1453.84
12241.7
7931.79
1429.72
1373.91
1312.43
1246.23
1176.18
1103.13
1027.91
951.45
874.757
798.751
724.586
654.259
590.159
534.748
490.233
457.986
437.963
428.544
427.112
430.998
437.886
446.192
454.904
463.444
471.499
478.897
485.544
491.388
496.395
500.544
503.821
506.214
507.714
508.316
508.016
506.811
504.702
501.709
503.602
510.074
515.078
518.607
520.672
521.298
520.526
518.42
515.076
510.627
505.258
499.215
492.804
486.387
480.356
475.081
470.839
467.74
465.663
464.246
462.929
461.043
457.91
452.929
445.624
435.662
422.84
407.068
388.334
366.691
342.224
315.045
285.277
253.047
234.895
255.049
299.117
344.542
391.249
439.169
488.236
538.382
589.541
641.641
694.604
748.342
802.759
857.744
913.169
968.889
1024.74
1080.52
1136
1190.92
1244.97
1297.75
1348.67
1397.04
1442.77
1484.56
10679.1
9409.91
1465.7
1409.31
1347.13
1280.15
1209.21
1135.17
1058.86
981.212
903.228
825.853
750.216
678.285
612.465
555.256
508.935
474.976
453.45
442.828
440.496
443.641
449.91
457.666
465.855
473.874
481.391
488.229
494.288
499.514
503.874
507.346
509.917
511.576
512.315
512.13
511.019
508.978
506.013
502.147
504.32
512.223
518.65
523.588
527.043
529.039
529.613
528.826
526.771
523.58
519.438
514.591
509.348
504.075
499.172
495.016
491.897
489.932
489.01
488.771
488.657
487.992
486.091
482.343
476.261
467.503
455.858
441.227
423.596
403.011
379.559
353.35
324.507
293.16
273.395
291.506
335.695
381.165
427.847
475.676
524.59
574.529
625.429
677.225
729.844
783.204
837.213
891.765
946.738
1001.99
1057.37
1112.67
1167.67
1222.12
1275.69
1328
1378.46
1426.36
1471.62
1512.96
8752.01
11241.8
1501.23
1444.38
1381.68
1314.07
1242.4
1167.52
1090.26
1011.53
932.35
853.673
776.597
703.052
635.453
576.344
528.08
492.257
469.08
457.115
453.754
456.112
461.756
468.977
476.668
484.193
491.202
497.505
502.999
507.629
511.359
514.168
516.043
516.975
516.957
515.985
514.058
511.176
507.343
502.592
505.037
514.371
522.219
528.564
533.409
536.772
538.69
539.22
538.452
536.518
533.6
529.946
525.867
521.734
517.953
514.911
512.906
512.068
512.29
513.22
514.298
514.844
514.165
511.64
506.774
499.213
488.74
475.248
458.72
439.198
416.768
391.54
363.638
333.195
311.583
327.358
371.588
417.019
463.586
511.229
559.893
609.521
660.056
711.439
763.602
816.472
869.96
923.97
978.385
1033.07
1087.87
1142.6
1197.04
1250.94
1303.98
1355.77
1405.72
1453.11
1497.82
1538.58
6302.05
13590.2
1535.91
1478.78
1415.76
1347.75
1275.59
1200.08
1122.05
1042.41
962.142
882.256
803.806
728.652
659.229
598.12
547.767
509.902
484.893
471.43
466.928
468.446
473.452
480.15
487.367
494.427
500.956
506.751
511.706
515.758
518.874
521.033
522.222
522.43
521.655
519.894
517.146
513.411
508.699
503.045
505.754
516.517
525.785
533.536
539.768
544.498
547.758
549.603
550.12
549.439
547.743
545.277
542.357
539.358
536.692
534.755
533.855
534.131
535.486
537.571
539.825
541.565
542.092
540.774
537.107
530.728
521.413
509.048
493.613
475.149
453.739
429.494
402.542
373.016
349.41
362.649
406.835
452.135
498.488
545.841
594.142
643.342
693.39
744.234
795.814
848.061
900.899
954.235
1007.96
1061.96
1116.07
1170.13
1223.93
1277.2
1329.65
1380.9
1430.32
1477.17
1521.26
1561.1
3012.08
16421
1568.83
1511.86
1448.93
1380.89
1308.54
1232.69
1154.14
1073.78
992.609
911.638
831.896
755.17
683.896
620.698
568.108
528.013
500.975
485.841
480.08
480.694
485.044
491.226
497.993
504.615
510.692
516.007
520.443
523.937
526.453
527.971
528.477
527.964
526.43
523.872
520.293
515.693
510.083
503.509
506.471
518.662
529.349
538.504
546.122
552.218
556.818
559.976
561.776
562.346
561.867
560.586
558.82
556.947
555.387
554.545
554.737
556.113
558.583
561.803
565.213
568.125
569.833
569.697
567.203
561.98
553.797
542.537
528.173
510.748
490.343
467.073
441.066
412.461
386.832
397.457
441.508
486.576
532.607
579.551
627.364
676.003
725.424
775.582
826.425
877.894
929.919
982.419
1035.3
1088.44
1141.71
1194.94
1247.94
1300.48
1352.24
1402.87
1451.85
1498.3
1542.13
1581.85
1615.83
17955.9
1597.98
1542.37
1480.35
1412.88
1340.84
1265.04
1186.31
1105.53
1023.68
941.809
860.916
782.695
709.571
644.21
589.241
546.724
517.444
500.448
493.291
492.924
496.589
502.259
508.595
514.808
520.461
525.319
529.257
532.208
534.134
535.015
534.84
533.602
531.3
527.936
523.511
518.029
511.502
503.984
507.187
520.805
532.91
543.469
552.475
559.936
565.878
570.349
573.432
575.251
575.988
575.888
575.269
574.515
574.051
574.289
575.558
578.015
581.579
585.909
590.445
594.498
597.351
598.36
597
592.894
585.803
575.608
562.279
545.858
526.429
504.108
479.028
451.332
423.807
431.909
475.726
520.454
566.044
612.45
659.635
707.562
756.196
805.499
855.426
905.929
956.948
1008.41
1060.23
1112.31
1164.53
1216.72
1268.73
1320.31
1371.2
1421.07
1469.49
1515.52
1559.28
1599.5
1635.02
18544.1
1623.67
1570.29
1509.84
1443.47
1372.19
1296.86
1218.33
1137.46
1055.24
972.714
890.871
811.291
736.368
668.807
611.337
566.207
534.463
515.397
506.685
505.245
508.188
513.344
519.268
525.095
530.347
534.767
538.221
540.635
541.974
542.215
541.351
539.377
536.292
532.103
526.813
520.426
512.958
504.471
507.902
522.946
536.468
548.433
558.827
567.656
574.942
580.729
585.097
588.167
590.117
591.195
591.718
592.075
592.696
594.001
596.329
599.845
604.476
609.886
615.514
620.666
624.621
626.724
626.445
623.399
617.343
608.154
595.802
580.33
561.825
540.407
516.213
489.394
460.298
466.183
509.669
553.945
598.967
644.696
691.101
738.152
785.821
834.078
882.889
932.215
982.007
1032.21
1082.74
1133.52
1184.44
1235.37
1286.14
1336.58
1386.43
1435.4
1483.11
1528.85
1572.27
1613
1649.76
17127.2
2047.88
1594.77
1536.55
1471.87
1401.9
1327.56
1249.72
1169.24
1087.05
1004.23
921.733
841.021
764.426
694.681
634.618
586.692
552.243
530.867
520.41
517.777
519.943
524.575
530.098
535.56
540.432
544.431
547.409
549.289
550.034
549.624
548.054
545.322
541.432
536.392
530.21
522.891
514.455
504.973
508.616
525.084
540.026
553.4
565.189
575.396
584.036
591.151
596.815
601.145
604.318
606.577
608.243
609.705
611.399
613.754
617.116
621.661
627.322
633.767
640.436
646.629
651.621
654.748
655.474
653.408
648.305
640.038
628.582
613.978
596.319
575.732
552.359
526.359
497.893
502.213
543.603
587.311
631.633
676.539
722.002
767.999
814.51
861.514
908.986
956.896
1005.21
1053.87
1102.84
1152.03
1201.35
1250.7
1299.95
1348.92
1397.4
1445.15
1491.81
1536.76
1579.56
1620.01
1656.94
13541.2
5635.42
1617.96
1560.88
1497.71
1429.31
1356.44
1279.86
1200.34
1118.76
1036.12
953.399
871.898
793.857
722.025
659.337
608.466
571.09
547.161
534.759
530.804
532.13
536.218
541.342
546.444
550.936
554.506
556.992
558.314
558.434
557.338
555.023
551.493
546.757
540.827
533.716
525.43
515.994
505.487
509.327
527.215
543.575
558.362
571.555
583.15
593.158
601.615
608.587
614.189
618.591
622.035
624.843
627.405
630.163
633.553
637.93
643.479
650.137
657.576
665.234
672.406
678.36
682.426
684.061
682.873
678.612
671.156
660.478
646.629
629.705
609.841
587.19
561.917
534.195
537.854
577.869
620.897
664.392
708.329
752.686
797.448
842.602
888.133
934.028
980.266
1026.82
1073.66
1120.74
1168
1215.38
1262.79
1310.11
1357.2
1403.9
1449.96
1495.09
1538.75
1580.45
1619.98
1656.31
9226.85
9951.77
1636.82
1581.33
1520.12
1453.82
1383.02
1308.35
1230.47
1150.14
1068.29
985.878
904.052
824.902
751.171
685.881
631.932
591.371
564.581
549.952
544.473
544.844
548.34
553.056
557.804
561.924
565.063
567.044
567.783
567.243
565.416
562.307
557.926
552.291
545.421
537.334
528.042
517.573
506.014
510.034
529.341
547.129
563.348
577.973
590.995
602.416
612.264
620.597
627.521
633.199
637.868
641.844
645.518
649.334
653.735
659.085
665.576
673.155
681.495
690.035
698.069
704.857
709.725
712.127
711.667
708.097
701.296
691.245
677.997
661.661
642.379
620.314
595.643
568.549
572.907
612.958
655.2
697.745
740.572
783.664
827.013
870.612
914.454
958.532
1002.84
1047.35
1092.06
1136.92
1181.9
1226.95
1272.01
1316.98
1361.75
1406.19
1450.09
1493.19
1534.96
1574.91
1612.74
1646.99
3098.5
15341
1648.59
1595.67
1537.31
1473.96
1406.07
1334.16
1258.76
1180.5
1100.21
1018.8
937.291
857.54
782.262
714.553
657.539
613.668
583.815
566.764
559.626
558.967
561.827
566.093
570.432
574.1
576.712
578.077
578.113
576.79
574.11
570.089
564.749
558.116
550.22
541.086
530.731
519.187
506.551
510.729
531.43
550.634
568.287
584.358
598.827
611.686
622.951
632.669
640.934
647.901
653.8
658.946
663.731
668.603
674.012
680.327
687.749
696.227
705.434
714.804
723.625
731.152
736.701
739.723
739.824
736.761
730.421
720.796
707.951
692.007
673.115
651.452
627.208
601.287
608.134
649.356
690.727
732.22
773.817
815.508
857.288
899.158
941.115
983.16
1025.29
1067.49
1109.76
1152.07
1194.4
1236.7
1278.94
1321.06
1362.96
1404.54
1445.66
1486.11
1525.53
1563.34
1599.48
1632.73
1661.61
17523.2
1648.49
1600.56
1546.73
1487.68
1423.92
1355.92
1284.1
1209
1131.3
1051.85
971.529
891.934
815.656
745.824
685.771
638.369
605.067
585.162
575.997
574.06
576.145
579.903
583.815
587.031
589.108
589.834
589.121
586.95
583.335
578.309
571.912
564.189
555.182
544.931
533.462
520.814
507.09
511.416
533.523
554.189
573.352
590.976
607.031
621.493
634.36
645.66
655.465
663.911
671.209
677.656
683.635
689.589
695.97
703.157
711.363
720.546
730.388
740.324
749.635
757.57
763.462
766.772
767.116
764.257
758.093
748.623
735.922
720.121
701.389
679.914
655.898
635.401
647.399
687.863
728.278
768.622
808.881
849.053
889.136
929.135
969.053
1008.89
1048.65
1088.33
1127.92
1167.4
1206.76
1245.95
1284.96
1323.73
1362.2
1400.3
1437.93
1474.95
1511.18
1546.11
1579.72
1611.74
1641.42
17688.8
1636.96
1595.02
1546.68
1493
1434.5
1371.56
1304.51
1233.77
1159.86
1083.55
1005.59
927.286
851.026
779.908
717.42
666.843
630.24
607.518
596.337
593.127
594.409
597.552
600.831
603.294
604.468
604.152
602.282
598.868
593.951
587.589
579.846
570.785
560.469
548.95
536.263
522.452
507.624
512.055
535.449
557.477
578.087
597.225
614.842
630.89
645.337
658.182
669.476
679.338
687.971
695.677
702.846
709.917
717.308
725.392
734.384
744.252
754.681
765.11
774.828