/*--------------------------------*- C++ -*----------------------------------*\
  =========                 |
  \\      /  F ield         | OpenFOAM: The Open Source CFD Toolbox
   \\    /   O peration     | Website:  https://openfoam.org
    \\  /    A nd           | Version:  8
     \\/     M anipulation  |
\*---------------------------------------------------------------------------*/
FoamFile
{
    version     2.0;
    format      ascii;
    class       volScalarField;
    location    "360/fluid";
    object      rho;
}
// * * * * * * * * * * * * * * * * * * * * * * * * * * * * * * * * * * * * * //

dimensions      [1 -3 0 0 0 0 0];

internalField   nonuniform List<scalar> 
4000
(
0.658526
0.658502
0.658462
0.658394
0.658281
0.658094
0.657786
0.657286
0.65648
0.655199
0.653195
0.650117
0.645503
0.638777
0.629303
0.616487
0.59994
0.579641
0.556048
0.530051
0.502778
0.475388
0.448845
0.423819
0.40068
0.379558
0.360422
0.343144
0.327553
0.31346
0.300687
0.289067
0.278457
0.268735
0.259797
0.251557
0.24391
0.236775
0.2301
0.223838
0.217951
0.212406
0.207173
0.20223
0.197555
0.193132
0.188946
0.184987
0.181243
0.177709
0.174377
0.171246
0.168313
0.165579
0.163049
0.160732
0.158639
0.156792
0.155244
0.154015
0.153126
0.152694
0.152848
0.156345
0.165686
0.17672
0.1897
0.204961
0.222948
0.244243
0.269601
0.300009
0.336738
0.381441
0.436361
0.503967
0.586241
0.683497
0.792195
0.902974
1.00209
1.078
1.12773
1.15619
1.17082
1.1779
1.18119
1.18267
1.18333
1.18361
1.18373
1.18378
1.18381
1.18381
1.18382
1.18382
1.18382
1.18382
1.18382
1.18382
0.658526
0.658502
0.658461
0.658392
0.658277
0.658087
0.657774
0.657264
0.656443
0.655139
0.653102
0.649983
0.645321
0.638549
0.629044
0.61623
0.599731
0.579529
0.556067
0.53021
0.50309
0.475829
0.44937
0.424376
0.401228
0.380073
0.360888
0.343555
0.327906
0.313757
0.300931
0.289264
0.278611
0.268848
0.259873
0.251601
0.243928
0.236771
0.230076
0.223796
0.217893
0.212333
0.207088
0.202133
0.197448
0.193016
0.188823
0.184858
0.181109
0.177571
0.174237
0.171103
0.168169
0.165435
0.162906
0.16059
0.1585
0.156654
0.155109
0.153882
0.152994
0.152561
0.152704
0.157385
0.166897
0.178163
0.191447
0.207105
0.225607
0.247571
0.273807
0.305371
0.343626
0.390358
0.447953
0.518881
0.604891
0.705577
0.816035
0.925439
1.01988
1.08968
1.13419
1.15931
1.17221
1.17848
1.18142
1.18276
1.18336
1.18362
1.18374
1.18379
1.18381
1.18382
1.18382
1.18382
1.18382
1.18382
1.18382
1.18382
0.658526
0.658501
0.65846
0.65839
0.658272
0.658078
0.657759
0.65724
0.656404
0.655078
0.653011
0.649853
0.645145
0.638325
0.628781
0.615948
0.59946
0.57931
0.555938
0.530198
0.503191
0.476026
0.449638
0.424693
0.401568
0.380412
0.361209
0.343847
0.328161
0.313973
0.301106
0.289397
0.278706
0.26891
0.259905
0.251605
0.243904
0.23672
0.23
0.223698
0.217773
0.212194
0.20693
0.201959
0.19726
0.192815
0.188611
0.184636
0.18088
0.177335
0.173997
0.170861
0.167926
0.165195
0.162669
0.160359
0.158276
0.15644
0.154915
0.153705
0.152832
0.152417
0.1526
0.159069
0.168849
0.180487
0.194252
0.210519
0.229789
0.252723
0.280188
0.313307
0.353522
0.402748
0.463412
0.537794
0.627159
0.730118
0.840445
0.946532
1.03533
1.09927
1.13937
1.16185
1.17338
1.179
1.18164
1.18286
1.1834
1.18364
1.18374
1.18379
1.18381
1.18382
1.18382
1.18382
1.18382
1.18382
1.18382
1.18382
0.658526
0.658501
0.658459
0.658388
0.658269
0.658073
0.65775
0.657225
0.65638
0.655043
0.652962
0.649785
0.645056
0.638216
0.628655
0.615816
0.599339
0.579218
0.555892
0.530206
0.503248
0.476126
0.449776
0.424853
0.401738
0.380578
0.361363
0.343982
0.328273
0.314061
0.30117
0.289438
0.278721
0.268898
0.259865
0.251537
0.24381
0.236601
0.229858
0.223533
0.217588
0.211989
0.206707
0.20172
0.197005
0.192547
0.188332
0.184347
0.180583
0.177032
0.173691
0.170554
0.167622
0.164895
0.16238
0.160084
0.158021
0.156212
0.154722
0.153536
0.152683
0.152263
0.152369
0.160842
0.171062
0.183217
0.197599
0.214608
0.234783
0.258831
0.287675
0.322505
0.364841
0.416721
0.480564
0.558417
0.651006
0.755929
0.865699
0.96811
1.0511
1.10918
1.14485
1.1646
1.17468
1.17959
1.1819
1.18297
1.18345
1.18366
1.18375
1.18379
1.18381
1.18382
1.18382
1.18382
1.18382
1.18382
1.18382
1.18382
0.658526
0.658501
0.658458
0.658386
0.658267
0.658068
0.657742
0.657213
0.656362
0.655015
0.65292
0.649726
0.644975
0.638111
0.628529
0.615673
0.599192
0.579082
0.555783
0.530135
0.50322
0.476135
0.449808
0.424898
0.401788
0.380627
0.361405
0.344012
0.328288
0.314057
0.301144
0.289388
0.278647
0.2688
0.259745
0.251396
0.243647
0.236418
0.229654
0.22331
0.217346
0.21173
0.206433
0.20143
0.196702
0.192233
0.188006
0.184013
0.180242
0.176688
0.173344
0.170209
0.167282
0.164566
0.162067
0.159796
0.157771
0.156026
0.154616
0.153526
0.15287
0.152756
0.153356
0.162494
0.173331
0.186123
0.201207
0.21903
0.240173
0.265394
0.295673
0.332267
0.376776
0.431345
0.498323
0.579471
0.674894
0.781131
0.889573
0.987785
1.06501
1.1177
1.14949
1.16691
1.17577
1.18009
1.18213
1.18307
1.18349
1.18368
1.18376
1.1838
1.18381
1.18382
1.18382
1.18382
1.18382
1.18382
1.18382
1.18382
0.658526
0.658501
0.658457
0.658385
0.658265
0.658065
0.657737
0.657204
0.656349
0.654995
0.652891
0.649685
0.644919
0.638038
0.628437
0.615565
0.599071
0.578956
0.555659
0.530021
0.503119
0.476049
0.449735
0.424834
0.401726
0.380562
0.361333
0.343929
0.328193
0.313948
0.301019
0.289248
0.278491
0.268629
0.259558
0.251192
0.243427
0.236181
0.229401
0.223042
0.217063
0.211433
0.206122
0.201107
0.196368
0.191889
0.187654
0.183654
0.179879
0.176322
0.172979
0.169847
0.166926
0.16422
0.161737
0.159488
0.157495
0.15581
0.154473
0.153489
0.153008
0.153198
0.155034
0.1646
0.175923
0.189276
0.20502
0.223631
0.245726
0.272108
0.30381
0.342148
0.388813
0.446025
0.516017
0.600238
0.698129
0.805191
0.911866
1.00576
1.0775
1.12529
1.15363
1.16899
1.17677
1.18055
1.18234
1.18316
1.18353
1.18369
1.18377
1.1838
1.18381
1.18382
1.18382
1.18382
1.18382
1.18382
1.18382
1.18382
0.658526
0.6585
0.658457
0.658384
0.658263
0.658063
0.657733
0.657198
0.656338
0.654979
0.652866
0.649648
0.644868
0.637968
0.628346
0.615452
0.598936
0.578804
0.555495
0.52985
0.502947
0.475879
0.449568
0.424669
0.401562
0.380398
0.361165
0.343757
0.328015
0.313762
0.300824
0.289043
0.278276
0.268403
0.259321
0.250944
0.243166
0.235908
0.229116
0.222744
0.216754
0.211112
0.205791
0.200767
0.19602
0.191533
0.187292
0.183288
0.17951
0.175953
0.172611
0.169483
0.166568
0.163871
0.161399
0.159164
0.157186
0.155517
0.154191
0.153206
0.152687
0.152748
0.157153
0.167002
0.178709
0.192549
0.208895
0.228245
0.251249
0.278747
0.311824
0.351848
0.400609
0.460366
0.533197
0.620214
0.720164
0.827558
0.932072
1.02161
1.08826
1.13171
1.1571
1.17073
1.1776
1.18094
1.18251
1.18324
1.18356
1.18371
1.18377
1.1838
1.18381
1.18382
1.18382
1.18382
1.18382
1.18382
1.18382
1.18382
0.658526
0.6585
0.658457
0.658384
0.658262
0.65806
0.65773
0.657192
0.656329
0.654965
0.652845
0.649617
0.644822
0.637904
0.62826
0.615339
0.598796
0.578637
0.555304
0.529641
0.502725
0.47565
0.449335
0.424436
0.401329
0.380165
0.360933
0.343523
0.327779
0.313522
0.30058
0.288794
0.278021
0.26814
0.259052
0.250668
0.242881
0.235613
0.228812
0.222431
0.216432
0.210783
0.205454
0.200423
0.19567
0.191178
0.186935
0.182928
0.17915
0.175595
0.172257
0.169135
0.166229
0.163543
0.161084
0.158865
0.156907
0.155266
0.153963
0.152998
0.152501
0.152602
0.159182
0.169327
0.181409
0.195714
0.212634
0.232688
0.256557
0.285119
0.319505
0.361135
0.411896
0.474047
0.549504
0.639016
0.740636
0.847961
0.9501
1.03544
1.09747
1.13715
1.16003
1.1722
1.1783
1.18126
1.18266
1.1833
1.18359
1.18372
1.18378
1.1838
1.18381
1.18382
1.18382
1.18382
1.18382
1.18382
1.18382
1.18382
0.658526
0.6585
0.658456
0.658383
0.658261
0.658059
0.657726
0.657187
0.656321
0.654952
0.652825
0.649587
0.644778
0.637841
0.628172
0.615222
0.598647
0.578454
0.55509
0.529402
0.502467
0.475379
0.449058
0.424157
0.401051
0.379888
0.360658
0.34325
0.327506
0.31325
0.300307
0.288518
0.277742
0.267858
0.258766
0.250377
0.242584
0.23531
0.228502
0.222116
0.216111
0.210456
0.205122
0.200086
0.19533
0.190836
0.186591
0.182586
0.17881
0.175259
0.171927
0.168814
0.165921
0.16325
0.160811
0.158615
0.156685
0.15508
0.153805
0.152876
0.152418
0.152568
0.160969
0.171404
0.18386
0.198624
0.2161
0.23683
0.261521
0.29109
0.326709
0.369855
0.422498
0.486871
0.564721
0.656422
0.759351
0.866286
0.96595
1.04734
1.10526
1.14169
1.16245
1.17341
1.17888
1.18153
1.18278
1.18336
1.18362
1.18373
1.18378
1.18381
1.18381
1.18382
1.18382
1.18382
1.18382
1.18382
1.18382
1.18382
0.658526
0.6585
0.658456
0.658383
0.65826
0.658057
0.657724
0.657182
0.656314
0.65494
0.652806
0.649558
0.644735
0.637778
0.628083
0.615102
0.598491
0.578261
0.554862
0.529143
0.502185
0.475082
0.448754
0.42385
0.400745
0.379585
0.360359
0.342955
0.327214
0.31296
0.300019
0.288231
0.277454
0.26757
0.258476
0.250085
0.242288
0.23501
0.228199
0.221808
0.215799
0.21014
0.204804
0.199766
0.195008
0.190514
0.18627
0.182267
0.178496
0.174951
0.171628
0.168527
0.165649
0.162998
0.160585
0.158422
0.156532
0.154994
0.15375
0.152908
0.152553
0.15282
0.162024
0.172971
0.185911
0.201181
0.219221
0.240605
0.266076
0.296589
0.333359
0.377919
0.432307
0.498713
0.578714
0.672308
0.776228
0.882542
0.979741
1.0575
1.11181
1.14547
1.16446
1.17441
1.17936
1.18176
1.18288
1.1834
1.18364
1.18374
1.18379
1.18381
1.18382
1.18382
1.18382
1.18382
1.18382
1.18382
1.18382
1.18382
0.658526
0.6585
0.658456
0.658382
0.658259
0.658055
0.657721
0.657178
0.656306
0.654929
0.652788
0.64953
0.644693
0.637716
0.627995
0.614981
0.598332
0.578063
0.554626
0.528875
0.501893
0.474774
0.448436
0.42353
0.400427
0.379272
0.360051
0.342653
0.326917
0.312668
0.29973
0.287944
0.277169
0.267285
0.258192
0.249801
0.242002
0.234722
0.227908
0.221515
0.215505
0.209844
0.204506
0.199467
0.19471
0.190216
0.185975
0.181976
0.17821
0.174672
0.17136
0.168271
0.16541
0.162781
0.160395
0.158269
0.156436
0.154967
0.153822
0.153134
0.153021
0.153686
0.163223
0.174524
0.18785
0.203553
0.222092
0.244066
0.270246
0.30162
0.339441
0.385299
0.441284
0.509528
0.591435
0.68664
0.791281
0.896818
0.991637
1.06612
1.11729
1.1486
1.16611
1.17523
1.17976
1.18194
1.18297
1.18344
1.18365
1.18375
1.18379
1.18381
1.18382
1.18382
1.18382
1.18382
1.18382
1.18382
1.18382
1.18382
0.658526
0.6585
0.658456
0.658382
0.658258
0.658054
0.657719
0.657174
0.6563
0.654918
0.652771
0.649503
0.644652
0.637655
0.627908
0.614862
0.598175
0.577866
0.554391
0.528607
0.5016
0.474465
0.44812
0.423212
0.400111
0.378961
0.359747
0.342356
0.326627
0.312383
0.299449
0.287667
0.276896
0.267014
0.257923
0.249533
0.241733
0.234453
0.227638
0.221244
0.215233
0.209572
0.204233
0.199196
0.194439
0.189948
0.18571
0.181714
0.177954
0.174424
0.17112
0.168043
0.165195
0.162583
0.160218
0.158118
0.156327
0.154899
0.15381
0.153199
0.153198
0.154706
0.164489
0.176064
0.189702
0.205769
0.224739
0.247231
0.27404
0.306185
0.344951
0.391981
0.449404
0.519284
0.602861
0.69942
0.804557
0.90923
1.00181
1.07337
1.12185
1.15119
1.16747
1.1759
1.18008
1.18209
1.18304
1.18347
1.18367
1.18375
1.18379
1.18381
1.18382
1.18382
1.18382
1.18382
1.18382
1.18382
1.18382
1.18382
0.658526
0.6585
0.658455
0.658381
0.658257
0.658053
0.657716
0.65717
0.656293
0.654907
0.652754
0.649478
0.644612
0.637597
0.627824
0.614747
0.598024
0.577676
0.554164
0.528348
0.501317
0.474166
0.447814
0.422905
0.399808
0.378664
0.359457
0.342074
0.326352
0.312114
0.299186
0.287409
0.276641
0.266763
0.257674
0.249286
0.241487
0.234207
0.227392
0.220998
0.214987
0.209327
0.20399
0.198953
0.194198
0.189709
0.185475
0.181484
0.177729
0.174205
0.17091
0.167842
0.165004
0.162403
0.16005
0.157961
0.15618
0.154756
0.15366
0.153017
0.152934
0.15581
0.165763
0.177545
0.191435
0.207806
0.227145
0.250087
0.277449
0.310274
0.349875
0.397948
0.456643
0.527961
0.612981
0.710666
0.816123
0.919902
1.01044
1.07944
1.12562
1.15332
1.16858
1.17645
1.18035
1.18221
1.18309
1.18349
1.18368
1.18376
1.18379
1.18381
1.18382
1.18382
1.18382
1.18382
1.18382
1.18382
1.18382
1.18382
0.658526
0.6585
0.658455
0.658381
0.658257
0.658051
0.657714
0.657166
0.656288
0.654898
0.652739
0.649454
0.644576
0.637543
0.627747
0.614639
0.597882
0.577498
0.553951
0.528106
0.501053
0.473888
0.44753
0.42262
0.399527
0.37839
0.35919
0.341814
0.3261
0.311869
0.298947
0.287174
0.276411
0.266536
0.257451
0.249065
0.241268
0.233988
0.227175
0.220782
0.214772
0.209112
0.203776
0.198742
0.193989
0.189503
0.185272
0.181286
0.177536
0.174019
0.17073
0.16767
0.164841
0.162249
0.159905
0.157825
0.156052
0.154635
0.153539
0.152889
0.152792
0.156819
0.166921
0.178883
0.192989
0.209621
0.229279
0.252611
0.280452
0.313868
0.354196
0.403182
0.462992
0.535552
0.621802
0.720406
0.826053
0.928959
1.01767
1.08447
1.12872
1.15505
1.16949
1.1769
1.18056
1.18231
1.18314
1.18352
1.18369
1.18376
1.1838
1.18381
1.18382
1.18382
1.18382
1.18382
1.18382
1.18382
1.18382
1.18382
0.658526
0.658499
0.658455
0.65838
0.658256
0.65805
0.657712
0.657163
0.656282
0.654889
0.652725
0.649432
0.644543
0.637494
0.627676
0.614542
0.597754
0.577337
0.553759
0.527887
0.500815
0.473638
0.447274
0.422365
0.399275
0.378144
0.358952
0.341584
0.325876
0.311652
0.298736
0.286968
0.276209
0.266338
0.257256
0.248873
0.241078
0.2338
0.226988
0.220596
0.214588
0.20893
0.203596
0.198563
0.193813
0.189331
0.185103
0.181121
0.177377
0.173865
0.170583
0.16753
0.164709
0.162126
0.159791
0.157721
0.155958
0.154548
0.153458
0.152811
0.152714
0.157672
0.167914
0.180036
0.19433
0.211186
0.231116
0.25478
0.28303
0.316951
0.357904
0.407673
0.468431
0.542047
0.629326
0.728672
0.834415
0.936514
1.02363
1.08858
1.13123
1.15645
1.17022
1.17726
1.18073
1.18239
1.18317
1.18353
1.18369
1.18377
1.1838
1.18381
1.18382
1.18382
1.18382
1.18382
1.18382
1.18382
1.18382
1.18382
0.658526
0.658499
0.658455
0.65838
0.658256
0.658049
0.657711
0.657161
0.656278
0.654882
0.652714
0.649414
0.644515
0.637451
0.627615
0.614458
0.597643
0.577198
0.553593
0.527698
0.500608
0.473422
0.447053
0.422145
0.399059
0.377934
0.358748
0.341386
0.325685
0.311467
0.298556
0.286794
0.276039
0.266172
0.257093
0.248713
0.24092
0.233644
0.226833
0.220443
0.214436
0.20878
0.203448
0.198418
0.19367
0.189191
0.184967
0.18099
0.17725
0.173744
0.170468
0.167423
0.16461
0.162035
0.159709
0.157647
0.155892
0.154489
0.153404
0.152761
0.152663
0.15838
0.168742
0.180999
0.19545
0.212494
0.232651
0.256592
0.285183
0.319526
0.360998
0.411419
0.472965
0.547453
0.63557
0.735502
0.84128
0.942667
1.02845
1.09187
1.13323
1.15756
1.17079
1.17754
1.18087
1.18246
1.1832
1.18354
1.1837
1.18377
1.1838
1.18381
1.18382
1.18382
1.18382
1.18382
1.18382
1.18382
1.18382
1.18382
0.658526
0.658499
0.658455
0.65838
0.658255
0.658049
0.657709
0.657158
0.656274
0.654876
0.652704
0.649399
0.644491
0.637417
0.627565
0.614389
0.597552
0.577083
0.553456
0.527542
0.500439
0.473244
0.446872
0.421964
0.398882
0.377762
0.358582
0.341226
0.325531
0.311317
0.298412
0.286653
0.275902
0.266039
0.256964
0.248586
0.240795
0.23352
0.226711
0.220323
0.214318
0.208664
0.203334
0.198305
0.193561
0.189085
0.184865
0.180891
0.177156
0.173655
0.170386
0.167347
0.164541
0.161973
0.159654
0.1576
0.155853
0.154456
0.153376
0.152733
0.152633
0.158933
0.169399
0.181769
0.196351
0.213547
0.233886
0.258049
0.286914
0.321592
0.363481
0.414423
0.476597
0.551775
0.64055
0.740926
0.846704
0.947497
1.03221
1.09443
1.13478
1.15842
1.17124
1.17776
1.18097
1.18251
1.18322
1.18355
1.1837
1.18377
1.1838
1.18381
1.18382
1.18382
1.18382
1.18382
1.18382
1.18382
1.18382
1.18382
0.658526
0.658499
0.658455
0.65838
0.658255
0.658048
0.657708
0.657157
0.656271
0.654871
0.652697
0.649387
0.644473
0.63739
0.627527
0.614336
0.597482
0.576995
0.553351
0.527423
0.500309
0.473108
0.446734
0.421827
0.398747
0.377631
0.358455
0.341104
0.325413
0.311204
0.298302
0.286548
0.2758
0.265939
0.256867
0.248492
0.240702
0.23343
0.226623
0.220236
0.214232
0.20858
0.203252
0.198226
0.193483
0.18901
0.184793
0.180823
0.177093
0.173597
0.170333
0.1673
0.164499
0.161938
0.159626
0.157578
0.155839
0.154447
0.153369
0.152725
0.15262
0.159343
0.169893
0.182353
0.197034
0.214347
0.234824
0.259154
0.288223
0.323154
0.365355
0.416688
0.479331
0.555023
0.644282
0.744976
0.850733
0.951064
1.03497
1.0963
1.13592
1.15904
1.17156
1.17792
1.18105
1.18254
1.18324
1.18356
1.18371
1.18377
1.1838
1.18381
1.18382
1.18382
1.18382
1.18382
1.18382
1.18382
1.18382
1.18382
0.658526
0.658499
0.658455
0.65838
0.658255
0.658048
0.657708
0.657156
0.656269
0.654868
0.652692
0.649379
0.644461
0.637372
0.627501
0.6143
0.597435
0.576936
0.553281
0.527344
0.500223
0.473017
0.446641
0.421734
0.398657
0.377543
0.358371
0.341023
0.325335
0.311129
0.29823
0.286478
0.275732
0.265874
0.256804
0.248431
0.240643
0.233372
0.226566
0.220181
0.214178
0.208527
0.2032
0.198176
0.193436
0.188965
0.184751
0.180784
0.177058
0.173566
0.170305
0.167277
0.164482
0.161926
0.15962
0.157578
0.155843
0.154455
0.153378
0.15273
0.152614
0.159614
0.170227
0.182752
0.197504
0.214895
0.235465
0.259907
0.289113
0.324212
0.36662
0.418213
0.481167
0.557198
0.646772
0.747667
0.853395
0.953407
1.03677
1.09752
1.13665
1.15945
1.17177
1.17803
1.1811
1.18256
1.18325
1.18357
1.18371
1.18377
1.1838
1.18381
1.18382
1.18382
1.18382
1.18382
1.18382
1.18382
1.18382
1.18382
0.658526
0.658499
0.658455
0.65838
0.658254
0.658047
0.657707
0.657155
0.656269
0.654867
0.652689
0.649375
0.644455
0.637363
0.627488
0.614283
0.597412
0.576908
0.553247
0.527305
0.500181
0.472973
0.446596
0.421689
0.398613
0.3775
0.358329
0.340983
0.325297
0.311092
0.298194
0.286443
0.275699
0.265842
0.256773
0.248402
0.240615
0.233345
0.226539
0.220155
0.214153
0.208503
0.203177
0.198154
0.193415
0.188946
0.184733
0.180769
0.177044
0.173554
0.170297
0.167272
0.16448
0.161929
0.159626
0.157588
0.155857
0.154471
0.153393
0.15274
0.152613
0.159748
0.170401
0.182963
0.19775
0.215182
0.235797
0.260294
0.289566
0.324746
0.367255
0.418973
0.482075
0.558265
0.647986
0.748969
0.854673
0.954521
1.03762
1.09809
1.137
1.15964
1.17187
1.17808
1.18112
1.18258
1.18326
1.18357
1.18371
1.18377
1.1838
1.18381
1.18382
1.18382
1.18382
1.18382
1.18382
1.18382
1.18382
1.18382
0.658526
0.658499
0.658455
0.65838
0.658254
0.658047
0.657707
0.657155
0.656268
0.654867
0.652689
0.649375
0.644455
0.637363
0.627488
0.614282
0.597412
0.576907
0.553246
0.527304
0.500179
0.472972
0.446595
0.421688
0.398612
0.377499
0.358328
0.340982
0.325296
0.311091
0.298194
0.286443
0.275698
0.265842
0.256773
0.248401
0.240614
0.233344
0.226539
0.220154
0.214153
0.208503
0.203177
0.198154
0.193415
0.188946
0.184733
0.180768
0.177044
0.173554
0.170297
0.167272
0.16448
0.161928
0.159626
0.157588
0.155857
0.15447
0.153393
0.15274
0.152613
0.159748
0.170402
0.182963
0.197751
0.215182
0.235798
0.260295
0.289567
0.324748
0.367256
0.418975
0.482077
0.558269
0.64799
0.748973
0.854677
0.954525
1.03763
1.0981
1.137
1.15964
1.17187
1.17808
1.18112
1.18258
1.18326
1.18357
1.18371
1.18377
1.1838
1.18381
1.18382
1.18382
1.18382
1.18382
1.18382
1.18382
1.18382
1.18382
0.658526
0.658499
0.658455
0.65838
0.658255
0.658048
0.657708
0.657155
0.656269
0.654868
0.652691
0.649379
0.644461
0.637371
0.627499
0.614298
0.597433
0.576934
0.553278
0.52734
0.500219
0.473014
0.446638
0.421731
0.398654
0.37754
0.358368
0.34102
0.325333
0.311127
0.298228
0.286476
0.275731
0.265873
0.256803
0.24843
0.240642
0.233371
0.226565
0.22018
0.214177
0.208526
0.2032
0.198176
0.193436
0.188965
0.184751
0.180784
0.177057
0.173565
0.170305
0.167276
0.164481
0.161926
0.15962
0.157577
0.155843
0.154455
0.153378
0.15273
0.152614
0.159615
0.170229
0.182755
0.197506
0.214898
0.235468
0.259911
0.289117
0.324217
0.366626
0.41822
0.481176
0.557208
0.646784
0.74768
0.853408
0.953418
1.03678
1.09753
1.13666
1.15945
1.17177
1.17803
1.1811
1.18256
1.18325
1.18357
1.18371
1.18377
1.1838
1.18381
1.18382
1.18382
1.18382
1.18382
1.18382
1.18382
1.18382
1.18382
0.658526
0.658499
0.658455
0.65838
0.658255
0.658048
0.657708
0.657157
0.656271
0.654871
0.652696
0.649386
0.644472
0.637388
0.627524
0.614332
0.597478
0.576991
0.553346
0.527418
0.500304
0.473102
0.446729
0.421821
0.398742
0.377626
0.358451
0.3411
0.32541
0.311201
0.2983
0.286545
0.275797
0.265937
0.256865
0.24849
0.240701
0.233428
0.226621
0.220234
0.214231
0.208578
0.20325
0.198224
0.193482
0.189009
0.184792
0.180822
0.177092
0.173596
0.170332
0.167299
0.164499
0.161938
0.159625
0.157578
0.155838
0.154447
0.153369
0.152725
0.15262
0.159346
0.169896
0.182357
0.197039
0.214352
0.234829
0.259161
0.288231
0.323163
0.365365
0.416701
0.479346
0.555041
0.644303
0.744999
0.850755
0.951084
1.03499
1.09631
1.13592
1.15905
1.17156
1.17792
1.18105
1.18254
1.18324
1.18356
1.18371
1.18377
1.1838
1.18381
1.18382
1.18382
1.18382
1.18382
1.18382
1.18382
1.18382
1.18382
0.658526
0.658499
0.658455
0.65838
0.658255
0.658049
0.657709
0.657158
0.656274
0.654876
0.652703
0.649397
0.64449
0.637414
0.627562
0.614384
0.597546
0.577077
0.553449
0.527534
0.500431
0.473236
0.446864
0.421957
0.398875
0.377755
0.358576
0.341221
0.325526
0.311313
0.298408
0.28665
0.275899
0.266036
0.256961
0.248583
0.240792
0.233518
0.226709
0.220321
0.214316
0.208662
0.203332
0.198304
0.193559
0.189083
0.184863
0.180889
0.177155
0.173654
0.170385
0.167346
0.16454
0.161972
0.159653
0.157599
0.155852
0.154456
0.153376
0.152733
0.152633
0.158937
0.169403
0.181775
0.196357
0.213554
0.233894
0.258058
0.286924
0.321605
0.363496
0.414441
0.476618
0.5518
0.640579
0.740958
0.846735
0.947524
1.03223
1.09445
1.13479
1.15842
1.17124
1.17776
1.18097
1.18251
1.18322
1.18355
1.1837
1.18377
1.1838
1.18381
1.18382
1.18382
1.18382
1.18382
1.18382
1.18382
1.18382
1.18382
0.658526
0.658499
0.658455
0.65838
0.658256
0.658049
0.657711
0.65716
0.656278
0.654882
0.652713
0.649412
0.644513
0.637449
0.627611
0.614453
0.597637
0.57719
0.553584
0.527688
0.500598
0.473411
0.447043
0.422135
0.39905
0.377926
0.358741
0.34138
0.325679
0.311461
0.298551
0.286789
0.276034
0.266168
0.25709
0.24871
0.240916
0.233641
0.22683
0.22044
0.214433
0.208777
0.203446
0.198415
0.193668
0.189189
0.184965
0.180988
0.177248
0.173742
0.170467
0.167421
0.164608
0.162034
0.159708
0.157646
0.155891
0.154488
0.153404
0.15276
0.152662
0.158385
0.168748
0.181006
0.195458
0.212503
0.232661
0.256604
0.285197
0.319542
0.361017
0.411442
0.472993
0.547485
0.635608
0.735543
0.841322
0.942703
1.02848
1.09189
1.13324
1.15757
1.17079
1.17755
1.18087
1.18246
1.1832
1.18354
1.1837
1.18377
1.1838
1.18381
1.18382
1.18382
1.18382
1.18382
1.18382
1.18382
1.18382
1.18382
0.658526
0.658499
0.658455
0.65838
0.658256
0.65805
0.657712
0.657163
0.656282
0.654889
0.652724
0.649431
0.644541
0.63749
0.627671
0.614536
0.597746
0.577327
0.553748
0.527875
0.500802
0.473625
0.447262
0.422353
0.399265
0.378135
0.358943
0.341575
0.325869
0.311645
0.298729
0.286963
0.276204
0.266333
0.257252
0.248869
0.241074
0.233796
0.226984
0.220593
0.214584
0.208927
0.203593
0.19856
0.19381
0.189328
0.185101
0.181119
0.177374
0.173863
0.170581
0.167528
0.164707
0.162124
0.15979
0.15772
0.155957
0.154547
0.153457
0.152811
0.152713
0.157679
0.167922
0.180044
0.19434
0.211197
0.231128
0.254794
0.283047
0.316971
0.357928
0.407701
0.468465
0.542088
0.629373
0.728724
0.834467
0.93656
1.02367
1.08861
1.13125
1.15646
1.17022
1.17726
1.18073
1.18239
1.18317
1.18353
1.18369
1.18377
1.1838
1.18381
1.18382
1.18382
1.18382
1.18382
1.18382
1.18382
1.18382
1.18382
0.658526
0.6585
0.658455
0.658381
0.658257
0.658051
0.657714
0.657166
0.656287
0.654897
0.652738
0.649452
0.644573
0.637539
0.627741
0.614632
0.597873
0.577486
0.553938
0.528091
0.501038
0.473874
0.447515
0.422607
0.399515
0.378378
0.35918
0.341805
0.326091
0.311861
0.298939
0.287168
0.276404
0.26653
0.257445
0.24906
0.241263
0.233984
0.22717
0.220778
0.214768
0.209109
0.203773
0.198738
0.193986
0.1895
0.185269
0.181283
0.177534
0.174016
0.170728
0.167668
0.164839
0.162247
0.159903
0.157824
0.156051
0.154634
0.153538
0.152889
0.152792
0.156827
0.16693
0.178893
0.193
0.209634
0.229294
0.252628
0.280472
0.313892
0.354225
0.403216
0.463032
0.535601
0.621858
0.720468
0.826116
0.929016
1.01771
1.0845
1.12874
1.15506
1.16949
1.1769
1.18056
1.18231
1.18314
1.18352
1.18369
1.18376
1.1838
1.18381
1.18382
1.18382
1.18382
1.18382
1.18382
1.18382
1.18382
1.18382
0.658526
0.6585
0.658455
0.658381
0.658257
0.658052
0.657716
0.65717
0.656293
0.654907
0.652753
0.649475
0.644609
0.637592
0.627818
0.614738
0.598013
0.577662
0.554149
0.528331
0.5013
0.474149
0.447798
0.42289
0.399794
0.378651
0.359445
0.342063
0.326342
0.312105
0.299178
0.287401
0.276634
0.266756
0.257668
0.24928
0.241482
0.234201
0.227387
0.220994
0.214983
0.209322
0.203985
0.198949
0.194194
0.189706
0.185471
0.18148
0.177726
0.174202
0.170907
0.167839
0.165002
0.162401
0.160048
0.15796
0.156178
0.154755
0.153658
0.153015
0.152932
0.155819
0.165773
0.177557
0.191448
0.207821
0.227162
0.250107
0.277473
0.310302
0.349908
0.397987
0.456691
0.528017
0.613047
0.710739
0.816197
0.91997
1.01049
1.07948
1.12564
1.15333
1.16859
1.17646
1.18035
1.18221
1.18309
1.1835
1.18368
1.18376
1.18379
1.18381
1.18382
1.18382
1.18382
1.18382
1.18382
1.18382
1.18382
1.18382
0.658526
0.6585
0.658456
0.658382
0.658258
0.658054
0.657718
0.657173
0.656299
0.654917
0.652769
0.649501
0.644648
0.63765
0.6279
0.614852
0.598163
0.577851
0.554374
0.528588
0.50158
0.474445
0.448101
0.423194
0.400095
0.378946
0.359733
0.342343
0.326615
0.312372
0.29944
0.287658
0.276887
0.267006
0.257915
0.249526
0.241727
0.234446
0.227632
0.221238
0.215227
0.209566
0.204229
0.199191
0.194434
0.189943
0.185705
0.18171
0.17795
0.17442
0.171117
0.16804
0.165193
0.162581
0.160216
0.158116
0.156325
0.154897
0.153808
0.153197
0.153196
0.154717
0.164501
0.176077
0.189717
0.205785
0.224758
0.247253
0.274066
0.306216
0.344987
0.392025
0.449457
0.519349
0.602936
0.699504
0.804643
0.909309
1.00188
1.07342
1.12187
1.1512
1.16748
1.17591
1.18008
1.18209
1.18304
1.18347
1.18367
1.18375
1.18379
1.18381
1.18382
1.18382
1.18382
1.18382
1.18382
1.18382
1.18382
1.18382
0.658526
0.6585
0.658456
0.658382
0.658259
0.658055
0.657721
0.657178
0.656306
0.654928
0.652786
0.649528
0.644689
0.63771
0.627987
0.61497
0.598319
0.578046
0.554607
0.528854
0.501871
0.474752
0.448416
0.42351
0.400408
0.379255
0.360035
0.342639
0.326904
0.312656
0.299719
0.287934
0.27716
0.267277
0.258184
0.249793
0.241995
0.234715
0.227901
0.221509
0.215498
0.209838
0.2045
0.199462
0.194704
0.190212
0.185971
0.181971
0.178206
0.174668
0.171356
0.168268
0.165407
0.162778
0.160392
0.158267
0.156434
0.154965
0.153822
0.153135
0.153025
0.153695
0.163234
0.174537
0.187865
0.203571
0.222113
0.24409
0.270274
0.301654
0.339481
0.385347
0.441343
0.509599
0.591518
0.686734
0.791378
0.896909
0.99171
1.06617
1.11732
1.14862
1.16612
1.17523
1.17976
1.18194
1.18297
1.18344
1.18365
1.18375
1.18379
1.18381
1.18382
1.18382
1.18382
1.18382
1.18382
1.18382
1.18382
1.18382
0.658526
0.6585
0.658456
0.658382
0.65826
0.658057
0.657723
0.657182
0.656313
0.654939
0.652804
0.649555
0.644731
0.637772
0.628074
0.61509
0.598476
0.578242
0.554841
0.52912
0.502162
0.475059
0.448731
0.423828
0.400724
0.379566
0.360341
0.342939
0.3272
0.312947
0.300006
0.288219
0.277444
0.26756
0.258466
0.250076
0.24228
0.235002
0.228191
0.2218
0.215792
0.210134
0.204797
0.19976
0.195002
0.190508
0.186265
0.182262
0.178491
0.174946
0.171624
0.168523
0.165645
0.162995
0.160582
0.15842
0.15653
0.154994
0.153751
0.15291
0.152557
0.152827
0.162034
0.172983
0.185926
0.201199
0.219242
0.24063
0.266106
0.296625
0.333402
0.37797
0.43237
0.49879
0.578804
0.67241
0.776336
0.882645
0.979826
1.05756
1.11185
1.14549
1.16447
1.17441
1.17937
1.18176
1.18288
1.1834
1.18364
1.18374
1.18379
1.18381
1.18382
1.18382
1.18382
1.18382
1.18382
1.18382
1.18382
1.18382
0.658526
0.6585
0.658456
0.658383
0.658261
0.658058
0.657726
0.657186
0.65632
0.654951
0.652823
0.649584
0.644773
0.637834
0.628162
0.615209
0.59863
0.578434
0.555067
0.529377
0.502441
0.475353
0.449033
0.424133
0.401028
0.379867
0.360639
0.343232
0.32749
0.313235
0.300293
0.288505
0.27773
0.267847
0.258755
0.250367
0.242575
0.235301
0.228494
0.222107
0.216103
0.210448
0.205115
0.20008
0.195323
0.19083
0.186585
0.18258
0.178805
0.175254
0.171923
0.16881
0.165916
0.163246
0.160807
0.158612
0.156683
0.155078
0.153804
0.152876
0.152419
0.152569
0.160981
0.171419
0.183877
0.198644
0.216124
0.236857
0.261553
0.291128
0.326755
0.369911
0.422565
0.486953
0.564818
0.656534
0.75947
0.866402
0.966048
1.04741
1.10531
1.14171
1.16246
1.17341
1.17889
1.18153
1.18278
1.18336
1.18362
1.18373
1.18378
1.18381
1.18381
1.18382
1.18382
1.18382
1.18382
1.18382
1.18382
1.18382
0.658526
0.6585
0.658457
0.658384
0.658262
0.65806
0.657729
0.657191
0.656328
0.654963
0.652842
0.649613
0.644817
0.637897
0.628249
0.615325
0.598778
0.578615
0.555279
0.529614
0.502697
0.475621
0.449308
0.42441
0.401305
0.380142
0.360912
0.343504
0.327761
0.313506
0.300565
0.28878
0.278008
0.268128
0.25904
0.250657
0.24287
0.235603
0.228802
0.222422
0.216424
0.210774
0.205446
0.200415
0.195662
0.191171
0.186928
0.182922
0.179144
0.175589
0.172251
0.169129
0.166224
0.163538
0.16108
0.158861
0.156903
0.155262
0.15396
0.152996
0.152498
0.152601
0.159196
0.169344
0.181428
0.195736
0.212659
0.232717
0.256591
0.28516
0.319553
0.361193
0.411967
0.474134
0.549608
0.639136
0.740767
0.84809
0.950212
1.03552
1.09753
1.13718
1.16004
1.1722
1.17831
1.18126
1.18266
1.1833
1.18359
1.18372
1.18378
1.1838
1.18381
1.18382
1.18382
1.18382
1.18382
1.18382
1.18382
1.18382
0.658526
0.6585
0.658457
0.658384
0.658263
0.658062
0.657733
0.657197
0.656337
0.654977
0.652863
0.649645
0.644862
0.63796
0.628335
0.615436
0.598917
0.57878
0.555468
0.529821
0.502916
0.475848
0.449538
0.424641
0.401535
0.380373
0.361143
0.343736
0.327995
0.313744
0.300808
0.289028
0.278262
0.268389
0.259308
0.250932
0.243155
0.235897
0.229105
0.222734
0.216744
0.211103
0.205782
0.200759
0.196012
0.191525
0.187285
0.183281
0.179504
0.175947
0.172605
0.169477
0.166563
0.163866
0.161395
0.15916
0.157183
0.155514
0.154189
0.153205
0.152686
0.152746
0.157168
0.167019
0.178729
0.192571
0.208921
0.228276
0.251285
0.27879
0.311875
0.351909
0.400684
0.460458
0.533308
0.620344
0.720308
0.827703
0.9322