/*--------------------------------*- C++ -*----------------------------------*\
  =========                 |
  \\      /  F ield         | OpenFOAM: The Open Source CFD Toolbox
   \\    /   O peration     | Website:  https://openfoam.org
    \\  /    A nd           | Version:  8
     \\/     M anipulation  |
\*---------------------------------------------------------------------------*/
FoamFile
{
    version     2.0;
    format      ascii;
    class       volScalarField;
    location    "360/fluid";
    object      T;
}
// * * * * * * * * * * * * * * * * * * * * * * * * * * * * * * * * * * * * * //

dimensions      [0 0 0 1 0 0 0];

internalField   nonuniform List<scalar> 
4000
(
293.004
293.015
293.036
293.069
293.125
293.218
293.37
293.618
294.019
294.658
295.663
297.221
299.588
303.108
308.21
315.398
325.2
338.108
354.497
374.56
398.296
425.504
455.853
488.951
524.415
561.902
601.128
641.871
683.961
727.269
771.695
817.15
863.553
910.813
958.827
1007.48
1056.8
1106.74
1157.23
1208.18
1259.48
1311.05
1362.79
1414.58
1466.31
1517.88
1569.16
1620.01
1670.31
1719.91
1768.63
1816.32
1862.77
1907.76
1951.01
1992.2
2030.95
2066.76
2098.44
2125.62
2148.07
2163.65
2170.38
2129.97
2017.35
1898.12
1774.28
1647.53
1519.33
1390.98
1263.68
1138.6
1016.91
899.792
788.19
683.743
588.763
505.702
436.817
383.564
345.839
321.614
307.501
299.97
296.239
294.467
293.651
293.284
293.122
293.052
293.022
293.009
293.004
293.002
293.001
293
293
293
293
293
293.004
293.016
293.036
293.07
293.127
293.221
293.376
293.629
294.037
294.688
295.71
297.289
299.682
303.229
308.352
315.545
325.328
338.183
354.484
374.431
398.008
425.035
455.209
488.161
523.512
560.921
600.105
640.837
682.945
726.298
770.792
816.336
862.845
910.234
958.397
1007.21
1056.67
1106.77
1157.42
1208.53
1260.01
1311.75
1363.66
1415.62
1467.53
1519.27
1570.71
1621.73
1672.17
1721.91
1770.76
1818.57
1865.12
1910.19
1953.52
1994.77
2033.57
2069.42
2101.12
2128.29
2150.74
2166.33
2173.2
2116.68
2003.47
1883.48
1758.78
1631.13
1502.03
1372.83
1244.77
1119.05
996.925
879.575
768.077
664.32
570.787
490.006
424.145
374.311
339.839
318.183
305.758
299.165
295.889
294.321
293.592
293.261
293.113
293.049
293.021
293.009
293.004
293.001
293.001
293
293
293
293
293
293.004
293.016
293.037
293.071
293.129
293.225
293.383
293.641
294.057
294.718
295.756
297.356
299.773
303.347
308.497
315.708
325.493
338.328
354.578
374.44
397.914
424.827
454.88
487.711
522.954
560.277
599.401
640.103
682.211
725.594
770.149
815.782
862.405
909.917
958.214
1007.18
1056.83
1107.14
1158.01
1209.37
1261.09
1313.1
1365.27
1417.51
1469.69
1521.7
1573.4
1624.67
1675.37
1725.33
1774.4
1822.39
1869.1
1914.31
1957.72
1999.03
2037.84
2073.66
2105.11
2132.07
2154.34
2169.69
2175.95
2095.56
1981.53
1860.38
1734.46
1605.67
1475.6
1345.65
1217.14
1091.33
969.541
852.943
742.794
641.216
550.709
473.666
411.91
366.019
334.798
315.422
304.375
298.515
295.596
294.193
293.537
293.238
293.104
293.045
293.019
293.008
293.003
293.001
293.001
293
293
293
293
293
293.004
293.016
293.037
293.072
293.131
293.228
293.388
293.649
294.068
294.736
295.781
297.39
299.819
303.405
308.566
315.784
325.568
338.389
354.612
374.434
397.862
424.72
454.712
487.483
522.675
559.96
599.062
639.762
681.887
725.306
769.91
815.613
862.33
909.972
958.434
1007.6
1057.46
1108
1159.13
1210.76
1262.77
1315.08
1367.56
1420.11
1472.61
1524.94
1576.95
1628.53
1679.51
1729.74
1779.06
1827.26
1874.14
1919.46
1962.92
2004.2
2042.86
2078.42
2109.43
2136.16
2158.18
2173.62
2180.85
2074
1957.36
1834.01
1706.33
1576.2
1445.22
1314.79
1186.24
1060.86
940.005
824.775
716.62
617.788
530.716
457.616
399.972
357.908
329.799
312.617
302.925
297.814
295.27
294.046
293.473
293.21
293.092
293.04
293.017
293.007
293.003
293.001
293.001
293
293
293
293
293
293.004
293.016
293.037
293.073
293.132
293.23
293.392
293.654
294.078
294.75
295.802
297.42
299.861
303.461
308.635
315.866
325.658
338.479
354.692
374.492
397.887
424.711
454.673
487.42
522.593
559.868
598.97
639.684
681.842
725.315
770.002
815.814
862.666
910.465
959.104
1008.46
1058.55
1109.34
1160.74
1212.64
1264.96
1317.57
1370.38
1423.26
1476.1
1528.75
1581.1
1632.99
1684.28
1734.79
1784.35
1832.76
1879.79
1925.18
1968.61
2009.72
2048.03
2082.74
2112.68
2138.32
2157.51
2168.51
2168.64
2054.6
1933.28
1806.8
1677.02
1545.54
1413.81
1283.17
1154.9
1030.32
910.743
797.22
691.393
595.571
512.093
442.96
389.306
350.82
325.516
310.248
301.708
297.225
294.996
293.922
293.418
293.186
293.082
293.035
293.015
293.006
293.003
293.001
293
293
293
293
293
293
293.004
293.016
293.038
293.073
293.133
293.232
293.394
293.659
294.084
294.76
295.817
297.441
299.89
303.5
308.686
315.928
325.732
338.563
354.782
374.586
397.981
424.802
454.762
487.51
522.694
559.989
599.126
639.889
682.112
725.668
770.455
816.388
863.38
911.339
960.16
1009.72
1060.03
1111.07
1162.73
1214.92
1267.53
1320.46
1373.59
1426.79
1479.96
1532.94
1585.61
1637.81
1689.38
1740.16
1789.96
1838.56
1885.73
1931.2
1974.62
2015.6
2053.6
2087.53
2116.48
2140.66
2157.36
2164
2146.88
2029.92
1906.28
1778.07
1647.06
1514.84
1382.82
1252.34
1124.67
1001.15
883.014
771.352
667.964
575.169
495.192
429.817
379.848
344.587
321.762
308.166
300.63
296.699
294.748
293.808
293.367
293.164
293.072
293.031
293.013
293.006
293.002
293.001
293
293
293
293
293
293
293.004
293.017
293.038
293.074
293.134
293.233
293.396
293.662
294.089
294.768
295.829
297.46
299.917
303.537
308.736
315.994
325.814
338.664
354.902
374.725
398.14
424.983
454.966
487.743
522.961
560.3
599.491
640.32
682.623
726.273
771.172
817.233
864.372
912.496
961.499
1011.26
1061.8
1113.07
1165
1217.46
1270.36
1323.58
1377.01
1430.53
1484.01
1537.3
1590.26
1642.75
1694.6
1745.62
1795.63
1844.41
1891.71
1937.26
1980.72
2021.67
2059.61
2093.4
2122.25
2146.45
2163.66
2172.05
2119.59
2002.26
1877.98
1749.13
1617.66
1485.23
1353.31
1223.27
1096.4
974.068
857.427
747.645
646.684
556.819
480.161
418.28
371.663
339.269
318.598
306.426
299.733
296.26
294.54
293.713
293.324
293.145
293.064
293.028
293.012
293.005
293.002
293.001
293
293
293
293
293
293
293.004
293.017
293.038
293.074
293.134
293.234
293.398
293.665
294.094
294.775
295.84
297.476
299.941
303.571
308.783
316.059
325.9
338.775
355.042
374.896
398.346
425.226
455.251
488.074
523.344
560.742
600.001
640.908
683.301
727.055
772.072
818.266
865.554
913.843
963.026
1012.99
1063.74
1115.25
1167.41
1220.14
1273.31
1326.81
1380.53
1434.33
1488.09
1541.66
1594.9
1647.64
1699.71
1750.95
1801.13
1850.05
1897.44
1943.03
1986.48
2027.36
2065.14
2098.56
2127.11
2151.05
2167.94
2175.68
2094.1
1976.18
1851.33
1722.01
1590.26
1457.79
1326.11
1196.6
1070.61
949.476
834.292
726.348
627.702
540.586
466.993
408.283
364.653
334.762
315.936
304.967
298.981
295.892
294.366
293.632
293.287
293.128
293.057
293.025
293.011
293.004
293.002
293.001
293
293
293
293
293
293
293.004
293.017
293.038
293.075
293.135
293.235
293.4
293.667
294.098
294.781
295.85
297.491
299.963
303.604
308.832
316.126
325.993
338.897
355.198
375.092
398.586
425.514
455.59
488.47
523.802
561.269
600.604
641.597
684.086
727.948
773.085
819.413
866.848
915.298
964.655
1014.8
1065.76
1117.49
1169.89
1222.85
1276.27
1330.03
1384
1438.06
1492.08
1545.9
1599.37
1652.32
1704.6
1755.99
1806.3
1855.3
1902.72
1948.28
1991.6
2032.28
2069.76
2102.71
2130.96
2154.42
2170.72
2177.62
2072.23
1953.51
1827.81
1697.83
1565.68
1433.11
1301.63
1172.65
1047.49
927.487
813.67
707.457
610.967
526.379
455.571
399.703
358.704
330.978
313.721
303.76
298.361
295.588
294.221
293.565
293.257
293.115
293.051
293.022
293.009
293.004
293.002
293.001
293
293
293
293
293
293
293.004
293.017
293.038
293.075
293.135
293.236
293.401
293.67
294.102
294.787
295.859
297.506
299.986
303.638
308.88
316.196
326.088
339.025
355.366
375.305
398.848
425.83
455.965
488.907
524.307
561.846
601.262
642.343
684.93
728.899
774.155
820.612
868.189
916.793
966.314
1016.64
1067.79
1119.72
1172.33
1225.51
1279.16
1333.15
1387.35
1441.64
1495.88
1549.91
1603.58
1656.72
1709.14
1760.66
1811.05
1860.08
1907.47
1952.9
1996.01
2036.34
2073.34
2105.27
2133.36
2155.51
2170.28
2175.4
2059.98
1936.95
1808.67
1677.16
1544.2
1411.33
1279.95
1151.41
1027.01
908.039
795.481
690.868
596.35
514.051
445.739
392.389
353.684
327.815
311.882
302.762
297.849
295.338
294.102
293.51
293.232
293.104
293.046
293.02
293.009
293.004
293.002
293.001
293
293
293
293
293
293
293.004
293.017
293.039
293.075
293.136
293.237
293.402
293.672
294.105
294.793
295.868
297.52
300.008
303.671
308.929
316.266
326.186
339.157
355.539
375.525
399.12
426.159
456.355
489.363
524.831
562.445
601.941
643.109
685.791
729.864
775.233
821.814
869.524
918.27
967.943
1018.43
1069.75
1121.87
1174.67
1228.06
1281.9
1336.09
1390.5
1444.99
1499.42
1553.64
1607.47
1660.76
1713.31
1764.91
1815.36
1864.38
1911.71
1956.99
1999.85
2039.77
2076
2107.01
2133.72
2153.67
2164.92
2164.36
2045.96
1920.72
1790.9
1658.42
1524.94
1391.92
1260.72
1132.64
1008.97
890.93
779.519
676.367
583.643
503.408
437.32
386.181
349.465
325.18
310.361
301.94
297.428
295.132
294.004
293.464
293.211
293.094
293.042
293.018
293.008
293.003
293.001
293.001
293
293
293
293
293
293
293.004
293.017
293.039
293.075
293.136
293.237
293.404
293.674
294.109
294.799
295.877
297.534
300.029
303.703
308.977
316.335
326.282
339.288
355.711
375.745
399.393
426.49
456.746
489.818
525.354
563.041
602.613
643.865
686.636
730.806
776.281
822.976
870.809
919.686
969.497
1020.13
1071.61
1123.89
1176.87
1230.42
1284.45
1338.82
1393.4
1448.06
1502.66
1557.03
1611
1664.41
1717.06
1768.74
1819.22
1868.24
1915.52
1960.69
2003.36
2043
2078.65
2109.09
2135.02
2153.85
2163.48
2151.12
2031.16
1904.78
1774.19
1641.26
1507.59
1374.63
1243.71
1116.12
993.152
875.976
765.612
663.792
572.676
494.275
430.15
380.941
345.934
322.992
309.105
301.265
297.084
294.964
293.924
293.427
293.194
293.087
293.038
293.017
293.007
293.003
293.001
293.001
293
293
293
293
293
293
293.004
293.017
293.039
293.075
293.137
293.238
293.405
293.676
294.112
294.804
295.885
297.547
300.049
303.734
309.023
316.401
326.376
339.415
355.878
375.958
399.657
426.809
457.124
490.256
525.857
563.611
603.256
644.584
687.438
731.698
777.269
824.067
872.011
921.005
970.939
1021.7
1073.32
1125.75
1178.87
1232.58
1286.76
1341.28
1396.01
1450.82
1505.55
1560.05
1614.15
1667.65
1720.38
1772.12
1822.63
1871.66
1918.91
1964.03
2006.62
2046.17
2081.72
2112.11
2138.14
2157.4
2168.14
2136.78
2016.38
1889.63
1758.8
1625.76
1492.13
1359.37
1228.8
1101.72
979.423
863.044
753.64
653.012
563.316
486.52
424.094
376.547
342.997
321.185
308.074
300.713
296.802
294.826
293.859
293.396
293.18
293.08
293.035
293.015
293.007
293.003
293.001
293.001
293
293
293
293
293
293
293.004
293.017
293.039
293.076
293.137
293.239
293.406
293.677
294.115
294.808
295.893
297.559
300.068
303.763
309.066
316.463
326.463
339.534
356.035
376.157
399.904
427.107
457.476
490.665
526.324
564.14
603.85
645.248
688.176
732.516
778.172
825.062
873.102
922.199
972.239
1023.11
1074.86
1127.41
1180.66
1234.49
1288.8
1343.45
1398.31
1453.24
1508.09
1562.69
1616.88
1670.46
1723.26
1775.04
1825.57
1874.6
1921.83
1966.9
2009.43
2048.9
2084.35
2114.67
2140.69
2160.01
2170.93
2123.79
2003.08
1876.13
1745.2
1612.18
1478.68
1346.16
1215.96
1089.37
967.695
852.019
743.446
643.861
555.402
479.996
419.033
372.898
340.574
319.703
307.233
300.263
296.574
294.715
293.806
293.372
293.169
293.075
293.033
293.014
293.006
293.003
293.001
293
293
293
293
293
293
293
293.004
293.017
293.039
293.076
293.137
293.239
293.407
293.679
294.117
294.813
295.9
297.57
300.085
303.789
309.105
316.519
326.542
339.641
356.176
376.338
400.127
427.376
457.793
491.032
526.744
564.614
604.381
645.84
688.833
733.241
778.971
825.939
874.062
923.246
973.377
1024.35
1076.19
1128.85
1182.2
1236.15
1290.56
1345.32
1400.28
1455.3
1510.24
1564.93
1619.18
1672.83
1725.66
1777.47
1828.01
1877.03
1924.22
1969.25
2011.69
2051.05
2086.39
2116.61
2142.54
2161.81
2172.7
2112.93
1991.82
1864.65
1733.63
1600.64
1467.29
1335.02
1205.16
1079.01
957.858
842.783
734.928
636.232
548.825
474.595
414.863
369.909
338.6
318.502
306.554
299.902
296.39
294.625
293.763
293.352
293.16
293.071
293.031
293.014
293.006
293.003
293.001
293
293
293
293
293
293
293
293.004
293.017
293.039
293.076
293.138
293.24
293.407
293.68
294.119
294.816
295.906
297.58
300.1
303.811
309.138
316.568
326.61
339.734
356.298
376.494
400.321
427.609
458.067
491.349
527.105
565.022
604.838
646.347
689.394
733.86
779.651
826.685
874.877
924.132
974.337
1025.38
1077.31
1130.05
1183.49
1237.52
1292.02
1346.86
1401.9
1457
1512.01
1566.75
1621.06
1674.75
1727.61
1779.42
1829.96
1878.95
1926.1
1971.05
2013.41
2052.7
2087.93
2118.05
2143.9
2163.11
2173.97
2104.01
1982.53
1855.16
1724.08
1591.14
1457.92
1325.85
1196.28
1070.5
949.798
835.228
727.975
630.02
543.483
470.223
411.501
367.509
337.023
317.547
306.015
299.615
296.245
294.554
293.73
293.336
293.153
293.068
293.03
293.013
293.006
293.002
293.001
293
293
293
293
293
293
293
293.004
293.017
293.039
293.076
293.138
293.24
293.408
293.681
294.121
294.819
295.911
297.587
300.112
303.83
309.166
316.608
326.667
339.811
356.399
376.622
400.48
427.8
458.292
491.609
527.402
565.356
605.21
646.761
689.852
734.364
780.203
827.288
875.534
924.846
975.108
1026.22
1078.21
1131.01
1184.52
1238.61
1293.18
1348.08
1403.18
1458.34
1513.39
1568.18
1622.52
1676.22
1729.09
1780.9
1831.42
1880.37
1927.46
1972.36
2014.65
2053.85
2088.97
2119
2144.78
2163.96
2174.81
2097.09
1975.21
1847.64
1716.49
1583.57
1450.46
1318.57
1189.24
1063.76
943.428
829.266
722.499
625.138
539.296
466.807
408.883
365.647
335.803
316.809
305.6
299.395
296.133
294.5
293.704
293.324
293.147
293.066
293.029
293.013
293.005
293.002
293.001
293
293
293
293
293
293
293
293.004
293.017
293.039
293.076
293.138
293.24
293.409
293.682
294.123
294.822
295.915
297.593
300.122
303.844
309.187
316.639
326.71
339.87
356.477
376.721
400.601
427.946
458.464
491.808
527.627
565.61
605.494
647.075
690.198
734.745
780.621
827.743
876.029
925.381
975.684
1026.84
1078.87
1131.72
1185.28
1239.42
1294.03
1348.97
1404.11
1459.3
1514.39
1569.2
1623.56
1677.27
1730.13
1781.93
1832.41
1881.33
1928.37
1973.2
2015.42
2054.54
2089.55
2119.5
2145.24
2164.42
2175.3
2092.01
1969.75
1841.98
1710.76
1577.86
1444.84
1313.1
1183.96
1058.72
938.675
824.826
718.43
621.518
536.201
464.289
406.96
364.284
334.912
316.271
305.296
299.234
296.052
294.46
293.685
293.316
293.143
293.064
293.028
293.012
293.005
293.002
293.001
293
293
293
293
293
293
293
293.004
293.017
293.039
293.076
293.138
293.241
293.409
293.683
294.124
294.823
295.917
297.597
300.128
303.854
309.201
316.659
326.739
339.909
356.528
376.787
400.683
428.044
458.579
491.941
527.779
565.78
605.684
647.286
690.431
735
780.9
828.047
876.358
925.736
976.066
1027.24
1079.31
1132.19
1185.77
1239.94
1294.58
1349.54
1404.71
1459.92
1515.02
1569.84
1624.2
1677.91
1730.76
1782.54
1832.99
1881.87
1928.86
1973.63
2015.77
2054.81
2089.75
2119.65
2145.36
2164.59
2175.59
2088.66
1966.06
1838.12
1706.84
1573.97
1441.02
1309.39
1180.4
1055.34
935.492
821.864
715.724
619.119
534.155
462.631
405.699
363.394
334.332
315.921
305.099
299.129
295.999
294.434
293.673
293.31
293.141
293.063
293.028
293.012
293.005
293.002
293.001
293
293
293
293
293
293
293
293.004
293.017
293.039
293.076
293.138
293.241
293.409
293.683
294.124
294.824
295.918
297.599
300.131
303.858
309.208
316.669
326.752
339.928
356.553
376.819
400.722
428.092
458.636
492.006
527.853
565.864
605.777
647.39
690.545
735.125
781.037
828.196
876.52
925.911
976.253
1027.44
1079.52
1132.41
1186.01
1240.19
1294.84
1349.82
1404.99
1460.21
1515.31
1570.14
1624.49
1678.2
1731.04
1782.79
1833.23
1882.07
1929.02
1973.74
2015.83
2054.82
2089.7
2119.56
2145.26
2164.55
2175.71
2087
1964.14
1836.09
1704.79
1571.94
1439.04
1307.5
1178.6
1053.64
933.903
820.395
714.393
617.947
533.163
461.833
405.096
362.972
334.06
315.758
305.007
299.08
295.974
294.422
293.667
293.307
293.139
293.062
293.027
293.012
293.005
293.002
293.001
293
293
293
293
293
293
293
293.004
293.017
293.039
293.076
293.138
293.241
293.409
293.683
294.124
294.824
295.918
297.599
300.131
303.859
309.208
316.669
326.753
339.928
356.554
376.82
400.723
428.093
458.637
492.007
527.855
565.865
605.779
647.392
690.547
735.127
781.039
828.198
876.522
925.913
976.255
1027.44
1079.52
1132.41
1186.01
1240.19
1294.84
1349.82
1404.99
1460.21
1515.32
1570.14
1624.5
1678.2
1731.04
1782.8
1833.23
1882.07
1929.02
1973.74
2015.83
2054.82
2089.7
2119.56
2145.27
2164.56
2175.71
2086.99
1964.14
1836.08
1704.78
1571.93
1439.04
1307.49
1178.59
1053.63
933.898
820.39
714.389
617.944
533.16
461.83
405.094
362.971
334.059
315.757
305.007
299.08
295.974
294.422
293.667
293.307
293.139
293.062
293.027
293.012
293.005
293.002
293.001
293
293
293
293
293
293
293
293.004
293.017
293.039
293.076
293.138
293.241
293.409
293.683
294.124
294.823
295.917
297.598
300.128
303.854
309.202
316.66
326.74
339.911
356.531
376.79
400.686
428.048
458.584
491.945
527.784
565.785
605.69
647.292
690.437
735.006
780.906
828.054
876.365
925.743
976.073
1027.25
1079.32
1132.2
1185.78
1239.95
1294.58
1349.55
1404.72
1459.93
1515.03
1569.85
1624.21
1677.92
1730.77
1782.54
1833
1881.88
1928.87
1973.64
2015.78
2054.82
2089.76
2119.65
2145.36
2164.59
2175.59
2088.63
1966.04
1838.1
1706.82
1573.95
1441
1309.37
1180.39
1055.33
935.477
821.85
715.711
619.107
534.145
462.623
405.693
363.39
334.33
315.919
305.098
299.128
295.999
294.434
293.673
293.31
293.14
293.063
293.028
293.012
293.005
293.002
293.001
293
293
293
293
293
293
293
293.004
293.017
293.039
293.076
293.138
293.24
293.409
293.682
294.123
294.822
295.915
297.594
300.122
303.845
309.188
316.64
326.712
339.873
356.481
376.726
400.607
427.952
458.471
491.815
527.636
565.618
605.503
647.085
690.208
734.755
780.631
827.755
876.04
925.393
975.697
1026.85
1078.89
1131.74
1185.29
1239.43
1294.04
1348.98
1404.13
1459.32
1514.4
1569.21
1623.57
1677.28
1730.15
1781.94
1832.43
1881.34
1928.39
1973.22
2015.43
2054.55
2089.56
2119.51
2145.25
2164.43
2175.31
2091.97
1969.71
1841.94
1710.72
1577.83
1444.81
1313.07
1183.93
1058.7
938.649
824.802
718.408
621.499
536.184
464.275
406.949
364.276
334.907
316.268
305.295
299.233
296.051
294.46
293.685
293.316
293.143
293.064
293.028
293.012
293.005
293.002
293.001
293
293
293
293
293
293
293
293.004
293.017
293.039
293.076
293.138
293.24
293.408
293.682
294.121
294.82
295.911
297.588
300.113
303.831
309.168
316.61
326.67
339.815
356.405
376.629
400.487
427.809
458.302
491.62
527.413
565.368
605.223
646.774
689.865
734.378
780.218
827.304
875.55
924.862
975.125
1026.23
1078.23
1131.03
1184.54
1238.63
1293.2
1348.1
1403.2
1458.36
1513.41
1568.2
1622.54
1676.24
1729.11
1780.92
1831.44
1880.39
1927.48
1972.37
2014.67
2053.87
2088.99
2119.01
2144.79
2163.97
2174.81
2097.04
1975.16
1847.59
1716.44
1583.52
1450.41
1318.53
1189.2
1063.72
943.39
829.231
722.467
625.109
539.272
466.787
408.868
365.637
335.796
316.805
305.597
299.394
296.133
294.5
293.704
293.324
293.147
293.066
293.029
293.013
293.005
293.002
293.001
293
293
293
293
293
293
293
293.004
293.017
293.039
293.076
293.138
293.24
293.407
293.68
294.12
294.817
295.906
297.58
300.101
303.813
309.14
316.571
326.614
339.74
356.305
376.502
400.33
427.62
458.079
491.363
527.12
565.037
604.854
646.364
689.412
733.879
779.671
826.705
874.897
924.154
974.359
1025.41
1077.34
1130.08
1183.52
1237.55
1292.05
1346.89
1401.93
1457.03
1512.04
1566.78
1621.09
1674.77
1727.63
1779.45
1829.99
1878.98
1926.12
1971.07
2013.43
2052.72
2087.95
2118.07
2143.92
2163.12
2173.98
2103.94
1982.46
1855.09
1724.02
1591.07
1457.86
1325.79
1196.23
1070.44
949.749
835.182
727.933
629.982
543.451
470.197
411.481
367.495
337.014
317.541
306.012
299.614
296.244
294.554
293.73
293.336
293.153
293.068
293.03
293.013
293.006
293.002
293.001
293
293
293
293
293
293
293
293.004
293.017
293.039
293.076
293.137
293.239
293.407
293.679
294.117
294.813
295.9
297.571
300.087
303.791
309.107
316.523
326.547
339.648
356.184
376.348
400.139
427.389
457.808
491.049
526.762
564.633
604.401
645.861
688.855
733.264
778.994
825.964
874.088
923.273
973.404
1024.37
1076.22
1128.88
1182.23
1236.18
1290.59
1345.35
1400.31
1455.34
1510.27
1564.96
1619.22
1672.86
1725.7
1777.5
1828.05
1877.06
1924.25
1969.28
2011.71
2051.08
2086.41
2116.63
2142.56
2161.82
2172.71
2112.85
1991.73
1864.56
1733.55
1600.56
1467.21
1334.95
1205.09
1078.94
957.796
842.725
734.876
636.185
548.784
474.561
414.838
369.891
338.589
318.495
306.55
299.9
296.389
294.625
293.763
293.352
293.16
293.071
293.031
293.014
293.006
293.003
293.001
293
293
293
293
293
293
293
293.004
293.017
293.039
293.076
293.137
293.239
293.406
293.678
294.115
294.809
295.894
297.56
300.07
303.765
309.069
316.467
326.469
339.541
356.044
376.169
399.918
427.123
457.494
490.684
526.345
564.163
603.874
645.273
688.202
732.543
778.2
825.091
873.133
922.23
972.272
1023.15
1074.89
1127.44
1180.69
1234.53
1288.84
1343.49
1398.35
1453.28
1508.13
1562.73
1616.92
1670.5
1723.29
1775.07
1825.61
1874.64
1921.86
1966.94
2009.46
2048.93
2084.38
2114.69
2140.71
2160.03
2170.95
2123.69
2002.98
1876.03
1745.11
1612.08
1478.58
1346.07
1215.87
1089.29
967.621
851.949
743.382
643.803
555.352
479.954
419.001
372.875
340.559
319.694
307.228
300.261
296.573
294.714
293.806
293.372
293.169
293.075
293.033
293.014
293.006
293.003
293.001
293
293
293
293
293
293
293
293.004
293.017
293.039
293.075
293.137
293.238
293.405
293.676
294.112
294.804
295.886
297.548
300.051
303.737
309.027
316.406
326.382
339.424
355.889
375.972
399.673
426.827
457.144
490.279
525.881
563.637
603.283
644.613
687.469
731.73
777.302
824.102
872.046
921.042
970.977
1021.74
1073.37
1125.79
1178.92
1232.62
1286.8
1341.32
1396.06
1450.87
1505.6
1560.1
1614.19
1667.7
1720.43
1772.17
1822.68
1871.7
1918.95
1964.07
2006.66
2046.2
2081.75
2112.14
2138.17
2157.43
2168.18
2136.66
2016.26
1889.52
1758.68
1625.64
1492.02
1359.26
1228.7
1101.63
979.332
862.959
753.563
652.943
563.256
486.47
424.056
376.519
342.979
321.174
308.068
300.709
296.801
294.825
293.859
293.396
293.18
293.08
293.035
293.015
293.007
293.003
293.001
293.001
293
293
293
293
293
293
293.004
293.017
293.039
293.075
293.136
293.237
293.404
293.674
294.109
294.799
295.878
297.535
300.031
303.706
308.981
316.34
326.29
339.298
355.724
375.76
399.411
426.51
456.77
489.843
525.382
563.07
602.644
643.897
686.67
730.843
776.319
823.015
870.85
919.729
969.541
1020.17
1071.66
1123.94
1176.92
1230.47
1284.5
1338.87
1393.45
1448.12
1502.71
1557.08
1611.06
1664.47
1717.11
1768.79
1819.27
1868.29
1915.56
1960.74
2003.4
2043.04
2078.68
2109.12
2135.05
2153.88
2163.51
2150.98
2031.03
1904.65
1774.06
1641.13
1507.46
1374.51
1243.6
1116.01
993.048
875.878
765.522
663.711
572.606
494.217
430.104
380.908
345.912
322.979
309.098
301.261
297.082
294.963
293.924
293.427
293.194
293.087
293.038
293.017
293.007
293.003
293.001
293.001
293
293
293
293
293
293
293.004
293.017
293.039
293.075
293.136
293.237
293.402
293.672
294.106
294.794
295.869
297.522
300.01
303.674
308.934
316.272
326.194
339.168
355.553
375.542
399.14
426.182
456.381
489.391
524.862
562.478
601.976
643.146
685.829
729.904
775.275
821.858
869.57
918.318
967.993
1018.48
1069.81
1121.93
1174.73
1228.11
1281.96
1336.15
1390.56
1445.05
1499.48
1553.7
1607.53
1660.82
1713.37
1764.97
1815.41
1864.44
1911.76
1957.04
1999.89
2039.81
2076.03
2107.04
2133.74
2153.66
2164.87
2164.24
2045.84
1920.58
1790.76
1658.28
1524.8
1391.79
1260.6
1132.52
1008.85
890.82
779.417
676.275
583.562
503.34
437.266
386.142
349.439
325.164
310.352
301.936
297.426
295.131
294.004
293.464
293.211
293.094
293.042
293.018
293.008
293.003
293.001
293.001
293
293
293
293
293
293
293.004
293.017
293.038
293.075
293.135
293.236
293.401
293.67
294.102
294.788
295.86
297.507
299.988
303.641
308.885
316.202
326.098
339.037
355.381
375.323
398.87
425.855
455.993
488.939
524.341
561.883
601.301
642.384
684.973
728.944
774.202
820.662
868.24
916.846
966.369
1016.69
1067.85
1119.78
1172.39
1225.58
1279.22
1333.21
1387.42
1441.71
1495.95
1549.98
1603.65
1656.79
1709.21
1760.73
1811.11
1860.14
1907.53
1952.96
1996.06
2036.38
2073.38
2105.29
2133.37
2155.5
2170.23
2175.31
2059.87
1936.82
1808.53
1677.02
1544.05
1411.18
1279.81
1151.28
1026.88
907.917
795.367
690.764
596.258
513.973
445.677
392.343
353.654
327.796
311.872
302.757
297.846
295.337
294.102
293.509
293.231
293.103
293.046
293.02
293.009
293.004
293.002
293.001
293
293
293
293
293
293
293.004
293.017
293.038
293.075
293.135
293.235
293.4
293.668
294.098
294.782
295.851
297.493
299.966
303.608
308.837
316.134
326.003
338.91
355.215
375.113
398.61
425.542
455.622
488.505
523.84
561.309
600.647
641.642
684.134
727.998
773.138
819.468
866.905
915.357
964.716
1014.86
1065.83
1117.56
1169.96
1222.92
1276.34
1330.1
1384.08
1438.14
1492.15
1545.97
1599.44
1652.4
1704.67
1756.06
1806.37
1855.37
1902.79
1948.34
1991.67
2032.34
2069.81
2102.75
2130.99
2154.44
2170.72
2177.62
2072.09
1953.35
1827.64
1697.66
1565.51
1432.95
1301.48
1172.49
1047.34
927.351
813.543
707.34
610.863
526.29
455.499
399.651
358.668
330.956
313.708
303.753
298.358
295.587
294.221
293.565
293.257
293.115
293.051
293.022
293.009
293.004
293.002
293.001
293
293
293
293
293
293
293.004
293.017
293.038
293.074
293.134
293.234
293.398
293.665
294.094
294.776
295.841
297.478
299.943
303.575
308.789
316.067
325.912
338.789
355.06
374.919
398.372
425.256
455.285
488.111
523.385
560.786
600.047
640.958
683.353
727.11
772.13
818.326
865.617
913.908
963.094
1013.05
1063.81
1115.32
1167.49
1220.22
1273.39
1326.89
1380.61
1434.41
1488.17
1541.74
1594.98
1647.72
1699.8
1751.03
1801.21
1850.13
1897.52
1943.11
1986.55
2027.42
2065.2
2098.62
2127.17
2151.11
2168.01
2175.72
2093.93
1976
1851.15
1721.83
1590.08
1457.61
1325.94
1196.43
1070.45
949.325
834.15
726.216
627.584
540.484
466.91
408.222
364.61
334.735
315.921
304.959
298.977
295.89
294.365
293.631
293.287
293.128
293.056
293.025
293.011
293.004
293.002
293.001
293
293
293
293
293
293
293.004
293.017
293.038
293.074
293.134
293.233
293.397
293.662
294.09
294.769
295.83
297.462
299.92
303.541
308.742
316.003
325.826
338.68
354.922
374.749
398.169
425.016
455.003
487.784
523.006
560.348
599.542
640.374
682.68
726.333
771.235
817.299
864.44
912.567
961.573
1011.34
1061.88
1113.16
1165.08
1217.54
1270.45
1323.67
1377.1
1430.62
1484.1
1537.39
1590.36
1642.84
1694.69
1745.71
1795.72
1844.49
1891.8
1937.34
1980.8
2021.74
2059.68
2093.46
2122.3
2146.48
2163.67
2172.09
2119.39
2002.06
1877.78
1748.94
1617.47
1485.04
1353.13
1223.08
1096.23
973.9
857.269
747.498
646.551
556.703
480.066
418.208
371.612
339.237
318.58
306.416
299.729
296.258
294.539
293.712
293.323
293.144
293.064
293.028
293.012
293.005
293.002
293.001
293
293
293
293
293
293
293.004
293.016
293.038
293.073
293.133
293.232
293.394
293.659
294.085
294.761
295.818
297.443
299.893
303.504
308.692
315.938
325.745
338.58
354.803
374.612
398.011
424.838
454.802
487.555
522.742
560.041
599.181
639.947
682.173
725.732
770.523
816.459
863.454
911.416
960.24
1009.8
1060.12
1111.16
1162.82
1215.01
1267.63
1320.56
1373.68
1426.89
1480.06
1533.04
1585.71
1637.91
1689.48
1740.26
1790.05
1838.65
1885.82
1931.29
1974.71
2015.68
2053.68
2087.61
2116.56
2140.73
2157.42
2164.06
2146.65
2029.7
1906.07
1777.86
1646.85
1514.63
1382.62
1252.14
1124.48
1000.96
882.837
771.186
667.813
575.037
495.082
429.732
379.788
344.548
321.74
308.154
300.625
296.696
294.746
293.807
293.366
293.163
293.072
293.031
293.013
293.006
293.002
293.001
293
293
293
293
293
293
293.004
293.016
293.037
293.073
293.132
293.23
293.392
293.655
294.078
294.751
295.803
297.423
299.865
303.466
308.643
315.876
325.672
338.497
354.715
374.52
397.921
424.75
454.717
487.468
522.645
559.924
599.031
639.748
681.909
725.385
770.075
815.891
862.746
910.548
959.19
1008.55
1058.64
1109.43
1160.83
1212.74
1265.06
1317.68
1370.49
1423.37
1476.21
1528.86
1581.21
1633.1
1684.38
1734.89
1784.45
1832.86
1879.89
1925.27
1968.71
2009.81
2048.1
2082.81
2112.74
2138.35
2157.51
2168.44
2168.48
2054.43
1933.09
1806.61
1676.81
1545.33
1413.6
1282.96
1154.69
1030.12
910.55
797.038
691.225
595.422
511.967
442.86
389.235
350.774
325.489
310.234
301.702
297.222
294.995
293.921
293.417
293.186
293.082
293.035
293.015
293.006
293.003
293.001
293
293
293
293
293
293
293.004
293.016
293.037
293.072
293.131
293.228
293.388
293.649
294.069
294.737
295.782
297.392
299.823
303.41
308.573
315.795
325.582
338.408
354.636
374.464
397.897
424.761
454.757
487.534
522.73
560.019
599.125
639.829
681.959
725.382
769.989
815.696
862.417
910.062
958.527
1007.69
1057.56
1108.1
1159.24
1210.86
1262.88
1315.19
1367.68
1420.23
1472.73
1525.05
1577.07
1628.65
1679.63
1729.86
1779.17
1827.37
1874.25
1919.57
1963.03
2004.29
2042.96
2078.5
2109.49
2136.21
2158.21
2173.63
2180.86
2073.91
1957.19
1833.81
1706.11
1575.97
1444.99
1314.56
1186.01
1060.64
939.791
824.572
716.431
617.618
530.571
457.5
399.887
357.852
329.767
312.6
302.916
297.81
295.269
294.046
293.473
293.21
293.092
293.04
293.017
293.007
293.003
293.001
293.001
293
293
293
293
293
293.004
293.016
293.037
293.071
293.129
293.225
293.384
293.641
294.057
294.719
295.758
297.358
299.777
303.353
308.505
315.719
325.509
338.348
354.603
374.471
397.951
424.869
454.928
487.764
523.012
560.34
599.468
640.174
682.287
725.674
770.233
815.87
862.497
910.014
958.314
1007.29
1056.93
1107.25
1158.13
1209.48
1261.21
1313.22
1365.4
1417.64
1469.82
1521.83
1573.53
1624.8
1675.49
1725.46
1774.52
1822.51
1869.23
1914.42
1957.84
1999.15
2037.95
2073.76
2105.2
2132.15
2154.41
2169.75
2176.01
2095.34
1981.29
1860.13
1734.2
1605.41
1475.34
1345.4
1216.89
1091.09
969.305
852.717
742.582
641.024
550.543
473.531
411.809
365.951
334.757
315.4
304.365
298.511
295.594
294.192
293.537
293.238
293.104
293.045
293.019
293.008
293.003
293.001
293.001
293
293
293
293
293
293.004
293.016
293.036
293.07
293.127
293.221
293.376
293.629
294.038
294.689
295.712
297.292
299.686
303.235
308.361
315.558
325.344
338.204
354.511
374.464
398.047
425.081
455.261
488.218
523.574
560.989
600.177
640.914
683.026
726.384
770.881
816.43