/*--------------------------------*- C++ -*----------------------------------*\
  =========                 |
  \\      /  F ield         | OpenFOAM: The Open Source CFD Toolbox
   \\    /   O peration     | Website:  https://openfoam.org
    \\  /    A nd           | Version:  8
     \\/     M anipulation  |
\*---------------------------------------------------------------------------*/
FoamFile
{
    version     2.0;
    format      ascii;
    class       volVectorField;
    location    "360/fluid";
    object      U;
}
// * * * * * * * * * * * * * * * * * * * * * * * * * * * * * * * * * * * * * //

dimensions      [0 1 -1 0 0 0 0];

internalField   nonuniform List<vector> 
4000
(
(0.0999506 -0.00684715 0)
(0.0996815 -0.0203945 0)
(0.0992472 -0.033845 0)
(0.0986474 -0.0472248 0)
(0.0978751 -0.0605469 0)
(0.0969145 -0.0738148 0)
(0.0957472 -0.0870221 0)
(0.0943556 -0.100153 0)
(0.0927258 -0.113184 0)
(0.0908495 -0.12609 0)
(0.088728 -0.138846 0)
(0.0863744 -0.151434 0)
(0.0838175 -0.163843 0)
(0.0811057 -0.176069 0)
(0.0783098 -0.188114 0)
(0.0755075 -0.200045 0)
(0.0727565 -0.211914 0)
(0.070086 -0.223755 0)
(0.0674875 -0.235572 0)
(0.0649137 -0.247335 0)
(0.0622872 -0.258977 0)
(0.0595163 -0.270404 0)
(0.0565104 -0.28151 0)
(0.0531975 -0.29218 0)
(0.0495419 -0.302286 0)
(0.0455296 -0.311776 0)
(0.0411591 -0.320597 0)
(0.0364399 -0.328706 0)
(0.0313904 -0.336075 0)
(0.0260348 -0.342689 0)
(0.0204008 -0.348546 0)
(0.0145165 -0.353657 0)
(0.0084101 -0.358044 0)
(0.0021089 -0.361737 0)
(-0.00435891 -0.364774 0)
(-0.0109664 -0.367198 0)
(-0.0176905 -0.369056 0)
(-0.0245116 -0.370396 0)
(-0.0314116 -0.371267 0)
(-0.0383741 -0.37172 0)
(-0.0453832 -0.371802 0)
(-0.0524243 -0.371559 0)
(-0.0594832 -0.371034 0)
(-0.066546 -0.370268 0)
(-0.0735992 -0.369295 0)
(-0.0806289 -0.368149 0)
(-0.0876212 -0.36686 0)
(-0.0945614 -0.365451 0)
(-0.101434 -0.363947 0)
(-0.108223 -0.362368 0)
(-0.114911 -0.360732 0)
(-0.121478 -0.359057 0)
(-0.127903 -0.357361 0)
(-0.134165 -0.355665 0)
(-0.140237 -0.35399 0)
(-0.146091 -0.352367 0)
(-0.151695 -0.350831 0)
(-0.157002 -0.349431 0)
(-0.16196 -0.34822 0)
(-0.166551 -0.347281 0)
(-0.17082 -0.346778 0)
(-0.174712 -0.347002 0)
(-0.177169 -0.34815 0)
(-0.176606 -0.349661 0)
(-0.172435 -0.350038 0)
(-0.166315 -0.348448 0)
(-0.15974 -0.345065 0)
(-0.152868 -0.340154 0)
(-0.145644 -0.333843 0)
(-0.138086 -0.326204 0)
(-0.130263 -0.317301 0)
(-0.122255 -0.307206 0)
(-0.11415 -0.296003 0)
(-0.106036 -0.283792 0)
(-0.0980266 -0.270684 0)
(-0.0903114 -0.256816 0)
(-0.0831875 -0.242402 0)
(-0.077031 -0.227746 0)
(-0.0722437 -0.213248 0)
(-0.0692083 -0.19957 0)
(-0.068152 -0.187125 0)
(-0.0689669 -0.175961 0)
(-0.0712231 -0.165792 0)
(-0.0743525 -0.156205 0)
(-0.0778389 -0.146857 0)
(-0.0813117 -0.137526 0)
(-0.0845434 -0.128087 0)
(-0.0874103 -0.118494 0)
(-0.0898867 -0.108826 0)
(-0.0919904 -0.0991214 0)
(-0.0937556 -0.0894141 0)
(-0.0952207 -0.0797357 0)
(-0.0964234 -0.0701106 0)
(-0.0973988 -0.0605549 0)
(-0.0981789 -0.0510761 0)
(-0.098792 -0.0416726 0)
(-0.0992621 -0.0323317 0)
(-0.0996084 -0.0230367 0)
(-0.099844 -0.0137871 0)
(-0.0999806 -0.00459101 0)
(0.0999997 -0.0064487 0)
(0.0998109 -0.0193034 0)
(0.0994211 -0.0320882 0)
(0.0988085 -0.0447781 0)
(0.0979746 -0.0573534 0)
(0.0969156 -0.0697954 0)
(0.095623 -0.0820813 0)
(0.0940893 -0.0941845 0)
(0.0923119 -0.106076 0)
(0.0902969 -0.11773 0)
(0.088061 -0.129126 0)
(0.085635 -0.140257 0)
(0.0830643 -0.151139 0)
(0.0804089 -0.161828 0)
(0.0777397 -0.172414 0)
(0.0751236 -0.182934 0)
(0.0726116 -0.193448 0)
(0.0702252 -0.20401 0)
(0.0679471 -0.214649 0)
(0.0657191 -0.225357 0)
(0.0634509 -0.236085 0)
(0.0610377 -0.246747 0)
(0.0583777 -0.257242 0)
(0.0553874 -0.267468 0)
(0.0520094 -0.277351 0)
(0.0482188 -0.28676 0)
(0.0440105 -0.295595 0)
(0.0393964 -0.303786 0)
(0.0344003 -0.311289 0)
(0.0290528 -0.318081 0)
(0.0233883 -0.324153 0)
(0.0174414 -0.329514 0)
(0.0112461 -0.334182 0)
(0.00483443 -0.338184 0)
(-0.00176253 -0.341555 0)
(-0.00851595 -0.344335 0)
(-0.0154005 -0.346571 0)
(-0.0223942 -0.34831 0)
(-0.0294778 -0.349599 0)
(-0.0366338 -0.350487 0)
(-0.0438458 -0.351019 0)
(-0.051099 -0.35124 0)
(-0.0583793 -0.351191 0)
(-0.0656732 -0.350911 0)
(-0.0729679 -0.350435 0)
(-0.0802505 -0.349795 0)
(-0.087508 -0.349018 0)
(-0.0947272 -0.348131 0)
(-0.101894 -0.347155 0)
(-0.108995 -0.346111 0)
(-0.116013 -0.345016 0)
(-0.122933 -0.343887 0)
(-0.129736 -0.342739 0)
(-0.136403 -0.341589 0)
(-0.142915 -0.340454 0)
(-0.149249 -0.339351 0)
(-0.15538 -0.338303 0)
(-0.161268 -0.337329 0)
(-0.16687 -0.33645 0)
(-0.172205 -0.335692 0)
(-0.177394 -0.3351 0)
(-0.182394 -0.334714 0)
(-0.185614 -0.334422 0)
(-0.184917 -0.333577 0)
(-0.180039 -0.331514 0)
(-0.173376 -0.328261 0)
(-0.166401 -0.323772 0)
(-0.159194 -0.317991 0)
(-0.15164 -0.310891 0)
(-0.143733 -0.302477 0)
(-0.135521 -0.292775 0)
(-0.127063 -0.28183 0)
(-0.118425 -0.269715 0)
(-0.109669 -0.256537 0)
(-0.100896 -0.242464 0)
(-0.0923163 -0.227764 0)
(-0.0842868 -0.212863 0)
(-0.0772726 -0.198375 0)
(-0.0717862 -0.185009 0)
(-0.0682647 -0.173093 0)
(-0.0668844 -0.162758 0)
(-0.0674455 -0.153802 0)
(-0.0694585 -0.145778 0)
(-0.072354 -0.138217 0)
(-0.075648 -0.130775 0)
(-0.0790036 -0.123266 0)
(-0.0822218 -0.115631 0)
(-0.0851985 -0.107844 0)
(-0.0878731 -0.0998187 0)
(-0.090232 -0.0915724 0)
(-0.09228 -0.0831473 0)
(-0.0940324 -0.0745872 0)
(-0.0955103 -0.0659301 0)
(-0.0967372 -0.0572073 0)
(-0.0977372 -0.0484424 0)
(-0.098533 -0.0396511 0)
(-0.0991438 -0.0308393 0)
(-0.0995826 -0.0220087 0)
(-0.0998583 -0.0131787 0)
(-0.099995 -0.00438292 0)
(0.0999806 -0.00619222 0)
(0.0997378 -0.0185249 0)
(0.0992618 -0.0307852 0)
(0.0985352 -0.0429458 0)
(0.0975616 -0.0549831 0)
(0.0963418 -0.0668773 0)
(0.094875 -0.0786078 0)
(0.0931633 -0.0901532 0)
(0.0912154 -0.101493 0)
(0.0890487 -0.11261 0)
(0.0866917 -0.123494 0)
(0.0841859 -0.134144 0)
(0.081586 -0.144573 0)
(0.0789554 -0.154807 0)
(0.0763581 -0.16489 0)
(0.0738541 -0.174882 0)
(0.0714911 -0.184852 0)
(0.0692892 -0.194857 0)
(0.0672301 -0.204933 0)
(0.0652537 -0.215078 0)
(0.0632662 -0.22525 0)
(0.0611574 -0.235374 0)
(0.0588191 -0.245354 0)
(0.0561593 -0.255083 0)
(0.0531067 -0.264462 0)
(0.0496166 -0.2734 0)
(0.0456739 -0.281824 0)
(0.0412857 -0.289673 0)
(0.0364738 -0.296907 0)
(0.0312689 -0.303499 0)
(0.0257064 -0.309437 0)
(0.0198228 -0.314722 0)
(0.0136538 -0.319368 0)
(0.0072337 -0.323396 0)
(0.00059524 -0.326836 0)
(-0.00623091 -0.329722 0)
(-0.0132178 -0.332096 0)
(-0.0203422 -0.334 0)
(-0.0275835 -0.335478 0)
(-0.0349231 -0.336575 0)
(-0.0423439 -0.337333 0)
(-0.0498308 -0.337794 0)
(-0.0573695 -0.337996 0)
(-0.064947 -0.337976 0)
(-0.0725511 -0.337766 0)
(-0.0801698 -0.337397 0)
(-0.0877917 -0.336894 0)
(-0.0954052 -0.336282 0)
(-0.102999 -0.33558 0)
(-0.110561 -0.334806 0)
(-0.118079 -0.333976 0)
(-0.125541 -0.333102 0)
(-0.132933 -0.332197 0)
(-0.14024 -0.33127 0)
(-0.147449 -0.330331 0)
(-0.154543 -0.329386 0)
(-0.1615 -0.328441 0)
(-0.168282 -0.327494 0)
(-0.174844 -0.326539 0)
(-0.181233 -0.325567 0)
(-0.187585 -0.324582 0)
(-0.193747 -0.32356 0)
(-0.197378 -0.322357 0)
(-0.195996 -0.320152 0)
(-0.190185 -0.316709 0)
(-0.182901 -0.312282 0)
(-0.175261 -0.306828 0)
(-0.167282 -0.300247 0)
(-0.158908 -0.292488 0)
(-0.150148 -0.283553 0)
(-0.141051 -0.27348 0)
(-0.131673 -0.262344 0)
(-0.122073 -0.250259 0)
(-0.112316 -0.237388 0)
(-0.102535 -0.223955 0)
(-0.0930068 -0.210273 0)
(-0.0841648 -0.196741 0)
(-0.076549 -0.183818 0)
(-0.0707202 -0.17195 0)
(-0.0670789 -0.161451 0)
(-0.0656829 -0.152366 0)
(-0.066222 -0.144441 0)
(-0.068161 -0.137249 0)
(-0.0709413 -0.130376 0)
(-0.0741104 -0.123529 0)
(-0.0773599 -0.116545 0)
(-0.0805118 -0.109357 0)
(-0.0834778 -0.101958 0)
(-0.0862116 -0.0943687 0)
(-0.0886869 -0.0866118 0)
(-0.0908939 -0.0787097 0)
(-0.0928338 -0.0706855 0)
(-0.094514 -0.0625608 0)
(-0.0959455 -0.0543551 0)
(-0.0971413 -0.0460853 0)
(-0.098115 -0.0377641 0)
(-0.0988785 -0.0293983 0)
(-0.0994391 -0.0209937 0)
(-0.099801 -0.0125754 0)
(-0.0999865 -0.00418317 0)
(0.0999847 -0.00586555 0)
(0.0997353 -0.0175482 0)
(0.0992386 -0.0291541 0)
(0.0984765 -0.0406501 0)
(0.0974568 -0.0520083 0)
(0.0961858 -0.0632054 0)
(0.0946682 -0.0742188 0)
(0.0929113 -0.0850264 0)
(0.0909286 -0.0956081 0)
(0.0887406 -0.105949 0)
(0.0863776 -0.11604 0)
(0.0838805 -0.125886 0)
(0.0813021 -0.135504 0)
(0.0787047 -0.144932 0)
(0.076156 -0.154222 0)
(0.0737204 -0.163442 0)
(0.0714458 -0.172663 0)
(0.0693503 -0.181948 0)
(0.0674123 -0.191334 0)
(0.0655685 -0.200825 0)
(0.0637215 -0.210386 0)
(0.0617566 -0.219946 0)
(0.059561 -0.229415 0)
(0.0570389 -0.238691 0)
(0.0541202 -0.247677 0)
(0.050762 -0.256283 0)
(0.0469466 -0.264431 0)
(0.0426766 -0.272061 0)
(0.037969 -0.27913 0)
(0.0328502 -0.28561 0)
(0.027352 -0.291486 0)
(0.0215081 -0.296759 0)
(0.0153524 -0.301437 0)
(0.00891741 -0.30554 0)
(0.00223454 -0.309093 0)
(-0.00466597 -0.312127 0)
(-0.0117569 -0.314679 0)
(-0.019015 -0.316788 0)
(-0.0264195 -0.318494 0)
(-0.0339517 -0.319837 0)
(-0.041595 -0.320857 0)
(-0.0493342 -0.321591 0)
(-0.0571558 -0.322075 0)
(-0.0650473 -0.322342 0)
(-0.0729973 -0.322422 0)
(-0.0809951 -0.322343 0)
(-0.0890303 -0.322126 0)
(-0.097093 -0.321793 0)
(-0.105173 -0.321361 0)
(-0.113262 -0.320844 0)
(-0.121348 -0.320253 0)
(-0.129422 -0.319596 0)
(-0.137471 -0.318879 0)
(-0.145482 -0.318104 0)
(-0.153442 -0.317272 0)
(-0.161331 -0.31638 0)
(-0.169123 -0.315418 0)
(-0.176756 -0.314372 0)
(-0.184191 -0.313216 0)
(-0.191452 -0.311917 0)
(-0.198691 -0.310433 0)
(-0.205544 -0.30868 0)
(-0.20897 -0.306528 0)
(-0.20644 -0.303168 0)
(-0.199593 -0.298752 0)
(-0.191641 -0.293394 0)
(-0.183276 -0.287077 0)
(-0.17446 -0.279749 0)
(-0.165163 -0.271387 0)
(-0.155448 -0.262008 0)
(-0.14538 -0.251663 0)
(-0.135036 -0.240438 0)
(-0.124496 -0.228463 0)
(-0.113859 -0.215911 0)
(-0.103318 -0.203015 0)
(-0.0932232 -0.190088 0)
(-0.0840572 -0.177516 0)
(-0.0763643 -0.165727 0)
(-0.0706409 -0.155111 0)
(-0.067177 -0.145889 0)
(-0.0659271 -0.138015 0)
(-0.0665213 -0.131188 0)
(-0.0684216 -0.124988 0)
(-0.0711017 -0.119041 0)
(-0.074148 -0.11309 0)
(-0.0772803 -0.10699 0)
(-0.0803319 -0.100677 0)
(-0.0832137 -0.0941343 0)
(-0.085882 -0.0873653 0)
(-0.0883175 -0.0803886 0)
(-0.0905132 -0.0732274 0)
(-0.0924682 -0.0659063 0)
(-0.0941855 -0.0584483 0)
(-0.0956698 -0.0508746 0)
(-0.0969271 -0.0432038 0)
(-0.097964 -0.0354517 0)
(-0.0987858 -0.0276291 0)
(-0.0993933 -0.019747 0)
(-0.0997864 -0.0118351 0)
(-0.0999869 -0.00393783 0)
(0.0999819 -0.00553483 0)
(0.0997167 -0.016558 0)
(0.0991928 -0.0275066 0)
(0.0983929 -0.0383474 0)
(0.0973273 -0.0490523 0)
(0.0960046 -0.0595983 0)
(0.0944325 -0.0699643 0)
(0.0926216 -0.0801298 0)
(0.0905884 -0.0900774 0)
(0.0883571 -0.0997944 0)
(0.0859611 -0.109275 0)
(0.0834445 -0.118524 0)
(0.0808629 -0.12756 0)
(0.0782807 -0.136415 0)
(0.0757671 -0.145139 0)
(0.0733859 -0.153794 0)
(0.0711838 -0.162447 0)
(0.069177 -0.171155 0)
(0.0673417 -0.179957 0)
(0.065612 -0.188857 0)
(0.0638887 -0.197827 0)
(0.0620547 -0.206807 0)
(0.0599937 -0.215713 0)
(0.0576055 -0.224456 0)
(0.0548156 -0.232944 0)
(0.0515778 -0.241095 0)
(0.0478711 -0.248836 0)
(0.0436953 -0.256113 0)
(0.0390651 -0.262882 0)
(0.0340046 -0.269117 0)
(0.0285434 -0.274803 0)
(0.0227135 -0.279936 0)
(0.0165473 -0.284525 0)
(0.0100763 -0.288583 0)
(0.00333065 -0.292135 0)
(-0.003659 -0.295206 0)
(-0.0108662 -0.297828 0)
(-0.0182694 -0.300037 0)
(-0.025848 -0.301868 0)
(-0.0335837 -0.303358 0)
(-0.0414604 -0.304542 0)
(-0.0494635 -0.305454 0)
(-0.05758 -0.306125 0)
(-0.065798 -0.306586 0)
(-0.0741067 -0.306861 0)
(-0.0824961 -0.306976 0)
(-0.0909566 -0.306949 0)
(-0.099479 -0.306797 0)
(-0.108054 -0.306533 0)
(-0.116672 -0.306168 0)
(-0.125324 -0.305706 0)
(-0.133999 -0.305152 0)
(-0.142684 -0.304505 0)
(-0.151365 -0.303762 0)
(-0.160023 -0.302917 0)
(-0.168635 -0.301958 0)
(-0.177157 -0.300869 0)
(-0.185519 -0.299629 0)
(-0.193654 -0.298205 0)
(-0.201567 -0.296563 0)
(-0.209272 -0.294641 0)
(-0.216193 -0.292336 0)
(-0.219169 -0.289445 0)
(-0.215755 -0.285283 0)
(-0.208007 -0.280222 0)
(-0.199233 -0.274277 0)
(-0.190051 -0.267433 0)
(-0.180372 -0.259691 0)
(-0.17019 -0.251062 0)
(-0.159577 -0.241585 0)
(-0.148624 -0.231327 0)
(-0.137426 -0.220389 0)
(-0.126083 -0.208908 0)
(-0.114728 -0.197064 0)
(-0.103606 -0.185089 0)
(-0.093113 -0.17328 0)
(-0.0837545 -0.161982 0)
(-0.0760611 -0.15155 0)
(-0.0704741 -0.142269 0)
(-0.0671951 -0.134252 0)
(-0.0660905 -0.127376 0)
(-0.0667409 -0.12133 0)
(-0.0686084 -0.115748 0)
(-0.0711968 -0.110322 0)
(-0.0741288 -0.104853 0)
(-0.0771531 -0.0992302 0)
(-0.0801194 -0.0934068 0)
(-0.0829443 -0.0873709 0)
(-0.0855826 -0.0811286 0)
(-0.0880111 -0.0746944 0)
(-0.090218 -0.0680863 0)
(-0.0921983 -0.0613233 0)
(-0.093951 -0.0544238 0)
(-0.0954769 -0.0474053 0)
(-0.0967783 -0.0402843 0)
(-0.0978584 -0.0330753 0)
(-0.0987189 -0.0257894 0)
(-0.0993581 -0.0184386 0)
(-0.0997732 -0.0110533 0)
(-0.0999857 -0.00367801 0)
(0.0999823 -0.00518784 0)
(0.0997126 -0.0155208 0)
(0.0991785 -0.0257824 0)
(0.0983631 -0.035939 0)
(0.0972782 -0.0459622 0)
(0.0959344 -0.0558293 0)
(0.0943413 -0.0655192 0)
(0.0925114 -0.0750126 0)
(0.0904631 -0.084293 0)
(0.0882219 -0.0933488 0)
(0.0858226 -0.102176 0)
(0.0833099 -0.11078 0)
(0.0807398 -0.119179 0)
(0.0781768 -0.127408 0)
(0.0756896 -0.135516 0)
(0.0733419 -0.143564 0)
(0.0711801 -0.151616 0)
(0.06922 -0.159733 0)
(0.0674371 -0.167949 0)
(0.0657654 -0.176273 0)
(0.0641047 -0.184678 0)
(0.0623372 -0.193107 0)
(0.0603455 -0.201485 0)
(0.0580278 -0.209726 0)
(0.0553077 -0.217746 0)
(0.0521359 -0.225466 0)
(0.0484889 -0.232819 0)
(0.0443635 -0.239751 0)
(0.0397716 -0.246223 0)
(0.0347349 -0.252207 0)
(0.0292809 -0.257689 0)
(0.0234398 -0.262664 0)
(0.0172422 -0.267138 0)
(0.0107184 -0.271123 0)
(0.00389726 -0.274638 0)
(-0.00319253 -0.277708 0)
(-0.0105256 -0.280362 0)
(-0.0180803 -0.282629 0)
(-0.0258371 -0.284542 0)
(-0.0337784 -0.286134 0)
(-0.0418886 -0.287436 0)
(-0.0501535 -0.288478 0)
(-0.0585606 -0.289288 0)
(-0.0670983 -0.289891 0)
(-0.075756 -0.290311 0)
(-0.0845236 -0.290567 0)
(-0.0933917 -0.290675 0)
(-0.102351 -0.290648 0)
(-0.11139 -0.290496 0)
(-0.120501 -0.290223 0)
(-0.129672 -0.289832 0)
(-0.138889 -0.289323 0)
(-0.148137 -0.28869 0)
(-0.157399 -0.287925 0)
(-0.16665 -0.287016 0)
(-0.175857 -0.285949 0)
(-0.184963 -0.284703 0)
(-0.193882 -0.283254 0)
(-0.202552 -0.281573 0)
(-0.210972 -0.279646 0)
(-0.219064 -0.277468 0)
(-0.225751 -0.274981 0)
(-0.227809 -0.271629 0)
(-0.223207 -0.266805 0)
(-0.214626 -0.26117 0)
(-0.205131 -0.254793 0)
(-0.195212 -0.247645 0)
(-0.184773 -0.239724 0)
(-0.173819 -0.231055 0)
(-0.162441 -0.221688 0)
(-0.150747 -0.211698 0)
(-0.138852 -0.201189 0)
(-0.126876 -0.190298 0)
(-0.114987 -0.179196 0)
(-0.103478 -0.168101 0)
(-0.0927833 -0.157285 0)
(-0.0834165 -0.147053 0)
(-0.0758851 -0.137707 0)
(-0.0705681 -0.129469 0)
(-0.0675776 -0.122395 0)
(-0.0666977 -0.116335 0)
(-0.0674675 -0.110986 0)
(-0.0693519 -0.106015 0)
(-0.0718822 -0.101157 0)
(-0.0747135 -0.0962377 0)
(-0.077621 -0.0911639 0)
(-0.0804722 -0.0858947 0)
(-0.0831934 -0.0804191 0)
(-0.0857447 -0.074742 0)
(-0.0881044 -0.0688757 0)
(-0.0902606 -0.0628363 0)
(-0.0922066 -0.0566407 0)
(-0.0939388 -0.0503059 0)
(-0.0954552 -0.0438484 0)
(-0.0967553 -0.0372841 0)
(-0.0978391 -0.0306276 0)
(-0.0987059 -0.0238905 0)
(-0.0993514 -0.017086 0)
(-0.099771 -0.0102445 0)
(-0.0999858 -0.00340912 0)
(0.0999818 -0.00483706 0)
(0.0997077 -0.0144719 0)
(0.0991656 -0.02404 0)
(0.0983389 -0.0335089 0)
(0.09724 -0.0428515 0)
(0.0958806 -0.052046 0)
(0.0942713 -0.0610726 0)
(0.0924258 -0.0699133 0)
(0.0903638 -0.078553 0)
(0.088112 -0.0869814 0)
(0.0857062 -0.0951953 0)
(0.0831923 -0.103201 0)
(0.080627 -0.111016 0)
(0.0780755 -0.118672 0)
(0.0756069 -0.126217 0)
(0.0732849 -0.133707 0)
(0.0711552 -0.141204 0)
(0.0692331 -0.148761 0)
(0.0674932 -0.156415 0)
(0.0658681 -0.164173 0)
(0.0642566 -0.172012 0)
(0.0625394 -0.179881 0)
(0.0605976 -0.187712 0)
(0.058328 -0.195426 0)
(0.0556522 -0.202945 0)
(0.0525194 -0.210197 0)
(0.048904 -0.217119 0)
(0.044801 -0.223662 0)
(0.0402204 -0.229788 0)
(0.035182 -0.23547 0)
(0.0297117 -0.240695 0)
(0.023838 -0.245456 0)
(0.0175902 -0.249758 0)
(0.0109971 -0.253611 0)
(0.00408683 -0.257033 0)
(-0.00311337 -0.260043 0)
(-0.010579 -0.262667 0)
(-0.0182892 -0.264933 0)
(-0.0262251 -0.266869 0)
(-0.0343696 -0.268503 0)
(-0.0427074 -0.269863 0)
(-0.0512248 -0.270975 0)
(-0.0599092 -0.271865 0)
(-0.068749 -0.272553 0)
(-0.0777334 -0.27306 0)
(-0.086852 -0.273401 0)
(-0.0960942 -0.273589 0)
(-0.10545 -0.273634 0)
(-0.114907 -0.273541 0)
(-0.124453 -0.273315 0)
(-0.134076 -0.272952 0)
(-0.143758 -0.27245 0)
(-0.15348 -0.271801 0)
(-0.163219 -0.270994 0)
(-0.172946 -0.270015 0)
(-0.18262 -0.268847 0)
(-0.192174 -0.267469 0)
(-0.201518 -0.265856 0)
(-0.210621 -0.263985 0)
(-0.219553 -0.261853 0)
(-0.228131 -0.259489 0)
(-0.234243 -0.256849 0)
(-0.234559 -0.253038 0)
(-0.22849 -0.247809 0)
(-0.219397 -0.241877 0)
(-0.209475 -0.235336 0)
(-0.199008 -0.228143 0)
(-0.187953 -0.220291 0)
(-0.176369 -0.211812 0)
(-0.16437 -0.202761 0)
(-0.152085 -0.19322 0)
(-0.139646 -0.183292 0)
(-0.127191 -0.17311 0)
(-0.114923 -0.162835 0)
(-0.103174 -0.152673 0)
(-0.0924019 -0.142871 0)
(-0.0831179 -0.133697 0)
(-0.0757979 -0.1254 0)
(-0.0707582 -0.118141 0)
(-0.0680318 -0.111922 0)
(-0.0673399 -0.106567 0)
(-0.0681981 -0.101788 0)
(-0.0700835 -0.0972959 0)
(-0.0725559 -0.092869 0)
(-0.0752986 -0.0883681 0)
(-0.0781079 -0.0837191 0)
(-0.080864 -0.0788903 0)
(-0.0834996 -0.0738735 0)
(-0.0859774 -0.0686729 0)
(-0.0882762 -0.063299 0)
(-0.0903833 -0.0577649 0)
(-0.0922912 -0.0520851 0)
(-0.0939947 -0.046274 0)
(-0.0954905 -0.040346 0)
(-0.0967762 -0.0343154 0)
(-0.0978507 -0.0281955 0)
(-0.0987117 -0.0219976 0)
(-0.0993539 -0.0157347 0)
(-0.0997718 -0.00943536 0)
(-0.0999858 -0.00314001 0)
(0.0999818 -0.00448213 0)
(0.0997061 -0.0134107 0)
(0.0991605 -0.0222775 0)
(0.0983285 -0.0310516 0)
(0.0972231 -0.0397073 0)
(0.0958565 -0.048224 0)
(0.0942401 -0.056583 0)
(0.0923882 -0.0647675 0)
(0.0903211 -0.0727634 0)
(0.0880663 -0.0805617 0)
(0.0856601 -0.0881594 0)
(0.0831488 -0.0955628 0)
(0.0805893 -0.102789 0)
(0.0780472 -0.10987 0)
(0.0755913 -0.116848 0)
(0.0732852 -0.123778 0)
(0.0711746 -0.130718 0)
(0.0692741 -0.137719 0)
(0.0675581 -0.144814 0)
(0.0659586 -0.152013 0)
(0.0643736 -0.159294 0)
(0.0626831 -0.16661 0)
(0.0607671 -0.173898 0)
(0.0585213 -0.181087 0)
(0.0558658 -0.188103 0)
(0.0527485 -0.194881 0)
(0.0491421 -0.201363 0)
(0.0450399 -0.207501 0)
(0.0404505 -0.213261 0)
(0.0353921 -0.218618 0)
(0.0298892 -0.223558 0)
(0.0239689 -0.228075 0)
(0.0176593 -0.232171 0)
(0.0109881 -0.235857 0)
(0.00398219 -0.239145 0)
(-0.00333175 -0.242056 0)
(-0.0109301 -0.24461 0)
(-0.0187929 -0.246831 0)
(-0.0269017 -0.248745 0)
(-0.0352398 -0.250377 0)
(-0.043792 -0.251751 0)
(-0.0525447 -0.25289 0)
(-0.0614852 -0.253815 0)
(-0.0706017 -0.254545 0)
(-0.0798826 -0.255097 0)
(-0.0893167 -0.255482 0)
(-0.0988924 -0.255712 0)
(-0.108598 -0.255793 0)
(-0.118419 -0.255729 0)
(-0.128343 -0.255521 0)
(-0.138351 -0.255165 0)
(-0.148424 -0.254655 0)
(-0.158539 -0.253983 0)
(-0.168668 -0.253137 0)
(-0.178776 -0.252102 0)
(-0.188816 -0.250859 0)
(-0.198707 -0.249387 0)
(-0.208356 -0.247661 0)
(-0.21776 -0.245656 0)
(-0.227023 -0.243369 0)
(-0.235784 -0.240802 0)
(-0.241025 -0.237925 0)
(-0.239628 -0.233773 0)
(-0.232399 -0.228479 0)
(-0.222938 -0.222566 0)
(-0.212676 -0.216104 0)
(-0.20175 -0.209066 0)
(-0.190179 -0.201458 0)
(-0.178072 -0.19332 0)
(-0.165569 -0.184712 0)
(-0.152814 -0.175716 0)
(-0.139954 -0.166436 0)
(-0.127144 -0.156995 0)
(-0.114616 -0.147545 0)
(-0.102736 -0.138274 0)
(-0.0919772 -0.129405 0)
(-0.0828431 -0.121172 0)
(-0.0757764 -0.113782 0)
(-0.0710336 -0.107352 0)
(-0.0685776 -0.101852 0)
(-0.0680772 -0.0970974 0)
(-0.0690308 -0.092823 0)
(-0.0709279 -0.0887745 0)
(-0.0733538 -0.0847633 0)
(-0.0760168 -0.0806732 0)
(-0.0787321 -0.0764432 0)
(-0.0813922 -0.072047 0)
(-0.0839367 -0.0674783 0)
(-0.0863319 -0.0627409 0)
(-0.0885579 -0.0578438 0)
(-0.0906025 -0.0527986 0)
(-0.0924578 -0.0476177 0)
(-0.094118 -0.0423141 0)
(-0.0955786 -0.0369008 0)
(-0.0968366 -0.0313907 0)
(-0.0978896 -0.0257962 0)
(-0.0987345 -0.0201283 0)
(-0.0993652 -0.0143991 0)
(-0.0997759 -0.00863529 0)
(-0.0999861 -0.00287391 0)
(0.0999817 -0.00412581 0)
(0.0997048 -0.0123451 0)
(0.0991571 -0.0205079 0)
(0.0983218 -0.0285853 0)
(0.0972124 -0.0365533 0)
(0.0958414 -0.0443928 0)
(0.0942203 -0.0520864 0)
(0.0923642 -0.0596186 0)
(0.0902935 -0.0669767 0)
(0.0880363 -0.0741522 0)
(0.0856292 -0.0811429 0)
(0.083119 -0.0879549 0)
(0.0805629 -0.0946045 0)
(0.0780265 -0.10112 0)
(0.075579 -0.107544 0)
(0.0732838 -0.113924 0)
(0.0711863 -0.120316 0)
(0.0693009 -0.126767 0)
(0.0676012 -0.133308 0)
(0.0660184 -0.139948 0)
(0.0644498 -0.146668 0)
(0.0627744 -0.153425 0)
(0.0608713 -0.160163 0)
(0.0586352 -0.166814 0)
(0.0559852 -0.173314 0)
(0.052868 -0.1796 0)
(0.0492553 -0.18562 0)
(0.0451392 -0.191331 0)
(0.0405271 -0.1967 0)
(0.0354361 -0.201703 0)
(0.0298894 -0.206328 0)
(0.0239134 -0.210568 0)
(0.0175349 -0.214425 0)
(0.0107808 -0.217907 0)
(0.00367656 -0.221026 0)
(-0.00375038 -0.223798 0)
(-0.0114772 -0.226242 0)
(-0.0194857 -0.228379 0)
(-0.0277573 -0.230232 0)
(-0.0362753 -0.231823 0)
(-0.0450247 -0.233172 0)
(-0.0539917 -0.234299 0)
(-0.0631631 -0.235223 0)
(-0.0725267 -0.235959 0)
(-0.0820703 -0.236521 0)
(-0.0917813 -0.236919 0)
(-0.101647 -0.237161 0)
(-0.111654 -0.237253 0)
(-0.121786 -0.237195 0)
(-0.132026 -0.236987 0)
(-0.142355 -0.236625 0)
(-0.152749 -0.236101 0)
(-0.16318 -0.235407 0)
(-0.173615 -0.234528 0)
(-0.184013 -0.23345 0)
(-0.194319 -0.232155 0)
(-0.204439 -0.230619 0)
(-0.21428 -0.228814 0)
(-0.223859 -0.226715 0)
(-0.233286 -0.224304 0)
(-0.242036 -0.221549 0)
(-0.246414 -0.218482 0)
(-0.243564 -0.214294 0)
(-0.235424 -0.209224 0)
(-0.225618 -0.203541 0)
(-0.215023 -0.197315 0)
(-0.203684 -0.190563 0)
(-0.191674 -0.183313 0)
(-0.179137 -0.175615 0)
(-0.166231 -0.167533 0)
(-0.153112 -0.159148 0)
(-0.139934 -0.15056 0)
(-0.126869 -0.141882 0)
(-0.114176 -0.133255 0)
(-0.102246 -0.124852 0)
(-0.0915598 -0.116871 0)
(-0.0826101 -0.109516 0)
(-0.0758051 -0.102957 0)
(-0.0713457 -0.0972753 0)
(-0.0691345 -0.092414 0)
(-0.0688001 -0.0881888 0)
(-0.0698322 -0.0843581 0)
(-0.0717356 -0.0807012 0)
(-0.0741189 -0.0770599 0)
(-0.0767116 -0.0733386 0)
(-0.0793448 -0.069488 0)
(-0.0819206 -0.0654872 0)
(-0.0843841 -0.0613315 0)
(-0.086704 -0.0570244 0)
(-0.088862 -0.0525737 0)
(-0.0908463 -0.0479894 0)
(-0.0926489 -0.0432823 0)
(-0.0942636 -0.0384636 0)
(-0.0956858 -0.0335448 0)
(-0.0969119 -0.0285373 0)
(-0.0979391 -0.0234526 0)
(-0.0987639 -0.0183004 0)
(-0.0993799 -0.0130922 0)
(-0.099781 -0.00785214 0)
(-0.0999864 -0.00261342 0)
(0.0999817 -0.00376849 0)
(0.0997044 -0.0112764 0)
(0.0991556 -0.0187331 0)
(0.0983187 -0.0261118 0)
(0.0972072 -0.0333906 0)
(0.0958339 -0.0405516 0)
(0.0942104 -0.0475791 0)
(0.092352 -0.0544588 0)
(0.0902796 -0.0611791 0)
(0.0880212 -0.0677323 0)
(0.0856138 -0.0741167 0)
(0.0831044 -0.0803379 0)
(0.0805503 -0.0864112 0)
(0.0780173 -0.0923633 0)
(0.0755747 -0.0982319 0)
(0.0732858 -0.104063 0)
(0.0711957 -0.109907 0)
(0.0693186 -0.115808 0)
(0.0676274 -0.121795 0)
(0.0660528 -0.127875 0)
(0.0644914 -0.134032 0)
(0.0628212 -0.140227 0)
(0.0609206 -0.146409 0)
(0.0586834 -0.152517 0)
(0.0560281 -0.15849 0)
(0.0529004 -0.164274 0)
(0.049271 -0.169819 0)
(0.0451315 -0.175086 0)
(0.0404879 -0.180044 0)
(0.0353569 -0.184673 0)
(0.0297606 -0.18896 0)
(0.0237245 -0.192898 0)
(0.0172749 -0.196489 0)
(0.0104379 -0.199739 0)
(0.00323926 -0.202659 0)
(-0.00429589 -0.205263 0)
(-0.0121451 -0.207567 0)
(-0.0202891 -0.20959 0)
(-0.0287099 -0.211351 0)
(-0.0373912 -0.212869 0)
(-0.0463178 -0.214162 0)
(-0.0554755 -0.215248 0)
(-0.0648509 -0.216142 0)
(-0.0744309 -0.216858 0)
(-0.0842024 -0.217406 0)
(-0.094152 -0.217794 0)
(-0.104265 -0.21803 0)
(-0.114526 -0.218116 0)
(-0.124918 -0.218054 0)
(-0.135421 -0.217839 0)
(-0.146012 -0.21747 0)
(-0.156664 -0.216937 0)
(-0.167345 -0.216231 0)
(-0.178016 -0.215341 0)
(-0.18863 -0.214252 0)
(-0.199121 -0.212946 0)
(-0.209381 -0.211403 0)
(-0.219314 -0.209596 0)
(-0.228927 -0.207501 0)
(-0.238281 -0.205081 0)
(-0.246782 -0.202273 0)
(-0.250702 -0.199124 0)
(-0.247064 -0.195017 0)
(-0.238099 -0.190225 0)
(-0.227721 -0.184844 0)
(-0.216683 -0.17894 0)
(-0.204946 -0.172562 0)
(-0.192564 -0.165753 0)
(-0.179685 -0.158568 0)
(-0.166468 -0.151072 0)
(-0.153077 -0.143342 0)
(-0.139671 -0.135469 0)
(-0.126434 -0.127559 0)
(-0.113648 -0.11974 0)
(-0.101726 -0.112168 0)
(-0.0911508 -0.105019 0)
(-0.0824036 -0.0984698 0)
(-0.0758593 -0.0926611 0)
(-0.0716684 -0.0876449 0)
(-0.0696823 -0.0833499 0)
(-0.0694979 -0.0795986 0)
(-0.070601 -0.0761734 0)
(-0.072511 -0.0728835 0)
(-0.0748572 -0.0695953 0)
(-0.0773879 -0.0662296 0)
(-0.0799475 -0.0627459 0)
(-0.0824465 -0.0591274 0)
(-0.0848349 -0.0553706 0)
(-0.0870839 -0.0514787 0)
(-0.0891766 -0.0474586 0)
(-0.0911017 -0.043319 0)
(-0.0928515 -0.0390693 0)
(-0.0944199 -0.0347194 0)
(-0.0958022 -0.0302793 0)
(-0.0969945 -0.0257593 0)
(-0.0979938 -0.0211696 0)
(-0.0987965 -0.0165191 0)
(-0.0993962 -0.0118183 0)
(-0.0997868 -0.00708862 0)
(-0.0999868 -0.00235947 0)
(0.0999816 -0.00341076 0)
(0.099704 -0.0102064 0)
(0.0991546 -0.0169559 0)
(0.0983167 -0.0236351 0)
(0.0972039 -0.0302239 0)
(0.0958289 -0.0367062 0)
(0.0942037 -0.0430676 0)
(0.0923436 -0.0492952 0)
(0.0902695 -0.0553786 0)
(0.0880098 -0.0613108 0)
(0.0856015 -0.0670903 0)
(0.0830918 -0.0727225 0)
(0.0805382 -0.0782215 0)
(0.0780067 -0.0836115 0)
(0.0755663 -0.088927 0)
(0.0732806 -0.0942104 0)
(0.0711946 -0.099507 0)
(0.0693218 -0.104857 0)
(0.0676347 -0.110287 0)
(0.0660634 -0.115805 0)
(0.0645036 -0.121394 0)
(0.0628326 -0.127022 0)
(0.0609281 -0.13264 0)
(0.0586833 -0.138195 0)
(0.0560159 -0.143632 0)
(0.052871 -0.1489 0)
(0.0492189 -0.153955 0)
(0.0450503 -0.158762 0)
(0.0403707 -0.163293 0)
(0.035196 -0.167529 0)
(0.0295479 -0.171457 0)
(0.0234511 -0.175071 0)
(0.0169313 -0.178374 0)
(0.0100145 -0.181368 0)
(0.00272583 -0.184065 0)
(-0.00491012 -0.186475 0)
(-0.0128713 -0.188613 0)
(-0.0211383 -0.190496 0)
(-0.0296934 -0.19214 0)
(-0.0385201 -0.193561 0)
(-0.0476032 -0.194775 0)
(-0.056928 -0.195797 0)
(-0.0664806 -0.19664 0)
(-0.0762472 -0.197315 0)
(-0.0862138 -0.197831 0)
(-0.0963657 -0.198196 0)
(-0.106687 -0.198413 0)
(-0.117161 -0.198484 0)
(-0.127769 -0.19841 0)
(-0.138487 -0.198187 0)
(-0.149292 -0.197812 0)
(-0.160153 -0.197276 0)
(-0.171034 -0.19657 0)
(-0.181895 -0.195685 0)
(-0.192682 -0.194606 0)
(-0.203319 -0.19332 0)
(-0.21369 -0.191807 0)
(-0.223696 -0.190048 0)
(-0.233316 -0.188027 0)
(-0.242557 -0.185714 0)
(-0.250678 -0.183059 0)
(-0.253942 -0.180018 0)
(-0.249544 -0.176008 0)
(-0.240007 -0.171437 0)
(-0.229189 -0.166374 0)
(-0.217782 -0.160861 0)
(-0.205715 -0.154938 0)
(-0.193036 -0.148649 0)
(-0.179887 -0.142046 0)
(-0.166434 -0.13519 0)
(-0.15284 -0.128154 0)
(-0.13927 -0.12102 0)
(-0.125919 -0.113883 0)
(-0.113091 -0.106861 0)
(-0.101212 -0.100095 0)
(-0.0907685 -0.0937383 0)
(-0.0822259 -0.087945 0)
(-0.0759287 -0.0828288 0)
(-0.0719823 -0.0784206 0)
(-0.0701953 -0.0746409 0)
(-0.0701407 -0.0713228 0)
(-0.0713035 -0.0682732 0)
(-0.0732179 -0.0653282 0)
(-0.0755314 -0.0623756 0)
(-0.0780081 -0.05935 0)
(-0.0805035 -0.0562184 0)
(-0.0829353 -0.0529673 0)
(-0.0852572 -0.0495942 0)
(-0.0874429 -0.0461021 0)
(-0.0894763 -0.0424971 0)
(-0.0913471 -0.0387866 0)
(-0.0930477 -0.0349788 0)
(-0.0945724 -0.0310823 0)
(-0.0959165 -0.0271059 0)
(-0.097076 -0.0230586 0)
(-0.0980481 -0.0189495 0)
(-0.098829 -0.0147864 0)
(-0.0994124 -0.0105789 0)
(-0.0997925 -0.00634569 0)
(-0.0999872 -0.00211235 0)
(0.0999816 -0.00305274 0)
(0.0997038 -0.00913531 0)
(0.0991539 -0.0151768 0)
(0.0983153 -0.0211557 0)
(0.0972015 -0.0270538 0)
(0.0958253 -0.0328566 0)
(0.0941987 -0.0385514 0)
(0.092337 -0.0441265 0)
(0.0902613 -0.0495726 0)
(0.0880001 -0.0548835 0)
(0.0855905 -0.060058 0)
(0.0830797 -0.0651009 0)
(0.0805255 -0.070025 0)
(0.0779938 -0.0748523 0)
(0.0755539 -0.0796139 0)
(0.0732691 -0.0843481 0)
(0.0711843 -0.0890955 0)
(0.0693128 -0.0938925 0)
(0.0676266 -0.0987633 0)
(0.0660549 -0.103714 0)
(0.0644927 -0.108732 0)
(0.0628169 -0.113787 0)
(0.0609044 -0.118835 0)
(0.0586478 -0.123829 0)
(0.0559643 -0.128719 0)
(0.0527987 -0.133461 0)
(0.0491207 -0.138015 0)
(0.0449204 -0.142349 0)
(0.0402032 -0.146438 0)
(0.0349843 -0.150264 0)
(0.0292851 -0.153816 0)
(0.0231296 -0.15709 0)
(0.0165435 -0.160085 0)
(0.00955207 -0.162805 0)
(0.0021805 -0.165258 0)
(-0.00554712 -0.167455 0)
(-0.0136089 -0.169407 0)
(-0.0219855 -0.17113 0)
(-0.0306591 -0.172637 0)
(-0.0396132 -0.173942 0)
(-0.048832 -0.175059 0)
(-0.0583008 -0.176 0)
(-0.0680049 -0.176776 0)
(-0.0779298 -0.177397 0)
(-0.0880606 -0.17787 0)
(-0.0983815 -0.178201 0)
(-0.108876 -0.178392 0)
(-0.119524 -0.178445 0)
(-0.130306 -0.178358 0)
(-0.141198 -0.17813 0)
(-0.152171 -0.177755 0)
(-0.163194 -0.177225 0)
(-0.174229 -0.176533 0)
(-0.18523 -0.175668 0)
(-0.196142 -0.174619 0)
(-0.206879 -0.173374 0)
(-0.217324 -0.171918 0)
(-0.227383 -0.170236 0)
(-0.237047 -0.168328 0)
(-0.246274 -0.166198 0)
(-0.253959 -0.163831 0)
(-0.256414 -0.160996 0)
(-0.251242 -0.157155 0)
(-0.241302 -0.152847 0)
(-0.230181 -0.148151 0)
(-0.218488 -0.143084 0)
(-0.206157 -0.137673 0)
(-0.193238 -0.131956 0)
(-0.179877 -0.12598 0)
(-0.16624 -0.119799 0)
(-0.152493 -0.113479 0)
(-0.138803 -0.107095 0)
(-0.125379 -0.100731 0)
(-0.11254 -0.0944938 0)
(-0.100725 -0.0885066 0)
(-0.0904186 -0.0829062 0)
(-0.0820729 -0.0778232 0)
(-0.0760033 -0.07335 0)
(-0.0722759 -0.0695016 0)
(-0.0706636 -0.0661964 0)
(-0.070721 -0.0632813 0)
(-0.0719347 -0.0605868 0)
(-0.0738522 -0.0579733 0)
(-0.0761373 -0.0553468 0)
(-0.0785671 -0.0526533 0)
(-0.0810068 -0.0498658 0)
(-0.0833798 -0.0469735 0)
(-0.0856432 -0.0439746 0)
(-0.0877725 -0.040872 0)
(-0.089753 -0.0376709 0)
(-0.0915747 -0.0343778 0)
(-0.0932306 -0.0309997 0)
(-0.0947152 -0.0275441 0)
(-0.0960238 -0.0240185 0)
(-0.0971528 -0.020431 0)
(-0.0980993 -0.0167893 0)