/*--------------------------------*- C++ -*----------------------------------*\
  =========                 |
  \\      /  F ield         | OpenFOAM: The Open Source CFD Toolbox
   \\    /   O peration     | Website:  https://openfoam.org
    \\  /    A nd           | Version:  8
     \\/     M anipulation  |
\*---------------------------------------------------------------------------*/
FoamFile
{
    version     2.0;
    format      ascii;
    class       volScalarField;
    location    "0.15/fluid";
    object      CH4;
}
// * * * * * * * * * * * * * * * * * * * * * * * * * * * * * * * * * * * * * //

dimensions      [0 0 0 0 0 0 0];

internalField   nonuniform List<scalar> 
4000
(
0.999997
0.999986
0.999969
0.99994
0.999893
0.999817
0.999695
0.999498
0.999187
0.998697
0.997935
0.996768
0.995006
0.992398
0.98862
0.983282
0.97595
0.966189
0.953613
0.937957
0.91908
0.897008
0.871937
0.844161
0.814051
0.781993
0.748405
0.713684
0.678311
0.64263
0.606958
0.571583
0.536753
0.502682
0.469543
0.437475
0.406588
0.376966
0.348664
0.321715
0.296134
0.271917
0.249047
0.227497
0.207229
0.188202
0.170369
0.153677
0.138074
0.123504
0.109912
0.0972455
0.0854516
0.0744808
0.0642867
0.0548273
0.0460667
0.0379772
0.0305952
0.0239841
0.0178664
0.0124952
0.0080032
0.00463435
0.00264399
0.00147631
0.00080196
0.000421411
0.000212941
0.00010278
4.70842e-05
2.03285e-05
8.24316e-06
3.23886e-06
1.52541e-06
1.03462e-06
7.99599e-07
6.04018e-07
4.34602e-07
2.95009e-07
1.87556e-07
1.11352e-07
6.1938e-08
3.26001e-08
1.66303e-08
8.31669e-09
4.11733e-09
2.03456e-09
1.01046e-09
5.07328e-10
2.58761e-10
1.35127e-10
7.23294e-11
3.2813e-11
1.2714e-11
4.96788e-12
1.9201e-12
7.14064e-13
2.34269e-13
4.07397e-14
0.999997
0.999986
0.999969
0.99994
0.999892
0.999815
0.99969
0.999491
0.999174
0.998676
0.997905
0.996724
0.994949
0.992328
0.988544
0.983214
0.975915
0.966216
0.953733
0.938186
0.919459
0.89756
0.872693
0.845088
0.815094
0.783115
0.749667
0.715163
0.67989
0.644231
0.608528
0.573083
0.538158
0.503972
0.470707
0.438508
0.407488
0.377733
0.349302
0.322231
0.296534
0.272211
0.249239
0.227594
0.207245
0.188147
0.17025
0.153503
0.137852
0.12324
0.109613
0.0969169
0.0850985
0.074108
0.0638986
0.0544283
0.0456611
0.0375699
0.0302118
0.0236146
0.017517
0.0121811
0.00774834
0.00447758
0.00254834
0.00141849
0.000767588
0.000401461
0.000201703
9.66773e-05
4.39242e-05
1.8781e-05
7.54411e-06
2.97878e-06
1.49538e-06
1.04476e-06
8.00501e-07
5.95852e-07
4.22292e-07
2.82348e-07
1.7698e-07
1.03876e-07
5.73756e-08
3.01808e-08
1.54443e-08
7.76809e-09
3.87401e-09
1.92971e-09
9.65994e-10
4.88538e-10
2.51044e-10
1.32596e-10
7.14795e-11
2.92581e-11
1.16928e-11
4.60525e-12
1.78699e-12
6.67711e-13
2.19742e-13
3.82525e-14
0.999997
0.999986
0.999968
0.999939
0.99989
0.999812
0.999685
0.999482
0.99916
0.998655
0.997873
0.996681
0.994892
0.99226
0.98847
0.983146
0.975868
0.966212
0.953808
0.938382
0.919811
0.89811
0.873382
0.845934
0.816176
0.784508
0.751241
0.716792
0.68156
0.645915
0.610196
0.574704
0.539703
0.505418
0.472035
0.439703
0.40854
0.378636
0.350055
0.322834
0.296988
0.272515
0.249409
0.227648
0.20719
0.187991
0.170004
0.153175
0.137451
0.122777
0.109096
0.0963534
0.0844968
0.0734751
0.0632414
0.0537534
0.0449756
0.0368816
0.0295687
0.0229951
0.0169327
0.011658
0.00732629
0.00422124
0.00239281
0.00132521
0.000712734
0.000370046
0.000184295
8.74226e-05
3.92443e-05
1.6553e-05
6.57134e-06
2.63083e-06
1.42819e-06
1.03422e-06
7.8696e-07
5.78473e-07
4.04776e-07
2.67418e-07
1.65955e-07
9.67359e-08
5.32565e-08
2.80229e-08
1.43747e-08
7.25782e-09
3.63683e-09
1.8213e-09
9.16825e-10
4.6612e-10
2.40701e-10
1.28065e-10
6.72439e-11
2.70217e-11
1.0692e-11
4.20764e-12
1.63784e-12
6.12195e-13
2.01437e-13
3.5079e-14
0.999997
0.999986
0.999968
0.999938
0.999889
0.999809
0.999681
0.999476
0.999152
0.998644
0.997858
0.996661
0.994867
0.992232
0.988444
0.983133
0.975884
0.966284
0.953962
0.938642
0.920175
0.898601
0.874078
0.846876
0.81728
0.785684
0.752493
0.71811
0.682923
0.647298
0.611572
0.576048
0.540989
0.506624
0.473141
0.440694
0.409403
0.379361
0.350633
0.32326
0.297269
0.272667
0.249441
0.227559
0.206987
0.187683
0.1696
0.152685
0.136885
0.122144
0.108406
0.0956152
0.0837189
0.0726658
0.0624084
0.052904
0.0441167
0.03602
0.0287683
0.022228
0.0162127
0.0110168
0.00681221
0.0039117
0.00220691
0.00121501
0.000648779
0.000333962
0.000164633
7.7183e-05
3.41801e-05
1.42046e-05
5.58268e-06
2.30479e-06
1.3497e-06
1.0039e-06
7.59117e-07
5.52073e-07
3.81764e-07
2.49184e-07
1.52915e-07
8.83266e-08
4.83292e-08
2.5389e-08
1.3037e-08
6.60301e-09
3.32424e-09
1.67457e-09
8.48819e-10
4.34803e-10
2.26202e-10
1.21689e-10
6.08435e-11
2.39799e-11
9.47547e-12
3.74881e-12
1.46046e-12
5.47009e-13
1.80324e-13
3.14269e-14
0.999997
0.999986
0.999967
0.999937
0.999888
0.999808
0.999679
0.999473
0.999146
0.998636
0.997847
0.996647
0.994851
0.992216
0.988432
0.98313
0.975902
0.966338
0.954072
0.938834
0.920486
0.899036
0.874627
0.847511
0.818015
0.786514
0.753405
0.719084
0.683939
0.648333
0.612602
0.577049
0.541941
0.507506
0.473935
0.441382
0.409971
0.379801
0.350948
0.323459
0.297356
0.272639
0.249294
0.2273
0.206623
0.187222
0.16905
0.152057
0.136187
0.121385
0.107596
0.0947637
0.0828348
0.071758
0.0614858
0.0519755
0.0431914
0.0351072
0.0279217
0.0213975
0.0154309
0.0103235
0.00626042
0.00358259
0.00201154
0.00110071
0.0005834
0.00029765
0.000145187
6.7247e-05
2.93693e-05
1.20289e-05
4.70118e-06
2.0462e-06
1.28583e-06
9.70347e-07
7.28506e-07
5.24621e-07
3.5894e-07
2.31812e-07
1.40906e-07
8.07899e-08
4.39971e-08
2.30915e-08
1.18709e-08
6.02896e-09
3.04726e-09
1.5424e-09
7.8613e-10
4.05489e-10
2.13437e-10
1.15198e-10
5.31129e-11
2.09734e-11
8.37475e-12
3.31699e-12
1.29563e-12
4.86061e-13
1.60384e-13
2.7963e-14
0.999997
0.999986
0.999967
0.999937
0.999887
0.999807
0.999677
0.99947
0.999143
0.998631
0.997842
0.996641
0.994845
0.992212
0.988433
0.983143
0.975935
0.966401
0.954178
0.938994
0.920713
0.899337
0.875006
0.847968
0.818547
0.787113
0.754058
0.719777
0.684655
0.649054
0.61331
0.577723
0.542562
0.508056
0.4744
0.441755
0.410251
0.37999
0.351043
0.323453
0.297242
0.272418
0.248971
0.22688
0.206113
0.186629
0.168382
0.151322
0.135394
0.120543
0.106713
0.0938495
0.081898
0.0708079
0.0605322
0.0510294
0.0422657
0.0342189
0.0270949
0.0204699
0.0146041
0.00961363
0.0057083
0.00325859
0.00182221
0.000991641
0.000521956
0.000264057
0.000127492
5.83648e-05
2.5152e-05
1.01653e-05
3.97314e-06
1.8516e-06
1.23461e-06
9.37809e-07
6.98815e-07
4.98426e-07
3.37463e-07
2.15645e-07
1.2981e-07
7.38399e-08
3.99876e-08
2.09504e-08
1.07742e-08
5.48356e-09
2.78139e-09
1.41426e-09
7.24578e-10
3.76176e-10
2.0014e-10
1.08991e-10
4.54143e-11
1.84522e-11
7.3962e-12
2.93701e-12
1.14853e-12
4.31232e-13
1.42378e-13
2.48303e-14
0.999997
0.999986
0.999967
0.999937
0.999887
0.999806
0.999676
0.999469
0.999141
0.998629
0.997838
0.996637
0.994842
0.992211
0.988437
0.983156
0.975964
0.966453
0.95426
0.939116
0.920881
0.899556
0.87528
0.848294
0.818922
0.787529
0.754505
0.720242
0.685122
0.649509
0.613737
0.578108
0.542894
0.508329
0.474611
0.4419
0.410323
0.379978
0.350939
0.323255
0.296951
0.272037
0.248504
0.226333
0.205491
0.18594
0.167633
0.150519
0.134546
0.119657
0.105798
0.0929119
0.080946
0.0698493
0.0595748
0.0500812
0.0413353
0.0333398
0.0262574
0.0196627
0.0138624
0.00897464
0.00522301
0.00297487
0.00165716
0.000897083
0.000469046
0.000235365
0.000112531
5.09436e-05
2.16793e-05
8.66231e-06
3.41491e-06
1.73016e-06
1.20139e-06
9.10247e-07
6.71881e-07
4.74412e-07
3.17919e-07
2.01136e-07
1.20002e-07
6.77786e-08
3.65257e-08
1.91102e-08
9.83208e-09
5.01374e-09
2.55113e-09
1.3025e-09
6.70402e-10
3.49868e-10
1.87792e-10
1.00036e-10
4.09214e-11
1.64747e-11
6.57672e-12
2.60926e-12
1.02103e-12
3.83712e-13
1.2677e-13
2.21139e-14
0.999997
0.999986
0.999967
0.999936
0.999887
0.999806
0.999676
0.999468
0.99914
0.998627
0.997837
0.996635
0.994841
0.992212
0.988443
0.983169
0.975989
0.966494
0.954323
0.939206
0.921001
0.89971
0.875466
0.848511
0.819163
0.787788
0.754774
0.72051
0.68538
0.649747
0.613946
0.578285
0.543032
0.50842
0.474645
0.441866
0.410212
0.379788
0.350669
0.322905
0.296525
0.271537
0.247935
0.225698
0.204797
0.185193
0.166839
0.149685
0.133678
0.118763
0.104883
0.0919838
0.080011
0.0689136
0.0586447
0.0491632
0.0404362
0.0324994
0.0254545
0.0189184
0.0131994
0.00843032
0.0048593
0.00275636
0.00152769
0.000822014
0.000426757
0.000212372
0.000100576
4.5042e-05
1.89406e-05
7.49254e-06
2.98932e-06
1.61447e-06
1.1607e-06
8.78936e-07
6.44627e-07
4.51575e-07
2.99981e-07
1.88119e-07
1.11339e-07
6.24794e-08
3.35169e-08
1.75138e-08
9.01399e-09
4.60449e-09
2.34971e-09
1.20446e-09
6.22829e-10
3.26602e-10
1.76859e-10
9.1139e-11
3.66202e-11
1.46529e-11
5.84924e-12
2.32621e-12
9.12097e-13
3.43208e-13
1.13463e-13
1.97971e-14
0.999997
0.999985
0.999967
0.999936
0.999886
0.999805
0.999675
0.999467
0.999139
0.998626
0.997835
0.996635
0.994841
0.992214
0.988447
0.983178
0.976005
0.966521
0.954364
0.939263
0.921076
0.899803
0.875575
0.848634
0.819296
0.787926
0.754909
0.72064
0.685499
0.649847
0.614021
0.578324
0.543025
0.508358
0.474521
0.441677
0.409956
0.379465
0.350279
0.32245
0.296007
0.270959
0.247301
0.225014
0.204067
0.184422
0.166034
0.148851
0.132821
0.117889
0.103997
0.0910921
0.0791188
0.0680265
0.0577682
0.0483033
0.0395996
0.0317319
0.0247305
0.0182514
0.0126134
0.00796314
0.00457329
0.00258323
0.00142454
0.000762021
0.000392926
0.000193996
9.10627e-05
4.03736e-05
1.6794e-05
6.59239e-06
2.6813e-06
1.52892e-06
1.12398e-06
8.49093e-07
6.19001e-07
4.30521e-07
2.83761e-07
1.7656e-07
1.03765e-07
5.79056e-08
3.09459e-08
1.61561e-08
8.31926e-09
4.25649e-09
2.17768e-09
1.12022e-09
5.82048e-10
3.06865e-10
1.67175e-10
8.26224e-11
3.28003e-11
1.31271e-11
5.256e-12
2.09376e-12
8.21704e-13
3.0936e-13
1.02302e-13
1.78514e-14
0.999997
0.999985
0.999967
0.999936
0.999886
0.999805
0.999675
0.999467
0.999138
0.998625
0.997834
0.996634
0.994841
0.992214
0.98845
0.983184
0.976015
0.966536
0.954386
0.939293
0.921115
0.899851
0.875631
0.848696
0.81936
0.787988
0.754965
0.720682
0.68552
0.64984
0.613977
0.578236
0.542889
0.50817
0.474279
0.441379
0.409602
0.379054
0.349813
0.321931
0.295436
0.270341
0.24664
0.224314
0.203333
0.183658
0.165245
0.148043
0.131998
0.117056
0.103161
0.0902554
0.0782869
0.067204
0.05696
0.0475144
0.038836
0.0310412
0.024082
0.0176568
0.0120942
0.00755286
0.00432726
0.00243604
0.0013377
0.000711948
0.00036492
0.000178909
8.33206e-05
3.66113e-05
1.50853e-05
5.8926e-06
2.46301e-06
1.4711e-06
1.09544e-06
8.2421e-07
5.97133e-07
4.12416e-07
2.6982e-07
1.66665e-07
9.73144e-08
5.40268e-08
2.8781e-08
1.5013e-08
7.73309e-09
3.96189e-09
2.03138e-09
1.04803e-09
5.4718e-10
2.91073e-10
1.60938e-10
7.17143e-11
2.9361e-11
1.1857e-11
4.76641e-12
1.90161e-12
7.46733e-13
2.81212e-13
9.30065e-14
1.62297e-14
0.999997
0.999985
0.999967
0.999936
0.999886
0.999805
0.999674
0.999466
0.999137
0.998624
0.997833
0.996633
0.99484
0.992214
0.98845
0.983186
0.976019
0.966543
0.954397
0.939308
0.921133
0.89987
0.875651
0.848712
0.81937
0.787986
0.754946
0.72064
0.685449
0.649736
0.613836
0.578055
0.542664
0.5079
0.473961
0.441013
0.409188
0.378593
0.349307
0.321381
0.294847
0.269715
0.24598
0.223624
0.202618
0.182923
0.164493
0.147279
0.131227
0.116282
0.102387
0.0894862
0.0775261
0.0664554
0.0562274
0.0468022
0.0381493
0.0304274
0.0235072
0.0171313
0.0116368
0.0071928
0.00411285
0.00230878
0.00126326
0.000669397
0.000341334
0.000166321
7.69244e-05
3.35359e-05
1.37058e-05
5.3385e-06
2.30018e-06
1.42862e-06
1.07204e-06
8.03317e-07
5.78683e-07
3.97123e-07
2.58059e-07
1.58343e-07
9.19057e-08
5.07778e-08
2.69857e-08
1.40617e-08
7.24394e-09
3.71544e-09
1.90866e-09
9.8719e-10
5.16996e-10
2.77071e-10
1.53351e-10
6.49934e-11
2.67778e-11
1.08663e-11
4.37052e-12
1.74363e-12
6.84813e-13
2.57947e-13
8.53225e-14
1.48891e-14
0.999997
0.999985
0.999967
0.999936
0.999886
0.999805
0.999674
0.999466
0.999137
0.998623
0.997832
0.996631
0.994838
0.992212
0.988448
0.983183
0.976016
0.96654
0.954393
0.939303
0.921125
0.899858
0.875631
0.848683
0.819327
0.787925
0.754864
0.720534
0.685314
0.649569
0.613634
0.577816
0.542386
0.507581
0.473602
0.440612
0.408747
0.378113
0.34879
0.32083
0.294264
0.269103
0.245344
0.222967
0.201943
0.182234
0.163795
0.146575
0.13052
0.115576
0.101685
0.0887921
0.0768427
0.0657856
0.0555744
0.0461692
0.0375402
0.0298884
0.0230029
0.0166713
0.0112372
0.00687908
0.00392683
0.00219897
0.00119943
0.000633172
0.000321409
0.000155778
7.16146e-05
3.1008e-05
1.25858e-05
4.89985e-06
2.18576e-06
1.39946e-06
1.05387e-06
7.86234e-07
5.63313e-07
3.84297e-07
2.48193e-07
1.51382e-07
8.7399e-08
4.80799e-08
2.54973e-08
1.3273e-08
6.83797e-09
3.51047e-09
1.8063e-09
9.36214e-10
4.91626e-10
2.64743e-10
1.4505e-10
6.07798e-11
2.48774e-11
1.00589e-11
4.0407e-12
1.6121e-12
6.33432e-13
2.38687e-13
7.89695e-14
1.37814e-14
0.999997
0.999985
0.999967
0.999936
0.999886
0.999805
0.999674
0.999465
0.999136
0.998622
0.997831
0.996629
0.994836
0.992208
0.988443
0.983177
0.976008
0.96653
0.954379
0.939283
0.921099
0.899823
0.875586
0.848623
0.819251
0.78783
0.754746
0.72039
0.685143
0.649367
0.6134
0.577548
0.542083
0.507243
0.473228
0.440204
0.408306
0.37764
0.348287
0.3203
0.293709
0.268527
0.24475
0.222358
0.201323
0.181605
0.163161
0.145939
0.129886
0.114945
0.101062
0.0881781
0.0762406
0.0651978
0.0550032
0.045617
0.0370097
0.0294186
0.0225637
0.0162714
0.0108905
0.00660778
0.00376647
0.00210474
0.00114495
0.000602434
0.000304615
0.000146957
6.72079e-05
2.89283e-05
1.16725e-05
4.54324e-06
2.08459e-06
1.36977e-06
1.03487e-06
7.69875e-07
5.4941e-07
3.7309e-07
2.39761e-07
1.4552e-07
8.36424e-08
4.58462e-08
2.42694e-08
1.26234e-08
6.50343e-09
3.34134e-09
1.72168e-09
8.93984e-10
4.70532e-10
2.54451e-10
1.38033e-10
5.73269e-11
2.33245e-11
9.40372e-12
3.77409e-12
1.5057e-12
5.91755e-13
2.2302e-13
7.37921e-14
1.28781e-14
0.999997
0.999985
0.999967
0.999936
0.999886
0.999804
0.999673
0.999465
0.999136
0.998622
0.99783
0.996627
0.994833
0.992204
0.988438
0.983169
0.975997
0.966515
0.954358
0.939256
0.921063
0.899776
0.875525
0.848547
0.819157
0.787716
0.75461
0.720229
0.684955
0.649152
0.613155
0.577273
0.541778
0.506907
0.472862
0.43981
0.407884
0.377193
0.347816
0.319808
0.293199
0.268001
0.244211
0.221809
0.200766
0.181045
0.162599
0.145378
0.129329
0.114395
0.100519
0.0876466
0.075722
0.0646941
0.0545166
0.0451502
0.0365659
0.0290037
0.0221801
0.0159244
0.0105913
0.0063745
0.00362905
0.00202432
0.00109867
0.000576471
0.000290518
0.000139602
6.35607e-05
2.72212e-05
1.09307e-05
4.26003e-06
2.01074e-06
1.34732e-06
1.01934e-06
7.56172e-07
5.37677e-07
3.63629e-07
2.32672e-07
1.40625e-07
8.05277e-08
4.40058e-08
2.32618e-08
1.20914e-08
6.2297e-09
3.20302e-09
1.65258e-09
8.595e-10
4.53242e-10
2.46141e-10
1.31606e-10
5.41301e-11
2.19301e-11
8.83803e-12
3.55085e-12
1.41819e-12
5.57748e-13
2.1027e-13
6.95808e-14
1.21433e-14
0.999997
0.999985
0.999967
0.999936
0.999886
0.999804
0.999673
0.999464
0.999135
0.998621
0.997828
0.996625
0.99483
0.9922
0.988431
0.983161
0.975985
0.966497
0.954334
0.939224
0.921021
0.899723
0.875458
0.848465
0.819057
0.787597
0.754469
0.720066
0.684768
0.648939
0.612917
0.577009
0.541488
0.506592
0.472522
0.439446
0.407498
0.376787
0.347392
0.319368
0.292745
0.267536
0.243736
0.221328
0.200282
0.180559
0.162114
0.144896
0.128852
0.113926
0.10006
0.0871982
0.0752863
0.0642727
0.0541108
0.0447613
0.0361954
0.0286541
0.0218542
0.0156287
0.0103363
0.00617631
0.00351243
0.00195625
0.00105966
0.000554687
0.000278755
0.000133505
6.05582e-05
2.5827e-05
1.03316e-05
4.03745e-06
1.95927e-06
1.33301e-06
1.00843e-06
7.4582e-07
5.28443e-07
3.56017e-07
2.26909e-07
1.36634e-07
7.79907e-08
4.25106e-08
2.24449e-08
1.16607e-08
6.00807e-09
3.09082e-09
1.59639e-09
8.31419e-10
4.39108e-10
2.39222e-10
1.26361e-10
5.15806e-11
2.08396e-11
8.39643e-12
3.3751e-12
1.3486e-12
5.30512e-13
2.00019e-13
6.61899e-14
1.15514e-14
0.999997
0.999985
0.999967
0.999936
0.999885
0.999804
0.999673
0.999464
0.999134
0.99862
0.997827
0.996623
0.994827
0.992196
0.988425
0.983152
0.975972
0.96648
0.95431
0.939192
0.92098
0.89967
0.875392
0.848384
0.81896
0.787482
0.754336
0.719913
0.684594
0.648744
0.6127
0.57677
0.541227
0.506311
0.472221
0.439126
0.407161
0.376434
0.347025
0.318989
0.292356
0.267139
0.243334
0.220922
0.199874
0.180151
0.161709
0.144496
0.128458
0.113539
0.0996831
0.0868327
0.0749334
0.0639338
0.053787
0.0444531
0.0359021
0.0283734
0.0215779
0.0153745
0.0101173
0.00600732
0.00341332
0.00189869
0.00102687
0.0005365
0.000269005
0.00012849
5.81075e-05
2.46986e-05
9.85179e-06
3.86363e-06
1.92456e-06
1.3246e-06
1.00134e-06
7.38486e-07
5.21558e-07
3.50161e-07
2.22395e-07
1.33477e-07
7.59767e-08
4.13227e-08
2.17958e-08
1.13185e-08
5.832e-09
3.00164e-09
1.55172e-09
8.09125e-10
4.27861e-10
2.33756e-10
1.21928e-10
4.94882e-11
1.99587e-11
8.04486e-12
3.23602e-12
1.29362e-12
5.09006e-13
1.91931e-13
6.35159e-14
1.10848e-14
0.999997
0.999985
0.999967
0.999936
0.999885
0.999804
0.999673
0.999464
0.999134
0.998619
0.997826
0.996622
0.994824
0.992192
0.988419
0.983143
0.97596
0.966463
0.954288
0.939163
0.920942
0.899622
0.875333
0.848312
0.818874
0.787381
0.754219
0.719779
0.684443
0.648576
0.612514
0.576567
0.541007
0.506074
0.47197
0.43886
0.406882
0.376143
0.346724
0.318679
0.292039
0.266817
0.243008
0.220594
0.199546
0.179825
0.161385
0.144177
0.128145
0.113235
0.0993875
0.0865479
0.0746614
0.0636769
0.0535484
0.0442377
0.0357178
0.0282331
0.0212699
0.0151267
0.00991937
0.00586049
0.00332909
0.00185061
0.000999855
0.000521692
0.000261146
0.000124484
5.61663e-05
2.38122e-05
9.47879e-06
3.73209e-06
1.90152e-06
1.31925e-06
9.96468e-07
7.33261e-07
5.16539e-07
3.4581e-07
2.1899e-07
1.31072e-07
7.44327e-08
4.04092e-08
2.12957e-08
1.10546e-08
5.69609e-09
2.93268e-09
1.51697e-09
7.91623e-10
4.1903e-10
2.29357e-10
1.19012e-10
4.81234e-11
1.93666e-11
7.79606e-12
3.13392e-12
1.25245e-12
4.92759e-13
1.85799e-13
6.14856e-14
1.07304e-14
0.999997
0.999985
0.999967
0.999936
0.999885
0.999804
0.999673
0.999463
0.999133
0.998618
0.997825
0.99662
0.994822
0.992189
0.988415
0.983136
0.975951
0.96645
0.95427
0.939139
0.920911
0.899583
0.875285
0.848254
0.818805
0.7873
0.754126
0.719673
0.684324
0.648443
0.612368
0.576408
0.540836
0.505891
0.471775
0.438655
0.406667
0.375919
0.346493
0.318442
0.291798
0.266572
0.242761
0.220347
0.199299
0.17958
0.161143
0.143939
0.127913
0.113008
0.0991681
0.0863365
0.0744588
0.0634836
0.0533647
0.0440634
0.0355515
0.0280713
0.0211033
0.0149715
0.00978577
0.00575825
0.00326926
0.00181602
0.000980256
0.000510893
0.000255399
0.000121558
5.47496e-05
2.31659e-05
9.20586e-06
3.63113e-06
1.8724e-06
1.31013e-06
9.90877e-07
7.28809e-07
5.12761e-07
3.42665e-07
2.16547e-07
1.29339e-07
7.33122e-08
3.9742e-08
2.09292e-08
1.08608e-08
5.59616e-09
2.88201e-09
1.49171e-09
7.79284e-10
4.12973e-10
2.26444e-10
1.16081e-10
4.67929e-11
1.88509e-11
7.60141e-12
3.05866e-12
1.22281e-12
4.81124e-13
1.81404e-13
6.00271e-14
1.04755e-14
0.999997
0.999985
0.999967
0.999936
0.999885
0.999804
0.999672
0.999463
0.999133
0.998618
0.997824
0.996619
0.99482
0.992186
0.988411
0.983132
0.975944
0.96644
0.954257
0.939122
0.920889
0.899555
0.875251
0.848213
0.818756
0.787244
0.754061
0.719599
0.684241
0.648351
0.612268
0.576299
0.540719
0.505766
0.471642
0.438515
0.406521
0.375768
0.346338
0.318283
0.291636
0.266408
0.242596
0.220181
0.199134
0.179417
0.160982
0.143781
0.127758
0.112858
0.0990223
0.0861957
0.0743231
0.0633531
0.0532393
0.0439426
0.0354374
0.0279615
0.0209985
0.014875
0.00970219
0.00569391
0.00323144
0.00179403
0.000967739
0.000503969
0.000251703
0.000119673
5.38357e-05
2.27489e-05
9.02958e-06
3.56543e-06
1.85168e-06
1.30226e-06
9.85891e-07
7.25206e-07
5.10024e-07
3.40548e-07
2.14957e-07
1.28223e-07
7.25884e-08
3.93079e-08
2.06897e-08
1.07338e-08
5.53068e-09
2.84876e-09
1.47495e-09
7.70812e-10
4.08627e-10
2.24106e-10
1.14541e-10
4.60774e-11
1.85423e-11
7.47362e-12
3.00709e-12
1.20238e-12
4.7319e-13
1.78445e-13
5.9055e-14
1.03063e-14
0.999997
0.999985
0.999967
0.999936
0.999885
0.999804
0.999672
0.999463
0.999133
0.998618
0.997824
0.996619
0.99482
0.992185
0.98841
0.983129
0.97594
0.966436
0.954251
0.939113
0.920878
0.899542
0.875234
0.848193
0.818732
0.787215
0.754029
0.719563
0.6842
0.648306
0.612218
0.576245
0.54066
0.505703
0.471576
0.438446
0.406449
0.375694
0.346261
0.318204
0.291556
0.266327
0.242515
0.2201
0.199053
0.179336
0.160903
0.143703
0.127682
0.112783
0.0989503
0.086126
0.0742557
0.0632881
0.0531765
0.043882
0.0353805
0.0279072
0.0209473
0.0148283
0.00966183
0.0056629
0.00321321
0.00178343
0.000961698
0.000500625
0.000249916
0.000118762
5.33938e-05
2.25473e-05
8.94455e-06
3.53387e-06
1.84152e-06
1.2981e-06
9.83165e-07
7.23269e-07
5.08616e-07
3.39508e-07
2.14199e-07
1.27698e-07
7.22503e-08
3.91047e-08
2.05772e-08
1.0674e-08
5.49977e-09
2.83304e-09
1.46699e-09
7.66761e-10
4.06581e-10
2.23165e-10
1.13933e-10
4.57884e-11
1.84135e-11
7.4185e-12
2.98421e-12
1.1931e-12
4.6952e-13
1.77058e-13
5.85951e-14
1.0226e-14
0.999997
0.999985
0.999967
0.999936
0.999885
0.999804
0.999672
0.999463
0.999133
0.998618
0.997824
0.996619
0.99482
0.992185
0.98841
0.983129
0.97594
0.966436
0.954251
0.939113
0.920878
0.899542
0.875234
0.848193
0.818732
0.787216
0.754029
0.719563
0.684201
0.648306
0.612218
0.576245
0.540661
0.505704
0.471577
0.438446
0.406449
0.375694
0.346261
0.318204
0.291556
0.266327
0.242515
0.2201
0.199053
0.179336
0.160903
0.143703
0.127682
0.112784
0.0989504
0.0861261
0.0742559
0.0632882
0.0531766
0.0438821
0.0353806
0.0279073
0.0209474
0.0148283
0.00966188
0.00566293
0.00321323
0.00178344
0.000961706
0.000500629
0.000249918
0.000118763
5.33943e-05
2.25476e-05
8.94464e-06
3.53391e-06
1.84153e-06
1.29811e-06
9.83166e-07
7.23266e-07
5.08613e-07
3.39506e-07
2.14198e-07
1.27698e-07
7.22503e-08
3.91047e-08
2.05773e-08
1.06741e-08
5.49985e-09
2.83311e-09
1.46705e-09
7.66803e-10
4.06621e-10
2.23209e-10
1.13943e-10
4.5788e-11
1.84121e-11
7.41766e-12
2.98384e-12
1.19296e-12
4.69464e-13
1.77039e-13
5.8589e-14
1.02249e-14
0.999997
0.999985
0.999967
0.999936
0.999885
0.999804
0.999672
0.999463
0.999133
0.998618
0.997824
0.996619
0.994821
0.992186
0.988412
0.983132
0.975944
0.96644
0.954257
0.939122
0.920889
0.899555
0.875251
0.848213
0.818756
0.787244
0.754061
0.719599
0.684242
0.648352
0.612268
0.576299
0.540719
0.505766
0.471643
0.438516
0.406522
0.375769
0.346338
0.318283
0.291636
0.266409
0.242597
0.220182
0.199135
0.179417
0.160983
0.143781
0.127759
0.112858
0.0990227
0.0861961
0.0743235
0.0633535
0.0532396
0.0439428
0.0354376
0.0279617
0.0209987
0.0148752
0.00970233
0.00569401
0.0032315
0.00179407
0.000967761
0.000503982
0.00025171
0.000119677
5.38375e-05
2.27497e-05
9.02991e-06
3.56556e-06
1.85173e-06
1.30228e-06
9.85889e-07
7.25196e-07
5.10015e-07
3.40542e-07
2.14954e-07
1.28222e-07
7.25885e-08
3.93082e-08
2.06901e-08
1.07342e-08
5.53099e-09
2.84901e-09
1.47513e-09
7.70923e-10
4.08715e-10
2.24242e-10
1.1454e-10
4.60536e-11
1.8528e-11
7.46731e-12
3.00472e-12
1.20157e-12
4.72927e-13
1.78363e-13
5.90314e-14
1.03024e-14
0.999997
0.999985
0.999967
0.999936
0.999885
0.999804
0.999673
0.999463
0.999133
0.998618
0.997825
0.99662
0.994822
0.992189
0.988415
0.983137
0.975951
0.96645
0.95427
0.939139
0.920911
0.899583
0.875285
0.848254
0.818805
0.7873
0.754126
0.719673
0.684324
0.648443
0.612369
0.576408
0.540836
0.505891
0.471775
0.438655
0.406667
0.37592
0.346494
0.318443
0.291799
0.266573
0.242762
0.220348
0.1993
0.179581
0.161144
0.14394
0.127913
0.113009
0.0991687
0.0863371
0.0744593
0.0634841
0.0533653
0.0440639
0.0355521
0.0280718
0.0211038
0.0149719
0.00978604
0.00575841
0.00326935
0.00181606
0.00098028
0.000510906
0.000255406
0.000121562
5.47513e-05
2.31667e-05
9.20616e-06
3.63121e-06
1.87241e-06
1.31013e-06
9.90859e-07
7.28786e-07
5.12743e-07
3.42655e-07
2.16542e-07
1.29338e-07
7.33124e-08
3.97424e-08
2.09298e-08
1.08614e-08
5.5967e-09
2.88246e-09
1.4921e-09
7.79599e-10
4.1317e-10
2.26458e-10
1.15852e-10
4.66487e-11
1.87892e-11
7.57891e-12
3.05124e-12
1.22054e-12
4.80466e-13
1.8122e-13
5.9979e-14
1.0468e-14
0.999997
0.999985
0.999967
0.999936
0.999885
0.999804
0.999673
0.999464
0.999134
0.998619
0.997826
0.996622
0.994824
0.992192
0.98842
0.983144
0.975961
0.966464
0.954289
0.939163
0.920942
0.899622
0.875333
0.848313
0.818875
0.787382
0.75422
0.71978
0.684444
0.648576
0.612515
0.576568
0.541008
0.506075
0.471971
0.438861
0.406883
0.376144
0.346725
0.31868
0.29204
0.266818
0.243009
0.220595
0.199547
0.179826
0.161386
0.144178
0.128146
0.113236
0.0993884
0.0865488
0.0746623
0.0636777
0.0535491
0.0442384
0.0357185
0.0282337
0.0212705
0.0151272
0.00991975
0.00586077
0.00332924
0.0018507
0.0009999
0.000521714
0.000261157
0.000124489
5.61687e-05
2.38132e-05
9.47915e-06
3.73217e-06
1.90147e-06
1.31919e-06
9.96408e-07
7.33214e-07
5.16508e-07
3.45794e-07
2.18984e-07
1.31072e-07
7.44336e-08
4.04101e-08
2.12968e-08
1.10555e-08
5.69686e-09
2.9334e-09
1.51789e-09
7.92714e-10
4.19902e-10
2.29998e-10
1.18096e-10
4.76858e-11
1.92364e-11
7.76554e-12
3.12734e-12
1.25101e-12
4.92411e-13
1.85706e-13
6.14601e-14
1.07263e-14
0.999997
0.999985
0.999967
0.999936
0.999885
0.999804
0.999673
0.999464
0.999134
0.99862
0.997827
0.996624
0.994827
0.992196
0.988426
0.983152
0.975972
0.96648
0.954311
0.939193
0.92098
0.899671
0.875393
0.848385
0.818961
0.787483
0.754337
0.719913
0.684595
0.648745
0.612701
0.576771
0.541229
0.506312
0.472223
0.439128
0.407163
0.376435
0.347027
0.31899
0.292358
0.267141
0.243335
0.220923
0.199875
0.180153
0.16171
0.144497
0.128459
0.113541
0.0996843
0.0868338
0.0749346
0.0639349
0.053788
0.0444539
0.0359028
0.028374
0.0215784
0.015375
0.0101178
0.0060077
0.00341354
0.00189881
0.00102693
0.000536531
0.00026902
0.000128496
5.81102e-05
2.46997e-05
9.85219e-06
3.86372e-06
1.92447e-06
1.32447e-06
1.00123e-06
7.38413e-07
5.21517e-07
3.50143e-07
2.2239e-07
1.33478e-07
7.59786e-08
4.13245e-08
2.17975e-08
1.13199e-08
5.83312e-09
3.00256e-09
1.55252e-09
8.09836e-10
4.28485e-10
2.34435e-10
1.22046e-10
4.94755e-11
1.99516e-11
8.04166e-12
3.23473e-12
1.2931e-12
5.08806e-13
1.91857e-13
6.34919e-14
1.10807e-14
0.999997
0.999985
0.999967
0.999936
0.999886
0.999804
0.999673
0.999464
0.999135
0.998621
0.997828
0.996626
0.99483
0.9922
0.988432
0.983161
0.975985
0.966498
0.954335
0.939225
0.921022
0.899724
0.875459
0.848466
0.819058
0.787598
0.75447
0.720067
0.684769
0.648941
0.612919
0.57701
0.541489
0.506593
0.472524
0.439448
0.4075
0.376789
0.347394
0.31937
0.292747
0.267538
0.243738
0.22133
0.200283
0.18056
0.162115
0.144898
0.128854
0.113927
0.100061
0.0871995
0.0752876
0.0642739
0.054112
0.0447624
0.0361964
0.028655
0.0218551
0.0156294
0.0103368
0.00617673
0.00351266
0.00195637
0.00105972
0.000554714
0.000278767
0.00013351
6.05602e-05
2.58278e-05
1.03318e-05
4.03749e-06
1.95914e-06
1.33285e-06
1.0083e-06
7.45741e-07
5.28402e-07
3.56e-07
2.26906e-07
1.36636e-07
7.79938e-08
4.25132e-08
2.24472e-08
1.16626e-08
6.00956e-09
3.09199e-09
1.5973e-09
8.3211e-10
4.39661e-10
2.39854e-10
1.26503e-10
5.15795e-11
2.08148e-11
8.38157e-12
3.36864e-12
1.34616e-12
5.29661e-13
1.99739e-13
6.61068e-14
1.15377e-14
0.999997
0.999985
0.999967
0.999936
0.999886
0.999804
0.999673
0.999465
0.999136
0.998622
0.99783
0.996628
0.994833
0.992205
0.988438
0.98317
0.975998
0.966516
0.954359
0.939257
0.921064
0.899777
0.875527
0.848549
0.819158
0.787717
0.754611
0.720231
0.684957
0.649153
0.613157
0.577275
0.54178
0.506909
0.472865
0.439812
0.407886
0.377195
0.347819
0.31981
0.293201
0.268004
0.244213
0.221811
0.200768
0.181047
0.162601
0.14538
0.12933
0.114396
0.100521
0.0876481
0.0757234
0.0646954
0.0545179
0.0451514
0.036567
0.0290047
0.022181
0.0159252
0.0105919
0.00637494
0.0036293
0.00202445
0.00109874
0.000576503
0.000290533
0.000139609
6.35636e-05
2.72224e-05
1.09312e-05
4.26014e-06
2.01066e-06
1.34719e-06
1.01924e-06
7.56106e-07
5.37643e-07
3.63617e-07
2.32671e-07
1.40629e-07
8.05319e-08
4.4009e-08
2.32645e-08
1.20935e-08
6.23125e-09
3.20416e-09
1.65341e-09
8.60099e-10
4.53746e-10
2.46864e-10
1.31779e-10
5.41165e-11
2.18988e-11
8.8197e-12
3.54264e-12
1.41489e-12
5.565e-13
2.09822e-13
6.94388e-14
1.21191e-14
0.999997
0.999985
0.999967
0.999936
0.999886
0.999805
0.999674
0.999465
0.999136
0.998623
0.997831
0.99663
0.994836
0.992209
0.988444
0.983178
0.976009
0.966531
0.95438
0.939285
0.921101
0.899825
0.875587
0.848625
0.819252
0.787832
0.754748
0.720392
0.685145
0.64937
0.613402
0.57755
0.542086
0.507246
0.473231
0.440207
0.408308
0.377643
0.34829
0.320303
0.293712
0.26853
0.244752
0.22236
0.201325
0.181607
0.163163
0.145941
0.129888
0.114947
0.101063
0.0881797
0.0762421
0.0651992
0.0550045
0.0456183
0.0370108
0.0294196
0.0225647
0.0162721
0.0108912
0.00660825
0.00376673
0.00210488
0.00114502
0.000602469
0.000304632
0.000146964
6.72113e-05
2.89297e-05
1.1673e-05
4.5434e-06
2.08453e-06
1.36966e-06
1.03479e-06
7.69822e-07
5.49385e-07
3.73083e-07
2.39762e-07
1.45526e-07
8.36476e-08
4.58501e-08
2.42726e-08
1.26258e-08
6.50523e-09
3.34277e-09
1.72281e-09
8.94789e-10
4.7113e-10
2.5528e-10
1.37778e-10
5.70333e-11
2.31761e-11
9.34658e-12
3.75445e-12
1.49913e-12
5.8954e-13
2.22275e-13
7.3563e-14
1.28394e-14
0.999997
0.999985
0.999967
0.999936
0.999886
0.999805
0.999674
0.999466
0.999137
0.998624
0.997833
0.996631
0.994838
0.992212
0.988448
0.983184
0.976017
0.966542
0.954395
0.939304
0.921127
0.89986
0.875634
0.848685
0.819329
0.787928
0.754867
0.720536
0.685317
0.649572
0.613637
0.577819
0.542389
0.507584
0.473605
0.440616
0.40875
0.378117
0.348793
0.320833
0.294267
0.269107
0.245347
0.22297
0.201946
0.182237
0.163797
0.146577
0.130522
0.115578
0.101687
0.0887939
0.0768443
0.0657872
0.0555758
0.0461705
0.0375414
0.0298894
0.0230038
0.0166721
0.0112378
0.00687954
0.00392708
0.00219911
0.00119951
0.000633209
0.000321427
0.000155786
7.16186e-05
3.10098e-05
1.25865e-05
4.90008e-06
2.18575e-06
1.39938e-06
1.0538e-06
7.86192e-07
5.63292e-07
3.84292e-07
2.48196e-07
1.51389e-07
8.74053e-08
4.80846e-08
2.55012e-08
1.3276e-08
6.84008e-09
3.51198e-09
1.80738e-09
9.36962e-10
4.92172e-10
2.65418e-10
1.45054e-10
6.06348e-11
2.47741e-11
1.00082e-11
4.01954e-12
1.60399e-12