/*--------------------------------*- C++ -*----------------------------------*\
  =========                 |
  \\      /  F ield         | OpenFOAM: The Open Source CFD Toolbox
   \\    /   O peration     | Website:  https://openfoam.org
    \\  /    A nd           | Version:  8
     \\/     M anipulation  |
\*---------------------------------------------------------------------------*/
FoamFile
{
    version     2.0;
    format      ascii;
    class       volScalarField;
    location    "0.15/fluid";
    object      CO2;
}
// * * * * * * * * * * * * * * * * * * * * * * * * * * * * * * * * * * * * * //

dimensions      [0 0 0 0 0 0 0];

internalField   nonuniform List<scalar> 
4000
(
1.94963e-07
8.55438e-07
1.98121e-06
3.90295e-06
7.17779e-06
1.27356e-05
2.21111e-05
3.78047e-05
6.38274e-05
0.000106498
0.000175555
0.000285624
0.000457978
0.000722389
0.00111859
0.00169655
0.00251465
0.00363504
0.00511728
0.00700843
0.00934107
0.0121263
0.0153514
0.0189881
0.0229952
0.0273259
0.0319268
0.0367447
0.0417124
0.0467804
0.051901
0.0570302
0.0621283
0.0671605
0.0720972
0.0769137
0.0815893
0.0861077
0.0904561
0.0946257
0.0986106
0.102408
0.106016
0.109438
0.112675
0.11573
0.11861
0.12132
0.123865
0.126252
0.128486
0.130571
0.13251
0.134303
0.135943
0.137419
0.138707
0.139764
0.140516
0.140851
0.140606
0.139476
0.136982
0.132329
0.124669
0.115407
0.10538
0.0951012
0.0848899
0.074946
0.0654123
0.0563785
0.047908
0.0400716
0.032886
0.0261442
0.0201313
0.0149301
0.0105372
0.00701248
0.004368
0.0025399
0.00138429
0.000714835
0.00035859
0.000176793
8.64991e-05
4.2336e-05
2.08672e-05
1.04174e-05
5.29285e-06
2.75849e-06
1.47628e-06
6.71907e-07
2.60388e-07
1.01703e-07
3.92662e-08
1.4581e-08
4.77727e-09
8.30158e-10
1.97112e-07
8.65213e-07
2.0053e-06
3.9542e-06
7.2798e-06
1.29299e-05
2.24676e-05
3.84346e-05
6.48967e-05
0.000108234
0.000178239
0.000289539
0.000463292
0.000728963
0.0011257
0.00170261
0.00251687
0.00363003
0.00510091
0.00697841
0.00929174
0.0120541
0.0152518
0.018865
0.0228552
0.027174
0.0317545
0.0365413
0.0414939
0.0465575
0.0516814
0.0568195
0.0619304
0.0669784
0.0719327
0.0767679
0.0814628
0.0860005
0.0903679
0.0945557
0.098558
0.102371
0.105995
0.109431
0.11268
0.115747
0.118637
0.121355
0.123908
0.126302
0.128541
0.13063
0.132572
0.134365
0.136005
0.137477
0.138756
0.139799
0.140524
0.140821
0.140511
0.139277
0.136614
0.131681
0.123839
0.114456
0.104349
0.0940157
0.0837683
0.0738023
0.0642626
0.0552376
0.0467962
0.0390234
0.0319042
0.025269
0.019334
0.0141534
0.00985416
0.00646699
0.0039761
0.00228906
0.00124138
0.000642379
0.000324237
0.000161285
7.97347e-05
3.94495e-05
1.96477e-05
9.90121e-06
5.07757e-06
2.68061e-06
1.44747e-06
5.9386e-07
2.37695e-07
9.36558e-08
3.63269e-08
1.35629e-08
4.45952e-09
7.7587e-10
2.00534e-07
8.80452e-07
2.04152e-06
4.02774e-06
7.41883e-06
1.31813e-05
2.29062e-05
3.91745e-05
6.61017e-05
0.000110121
0.000181061
0.000293538
0.000468622
0.000735532
0.00113295
0.00170928
0.00252117
0.00362908
0.00509021
0.00695254
0.00924602
0.0119825
0.0151615
0.0187532
0.0227112
0.0269871
0.0315419
0.0363196
0.0412653
0.0463257
0.0514509
0.0565946
0.0617156
0.0667773
0.0717484
0.0766026
0.0813185
0.0858781
0.0902678
0.0944782
0.0985029
0.102339
0.105983
0.109436
0.112703
0.115786
0.11869
0.121421
0.123986
0.126389
0.128636
0.130731
0.132677
0.134472
0.13611
0.137575
0.138841
0.139858
0.140538
0.140769
0.140352
0.138945
0.136003
0.130609
0.12248
0.112917
0.102698
0.0923014
0.0820245
0.0720573
0.0625418
0.0535625
0.0451899
0.0375123
0.0304551
0.0239076
0.0181295
0.0131762
0.00910033
0.0059264
0.00362199
0.00207886
0.00112777
0.000585678
0.000297142
0.000148702
7.39931e-05
3.68556e-05
1.84783e-05
9.36909e-06
4.83169e-06
2.57109e-06
1.35345e-06
5.45269e-07
2.16077e-07
8.50824e-08
3.31142e-08
1.23676e-08
4.06571e-09
7.07651e-10
2.03305e-07
8.92552e-07
2.06928e-06
4.08155e-06
7.51528e-06
1.33459e-05
2.31768e-05
3.96039e-05
6.67597e-05
0.000111093
0.000182438
0.000295397
0.000470961
0.000738161
0.00113531
0.00171015
0.00251847
0.00361966
0.00507082
0.00691987
0.00919997
0.0119199
0.0150719
0.0186305
0.022566
0.0268311
0.0313745
0.0361424
0.041081
0.0461378
0.0512632
0.0564111
0.0615399
0.066613
0.0715984
0.0764695
0.0812042
0.0857844
0.0901962
0.0944292
0.0984756
0.102331
0.105994
0.109467
0.112752
0.115851
0.118771
0.121516
0.124092
0.126506
0.128761
0.130863
0.132813
0.134608
0.136242
0.137698
0.138946
0.139932
0.140557
0.140707
0.140159
0.138543
0.135264
0.129316
0.12085
0.111086
0.100753
0.0903032
0.0800165
0.0700783
0.0606211
0.0517267
0.0434683
0.0359264
0.0289708
0.0225822
0.0169869
0.0122346
0.00836687
0.00539407
0.00326653
0.00186169
0.00100585
0.000522565
0.000265889
0.000133697
6.69352e-05
3.35779e-05
1.69698e-05
8.67678e-06
4.511e-06
2.42872e-06
1.21886e-06
4.8149e-07
1.90505e-07
7.54144e-08
2.937e-08
1.09919e-08
3.62049e-09
6.30674e-10
2.05457e-07
9.01898e-07
2.09053e-06
4.1223e-06
7.58753e-06
1.34682e-05
2.33766e-05
3.99202e-05
6.72436e-05
0.000111804
0.000183433
0.000296695
0.000472502
0.000739739
0.00113649
0.00171033
0.00251631
0.00361325
0.00505759
0.00689638
0.00916131
0.0118652
0.0150021
0.0185491
0.0224709
0.0267228
0.0312547
0.0360135
0.040946
0.046
0.0511259
0.0562778
0.0614137
0.066497
0.0714955
0.0763823
0.0811347
0.0857339
0.0901643
0.0944151
0.0984792
0.102353
0.106036
0.109527
0.112828
0.115943
0.118877
0.121635
0.124222
0.126644
0.128907
0.131014
0.132966
0.134761
0.13639
0.137834
0.139059
0.14001
0.140575
0.140638
0.139949
0.13811
0.13447
0.127936
0.119124
0.10916
0.098724
0.0882363
0.0779589
0.0680715
0.0586953
0.0499091
0.0417903
0.0343942
0.027535
0.0213227
0.0159184
0.0113673
0.00770252
0.00492082
0.00295654
0.00167553
0.000902636
0.000469337
0.000239469
0.000120916
6.08494e-05
3.07021e-05
1.56152e-05
8.04564e-06
4.23508e-06
2.28845e-06
1.05991e-06
4.1931e-07
1.67666e-07
6.64331e-08
2.59409e-08
9.72445e-09
3.20612e-09
5.58716e-10
2.07004e-07
9.08573e-07
2.10549e-06
4.15042e-06
7.63617e-06
1.35481e-05
2.35027e-05
4.01119e-05
6.75236e-05
0.000112195
0.000183946
0.000297317
0.000473152
0.000740207
0.00113641
0.00170895
0.00251267
0.00360608
0.0050454
0.00687753
0.00913422
0.0118286
0.0149552
0.0184919
0.0224037
0.0266466
0.031171
0.0359244
0.0408537
0.0459071
0.0510351
0.0561921
0.061336
0.0664297
0.0714407
0.0763412
0.0811077
0.0857211
0.0901664
0.0944336
0.0985156
0.102407
0.106106
0.109612
0.112928
0.116056
0.119002
0.12177
0.124367
0.126797
0.129066
0.131176
0.133129
0.134921
0.136541
0.137971
0.139172
0.140084
0.14059
0.140565
0.13973
0.137662
0.13366
0.12655
0.117407
0.107261
0.0967388
0.0862293
0.0759756
0.066152
0.0568681
0.0481999
0.0402301
0.0329732
0.0261978
0.0201634
0.0149444
0.0105835
0.00710658
0.00449871
0.00268075
0.00150956
0.000809971
0.000421078
0.000215236
0.000109051
5.51334e-05
2.79714e-05
1.43119e-05
7.42741e-06
3.95426e-06
2.15853e-06
9.02348e-07
3.67558e-07
1.47543e-07
5.86176e-08
2.29158e-08
8.59753e-09
2.83628e-09
4.94398e-10
2.08159e-07
9.13541e-07
2.11657e-06
4.17106e-06
7.67152e-06
1.36055e-05
2.35922e-05
4.02462e-05
6.7717e-05
0.000112459
0.000184281
0.000297695
0.000473496
0.00074037
0.0011361
0.00170769
0.00250976
0.00360064
0.00503635
0.0068638
0.0091148
0.0118028
0.0149226
0.0184525
0.022358
0.0265956
0.0311161
0.0358673
0.0407965
0.0458521
0.0509844
0.0561476
0.0612994
0.0664021
0.0714227
0.0763339
0.0811123
0.0857394
0.0902003
0.0944829
0.0985795
0.102485
0.106198
0.109717
0.113045
0.116184
0.11914
0.121917
0.124521
0.126956
0.129229
0.131341
0.133293
0.13508
0.136692
0.138105
0.139281
0.140149
0.140593
0.14047
0.139484
0.137179
0.132803
0.125184
0.115753
0.105454
0.0948668
0.0843499
0.0741298
0.0643756
0.0551856
0.0466344
0.0388102
0.0316634
0.0250061
0.0191308
0.0140799
0.00989179
0.00658499
0.0041329
0.00244418
0.00136848
0.000731682
0.000380365
0.000194753
9.89735e-05
5.02456e-05
2.56175e-05
1.31772e-05
6.87835e-06
3.69628e-06
1.97541e-06
8.10911e-07
3.27284e-07
1.30834e-07
5.193e-08
2.03148e-08
7.62894e-09
2.51844e-09
4.39113e-10
2.09045e-07
9.17342e-07
2.12498e-06
4.18658e-06
7.69772e-06
1.36473e-05
2.36559e-05
4.03394e-05
6.78468e-05
0.000112629
0.000184487
0.000297913
0.000473665
0.00074037
0.0011357
0.00170654
0.00250742
0.00359652
0.00502981
0.00685419
0.00910161
0.0117857
0.0149015
0.0184278
0.0223304
0.0265659
0.0310855
0.0358372
0.0407684
0.0458272
0.050964
0.0561326
0.061291
0.0664014
0.0714318
0.0763543
0.0811458
0.0857859
0.0902593
0.0945546
0.0986636
0.102581
0.106305
0.109835
0.113172
0.116321
0.119284
0.122068
0.124677
0.127116
0.129391
0.131503
0.133453
0.135235
0.136836
0.138232
0.139379
0.1402
0.140577
0.140346
0.139189
0.136611
0.131786
0.123808
0.114172
0.103767
0.0931398
0.0826293
0.072452
0.0627681
0.0536692
0.0452284
0.0375341
0.0304877
0.0239592
0.0182246
0.0133234
0.00928949
0.00613367
0.0038186
0.00224221
0.00124853
0.000665221
0.000345744
0.000177268
9.03236e-05
4.60241e-05
2.35754e-05
1.21904e-05
6.39682e-06
3.46958e-06
1.79579e-06
7.24067e-07
2.90392e-07
1.16072e-07
4.61849e-08
1.81055e-08
6.80845e-09
2.24919e-09
3.92266e-10
2.09766e-07
9.20432e-07
2.1318e-06
4.19912e-06
7.71877e-06
1.36807e-05
2.37066e-05
4.0413e-05
6.79491e-05
0.000112764
0.00018465
0.000298088
0.000473812
0.000740408
0.00113551
0.00170593
0.0025061
0.00359415
0.00502604
0.00684871
0.00909421
0.0117764
0.0148904
0.0184153
0.022317
0.0265525
0.0310728
0.035826
0.0407596
0.0458219
0.0509632
0.0561381
0.0613044
0.0664246
0.0714652
0.0763983
0.0812003
0.0858512
0.0903354
0.0946413
0.0987606
0.102688
0.106421
0.10996
0.113305
0.11646
0.119429
0.122217
0.12483
0.127272
0.129547
0.131659
0.133605
0.13538
0.136971
0.138348
0.139467
0.140239
0.140549
0.14021
0.138882
0.136028
0.13075
0.1225
0.11271
0.102229
0.0915794
0.0810839
0.0709535
0.0613379
0.0523248
0.0439873
0.0364078
0.0294463
0.023037
0.0174304
0.0126639
0.00876769
0.00574564
0.00355064
0.00207141
0.00114777
0.000609683
0.000316844
0.000162649
8.30646e-05
4.2459e-05
2.18376e-05
1.13516e-05
5.99097e-06
3.27024e-06
1.62487e-06
6.47119e-07
2.5957e-07
1.04083e-07
4.14886e-08
1.62809e-08
6.12612e-09
2.02449e-09
3.53119e-10
2.10383e-07
9.23073e-07
2.13763e-06
4.20981e-06
7.7367e-06
1.37091e-05
2.37497e-05
4.0476e-05
6.80374e-05
0.000112882
0.0001848
0.000298262
0.000473988
0.000740535
0.00113552
0.00170573
0.00250556
0.00359314
0.00502442
0.00684638
0.00909114
0.0117726
0.0148862
0.018411
0.0223131
0.0265495
0.0310714
0.0358274
0.0407649
0.0458325
0.0509807
0.0561631
0.0613373
0.0664656
0.071515
0.0764572
0.0812684
0.0859286
0.090422
0.0947367
0.0988645
0.1028
0.10654
0.110085
0.113436
0.116597
0.11957
0.122361
0.124976
0.127419
0.129695
0.131804
0.133747
0.135515
0.137094
0.138454
0.139545
0.140272
0.140519
0.14008
0.138595
0.135491
0.129804
0.121319
0.1114
0.100859
0.0901955
0.0797182
0.0696336
0.060082
0.0511478
0.0429057
0.035425
0.02853
0.0222294
0.0167382
0.0120922
0.00831828
0.0054139
0.00332329
0.00192746
0.00106331
0.000563446
0.000292784
0.000150447
7.69811e-05
3.94549e-05
2.03609e-05
1.064e-05
5.66811e-06
3.14212e-06
1.40647e-06
5.77993e-07
2.3399e-07
9.422e-08
3.76197e-08
1.47731e-08
5.5608e-09
1.83803e-09
3.20615e-10
2.10933e-07
9.25432e-07
2.14284e-06
4.2194e-06
7.75284e-06
1.37348e-05
2.37892e-05
4.05345e-05
6.81216e-05
0.000112999
0.000184958
0.000298467
0.000474243
0.000740836
0.00113582
0.001706
0.00250575
0.00359321
0.00502436
0.00684623
0.00909102
0.0117728
0.014887
0.0184128
0.0223167
0.0265557
0.0310814
0.0358416
0.0407841
0.0458572
0.0510113
0.0562003
0.0613817
0.0665176
0.0715748
0.0765249
0.0813441
0.0860122
0.0905132
0.0948353
0.0989699
0.102912
0.106658
0.110208
0.113563
0.116727
0.119703
0.122497
0.125113
0.127556
0.129831
0.131938
0.133876
0.135637
0.137205
0.138549
0.139615
0.140301
0.140492
0.139964
0.13834
0.135015
0.128968
0.120278
0.110248
0.0996575
0.0889845
0.078526
0.0684841
0.0589907
0.0501277
0.0419714
0.0345751
0.0277304
0.0215275
0.0161391
0.0116
0.00793367
0.00513197
0.00313149
0.00180681
0.000992752
0.000525243
0.000272856
0.000140319
7.19201e-05
3.69488e-05
1.9123e-05
1.0027e-05
5.38354e-06
2.9888e-06
1.27222e-06
5.26127e-07
2.14104e-07
8.62706e-08
3.44484e-08
1.35312e-08
5.09484e-09
1.68434e-09
2.93823e-10
2.11436e-07
9.2759e-07
2.14762e-06
4.22824e-06
7.76782e-06
1.3759e-05
2.38266e-05
4.05911e-05
6.8205e-05
0.000113119
0.000185128
0.000298703
0.000474565
0.00074127
0.00113641
0.00170679
0.00250679
0.00359459
0.00502621
0.00684872
0.00909441
0.0117774
0.0148932
0.0184212
0.0223277
0.0265698
0.031099
0.0358635
0.0408109
0.0458893
0.0510494
0.0562446
0.0614326
0.0665752
0.0716394
0.0765965
0.0814225
0.0860972
0.0906046
0.0949326
0.0990727
0.103019
0.10677
0.110324
0.113683
0.116849
0.119827
0.122622
0.125238
0.127681
0.129954
0.132058
0.133992
0.135747
0.137305
0.138634
0.139678
0.140326
0.140468
0.139862
0.138117
0.134599
0.128238
0.119371
0.109247
0.0986151
0.0879362
0.077496
0.0674928
0.0580514
0.0492516
0.0411725
0.0338442
0.0270386
0.0209225
0.0156249
0.0111794
0.00760688
0.00489395
0.00297063
0.00170622
0.00093421
0.000493618
0.00025637
0.000131933
6.77226e-05
3.48646e-05
1.80891e-05
9.5134e-06
5.13377e-06
2.8228e-06
1.18824e-06
4.88217e-07
1.9796e-07
7.96669e-08
3.1814e-08
1.2503e-08
4.70996e-09
1.55757e-09
2.71735e-10
2.11899e-07
9.29582e-07
2.15205e-06
4.23646e-06
7.78186e-06
1.37818e-05
2.38626e-05
4.06463e-05
6.82883e-05
0.000113243
0.000185309
0.000298965
0.00047494
0.000741804
0.00113717
0.00170785
0.00250827
0.00359665
0.00502904
0.00685257
0.00909958
0.0117842
0.0149021
0.0184326
0.0223421
0.0265876
0.0311207
0.0358896
0.0408418
0.0459254
0.051091
0.056292
0.0614859
0.0666346
0.0717048
0.0766678
0.0814996
0.0861798
0.0906924
0.0950252
0.0991697
0.10312
0.106874
0.110431
0.113792
0.11696
0.119939
0.122734
0.12535
0.127792
0.130063
0.132165
0.134094
0.135843
0.137392
0.138707
0.139732
0.140348
0.140447
0.139774
0.137924
0.134239
0.127608
0.118589
0.108385
0.0977201
0.0870378
0.0766148
0.0666461
0.0572503
0.0485055
0.0404926
0.0332242
0.0264474
0.0204069
0.015188
0.0108234
0.00733162
0.00469458
0.00283668
0.00162292
0.000885931
0.000467592
0.000242811
0.000125033
6.42639e-05
3.31446e-05
1.7234e-05
9.08719e-06
4.92557e-06
2.68262e-06
1.11946e-06
4.57246e-07
1.84874e-07
7.43368e-08
2.96872e-08
1.16707e-08
4.39751e-09
1.45445e-09
2.53756e-10
2.12323e-07
9.31409e-07
2.15613e-06
4.24406e-06
7.79493e-06
1.38032e-05
2.38967e-05
4.06996e-05
6.837e-05
0.000113367
0.000185495
0.000299241
0.000475348
0.000742402
0.00113803
0.0017091
0.00251005
0.00359915
0.00503249
0.00685726
0.00910582
0.0117924
0.0149126
0.0184457
0.0223583
0.0266073
0.0311443
0.0359174
0.0408741
0.0459626
0.0511331
0.0563393
0.0615384
0.0666924
0.0717677
0.0767358
0.0815724
0.0862571
0.0907739
0.0951105
0.0992584
0.103212
0.106968
0.110527
0.113889
0.117058
0.120038
0.122833
0.125448
0.127889
0.130158
0.132257
0.134182
0.135925
0.137466
0.13877
0.139777
0.140368
0.14043
0.139699
0.137758
0.133931
0.127069
0.117922
0.107652
0.0969599
0.0862761
0.0758689
0.0659307
0.0565745
0.0478771
0.0399219
0.0327012
0.0259486
0.0199732
0.0148215
0.0105258
0.00710235
0.00452931
0.0027262
0.00155452
0.000846435
0.000446339
0.000231744
0.0001194
6.14396e-05
3.17414e-05
1.65362e-05
8.73783e-06
4.75728e-06
2.55525e-06
1.05616e-06
4.29528e-07
1.73593e-07
6.98793e-08
2.79402e-08
1.09926e-08
4.14362e-09
1.3707e-09
2.39155e-10
2.12705e-07
9.33052e-07
2.1598e-06
4.25095e-06
7.80683e-06
1.38229e-05
2.39283e-05
4.07495e-05
6.84476e-05
0.000113486
0.000185677
0.000299517
0.000475762
0.000743018
0.00113894
0.00171042
0.00251195
0.00360183
0.0050362
0.00686228
0.00911247
0.011801
0.0149235
0.0184593
0.0223748
0.0266271
0.0311677
0.0359447
0.0409055
0.0459983
0.0511733
0.0563839
0.0615875
0.0667459
0.0718256
0.0767978
0.0816383
0.0863267
0.0908468
0.0951864
0.0993369
0.103293
0.107051
0.110611
0.113974
0.117143
0.120123
0.122918
0.125532
0.127971
0.130238
0.132334
0.134256
0.135994
0.137528
0.138822
0.139814
0.140385
0.140415
0.139635
0.137618
0.133669
0.126614
0.117361
0.107036
0.0963227
0.0856392
0.0752464
0.0653345
0.0560117
0.0473543
0.0394471
0.0322607
0.0255427
0.019618
0.0145206
0.0102814
0.0069145
0.00439432
0.00263632
0.00149908
0.000814518
0.000429188
0.000222816
0.00011485
5.9153e-05
3.06022e-05
1.59688e-05
8.45277e-06
4.61748e-06
2.45099e-06
1.00546e-06
4.07793e-07
1.64783e-07
6.63729e-08
2.65527e-08
1.04502e-08
3.93977e-09
1.30335e-09
2.27407e-10
2.13036e-07
9.34484e-07
2.16301e-06
4.25698e-06
7.81731e-06
1.38403e-05
2.39565e-05
4.07943e-05
6.85181e-05
0.000113596
0.000185846
0.000299776
0.000476155
0.000743609
0.00113982
0.00171171
0.00251381
0.00360446
0.00503983
0.00686717
0.00911892
0.0118093
0.0149339
0.0184722
0.0223904
0.0266457
0.0311895
0.0359699
0.0409343
0.0460307
0.0512094
0.0564239
0.0616312
0.0667933
0.0718765
0.076852
0.0816957
0.0863869
0.0909096
0.0952515
0.0994039
0.103361
0.107121
0.110681
0.114045
0.117215
0.120194
0.122988
0.125601
0.128039
0.130304
0.132398
0.134316
0.136049
0.137577
0.138863
0.139844
0.140398
0.140403
0.139582
0.137502
0.13345
0.126236
0.116895
0.106528
0.0957987
0.0851171
0.0747375
0.064848
0.0555533
0.046929
0.0390618
0.0319002
0.0252188
0.0193342
0.0142798
0.0100858
0.00676419
0.00428649
0.00256468
0.00145502
0.000789209
0.000415602
0.000215746
0.000111245
5.73389e-05
2.96976e-05
1.55185e-05
8.22573e-06
4.50683e-06
2.36361e-06
9.64131e-07
3.90306e-07
1.57783e-07
6.36011e-08
2.54573e-08
1.00221e-08
3.77902e-09
1.25028e-09
2.18152e-10
2.13311e-07
9.35672e-07
2.16568e-06
4.26201e-06
7.82608e-06
1.3855e-05
2.39804e-05
4.08325e-05
6.85785e-05
0.00011369
0.000185993
0.000300002
0.000476501
0.000744134
0.00114061
0.00171286
0.00251548
0.00360682
0.00504308
0.00687156
0.00912467
0.0118166
0.0149432
0.0184835
0.022404
0.0266619
0.0312083
0.0359916
0.0409589
0.0460583
0.0512401
0.0564575
0.0616679
0.0668328
0.0719188
0.0768969
0.081743
0.0864364
0.090961
0.0953046
0.0994584
0.103417
0.107177
0.110738
0.114102
0.117272
0.120251
0.123044
0.125656
0.128093
0.130356
0.132447
0.134362
0.136092
0.137615
0.138893
0.139864
0.140406
0.140394
0.139541
0.13741
0.133276
0.125931
0.116522
0.106122
0.0953822
0.0847036
0.0743357
0.064465
0.0551932
0.0465958
0.0387612
0.0316174
0.0249661
0.0191136
0.0140931
0.00993425
0.00664792
0.00420319
0.00250942
0.00142107
0.000769731
0.000405149
0.000210304
0.000108469
5.59391e-05
2.89951e-05
1.51657e-05
8.04796e-06
4.41824e-06
2.30544e-06
9.36968e-07
3.78531e-07
1.52833e-07
6.1569e-08
2.4638e-08
9.69909e-09
3.65727e-09
1.21002e-09
2.11129e-10
2.13523e-07
9.36589e-07
2.16774e-06
4.2659e-06
7.83288e-06
1.38664e-05
2.3999e-05
4.08625e-05
6.8626e-05
0.000113765
0.00018611
0.000300184
0.00047678
0.000744557
0.00114124
0.0017138
0.00251683
0.00360873
0.00504573
0.00687511
0.00912933
0.0118226
0.0149506
0.0184926
0.0224149
0.0266748
0.0312233
0.0360087
0.0409783
0.04608
0.0512641
0.0564838
0.0616964
0.0668634
0.0719514
0.0769315
0.0817793
0.0864743
0.0910003
0.095345
0.0994997
0.103459
0.10722
0.110781
0.114145
0.117314
0.120293
0.123086
0.125697
0.128132
0.130394
0.132484
0.134397
0.136124
0.137643
0.138916
0.139881
0.140412
0.140386
0.139508
0.137338
0.133142
0.125702
0.116242
0.105819
0.0950714
0.0843954
0.0740374
0.064181
0.0549266
0.0463492
0.038538
0.0314108
0.0247812
0.018952
0.0139565
0.00982359
0.00656314
0.00414253
0.00246917
0.0013963
0.00075549
0.000397496
0.000206316
0.000106432
5.49129e-05
2.84856e-05
1.49172e-05
7.92569e-06
4.35917e-06
2.24751e-06
9.1051e-07
3.68239e-07
1.48948e-07
6.00689e-08
2.40482e-08
9.46797e-09
3.57011e-09
1.18114e-09
2.06085e-10
2.13667e-07
9.37207e-07
2.16913e-06
4.26854e-06
7.83749e-06
1.38741e-05
2.40117e-05
4.08829e-05
6.86586e-05
0.000113817
0.00018619
0.000300309
0.000476973
0.000744851
0.00114168
0.00171445
0.00251778
0.00361007
0.00504757
0.00687759
0.00913258
0.0118267
0.0149558
0.0184989
0.0224225
0.0266837
0.0312336
0.0360205
0.0409916
0.0460948
0.0512804
0.0565017
0.0617157
0.0668842
0.0719735
0.0769548
0.0818038
0.0864998
0.0910267
0.0953721
0.0995275
0.103487
0.107248
0.11081
0.114174
0.117343
0.120321
0.123113
0.125724
0.128159
0.13042
0.132508
0.13442
0.136145
0.137662
0.138932
0.139892
0.140417
0.14038
0.139486
0.137289
0.133052
0.12555
0.116057
0.105618
0.0948657
0.0841915
0.0738402
0.0639934
0.0547506
0.0461866
0.0383906
0.0312758
0.0246604
0.0188466
0.0138674
0.0097516
0.00650814
0.00410328
0.00244316
0.00138026
0.00074622
0.000392501
0.00020371
0.000105101
5.42411e-05
2.81481e-05
1.4747e-05
7.83855e-06
4.31248e-06
2.21699e-06
8.96348e-07
3.62126e-07
1.46412e-07
5.90437e-08
2.36419e-08
9.31029e-09
3.5114e-09
1.16188e-09
2.02736e-10
2.13737e-07
9.37512e-07
2.16981e-06
4.26982e-06
7.83974e-06
1.38779e-05
2.40178e-05
4.08928e-05
6.86743e-05
0.000113842
0.000186229
0.000300369
0.000477066
0.000744992
0.0011419
0.00171477
0.00251824
0.00361072
0.00504847
0.0068788
0.00913416
0.0118288
0.0149583
0.018502
0.0224262
0.0266881
0.0312387
0.0360263
0.0409982
0.0461022
0.0512886
0.0565105
0.0617253
0.0668945
0.0719845
0.0769664
0.0818159
0.0865124
0.0910397
0.0953855
0.0995412
0.103501
0.107262
0.110824
0.114188
0.117357
0.120335
0.123127
0.125738
0.128172
0.130432
0.13252
0.134431
0.136155
0.137671
0.13894
0.139897
0.140419
0.140376
0.139474
0.137265
0.133007
0.125475
0.115966
0.105519
0.0947643
0.0840911
0.0737432
0.0639013
0.0546644
0.0461071
0.0383188
0.0312103
0.024602
0.0187959
0.0138248
0.00971732
0.00648209
0.00408479
0.00243098
0.00137276
0.000741876
0.000390154
0.000202482
0.000104473
5.39233e-05
2.79877e-05
1.46654e-05
7.79732e-06
4.29336e-06
2.20476e-06
8.90573e-07
3.59558e-07
1.45313e-07
5.85878e-08
2.34572e-08
9.23733e-09
3.48388e-09
1.15277e-09
2.01146e-10
2.13735e-07
9.37504e-07
2.16979e-06
4.26979e-06
7.83968e-06
1.38778e-05
2.40177e-05
4.08925e-05
6.86739e-05
0.000113841
0.000186228
0.000300368
0.000477063
0.000744989
0.00114189
0.00171476
0.00251823
0.00361071
0.00504846
0.00687879
0.00913415
0.0118288
0.0149583
0.018502
0.0224262
0.026688
0.0312387
0.0360263
0.0409981
0.0461022
0.0512885
0.0565105
0.0617253
0.0668945
0.0719844
0.0769664
0.0818158
0.0865124
0.0910397
0.0953855
0.0995411
0.103501
0.107262
0.110824
0.114188
0.117357
0.120335
0.123127
0.125738
0.128172
0.130432
0.13252
0.134431
0.136155
0.137671
0.13894
0.139897
0.140419
0.140376
0.139474
0.137265
0.133007
0.125475
0.115966
0.105519
0.0947644
0.0840912
0.0737433
0.0639014
0.0546645
0.0461072
0.0383188
0.0312103
0.0246021
0.018796
0.0138248
0.00971735
0.00648212
0.00408481
0.00243099
0.00137276
0.000741878
0.000390156
0.000202483
0.000104474
5.39242e-05
2.79884e-05
1.4666e-05
7.79791e-06
4.29412e-06
2.20491e-06
8.90546e-07
3.59523e-07
1.45294e-07
5.85794e-08
2.3454e-08
9.23612e-09
3.48345e-09
1.15263e-09
2.01123e-10
2.13661e-07
9.37184e-07
2.16907e-06
4.26843e-06
7.83731e-06
1.38738e-05
2.40112e-05
4.0882e-05
6.86572e-05
0.000113815
0.000186187
0.000300304
0.000476965
0.00074484
0.00114167
0.00171443
0.00251775
0.00361004
0.00504753
0.00687755
0.00913253
0.0118267
0.0149557
0.0184989
0.0224224
0.0266836
0.0312335
0.0360204
0.0409915
0.0460948
0.0512804
0.0565016
0.0617156
0.0668841
0.0719734
0.0769547
0.0818036
0.0864997
0.0910265
0.095372
0.0995273
0.103487
0.107248
0.11081
0.114174
0.117343
0.120321
0.123113
0.125724
0.128159
0.13042
0.132508
0.13442
0.136145
0.137661
0.138932
0.139891
0.140416
0.140379
0.139486
0.137289
0.133052
0.12555
0.116058
0.105618
0.0948659
0.0841918
0.0738405
0.0639937
0.0547509
0.0461868
0.0383908
0.031276
0.0246606
0.0188467
0.0138675
0.00975169
0.0065082
0.00410332
0.00244319
0.00138027
0.000746226
0.000392506
0.000203714
0.000105105
5.4244e-05
2.81502e-05
1.47482e-05
7.83957e-06
4.31467e-06
2.21674e-06
8.95813e-07
3.61823e-07
1.4628e-07
5.8994e-08
2.36249e-08
9.30473e-09
3.50965e-09
1.16137e-09
2.02653e-10
2.13514e-07
9.36548e-07
2.16764e-06
4.26572e-06
7.83257e-06
1.38658e-05
2.39981e-05
4.0861e-05
6.86237e-05
0.000113762
0.000186104
0.000300175
0.000476767
0.000744539
0.00114122
0.00171377
0.00251679
0.00360868
0.00504566
0.00687504
0.00912924
0.0118225
0.0149505
0.0184925
0.0224148
0.0266746
0.0312232
0.0360086
0.0409781
0.0460799
0.0512639
0.0564836
0.0616962
0.0668632
0.0719512
0.0769313
0.081779
0.086474
0.091
0.0953447
0.0994995
0.103459
0.107219
0.110781
0.114145
0.117314
0.120293
0.123085
0.125697
0.128132
0.130394
0.132483
0.134397
0.136123
0.137642
0.138916
0.13988
0.140412
0.140386
0.139508
0.137338
0.133142
0.125702
0.116243
0.105819
0.0950718
0.0843958
0.0740378
0.0641814
0.054927
0.0463496
0.0385383
0.0314111
0.0247815
0.0189523
0.0139567
0.00982375
0.00656327
0.00414261
0.00246922
0.00139633
0.000755499
0.000397504
0.000206323
0.000106439
5.49187e-05
2.84909e-05
1.49217e-05
7.92842e-06
4.35883e-06
2.24278e-06
9.07608e-07
3.67001e-07
1.48493e-07
5.99172e-08
2.40013e-08
9.45422e-09
3.56622e-09
1.18011e-09
2.05925e-10
2.13299e-07
9.35616e-07
2.16555e-06
4.26176e-06
7.82564e-06
1.38542e-05
2.39791e-05
4.08304e-05
6.85751e-05
0.000113685
0.000185985
0.00029999
0.000476484
0.000744108
0.00114057
0.00171281
0.00251542
0.00360673
0.00504299
0.00687144
0.00912454
0.0118165
0.014943
0.0184833
0.0224039
0.0266617
0.0312082
0.0359914
0.0409587
0.0460581
0.0512399
0.0564573
0.0616676
0.0668325
0.0719185
0.0768966
0.0817427
0.0864361
0.0909607
0.0953042
0.099458
0.103416
0.107177
0.110738
0.114102
0.117271
0.12025
0.123043
0.125656
0.128092
0.130356
0.132447
0.134362
0.136092
0.137614
0.138893
0.139864
0.140405
0.140394
0.139541
0.13741
0.133277
0.125931
0.116522
0.106123
0.0953828
0.0847041
0.0743362
0.0644655
0.0551937
0.0465963
0.0387617
0.0316178
0.0249665
0.0191139
0.0140934
0.0099345
0.00664811
0.00420332
0.0025095
0.00142111
0.000769749
0.000405163
0.000210315
0.000108478
5.59489e-05
2.901e-05
1.51849e-05
8.06311e-06
4.42943e-06
2.28726e-06
9.28154e-07
3.75862e-07
1.52197e-07
6.14291e-08
2.46066e-08
9.69134e-09
3.65515e-09
1.20943e-09
2.11033e-10
2.1302e-07
9.34412e-07
2.16284e-06
4.25666e-06
7.81674e-06
1.38394e-05
2.39549e-05
4.07917e-05
6.85138e-05
0.000113589
0.000185835
0.00029976
0.000476131
0.000743575
0.00113978
0.00171164
0.00251373
0.00360435
0.0050397
0.00686702
0.00911873
0.0118091
0.0149337
0.0184719
0.0223901
0.0266455
0.0311892
0.0359696
0.040934
0.0460304
0.0512091
0.0564235
0.0616309
0.0667929
0.071876
0.0768516
0.0816952
0.0863865
0.0909092
0.095251
0.0994034
0.103361
0.10712
0.110681
0.114045
0.117214
0.120193
0.122987
0.125601
0.128039
0.130304
0.132397
0.134316
0.136049
0.137577
0.138863
0.139843
0.140397
0.140403
0.139582
0.137502
0.133451
0.126236
0.116896
0.106529
0.0957995
0.0851178
0.0747382
0.0648487
0.055554
0.0469296
0.0390624
0.0319008
0.0252193
0.0193347
0.0142803
0.0100861
0.00676444
0.00428667
0.00256479
0.00145508
0.000789238
0.000415624
0.000215763
0.000111259
5.73509e-05
2.9709e-05
1.55294e-05
8.2358e-06
4.51854e-06
2.36513e-06
9.63624e-07
3.90087e-07
1.57694e-07
6.35668e-08
2.54441e-08
1.00171e-08
3.77718e-09
1.24968e-09
2.18049e-10
2.12684e-07
9.32965e-07
2.1596e-06
4.25056e-06
7.80614e-06
1.38217e-05
2.39263e-05
4.07462e-05
6.84423e-05
0.000113478
0.000185664
0.000299497
0.000475733
0.000742976
0.00113888
0.00171034
0.00251185
0.00360169
0.00503603
0.00686207
0.00911223
0.0118007
0.0149232
0.018459
0.0223744
0.0266268
0.0311674
0.0359444
0.0409051
0.0459979
0.0511728
0.0563835
0.0615871
0.0667455
0.0718251
0.0767973
0.0816378
0.0863262
0.0908463
0.0951859
0.0993363
0.103292
0.10705
0.11061
0.113973
0.117143
0.120122
0.122917
0.125532
0.127971
0.130238
0.132334
0.134255
0.135993
0.137527
0.138821
0.139814
0.140384
0.140415
0.139635
0.137618
0.133669
0.126615
0.117361
0.107037
0.0963234
0.08564
0.0752472
0.0653353
0.0560125
0.047355
0.0394478
0.0322614
0.0255433
0.0196186
0.0145211
0.0102818
0.00691481
0.00439454
0.00263645
0.00149916
0.000814557
0.000429218
0.00022284
0.000114869
5.91681e-05
3.06145e-05
1.59786e-05
8.46105e-06
4.62814e-06
2.45301e-06
1.00525e-06
4.07246e-07
1.64465e-07
6.62347e-08
2.65002e-08
1.04317e-08
3.93362e-09
1.30151e-09
2.27101e-10
2.123e-07
9.31306e-07
2.15589e-06
4.24361e-06
7.79411e-06
1.38018e-05
2.38943e-05
4.06957e-05
6.83638e-05
0.000113357
0.000185479
0.000299218
0.000475313
0.000742351
0.00113796
0.001709
0.00250992
0.00359898
0.00503228
0.006857
0.00910552
0.011792
0.0149122
0.0184453
0.0223578
0.0266069
0.0311438
0.0359169
0.0408736
0.045962
0.0511326
0.0563387
0.0615378
0.0666918
0.0717671
0.0767351
0.0815717
0.0862564
0.0907732
0.0951098
0.0992577
0.103211
0.106968
0.110526
0.113889
0.117058
0.120037
0.122832
0.125448
0.127888
0.130157
0.132256
0.134181
0.135924
0.137465
0.138769
0.139776
0.140368
0.14043
0.139698
0.137758
0.133931
0.12707
0.117923
0.107653
0.0969607
0.086277
0.0758698
0.0659316
0.0565753
0.047878
0.0399227
0.0327019
0.0259494
0.0199739
0.0148221
0.0105262
0.0071027
0.00452955
0.00272636
0.00155461
0.000846478
0.00044637
0.000231768
0.000119417
6.14526e-05
3.17514e-05
1.65437e-05
8.74482e-06
4.76936e-06
2.55763e-06
1.0556e-06
4.28817e-07
1.73197e-07
6.97042e-08
2.78701e-08
1.0966e-08
4.13403e-09
1.36764e-09
2.3863e-10
2.11872e-07
9.29463e-07
2.15178e-06
4.23594e-06
7.78092e-06
1.37802e-05
2.38598e-05
4.06419e-05
6.82811e-05
0.000113232
0.000185291
0.000298938
0.0004749
0.000741745
0.00113708
0.00170773
0.00250812
0.00359645
0.00502878
0.00685226
0.00909922
0.0117838
0.0149017
0.0184321
0.0223415
0.0265871
0.0311202
0.0358891
0.0408412
0.0459248
0.0510903
0.0562913
0.0614852
0.0666339
0.071704
0.0766671
0.0814988
0.086179
0.0906916
0.0950244
0.0991689
0.10312
0.106873
0.11043
0.113791
0.116959
0.119938
0.122733
0.125349
0.127791
0.130062
0.132164
0.134093
0.135842
0.137391
0.138707
0.139731
0.140348
0.140447
0.139773
0.137924
0.134239
0.127608
0.11859
0.108386
0.0977211
0.0870388
0.0766158
0.0666471
0.0572513
0.0485064
0.0404935
0.033225
0.0264483
0.0204076
0.0151886
0.0108239
0.00733199
0.00469484
0.00283685
0.00162301
0.000885976
0.000467626
0.000242836
0.000125053
6.42809e-05
3.31593e-05
1.72446e-05
9.09535e-06
4.93933e-06
2.67683e-06
1.1135e-06
4.54245e-07
1.83707e-07
7.39316e-08
2.95505e-08
1.16242e-08
4.38174e-09
1.44957e-09
2.52928e-10
2.11405e-07
9.27455e-07
2.14732e-06
4.22764e-06
7.76675e-06
1.37571e-05
2.38235e-05
4.0586e-05
6.81968e-05
0.000113106
0.000185107
0.000298672
0.000474518