/*--------------------------------*- C++ -*----------------------------------*\
  =========                 |
  \\      /  F ield         | OpenFOAM: The Open Source CFD Toolbox
   \\    /   O peration     | Website:  https://openfoam.org
    \\  /    A nd           | Version:  8
     \\/     M anipulation  |
\*---------------------------------------------------------------------------*/
FoamFile
{
    version     2.0;
    format      ascii;
    class       volScalarField;
    location    "0.15/fluid";
    object      H2O;
}
// * * * * * * * * * * * * * * * * * * * * * * * * * * * * * * * * * * * * * //

dimensions      [0 0 0 0 0 0 0];

internalField   nonuniform List<scalar> 
4000
(
1.59615e-07
7.00339e-07
1.622e-06
3.19531e-06
5.8764e-06
1.04265e-05
1.81022e-05
3.09504e-05
5.22549e-05
8.71888e-05
0.000143725
0.000233838
0.000374942
0.000591413
0.000915779
0.00138895
0.00205872
0.00297597
0.00418947
0.00573774
0.00764745
0.00992768
0.0125681
0.0155454
0.018826
0.0223715
0.0261382
0.0300825
0.0341496
0.0382987
0.0424909
0.0466901
0.0508639
0.0549837
0.0590254
0.0629685
0.0667965
0.0704956
0.0740556
0.0774692
0.0807316
0.0838403
0.0867947
0.0895957
0.0922456
0.0947474
0.0971052
0.0993237
0.101408
0.103362
0.105191
0.106898
0.108485
0.109952
0.111295
0.112504
0.113558
0.114424
0.115039
0.115314
0.115113
0.114187
0.112146
0.108336
0.102065
0.0944825
0.0862735
0.0778585
0.0694986
0.0613577
0.0535525
0.0461566
0.0392218
0.0328063
0.0269235
0.0214041
0.0164813
0.0122231
0.00862675
0.00574105
0.00357604
0.0020794
0.00113331
0.000585229
0.000293575
0.000144739
7.08161e-05
3.46601e-05
1.70838e-05
8.5286e-06
4.33321e-06
2.25835e-06
1.20862e-06
5.50085e-07
2.13177e-07
8.32636e-08
3.21469e-08
1.19373e-08
3.91111e-09
6.79643e-10
1.61373e-07
7.08342e-07
1.64172e-06
3.23727e-06
5.95991e-06
1.05856e-05
1.8394e-05
3.14661e-05
5.31304e-05
8.86105e-05
0.000145923
0.000237043
0.000379293
0.000596795
0.000921603
0.00139391
0.00206054
0.00297187
0.00417607
0.00571316
0.00760707
0.0098686
0.0124865
0.0154446
0.0187113
0.0222471
0.0259971
0.029916
0.0339707
0.0381162
0.0423111
0.0465176
0.0507019
0.0548346
0.0588907
0.0628492
0.0666929
0.0704079
0.0739834
0.077412
0.0806886
0.0838105
0.0867775
0.0895901
0.09225
0.094761
0.097127
0.0993527
0.101443
0.103402
0.105235
0.106946
0.108535
0.110004
0.111346
0.112551
0.113599
0.114452
0.115046
0.115289
0.115035
0.114024
0.111845
0.107806
0.101386
0.0937044
0.0854294
0.0769698
0.0685804
0.0604213
0.0526112
0.0452226
0.0383117
0.0319481
0.0261197
0.0206875
0.0158286
0.0115872
0.00806751
0.00529447
0.0032552
0.00187404
0.00101631
0.00052591
0.00026545
0.000132043
6.52781e-05
3.22969e-05
1.60854e-05
8.10603e-06
4.15696e-06
2.19459e-06
1.18503e-06
4.86188e-07
1.94599e-07
7.66752e-08
2.97405e-08
1.11039e-08
3.65097e-09
6.35198e-10
1.64176e-07
7.20818e-07
1.67138e-06
3.29748e-06
6.07373e-06
1.07914e-05
1.87531e-05
3.20718e-05
5.41169e-05
9.01554e-05
0.000148233
0.000240317
0.000383657
0.000602173
0.000927534
0.00139937
0.00206406
0.00297109
0.00416731
0.00569199
0.00756964
0.00980998
0.0124126
0.0153531
0.0185935
0.0220941
0.0258231
0.0297346
0.0337835
0.0379265
0.0421224
0.0463335
0.050526
0.05467
0.0587397
0.0627139
0.0665747
0.0703076
0.0739015
0.0773484
0.0806435
0.0837837
0.0867672
0.0895945
0.0922687
0.0947927
0.0971705
0.0994067
0.101506
0.103473
0.105313
0.107029
0.108622
0.110091
0.111432
0.112631
0.113668
0.114501
0.115057
0.115246
0.114905
0.113753
0.111345
0.106929
0.100273
0.092444
0.084078
0.0755664
0.0671527
0.0589927
0.0512024
0.0438511
0.0369966
0.030711
0.0249333
0.0195729
0.0148424
0.0107872
0.00745036
0.00485189
0.00296529
0.00170195
0.000923299
0.000479489
0.000243268
0.000121741
6.05775e-05
3.01733e-05
1.5128e-05
7.67039e-06
3.95566e-06
2.10493e-06
1.10806e-06
4.46407e-07
1.769e-07
6.96562e-08
2.71103e-08
1.01253e-08
3.32856e-09
5.79347e-10
1.66444e-07
7.30724e-07
1.6941e-06
3.34153e-06
6.15269e-06
1.09262e-05
1.89746e-05
3.24234e-05
5.46556e-05
9.09505e-05
0.00014936
0.000241839
0.000385572
0.000604326
0.000929465
0.00140008
0.00206185
0.00296339
0.00415144
0.00566523
0.00753193
0.00975869
0.0123392
0.0152526
0.0184746
0.0219664
0.025686
0.0295894
0.0336326
0.0377726
0.0419687
0.0461832
0.0503822
0.0545355
0.058617
0.0626049
0.0664812
0.0702309
0.0738428
0.0773083
0.0806211
0.0837776
0.0867766
0.0896199
0.0923088
0.0948465
0.0972368
0.0994841
0.101593
0.103569
0.105416
0.107136
0.108733
0.110203
0.111541
0.112733
0.113754
0.114561
0.115072
0.115196
0.114747
0.113424
0.110739
0.10587
0.098939
0.0909448
0.0824857
0.0739304
0.0655088
0.0573725
0.04963
0.0423482
0.0355871
0.0294126
0.0237181
0.0184879
0.013907
0.0100163
0.00684988
0.00441608
0.00267428
0.00152415
0.000823479
0.000427819
0.000217681
0.000109457
5.47993e-05
2.74899e-05
1.3893e-05
7.10361e-06
3.69312e-06
1.98837e-06
9.97869e-07
3.94191e-07
1.55964e-07
6.17411e-08
2.4045e-08
8.99894e-09
2.96407e-09
5.16327e-10
1.68206e-07
7.38376e-07
1.7115e-06
3.37489e-06
6.21185e-06
1.10263e-05
1.91382e-05
3.26823e-05
5.50517e-05
9.15332e-05
0.000150175
0.000242902
0.000386833
0.000605617
0.000930438
0.00140023
0.00206008
0.00295814
0.0041406
0.00564601
0.00750029
0.00971397
0.0122821
0.015186
0.0183967
0.0218777
0.0255879
0.0294839
0.0335221
0.0376598
0.0418563
0.0460741
0.0502789
0.0544405
0.0585327
0.0625335
0.0664243
0.0701896
0.0738167
0.0772968
0.080624
0.0837956
0.0868106
0.0896685
0.0923712
0.0949216
0.0973234
0.0995811
0.101699
0.103683
0.105535
0.10726
0.108858
0.110328
0.111661
0.112843
0.113847
0.114625
0.115087
0.115139
0.114575
0.113069
0.110089
0.10474
0.0975255
0.089368
0.0808245
0.0722383
0.0638243
0.0557295
0.0480533
0.0408602
0.0342133
0.0281583
0.0225427
0.0174567
0.0130322
0.00930629
0.00630599
0.00402863
0.0024205
0.00137174
0.00073898
0.000384242
0.000196051
9.89932e-05
4.98169e-05
2.51355e-05
1.2784e-05
6.5869e-06
3.46722e-06
1.87354e-06
8.67737e-07
3.43286e-07
1.37267e-07
5.43882e-08
2.12376e-08
7.96132e-09
2.62482e-09
4.57416e-10
1.69472e-07
7.43841e-07
1.72375e-06
3.39791e-06
6.25166e-06
1.10917e-05
1.92414e-05
3.28392e-05
5.5281e-05
9.18528e-05
0.000150595
0.000243411
0.000387365
0.000606001
0.000930368
0.0013991
0.0020571
0.00295227
0.00413062
0.00563057
0.0074781
0.00968401
0.0122437
0.0151392
0.0183417
0.0218153
0.0255194
0.029411
0.0334466
0.0375837
0.041782
0.0460039
0.0502152
0.0543854
0.0584878
0.0624998
0.0664022
0.0701791
0.0738184
0.077312
0.0806538
0.0838396
0.0868678
0.0897383
0.0924529
0.0950142
0.097426
0.0996924
0.101818
0.103808
0.105665
0.107393
0.108991
0.110458
0.111785
0.112955
0.113939
0.114686
0.1151
0.115079
0.114396
0.112703
0.109426
0.103606
0.0961199
0.0878134
0.0791992
0.0705952
0.0622006
0.0541581
0.0465574
0.0394608
0.032936
0.0269949
0.0214479
0.0165076
0.0122349
0.00866459
0.0058181
0.00368305
0.0021947
0.00123587
0.000663116
0.000344733
0.000176212
8.9279e-05
4.51372e-05
2.28999e-05
1.1717e-05
6.08075e-06
3.23732e-06
1.76717e-06
7.38745e-07
3.00917e-07
1.20792e-07
4.79897e-08
1.8761e-08
7.03873e-09
2.32204e-09
4.0476e-10
1.70418e-07
7.47908e-07
1.73281e-06
3.41481e-06
6.2806e-06
1.11387e-05
1.93147e-05
3.29492e-05
5.54393e-05
9.20689e-05
0.000150869
0.00024372
0.000387647
0.000606135
0.000930114
0.00139807
0.00205472
0.00294781
0.00412322
0.00561933
0.00746221
0.00966285
0.012217
0.0151069
0.0183043
0.0217736
0.0254745
0.0293642
0.0333998
0.0375387
0.0417405
0.0459675
0.0501853
0.0543628
0.0584732
0.0624939
0.0664059
0.0701941
0.0738462
0.0773523
0.0807062
0.0839037
0.0869431
0.0898243
0.0925487
0.0951191
0.0975389
0.0998124
0.101944
0.103938
0.105799
0.107528
0.109126
0.110589
0.111908
0.113066
0.114028
0.114739
0.115102
0.115002
0.114194
0.112307
0.108725
0.102487
0.0947657
0.0863345
0.0776667
0.0690566
0.0606894
0.0527037
0.04518
0.0381792
0.0317736
0.0259225
0.0204723
0.0156622
0.0115271
0.00809832
0.00539107
0.00338356
0.00200103
0.00112036
0.000599022
0.000311402
0.000159443
8.10288e-05
4.11356e-05
2.09728e-05
1.07881e-05
5.63124e-06
3.02612e-06
1.61725e-06
6.63886e-07
2.67944e-07
1.07112e-07
4.25147e-08
1.66315e-08
6.24574e-09
2.06182e-09
3.59498e-10
1.71143e-07
7.5102e-07
1.7397e-06
3.42752e-06
6.30205e-06
1.11729e-05
1.93669e-05
3.30255e-05
5.55456e-05
9.22084e-05
0.000151038
0.000243899
0.000387785
0.000606135
0.000929785
0.00139713
0.0020528
0.00294444
0.00411786
0.00561147
0.00745141
0.00964885
0.0121998
0.0150867
0.0182817
0.0217493
0.0254494
0.0293396
0.0333767
0.0375183
0.0417238
0.0459553
0.0501784
0.0543622
0.0584806
0.0625106
0.0664333
0.0702321
0.0738945
0.077411
0.080775
0.0839823
0.087031
0.0899209
0.0926533
0.0952308
0.0976569
0.0999358
0.102072
0.104069
0.105931
0.107661
0.109257
0.110716
0.112027
0.113169
0.114109
0.11478
0.115089
0.1149
0.113953
0.111842
0.107892
0.101361
0.0934714
0.0849532
0.0762527
0.0676479
0.0593158
0.0513877
0.0439385
0.0370281
0.0307289
0.02496
0.0196152
0.0149203
0.0109078
0.00760522
0.00502158
0.00312625
0.00183568
0.00102216
0.000544611
0.000283058
0.000145127
7.39471e-05
3.76796e-05
1.9301e-05
9.9802e-06
5.23702e-06
2.84051e-06
1.4702e-06
5.92787e-07
2.37741e-07
9.50269e-08
3.78112e-08
1.48228e-08
5.57402e-09
1.84139e-09
3.21145e-10
1.71734e-07
7.53549e-07
1.74529e-06
3.43778e-06
6.31929e-06
1.12003e-05
1.94084e-05
3.30858e-05
5.56294e-05
9.23185e-05
0.000151171
0.000244042
0.000387906
0.000606165
0.000929628
0.00139663
0.00205172
0.0029425
0.00411478
0.00560698
0.00744535
0.0096412
0.0121907
0.0150764
0.0182708
0.0217383
0.025439
0.0293304
0.0333695
0.0375139
0.0417232
0.0459598
0.0501894
0.0543812
0.058508
0.0625467
0.0664779
0.0702856
0.0739568
0.077482
0.0808545
0.0840698
0.0871261
0.0900229
0.0927616
0.0953446
0.0977755
0.100058
0.102197
0.104196
0.106059
0.107788
0.109381
0.110835
0.112137
0.113265
0.114181
0.114813
0.115066
0.114789
0.113701
0.111365
0.107044
0.10029
0.0922745
0.0836942
0.0749753
0.0663827
0.058089
0.0502168
0.0428378
0.036012
0.0298068
0.0241074
0.0188602
0.0142701
0.0103678
0.00717803
0.00470391
0.00290688
0.00169584
0.000939672
0.000499142
0.000259397
0.000133159
6.80042e-05
3.47608e-05
1.78783e-05
9.29348e-06
4.90475e-06
2.67731e-06
1.33026e-06
5.29791e-07
2.12508e-07
8.52119e-08
3.39664e-08
1.33291e-08
5.0154e-09
1.65743e-09
2.89095e-10
1.72238e-07
7.55712e-07
1.75006e-06
3.44654e-06
6.33397e-06
1.12235e-05
1.94437e-05
3.31373e-05
5.57016e-05
9.24153e-05
0.000151294
0.000244185
0.00038805
0.00060627
0.00092964
0.00139647
0.00205128
0.00294168
0.00411345
0.00560507
0.00744284
0.00963814
0.0121872
0.0150729
0.0182675
0.0217358
0.0254379
0.0293316
0.0333739
0.0375226
0.0417375
0.0459802
0.0502163
0.0544148
0.0585487
0.0625948
0.0665337
0.070349
0.0740277
0.0775601
0.0809395
0.0841614
0.0872236
0.0901259
0.0928694
0.0954566
0.0978909
0.100176
0.102317
0.104317
0.10618
0.107907
0.109497
0.110945
0.112238
0.113351
0.114245
0.11484
0.115042
0.114682
0.113467
0.110926
0.10627
0.0993232
0.0912023
0.0825726
0.0738422
0.0652646
0.0570084
0.0491886
0.0418743
0.0351265
0.0290021
0.0233572
0.018199
0.0137034
0.00989976
0.0068101
0.00443231
0.00272075
0.001578
0.000870521
0.000461289
0.000239699
0.000123169
6.30237e-05
3.23014e-05
1.66693e-05
8.71085e-06
4.64043e-06
2.57243e-06
1.15147e-06
4.73198e-07
1.91566e-07
7.71371e-08
3.07989e-08
1.20946e-08
4.55258e-09
1.50478e-09
2.62484e-10
1.72689e-07
7.57643e-07
1.75433e-06
3.45439e-06
6.34718e-06
1.12446e-05
1.9476e-05
3.31853e-05
5.57706e-05
9.25113e-05
0.000151423
0.000244352
0.000388259
0.000606516
0.000929888
0.00139669
0.00205144
0.00294173
0.0041134
0.00560495
0.00744274
0.00963826
0.0121878
0.0150744
0.0182705
0.0217409
0.025446
0.0293432
0.0333896
0.0375429
0.0417625
0.0460107
0.0502526
0.0544573
0.0585976
0.0626503
0.0665957
0.0704174
0.0741024
0.0776408
0.0810258
0.0842529
0.0873198
0.0902262
0.0929733
0.0955635
0.0980002
0.100287
0.102429
0.104429
0.106291
0.108016
0.109603
0.111045
0.112329
0.113429
0.114302
0.114863
0.115019
0.114587
0.113258
0.110536
0.105585
0.0984704
0.0902591
0.0815887
0.0728508
0.0642886
0.0560673
0.0482952
0.0410391
0.0343616
0.0283063
0.0227026
0.0176244
0.013213
0.00949678
0.00649523
0.0042015
0.00256372
0.00147922
0.000812757
0.000430012
0.000223385
0.000114878
5.88803e-05
3.02496e-05
1.56558e-05
8.20899e-06
4.40745e-06
2.44691e-06
1.04155e-06
4.30736e-07
1.75285e-07
7.0629e-08
2.82026e-08
1.10779e-08
4.1711e-09
1.37896e-09
2.40551e-10
1.731e-07
7.5941e-07
1.75824e-06
3.46162e-06
6.35945e-06
1.12643e-05
1.95066e-05
3.32316e-05
5.58388e-05
9.26098e-05
0.000151562
0.000244545
0.000388522
0.000606872
0.000930371
0.00139733
0.00205229
0.00294286
0.00411491
0.00560699
0.00744551
0.00964204
0.012193
0.0150813
0.0182795
0.0217525
0.0254605
0.0293612
0.0334115
0.0375692
0.0417937
0.0460469
0.0502943
0.0545046
0.0586505
0.0627089
0.0666599
0.070487
0.0741772
0.0777205
0.08111
0.0843411
0.0874117
0.0903213
0.093071
0.0956632
0.0981013
0.100389
0.102531
0.104531
0.106392
0.108115
0.109698
0.111135
0.11241
0.113498
0.114353
0.114884
0.115
0.114504
0.113075
0.110195
0.104987
0.0977279
0.0894394
0.0807353
0.0719926
0.0634453
0.0552558
0.0475262
0.0403218
0.0337076
0.027708
0.0221363
0.0171291
0.012792
0.00915246
0.00622769
0.00400663
0.00243203
0.00139687
0.00076483
0.000404121
0.000209888
0.000108013
5.54439e-05
2.85434e-05
1.48094e-05
7.78854e-06
4.20297e-06
2.311e-06
9.72804e-07
3.99699e-07
1.62068e-07
6.52225e-08
2.60458e-08
1.02361e-08
3.856e-09
1.27516e-09
2.22467e-10
1.7348e-07
7.61041e-07
1.76187e-06
3.46835e-06
6.37094e-06
1.1283e-05
1.95361e-05
3.32768e-05
5.5907e-05
9.27111e-05
0.000151711
0.00024476
0.000388829
0.000607309
0.000930988
0.0013982
0.0020535
0.00294455
0.00411723
0.00561014
0.00744975
0.00964764
0.0122003
0.0150906
0.0182912
0.0217671
0.0254783
0.0293825
0.0334368
0.0375988
0.0418277
0.0460857
0.050338
0.0545532
0.0587041
0.0627673
0.066723
0.0705547
0.0742491
0.0777963
0.0811894
0.0844237
0.087497
0.0904088
0.0931604
0.0957539
0.0981929
0.100481
0.102623
0.104622
0.106481
0.108202
0.109782
0.111213
0.112481
0.113559
0.114397
0.114902
0.114983
0.114431
0.112917
0.1099
0.104471
0.0970879
0.0887342
0.0800026
0.0712571
0.0627238
0.0545626
0.0468703
0.039711
0.033151
0.0272003
0.0216523
0.016707
0.0124343
0.00886104
0.00600233
0.00384341
0.00232237
0.00132867
0.000725304
0.000382813
0.000198787
0.000102364
5.26123e-05
2.71352e-05
1.41093e-05
7.4396e-06
4.03252e-06
2.19624e-06
9.16489e-07
3.74344e-07
1.51354e-07
6.08589e-08
2.43047e-08
9.55471e-09
3.6002e-09
1.19074e-09
2.07747e-10
1.73827e-07
7.62537e-07
1.7652e-06
3.47458e-06
6.38164e-06
1.13006e-05
1.9564e-05
3.33204e-05
5.59739e-05
9.28125e-05
0.000151863
0.000244986
0.000389163
0.000607798
0.000931699
0.00139922
0.00205496
0.00294659
0.00412005
0.00561398
0.00745486
0.00965431
0.0122088
0.0151014
0.0183045
0.0217832
0.0254975
0.0294053
0.0334633
0.0376291
0.0418622
0.0461245
0.050381
0.0546005
0.0587556
0.0628229
0.0667826
0.0706179
0.0743158
0.0778661
0.081262
0.0844987
0.087574
0.0904875
0.0932402
0.0958345
0.0982739
0.100562
0.102703
0.104701
0.106559
0.108277
0.109854
0.111281
0.112542
0.11361
0.114434
0.114918
0.114969
0.11437
0.112782
0.109648
0.104031
0.096542
0.088134
0.0793802
0.0706335
0.0621132
0.0539769
0.046317
0.0391966
0.0326837
0.0267722
0.0212439
0.0163519
0.0121342
0.00861736
0.00581463
0.0037081
0.00223192
0.00127267
0.000692969
0.000365414
0.000189727
9.77514e-05
5.03e-05
2.59864e-05
1.3538e-05
7.15358e-06
3.89474e-06
2.09196e-06
8.64672e-07
3.51651e-07
1.42119e-07
5.72095e-08
2.28744e-08
8.99951e-09
3.39234e-09
1.12218e-09
1.95794e-10
1.74139e-07
7.63882e-07
1.76821e-06
3.48022e-06
6.39139e-06
1.13167e-05
1.95899e-05
3.33612e-05
5.60374e-05
9.29102e-05
0.000152012
0.000245212
0.000389502
0.000608302
0.000932443
0.00140031
0.00205652
0.00294879
0.00412309
0.00561809
0.0074603
0.00966135
0.0122177
0.0151125
0.018318
0.0217994
0.0255167
0.0294276
0.033489
0.0376584
0.0418951
0.046161
0.0504212
0.0546443
0.058803
0.0628737
0.0668366
0.0706749
0.0743755
0.0779283
0.0813262
0.0845648
0.0876415
0.0905561
0.0933095
0.0959043
0.0983436
0.100631
0.102772
0.104769
0.106625
0.108341
0.109914
0.111337
0.112593
0.113652
0.114465
0.114932
0.114957
0.114318
0.112667
0.109433
0.103658
0.096082
0.0876297
0.0788585
0.070112
0.0616036
0.0534888
0.0458563
0.0387685
0.032295
0.0264116
0.0209116
0.0160611
0.0118879
0.00841731
0.00566084
0.00359759
0.00215833
0.00122728
0.000666839
0.000351372
0.000182418
9.40267e-05
4.84281e-05
2.50537e-05
1.30735e-05
6.92021e-06
3.78029e-06
2.0066e-06
8.23159e-07
3.33857e-07
1.34906e-07
5.43389e-08
2.17385e-08
8.55545e-09
3.22545e-09
1.06704e-09
1.86176e-10
1.74411e-07
7.65054e-07
1.77084e-06
3.48515e-06
6.39997e-06
1.1331e-05
1.9613e-05
3.3398e-05
5.60951e-05
9.3e-05
0.00015215
0.000245424
0.000389824
0.000608786
0.000933163
0.00140136
0.00205804
0.00295094
0.00412606
0.0056221
0.00746558
0.00966815
0.0122263
0.015123
0.0183308
0.0218146
0.0255346
0.0294483
0.0335125
0.0376849
0.0419247
0.0461937
0.050457
0.0546831
0.0588446
0.0629181
0.0668835
0.0707242
0.0744269
0.0779816
0.0813811
0.0846209
0.0876987
0.0906139
0.0933678
0.0959626
0.0984017
0.100689
0.102829
0.104824
0.106679
0.108393
0.109963
0.111382
0.112633
0.113686
0.114489
0.114942
0.114947
0.114275
0.112572
0.109255
0.103348
0.095701
0.0872135
0.0784296
0.0696846
0.0611869
0.0530905
0.045481
0.0384203
0.0319795
0.0261164
0.0206464
0.0158287
0.0116908
0.00825715
0.00553778
0.00350931
0.00209968
0.00119121
0.000646118
0.00034025
0.000176629
9.10753e-05
4.69428e-05
2.43131e-05
1.27049e-05
6.73433e-06
3.6897e-06
1.93506e-06
7.89326e-07
3.1954e-07
1.29175e-07
5.20697e-08
2.08417e-08
8.20502e-09
3.09385e-09
1.02359e-09
1.78599e-10
1.74636e-07
7.66027e-07
1.77302e-06
3.48927e-06
6.40715e-06
1.1343e-05
1.96325e-05
3.34292e-05
5.61446e-05
9.30774e-05
0.000152271
0.000245609
0.000390108
0.000609216
0.000933805
0.00140231
0.0020594
0.00295287
0.00412873
0.00562568
0.00747029
0.00967419
0.0122338
0.0151323
0.018342
0.0218279
0.02555
0.029466
0.0335327
0.0377076
0.0419498
0.0462213
0.050487
0.0547155
0.0588793
0.0629549
0.0669223
0.0707648
0.074469
0.078025
0.0814257
0.0846664
0.0877448
0.0906605
0.0934145
0.0960093
0.0984481
0.100735
0.102874
0.104868
0.106721
0.108433
0.110001
0.111417
0.112664
0.113711
0.114506
0.114949
0.11494
0.114241
0.112496
0.109112
0.103099
0.0953954
0.0868812
0.0780886
0.0693461
0.060858
0.0527769
0.0451862
0.0381476
0.0317335
0.0258849
0.0204396
0.0156481
0.0115379
0.00813309
0.00544259
0.00344112
0.00205444
0.00116342
0.000630172
0.000331692
0.000172174
8.88025e-05
4.57968e-05
2.37381e-05
1.2416e-05
6.5888e-06
3.61717e-06
1.88744e-06
7.67088e-07
3.099e-07
1.25123e-07
5.0406e-08
2.0171e-08
7.94056e-09
2.99418e-09
9.90634e-10
1.7285e-10
1.7481e-07
7.66777e-07
1.77471e-06
3.49246e-06
6.41271e-06
1.13523e-05
1.96478e-05
3.34537e-05
5.61835e-05
9.31388e-05
0.000152366
0.000245758
0.000390336
0.000609562
0.000934324
0.00140307
0.00206051
0.00295444
0.00413089
0.00562859
0.0074741
0.00967906
0.0122399
0.0151397
0.0183509
0.0218384
0.0255622
0.02948
0.0335486
0.0377253
0.0419694
0.0462428
0.0505103
0.0547405
0.058906
0.0629831
0.066952
0.0707957
0.0745011
0.0780581
0.0814596
0.0847009
0.0877797
0.0906956
0.0934497
0.0960443
0.0984828
0.100769
0.102907
0.104901
0.106753
0.108463
0.11003
0.111443
0.112687
0.11373
0.114519
0.114954
0.114933
0.114214
0.112437
0.109002
0.102911
0.0951665
0.0866329
0.0778341
0.0690938
0.0606138
0.0525444
0.0449679
0.0379457
0.0315507
0.0257158
0.0202881
0.0155158
0.011426
0.00804248
0.00537319
0.00339145
0.00202149
0.00114314
0.000618513
0.000325426
0.000168909
8.71353e-05
4.49567e-05
2.33209e-05
1.22126e-05
6.4887e-06
3.56881e-06
1.84002e-06
7.45426e-07
3.01474e-07
1.21943e-07
4.91779e-08
1.96881e-08
7.75134e-09
2.92281e-09
9.66989e-10
1.6872e-10
1.74927e-07
7.67283e-07
1.77585e-06
3.49461e-06
6.41649e-06
1.13586e-05
1.96582e-05
3.34704e-05
5.62102e-05
9.31808e-05
0.000152432
0.00024586
0.000390493
0.000609803
0.000934685
0.00140361
0.00206128
0.00295553
0.0041324
0.00563062
0.00747676
0.00968245
0.0122442
0.0151449
0.0183571
0.0218457
0.0255707
0.0294897
0.0335595
0.0377374
0.0419829
0.0462574
0.0505261
0.0547575
0.0589241
0.0630023
0.066972
0.0708166
0.0745227
0.0780803
0.0814823
0.0847239
0.087803
0.090719
0.0934731
0.0960676
0.0985058
0.100792
0.102929
0.104922
0.106774
0.108483
0.110048
0.11146
0.112702
0.113743
0.114528
0.114958
0.114928
0.114196
0.112398
0.108928
0.102787
0.0950151
0.0864685
0.0776657
0.0689268
0.0604523
0.0523909
0.0448239
0.0378126
0.03143
0.0256052
0.0201892
0.0154296
0.0113531
0.00798355
0.00532815
0.00335932
0.0020002
0.00113001
0.000610924
0.000321337
0.000166775
8.60453e-05
4.44067e-05
2.30446e-05
1.20732e-05
6.41735e-06
3.53059e-06
1.81503e-06
7.33833e-07
2.9647e-07
1.19866e-07
4.83386e-08
1.93554e-08
7.62225e-09
2.87475e-09
9.51219e-10
1.65978e-10
1.74985e-07
7.67533e-07
1.7764e-06
3.49567e-06
6.41833e-06
1.13617e-05
1.96632e-05
3.34785e-05
5.6223e-05
9.32011e-05
0.000152464
0.00024591
0.000390569
0.000609918
0.00093486
0.00140386
0.00206166
0.00295606
0.00413314
0.00563161
0.00747806
0.00968412
0.0122462
0.0151474
0.0183602
0.0218493
0.0255749
0.0294945
0.0335648
0.0377435
0.0419895
0.0462647
0.050534
0.0547659
0.058933
0.0630117
0.066982
0.070827
0.0745334
0.0780913
0.0814935
0.0847353
0.0878145
0.0907306
0.0934846
0.0960791
0.0985172
0.100803
0.10294
0.104933
0.106784
0.108493
0.110058
0.111469
0.11271
0.113749
0.114532
0.114959
0.114925
0.114186
0.112378
0.108892
0.102725
0.0949405
0.0863875
0.0775827
0.0688446
0.0603729
0.0523155
0.0447533
0.0377475
0.0313712
0.0255516
0.0201415
0.0153881
0.0113182
0.00795549
0.00530683
0.00334418
0.00199022
0.00112387
0.000607368
0.000319416
0.00016577
8.55308e-05
4.41465e-05
2.29133e-05
1.20065e-05
6.3836e-06
3.51494e-06
1.80502e-06
7.29104e-07
2.94367e-07
1.18967e-07
4.79653e-08
1.92042e-08
7.56252e-09
2.85222e-09
9.4376e-10
1.64676e-10
1.74983e-07
7.67526e-07
1.77639e-06
3.49564e-06
6.41828e-06
1.13616e-05
1.96631e-05
3.34783e-05
5.62227e-05
9.32006e-05
0.000152463
0.000245908
0.000390568
0.000609916
0.000934856
0.00140386
0.00206165
0.00295605
0.00413313
0.0056316
0.00747805
0.0096841
0.0122462
0.0151474
0.0183601
0.0218493
0.0255748
0.0294944
0.0335648
0.0377434
0.0419895
0.0462647
0.0505339
0.0547659
0.058933
0.0630117
0.0669819
0.0708269
0.0745334
0.0780913
0.0814934
0.0847353
0.0878145
0.0907305
0.0934846
0.096079
0.0985171
0.100803
0.10294
0.104933
0.106784
0.108493
0.110058
0.111469
0.11271
0.113749
0.114532
0.114959
0.114925
0.114186
0.112378
0.108892
0.102725
0.0949406
0.0863876
0.0775828
0.0688447
0.060373
0.0523155
0.0447533
0.0377476
0.0313713
0.0255516
0.0201415
0.0153881
0.0113183
0.00795551
0.00530685
0.0033442
0.00199023
0.00112387
0.000607369
0.000319417
0.000165771
8.55317e-05
4.41473e-05
2.29139e-05
1.20069e-05
6.38408e-06
3.51556e-06
1.80514e-06
7.29082e-07
2.94338e-07
1.18951e-07
4.79584e-08
1.92016e-08
7.56153e-09
2.85187e-09
9.4365e-10
1.64658e-10
1.74923e-07
7.67264e-07
1.7758e-06
3.49453e-06
6.41633e-06
1.13584e-05
1.96577e-05
3.34697e-05
5.6209e-05
9.31791e-05
0.00015243
0.000245856
0.000390487
0.000609794
0.000934674
0.00140359
0.00206126
0.0029555
0.00413237
0.00563059
0.00747672
0.00968241
0.0122441
0.0151448
0.0183571
0.0218456
0.0255706
0.0294896
0.0335594
0.0377374
0.0419828
0.0462573
0.050526
0.0547574
0.058924
0.0630021
0.0669719
0.0708165
0.0745226
0.0780802
0.0814821
0.0847238
0.0878029
0.0907189
0.093473
0.0960675
0.0985057
0.100792
0.102929
0.104922
0.106773
0.108483
0.110048
0.11146
0.112702
0.113742
0.114528
0.114958
0.114927
0.114196
0.112398
0.108929
0.102787
0.0950153
0.0864688
0.0776659
0.0689271
0.0604525
0.0523911
0.044824
0.0378127
0.0314302
0.0256054
0.0201894
0.0154297
0.0113532
0.00798362
0.00532821
0.00335935
0.00200022
0.00113002
0.000610928
0.000321341
0.000166779
8.60482e-05
4.44091e-05
2.30463e-05
1.20742e-05
6.41819e-06
3.53238e-06
1.81483e-06
7.33395e-07
2.96221e-07
1.19758e-07
4.82979e-08
1.93415e-08
7.6177e-09
2.87332e-09
9.50804e-10
1.6591e-10
1.74802e-07
7.66744e-07
1.77463e-06
3.49231e-06
6.41245e-06
1.13518e-05
1.9647e-05
3.34525e-05
5.61816e-05
9.31357e-05
0.000152362
0.000245751
0.000390325
0.000609548
0.000934304
0.00140304
0.00206047
0.00295439
0.00413084
0.00562853
0.00747403
0.00967898
0.0122398
0.0151396
0.0183508
0.0218383
0.0255621
0.0294799
0.0335484
0.0377252
0.0419693
0.0462426
0.0505101
0.0547403
0.0589058
0.0629829
0.0669518
0.0707955
0.0745009
0.0780579
0.0814593
0.0847007
0.0877795
0.0906954
0.0934495
0.0960441
0.0984826
0.100769
0.102907
0.104901
0.106753
0.108463
0.110029
0.111443
0.112687
0.113729
0.114519
0.114954
0.114932
0.114214
0.112437
0.109002
0.102911
0.0951668
0.0866332
0.0778345
0.0690941
0.0606141
0.0525447
0.0449682
0.037946
0.031551
0.025716
0.0202884
0.0155161
0.0114262
0.00804262
0.00537329
0.00339152
0.00202153
0.00114316
0.00061852
0.000325433
0.000168915
8.71406e-05
4.49615e-05
2.33253e-05
1.22163e-05
6.49092e-06
3.56853e-06
1.83615e-06
7.43051e-07
3.0046e-07
1.2157e-07
4.90537e-08
1.96496e-08
7.74009e-09
2.91963e-09
9.66149e-10
1.68589e-10
1.74626e-07
7.65981e-07
1.77291e-06
3.48907e-06
6.40678e-06
1.13423e-05
1.96315e-05
3.34275e-05
5.61419e-05
9.30731e-05
0.000152264
0.000245599
0.000390093
0.000609195
0.000933775
0.00140227
0.00205935
0.0029528
0.00412865
0.00562559
0.00747018
0.00967407
0.0122337
0.0151321
0.0183418
0.0218277
0.0255498
0.0294658
0.0335325
0.0377074
0.0419496
0.0462211
0.0504867
0.0547152
0.058879
0.0629546
0.066922
0.0707645
0.0744687
0.0780247
0.0814254
0.0846661
0.0877445
0.0906602
0.0934142
0.096009
0.0984478
0.100735
0.102873
0.104868
0.106721
0.108433
0.110001
0.111417
0.112664
0.11371
0.114506
0.114949
0.114939
0.114241
0.112496
0.109112
0.103099
0.0953958
0.0868817
0.0780891
0.0693465
0.0608584
0.0527773
0.0451866
0.038148
0.0317338
0.0258852
0.0204399
0.0156484
0.0115381
0.00813329
0.00544275
0.00344122
0.00205451
0.00116345
0.000630187
0.000331703
0.000172183
8.881e-05
4.58048e-05
2.37503e-05
1.24317e-05
6.60119e-06
3.62633e-06
1.87256e-06
7.59872e-07
3.07715e-07
1.24602e-07
5.02914e-08
2.01452e-08
7.93421e-09
2.99244e-09
9.9015e-10
1.72771e-10
1.74397e-07
7.64995e-07
1.7707e-06
3.48489e-06
6.3995e-06
1.13302e-05
1.96117e-05
3.33958e-05
5.60916e-05
9.29944e-05
0.000152142
0.000245411
0.000389805
0.000608758
0.000933124
0.00140131
0.00205797
0.00295085
0.00412595
0.00562197
0.00746543
0.00966798
0.0122261
0.0151228
0.0183306
0.0218144
0.0255343
0.029448
0.0335123
0.0376847
0.0419245
0.0461934
0.0504567
0.0546828
0.0588443
0.0629177
0.0668832
0.0707239
0.0744265
0.0779812
0.0813807
0.0846205
0.0876983
0.0906135
0.0933674
0.0959622
0.0984014
0.100689
0.102828
0.104824
0.106679
0.108392
0.109963
0.111382
0.112633
0.113686
0.114488
0.114942
0.114947
0.114274
0.112572
0.109255
0.103348
0.0957015
0.0872141
0.0784302
0.0696852
0.0611875
0.0530911
0.0454816
0.0384208
0.03198
0.0261169
0.0206468
0.0158291
0.0116911
0.00825742
0.00553799
0.00350946
0.00209977
0.00119126
0.000646142
0.000340267
0.000176643
9.10866e-05
4.69527e-05
2.43225e-05
1.27138e-05
6.74258e-06
3.69929e-06
1.93631e-06
7.88911e-07
3.19361e-07
1.29103e-07
5.20416e-08
2.08309e-08
8.20092e-09
3.09235e-09
1.0231e-09
1.78515e-10
1.74123e-07
7.6381e-07
1.76805e-06
3.4799e-06
6.39082e-06
1.13157e-05
1.95883e-05
3.33585e-05
5.60331e-05
9.29034e-05
0.000152001
0.000245196
0.000389478
0.000608268
0.000932394
0.00140024
0.00205643
0.00294867
0.00412295
0.00561792
0.0074601
0.00966113
0.0122175
0.0151122
0.0183178
0.0217991
0.0255164
0.0294273
0.0334887
0.0376581
0.0418948
0.0461606
0.0504208
0.0546439
0.0588026
0.0628733
0.0668361
0.0706745
0.074375
0.0779278
0.0813258
0.0845643
0.0876411
0.0905556
0.093309
0.0959038
0.0983431
0.100631
0.102772
0.104768
0.106625
0.10834
0.109914
0.111337
0.112592
0.113652
0.114464
0.114932
0.114957
0.114318
0.112667
0.109434
0.103658
0.0960826
0.0876303
0.0788591
0.0701127
0.0616042
0.0534894
0.0458569
0.0387691
0.0322955
0.0264121
0.0209121
0.0160616
0.0118883
0.00841764
0.00566109
0.00359777
0.00215844
0.00122735
0.000666871
0.000351397
0.000182437
9.4042e-05
4.84404e-05
2.50638e-05
1.30815e-05
6.92699e-06
3.78901e-06
2.00826e-06
8.22989e-07
3.33409e-07
1.34646e-07
5.42258e-08
2.16955e-08
8.54032e-09
3.22042e-09
1.06554e-09
1.85925e-10
1.73808e-07
7.62452e-07
1.76501e-06
3.4742e-06
6.38097e-06
1.12994e-05
1.95621e-05
3.33172e-05
5.59688e-05
9.28044e-05
0.00015185
0.000244967
0.000389135
0.000607756
0.00093164
0.00139914
0.00205485
0.00294645
0.00411988
0.00561377
0.00745461
0.00965404
0.0122085
0.015101
0.0183042
0.0217828
0.0254972
0.0294049
0.0334629
0.0376287
0.0418618
0.046124
0.0503805
0.0546
0.0587551
0.0628224
0.066782
0.0706174
0.0743152
0.0778656
0.0812614
0.0844981
0.0875735
0.0904869
0.0932396
0.095834
0.0982733
0.100562
0.102703
0.104701
0.106559
0.108277
0.109853
0.11128
0.112542
0.113609
0.114434
0.114918
0.114969
0.11437
0.112782
0.109648
0.104031
0.0965426
0.0881347
0.0793809
0.0706342
0.062114
0.0539776
0.0463177
0.0391973
0.0326844
0.0267728
0.0212445
0.0163525
0.0121347
0.00861774
0.00581492
0.0037083
0.00223204
0.00127274
0.000693004
0.000365439
0.000189746
9.77655e-05
5.03107e-05
2.59946e-05
1.35441e-05
7.1593e-06
3.90463e-06
2.09391e-06
8.64211e-07
3.51069e-07
1.41795e-07
5.70662e-08
2.2817e-08
8.97773e-09
3.38449e-09
1.11968e-09
1.95365e-10
1.73457e-07
7.60943e-07
1.76164e-06
3.46792e-06
6.37017e-06
1.12817e-05
1.95338e-05
3.32731e-05
5.59011e-05
9.27017e-05
0.000151696
0.000244738
0.000388796
0.00060726
0.000930919
0.0013981
0.00205337
0.00294438
0.00411702
0.00560989
0.00744945
0.00964731
0.0121999
0.0150902
0.0182908
0.0217666
0.0254778
0.0293821
0.0334363
0.0375982
0.0418272
0.0460852
0.0503374
0.0545526
0.0587035
0.0627667
0.0667224
0.070554
0.0742484
0.0777957
0.0811887
0.084423
0.0874964
0.0904082
0.0931597
0.0957533
0.0981923
0.100481
0.102622
0.104622
0.106481
0.108201
0.109781
0.111213
0.112481
0.113558
0.114397
0.114901
0.114982
0.114431
0.112917
0.1099
0.104472
0.0970886
0.088735
0.0800034
0.0712579
0.0627247
0.0545634
0.0468711
0.0397118
0.0331517
0.027201
0.021653
0.0167076
0.0124348
0.00886145
0.00600264
0.00384362
0.0023225
0.00132874
0.000725341
0.000382841
0.000198807
0.000102379
5.26262e-05
2.71472e-05