/*--------------------------------*- C++ -*----------------------------------*\
  =========                 |
  \\      /  F ield         | OpenFOAM: The Open Source CFD Toolbox
   \\    /   O peration     | Website:  https://openfoam.org
    \\  /    A nd           | Version:  8
     \\/     M anipulation  |
\*---------------------------------------------------------------------------*/
FoamFile
{
    version     2.0;
    format      ascii;
    class       volScalarField;
    location    "0.15/fluid";
    object      N2;
}
// * * * * * * * * * * * * * * * * * * * * * * * * * * * * * * * * * * * * * //

dimensions      [0 0 0 0 0 0 0];

internalField   nonuniform List<scalar> 
4000
(
2.78341e-06
1.20988e-05
2.74869e-05
5.26671e-05
9.35559e-05
0.000159492
0.000265077
0.000432871
0.000697246
0.00110967
0.00174562
0.00271292
0.00416082
0.00628788
0.0093455
0.0136325
0.0194764
0.0271999
0.0370794
0.0492959
0.0639302
0.0809363
0.100142
0.121303
0.144126
0.168307
0.193526
0.219485
0.245823
0.272287
0.298645
0.324691
0.350249
0.375168
0.399328
0.422636
0.445018
0.466423
0.486817
0.506182
0.524515
0.541826
0.558132
0.573458
0.587838
0.601305
0.613898
0.625657
0.636624
0.646843
0.656354
0.665201
0.673423
0.681061
0.688151
0.69473
0.700833
0.706494
0.711707
0.716457
0.720992
0.725209
0.72914
0.732819
0.736285
0.73957
0.742692
0.745661
0.74848
0.751149
0.753664
0.756019
0.758208
0.760217
0.762047
0.76375
0.765255
0.766542
0.767614
0.768457
0.769074
0.769487
0.769737
0.769875
0.769944
0.769976
0.76999
0.769996
0.769999
0.77
0.77
0.77
0.77
0.77
0.77
0.77
0.77
0.77
0.77
0.77
2.80884e-06
1.22142e-05
2.77688e-05
5.32582e-05
9.47095e-05
0.000161637
0.000268903
0.000439428
0.00070803
0.00112664
0.00177105
0.00274898
0.00420864
0.00634616
0.00940876
0.0136893
0.0195074
0.0271818
0.0369892
0.0491217
0.0636414
0.0805161
0.0995672
0.120601
0.143337
0.167461
0.192578
0.218376
0.244641
0.27109
0.297474
0.323574
0.349204
0.374209
0.398463
0.421868
0.444349
0.465851
0.486338
0.505793
0.52421
0.541598
0.557978
0.573374
0.587812
0.60133
0.613968
0.625766
0.636768
0.647015
0.656552
0.66542
0.67366
0.681312
0.688413
0.695002
0.701112
0.706778
0.71198
0.71673
0.721267
0.725485
0.729417
0.733098
0.736567
0.739856
0.742982
0.745953
0.748774
0.751445
0.753959
0.75631
0.758489
0.760482
0.762294
0.763969
0.765453
0.766733
0.767779
0.768587
0.769165
0.769544
0.769769
0.76989
0.769951
0.769979
0.769991
0.769997
0.769999
0.77
0.77
0.77
0.77
0.77
0.77
0.77
0.77
0.77
0.77
0.77
2.85089e-06
1.24002e-05
2.82048e-05
5.41256e-05
9.63075e-05
0.000164441
0.000273634
0.000447133
0.00072013
0.00114491
0.0017974
0.00278506
0.0042552
0.00640196
0.0094691
0.013745
0.0195464
0.0271872
0.0369334
0.0489723
0.0633725
0.0800959
0.0990421
0.119958
0.142517
0.166408
0.191391
0.21715
0.243387
0.269828
0.296226
0.322363
0.348049
0.373128
0.39747
0.420973
0.44356
0.465171
0.485767
0.505331
0.523857
0.541353
0.55783
0.57331
0.587826
0.601415
0.614117
0.625973
0.637026
0.647318
0.656894
0.665794
0.674062
0.681736
0.688856
0.69546
0.701582
0.707256
0.712438
0.717188
0.721728
0.725948
0.72988
0.733562
0.737033
0.740324
0.74345
0.74642
0.749238
0.751902
0.754404
0.75674
0.7589
0.760866
0.76266
0.764311
0.765753
0.766974
0.767963
0.768716
0.769248
0.769591
0.769793
0.769902
0.769956
0.769981
0.769992
0.769997
0.769999
0.77
0.77
0.77
0.77
0.77
0.77
0.77
0.77
0.77
0.77
0.77
2.88461e-06
1.25465e-05
2.85362e-05
5.47558e-05
9.741e-05
0.00016627
0.000276547
0.000451603
0.000726747
0.00115434
0.00181035
0.00280205
0.00427611
0.00642534
0.00949094
0.0137569
0.0195352
0.0271325
0.0368152
0.048772
0.0630921
0.0797187
0.0985097
0.119239
0.141677
0.165515
0.190443
0.216155
0.242359
0.268787
0.295191
0.321352
0.347083
0.372221
0.396637
0.420224
0.442904
0.464615
0.48532
0.504994
0.523625
0.541214
0.557778
0.573342
0.587939
0.601603
0.614373
0.62629
0.637396
0.647736
0.657352
0.666286
0.674582
0.68228
0.689418
0.696036
0.70217
0.707855
0.713006
0.717753
0.722293
0.726511
0.73044
0.734119
0.737589
0.740877
0.743999
0.746963
0.74977
0.752419
0.754901
0.757212
0.75934
0.761269
0.763035
0.764643
0.766037
0.767205
0.76814
0.768842
0.769329
0.769639
0.769819
0.769915
0.769962
0.769984
0.769993
0.769997
0.769999
0.77
0.77
0.77
0.77
0.77
0.77
0.77
0.77
0.77
0.77
0.77
2.91032e-06
1.26575e-05
2.87852e-05
5.52242e-05
9.82205e-05
0.000167602
0.000278654
0.000454825
0.000731503
0.00116109
0.00181946
0.00281353
0.00428933
0.00643856
0.00950096
0.0137596
0.0195217
0.0270907
0.0367294
0.0486226
0.0628508
0.0793831
0.0980871
0.118752
0.141115
0.164882
0.189749
0.215415
0.241589
0.268003
0.294411
0.320594
0.34636
0.37155
0.39603
0.419695
0.442462
0.464267
0.485063
0.50482
0.523531
0.541202
0.557849
0.573493
0.588164
0.601897
0.614729
0.626702
0.637858
0.64824
0.657891
0.666856
0.675175
0.68289
0.690041
0.696667
0.702804
0.708489
0.713607
0.718365
0.722907
0.727119
0.73104
0.734713
0.738177
0.741458
0.744571
0.747523
0.750315
0.752942
0.755399
0.757678
0.759768
0.761658
0.763397
0.764958
0.766302
0.767417
0.768299
0.768953
0.7694
0.76968
0.769841
0.769925
0.769967
0.769986
0.769994
0.769998
0.769999
0.77
0.77
0.77
0.77
0.77
0.77
0.77
0.77
0.77
0.77
0.77
2.92809e-06
1.27337e-05
2.89537e-05
5.5535e-05
9.87449e-05
0.000168439
0.000279933
0.000456702
0.000734145
0.00116463
0.00182393
0.00281873
0.00429453
0.00644208
0.00950011
0.0137491
0.019495
0.02704
0.0366457
0.0484966
0.062674
0.0791492
0.0977932
0.118399
0.140705
0.164422
0.189248
0.214884
0.24104
0.26745
0.293868
0.320075
0.345881
0.371122
0.395665
0.419397
0.442231
0.464102
0.484964
0.504792
0.523579
0.541325
0.558044
0.573757
0.588493
0.602284
0.615169
0.627189
0.638385
0.648801
0.658481
0.667468
0.675804
0.68353
0.690685
0.697309
0.703437
0.709105
0.714193
0.719049
0.723556
0.727743
0.731644
0.735303
0.738757
0.742028
0.745129
0.748065
0.750838
0.753442
0.755871
0.758117
0.760166
0.762018
0.763734
0.765248
0.766543
0.767608
0.768442
0.769051
0.769462
0.769716
0.76986
0.769935
0.769971
0.769988
0.769995
0.769998
0.769999
0.77
0.77
0.77
0.77
0.77
0.77
0.77
0.77
0.77
0.77
0.77
2.94065e-06
1.27874e-05
2.90718e-05
5.57508e-05
9.91052e-05
0.000169007
0.000280788
0.000457936
0.000735846
0.00116685
0.00182659
0.00282152
0.00429675
0.00644252
0.00949643
0.0137379
0.0194715
0.0269986
0.0365799
0.0484
0.0625413
0.0789765
0.0975791
0.118144
0.140413
0.164099
0.188901
0.214523
0.240677
0.267096
0.293533
0.319771
0.345615
0.3709
0.395486
0.419265
0.442151
0.46408
0.485006
0.504901
0.523754
0.541564
0.558343
0.574113
0.588901
0.602739
0.615667
0.627724
0.638952
0.649394
0.659095
0.668098
0.676444
0.684176
0.691333
0.697954
0.704076
0.709717
0.714792
0.719651
0.72415
0.728324
0.732213
0.73586
0.739303
0.742563
0.74565
0.74857
0.751325
0.753904
0.756304
0.758517
0.760527
0.76235
0.764033
0.765505
0.766755
0.767776
0.768566
0.769136
0.769515
0.769746
0.769876
0.769942
0.769975
0.769989
0.769996
0.769998
0.77
0.77
0.77
0.77
0.77
0.77
0.77
0.77
0.77
0.77
0.77
0.77
2.94964e-06
1.28256e-05
2.91553e-05
5.59015e-05
9.93524e-05
0.000169387
0.000281345
0.000458711
0.000736863
0.00116808
0.00182792
0.00282267
0.00429713
0.00644104
0.00949131
0.0137266
0.0194509
0.0269647
0.0365287
0.0483277
0.0624447
0.0788542
0.0974311
0.117973
0.140222
0.163894
0.188688
0.214309
0.24047
0.266903
0.293361
0.319621
0.345492
0.370809
0.395436
0.419262
0.442201
0.464186
0.485168
0.50512
0.524027
0.541889
0.558718
0.574533
0.589362
0.603238
0.616198
0.628282
0.639534
0.649995
0.65971
0.668722
0.677074
0.684807
0.691963
0.698579
0.704694
0.710305
0.71537
0.720215
0.724699
0.72886
0.732736
0.736372
0.739805
0.743052
0.746126
0.74903
0.751765
0.754321
0.756695
0.758877
0.760852
0.762647
0.764296
0.765731
0.766941
0.767922
0.768672
0.769208
0.76956
0.769772
0.769889
0.769949
0.769978
0.769991
0.769996
0.769999
0.77
0.77
0.77
0.77
0.77
0.77
0.77
0.77
0.77
0.77
0.77
0.77
2.95645e-06
1.28546e-05
2.92182e-05
5.60141e-05
9.95355e-05
0.000169666
0.000281747
0.000459261
0.000737569
0.00116892
0.00182877
0.0028233
0.00429711
0.00643967
0.00948754
0.0137188
0.0194369
0.026942
0.036495
0.0482808
0.0623835
0.0787784
0.0973419
0.117872
0.140114
0.163781
0.188575
0.2142
0.240368
0.266813
0.293288
0.319572
0.345475
0.370829
0.395499
0.419371
0.442357
0.46439
0.48542
0.505417
0.524368
0.542272
0.559139
0.57499
0.589851
0.603755
0.616739
0.628843
0.64011
0.650583
0.660306
0.669323
0.677675
0.685406
0.692557
0.699166
0.705271
0.710844
0.715895
0.720726
0.725197
0.729344
0.733209
0.736834
0.740256
0.743493
0.746553
0.749442
0.752157
0.754691
0.75704
0.759194
0.761138
0.76291
0.764527
0.765928
0.767103
0.768047
0.768764
0.769269
0.769598
0.769793
0.7699
0.769954
0.76998
0.769992
0.769997
0.769999
0.77
0.77
0.77
0.77
0.77
0.77
0.77
0.77
0.77
0.77
0.77
0.77
2.96192e-06
1.28778e-05
2.92685e-05
5.6104e-05
9.96807e-05
0.000169886
0.000282062
0.000459689
0.000738115
0.00116956
0.00182944
0.00282381
0.00429716
0.00643875
0.00948493
0.0137136
0.0194281
0.0269284
0.0364754
0.0482542
0.0623495
0.078737
0.0972937
0.117818
0.140057
0.163724
0.188522
0.214155
0.240337
0.2668
0.2933
0.319615
0.345551
0.370942
0.39565
0.419561
0.442588
0.46466
0.485728
0.505763
0.524749
0.542686
0.559584
0.575461
0.590346
0.60427
0.617271
0.629388
0.640665
0.651144
0.66087
0.669887
0.678237
0.685962
0.693105
0.699704
0.705798
0.71133
0.716366
0.721184
0.725642
0.729776
0.733629
0.737245
0.740657
0.743882
0.74693
0.749804
0.752502
0.755016
0.757342
0.75947
0.761387
0.763141
0.764729
0.766099
0.767242
0.768155
0.768841
0.769321
0.769629
0.769811
0.769909
0.769959
0.769982
0.769993
0.769997
0.769999
0.77
0.77
0.77
0.77
0.77
0.77
0.77
0.77
0.77
0.77
0.77
0.77
2.96659e-06
1.28976e-05
2.93115e-05
5.61809e-05
9.98055e-05
0.000170076
0.000282337
0.000460068
0.000738615
0.00117018
0.00183015
0.00282454
0.00429773
0.00643887
0.00948415
0.0137114
0.0194238
0.0269213
0.036465
0.0482404
0.0623323
0.0787172
0.0972728
0.117798
0.14004
0.163714
0.188523
0.214171
0.240373
0.266859
0.293385
0.319728
0.345695
0.371118
0.395859
0.419804
0.442864
0.464969
0.486069
0.506133
0.525147
0.54311
0.56003
0.575927
0.590829
0.604767
0.617779
0.629904
0.641186
0.651667
0.661393
0.670406
0.678751
0.686469
0.693602
0.70019
0.706272
0.711761
0.716783
0.721589
0.726034
0.730155
0.733998
0.737605
0.741007
0.744223
0.747259
0.75012
0.752802
0.755298
0.757604
0.759708
0.761602
0.763342
0.764904
0.766247
0.767362
0.768247
0.768907
0.769364
0.769655
0.769825
0.769917
0.769962
0.769984
0.769993
0.769998
0.769999
0.77
0.77
0.77
0.77
0.77
0.77
0.77
0.77
0.77
0.77
0.77
0.77
2.97076e-06
1.29154e-05
2.935e-05
5.62502e-05
9.99188e-05
0.00017025
0.000282593
0.000460431
0.000739112
0.00117084
0.00183098
0.00282556
0.00429892
0.00644017
0.00948547
0.0137126
0.0194246
0.0269218
0.0364653
0.0482408
0.0623337
0.078721
0.0972806
0.117813
0.140064
0.163749
0.188573
0.214238
0.240459
0.266967
0.293517
0.319887
0.345881
0.371332
0.396101
0.420075
0.443162
0.465294
0.486419
0.506507
0.525543
0.543525
0.560462
0.576374
0.591287
0.605234
0.618252
0.630381
0.641664
0.652144
0.661867
0.670875
0.679212
0.686922
0.694045
0.700623
0.706693
0.71214
0.71715
0.721944
0.726376
0.730486
0.734319
0.737917
0.741311
0.744517
0.747543
0.750392
0.75306
0.75554
0.757828
0.759912
0.761787
0.763516
0.765055
0.766374
0.767464
0.768325
0.768962
0.7694
0.769677
0.769837
0.769923
0.769965
0.769985
0.769994
0.769998
0.769999
0.77
0.77
0.77
0.77
0.77
0.77
0.77
0.77
0.77
0.77
0.77
0.77
2.97456e-06
1.29316e-05
2.93855e-05
5.63143e-05
0.000100025
0.000170415
0.00028284
0.000460791
0.000739622
0.00117154
0.00183195
0.00282685
0.00430062
0.00644242
0.0094884
0.0137164
0.0194297
0.0269286
0.0364744
0.0482531
0.0623503
0.0787433
0.0973102
0.117851
0.140114
0.163812
0.188651
0.214334
0.240574
0.267104
0.293676
0.320069
0.346087
0.371562
0.396356
0.420353
0.443464
0.465617
0.486762
0.506869
0.525921
0.543917
0.560866
0.576788
0.591709
0.605661
0.618682
0.630812
0.642094
0.652571
0.662288
0.67129
0.679619
0.68732
0.694433
0.701
0.707059
0.71247
0.717468
0.722252
0.726673
0.730773
0.734596
0.738186
0.741572
0.74477
0.747786
0.750625
0.75328
0.755747
0.758019
0.760084
0.761944
0.763664
0.765184
0.766481
0.767551
0.76839
0.769009
0.76943
0.769695
0.769847
0.769928
0.769967
0.769986
0.769994
0.769998
0.769999
0.77
0.77
0.77
0.77
0.77
0.77
0.77
0.77
0.77
0.77
0.77
0.77
2.97805e-06
1.29465e-05
2.94181e-05
5.63739e-05
0.000100124
0.000170572
0.000283079
0.000461146
0.000740139
0.00117229
0.001833
0.00282833
0.0043027
0.00644531
0.00949243
0.013722
0.0194374
0.0269392
0.0364887
0.0482722
0.0623755
0.0787759
0.0973518
0.117904
0.140178
0.163891
0.188745
0.214444
0.240703
0.267252
0.293844
0.320258
0.346297
0.371793
0.396607
0.420624
0.443753
0.465923
0.487085
0.507206
0.52627
0.544276
0.561234
0.577162
0.592087
0.606042
0.619063
0.631192
0.642471
0.652944
0.662655
0.671649
0.67997
0.687661
0.694763
0.701318
0.707365
0.712761
0.717747
0.722519
0.726929
0.731019
0.734833
0.738416
0.741795
0.744984
0.747993
0.750822
0.753466
0.755921
0.75818
0.760229
0.762076
0.763789
0.765291
0.766571
0.767623
0.768445
0.769047
0.769455
0.769709
0.769855
0.769932
0.769969
0.769987
0.769995
0.769998
0.769999
0.77
0.77
0.77
0.77
0.77
0.77
0.77
0.77
0.77
0.77
0.77
0.77
2.9812e-06
1.296e-05
2.94478e-05
5.64282e-05
0.000100215
0.000170717
0.000283304
0.000461485
0.000740644
0.00117303
0.00183408
0.0028299
0.00430496
0.00644854
0.00949703
0.0137285
0.0194465
0.0269517
0.0365056
0.0482947
0.0624048
0.0788133
0.0973987
0.117961
0.140248
0.163974
0.188843
0.214558
0.240833
0.267399
0.294009
0.32044
0.346497
0.372011
0.396841
0.420874
0.444018
0.466203
0.487376
0.507508
0.526581
0.544595
0.561558
0.57749
0.592418
0.606373
0.619393
0.631519
0.642794
0.653261
0.662966
0.671952
0.680264
0.687946
0.695039
0.701584
0.707621
0.713007
0.717984
0.722746
0.727147
0.731227
0.735034
0.73861
0.741981
0.745164
0.748165
0.750986
0.753621
0.756065
0.758313
0.76035
0.762187
0.763891
0.76538
0.766645
0.767682
0.768489
0.769078
0.769475
0.769721
0.769861
0.769935
0.769971
0.769988
0.769995
0.769998
0.769999
0.77
0.77
0.77
0.77
0.77
0.77
0.77
0.77
0.77
0.77
0.77
0.77
2.98396e-06
1.29718e-05
2.94739e-05
5.64762e-05
0.000100296
0.000170848
0.000283508
0.000461797
0.000741113
0.00117373
0.00183512
0.00283142
0.00430719
0.00645179
0.00950172
0.0137352
0.0194559
0.0269646
0.0365231
0.0483179
0.0624347
0.0788512
0.0974456
0.118018
0.140316
0.164055
0.188936
0.214665
0.240955
0.267536
0.29416
0.320607
0.346678
0.372206
0.39705
0.421096
0.444251
0.466446
0.487629
0.507768
0.526848
0.544867
0.561834
0.577768
0.592696
0.60665
0.619669
0.631791
0.643061
0.653523
0.66322
0.672199
0.680503
0.688175
0.695258
0.701794
0.707823
0.713204
0.718184
0.722942
0.727334
0.731405
0.735203
0.738771
0.742136
0.745312
0.748306
0.751121
0.753748
0.756183
0.758422
0.760448
0.762278
0.763972
0.76545
0.766704
0.767729
0.768524
0.769103
0.769491
0.76973
0.769866
0.769937
0.769972
0.769988
0.769995
0.769998
0.77
0.77
0.77
0.77
0.77
0.77
0.77
0.77
0.77
0.77
0.77
0.77
0.77
2.98626e-06
1.29816e-05
2.94957e-05
5.65165e-05
0.000100364
0.000170958
0.000283682
0.000462065
0.000741522
0.00117434
0.00183604
0.0028328
0.00430922
0.00645477
0.00950603
0.0137414
0.0194646
0.0269766
0.0365394
0.0483392
0.0624622
0.0788858
0.0974882
0.11807
0.140377
0.164126
0.189019
0.214759
0.241061
0.267654
0.29429
0.320748
0.346831
0.37237
0.397225
0.42128
0.444445
0.466647
0.487837
0.507982
0.527066
0.545088
0.562057
0.577992
0.59292
0.606873
0.619889
0.632008
0.643273
0.653729
0.663421
0.672392
0.680686
0.688349
0.69542
0.70194
0.707949
0.713301
0.718409
0.723131
0.7275
0.731555
0.735342
0.738902
0.74226
0.74543
0.748418
0.751227
0.753847
0.756276
0.758507
0.760524
0.762349
0.764035
0.765504
0.76675
0.767765
0.768552
0.769122
0.769503
0.769737
0.76987
0.769939
0.769973
0.769989
0.769996
0.769998
0.77
0.77
0.77
0.77
0.77
0.77
0.77
0.77
0.77
0.77
0.77
0.77
0.77
2.98803e-06
1.29893e-05
2.95126e-05
5.65477e-05
0.000100418
0.000171045
0.000283818
0.000462277
0.000741846
0.00117484
0.00183679
0.00283391
0.00431088
0.00645721
0.00950959
0.0137465
0.0194718
0.0269866
0.0365528
0.0483569
0.0624849
0.0789142
0.0975231
0.118112
0.140427
0.164184
0.189085
0.214834
0.241145
0.267747
0.294393
0.32086
0.346951
0.372498
0.39736
0.421423
0.444594
0.466802
0.487996
0.508145
0.527232
0.545256
0.562226
0.578162
0.593089
0.60704
0.620054
0.63217
0.643432
0.653883
0.663569
0.672534
0.680823
0.688479
0.695544
0.702059
0.708064
0.713415
0.71853
0.72325
0.727614
0.731663
0.735444
0.738999
0.742353
0.745518
0.748502
0.751306
0.753921
0.756344
0.75857
0.76058
0.762401
0.764081
0.765544
0.766783
0.767792
0.768572
0.769135
0.769512
0.769743
0.769873
0.769941
0.769974
0.769989
0.769996
0.769998
0.77
0.77
0.77
0.77
0.77
0.77
0.77
0.77
0.77
0.77
0.77
0.77
0.77
2.98922e-06
1.29944e-05
2.95239e-05
5.65687e-05
0.000100453
0.000171103
0.000283911
0.000462421
0.000742068
0.00117518
0.0018373
0.00283468
0.00431203
0.00645891
0.00951209
0.0137501
0.0194769
0.0269936
0.0365623
0.0483694
0.0625009
0.0789342
0.0975476
0.118141
0.140462
0.164224
0.189131
0.214887
0.241203
0.267811
0.294463
0.320936
0.347033
0.372586
0.397453
0.42152
0.444695
0.466906
0.488103
0.508254
0.527344
0.545369
0.56234
0.578275
0.593201
0.607152
0.620163
0.632277
0.643536
0.653985
0.663668
0.67263
0.680915
0.688568
0.695629
0.702142
0.708143
0.713493
0.718607
0.723325
0.727686
0.731732
0.73551
0.739063
0.742414
0.745576
0.748557
0.751358
0.75397
0.75639
0.758611
0.760618
0.762435
0.764112
0.76557
0.766805
0.767809
0.768585
0.769144
0.769518
0.769746
0.769875
0.769942
0.769974
0.769989
0.769996
0.769999
0.77
0.77
0.77
0.77
0.77
0.77
0.77
0.77
0.77
0.77
0.77
0.77
0.77
2.98979e-06
1.29968e-05
2.95293e-05
5.65788e-05
0.000100471
0.000171131
0.000283955
0.00046249
0.000742174
0.00117534
0.00183754
0.00283505
0.00431258
0.00645974
0.0095133
0.0137518
0.0194794
0.0269971
0.0365669
0.0483755
0.0625088
0.0789441
0.0975597
0.118156
0.140479
0.164244
0.189154
0.214913
0.241232
0.267843
0.294498
0.320974
0.347074
0.372629
0.397499
0.421568
0.444745
0.466958
0.488157
0.508309
0.527399
0.545425
0.562396
0.578331
0.593257
0.607207
0.620218
0.63233
0.643588
0.654035
0.663717
0.672677
0.680961
0.688612
0.695672
0.702183
0.708182
0.713531
0.718644
0.723362
0.727721
0.731766
0.735543
0.739094
0.742443
0.745605
0.748584
0.751383
0.753993
0.756412
0.758631
0.760636
0.762452
0.764126
0.765583
0.766815
0.767817
0.768591
0.769149
0.76952
0.769748
0.769876
0.769942
0.769974
0.769989
0.769996
0.769999
0.77
0.77
0.77
0.77
0.77
0.77
0.77
0.77
0.77
0.77
0.77
0.77
0.77
2.98975e-06
1.29966e-05
2.95289e-05
5.6578e-05
0.000100469
0.000171129
0.000283952
0.000462486
0.000742168
0.00117533
0.00183753
0.00283504
0.00431256
0.00645972
0.00951327
0.0137518
0.0194793
0.026997
0.0365669
0.0483755
0.0625088
0.0789441
0.0975597
0.118156
0.140479
0.164244
0.189154
0.214913
0.241232
0.267843
0.294498
0.320974
0.347074
0.372629
0.397499
0.421568
0.444745
0.466958
0.488156
0.508309
0.527399
0.545425
0.562396
0.578331
0.593257
0.607207
0.620218
0.63233
0.643588
0.654035
0.663717
0.672677
0.680961
0.688612
0.695672
0.702183
0.708182
0.713531
0.718644
0.723362
0.727721
0.731766
0.735543
0.739094
0.742443
0.745605
0.748584
0.751383
0.753993
0.756412
0.758631
0.760636
0.762452
0.764126
0.765583
0.766815
0.767817
0.768591
0.769149
0.76952
0.769748
0.769876
0.769942
0.769974
0.769989
0.769996
0.769999
0.77
0.77
0.77
0.77
0.77
0.77
0.77
0.77
0.77
0.77
0.77
0.77
0.77
2.98909e-06
1.29938e-05
2.95227e-05
5.65664e-05
0.00010045
0.000171097
0.000283902
0.000462408
0.000742048
0.00117515
0.00183726
0.00283463
0.00431196
0.00645884
0.009512
0.01375
0.0194768
0.0269935
0.0365622
0.0483693
0.0625008
0.0789341
0.0975476
0.118141
0.140462
0.164224
0.189131
0.214887
0.241203
0.267811
0.294463
0.320936
0.347033
0.372586
0.397453
0.421519
0.444694
0.466906
0.488103
0.508254
0.527344
0.545369
0.562339
0.578275
0.593201
0.607151
0.620163
0.632277
0.643536
0.653985
0.663668
0.67263
0.680915
0.688568
0.695629
0.702142
0.708143
0.713493
0.718607
0.723325
0.727686
0.731732
0.73551
0.739063
0.742413
0.745576
0.748557
0.751357
0.753969
0.75639
0.758611
0.760618
0.762435
0.764111
0.76557
0.766805
0.767809
0.768585
0.769144
0.769518
0.769746
0.769875
0.769942
0.769974
0.769989
0.769996
0.769999
0.77
0.77
0.77
0.77
0.77
0.77
0.77
0.77
0.77
0.77
0.77
0.77
0.77
2.98781e-06
1.29883e-05
2.95105e-05
5.65439e-05
0.000100411
0.000171035
0.000283803
0.000462254
0.000741813
0.00117479
0.00183672
0.00283383
0.00431077
0.00645707
0.00950943
0.0137463
0.0194716
0.0269864
0.0365526
0.0483567
0.0624848
0.0789141
0.097523
0.118112
0.140427
0.164184
0.189085
0.214834
0.241145
0.267747
0.294393
0.320859
0.346951
0.372498
0.39736
0.421422
0.444593
0.466801
0.487996
0.508144
0.527232
0.545256
0.562226
0.578161
0.593088
0.60704
0.620053
0.63217
0.643431
0.653883
0.663569
0.672534
0.680823
0.688479
0.695544
0.702059
0.708064
0.713415
0.71853
0.72325
0.727614
0.731663
0.735444
0.738999
0.742353
0.745518
0.748502
0.751305
0.753921
0.756344
0.758569
0.76058
0.762401
0.764081
0.765544
0.766783
0.767792
0.768572
0.769135
0.769512
0.769743
0.769873
0.769941
0.769974
0.769989
0.769996
0.769998
0.77
0.77
0.77
0.77
0.77
0.77
0.77
0.77
0.77
0.77
0.77
0.77
0.77
2.98595e-06
1.29803e-05
2.94928e-05
5.65112e-05
0.000100356
0.000170944
0.00028366
0.000462033
0.000741475
0.00117428
0.00183595
0.00283268
0.00430907
0.00645457
0.0095058
0.0137411
0.0194643
0.0269763
0.036539
0.048339
0.062462
0.0788855
0.097488
0.11807
0.140377
0.164126
0.189019
0.214759
0.24106
0.267653
0.29429
0.320748
0.346831
0.37237
0.397224
0.42128
0.444444
0.466647
0.487836
0.507981
0.527066
0.545088
0.562057
0.577992
0.59292
0.606873
0.619888
0.632008
0.643273
0.653729
0.66342
0.672391
0.680686
0.688348
0.69542
0.70194
0.707949
0.713301
0.718409
0.723131
0.7275
0.731555
0.735342
0.738902
0.74226
0.74543
0.748418
0.751227
0.753847
0.756276
0.758506
0.760524
0.762349
0.764035
0.765504
0.76675
0.767765
0.768552
0.769122
0.769503
0.769738
0.76987
0.769939
0.769973
0.769989
0.769996
0.769998
0.77
0.77
0.77
0.77
0.77
0.77
0.77
0.77
0.77
0.77
0.77
0.77
0.77
2.98357e-06
1.29701e-05
2.94702e-05
5.64694e-05
0.000100285
0.00017083
0.00028348
0.000461756
0.000741054
0.00117364
0.00183501
0.00283127
0.00430699
0.00645154
0.00950141
0.0137348
0.0194555
0.0269642
0.0365227
0.0483174
0.0624343
0.0788508
0.0974453
0.118018
0.140316
0.164054
0.188936
0.214665
0.240954
0.267535
0.29416
0.320606
0.346677
0.372205
0.397049
0.421095
0.444251
0.466445
0.487628
0.507767
0.526847
0.544866
0.561833
0.577767
0.592695
0.60665
0.619668
0.631791
0.643061
0.653522
0.66322
0.672199
0.680502
0.688175
0.695258
0.701794
0.707823
0.713205
0.718185
0.722942
0.727334
0.731404
0.735203
0.738771
0.742136
0.745312
0.748306
0.75112
0.753747
0.756183
0.758421
0.760447
0.762278
0.763972
0.76545
0.766704
0.767729
0.768524
0.769103
0.769491
0.76973
0.769866
0.769937
0.769972
0.769988
0.769995
0.769998
0.77
0.77
0.77
0.77
0.77
0.77
0.77
0.77
0.77
0.77
0.77
0.77
0.77
2.98073e-06
1.29579e-05
2.94433e-05
5.642e-05
0.000100201
0.000170695
0.00028327
0.000461436
0.000740572
0.00117293
0.00183394
0.00282971
0.00430471
0.00644824
0.00949666
0.0137281
0.019446
0.0269511
0.0365051
0.0482941
0.0624042
0.0788128
0.0973982
0.117961
0.140247
0.163973
0.188842
0.214557
0.240832
0.267399
0.294008
0.32044
0.346496
0.37201
0.396841
0.420873
0.444017
0.466202
0.487375
0.507507
0.52658
0.544594
0.561558
0.57749
0.592417
0.606372
0.619393
0.631519
0.642793
0.653261
0.662965
0.671952
0.680264
0.687945
0.695038
0.701584
0.707621
0.713007
0.717984
0.722746
0.727147
0.731227
0.735034
0.738609
0.741981
0.745164
0.748164
0.750986
0.753621
0.756065
0.758313
0.760349
0.762187
0.763891
0.765379
0.766645
0.767682
0.768489
0.769078
0.769475
0.769721
0.769861
0.769935
0.769971
0.769988
0.769995
0.769998
0.769999
0.77
0.77
0.77
0.77
0.77
0.77
0.77
0.77
0.77
0.77
0.77
0.77
2.9775e-06
1.29441e-05
2.94129e-05
5.63642e-05
0.000100108
0.000170546
0.00028304
0.000461087
0.000740054
0.00117217
0.00183284
0.00282811
0.00430241
0.00644495
0.00949198
0.0137215
0.0194368
0.0269385
0.0364879
0.0482714
0.0623747
0.0787751
0.097351
0.117903
0.140177
0.16389
0.188744
0.214443
0.240702
0.267251
0.293843
0.320257
0.346295
0.371792
0.396606
0.420623
0.443752
0.465922
0.487084
0.507204
0.526269
0.544275
0.561233
0.577161
0.592087
0.606041
0.619063
0.631192
0.64247
0.652943
0.662654
0.671648
0.679969
0.68766
0.694763
0.701318
0.707365
0.712761
0.717747
0.722519
0.726929
0.731019
0.734833
0.738416
0.741794
0.744984
0.747992
0.750822
0.753466
0.75592
0.758179
0.760229
0.762076
0.763789
0.765291
0.766571
0.767623
0.768445
0.769047
0.769455
0.769709
0.769855
0.769932
0.769969
0.769987
0.769995
0.769998
0.769999
0.77
0.77
0.77
0.77
0.77
0.77
0.77
0.77
0.77
0.77
0.77
0.77
2.97393e-06
1.29289e-05
2.93795e-05
5.63033e-05
0.000100006
0.000170386
0.000282795
0.000460724
0.000739525
0.00117141
0.00183176
0.0028266
0.0043003
0.006442
0.00948789
0.0137158
0.019429
0.0269278
0.0364735
0.0482522
0.0623494
0.0787423
0.0973092
0.11785
0.140113
0.163812
0.18865
0.214333
0.240573
0.267102
0.293675
0.320067
0.346085
0.371561
0.396354
0.420352
0.443462
0.465615
0.486761
0.506868
0.52592
0.543916
0.560865
0.576787
0.591708
0.60566
0.618681
0.630811
0.642093
0.65257
0.662288
0.671289
0.679619
0.687319
0.694433
0.700999
0.707059
0.71247
0.717468
0.722252
0.726673
0.730773
0.734596
0.738186
0.741572
0.744769
0.747786
0.750625
0.753279
0.755746
0.758018
0.760084
0.761943
0.763664
0.765183
0.766481
0.767551
0.76839
0.769009
0.769431
0.769695
0.769847
0.769928
0.769967
0.769986
0.769994
0.769998
0.769999
0.77
0.77
0.77
0.77
0.77
0.77
0.77
0.77
0.77
0.77
0.77
0.77
2.97005e-06
1.29123e-05
2.93433e-05
5.62379e-05
9.98981e-05
0.000170217
0.000282543
0.000460356
0.000739004
0.00117068
0.00183078
0.00282528
0.00429855
0.00643971
0.00948489
0.0137119
0.0194238
0.0269209
0.0364643
0.0482397
0.0623326
0.0787198
0.0972794
0.117811
0.140062
0.163748
0.188571
0.214236
0.240457
0.266966
0.293516
0.319885
0.345879
0.37133
0.396099
0.420073
0.443161
0.465292
0.486417
0.506506
0.525541
0.543523
0.56046
0.576372
0.591286
0.605233
0.618251
0.63038
0.641663
0.652144
0.661866
0.670874
0.679212
0.686922
0.694045
0.700622
0.706693
0.71214
0.71715
0.721944
0.726376
0.730486
0.734319
0.737917
0.741311
0.744517
0.747543
0.750392
0.753059
0.755539
0.757827
0.759911
0.761787
0.763515
0.765055
0.766373
0.767464
0.768325
0.768963
0.769401
0.769677
0.769837
0.769923
0.769965
0.769985
0.769994
0.769998
0.769999
0.77
0.77
0.77
0.77
0.77
0.77
0.77
0.77
0.77
0.77
0.77
0.77
2.96581e-06
1.28943e-05
2.9304e-05
5.61673e-05
9.97827e-05
0.000170039
0.000282281
0.000459986
0.000738496
0.00117001
0.00182992
0.00282423
0.00429733
0.00643837
0.00948354
0.0137107
0.0194229
0.0269203
0.0364639
0.0482391
0.062331
0.0787158
0.0972713
0.117797
0.140039
0.163713
0.188522
0.21417
0.240371
0.266857
0.293383
0.319726
0.345693
0.371116
0.395857
0.419802
0.442862
0.464967
0.486067
0.506131
0.525146
0.543108
0.560029
0.575926
0.590828
0.604766
0.617778
0.629903
0.641185
0.651667
0.661392
0.670406
0.67875
0.686469
0.693602
0.70019
0.706272
0.711761
0.716784
0.72159
0.726034
0.730155
0.733998
0.737605
0.741007
0.744222
0.747258
0.750119
0.752801
0.755297
0.757603
0.759707
0.761602
0.763341
0.764904
0.766247
0.767362
0.768247
0.768907
0.769364
0.769655
0.769825
0.769917
0.769962
0.769984
0.769993
0.769998
0.769999
0.77
0.77
0.77
0.77
0.77
0.77
0.77
0.77
0.77
0.77
0.77
0.77
2.96107e-06
1.28741e-05
2.92604e-05
5.60891e-05
9.96558e-05
0.000169846
0.000282002
0.000459599
0.000737987
0.00116938
0.00182919
0.00282348
0.00429673
0.00643822
0.00948425
0.0137128
0.0194271
0.0269273
0.0364741
0.0482529
0.0623481
0.0787355
0.0972921
0.117817
0.140055
0.163722
0.18852
0.214153
0.240335
0.266798
0.293298
0.319612
0.345549
0.37094
0.395648
0.419559
0.442586
0.464658
0.485726
0.505761
0.524747
0.542684
0.559582
0.57546
0.590344
0.604269
0.61727
0.629387
0.640664
0.651144
0.66087
0.669887
0.678237
0.685962
0.693105
0.699704
0.705799
0.71133
0.716366
0.721185
0.725642
0.729776
0.733629
0.737245
0.740656
0.743882
0.746929
0.749803
0.752501
0.755015
0.757341
0.759469
0.761386
0.76314
0.764729
0.766099
0.767242
0.768155
0.768842
0.769321
0.769629
0.769811
0.769909
0.769959
0.769982
0.769993
0.769997
0.769999
0.77
0.77
0.77
0.77
0.77
0.77
0.77
0.77
0.77
0.77
0.77
0.77
2.95553e-06
1.28506e-05
2.92094e-05
5.59981e-05
9.95087e-05
0.000169624
0.000281682
0.000459165
0.000737431
0.00116872
0.00182851
0.00282295
0.00429666
0.0064391
0.00948684
0.013718
0.0194359
0.0269409
0.0364938
0.0482795
0.0623821
0.078777
0.0973404
0.11787
0.140112
0.163779
0.188574
0.214198
0.240366
0.26681
0.293285
0.31957
0.345472
0.370827
0.395496
0.419368
0.442355
0.464387
0.485417
0.505415
0.524366
0.54227
0.559138
0.574988
0.589849
0.603754
0.616738
0.628842
0.64011
0.650583
0.660306
0.669323
0.677675
0.685407
0.692557
0.699166
0.705272
0.710845
0.715895
0.720727
0.725198
0.729345
0.733209
0.736834
0.740256
0.743492
0.746552
0.749441
0.752156
0.75469
0.757039
0.759193
0.761137
0.762909
0.764526
0.765927
0.767103
0.768047
0.768764
0.76927
0.769598
0.769793
0.7699
0.769954
0.76998
0.769992
0.769997
0.769999
0.77
0.77
0.77
0.77
0.77
0.77
0.77
0.77
0.77
0.77
0.77
0.77
2.94866e-06
1.28214e-05
2.9146e-05
5.58844e-05
9.93237e-05
0.000169342
0.000281276
0.000458609
0.000736717
0.00116788
0.00182764
0.0028223
0.00429665
0.00644042
0.00949058
0.0137257
0.0194499
0.0269635
0.0365275
0.0483263
0.0624433
0.0788527
0.0974295
0.117971
0.14022
0.163892
0.188686
0.214307
0.240468
0.266901
0.293358
0.319619
0.34549
0.370807
0.395433
0.419259
0.442198
0.464183
0.485166
0.505117
0.524024
0.541887
0.558716
0.574531
0.58936
0.603237
0.616197
0.628282
0.639533
0.649995
0.65971
0.668722
0.677074
0.684808
0.691963
0.69858
0.704695
0.710306
0.715371
0.720215
0.7247
0.728861
0.732737
0.736373
0.739804
0.743052
0.746126
0.74903
0.751764
0.75432
0.756693
0.758876
0.760851
0.762646
0.764295
0.76573
0.766941
0.767922
0.768673
0.769208
0.76956
0.769772
0.769889
0.769949
0.769978
0.769991
0.769996
0.769999
0.77
0.77
0.77
0.77
0.77
0.77