/*--------------------------------*- C++ -*----------------------------------*\
  =========                 |
  \\      /  F ield         | OpenFOAM: The Open Source CFD Toolbox
   \\    /   O peration     | Website:  https://openfoam.org
    \\  /    A nd           | Version:  8
     \\/     M anipulation  |
\*---------------------------------------------------------------------------*/
FoamFile
{
    version     2.0;
    format      ascii;
    class       volScalarField;
    location    "0.15/fluid";
    object      O2;
}
// * * * * * * * * * * * * * * * * * * * * * * * * * * * * * * * * * * * * * //

dimensions      [0 0 0 0 0 0 0];

internalField   nonuniform List<scalar> 
4000
(
3.69004e-11
1.60885e-10
3.67806e-10
7.11181e-10
1.27788e-09
2.20776e-09
3.72363e-09
6.1762e-09
1.01093e-08
1.63516e-08
2.61382e-08
4.12629e-08
6.42472e-08
9.84973e-08
1.48391e-07
2.1921e-07
3.16835e-07
4.47172e-07
6.15215e-07
8.24603e-07
1.07674e-06
1.37073e-06
1.70346e-06
2.07017e-06
2.46509e-06
2.88191e-06
3.31414e-06
3.75531e-06
4.1994e-06
4.64093e-06
5.07502e-06
5.49742e-06
5.9047e-06
6.29441e-06
6.66555e-06
7.01919e-06
7.35946e-06
7.69487e-06
8.04003e-06
8.41775e-06
8.86153e-06
9.419e-06
1.01571e-05
1.11717e-05
1.25976e-05
1.46447e-05
1.7647e-05
2.21363e-05
2.89974e-05
3.97209e-05
5.68216e-05
8.45022e-05
0.000129675
0.000203536
0.000323998
0.000519497
0.000834945
0.00134103
0.00214314
0.00339381
0.00542271
0.00863237
0.0137287
0.0218815
0.0343367
0.0490644
0.0648524
0.0809581
0.096919
0.112444
0.127324
0.141426
0.154654
0.166901
0.178142
0.1887
0.198131
0.206304
0.213222
0.218789
0.222982
0.225894
0.227745
0.228825
0.229404
0.229703
0.229853
0.229927
0.229963
0.229982
0.22999
0.229995
0.229997
0.229999
0.23
0.23
0.23
0.23
0.23
0.23
3.72864e-11
1.62638e-10
3.72101e-10
7.20239e-10
1.29571e-09
2.24127e-09
3.78425e-09
6.28186e-09
1.02866e-08
1.66371e-08
2.65785e-08
4.19099e-08
6.51467e-08
9.96701e-08
1.49807e-07
2.20757e-07
3.18256e-07
4.48064e-07
6.15417e-07
8.23967e-07
1.07514e-06
1.36808e-06
1.69994e-06
2.06629e-06
2.46148e-06
2.87917e-06
3.31292e-06
3.75651e-06
4.20399e-06
4.64975e-06
5.08879e-06
5.51675e-06
5.9301e-06
6.32632e-06
6.70432e-06
7.06514e-06
7.41288e-06
7.75614e-06
8.10972e-06
8.49682e-06
8.9517e-06
9.52329e-06
1.02781e-05
1.1312e-05
1.27719e-05
1.48819e-05
1.79776e-05
2.26147e-05
2.97183e-05
4.08485e-05
5.8639e-05
8.74901e-05
0.000134637
0.000211793
0.000337696
0.000542097
0.000871999
0.00140141
0.00223847
0.00354653
0.00567044
0.00903248
0.0143761
0.0229373
0.0356602
0.0505649
0.0664726
0.0826597
0.0986752
0.114234
0.129123
0.143212
0.156395
0.168544
0.179681
0.190074
0.199384
0.207526
0.214299
0.219651
0.223603
0.226293
0.227973
0.228941
0.22946
0.229728
0.229864
0.229932
0.229965
0.229982
0.229991
0.229995
0.229997
0.229999
0.23
0.23
0.23
0.23
0.23
0.23
3.7908e-11
1.65395e-10
3.78604e-10
7.33296e-10
1.32006e-09
2.28461e-09
3.85865e-09
6.4054e-09
1.04849e-08
1.69442e-08
2.70348e-08
4.25576e-08
6.60219e-08
1.00787e-07
1.51135e-07
2.22208e-07
3.19724e-07
4.49549e-07
6.16754e-07
8.24779e-07
1.07525e-06
1.36756e-06
1.69906e-06
2.06539e-06
2.46111e-06
2.88022e-06
3.31645e-06
3.76353e-06
4.21547e-06
4.66671e-06
5.11223e-06
5.54764e-06
5.96932e-06
6.37471e-06
6.76263e-06
7.13409e-06
7.4932e-06
7.84866e-06
8.21573e-06
8.61793e-06
9.0896e-06
9.67885e-06
1.04598e-05
1.15365e-05
1.30675e-05
1.52756e-05
1.85249e-05
2.34097e-05
3.09227e-05
4.27422e-05
6.17041e-05
9.25451e-05
0.000143047
0.0002258
0.000360937
0.000580424
0.000934764
0.00150348
0.00239812
0.0038016
0.00608273
0.00969591
0.0154462
0.0246787
0.0378212
0.0529904
0.0690611
0.0853419
0.101401
0.116961
0.131812
0.14583
0.158907
0.170908
0.18195
0.192208
0.201274
0.209062
0.215486
0.220505
0.224165
0.226628
0.228155
0.229033
0.229504
0.229749
0.229873
0.229936
0.229967
0.229983
0.229991
0.229995
0.229998
0.229999
0.23
0.23
0.23
0.23
0.23
0.23
3.84162e-11
1.67609e-10
3.8366e-10
7.43032e-10
1.33737e-09
2.31393e-09
3.9065e-09
6.48105e-09
1.0601e-08
1.71173e-08
2.72862e-08
4.29133e-08
6.65095e-08
1.01431e-07
1.51942e-07
2.23128e-07
3.20703e-07
4.50402e-07
6.17272e-07
8.24948e-07
1.07512e-06
1.36728e-06
1.69892e-06
2.06593e-06
2.46306e-06
2.88436e-06
3.32366e-06
3.77477e-06
4.23176e-06
4.6891e-06
5.14177e-06
5.58539e-06
6.01631e-06
6.43192e-06
6.83102e-06
7.21467e-06
7.58692e-06
7.9563e-06
8.33758e-06
8.75401e-06
9.24349e-06
9.86129e-06
1.0682e-05
1.18212e-05
1.34327e-05
1.57636e-05
1.92062e-05
2.44038e-05
3.24354e-05
4.51296e-05
6.55776e-05
9.89394e-05
0.000153682
0.000243491
0.000390243
0.000628676
0.00101369
0.0016318
0.00259689
0.00411652
0.00658861
0.0105054
0.0167456
0.0267832
0.0404147
0.0558772
0.0721128
0.0884697
0.10454
0.120053
0.134813
0.148699
0.161599
0.17339
0.184275
0.194286
0.203068
0.210543
0.216643
0.221348
0.22473
0.226975
0.228351
0.229135
0.229555
0.229773
0.229885
0.229941
0.22997
0.229984
0.229992
0.229996
0.229998
0.229999
0.23
0.23
0.23
0.23
0.23
0.23
3.88133e-11
1.69331e-10
3.87563e-10
7.5048e-10
1.35051e-09
2.33605e-09
3.94251e-09
6.538e-09
1.06886e-08
1.72478e-08
2.74736e-08
4.31702e-08
6.68446e-08
1.01844e-07
1.52415e-07
2.23683e-07
3.21359e-07
4.51094e-07
6.17953e-07
8.25618e-07
1.07585e-06
1.36828e-06
1.70055e-06
2.06865e-06
2.46748e-06
2.89124e-06
3.33383e-06
3.78916e-06
4.25136e-06
4.71494e-06
5.17489e-06
5.62684e-06
6.06718e-06
6.4932e-06
6.9035e-06
7.2988e-06
7.68281e-06
8.064e-06
8.45901e-06
8.89493e-06
9.40904e-06
1.00616e-05
1.0933e-05
1.21328e-05
1.3834e-05
1.6302e-05
1.99609e-05
2.55094e-05
3.41231e-05
4.77977e-05
6.99064e-05
0.000106071
0.000165496
0.000263035
0.000422403
0.00068123
0.00109897
0.00176933
0.00280931
0.00445959
0.00713788
0.0113788
0.0181401
0.0290282
0.0431627
0.0589134
0.0752968
0.0917049
0.107757
0.123189
0.137823
0.15154
0.164224
0.175788
0.186524
0.196261
0.204747
0.211909
0.217692
0.222097
0.225223
0.227272
0.228517
0.229221
0.229598
0.229794
0.229895
0.229946
0.229972
0.229986
0.229992
0.229996
0.229998
0.229999
0.23
0.23
0.23
0.23
0.23
0.23
3.90999e-11
1.70567e-10
3.90334e-10
7.55693e-10
1.35954e-09
2.35097e-09
3.96631e-09
6.57486e-09
1.07441e-08
1.73293e-08
2.75901e-08
4.33328e-08
6.70639e-08
1.02123e-07
1.52765e-07
2.24111e-07
3.21808e-07
4.51579e-07
6.18512e-07
8.2634e-07
1.0769e-06
1.36991e-06
1.70311e-06
2.07264e-06
2.47348e-06
2.89993e-06
3.34598e-06
3.80562e-06
4.27306e-06
4.74284e-06
5.20992e-06
5.66984e-06
6.11881e-06
6.55404e-06
6.9737e-06
7.37903e-06
7.77498e-06
8.17158e-06
8.58467e-06
9.04449e-06
9.59149e-06
1.02795e-05
1.11934e-05
1.24561e-05
1.42518e-05
1.68658e-05
2.07561e-05
2.66806e-05
3.59187e-05
5.0644e-05
7.45269e-05
0.000113669
0.00017803
0.000283635
0.000456007
0.00073553
0.00118582
0.00190678
0.00302175
0.00483754
0.00771461
0.0122789
0.0195618
0.0312819
0.0458943
0.0619065
0.0784115
0.0948465
0.110858
0.126189
0.140679
0.154213
0.166664
0.178012
0.188619
0.19808
0.206277
0.213143
0.218633
0.222767
0.225662
0.227538
0.228667
0.229299
0.229638
0.229814
0.229905
0.229951
0.229975
0.229987
0.229993
0.229996
0.229998
0.229999
0.23
0.23
0.23
0.23
0.23
0.23
3.93132e-11
1.71486e-10
3.92389e-10
7.59543e-10
1.36619e-09
2.36191e-09
3.98372e-09
6.60182e-09
1.07848e-08
1.73889e-08
2.76747e-08
4.34481e-08
6.72158e-08
1.02324e-07
1.53044e-07
2.24456e-07
3.22236e-07
4.52123e-07
6.19238e-07
8.27365e-07
1.07841e-06
1.37218e-06
1.70651e-06
2.07763e-06
2.48063e-06
2.90986e-06
3.3594e-06
3.82325e-06
4.2956e-06
4.771e-06
5.2444e-06
5.71103e-06
6.16729e-06
6.61069e-06
7.04083e-06
7.45859e-06
7.8686e-06
8.28295e-06
8.71913e-06
9.20127e-06
9.77175e-06
1.04919e-05
1.14509e-05
1.27792e-05
1.46735e-05
1.744e-05
2.15732e-05
2.78944e-05
3.77945e-05
5.3638e-05
7.94144e-05
0.00012174
0.000191393
0.000305678
0.000492115
0.000794197
0.00128036
0.00205561
0.0032556
0.00521491
0.00831016
0.0132146
0.0210361
0.0334946
0.0485217
0.0647515
0.0813474
0.0977877
0.113744
0.128966
0.143308
0.15666
0.168886
0.180063
0.190487
0.199701
0.207637
0.214233
0.219458
0.223347
0.226039
0.227765
0.228793
0.229366
0.229671
0.229831
0.229913
0.229955
0.229976
0.229988
0.229993
0.229996
0.229998
0.229999
0.23
0.23
0.23
0.23
0.23
0.23
3.94756e-11
1.72185e-10
3.93943e-10
7.6244e-10
1.37116e-09
2.37003e-09
3.99655e-09
6.62156e-09
1.08144e-08
1.74325e-08
2.77377e-08
4.35376e-08
6.73402e-08
1.02499e-07
1.53267e-07
2.24754e-07
3.22642e-07
4.52697e-07
6.20075e-07
8.28608e-07
1.08027e-06
1.37493e-06
1.7105e-06
2.08327e-06
2.48839e-06
2.92029e-06
3.37305e-06
3.84066e-06
4.31729e-06
4.79755e-06
5.27657e-06
5.75045e-06
6.21537e-06
6.6684e-06
7.11024e-06
7.54204e-06
7.96855e-06
8.39784e-06
8.84831e-06
9.34875e-06
9.94291e-06
1.06952e-05
1.16994e-05
1.30938e-05
1.50879e-05
1.80097e-05
2.23913e-05
2.9121e-05
3.97059e-05
5.67117e-05
8.44632e-05
0.000130121
0.000205332
0.000328775
0.000530142
0.000856358
0.00138128
0.00221491
0.00350932
0.00562071
0.00895917
0.0142567
0.0227266
0.0357024
0.0510247
0.0674054
0.0840545
0.10048
0.116367
0.131478
0.145679
0.158859
0.170882
0.181904
0.192128
0.201124
0.208827
0.215183
0.220172
0.223847
0.226362
0.227957
0.228901
0.229422
0.2297
0.229845
0.22992
0.229958
0.229978
0.229988
0.229994
0.229997
0.229999
0.229999
0.23
0.23
0.23
0.23
0.23
0.23
3.96058e-11
1.72745e-10
3.9519e-10
7.64761e-10
1.37514e-09
2.37653e-09
4.00684e-09
6.63747e-09
1.08386e-08
1.74685e-08
2.77905e-08
4.36137e-08
6.74481e-08
1.02644e-07
1.53468e-07
2.25042e-07
3.23069e-07
4.53334e-07
6.21027e-07
8.30024e-07
1.08234e-06
1.37791e-06
1.71469e-06
2.08902e-06
2.49608e-06
2.93035e-06
3.386e-06
3.8573e-06
4.33857e-06
4.82434e-06
5.3095e-06
5.79089e-06
6.26502e-06
6.72972e-06
7.18225e-06
7.62422e-06
8.06065e-06
8.50195e-06
8.96667e-06
9.48474e-06
1.01017e-05
1.0885e-05
1.1933e-05
1.33918e-05
1.54834e-05
1.85575e-05
2.3184e-05
3.03177e-05
4.15826e-05
5.97447e-05
8.94626e-05
0.000138438
0.000219178
0.000351726
0.00056793
0.000918114
0.00148149
0.00237183
0.00375937
0.00602377
0.00960645
0.0152997
0.0244246
0.0377924
0.0533349
0.0698219
0.0864993
0.102898
0.118709
0.133714
0.147781
0.1608
0.172645
0.183535
0.193575
0.202371
0.209865
0.216007
0.220786
0.224273
0.226635
0.228119
0.228991
0.22947
0.229724
0.229857
0.229926
0.229961
0.22998
0.229989
0.229994
0.229997
0.229999
0.23
0.23
0.23
0.23
0.23
0.23
0.23
3.97154e-11
1.73216e-10
3.96238e-10
7.66712e-10
1.37848e-09
2.38201e-09
4.01554e-09
6.651e-09
1.08593e-08
1.75e-08
2.78379e-08
4.36846e-08
6.75528e-08
1.02794e-07
1.5369e-07
2.25365e-07
3.23536e-07
4.54016e-07
6.22026e-07
8.31487e-07
1.08447e-06
1.38097e-06
1.71901e-06
2.09499e-06
2.50417e-06
2.94105e-06
3.39974e-06
3.87493e-06
4.36098e-06
4.8527e-06
5.34553e-06
5.83418e-06
6.31531e-06
6.78649e-06
7.24665e-06
7.6972e-06
8.14326e-06
8.59563e-06
9.07349e-06
9.60784e-06
1.0246e-05
1.10581e-05
1.21471e-05
1.36664e-05
1.58499e-05
1.90681e-05
2.3927e-05
3.14453e-05
4.33583e-05
6.26228e-05
9.42133e-05
0.00014634
0.000232318
0.000373464
0.000603632
0.000976292
0.00157559
0.00251751
0.00399114
0.00639623
0.010202
0.0162546
0.0259701
0.0396765
0.0554031
0.0719741
0.0886674
0.105034
0.120773
0.135677
0.149621
0.162492
0.174183
0.184971
0.194841
0.203459
0.210765
0.216716
0.221312
0.224635
0.226865
0.228256
0.229066
0.229509
0.229744
0.229867
0.229931
0.229964
0.229981
0.22999
0.229994
0.229997
0.229999
0.23
0.23
0.23
0.23
0.23
0.23
0.23
3.98114e-11
1.73629e-10
3.97159e-10
7.68432e-10
1.38144e-09
2.38687e-09
4.02331e-09
6.6632e-09
1.08783e-08
1.75292e-08
2.78828e-08
4.37541e-08
6.76616e-08
1.02966e-07
1.53943e-07
2.25735e-07
3.24081e-07
4.54819e-07
6.23205e-07
8.33201e-07
1.08693e-06
1.38444e-06
1.72384e-06
2.1016e-06
2.51308e-06
2.95296e-06
3.41566e-06
3.8949e-06
4.38518e-06
4.88128e-06
5.37837e-06
5.87214e-06
6.35902e-06
6.83651e-06
7.30363e-06
7.76187e-06
8.21653e-06
8.67876e-06
9.16831e-06
9.71719e-06
1.03744e-05
1.12125e-05
1.23387e-05
1.3913e-05
1.61806e-05
1.9531e-05
2.46039e-05
3.24766e-05
4.49877e-05
6.5269e-05
9.85834e-05
0.000153603
0.000244374
0.000393361
0.000636216
0.00102922
0.00166092
0.00264797
0.00419842
0.00672846
0.0107317
0.0171014
0.0273368
0.0413381
0.0572222
0.0738619
0.0905645
0.106899
0.12257
0.137383
0.151216
0.163953
0.175514
0.186224
0.195943
0.2044
0.21154
0.217324
0.221759
0.22494
0.227059
0.228369
0.229128
0.229542
0.229761
0.229876
0.229935
0.229966
0.229982
0.22999
0.229995
0.229998
0.229999
0.23
0.23
0.23
0.23
0.23
0.23
0.23
3.9898e-11
1.74002e-10
3.97992e-10
7.69992e-10
1.38414e-09
2.39132e-09
4.03048e-09
6.67456e-09
1.0896e-08
1.75569e-08
2.79257e-08
4.38208e-08
6.77657e-08
1.03131e-07
1.54209e-07
2.26158e-07
3.2474e-07
4.55823e-07
6.247e-07
8.35372e-07
1.09e-06
1.38867e-06
1.72951e-06
2.10901e-06
2.52253e-06
2.96469e-06
3.42976e-06
3.91196e-06
4.40566e-06
4.90559e-06
5.4069e-06
5.90533e-06
6.39733e-06
6.8804e-06
7.35361e-06
7.81853e-06
8.28064e-06
8.75137e-06
9.25104e-06
9.81255e-06
1.04863e-05
1.13474e-05
1.25065e-05
1.41297e-05
1.64723e-05
1.9941e-05
2.52058e-05
3.33972e-05
4.64462e-05
6.76417e-05
0.000102503
0.000160114
0.000255166
0.000411139
0.00066527
0.00107632
0.00173669
0.00276245
0.00438029
0.00701952
0.0111949
0.0178412
0.028529
0.0427849
0.058803
0.0754992
0.0922066
0.10851
0.12412
0.138851
0.152586
0.165203
0.176658
0.187308
0.196892
0.205209
0.212203
0.21784
0.222137
0.225197
0.22722
0.228464
0.22918
0.229569
0.229775
0.229883
0.229939
0.229968
0.229983
0.229991
0.229995
0.229998
0.229999
0.23
0.23
0.23
0.23
0.23
0.23
0.23
3.9977e-11
1.74342e-10
3.98755e-10
7.71423e-10
1.38662e-09
2.39546e-09
4.03719e-09
6.68526e-09
1.09129e-08
1.75834e-08
2.79673e-08
4.38857e-08
6.78669e-08
1.03288e-07
1.54452e-07
2.26533e-07
3.2531e-07
4.56678e-07
6.25957e-07
8.37181e-07
1.09255e-06
1.39217e-06
1.73419e-06
2.11515e-06
2.5304e-06
2.97458e-06
3.44198e-06
3.92683e-06
4.42354e-06
4.92681e-06
5.43182e-06
5.93429e-06
6.43069e-06
6.91854e-06
7.39693e-06
7.86749e-06
8.33586e-06
8.81375e-06
9.32194e-06
9.89415e-06
1.05821e-05
1.14628e-05
1.26504e-05
1.43161e-05
1.6724e-05
2.02963e-05
2.57293e-05
3.42006e-05
4.77224e-05
6.97209e-05
0.00010594
0.00016582
0.000264613
0.000426679
0.000690636
0.0011174
0.00180274
0.00286185
0.00453807
0.00727167
0.0115958
0.0184811
0.0295582
0.0440318
0.0601629
0.076905
0.0936141
0.109889
0.125444
0.140104
0.153753
0.166267
0.177629
0.188235
0.197702
0.205896
0.212764
0.218275
0.222453
0.22541
0.227354
0.228542
0.229222
0.229591
0.229787
0.229889
0.229942
0.229969
0.229984
0.229991
0.229995
0.229998
0.229999
0.23
0.23
0.23
0.23
0.23
0.23
0.23
4.00487e-11
1.74652e-10
3.99449e-10
7.72732e-10
1.3889e-09
2.39927e-09
4.04341e-09
6.69526e-09
1.09289e-08
1.76087e-08
2.80071e-08
4.39482e-08
6.79647e-08
1.0344e-07
1.54687e-07
2.26892e-07
3.25852e-07
4.57481e-07
6.27125e-07
8.38845e-07
1.09486e-06
1.39532e-06
1.73838e-06
2.1206e-06
2.53735e-06
2.98329e-06
3.45271e-06
3.93986e-06
4.43914e-06
4.94526e-06
5.4534e-06
5.95929e-06
6.45938e-06
6.9512e-06
7.43387e-06
7.90908e-06
8.38259e-06
8.86633e-06
9.38152e-06
9.96255e-06
1.06623e-05
1.15594e-05
1.2771e-05
1.44727e-05
1.69363e-05
2.05969e-05
2.61738e-05
3.48848e-05
4.88115e-05
7.14975e-05
0.000108876
0.00017069
0.000272663
0.000439892
0.000712137
0.00115208
0.00185822
0.00294864
0.00467414
0.00748815
0.0119393
0.0190287
0.0304378
0.0450954
0.0613203
0.0780991
0.0948073
0.111056
0.126563
0.141161
0.154736
0.167161
0.178449
0.189017
0.198382
0.206472
0.213233
0.218638
0.222716
0.225587
0.227463
0.228606
0.229257
0.229609
0.229796
0.229893
0.229944
0.22997
0.229984
0.229991
0.229995
0.229998
0.229999
0.23
0.23
0.23
0.23
0.23
0.23
0.23
4.01127e-11
1.74929e-10
4.00071e-10
7.73907e-10
1.39096e-09
2.40272e-09
4.04907e-09
6.70442e-09
1.09436e-08
1.7632e-08
2.80442e-08
4.40067e-08
6.80563e-08
1.03583e-07
1.54908e-07
2.27228e-07
3.26356e-07
4.58224e-07
6.28199e-07
8.40361e-07
1.09695e-06
1.39814e-06
1.74211e-06
2.12541e-06
2.54345e-06
2.99089e-06
3.46202e-06
3.9511e-06
4.45253e-06
4.96103e-06
5.47177e-06
5.98046e-06
6.48357e-06
6.97861e-06
7.46473e-06
7.94366e-06
8.42126e-06
8.90966e-06
9.43042e-06
1.00185e-05
1.07277e-05
1.16383e-05
1.28695e-05
1.46008e-05
1.71104e-05
2.08441e-05
2.65404e-05
3.54506e-05
4.97143e-05
7.29724e-05
0.000111317
0.000174741
0.000279367
0.000450914
0.000730119
0.0011812
0.00190503
0.0030223
0.00478986
0.00767214
0.012231
0.0194939
0.0311813
0.0459916
0.062293
0.0791
0.0958051
0.11203
0.127495
0.142041
0.155554
0.167904
0.179139
0.189653
0.19894
0.206946
0.213619
0.218935
0.22293
0.22573
0.227553
0.228657
0.229285
0.229624
0.229803
0.229897
0.229946
0.229971
0.229985
0.229992
0.229995
0.229998
0.229999
0.23
0.23
0.23
0.23
0.23
0.23
0.23
4.01682e-11
1.75169e-10
4.00611e-10
7.7493e-10
1.39275e-09
2.40575e-09
4.05406e-09
6.71251e-09
1.09566e-08
1.76529e-08
2.80773e-08
4.4059e-08
6.81386e-08
1.03711e-07
1.55106e-07
2.27529e-07
3.26807e-07
4.58886e-07
6.29149e-07
8.41695e-07
1.09878e-06
1.40059e-06
1.74532e-06
2.12954e-06
2.54865e-06
2.99732e-06
3.46986e-06
3.96053e-06
4.46371e-06
4.97414e-06
5.48696e-06
5.9979e-06
6.5034e-06
7.00099e-06
7.4898e-06
7.97162e-06
8.45236e-06
8.94435e-06
9.46941e-06
1.0063e-05
1.07796e-05
1.17007e-05
1.29474e-05
1.47021e-05
1.72481e-05
2.10399e-05
2.68309e-05
3.58988e-05
5.04289e-05
7.41378e-05
0.000113241
0.000177927
0.000284627
0.000459553
0.000744234
0.00120418
0.00194242
0.00308241
0.00488776
0.00782703
0.0124753
0.0198829
0.0318002
0.0467343
0.0630957
0.079923
0.096623
0.112826
0.128256
0.142758
0.156219
0.168507
0.179703
0.190161
0.199386
0.207325
0.213928
0.219173
0.223101
0.225845
0.227623
0.228698
0.229307
0.229636
0.229809
0.2299
0.229948
0.229972
0.229985
0.229992
0.229996
0.229998
0.229999
0.23
0.23
0.23
0.23
0.23
0.23
0.23
4.02142e-11
1.75368e-10
4.01059e-10
7.7578e-10
1.39425e-09
2.40827e-09
4.05823e-09
6.71931e-09
1.09676e-08
1.76705e-08
2.81053e-08
4.41035e-08
6.82086e-08
1.0382e-07
1.55273e-07
2.27784e-07
3.27187e-07
4.59442e-07
6.29945e-07
8.42808e-07
1.1003e-06
1.40261e-06
1.74796e-06
2.13292e-06
2.55289e-06
3.00254e-06
3.4762e-06
3.96811e-06
4.47267e-06
4.9846e-06
5.49904e-06
6.0117e-06
6.51903e-06
7.01854e-06
7.50937e-06
7.99334e-06
8.47642e-06
8.97106e-06
9.49931e-06
1.0097e-05
1.08192e-05
1.17483e-05
1.30068e-05
1.47794e-05
1.73532e-05
2.11891e-05
2.70519e-05
3.62385e-05
5.09671e-05
7.50077e-05
0.000114659
0.000180234
0.000288345
0.000465456
0.000753432
0.00121816
0.00196302
0.00311094
0.00498763
0.0079606
0.0126753
0.0201962
0.0322993
0.0473302
0.0637366
0.0805772
0.0972709
0.113455
0.128855
0.143321
0.15674
0.168978
0.180146
0.190558
0.199733
0.207619
0.214167
0.219357
0.223234
0.225933
0.227678
0.22873
0.229324
0.229645
0.229814
0.229903
0.229949
0.229973
0.229985
0.229992
0.229996
0.229998
0.229999
0.23
0.23
0.23
0.23
0.23
0.23
0.23
4.02495e-11
1.7552e-10
4.01404e-10
7.76434e-10
1.3954e-09
2.41023e-09
4.06146e-09
6.72459e-09
1.09761e-08
1.76842e-08
2.81272e-08
4.41383e-08
6.82633e-08
1.03906e-07
1.55405e-07
2.27983e-07
3.27484e-07
4.59876e-07
6.30564e-07
8.43669e-07
1.10147e-06
1.40417e-06
1.74998e-06
2.13549e-06
2.55611e-06
3.0065e-06
3.48099e-06
3.97382e-06
4.47939e-06
4.99242e-06
5.50803e-06
6.02194e-06
6.53059e-06
7.03147e-06
7.52374e-06
8.00922e-06
8.49395e-06
8.99045e-06
9.52096e-06
1.01216e-05
1.08479e-05
1.17828e-05
1.30501e-05
1.48361e-05
1.74307e-05
2.12999e-05
2.72171e-05
3.64944e-05
5.1376e-05
7.56754e-05
0.000115762
0.00018206
0.000291362
0.00047042
0.000761568
0.00123149
0.00198491
0.0031467
0.00504812
0.00805582
0.0128252
0.0204349
0.0326738
0.0477761
0.0642154
0.0810654
0.0977535
0.113922
0.129299
0.143738
0.157126
0.169327
0.18047
0.190848
0.199987
0.207834
0.214341
0.219492
0.22333
0.225997
0.227718
0.228753
0.229336
0.229651
0.229818
0.229904
0.22995
0.229973
0.229986
0.229992
0.229996
0.229998
0.229999
0.23
0.23
0.23
0.23
0.23
0.23
0.23
4.02733e-11
1.75623e-10
4.01636e-10
7.76876e-10
1.39618e-09
2.41155e-09
4.06365e-09
6.72816e-09
1.09819e-08
1.76935e-08
2.81422e-08
4.4162e-08
6.83007e-08
1.03964e-07
1.55495e-07
2.28119e-07
3.27687e-07
4.60171e-07
6.30983e-07
8.44253e-07
1.10226e-06
1.40522e-06
1.75135e-06
2.13722e-06
2.55827e-06
3.00915e-06
3.48418e-06
3.97762e-06
4.48386e-06
4.9976e-06
5.51399e-06
6.02871e-06
6.5382e-06
7.03997e-06
7.53315e-06
8.01959e-06
8.50535e-06
9.00304e-06
9.53502e-06
1.01376e-05
1.08666e-05
1.18055e-05
1.30787e-05
1.48738e-05
1.74828e-05
2.1375e-05
2.73299e-05
3.66704e-05
5.16593e-05
7.61417e-05
0.000116538
0.000183356
0.00029352
0.000473993
0.000767449
0.00124111
0.00200031
0.00317123
0.00508759
0.00811847
0.0129245
0.0205937
0.0329213
0.0480709
0.0645322
0.0813885
0.098073
0.11423
0.129592
0.144013
0.157381
0.169558
0.180682
0.191038
0.200152
0.207974
0.214455
0.219579
0.223393
0.226039
0.227744
0.228768
0.229345
0.229655
0.22982
0.229906
0.22995
0.229974
0.229986
0.229992
0.229996
0.229998
0.229999
0.23
0.23
0.23
0.23
0.23
0.23
0.23
4.0285e-11
1.75674e-10
4.0175e-10
7.77092e-10
1.39656e-09
2.41219e-09
4.06471e-09
6.7299e-09
1.09847e-08
1.7698e-08
2.81493e-08
4.41734e-08
6.83186e-08
1.03992e-07
1.55538e-07
2.28184e-07
3.27784e-07
4.60312e-07
6.31185e-07
8.44534e-07
1.10265e-06
1.40573e-06
1.752e-06
2.13806e-06
2.55931e-06
3.01043e-06
3.48573e-06
3.97947e-06
4.48603e-06
5.00012e-06
5.51688e-06
6.03199e-06
6.5419e-06
7.04408e-06
7.53771e-06
8.02461e-06
8.51087e-06
9.00913e-06
9.54181e-06
1.01453e-05
1.08756e-05
1.18166e-05
1.30927e-05
1.48925e-05
1.75087e-05
2.14126e-05
2.73867e-05
3.67595e-05
5.18033e-05
7.63794e-05
0.000116935
0.000184019
0.000294624
0.000475819
0.000770442
0.00124597
0.00200802
0.00318344
0.00510711
0.00814945
0.0129737
0.0206723
0.0330433
0.0482161
0.0646883
0.0815476
0.0982303
0.114382
0.129736
0.144148
0.157505
0.16967
0.180785
0.191129
0.200232
0.208041
0.214509
0.21962
0.223422
0.226058
0.227756
0.228775
0.229348
0.229657
0.229821
0.229906
0.229951
0.229974
0.229986
0.229992
0.229996
0.229998
0.229999
0.23
0.23
0.23
0.23
0.23
0.23
0.23
4.02847e-11
1.75673e-10
4.01747e-10
7.77087e-10
1.39655e-09
2.41217e-09
4.06469e-09
6.72986e-09
1.09846e-08
1.76979e-08
2.81492e-08
4.41732e-08
6.83183e-08
1.03991e-07
1.55537e-07
2.28184e-07
3.27783e-07
4.60311e-07
6.31184e-07
8.44532e-07
1.10264e-06
1.40573e-06
1.752e-06
2.13806e-06
2.55931e-06
3.01042e-06
3.48573e-06
3.97946e-06
4.48602e-06
5.00011e-06
5.51687e-06
6.03198e-06
6.54189e-06
7.04407e-06
7.53769e-06
8.02459e-06
8.51085e-06
9.0091e-06
9.54177e-06
1.01453e-05
1.08756e-05
1.18165e-05
1.30926e-05
1.48924e-05
1.75086e-05
2.14125e-05
2.73866e-05
3.67593e-05
5.18029e-05
7.63788e-05
0.000116934
0.000184018
0.000294622
0.000475816
0.000770437
0.00124596
0.00200801
0.00318343
0.00510709
0.00814941
0.0129736
0.0206722
0.0330432
0.048216
0.0646881
0.0815475
0.0982301
0.114382
0.129736
0.144148
0.157505
0.16967
0.180785
0.191129
0.200232
0.208041
0.214509
0.21962
0.223422
0.226058
0.227756
0.228775
0.229348
0.229657
0.229821
0.229906
0.229951
0.229974
0.229986
0.229992
0.229996
0.229998
0.229999
0.23
0.23
0.23
0.23
0.23
0.23
0.23
4.02723e-11
1.75619e-10
4.01627e-10
7.76859e-10
1.39615e-09
2.4115e-09
4.06357e-09
6.72804e-09
1.09817e-08
1.76932e-08
2.81417e-08
4.41614e-08
6.82998e-08
1.03963e-07
1.55493e-07
2.28117e-07
3.27684e-07
4.60167e-07
6.30979e-07
8.44247e-07
1.10226e-06
1.40521e-06
1.75133e-06
2.13721e-06
2.55825e-06
3.00913e-06
3.48416e-06
3.9776e-06
4.48384e-06
4.99758e-06
5.51396e-06
6.02868e-06
6.53817e-06
7.03993e-06
7.53311e-06
8.01954e-06
8.50529e-06
9.00296e-06
9.5349e-06
1.01374e-05
1.08664e-05
1.18052e-05
1.30784e-05
1.48735e-05
1.74823e-05
2.13744e-05
2.73292e-05
3.66694e-05
5.16579e-05
7.61396e-05
0.000116535
0.000183352
0.000293513
0.000473983
0.000767433
0.00124108
0.00200027
0.00317118
0.00508752
0.00811836
0.0129244
0.0205935
0.032921
0.0480705
0.0645318
0.0813881
0.0980726
0.11423
0.129592
0.144013
0.15738
0.169558
0.180682
0.191037
0.200152
0.207974
0.214455
0.219579
0.223393
0.226039
0.227744
0.228768
0.229345
0.229655
0.22982
0.229906
0.22995
0.229974
0.229986
0.229992
0.229996
0.229998
0.229999
0.23
0.23
0.23
0.23
0.23
0.23
0.23
4.02479e-11
1.75513e-10
4.01388e-10
7.76405e-10
1.39535e-09
2.41014e-09
4.06133e-09
6.72438e-09
1.09758e-08
1.76837e-08
2.81265e-08
4.41373e-08
6.82619e-08
1.03904e-07
1.55402e-07
2.2798e-07
3.27479e-07
4.59869e-07
6.30555e-07
8.43658e-07
1.10146e-06
1.40415e-06
1.74996e-06
2.13547e-06
2.55608e-06
3.00647e-06
3.48095e-06
3.97378e-06
4.47935e-06
4.99237e-06
5.50798e-06
6.02189e-06
6.53053e-06
7.03141e-06
7.52368e-06
8.00914e-06
8.49385e-06
8.99032e-06
9.5208e-06
1.01214e-05
1.08476e-05
1.17825e-05
1.30496e-05
1.48356e-05
1.743e-05
2.12991e-05
2.72159e-05
3.64927e-05
5.13735e-05
7.56716e-05
0.000115756
0.000182051
0.000291348
0.000470399
0.000761536
0.00123144
0.00198484
0.00314659
0.00504798
0.00805562
0.0128249
0.0204345
0.0326733
0.0477756
0.0642148
0.0810649
0.097753
0.113921
0.129299
0.143737
0.157126
0.169327
0.18047
0.190848
0.199986
0.207833
0.214341
0.219491
0.22333
0.225997
0.227718
0.228753
0.229336
0.229651
0.229818
0.229904
0.22995
0.229973
0.229986
0.229992
0.229996
0.229998
0.229999
0.23
0.23
0.23
0.23
0.23
0.23
0.23
4.02119e-11
1.75358e-10
4.01037e-10
7.75739e-10
1.39418e-09
2.40816e-09
4.05804e-09
6.71902e-09
1.09671e-08
1.76698e-08
2.81043e-08
4.41021e-08
6.82065e-08
1.03817e-07
1.55269e-07
2.27778e-07
3.2718e-07
4.59433e-07
6.29933e-07
8.42791e-07
1.10028e-06
1.40259e-06
1.74793e-06
2.13288e-06
2.55285e-06
3.0025e-06
3.47615e-06
3.96805e-06
4.47261e-06
4.98453e-06
5.49896e-06
6.01162e-06
6.51895e-06
7.01845e-06
7.50928e-06
7.99323e-06
8.4763e-06
8.97091e-06
9.49912e-06
1.00968e-05
1.08189e-05
1.17479e-05
1.30063e-05
1.47788e-05
1.73523e-05
2.11879e-05
2.70502e-05
3.6236e-05
5.09634e-05
7.50021e-05
0.00011465
0.00018022
0.000288324
0.000465425
0.000753384
0.00121809
0.00196292
0.0031108
0.00498743
0.00796032
0.012675
0.0201957
0.0322985
0.0473293
0.0637357
0.0805764
0.0972701
0.113454
0.128854
0.14332
0.15674
0.168977
0.180146
0.190557
0.199732
0.207618
0.214166
0.219357
0.223234
0.225933
0.227678
0.22873
0.229324
0.229645
0.229814
0.229903
0.229949
0.229973
0.229985
0.229992
0.229996
0.229998
0.229999
0.23
0.23
0.23
0.23
0.23
0.23
0.23
4.01654e-11
1.75157e-10
4.00584e-10
7.74879e-10
1.39266e-09
2.4056e-09
4.05382e-09
6.71214e-09
1.0956e-08
1.7652e-08
2.8076e-08
4.40572e-08
6.8136e-08
1.03707e-07
1.551e-07
2.27522e-07
3.26797e-07
4.58873e-07
6.29132e-07
8.41673e-07
1.09875e-06
1.40056e-06
1.74528e-06
2.12949e-06
2.5486e-06
2.99726e-06
3.46979e-06
3.96045e-06
4.46363e-06
4.97405e-06
5.48686e-06
5.99779e-06
6.50329e-06
7.00087e-06
7.48967e-06
7.97148e-06
8.45221e-06
8.94417e-06
9.4692e-06
1.00628e-05
1.07793e-05
1.17003e-05
1.29468e-05
1.47014e-05
1.72471e-05
2.10384e-05
2.68288e-05
3.58957e-05
5.04241e-05
7.41305e-05
0.00011323
0.00017791
0.0002846
0.000459512
0.000744173
0.00120409
0.00194229
0.00308223
0.00488751
0.00782668
0.0124748
0.0198821
0.0317991
0.0467331
0.0630945
0.0799219
0.0966221
0.112825
0.128255
0.142757
0.156218
0.168506
0.179703
0.190161
0.199386
0.207324
0.213927
0.219173
0.223101
0.225844
0.227623
0.228698
0.229307
0.229636
0.229809
0.2299
0.229948
0.229972
0.229985
0.229992
0.229996
0.229998
0.229999
0.23
0.23
0.23
0.23
0.23
0.23
0.23
4.01093e-11
1.74914e-10
4.00038e-10
7.73845e-10
1.39085e-09
2.40254e-09
4.04879e-09
6.70397e-09
1.09429e-08
1.7631e-08
2.80426e-08
4.40044e-08
6.8053e-08
1.03578e-07
1.54901e-07
2.27219e-07
3.26344e-07
4.58208e-07
6.28177e-07
8.40333e-07
1.09692e-06
1.39809e-06
1.74205e-06
2.12535e-06
2.54338e-06
2.9908e-06
3.46192e-06
3.95099e-06
4.45242e-06
4.96091e-06
5.47163e-06
5.98031e-06
6.48342e-06
6.97845e-06
7.46456e-06
7.94348e-06
8.42106e-06
8.90944e-06
9.43018e-06
1.00183e-05
1.07274e-05
1.16379e-05
1.28689e-05
1.46e-05
1.71092e-05
2.08425e-05
2.65381e-05
3.5447e-05
4.97089e-05
7.29641e-05
0.000111304
0.000174721
0.000279336
0.000450865
0.000730046
0.00118109
0.00190487
0.00302208
0.00478957
0.00767173
0.0122305
0.0194932
0.0311802
0.0459904
0.0622918
0.0790989
0.0958041
0.112029
0.127494
0.14204
0.155553
0.167903
0.179138
0.189653
0.19894
0.206945
0.213618
0.218935
0.22293
0.22573
0.227552
0.228657
0.229285
0.229624
0.229803
0.229897
0.229946
0.229971
0.229985
0.229992
0.229995
0.229998
0.229999
0.23
0.23
0.23
0.23
0.23
0.23
0.23
4.00447e-11
1.74635e-10
3.9941e-10
7.72659e-10
1.38878e-09
2.39906e-09
4.04307e-09
6.69474e-09
1.09281e-08
1.76075e-08
2.80053e-08
4.39456e-08
6.79608e-08
1.03435e-07
1.54679e-07
2.26881e-07
3.25837e-07
4.57461e-07
6.27099e-07
8.3881e-07
1.09482e-06
1.39526e-06
1.73831e-06
2.12052e-06
2.53726e-06
2.98318e-06
3.45259e-06
3.93973e-06
4.43899e-06
4.94511e-06
5.45323e-06
5.9591e-06
6.45919e-06
6.95099e-06
7.43365e-06
7.90885e-06
8.38233e-06
8.86605e-06
9.38121e-06
9.9622e-06
1.06618e-05
1.15589e-05
1.27703e-05
1.44718e-05
1.6935e-05
2.05951e-05
2.61712e-05
3.48809e-05
4.88058e-05
7.14886e-05
0.000108863
0.000170669
0.00027263
0.000439842
0.000712061
0.00115197
0.00185806
0.00294841
0.00467382
0.00748771
0.0119387
0.0190279
0.0304365
0.045094
0.061319
0.0780979
0.0948061
0.111055
0.126562
0.14116
0.154735
0.16716
0.178448
0.189016
0.198382
0.206471
0.213233
0.218637
0.222715
0.225586
0.227463
0.228606
0.229257
0.229609
0.229796
0.229893
0.229944
0.22997
0.229984
0.229991
0.229995
0.229998
0.229999
0.23
0.23
0.23
0.23
0.23
0.23
0.23
3.99724e-11
1.74323e-10
3.9871e-10
7.7134e-10
1.38648e-09
2.39522e-09
4.0368e-09
6.68466e-09
1.0912e-08
1.7582e-08
2.79653e-08
4.38827e-08
6.78624e-08
1.03282e-07
1.54443e-07
2.2652e-07
3.25293e-07
4.56654e-07
6.25925e-07
8.3714e-07
1.09249e-06
1.3921e-06
1.73411e-06
2.11506e-06
2.53029e-06
2.97445e-06
3.44184e-06
3.92667e-06
4.42336e-06
4.92662e-06
5.43161e-06
5.93406e-06
6.43045e-06
6.91828e-06
7.39664e-06
7.86719e-06
8.33553e-06
8.81339e-06
9.32155e-06
9.89371e-06
1.05816e-05
1.14622e-05
1.26496e-05
1.43151e-05
1.67227e-05
2.02944e-05
2.57266e-05
3.41966e-05
4.77164e-05
6.97118e-05
0.000105926
0.000165798
0.000264579
0.000426628
0.00069056
0.00111729
0.00180258
0.00286162
0.00453775
0.00727123
0.0115952
0.0184802
0.0295569
0.0440303
0.0601614
0.0769036
0.0936128
0.109888
0.125443
0.140103
0.153752
0.166267
0.177629
0.188234
0.197701
0.205895
0.212763
0.218275
0.222453
0.22541
0.227353
0.228542
0.229222
0.229591
0.229786
0.229889
0.229942
0.229969
0.229984
0.229991
0.229995
0.229998
0.229999
0.23
0.23
0.23
0.23
0.23
0.23
0.23
3.9893e-11