/*--------------------------------*- C++ -*----------------------------------*\
  =========                 |
  \\      /  F ield         | OpenFOAM: The Open Source CFD Toolbox
   \\    /   O peration     | Website:  https://openfoam.org
    \\  /    A nd           | Version:  8
     \\/     M anipulation  |
\*---------------------------------------------------------------------------*/
FoamFile
{
    version     2.0;
    format      ascii;
    class       surfaceScalarField;
    location    "0.15/fluid";
    object      phi;
}
// * * * * * * * * * * * * * * * * * * * * * * * * * * * * * * * * * * * * * //

dimensions      [1 0 -1 0 0 0 0];

internalField   nonuniform List<scalar> 
7860
(
6.57333e-07
-1.71678e-08
6.54788e-07
-5.15658e-08
6.51127e-07
-8.57621e-08
6.46292e-07
-1.19613e-07
6.40185e-07
-1.53123e-07
6.32671e-07
-1.8626e-07
6.23593e-07
-2.18958e-07
6.12775e-07
-2.51124e-07
6.00035e-07
-2.82627e-07
5.85193e-07
-3.13298e-07
5.6809e-07
-3.42926e-07
5.48641e-07
-3.71246e-07
5.26888e-07
-3.97932e-07
5.02895e-07
-4.2255e-07
4.76799e-07
-4.44581e-07
4.48834e-07
-4.63439e-07
4.19338e-07
-4.7855e-07
3.8874e-07
-4.89461e-07
3.57537e-07
-4.95964e-07
3.26225e-07
-4.98198e-07
2.95234e-07
-4.96642e-07
2.64904e-07
-4.92029e-07
2.3547e-07
-4.85186e-07
2.07073e-07
-4.76894e-07
1.79775e-07
-4.67787e-07
1.53592e-07
-4.58323e-07
1.2853e-07
-4.48789e-07
1.04584e-07
-4.39344e-07
8.17086e-08
-4.30049e-07
5.9842e-08
-4.20915e-07
3.8926e-08
-4.11925e-07
1.89121e-08
-4.03053e-07
-2.42111e-10
-3.94273e-07
-1.86068e-08
-3.8555e-07
-3.61807e-08
-3.76901e-07
-5.29952e-08
-3.68309e-07
-6.90757e-08
-3.59766e-07
-8.44402e-08
-3.5123e-07
-9.91058e-08
-3.42706e-07
-1.13089e-07
-3.34208e-07
-1.26405e-07
-3.25753e-07
-1.39071e-07
-3.1736e-07
-1.51102e-07
-3.09046e-07
-1.62515e-07
-3.00833e-07
-1.73326e-07
-2.92741e-07
-1.83551e-07
-2.84792e-07
-1.93207e-07
-2.77006e-07
-2.02309e-07
-2.69403e-07
-2.10874e-07
-2.62004e-07
-2.18919e-07
-2.5483e-07
-2.26459e-07
-2.479e-07
-2.33513e-07
-2.41238e-07
-2.40097e-07
-2.34867e-07
-2.46232e-07
-2.28815e-07
-2.51939e-07
-2.23116e-07
-2.57248e-07
-2.17812e-07
-2.62195e-07
-2.12958e-07
-2.66832e-07
-2.08629e-07
-2.71226e-07
-2.04945e-07
-2.75473e-07
-2.02056e-07
-2.79706e-07
-2.00097e-07
-2.84129e-07
-1.99456e-07
-2.89072e-07
-2.00643e-07
-2.94941e-07
-2.0455e-07
-3.01945e-07
-2.12341e-07
-3.10051e-07
-2.22855e-07
-3.19224e-07
-2.35518e-07
-3.29493e-07
-2.50086e-07
-3.40947e-07
-2.66515e-07
-3.5374e-07
-2.84891e-07
-3.68091e-07
-3.05403e-07
-3.84306e-07
-3.2833e-07
-4.02796e-07
-3.54028e-07
-4.24102e-07
-3.82912e-07
-4.48919e-07
-4.15534e-07
-4.78082e-07
-4.5242e-07
-5.12473e-07
-4.93664e-07
-5.52735e-07
-5.38426e-07
-5.989e-07
-5.84281e-07
-6.50522e-07
-6.26607e-07
-7.06289e-07
-6.59137e-07
-7.63972e-07
-6.76332e-07
-8.20898e-07
-6.76318e-07
-8.74745e-07
-6.61395e-07
-9.24059e-07
-6.35821e-07
-9.6821e-07
-6.03475e-07
-1.00713e-06
-5.67131e-07
-1.04098e-06
-5.2841e-07
-1.06993e-06
-4.88206e-07
-1.09423e-06
-4.46999e-07
-1.11446e-06
-4.05063e-07
-1.13114e-06
-3.62649e-07
-1.14477e-06
-3.19959e-07
-1.15579e-06
-2.77146e-07
-1.16456e-06
-2.34322e-07
-1.17142e-06
-1.91555e-07
-1.17661e-06
-1.48872e-07
-1.18035e-06
-1.06259e-07
-1.18279e-06
-6.36624e-08
-2.11648e-08
6.58008e-07
-1.66421e-08
6.56058e-07
-4.96159e-08
6.52584e-07
-8.22894e-08
6.47614e-07
-1.14644e-07
6.41105e-07
-1.46616e-07
6.3298e-07
-1.78138e-07
6.23146e-07
-2.09128e-07
6.11504e-07
-2.39486e-07
5.97957e-07
-2.69086e-07
5.82428e-07
-2.97773e-07
5.64862e-07
-3.25361e-07
5.45253e-07
-3.51629e-07
5.23655e-07
-3.76307e-07
5.00153e-07
-3.98993e-07
4.7489e-07
-4.19215e-07
4.4808e-07
-4.36458e-07
4.20007e-07
-4.50219e-07
3.91023e-07
-4.6011e-07
3.61515e-07
-4.65976e-07
3.31877e-07
-4.67964e-07
3.02451e-07
-4.66524e-07
2.73507e-07
-4.62326e-07
2.45246e-07
-4.56125e-07
2.17788e-07
-4.48621e-07
1.91192e-07
-4.40383e-07
1.65477e-07
-4.31823e-07
1.40653e-07
-4.23213e-07
1.16727e-07
-4.14701e-07
9.36836e-08
-4.06328e-07
7.15026e-08
-3.98095e-07
5.01603e-08
-3.89981e-07
2.96336e-08
-3.8196e-07
9.89875e-09
-3.74005e-07
-9.0502e-09
-3.661e-07
-2.72379e-08
-3.58241e-07
-4.46856e-08
-3.50417e-07
-6.14049e-08
-3.42628e-07
-7.74071e-08
-3.34831e-07
-9.2706e-08
-3.27031e-07
-1.07315e-07
-3.19243e-07
-1.21251e-07
-3.11481e-07
-1.34527e-07
-3.03764e-07
-1.47161e-07
-2.9611e-07
-1.59167e-07
-2.88539e-07
-1.70563e-07
-2.81072e-07
-1.81367e-07
-2.73729e-07
-1.91598e-07
-2.66529e-07
-2.01272e-07
-2.59494e-07
-2.10411e-07
-2.52643e-07
-2.19034e-07
-2.45996e-07
-2.27162e-07
-2.39572e-07
-2.34817e-07
-2.33393e-07
-2.42023e-07
-2.27481e-07
-2.48809e-07
-2.2186e-07
-2.55207e-07
-2.16558e-07
-2.61258e-07
-2.11613e-07
-2.67013e-07
-2.07068e-07
-2.72536e-07
-2.02985e-07
-2.77906e-07
-1.99475e-07
-2.83236e-07
-1.96649e-07
-2.88662e-07
-1.94628e-07
-2.94362e-07
-1.93765e-07
-3.00507e-07
-1.94593e-07
-3.07231e-07
-1.98071e-07
-3.1484e-07
-2.05095e-07
-3.23493e-07
-2.14675e-07
-3.33275e-07
-2.2632e-07
-3.44268e-07
-2.39803e-07
-3.56578e-07
-2.55058e-07
-3.70354e-07
-2.72141e-07
-3.85795e-07
-2.91201e-07
-4.03158e-07
-3.1247e-07
-4.22771e-07
-3.36252e-07
-4.45031e-07
-3.62914e-07
-4.70401e-07
-3.92973e-07
-4.99426e-07
-4.26886e-07
-5.32686e-07
-4.64695e-07
-5.70647e-07
-5.05588e-07
-6.13436e-07
-5.47281e-07
-6.60735e-07
-5.85295e-07
-7.11438e-07
-6.13908e-07
-7.6365e-07
-6.28447e-07
-8.15222e-07
-6.27708e-07
-8.64415e-07
-6.13996e-07
-9.10183e-07
-5.91046e-07
-9.52037e-07
-5.62132e-07
-9.8987e-07
-5.29551e-07
-1.02373e-06
-4.94673e-07
-1.05369e-06
-4.58304e-07
-1.07985e-06
-4.20869e-07
-1.1024e-06
-3.8252e-07
-1.1216e-06
-3.43458e-07
-1.1377e-06
-3.03857e-07
-1.15099e-06
-2.63865e-07
-1.16171e-06
-2.236e-07
-1.17011e-06
-1.83154e-07
-1.17639e-06
-1.4259e-07
-1.18071e-06
-1.01946e-07
-1.18312e-06
-6.12482e-08
-2.04642e-08
6.57651e-07
-1.57592e-08
6.55125e-07
-4.70909e-08
6.50976e-07
-7.81411e-08
6.45173e-07
-1.08842e-07
6.37683e-07
-1.39128e-07
6.28468e-07
-1.68926e-07
6.1749e-07
-1.98154e-07
6.04717e-07
-2.2672e-07
5.90136e-07
-2.54511e-07
5.73749e-07
-2.81393e-07
5.55584e-07
-3.07199e-07
5.35674e-07
-3.31716e-07
5.14056e-07
-3.5467e-07
4.90821e-07
-3.75713e-07
4.66124e-07
-3.9443e-07
4.40177e-07
-4.1036e-07
4.13251e-07
-4.23056e-07
3.85657e-07
-4.32177e-07
3.57719e-07
-4.37592e-07
3.29748e-07
-4.39443e-07
3.0202e-07
-4.38149e-07
2.74738e-07
-4.34326e-07
2.48047e-07
-4.28669e-07
2.22015e-07
-4.2182e-07
1.96694e-07
-4.143e-07
1.721e-07
-4.06484e-07
1.48221e-07
-3.98618e-07
1.25035e-07
-3.9083e-07
1.02531e-07
-3.83173e-07
8.07063e-08
-3.75654e-07
5.9562e-08
-3.68255e-07
3.90988e-08
-3.60948e-07
1.93187e-08
-3.53708e-07
2.20242e-10
-3.46514e-07
-1.82137e-08
-3.39348e-07
-3.59751e-08
-3.32224e-07
-5.30692e-08
-3.25126e-07
-6.95011e-08
-3.18013e-07
-8.52785e-08
-3.10888e-07
-1.0041e-07
-3.03764e-07
-1.14907e-07
-2.96656e-07
-1.28779e-07
-2.8958e-07
-1.42039e-07
-2.82554e-07
-1.54701e-07
-2.75595e-07
-1.66782e-07
-2.68724e-07
-1.783e-07
-2.61957e-07
-1.89273e-07
-2.55315e-07
-1.99721e-07
-2.48816e-07
-2.09668e-07
-2.42479e-07
-2.19135e-07
-2.36321e-07
-2.28151e-07
-2.30361e-07
-2.36743e-07
-2.24615e-07
-2.44944e-07
-2.19104e-07
-2.52791e-07
-2.13847e-07
-2.60327e-07
-2.08867e-07
-2.67599e-07
-2.04195e-07
-2.74667e-07
-1.99867e-07
-2.81597e-07
-1.95936e-07
-2.88457e-07
-1.92517e-07
-2.95342e-07
-1.89689e-07
-3.02344e-07
-1.87585e-07
-3.09556e-07
-1.86564e-07
-3.17066e-07
-1.8718e-07
-3.24896e-07
-1.90489e-07
-3.33385e-07
-1.96976e-07
-3.42754e-07
-2.05788e-07
-3.53159e-07
-2.16511e-07
-3.64737e-07
-2.28949e-07
-3.77619e-07
-2.43049e-07
-3.91948e-07
-2.58863e-07
-4.07884e-07
-2.76535e-07
-4.25611e-07
-2.96287e-07
-4.45337e-07
-3.18417e-07
-4.67284e-07
-3.43298e-07
-4.91688e-07
-3.71462e-07
-5.18841e-07
-4.03319e-07
-5.49099e-07
-4.38813e-07
-5.82913e-07
-4.76935e-07
-6.20775e-07
-5.15146e-07
-6.6274e-07
-5.49115e-07
-7.08144e-07
-5.73661e-07
-7.55528e-07
-5.85049e-07
-8.03067e-07
-5.82857e-07
-8.49174e-07
-5.69508e-07
-8.92797e-07
-5.48319e-07
-9.33361e-07
-5.2203e-07
-9.7064e-07
-4.92503e-07
-1.00459e-06
-4.60836e-07
-1.03529e-06
-4.27656e-07
-1.06285e-06
-3.93329e-07
-1.0873e-06
-3.58084e-07
-1.10869e-06
-3.22079e-07
-1.1271e-06
-2.85444e-07
-1.14268e-06
-2.48292e-07
-1.15555e-06
-2.10728e-07
-1.16586e-06
-1.72839e-07
-1.17375e-06
-1.34701e-07
-1.17933e-06
-9.63705e-08
-1.18268e-06
-5.78971e-08
-1.93217e-08
6.5768e-07
-1.49059e-08
6.55095e-07
-4.45059e-08
6.50776e-07
-7.38232e-08
6.44726e-07
-1.02793e-07
6.36939e-07
-1.31344e-07
6.27409e-07
-1.59399e-07
6.16128e-07
-1.86878e-07
6.03094e-07
-2.13691e-07
5.8831e-07
-2.39734e-07
5.7179e-07
-2.6488e-07
5.53562e-07
-2.88977e-07
5.33676e-07
-3.11829e-07
5.12205e-07
-3.33186e-07
4.89265e-07
-3.52734e-07
4.6501e-07
-3.70099e-07
4.39643e-07
-3.84861e-07
4.13415e-07
-3.96617e-07
3.86603e-07
-4.05062e-07
3.59496e-07
-4.10079e-07
3.32364e-07
-4.11806e-07
3.05435e-07
-4.10634e-07
2.78892e-07
-4.07131e-07
2.5285e-07
-4.01937e-07
2.27396e-07
-3.95647e-07
2.02566e-07
-3.88748e-07
1.78379e-07
-3.81587e-07
1.54832e-07
-3.74385e-07
1.3192e-07
-3.67261e-07
1.09636e-07
-3.60264e-07
8.79738e-08
-3.53399e-07
6.69293e-08
-3.4665e-07
4.64999e-08
-3.3999e-07
2.66836e-08
-3.33392e-07
7.47786e-09
-3.26837e-07
-1.11124e-08
-3.20314e-07
-2.90976e-08
-3.13819e-07
-4.64789e-08
-3.07348e-07
-6.32573e-08
-3.00859e-07
-7.94366e-08
-2.94354e-07
-9.5022e-08
-2.87843e-07
-1.1002e-07
-2.81339e-07
-1.24439e-07
-2.74858e-07
-1.38292e-07
-2.68413e-07
-1.51591e-07
-2.62023e-07
-1.64351e-07
-2.55703e-07
-1.7659e-07
-2.49471e-07
-1.88327e-07
-2.43343e-07
-1.99582e-07
-2.37338e-07
-2.10378e-07
-2.31471e-07
-2.20741e-07
-2.25757e-07
-2.30699e-07
-2.20212e-07
-2.40282e-07
-2.14851e-07
-2.49526e-07
-2.09689e-07
-2.58468e-07
-2.04743e-07
-2.67152e-07
-2.00032e-07
-2.75623e-07
-1.95582e-07
-2.83936e-07
-1.91424e-07
-2.92148e-07
-1.87608e-07
-3.00312e-07
-1.84257e-07
-3.08505e-07
-1.81424e-07
-3.16784e-07
-1.79268e-07
-3.25203e-07
-1.78158e-07
-3.33809e-07
-1.78673e-07
-3.42588e-07
-1.81963e-07
-3.51883e-07
-1.88056e-07
-3.61928e-07
-1.96233e-07
-3.72899e-07
-2.06148e-07
-3.84943e-07
-2.17644e-07
-3.98196e-07
-2.30687e-07
-4.12795e-07
-2.4534e-07
-4.28881e-07
-2.6175e-07
-4.46614e-07
-2.80139e-07
-4.66176e-07
-3.00796e-07
-4.87766e-07
-3.24103e-07
-5.11632e-07
-3.50566e-07
-5.38107e-07
-3.80512e-07
-5.67608e-07
-4.13756e-07
-6.0058e-07
-4.49141e-07
-6.37332e-07
-4.84037e-07
-6.77746e-07
-5.14267e-07
-7.21024e-07
-5.35213e-07
-7.65764e-07
-5.4395e-07
-8.10423e-07
-5.40607e-07
-8.53764e-07
-5.27601e-07
-8.94993e-07
-5.07879e-07
-9.33656e-07
-4.83773e-07
-9.69531e-07
-4.5683e-07
-1.00252e-06
-4.27951e-07
-1.03258e-06
-3.97637e-07
-1.05975e-06
-3.66185e-07
-1.08406e-06
-3.33786e-07
-1.10556e-06
-3.00583e-07
-1.12431e-06
-2.66696e-07
-1.14037e-06
-2.32229e-07
-1.15382e-06
-1.97283e-07
-1.16471e-06
-1.61947e-07
-1.17311e-06
-1.26298e-07
-1.17908e-06
-9.04059e-08
-1.18264e-06
-5.43341e-08
-1.81392e-08
6.57612e-07
-1.3984e-08
6.54877e-07
-4.17713e-08
6.50346e-07
-6.92928e-08
6.44027e-07
-9.64761e-08
6.35929e-07
-1.23249e-07
6.26063e-07
-1.49536e-07
6.14442e-07
-1.75262e-07
6.01082e-07
-2.00339e-07
5.86012e-07
-2.24671e-07
5.69266e-07
-2.48144e-07
5.50897e-07
-2.70616e-07
5.30973e-07
-2.91908e-07
5.09586e-07
-3.11791e-07
4.8686e-07
-3.29979e-07
4.6295e-07
-3.46125e-07
4.38056e-07
-3.59848e-07
4.12406e-07
-3.70777e-07
3.86257e-07
-3.78634e-07
3.59866e-07
-3.83313e-07
3.33474e-07
-3.84942e-07
3.0728e-07
-3.83883e-07
2.81439e-07
-3.80668e-07
2.56055e-07
-3.75888e-07
2.31193e-07
-3.70098e-07
2.06882e-07
-3.63749e-07
1.83136e-07
-3.57164e-07
1.59955e-07
-3.50548e-07
1.37336e-07
-3.44012e-07
1.15274e-07
-3.37603e-07
9.37679e-08
-3.31323e-07
7.28139e-08
-3.25157e-07
5.24119e-08
-3.19078e-07
3.25618e-08
-3.13061e-07
1.3264e-08
-3.07085e-07
-5.48241e-09
-3.01138e-07
-2.36778e-08
-2.95219e-07
-4.13247e-08
-2.8932e-07
-5.84218e-08
-2.834e-07
-7.49704e-08
-2.77462e-07
-9.0974e-08
-2.71513e-07
-1.06439e-07
-2.65564e-07
-1.21374e-07
-2.59628e-07
-1.35788e-07
-2.53719e-07
-1.49695e-07
-2.4785e-07
-1.63107e-07
-2.42038e-07
-1.76041e-07
-2.36297e-07
-1.88514e-07
-2.30642e-07
-2.00546e-07
-2.25088e-07
-2.12161e-07
-2.1965e-07
-2.23383e-07
-2.1434e-07
-2.34238e-07
-2.09171e-07
-2.44758e-07
-2.04156e-07
-2.54973e-07
-1.99308e-07
-2.64919e-07
-1.94641e-07
-2.74634e-07
-1.90171e-07
-2.84158e-07
-1.85922e-07
-2.93534e-07
-1.81924e-07
-3.02807e-07
-1.78224e-07
-3.12021e-07
-1.74949e-07
-3.21247e-07
-1.72128e-07
-3.30505e-07
-1.69973e-07
-3.39843e-07
-1.68837e-07
-3.49294e-07
-1.69325e-07
-3.58859e-07
-1.72654e-07
-3.68866e-07
-1.78431e-07
-3.79536e-07
-1.86061e-07
-3.91042e-07
-1.95261e-07
-4.03528e-07
-2.0591e-07
-4.17128e-07
-2.17995e-07
-4.31971e-07
-2.31593e-07
-4.48192e-07
-2.46856e-07
-4.65939e-07
-2.64009e-07
-4.85379e-07
-2.83338e-07
-5.06695e-07
-3.05235e-07
-5.30126e-07
-3.30169e-07
-5.55982e-07
-3.58386e-07
-5.84639e-07
-3.89585e-07
-6.16464e-07
-4.22475e-07
-6.51672e-07
-4.54349e-07
-6.90082e-07
-4.81177e-07
-7.30944e-07
-4.98854e-07
-7.73048e-07
-5.05167e-07
-8.15114e-07
-5.00703e-07
-8.56122e-07
-4.87867e-07
-8.95404e-07
-4.69297e-07
-9.32553e-07
-4.46984e-07
-9.67346e-07
-4.22217e-07
-9.99649e-07
-3.95735e-07
-1.02938e-06
-3.67946e-07
-1.0565e-06
-3.39092e-07
-1.08096e-06
-3.0933e-07
-1.10277e-06
-2.78779e-07
-1.12193e-06
-2.47538e-07
-1.13846e-06
-2.15702e-07
-1.15238e-06
-1.83361e-07
-1.16372e-06
-1.50602e-07
-1.17252e-06
-1.17502e-07
-1.17879e-06
-8.41336e-08
-1.18256e-06
-5.05675e-08
-1.68775e-08
6.57606e-07
-1.30559e-08
6.54832e-07
-3.89977e-08
6.50227e-07
-6.46896e-08
6.43811e-07
-9.00615e-08
6.35602e-07
-1.15042e-07
6.25622e-07
-1.3956e-07
6.13895e-07
-1.6354e-07
6.00452e-07
-1.86902e-07
5.85328e-07
-2.09557e-07
5.6857e-07
-2.31397e-07
5.50236e-07
-2.52292e-07
5.304e-07
-2.72078e-07
5.09157e-07
-2.90545e-07
4.86628e-07
-3.07429e-07
4.62971e-07
-3.22414e-07
4.38374e-07
-3.35148e-07
4.13061e-07
-3.45295e-07
3.87275e-07
-3.52596e-07
3.61263e-07
-3.56956e-07
3.35255e-07
-3.58495e-07
3.09442e-07
-3.57549e-07
2.83967e-07
-3.54608e-07
2.58929e-07
-3.50221e-07
2.34383e-07
-3.44901e-07
2.10357e-07
-3.39068e-07
1.8686e-07
-3.33021e-07
1.63891e-07
-3.26952e-07
1.41445e-07
-3.20963e-07
1.19514e-07
-3.15096e-07
9.80941e-08
-3.09356e-07
7.71813e-08
-3.03725e-07
5.67734e-08
-2.98179e-07
3.68699e-08
-2.92693e-07
1.74706e-08
-2.87247e-07
-1.42448e-09
-2.8183e-07
-1.98176e-08
-2.76436e-07
-3.77069e-08
-2.71061e-07
-5.50915e-08
-2.65665e-07
-7.19737e-08
-2.60246e-07
-8.83572e-08
-2.54813e-07
-1.04247e-07
-2.49374e-07
-1.19651e-07
-2.4394e-07
-1.34575e-07
-2.38523e-07
-1.49032e-07
-2.33135e-07
-1.63033e-07
-2.27791e-07
-1.76593e-07
-2.22503e-07
-1.89729e-07
-2.17285e-07
-2.02458e-07
-2.12149e-07
-2.14801e-07
-2.07107e-07
-2.26781e-07
-2.0217e-07
-2.38421e-07
-1.9735e-07
-2.49749e-07
-1.92658e-07
-2.60792e-07
-1.88104e-07
-2.7158e-07
-1.83701e-07
-2.82145e-07
-1.79465e-07
-2.92518e-07
-1.75417e-07
-3.02734e-07
-1.71589e-07
-3.12824e-07
-1.6803e-07
-3.22827e-07
-1.6486e-07
-3.32798e-07
-1.62094e-07
-3.42758e-07
-1.59985e-07
-3.52747e-07
-1.58874e-07
-3.62803e-07
-1.59383e-07
-3.72984e-07
-1.6274e-07
-3.83576e-07
-1.68228e-07
-3.94779e-07
-1.75364e-07
-4.06749e-07
-1.83917e-07
-4.19623e-07
-1.93797e-07
-4.33526e-07
-2.0501e-07
-4.48586e-07
-2.17643e-07
-4.64934e-07
-2.31854e-07
-4.82719e-07
-2.47867e-07
-5.0211e-07
-2.65961e-07
-5.23302e-07
-2.86534e-07
-5.46552e-07
-3.09999e-07
-5.72193e-07
-3.36519e-07
-6.00602e-07
-3.65678e-07
-6.32122e-07
-3.96072e-07
-6.66883e-07
-4.24967e-07
-7.04577e-07
-4.48554e-07
-7.44351e-07
-4.63271e-07
-7.85007e-07
-4.67539e-07
-8.25384e-07
-4.62267e-07
-8.64628e-07
-4.49757e-07
-9.02204e-07
-4.3234e-07
-9.37796e-07
-4.11711e-07
-9.71225e-07
-3.88948e-07
-1.00238e-06
-3.64659e-07
-1.03118e-06
-3.39184e-07
-1.05757e-06
-3.12721e-07
-1.0815e-06
-2.85404e-07
-1.10295e-06
-2.57332e-07
-1.1219e-06
-2.28596e-07
-1.13832e-06
-1.99278e-07
-1.15222e-06
-1.69462e-07
-1.16359e-06
-1.3923e-07
-1.17244e-06
-1.08657e-07
-1.17876e-06
-7.78128e-08
-1.18255e-06
-4.67718e-08
-1.56105e-08
6.57592e-07
-1.21142e-08
6.54784e-07
-3.61901e-08
6.50129e-07
-6.00356e-08
6.43648e-07
-8.35822e-08
6.35365e-07
-1.06762e-07
6.25308e-07
-1.29507e-07
6.1351e-07
-1.51747e-07
6.00007e-07
-1.73407e-07
5.84844e-07
-1.94404e-07
5.68074e-07
-2.14639e-07
5.49763e-07
-2.33993e-07
5.2999e-07
-2.52315e-07
5.08855e-07
-2.69412e-07
4.86483e-07
-2.85042e-07
4.63028e-07
-2.98915e-07
4.38676e-07
-3.10707e-07
4.13641e-07
-3.20108e-07
3.88156e-07
-3.26882e-07
3.62457e-07
-3.30939e-07
3.3676e-07
-3.32392e-07
3.11247e-07
-3.31549e-07
2.86054e-07
-3.28865e-07
2.61273e-07
-3.24846e-07
2.36956e-07
-3.19968e-07
2.1313e-07
-3.14618e-07
1.89802e-07
-3.09076e-07
1.66969e-07
-3.03518e-07
1.44624e-07
-2.9804e-07
1.22761e-07
-2.9268e-07
1.01372e-07
-2.87442e-07
8.0453e-08
-2.82308e-07
6.00022e-08
-2.77257e-07
4.00186e-08
-2.72263e-07
2.05022e-08
-2.67308e-07
1.45246e-09
-2.62379e-07
-1.71329e-08
-2.57472e-07
-3.52546e-08
-2.5258e-07
-5.29122e-08
-2.47667e-07
-7.01068e-08
-2.42729e-07
-8.68408e-08
-2.37772e-07
-1.03118e-07
-2.32805e-07
-1.18943e-07
-2.27837e-07
-1.34325e-07
-2.22878e-07
-1.4927e-07
-2.17939e-07
-1.63792e-07
-2.13032e-07
-1.77901e-07
-2.08168e-07
-1.91613e-07
-2.03358e-07
-2.04943e-07
-1.98614e-07
-2.17909e-07
-1.93946e-07
-2.30531e-07
-1.89363e-07
-2.4283e-07
-1.84876e-07
-2.54827e-07
-1.80494e-07
-2.66547e-07
-1.76227e-07
-2.78013e-07
-1.72087e-07
-2.89252e-07
-1.68088e-07
-3.0029e-07
-1.64252e-07
-3.11153e-07
-1.6061e-07
-3.21865e-07
-1.5722e-07
-3.32463e-07
-1.54182e-07
-3.42974e-07
-1.51529e-07
-3.53428e-07
-1.49516e-07
-3.63865e-07
-1.48485e-07
-3.74333e-07
-1.49071e-07
-3.84992e-07
-1.52368e-07
-3.96068e-07
-1.57553e-07
-4.07727e-07
-1.64216e-07
-4.2011e-07
-1.72163e-07
-4.33345e-07
-1.81325e-07
-4.47554e-07
-1.91723e-07
-4.62862e-07
-2.03451e-07
-4.79403e-07
-2.16669e-07
-4.9733e-07
-2.31596e-07
-5.16823e-07
-2.48503e-07
-5.3809e-07
-2.67785e-07
-5.61405e-07
-2.89797e-07
-5.871e-07
-3.14624e-07
-6.15524e-07
-3.41754e-07
-6.4694e-07
-3.69707e-07
-6.81353e-07
-3.95776e-07
-7.18325e-07
-4.16403e-07
-7.56964e-07
-4.28533e-07
-7.96163e-07
-4.31105e-07
-8.34939e-07
-4.2524e-07
-8.72595e-07
-4.13115e-07
-9.08698e-07
-3.96788e-07
-9.42981e-07
-3.77711e-07
-9.75281e-07
-3.56789e-07
-1.00548e-06
-3.34525e-07
-1.0335e-06
-3.11201e-07
-1.05926e-06
-2.86981e-07
-1.08269e-06
-2.61975e-07
-1.10376e-06
-2.36267e-07
-1.12242e-06
-2.09936e-07
-1.13865e-06
-1.83055e-07
-1.15241e-06
-1.557e-07
-1.16369e-06
-1.27946e-07
-1.17248e-06
-9.98641e-08
-1.17878e-06
-7.15218e-08
-1.18256e-06
-4.29901e-08
-1.43467e-08
6.57591e-07
-1.11713e-08
6.54776e-07
-3.33754e-08
6.50108e-07
-5.53686e-08
6.4361e-07
-7.70863e-08
6.3531e-07
-9.84648e-08
6.2524e-07
-1.1944e-07
6.13434e-07
-1.39947e-07
5.99936e-07
-1.59917e-07
5.84794e-07
-1.79272e-07
5.68064e-07
-1.97922e-07
5.49814e-07
-2.15757e-07
5.30125e-07
-2.32639e-07
5.09099e-07
-2.48391e-07
4.86857e-07
-2.62793e-07
4.63553e-07
-2.75576e-07
4.39368e-07
-2.86446e-07
4.14511e-07
-2.95118e-07
3.89211e-07
-3.01374e-07
3.63698e-07
-3.05133e-07
3.38182e-07
-3.06498e-07
3.12842e-07
-3.05753e-07
2.8781e-07
-3.03314e-07
2.63175e-07
-2.99649e-07
2.38988e-07
-2.95196e-07
2.15273e-07
-2.90311e-07
1.92036e-07
-2.85252e-07
1.69271e-07
-2.80181e-07
1.46972e-07
-2.75188e-07
1.25129e-07
-2.70308e-07
1.03735e-07
-2.65542e-07
8.27841e-08
-2.60877e-07
6.22731e-08
-2.56289e-07
4.21993e-08
-2.51756e-07
2.25607e-08
-2.47259e-07
3.3557e-09
-2.42786e-07
-1.54167e-08
-2.38333e-07
-3.37581e-08
-2.33891e-07
-5.16675e-08
-2.29428e-07
-6.91449e-08
-2.24938e-07
-8.61918e-08
-2.20428e-07
-1.02811e-07
-2.15904e-07
-1.19007e-07
-2.11373e-07
-1.34785e-07
-2.06845e-07
-1.50153e-07
-2.02329e-07
-1.6512e-07
-1.97834e-07
-1.79696e-07
-1.93372e-07
-1.93894e-07
-1.88951e-07
-2.07727e-07
-1.84582e-07
-2.2121e-07
-1.80274e-07
-2.34359e-07
-1.76034e-07
-2.47191e-07
-1.71873e-07
-2.59726e-07
-1.67798e-07
-2.71982e-07
-1.63818e-07
-2.83981e-07
-1.59945e-07
-2.95741e-07
-1.56193e-07
-3.07286e-07
-1.52583e-07
-3.18638e-07
-1.49147e-07
-3.29815e-07
-1.45949e-07
-3.40853e-07
-1.43071e-07
-3.51772e-07
-1.40566e-07
-3.62604e-07
-1.38684e-07
-3.73388e-07
-1.37774e-07
-3.84165e-07
-1.38495e-07
-3.95181e-07
-1.41661e-07
-4.06626e-07
-1.46518e-07
-4.18648e-07
-1.52708e-07
-4.31374e-07
-1.60066e-07
-4.44923e-07
-1.68538e-07
-4.59412e-07
-1.78154e-07
-4.74967e-07
-1.89012e-07
-4.91726e-07
-2.01268e-07
-5.0985e-07
-2.15134e-07
-5.29527e-07
-2.30874e-07
-5.50983e-07
-2.48864e-07
-5.74508e-07
-2.69404e-07
-6.00434e-07
-2.92505e-07
-6.29082e-07
-3.17583e-07
-6.60645e-07
-3.43116e-07
-6.9501e-07
-3.66467e-07
-7.31622e-07
-3.84371e-07
-7.69537e-07
-3.94254e-07
-8.07703e-07
-3.95473e-07
-8.45256e-07
-3.89271e-07
-8.81618e-07
-3.77664e-07
-9.16442e-07
-3.62458e-07
-9.49516e-07
-3.44891e-07
-9.80707e-07
-3.25724e-07
-1.00991e-06
-3.0538e-07
-1.03705e-06
-2.84092e-07
-1.06205e-06
-2.61997e-07
-1.08485e-06
-2.39188e-07
-1.10538e-06
-2.15738e-07
-1.1236e-06
-1.91714e-07
-1.13948e-06
-1.67183e-07
-1.15296e-06
-1.42214e-07
-1.16404e-06
-1.16873e-07
-1.17267e-06
-9.12255e-08
-1.17886e-06
-6.53361e-08
-1.18258e-06
-3.92712e-08
-1.31047e-08
6.5759e-07
-1.02281e-08
6.54775e-07
-3.05602e-08
6.50106e-07
-5.07009e-08
6.43609e-07
-7.05904e-08
6.3531e-07
-9.01695e-08
6.25245e-07
-1.09379e-07
6.13452e-07
-1.2816e-07
5.99973e-07
-1.46447e-07
5.84861e-07
-1.64171e-07
5.68174e-07
-1.81248e-07
5.49981e-07
-1.9758e-07
5.30366e-07
-2.13038e-07
5.09428e-07
-2.27464e-07
4.87291e-07
-2.40653e-07
4.64104e-07
-2.52364e-07
4.40047e-07
-2.62325e-07
4.15325e-07
-2.70277e-07
3.90161e-07
-2.76021e-07
3.6478e-07
-2.79484e-07
3.3939e-07
-2.80757e-07
3.14165e-07
-2.80101e-07
2.89236e-07
-2.77896e-07
2.6469e-07
-2.74571e-07
2.40578e-07
-2.70527e-07
2.16922e-07
-2.6609e-07
1.93728e-07
-2.61496e-07
1.70991e-07
-2.56894e-07
1.48701e-07
-2.52365e-07
1.26849e-07
-2.47942e-07
1.05424e-07
-2.43627e-07
8.44202e-08
-2.39406e-07
6.38313e-08
-2.35257e-07
4.36542e-08
-2.31158e-07
2.38869e-08
-2.27094e-07
4.52825e-09
-2.23051e-07
-1.44232e-08
-2.19025e-07
-3.29684e-08
-2.15009e-07
-5.11061e-08
-2.1097e-07
-6.88361e-08
-2.06905e-07
-8.6159e-08
-2.02817e-07
-1.03077e-07
-1.98712e-07
-1.19592e-07
-1.94597e-07
-1.3571e-07
-1.90479e-07
-1.51437e-07
-1.86367e-07
-1.66778e-07
-1.82268e-07
-1.81744e-07
-1.78193e-07
-1.96344e-07
-1.74149e-07
-2.10588e-07
-1.70144e-07
-2.2449e-07
-1.66188e-07
-2.38062e-07
-1.62287e-07
-2.51319e-07
-1.5845e-07
-2.64276e-07
-1.54683e-07
-2.76949e-07
-1.50996e-07
-2.89354e-07
-1.47399e-07
-3.0151e-07
-1.43906e-07
-3.13434e-07
-1.40539e-07
-3.25146e-07
-1.37328e-07
-3.36663e-07
-1.34342e-07
-3.48017e-07
-1.31648e-07
-3.59233e-07
-1.29311e-07
-3.70345e-07
-1.27576e-07
-3.81394e-07
-1.26803e-07
-3.92441e-07
-1.27656e-07
-4.03748e-07
-1.30665e-07
-4.15492e-07
-1.35181e-07
-4.27813e-07
-1.40897e-07
-4.40829e-07
-1.47672e-07
-4.54655e-07
-1.55467e-07
-4.69408e-07
-1.64316e-07
-4.85214e-07
-1.74317e-07
-5.02218e-07
-1.85621e-07
-5.20586e-07
-1.98428e-07
-5.40517e-07
-2.12994e-07
-5.62256e-07
-2.29668e-07
-5.86098e-07
-2.48699e-07
-6.1237e-07
-2.70036e-07
-6.41352e-07
-2.93044e-07
-6.73151e-07
-3.16197e-07
-7.07534e-07
-3.36975e-07
-7.43841e-07
-3.5242e-07
-7.81102e-07
-3.60389e-07
-8.18343e-07
-3.60567e-07
-8.54819e-07
-3.5424e-07
-8.90057e-07
-3.43252e-07
-9.23779e-07
-3.29182e-07
-9.55812e-07
-3.13087e-07
-9.86039e-07
-2.95611e-07
-1.01437e-06
-2.77107e-07
-1.04072e-06
-2.57768e-07
-1.06502e-06
-2.37711e-07
-1.0872e-06
-2.17014e-07
-1.1072e-06
-1.9574e-07
-1.12497e-06
-1.73946e-07
-1.14046e-06
-1.51692e-07
-1.15364e-06
-1.29038e-07
-1.16446e-06
-1.06046e-07
-1.17291e-06
-8.2775e-08
-1.17897e-06
-5.92826e-08
-1.18261e-06
-3.56309e-08
-1.18889e-08
6.57593e-07
-9.28717e-09
6.54783e-07
-2.77508e-08
6.50123e-07
-4.60422e-08
6.43638e-07
-6.41069e-08
6.35356e-07
-8.18906e-08
6.25312e-07
-9.93396e-08
6.13545e-07
-1.16399e-07
6.001e-07
-1.33011e-07
5.85029e-07
-1.49112e-07
5.68391e-07
-1.64626e-07
5.50257e-07
-1.79462e-07
5.30708e-07
-1.93507e-07
5.09845e-07
-2.06614e-07
4.87789e-07
-2.186e-07
4.6469e-07
-2.29245e-07
4.40724e-07
-2.38304e-07
4.16092e-07
-2.4554e-07
3.91015e-07
-2.50773e-07
3.65716e-07
-2.53936e-07
3.404e-07
-2.55113e-07
3.15239e-07
-2.54538e-07
2.90365e-07
-2.52559e-07
2.65865e-07
-2.49564e-07
2.41789e-07
-2.45916e-07
2.18159e-07
-2.41913e-07
1.94978e-07
-2.3777e-07
1.7224e-07
-2.33621e-07
1.49934e-07
-2.29542e-07
1.28048e-07
-2.2556e-07
1.06573e-07
-2.21678e-07
8.55004e-08
-2.17882e-07
6.48245e-08
-2.14152e-07
4.45418e-08
-2.10469e-07
2.46498e-08
-2.06816e-07
5.14702e-09
-2.03183e-07
-1.39681e-08
-1.99565e-07
-3.26965e-08
-1.95954e-07
-5.10366e-08
-1.9232e-07
-6.89874e-08
-1.88659e-07
-8.65491e-08
-1.84975e-07
-1.03722e-07
-1.81273e-07
-1.20509e-07
-1.77557e-07
-1.36913e-07
-1.73835e-07
-1.52938e-07
-1.70113e-07
-1.6859e-07
-1.66399e-07
-1.83875e-07
-1.62701e-07
-1.988e-07
-1.59025e-07
-2.13376e-07
-1.55381e-07
-2.27612e-07
-1.51773e-07
-2.41518e-07
-1.48211e-07
-2.55106e-07
-1.44699e-07
-2.68389e-07
-1.41247e-07
-2.8138e-07
-1.3786e-07
-2.94092e-07
-1.3455e-07
-3.06541e-07
-1.3133e-07
-3.18742e-07
-1.28221e-07
-3.30713e-07
-1.25252e-07
-3.42471e-07
-1.22497e-07
-3.54048e-07
-1.20005e-07
-3.65469e-07
-1.17852e-07
-3.76776e-07
-1.16275e-07
-3.88018e-07
-1.15638e-07
-3.99295e-07
-1.16584e-07
-4.10849e-07
-1.19417e-07
-4.22849e-07
-1.23584e-07
-4.35426e-07
-1.28823e-07
-4.48697e-07
-1.35017e-07
-4.62774e-07
-1.42137e-07
-4.77776e-07
-1.50222e-07
-4.9383e-07
-1.59366e-07
-5.11087e-07
-1.69715e-07
-5.29721e-07
-1.81453e-07
-5.4994e-07
-1.94825e-07
-5.72003e-07
-2.10148e-07
-5.96213e-07
-2.27624e-07
-6.22883e-07
-2.47152e-07
-6.52251e-07
-2.68072e-07
-6.84343e-07
-2.88888e-07
-7.18816e-07
-3.07233e-07
-7.54919e-07
-3.20464e-07
-7.9167e-07
-3.26823e-07
-8.28162e-07
-3.26237e-07
-8.63749e-07
-3.19979e-07
-8.98042e-07
-3.09714e-07
-9.30816e-07
-2.96813e-07
-9.61933e-07
-2.82179e-07
-9.91295e-07
-2.66353e-07
-1.01882e-06
-2.49633e-07
-1.04443e-06
-2.32181e-07
-1.06806e-06
-2.14094e-07
-1.08964e-06
-1.9544e-07
-1.10911e-06
-1.76271e-07
-1.12642e-06
-1.56638e-07
-1.14152e-06
-1.36594e-07
-1.15437e-06
-1.16191e-07
-1.16493e-06
-9.54856e-08
-1.17317e-06
-7.45291e-08
-1.17908e-06
-5.33747e-08
-1.18264e-06
-3.20782e-08
-1.07027e-08
6.57596e-07
-8.34902e-09
6.54793e-07
-2.49491e-08
6.50146e-07
-4.13958e-08
6.43677e-07
-5.76399e-08
6.35416e-07
-7.36325e-08
6.25397e-07
-8.93252e-08
6.1366e-07
-1.04669e-07
6.0025e-07
-1.19611e-07
5.85219e-07
-1.34093e-07
5.68627e-07
-1.48049e-07
5.50543e-07
-1.61397e-07
5.31051e-07
-1.74034e-07
5.10248e-07
-1.85828e-07
4.88257e-07
-1.96616e-07
4.65223e-07
-2.06199e-07
4.41321e-07
-2.14357e-07
4.16753e-07
-2.20877e-07
3.91735e-07
-2.25597e-07
3.66489e-07
-2.28457e-07
3.41218e-07
-2.29531e-07
3.16096e-07
-2.29032e-07
2.9125e-07
-2.27271e-07
2.66769e-07
-2.24596e-07
2.42701e-07
-2.21335e-07
2.19069e-07
-2.17757e-07
1.95876e-07
-2.14053e-07
1.73115e-07
-2.10346e-07
1.50774e-07
-2.06703e-07
1.28842e-07
-2.03148e-07
1.07307e-07
-1.99684e-07
8.61616e-08
-1.96298e-07
6.53986e-08
-1.92973e-07
4.50141e-08
-1.89689e-07
2.50054e-08
-1.86433e-07
5.37076e-09
-1.83194e-07
-1.38915e-08
-1.79967e-07
-3.27819e-08
-1.76746e-07
-5.12985e-08
-1.73501e-07
-6.94398e-08
-1.70231e-07
-8.72051e-08
-1.66938e-07
-1.04594e-07
-1.63625e-07
-1.21608e-07
-1.60297e-07
-1.38249e-07
-1.5696e-07
-1.5452e-07
-1.5362e-07
-1.70424e-07
-1.50283e-07
-1.85967e-07
-1.46956e-07
-2.01154e-07
-1.43646e-07
-2.15993e-07
-1.40359e-07
-2.30492e-07
-1.37101e-07
-2.44658e-07
-1.33879e-07
-2.58502e-07
-1.30698e-07
-2.72034e-07
-1.27565e-07
-2.85265e-07
-1.24488e-07
-2.98205e-07
-1.21477e-07
-3.10869e-07
-1.18543e-07
-3.2327e-07
-1.15706e-07
-3.35424e-07
-1.12996e-07
-3.47351e-07
-1.10486e-07
-3.5908e-07
-1.08211e-07
-3.70641e-07
-1.06254e-07
-3.82083e-07
-1.04839e-07
-3.93468e-07
-1.04329e-07
-4.04929e-07
-1.05323e-07
-4.16691e-07
-1.07956e-07
-4.28909e-07
-1.11762e-07
-4.4171e-07
-1.16517e-07
-4.55208e-07
-1.22126e-07
-4.69516e-07
-1.28569e-07
-4.84752e-07
-1.35886e-07
-5.01048e-07
-1.44168e-07
-5.18558e-07
-1.53548e-07
-5.37465e-07
-1.64198e-07
-5.57988e-07
-1.76349e-07
-5.80394e-07
-1.9028e-07
-6.04991e-07
-2.06153e-07
-6.32074e-07
-2.23833e-07
-6.61837e-07
-2.42654e-07
-6.94227e-07
-2.61184e-07
-7.28799e-07
-2.77241e-07
-7.64732e-07
-2.88492e-07
-8.01043e-07
-2.93513e-07
-8.36894e-07
-2.92401e-07
-8.71724e-07
-2.86377e-07
-9.05212e-07
-2.76922e-07
-9.37179e-07
-2.6522e-07
-9.6751e-07
-2.52038e-07
-9.96123e-07
-2.37836e-07
-1.02294e-06
-2.22859e-07
-1.0479e-06
-2.07246e-07
-1.07093e-06
-1.91077e-07
-1.09197e-06
-1.7441e-07
-1.11095e-06
-1.5729e-07
-1.12783e-06
-1.39761e-07
-1.14255e-06
-1.21869e-07
-1.15508e-06
-1.0366e-07
-1.16539e-06
-8.51824e-08
-1.17343e-06
-6.64836e-08
-1.1792e-06
-4.761e-08
-1.18266e-06
-2.86118e-08
-9.54536e-09
6.57599e-07
-7.41384e-09
6.54805e-07
-2.21556e-08
6.5017e-07
-3.67624e-08
6.43719e-07
-5.11905e-08
6.3548e-07
-6.53963e-08
6.25487e-07
-7.93368e-08
6.1378e-07
-9.29681e-08
6.00403e-07
-1.06244e-07
5.8541e-07
-1.19112e-07
5.68858e-07
-1.31514e-07
5.50818e-07
-1.43377e-07
5.31372e-07
-1.54609e-07
5.10617e-07
-1.65094e-07
4.88674e-07
-1.74685e-07
4.65688e-07
-1.83207e-07
4.41832e-07
-1.90465e-07
4.17305e-07
-1.96268e-07
3.92324e-07
-2.00473e-07
3.67107e-07
-2.03025e-07
3.41859e-07
-2.03992e-07
3.1675e-07
-2.03562e-07
2.91911e-07
-2.02011e-07
2.67429e-07
-1.99649e-07
2.43353e-07
-1.96768e-07
2.19705e-07
-1.93605e-07
1.96487e-07
-1.90331e-07
1.73694e-07
-1.87056e-07
1.51312e-07
-1.83838e-07
1.29329e-07
-1.807e-07
1.07733e-07
-1.77643e-07
8.65152e-08
-1.74656e-07
6.56691e-08
-1.71722e-07
4.51901e-08
-1.68826e-07
2.50752e-08
-1.65954e-07
5.32269e-09
-1.63096e-07
-1.40689e-08
-1.60249e-07
-3.30998e-08
-1.57405e-07
-5.17678e-08
-1.54539e-07
-7.00708e-08
-1.51649e-07
-8.80073e-08
-1.48736e-07
-1.05576e-07
-1.45804e-07
-1.22778e-07
-1.42856e-07
-1.39613e-07
-1.39897e-07
-1.56084e-07
-1.36933e-07
-1.72191e-07
-1.33969e-07
-1.87941e-07
-1.3101e-07
-2.03336e-07
-1.28064e-07
-2.18382e-07
-1.25134e-07
-2.33085e-07
-1.22228e-07
-2.47453e-07
-1.1935e-07
-2.61492e-07
-1.16505e-07
-2.75212e-07
-1.137e-07
-2.88621e-07
-1.10942e-07
-3.0173e-07
-1.08239e-07
-3.1455e-07
-1.05603e-07
-3.27093e-07
-1.03052e-07
-3.39376e-07
-1.00613e-07