/*--------------------------------*- C++ -*----------------------------------*\
  =========                 |
  \\      /  F ield         | OpenFOAM: The Open Source CFD Toolbox
   \\    /   O peration     | Website:  https://openfoam.org
    \\  /    A nd           | Version:  8
     \\/     M anipulation  |
\*---------------------------------------------------------------------------*/
FoamFile
{
    version     2.0;
    format      ascii;
    class       volScalarField;
    location    "0.15/fluid";
    object      Qdot;
}
// * * * * * * * * * * * * * * * * * * * * * * * * * * * * * * * * * * * * * //

dimensions      [1 -1 -3 0 0 0 0];

internalField   nonuniform List<scalar> 
4000
(
-2.20173e-06
-2.20173e-06
-2.20173e-06
-2.20175e-06
-2.21517e-11
5.17563e-15
-1.0891e-10
-1.77224e-10
-2.2019e-06
-2.20252e-06
-2.20173e-06
-2.20173e-06
-2.20489e-06
-6.32087e-09
-1.48593e-18
-2.21437e-06
-2.22701e-06
-2.22701e-06
-2.2523e-06
-2.20173e-06
-1.12875e-06
-9.99727e-07
1.16381e-08
1.12494e-05
0.000122503
0.00101222
0.0068475
0.0384103
0.180945
0.727147
2.5321
7.75396
21.162
52.0883
116.856
241.215
462.438
831.83
1416.35
2303.84
3615.89
5535.01
8356.71
12584.6
19086.7
29406.9
46315.3
74685.2
122988
205523
345552
579842
966060
1.59479e+06
2.60903e+06
4.234e+06
6.82347e+06
1.09327e+07
1.73916e+07
2.74113e+07
4.36594e+07
6.95301e+07
1.11199e+08
1.54862e+08
9.21713e+07
5.43098e+07
3.14556e+07
1.77743e+07
9.73131e+06
5.12589e+06
2.58109e+06
1.23401e+06
558405
245706
87376
15543.9
1128.92
37.9593
0.6685
0.00744905
7.8073e-05
1.2963e-06
3.21104e-08
-3.92448e-10
-4.09986e-11
-3.14715e-09
-1.5528e-09
3.23607e-11
-3.54454e-10
-2.0464e-10
-2.3505e-12
3.59363e-11
-2.48156e-11
2.99998e-11
3.47607e-11
-1.55147e-12
4.16241e-11
-6.42655e-12
-6.3293e-12
3.61543e-11
-2.20173e-06
-6.17289e-12
-2.20174e-06
-2.20176e-06
-2.20175e-06
-2.20177e-06
-1.97532e-10
-2.20173e-06
-7.9013e-10
-2.20216e-06
-2.20173e-06
-2.20489e-06
-2.20489e-06
-2.20173e-06
-2.2087e-06
-1.26421e-08
-2.22701e-06
-2.52835e-08
-2.78823e-08
-5.05676e-08
-1.12355e-06
5.57658e-08
-8.94997e-08
1.01369e-05
0.000112086
0.000938499
0.00638334
0.0360503
0.171171
0.693548
2.43474
7.51362
20.6547
51.1799
115.522
239.791
462.013
834.823
1427.27
2330.26
3669.94
5636.06
8532.62
12875.2
19579.4
30288.2
47875.3
77452.1
127900
214185
360609
605543
1.00918e+06
1.6662e+06
2.72612e+06
4.42455e+06
7.13173e+06
1.14292e+07
1.81692e+07
2.86515e+07
4.56737e+07
7.28158e+07
1.16605e+08
1.50429e+08
8.92523e+07
5.24885e+07
3.03183e+07
1.70712e+07
9.3047e+06
4.87373e+06
2.43771e+06
1.15624e+06
519308
228243
71717.4
11283.1
687.944
19.9617
0.310091
0.00325577
3.58581e-05
6.69369e-07
2.23742e-08
-1.29552e-08
-6.34983e-09
-1.39582e-09
-8.03803e-12
-7.93706e-10
4.0697e-11
4.15582e-11
4.19714e-11
-2.25557e-13
-6.35293e-12
3.00042e-11
4.06777e-11
-1.55086e-12
-6.23543e-12
-6.42647e-12
-6.32927e-12
-6.23793e-12
-6.92321e-13
-3.4036e-12
-2.20174e-06
-2.20178e-06
-4.93805e-11
-2.20183e-06
-2.20193e-06
-3.95055e-10
-2.20173e-06
-7.9013e-10
4.14048e-14
-2.20173e-06
-2.20173e-06
-2.83575e-09
-2.21437e-06
-2.21437e-06
-2.20173e-06
-2.52835e-08
-2.20173e-06
-5.05676e-08
-2.26847e-08
-1.10086e-06
-1.90636e-07
1.04287e-05
0.000106298
0.000877063
0.00599195
0.0340177
0.162551
0.663244
2.3454
7.29143
20.1901
50.3835
114.499
239.211
463.704
842.662
1448.45
2376.79
3760.27
5796.32
8810.32
13359.1
20442.1
31790.6
50517.4
82138.4
136231
228894
386178
649168
1.08235e+06
1.78729e+06
2.92455e+06
4.74721e+06
7.65306e+06
1.22672e+07
1.94702e+07
3.07218e+07
4.90273e+07
7.8273e+07
1.25557e+08
1.42623e+08
8.44584e+07
4.95108e+07
2.84727e+07
1.59419e+07
8.62843e+06
4.48121e+06
2.21899e+06
1.04047e+06
462872
200968
54432
7118.34
365.636
9.30815
0.133295
0.00141006
1.7348e-05
3.67506e-07
1.06219e-08
-2.54788e-10
-1.35064e-11
-3.17883e-09
-7.41468e-12
-3.35465e-12
-2.25671e-10
4.15951e-11
-6.64256e-12
-6.44981e-12
-6.34549e-12
3.89503e-11
4.23812e-11
-6.23944e-12
-3.88521e-13
4.2205e-11
3.61179e-11
3.61664e-11
8.08695e-17
-6.17257e-12
-1.10765e-11
-2.20173e-06
-2.20178e-06
-2.20177e-06
-4.64354e-20
-3.95065e-10
-9.28709e-20
-2.20252e-06
-2.2026e-06
-2.20489e-06
-2.20489e-06
0
-2.21437e-06
-2.21437e-06
-2.52842e-08
-2.22701e-06
-2.20173e-06
-5.05676e-08
-5.0567e-08
-1.10086e-06
-1.90636e-07
8.82214e-06
9.99264e-05
0.000831414
0.0057006
0.0325236
0.156287
0.641545
2.28297
7.14286
19.9058
49.9896
114.312
240.274
468.478
856.031
1478.85
2437.46
3873.11
6001.67
9173.32
14005.9
21555.5
33723.2
53911.7
88155.1
146913
247706
418763
704551
1.1749e+06
1.94002e+06
3.17422e+06
5.15242e+06
8.30697e+06
1.33181e+07
2.10865e+07
3.32742e+07
5.31411e+07
8.49393e+07
1.36364e+08
1.33074e+08
7.86366e+07
4.5925e+07
2.62731e+07
1.46124e+07
7.84337e+06
4.03379e+06
1.97449e+06
914104
403385
168473
39502
4106.61
179.917
4.04254
0.0537263
0.000576728
7.95513e-06
2.07146e-07
-1.31941e-09
-3.03056e-09
-3.16445e-09
-1.5962e-09
-8.03006e-10
3.31153e-11
-2.05249e-10
4.16525e-11
-6.61898e-12
-2.23614e-11
-2.47928e-11
3.61864e-11
3.61508e-11
3.61603e-11
4.23965e-11
-1.93812e-13
3.61662e-11
4.23989e-11
8.08692e-17
-2.20173e-06
-5.80443e-21
-2.20178e-06
-2.20178e-06
-9.87662e-11
-2.20193e-06
-2.2019e-06
-9.28709e-20
2.07026e-14
-2.20244e-06
-2.20489e-06
-2.20489e-06
-1.48593e-18
-2.21437e-06
-2.21437e-06
-2.22701e-06
-2.52835e-08
-5.05676e-08
-2.2523e-06
-1.15143e-06
-1.10086e-06
-2.91771e-07
8.31646e-06
9.68807e-05
0.000801286
0.00550765
0.0315418
0.152254
0.628097
2.24681
7.06757
19.8033
50.0026
114.952
242.863
475.807
873.275
1515.23
2509.6
4007.64
6245.96
9611.08
14754.1
22837.5
35943.4
57804.7
95041.3
159096
269047
455483
766511
1.2777e+06
2.10843e+06
3.44748e+06
5.5925e+06
9.0116e+06
1.44418e+07
2.28078e+07
3.60495e+07
5.76048e+07
9.21378e+07
1.47814e+08
1.22781e+08
7.24062e+07
4.2125e+07
2.39695e+07
1.32386e+07
7.04441e+06
3.58612e+06
1.73453e+06
792958
348431
135342
27243.1
2296.31
87.3389
1.76024
0.0222127
0.000247946
3.88341e-06
1.2579e-07
4.78313e-09
-6.47478e-09
-1.78792e-09
-8.85365e-10
-7.96101e-10
-3.97862e-10
-1.62736e-10
-6.32949e-11
4.2035e-11
-1.97362e-13
3.05413e-11
2.99589e-11
4.23851e-11
-7.00958e-12
-6.23461e-12
-1.9371e-13
3.61662e-11
3.61544e-11
-2.20173e-06
-2.20173e-06
-2.20175e-06
1.2939e-15
-2.20178e-06
-2.20183e-06
-2.20173e-06
-2.20212e-06
-3.54448e-10
-2.20252e-06
-1.58026e-09
-2.20173e-06
-2.20315e-06
1.65621e-13
-2.20173e-06
-1.26417e-08
-2.21567e-06
-2.52842e-08
-2.2523e-06
-5.05683e-08
-1.15143e-06
-9.99727e-07
8.09093e-07
8.11419e-06
9.29933e-05
0.000780845
0.00538747
0.0309615
0.150034
0.621527
2.23298
7.05519
19.8562
50.3553
116.244
246.578
485.085
894.27
1558.67
2594.97
4169.39
6531.19
10094.1
15572.7
24236.2
38364.1
62049.1
102542
172331
292125
494952
832661
1.38665e+06
2.28551e+06
3.73216e+06
6.04579e+06
9.72714e+06
1.55627e+07
2.45298e+07
3.90993e+07
6.22842e+07
9.95531e+07
1.5897e+08
1.1251e+08
6.62614e+07
3.84239e+07
2.17549e+07
1.1936e+07
6.29797e+06
3.17452e+06
1.51781e+06
685927
300955
106053
18238.6
1283.33
43.0125
0.78731
0.00956404
0.000112103
1.98654e-06
6.85621e-08
-6.61742e-10
-6.43764e-09
-3.15736e-09
-6.85107e-10
-3.66073e-10
-1.77974e-10
-1.62627e-10
-9.94111e-11
-5.5956e-11
-4.4722e-11
2.92831e-11
-2.79998e-12
-3.09875e-12
4.16224e-11
-6.62017e-12
4.23018e-11
4.23987e-11
4.23929e-11
-2.20173e-06
-2.20173e-06
-1.10765e-11
-2.20173e-06
-4.93805e-11
-9.87611e-11
-2.20173e-06
-2.20212e-06
-2.20173e-06
-2.20252e-06
-2.20331e-06
-2.20315e-06
-2.20489e-06
-2.20805e-06
-2.20173e-06
-2.21437e-06
-2.52838e-08
-2.52835e-08
-5.05676e-08
-2.20173e-06
-1.12355e-06
-9.99727e-07
-2.91771e-07
7.91191e-06
9.24306e-05
0.000769708
0.0053238
0.0306883
0.149195
0.620192
2.2361
7.08966
20.0216
50.9475
118.04
251.299
496.419
919.341
1610.8
2693.25
4342.66
6829.53
10601.1
16433.9
25711.3
40924.9
66553
110520
186424
316694
536945
903037
1.5027e+06
2.47454e+06
4.03714e+06
6.53393e+06
1.05033e+07
1.67726e+07
2.64181e+07
4.21439e+07
6.71217e+07
1.07272e+08
1.6719e+08
1.03453e+08
6.08482e+07
3.5172e+07
1.98173e+07
1.08031e+07
5.65389e+06
2.82285e+06
1.33498e+06
597402
261632
78636.2
12161.1
732.057
21.8909
0.368748
0.00437592
5.44067e-05
1.08441e-06
2.05776e-08
-4.69152e-10
-6.42196e-09
-1.77726e-09
-1.59122e-09
-8.01234e-10
3.38412e-11
3.50038e-11
-1.05596e-10
-4.97025e-11
-2.48597e-11
-6.83079e-14
-6.20025e-12
-7.03247e-13
3.53905e-11
3.5779e-11
3.61658e-11
-2.10759e-16
-6.06501e-15
-2.20173e-06
-2.20173e-06
-2.20173e-06
-2.20178e-06
-5.44577e-11
-5.44525e-11
-2.20193e-06
-2.20212e-06
-2.20252e-06
-3.54448e-10
-2.20173e-06
0
-2.20347e-06
-2.20805e-06
-2.20173e-06
-2.20173e-06
3.31239e-13
-5.94374e-18
-2.20173e-06
-2.20173e-06
-1.15143e-06
-9.99726e-07
-2.46399e-07
7.91192e-06
9.16216e-05
0.000765752
0.00530346
0.0306502
0.149399
0.622701
2.25134
7.15956
20.2826
51.7763
120.403
257.456
510.469
948.387
1666.12
2794.07
4519.84
7133.76
11118.1
17313.3
27222.3
43557.9
71201.4
118779
201043
342199
580571
976256
1.62375e+06
2.67249e+06
4.35813e+06
7.05101e+06
1.13321e+07
1.80688e+07
2.84711e+07
4.54284e+07
7.24222e+07
1.15934e+08
1.62858e+08
9.65522e+07
5.66199e+07
3.25883e+07
1.82609e+07
9.88707e+06
5.13302e+06
2.539e+06
1.18826e+06
527222
228205
61458
8076.14
427.858
11.5961
0.182397
0.00214142
2.84062e-05
6.46505e-07
4.73544e-08
-3.70209e-10
-4.2311e-11
-1.40018e-09
-1.55392e-09
-8.00783e-10
-4.03438e-10
-1.5621e-10
4.18412e-11
-5.5917e-11
1.13227e-11
-6.07466e-14
4.23747e-11
-6.93449e-12
-7.75472e-13
-3.87323e-13
3.61659e-11
4.23987e-11
4.23989e-11
-2.20173e-06
-6.17289e-12
-2.20175e-06
1.29391e-15
-9.87636e-11
-9.87662e-11
-2.20193e-06
-2.20173e-06
-7.9013e-10
2.07024e-14
-2.20331e-06
-2.20489e-06
-2.20489e-06
-3.48529e-09
-2.21437e-06
-2.21437e-06
-2.52838e-08
-1.18875e-17
-2.20173e-06
-2.26853e-08
-1.12874e-06
-9.99727e-07
-2.91773e-07
8.81051e-06
9.15204e-05
0.000766157
0.00531539
0.030778
0.150365
0.628197
2.27656
7.25915
20.6274
52.8416
123.229
264.086
524.855
977.479
1721.48
2894.49
4695.68
7435
11629.6
18184.2
28721.4
46176.7
75835.2
127023
215635
367627
623997
1.04905e+06
1.74403e+06
2.86912e+06
4.677e+06
7.56468e+06
1.21554e+07
1.93474e+07
3.04998e+07
4.87049e+07
7.77435e+07
1.24673e+08
1.54396e+08
9.1147e+07
5.32714e+07
3.05262e+07
1.70123e+07
9.15042e+06
4.71477e+06
2.31178e+06
1.07163e+06
472412
199602
48600.2
5454
259.252
6.44794
0.0958833
0.00112491
1.59612e-05
3.91048e-07
1.73072e-08
-2.93044e-10
-6.65352e-11
1.4349e-11
-8.89105e-12
-3.64753e-10
-1.9808e-12
-1.62371e-10
-9.92912e-11
-6.51748e-12
-6.36907e-12
-6.2868e-12
4.09926e-11
-7.09207e-12
-7.75087e-13
-1.94268e-13
-6.23297e-12
-2.42831e-14
3.61604e-11
-3.62777e-22
-2.20173e-06
-2.20175e-06
-2.20178e-06
-2.20175e-06
-9.87611e-11
-1.0891e-10
-3.95065e-10
-2.20173e-06
-2.20252e-06
-1.58022e-09
-2.20173e-06
-3.16044e-09
-2.20805e-06
-2.20173e-06
-1.26417e-08
-2.21307e-06
-2.22701e-06
-5.05676e-08
-6.8353e-16
-1.15143e-06
-9.99726e-07
-2.91771e-07
7.70964e-06
9.0723e-05
0.000769
0.00535041
0.031038
0.151954
0.63636
2.31254
7.39082
21.0427
53.9916
126.132
270.799
539.205
1006.16
1775.6
2992
4865.57
7725.04
12121.2
19020.7
30162
48695.5
80294.7
134954
229645
391969
665436
1.11829e+06
1.85812e+06
3.05516e+06
4.97789e+06
8.04807e+06
1.2928e+07
2.05344e+07
3.23813e+07
5.17377e+07
8.26553e+07
1.32694e+08
1.46806e+08
8.65339e+07
5.04366e+07
2.87926e+07
1.59695e+07
8.53926e+06
4.37026e+06
2.12616e+06
977416
429201
174732
38801.3
3796.47
164.358
3.79177
0.0538579
0.000635671
9.5938e-06
2.77357e-07
1.79116e-08
-9.35999e-09
-2.89336e-09
-2.5819e-11
3.42789e-11
-7.93886e-10
-4.03147e-10
-6.74576e-11
-6.3097e-11
-1.34873e-11
1.13529e-11
-1.86271e-11
-7.95393e-12
3.53076e-11
3.61633e-11
-1.94144e-13
4.2302e-11
-6.24591e-12
3.61664e-11
-1.54322e-12
-6.17257e-12
-2.46909e-11
-2.20178e-06
-7.66094e-11
-2.20183e-06
-1.97527e-10
-3.95055e-10
-7.90109e-10
-7.90109e-10
-2.20331e-06
-2.20489e-06
-2.20315e-06
-2.20805e-06
-6.97042e-09
-1.26421e-08
-1.39408e-08
-1.39412e-08
-2.22441e-06
-5.05683e-08
-1.10086e-06
-9.99726e-07
-2.91771e-07
7.86654e-06
9.14309e-05
0.000777147
0.00541157
0.0314423
0.154169
0.646524
2.35222
7.52776
21.4626
55.1467
129.015
277.386
553.136
1033.74
1827.21
3084.35
5025.57
7997.08
12581
19802
31506.9
51046.6
84455.3
142342
242665
414511
703667
1.18195e+06
1.96269e+06
3.22515e+06
5.25198e+06
8.48704e+06
1.36273e+07
2.15961e+07
3.4063e+07
5.44434e+07
8.70288e+07
1.39778e+08
1.40145e+08
8.25093e+07
4.79809e+07
2.73023e+07
1.50804e+07
8.02257e+06
4.08159e+06
1.97214e+06
900149
394380
154089
31330.5
2731.35
109.167
2.36079
0.0323252
0.000385663
6.19672e-06
1.8378e-07
-1.34567e-09
-2.01443e-10
-3.21767e-09
-1.39329e-09
-7.22683e-10
-9.72654e-12
-1.36566e-10
-7.12238e-12
-4.71619e-13
-1.34755e-11
-1.37233e-11
-4.47269e-14
3.92944e-11
4.08485e-11
-6.23536e-12
-1.075e-13
-6.32934e-12
-2.42548e-14
-6.05299e-15
-2.20173e-06
-2.20173e-06
-2.20173e-06
-2.20173e-06
-4.93805e-11
-5.44525e-11
-2.20193e-06
-2.20212e-06
-7.90109e-10
-2.20252e-06
-2.20244e-06
-1.41787e-09
-2.20315e-06
-6.32104e-09
-6.97042e-09
-2.21437e-06
-2.97187e-18
-2.52835e-08
-2.22961e-06
-2.22441e-06
-1.15143e-06
-1.10086e-06
-2.91771e-07
8.01305e-06
9.37454e-05
0.000786104
0.00547991
0.0318808
0.15648
0.656916
2.39259
7.66521
21.8784
56.2762
131.8
283.684
566.327
1059.62
1875.26
3169.75
5172.69
8246.1
13000.6
20513.6
32730.4
53184.2
88235
149044
254444
434838
738026
1.239e+06
2.05615e+06
3.37674e+06
5.49586e+06
8.87678e+06
1.42469e+07
2.25261e+07
3.55366e+07
5.68129e+07
9.08562e+07
1.45924e+08
1.34325e+08
7.90039e+07
4.58523e+07
2.60183e+07
1.43196e+07
7.58388e+06
3.83855e+06
1.84369e+06
836494
366346
135657
25762.2
2037.75
76.0268
1.55547
0.0206874
0.000250262
4.25366e-06
1.37872e-07
-1.09822e-09
-1.37914e-10
-3.17015e-09
-1.5605e-09
-8.03367e-10
-3.98362e-10
-1.63631e-12
-2.04608e-10
-6.30519e-11
-5.58601e-11
3.60647e-11
-9.67758e-12
3.30633e-11
4.0849e-11
3.59907e-11
-1.05329e-15
3.61129e-11
-6.2567e-12
-6.23248e-12
-2.20173e-06
-2.20173e-06
-2.20173e-06
-2.20178e-06
0
-2.20178e-06
-1.08915e-10
-2.20212e-06
-7.90109e-10
-7.90109e-10
-2.20331e-06
-2.20347e-06
-2.20173e-06
-2.20805e-06
-1.26419e-08
3.31239e-13
-2.52838e-08
-2.52842e-08
-2.20173e-06
6.61794e-13
-1.15143e-06
-1.10086e-06
-2.91771e-07
8.01305e-06
9.49591e-05
0.000796027
0.00555451
0.032332
0.158828
0.66731
2.4324
7.79905
22.2782
57.3505
134.423
289.555
578.514
1083.34
1918.97
3246.89
5304.82
8468.72
13374.4
21146.1
33816.6
55080.1
91584
154972
264840
452727
768183
1.28895e+06
2.13783e+06
3.50903e+06
5.70846e+06
9.21633e+06
1.47868e+07
2.3331e+07
3.68128e+07
5.88637e+07
9.41677e+07
1.51174e+08
1.29276e+08
7.59698e+07
4.40169e+07
2.49166e+07
1.36706e+07
7.21225e+06
3.63419e+06
1.73655e+06
783836
342913
122083
21454.3
1568.57
55.2687
1.08012
0.0140527
0.000172643
3.07008e-06
9.03065e-08
-8.7971e-10
-2.98962e-09
-3.20238e-09
-1.60178e-09
2.95556e-11
-1.86592e-10
-1.4263e-10
-1.62174e-10
4.19642e-11
-4.96148e-11
1.13791e-11
-6.21159e-12
-3.10202e-12
-1.54949e-12
-6.62076e-12
4.23979e-11
-3.70455e-16
-6.23258e-12
3.61634e-11
-2.20173e-06
-2.20173e-06
-2.20175e-06
1.2939e-15
-4.93831e-11
-2.20183e-06
5.17565e-15
-2.20212e-06
-7.90109e-10
-2.20216e-06
-1.58022e-09
-3.16044e-09
-2.20489e-06
-6.32104e-09
-2.20173e-06
-1.26417e-08
-2.52838e-08
-2.52835e-08
-2.2523e-06
-2.2523e-06
-1.15143e-06
-1.10086e-06
8.09093e-07
8.31646e-06
9.50718e-05
0.000805692
0.00562841
0.0327812
0.161122
0.677333
2.47034
7.92518
22.6512
58.343
136.823
294.883
589.486
1104.53
1957.74
3314.88
5420.61
8662.85
13699.2
21694.2
34756.1
56718
94473.5
160078
273772
468056
793951
1.33152e+06
2.20726e+06
3.62116e+06
5.88807e+06
9.502e+06
1.52387e+07
2.40327e+07
3.79113e+07
6.0622e+07
9.70024e+07
1.55631e+08
1.24925e+08
7.33606e+07
4.24438e+07
2.39767e+07
1.31199e+07
6.89882e+06
3.46302e+06
1.64751e+06
740533
323782
110251
18261.2
1251.05
42.0003
0.790001
0.0101057
0.000126125
2.40736e-06
6.70314e-08
-7.76369e-10
-2.97453e-09
-1.78142e-09
-1.5585e-09
-7.96396e-10
-2.20824e-10
-2.05262e-10
-5.13182e-11
-4.19331e-13
-2.20431e-13
-1.2436e-11
-3.63326e-14
-7.63177e-12
3.61606e-11
4.21838e-11
-1.0729e-13
4.23504e-11
4.2388e-11
-6.23414e-12
-1.54322e-12
-6.17257e-12
-2.20173e-06
-2.20173e-06
-2.20175e-06
-9.87611e-11
-2.20173e-06
-2.20173e-06
-2.20252e-06
2.07024e-14
-1.58022e-09
-3.16052e-09
-2.20489e-06
-6.32104e-09
-2.21437e-06
-1.26417e-08
3.31239e-13
-2.52835e-08
-5.05683e-08
-2.20173e-06
-1.15143e-06
-9.99727e-07
-2.91771e-07
8.31646e-06
9.62855e-05
0.000815266
0.00569757
0.0332044
0.163268
0.686622
2.50517
8.03993
22.9877
59.2311
138.955
299.578
599.081
1122.93
1991.17
3373.14
5519.25
8827.42
13973.3
22155.4
35544.7
58090.2
96890.2
164341
281215
480804
815354
1.36686e+06
2.26494e+06
3.71445e+06
6.0379e+06
9.74126e+06
1.56191e+07
2.46273e+07
3.8844e+07
6.2114e+07
9.94069e+07
1.59272e+08
1.21216e+08
7.11375e+07
4.11069e+07
2.31808e+07
1.2656e+07
6.6363e+06
3.32059e+06
1.574e+06
705180
308237
100074
15930
1034.61
33.3546
0.607782
0.00767344
9.71319e-05
1.89501e-06
6.83942e-08
-6.59436e-10
-6.4547e-09
-3.1608e-09
-1.55157e-09
-3.60505e-10
-4.04185e-10
-7.68423e-12
-5.52082e-11
-6.30078e-11
3.59553e-11
3.67748e-11
3.27284e-11
-3.10035e-12
-6.6635e-12
-6.62051e-12
-8.81082e-16
3.61179e-11
-1.34055e-14
4.23972e-11
-2.20173e-06
-2.20173e-06
-2.20175e-06
-2.20178e-06
-4.93831e-11
-9.87611e-11
-1.97527e-10
-2.20195e-06
-2.20173e-06
-2.20252e-06
4.14048e-14
-7.42967e-19
-3.16044e-09
-2.20805e-06
-2.2074e-06
-1.26421e-08
3.31239e-13
-2.22701e-06
-5.05676e-08
-5.05676e-08
-1.15143e-06
-1.10086e-06
-2.91771e-07
9.51846e-06
9.74991e-05
0.000825122
0.00576205
0.0335861
0.165185
0.694852
2.5358
8.14014
23.2795
59.996
140.778
303.567
607.182
1138.36
2019.04
3421.39
5600.47
8962.2
14196.8
22529.8
36182.5
59195.9
98830
167748
287134
490894
832214
1.39459e+06
2.31007e+06
3.78737e+06
6.15519e+06
9.92965e+06
1.59224e+07
2.51116e+07
3.96313e+07
6.33672e+07
1.01416e+08
1.62204e+08
1.18046e+08
6.92427e+07
3.99723e+07
2.25093e+07
1.2267e+07
6.41781e+06
3.20295e+06
1.51378e+06
676537
295819
91441.5
14239.8
886.121
27.6379
0.490827
0.00613486
7.86512e-05
1.57e-06
6.93339e-08
5.0492e-09
-6.44637e-09
-3.2014e-09
-8.42096e-10
-3.99086e-10
-2.20628e-10
-2.05172e-10
-6.14222e-11
-6.63128e-12
-6.43597e-12
3.60843e-11
-6.26552e-12
-1.39797e-12
3.53895e-11
4.2011e-11
3.61656e-11
-6.25441e-12
4.23747e-11
-1.68034e-15
-2.20173e-06
-2.20173e-06
-2.46909e-11
-2.20173e-06
-2.20183e-06
-2.20183e-06
-2.20173e-06
-2.17831e-10
-9.28709e-20
-2.20208e-06
-1.58022e-09
-3.71483e-19
-2.20489e-06
-2.20805e-06
1.65621e-13
-2.21437e-06
0
-2.52842e-08
-2.2523e-06
-2.20173e-06
-1.15143e-06
-1.10086e-06
-2.36007e-07
8.51873e-06
9.73085e-05
0.000832314
0.00581732
0.033909
0.166801
0.701753
2.56134
8.22323
23.5201
60.6232
142.265
306.802
613.711
1150.73
2041.24
3459.63
5664.49
9067.95
14371.5
22821.4
36677.5
60050.6
100322
170349
291612
498437
844632
1.41463e+06
2.34186e+06
3.83698e+06
6.23122e+06
1.00437e+07
1.60885e+07
2.53409e+07
4.04312e+07
6.44422e+07
1.03053e+08
1.64665e+08
1.15334e+08
6.76472e+07
3.90296e+07
2.19574e+07
1.19505e+07
6.24161e+06
3.10885e+06
1.46602e+06
654066
285964
84350.3
13028.3
784.387
23.8416
0.415055
0.00514916
6.6715e-05
1.38699e-06
4.47047e-08
-5.76239e-10
-6.39143e-09
-3.15765e-09
-7.27932e-10
-3.66369e-10
-3.55389e-10
-1.10293e-10
-9.94839e-11
-9.91569e-11
-1.34155e-11
-1.86581e-11
-9.6681e-12
3.30671e-11
-6.66311e-12
4.2011e-11
3.59727e-11
3.61445e-11
4.2388e-11
4.23976e-11
-2.20173e-06
-2.20173e-06
-2.20175e-06
-2.20175e-06
-2.2018e-06
-2.20183e-06
-8.86171e-11
-9.28709e-20
-2.20173e-06
-2.20252e-06
-2.20244e-06
-2.20489e-06
-2.20489e-06
-2.20805e-06
-2.21437e-06
-1.26421e-08
-2.20173e-06
-2.20173e-06
-2.20173e-06
-2.78817e-08
-1.12355e-06
1.19038e-12
8.09092e-07
8.61987e-06
9.92184e-05
0.000837944
0.00585975
0.0341629
0.168063
0.707113
2.58109
8.2872
23.7046
61.1019
143.394
309.248
618.627
1160
2057.81
3488.04
5711.93
9146.2
14500.7
23037.5
37045.6
60688.8
101441
172313
295016
504226
854289
1.4305e+06
2.3677e+06
3.87882e+06
6.29881e+06
1.0153e+07
1.62664e+07
2.56296e+07
4.09187e+07
6.52144e+07
1.04288e+08
1.66256e+08
1.13395e+08
6.64911e+07
3.83405e+07
2.15519e+07
1.17171e+07
6.11187e+06
3.0396e+06
1.4309e+06
637486
278559
80882.5
12148.5
715.293
21.3559
0.366642
0.0045263
5.91278e-05
1.25912e-06
7.04241e-08
-5.44611e-10
-6.3934e-09
-1.77499e-09
-1.59898e-09
-3.98815e-10
-1.86145e-10
-1.56489e-10
-9.94737e-11
-2.25398e-11
-5.58083e-11
-1.24233e-11
-9.03295e-12
-1.71439e-12
3.53898e-11
-2.14756e-13
-6.23326e-12
-6.25439e-12
-1.33952e-14
3.61648e-11
-2.20173e-06
-2.20173e-06
0
1.29391e-15
-2.21517e-11
-2.20183e-06
-2.20182e-06
-1.77234e-10
-7.90109e-10
-2.20252e-06
-2.20331e-06
-2.20173e-06
-3.16044e-09
-6.32104e-09
-2.21437e-06
-2.2087e-06
3.31239e-13
-1.39412e-08
-2.20173e-06
-2.22961e-06
-5.05683e-08
-1.10086e-06
-1.90635e-07
8.61987e-06
9.85779e-05
0.000843495
0.0058898
0.0343373
0.168925
0.710767
2.59452
8.33055
23.8292
61.4243
144.153
310.884
621.905
1166.16
2068.79
3506.84
5743.32
9198.03
14586.7
23182
37293.4
61121.8
102206
173665
297379
508276
861101
1.44179e+06
2.38623e+06
3.90901e+06
6.34772e+06
1.02319e+07
1.63919e+07
2.58281e+07
4.12377e+07
6.57245e+07
1.05111e+08
1.67273e+08
1.12167e+08
6.5755e+07
3.78993e+07
2.1291e+07
1.15665e+07
6.02794e+06
2.99473e+06
1.40812e+06
626710
273553
78568.8
11575.3
672.035
19.8432
0.337806
0.00415948
5.46389e-05
1.16547e-06
7.06868e-08
5.17426e-09
-2.94152e-09
-1.77437e-09
-8.83593e-10
-7.95601e-10
-3.97714e-10
-1.98869e-10
-9.94675e-11
1.98633e-11
-2.48823e-11
-5.61482e-12
4.23683e-11
-1.39704e-12
4.19685e-11
-6.62026e-12
4.23981e-11
-6.25935e-12
4.23747e-11
4.23989e-11
-2.20173e-06
-2.20173e-06
0
-2.20173e-06
-7.15348e-11
-2.20173e-06
-1.97527e-10
1.03513e-14
-9.28709e-20
-2.20252e-06
-2.20331e-06
-2.20489e-06
-2.20347e-06
-2.20173e-06
-2.2074e-06
-2.2074e-06
-2.97187e-18
-2.52835e-08
-5.05676e-08
-2.7881e-08
-1.15143e-06
-9.99726e-07
-1.90635e-07
8.72101e-06
9.88255e-05
0.000844675
0.00590358
0.0344223
0.16935
0.712568
2.60113
8.35191
23.8905
61.583
144.525
311.688
623.513
1169.18
2074.16
3516.04
5758.67
9223.42
14628.9
23253.3
37416.2
61337.5
102590
174347
298576
510335
864577
1.44757e+06
2.39571e+06
3.92445e+06
6.37268e+06
1.02719e+07
1.64548e+07
2.59271e+07
4.13958e+07
6.59772e+07
1.05518e+08
1.67761e+08
1.11575e+08
6.53998e+07
3.76863e+07
2.11649e+07
1.14936e+07
5.98729e+06
2.97299e+06
1.39709e+06
621496
271091
77442.6
11302.1
651.809
19.148
0.324759
0.00399542
5.26222e-05
1.14611e-06
4.55224e-08
-5.36677e-10
-6.82951e-11
-3.15578e-09
-1.59243e-09
3.07203e-11
-4.03926e-10
-7.56119e-12
-1.05696e-10
-3.45924e-11
-2.00365e-11
4.23232e-11
3.6136e-11
-1.71411e-12
4.16224e-11
-1.98244e-15
4.22052e-11
-6.23275e-12
4.23988e-11
3.61634e-11
-2.20173e-06
-2.20173e-06
-2.20175e-06
-2.20178e-06
-2.20178e-06
-9.87662e-11
-2.20173e-06
-2.20173e-06
-2.20252e-06
-4.35641e-10
-2.2026e-06
-2.20315e-06
-2.20489e-06
-6.32087e-09
-1.26419e-08
-2.21437e-06
-2.21307e-06
-2.21307e-06
-2.2523e-06
1.32425e-12
-1.15143e-06
-1.10086e-06
-1.90635e-07
8.61987e-06
0.000100028
0.000844776
0.00590349
0.0344219
0.169349
0.712562
2.60111
8.35185
23.8904
61.5825
144.524
311.686
623.507
1169.17
2074.14
3515.99
5758.58
9223.25
14628.6
23252.8
37415.6
61336.8
102589
174345
298575
510333
864573
1.44756e+06
2.3957e+06
3.92444e+06
6.37265e+06
1.02719e+07
1.64548e+07
2.5927e+07
4.13956e+07
6.59769e+07
1.05518e+08
1.6776e+08
1.11576e+08
6.54003e+07
3.76866e+07
2.11651e+07
1.14937e+07
5.98735e+06
2.97302e+06
1.39711e+06
621503
271094
77443.9
11302.3
651.825
19.1484
0.324766
0.00399551
5.26499e-05
1.14613e-06
4.55224e-08
1.21265e-08
-6.4318e-09
-3.76628e-11
2.39946e-11
-7.5941e-10
-1.43692e-10
-1.98863e-10
-5.70645e-11
1.98643e-11
-1.38041e-11
3.5516e-11
3.6136e-11
3.61542e-11
4.16224e-11
-3.87788e-13
3.59728e-11
4.23504e-11
4.23988e-11
4.23989e-11
-2.20173e-06
-6.17289e-12
-2.20175e-06
-4.93831e-11
-2.20183e-06
-4.43086e-11
-1.0891e-10
-9.28709e-20
-2.20173e-06
-2.20252e-06
-2.20331e-06
-2.20489e-06
-2.20489e-06
1.65621e-13
-5.67133e-09
-5.6715e-09
-2.22701e-06
-2.22701e-06
-2.2523e-06
-2.2523e-06
-1.15143e-06
-9.99726e-07
-1.90635e-07
8.61987e-06
9.85221e-05
0.000842394
0.00588949
0.0343362
0.168921
0.710748
2.59445
8.33035
23.8286
61.4229
144.149
310.877
621.889
1166.13
2068.72
3506.7
5743.04
9197.52
14585.7
23180.5
37290.9
61117.8
102200
173656
297366
508255
861071
1.44175e+06
2.38617e+06
3.90893e+06
6.3476e+06
1.02317e+07
1.63917e+07
2.58278e+07
4.12372e+07
6.57236e+07
1.05109e+08
1.67272e+08
1.12169e+08
6.57565e+07
3.79005e+07
2.12918e+07
1.1567e+07
6.02822e+06
2.99488e+06
1.4082e+06
626745
273569
78574.2
11576.2
672.083
19.8446
0.33783
0.00415985
5.46106e-05
1.1541e-06
4.54022e-08
-4.97101e-10
-6.96075e-11
-3.79581e-11
-1.59253e-09
3.06957e-11
-3.97714e-10
-2.05102e-10
-5.70686e-11
3.57851e-11
-7.17488e-12
-6.30884e-12
3.89646e-11
4.06847e-11
3.53899e-11
-6.62026e-12
4.23981e-11
-6.23275e-12
-2.4211e-14
3.61634e-11
-1.54322e-12
-2.20173e-06
-2.20173e-06
-2.20178e-06
-2.20173e-06
-2.20183e-06
-2.20193e-06
-9.28709e-20
-2.20216e-06
-2.20252e-06
-2.20331e-06
-3.16044e-09
-1.74256e-09
-2.20805e-06
-2.2087e-06
-6.97058e-09
-2.97187e-18
-2.22701e-06
6.62418e-13
-2.2523e-06
-1.12874e-06
-1.10086e-06
8.09091e-07
8.61987e-06
9.92184e-05
0.000837944
0.00585944
0.0341609
0.168054
0.707079
2.58097
8.28684
23.7036
61.0994
143.389
309.235
618.601
1159.95
2057.7
3487.84
5711.56
9145.53
14499.6
23035.6
37042.4
60683.7
101433
172300
294996
504194
854239
1.43042e+06
2.36758e+06
3.87865e+06
6.29854e+06
1.01526e+07
1.62658e+07
2.56288e+07
4.09176e+07
6.52128e+07
1.04286e+08
1.66254e+08
1.13397e+08
6.64918e+07
3.83409e+07
2.15522e+07
1.17173e+07
6.112e+06
3.03967e+06
1.43094e+06
637506
278567
80886.4
12149.6
715.37
21.3586
0.366693
0.00452694
5.9127e-05
1.24778e-06
4.51151e-08
5.11192e-09
-1.0853e-10
-3.2349e-11
-1.55658e-09
-8.01915e-10
-3.55348e-10
-2.0512e-10
-5.70768e-11
1.47846e-11
-7.17642e-12
-6.30974e-12
2.99625e-11
-6.24502e-12
-7.76681e-13
-6.23449e-12
3.60593e-11
-6.28099e-12
3.61423e-11
4.23959e-11
-2.20173e-06
-2.20173e-06
-2.20173e-06
-2.20178e-06
-2.20175e-06
-9.87611e-11
-2.20193e-06
-3.95055e-10
-7.9013e-10
-2.20252e-06
-2.20331e-06
-3.16044e-09
-2.20489e-06
-6.32087e-09
-2.20173e-06
-2.2087e-06
-1.13427e-08
-1.13423e-08
-2.22961e-06
-5.05683e-08
-1.10086e-06
-1.10086e-06
-2.91771e-07
9.6196e-06
9.73085e-05
0.000833314
0.0058155
0.0339069
0.166789
0.701702
2.56117
8.2227
23.5187
60.6196
142.256
306.784
613.677
1150.66
2041.12
3459.4
5664.07
9067.21
14370.2
22819.1
36673.6
60043.9
100310
170330
291581
498385
844551
1.4145e+06
2.34167e+06
3.8367e+06
6.23082e+06
1.00431e+07
1.60877e+07
2.53397e+07
4.04296e+07
6.444e+07
1.03049e+08
1.64661e+08
1.1534e+08
6.76502e+07
3.90312e+07
2.19583e+07
1.19509e+07
6.24183e+06
3.10895e+06
1.46606e+06
654084
285968
84357.5
13029.4
784.486
23.8456
0.415141
0.00515046
6.67642e-05
1.36168e-06
4.47011e-08
1.20869e-08
-6.4339e-09
-3.20005e-09
-1.59924e-09
-3.2397e-10
-4.04025e-10
-1.56511e-10
-1.05716e-10
-8.53374e-12
-6.42931e-12
-1.86573e-11
4.23671e-11
3.30671e-11
4.16221e-11
-3.87888e-13
-8.19006e-16
3.61179e-11
-6.23256e-12
-6.23549e-12
8.08692e-17
-2.20173e-06
-2.20173e-06
-2.20175e-06
-2.21517e-11
-5.44577e-11
5.1756e-15
-3.95055e-10
-1.85742e-19
-2.20208e-06
-1.58026e-09
0
-2.20347e-06
-2.20456e-06
-5.67133e-09
0
3.31239e-13
-2.22701e-06
-2.2523e-06
-2.2523e-06
-1.15143e-06
-1.10086e-06
8.09093e-07
8.4176e-06
9.63982e-05
0.000826076
0.00576124
0.0335829
0.165167
0.694781
2.53556
8.13941
23.2775
59.9911
140.767
303.545
607.137
1138.28
2018.89
3421.13
5600.02
8961.42
14195.5
22527.4
36178.1
59188
98815.9
167723
287092
490825
832105
1.39442e+06
2.30982e+06
3.787e+06
6.15465e+06
9.92888e+06
1.59213e+07
2.51101e+07
3.96293e+07
6.33644e+07
1.01412e+08
1.62199e+08
1.18055e+08
6.92477e+07
3.99751e+07
2.25106e+07
1.22676e+07
6.4181e+06
3.20307e+06
1.51383e+06
676552
295821
91447.4
14240.7
886.24
27.6436
0.490961
0.0061366
7.86995e-05
1.59526e-06
5.5394e-08
5.03423e-09
-6.44637e-09
-3.15903e-09
-8.90728e-10
-7.95953e-10
-3.97862e-10
-2.05172e-10
-5.71014e-11
-1.05399e-10
-2.03514e-13
-1.24281e-11
-6.20589e-12
-1.71513e-12
-7.76994e-13
4.2011e-11
3.60791e-11
3.61179e-11
-1.0563e-16
-6.23414e-12
-2.20173e-06
-2.20173e-06
-2.46916e-11
-2.20178e-06
-2.20175e-06
-9.87611e-11
-1.97527e-10
-2.20173e-06
-2.20173e-06
-2.20216e-06
-1.58022e-09
-2.20315e-06
-3.16044e-09
-2.20521e-06
-6.97042e-09
-1.26417e-08
-2.21567e-06
-2.21567e-06
-2.2523e-06
-2.22961e-06
-2.7881e-08
-9.99727e-07
8.09093e-07
9.51846e-06
9.62855e-05
0.00081512
0.00569656
0.0331989
0.163245
0.68653
2.50486
8.03898
22.9851
59.2247
138.94
299.548
599.024
1122.83
1991
3372.84
5518.76
8826.63
13972
22153.2
35540.7
58082.7
96876.4
164316
281171
480732
815236
1.36667e+06
2.26465e+06
3.71402e+06
6.03725e+06
9.74031e+06
1.56177e+07
2.46254e+07
3.88415e+07
6.21108e+07
9.94027e+07
1.59267e+08
1.21224e+08
7.11411e+07
4.11085e+07
2.31815e+07
1.26562e+07
6.63634e+06
3.32058e+06
1.57398e+06
705168
308227
100076
15930.9
1034.78
33.3633
0.607989
0.0076764
9.72069e-05
1.89496e-06
6.83924e-08
6.29008e-09
-6.4547e-09
-2.83547e-13
-1.59399e-09
3.63622e-11
-4.04176e-10
-1.62818e-10
-8.89463e-12
4.19899e-11
-2.11716e-13
3.55061e-11
3.61916e-11
-3.10035e-12
4.16217e-11
4.20109e-11
-1.93784e-13
-4.85581e-14
-1.10135e-16
-3.03332e-15
-2.20173e-06
-2.20173e-06
-2.20174e-06
-4.93818e-11
-7.66094e-11
-9.87611e-11
-2.20193e-06
-2.2019e-06
-2.20252e-06
-7.90109e-10
-2.20331e-06
-2.20315e-06
-3.16052e-09
-2.20456e-06
1.65619e-13
-2.2074e-06
3.31242e-13
-1.1343e-08
-2.2523e-06
-2.26853e-08
-1.15143e-06
-9.99726e-07
-2.36007e-07
8.11419e-06
9.61727e-05
0.000805601
0.0056272
0.0327752
0.161092
0.677219
2.46995
7.924
22.648
58.3351
136.806
294.847
589.414
1104.4
1957.51
3314.51
5420
8661.87
13697.5
21691.4
34751.1
56708.8
94456.9
160049
273722
467974
793822
1.33132e+06
2.20696e+06
3.62072e+06
5.88742e+06
9.50106e+06
1.52374e+07
2.40309e+07
3.79088e+07
6.06186e+07
9.69978e+07
1.55625e+08
1.24934e+08
7.33648e+07
4.2446e+07
2.39777e+07
1.31204e+07
6.89903e+06
3.4631e+06
1.64754e+06
740544
323783
110257
18263.2
1251.32
42.0135
0.790313
0.0101101
0.00012612
2.40728e-06
9.23104e-08
1.18656e-08
-3.5879e-09
-1.46289e-09
-1.55851e-09
-3.18352e-10
-3.61892e-10
-4.77192e-11