/*--------------------------------*- C++ -*----------------------------------*\
  =========                 |
  \\      /  F ield         | OpenFOAM: The Open Source CFD Toolbox
   \\    /   O peration     | Website:  https://openfoam.org
    \\  /    A nd           | Version:  8
     \\/     M anipulation  |
\*---------------------------------------------------------------------------*/
FoamFile
{
    version     2.0;
    format      ascii;
    class       volScalarField;
    location    "0.15/fluid";
    object      rho;
}
// * * * * * * * * * * * * * * * * * * * * * * * * * * * * * * * * * * * * * //

dimensions      [1 -3 0 0 0 0 0];

internalField   nonuniform List<scalar> 
4000
(
0.658528
0.658507
0.658473
0.658417
0.658325
0.658173
0.657925
0.657525
0.656883
0.655866
0.654274
0.651825
0.64813
0.642692
0.634922
0.62421
0.610044
0.592178
0.570754
0.546382
0.520049
0.492893
0.465977
0.440137
0.41592
0.393604
0.373259
0.354822
0.338148
0.323066
0.309397
0.296971
0.285637
0.275261
0.265732
0.256956
0.248843
0.24129
0.234234
0.227627
0.221425
0.215592
0.210097
0.204913
0.200016
0.195388
0.19101
0.186868
0.182949
0.179242
0.175739
0.172431
0.169313
0.166384
0.163646
0.161106
0.158782
0.156705
0.154941
0.153588
0.15273
0.152654
0.153802
0.156999
0.163433
0.172452
0.183849
0.197667
0.214129
0.233626
0.256725
0.284196
0.317054
0.356606
0.404595
0.463178
0.53452
0.620004
0.718802
0.825915
0.931194
1.02204
1.0897
1.13343
1.15855
1.17166
1.17813
1.18121
1.18264
1.1833
1.18359
1.18372
1.18378
1.1838
1.18381
1.18382
1.18382
1.18382
1.18382
1.18382
0.658528
0.658507
0.658473
0.658416
0.658322
0.658168
0.657916
0.657509
0.656857
0.655824
0.654211
0.651735
0.648012
0.642549
0.634772
0.624086
0.609995
0.592258
0.571025
0.546883
0.520761
0.493771
0.466958
0.441166
0.416948
0.394593
0.374178
0.35565
0.338888
0.323721
0.309973
0.297474
0.286073
0.275636
0.266052
0.257227
0.24907
0.241478
0.234387
0.227748
0.221517
0.215659
0.21014
0.204934
0.200018
0.195372
0.190978
0.186822
0.182891
0.179173
0.17566
0.172344
0.169219
0.166285
0.163544
0.161004
0.158683
0.156615
0.154873
0.153551
0.152743
0.152754
0.154051
0.15752
0.164196
0.173461
0.185132
0.199276
0.21614
0.236144
0.259894
0.28821
0.322171
0.363168
0.413061
0.474076
0.548324
0.636885
0.738199
0.846111
0.949511
1.0361
1.09877
1.13844
1.161
1.17278
1.17862
1.18142
1.18273
1.18333
1.1836
1.18372
1.18378
1.1838
1.18381
1.18382
1.18382
1.18382
1.18382
1.18382
0.658527
0.658507
0.658472
0.658414
0.658318
0.658161
0.657905
0.65749
0.656827
0.655779
0.654145
0.651644
0.647894
0.642409
0.634622
0.623948
0.609901
0.592241
0.571124
0.547128
0.52117
0.494332
0.467654
0.441951
0.417772
0.395413
0.374976
0.356414
0.339602
0.324378
0.310569
0.298009
0.286547
0.276053
0.266414
0.257537
0.249333
0.241697
0.234565
0.227887
0.221621
0.215727
0.210176
0.204942
0.2
0.195329
0.190913
0.186736
0.182786
0.179051
0.175523
0.172194
0.169059
0.166117
0.163371
0.160831
0.158516
0.156464
0.15476
0.153488
0.152765
0.152919
0.154465
0.158392
0.165463
0.175124
0.187229
0.201876
0.219345
0.240091
0.264764
0.294237
0.329648
0.372458
0.424613
0.488304
0.565429
0.656541
0.759185
0.866225
0.966258
1.04799
1.10603
1.14236
1.16292
1.17367
1.17902
1.1816
1.1828
1.18336
1.18362
1.18373
1.18378
1.1838
1.18381
1.18382
1.18382
1.18382
1.18382
1.18382
0.658527
0.658506
0.658471
0.658412
0.658316
0.658157
0.657898
0.657479
0.656811
0.655755
0.654113
0.651602
0.647842
0.642352
0.63457
0.623922
0.609929
0.592358
0.571353
0.547479
0.521643
0.494908
0.468295
0.442626
0.418462
0.396102
0.375643
0.357047
0.340192
0.32492
0.311061
0.298452
0.286941
0.2764
0.266714
0.257793
0.249547
0.241871
0.2347
0.227985
0.221683
0.215757
0.210177
0.204914
0.199945
0.195248
0.190808
0.186609
0.182639
0.178886
0.175341
0.171998
0.168852
0.165902
0.163152
0.160613
0.158307
0.156273
0.154618
0.153408
0.15279
0.15312
0.154972
0.159462
0.167015
0.177153
0.189774
0.20501
0.223175
0.244763
0.270466
0.301208
0.338183
0.382926
0.43745
0.503891
0.583904
0.677497
0.781329
0.887326
0.983862
1.06067
1.11397
1.14678
1.16517
1.17476
1.17953
1.18182
1.18291
1.18341
1.18364
1.18374
1.18379
1.18381
1.18381
1.18382
1.18382
1.18382
1.18382
1.18382
0.658527
0.658506
0.65847
0.658411
0.658314
0.658153
0.657893
0.657471
0.656799
0.655738
0.65409
0.651573
0.647809
0.642318
0.634545
0.623916
0.609961
0.592451
0.571525
0.547739
0.521987
0.495327
0.468773
0.443143
0.418993
0.396629
0.376151
0.357526
0.340637
0.325328
0.31143
0.298781
0.287231
0.276651
0.266928
0.257969
0.249687
0.241975
0.234771
0.228026
0.221696
0.215743
0.210135
0.204845
0.19985
0.19513
0.190667
0.186447
0.182458
0.178687
0.175128
0.171772
0.168616
0.16566
0.162908
0.160373
0.15808
0.156072
0.154467
0.153322
0.152817
0.153337
0.155521
0.160625
0.168701
0.17935
0.192519
0.208376
0.227269
0.24973
0.276494
0.308531
0.347088
0.393779
0.450652
0.519757
0.602455
0.69816
0.802644
0.907046
0.999794
1.07181
1.12079
1.15053
1.16708
1.17568
1.17996
1.18202
1.183
1.18345
1.18365
1.18375
1.18379
1.18381
1.18382
1.18382
1.18382
1.18382
1.18382
1.18382
0.658527
0.658506
0.65847
0.658411
0.658312
0.658151
0.657889
0.657467
0.656792
0.655729
0.654078
0.651559
0.647795
0.642309
0.634547
0.623942
0.610023
0.592562
0.571696
0.547973
0.522281
0.495669
0.469148
0.443535
0.419388
0.397014
0.376518
0.357868
0.340951
0.325611
0.311682
0.299001
0.28742
0.276807
0.267052
0.258062
0.249751
0.242014
0.234786
0.228015
0.22166
0.215682
0.21005
0.204737
0.19972
0.194979
0.190496
0.186258
0.182252
0.178467
0.174895
0.171529
0.168366
0.165406
0.162656
0.16013
0.157854
0.155877
0.154323
0.153223
0.152843
0.153564
0.156091
0.161817
0.17042
0.181583
0.1953
0.211774
0.231388
0.254712
0.282519
0.315827
0.355929
0.404525
0.463666
0.535303
0.620481
0.718015
0.822837
0.925432
1.01443
1.08195
1.12698
1.15396
1.16885
1.17654
1.18036
1.18221
1.18308
1.18348
1.18367
1.18375
1.18379
1.18381
1.18382
1.18382
1.18382
1.18382
1.18382
1.18382
0.658527
0.658506
0.65847
0.65841
0.658311
0.65815
0.657887
0.657464
0.656788
0.655723
0.654071
0.651551
0.647788
0.642306
0.634554
0.623967
0.610075
0.592651
0.571827
0.548149
0.522498
0.495919
0.469419
0.443814
0.419665
0.397279
0.376766
0.358096
0.341154
0.325789
0.311833
0.299126
0.287518
0.27688
0.267102
0.258091
0.24976
0.242001
0.234751
0.227958
0.221581
0.215582
0.20993
0.204598
0.199563
0.194804
0.190306
0.186053
0.182033
0.178236
0.174654
0.17128
0.168112
0.165151
0.162404
0.159887
0.15763
0.15569
0.154185
0.15316
0.152905
0.153834
0.156718
0.163022
0.172121
0.183772
0.198011
0.215076
0.235382
0.259531
0.288338
0.322862
0.364447
0.414865
0.47616
0.550159
0.637577
0.736626
0.841455
0.94204
1.02737
1.09074
1.13229
1.15687
1.17034
1.17727
1.18071
1.18237
1.18315
1.18352
1.18368
1.18376
1.18379
1.18381
1.18382
1.18382
1.18382
1.18382
1.18382
1.18382
0.658527
0.658506
0.65847
0.65841
0.658311
0.658149
0.657886
0.657461
0.656785
0.65572
0.654067
0.651547
0.647786
0.642309
0.634565
0.623991
0.61012
0.592721
0.571926
0.548278
0.522652
0.496092
0.469601
0.443998
0.419843
0.397445
0.376916
0.358226
0.341264
0.325878
0.311903
0.299176
0.287551
0.276896
0.267101
0.258071
0.249721
0.241944
0.234675
0.227865
0.22147
0.215455
0.209787
0.204439
0.199388
0.194616
0.190104
0.18584
0.181809
0.178003
0.174413
0.171034
0.167863
0.164903
0.162161
0.159655
0.157418
0.155518
0.154067
0.15313
0.153018
0.15419
0.157512
0.164271
0.173792
0.185877
0.200593
0.218205
0.239156
0.264079
0.293824
0.329491
0.372471
0.424601
0.487903
0.564066
0.653473
0.75375
0.85834
0.956845
1.03872
1.09835
1.13684
1.15936
1.17162
1.1779
1.18101
1.18251
1.18322
1.18355
1.1837
1.18377
1.1838
1.18381
1.18382
1.18382
1.18382
1.18382
1.18382
1.18382
0.658527
0.658506
0.658469
0.658409
0.65831
0.658148
0.657884
0.65746
0.656783
0.655717
0.654064
0.651545
0.647784
0.64231
0.634572
0.624008
0.610149
0.592766
0.57199
0.548358
0.522747
0.496195
0.469707
0.444101
0.419938
0.397529
0.376986
0.358282
0.341307
0.325907
0.311918
0.299177
0.287537
0.276866
0.267055
0.25801
0.249645
0.241854
0.23457
0.227746
0.221338
0.215309
0.209628
0.204268
0.199206
0.194422
0.189901
0.185627
0.181588
0.177775
0.17418
0.170797
0.167626
0.164667
0.161932
0.159439
0.157223
0.155368
0.15397
0.153122
0.153156
0.154576
0.158348
0.165488
0.175376
0.187848
0.202996
0.221107
0.242651
0.268288
0.298901
0.335623
0.379899
0.433614
0.49876
0.576879
0.668026
0.769271
0.873429
0.969855
1.04852
1.10483
1.14068
1.16146
1.17269
1.17842
1.18126
1.18262
1.18327
1.18357
1.18371
1.18377
1.1838
1.18381
1.18382
1.18382
1.18382
1.18382
1.18382
1.18382
0.658527
0.658506
0.658469
0.658409
0.65831
0.658147
0.657884
0.657458
0.656781
0.655715
0.654061
0.651542
0.647782
0.64231
0.634575
0.624015
0.610163
0.592789
0.572021
0.548398
0.522792
0.496242
0.469753
0.444142
0.419973
0.397557
0.377005
0.358291
0.341303
0.325891
0.311889
0.299136
0.287483
0.2768
0.266978
0.257922
0.249545
0.241742
0.234448
0.227613
0.221194
0.215155
0.209464
0.204094
0.199023
0.194231
0.189701
0.18542
0.181376
0.177558
0.173959
0.170575
0.167404
0.164449
0.161721
0.159241
0.157046
0.155234
0.153888
0.153122
0.15329
0.154938
0.159125
0.166608
0.176827
0.189647
0.205186
0.223751
0.245833
0.27212
0.303523
0.34121
0.386674
0.441834
0.508649
0.588515
0.681164
0.783151
0.886752
0.981169
1.05692
1.11032
1.1439
1.16321
1.17358
1.17886
1.18147
1.18272
1.18331
1.18359
1.18372
1.18378
1.1838
1.18381
1.18382
1.18382
1.18382
1.18382
1.18382
1.18382
0.658527
0.658505
0.658469
0.658409
0.65831
0.658147
0.657883
0.657457
0.656779
0.655713
0.654059
0.651539
0.647779
0.642307
0.634573
0.624015
0.610167
0.592796
0.572031
0.54841
0.522805
0.496254
0.469761
0.444145
0.419968
0.397542
0.37698
0.358256
0.341259
0.325838
0.311827
0.299064
0.287402
0.276711
0.26688
0.257816
0.249431
0.241619
0.234316
0.227473
0.221046
0.214999
0.2093
0.203923
0.198845
0.194047
0.189512
0.185226
0.181177
0.177356
0.173756
0.170371
0.167201
0.164251
0.16153
0.159062
0.156888
0.155115
0.153815
0.153123
0.15341
0.155262
0.159822
0.167614
0.178129
0.191262
0.20715
0.226122
0.248688
0.275559
0.307674
0.346231
0.392768
0.449231
0.517538
0.598943
0.692874
0.795416
0.898384
0.990912
1.06405
1.11493
1.1466
1.16466
1.17433
1.17923
1.18164
1.1828
1.18335
1.18361
1.18373
1.18378
1.1838
1.18381
1.18382
1.18382
1.18382
1.18382
1.18382
1.18382
0.658527
0.658505
0.658469
0.658409
0.658309
0.658146
0.657882
0.657456
0.656778
0.65571
0.654056
0.651535
0.647774
0.642301
0.634566
0.624007
0.610158
0.592785
0.572019
0.548395
0.522785
0.496229
0.469731
0.444108
0.419924
0.397491
0.376923
0.358192
0.341189
0.325761
0.311743
0.298974
0.287306
0.276609
0.266771
0.257701
0.24931
0.241492
0.234183
0.227333
0.2209
0.214847
0.209143
0.203761
0.198678
0.193875
0.189336
0.185046
0.180995
0.177172
0.173571
0.170187
0.167019
0.164073
0.161359
0.158903
0.156747
0.15501
0.153751
0.153124
0.153517
0.155548
0.160437
0.168502
0.17928
0.19269
0.208888
0.22822
0.251215
0.278605
0.311353
0.350683
0.398179
0.455798
0.525423
0.608168
0.703181
0.806126
0.908433
0.999228
1.07007
1.11879
1.14883
1.16587
1.17494
1.17953
1.18179
1.18287
1.18338
1.18362
1.18373
1.18378
1.1838
1.18381
1.18382
1.18382
1.18382
1.18382
1.18382
1.18382
0.658527
0.658505
0.658469
0.658408
0.658309
0.658146
0.657881
0.657455
0.656776
0.655708
0.654053
0.651531
0.647768
0.642293
0.634555
0.623993
0.610139
0.592762
0.57199
0.54836
0.522744
0.496181
0.469676
0.444047
0.419857
0.397419
0.376846
0.35811
0.341102
0.32567
0.311648
0.298875
0.287203
0.276501
0.26666
0.257586
0.249191
0.241368
0.234054
0.2272
0.220762
0.214705
0.208996
0.20361
0.198524
0.193717
0.189176
0.184884
0.180831
0.177008
0.173407
0.170024
0.166859
0.163916
0.16121
0.158764
0.156624
0.154919
0.153695
0.153125
0.153609
0.155797
0.160973
0.169278
0.180285
0.193937
0.210406
0.230052
0.253422
0.281267
0.31457
0.354578
0.402917
0.461549
0.532321
0.616218
0.712134
0.815363
0.917017
1.00625
1.07511
1.12199
1.15068
1.16686
1.17544
1.17978
1.1819
1.18293
1.18341
1.18363
1.18374
1.18378
1.1838
1.18381
1.18382
1.18382
1.18382
1.18382
1.18382
1.18382
0.658527
0.658505
0.658469
0.658408
0.658309
0.658145
0.65788
0.657454
0.656774
0.655706
0.654049
0.651526
0.647761
0.642283
0.634542
0.623975
0.610116
0.592731
0.571951
0.548313
0.522689
0.496118
0.469607
0.443972
0.419777
0.397336
0.376759
0.35802
0.34101
0.325575
0.311551
0.298775
0.2871
0.276396
0.266552
0.257475
0.249077
0.241251
0.233934
0.227076
0.220635
0.214575
0.208863
0.203475
0.198386
0.193578
0.189034
0.184741
0.180688
0.176864
0.173264
0.169882
0.16672
0.163782
0.161083
0.158647
0.15652
0.154837
0.153646
0.153124
0.153688
0.15601
0.161435
0.169946
0.181151
0.195011
0.211713
0.231629
0.255323
0.283559
0.31734
0.357934
0.407001
0.466505
0.538261
0.623134
0.719794
0.823215
0.924253
1.01212
1.07928
1.12462
1.15219
1.16767
1.17585
1.17998
1.182
1.18297
1.18343
1.18364
1.18374
1.18379
1.18381
1.18381
1.18382
1.18382
1.18382
1.18382
1.18382
1.18382
0.658527
0.658505
0.658469
0.658408
0.658308
0.658145
0.65788
0.657453
0.656773
0.655703
0.654046
0.651521
0.647754
0.642273
0.634528
0.623956
0.610089
0.592697
0.571908
0.548261
0.522628
0.49605
0.469532
0.443893
0.419694
0.39725
0.376671
0.357931
0.340919
0.325483
0.311457
0.29868
0.287003
0.276297
0.266452
0.257373
0.248973
0.241145
0.233825
0.226966
0.220523
0.21446
0.208747
0.203356
0.198266
0.193456
0.188912
0.184618
0.180565
0.176742
0.173142
0.169763
0.166604
0.16367
0.160976
0.158549
0.156435
0.154769
0.153604
0.153124
0.153755
0.156193
0.161828
0.170514
0.181887
0.195922
0.21282
0.232964
0.256929
0.285496
0.31968
0.36077
0.410453
0.470695
0.543276
0.628962
0.726225
0.82977
0.930252
1.01695
1.08268
1.12675
1.15342
1.16832
1.17618
1.18014
1.18208
1.18301
1.18345
1.18365
1.18374
1.18379
1.18381
1.18381
1.18382
1.18382
1.18382
1.18382
1.18382
1.18382
0.658527
0.658505
0.658469
0.658408
0.658308
0.658145
0.657879
0.657452
0.656772
0.655701
0.654042
0.651516
0.647747
0.642263
0.634514
0.623936
0.610063
0.592662
0.571865
0.548209
0.522568
0.495983
0.46946
0.443816
0.419615
0.397168
0.376588
0.357847
0.340835
0.325398
0.311371
0.298594
0.286916
0.27621
0.266363
0.257284
0.248883
0.241053
0.233732
0.226871
0.220426
0.214362
0.208648
0.203256
0.198165
0.193355
0.18881
0.184516
0.180463
0.176641
0.173043
0.169666
0.166509
0.16358
0.160891
0.158471
0.156367
0.154714
0.153568
0.153122
0.153809
0.156344
0.162157
0.170988
0.182499
0.196678
0.213736
0.234067
0.258255
0.287092
0.321608
0.363106
0.413295
0.474143
0.5474
0.633744
0.731486
0.83511
0.935109
1.02083
1.0854
1.12845
1.15438
1.16884
1.17644
1.18027
1.18214
1.18304
1.18346
1.18366
1.18375
1.18379
1.18381
1.18382
1.18382
1.18382
1.18382
1.18382
1.18382
1.18382
0.658527
0.658505
0.658469
0.658408
0.658308
0.658144
0.657879
0.657451
0.65677
0.655699
0.65404
0.651512
0.647741
0.642254
0.634501
0.623918
0.610038
0.592631
0.571826
0.548162
0.522514
0.495923
0.469395
0.443748
0.419544
0.397097
0.376516
0.357775
0.340762
0.325325
0.311299
0.298521
0.286843
0.276137
0.266289
0.25721
0.248808
0.240977
0.233655
0.226793
0.220348
0.214283
0.208568
0.203175
0.198083
0.193273
0.188728
0.184435
0.180383
0.176561
0.172965
0.16959
0.166437
0.163511
0.160828
0.158416
0.156323
0.154687
0.153522
0.15311
0.153846
0.156463
0.162421
0.17137
0.18299
0.197284
0.214468
0.234946
0.25931
0.28836
0.323137
0.364956
0.415545
0.476872
0.55066
0.637519
0.735628
0.839298
0.938902
1.02385
1.08751
1.12976
1.15513
1.16924
1.17665
1.18037
1.18219
1.18306
1.18347
1.18366
1.18375
1.18379
1.18381
1.18382
1.18382
1.18382
1.18382
1.18382
1.18382
1.18382
0.658527
0.658505
0.658469
0.658408
0.658308
0.658144
0.657878
0.65745
0.656769
0.655698
0.654037
0.651508
0.647736
0.642247
0.63449
0.623903
0.610019
0.592605
0.571793
0.548123
0.522469
0.495874
0.469342
0.443693
0.419488
0.397039
0.376459
0.357717
0.340705
0.325268
0.311242
0.298464
0.286787
0.27608
0.266232
0.257152
0.24875
0.240919
0.233597
0.226734
0.220288
0.214223
0.208507
0.203114
0.198022
0.193212
0.188667
0.184375
0.180323
0.176502
0.172907
0.169534
0.166382
0.16346
0.16078
0.158373
0.156285
0.154656
0.153501
0.153109
0.15388
0.156557
0.162621
0.171657
0.183359
0.197738
0.215017
0.235604
0.260098
0.289306
0.324276
0.366334
0.41722
0.4789
0.553079
0.640315
0.738689
0.842384
0.941689
1.02606
1.08905
1.13073
1.15568
1.16953
1.17679
1.18044
1.18222
1.18307
1.18348
1.18366
1.18375
1.18379
1.18381
1.18382
1.18382
1.18382
1.18382
1.18382
1.18382
1.18382
0.658527
0.658505
0.658469
0.658408
0.658308
0.658144
0.657878
0.65745
0.656769
0.655697
0.654036
0.651506
0.647732
0.642241
0.634483
0.623893
0.610005
0.592587
0.571771
0.548096
0.522438
0.495839
0.469305
0.443654
0.419448
0.397
0.376419
0.357678
0.340665
0.325229
0.311203
0.298425
0.286748
0.276041
0.266194
0.257114
0.248711
0.24088
0.233557
0.226694
0.220248
0.214183
0.208467
0.203074
0.197982
0.193171
0.188627
0.184334
0.180283
0.176463
0.172869
0.169496
0.166346
0.163425
0.160748
0.158343
0.156259
0.154635
0.153488
0.153109
0.153903
0.15662
0.162754
0.171848
0.183605
0.19804
0.215381
0.236041
0.260621
0.289933
0.325032
0.367247
0.418327
0.48024
0.554675
0.642155
0.740697
0.844402
0.943503
1.0275
1.09005
1.13135
1.15604
1.16972
1.17689
1.18048
1.18224
1.18308
1.18348
1.18367
1.18375
1.18379
1.18381
1.18382
1.18382
1.18382
1.18382
1.18382
1.18382
1.18382
0.658527
0.658505
0.658469
0.658408
0.658308
0.658144
0.657878
0.65745
0.656768
0.655696
0.654035
0.651505
0.647731
0.642239
0.634479
0.623888
0.609998
0.592578
0.57176
0.548083
0.522423
0.495822
0.469287
0.443635
0.419429
0.39698
0.376399
0.357658
0.340646
0.32521
0.311184
0.298406
0.286729
0.276022
0.266175
0.257095
0.248692
0.24086
0.233538
0.226675
0.220228
0.214163
0.208447
0.203054
0.197962
0.193151
0.188607
0.184314
0.180263
0.176444
0.17285
0.169478
0.166328
0.163408
0.160732
0.158328
0.156246
0.154625
0.153482
0.15311
0.153915
0.156652
0.16282
0.171942
0.183726
0.198189
0.215561
0.236256
0.260879
0.290242
0.325402
0.367693
0.418868
0.480891
0.555447
0.643041
0.741658
0.84536
0.944359
1.02817
1.09052
1.13165
1.15621
1.16981
1.17694
1.18051
1.18225
1.18309
1.18348
1.18367
1.18375
1.18379
1.18381
1.18382
1.18382
1.18382
1.18382
1.18382
1.18382
1.18382
0.658527
0.658505
0.658469
0.658408
0.658308
0.658144
0.657878
0.65745
0.656768
0.655696
0.654035
0.651505
0.647731
0.642239
0.634479
0.623888
0.609998
0.592578
0.57176
0.548083
0.522423
0.495823
0.469287
0.443635
0.419429
0.39698
0.376399
0.357658
0.340646
0.32521
0.311184
0.298406
0.286729
0.276022
0.266175
0.257095
0.248692
0.24086
0.233538
0.226675
0.220228
0.214163
0.208447
0.203054
0.197962
0.193151
0.188607
0.184315
0.180263
0.176444
0.17285
0.169478
0.166328
0.163408
0.160732
0.158328
0.156246
0.154625
0.153482
0.15311
0.153915
0.156652
0.16282
0.171942
0.183726
0.198189
0.215561
0.236256
0.260878
0.290242
0.325402
0.367693
0.418867
0.480891
0.555446
0.64304
0.741657
0.84536
0.944358
1.02817
1.09052
1.13165
1.15621
1.16981
1.17694
1.18051
1.18225
1.18309
1.18348
1.18367
1.18375
1.18379
1.18381
1.18382
1.18382
1.18382
1.18382
1.18382
1.18382
1.18382
0.658527
0.658505
0.658469
0.658408
0.658308
0.658144
0.657878
0.65745
0.656769
0.655697
0.654036
0.651506
0.647733
0.642241
0.634483
0.623893
0.610005
0.592587
0.571771
0.548096
0.522439
0.49584
0.469306
0.443655
0.419449
0.397
0.376419
0.357678
0.340666
0.325229
0.311203
0.298425
0.286748
0.276041
0.266194
0.257114
0.248712
0.24088
0.233557
0.226694
0.220248
0.214183
0.208467
0.203074
0.197982
0.193172
0.188627
0.184335
0.180283
0.176463
0.172869
0.169496
0.166346
0.163425
0.160748
0.158343
0.156259
0.154635
0.153488
0.15311
0.153903
0.15662
0.162754
0.171848
0.183604
0.198039
0.215381
0.23604
0.26062
0.289933
0.325031
0.367246
0.418326
0.480238
0.554673
0.642153
0.740695
0.844399
0.943501
1.02749
1.09005
1.13135
1.15604
1.16972
1.17689
1.18048
1.18224
1.18308
1.18348
1.18367
1.18375
1.18379
1.18381
1.18382
1.18382
1.18382
1.18382
1.18382
1.18382
1.18382
0.658527
0.658505
0.658469
0.658408
0.658308
0.658144
0.657878
0.657451
0.656769
0.655698
0.654037
0.651508
0.647736
0.642247
0.63449
0.623904
0.610019
0.592606
0.571794
0.548124
0.52247
0.495874
0.469343
0.443693
0.419488
0.39704
0.376459
0.357718
0.340705
0.325269
0.311242
0.298464
0.286787
0.27608
0.266233
0.257153
0.248751
0.240919
0.233597
0.226734
0.220289
0.214223
0.208507
0.203115
0.198023
0.193212
0.188668
0.184375
0.180323
0.176503
0.172907
0.169534
0.166383
0.16346
0.160781
0.158373
0.156285
0.154656
0.153501
0.153109
0.15388
0.156557
0.162621
0.171657
0.183359
0.197737
0.215016
0.235603
0.260097
0.289304
0.324275
0.366332
0.417217
0.478897
0.553075
0.64031
0.738684
0.84238
0.941684
1.02606
1.08905
1.13073
1.15568
1.16953
1.17679
1.18044
1.18222
1.18307
1.18348
1.18366
1.18375
1.18379
1.18381
1.18382
1.18382
1.18382
1.18382
1.18382
1.18382
1.18382
0.658527
0.658505
0.658469
0.658408
0.658308
0.658144
0.657879
0.657451
0.65677
0.655699
0.65404
0.651512
0.647741
0.642254
0.634501
0.623919
0.610039
0.592632
0.571827
0.548163
0.522515
0.495924
0.469396
0.443749
0.419545
0.397098
0.376517
0.357776
0.340763
0.325326
0.3113
0.298521
0.286844
0.276137
0.26629
0.25721
0.248808
0.240977
0.233656
0.226794
0.220348
0.214284
0.208568
0.203176
0.198084
0.193274
0.188729
0.184436
0.180383
0.176562
0.172965
0.16959
0.166437
0.163512
0.160829
0.158417
0.156324
0.154687
0.153522
0.15311
0.153847
0.156463
0.16242
0.171369
0.182989
0.197283
0.214467
0.234945
0.259308
0.288358
0.323135
0.364954
0.415542
0.476868
0.550654
0.637512
0.735621
0.839291
0.938896
1.02384
1.0875
1.12976
1.15513
1.16924
1.17665
1.18037
1.18219
1.18306
1.18347
1.18366
1.18375
1.18379
1.18381
1.18382
1.18382
1.18382
1.18382
1.18382
1.18382
1.18382
0.658527
0.658505
0.658469
0.658408
0.658308
0.658145
0.657879
0.657452
0.656772
0.655701
0.654043
0.651516
0.647747
0.642263
0.634514
0.623937
0.610064
0.592663
0.571866
0.54821
0.52257
0.495985
0.469461
0.443817
0.419616
0.397169
0.376589
0.357848
0.340836
0.325399
0.311372
0.298594
0.286917
0.276211
0.266364
0.257284
0.248883
0.241053
0.233733
0.226871
0.220427
0.214363
0.208648
0.203257
0.198165
0.193355
0.18881
0.184517
0.180464
0.176641
0.173043
0.169666
0.16651
0.16358
0.160892
0.158472
0.156367
0.154714
0.153568
0.153122
0.153809
0.156344
0.162156
0.170988
0.182498
0.196677
0.213735
0.234066
0.258254
0.28709
0.321605
0.363102
0.41329
0.474138
0.547393
0.633736
0.731477
0.835101
0.9351
1.02082
1.0854
1.12845
1.15438
1.16884
1.17644
1.18027
1.18214
1.18304
1.18346
1.18366
1.18375
1.18379
1.18381
1.18382
1.18382
1.18382
1.18382
1.18382
1.18382
1.18382
0.658527
0.658505
0.658469
0.658408
0.658308
0.658145
0.65788
0.657453
0.656773
0.655704
0.654046
0.651521
0.647755
0.642273
0.634528
0.623957
0.61009
0.592698
0.57191
0.548263
0.52263
0.496052
0.469534
0.443895
0.419696
0.397251
0.376672
0.357932
0.34092
0.325484
0.311458
0.298681
0.287004
0.276298
0.266452
0.257374
0.248974
0.241145
0.233826
0.226966
0.220524
0.214461
0.208747
0.203357
0.198266
0.193457
0.188912
0.184619
0.180565
0.176742
0.173143
0.169764
0.166604
0.163671
0.160977
0.158549
0.156435
0.154769
0.153604
0.153124
0.153755
0.156193
0.161828
0.170514
0.181886
0.195921
0.212819
0.232963
0.256927
0.285493
0.319677
0.360766
0.410448
0.470688
0.543268
0.628952
0.726214
0.829759
0.930242
1.01694
1.08267
1.12675
1.15341
1.16832
1.17618
1.18014
1.18208
1.18301
1.18345
1.18365
1.18374
1.18379
1.18381
1.18381
1.18382
1.18382
1.18382
1.18382
1.18382
1.18382
0.658527
0.658505
0.658469
0.658408
0.658309
0.658145
0.65788
0.657454
0.656775
0.655706
0.654049
0.651526
0.647762
0.642284
0.634543
0.623977
0.610117
0.592733
0.571954
0.548315
0.522691
0.496121
0.469609
0.443974
0.41978
0.397338
0.376761
0.358022
0.341012
0.325577
0.311552
0.298776
0.287101
0.276397
0.266553
0.257476
0.249078
0.241252
0.233935
0.227077
0.220636
0.214576
0.208864
0.203475
0.198386
0.193578
0.189035
0.184742
0.180688
0.176865
0.173264
0.169883
0.166721
0.163783
0.161083
0.158647
0.156521
0.154838
0.153646
0.153125
0.153688
0.15601
0.161435
0.169945
0.18115
0.19501
0.211711
0.231628
0.25532
0.283556
0.317336
0.35793
0.406995
0.466498
0.538252
0.623124
0.719782
0.823202
0.924242
1.01211
1.07927
1.12461
1.15219
1.16767
1.17585
1.17998
1.182
1.18297
1.18343
1.18364
1.18374
1.18379
1.18381
1.18381
1.18382
1.18382
1.18382
1.18382
1.18382
1.18382
0.658527
0.658505
0.658469
0.658408
0.658309
0.658146
0.657881
0.657455
0.656776
0.655708
0.654053
0.651531
0.647769
0.642293
0.634556
0.623995
0.610141
0.592764
0.571993
0.548363
0.522747
0.496184
0.469679
0.44405
0.41986
0.397422
0.376848
0.358112
0.341104
0.325672
0.31165
0.298877
0.287204
0.276503
0.266661
0.257587
0.249192
0.241369
0.234055
0.227201
0.220763
0.214706
0.208997
0.203611
0.198524
0.193718
0.189176
0.184885
0.180832
0.177008
0.173407
0.170024
0.166859
0.163917
0.161211
0.158765
0.156624
0.154919
0.153695
0.153125
0.153609
0.155797
0.160973
0.169277
0.180284
0.193936
0.210404
0.23005
0.25342
0.281264
0.314566
0.354573
0.402911
0.461541
0.532312
0.616207
0.712121
0.81535
0.917006
1.00624
1.0751
1.12198
1.15068
1.16686
1.17544
1.17978
1.1819
1.18293
1.18341
1.18363
1.18374
1.18378
1.1838
1.18381
1.18382
1.18382
1.18382
1.18382
1.18382
1.18382
0.658527
0.658505
0.658469
0.658409
0.658309
0.658146
0.657882
0.657456
0.656778
0.655711
0.654056
0.651535
0.647775
0.642302
0.634567
0.624009
0.61016
0.592788
0.572022
0.548398
0.522789
0.496233
0.469735
0.444112
0.419927
0.397494
0.376926
0.358195
0.341191
0.325763
0.311745
0.298976
0.287308
0.27661
0.266773
0.257703
0.249312
0.241494
0.234184
0.227335
0.220902
0.214848
0.209144
0.203762
0.198679
0.193876
0.189337
0.185047
0.180996
0.177173
0.173572
0.170188
0.16702
0.164073
0.16136
0.158904
0.156747
0.155011
0.153751
0.153124
0.153517
0.155548
0.160436
0.168501
0.179279
0.192688
0.208886
0.228217
0.251212
0.278602
0.311349
0.350678
0.398173
0.45579
0.525414
0.608156
0.703168
0.806113
0.908421
0.999218
1.07007
1.11878
1.14883
1.16587
1.17494
1.17953
1.18178
1.18287
1.18338
1.18362
1.18373
1.18378
1.1838
1.18381
1.18382
1.18382
1.18382
1.18382
1.18382
1.18382
0.658527
0.658505
0.658469
0.658409
0.65831
0.658147
0.657883
0.657457
0.656779
0.655713
0.654059
0.651539
0.64778
0.642308
0.634574
0.624017
0.610169
0.592798
0.572035
0.548414
0.522809
0.496258
0.469765
0.444149
0.419971
0.397546
0.376984
0.358259
0.341262
0.32584
0.311829
0.299066
0.287404
0.276713
0.266882
0.257817
0.249433
0.241621
0.234318
0.227474
0.221047
0.215
0.209301
0.203924
0.198846
0.194048
0.189513
0.185227
0.181178
0.177357
0.173757
0.170372
0.167202
0.164251
0.161531
0.159063
0.156888
0.155115
0.153815
0.153123
0.153411
0.155262
0.159821
0.167613
0.178128
0.19126
0.207149
0.226119
0.248685
0.275556
0.30767
0.346225
0.392762
0.449222
0.517528
0.598931
0.69286
0.795402
0.898371
0.990902
1.06405
1.11493
1.14659
1.16466
1.17432
1.17923
1.18164
1.1828
1.18335
1.18361
1.18373
1.18378
1.1838
1.18381
1.18382
1.18382
1.18382
1.18382
1.18382
1.18382
0.658527
0.658506
0.658469
0.658409
0.65831
0.658148
0.657884
0.657459
0.656781
0.655715
0.654062
0.651542
0.647783
0.642311
0.634576
0.624017
0.610166
0.592792
0.572025
0.548402
0.522796
0.496247
0.469758
0.444147
0.419977
0.397561
0.377009
0.358294
0.341307
0.325894
0.311892
0.299138
0.287485
0.276802
0.26698
0.257923
0.249547
0.241744
0.23445
0.227614
0.221196
0.215156
0.209465
0.204095
0.199024
0.194232
0.189703
0.185422
0.181377
0.177559
0.173961
0.170576
0.167405
0.16445
0.161722
0.159242
0.157047
0.155234
0.153888
0.153122
0.15329
0.154938
0.159125
0.166608
0.176826
0.189646
0.205184
0.223749
0.24583
0.272117
0.303519
0.341205
0.386667
0.441826
0.508639
0.588502
0.68115
0.783137
0.886738
0.981158
1.05691
1.11031
1.1439
1.1632
1.17358
1.17886
1.18147
1.18272
1.18331
1.18359
1.18372
1.18378
1.1838
1.18381
1.18382
1.18382
1.18382
1.18382
1.18382
1.18382
0.658527
0.658506
0.658469
0.658409
0.65831
0.658148
0.657885
0.65746
0.656783
0.655717
0.654064
0.651545
0.647785
0.642311
0.634574
0.62401
0.610152
0.59277
0.571994
0.548363
0.522752
0.4962
0.469712
0.444106
0.419942
0.397533
0.37699
0.358286
0.34131
0.32591
0.311921
0.29918
0.287539
0.276869
0.267057
0.258012
0.249647
0.241855
0.234572
0.227748
0.22134
0.215311
0.20963
0.20427
0.199208
0.194424
0.189902
0.185628
0.181589
0.177776
0.174181
0.170798
0.167627
0.164668
0.161933
0.15944
0.157224
0.155368
0.153971
0.153123
0.153156
0.154576
0.158348
0.165487
0.175375
0.187846
0.202994
0.221105
0.242648
0.268285
0.298896
0.335618
0.379892
0.433605
0.49875
0.576867
0.668012
0.769256
0.873416
0.969843
1.04851
1.10482
1.14067
1.16145
1.17269
1.17842
1.18126
1.18262
1.18327
1.18357
1.18371
1.18377
1.1838
1.18381
1.18382
1.18382
1.18382
1.18382
1.18382
1.18382
0.658527
0.658506
0.65847
0.65841
0.658311
0.658149
0.657886
0.657461
0.656785
0.65572
0.654067
0.651548
0.647787
0.64231
0.634567
0.623994
0.610123
0.592724
0.571931
0.548283
0.522658
0.496097
0.469607
0.444003
0.419848
0.39745
0.37692
0.35823
0.341268
0.325882
0.311906
0.299179
0.287554
0.276899
0.267103
0.258073
0.249723
0.241946
0.234677
0.227867
0.221472
0.215457
0.209788
0.20444
0.19939
0.194618
0.190106
0.185841
0.18181
0.178004
0.174414
0.171035
0.167864
0.164904
0.162162
0.159656
0.157419
0.155519
0.154068
0.153131
0.153019
0.154191
0.157512
0.16427
0.173791
0.185876
0.200591
0.218203
0.239153
0.264076
0.293821
0.329486
0.372464
0.424593
0.487894
0.564054
0.653459
0.753736
0.858326
0.956834
1.03871
1.09834
1.13683
1.15936
1.17161
1.1779
1.18101
1.18251
1.18322
1.18355
1.1837
1.18377
1.1838
1.18381
1.18382
1.18382
1.18382
1.18382
1.18382
1.18382
0.658527
0.658506
0.65847
0.65841
0.658311
0.65815
0.657887
0.657464
0.656788
0.655723
0.654071
0.651552
0.647789
0.642308
0.634556
0.623969
0.610078
0.592654
0.571832
0.548154
0.522504
0.495925
0.469424
0.44382
0.41967
0.397284
0.376771
0.3581
0.341158
0.325792
0.311836
0.299129
0.287521
0.276883
0.267105
0.258094
0.249762
0.242003
0.234753
0.22796
0.221583
0.215584
0.209932
0.2046
0.199564
0.194806
0.190307
0.186054
0.182035
0.178238
0.174655
0.171281
0.168113
0.165152
0.162405
0.159888
0.157631
0.155691
0.154186
0.153161
0.152905
0.153834
0.156718
0.163021
0.172121
0.183771
0.19801
0.215075
0.23538