/*--------------------------------*- C++ -*----------------------------------*\
  =========                 |
  \\      /  F ield         | OpenFOAM: The Open Source CFD Toolbox
   \\    /   O peration     | Website:  https://openfoam.org
    \\  /    A nd           | Version:  8
     \\/     M anipulation  |
\*---------------------------------------------------------------------------*/
FoamFile
{
    version     2.0;
    format      ascii;
    class       volScalarField;
    location    "0.15/fluid";
    object      T;
}
// * * * * * * * * * * * * * * * * * * * * * * * * * * * * * * * * * * * * * //

dimensions      [0 0 0 1 0 0 0];

internalField   nonuniform List<scalar> 
4000
(
293.003
293.013
293.031
293.059
293.106
293.183
293.309
293.512
293.837
294.354
295.165
296.421
298.333
301.189
305.363
311.308
319.531
330.545
344.805
362.624
384.119
409.216
437.679
469.166
503.302
539.727
578.129
618.254
659.887
702.873
747.093
792.45
838.851
886.205
934.41
983.346
1032.93
1083.19
1134.05
1185.4
1237.16
1289.21
1341.45
1393.77
1446.07
1498.23
1550.14
1601.69
1652.75
1703.22
1752.96
1801.86
1849.75
1896.48
1941.8
1985.42
2026.91
2065.62
2100.32
2129.22
2151.29
2161.86
2154.62
2118.98
2043.1
1943.08
1828.77
1706.43
1580.09
1452.49
1325.48
1200.51
1078.74
961.284
849.042
743.116
645.067
556.977
481.043
419.093
372.002
339.119
318.174
305.96
299.358
296.025
294.407
293.643
293.29
293.129
293.057
293.025
293.011
293.005
293.002
293.001
293
293
293
293
293.003
293.014
293.031
293.06
293.108
293.186
293.314
293.52
293.851
294.375
295.197
296.467
298.394
301.265
305.445
311.379
319.562
330.497
344.624
362.256
383.53
408.39
436.612
467.877
501.822
538.094
576.368
616.379
657.941
700.895
745.116
790.503
836.96
884.393
932.698
981.753
1031.47
1081.87
1132.89
1184.42
1236.35
1288.58
1341.02
1393.55
1446.05
1498.41
1550.52
1602.26
1653.52
1704.17
1754.1
1803.17
1851.22
1898.09
1943.53
1987.24
2028.76
2067.42
2101.84
2130.36
2151.74
2161.1
2151.79
2112.62
2034.24
1932.39
1816.68
1693.2
1565.91
1437.48
1309.76
1184.18
1061.95
944.205
831.878
726.219
628.974
542.338
468.497
409.155
364.868
334.545
315.561
304.619
298.73
295.745
294.287
293.593
293.269
293.121
293.054
293.024
293.01
293.004
293.002
293.001
293
293
293
293
293.003
293.014
293.032
293.061
293.11
293.189
293.319
293.529
293.866
294.398
295.231
296.514
298.456
301.34
305.527
311.456
319.617
330.507
344.553
362.063
383.171
407.827
435.83
466.868
500.585
536.633
574.716
614.58
656.025
698.894
743.063
788.43
834.9
882.38
930.762
979.926
1029.77
1080.34
1131.54
1183.27
1235.44
1287.94
1340.65
1393.44
1446.23
1498.88
1551.29
1603.34
1654.9
1705.85
1756.07
1805.42
1853.74
1900.84
1946.48
1990.32
2031.89
2070.46
2104.39
2132.27
2152.48
2159.83
2147.08
2102.03
2019.67
1915.01
1797.25
1672.25
1543.82
1414.57
1286.31
1160.49
1038.35
921.058
809.588
705.339
610.162
526.252
455.648
399.718
358.582
330.767
313.5
303.581
298.239
295.519
294.186
293.549
293.25
293.113
293.05
293.022
293.01
293.004
293.002
293.001
293
293
293
293
293.003
293.014
293.032
293.062
293.111
293.192
293.323
293.535
293.874
294.41
295.248
296.535
298.483
301.37
305.556
311.471
319.601
330.431
344.392
361.79
382.763
407.265
435.098
465.959
499.509
535.408
573.358
613.106
654.456
697.252
741.373
786.718
833.195
880.711
929.16
978.422
1028.4
1079.12
1130.51
1182.47
1234.88
1287.64
1340.61
1393.71
1446.81
1499.79
1552.54
1604.93
1656.85
1708.15
1758.71
1808.38
1857
1904.37
1950.23
1994.22
2035.83
2074.28
2107.59
2134.65
2153.43
2158.3
2141.35
2089.19
2002.11
1894.23
1774.23
1647.67
1518.23
1388.37
1259.89
1134.23
1012.65
896.294
786.172
683.786
591.055
510.116
442.831
390.275
352.204
326.836
311.278
302.416
297.665
295.247
294.061
293.492
293.225
293.102
293.045
293.02
293.009
293.004
293.002
293.001
293
293
293
293
293.003
293.014
293.032
293.062
293.112
293.193
293.325
293.539
293.88
294.419
295.259
296.551
298.5
301.388
305.569
311.474
319.581
330.372
344.272
361.588
382.458
406.842
434.549
465.283
498.709
534.493
572.339
611.999
653.278
696.022
740.112
785.449
831.942
879.499
928.018
977.383
1027.49
1078.38
1129.96
1182.12
1234.75
1287.74
1341
1394.4
1447.82
1501.14
1554.24
1606.98
1659.25
1710.9
1761.8
1811.8
1860.72
1908.34
1954.4
1998.5
2040.09
2078.34
2110.99
2137.23
2154.46
2156.64
2135.17
2075.4
1983.38
1872.21
1750.03
1622.06
1491.78
1361.55
1233.12
1107.9
987.152
871.979
763.461
663.158
573.035
495.144
431.155
381.843
346.623
323.458
309.394
301.434
297.18
295.017
293.954
293.443
293.203
293.092
293.041
293.018
293.008
293.004
293.002
293.001
293
293
293
293
293.003
293.014
293.032
293.063
293.113
293.194
293.327
293.541
293.883
294.424
295.265
296.558
298.507
301.393
305.568
311.46
319.544
330.301
344.154
361.409
382.206
406.508
434.128
464.776
498.118
533.826
571.606
611.213
652.451
695.17
739.252
784.601
831.129
878.747
927.354
976.83
1027.07
1078.09
1129.83
1182.17
1235.03
1288.28
1341.81
1395.5
1449.23
1502.87
1556.3
1609.38
1661.98
1713.97
1765.19
1815.49
1864.67
1912.52
1958.72
2002.87
2044.37
2082.29
2114.28
2140.17
2155.59
2154.9
2128.77
2061.44
1964.62
1850.34
1726.17
1596.99
1466.08
1335.67
1207.46
1082.85
963.069
849.169
742.323
644.117
556.546
481.563
420.648
374.303
341.648
320.442
307.701
300.543
296.734
294.802
293.853
293.397
293.182
293.083
293.037
293.016
293.007
293.003
293.001
293.001
293
293
293
293
293.003
293.014
293.033
293.063
293.113
293.195
293.328
293.543
293.886
294.427
295.269
296.562
298.511
301.394
305.564
311.446
319.513
330.244
344.063
361.274
382.019
406.264
433.825
464.415
497.705
533.367
571.109
610.689
651.914
694.634
738.735
784.119
830.7
878.386
927.073
976.641
1026.99
1078.15
1130.06
1182.61
1235.68
1289.17
1342.95
1396.92
1450.93
1504.87
1558.61
1612
1664.91
1717.2
1768.71
1819.28
1868.7
1916.74
1963.07
2007.25
2048.64
2086.14
2117.5
2142.42
2156.09
2152.48
2121.56
2047.44
1946.36
1829.38
1703.52
1573.36
1441.98
1311.54
1183.67
1059.73
940.949
828.319
723.096
626.914
541.761
469.492
411.404
367.745
337.369
317.872
306.267
299.79
296.358
294.621
293.768
293.358
293.164
293.075
293.034
293.015
293.007
293.003
293.001
293.001
293
293
293
293
293.003
293.014
293.033
293.063
293.113
293.195
293.329
293.544
293.887
294.428
295.271
296.564
298.512
301.393
305.558
311.432
319.486
330.199
343.994
361.175
381.886
406.096
433.621
464.178
497.439
533.08
570.811
610.389
651.622
694.362
738.492
783.916
830.544
878.292
927.06
976.734
1027.21
1078.53
1130.6
1183.33
1236.61
1290.32
1344.34
1398.55
1452.83
1507.04
1561.05
1614.73
1667.91
1720.47
1772.24
1823.04
1872.67
1920.87
1967.29
2011.48
2052.73
2089.73
2120.43
2144.13
2155.76
2148.74
2112.06
2033.01
1928.7
1809.63
1682.47
1551.59
1419.93
1289.56
1162.08
1038.84
921.023
809.605
705.908
611.62
528.7
458.908
403.366
362.088
333.705
315.682
305.048
299.149
296.036
294.465
293.694
293.324
293.149
293.068
293.03
293.014
293.006
293.003
293.001
293
293
293
293
293
293.003
293.014
293.033
293.063
293.114
293.196
293.33
293.545
293.888
294.43
295.273
296.565
298.513
301.392
305.554
311.423
319.469
330.17
343.949
361.113
381.805
405.995
433.502
464.045
497.297
532.934
570.667
610.255
651.503
694.266
738.428
783.896
830.588
878.416
927.28
977.064
1027.67
1079.12
1131.36
1184.26
1237.73
1291.64
1345.88
1400.32
1454.83
1509.28
1563.54
1617.45
1670.89
1723.68
1775.67
1826.67
1876.47
1924.79
1971.28
2015.43
2056.51
2092.95
2122.94
2145.41
2154.97
2144.5
2101.98
2019.07
1912.23
1791.52
1663.35
1531.92
1400.09
1269.86
1142.8
1020.22
903.31
793.018
690.729
598.174
517.282
449.718
396.442
357.26
330.603
313.84
304.026
298.613
295.767
294.334
293.632
293.295
293.136
293.062
293.028
293.012
293.005
293.002
293.001
293
293
293
293
293
293.003
293.014
293.033
293.063
293.114
293.196
293.33
293.545
293.889
294.431
295.274
296.566
298.514
301.392
305.552
311.418
319.46
330.155
343.927
361.082
381.765
405.947
433.449
463.988
497.24
532.882
570.624
610.228
651.502
694.302
738.512
784.04
830.802
878.711
927.669
977.559
1028.28
1079.87
1132.25
1185.32
1238.95
1293.05
1347.48
1402.12
1456.84
1511.51
1565.98
1620.11
1673.75
1726.74
1778.91
1830.08
1880.02
1928.44
1974.97
2019.07
2059.96
2095.83
2125.14
2146.47
2154.12
2140.49
2092.67
2006.4
1897.37
1775.28
1646.28
1514.44
1382.5
1252.43
1125.78
1003.83
887.738
778.472
677.46
586.467
507.391
441.806
390.525
353.164
327.99
312.297
303.172
298.166
295.543
294.225
293.58
293.271
293.125
293.057
293.025
293.011
293.005
293.002
293.001
293
293
293
293
293
293.003
293.014
293.033
293.064
293.114
293.196
293.33
293.546
293.89
294.432
295.275
296.568
298.515
301.393
305.553
311.418
319.458
330.151
343.92
361.072
381.753
405.934
433.437
463.982
497.244
532.902
570.666
610.298
651.608
694.451
738.712
784.3
831.131
879.12
928.167
978.157
1028.99
1080.7
1133.22
1186.43
1240.22
1294.47
1349.08
1403.89
1458.8
1513.65
1568.3
1622.61
1676.43
1729.59
1781.93
1833.23
1883.28
1931.77
1978.32
2022.36
2063.07
2098.39
2127.09
2147.38
2153.33
2136.89
2084.39
1995.15
1884.24
1760.95
1631.26
1499.08
1367.09
1237.2
1110.92
989.547
874.179
765.833
665.96
576.358
498.888
435.043
385.5
349.711
325.802
311.011
302.464
297.795
295.356
294.135
293.537
293.251
293.115
293.052
293.024
293.011
293.005
293.002
293.001
293
293
293
293
293
293.003
293.014
293.033
293.064
293.114
293.197
293.331
293.547
293.891
294.433
295.277
296.57
298.518
301.396
305.557
311.422
319.463
330.157
343.928
361.083
381.768
405.956
433.469
464.027
497.306
532.984
570.775
610.438
651.786
694.672
738.985
784.631
831.529
879.593
928.724
978.805
1029.74
1081.56
1134.2
1187.54
1241.46
1295.86
1350.62
1405.59
1460.65
1515.66
1570.47
1624.94
1678.9
1732.2
1784.67
1836.08
1886.21
1934.76
1981.31
2025.29
2065.84
2100.64
2128.81
2148.18
2152.63
2133.73
2077.12
1985.31
1872.76
1748.47
1618.2
1485.76
1353.73
1224
1098.07
977.21
862.483
754.951
656.083
567.701
491.636
429.305
381.263
346.818
323.979
309.944
301.877
297.489
295.203
294.06
293.502
293.234
293.108
293.049
293.022
293.01
293.004
293.002
293.001
293
293
293
293
293
293.003
293.014
293.033
293.064
293.114
293.197
293.331
293.547
293.892
294.434
295.278
296.572
298.521
301.401
305.563
311.43
319.473
330.171
343.947
361.109
381.803
406.002
433.528
464.103
497.402
533.105
570.923
610.619
652.005
694.934
739.296
784.998
831.958
880.091
929.298
979.463
1030.49
1082.41
1135.15
1188.6
1242.65
1297.18
1352.06
1407.16
1462.35
1517.49
1572.44
1627.03
1681.12
1734.54
1787.11
1838.61
1888.81
1937.39
1983.94
2027.86
2068.25
2102.62
2130.3
2148.88
2152.03
2130.98
2070.83
1976.79
1862.86
1737.72
1606.96
1474.31
1342.27
1212.7
1087.08
966.666
852.495
745.674
647.679
560.356
485.506
424.476
377.716
344.41
322.469
309.064
301.395
297.237
295.077
293.999
293.472
293.22
293.101
293.046
293.021
293.009
293.004
293.002
293.001
293
293
293
293
293
293.003
293.014
293.033
293.064
293.114
293.197
293.332
293.548
293.892
294.435
295.28
296.574
298.524
301.406
305.57
311.44
319.487
330.19
343.973
361.144
381.849
406.061
433.604
464.197
497.517
533.244
571.091
610.819
652.24
695.21
739.618
785.371
832.388
880.583
929.858
980.096
1031.2
1083.21
1136.05
1189.59
1243.74
1298.37
1353.36
1408.58
1463.88
1519.13
1574.19
1628.89
1683.08
1736.59
1789.23
1840.8
1891.05
1939.65
1986.19
2030.03
2070.28
2104.37
2131.62
2149.5
2151.52
2128.63
2065.44
1969.51
1854.4
1728.55
1597.41
1464.59
1332.56
1203.14
1077.79
957.763
844.07
737.858
640.613
554.197
480.382
420.456
374.777
342.424
321.23
308.345
301.002
297.032
294.975
293.949
293.449
293.209
293.096
293.044
293.02
293.009
293.004
293.002
293.001
293
293
293
293
293
293.003
293.014
293.033
293.064
293.115
293.197
293.332
293.548
293.893
294.437
295.282
296.577
298.528
301.411
305.578
311.451
319.503
330.212
344.003
361.183
381.9
406.127
433.685
464.297
497.639
533.389
571.262
611.02
652.474
695.481
739.929
785.727
832.794
881.044
930.378
980.678
1031.85
1083.94
1136.85
1190.48
1244.71
1299.43
1354.51
1409.82
1465.21
1520.56
1575.7
1630.48
1684.75
1738.33
1791.04
1842.66
1892.94
1941.55
1988.06
2031.85
2071.97
2105.85
2132.74
2150.03
2151.09
2126.63
2060.87
1963.36
1847.28
1720.86
1589.4
1456.46
1324.45
1195.17
1070.06
950.365
837.079
731.378
634.766
549.11
476.162
417.157
372.376
340.809
320.226
307.763
300.684
296.866
294.892
293.909
293.43
293.2
293.092
293.042
293.019
293.008
293.004
293.002
293.001
293
293
293
293
293
293.003
293.015
293.033
293.064
293.115
293.198
293.332
293.549
293.894
294.438
295.283
296.579
298.532
301.416
305.585
311.462
319.519
330.234
344.032
361.222
381.951
406.191
433.765
464.394
497.755
533.527
571.423
611.207
652.69
695.728
740.212
786.049
833.158
881.454
930.837
981.191
1032.42
1084.57
1137.54
1191.24
1245.55
1300.34
1355.49
1410.87
1466.34
1521.75
1576.96
1631.81
1686.14
1739.77
1792.52
1844.17
1894.47
1943.08
1989.56
2033.29
2073.31
2107.03
2133.69
2150.51
2150.77
2124.98
2057.08
1958.27
1841.4
1714.52
1582.84
1449.82
1317.84
1188.68
1063.77
944.359
831.411
726.127
630.036
545.005
472.764
414.508
370.454
339.52
319.428
307.302
300.433
296.736
294.827
293.877
293.414
293.193
293.089
293.04
293.018
293.008
293.004
293.002
293.001
293
293
293
293
293
293.003
293.015
293.033
293.064
293.115
293.198
293.332
293.549
293.894
294.439
295.285
296.581
298.535
301.421
305.592
311.472
319.533
330.254
344.059
361.258
381.997
406.249
433.836
464.48
497.858
533.647
571.564
611.369
652.876
695.941
740.453
786.322
833.465
881.798
931.221
981.616
1032.89
1085.09
1138.12
1191.87
1246.23
1301.07
1356.28
1411.72
1467.24
1522.71
1577.97
1632.87
1687.24
1740.91
1793.69
1845.35
1895.65
1944.24
1990.68
2034.3
2074.16
2107.62
2134.83
2151.11
2150.62
2123.71
2054.04
1954.19
1836.71
1709.48
1577.63
1444.56
1312.63
1183.58
1058.84
939.652
826.976
722.025
626.347
541.808
470.124
412.454
368.966
338.524
318.812
306.947
300.24
296.635
294.777
293.853
293.403
293.188
293.086
293.039
293.018
293.008
293.004
293.002
293.001
293
293
293
293
293
293.003
293.015
293.033
293.064
293.115
293.198
293.333
293.549
293.895
294.439
295.286
296.583
298.538
301.425
305.598
311.48
319.545
330.27
344.081
361.287
382.035
406.296
433.894
464.55
497.94
533.744
571.676
611.498
653.023
696.108
740.642
786.535
833.705
882.065
931.518
981.945
1033.26
1085.49
1138.55
1192.34
1246.74
1301.63
1356.88
1412.36
1467.92
1523.43
1578.73
1633.66
1688.06
1741.76
1794.55
1846.23
1896.53
1945.11
1991.53
2035.12
2074.92
2108.3
2135.4
2151.4
2150.42
2122.69
2051.74
1951.13
1833.2
1705.72
1573.75
1440.66
1308.76
1179.81
1055.2
936.178
823.707
719.007
623.637
539.464
468.191
410.953
367.881
337.799
318.362
306.688
300.098
296.561
294.74
293.835
293.394
293.184
293.084
293.038
293.017
293.008
293.003
293.002
293.001
293
293
293
293
293
293.003
293.015
293.033
293.064
293.115
293.198
293.333
293.55
293.895
294.44
295.287
296.584
298.539
301.428
305.602
311.486
319.553
330.281
344.097
361.308
382.061
406.329
433.935
464.599
497.998
533.812
571.754
611.587
653.125
696.224
740.772
786.681
833.868
882.247
931.72
982.168
1033.5
1085.76
1138.85
1192.66
1247.09
1302
1357.28
1412.79
1468.38
1523.91
1579.23
1634.19
1688.61
1742.32
1795.13
1846.82
1897.12
1945.7
1992.11
2035.68
2075.43
2108.75
2135.75
2151.56
2150.26
2121.98
2050.21
1949.1
1830.87
1703.23
1571.19
1438.08
1306.21
1177.31
1052.8
933.892
821.558
717.026
621.862
537.932
466.931
409.978
367.178
337.329
318.071
306.519
300.006
296.513
294.716
293.823
293.389
293.181
293.083
293.038
293.017
293.008
293.003
293.001
293.001
293
293
293
293
293
293.003
293.015
293.033
293.064
293.115
293.198
293.333
293.55
293.895
294.44
295.287
296.585
298.54
301.429
305.604
311.489
319.557
330.287
344.104
361.318
382.074
406.346
433.955
464.623
498.026
533.845
571.792
611.631
653.175
696.281
740.837
786.754
833.949
882.338
931.82
982.278
1033.62
1085.89
1138.99
1192.82
1247.26
1302.19
1357.48
1413
1468.6
1524.15
1579.48
1634.44
1688.87
1742.59
1795.41
1847.1
1897.41
1945.99
1992.4
2035.96
2075.69
2108.98
2135.92
2151.63
2150.17
2121.63
2049.45
1948.09
1829.72
1702
1569.92
1436.81
1304.95
1176.09
1051.62
932.777
820.514
716.067
621.007
537.198
466.331
409.516
366.847
337.109
317.935
306.439
299.962
296.491
294.705
293.818
293.386
293.18
293.083
293.038
293.017
293.008
293.003
293.001
293.001
293
293
293
293
293
293.003
293.015
293.033
293.064
293.115
293.198
293.333
293.55
293.895
294.44
295.287
296.585
298.54
301.429
305.604
311.489
319.557
330.287
344.104
361.318
382.074
406.345
433.955
464.623
498.026
533.845
571.792
611.631
653.175
696.28
740.837
786.753
833.949
882.337
931.82
982.278
1033.62
1085.89
1138.99
1192.82
1247.26
1302.19
1357.48
1413
1468.6
1524.15
1579.48
1634.44
1688.87
1742.59
1795.41
1847.1
1897.41
1945.99
1992.4
2035.96
2075.69
2108.98
2135.92
2151.63
2150.17
2121.63
2049.46
1948.1
1829.72
1702.01
1569.92
1436.81
1304.95
1176.09
1051.62
932.778
820.515
716.068
621.008
537.199
466.332
409.517
366.847
337.109
317.935
306.439
299.962
296.491
294.705
293.818
293.386
293.18
293.083
293.038
293.017
293.008
293.003
293.001
293.001
293
293
293
293
293
293.003
293.015
293.033
293.064
293.115
293.198
293.333
293.55
293.895
294.44
295.287
296.584
298.539
301.428
305.602
311.486
319.553
330.281
344.097
361.307
382.061
406.329
433.935
464.599
497.998
533.811
571.753
611.587
653.124
696.223
740.772
786.681
833.867
882.246
931.719
982.167
1033.5
1085.75
1138.85
1192.66
1247.09
1302
1357.28
1412.78
1468.37
1523.91
1579.23
1634.18
1688.6
1742.31
1795.12
1846.81
1897.12
1945.7
1992.1
2035.68
2075.43
2108.75
2135.75
2151.56
2150.26
2121.98
2050.21
1949.1
1830.87
1703.24
1571.19
1438.08
1306.21
1177.31
1052.8
933.895
821.561
717.028
621.864
537.934
466.933
409.979
367.179
337.33
318.071
306.519
300.006
296.513
294.716
293.823
293.389
293.181
293.083
293.038
293.017
293.008
293.003
293.001
293.001
293
293
293
293
293
293.003
293.015
293.033
293.064
293.115
293.198
293.333
293.549
293.895
294.439
295.286
296.583
298.537
301.425
305.598
311.48
319.544
330.27
344.081
361.287
382.034
406.296
433.894
464.549
497.94
533.743
571.675
611.497
653.022
696.107
740.641
786.534
833.703
882.064
931.517
981.943
1033.25
1085.48
1138.55
1192.34
1246.74
1301.63
1356.88
1412.35
1467.92
1523.43
1578.73
1633.66
1688.06
1741.75
1794.55
1846.23
1896.53
1945.11
1991.52
2035.11
2074.91
2108.29
2135.4
2151.4
2150.42
2122.68
2051.74
1951.13
1833.2
1705.73
1573.76
1440.66
1308.77
1179.81
1055.2
936.183
823.712
719.011
623.641
539.468
468.194
410.956
367.882
337.8
318.363
306.688
300.098
296.562
294.74
293.835
293.394
293.184
293.084
293.038
293.017
293.008
293.003
293.002
293.001
293
293
293
293
293
293.003
293.015
293.033
293.064
293.115
293.198
293.332
293.549
293.894
294.439
295.285
296.581
298.535
301.421
305.592
311.472
319.532
330.253
344.058
361.257
381.996
406.248
433.835
464.479
497.856
533.646
571.562
611.368
652.874
695.939
740.451
786.32
833.463
881.796
931.219
981.614
1032.89
1085.08
1138.11
1191.86
1246.22
1301.07
1356.28
1411.71
1467.24
1522.71
1577.97
1632.87
1687.24
1740.9
1793.68
1845.35
1895.64
1944.24
1990.67
2034.3
2074.16
2107.62
2134.83
2151.1
2150.62
2123.71
2054.04
1954.19
1836.71
1709.49
1577.64
1444.57
1312.64
1183.59
1058.85
939.659
826.983
722.032
626.353
541.814
470.128
412.457
368.968
338.526
318.813
306.948
300.24
296.635
294.777
293.853
293.403
293.188
293.086
293.039
293.018
293.008
293.004
293.002
293.001
293
293
293
293
293
293.003
293.014
293.033
293.064
293.115
293.198
293.332
293.549
293.894
294.438
295.283
296.579
298.532
301.416
305.585
311.461
319.518
330.233
344.031
361.221
381.95
406.19
433.763
464.392
497.753
533.525
571.421
611.205
652.688
695.726
740.209
786.046
833.155
881.451
930.834
981.187
1032.42
1084.56
1137.54
1191.24
1245.54
1300.33
1355.48
1410.86
1466.33
1521.75
1576.96
1631.81
1686.13
1739.77
1792.51
1844.17
1894.46
1943.07
1989.56
2033.28
2073.31
2107.03
2133.69
2150.51
2150.77
2124.98
2057.08
1958.28
1841.41
1714.53
1582.85
1449.83
1317.85
1188.69
1063.78
944.368
831.42
726.136
630.044
545.012
472.77
414.513
370.457
339.522
319.429
307.303
300.434
296.736
294.827
293.877
293.414
293.193
293.089
293.04
293.018
293.008
293.004
293.002
293.001
293
293
293
293
293
293.003
293.014
293.033
293.064
293.115
293.197
293.332
293.548
293.893
294.437
295.282
296.577
298.528
301.411
305.577
311.45
319.502
330.211
344.001
361.182
381.898
406.125
433.683
464.295
497.636
533.386
571.259
611.017
652.471
695.477
739.925
785.724
832.791
881.04
930.374
980.674
1031.85
1083.93
1136.84
1190.47
1244.71
1299.43
1354.51
1409.81
1465.21
1520.55
1575.69
1630.48
1684.74
1738.32
1791.03
1842.65
1892.93
1941.54
1988.06
2031.84
2071.96
2105.84
2132.73
2150.03
2151.09
2126.63
2060.87
1963.37
1847.29
1720.87
1589.41
1456.47
1324.46
1195.18
1070.07
950.376
837.089
731.388
634.775
549.119
476.169
417.163
372.38
340.811
320.228
307.764
300.685
296.867
294.892
293.909
293.43
293.2
293.092
293.042
293.019
293.008
293.004
293.002
293.001
293
293
293
293
293
293.003
293.014
293.033
293.064
293.114
293.197
293.332
293.548
293.892
294.435
295.28
296.574
298.524
301.405
305.569
311.439
319.486
330.189
343.972
361.142
381.847
406.059
433.601
464.194
497.514
533.241
571.088
610.815
652.237
695.206
739.613
785.367
832.383
880.578
929.853
980.09
1031.2
1083.21
1136.04
1189.59
1243.74
1298.37
1353.35
1408.57
1463.87
1519.13
1574.18
1628.88
1683.07
1736.58
1789.22
1840.79
1891.04
1939.65
1986.18
2030.02
2070.27
2104.36
2131.61
2149.49
2151.52
2128.63
2065.44
1969.52
1854.41
1728.56
1597.42
1464.6
1332.57
1203.15
1077.8
957.775
844.082
737.87
640.624
554.206
480.389
420.462
374.782
342.427
321.232
308.346
301.002
297.032
294.975
293.949
293.449
293.209
293.096
293.044
293.02
293.009
293.004
293.002
293.001
293
293
293
293
293
293.003
293.014
293.033
293.064
293.114
293.197
293.331
293.547
293.892
294.434
295.278
296.572
298.521
301.4
305.562
311.429
319.472
330.17
343.945
361.106
381.8
405.999
433.525
464.099
497.398
533.101
570.919
610.615
652
694.929
739.29
784.993
831.953
880.085
929.292
979.456
1030.48
1082.41
1135.15
1188.6
1242.64
1297.17
1352.05
1407.15
1462.34
1517.48
1572.43
1627.02
1681.11
1734.53
1787.1
1838.6
1888.8
1937.38
1983.93
2027.85
2068.24
2102.61
2130.3
2148.87
2152.03
2130.99
2070.83
1976.8
1862.87
1737.73
1606.98
1474.32
1342.28
1212.72
1087.09
966.68
852.508
745.686
647.69
560.366
485.515
424.483
377.721
344.413
322.471
309.065
301.396
297.237
295.077
293.999
293.473
293.22
293.101
293.046
293.021
293.009
293.004
293.002
293.001
293
293
293
293
293
293.003
293.014
293.033
293.064
293.114
293.197
293.331
293.547
293.891
294.433
295.277
296.569
298.518
301.396
305.556
311.421
319.462
330.155
343.926
361.08
381.765
405.953
433.465
464.022
497.301
532.979
570.77
610.433
651.781
694.667
738.979
784.625
831.523
879.586
928.717
978.798
1029.73
1081.56
1134.19
1187.53
1241.45
1295.86
1350.61
1405.58
1460.64
1515.65
1570.46
1624.92
1678.89
1732.19
1784.65
1836.07
1886.2
1934.75
1981.3
2025.28
2065.83
2100.63
2128.8
2148.17
2152.63
2133.73
2077.13
1985.32
1872.77
1748.49
1618.21
1485.77
1353.74
1224.02
1098.08
977.224
862.497
754.964
656.095
567.711
491.645
429.312
381.268
346.821
323.981
309.945
301.878
297.489
295.203
294.06
293.502
293.234
293.108
293.049
293.022
293.01
293.004
293.002
293.001
293
293
293
293
293
293.003
293.014
293.033
293.064
293.114
293.196
293.33
293.546
293.89
294.432
295.275
296.568
298.515
301.393
305.553
311.417
319.456
330.149
343.917
361.069
381.749
405.93
433.433
463.977
497.239
532.896
570.66
610.292
651.602
694.444
738.705
784.293
831.124
879.112
928.159
978.148
1028.98
1080.69
1133.21
1186.42
1240.21
1294.46
1349.07
1403.88
1458.79
1513.64
1568.29
1622.6
1676.42
1729.58
1781.91
1833.22
1883.27
1931.76
1978.3
2022.35
2063.06
2098.38
2127.09
2147.37
2153.33
2136.89
2084.39
1995.16
1884.25
1760.97
1631.28
1499.1
1367.1
1237.21
1110.93
989.562
874.193
765.847
665.973
576.369
498.897
435.051
385.506
349.715
325.804
311.012
302.464
297.795
295.357
294.135
293.537
293.251
293.115
293.052
293.024
293.011
293.005
293.002
293.001
293
293
293
293
293
293.003
293.014
293.033
293.063
293.114
293.196
293.33
293.545
293.889
294.431
295.274
296.566
298.513
301.391
305.552
311.417
319.458
330.153
343.925
361.079
381.761
405.943
433.444
463.983
497.234
532.876
570.618
610.221
651.495
694.294
738.504
784.032
830.794
878.702
927.66
977.55
1028.27
1079.86
1132.24
1185.3
1238.94
1293.04
1347.47
1402.11
1456.83
1511.49
1565.96
1620.09
1673.73
1726.73
1778.9
1830.07
1880
1928.42
1974.95
2019.06
2059.95
2095.82
2125.14
2146.46
2154.11
2140.49
2092.68
2006.4
1897.38
1775.29
1646.29
1514.45
1382.51
1252.45
1125.79
1003.85
887.753
778.486
677.473
586.479
507.401
441.814
390.531
353.168
327.993
312.298
303.173
298.166
295.543
294.225
293.58
293.271
293.125
293.057
293.025
293.011
293.005
293.002
293.001
293
293
293
293
293
293.003
293.014
293.033
293.063
293.114
293.196
293.33
293.545
293.888
294.43
295.272
296.565
298.512
301.391
305.553
311.421
319.467
330.168
343.947
361.11
381.801
405.99
433.497
464.039
497.29
532.928
570.661
610.247
651.496
694.258
738.419
783.888
830.579
878.406
927.27
977.054
1027.66
1079.11
1131.35
1184.25
1237.71
1291.63
1345.86
1400.3
1454.82
1509.27
1563.52
1617.44
1670.87
1723.66
1775.65
1826.65
1876.45
1924.77
1971.27
2015.42
2056.5
2092.94
2122.93
2145.4
2154.96
2144.5
2101.98
2019.08
1912.24
1791.53
1663.36
1531.94
1400.1
1269.87
1142.81
1020.24
903.325
793.033
690.743
598.187
517.293
449.727
396.449
357.264
330.606
313.842
304.027
298.614
295.767
294.334
293.632
293.295
293.136
293.062
293.028
293.012
293.005
293.002
293.001
293
293
293
293
293
293.003
293.014
293.033
293.063
293.113
293.195
293.329
293.544
293.887
294.428
295.271
296.563
298.512
301.392
305.557
311.431
319.485
330.197
343.991
361.171
381.882
406.091
433.615
464.172
497.433
533.074
570.804
610.381
651.614
694.353
738.483
783.906
830.535
878.282
927.05
976.723
1027.2
1078.51
1130.59
1183.32
1236.6
1290.3
1344.33
1398.54
1452.82
1507.03
1561.04
1614.71
1667.9
1720.46
1772.22
1823.03
1872.65
1920.85
1967.28
2011.46
2052.72
2089.72
2120.42
2144.12
2155.75
2148.73
2112.06
2033.02
1928.71
1809.64
1682.49
1551.6
1419.94
1289.57
1162.1
1038.85
921.038
809.62
705.922
611.632
528.711
458.916
403.372
362.093
333.708
315.684
305.048
299.15
296.036
294.465
293.694
293.324
293.149
293.068
293.03
293.014
293.006
293.003
293.001
293
293
293
293
293
293.003
293.014
293.033
293.063
293.113
293.195
293.328
293.543
293.886
294.427
295.269
296.561
298.511
301.393
305.563
311.445
319.511
330.242
344.06
361.27
382.014
406.259
433.819
464.409
497.698
533.36
571.101
610.681
651.905
694.625
738.725
784.109
830.69
878.375
927.062
976.629
1026.98
1078.14
1130.05
1182.59
1235.66
1289.15
1342.94
1396.9
1450.92
1504.86
1558.59
1611.98
1664.89
1717.18
1768.7
1819.26
1868.68
1916.72
1963.05
2007.24
2048.62
2086.13
2117.49
2142.41
2156.08
2152.47
2121.56
2047.45
1946.36
1829.38
1703.52
1573.37
1442
1311.56
1183.68
1059.74
940.963
828.333
723.109
626.926
541.771
469.5
411.411
367.749
337.372
317.874
306.268
299.791
296.358
294.621
293.768
293.358
293.164
293.075
293.034
293.015
293.007
293.003
293.001
293.001
293
293
293
293
293.003
293.014
293.032
293.063
293.113
293.194
293.327
293.541
293.883
294.423
295.265
296.557
298.507
301.392
305.567
311.459
319.542
330.298
344.15
361.405
382.201
406.503
434.122
464.769
498.111
533.819
571.598
611.204
652.442
695.161
739.242
784.59
831.118
878.735
927.342
976.818
1027.05
1078.08
1129.81
1182.16
1235.01
1288.26
1341.79
1395.48
1449.21
1502.85
1556.28
1609.36
1661.97
1713.95
1765.17
1815.47
1864.65
1912.5
1958.7
2002.86
2044.35
2082.28
2114.26
2140.16
2155.58
2154.9
2128.77
2061.44
1964.62
1850.34
1726.18
1597
1466.08
1335.68
1207.47
1082.86
963.08
849.18
742.334
644.128
556.555
481.571
420.654
374.307
341.651
320.443
307.702
300.543
296.735
294.802
293.853
293.397
293.182
293.083
293.037
293.016
293.007
293.003
293.001
293.001
293
293
293
293
293.003
293.014
293.032
293.062
293.112
293.193
293.325
293.539
293.88
294.419
295.259
296.55
298.5
301.387
305.568
311.473
319.579
330.369
344.269
361.584
382.453
406.837
434.542
465.276
498.701
534.485
572.33
611.99
653.269
696.012
740.102
785.438
831.93
879.486
928.005
977.37
1027.48
1078.36
1129.94
1182.1
1234.73
1287.73
1340.98
1394.38
1447.8
1501.12
1554.22
1606.97
1659.23
1710.88
1761.79
1811.78
1860.7
1908.32
1954.38
1998.48
2040.08
2078.33
2110.97
2137.22
2154.45
2156.63
2135.17
2075.4
1983.38
1872.21
1750.02
1622.06
1491.78
1361.55
1233.12
1107.9
987.159
871.987
763.469
663.166
573.042
495.15
431.159
381.846
346.625
323.459
309.394
301.434
297.18
295.017
293.954
293.443
293.203
293.092
293.041
293.018
293.008
293.004
293.002
293.001
293
293
293
293
293.003
293.014
293.032
293.062
293.111
293.192
293.323
293.535
293.874
294.41
295.247
296.535
298.482
301.369
305.554
311.47
319.599
330.428
344.388
361.785
382.757
407.259
435.091
465.952
499.501
535.4
573.349
613.097
654.446
697.242
741.362
786.707
833.183
880.698
929.146
978.407
1028.38
1079.1
1130.49
1182.45
1234.87
1287.62
1340.59
1393.69
1446.79
1499.77
1552.52
1604.91
1656.83
1708.13
1758.69
1808.36
1856.98
1904.35
1950.21
1994.2
2035.81
2074.26
2107.58
2134.64
2153.42
2158.28
2141.34
2089.18
2002.1
1894.22
1774.22
1647.67
1518.22
1388.36
1259.89
1134.23
1012.65
896.297
786.176
683.79
591.059
510.119
442.833
390.277
352.205
326.836
311.278
302.416
297.665
295.247
294.061
293.492
293.225
293.102
293.045
293.02
293.009
293.004
293.002
293.001
293
293
293
293
293.003
293.014
293.032
293.061
293.11
293.189
293.319
293.529
293.866
294.398
295.231
296.513
298.455
301.339
305.526
311.455
319.615
330.504
344.549
362.058
383.165
407.821
435.823
466.86
500.577
536.624
574.707
614.571
656.015
698.883
743.052
788.418
834.888
882.366
930.748
979.911
1029.76
1080.32
1131.52
1183.25
1235.42
1287.92
1340.63
1393.42
1446.21
1498.86
1551.27
1603.31
1654.88
1705.83
1756.05
1805.4
1853.72
1900.82
1946.46
1990.3
2031.87
2070.44
2104.38
2132.25
2152.47
2159.81
2147.07
2102.02
2019.66
1914.99
1797.24
1672.23
1543.81
1414.55
1286.3
1160.48
1038.35
921.056
809.588
705.34
610.164
526.254
455.649
399.719
358.583
330.767
313.5
303.581
298.239
295.519
294.186
293.549
293.25
293.113
293.05
293.022
293.01
293.004
293.002
293.001
293