/*--------------------------------*- C++ -*----------------------------------*\
  =========                 |
  \\      /  F ield         | OpenFOAM: The Open Source CFD Toolbox
   \\    /   O peration     | Website:  https://openfoam.org
    \\  /    A nd           | Version:  8
     \\/     M anipulation  |
\*---------------------------------------------------------------------------*/
FoamFile
{
    version     2.0;
    format      ascii;
    class       volVectorField;
    location    "0.15/fluid";
    object      U;
}
// * * * * * * * * * * * * * * * * * * * * * * * * * * * * * * * * * * * * * //

dimensions      [0 1 -1 0 0 0 0];

internalField   nonuniform List<vector> 
4000
(
(0.0999517 -0.00687965 0)
(0.099668 -0.0204295 0)
(0.0992086 -0.0338246 0)
(0.0985739 -0.0471067 0)
(0.0977598 -0.0602978 0)
(0.0967528 -0.0734033 0)
(0.0955349 -0.0864167 0)
(0.0940874 -0.0993224 0)
(0.0923939 -0.112098 0)
(0.0904424 -0.124717 0)
(0.0882288 -0.137153 0)
(0.0857633 -0.149375 0)
(0.0830789 -0.161351 0)
(0.0802277 -0.173106 0)
(0.077269 -0.184672 0)
(0.0742656 -0.196095 0)
(0.0712763 -0.207431 0)
(0.0683426 -0.218733 0)
(0.0654779 -0.230043 0)
(0.062658 -0.24137 0)
(0.0598216 -0.252688 0)
(0.0568816 -0.263935 0)
(0.0537434 -0.275029 0)
(0.0503217 -0.285877 0)
(0.046551 -0.296386 0)
(0.0423913 -0.306467 0)
(0.0378317 -0.316031 0)
(0.0328873 -0.325004 0)
(0.0275814 -0.333362 0)
(0.0219406 -0.341072 0)
(0.0159925 -0.34811 0)
(0.00976309 -0.354453 0)
(0.00327262 -0.360096 0)
(-0.00342276 -0.365037 0)
(-0.0102948 -0.369273 0)
(-0.0173394 -0.372817 0)
(-0.0245199 -0.375688 0)
(-0.031808 -0.377906 0)
(-0.0391802 -0.379495 0)
(-0.0466138 -0.380484 0)
(-0.054087 -0.380904 0)
(-0.061579 -0.380788 0)
(-0.0690697 -0.380172 0)
(-0.0765403 -0.379092 0)
(-0.0839719 -0.377586 0)
(-0.0913464 -0.375693 0)
(-0.0986459 -0.373454 0)
(-0.105853 -0.370909 0)
(-0.11295 -0.368101 0)
(-0.119921 -0.365074 0)
(-0.126747 -0.361872 0)
(-0.133412 -0.358545 0)
(-0.139896 -0.355143 0)
(-0.146181 -0.351723 0)
(-0.152245 -0.348348 0)
(-0.158065 -0.345086 0)
(-0.163607 -0.342017 0)
(-0.168826 -0.339232 0)
(-0.173652 -0.336825 0)
(-0.178009 -0.334897 0)
(-0.181778 -0.333562 0)
(-0.184704 -0.332924 0)
(-0.186193 -0.332963 0)
(-0.185555 -0.333349 0)
(-0.182388 -0.333373 0)
(-0.177241 -0.332396 0)
(-0.170886 -0.330159 0)
(-0.163792 -0.326618 0)
(-0.156207 -0.321804 0)
(-0.148289 -0.315764 0)
(-0.140151 -0.308551 0)
(-0.131887 -0.300214 0)
(-0.123583 -0.290809 0)
(-0.115322 -0.280397 0)
(-0.107185 -0.269042 0)
(-0.0992882 -0.256814 0)
(-0.0918227 -0.243813 0)
(-0.0850676 -0.230193 0)
(-0.0793673 -0.216242 0)
(-0.0751084 -0.202525 0)
(-0.0726108 -0.189555 0)
(-0.0719468 -0.177646 0)
(-0.0728873 -0.166788 0)
(-0.075003 -0.156709 0)
(-0.0778139 -0.14707 0)
(-0.0809006 -0.137604 0)
(-0.08396 -0.128153 0)
(-0.0868086 -0.118641 0)
(-0.0893478 -0.10903 0)
(-0.0915357 -0.0993363 0)
(-0.0933827 -0.0896322 0)
(-0.0949208 -0.0799505 0)
(-0.0961874 -0.0703149 0)
(-0.0972182 -0.0607428 0)
(-0.0980463 -0.0512448 0)
(-0.0987004 -0.0418234 0)
(-0.0992051 -0.0324721 0)
(-0.0995792 -0.0231762 0)
(-0.0998348 -0.0139121 0)
(-0.0999814 -0.00464934 0)
(0.100006 -0.00640105 0)
(0.0998196 -0.0191443 0)
(0.0994243 -0.0317905 0)
(0.0987966 -0.0443175 0)
(0.0979407 -0.0567055 0)
(0.0968546 -0.0689325 0)
(0.0955308 -0.0809731 0)
(0.0939612 -0.0927988 0)
(0.0921414 -0.10438 0)
(0.0900739 -0.11569 0)
(0.0877705 -0.126712 0)
(0.0852559 -0.137457 0)
(0.0825708 -0.147965 0)
(0.0797677 -0.158245 0)
(0.0769074 -0.168335 0)
(0.0740536 -0.178295 0)
(0.0712626 -0.188201 0)
(0.0685713 -0.198132 0)
(0.0659858 -0.208153 0)
(0.0634753 -0.218299 0)
(0.060972 -0.228565 0)
(0.0583814 -0.238906 0)
(0.0555994 -0.249244 0)
(0.0525296 -0.25948 0)
(0.0490951 -0.269516 0)
(0.0452455 -0.279261 0)
(0.0409574 -0.288647 0)
(0.0362318 -0.297608 0)
(0.0310886 -0.306052 0)
(0.0255545 -0.313915 0)
(0.0196616 -0.321157 0)
(0.0134441 -0.327752 0)
(0.0069364 -0.333685 0)
(0.000175472 -0.338951 0)
(-0.00680233 -0.343563 0)
(-0.0139667 -0.347523 0)
(-0.0212882 -0.350846 0)
(-0.0287375 -0.353555 0)
(-0.0362882 -0.355671 0)
(-0.0439158 -0.35722 0)
(-0.0515973 -0.358232 0)
(-0.0593109 -0.358735 0)
(-0.0670362 -0.358764 0)
(-0.0747532 -0.358352 0)
(-0.0824428 -0.357535 0)
(-0.0900868 -0.356348 0)
(-0.0976677 -0.354829 0)
(-0.105169 -0.353019 0)
(-0.112574 -0.350955 0)
(-0.119867 -0.348681 0)
(-0.127033 -0.346239 0)
(-0.134056 -0.343674 0)
(-0.140922 -0.341031 0)
(-0.147615 -0.338361 0)
(-0.154118 -0.335712 0)
(-0.160414 -0.333138 0)
(-0.166478 -0.330693 0)
(-0.172266 -0.328426 0)
(-0.177712 -0.32638 0)
(-0.182743 -0.324585 0)
(-0.187233 -0.323049 0)
(-0.190875 -0.321735 0)
(-0.192924 -0.320539 0)
(-0.19251 -0.319136 0)
(-0.189233 -0.317234 0)
(-0.183801 -0.314574 0)
(-0.17711 -0.310978 0)
(-0.169677 -0.306337 0)
(-0.16176 -0.300589 0)
(-0.153507 -0.293699 0)
(-0.145016 -0.285657 0)
(-0.136365 -0.276466 0)
(-0.12762 -0.266151 0)
(-0.118841 -0.254763 0)
(-0.110091 -0.242392 0)
(-0.101485 -0.229198 0)
(-0.0932542 -0.215462 0)
(-0.085753 -0.201638 0)
(-0.0794335 -0.18829 0)
(-0.0747556 -0.17582 0)
(-0.0720152 -0.164576 0)
(-0.0711976 -0.154661 0)
(-0.0719918 -0.145873 0)
(-0.0739388 -0.137831 0)
(-0.0765749 -0.130148 0)
(-0.0795145 -0.122543 0)
(-0.0824824 -0.114858 0)
(-0.0853092 -0.107034 0)
(-0.0879053 -0.0990693 0)
(-0.0902284 -0.0909595 0)
(-0.0922606 -0.0826626 0)
(-0.0940094 -0.0742064 0)
(-0.0954904 -0.06563 0)
(-0.096724 -0.0569693 0)
(-0.0977319 -0.0482541 0)
(-0.0985352 -0.0395066 0)
(-0.0991518 -0.0307412 0)
(-0.0995935 -0.0219658 0)
(-0.0998682 -0.0131833 0)
(-0.0999994 -0.00439552 0)
(0.0999788 -0.0061593 0)
(0.0997285 -0.0183955 0)
(0.0992391 -0.0305273 0)
(0.0984952 -0.0425355 0)
(0.0975007 -0.054399 0)
(0.0962562 -0.0660964 0)
(0.0947608 -0.0776052 0)
(0.0930162 -0.0889026 0)
(0.0910295 -0.099967 0)
(0.0888154 -0.110779 0)
(0.0863981 -0.121326 0)
(0.083811 -0.131601 0)
(0.0810949 -0.141611 0)
(0.0783002 -0.15138 0)
(0.0754873 -0.16095 0)
(0.0727208 -0.170382 0)
(0.0700581 -0.179751 0)
(0.0675362 -0.189132 0)
(0.0651596 -0.198588 0)
(0.0628942 -0.208158 0)
(0.06067 -0.217843 0)
(0.0583894 -0.227606 0)
(0.0559439 -0.237381 0)
(0.0532296 -0.247083 0)
(0.0501629 -0.256618 0)
(0.0466864 -0.265894 0)
(0.0427662 -0.27483 0)
(0.0383883 -0.283354 0)
(0.0335573 -0.291408 0)
(0.0282939 -0.298947 0)
(0.022628 -0.305935 0)
(0.0165946 -0.312345 0)
(0.0102279 -0.318161 0)
(0.0035587 -0.323375 0)
(-0.00336193 -0.327986 0)
(-0.0105007 -0.331999 0)
(-0.0178401 -0.335426 0)
(-0.0253448 -0.338282 0)
(-0.0329858 -0.340585 0)
(-0.0407381 -0.342359 0)
(-0.0485782 -0.343628 0)
(-0.0564836 -0.344419 0)
(-0.0644327 -0.344761 0)
(-0.0724052 -0.344684 0)
(-0.0803824 -0.344221 0)
(-0.0883469 -0.343405 0)
(-0.0962821 -0.342271 0)
(-0.104172 -0.340853 0)
(-0.112003 -0.339189 0)
(-0.119761 -0.337316 0)
(-0.127433 -0.335273 0)
(-0.135009 -0.333096 0)
(-0.142477 -0.330828 0)
(-0.149829 -0.328506 0)
(-0.157053 -0.32617 0)
(-0.164135 -0.323858 0)
(-0.171053 -0.321604 0)
(-0.177757 -0.319435 0)
(-0.18417 -0.317366 0)
(-0.1902 -0.315398 0)
(-0.195663 -0.313507 0)
(-0.20012 -0.311628 0)
(-0.202668 -0.309631 0)
(-0.202303 -0.30724 0)
(-0.198752 -0.304268 0)
(-0.192853 -0.300581 0)
(-0.185569 -0.296066 0)
(-0.177466 -0.290637 0)
(-0.168833 -0.28423 0)
(-0.159832 -0.276813 0)
(-0.150566 -0.268378 0)
(-0.141107 -0.258946 0)
(-0.131518 -0.248571 0)
(-0.121851 -0.237343 0)
(-0.112177 -0.225396 0)
(-0.102645 -0.212929 0)
(-0.0935472 -0.200217 0)
(-0.085321 -0.187613 0)
(-0.0784961 -0.175521 0)
(-0.0735437 -0.164333 0)
(-0.0706899 -0.154305 0)
(-0.0698245 -0.145452 0)
(-0.0705724 -0.137543 0)
(-0.0724553 -0.130226 0)
(-0.0750194 -0.123162 0)
(-0.0778974 -0.116115 0)
(-0.0808303 -0.108947 0)
(-0.0836594 -0.101601 0)
(-0.0863019 -0.0940664 0)
(-0.0887206 -0.086358 0)
(-0.0908969 -0.0784991 0)
(-0.0928219 -0.0705115 0)
(-0.0944962 -0.0624164 0)
(-0.0959269 -0.0542346 0)
(-0.0971245 -0.0459857 0)
(-0.0981011 -0.0376865 0)
(-0.0988678 -0.0293499 0)
(-0.0994322 -0.0209858 0)
(-0.0997992 -0.0126018 0)
(-0.0999866 -0.00420442 0)
(0.0999849 -0.00582175 0)
(0.0997309 -0.0173896 0)
(0.0992245 -0.0288506 0)
(0.0984489 -0.0401794 0)
(0.0974122 -0.051351 0)
(0.0961202 -0.0623403 0)
(0.094577 -0.0731231 0)
(0.0927889 -0.083676 0)
(0.0907666 -0.093978 0)
(0.0885271 -0.104012 0)
(0.0860949 -0.113769 0)
(0.0835042 -0.123248 0)
(0.0807997 -0.132465 0)
(0.0780364 -0.141447 0)
(0.0752769 -0.150242 0)
(0.0725856 -0.158914 0)
(0.0700183 -0.167537 0)
(0.0676108 -0.176191 0)
(0.0653667 -0.184941 0)
(0.0632505 -0.193827 0)
(0.0611895 -0.202853 0)
(0.0590837 -0.21199 0)
(0.0568215 -0.221178 0)
(0.0542971 -0.230336 0)
(0.0514236 -0.239379 0)
(0.0481387 -0.248218 0)
(0.0444058 -0.256776 0)
(0.0402105 -0.264982 0)
(0.0355566 -0.272779 0)
(0.0304606 -0.280116 0)
(0.0249477 -0.286958 0)
(0.0190478 -0.293278 0)
(0.0127927 -0.299058 0)
(0.00621499 -0.304287 0)
(-0.000650759 -0.30896 0)
(-0.00777206 -0.313086 0)
(-0.0151202 -0.316671 0)
(-0.0226667 -0.319726 0)
(-0.030385 -0.322267 0)
(-0.0382506 -0.324315 0)
(-0.0462397 -0.325889 0)
(-0.0543301 -0.327012 0)
(-0.0625011 -0.327711 0)
(-0.0707339 -0.328013 0)
(-0.0790108 -0.327944 0)
(-0.087315 -0.327536 0)
(-0.0956307 -0.326817 0)
(-0.103944 -0.32582 0)
(-0.11224 -0.324574 0)
(-0.120509 -0.323112 0)
(-0.128739 -0.321465 0)
(-0.136921 -0.319665 0)
(-0.145046 -0.317742 0)
(-0.153104 -0.315726 0)
(-0.161084 -0.313643 0)
(-0.168971 -0.311517 0)
(-0.176733 -0.309367 0)
(-0.184305 -0.307202 0)
(-0.191588 -0.305018 0)
(-0.198464 -0.302801 0)
(-0.204686 -0.300519 0)
(-0.209686 -0.298097 0)
(-0.21241 -0.295397 0)
(-0.211793 -0.292189 0)
(-0.20776 -0.288327 0)
(-0.201275 -0.283751 0)
(-0.193323 -0.278406 0)
(-0.184479 -0.272239 0)
(-0.175049 -0.26521 0)
(-0.165214 -0.257297 0)
(-0.155092 -0.248506 0)
(-0.144773 -0.238869 0)
(-0.134334 -0.228451 0)
(-0.123853 -0.217353 0)
(-0.113434 -0.205719 0)
(-0.103284 -0.193754 0)
(-0.0937521 -0.181736 0)
(-0.0853061 -0.170009 0)
(-0.0784546 -0.15895 0)
(-0.0735994 -0.148891 0)
(-0.0708752 -0.140011 0)
(-0.0700955 -0.132254 0)
(-0.0708541 -0.125358 0)
(-0.072681 -0.118974 0)
(-0.0751483 -0.112791 0)
(-0.0779171 -0.106593 0)
(-0.0807503 -0.10026 0)
(-0.0835006 -0.0937381 0)
(-0.0860861 -0.0870114 0)
(-0.0884657 -0.0800848 0)
(-0.0906215 -0.0729727 0)
(-0.0925471 -0.0656947 0)
(-0.0942421 -0.0582727 0)
(-0.0957093 -0.0507288 0)
(-0.0969535 -0.0430845 0)
(-0.0979802 -0.0353595 0)
(-0.0987943 -0.0275704 0)
(-0.0993973 -0.0197316 0)
(-0.0997895 -0.0118561 0)
(-0.0999883 -0.00395674 0)
(0.0999817 -0.00548595 0)
(0.0997115 -0.016386 0)
(0.0991778 -0.0271839 0)
(0.0983652 -0.0378539 0)
(0.0972839 -0.0483708 0)
(0.0959423 -0.0587103 0)
(0.0943472 -0.0688491 0)
(0.092508 -0.0787656 0)
(0.0904386 -0.0884409 0)
(0.0881593 -0.0978603 0)
(0.0856981 -0.107015 0)
(0.0830921 -0.115907 0)
(0.0803886 -0.124548 0)
(0.0776442 -0.132966 0)
(0.0749227 -0.141205 0)
(0.0722882 -0.149323 0)
(0.0697959 -0.157392 0)
(0.0674803 -0.165483 0)
(0.0653439 -0.173658 0)
(0.063351 -0.181957 0)
(0.0614281 -0.190387 0)
(0.0594737 -0.198926 0)
(0.0573747 -0.207521 0)
(0.0550225 -0.216102 0)
(0.0523261 -0.224593 0)
(0.0492188 -0.232914 0)
(0.04566 -0.240992 0)
(0.0416319 -0.248763 0)
(0.0371348 -0.256171 0)
(0.0321824 -0.263172 0)
(0.0267966 -0.26973 0)
(0.021005 -0.27582 0)
(0.0148369 -0.281422 0)
(0.0083229 -0.286526 0)
(0.00149351 -0.291128 0)
(-0.0056197 -0.295229 0)
(-0.0129882 -0.298835 0)
(-0.0205862 -0.301955 0)
(-0.028388 -0.304601 0)
(-0.0363697 -0.30679 0)
(-0.0445092 -0.308538 0)
(-0.052786 -0.309867 0)
(-0.061181 -0.310797 0)
(-0.0696763 -0.311352 0)
(-0.0782547 -0.311555 0)
(-0.0869002 -0.311432 0)
(-0.0955979 -0.311007 0)
(-0.104334 -0.310306 0)
(-0.113096 -0.309356 0)
(-0.121872 -0.308182 0)
(-0.130652 -0.306808 0)
(-0.139426 -0.30526 0)
(-0.148183 -0.303561 0)
(-0.156911 -0.30173 0)
(-0.165595 -0.299787 0)
(-0.174212 -0.297744 0)
(-0.182719 -0.295611 0)
(-0.191029 -0.293387 0)
(-0.199025 -0.291062 0)
(-0.206562 -0.288618 0)
(-0.213331 -0.28602 0)
(-0.218636 -0.283189 0)
(-0.221276 -0.279987 0)
(-0.220195 -0.276214 0)
(-0.215553 -0.271755 0)
(-0.208443 -0.266601 0)
(-0.199836 -0.260737 0)
(-0.190293 -0.25414 0)
(-0.180126 -0.246794 0)
(-0.169528 -0.238697 0)
(-0.158635 -0.229871 0)
(-0.147555 -0.220361 0)
(-0.136385 -0.210243 0)
(-0.125219 -0.199626 0)
(-0.114196 -0.188657 0)
(-0.103564 -0.177537 0)
(-0.0937074 -0.166524 0)
(-0.0851091 -0.155922 0)
(-0.0782571 -0.146045 0)
(-0.0734951 -0.13714 0)
(-0.0708824 -0.129299 0)
(-0.0701752 -0.122415 0)
(-0.0709468 -0.116225 0)
(-0.0727343 -0.110424 0)
(-0.0751289 -0.104754 0)
(-0.0778143 -0.0990419 0)
(-0.0805717 -0.0931924 0)
(-0.0832651 -0.0871624 0)
(-0.085817 -0.0809403 0)
(-0.0881853 -0.0745311 0)
(-0.0903484 -0.0679473 0)
(-0.0922954 -0.0612052 0)
(-0.0940221 -0.0543226 0)
(-0.0955272 -0.0473181 0)
(-0.0968121 -0.0402103 0)
(-0.0978789 -0.0330171 0)
(-0.0987293 -0.0257546 0)
(-0.0993624 -0.0184376 0)
(-0.0997761 -0.0110805 0)
(-0.0999869 -0.00369814 0)
(0.0999823 -0.00513319 0)
(0.0997086 -0.0153338 0)
(0.0991664 -0.0254375 0)
(0.0983408 -0.0354181 0)
(0.0972433 -0.0452499 0)
(0.0958842 -0.0549086 0)
(0.0942721 -0.0643716 0)
(0.0924182 -0.073618 0)
(0.0903381 -0.0826299 0)
(0.0880537 -0.0913938 0)
(0.0855941 -0.0999029 0)
(0.0829971 -0.108159 0)
(0.0803107 -0.116176 0)
(0.0775917 -0.123981 0)
(0.0749035 -0.131618 0)
(0.0723101 -0.139144 0)
(0.0698662 -0.146629 0)
(0.0676063 -0.154141 0)
(0.0655332 -0.161741 0)
(0.0636115 -0.169466 0)
(0.0617686 -0.177328 0)
(0.0599035 -0.185303 0)
(0.0579024 -0.193347 0)
(0.0556557 -0.201393 0)
(0.0530702 -0.20937 0)
(0.0500771 -0.217206 0)
(0.046633 -0.224833 0)
(0.0427169 -0.232189 0)
(0.0383263 -0.239223 0)
(0.0334717 -0.245893 0)
(0.0281723 -0.252165 0)
(0.0224525 -0.258014 0)
(0.0163394 -0.263422 0)
(0.00986042 -0.268378 0)
(0.00304254 -0.272876 0)
(-0.00408083 -0.276916 0)
(-0.0114825 -0.280502 0)
(-0.0191415 -0.283639 0)
(-0.0270327 -0.28634 0)
(-0.035134 -0.288617 0)
(-0.043425 -0.290485 0)
(-0.0518864 -0.29196 0)
(-0.0604998 -0.293061 0)
(-0.0692478 -0.293807 0)
(-0.078114 -0.294218 0)
(-0.087083 -0.294314 0)
(-0.0961401 -0.294116 0)
(-0.105272 -0.293645 0)
(-0.114465 -0.292922 0)
(-0.123707 -0.291967 0)
(-0.132987 -0.2908 0)
(-0.142291 -0.289439 0)
(-0.151608 -0.287901 0)
(-0.16092 -0.286201 0)
(-0.170205 -0.28435 0)
(-0.179432 -0.282357 0)
(-0.188543 -0.280224 0)
(-0.197435 -0.277946 0)
(-0.205978 -0.27551 0)
(-0.213997 -0.272899 0)
(-0.221105 -0.270072 0)
(-0.226499 -0.266949 0)
(-0.228849 -0.263398 0)
(-0.227161 -0.259239 0)
(-0.221845 -0.254397 0)
(-0.214113 -0.248894 0)
(-0.204897 -0.242741 0)
(-0.194729 -0.235936 0)
(-0.183916 -0.228481 0)
(-0.172664 -0.220388 0)
(-0.16112 -0.211692 0)
(-0.149412 -0.202444 0)
(-0.137651 -0.192725 0)
(-0.125954 -0.182641 0)
(-0.114489 -0.172332 0)
(-0.103542 -0.161987 0)
(-0.0935285 -0.151841 0)
(-0.0849359 -0.142165 0)
(-0.0782242 -0.133231 0)
(-0.0736734 -0.125238 0)
(-0.0712662 -0.118236 0)
(-0.0707041 -0.112097 0)
(-0.071542 -0.106566 0)
(-0.0733244 -0.101362 0)
(-0.0756625 -0.0962534 0)
(-0.0782623 -0.0910901 0)
(-0.0809245 -0.0857878 0)
(-0.0835262 -0.0803087 0)
(-0.0859973 -0.0746418 0)
(-0.0882994 -0.0687908 0)
(-0.0904115 -0.0627665 0)
(-0.0923223 -0.0565832 0)
(-0.0940256 -0.0502573 0)
(-0.0955181 -0.0438062 0)
(-0.0967983 -0.0372479 0)
(-0.0978659 -0.0305999 0)
(-0.0987202 -0.0238787 0)
(-0.0993577 -0.0170995 0)
(-0.0997748 -0.0102781 0)
(-0.0999871 -0.00343045 0)
(0.0999818 -0.00477815 0)
(0.0997045 -0.0142741 0)
(0.099156 -0.0236801 0)
(0.0983215 -0.0329707 0)
(0.0972133 -0.0421214 0)
(0.0958426 -0.0511089 0)
(0.094219 -0.0599117 0)
(0.0923549 -0.0685106 0)
(0.0902672 -0.076889 0)
(0.0879786 -0.0850346 0)
(0.0855195 -0.0929415 0)
(0.0829287 -0.100612 0)
(0.0802548 -0.108059 0)
(0.0775552 -0.115309 0)
(0.0748936 -0.122402 0)
(0.0723338 -0.129393 0)
(0.0699303 -0.136343 0)
(0.0677174 -0.143319 0)
(0.0656977 -0.150377 0)
(0.0638356 -0.157553 0)
(0.0620582 -0.164858 0)
(0.0602644 -0.172273 0)
(0.0583399 -0.179759 0)
(0.0561738 -0.187256 0)
(0.0536716 -0.194701 0)
(0.0507627 -0.202026 0)
(0.0474013 -0.209169 0)
(0.0435643 -0.216075 0)
(0.0392467 -0.222695 0)
(0.0344566 -0.22899 0)
(0.0292111 -0.234928 0)
(0.0235325 -0.240485 0)
(0.017446 -0.245644 0)
(0.0109776 -0.250392 0)
(0.00415265 -0.254724 0)
(-0.00299794 -0.258637 0)
(-0.0104488 -0.262135 0)
(-0.0181804 -0.265223 0)
(-0.0261695 -0.267909 0)
(-0.0343951 -0.270203 0)
(-0.0428376 -0.272118 0)
(-0.0514784 -0.273668 0)
(-0.0603 -0.274867 0)
(-0.0692855 -0.27573 0)
(-0.078419 -0.276275 0)
(-0.087685 -0.276517 0)
(-0.0970689 -0.276474 0)
(-0.106556 -0.276162 0)
(-0.116133 -0.275599 0)
(-0.125787 -0.274799 0)
(-0.135502 -0.273778 0)
(-0.145264 -0.272551 0)
(-0.155055 -0.271128 0)
(-0.164856 -0.269522 0)
(-0.174638 -0.267739 0)
(-0.184358 -0.265785 0)
(-0.193947 -0.263658 0)
(-0.203286 -0.261353 0)
(-0.212231 -0.258856 0)
(-0.220569 -0.256145 0)
(-0.22785 -0.253178 0)
(-0.233165 -0.249876 0)
(-0.23509 -0.246101 0)
(-0.23274 -0.241714 0)
(-0.226768 -0.236687 0)
(-0.218466 -0.231054 0)
(-0.208716 -0.224833 0)
(-0.198015 -0.218036 0)
(-0.186667 -0.210675 0)
(-0.174881 -0.202776 0)
(-0.162819 -0.194379 0)
(-0.150618 -0.185542 0)
(-0.138406 -0.176345 0)
(-0.126314 -0.166892 0)
(-0.114538 -0.157315 0)
(-0.103397 -0.14779 0)
(-0.0933219 -0.138533 0)
(-0.0847985 -0.129782 0)
(-0.0782535 -0.121767 0)
(-0.073907 -0.114636 0)
(-0.0716791 -0.108398 0)
(-0.0712336 -0.102906 0)
(-0.0721182 -0.0979188 0)
(-0.0738892 -0.0931878 0)
(-0.0761761 -0.0885182 0)
(-0.0787037 -0.0837844 0)
(-0.0812874 -0.0789179 0)
(-0.0838138 -0.073888 0)
(-0.086218 -0.0686859 0)
(-0.0884634 -0.0633146 0)
(-0.0905294 -0.0577833 0)
(-0.0924041 -0.0521041 0)
(-0.0940799 -0.046291 0)
(-0.0955525 -0.0403594 0)
(-0.0968188 -0.0343252 0)
(-0.0978772 -0.0282047 0)
(-0.0987257 -0.0220132 0)
(-0.09936 -0.0157655 0)
(-0.0997754 -0.00947669 0)
(-0.0999871 -0.00316295 0)
(0.0999819 -0.00442002 0)
(0.099704 -0.0132053 0)
(0.099154 -0.0219079 0)
(0.0983171 -0.0305033 0)
(0.0972063 -0.0389683 0)
(0.0958331 -0.047281 0)
(0.0942079 -0.055421 0)
(0.0923436 -0.0633704 0)
(0.0902578 -0.0711137 0)
(0.0879738 -0.0786397 0)
(0.0855223 -0.0859432 0)
(0.0829426 -0.0930266 0)
(0.0802833 -0.0999026 0)
(0.077602 -0.106596 0)
(0.0749621 -0.113144 0)
(0.0724274 -0.119599 0)
(0.0700522 -0.126018 0)
(0.0678708 -0.132464 0)
(0.065886 -0.138988 0)
(0.0640624 -0.145626 0)
(0.0623275 -0.152388 0)
(0.0605802 -0.159258 0)
(0.0587059 -0.166199 0)
(0.056593 -0.17316 0)
(0.0541459 -0.18008 0)
(0.0512922 -0.186898 0)
(0.0479846 -0.193558 0)
(0.0441983 -0.200008 0)
(0.0399262 -0.206203 0)
(0.0351747 -0.212107 0)
(0.0299591 -0.217691 0)
(0.0243 -0.22293 0)
(0.0182209 -0.227808 0)
(0.0117458 -0.232315 0)
(0.00489932 -0.236443 0)
(-0.00229167 -0.24019 0)
(-0.00980295 -0.243557 0)
(-0.0176139 -0.246549 0)
(-0.0257032 -0.249172 0)
(-0.034051 -0.251434 0)
(-0.0426383 -0.253345 0)
(-0.0514475 -0.254915 0)
(-0.0604612 -0.256157 0)
(-0.0696631 -0.257084 0)
(-0.0790371 -0.257708 0)
(-0.0885676 -0.258043 0)
(-0.0982394 -0.258103 0)
(-0.108037 -0.257902 0)
(-0.117946 -0.257451 0)
(-0.12795 -0.256764 0)
(-0.138033 -0.255852 0)
(-0.148178 -0.254726 0)
(-0.158362 -0.253395 0)
(-0.168562 -0.251867 0)
(-0.178742 -0.250147 0)
(-0.188852 -0.248236 0)
(-0.198809 -0.246135 0)
(-0.208481 -0.243834 0)
(-0.217707 -0.24132 0)
(-0.22624 -0.238572 0)
(-0.233557 -0.235549 0)
(-0.238641 -0.232165 0)
(-0.24005 -0.228285 0)
(-0.237078 -0.223816 0)
(-0.230545 -0.21877 0)
(-0.221751 -0.213177 0)
(-0.21154 -0.207058 0)
(-0.200389 -0.200429 0)
(-0.188597 -0.193311 0)
(-0.176378 -0.185735 0)
(-0.163903 -0.177745 0)
(-0.15132 -0.169403 0)
(-0.138764 -0.160785 0)
(-0.126381 -0.151988 0)
(-0.114394 -0.143139 0)
(-0.103145 -0.134398 0)
(-0.0930797 -0.12596 0)
(-0.0846774 -0.118038 0)
(-0.0783313 -0.110827 0)
(-0.0742064 -0.10444 0)
(-0.0721678 -0.0988616 0)
(-0.071848 -0.0939397 0)
(-0.0727897 -0.0894486 0)
(-0.0745595 -0.0851665 0)
(-0.0768035 -0.080924 0)
(-0.0792639 -0.0766138 0)
(-0.0817699 -0.0721779 0)
(-0.0842178 -0.0675904 0)
(-0.0865481 -0.062844 0)
(-0.0887271 -0.0579414 0)
(-0.0907353 -0.0528906 0)
(-0.0925609 -0.0477022 0)
(-0.0941961 -0.0423886 0)
(-0.0956356 -0.0369639 0)
(-0.0968757 -0.0314425 0)
(-0.0979138 -0.0258396 0)
(-0.0987472 -0.0201693 0)
(-0.0993707 -0.0144458 0)
(-0.0997792 -0.0086836 0)
(-0.0999874 -0.00289816 0)
(0.0999819 -0.00406192 0)
(0.0997039 -0.0121363 0)
(0.0991538 -0.0201353 0)
(0.0983169 -0.0280362 0)
(0.0972062 -0.0358172 0)
(0.0958335 -0.043458 0)
(0.0942096 -0.0509398 0)
(0.0923477 -0.0582459 0)
(0.0902656 -0.0653623 0)
(0.0879872 -0.0722787 0)
(0.0855434 -0.0789903 0)
(0.0829737 -0.0854997 0)
(0.0803268 -0.0918187 0)
(0.0776605 -0.0979701 0)
(0.0750382 -0.103989 0)
(0.0725234 -0.109922 0)
(0.0701705 -0.115824 0)
(0.0680137 -0.121751 0)
(0.0660557 -0.127752 0)
(0.0642613 -0.133859 0)
(0.0625579 -0.140082 0)
(0.0608442 -0.146409 0)
(0.0590054 -0.152806 0)
(0.0569292 -0.159226 0)
(0.0545191 -0.165614 0)
(0.0517018 -0.171916 0)
(0.0484286 -0.178079 0)
(0.0446733 -0.184056 0)
(0.0404275 -0.189807 0)
(0.035696 -0.195297 0)
(0.0304925 -0.200499 0)
(0.024836 -0.205391 0)
(0.0187482 -0.209959 0)
(0.0122522 -0.21419 0)
(0.00537134 -0.218078 0)
(-0.00186894 -0.221621 0)
(-0.00944534 -0.224818 0)
(-0.0173376 -0.227672 0)
(-0.0255254 -0.230188 0)
(-0.0339898 -0.232373 0)
(-0.0427125 -0.234233 0)
(-0.0516759 -0.235778 0)
(-0.0608633 -0.237017 0)
(-0.0702581 -0.237961 0)
(-0.0798441 -0.238621 0)
(-0.0896052 -0.239006 0)
(-0.0995255 -0.239129 0)
(-0.109589 -0.238999 0)
(-0.119778 -0.238627 0)
(-0.130076 -0.238022 0)
(-0.140464 -0.237194 0)
(-0.150922 -0.236151 0)
(-0.161425 -0.234899 0)
(-0.171943 -0.233445 0)
(-0.182437 -0.23179 0)
(-0.192848 -0.229938 0)
(-0.203081 -0.227885 0)
(-0.21299 -0.225622 0)
(-0.222403 -0.223136 0)
(-0.231041 -0.220408 0)
(-0.238305 -0.217399 0)
(-0.243079 -0.21403 0)
(-0.243956 -0.210174 0)
(-0.240425 -0.205766 0)
(-0.233417 -0.200836 0)
(-0.224206 -0.195415 0)
(-0.213605 -0.189523 0)
(-0.202078 -0.183181 0)
(-0.189923 -0.176415 0)
(-0.177358 -0.169259 0)
(-0.164559 -0.161761 0)
(-0.151681 -0.153978 0)
(-0.138867 -0.145985 0)
(-0.126275 -0.137874 0)
(-0.11415 -0.12976 0)
(-0.102854 -0.121792 0)
(-0.0928416 -0.114146 0)
(-0.0845822 -0.107011 0)
(-0.0784363 -0.10055 0)
(-0.0745189 -0.0948473 0)
(-0.07265 -0.0898671 0)
(-0.0724392 -0.0854572 0)
(-0.0734286 -0.0814103 0)
(-0.0751958 -0.0775308 0)
(-0.0774019 -0.0736736 0)
(-0.0798038 -0.0697485 0)
(-0.0822422 -0.0657073 0)
(-0.0846211 -0.0615285 0)
(-0.0868853 -0.0572064 0)
(-0.0890035 -0.0527434 0)
(-0.0909572 -0.0481465 0)
(-0.0927349 -0.0434247 0)
(-0.0943288 -0.0385892 0)
(-0.0957333 -0.0336521 0)
(-0.0969443 -0.0286267 0)
(-0.0979589 -0.0235263 0)
(-0.0987739 -0.018364 0)
(-0.099384 -0.0131528 0)
(-0.0997838 -0.00790618 0)
(-0.0999876 -0.00263857 0)
(0.0999819 -0.0037042 0)
(0.0997046 -0.0110683 0)
(0.0991556 -0.0183642 0)
(0.0983203 -0.0255712 0)
(0.0972118 -0.0326691 0)
(0.095842 -0.0396391 0)
(0.0942217 -0.0464643 0)
(0.0923644 -0.053129 0)
(0.090288 -0.0596206 0)
(0.0880165 -0.0659298 0)
(0.085581 -0.0720523 0)
(0.083021 -0.0779904 0)
(0.0803853 -0.0837551 0)
(0.0777315 -0.0893674 0)
(0.075123 -0.0948597 0)
(0.0726234 -0.100274 0)
(0.0702869 -0.105662 0)
(0.0681476 -0.111073 0)
(0.0662082 -0.116554 0)
(0.0644337 -0.122134 0)
(0.0627514 -0.127823 0)
(0.0610601 -0.133609 0)
(0.0592446 -0.139462 0)
(0.0571923 -0.145341 0)
(0.054806 -0.151195 0)
(0.0520113 -0.156976 0)
(0.0487583 -0.162634 0)
(0.0450195 -0.168129 0)
(0.0407854 -0.173422 0)
(0.0360595 -0.178482 0)
(0.0308544 -0.183285 0)
(0.0251879 -0.187811 0)
(0.0190809 -0.192045 0)
(0.0125556 -0.195975 0)
(0.00563429 -0.199596 0)
(-0.00165862 -0.202904 0)
(-0.00930063 -0.205899 0)
(-0.017272 -0.208582 0)
(-0.0255532 -0.210957 0)
(-0.0341255 -0.213029 0)
(-0.0429713 -0.214803 0)
(-0.0520731 -0.216287 0)
(-0.061414 -0.217489 0)
(-0.0709775 -0.218416 0)
(-0.080747 -0.219077 0)
(-0.0907057 -0.219482 0)
(-0.100837 -0.219638 0)
(-0.111123 -0.219553 0)
(-0.121545 -0.219237 0)
(-0.132086 -0.218696 0)
(-0.142723 -0.217938 0)
(-0.153434 -0.216969 0)
(-0.164191 -0.215794 0)
(-0.17496 -0.214417 0)
(-0.185697 -0.212841 0)
(-0.196337 -0.211065 0)
(-0.206772 -0.209087 0)
(-0.216846 -0.206898 0)
(-0.226378 -0.204487 0)
(-0.235057 -0.201835 0)
(-0.242225 -0.198907 0)
(-0.24666 -0.195649 0)
(-0.247033 -0.191919 0)
(-0.242998 -0.18768 0)
(-0.235576 -0.182966 0)
(-0.226009 -0.177811 0)
(-0.215081 -0.172237 0)
(-0.203245 -0.166268 0)
(-0.190797 -0.159932 0)
(-0.177957 -0.153265 0)
(-0.164906 -0.146313 0)
(-0.151803 -0.139131 0)
(-0.138795 -0.131789 0)
(-0.126055 -0.124371 0)
(-0.113844 -0.116986 0)
(-0.102541 -0.109767 0)
(-0.0926066 -0.102874 0)
(-0.0845002 -0.0964717 0)
(-0.0785506 -0.0906999 0)
(-0.0748285 -0.08562 0)
(-0.0731162 -0.0811831 0)
(-0.0730057 -0.0772425 0)
(-0.0740399 -0.0736093 0)
(-0.0758063 -0.0701118 0)
(-0.0779797 -0.0666251 0)
(-0.0803297 -0.0630728 0)
(-0.0827072 -0.0594143 0)
(-0.0850227 -0.0556319 0)
(-0.0872253 -0.0517211 0)
(-0.0892858 -0.047684 0)
(-0.0911867 -0.0435267 0)
(-0.0929171 -0.0392573 0)
(-0.0944695 -0.0348854 0)
(-0.095838 -0.030422 0)
(-0.0970187 -0.0258787 0)
(-0.0980083 -0.0212677 0)
(-0.0988034 -0.0166008 0)
(-0.0993988 -0.0118896 0)
(-0.0997891 -0.00714655 0)
(-0.099988 -0.00238493 0)
(0.099982 -0.0033475 0)
(0.0997055 -0.0100031 0)
(0.099158 -0.0165977 0)
(0.0983249 -0.0231124 0)
(0.0972192 -0.0295289 0)
(0.0958529 -0.0358303 0)
(0.0942368 -0.042001 0)
(0.0923845 -0.0480271 0)
(0.0903139 -0.0538969 0)
(0.0880491 -0.0596021 0)
(0.0856211 -0.0651389 0)
(0.0830695 -0.0705095 0)
(0.0804431 -0.0757237 0)
(0.0777994 -0.0808008 0)
(0.0752018 -0.08577 0)
(0.0727137 -0.0906698 0)
(0.0703895 -0.0955459 0)
(0.0682631 -0.100445 0)
(0.0663375 -0.105407 0)
(0.0645773 -0.110461 0)
(0.0629101 -0.115615 0)
(0.0612341 -0.12086 0)
(0.0594341 -0.126168 0)
(0.0573967 -0.131502 0)
(0.055024 -0.136817 0)
(0.052241 -0.142069 0)
(0.0489971 -0.147215 0)
(0.0452639 -0.152216 0)
(0.0410309 -0.157039 0)
(0.036301 -0.161656 0)
(0.0310857 -0.166044 0)
(0.025402 -0.170184 0)
(0.0192701 -0.174062 0)
(0.0127112 -0.17767 0)
(0.00574702 -0.180999 0)
(-0.0015988 -0.184048 0)
(-0.00930432 -0.186814 0)
(-0.0173502 -0.189298 0)
(-0.0257175 -0.191504 0)
(-0.0343877 -0.193435 0)
(-0.0433432 -0.195095 0)
(-0.0525668 -0.19649 0)
(-0.0620414 -0.197627 0)
(-0.0717501 -0.198511 0)
(-0.081676 -0.19915 0)
(-0.0918015 -0.19955 0)
(-0.102109 -0.199719 0)
(-0.11258 -0.199662 0)
(-0.123195 -0.199387 0)
(-0.133933 -0.1989 0)
(-0.144771 -0.198205 0)
(-0.155684 -0.197308 0)
(-0.166642 -0.196213 0)
(-0.177607 -0.194922 0)
(-0.188532 -0.193438 0)
(-0.199344 -0.191761 0)
(-0.209925 -0.189887 0)
(-0.220112 -0.187808 0)
(-0.229714 -0.185514 0)
(-0.238396 -0.182991 0)
(-0.245447 -0.180205 0)
(-0.249547 -0.17713 0)
(-0.249453 -0.173601 0)
(-0.244963 -0.169608 0)
(-0.237181 -0.165187 0)
(-0.227313 -0.160371 0)
(-0.216115 -0.155187 0)
(-0.204028 -0.149657 0)
(-0.191346 -0.14381 0)
(-0.17829 -0.137683 0)
(-0.165043 -0.131317 0)
(-0.151769 -0.124767 0)
(-0.138618 -0.118095 0)
(-0.125774 -0.111379 0)
(-0.113513 -0.104717 0)
(-0.102229 -0.0982315 0)
(-0.0923853 -0.0920638 0)
(-0.0844303 -0.0863597 0)
(-0.0786637 -0.0812356 0)
(-0.0751178 -0.076735 0)
(-0.0735437 -0.0728019 0)
(-0.0735206 -0.0692976 0)
(-0.0745933 -0.0660527 0)
(-0.076359 -0.0629174 0)
(-0.0785041 -0.0597849 0)
(-0.0808093 -0.0565907 0)
(-0.0831338 -0.053301 0)
(-0.0853941 -0.0499012 0)
(-0.0875422 -0.0463875 0)
(-0.0895511 -0.0427622 0)
(-0.0914043 -0.0390305 0)
(-0.0930914 -0.0351995 0)
(-0.094605 -0.0312775 0)
(-0.0959397 -0.0272742 0)
(-0.0970913 -0.0231999 0)
(-0.0980567 -0.0190654 0)
(-0.0988325 -0.014881 0)
(-0.0994134 -0.0106573 0)
(-0.0997942 -0.00640551 0)
(-0.0999883 -0.00213749 0)
(0.0999821 -0.00299191 0)
(0.0997064 -0.008941 0)
(0.0991605 -0.0148361 0)
(0.0983298 -0.0206602 0)
(0.0972271 -0.026397 0)
(0.0958645 -0.0320313 0)
(0.0942527 -0.0375492 0)
(0.0924053 -0.0429381 0)
(0.0903402 -0.0481877 0)
(0.0880814 -0.0532906 0)
(0.0856601 -0.0582432 0)
(0.0831156 -0.0630476 0)
(0.0804969 -0.0677128 0)
(0.0778613 -0.0722559 0)
(0.0752722 -0.0767031 0)
(0.0727929 -0.081089 0)
(0.0704777 -0.0854543 0)
(0.0683607 -0.0898411 0)
(0.0664445 -0.0942859 0)
(0.0646939 -0.0988135 0)
(0.0630363 -0.103433 0)
(0.0613698 -0.108134 0)
(0.0595787 -0.112895 0)
(0.0575493 -0.117681 0)
(0.0551833 -0.122453 0)
(0.0524049 -0.127171 0)
(0.0491631 -0.131796 0)
(0.0454287 -0.136295 0)
(0.0411905 -0.140638 0)
(0.0364507 -0.144798 0)
(0.0312202 -0.148756 0)
(0.0255154 -0.152494 0)
(0.0193558 -0.156001 0)
(0.0127619 -0.159267 0)
(0.00575511 -0.162286 0)
(-0.00164147 -0.165055 0)
(-0.00940629 -0.167571 0)
(-0.0175205 -0.169836 0)
(-0.0259651 -0.171851 0)
(-0.0347221 -0.173619 0)
(-0.0437737 -0.175143 0)
(-0.0531028 -0.176428 0)
(-0.062692 -0.177479 0)
(-0.0725241 -0.178301 0)
(-0.0825817 -0.1789 0)
(-0.0928466 -0.17928 0)
(-0.1033 -0.179447 0)
(-0.113923 -0.179407 0)
(-0.124694 -0.179165 0)
(-0.135592 -0.178725 0)
(-0.146592 -0.178092 0)
(-0.157666 -0.177269 0)
(-0.168781 -0.176261 0)
(-0.179898 -0.175068 0)
(-0.190966 -0.173692 0)
(-0.201908 -0.172134 0)
(-0.212594 -0.17039 0)
(-0.222855 -0.168454 0)
(-0.232496 -0.166316 0)
(-0.241157 -0.163963 0)
(-0.248084 -0.161369 0)
(-0.251868 -0.158531 0)
(-0.251351 -0.15526 0)
(-0.246459 -0.151571 0)
(-0.238364 -0.147502 0)
(-0.228243 -0.143083 0)
(-0.216823 -0.138342 0)
(-0.204534 -0.133301 0)
(-0.191666 -0.127989 0)
(-0.178441 -0.122438 0)
(-0.165044 -0.11669 0)
(-0.151639 -0.110792 0)
(-0.138382 -0.104802 0)
(-0.125465 -0.0987912 0)
(-0.11318 -0.0928472 0)
(-0.101929 -0.0870792 0)
(-0.0921797 -0.0816127 0)
(-0.0843683 -0.0765747 0)
(-0.0787686 -0.0720624 0)
(-0.0753795 -0.0681053 0)
(-0.0739267 -0.0646447 0)
(-0.0739798 -0.0615527 0)
(-0.0750863 -0.058679 0)
(-0.0768516 -0.0558938 0)
(-0.0789725 -0.0531065 0)
(-0.081239 -0.0502625 0)
(-0.0835178 -0.0473336 0)
(-0.0857298 -0.044308 0)
(-0.0878302 -0.0411826 0)
(-0.0897934 -0.0379595 0)
(-0.091604 -0.0346432 0)
(-0.093252 -0.0312398 0)
(-0.0947305 -0.0277567 0)
(-0.0960342 -0.0242023 0)
(-0.097159 -0.0205855 0)