/*--------------------------------*- C++ -*----------------------------------*\
  =========                 |
  \\      /  F ield         | OpenFOAM: The Open Source CFD Toolbox
   \\    /   O peration     | Website:  https://openfoam.org
    \\  /    A nd           | Version:  8
     \\/     M anipulation  |
\*---------------------------------------------------------------------------*/
FoamFile
{
    version     2.0;
    format      ascii;
    class       volScalarField;
    location    "920/fluid";
    object      CO2;
}
// * * * * * * * * * * * * * * * * * * * * * * * * * * * * * * * * * * * * * //

dimensions      [0 0 0 0 0 0 0];

internalField   nonuniform List<scalar> 
4000
(
4.73722e-07
2.07002e-06
4.75416e-06
9.25339e-06
1.6763e-05
2.92283e-05
4.97776e-05
8.33701e-05
0.000137735
0.000224669
0.000361739
0.000574297
0.000897552
0.00137808
0.00207384
0.00305167
0.00438141
0.00612722
0.00833805
0.0110402
0.0142346
0.0178981
0.0219888
0.0264522
0.0312263
0.0362464
0.0414485
0.046771
0.0521568
0.0575538
0.0629156
0.0682019
0.0733785
0.0784171
0.0832951
0.0879946
0.0925019
0.0968074
0.100905
0.104793
0.10847
0.111939
0.115203
0.118266
0.121134
0.123813
0.126309
0.128628
0.130774
0.132752
0.134563
0.136207
0.137682
0.138982
0.140095
0.141004
0.141683
0.142092
0.142191
0.141913
0.141162
0.13981
0.137077
0.126542
0.115832
0.105127
0.094565
0.0842563
0.0742876
0.0647298
0.055643
0.0470799
0.0390902
0.03176
0.0250616
0.0191009
0.0139421
0.00964835
0.00626656
0.00379144
0.00213314
0.00112166
0.000556437
0.000264665
0.000122302
5.52373e-05
2.44882e-05
1.06907e-05
4.60747e-06
1.96427e-06
8.29752e-07
3.4778e-07
1.44789e-07
5.99071e-08
2.46218e-08
1.00225e-08
4.00361e-09
1.52799e-09
5.10242e-10
8.94506e-11
4.74162e-07
2.07242e-06
4.76179e-06
9.27397e-06
1.68119e-05
2.93326e-05
4.99782e-05
8.37178e-05
0.000138267
0.000225349
0.000362323
0.000574117
0.000895188
0.00137089
0.00205755
0.00302015
0.00432697
0.00604145
0.00821319
0.0108706
0.0140177
0.0176349
0.0216835
0.0261113
0.0308581
0.03586
0.0410527
0.0463743
0.0517666
0.0571764
0.0625561
0.0678643
0.0730655
0.0781306
0.0830361
0.0877633
0.092298
0.09663
0.100753
0.104665
0.108364
0.111853
0.115136
0.118216
0.121099
0.123791
0.126299
0.128628
0.130782
0.132767
0.134584
0.136233
0.137712
0.139014
0.140129
0.141038
0.141718
0.142126
0.142222
0.14194
0.141182
0.13982
0.136246
0.125641
0.114876
0.104126
0.0935275
0.0831887
0.073197
0.063624
0.0545307
0.0459719
0.0380001
0.0307067
0.0240664
0.0181921
0.0131497
0.00900077
0.00578156
0.00346594
0.00194025
0.00102092
0.000509682
0.000244534
0.000114145
5.20885e-05
2.33173e-05
1.02663e-05
4.45571e-06
1.90996e-06
8.10014e-07
3.40405e-07
1.41935e-07
5.87643e-08
2.41526e-08
9.82794e-09
3.92382e-09
1.49678e-09
4.99632e-10
8.76023e-11
4.75225e-07
2.07733e-06
4.77428e-06
9.30115e-06
1.6866e-05
2.94322e-05
5.01486e-05
8.39855e-05
0.000138644
0.000225792
0.000362651
0.000573825
0.000893155
0.00136514
0.00204495
0.00299615
0.00428561
0.0059757
0.0081157
0.0107348
0.0138385
0.0174098
0.0214127
0.0257978
0.0305072
0.0354785
0.0406488
0.0459565
0.0513433
0.0567554
0.0621446
0.0674684
0.0726903
0.0777801
0.0827132
0.0874701
0.0920356
0.0963989
0.100553
0.104495
0.108223
0.111739
0.115046
0.11815
0.121054
0.123765
0.12629
0.128634
0.130801
0.132796
0.134622
0.136278
0.137762
0.139068
0.140185
0.141095
0.141774
0.142178
0.142269
0.141977
0.141204
0.139819
0.134777
0.124122
0.113312
0.102524
0.0919
0.0815489
0.0715599
0.0620063
0.0529515
0.0444525
0.0365641
0.0293676
0.0228663
0.0171584
0.0123043
0.00835538
0.00532975
0.00317993
0.00177711
0.000936351
0.000469241
0.000226146
0.000106093
4.86655e-05
2.18966e-05
9.6875e-06
4.22297e-06
1.81714e-06
7.73123e-07
3.25727e-07
1.36069e-07
5.6407e-08
2.32007e-08
9.44356e-09
3.77046e-09
1.43809e-09
4.79938e-10
8.41414e-11
4.74641e-07
2.07475e-06
4.76818e-06
9.28841e-06
1.68396e-05
2.93759e-05
5.00254e-05
8.37152e-05
0.000138062
0.000224584
0.000360251
0.000569295
0.000885046
0.00135126
0.00202219
0.00296045
0.00423203
0.00589888
0.00801041
0.0105966
0.0136643
0.0171984
0.0211645
0.025515
0.0301933
0.0351385
0.0402885
0.0455822
0.0509617
0.0563732
0.0617679
0.0671029
0.0723412
0.0774514
0.0824084
0.0871917
0.0917854
0.0961778
0.100361
0.104332
0.108089
0.111632
0.114966
0.118093
0.121019
0.123751
0.126293
0.128652
0.130833
0.132839
0.134673
0.136336
0.137825
0.139134
0.140251
0.141159
0.141833
0.142228
0.142307
0.141998
0.141201
0.139783
0.13295
0.122277
0.111446
0.100644
0.0900175
0.0796796
0.069722
0.0602202
0.0512391
0.042837
0.0350705
0.0279918
0.0216588
0.0161352
0.0114766
0.00772537
0.00488575
0.00289378
0.00160908
0.000845872
0.000423999
0.000204748
9.63385e-05
4.43453e-05
2.00276e-05
8.89467e-06
3.89209e-06
1.68085e-06
7.17542e-07
3.03226e-07
1.27005e-07
5.27677e-08
2.17439e-08
8.86361e-09
3.54286e-09
1.35234e-09
4.5151e-10
7.91788e-11
4.72694e-07
2.06614e-06
4.74797e-06
9.24775e-06
1.67625e-05
2.92331e-05
4.9764e-05
8.32399e-05
0.000137204
0.000223051
0.00035755
0.000564625
0.000877153
0.00133828
0.0020015
0.00292862
0.00418496
0.00583208
0.00791951
0.0104779
0.0135153
0.0170179
0.0209529
0.0252742
0.0299263
0.0348495
0.0399822
0.0452639
0.0506369
0.0560473
0.0614464
0.0667907
0.0720425
0.0771701
0.0821476
0.0869538
0.0915723
0.0959906
0.100201
0.104198
0.10798
0.111549
0.114906
0.118055
0.121002
0.123752
0.12631
0.128683
0.130876
0.132892
0.134733
0.136401
0.137892
0.1392
0.140313
0.141215
0.141878
0.142257
0.142317
0.141982
0.14115
0.139689
0.131026
0.120361
0.109526
0.0987233
0.0881065
0.0777953
0.0678837
0.0584482
0.0495538
0.0412586
0.0336314
0.0266973
0.0205316
0.0151904
0.0107219
0.00715917
0.00449282
0.00264419
0.00146414
0.000768263
0.000385166
0.000186272
8.78332e-05
4.05291e-05
1.83501e-05
8.1696e-06
3.58301e-06
1.55061e-06
6.63192e-07
2.80722e-07
1.17747e-07
4.89798e-08
2.0203e-08
8.24193e-09
3.29629e-09
1.25869e-09
4.20306e-10
7.37145e-11
4.69684e-07
2.05286e-06
4.7169e-06
9.18563e-06
1.6646e-05
2.90218e-05
4.93872e-05
8.2577e-05
0.000136052
0.000221075
0.000354214
0.0005591
0.000868204
0.00132416
0.00197988
0.00289658
0.00413915
0.00576902
0.00783595
0.0103712
0.0133839
0.0168611
0.0207714
0.0250696
0.0297013
0.0346073
0.0397268
0.0449996
0.0503681
0.0557786
0.061182
0.0665347
0.0717986
0.0769415
0.0819368
0.086763
0.0914029
0.0958437
0.100077
0.104097
0.107902
0.111492
0.11487
0.118039
0.121003
0.123769
0.126341
0.128725
0.130927
0.13295
0.134796
0.136465
0.137954
0.139256
0.140361
0.141249
0.141894
0.142251
0.142285
0.141918
0.14105
0.139563
0.129351
0.118647
0.107768
0.0969384
0.0863186
0.0760292
0.0661633
0.0567955
0.0479881
0.0397952
0.0322946
0.0254992
0.0195001
0.0143377
0.0100464
0.0066551
0.00414383
0.00242209
0.00133422
0.000697799
0.000349293
0.000168927
7.97199e-05
3.68349e-05
1.67055e-05
7.45127e-06
3.27433e-06
1.41978e-06
6.08367e-07
2.57963e-07
1.08371e-07
4.51426e-08
1.86423e-08
7.61252e-09
3.04674e-09
1.16394e-09
3.88742e-10
6.8187e-11
4.6622e-07
2.03765e-06
4.68157e-06
9.11576e-06
1.65168e-05
2.87909e-05
4.89834e-05
8.1881e-05
0.000134868
0.00021909
0.000350935
0.000553778
0.000859745
0.00131103
0.00196007
0.00286762
0.00409823
0.00571326
0.00776276
0.0102786
0.0132707
0.0167271
0.0206174
0.0248973
0.029513
0.0344059
0.0395157
0.0447824
0.0501485
0.0555603
0.0609686
0.0663294
0.0716044
0.0767609
0.081772
0.0866157
0.0912744
0.0957348
0.0999877
0.104028
0.107852
0.111461
0.114856
0.118041
0.12102
0.123798
0.126381
0.128775
0.130983
0.13301
0.134856
0.136523
0.138006
0.139298
0.140386
0.141252
0.141867
0.142182
0.142168
0.141741
0.14081
0.13928
0.128439
0.117382
0.106308
0.0953787
0.0847212
0.0744381
0.064612
0.0553115
0.0465965
0.0385225
0.0311803
0.0245186
0.0186382
0.0136013
0.00945774
0.00621672
0.00384221
0.00223147
0.00122331
0.000637811
0.000318739
0.000154105
7.27487e-05
3.36379e-05
1.52702e-05
6.81858e-06
2.99983e-06
1.30232e-06
5.58702e-07
2.37174e-07
9.97446e-08
4.15892e-08
1.71892e-08
7.02395e-09
2.81257e-09
1.07479e-09
3.58991e-10
6.29719e-11
4.6263e-07
2.0219e-06
4.64512e-06
9.04396e-06
1.63847e-05
2.85564e-05
4.85759e-05
8.11845e-05
0.000133695
0.000217142
0.000347753
0.000548679
0.000851745
0.00129879
0.00194185
0.00284132
0.00406156
0.0056639
0.00769871
0.0101984
0.0131736
0.0166133
0.0204877
0.0247532
0.0293567
0.0342399
0.0393429
0.0446058
0.0499712
0.0553854
0.0607989
0.0661676
0.0714529
0.0766218
0.081647
0.086506
0.0911809
0.095658
0.0999279
0.103985
0.107826
0.11145
0.114859
0.118057
0.121048
0.123836
0.126428
0.128828
0.13104
0.133069
0.134914
0.136576
0.13805
0.139328
0.140394
0.141228
0.141795
0.142046
0.141933
0.14136
0.140203
0.138331
0.127289
0.116083
0.104913
0.0939334
0.0832635
0.0729987
0.0632163
0.0539808
0.0453479
0.0373681
0.0301101
0.0235714
0.0178293
0.0129367
0.00893781
0.00583566
0.00358259
0.00206811
0.00112831
0.000586276
0.00029235
0.00014123
6.66567e-05
3.08276e-05
1.40015e-05
6.25656e-06
2.75493e-06
1.19712e-06
5.14071e-07
2.1844e-07
9.19514e-08
3.83727e-08
1.58717e-08
6.48954e-09
2.5997e-09
9.93678e-10
3.31908e-10
5.82233e-11
4.59156e-07
2.00669e-06
4.60999e-06
8.97499e-06
1.62584e-05
2.83332e-05
4.81904e-05
8.053e-05
0.0001326
0.000215339
0.000344834
0.000544038
0.000844527
0.00128783
0.00192567
0.00281817
0.00402951
0.0056211
0.00764357
0.0101298
0.0130912
0.0165174
0.0203792
0.0246335
0.0292277
0.034104
0.0392023
0.0444633
0.0498293
0.0552465
0.0606655
0.0660419
0.0713367
0.0765168
0.0815543
0.0864268
0.0911158
0.0956073
0.0998916
0.103963
0.107817
0.111454
0.114875
0.118083
0.121083
0.12388
0.126478
0.128882
0.131097
0.133125
0.134969
0.136626
0.138091
0.139356
0.140404
0.141213
0.141742
0.141945
0.141763
0.141087
0.139775
0.137293
0.126112
0.114819
0.103604
0.092612
0.0819585
0.0717344
0.0620132
0.0528559
0.0443149
0.0364381
0.0292869
0.0228622
0.0172369
0.0124484
0.00852864
0.00551901
0.00336348
0.00193004
0.00104804
0.000542729
0.00027002
0.000130309
6.14726e-05
2.84271e-05
1.29136e-05
5.77258e-06
2.54315e-06
1.10579e-06
4.75179e-07
2.02058e-07
8.51157e-08
3.55437e-08
1.47103e-08
6.01754e-09
2.4114e-09
9.21851e-10
3.07916e-10
5.40129e-11
4.55926e-07
1.99256e-06
4.57741e-06
8.91116e-06
1.61417e-05
2.81277e-05
4.78368e-05
7.99321e-05
0.000131605
0.000213708
0.000342207
0.000539889
0.000838112
0.00127816
0.00191149
0.00279801
0.0040018
0.00558433
0.00759651
0.0100717
0.0130219
0.0164371
0.0202889
0.0245347
0.029122
0.0339933
0.0390889
0.0443491
0.0497166
0.0551374
0.0605619
0.0659454
0.071249
0.076439
0.0814875
0.0863715
0.0910725
0.0955762
0.0998728
0.103955
0.10782
0.111468
0.114898
0.118115
0.121122
0.123925
0.126527
0.128935
0.131151
0.133179
0.13502
0.136673
0.138132
0.139388
0.140425
0.141221
0.141736
0.141925
0.141734
0.141063
0.139787
0.136159
0.124928
0.113603
0.102375
0.0913873
0.0807539
0.0705639
0.0608892
0.051789
0.0433151
0.0355167
0.0284403
0.0221152
0.0166005
0.0119409
0.00816612
0.00525276
0.00317607
0.00181215
0.000979786
0.000505758
0.00025106
0.000121027
5.70592e-05
2.63796e-05
1.19835e-05
5.35794e-06
2.36131e-06
1.02719e-06
4.41639e-07
1.87904e-07
7.91993e-08
3.30914e-08
1.37022e-08
5.60736e-09
2.24763e-09
8.59346e-10
2.87039e-10
5.03451e-11
4.53013e-07
1.97982e-06
4.54807e-06
8.85377e-06
1.60371e-05
2.79439e-05
4.75213e-05
7.94004e-05
0.000130723
0.000212269
0.000339899
0.000536259
0.000832528
0.00126978
0.00189926
0.00278071
0.00397815
0.00555311
0.00755679
0.0100229
0.0129639
0.0163705
0.0202145
0.0244536
0.0290359
0.0339039
0.0389978
0.0442583
0.0496278
0.0550523
0.0604821
0.0658723
0.0711836
0.0763824
0.0814404
0.0863345
0.0910457
0.0955598
0.0998661
0.103958
0.107832
0.111488
0.114926
0.118149
0.121162
0.123969
0.126574
0.128984
0.1312
0.133228
0.135066
0.136715
0.138169
0.139418
0.140448
0.141235
0.141742
0.141925
0.141729
0.141059
0.139791
0.135047
0.123808
0.112489
0.101277
0.0903159
0.0797202
0.0695795
0.0599653
0.0509252
0.0425119
0.0347698
0.0277402
0.0214876
0.0160584
0.0114913
0.00781332
0.00501765
0.00302052
0.00171223
0.000921967
0.000474528
0.000235068
0.000113201
5.33366e-05
2.46508e-05
1.11972e-05
5.00678e-06
2.20704e-06
9.60397e-07
4.13085e-07
1.75833e-07
7.41459e-08
3.0994e-08
1.2839e-08
5.25588e-09
2.10719e-09
8.05717e-10
2.6912e-10
4.71994e-11
4.50444e-07
1.96859e-06
4.52223e-06
8.80329e-06
1.59452e-05
2.77827e-05
4.72454e-05
7.89364e-05
0.000129956
0.000211021
0.000337904
0.000533132
0.000827736
0.00126262
0.00188885
0.00276605
0.00395819
0.00552689
0.00752357
0.00998234
0.012916
0.0163156
0.0201536
0.0243877
0.0289663
0.0338321
0.0389253
0.0441866
0.0495584
0.0549865
0.0604212
0.0658174
0.0711357
0.0763421
0.0814082
0.0863107
0.0910306
0.095553
0.0998675
0.103967
0.107849
0.111511
0.114955
0.118183
0.1212
0.124009
0.126617
0.129027
0.131243
0.133268
0.135104
0.136749
0.138198
0.139441
0.140464
0.141244
0.141743
0.14192
0.14172
0.141049
0.139785
0.13405
0.122802
0.111487
0.100293
0.0893643
0.0788074
0.0686994
0.0591104
0.0501099
0.0417466
0.0340678
0.0271168
0.0209429
0.0155947
0.0111109
0.00751587
0.00479787
0.00288481
0.00162987
0.000873364
0.000448241
0.000221643
0.000106638
5.0216e-05
2.32011e-05
1.05374e-05
4.71187e-06
2.07734e-06
9.04168e-07
3.89017e-07
1.65646e-07
6.98757e-08
2.92197e-08
1.21081e-08
4.95807e-09
1.9882e-09
7.60259e-10
2.53915e-10
4.45371e-11
4.48225e-07
1.95889e-06
4.49993e-06
8.75976e-06
1.5866e-05
2.76441e-05
4.70085e-05
7.8539e-05
0.0001293
0.000209956
0.000336207
0.000530481
0.000823685
0.00125658
0.00188011
0.00275379
0.00394154
0.00550511
0.00749608
0.00994889
0.0128767
0.0162709
0.0201041
0.0243345
0.0289105
0.0337748
0.0388679
0.0441303
0.0495045
0.054936
0.0603751
0.0657766
0.0711008
0.0763138
0.0813867
0.0862963
0.0910232
0.0955525
0.0998735
0.10398
0.107867
0.111534
0.114982
0.118214
0.121233
0.124044
0.126653
0.129062
0.131277
0.1333
0.135133
0.136773
0.138217
0.139454
0.14047
0.141243
0.141735
0.141906
0.141702
0.14103
0.13977
0.13319
0.121932
0.110622
0.0994447
0.0885296
0.077986
0.0679075
0.0583626
0.0494096
0.0410992
0.0334782
0.0265892
0.0204819
0.0152036
0.0107918
0.00726836
0.00461733
0.00276131
0.00155979
0.000834038
0.000426546
0.000210497
0.000101201
4.76314e-05
2.20002e-05
9.99032e-06
4.46709e-06
1.96954e-06
8.57372e-07
3.68959e-07
1.57144e-07
6.63076e-08
2.77353e-08
1.1496e-08
4.70844e-09
1.88846e-09
7.22156e-10
2.41168e-10
4.23051e-11
4.46344e-07
1.95067e-06
4.48104e-06
8.72293e-06
1.57991e-05
2.75271e-05
4.68088e-05
7.82045e-05
0.000128749
0.000209064
0.000334788
0.000528268
0.000820313
0.00125157
0.00187288
0.00274366
0.00392785
0.00548724
0.00747361
0.00992165
0.0128448
0.0162347
0.0200643
0.0242919
0.0288661
0.0337296
0.0388229
0.0440865
0.0494629
0.0548975
0.0603405
0.0657465
0.0710758
0.0762941
0.0813728
0.0862882
0.0910206
0.0955553
0.0998816
0.103992
0.107884
0.111555
0.115006
0.11824
0.121261
0.124073
0.126681
0.129089
0.131302
0.133323
0.135151
0.136787
0.138225
0.139456
0.140466
0.141232
0.141717
0.141882
0.141674
0.141002
0.13975
0.13246
0.121187
0.109878
0.0987019
0.0878028
0.0772873
0.0672412
0.0577334
0.0488217
0.0405567
0.0329846
0.0261478
0.0200966
0.0148774
0.0105265
0.00706387
0.00446966
0.00266202
0.00149723
0.000801076
0.000409503
0.000201612
9.67882e-05
4.55239e-05
2.10186e-05
9.5422e-06
4.26615e-06
1.88089e-06
8.18823e-07
3.52412e-07
1.50122e-07
6.33569e-08
2.65066e-08
1.0989e-08
4.50149e-09
1.8058e-09
6.90562e-10
2.30624e-10
4.04562e-11
4.44784e-07
1.94386e-06
4.46538e-06
8.69241e-06
1.57437e-05
2.74303e-05
4.66439e-05
7.79286e-05
0.000128295
0.00020833
0.000333623
0.000526456
0.000817557
0.00124749
0.00186699
0.00273544
0.00391676
0.00547281
0.00745552
0.00989978
0.0128192
0.0162059
0.0200327
0.0242583
0.0288311
0.0336942
0.0387879
0.0440528
0.0494311
0.0548684
0.0603146
0.0657243
0.0710578
0.0762805
0.0813636
0.0862834
0.0910204
0.0955593
0.0998895
0.104004
0.107898
0.111572
0.115025
0.11826
0.121282
0.124094
0.126701
0.129108
0.131318
0.133335
0.13516
0.13679
0.138223
0.139447
0.14045
0.14121
0.141688
0.141849
0.141638
0.140968
0.139727
0.131858
0.120564
0.109249
0.098082
0.0871994
0.0767067
0.0666881
0.0572117
0.0483349
0.0401079
0.0325767
0.0257834
0.0197788
0.0146087
0.0103086
0.00689654
0.00434957
0.00258205
0.00144765
0.000772013
0.000394873
0.000194574
9.33165e-05
4.38339e-05
2.02231e-05
9.1778e-06
4.10253e-06
1.80861e-06
7.87359e-07
3.38894e-07
1.44381e-07
6.09436e-08
2.55013e-08
1.05741e-08
4.33207e-09
1.73835e-09
6.64767e-10
2.22046e-10
3.89501e-11
4.43524e-07
1.93835e-06
4.45274e-06
8.66779e-06
1.5699e-05
2.73523e-05
4.65111e-05
7.77068e-05
0.000127931
0.000207742
0.00033269
0.000525007
0.000815357
0.00124423
0.00186231
0.00272891
0.00390797
0.0054614
0.00744126
0.00988259
0.0127992
0.0161834
0.0200082
0.0242322
0.0288042
0.033667
0.0387612
0.0440271
0.0494071
0.0548466
0.0602954
0.0657081
0.0710448
0.0762709
0.0813575
0.0862806
0.0910208
0.0955628
0.0998958
0.104013
0.107909
0.111584
0.115038
0.118274
0.121296
0.124107
0.126712
0.129117
0.131325
0.133338
0.135158
0.136784
0.13821
0.139429
0.140425
0.141178
0.141651
0.141808
0.141596
0.140929
0.139701
0.13137
0.120059
0.108738
0.0975765
0.0867072
0.0762333
0.0662376
0.0567874
0.0479396
0.0397439
0.0322463
0.0254885
0.0195218
0.0143917
0.0101329
0.00676203
0.0042534
0.00251834
0.00140848
0.000749319
0.000382158
0.000188085
9.03506e-05
4.2482e-05
1.95896e-05
8.88524e-06
3.97043e-06
1.75022e-06
7.61949e-07
3.27994e-07
1.39756e-07
5.90024e-08
2.46935e-08
1.02418e-08
4.19635e-09
1.68462e-09
6.44233e-10
2.15229e-10
3.7753e-11
4.42543e-07
1.93407e-06
4.44291e-06
8.64864e-06
1.56643e-05
2.72918e-05
4.64081e-05
7.75348e-05
0.000127649
0.000207287
0.00033197
0.000523889
0.00081366
0.00124172
0.0018587
0.0027239
0.00390124
0.00545268
0.00743037
0.00986949
0.012784
0.0161663
0.0199896
0.0242125
0.0287839
0.0336467
0.0387412
0.044008
0.0493893
0.0548305
0.0602813
0.0656962
0.0710352
0.0762638
0.0813527
0.0862782
0.0910206
0.0955647
0.0998996
0.104018
0.107916
0.111592
0.115046
0.118282
0.121303
0.124112
0.126716
0.129118
0.131323
0.133332
0.135148
0.136768
0.138189
0.139401
0.140392
0.141139
0.141607
0.141761
0.14155
0.140888
0.139678
0.130984
0.119654
0.108329
0.0971729
0.0863152
0.0758574
0.0658809
0.0564524
0.0476281
0.0394578
0.031987
0.0252574
0.0193208
0.0142222
0.00999604
0.00665749
0.00417888
0.00246917
0.00137843
0.000732169
0.000372882
0.000183273
8.79058e-05
4.13145e-05
1.90725e-05
8.65468e-06
3.86778e-06
1.70492e-06
7.42234e-07
3.19541e-07
1.36176e-07
5.7504e-08
2.40706e-08
9.98798e-09
4.09287e-09
1.64372e-09
6.28597e-10
2.10044e-10
3.68424e-11
4.41825e-07
1.93094e-06
4.4357e-06
8.63462e-06
1.56389e-05
2.72475e-05
4.63328e-05
7.74091e-05
0.000127443
0.000206954
0.000331444
0.000523074
0.000812425
0.0012399
0.00185609
0.00272027
0.00389636
0.00544637
0.0074225
0.00986004
0.0127731
0.016154
0.0199762
0.0241984
0.0287694
0.0336322
0.038727
0.0439945
0.0493767
0.0548191
0.0602713
0.0656878
0.0710284
0.0762585
0.0813489
0.0862758
0.0910195
0.0955648
0.0999007
0.10402
0.107918
0.111594
0.115049
0.118284
0.121303
0.124112
0.126713
0.129113
0.131314
0.133319
0.135131
0.136746
0.138161
0.139368
0.140353
0.141095
0.141559
0.141711
0.141502
0.140849
0.139657
0.130699
0.11935
0.108019
0.0968664
0.0860179
0.0755731
0.0656122
0.0562009
0.0473952
0.0392444
0.0317942
0.025086
0.0191721
0.0140972
0.00989531
0.00658079
0.00412438
0.0024333
0.00135655
0.000719698
0.000366176
0.000179832
8.62078e-05
4.04977e-05
1.86844e-05
8.48223e-06
3.79251e-06
1.67241e-06
7.28254e-07
3.13593e-07
1.33653e-07
5.64556e-08
2.36333e-08
9.80927e-09
4.01978e-09
1.61477e-09
6.17515e-10
2.0637e-10
3.61964e-11
4.41355e-07
1.92889e-06
4.431e-06
8.62546e-06
1.56223e-05
2.72186e-05
4.62836e-05
7.73272e-05
0.000127308
0.000206738
0.000331102
0.000522544
0.000811624
0.00123872
0.00185439
0.00271791
0.0038932
0.00544228
0.00741741
0.00985394
0.012766
0.0161461
0.0199677
0.0241894
0.0287601
0.0336228
0.038718
0.0439858
0.0493686
0.0548118
0.0602648
0.0656822
0.0710237
0.0762547
0.0813459
0.0862734
0.0910177
0.0955634
0.0998997
0.104019
0.107917
0.111593
0.115047
0.118282
0.1213
0.124107
0.126706
0.129103
0.131301
0.133303
0.13511
0.136721
0.138131
0.139333
0.140313
0.14105
0.141511
0.141662
0.141457
0.140813
0.139642
0.130511
0.119142
0.107805
0.0966545
0.085813
0.0753781
0.0654289
0.0560304
0.0472381
0.0391013
0.0316654
0.0249721
0.0190735
0.0140147
0.00982912
0.00653064
0.00408893
0.00241006
0.00134238
0.000711617
0.000361828
0.000177604
8.51158e-05
3.99915e-05
1.8444e-05
8.37208e-06
3.74215e-06
1.65082e-06
7.18911e-07
3.09696e-07
1.32004e-07
5.57754e-08
2.33499e-08
9.69405e-09
3.97269e-09
1.59621e-09
6.10405e-10
2.04018e-10
3.57827e-11
4.41127e-07
1.92789e-06
4.42871e-06
8.62102e-06
1.56143e-05
2.72046e-05
4.626e-05
7.72879e-05
0.000127244
0.000206635
0.000330939
0.000522293
0.000811243
0.00123816
0.00185359
0.0027168
0.00389171
0.00544035
0.00741501
0.00985105
0.0127627
0.0161424
0.0199636
0.0241851
0.0287557
0.0336184
0.0387136
0.0439817
0.0493648
0.0548083
0.0602617
0.0656795
0.0710214
0.0762527
0.0813442
0.0862719
0.0910161
0.0955618
0.099898
0.104017
0.107915
0.111591
0.115044
0.118278
0.121296
0.124101
0.126699
0.129094
0.13129
0.13329
0.135094
0.136701
0.138108
0.139306
0.140282
0.141016
0.141474
0.141625
0.141421
0.140786
0.139634
0.130419
0.119033
0.10769
0.0965411
0.0857042
0.0752758
0.0653338
0.0559429
0.0471584
0.0390293
0.0316013
0.024916
0.0190255
0.0139747
0.00979734
0.00650675
0.00407219
0.0023992
0.00133582
0.000707881
0.000359819
0.000176573
8.46109e-05
3.97601e-05
1.83345e-05
8.3229e-06
3.71955e-06
1.64083e-06
7.14466e-07
3.07811e-07
1.31197e-07
5.54424e-08
2.3211e-08
9.63761e-09
3.94963e-09
1.58712e-09
6.06926e-10
2.02866e-10
3.558e-11
4.41127e-07
1.92789e-06
4.42872e-06
8.62104e-06
1.56143e-05
2.72047e-05
4.62601e-05
7.72881e-05
0.000127244
0.000206635
0.00033094
0.000522293
0.000811245
0.00123816
0.00185359
0.0027168
0.00389171
0.00544036
0.00741502
0.00985106
0.0127627
0.0161424
0.0199636
0.0241851
0.0287557
0.0336184
0.0387136
0.0439817
0.0493648
0.0548083
0.0602617
0.0656795
0.0710214
0.0762527
0.0813442
0.0862719
0.0910161
0.0955618
0.099898
0.104017
0.107915
0.111591
0.115044
0.118278
0.121296
0.124101
0.126699
0.129094
0.13129
0.13329
0.135094
0.136701
0.138108
0.139306
0.140282
0.141016
0.141474
0.141625
0.141421
0.140786
0.139634
0.130419
0.119033
0.107691
0.0965411
0.0857043
0.0752758
0.0653338
0.055943
0.0471584
0.0390294
0.0316014
0.024916
0.0190255
0.0139748
0.00979737
0.00650677
0.0040722
0.00239921
0.00133582
0.000707885
0.000359821
0.000176574
8.46116e-05
3.97599e-05
1.83345e-05
8.32276e-06
3.7195e-06
1.64079e-06
7.14448e-07
3.078e-07
1.31193e-07
5.54402e-08
2.321e-08
9.63715e-09
3.94943e-09
1.58702e-09
6.06886e-10
2.02851e-10
3.55771e-11
4.41358e-07
1.9289e-06
4.43102e-06
8.6255e-06
1.56224e-05
2.72187e-05
4.62838e-05
7.73276e-05
0.000127309
0.000206739
0.000331103
0.000522546
0.000811627
0.00123872
0.0018544
0.00271792
0.00389321
0.0054423
0.00741744
0.00985397
0.0127661
0.0161462
0.0199677
0.0241894
0.0287602
0.0336229
0.038718
0.0439859
0.0493687
0.0548118
0.0602649
0.0656822
0.0710238
0.0762547
0.0813459
0.0862734
0.0910177
0.0955635
0.0998997
0.104019
0.107917
0.111593
0.115047
0.118282
0.1213
0.124107
0.126706
0.129103
0.131301
0.133303
0.13511
0.136721
0.138131
0.139333
0.140313
0.14105
0.141511
0.141662
0.141457
0.140813
0.139643
0.130511
0.119142
0.107805
0.0966547
0.0858132
0.0753784
0.0654291
0.0560306
0.0472383
0.0391015
0.0316656
0.0249722
0.0190737
0.0140148
0.00982921
0.00653071
0.00408898
0.0024101
0.00134241
0.000711629
0.000361835
0.000177608
8.51177e-05
3.99912e-05
1.8444e-05
8.3718e-06
3.74204e-06
1.65073e-06
7.18871e-07
3.09674e-07
1.31994e-07
5.57704e-08
2.33477e-08
9.69294e-09
3.97219e-09
1.59596e-09
6.10301e-10
2.03977e-10
3.57748e-11
4.41828e-07
1.93095e-06
4.43574e-06
8.63469e-06
1.5639e-05
2.72477e-05
4.63331e-05
7.74097e-05
0.000127444
0.000206956
0.000331446
0.000523078
0.000812431
0.00123991
0.0018561
0.00272029
0.00389638
0.0054464
0.00742254
0.00986009
0.0127731
0.0161541
0.0199763
0.0241985
0.0287695
0.0336322
0.0387271
0.0439946
0.0493768
0.0548192
0.0602713
0.0656878
0.0710284
0.0762585
0.081349
0.0862758
0.0910196
0.0955649
0.0999007
0.10402
0.107918
0.111594
0.115049
0.118284
0.121303
0.124112
0.126713
0.129113
0.131314
0.133319
0.135131
0.136746
0.138161
0.139368
0.140353
0.141095
0.141559
0.141711
0.141502
0.140849
0.139657
0.1307
0.11935
0.108019
0.0968667
0.0860183
0.0755735
0.0656125
0.0562012
0.0473955
0.0392447
0.0317944
0.0250863
0.0191723
0.0140974
0.00989547
0.00658092
0.00412447
0.00243336
0.00135658
0.00071972
0.000366188
0.000179838
8.62105e-05
4.04987e-05
1.86848e-05
8.4822e-06
3.79246e-06
1.67233e-06
7.28212e-07
3.13566e-07
1.33639e-07
5.64482e-08
2.36298e-08
9.80756e-09
4.019e-09
1.6144e-09
6.1736e-10
2.06311e-10
3.61849e-11
4.42548e-07
1.93409e-06
4.44295e-06
8.64873e-06
1.56645e-05
2.72921e-05
4.64086e-05
7.75357e-05
0.00012765
0.000207289
0.000331973
0.000523894
0.000813668
0.00124174
0.00185872
0.00272393
0.00390127
0.00545272
0.00743042
0.00986955
0.0127841
0.0161664
0.0199897
0.0242126
0.028784
0.0336468
0.0387413
0.0440081
0.0493894
0.0548306
0.0602814
0.0656963
0.0710354
0.0762639
0.0813528
0.0862783
0.0910207
0.0955648
0.0998996
0.104018
0.107916
0.111592
0.115046
0.118282
0.121303
0.124112
0.126716
0.129118
0.131323
0.133332
0.135148
0.136768
0.138189
0.139401
0.140392
0.141139
0.141607
0.141761
0.14155
0.140888
0.139678
0.130985
0.119655
0.108329
0.0971733
0.0863157
0.0758579
0.0658814
0.0564529
0.0476286
0.0394582
0.0319874
0.0252578
0.0193211
0.0142225
0.00999628
0.00665767
0.00417901
0.00246926
0.00137849
0.000732199
0.000372899
0.000183281
8.79097e-05
4.13162e-05
1.90732e-05
8.65486e-06
3.86778e-06
1.70491e-06
7.42223e-07
3.19532e-07
1.36169e-07
5.74999e-08
2.40684e-08
9.98674e-09
4.09226e-09
1.64338e-09
6.28457e-10
2.09989e-10
3.68313e-11
4.4353e-07
1.93838e-06
4.4528e-06
8.6679e-06
1.56993e-05
2.73527e-05
4.65117e-05
7.77078e-05
0.000127933
0.000207745
0.000332695
0.000525014
0.000815366
0.00124424
0.00186233
0.00272894
0.00390801
0.00546145
0.00744132
0.00988266
0.0127993
0.0161835
0.0200083
0.0242323
0.0288043
0.0336671
0.0387613
0.0440272
0.0494072
0.0548467
0.0602955
0.0657082
0.0710449
0.076271
0.0813576
0.0862807
0.0910209
0.0955629
0.0998959
0.104013
0.107909
0.111584
0.115039
0.118274
0.121296
0.124107
0.126712
0.129117
0.131325
0.133338
0.135158
0.136784
0.13821
0.139429
0.140425
0.141178
0.141651
0.141808
0.141596
0.140929
0.139702
0.13137
0.12006
0.108738
0.0975771
0.0867078
0.076234
0.0662383
0.0567881
0.0479403
0.0397446
0.0322469
0.025489
0.0195223
0.0143921
0.0101332
0.00676227
0.00425357
0.00251846
0.00140855
0.000749359
0.00038218
0.000188096
9.03558e-05
4.24843e-05
1.95906e-05
8.88565e-06
3.97066e-06
1.75031e-06
7.61985e-07
3.28006e-07
1.39759e-07
5.90029e-08
2.46933e-08
1.02415e-08
4.19616e-09
1.68444e-09
6.44154e-10
2.15195e-10
3.77453e-11
4.44791e-07
1.94389e-06
4.46545e-06
8.69255e-06
1.5744e-05
2.74307e-05
4.66446e-05
7.79298e-05
0.000128297
0.000208333
0.000333628
0.000526464
0.000817568
0.0012475
0.00186701
0.00273547
0.0039168
0.00547287
0.00745559
0.00989987
0.0128194
0.016206
0.0200329
0.0242584
0.0288313
0.0336944
0.0387881
0.0440529
0.0494312
0.0548686
0.0603147
0.0657245
0.0710579
0.0762806
0.0813638
0.0862836
0.0910205
0.0955594
0.0998896
0.104004
0.107898
0.111572
0.115025
0.11826
0.121282
0.124094
0.126701
0.129108
0.131318
0.133335
0.13516
0.13679
0.138223
0.139447
0.14045
0.14121
0.141688
0.141849
0.141638
0.140968
0.139727
0.131858
0.120565
0.109249
0.0980828
0.0872003
0.0767076
0.0666889
0.0572126
0.0483358
0.0401087
0.0325775
0.0257841
0.0197794
0.0146092
0.010309
0.00689684
0.00434979
0.00258219
0.00144774
0.000772062
0.0003949
0.000194587
9.33226e-05
4.38368e-05
2.02245e-05
9.17849e-06
4.10283e-06
1.80874e-06
7.87411e-07
3.38915e-07
1.44389e-07
6.09465e-08
2.55023e-08
1.05744e-08
4.33216e-09
1.73833e-09
6.64752e-10
2.22036e-10
3.89461e-11
4.46352e-07
1.95071e-06
4.48112e-06
8.72309e-06
1.57994e-05
2.75276e-05
4.68096e-05
7.82059e-05
0.000128751
0.000209067
0.000334793
0.000528277
0.000820326
0.00125159
0.00187291
0.0027437
0.0039279
0.0054873
0.00747369
0.00992175
0.0128449
0.0162348
0.0200645
0.0242921
0.0288662
0.0337297
0.0388231
0.0440867
0.0494631
0.0548977
0.0603406
0.0657467
0.071076
0.0762943
0.081373
0.0862883
0.0910208
0.0955555
0.0998817
0.103992
0.107884
0.111555
0.115006
0.11824
0.121261
0.124073
0.126681
0.129089
0.131303
0.133323
0.135152
0.136787
0.138225
0.139456
0.140466
0.141232
0.141717
0.141882
0.141674
0.141002
0.13975
0.132461
0.121188
0.109878
0.0987028
0.0878038
0.0772886
0.0672425
0.0577348
0.0488231
0.0405579
0.0329857
0.0261487
0.0200974
0.014878
0.010527
0.00706423
0.00446992
0.00266219
0.00149733
0.000801133
0.000409531
0.000201626
9.67959e-05
4.55277e-05
2.10204e-05
9.54301e-06
4.26651e-06
1.88105e-06
8.1889e-07
3.5244e-07
1.50133e-07
6.33615e-08
2.65084e-08
1.09897e-08
4.50174e-09
1.80589e-09
6.90589e-10
2.3063e-10
4.0455e-11
4.48234e-07
1.95893e-06
4.50002e-06
8.75994e-06
1.58663e-05
2.76446e-05
4.70094e-05
7.85405e-05
0.000129302
0.00020996
0.000336213
0.00053049
0.0008237
0.00125661
0.00188014
0.00275383
0.0039416
0.00550518
0.00749617
0.00994901
0.0128768
0.016271
0.0201043
0.0243347
0.0289107
0.033775
0.0388681
0.0441305
0.0495047
0.0549362
0.0603753
0.0657768
0.071101
0.0763139
0.0813869
0.0862965
0.0910234
0.0955526
0.0998737
0.10398
0.107867
0.111534
0.114982
0.118214
0.121233
0.124044
0.126653
0.129062
0.131277
0.133301
0.135133
0.136773
0.138217
0.139454
0.14047
0.141243
0.141735
0.141906
0.141702
0.14103
0.13977
0.133191
0.121933
0.110623
0.0994458
0.0885313
0.0779881
0.0679101
0.0583655
0.0494122
0.0411013
0.0334798
0.0265904
0.0204829
0.0152043
0.0107923
0.00726873
0.00461758
0.00276148
0.00155989
0.000834098
0.00042658
0.000210515
0.000101209
4.76357e-05
2.20022e-05
9.99125e-06
4.4675e-06
1.96973e-06
8.57452e-07
3.68993e-07
1.57158e-07
6.63133e-08
2.77377e-08
1.1497e-08
4.70881e-09
1.8886e-09
7.22207e-10
2.41184e-10
4.23053e-11
4.50454e-07
1.96863e-06
4.52233e-06
8.80349e-06
1.59455e-05
2.77833e-05
4.72464e-05
7.89381e-05
0.000129959
0.000211025
0.000337911
0.000533142
0.000827752
0.00126264