/*--------------------------------*- C++ -*----------------------------------*\
  =========                 |
  \\      /  F ield         | OpenFOAM: The Open Source CFD Toolbox
   \\    /   O peration     | Website:  https://openfoam.org
    \\  /    A nd           | Version:  8
     \\/     M anipulation  |
\*---------------------------------------------------------------------------*/
FoamFile
{
    version     2.0;
    format      ascii;
    class       volScalarField;
    location    "920/fluid";
    object      H2O;
}
// * * * * * * * * * * * * * * * * * * * * * * * * * * * * * * * * * * * * * //

dimensions      [0 0 0 0 0 0 0];

internalField   nonuniform List<scalar> 
4000
(
3.87832e-07
1.69471e-06
3.89219e-06
7.57567e-06
1.37237e-05
2.3929e-05
4.07525e-05
6.82544e-05
0.000112762
0.000183935
0.000296153
0.000470172
0.000734818
0.00112822
0.00169784
0.00249838
0.00358703
0.0050163
0.00682628
0.00903854
0.0116537
0.014653
0.0180021
0.0216562
0.0255647
0.0296746
0.0339335
0.038291
0.0427003
0.0471188
0.0515084
0.0558363
0.0600743
0.0641994
0.068193
0.0720404
0.0757305
0.0792554
0.0826103
0.0857932
0.0888037
0.0916434
0.0943153
0.0968231
0.0991714
0.101365
0.103408
0.105307
0.107064
0.108683
0.110165
0.111512
0.112719
0.113783
0.114694
0.115439
0.115995
0.11633
0.116411
0.116183
0.115568
0.114461
0.112223
0.103598
0.0948305
0.0860662
0.0774195
0.0689799
0.0608186
0.0529938
0.0455544
0.0385439
0.0320028
0.0260017
0.0205177
0.0156378
0.0114143
0.00789902
0.00513037
0.00310402
0.00174638
0.00091829
0.00045555
0.000216679
0.000100128
4.52223e-05
2.00483e-05
8.75237e-06
3.7721e-06
1.60813e-06
6.7931e-07
2.84725e-07
1.18537e-07
4.90454e-08
2.01577e-08
8.20535e-09
3.27772e-09
1.25096e-09
4.17731e-10
7.32324e-11
3.88192e-07
1.69667e-06
3.89843e-06
7.59251e-06
1.37638e-05
2.40143e-05
4.09167e-05
6.8539e-05
0.000113198
0.000184491
0.00029663
0.000470024
0.000732883
0.00112233
0.0016845
0.00247257
0.00354245
0.00494608
0.00672407
0.0088997
0.0114762
0.0144375
0.0177521
0.0213771
0.0252633
0.0293583
0.0336095
0.0379663
0.0423809
0.0468098
0.0512142
0.0555599
0.0598181
0.0639648
0.0679809
0.071851
0.0755635
0.0791102
0.0824859
0.0856883
0.088717
0.0915735
0.0942605
0.0967821
0.0991425
0.101347
0.1034
0.105306
0.10707
0.108695
0.110182
0.111533
0.112743
0.113809
0.114722
0.115467
0.116023
0.116357
0.116436
0.116205
0.115585
0.114469
0.111543
0.102861
0.0940482
0.0852471
0.0765701
0.0681059
0.0599258
0.0520884
0.0446438
0.0376368
0.0311103
0.0251393
0.0197029
0.0148937
0.0107655
0.00736885
0.00473331
0.00283754
0.00158846
0.000835818
0.000417272
0.000200198
9.34498e-05
4.26444e-05
1.90896e-05
8.40497e-06
3.64785e-06
1.56366e-06
6.63151e-07
2.78687e-07
1.16201e-07
4.81098e-08
1.97735e-08
8.04605e-09
3.2124e-09
1.2254e-09
4.09044e-10
7.17193e-11
3.89062e-07
1.70069e-06
3.90866e-06
7.61477e-06
1.3808e-05
2.40959e-05
4.10562e-05
6.87582e-05
0.000113506
0.000184854
0.000296899
0.000469786
0.000731218
0.00111763
0.00167418
0.00245292
0.00350859
0.00489225
0.00664425
0.00878845
0.0113294
0.0142532
0.0175304
0.0211205
0.024976
0.029046
0.0332788
0.0376242
0.0420343
0.0464651
0.0508772
0.0552358
0.0595109
0.0636779
0.0677166
0.071611
0.0753487
0.0789209
0.0823219
0.0855488
0.0886011
0.0914797
0.0941875
0.096728
0.0991058
0.101326
0.103393
0.105311
0.107086
0.108719
0.110214
0.111569
0.112784
0.113854
0.114768
0.115513
0.116069
0.1164
0.116474
0.116235
0.115602
0.114468
0.110341
0.101618
0.0927673
0.0839358
0.0752377
0.0667634
0.0585854
0.050764
0.0433509
0.0363929
0.0299347
0.024043
0.0187204
0.0140474
0.0100735
0.00684048
0.00436342
0.00260338
0.0014549
0.000766582
0.000384164
0.000185144
8.68573e-05
3.9842e-05
1.79265e-05
7.93107e-06
3.45731e-06
1.48768e-06
6.32949e-07
2.66669e-07
1.11399e-07
4.61799e-08
1.89942e-08
7.73136e-09
3.08684e-09
1.17735e-09
3.92921e-10
6.88858e-11
3.88584e-07
1.69858e-06
3.90367e-06
7.60434e-06
1.37864e-05
2.40498e-05
4.09553e-05
6.85369e-05
0.00011303
0.000183865
0.000294934
0.000466077
0.000724579
0.00110627
0.00165555
0.00242369
0.00346473
0.00482936
0.00655805
0.00867532
0.0111869
0.0140801
0.0173272
0.0208889
0.024719
0.0287676
0.0329839
0.0373178
0.0417219
0.0461522
0.0505688
0.0549366
0.0592251
0.0634088
0.067467
0.0713831
0.0751439
0.0787399
0.0821651
0.0854159
0.0884915
0.0913924
0.0941213
0.0966814
0.0990774
0.101314
0.103395
0.105326
0.107111
0.108754
0.110256
0.111617
0.112836
0.113907
0.114822
0.115566
0.116117
0.116441
0.116505
0.116252
0.1156
0.114439
0.108845
0.100107
0.0912396
0.0823965
0.0736965
0.065233
0.0570808
0.0493018
0.041949
0.0350703
0.0287119
0.0229167
0.0177319
0.0132098
0.0093958
0.00632469
0.00399992
0.00236911
0.00131734
0.000692508
0.000347125
0.000167626
7.88714e-05
3.63051e-05
1.63964e-05
7.28199e-06
3.18642e-06
1.37609e-06
5.87446e-07
2.48249e-07
1.03978e-07
4.32005e-08
1.78015e-08
7.25656e-09
2.90051e-09
1.10715e-09
3.69647e-10
6.4823e-11
3.86991e-07
1.69153e-06
3.88712e-06
7.57105e-06
1.37233e-05
2.39329e-05
4.07413e-05
6.81478e-05
0.000112328
0.00018261
0.000292723
0.000462254
0.000718118
0.00109564
0.00163861
0.00239764
0.00342619
0.00477467
0.00648364
0.00857815
0.0110649
0.0139324
0.017154
0.0206917
0.0245004
0.028531
0.0327331
0.0370572
0.041456
0.0458855
0.0503056
0.0546809
0.0589806
0.0631785
0.0672535
0.0711884
0.0749694
0.0785867
0.0820334
0.0853059
0.0884026
0.091324
0.0940722
0.0966508
0.0990635
0.101315
0.103409
0.105352
0.107147
0.108797
0.110305
0.11167
0.112891
0.113961
0.114873
0.115611
0.116154
0.116465
0.116514
0.11624
0.115558
0.114362
0.10727
0.0985389
0.0896683
0.0808239
0.072132
0.0636904
0.0555758
0.0478511
0.0405692
0.033778
0.0275337
0.0218568
0.016809
0.0124362
0.0087779
0.00586115
0.00367823
0.00216477
0.00119868
0.00062897
0.000315332
0.0001525
7.19083e-05
3.31809e-05
1.50231e-05
6.68838e-06
2.93338e-06
1.26947e-06
5.4295e-07
2.29824e-07
9.63982e-08
4.00993e-08
1.654e-08
6.7476e-09
2.69864e-09
1.03048e-09
3.44101e-10
6.03494e-11
3.84526e-07
1.68066e-06
3.86169e-06
7.5202e-06
1.3628e-05
2.37599e-05
4.04329e-05
6.76051e-05
0.000111385
0.000180992
0.000289992
0.00045773
0.000710791
0.00108408
0.00162091
0.0023714
0.00338869
0.00472304
0.00641522
0.00849082
0.0109573
0.013804
0.0170054
0.0205242
0.0243162
0.0283327
0.032524
0.0368408
0.0412359
0.0456655
0.0500892
0.0544714
0.0587809
0.0629913
0.0670809
0.0710321
0.0748308
0.0784664
0.081932
0.0852233
0.0883384
0.0912777
0.0940432
0.0966375
0.0990642
0.101328
0.103434
0.105386
0.107189
0.108845
0.110356
0.111722
0.112941
0.114008
0.114912
0.115639
0.116168
0.11646
0.116487
0.116187
0.115476
0.114259
0.105898
0.0971349
0.0882289
0.0793627
0.0706683
0.0622444
0.0541673
0.046498
0.0392874
0.03258
0.0264393
0.020876
0.0159645
0.0117382
0.00822489
0.00544847
0.00339252
0.00198294
0.00109231
0.000571282
0.000285963
0.000138299
6.5266e-05
3.01564e-05
1.36766e-05
6.10029e-06
2.68066e-06
1.16236e-06
4.98064e-07
2.11192e-07
8.87228e-08
3.69578e-08
1.52623e-08
6.2323e-09
2.49434e-09
9.52911e-10
3.1826e-10
5.58241e-11
3.81691e-07
1.6682e-06
3.83276e-06
7.46299e-06
1.35222e-05
2.35709e-05
4.01022e-05
6.70353e-05
0.000110416
0.000179367
0.000287307
0.000453373
0.000703865
0.00107333
0.00160469
0.0023477
0.00335519
0.0046774
0.0063553
0.00841498
0.0108646
0.0136943
0.0168793
0.0203832
0.024162
0.0281678
0.0323511
0.0366629
0.0410561
0.0454867
0.0499144
0.0543033
0.0586219
0.0628435
0.066946
0.0709115
0.0747256
0.0783772
0.0818591
0.0851665
0.0882976
0.0912523
0.0940319
0.096639
0.0990777
0.101352
0.103467
0.105427
0.107235
0.108894
0.110406
0.11177
0.112984
0.114042
0.114933
0.115642
0.116145
0.116403
0.116392
0.116042
0.11528
0.114027
0.105152
0.0960995
0.0870337
0.0780857
0.0693605
0.0609418
0.0528973
0.045283
0.0381481
0.031538
0.025527
0.0200732
0.015259
0.0111353
0.00774297
0.00508958
0.00314559
0.00182688
0.00100152
0.00052217
0.000260949
0.000126165
5.95588e-05
2.75391e-05
1.25016e-05
5.58231e-06
2.45594e-06
1.0662e-06
4.57404e-07
1.94173e-07
8.166e-08
3.40487e-08
1.40727e-08
5.75045e-09
2.30263e-09
8.79923e-10
2.93903e-10
5.15545e-11
3.78751e-07
1.65531e-06
3.80292e-06
7.40421e-06
1.3414e-05
2.33789e-05
3.97686e-05
6.64651e-05
0.000109455
0.000177772
0.000284703
0.000449198
0.000697316
0.00106331
0.00158977
0.00232617
0.00332516
0.00463699
0.00630286
0.00834933
0.0107851
0.0136011
0.0167731
0.0202652
0.024034
0.0280319
0.0322097
0.0365184
0.040911
0.0453435
0.0497755
0.0541709
0.0584979
0.0627296
0.0668437
0.0708217
0.074649
0.0783144
0.0818101
0.0851313
0.0882759
0.0912432
0.0940343
0.0966523
0.0991007
0.101384
0.103505
0.10547
0.107282
0.108942
0.110453
0.111814
0.11302
0.114066
0.11494
0.115622
0.116086
0.116291
0.116199
0.11573
0.114783
0.113251
0.10421
0.0950362
0.0858916
0.0769025
0.0681671
0.0597634
0.0517546
0.0441936
0.0371259
0.0305929
0.0246509
0.0192977
0.0145967
0.0105912
0.00731731
0.00477761
0.00293304
0.00169314
0.000923736
0.000479979
0.000239345
0.000115624
5.45713e-05
2.52382e-05
1.14629e-05
5.12219e-06
2.25543e-06
9.80071e-07
4.20865e-07
1.78835e-07
7.52798e-08
3.14154e-08
1.2994e-08
5.31293e-09
2.12835e-09
8.13515e-10
2.7173e-10
4.76669e-11
3.75907e-07
1.64286e-06
3.77416e-06
7.34775e-06
1.33106e-05
2.31961e-05
3.94531e-05
6.59292e-05
0.000108559
0.000176296
0.000282312
0.000445399
0.000691407
0.00105434
0.00157653
0.00230721
0.00329893
0.00460195
0.00625772
0.00829321
0.0107177
0.0135226
0.0166842
0.0201672
0.0239284
0.0279206
0.0320946
0.0364017
0.0407948
0.0452299
0.0496663
0.0540679
0.0584028
0.0626436
0.0667678
0.0707569
0.0745957
0.0782728
0.0817804
0.0851133
0.0882687
0.0912462
0.094047
0.0966737
0.0991298
0.101419
0.103546
0.105515
0.107328
0.108989
0.110498
0.111854
0.113054
0.114089
0.114948
0.11561
0.116043
0.116209
0.11606
0.115507
0.114432
0.112401
0.103247
0.0940016
0.0848196
0.0758206
0.0670987
0.0587283
0.0507697
0.0432726
0.0362802
0.0298315
0.023977
0.0187171
0.0141117
0.0101914
0.00698232
0.00451837
0.00275365
0.0015801
0.000858024
0.000444328
0.000221063
0.000106683
5.03271e-05
2.32731e-05
1.05722e-05
4.72596e-06
2.08206e-06
9.053e-07
3.89025e-07
1.65423e-07
6.96835e-08
2.90993e-08
1.20432e-08
4.92651e-09
1.97419e-09
7.54712e-10
2.52088e-10
4.42199e-11
3.73263e-07
1.63129e-06
3.74748e-06
7.29549e-06
1.32151e-05
2.30279e-05
3.91636e-05
6.54397e-05
0.000107744
0.000174961
0.000280162
0.000442002
0.000686155
0.00104642
0.00156492
0.0022907
0.00327623
0.00457184
0.0062192
0.00824564
0.0106609
0.0134569
0.0166104
0.0200863
0.0238419
0.02783
0.0320017
0.0363082
0.0407026
0.0451405
0.0495815
0.0539889
0.0583309
0.0625799
0.0667131
0.0707116
0.0745603
0.0782474
0.081765
0.0851073
0.0882717
0.0912576
0.0940662
0.0966999
0.0991619
0.101456
0.103587
0.105558
0.107372
0.109033
0.11054
0.111893
0.113087
0.114115
0.114965
0.115616
0.116038
0.116193
0.116036
0.115487
0.114442
0.111472
0.102277
0.0930061
0.0838134
0.074818
0.0661125
0.05777
0.0498494
0.0423992
0.0354617
0.0290772
0.0232838
0.0181055
0.0135906
0.00977591
0.00668553
0.00430039
0.00260022
0.00148359
0.000802142
0.000414059
0.00020554
9.90836e-05
4.67139e-05
2.15967e-05
9.8108e-06
4.3865e-06
1.93318e-06
8.40954e-07
3.61566e-07
1.53835e-07
6.48398e-08
2.70916e-08
1.12178e-08
4.5907e-09
1.84012e-09
7.03539e-10
2.34996e-10
4.12171e-11
3.70878e-07
1.62086e-06
3.72346e-06
7.2485e-06
1.31294e-05
2.28774e-05
3.89053e-05
6.50044e-05
0.000107022
0.000173783
0.000278272
0.00043903
0.000681583
0.00103956
0.00155491
0.00227655
0.00325687
0.00454629
0.00618667
0.0082057
0.0106135
0.0134024
0.0165495
0.02002
0.0237714
0.0277568
0.0319272
0.0362339
0.0406299
0.0450709
0.0495161
0.053929
0.0582774
0.0625336
0.0666745
0.0706813
0.0745383
0.078234
0.0817595
0.0851096
0.0882814
0.0912742
0.0940889
0.0967279
0.0991944
0.101492
0.103625
0.105598
0.107413
0.109072
0.110578
0.111927
0.113117
0.11414
0.114984
0.115628
0.116043
0.116192
0.116032
0.115483
0.114445
0.110562
0.10136
0.0920939
0.0829149
0.0739408
0.0652662
0.0569641
0.049093
0.041692
0.0348042
0.0284657
0.0227106
0.0175917
0.0131468
0.00940786
0.00639669
0.0041079
0.00247287
0.00140179
0.000754806
0.000388492
0.000192448
9.26766e-05
4.36662e-05
2.01814e-05
9.16702e-06
4.09901e-06
1.80689e-06
7.86269e-07
3.38189e-07
1.43953e-07
6.07026e-08
2.53745e-08
1.05112e-08
4.30295e-09
1.72514e-09
6.59634e-10
2.20326e-10
3.86418e-11
3.68775e-07
1.61167e-06
3.70231e-06
7.20718e-06
1.30542e-05
2.27454e-05
3.86794e-05
6.46246e-05
0.000106394
0.000172761
0.000276639
0.00043647
0.00067766
0.0010337
0.00154639
0.00226454
0.00324053
0.00452482
0.00615948
0.00817246
0.0105742
0.0133575
0.0164996
0.019966
0.0237145
0.027698
0.0318678
0.0361752
0.040573
0.045017
0.0494663
0.0538841
0.0582381
0.0625006
0.0666482
0.0706618
0.0745259
0.0782284
0.0817606
0.0851171
0.0882948
0.091293
0.0941124
0.0967554
0.0992251
0.101525
0.10366
0.105633
0.107447
0.109106
0.110609
0.111955
0.113141
0.114159
0.114997
0.115635
0.116044
0.116189
0.116025
0.115476
0.114441
0.109745
0.100537
0.0912735
0.0821089
0.0731618
0.0645189
0.0562436
0.0483931
0.0410245
0.0341776
0.027891
0.0222003
0.0171457
0.0127672
0.00909638
0.00615318
0.00392797
0.00236177
0.00133436
0.000715015
0.000366971
0.000181457
8.73039e-05
4.11114e-05
1.89946e-05
8.62684e-06
3.85756e-06
1.7007e-06
7.40234e-07
3.18485e-07
1.35613e-07
5.72066e-08
2.39219e-08
9.91284e-09
4.05913e-09
1.62772e-09
6.22417e-10
2.07878e-10
3.64621e-11
3.66958e-07
1.60373e-06
3.68405e-06
7.17154e-06
1.29894e-05
2.2632e-05
3.84854e-05
6.42992e-05
0.000105857
0.000171889
0.00027525
0.0004343
0.000674344
0.00102875
0.00153923
0.0022545
0.00322691
0.00450698
0.00613698
0.00814507
0.010542
0.0133208
0.016459
0.0199224
0.0236687
0.0276511
0.0318208
0.0361291
0.0405289
0.0449757
0.0494286
0.0538507
0.0582096
0.0624774
0.0666306
0.07065
0.0745199
0.078228
0.0817656
0.0851271
0.0883095
0.0913117
0.0941347
0.0967806
0.0992524
0.101554
0.103689
0.105662
0.107475
0.109132
0.110632
0.111975
0.113157
0.11417
0.115002
0.115635
0.116038
0.116177
0.11601
0.11546
0.114429
0.109042
0.0998249
0.0905656
0.0814145
0.0724784
0.0638464
0.0555953
0.047781
0.0404512
0.0336476
0.0274083
0.0217683
0.0167684
0.0124471
0.00883512
0.00595054
0.00378016
0.00226066
0.00127699
0.00068282
0.000349209
0.000172332
8.2852e-05
3.89954e-05
1.80113e-05
8.17899e-06
3.65717e-06
1.61245e-06
7.01923e-07
3.02064e-07
1.28653e-07
5.42854e-08
2.27067e-08
9.41171e-09
3.85476e-09
1.54607e-09
5.91223e-10
1.97442e-10
3.46348e-11
3.65418e-07
1.597e-06
3.66859e-06
7.14138e-06
1.29346e-05
2.25362e-05
3.8322e-05
6.40254e-05
0.000105406
0.000171159
0.000274088
0.000432488
0.000671583
0.00102465
0.00153331
0.00224621
0.00321569
0.00449235
0.00611858
0.00812277
0.0105159
0.0132912
0.0164265
0.0198876
0.0236324
0.0276141
0.031784
0.0360933
0.0404948
0.0449441
0.0494002
0.0538261
0.0581891
0.0624613
0.0666192
0.0706434
0.0745178
0.0782303
0.0817722
0.0851376
0.0883235
0.0913288
0.0941542
0.096802
0.0992751
0.101577
0.103712
0.105684
0.107496
0.10915
0.110647
0.111986
0.113164
0.114171
0.114998
0.115625
0.116022
0.116158
0.115988
0.115437
0.114412
0.108444
0.0992149
0.089956
0.0808064
0.0718833
0.0632745
0.0550498
0.0472658
0.0399699
0.0332034
0.0270042
0.021407
0.0164529
0.01218
0.00861796
0.00578313
0.00365927
0.00217937
0.00122577
0.000655834
0.000335256
0.000165058
7.92396e-05
3.727e-05
1.72078e-05
7.81212e-06
3.49266e-06
1.53987e-06
6.70363e-07
2.88517e-07
1.22903e-07
5.18698e-08
2.17007e-08
8.99658e-09
3.68533e-09
1.47839e-09
5.65357e-10
1.88809e-10
3.31211e-11
3.64141e-07
1.59142e-06
3.65577e-06
7.1164e-06
1.28892e-05
2.2457e-05
3.81869e-05
6.37995e-05
0.000105034
0.000170558
0.000273134
0.000431005
0.000669326
0.00102131
0.00152849
0.00223948
0.00320661
0.00448054
0.00610377
0.00810486
0.010495
0.0132676
0.0164006
0.01986
0.0236038
0.0275852
0.0317553
0.0360656
0.0404688
0.0449203
0.049379
0.0538079
0.0581744
0.0624502
0.0666117
0.0706395
0.0745176
0.0782336
0.0817786
0.085147
0.0883354
0.0913428
0.0941699
0.0968187
0.0992924
0.101594
0.103729
0.105699
0.107509
0.10916
0.110654
0.111989
0.113162
0.114164
0.114985
0.115607
0.115999
0.11613
0.115958
0.115409
0.114393
0.107951
0.0987051
0.0894409
0.0802988
0.0713894
0.0627991
0.0545969
0.0468387
0.0395714
0.032836
0.0266703
0.0211086
0.0161927
0.01196
0.00843953
0.00564613
0.00356096
0.0021139
0.00118518
0.00063204
0.000323279
0.000159296
7.63974e-05
3.58864e-05
1.65565e-05
7.51378e-06
3.3587e-06
1.48069e-06
6.44604e-07
2.7745e-07
1.18203e-07
4.9894e-08
2.08777e-08
8.65693e-09
3.54663e-09
1.42317e-09
5.44239e-10
1.81787e-10
3.18881e-11
3.63109e-07
1.58691e-06
3.64542e-06
7.09624e-06
1.28527e-05
2.23931e-05
3.80782e-05
6.36179e-05
0.000104736
0.000170077
0.000272371
0.000429819
0.000667525
0.00101864
0.00152465
0.00223414
0.00319942
0.0044712
0.00609209
0.00809079
0.0104786
0.0132492
0.0163805
0.0198387
0.0235817
0.0275629
0.0317334
0.0360446
0.0404491
0.0449024
0.0493633
0.0537946
0.0581637
0.0624423
0.0666066
0.0706372
0.0745179
0.0782364
0.0817838
0.0851542
0.0883443
0.091353
0.094181
0.0968302
0.0993038
0.101605
0.103738
0.105707
0.107514
0.109163
0.110653
0.111984
0.113151
0.114149
0.114965
0.115581
0.115969
0.116097
0.115923
0.115377
0.114372
0.107551
0.0982916
0.0890226
0.079885
0.0709864
0.0624115
0.0542281
0.0464914
0.0392477
0.032538
0.0263998
0.0208672
0.0159824
0.0117823
0.00829573
0.00553602
0.00348222
0.00206174
0.00115311
0.000613461
0.00031287
0.000153984
7.39693e-05
3.47796e-05
1.60378e-05
7.27427e-06
3.25055e-06
1.43289e-06
6.23801e-07
2.68526e-07
1.14417e-07
4.83048e-08
2.02163e-08
8.38491e-09
3.43552e-09
1.37918e-09
5.27428e-10
1.76206e-10
3.0908e-11
3.62306e-07
1.58341e-06
3.63737e-06
7.08056e-06
1.28243e-05
2.23436e-05
3.79939e-05
6.34771e-05
0.000104505
0.000169704
0.000271781
0.000428903
0.000666137
0.00101659
0.00152171
0.00223004
0.00319391
0.00446406
0.00608318
0.00808007
0.0104662
0.0132352
0.0163653
0.0198226
0.0235651
0.0275462
0.0317171
0.036029
0.0404346
0.0448892
0.0493517
0.0537849
0.0581559
0.0624365
0.0666028
0.0706352
0.0745178
0.078238
0.0817869
0.0851586
0.0883497
0.091359
0.0941873
0.0968364
0.0993093
0.10161
0.103741
0.105708
0.107513
0.109158
0.110644
0.111971
0.113134
0.114127
0.114938
0.115549
0.115933
0.116058
0.115886
0.115344
0.114353
0.107236
0.0979598
0.0886878
0.0795546
0.0706655
0.0621038
0.0539361
0.0462171
0.0389927
0.0323037
0.0261874
0.020678
0.0158178
0.0116436
0.00818367
0.00545043
0.00342121
0.00202149
0.00112851
0.00059942
0.000305275
0.000150044
7.19677e-05
3.38239e-05
1.56145e-05
7.08551e-06
3.16651e-06
1.3958e-06
6.07661e-07
2.61605e-07
1.11486e-07
4.7078e-08
1.97064e-08
8.17707e-09
3.35079e-09
1.3457e-09
5.14627e-10
1.71961e-10
3.01626e-11
3.61718e-07
1.58084e-06
3.63147e-06
7.06909e-06
1.28035e-05
2.23073e-05
3.79322e-05
6.33742e-05
0.000104336
0.000169432
0.00027135
0.000428236
0.000665126
0.0010151
0.00151956
0.00222706
0.00318992
0.00445889
0.00607674
0.00807233
0.0104572
0.0132252
0.0163544
0.0198111
0.0235533
0.0275343
0.0317055
0.0360179
0.0404243
0.0448799
0.0493436
0.053778
0.0581503
0.0624321
0.0665996
0.0706332
0.0745169
0.0782381
0.0817878
0.0851601
0.0883516
0.0913611
0.0941892
0.0968379
0.09931
0.101609
0.103739
0.105703
0.107506
0.109147
0.11063
0.111953
0.113111
0.114099
0.114905
0.115513
0.115893
0.116018
0.115846
0.115312
0.114336
0.107002
0.0977105
0.088434
0.0793036
0.0704221
0.0618711
0.0537161
0.0460112
0.038802
0.0321291
0.0260296
0.0205377
0.015696
0.0115412
0.0081012
0.00538764
0.00337659
0.00199212
0.00111059
0.000589211
0.000299785
0.000147227
7.05775e-05
3.31551e-05
1.52968e-05
6.94433e-06
3.1049e-06
1.36918e-06
5.96215e-07
2.56736e-07
1.09421e-07
4.62197e-08
1.93484e-08
8.03076e-09
3.29096e-09
1.322e-09
5.05554e-10
1.68953e-10
2.96337e-11
3.61334e-07
1.57916e-06
3.62762e-06
7.06159e-06
1.27899e-05
2.22836e-05
3.7892e-05
6.33071e-05
0.000104226
0.000169255
0.00027107
0.000427802
0.000664469
0.00101413
0.00151818
0.00222513
0.00318733
0.00445555
0.00607257
0.00806733
0.0104514
0.0132187
0.0163473
0.0198036
0.0235457
0.0275267
0.031698
0.0360108
0.0404177
0.0448739
0.0493383
0.0537734
0.0581465
0.062429
0.0665972
0.0706313
0.0745154
0.0782369
0.081787
0.0851595
0.088351
0.0913604
0.0941881
0.096836
0.0993072
0.101605
0.103733
0.105696
0.107495
0.109134
0.110613
0.111932
0.113087
0.114071
0.114873
0.115476
0.115854
0.115978
0.115809
0.115282
0.114324
0.106848
0.0975407
0.088259
0.0791302
0.0702543
0.0617114
0.0535661
0.0458716
0.0386734
0.0320119
0.0259242
0.0204444
0.0156153
0.0114737
0.00804701
0.00534658
0.00334757
0.0019731
0.001099
0.000582594
0.000296226
0.000145403
6.96836e-05
3.27407e-05
1.50999e-05
6.85414e-06
3.06367e-06
1.35151e-06
5.88566e-07
2.53546e-07
1.0807e-07
4.56628e-08
1.91163e-08
7.93643e-09
3.25241e-09
1.3068e-09
4.99733e-10
1.67028e-10
2.9295e-11
3.61147e-07
1.57835e-06
3.62575e-06
7.05795e-06
1.27833e-05
2.22722e-05
3.78727e-05
6.3275e-05
0.000104174
0.00016917
0.000270937
0.000427596
0.000664158
0.00101367
0.00151752
0.00222422
0.00318611
0.00445397
0.0060706
0.00806497
0.0104487
0.0132156
0.016344
0.0198001
0.023542
0.0275231
0.0316945
0.0360074
0.0404145
0.044871
0.0493357
0.0537712
0.0581446
0.0624274
0.0665958
0.07063
0.0745141
0.0782356
0.0817856
0.085158
0.0883494
0.0913585
0.0941858
0.0968332
0.0993036
0.1016
0.103727
0.105688
0.107486
0.109123
0.1106
0.111916
0.113068
0.114049
0.114848
0.115449
0.115824
0.115947
0.11578
0.11526
0.114317
0.106773
0.0974512
0.0881652
0.0790373
0.0701653
0.0616276
0.0534882
0.0458
0.0386081
0.031953
0.0258717
0.0203985
0.015576
0.011441
0.00802099
0.00532702
0.00333386
0.0019642
0.00109362
0.000579536
0.00029458
0.000144559
6.92702e-05
3.25513e-05
1.50103e-05
6.81388e-06
3.04517e-06
1.34334e-06
5.84927e-07
2.52002e-07
1.0741e-07
4.53902e-08
1.90026e-08
7.89023e-09
3.23353e-09
1.29936e-09
4.96885e-10
1.66085e-10
2.91291e-11
3.61147e-07
1.57835e-06
3.62575e-06
7.05797e-06
1.27833e-05
2.22722e-05
3.78727e-05
6.32751e-05
0.000104174
0.000169171
0.000270937
0.000427597
0.000664159
0.00101367
0.00151752
0.00222422
0.00318611
0.00445397
0.00607061
0.00806498
0.0104487
0.0132156
0.016344
0.0198001
0.0235421
0.0275231
0.0316945
0.0360074
0.0404145
0.044871
0.0493357
0.0537712
0.0581446
0.0624274
0.0665958
0.07063
0.0745141
0.0782356
0.0817856
0.085158
0.0883494
0.0913585
0.0941858
0.0968332
0.0993036
0.1016
0.103727
0.105688
0.107486
0.109123
0.1106
0.111916
0.113068
0.114049
0.114848
0.115449
0.115824
0.115947
0.11578
0.11526
0.114317
0.106773
0.0974513
0.0881653
0.0790374
0.0701653
0.0616277
0.0534882
0.0458
0.0386082
0.031953
0.0258718
0.0203985
0.015576
0.011441
0.00802102
0.00532704
0.00333388
0.00196421
0.00109363
0.000579539
0.000294582
0.00014456
6.92708e-05
3.25511e-05
1.50103e-05
6.81377e-06
3.04512e-06
1.3433e-06
5.84912e-07
2.51993e-07
1.07407e-07
4.53884e-08
1.90018e-08
7.88985e-09
3.23336e-09
1.29928e-09
4.96852e-10
1.66072e-10
2.91267e-11
3.61336e-07
1.57917e-06
3.62764e-06
7.06162e-06
1.27899e-05
2.22837e-05
3.78922e-05
6.33074e-05
0.000104227
0.000169256
0.000271071
0.000427804
0.000664472
0.00101413
0.00151818
0.00222514
0.00318734
0.00445556
0.00607259
0.00806736
0.0104515
0.0132187
0.0163474
0.0198037
0.0235457
0.0275268
0.0316981
0.0360108
0.0404177
0.044874
0.0493383
0.0537735
0.0581465
0.0624291
0.0665972
0.0706313
0.0745154
0.078237
0.081787
0.0851595
0.088351
0.0913604
0.0941881
0.0968361
0.0993072
0.101605
0.103733
0.105696
0.107495
0.109134
0.110614
0.111932
0.113087
0.114071
0.114873
0.115476
0.115854
0.115978
0.115809
0.115282
0.114324
0.106848
0.0975408
0.0882592
0.0791303
0.0702545
0.0617116
0.0535662
0.0458718
0.0386736
0.032012
0.0259243
0.0204445
0.0156154
0.0114738
0.00804709
0.00534664
0.00334761
0.00197312
0.00109902
0.000582604
0.000296231
0.000145406
6.96851e-05
3.27405e-05
1.50999e-05
6.85392e-06
3.06358e-06
1.35144e-06
5.88533e-07
2.53527e-07
1.08063e-07
4.56588e-08
1.91145e-08
7.93552e-09
3.252e-09
1.3066e-09
4.99648e-10
1.66994e-10
2.92885e-11
3.61721e-07
1.58085e-06
3.6315e-06
7.06914e-06
1.28036e-05
2.23075e-05
3.79325e-05
6.33747e-05
0.000104337
0.000169433
0.000271352
0.000428239
0.00066513
0.0010151
0.00151957
0.00222707
0.00318993
0.00445892
0.00607677
0.00807237
0.0104573
0.0132252
0.0163544
0.0198111
0.0235533
0.0275344
0.0317056
0.036018
0.0404243
0.04488
0.0493436
0.053778
0.0581503
0.0624322
0.0665997
0.0706333
0.0745169
0.0782381
0.0817878
0.0851601
0.0883516
0.0913612
0.0941893
0.0968379
0.09931
0.101609
0.103739
0.105703
0.107506
0.109147
0.11063
0.111953
0.113111
0.114099
0.114905
0.115513
0.115893
0.116018
0.115846
0.115312
0.114336
0.107003
0.0977108
0.0884343
0.0793039
0.0704224
0.0618713
0.0537164
0.0460115
0.0388023
0.0321293
0.0260298
0.0205379
0.0156962
0.0115414
0.00810134
0.00538774
0.00337667
0.00199217
0.00111062
0.000589229
0.000299795
0.000147232
7.05797e-05
3.3156e-05
1.52971e-05
6.9443e-06
3.10486e-06
1.36912e-06
5.9618e-07
2.56714e-07
1.09409e-07
4.62136e-08
1.93455e-08
8.02936e-09
3.29032e-09
1.32169e-09
5.05427e-10
1.68905e-10
2.96243e-11
3.6231e-07
1.58342e-06
3.63741e-06
7.08064e-06
1.28244e-05
2.23438e-05
3.79943e-05
6.34778e-05
0.000104506
0.000169706
0.000271783
0.000428907
0.000666143
0.0010166
0.00152172
0.00223006
0.00319394
0.0044641
0.00608322
0.00808012
0.0104662
0.0132353
0.0163654
0.0198227
0.0235652
0.0275463
0.0317172
0.0360291
0.0404347
0.0448893
0.0493518
0.053785
0.058156
0.0624366
0.0666028
0.0706353
0.0745179
0.0782381
0.081787
0.0851586
0.0883497
0.0913591
0.0941873
0.0968364
0.0993094
0.10161
0.103741
0.105708
0.107513
0.109158
0.110644
0.111971
0.113134
0.114127
0.114938
0.115549
0.115933
0.116058
0.115886
0.115344
0.114353
0.107236
0.0979602
0.0886882
0.079555
0.0706659
0.0621042
0.0539365
0.0462175
0.0389931
0.0323041
0.0261878
0.0206783
0.015818
0.0116438
0.00818386
0.00545058
0.00342132
0.00202156
0.00112855
0.000599445
0.000305289
0.000150051
7.19709e-05
3.38252e-05
1.56151e-05
7.08566e-06
3.16652e-06
1.3958e-06
6.07652e-07
2.61598e-07
1.1148e-07
4.70747e-08
1.97045e-08
8.17606e-09
3.3503e-09
1.34542e-09
5.14513e-10
1.71916e-10
3.01534e-11
3.63114e-07
1.58693e-06
3.64547e-06
7.09633e-06
1.28528e-05
2.23934e-05
3.80787e-05
6.36187e-05
0.000104737
0.000170079
0.000272374
0.000429824
0.000667533
0.00101865
0.00152467
0.00223416
0.00319945
0.00447124
0.00609214
0.00809085
0.0104787
0.0132493
0.0163806
0.0198388
0.0235818
0.027563
0.0317336
0.0360447
0.0404492
0.0449025
0.0493634
0.0537948
0.0581638
0.0624424
0.0666067
0.0706373
0.074518
0.0782365
0.0817839
0.0851543
0.0883444
0.0913531
0.0941811
0.0968303
0.0993038
0.101605
0.103738
0.105707
0.107514
0.109163
0.110653
0.111984
0.113151
0.114149
0.114965
0.115581
0.115969
0.116097
0.115923
0.115377
0.114372
0.107552
0.0982921
0.0890231
0.0798855
0.0709869
0.0624121
0.0542287
0.0464919
0.0392483
0.0325385
0.0264002
0.0208676
0.0159827
0.0117827
0.00829599
0.00553621
0.00348236
0.00206184
0.00115316
0.000613493
0.000312887
0.000153993
7.39735e-05
3.47815e-05
1.60387e-05
7.2746e-06
3.25074e-06
1.43296e-06
6.23831e-07
2.68536e-07
1.1442e-07
4.83052e-08
2.02162e-08
8.3846e-09
3.43536e-09
1.37903e-09
5.27363e-10
1.76178e-10
3.09017e-11
3.64146e-07
1.59145e-06
3.65583e-06
7.11651e-06
1.28894e-05
2.24573e-05
3.81875e-05
6.38005e-05
0.000105036
0.000170561
0.000273138
0.000431011
0.000669336
0.00102132
0.00152851
0.00223951
0.00320665
0.00448059
0.00610383
0.00810494
0.0104951
0.0132677
0.0164007
0.0198602
0.0236039
0.0275853
0.0317555
0.0360658
0.0404689
0.0449204
0.0493791
0.0538081
0.0581745
0.0624503
0.0666118
0.0706396
0.0745177
0.0782337
0.0817787
0.0851471
0.0883355
0.0913429
0.09417
0.0968188
0.0992924
0.101595
0.103729
0.105699
0.107509
0.10916
0.110654
0.111989
0.113162
0.114164
0.114985
0.115607
0.115999
0.11613
0.115958
0.115409
0.114393
0.107951
0.0987056
0.0894415
0.0802995
0.0713901
0.0627998
0.0545977
0.0468394
0.0395721
0.0328367
0.0266709
0.0211092
0.0161932
0.0119604
0.00843985
0.00564638
0.00356113
0.00211402
0.00118525
0.000632081
0.000323301
0.000159306
7.64024e-05
3.58888e-05
1.65576e-05
7.51435e-06
3.35895e-06
1.4808e-06
6.44647e-07
2.77467e-07
1.1821e-07
4.98964e-08
2.08785e-08
8.65717e-09
3.5467e-09
1.42316e-09
5.44226e-10
1.81779e-10
3.18848e-11
3.65425e-07
1.59703e-06
3.66865e-06
7.14151e-06
1.29348e-05
2.25366e-05
3.83226e-05
6.40265e-05
0.000105408
0.000171162
0.000274092
0.000432496
0.000671594
0.00102467
0.00153333
0.00224624
0.00321574
0.00449241
0.00611865
0.00812285
0.010516
0.0132913
0.0164266
0.0198877
0.0236325
0.0276142
0.0317841
0.0360934
0.040495
0.0449443
0.0494004
0.0538262
0.0581893
0.0624615
0.0666193
0.0706435
0.0745179
0.0782304
0.0817723
0.0851377
0.0883236
0.0913289
0.0941543
0.0968021
0.0992752
0.101577
0.103712
0.105684
0.107496
0.10915
0.110647
0.111986
0.113164
0.114171
0.114998
0.115625
0.116022
0.116158
0.115988
0.115437
0.114412
0.108444
0.0992154
0.0899565
0.0808071
0.0718842
0.0632755
0.0550509
0.047267
0.039971
0.0332044
0.0270051
0.0214077
0.0164536
0.0121805
0.00861835
0.00578343
0.00365948
0.00217951
0.00122585
0.000655881
0.00033528
0.00016507
7.9246e-05
3.72731e-05
1.72092e-05
7.81278e-06
3.49296e-06
1.54e-06
6.70418e-07
2.8854e-07
1.22913e-07
5.18735e-08
2.17022e-08
8.99713e-09
3.68554e-09
1.47846e-09
5.65379e-10
1.88815e-10
3.31201e-11
3.66965e-07
1.60376e-06
3.68412e-06
7.17169e-06
1.29896e-05
2.26324e-05
3.84862e-05
6.43005e-05
0.000105859
0.000171893
0.000275255
0.000434308
0.000674356
0.00102877
0.00153926
0.00225454
0.00322695
0.00450704
0.00613705
0.00814516
0.0105421
0.0133209
0.0164592
0.0199226
0.0236689
0.0276513
0.031821
0.0361293
0.040529
0.0449758
0.0494287
0.0538509
0.0582098
0.0624776
0.0666308
0.0706502
0.0745201
0.0782281
0.0817657
0.0851272
0.0883096
0.0913118
0.0941348
0.0967807
0.0992525
0.101554
0.103689
0.105662
0.107476
0.109132
0.110632
0.111975
0.113157
0.11417
0.115002
0.115635
0.116038
0.116177
0.11601
0.11546
0.114429
0.109042
0.0998252
0.0905659
0.0814154
0.0724798
0.0638482
0.0555974
0.0477833
0.0404533
0.0336493
0.0274096
0.0217694
0.0167692
0.0124476
0.00883554
0.00595084
0.00378038
0.0022608
0.00127707
0.000682869
0.000349237
0.000172347
8.28593e-05
3.89989e-05
1.8013e-05
8.17975e-06
3.65751e-06
1.6126e-06
7.01988e-07
3.02091e-07
1.28664e-07
5.42902e-08
2.27086e-08
9.41248e-09
3.85506e-09
1.54618e-09
5.91264e-10