/*--------------------------------*- C++ -*----------------------------------*\
  =========                 |
  \\      /  F ield         | OpenFOAM: The Open Source CFD Toolbox
   \\    /   O peration     | Website:  https://openfoam.org
    \\  /    A nd           | Version:  8
     \\/     M anipulation  |
\*---------------------------------------------------------------------------*/
FoamFile
{
    version     2.0;
    format      ascii;
    class       volScalarField;
    location    "920/fluid";
    object      N2;
}
// * * * * * * * * * * * * * * * * * * * * * * * * * * * * * * * * * * * * * //

dimensions      [0 0 0 0 0 0 0];

internalField   nonuniform List<scalar> 
4000
(
2.30747e-06
1.0083e-05
2.31573e-05
4.50729e-05
8.16522e-05
0.000142371
0.000242466
0.000406095
0.000670904
0.00109436
0.00176203
0.00279739
0.00437196
0.00671257
0.0101016
0.0148645
0.0213414
0.0298449
0.0406132
0.0537745
0.0693328
0.0871757
0.107099
0.128837
0.152088
0.176536
0.201869
0.227788
0.254015
0.280295
0.306404
0.332143
0.357348
0.381881
0.405631
0.428512
0.450458
0.471424
0.491382
0.510321
0.528243
0.545159
0.56109
0.576063
0.590111
0.60327
0.615579
0.62708
0.637813
0.647821
0.657146
0.665827
0.673906
0.681419
0.688405
0.694898
0.700933
0.706465
0.711545
0.716405
0.720925
0.725133
0.728999
0.73271
0.73626
0.739655
0.742894
0.74598
0.748909
0.75168
0.754288
0.756729
0.758994
0.761064
0.76295
0.764626
0.766078
0.767285
0.768237
0.768933
0.7694
0.769684
0.769843
0.769926
0.769966
0.769984
0.769993
0.769997
0.769999
0.769999
0.77
0.77
0.77
0.77
0.77
0.77
0.77
0.77
0.77
0.77
2.30963e-06
1.00947e-05
2.31946e-05
4.51733e-05
8.18908e-05
0.000142879
0.000243444
0.000407791
0.000673501
0.00109768
0.00176488
0.00279654
0.00436048
0.00667761
0.0100223
0.0147111
0.0210765
0.0294275
0.0400056
0.0529492
0.0682775
0.085895
0.105614
0.127179
0.150297
0.174656
0.199944
0.22586
0.252118
0.278461
0.304657
0.330503
0.355828
0.38049
0.404374
0.42739
0.449469
0.470565
0.490647
0.509703
0.527734
0.544751
0.560773
0.575829
0.589952
0.603177
0.615546
0.627098
0.637878
0.647925
0.657284
0.665994
0.674097
0.681631
0.688633
0.69514
0.701185
0.706722
0.711806
0.716671
0.721194
0.7254
0.729272
0.732992
0.736551
0.739952
0.743198
0.746289
0.749222
0.751995
0.754604
0.757042
0.759301
0.76136
0.763229
0.764882
0.7663
0.767467
0.768373
0.769025
0.769454
0.769713
0.769857
0.769931
0.769968
0.769985
0.769993
0.769997
0.769999
0.769999
0.77
0.77
0.77
0.77
0.77
0.77
0.77
0.77
0.77
0.77
2.31481e-06
1.01187e-05
2.32555e-05
4.53059e-05
8.21544e-05
0.000143365
0.000244275
0.000409096
0.000675339
0.00109985
0.00176649
0.00279514
0.00435062
0.00664968
0.00996104
0.0145944
0.0208753
0.0291076
0.0395313
0.0522881
0.0674055
0.0848
0.104296
0.125654
0.14859
0.172801
0.197981
0.223829
0.250061
0.276416
0.302658
0.328581
0.354007
0.378789
0.402808
0.425969
0.448199
0.469446
0.48968
0.508883
0.527055
0.544206
0.560354
0.575526
0.589755
0.603078
0.615534
0.627164
0.638011
0.648119
0.65753
0.666285
0.674426
0.681992
0.689021
0.695549
0.701611
0.707154
0.712242
0.717107
0.721621
0.725825
0.729715
0.733449
0.737018
0.740425
0.743673
0.746763
0.749692
0.752456
0.755052
0.757471
0.759706
0.761736
0.763566
0.765172
0.766538
0.767649
0.7685
0.769105
0.7695
0.769736
0.769868
0.769936
0.76997
0.769986
0.769994
0.769997
0.769999
0.769999
0.77
0.77
0.77
0.77
0.77
0.77
0.77
0.77
0.77
0.77
2.31198e-06
1.01061e-05
2.32259e-05
4.5244e-05
8.20263e-05
0.000143091
0.000243677
0.000407783
0.000672513
0.00109397
0.00175482
0.0027731
0.00431116
0.00658216
0.00985034
0.0144207
0.0206146
0.0287338
0.039019
0.051616
0.0665586
0.0837718
0.103089
0.124278
0.147064
0.171149
0.19623
0.22201
0.248208
0.27456
0.300829
0.326807
0.352313
0.377196
0.401331
0.424621
0.446989
0.468379
0.488757
0.508104
0.526416
0.543702
0.559978
0.57527
0.589612
0.603039
0.615587
0.627301
0.638224
0.648397
0.657865
0.66667
0.674853
0.682454
0.689512
0.696063
0.702142
0.707684
0.712766
0.71763
0.722153
0.726353
0.730258
0.733999
0.737571
0.740978
0.744222
0.747303
0.750219
0.752966
0.755538
0.757928
0.760127
0.762123
0.763906
0.76546
0.76677
0.767826
0.768625
0.769186
0.769547
0.769762
0.769881
0.769942
0.769973
0.769988
0.769994
0.769997
0.769999
0.77
0.77
0.77
0.77
0.77
0.77
0.77
0.77
0.77
0.77
0.77
2.30251e-06
1.00643e-05
2.31276e-05
4.50463e-05
8.16511e-05
0.000142397
0.000242405
0.000405471
0.000668339
0.00108651
0.00174168
0.00275039
0.00427277
0.00651901
0.00974969
0.0142659
0.0203856
0.0284089
0.0385769
0.0510388
0.0658339
0.0828943
0.102061
0.123108
0.145767
0.169745
0.194742
0.220465
0.246631
0.272979
0.29927
0.325294
0.350867
0.375834
0.40007
0.423472
0.445961
0.467478
0.487986
0.507463
0.525904
0.543314
0.55971
0.575117
0.589563
0.603084
0.615721
0.627515
0.638508
0.648744
0.658266
0.667118
0.67534
0.682973
0.690057
0.696629
0.702715
0.708241
0.71333
0.718207
0.722729
0.726894
0.730829
0.734573
0.738144
0.741546
0.744781
0.747849
0.750747
0.753471
0.756016
0.758374
0.760532
0.762487
0.764222
0.765725
0.766983
0.767985
0.768736
0.769256
0.769588
0.769784
0.769892
0.769948
0.769975
0.769989
0.769995
0.769998
0.769999
0.77
0.77
0.77
0.77
0.77
0.77
0.77
0.77
0.77
0.77
0.77
2.28786e-06
9.99965e-06
2.29764e-05
4.47441e-05
8.10847e-05
0.000141369
0.000240572
0.000402246
0.000662734
0.0010769
0.00172546
0.00272351
0.00422924
0.00645032
0.00964449
0.01411
0.0201629
0.0281023
0.0381706
0.0505202
0.065195
0.0821324
0.101179
0.122115
0.144674
0.168569
0.193503
0.219183
0.245328
0.271677
0.29799
0.324055
0.349687
0.374729
0.399052
0.422553
0.445147
0.466775
0.487396
0.506987
0.525538
0.543057
0.55956
0.575066
0.589604
0.603212
0.615928
0.627792
0.638848
0.649138
0.658707
0.667598
0.675851
0.683509
0.690612
0.697192
0.703291
0.708816
0.713922
0.718801
0.723318
0.727445
0.73138
0.735127
0.738695
0.74209
0.745314
0.748366
0.751244
0.753945
0.756462
0.758789
0.760909
0.762824
0.764512
0.765965
0.767173
0.768127
0.768834
0.769318
0.769624
0.769804
0.769902
0.769952
0.769978
0.76999
0.769995
0.769998
0.769999
0.77
0.77
0.77
0.77
0.77
0.77
0.77
0.77
0.77
0.77
0.77
2.27101e-06
9.92562e-06
2.28045e-05
4.44041e-05
8.04561e-05
0.000140246
0.000238608
0.000398861
0.000656977
0.00106724
0.0017095
0.00269762
0.00418809
0.00638649
0.00954819
0.0139692
0.0199639
0.0278312
0.0378149
0.05007
0.0646449
0.0814816
0.100432
0.121278
0.14376
0.167592
0.19248
0.21813
0.244265
0.270621
0.296958
0.323064
0.348751
0.37386
0.398261
0.421847
0.444534
0.466259
0.486978
0.506669
0.52532
0.542934
0.559524
0.575113
0.58973
0.603411
0.616192
0.628115
0.639223
0.649559
0.659166
0.668087
0.676364
0.684038
0.691148
0.697735
0.703837
0.709313
0.714545
0.719395
0.723891
0.727985
0.731908
0.735647
0.739207
0.742592
0.745802
0.748838
0.751695
0.75437
0.756857
0.759149
0.761223
0.7631
0.764755
0.766172
0.767338
0.76825
0.768919
0.769372
0.769656
0.76982
0.76991
0.769957
0.76998
0.769991
0.769996
0.769998
0.769999
0.77
0.77
0.77
0.77
0.77
0.77
0.77
0.77
0.77
0.77
0.77
2.25355e-06
9.84903e-06
2.26272e-05
4.40549e-05
7.98135e-05
0.000139105
0.000236626
0.000395473
0.00065127
0.00105777
0.00169403
0.00267282
0.00414919
0.00632695
0.00945957
0.0138413
0.0197856
0.0275914
0.0375037
0.0496805
0.0641737
0.0809292
0.0998022
0.120579
0.143003
0.166788
0.191643
0.217276
0.243408
0.269776
0.29614
0.322285
0.348023
0.373193
0.397663
0.421325
0.444092
0.465899
0.486702
0.506476
0.52521
0.542904
0.559571
0.575232
0.589916
0.603657
0.616493
0.628465
0.639616
0.649988
0.659625
0.668572
0.676869
0.68456
0.691685
0.698283
0.704364
0.709835
0.715072
0.719918
0.724404
0.728481
0.732394
0.736123
0.739674
0.743047
0.746244
0.749263
0.7521
0.754752
0.757213
0.759476
0.761525
0.763366
0.764982
0.766359
0.767484
0.768357
0.768992
0.769418
0.769682
0.769835
0.769918
0.76996
0.769981
0.769991
0.769996
0.769998
0.769999
0.77
0.77
0.77
0.77
0.77
0.77
0.77
0.77
0.77
0.77
0.77
2.23665e-06
9.77503e-06
2.24564e-05
4.37195e-05
7.91991e-05
0.000138019
0.000234751
0.00039229
0.000645948
0.00104901
0.00167984
0.00265027
0.00411411
0.0062737
0.00938097
0.0137288
0.01963
0.0273835
0.037236
0.0493478
0.063774
0.080464
0.099276
0.12
0.142379
0.166131
0.190964
0.216589
0.242724
0.269109
0.2955
0.321683
0.347468
0.372694
0.397225
0.420954
0.443791
0.465671
0.486547
0.506393
0.525195
0.542954
0.559683
0.575403
0.590142
0.603932
0.616813
0.628824
0.640008
0.650408
0.660068
0.669032
0.677343
0.685042
0.692169
0.698763
0.704823
0.71029
0.715523
0.720362
0.72484
0.728913
0.732822
0.736546
0.740087
0.743448
0.746629
0.749629
0.752444
0.755072
0.757505
0.759737
0.761756
0.763565
0.765149
0.766496
0.767599
0.768446
0.769053
0.769457
0.769705
0.769847
0.769924
0.769963
0.769983
0.769992
0.769996
0.769998
0.769999
0.77
0.77
0.77
0.77
0.77
0.77
0.77
0.77
0.77
0.77
0.77
2.22094e-06
9.70631e-06
2.22979e-05
4.34091e-05
7.86319e-05
0.00013702
0.000233032
0.000389384
0.000641109
0.00104108
0.00166707
0.0026301
0.00408293
0.0062267
0.00931206
0.0136309
0.0194954
0.027205
0.0370077
0.049066
0.0634378
0.0800753
0.0988394
0.119522
0.141868
0.165597
0.190418
0.21604
0.242184
0.268586
0.295005
0.321224
0.347053
0.372328
0.396913
0.420699
0.443596
0.465536
0.486474
0.50638
0.52524
0.543055
0.559837
0.575605
0.590388
0.604219
0.617135
0.629176
0.640386
0.650808
0.660485
0.669462
0.677781
0.685485
0.692613
0.699206
0.705249
0.710704
0.715929
0.72076
0.725228
0.729296
0.733204
0.736923
0.740458
0.743811
0.746981
0.749967
0.752766
0.755375
0.757788
0.759997
0.761994
0.763775
0.765327
0.766639
0.767701
0.768521
0.769106
0.76949
0.769724
0.769858
0.769929
0.769966
0.769984
0.769993
0.769997
0.769998
0.769999
0.77
0.77
0.77
0.77
0.77
0.77
0.77
0.77
0.77
0.77
0.77
2.20678e-06
9.64438e-06
2.21553e-05
4.31301e-05
7.81232e-05
0.000136127
0.000231499
0.000386799
0.000636823
0.00103409
0.00165586
0.00261246
0.00405581
0.00618601
0.0092527
0.013547
0.0193806
0.0270536
0.0368151
0.0488296
0.0631574
0.0797531
0.0984798
0.119131
0.141453
0.165167
0.189981
0.215605
0.24176
0.268181
0.294627
0.32088
0.346748
0.372067
0.396701
0.420537
0.443486
0.465478
0.486467
0.506422
0.52533
0.543191
0.560015
0.575823
0.590642
0.604504
0.617447
0.629513
0.640742
0.65118
0.660869
0.669855
0.67818
0.685886
0.693015
0.699605
0.705638
0.711085
0.716299
0.721116
0.725567
0.729635
0.733538
0.737249
0.740775
0.744117
0.747274
0.750245
0.753026
0.755618
0.758013
0.760207
0.76219
0.763951
0.765479
0.766765
0.7678
0.768587
0.769149
0.769518
0.76974
0.769866
0.769934
0.769968
0.769985
0.769993
0.769997
0.769999
0.769999
0.77
0.77
0.77
0.77
0.77
0.77
0.77
0.77
0.77
0.77
0.77
2.1943e-06
9.58982e-06
2.20297e-05
4.28848e-05
7.76766e-05
0.000135344
0.000230158
0.000384546
0.000633096
0.00102802
0.00164617
0.00259728
0.00403254
0.00615124
0.0092022
0.0134759
0.0192839
0.0269265
0.0366542
0.0486332
0.0629256
0.0794883
0.0981859
0.118814
0.141119
0.164823
0.189634
0.215264
0.241431
0.267871
0.294343
0.320626
0.346529
0.371886
0.396561
0.42044
0.443433
0.465469
0.4865
0.506497
0.525445
0.543344
0.560203
0.576042
0.590889
0.604777
0.617742
0.629825
0.641069
0.651518
0.661216
0.670207
0.678535
0.686241
0.693365
0.699947
0.705972
0.711412
0.716618
0.721425
0.725865
0.729932
0.733831
0.737538
0.741057
0.744387
0.747532
0.750493
0.753267
0.755847
0.758228
0.760403
0.762365
0.764103
0.765609
0.766871
0.767884
0.768649
0.769188
0.769541
0.769754
0.769874
0.769938
0.76997
0.769986
0.769993
0.769997
0.769999
0.769999
0.77
0.77
0.77
0.77
0.77
0.77
0.77
0.77
0.77
0.77
0.77
2.18352e-06
9.54271e-06
2.19214e-05
4.26734e-05
7.72922e-05
0.000134671
0.000229008
0.000382616
0.000629912
0.00102285
0.00163793
0.00258442
0.00401289
0.00612197
0.00915982
0.0134164
0.0192032
0.0268211
0.0365213
0.0484716
0.0627359
0.0792726
0.097948
0.118558
0.140852
0.16455
0.189362
0.214998
0.241178
0.267637
0.294131
0.320442
0.346375
0.371766
0.396476
0.420392
0.443421
0.465493
0.486561
0.506592
0.525573
0.543502
0.560389
0.576254
0.591123
0.60503
0.618011
0.630108
0.641363
0.65182
0.661524
0.670518
0.678845
0.686548
0.693669
0.700251
0.706267
0.711698
0.716894
0.721691
0.726119
0.730187
0.734083
0.737784
0.741296
0.744621
0.747762
0.750715
0.753476
0.756043
0.758409
0.760568
0.762512
0.764232
0.765718
0.766961
0.767953
0.7687
0.769222
0.769561
0.769765
0.76988
0.769941
0.769971
0.769987
0.769994
0.769997
0.769999
0.769999
0.77
0.77
0.77
0.77
0.77
0.77
0.77
0.77
0.77
0.77
0.77
2.17439e-06
9.50282e-06
2.18297e-05
4.24946e-05
7.69674e-05
0.000134103
0.000228039
0.000380993
0.000627239
0.00101853
0.00163105
0.00257369
0.00399654
0.00609769
0.00912477
0.0133674
0.019137
0.0267347
0.0364127
0.0483402
0.0625823
0.0790988
0.0977573
0.118355
0.14064
0.164335
0.18915
0.214793
0.240985
0.267461
0.293976
0.32031
0.34627
0.37169
0.39643
0.420376
0.443436
0.465539
0.486635
0.506695
0.525702
0.543655
0.560565
0.576449
0.591336
0.605258
0.618252
0.630359
0.641622
0.652085
0.661791
0.670785
0.67911
0.686813
0.693934
0.700511
0.706519
0.711941
0.717129
0.721916
0.726333
0.730404
0.734297
0.737994
0.741503
0.744824
0.747957
0.7509
0.753651
0.756207
0.75856
0.760706
0.762635
0.76434
0.76581
0.767035
0.76801
0.768741
0.76925
0.769578
0.769774
0.769885
0.769943
0.769973
0.769987
0.769994
0.769997
0.769999
0.769999
0.77
0.77
0.77
0.77
0.77
0.77
0.77
0.77
0.77
0.77
0.77
2.16682e-06
9.46975e-06
2.17538e-05
4.23466e-05
7.66987e-05
0.000133633
0.000227239
0.000379655
0.000625039
0.00101497
0.0016254
0.00256491
0.00398319
0.0060779
0.00909627
0.0133276
0.0190834
0.026665
0.0363255
0.0482349
0.0624597
0.0789607
0.0976066
0.118195
0.140475
0.164169
0.188987
0.214638
0.240841
0.267331
0.293864
0.320219
0.346201
0.371645
0.396409
0.420381
0.443466
0.465593
0.486714
0.506796
0.525824
0.543797
0.560724
0.576624
0.591524
0.605458
0.618461
0.630576
0.641843
0.652308
0.662015
0.671011
0.679339
0.687041
0.694158
0.700731
0.706731
0.712146
0.717329
0.722109
0.726507
0.730583
0.734474
0.73817
0.741675
0.74499
0.748116
0.751053
0.753796
0.756342
0.758685
0.760819
0.762736
0.764428
0.765885
0.767096
0.768057
0.768775
0.769273
0.769592
0.769782
0.769889
0.769945
0.769974
0.769988
0.769994
0.769997
0.769999
0.769999
0.77
0.77
0.77
0.77
0.77
0.77
0.77
0.77
0.77
0.77
0.77
2.16071e-06
9.44307e-06
2.16925e-05
4.22272e-05
7.64822e-05
0.000133255
0.000226595
0.00037858
0.000623273
0.00101212
0.00162089
0.00255789
0.00397254
0.00606215
0.00907362
0.0132961
0.019041
0.02661
0.0362569
0.0481523
0.0623639
0.0788532
0.0974897
0.118071
0.140348
0.164043
0.188864
0.214521
0.240734
0.267237
0.293785
0.320156
0.346157
0.37162
0.396405
0.420396
0.443501
0.465649
0.486788
0.506888
0.525933
0.543921
0.560861
0.576773
0.591684
0.605625
0.618635
0.630754
0.642025
0.652494
0.662206
0.671202
0.679529
0.687229
0.694343
0.700911
0.706905
0.712315
0.717492
0.722266
0.726648
0.730728
0.734617
0.738311
0.741812
0.745124
0.748245
0.751176
0.753912
0.75645
0.758786
0.760911
0.762818
0.7645
0.765945
0.767145
0.768095
0.768801
0.76929
0.769603
0.769789
0.769892
0.769947
0.769975
0.769988
0.769994
0.769997
0.769999
0.77
0.77
0.77
0.77
0.77
0.77
0.77
0.77
0.77
0.77
0.77
0.77
2.15596e-06
9.42232e-06
2.16448e-05
4.21344e-05
7.6314e-05
0.000132962
0.000226097
0.000377747
0.000621907
0.00100992
0.0016174
0.00255248
0.00396434
0.00605004
0.00905624
0.0132719
0.0190085
0.0265681
0.0362046
0.0480896
0.0622912
0.078772
0.0974017
0.117979
0.140254
0.163949
0.188773
0.214437
0.240658
0.267171
0.29373
0.320115
0.34613
0.371608
0.396408
0.420416
0.443536
0.465699
0.486853
0.506966
0.526023
0.544023
0.560973
0.576893
0.591811
0.605759
0.618774
0.630898
0.642174
0.652646
0.662358
0.671354
0.67968
0.687377
0.694489
0.701054
0.707043
0.712448
0.717621
0.72239
0.726759
0.730842
0.73473
0.738421
0.74192
0.745228
0.748346
0.751272
0.754003
0.756535
0.758864
0.760982
0.762882
0.764555
0.765992
0.767183
0.768124
0.768822
0.769304
0.769612
0.769794
0.769895
0.769948
0.769975
0.769988
0.769995
0.769998
0.769999
0.77
0.77
0.77
0.77
0.77
0.77
0.77
0.77
0.77
0.77
0.77
0.77
2.15248e-06
9.40713e-06
2.161e-05
4.20666e-05
7.6191e-05
0.000132748
0.000225732
0.000377139
0.00062091
0.00100831
0.00161486
0.00254854
0.00395838
0.00604123
0.00904362
0.0132544
0.0189851
0.0265377
0.0361669
0.0480444
0.0622391
0.0787138
0.0973389
0.117913
0.140187
0.163883
0.18871
0.214378
0.240605
0.267126
0.293694
0.320089
0.346115
0.371604
0.396416
0.420434
0.443566
0.465739
0.486903
0.507026
0.526093
0.5441
0.561058
0.576985
0.591909
0.605862
0.618882
0.631009
0.642287
0.652759
0.662471
0.671467
0.679792
0.687488
0.694597
0.70116
0.707145
0.712547
0.717716
0.722482
0.726841
0.730927
0.734813
0.738503
0.742
0.745306
0.74842
0.751343
0.75407
0.756598
0.758922
0.761035
0.762929
0.764596
0.766027
0.767211
0.768145
0.768837
0.769314
0.769618
0.769797
0.769897
0.769949
0.769976
0.769989
0.769995
0.769998
0.769999
0.77
0.77
0.77
0.77
0.77
0.77
0.77
0.77
0.77
0.77
0.77
0.77
2.15021e-06
9.39722e-06
2.15872e-05
4.20223e-05
7.61108e-05
0.000132608
0.000225495
0.000376743
0.000620262
0.00100727
0.00161321
0.00254599
0.00395451
0.00603553
0.00903546
0.0132431
0.0189699
0.0265182
0.0361425
0.0480153
0.0622055
0.0786765
0.0972986
0.117871
0.140144
0.163841
0.18867
0.214341
0.240572
0.267098
0.293672
0.320074
0.346107
0.371603
0.396422
0.420449
0.443588
0.465769
0.48694
0.507069
0.526142
0.544154
0.561117
0.577049
0.591976
0.605932
0.618954
0.631083
0.642362
0.652834
0.662546
0.671542
0.679866
0.687561
0.694669
0.70123
0.707214
0.712613
0.71778
0.722543
0.726895
0.730982
0.734868
0.738557
0.742052
0.745357
0.748469
0.75139
0.754114
0.75664
0.75896
0.76107
0.76296
0.764623
0.766049
0.767229
0.768159
0.768847
0.769321
0.769622
0.769799
0.769898
0.76995
0.769976
0.769989
0.769995
0.769998
0.769999
0.77
0.77
0.77
0.77
0.77
0.77
0.77
0.77
0.77
0.77
0.77
0.77
2.1491e-06
9.3924e-06
2.15762e-05
4.20009e-05
7.60722e-05
0.000132541
0.000225381
0.000376554
0.000619952
0.00100677
0.00161242
0.00254478
0.00395268
0.00603284
0.0090316
0.0132377
0.0189627
0.0265089
0.0361311
0.0480016
0.0621897
0.0786588
0.0972796
0.117851
0.140124
0.163821
0.188651
0.214323
0.240557
0.267085
0.293662
0.320067
0.346104
0.371604
0.396427
0.420457
0.4436
0.465784
0.486958
0.507091
0.526166
0.544182
0.561147
0.57708
0.592009
0.605967
0.61899
0.631119
0.642398
0.652872
0.662584
0.671579
0.679903
0.687597
0.694705
0.701265
0.707248
0.712646
0.717812
0.722574
0.726922
0.73101
0.734895
0.738583
0.742078
0.745382
0.748494
0.751413
0.754136
0.75666
0.758979
0.761087
0.762975
0.764636
0.76606
0.767238
0.768166
0.768852
0.769324
0.769623
0.7698
0.769899
0.76995
0.769976
0.769989
0.769995
0.769998
0.769999
0.77
0.77
0.77
0.77
0.77
0.77
0.77
0.77
0.77
0.77
0.77
0.77
2.14911e-06
9.39243e-06
2.15762e-05
4.2001e-05
7.60723e-05
0.000132541
0.000225381
0.000376555
0.000619954
0.00100677
0.00161243
0.00254478
0.00395269
0.00603285
0.00903162
0.0132378
0.0189628
0.026509
0.0361311
0.0480016
0.0621898
0.0786589
0.0972796
0.117851
0.140124
0.163821
0.188651
0.214323
0.240557
0.267085
0.293662
0.320067
0.346103
0.371604
0.396426
0.420456
0.4436
0.465784
0.486958
0.507091
0.526166
0.544182
0.561147
0.57708
0.592009
0.605967
0.61899
0.631119
0.642398
0.652872
0.662584
0.671579
0.679903
0.687597
0.694705
0.701265
0.707248
0.712646
0.717812
0.722574
0.726922
0.73101
0.734895
0.738583
0.742078
0.745382
0.748494
0.751413
0.754136
0.75666
0.758979
0.761087
0.762975
0.764636
0.76606
0.767238
0.768166
0.768852
0.769324
0.769623
0.7698
0.769899
0.76995
0.769976
0.769989
0.769995
0.769998
0.769999
0.77
0.77
0.77
0.77
0.77
0.77
0.77
0.77
0.77
0.77
0.77
0.77
2.15023e-06
9.39729e-06
2.15874e-05
4.20226e-05
7.61114e-05
0.000132609
0.000225496
0.000376746
0.000620266
0.00100727
0.00161322
0.002546
0.00395454
0.00603557
0.0090355
0.0132431
0.01897
0.0265183
0.0361427
0.0480155
0.0622057
0.0786767
0.0972988
0.117871
0.140145
0.163841
0.18867
0.214341
0.240572
0.267098
0.293673
0.320074
0.346107
0.371604
0.396423
0.420449
0.443589
0.465769
0.48694
0.507069
0.526142
0.544155
0.561117
0.577049
0.591976
0.605932
0.618954
0.631083
0.642361
0.652834
0.662546
0.671542
0.679866
0.687561
0.694669
0.70123
0.707214
0.712613
0.71778
0.722543
0.726895
0.730982
0.734868
0.738557
0.742052
0.745356
0.748469
0.75139
0.754114
0.75664
0.75896
0.76107
0.76296
0.764623
0.766049
0.767229
0.768159
0.768847
0.769321
0.769622
0.769799
0.769898
0.76995
0.769976
0.769989
0.769995
0.769998
0.769999
0.77
0.77
0.77
0.77
0.77
0.77
0.77
0.77
0.77
0.77
0.77
0.77
2.15251e-06
9.40725e-06
2.16102e-05
4.20671e-05
7.6192e-05
0.000132749
0.000225735
0.000377144
0.000620917
0.00100832
0.00161487
0.00254857
0.00395842
0.00604129
0.0090437
0.0132545
0.0189852
0.0265379
0.0361671
0.0480447
0.0622394
0.0787141
0.0973392
0.117913
0.140187
0.163883
0.18871
0.214378
0.240605
0.267126
0.293694
0.320089
0.346115
0.371604
0.396416
0.420434
0.443566
0.465739
0.486903
0.507026
0.526093
0.5441
0.561058
0.576985
0.591909
0.605862
0.618882
0.631009
0.642287
0.652759
0.662471
0.671467
0.679792
0.687488
0.694597
0.70116
0.707145
0.712547
0.717716
0.722482
0.726841
0.730926
0.734813
0.738503
0.742
0.745306
0.74842
0.751343
0.75407
0.756598
0.758922
0.761035
0.762929
0.764596
0.766027
0.767211
0.768145
0.768837
0.769314
0.769618
0.769797
0.769897
0.769949
0.769976
0.769989
0.769995
0.769998
0.769999
0.77
0.77
0.77
0.77
0.77
0.77
0.77
0.77
0.77
0.77
0.77
0.77
2.15599e-06
9.42248e-06
2.16452e-05
4.21351e-05
7.63153e-05
0.000132964
0.0002261
0.000377753
0.000621917
0.00100993
0.00161742
0.00255252
0.0039644
0.00605011
0.00905635
0.0132721
0.0190087
0.0265683
0.0362049
0.0480899
0.0622916
0.0787724
0.0974022
0.117979
0.140254
0.163949
0.188774
0.214437
0.240658
0.267171
0.293731
0.320116
0.346131
0.371609
0.396409
0.420416
0.443537
0.465699
0.486853
0.506966
0.526024
0.544023
0.560973
0.576893
0.591811
0.605759
0.618774
0.630898
0.642174
0.652646
0.662357
0.671354
0.679679
0.687377
0.694488
0.701054
0.707043
0.712448
0.71762
0.72239
0.726758
0.730842
0.73473
0.738421
0.74192
0.745228
0.748346
0.751272
0.754003
0.756535
0.758864
0.760982
0.762882
0.764555
0.765992
0.767183
0.768124
0.768822
0.769304
0.769611
0.769794
0.769895
0.769948
0.769975
0.769988
0.769995
0.769998
0.769999
0.77
0.77
0.77
0.77
0.77
0.77
0.77
0.77
0.77
0.77
0.77
0.77
2.16075e-06
9.44327e-06
2.16929e-05
4.22281e-05
7.64838e-05
0.000133258
0.0002266
0.000378588
0.000623285
0.00101214
0.00162092
0.00255794
0.00397261
0.00606224
0.00907376
0.0132963
0.0190412
0.0266103
0.0362572
0.0481528
0.0623644
0.0788538
0.0974902
0.118072
0.140349
0.164043
0.188864
0.214522
0.240735
0.267238
0.293785
0.320157
0.346158
0.37162
0.396405
0.420396
0.443502
0.465649
0.486789
0.506889
0.525933
0.543921
0.560861
0.576773
0.591684
0.605625
0.618635
0.630754
0.642025
0.652494
0.662205
0.671202
0.679529
0.687228
0.694342
0.700911
0.706905
0.712315
0.717492
0.722266
0.726648
0.730727
0.734617
0.73831
0.741812
0.745124
0.748245
0.751175
0.753912
0.75645
0.758785
0.760911
0.762818
0.764499
0.765945
0.767145
0.768095
0.768801
0.76929
0.769603
0.769789
0.769892
0.769947
0.769975
0.769988
0.769994
0.769997
0.769999
0.77
0.77
0.77
0.77
0.77
0.77
0.77
0.77
0.77
0.77
0.77
0.77
2.16688e-06
9.47001e-06
2.17543e-05
4.23477e-05
7.67007e-05
0.000133637
0.000227244
0.000379664
0.000625053
0.00101499
0.00162544
0.00256496
0.00398327
0.00607801
0.00909642
0.0133278
0.0190836
0.0266654
0.0363259
0.0482354
0.0624603
0.0789614
0.0976073
0.118196
0.140476
0.16417
0.188988
0.214639
0.240842
0.267332
0.293865
0.320219
0.346202
0.371645
0.39641
0.420381
0.443466
0.465593
0.486714
0.506796
0.525824
0.543797
0.560724
0.576624
0.591524
0.605457
0.618461
0.630576
0.641843
0.652308
0.662015
0.671011
0.679339
0.687041
0.694158
0.700731
0.70673
0.712146
0.717328
0.722109
0.726507
0.730583
0.734474
0.73817
0.741674
0.74499
0.748116
0.751052
0.753795
0.756341
0.758685
0.760819
0.762736
0.764428
0.765884
0.767096
0.768057
0.768774
0.769272
0.769592
0.769782
0.769889
0.769945
0.769974
0.769988
0.769994
0.769997
0.769999
0.769999
0.77
0.77
0.77
0.77
0.77
0.77
0.77
0.77
0.77
0.77
0.77
2.17446e-06
9.50311e-06
2.18304e-05
4.24959e-05
7.69697e-05
0.000134107
0.000228045
0.000381003
0.000627256
0.00101855
0.00163109
0.00257375
0.00399664
0.00609782
0.00912495
0.0133676
0.0191373
0.0267351
0.0364132
0.0483407
0.0625829
0.0790995
0.0977581
0.118356
0.140641
0.164336
0.189151
0.214794
0.240986
0.267462
0.293977
0.320311
0.346271
0.371691
0.39643
0.420377
0.443436
0.465539
0.486636
0.506695
0.525702
0.543655
0.560565
0.576449
0.591336
0.605258
0.618252
0.630359
0.641622
0.652085
0.661791
0.670784
0.67911
0.686812
0.693933
0.700511
0.706518
0.711941
0.717129
0.721916
0.726333
0.730404
0.734296
0.737994
0.741503
0.744823
0.747956
0.750899
0.753651
0.756206
0.75856
0.760705
0.762635
0.764339
0.765809
0.767035
0.76801
0.768741
0.76925
0.769578
0.769774
0.769885
0.769943
0.769973
0.769987
0.769994
0.769997
0.769999
0.769999
0.77
0.77
0.77
0.77
0.77
0.77
0.77
0.77
0.77
0.77
0.77
2.1836e-06
9.54304e-06
2.19222e-05
4.26749e-05
7.72948e-05
0.000134675
0.000229015
0.000382628
0.000629931
0.00102288
0.00163798
0.00258448
0.00401299
0.00612212
0.00916003
0.0134167
0.0192036
0.0268215
0.0365218
0.0484722
0.0627366
0.0792734
0.0979489
0.118559
0.140853
0.164551
0.189363
0.214999
0.241179
0.267637
0.294132
0.320442
0.346376
0.371767
0.396477
0.420392
0.443422
0.465494
0.486561
0.506593
0.525573
0.543502
0.560389
0.576254
0.591123
0.60503
0.618011
0.630108
0.641363
0.65182
0.661524
0.670518
0.678845
0.686548
0.693669
0.70025
0.706267
0.711697
0.716894
0.72169
0.726118
0.730187
0.734083
0.737784
0.741295
0.744621
0.747762
0.750714
0.753475
0.756042
0.758408
0.760568
0.762512
0.764232
0.765718
0.766961
0.767953
0.768699
0.769222
0.769561
0.769765
0.76988
0.769941
0.769971
0.769987
0.769994
0.769997
0.769999
0.769999
0.77
0.77
0.77
0.77
0.77
0.77
0.77
0.77
0.77
0.77
0.77
2.19438e-06
9.59019e-06
2.20306e-05
4.28864e-05
7.76795e-05
0.000135349
0.000230166
0.000384559
0.000633117
0.00102805
0.00164622
0.00259736
0.00403266
0.00615141
0.00920243
0.0134762
0.0192843
0.026927
0.0366548
0.0486339
0.0629265
0.0794892
0.0981869
0.118815
0.14112
0.164824
0.189635
0.215265
0.241432
0.267872
0.294344
0.320627
0.34653
0.371887
0.396562
0.420441
0.443433
0.465469
0.4865
0.506497
0.525445
0.543344
0.560203
0.576042
0.590889
0.604777
0.617742
0.629825
0.641069
0.651518
0.661216
0.670207
0.678534
0.68624
0.693365
0.699947
0.705972
0.711412
0.716618
0.721425
0.725865
0.729932
0.733831
0.737538
0.741056
0.744386
0.747532
0.750492
0.753264
0.755845
0.758227
0.760403
0.762364
0.764103
0.765609
0.766871
0.767884
0.768649
0.769188
0.769541
0.769754
0.769874
0.769938
0.76997
0.769986
0.769993
0.769997
0.769999
0.769999
0.77
0.77
0.77
0.77
0.77
0.77
0.77
0.77
0.77
0.77
0.77
2.20687e-06
9.64478e-06
2.21562e-05
4.31319e-05
7.81263e-05
0.000136132
0.000231508
0.000386814
0.000636846
0.00103412
0.00165591
0.00261255
0.00405593
0.00618619
0.00925295
0.0135473
0.0193811
0.0270541
0.0368157
0.0488304
0.0631583
0.0797541
0.0984808
0.119132
0.141454
0.165168
0.189982
0.215606
0.241761
0.268182
0.294629
0.320881
0.346749
0.372068
0.396701
0.420537
0.443486
0.465479
0.486467
0.506422
0.52533
0.543191
0.560016
0.575823
0.590642
0.604504
0.617447
0.629513
0.640742
0.65118
0.660869
0.669855
0.678179
0.685886
0.693015
0.699605
0.705638
0.711085
0.716299
0.721116
0.725567
0.729636
0.733539
0.737252
0.740779
0.744121
0.747278
0.750249
0.753031
0.75562
0.758014
0.760206
0.76219
0.763951
0.76548
0.766765
0.7678
0.768587
0.76915
0.769518
0.76974
0.769866
0.769934
0.769968
0.769985
0.769993
0.769997
0.769999
0.769999
0.77
0.77
0.77
0.77
0.77
0.77
0.77
0.77
0.77
0.77
0.77
2.22104e-06
9.70674e-06
2.22989e-05
4.3411e-05
7.86353e-05
0.000137026
0.000233042
0.000389399
0.000641134
0.00104112
0.00166713
0.00263019
0.00408307
0.00622689
0.00931233
0.0136313
0.0194959
0.0272056
0.0370084
0.0490669
0.0634388
0.0800764
0.0988405
0.119523
0.141869
0.165598
0.190419
0.216041
0.242185
0.268587
0.295006
0.321225
0.347054
0.372329
0.396914
0.4207
0.443596
0.465536
0.486475
0.50638
0.52524
0.543055
0.559837
0.575605
0.590388
0.604219
0.617135
0.629176
0.640386
0.650808
0.660485
0.669462
0.677781
0.685485
0.692614
0.699207
0.70525
0.710705
0.71593
0.72076
0.725229
0.729297
0.733204
0.736923
0.740459
0.743812
0.746982
0.749969
0.752769
0.755378
0.757789
0.759997
0.761996
0.763777
0.76533
0.766641
0.767703
0.768522
0.769106
0.76949
0.769724
0.769858
0.769929
0.769966
0.769984
0.769993
0.769997
0.769998
0.769999
0.77
0.77
0.77
0.77
0.77
0.77
0.77
0.77
0.77
0.77
0.77
2.23675e-06
9.77549e-06
2.24574e-05
4.37215e-05
7.92027e-05
0.000138026
0.000234761
0.000392307
0.000645974
0.00104905
0.0016799
0.00265036
0.00411425
0.0062739
0.00938125
0.0137292
0.0196305
0.0273841
0.0372367
0.0493487
0.0637751
0.0804651
0.0992772
0.120001
0.14238
0.166132
0.190966
0.21659
0.242726
0.26911
0.295501
0.321684
0.34747
0.372695
0.397227
0.420955
0.443792
0.465671
0.486548
0.506393
0.525195
0.542954
0.559683
0.575403
0.590142
0.603932
0.616813
0.628824
0.640008
0.650408
0.660068
0.669033
0.677343
0.685042
0.692169
0.698764
0.704824
0.710292
0.715524
0.720363
0.724841
0.728914
0.732825
0.736549
0.740091
0.743454
0.746636
0.749638
0.752456
0.755085
0.757519
0.75975
0.761761
0.763566
0.765148
0.766496
0.767599
0.768447
0.769053
0.769457
0.769705
0.769847
0.769924
0.769963
0.769983
0.769992
0.769996
0.769998
0.769999
0.77
0.77
0.77
0.77
0.77
0.77
0.77
0.77
0.77
0.77
0.77
2.25366e-06
9.84952e-06
2.26283e-05
4.4057e-05
7.98174e-05
0.000139111
0.000236637
0.000395491
0.000651298
0.00105782
0.0016941
0.00267293
0.00414934
0.00632716
0.00945987
0.0138417
0.0197862
0.027592
0.0375045
0.0496815
0.0641748
0.0809304
0.0998034
0.120581
0.143004
0.16679
0.191645
0.217278
0.24341
0.269778
0.296142
0.322286
0.348024
0.373194
0.397664
0.421325
0.444092
0.465899
0.486703
0.506476
0.525211
0.542905
0.559571
0.575232
0.589916
0.603657
0.616493
0.628466
0.639616
0.649988
0.659626
0.668572
0.67687
0.684561
0.691685
0.698283
0.704364
0.709836
0.715073
0.719919
0.724405
0.728482
0.732395
0.736124
0.739674
0.743047
0.746244
0.749262
0.752099
0.754751
0.757213
0.759477
0.761527
0.763367
0.764982
0.766359
0.767485
0.768358
0.768992