/*--------------------------------*- C++ -*----------------------------------*\
  =========                 |
  \\      /  F ield         | OpenFOAM: The Open Source CFD Toolbox
   \\    /   O peration     | Website:  https://openfoam.org
    \\  /    A nd           | Version:  8
     \\/     M anipulation  |
\*---------------------------------------------------------------------------*/
FoamFile
{
    version     2.0;
    format      ascii;
    class       volScalarField;
    location    "920/fluid";
    object      O2;
}
// * * * * * * * * * * * * * * * * * * * * * * * * * * * * * * * * * * * * * //

dimensions      [0 0 0 0 0 0 0];

internalField   nonuniform List<scalar> 
4000
(
4.5878e-10
2.00325e-09
4.59304e-09
8.91543e-09
1.60886e-08
2.79105e-08
4.72318e-08
7.84968e-08
1.28496e-07
2.07357e-07
3.29747e-07
5.16188e-07
7.9427e-07
1.19877e-06
1.77038e-06
2.55224e-06
3.58398e-06
4.89427e-06
6.49396e-06
8.37225e-06
1.0497e-05
1.28191e-05
1.52782e-05
1.78091e-05
2.03468e-05
2.28298e-05
2.52028e-05
2.74183e-05
2.94367e-05
3.1228e-05
3.2773e-05
3.40667e-05
3.51246e-05
3.59926e-05
3.676e-05
3.75735e-05
3.86492e-05
4.02827e-05
4.28598e-05
4.6873e-05
5.29502e-05
6.19002e-05
7.47721e-05
9.29322e-05
0.000118165
0.000152806
0.000199923
0.00026353
0.000348814
0.000462927
0.000615029
0.000817167
0.00108516
0.00143975
0.00190815
0.00252603
0.00334027
0.00439788
0.00577225
0.00762856
0.0100712
0.0132932
0.0184231
0.0348511
0.0514853
0.0680662
0.0843921
0.100304
0.115675
0.130401
0.144394
0.157575
0.16987
0.181147
0.191451
0.20062
0.208555
0.215159
0.220361
0.224168
0.226719
0.228275
0.229144
0.229593
0.229812
0.229915
0.229962
0.229984
0.229993
0.229997
0.229999
0.229999
0.23
0.23
0.23
0.23
0.23
0.23
0.23
0.23
4.65835e-10
2.03547e-09
4.67266e-09
9.08475e-09
1.64248e-08
2.85493e-08
4.84038e-08
8.05785e-08
1.32075e-07
2.13292e-07
3.39167e-07
5.30196e-07
8.14967e-07
1.22851e-06
1.81184e-06
2.6085e-06
3.65877e-06
4.99231e-06
6.6213e-06
8.53639e-06
1.07067e-05
1.30835e-05
1.56065e-05
1.82094e-05
2.08256e-05
2.33915e-05
2.58496e-05
2.81498e-05
3.02505e-05
3.21195e-05
3.37361e-05
3.50942e-05
3.6209e-05
3.71274e-05
3.79415e-05
3.88039e-05
3.99395e-05
4.16565e-05
4.43552e-05
4.85441e-05
5.48673e-05
6.41487e-05
7.74506e-05
9.61508e-05
0.000122044
0.000157477
0.000205474
0.000269945
0.00035656
0.000472121
0.000625822
0.000829729
0.00109967
0.00145641
0.0019272
0.00254777
0.00336513
0.004426
0.00580454
0.00766795
0.0101212
0.0133585
0.0197124
0.0362445
0.0529615
0.06961
0.0859916
0.101949
0.117354
0.132104
0.146106
0.15928
0.171547
0.182767
0.192982
0.202017
0.209773
0.216155
0.221107
0.224669
0.227016
0.22843
0.229216
0.229624
0.229824
0.22992
0.229964
0.229984
0.229993
0.229997
0.229999
0.229999
0.23
0.23
0.23
0.23
0.23
0.23
0.23
0.23
4.7516e-10
2.07623e-09
4.76682e-09
9.26971e-09
1.6763e-08
2.91428e-08
4.94158e-08
8.22672e-08
1.34851e-07
2.17841e-07
3.4674e-07
5.43417e-07
8.35508e-07
1.25876e-06
1.85502e-06
2.66885e-06
3.74183e-06
5.10518e-06
6.77291e-06
8.73744e-06
1.09694e-05
1.3421e-05
1.60318e-05
1.8735e-05
2.14621e-05
2.41475e-05
2.67308e-05
2.9159e-05
3.13874e-05
3.3381e-05
3.51164e-05
3.65854e-05
3.78024e-05
3.88151e-05
3.97196e-05
4.06769e-05
4.19256e-05
4.37925e-05
4.67011e-05
5.11853e-05
5.79156e-05
6.77415e-05
8.17486e-05
0.000101335
0.000128314
0.000164994
0.000214326
0.000280809
0.000369544
0.000487557
0.00064407
0.000851183
0.00112477
0.00148567
0.00196121
0.00258734
0.00341136
0.00447928
0.00586732
0.00774494
0.0102175
0.0134875
0.0219812
0.0385898
0.0553761
0.0720803
0.0885001
0.104475
0.119875
0.134594
0.148536
0.161617
0.173756
0.184827
0.194828
0.203607
0.211074
0.217148
0.221802
0.225109
0.227266
0.22856
0.229278
0.229652
0.229837
0.229925
0.229966
0.229985
0.229994
0.229997
0.229999
0.229999
0.23
0.23
0.23
0.23
0.23
0.23
0.23
0.23
4.86225e-10
2.12517e-09
4.88147e-09
9.49796e-09
1.71852e-08
2.98901e-08
5.06962e-08
8.43986e-08
1.38298e-07
2.23235e-07
3.54836e-07
5.5483e-07
8.5213e-07
1.2832e-06
1.8909e-06
2.72121e-06
3.81748e-06
5.21313e-06
6.92446e-06
8.94609e-06
1.12503e-05
1.37901e-05
1.6505e-05
1.93271e-05
2.21861e-05
2.5014e-05
2.77475e-05
3.03304e-05
3.27147e-05
3.48624e-05
3.67471e-05
3.83582e-05
3.9709e-05
4.08483e-05
4.18775e-05
4.29678e-05
4.43748e-05
4.64491e-05
4.96429e-05
5.45225e-05
6.17924e-05
7.2337e-05
8.72782e-05
0.000108055
0.000136442
0.00017476
0.000226324
0.000295268
0.000386971
0.000508516
0.000669204
0.000881244
0.00116065
0.00152844
0.00201221
0.00264828
0.00348451
0.00456503
0.00596902
0.00787088
0.0103799
0.0136971
0.0248007
0.0414381
0.0582549
0.0749795
0.0914014
0.107355
0.122705
0.137343
0.151171
0.164103
0.176053
0.186943
0.196685
0.205181
0.212347
0.218117
0.222485
0.225549
0.227525
0.228699
0.229348
0.229685
0.229852
0.229932
0.229969
0.229986
0.229994
0.229997
0.229999
0.23
0.23
0.23
0.23
0.23
0.23
0.23
0.23
0.23
4.96033e-10
2.16802e-09
4.9799e-09
9.68943e-09
1.75312e-08
3.04901e-08
5.17086e-08
8.60723e-08
1.41018e-07
2.27589e-07
3.6171e-07
5.65552e-07
8.68673e-07
1.30843e-06
1.9289e-06
2.77766e-06
3.90008e-06
5.33191e-06
7.09196e-06
9.17712e-06
1.15614e-05
1.41989e-05
1.7029e-05
1.99828e-05
2.29884e-05
2.59751e-05
2.88769e-05
3.16342e-05
3.41958e-05
3.65199e-05
3.85772e-05
4.03547e-05
4.18644e-05
4.31571e-05
4.43405e-05
4.55983e-05
4.72068e-05
4.95443e-05
5.30965e-05
5.84666e-05
6.63974e-05
7.78106e-05
9.38678e-05
0.000115969
0.000145974
0.00018644
0.000240879
0.000313191
0.000408923
0.000535325
0.000701891
0.000921059
0.00120913
0.00158749
0.00208421
0.00273626
0.00359054
0.0046891
0.00612186
0.00806566
0.0106269
0.0139951
0.0277682
0.0443945
0.0612171
0.0779427
0.0943474
0.110258
0.125536
0.140071
0.153765
0.166532
0.178267
0.188934
0.198419
0.206634
0.213508
0.218988
0.223089
0.225933
0.227748
0.228818
0.229408
0.229713
0.229865
0.229938
0.229972
0.229987
0.229994
0.229998
0.229999
0.23
0.23
0.23
0.23
0.23
0.23
0.23
0.23
0.23
5.04541e-10
2.20509e-09
5.06465e-09
9.85347e-09
1.78265e-08
3.10017e-08
5.25741e-08
8.75127e-08
1.43385e-07
2.31436e-07
3.67903e-07
5.75424e-07
8.84255e-07
1.33276e-06
1.96642e-06
2.83467e-06
3.98523e-06
5.4565e-06
7.27003e-06
9.42517e-06
1.18978e-05
1.46427e-05
1.75995e-05
2.06982e-05
2.38649e-05
2.70266e-05
3.01141e-05
3.30645e-05
3.5823e-05
3.83444e-05
4.0596e-05
4.25621e-05
4.42541e-05
4.57255e-05
4.70919e-05
4.85522e-05
5.04067e-05
5.30661e-05
5.70547e-05
6.30179e-05
7.17444e-05
8.41848e-05
0.000101446
0.000125038
0.000157261
0.000200697
0.000258424
0.000334826
0.000435632
0.00056833
0.000742715
0.000971605
0.00127177
0.00166519
0.00218068
0.00285502
0.00373814
0.00487016
0.00634631
0.00833721
0.0109491
0.0143436
0.0303687
0.0470536
0.0639384
0.0807006
0.0971064
0.11298
0.128187
0.142615
0.156175
0.168783
0.180324
0.190777
0.200005
0.207946
0.214547
0.219763
0.223626
0.226274
0.227948
0.228927
0.229463
0.22974
0.229877
0.229943
0.229974
0.229989
0.229995
0.229998
0.229999
0.23
0.23
0.23
0.23
0.23
0.23
0.23
0.23
0.23
5.12384e-10
2.23931e-09
5.14306e-09
1.00058e-08
1.81024e-08
3.14832e-08
5.33966e-08
8.88971e-08
1.45689e-07
2.35235e-07
3.74106e-07
5.85452e-07
9.00291e-07
1.35809e-06
2.00588e-06
2.89513e-06
4.07607e-06
5.59003e-06
7.46149e-06
9.69248e-06
1.22608e-05
1.51225e-05
1.8217e-05
2.14733e-05
2.48158e-05
2.81688e-05
3.14599e-05
3.46228e-05
3.75989e-05
4.03393e-05
4.28076e-05
4.49858e-05
4.68845e-05
4.85607e-05
5.01402e-05
5.18398e-05
5.39873e-05
5.70294e-05
6.15317e-05
6.81831e-05
7.78116e-05
9.13584e-05
0.0001101
0.000135935
0.000170703
0.0002171
0.000278613
0.000359812
0.000466684
0.000607067
0.000791221
0.00103257
0.00134865
0.00176239
0.00230366
0.00301246
0.00394122
0.00511797
0.00670202
0.00877111
0.011469
0.0149163
0.031853
0.049048
0.0662142
0.0831186
0.0995752
0.115435
0.130577
0.144901
0.158316
0.170742
0.182038
0.192286
0.201331
0.209079
0.215452
0.220437
0.22409
0.226568
0.228118
0.229019
0.22951
0.229763
0.229888
0.229948
0.229977
0.22999
0.229995
0.229998
0.229999
0.23
0.23
0.23
0.23
0.23
0.23
0.23
0.23
0.23
5.19887e-10
2.27207e-09
5.21826e-09
1.01523e-08
1.83685e-08
3.19496e-08
5.41972e-08
9.0253e-08
1.47962e-07
2.39012e-07
3.80327e-07
5.95603e-07
9.16681e-07
1.38422e-06
2.04694e-06
2.95852e-06
4.17196e-06
5.7317e-06
7.66545e-06
9.97814e-06
1.26497e-05
1.56375e-05
1.8881e-05
2.23083e-05
2.58419e-05
2.94036e-05
3.29178e-05
3.63144e-05
3.95309e-05
4.25143e-05
4.52245e-05
4.76408e-05
4.97734e-05
5.16835e-05
5.35087e-05
5.54876e-05
5.79783e-05
6.14688e-05
6.6573e-05
7.4008e-05
8.45661e-05
9.93655e-05
0.000119999
0.000147937
0.000185348
0.000235046
0.000300705
0.000387137
0.000500655
0.000649549
0.000844714
0.00110048
0.00143573
0.00187539
0.00245248
0.00321087
0.00420304
0.0054729
0.00720087
0.00948208
0.0125036
0.0164436
0.0336698
0.051079
0.0683821
0.0853561
0.101827
0.117655
0.132728
0.14695
0.160238
0.172518
0.183684
0.193742
0.202575
0.210101
0.216252
0.221024
0.224489
0.226819
0.228264
0.229098
0.22955
0.229783
0.229897
0.229953
0.229978
0.22999
0.229996
0.229998
0.229999
0.23
0.23
0.23
0.23
0.23
0.23
0.23
0.23
0.23
5.27256e-10
2.30427e-09
5.29232e-09
1.02969e-08
1.8632e-08
3.24132e-08
5.49969e-08
9.16146e-08
1.50259e-07
2.42851e-07
3.86692e-07
6.06056e-07
9.33658e-07
1.41144e-06
2.0899e-06
3.02513e-06
4.27304e-06
5.88145e-06
7.88156e-06
1.02814e-05
1.30635e-05
1.61865e-05
1.95904e-05
2.32024e-05
2.69435e-05
3.07327e-05
3.44912e-05
3.81452e-05
4.1628e-05
4.48823e-05
4.7864e-05
5.05491e-05
5.29476e-05
5.51256e-05
5.72342e-05
5.95348e-05
6.24168e-05
6.64065e-05
7.21497e-05
8.03549e-05
9.19966e-05
0.000108413
0.000130804
0.000160928
0.000201044
0.000254084
0.000323877
0.000415437
0.000535344
0.000692238
0.000897482
0.00116603
0.00151763
0.00197834
0.00258273
0.00337677
0.00441649
0.00575468
0.007583
0.0100111
0.0132574
0.0180826
0.0355099
0.053043
0.0704097
0.0873977
0.10384
0.119603
0.13458
0.148681
0.161828
0.173949
0.18495
0.194833
0.203486
0.210852
0.216881
0.221511
0.224826
0.227031
0.228388
0.229165
0.229585
0.2298
0.229905
0.229956
0.22998
0.229991
0.229996
0.229998
0.229999
0.23
0.23
0.23
0.23
0.23
0.23
0.23
0.23
0.23
5.34562e-10
2.33621e-09
5.36586e-09
1.04408e-08
1.88947e-08
3.28767e-08
5.57988e-08
9.29852e-08
1.52579e-07
2.46749e-07
3.93183e-07
6.16763e-07
9.51127e-07
1.43957e-06
2.13447e-06
3.09445e-06
4.37856e-06
6.03822e-06
8.10837e-06
1.06006e-05
1.35e-05
1.67673e-05
2.03429e-05
2.41538e-05
2.81193e-05
3.21562e-05
3.61825e-05
4.01205e-05
4.38994e-05
4.74572e-05
5.07454e-05
5.37369e-05
5.64414e-05
5.8931e-05
6.13729e-05
6.40546e-05
6.74011e-05
7.19685e-05
7.83688e-05
8.74811e-05
0.000100486
0.000118372
0.000142577
0.000174919
0.000217729
0.00027403
0.000347766
0.000444089
0.000569743
0.000733567
0.000947151
0.00122571
0.00158923
0.00206405
0.00268485
0.00349747
0.00455363
0.00590756
0.00774676
0.0101657
0.0133553
0.0198463
0.0373451
0.0549235
0.0723074
0.0892864
0.105696
0.121406
0.13631
0.150323
0.163366
0.175366
0.186253
0.195982
0.204465
0.211632
0.217439
0.22192
0.225114
0.227213
0.228493
0.229222
0.229614
0.229814
0.229912
0.229959
0.229982
0.229992
0.229996
0.229998
0.229999
0.23
0.23
0.23
0.23
0.23
0.23
0.23
0.23
0.23
5.418e-10
2.36788e-09
5.43881e-09
1.05836e-08
1.91561e-08
3.33391e-08
5.66011e-08
9.43605e-08
1.54916e-07
2.50687e-07
3.99763e-07
6.27656e-07
9.68956e-07
1.46836e-06
2.18024e-06
3.16583e-06
4.48752e-06
6.20052e-06
8.34381e-06
1.09328e-05
1.39558e-05
1.73757e-05
2.1134e-05
2.51579e-05
2.93654e-05
3.36712e-05
3.79907e-05
4.22424e-05
4.63512e-05
5.02505e-05
5.38873e-05
5.72311e-05
6.02914e-05
6.31473e-05
6.59829e-05
6.91113e-05
7.29867e-05
7.81525e-05
8.53586e-05
9.56781e-05
0.000109956
0.000129397
0.000155484
0.000190083
0.000235586
0.000295088
0.000372614
0.000473407
0.000604312
0.00077427
0.000994965
0.00128169
0.00165446
0.00213954
0.00277145
0.00359546
0.00466121
0.00602229
0.00786423
0.0102779
0.0134513
0.0215644
0.039074
0.0566416
0.0739985
0.0909363
0.107287
0.122921
0.137732
0.151651
0.164601
0.176515
0.187329
0.196947
0.205299
0.212324
0.217981
0.222282
0.225354
0.227366
0.228582
0.22927
0.229638
0.229826
0.229918
0.229962
0.229983
0.229992
0.229997
0.229999
0.229999
0.23
0.23
0.23
0.23
0.23
0.23
0.23
0.23
0.23
5.48906e-10
2.39897e-09
5.5105e-09
1.07242e-08
1.94137e-08
3.37955e-08
5.73948e-08
9.57245e-08
1.57239e-07
2.54613e-07
4.06345e-07
6.38582e-07
9.86893e-07
1.49741e-06
2.22654e-06
3.23826e-06
4.59839e-06
6.36616e-06
8.58486e-06
1.1274e-05
1.44257e-05
1.80054e-05
2.19565e-05
2.62066e-05
3.06733e-05
3.52699e-05
3.99091e-05
4.45066e-05
4.89829e-05
5.32673e-05
5.73021e-05
6.10538e-05
6.45328e-05
6.78279e-05
7.11454e-05
7.48312e-05
7.93243e-05
8.5266e-05
9.35126e-05
0.000104951
0.000120604
0.000141703
0.000169764
0.000206698
0.000254949
0.000317672
0.000398958
0.000504122
0.000640077
0.000815826
0.0010431
0.0013372
0.00171812
0.00221191
0.00285246
0.0036846
0.00475839
0.00612628
0.00797213
0.0103843
0.013548
0.0231036
0.0406235
0.0581848
0.0755138
0.0924007
0.108691
0.124274
0.139047
0.152906
0.165778
0.177594
0.188288
0.197785
0.206012
0.212909
0.218439
0.22262
0.225562
0.227493
0.228657
0.22931
0.229659
0.229836
0.229923
0.229964
0.229984
0.229993
0.229997
0.229999
0.229999
0.23
0.23
0.23
0.23
0.23
0.23
0.23
0.23
0.23
5.55777e-10
2.42904e-09
5.57987e-09
1.08604e-08
1.96636e-08
3.42389e-08
5.81674e-08
9.70551e-08
1.59511e-07
2.58462e-07
4.12812e-07
6.49347e-07
1.00461e-06
1.52619e-06
2.27254e-06
3.31042e-06
4.70919e-06
6.53224e-06
8.82742e-06
1.16188e-05
1.49025e-05
1.86474e-05
2.27992e-05
2.72869e-05
3.20285e-05
3.69365e-05
4.19223e-05
4.68987e-05
5.17831e-05
5.65005e-05
6.09891e-05
6.5212e-05
6.91807e-05
7.29934e-05
7.68781e-05
8.11908e-05
8.63776e-05
9.32155e-05
0.000102638
0.000115407
0.000132604
0.000155504
0.000185668
0.000225055
0.000276163
0.000342206
0.000427335
0.000536928
0.000677962
0.000859492
0.00109329
0.00139464
0.0017833
0.00228513
0.00293438
0.00377643
0.00485809
0.00623172
0.00808112
0.0104918
0.0136456
0.0244293
0.0419637
0.0595158
0.0768188
0.0936843
0.109955
0.125492
0.140197
0.153982
0.166774
0.178501
0.189099
0.198494
0.206613
0.213399
0.218819
0.222897
0.225752
0.227601
0.228717
0.229344
0.229676
0.229844
0.229927
0.229966
0.229985
0.229993
0.229997
0.229999
0.229999
0.23
0.23
0.23
0.23
0.23
0.23
0.23
0.23
0.23
5.62277e-10
2.45749e-09
5.64556e-09
1.09894e-08
1.99006e-08
3.46602e-08
5.89026e-08
9.83238e-08
1.61682e-07
2.62149e-07
4.19021e-07
6.59709e-07
1.02171e-06
1.55404e-06
2.31719e-06
3.38068e-06
4.81742e-06
6.69509e-06
9.06621e-06
1.19597e-05
1.53763e-05
1.92887e-05
2.3646e-05
2.83792e-05
3.34078e-05
3.86451e-05
4.40017e-05
4.93894e-05
5.47234e-05
5.99256e-05
6.49312e-05
6.97011e-05
7.42492e-05
7.86853e-05
8.32592e-05
8.82985e-05
9.4535e-05
0.000102525
0.000113141
0.000127328
0.000146182
0.000171008
0.000203406
0.000245382
0.000299486
0.000368989
0.000458102
0.000572264
0.000718516
0.000905917
0.00114615
0.00145436
0.00185054
0.00236122
0.00302018
0.00387101
0.00496003
0.00633931
0.00819147
0.010599
0.0137396
0.0255559
0.0431112
0.0606613
0.0779608
0.0948017
0.111028
0.126516
0.141164
0.154886
0.167608
0.17926
0.189778
0.199086
0.207115
0.213807
0.219134
0.223124
0.225905
0.227697
0.228768
0.22937
0.22969
0.229851
0.22993
0.229968
0.229985
0.229993
0.229997
0.229999
0.229999
0.23
0.23
0.23
0.23
0.23
0.23
0.23
0.23
0.23
5.68255e-10
2.48367e-09
5.706e-09
1.11082e-08
2.01191e-08
3.50491e-08
5.95824e-08
9.9499e-08
1.63697e-07
2.65577e-07
4.24809e-07
6.69392e-07
1.03773e-06
1.58021e-06
2.35926e-06
3.44711e-06
4.92013e-06
6.85022e-06
9.2947e-06
1.22875e-05
1.58342e-05
1.99122e-05
2.44744e-05
2.94552e-05
3.47769e-05
4.03544e-05
4.61e-05
5.19257e-05
5.77468e-05
6.34844e-05
6.90729e-05
7.44746e-05
7.97106e-05
8.49111e-05
9.03528e-05
9.64193e-05
0.000103698
0.000112933
0.000124949
0.000140723
0.000161383
0.000188275
0.000223044
0.000267748
0.000324995
0.000398116
0.000491369
0.000610218
0.000761645
0.000954749
0.00120138
0.00151732
0.0019224
0.00244194
0.00310952
0.00396882
0.00506487
0.00644932
0.00830348
0.0107069
0.0138251
0.0264854
0.0440696
0.0616285
0.0789134
0.0957287
0.111921
0.127366
0.141966
0.155634
0.168298
0.179886
0.190338
0.199575
0.207528
0.214142
0.219391
0.223309
0.226028
0.227773
0.228812
0.229393
0.229701
0.229856
0.229933
0.229969
0.229986
0.229994
0.229997
0.229999
0.229999
0.23
0.23
0.23
0.23
0.23
0.23
0.23
0.23
0.23
5.73551e-10
2.50686e-09
5.75958e-09
1.12136e-08
2.03131e-08
3.53948e-08
6.01876e-08
1.00547e-07
1.65497e-07
2.68646e-07
4.30001e-07
6.78097e-07
1.05218e-06
1.60386e-06
2.3974e-06
3.50753e-06
5.0139e-06
6.99245e-06
9.50512e-06
1.25909e-05
1.62605e-05
2.04961e-05
2.52555e-05
3.04772e-05
3.60875e-05
4.20049e-05
4.81448e-05
5.44223e-05
6.07547e-05
6.70652e-05
7.32896e-05
7.93933e-05
8.54047e-05
9.14687e-05
9.78677e-05
0.000105133
0.000113684
0.000124426
0.000138006
0.000155499
0.000178086
0.000207157
0.000244406
0.000291937
0.000352398
0.000429136
0.000526455
0.000649912
0.000806666
0.00100619
0.00126032
0.00158403
0.00199709
0.00252506
0.00320114
0.00406853
0.00517098
0.00655948
0.0084138
0.0108104
0.0139038
0.0272377
0.0448467
0.0624136
0.0796897
0.0964844
0.112647
0.128058
0.142617
0.156242
0.168857
0.180394
0.190791
0.19997
0.207861
0.214413
0.219598
0.223457
0.226126
0.227833
0.228847
0.229412
0.229711
0.229861
0.229935
0.22997
0.229986
0.229994
0.229997
0.229999
0.229999
0.23
0.23
0.23
0.23
0.23
0.23
0.23
0.23
0.23
5.78008e-10
2.52638e-09
5.8047e-09
1.13024e-08
2.04767e-08
3.56866e-08
6.06991e-08
1.01434e-07
1.67022e-07
2.71252e-07
4.3442e-07
6.85522e-07
1.06452e-06
1.62413e-06
2.4302e-06
3.55965e-06
5.09508e-06
7.11606e-06
9.68884e-06
1.28571e-05
1.66365e-05
2.10145e-05
2.59535e-05
3.13974e-05
3.72773e-05
4.35168e-05
5.00367e-05
5.67576e-05
6.36026e-05
7.05014e-05
7.73981e-05
8.42694e-05
9.11643e-05
9.82621e-05
0.00010587
0.000114399
0.000124342
0.000136466
0.000151687
0.000170985
0.000195554
0.000226824
0.000266534
0.000316843
0.000380465
0.000460846
0.000562541
0.000691152
0.000853905
0.0010598
0.00132072
0.00165186
0.00207287
0.00260908
0.0032933
0.00416813
0.00527614
0.00666727
0.0085195
0.010906
0.0139715
0.0278325
0.0454697
0.0630413
0.0803088
0.0970857
0.113224
0.128605
0.143132
0.15672
0.169296
0.180793
0.191146
0.200279
0.208122
0.214623
0.219759
0.223572
0.226202
0.22788
0.228874
0.229426
0.229718
0.229865
0.229936
0.229971
0.229987
0.229994
0.229997
0.229999
0.23
0.23
0.23
0.23
0.23
0.23
0.23
0.23
0.23
0.23
5.81484e-10
2.5416e-09
5.83989e-09
1.13717e-08
2.06045e-08
3.59147e-08
6.10992e-08
1.02128e-07
1.68219e-07
2.733e-07
4.37898e-07
6.91378e-07
1.07428e-06
1.6402e-06
2.45625e-06
3.60119e-06
5.15998e-06
7.21526e-06
9.83687e-06
1.30726e-05
1.69425e-05
2.14386e-05
2.65283e-05
3.21605e-05
3.82715e-05
4.47913e-05
5.16468e-05
5.87662e-05
6.60811e-05
7.35312e-05
8.10727e-05
8.86987e-05
9.6482e-05
0.000104633
0.000113512
0.000123424
0.000134794
0.000148374
0.000165147
0.00018616
0.000212648
0.000246091
0.000288293
0.000341489
0.000408483
0.000492823
0.00059885
0.000732258
0.000900285
0.00111215
0.00137968
0.00171804
0.00214671
0.00269079
0.00338267
0.00426428
0.00537702
0.00676942
0.00861746
0.0109908
0.0140254
0.0282724
0.0459373
0.0635163
0.0807782
0.097541
0.11366
0.129017
0.143517
0.157077
0.169624
0.181089
0.191409
0.200507
0.208314
0.214778
0.219877
0.223655
0.226257
0.227913
0.228893
0.229437
0.229723
0.229867
0.229938
0.229971
0.229987
0.229994
0.229997
0.229999
0.23
0.23
0.23
0.23
0.23
0.23
0.23
0.23
0.23
0.23
5.83858e-10
2.552e-09
5.86394e-09
1.14191e-08
2.06918e-08
3.60706e-08
6.13729e-08
1.02604e-07
1.69039e-07
2.74703e-07
4.40282e-07
6.95399e-07
1.08099e-06
1.65126e-06
2.47424e-06
3.62993e-06
5.20503e-06
7.28434e-06
9.94034e-06
1.32238e-05
1.71582e-05
2.17392e-05
2.69379e-05
3.27075e-05
3.89893e-05
4.57184e-05
5.28282e-05
6.02545e-05
6.79382e-05
7.58306e-05
8.39031e-05
9.21705e-05
0.000100738
0.000109855
0.000119897
0.000131195
0.000144054
0.000159171
0.000177491
0.000200122
0.000228356
0.00026373
0.000308103
0.000363761
0.000433547
0.000521031
0.000630713
0.000768308
0.000941084
0.0011583
0.00143178
0.00177664
0.00221225
0.00276348
0.00346232
0.00435002
0.00546688
0.00685983
0.00870263
0.011061
0.0140634
0.0285626
0.0462554
0.0638433
0.081102
0.0978542
0.113958
0.129298
0.143779
0.157318
0.169844
0.181286
0.191584
0.200658
0.208441
0.214879
0.219954
0.22371
0.226293
0.227935
0.228905
0.229443
0.229727
0.229869
0.229938
0.229972
0.229987
0.229994
0.229997
0.229999
0.23
0.23
0.23
0.23
0.23
0.23
0.23
0.23
0.23
0.23
5.85046e-10
2.5572e-09
5.87592e-09
1.14426e-08
2.0735e-08
3.61476e-08
6.15076e-08
1.02837e-07
1.6944e-07
2.75389e-07
4.41446e-07
6.97359e-07
1.08426e-06
1.65666e-06
2.48302e-06
3.64398e-06
5.2271e-06
7.31829e-06
9.99139e-06
1.32988e-05
1.72657e-05
2.18897e-05
2.71442e-05
3.29848e-05
3.93556e-05
4.61948e-05
5.34401e-05
6.10319e-05
6.89174e-05
7.70559e-05
8.54297e-05
9.40687e-05
0.000103098
0.000112776
0.0001235
0.000135704
0.000149772
0.000166022
0.000185418
0.000209134
0.000238516
0.000275149
0.000320936
0.000378203
0.000449836
0.000539448
0.000651588
0.000792016
0.000968039
0.00118895
0.00146659
0.00181607
0.00225671
0.00281323
0.00351737
0.00440991
0.00553029
0.00692415
0.00876316
0.0111093
0.0140834
0.0287051
0.0464223
0.0640177
0.0812747
0.0980199
0.114114
0.129443
0.143912
0.15744
0.169954
0.181385
0.19167
0.200732
0.208502
0.214928
0.21999
0.223736
0.226309
0.227945
0.228911
0.229446
0.229728
0.22987
0.229939
0.229972
0.229987
0.229994
0.229997
0.229999
0.23
0.23
0.23
0.23
0.23
0.23
0.23
0.23
0.23
0.23
5.85046e-10
2.5572e-09
5.87592e-09
1.14426e-08
2.07351e-08
3.61476e-08
6.15076e-08
1.02837e-07
1.6944e-07
2.75389e-07
4.41447e-07
6.9736e-07
1.08426e-06
1.65666e-06
2.48302e-06
3.64398e-06
5.22711e-06
7.3183e-06
9.9914e-06
1.32988e-05
1.72657e-05
2.18897e-05
2.71442e-05
3.29849e-05
3.93556e-05
4.61949e-05
5.34401e-05
6.10318e-05
6.89173e-05
7.70558e-05
8.54296e-05
9.40685e-05
0.000103098
0.000112776
0.0001235
0.000135704
0.000149772
0.000166023
0.000185419
0.000209134
0.000238516
0.00027515
0.000320936
0.000378204
0.000449837
0.000539448
0.000651588
0.000792016
0.00096804
0.00118895
0.00146659
0.00181608
0.00225671
0.00281323
0.00351737
0.00440991
0.00553029
0.00692415
0.00876316
0.0111093
0.0140834
0.028705
0.0464222
0.0640176
0.0812746
0.0980198
0.114114
0.129443
0.143912
0.15744
0.169954
0.181385
0.19167
0.200732
0.208502
0.214928
0.21999
0.223736
0.226309
0.227945
0.228911
0.229446
0.229728
0.22987
0.229939
0.229972
0.229987
0.229994
0.229997
0.229999
0.23
0.23
0.23
0.23
0.23
0.23
0.23
0.23
0.23
0.23
5.83859e-10
2.55201e-09
5.86395e-09
1.14191e-08
2.06918e-08
3.60707e-08
6.1373e-08
1.02604e-07
1.69039e-07
2.74704e-07
4.40284e-07
6.95401e-07
1.081e-06
1.65127e-06
2.47425e-06
3.62994e-06
5.20505e-06
7.28436e-06
9.94037e-06
1.32239e-05
1.71583e-05
2.17392e-05
2.6938e-05
3.27076e-05
3.89894e-05
4.57185e-05
5.28283e-05
6.02545e-05
6.79381e-05
7.58303e-05
8.39025e-05
9.21696e-05
0.000100737
0.000109856
0.000119898
0.000131197
0.000144056
0.000159173
0.000177493
0.000200123
0.000228357
0.000263731
0.000308104
0.000363762
0.000433548
0.000521033
0.000630715
0.00076831
0.000941086
0.0011583
0.00143178
0.00177664
0.00221226
0.00276349
0.00346232
0.00435002
0.00546688
0.00685983
0.00870262
0.011061
0.0140634
0.0285623
0.0462551
0.063843
0.0811017
0.0978539
0.113958
0.129298
0.143778
0.157318
0.169843
0.181286
0.191584
0.200658
0.208441
0.214879
0.219954
0.22371
0.226292
0.227935
0.228905
0.229443
0.229727
0.229869
0.229938
0.229972
0.229987
0.229994
0.229997
0.229999
0.23
0.23
0.23
0.23
0.23
0.23
0.23
0.23
0.23
0.23
5.81485e-10
2.54161e-09
5.8399e-09
1.13718e-08
2.06045e-08
3.59148e-08
6.10994e-08
1.02129e-07
1.6822e-07
2.73301e-07
4.37899e-07
6.9138e-07
1.07429e-06
1.6402e-06
2.45626e-06
3.60119e-06
5.15999e-06
7.21527e-06
9.83688e-06
1.30726e-05
1.69425e-05
2.14386e-05
2.65283e-05
3.21605e-05
3.82716e-05
4.47913e-05
5.1647e-05
5.87665e-05
6.60818e-05
7.35327e-05
8.10754e-05
8.87036e-05
9.64903e-05
0.000104646
0.000113518
0.000123426
0.000134793
0.000148371
0.000165145
0.000186158
0.000212647
0.00024609
0.000288293
0.000341489
0.000408484
0.000492825
0.000598852
0.000732261
0.000900288
0.00111216
0.00137969
0.00171804
0.00214671
0.00269079
0.00338267
0.00426428
0.00537702
0.00676942
0.00861745
0.0109907
0.0140254
0.0282719
0.0459368
0.0635158
0.0807777
0.0975405
0.113659
0.129017
0.143517
0.157077
0.169624
0.181088
0.191409
0.200507
0.208314
0.214778
0.219876
0.223655
0.226257
0.227913
0.228893
0.229437
0.229723
0.229867
0.229938
0.229971
0.229987
0.229994
0.229997
0.229999
0.23
0.23
0.23
0.23
0.23
0.23
0.23
0.23
0.23
0.23
5.78009e-10
2.52638e-09
5.80471e-09
1.13025e-08
2.04768e-08
3.56867e-08
6.06992e-08
1.01434e-07
1.67023e-07
2.71253e-07
4.34421e-07
6.85524e-07
1.06453e-06
1.62414e-06
2.43021e-06
3.55966e-06
5.09509e-06
7.11607e-06
9.68885e-06
1.28571e-05
1.66365e-05
2.10145e-05
2.59535e-05
3.13974e-05
3.72772e-05
4.35168e-05
5.00367e-05
5.67574e-05
6.36023e-05
7.05008e-05
7.73967e-05
8.42663e-05
9.11572e-05
9.82471e-05
0.000105862
0.000114394
0.000124337
0.00013646
0.000151682
0.000170982
0.000195552
0.000226822
0.000266533
0.000316843
0.000380466
0.000460848
0.000562544
0.000691156
0.000853909
0.00105981
0.00132072
0.00165187
0.00207288
0.00260908
0.00329331
0.00416814
0.00527614
0.00666727
0.00851949
0.010906
0.0139715
0.0278318
0.0454691
0.0630406
0.0803081
0.097085
0.113223
0.128605
0.143131
0.156719
0.169296
0.180792
0.191145
0.200278
0.208121
0.214623
0.219758
0.223571
0.226202
0.227879
0.228874
0.229426
0.229718
0.229865
0.229936
0.229971
0.229987
0.229994
0.229997
0.229999
0.23
0.23
0.23
0.23
0.23
0.23
0.23
0.23
0.23
0.23
5.73552e-10
2.50686e-09
5.7596e-09
1.12137e-08
2.03132e-08
3.53949e-08
6.01878e-08
1.00547e-07
1.65497e-07
2.68647e-07
4.30003e-07
6.781e-07
1.05218e-06
1.60386e-06
2.39741e-06
3.50754e-06
5.01391e-06
6.99246e-06
9.50513e-06
1.25909e-05
1.62605e-05
2.04961e-05
2.52554e-05
3.04772e-05
3.60874e-05
4.20048e-05
4.81447e-05
5.44221e-05
6.07544e-05
6.70648e-05
7.32894e-05
7.93934e-05
8.54058e-05
9.14723e-05
9.78696e-05
0.000105135
0.000113687
0.000124432
0.000138011
0.000155503
0.000178089
0.000207161
0.00024441
0.000291942
0.000352402
0.00042914
0.000526459
0.000649917
0.000806672
0.0010062
0.00126033
0.00158404
0.0019971
0.00252507
0.00320115
0.00406853
0.00517098
0.00655948
0.00841379
0.0108104
0.0139038
0.027237
0.0448459
0.0624127
0.0796887
0.0964835
0.112646
0.128057
0.142616
0.156241
0.168856
0.180393
0.19079
0.199969
0.207861
0.214412
0.219598
0.223457
0.226126
0.227833
0.228847
0.229412
0.229711
0.229861
0.229935
0.22997
0.229986
0.229994
0.229997
0.229999
0.229999
0.23
0.23
0.23
0.23
0.23
0.23
0.23
0.23
0.23
5.68256e-10
2.48367e-09
5.70602e-09
1.11083e-08
2.01192e-08
3.50493e-08
5.95827e-08
9.94994e-08
1.63698e-07
2.65578e-07
4.24811e-07
6.69395e-07
1.03774e-06
1.58021e-06
2.35927e-06
3.44712e-06
4.92014e-06
6.85023e-06
9.2947e-06
1.22875e-05
1.58342e-05
1.99122e-05
2.44744e-05
2.94552e-05
3.47768e-05
4.03544e-05
4.60999e-05
5.19257e-05
5.77468e-05
6.34845e-05
6.90731e-05
7.44748e-05
7.97109e-05
8.49112e-05
9.03547e-05
9.64217e-05
0.000103701
0.000112936
0.000124953
0.000140726
0.000161387
0.000188279
0.000223048
0.000267752
0.000325
0.000398123
0.000491376
0.000610225
0.000761653
0.000954759
0.0012014
0.00151734
0.00192242
0.00244196
0.00310953
0.00396884
0.00506489
0.00644933
0.00830347
0.0107069
0.013825
0.0264846
0.0440687
0.0616275
0.0789123
0.0957275
0.111919
0.127365
0.141964
0.155633
0.168296
0.179885
0.190337
0.199574
0.207527
0.214142
0.219391
0.223309
0.226028
0.227773
0.228812
0.229393
0.229701
0.229856
0.229933
0.229969
0.229986
0.229994
0.229997
0.229999
0.229999
0.23
0.23
0.23
0.23
0.23
0.23
0.23
0.23
0.23
5.62279e-10
2.4575e-09
5.64558e-09
1.09895e-08
1.99007e-08
3.46604e-08
5.89029e-08
9.83243e-08
1.61683e-07
2.6215e-07
4.19023e-07
6.59712e-07
1.02172e-06
1.55405e-06
2.31719e-06
3.38069e-06
4.81743e-06
6.69509e-06
9.06621e-06
1.19597e-05
1.53763e-05
1.92887e-05
2.36459e-05
2.83791e-05
3.34078e-05
3.8645e-05
4.40017e-05
4.93894e-05
5.47234e-05
5.99257e-05
6.49313e-05
6.97013e-05
7.42494e-05
7.86855e-05
8.32591e-05
8.83005e-05
9.4539e-05
0.000102528
0.000113144
0.000127332
0.000146186
0.000171012
0.000203411
0.000245387
0.000299492
0.000368996
0.00045811
0.000572274
0.000718527
0.00090593
0.00114616
0.00145438
0.00185056
0.00236124
0.0030202
0.00387104
0.00496007
0.00633935
0.00819151
0.0105991
0.0137396
0.0255552
0.0431104
0.0606603
0.0779595
0.0948001
0.111027
0.126514
0.141162
0.154884
0.167606
0.179258
0.189776
0.199085
0.207114
0.213807
0.219133
0.223124
0.225905
0.227697
0.228768
0.22937
0.22969
0.229851
0.22993
0.229968
0.229985
0.229993
0.229997
0.229999
0.229999
0.23
0.23
0.23
0.23
0.23
0.23
0.23
0.23
0.23
5.55779e-10
2.42905e-09
5.5799e-09
1.08604e-08
1.96637e-08
3.42391e-08
5.81677e-08
9.70556e-08
1.59512e-07
2.58464e-07
4.12814e-07
6.49351e-07
1.00462e-06
1.5262e-06
2.27255e-06
3.31043e-06
4.70919e-06
6.53224e-06
8.82741e-06
1.16188e-05
1.49025e-05
1.86473e-05
2.27992e-05
2.72868e-05
3.20284e-05
3.69365e-05
4.19223e-05
4.68987e-05
5.17832e-05
5.65006e-05
6.09893e-05
6.52123e-05
6.91813e-05
7.29944e-05
7.68799e-05
8.11926e-05
8.63776e-05
9.32167e-05
0.00010264
0.00011541
0.000132608
0.000155508
0.000185673
0.000225061
0.000276171
0.000342215
0.000427345
0.000536941
0.000677977
0.000859508
0.00109331
0.00139465
0.00178332
0.00228514
0.0029344
0.00377645
0.00485812
0.00623176
0.00808115
0.0104918
0.0136456
0.0244291
0.0419633
0.0595153
0.0768171
0.0936818
0.109951
0.125488
0.140192
0.153978
0.16677
0.178498
0.189097
0.198492
0.206612
0.213399
0.218819
0.222897
0.225752
0.2276
0.228717
0.229344
0.229676
0.229844
0.229927
0.229966
0.229985
0.229993
0.229997
0.229999
0.229999
0.23
0.23
0.23
0.23
0.23
0.23
0.23
0.23
0.23
5.48909e-10
2.39898e-09
5.51053e-09
1.07243e-08
1.94138e-08
3.37957e-08
5.73952e-08
9.57252e-08
1.5724e-07
2.54615e-07
4.06347e-07
6.38586e-07
9.86898e-07
1.49742e-06
2.22655e-06
3.23827e-06
4.59839e-06
6.36616e-06
8.58485e-06
1.1274e-05
1.44257e-05
1.80054e-05
2.19565e-05
2.62065e-05
3.06732e-05
3.52698e-05
3.99091e-05
4.45066e-05
4.8983e-05
5.32675e-05
5.73024e-05
6.10541e-05
6.45332e-05
6.78282e-05
7.11455e-05
7.48305e-05
7.93244e-05