/*--------------------------------*- C++ -*----------------------------------*\
  =========                 |
  \\      /  F ield         | OpenFOAM: The Open Source CFD Toolbox
   \\    /   O peration     | Website:  https://openfoam.org
    \\  /    A nd           | Version:  8
     \\/     M anipulation  |
\*---------------------------------------------------------------------------*/
FoamFile
{
    version     2.0;
    format      ascii;
    class       surfaceScalarField;
    location    "920/fluid";
    object      phi;
}
// * * * * * * * * * * * * * * * * * * * * * * * * * * * * * * * * * * * * * //

dimensions      [1 0 -1 0 0 0 0];

internalField   nonuniform List<scalar> 
7860
(
6.57258e-07
-1.77793e-08
6.54563e-07
-5.33381e-08
6.50728e-07
-8.87216e-08
6.45641e-07
-1.23826e-07
6.39167e-07
-1.58651e-07
6.31144e-07
-1.93151e-07
6.21384e-07
-2.27243e-07
6.09687e-07
-2.60804e-07
5.95849e-07
-2.93665e-07
5.79672e-07
-3.25605e-07
5.60986e-07
-3.56334e-07
5.39669e-07
-3.85485e-07
5.15697e-07
-4.12601e-07
4.8925e-07
-4.37137e-07
4.60609e-07
-4.58452e-07
4.30141e-07
-4.75884e-07
3.98319e-07
-4.88875e-07
3.65691e-07
-4.97135e-07
3.32819e-07
-5.00751e-07
3.00214e-07
-5.00213e-07
2.68282e-07
-4.9631e-07
2.37308e-07
-4.89952e-07
2.0747e-07
-4.81996e-07
1.78902e-07
-4.73138e-07
1.5165e-07
-4.63861e-07
1.25676e-07
-4.54462e-07
1.00911e-07
-4.45103e-07
7.72788e-08
-4.35849e-07
5.4709e-08
-4.26712e-07
3.31397e-08
-4.17672e-07
1.25183e-08
-4.08701e-07
-7.19503e-09
-3.99772e-07
-2.60287e-08
-3.90864e-07
-4.40121e-08
-3.81969e-07
-6.11762e-08
-3.73091e-07
-7.7544e-08
-3.64217e-07
-9.31352e-08
-3.55309e-07
-1.07969e-07
-3.46381e-07
-1.22063e-07
-3.37452e-07
-1.35438e-07
-3.28547e-07
-1.48111e-07
-3.19688e-07
-1.60101e-07
-3.10902e-07
-1.71429e-07
-3.02217e-07
-1.82114e-07
-2.9366e-07
-1.92177e-07
-2.85258e-07
-2.01637e-07
-2.7704e-07
-2.10516e-07
-2.6903e-07
-2.18835e-07
-2.61257e-07
-2.26615e-07
-2.53747e-07
-2.33877e-07
-2.46525e-07
-2.40644e-07
-2.39618e-07
-2.46939e-07
-2.33053e-07
-2.52785e-07
-2.2686e-07
-2.58209e-07
-2.21072e-07
-2.6324e-07
-2.15725e-07
-2.67912e-07
-2.10864e-07
-2.72269e-07
-2.06543e-07
-2.76364e-07
-2.02854e-07
-2.80256e-07
-1.99867e-07
-2.84019e-07
-1.97643e-07
-2.87788e-07
-1.96421e-07
-2.92001e-07
-1.96375e-07
-2.96907e-07
-1.98646e-07
-3.03763e-07
-2.09778e-07
-3.11666e-07
-2.22226e-07
-3.20427e-07
-2.35965e-07
-3.30098e-07
-2.51176e-07
-3.40797e-07
-2.68098e-07
-3.52684e-07
-2.87003e-07
-3.65977e-07
-3.08218e-07
-3.80971e-07
-3.32136e-07
-3.98058e-07
-3.59223e-07
-4.17769e-07
-3.90012e-07
-4.40788e-07
-4.25224e-07
-4.67974e-07
-4.65519e-07
-5.00302e-07
-5.10921e-07
-5.38663e-07
-5.6037e-07
-5.83337e-07
-6.10955e-07
-6.34081e-07
-6.57213e-07
-6.89706e-07
-6.92047e-07
-7.47862e-07
-7.09806e-07
-8.05625e-07
-7.09366e-07
-8.60491e-07
-6.93932e-07
-9.10904e-07
-6.6818e-07
-9.56207e-07
-6.36145e-07
-9.96216e-07
-6.00451e-07
-1.03081e-06
-5.62545e-07
-1.06034e-06
-5.23123e-07
-1.08535e-06
-4.82623e-07
-1.10636e-06
-4.41378e-07
-1.12387e-06
-3.99642e-07
-1.13834e-06
-3.57608e-07
-1.15016e-06
-3.15426e-07
-1.1597e-06
-2.73207e-07
-1.16728e-06
-2.31024e-07
-1.17318e-06
-1.88915e-07
-1.17763e-06
-1.46887e-07
-1.18083e-06
-1.04918e-07
-1.18292e-06
-6.29572e-08
-2.0996e-08
6.57905e-07
-1.7151e-08
6.55761e-07
-5.11936e-08
6.52022e-07
-8.49824e-08
6.46686e-07
-1.18491e-07
6.39686e-07
-1.51651e-07
6.30921e-07
-1.84386e-07
6.20277e-07
-2.16599e-07
6.07637e-07
-2.48164e-07
5.92897e-07
-2.78926e-07
5.75977e-07
-3.08684e-07
5.56829e-07
-3.37187e-07
5.35458e-07
-3.64114e-07
5.11932e-07
-3.89075e-07
4.86416e-07
-4.11621e-07
4.5914e-07
-4.31177e-07
4.30403e-07
-4.47148e-07
4.00575e-07
-4.59048e-07
3.70075e-07
-4.66636e-07
3.39331e-07
-4.70007e-07
3.08727e-07
-4.69611e-07
2.78574e-07
-4.66158e-07
2.49091e-07
-4.6047e-07
2.2042e-07
-4.53326e-07
1.92658e-07
-4.45377e-07
1.65858e-07
-4.37061e-07
1.40028e-07
-4.28634e-07
1.1516e-07
-4.20235e-07
9.12342e-08
-4.11924e-07
6.82298e-08
-4.03708e-07
4.61258e-08
-3.95569e-07
2.49022e-08
-3.87478e-07
4.53976e-09
-3.7941e-07
-1.49799e-08
-3.71345e-07
-3.36734e-08
-3.63276e-07
-5.15583e-08
-3.55206e-07
-6.86485e-08
-3.47127e-07
-8.49577e-08
-3.39e-07
-1.00501e-07
-3.30838e-07
-1.15295e-07
-3.22659e-07
-1.29356e-07
-3.14486e-07
-1.42703e-07
-3.06342e-07
-1.55354e-07
-2.98252e-07
-1.6733e-07
-2.90242e-07
-1.78651e-07
-2.82339e-07
-1.89339e-07
-2.74571e-07
-1.99417e-07
-2.66963e-07
-2.08907e-07
-2.59541e-07
-2.17833e-07
-2.52332e-07
-2.26221e-07
-2.4536e-07
-2.34095e-07
-2.38651e-07
-2.41483e-07
-2.3223e-07
-2.48414e-07
-2.26122e-07
-2.54919e-07
-2.20355e-07
-2.61036e-07
-2.14956e-07
-2.66804e-07
-2.09957e-07
-2.72274e-07
-2.05395e-07
-2.77508e-07
-2.0131e-07
-2.82581e-07
-1.97782e-07
-2.87597e-07
-1.94852e-07
-2.92699e-07
-1.92541e-07
-2.98118e-07
-1.91003e-07
-3.04134e-07
-1.90359e-07
-3.09876e-07
-1.92889e-07
-3.16901e-07
-2.02751e-07
-3.25155e-07
-2.1397e-07
-3.34538e-07
-2.26579e-07
-3.45042e-07
-2.40669e-07
-3.56743e-07
-2.56394e-07
-3.69773e-07
-2.7397e-07
-3.84315e-07
-2.93672e-07
-4.00604e-07
-3.15842e-07
-4.18934e-07
-3.40888e-07
-4.3965e-07
-3.69291e-07
-4.63132e-07
-4.01734e-07
-4.89857e-07
-4.38787e-07
-5.20355e-07
-4.80414e-07
-5.55137e-07
-5.25579e-07
-5.94518e-07
-5.71564e-07
-6.38572e-07
-6.1315e-07
-6.8672e-07
-6.43892e-07
-7.37422e-07
-6.59098e-07
-7.88551e-07
-6.58234e-07
-8.38158e-07
-6.44323e-07
-8.8493e-07
-6.21407e-07
-9.28223e-07
-5.92852e-07
-9.67778e-07
-5.60895e-07
-1.00344e-06
-5.26884e-07
-1.0352e-06
-4.91366e-07
-1.06315e-06
-4.54667e-07
-1.08748e-06
-4.1705e-07
-1.1084e-06
-3.78721e-07
-1.12617e-06
-3.39843e-07
-1.14104e-06
-3.00551e-07
-1.1533e-06
-2.60953e-07
-1.16318e-06
-2.21136e-07
-1.17093e-06
-1.81164e-07
-1.17675e-06
-1.41076e-07
-1.18077e-06
-1.00893e-07
-1.18309e-06
-6.06365e-08
-2.02662e-08
6.57606e-07
-1.62231e-08
6.54921e-07
-4.85092e-08
6.50492e-07
-8.05527e-08
6.44282e-07
-1.12281e-07
6.3625e-07
-1.43619e-07
6.26347e-07
-1.74483e-07
6.14526e-07
-2.04778e-07
6.0075e-07
-2.34388e-07
5.85e-07
-2.63176e-07
5.67286e-07
-2.9097e-07
5.4765e-07
-3.1755e-07
5.26169e-07
-3.42634e-07
5.02957e-07
-3.65863e-07
4.78129e-07
-3.86793e-07
4.51867e-07
-4.04917e-07
4.24438e-07
-4.19719e-07
3.96167e-07
-4.30778e-07
3.67411e-07
-4.37881e-07
3.38518e-07
-4.41116e-07
3.09796e-07
-4.4089e-07
2.81486e-07
-4.3785e-07
2.53756e-07
-4.32741e-07
2.26704e-07
-4.26275e-07
2.00358e-07
-4.19032e-07
1.74722e-07
-4.11427e-07
1.49807e-07
-4.03719e-07
1.25621e-07
-3.9605e-07
1.0217e-07
-3.88474e-07
7.94602e-08
-3.80999e-07
5.74945e-08
-3.73604e-07
3.62746e-08
-3.66259e-07
1.58004e-08
-3.58936e-07
-3.92986e-09
-3.51615e-07
-2.29202e-08
-3.44286e-07
-4.11772e-08
-3.3695e-07
-5.87049e-08
-3.296e-07
-7.55086e-08
-3.22197e-07
-9.15966e-08
-3.1475e-07
-1.06979e-07
-3.07277e-07
-1.21668e-07
-2.99797e-07
-1.35677e-07
-2.92333e-07
-1.49022e-07
-2.84907e-07
-1.61721e-07
-2.77544e-07
-1.73793e-07
-2.70268e-07
-1.85258e-07
-2.63106e-07
-1.96139e-07
-2.56081e-07
-2.06461e-07
-2.49219e-07
-2.16249e-07
-2.42544e-07
-2.25531e-07
-2.36079e-07
-2.34337e-07
-2.29845e-07
-2.42701e-07
-2.23867e-07
-2.50659e-07
-2.18165e-07
-2.58252e-07
-2.12763e-07
-2.65525e-07
-2.07683e-07
-2.72533e-07
-2.0295e-07
-2.79336e-07
-1.98592e-07
-2.86008e-07
-1.94638e-07
-2.92633e-07
-1.91158e-07
-2.99314e-07
-1.88171e-07
-3.06172e-07
-1.85683e-07
-3.13346e-07
-1.83829e-07
-3.20999e-07
-1.82708e-07
-3.27727e-07
-1.86146e-07
-3.35501e-07
-1.94975e-07
-3.44351e-07
-2.05117e-07
-3.54303e-07
-2.16625e-07
-3.65403e-07
-2.29565e-07
-3.77729e-07
-2.44065e-07
-3.91381e-07
-2.60313e-07
-4.06487e-07
-2.78562e-07
-4.2319e-07
-2.99134e-07
-4.41654e-07
-3.22418e-07
-4.62033e-07
-3.48905e-07
-4.84479e-07
-3.79281e-07
-5.09222e-07
-4.14035e-07
-5.3659e-07
-4.53036e-07
-5.67084e-07
-4.95074e-07
-6.01482e-07
-5.37155e-07
-6.40337e-07
-5.74286e-07
-6.83428e-07
-6.00793e-07
-7.29496e-07
-6.13025e-07
-7.76628e-07
-6.11098e-07
-8.2301e-07
-5.97939e-07
-8.67351e-07
-5.77065e-07
-9.08929e-07
-5.51273e-07
-9.47438e-07
-5.22386e-07
-9.82881e-07
-4.91441e-07
-1.01523e-06
-4.59021e-07
-1.04443e-06
-4.25458e-07
-1.07052e-06
-3.90965e-07
-1.09354e-06
-3.55695e-07
-1.11361e-06
-3.19773e-07
-1.13086e-06
-2.83308e-07
-1.14542e-06
-2.46393e-07
-1.15744e-06
-2.09112e-07
-1.16707e-06
-1.71533e-07
-1.17444e-06
-1.33709e-07
-1.17964e-06
-9.56884e-08
-1.18277e-06
-5.75147e-08
-1.92101e-08
6.57625e-07
-1.53149e-08
6.54877e-07
-4.57606e-08
6.50282e-07
-7.59582e-08
6.43839e-07
-1.05837e-07
6.35536e-07
-1.35317e-07
6.25364e-07
-1.64311e-07
6.13314e-07
-1.92727e-07
5.99382e-07
-2.20456e-07
5.83576e-07
-2.47371e-07
5.65919e-07
-2.73314e-07
5.46454e-07
-2.98085e-07
5.25248e-07
-3.21429e-07
5.02406e-07
-3.43021e-07
4.78075e-07
-3.62462e-07
4.52454e-07
-3.79297e-07
4.25795e-07
-3.93062e-07
3.98389e-07
-4.03374e-07
3.70546e-07
-4.10039e-07
3.42564e-07
-4.13136e-07
3.14708e-07
-4.13035e-07
2.87184e-07
-4.10328e-07
2.60144e-07
-4.05702e-07
2.3368e-07
-3.99814e-07
2.07848e-07
-3.93201e-07
1.8267e-07
-3.8625e-07
1.58156e-07
-3.79207e-07
1.34308e-07
-3.72203e-07
1.11126e-07
-3.65293e-07
8.86078e-08
-3.58482e-07
6.67544e-08
-3.51751e-07
4.55663e-08
-3.45071e-07
2.50445e-08
-3.38415e-07
5.18956e-09
-3.31761e-07
-1.39994e-08
-3.25098e-07
-3.25246e-08
-3.18425e-07
-5.03872e-08
-3.11738e-07
-6.75882e-08
-3.04996e-07
-8.41321e-08
-2.98207e-07
-1.00025e-07
-2.91384e-07
-1.15277e-07
-2.84547e-07
-1.29897e-07
-2.77713e-07
-1.439e-07
-2.70905e-07
-1.573e-07
-2.64144e-07
-1.70116e-07
-2.57453e-07
-1.82367e-07
-2.50856e-07
-1.94075e-07
-2.44374e-07
-2.05264e-07
-2.38031e-07
-2.1596e-07
-2.31848e-07
-2.26194e-07
-2.25846e-07
-2.35995e-07
-2.20044e-07
-2.45401e-07
-2.14462e-07
-2.54448e-07
-2.09118e-07
-2.6318e-07
-2.04031e-07
-2.71644e-07
-1.99219e-07
-2.79894e-07
-1.947e-07
-2.8799e-07
-1.90497e-07
-2.95997e-07
-1.86632e-07
-3.03988e-07
-1.83167e-07
-3.12052e-07
-1.80108e-07
-3.20277e-07
-1.77458e-07
-3.2876e-07
-1.75347e-07
-3.37592e-07
-1.7388e-07
-3.45316e-07
-1.7841e-07
-3.5391e-07
-1.86379e-07
-3.63425e-07
-1.95599e-07
-3.73923e-07
-2.06123e-07
-3.85474e-07
-2.18011e-07
-3.98155e-07
-2.31379e-07
-4.12057e-07
-2.46407e-07
-4.27278e-07
-2.63336e-07
-4.43929e-07
-2.82477e-07
-4.62133e-07
-3.04207e-07
-4.8201e-07
-3.29021e-07
-5.03715e-07
-3.57567e-07
-5.2752e-07
-3.90221e-07
-5.53819e-07
-4.26727e-07
-5.83147e-07
-4.65736e-07
-6.16104e-07
-5.04188e-07
-6.53061e-07
-5.3732e-07
-6.93728e-07
-5.60119e-07
-7.36977e-07
-5.69771e-07
-7.81211e-07
-5.66862e-07
-8.24937e-07
-5.54212e-07
-8.67072e-07
-5.34928e-07
-9.06953e-07
-5.11392e-07
-9.44223e-07
-4.85117e-07
-9.78715e-07
-4.56949e-07
-1.01038e-06
-4.27358e-07
-1.03921e-06
-3.96626e-07
-1.06524e-06
-3.64935e-07
-1.08851e-06
-3.32427e-07
-1.10907e-06
-2.99213e-07
-1.12698e-06
-2.65393e-07
-1.14232e-06
-2.31055e-07
-1.15515e-06
-1.96279e-07
-1.16555e-06
-1.61136e-07
-1.17357e-06
-1.25686e-07
-1.17927e-06
-8.99884e-08
-1.18268e-06
-5.41037e-08
-1.80737e-08
6.57563e-07
-1.43439e-08
6.54676e-07
-4.28739e-08
6.49886e-07
-7.11684e-08
6.43199e-07
-9.91497e-08
6.3462e-07
-1.26738e-07
6.24157e-07
-1.53849e-07
6.11825e-07
-1.80395e-07
5.97644e-07
-2.06275e-07
5.81646e-07
-2.31373e-07
5.63878e-07
-2.55545e-07
5.44405e-07
-2.78613e-07
5.23319e-07
-3.00343e-07
5.00737e-07
-3.2044e-07
4.76816e-07
-3.38542e-07
4.51748e-07
-3.5423e-07
4.25765e-07
-3.6708e-07
3.99128e-07
-3.76739e-07
3.72112e-07
-3.83024e-07
3.44977e-07
-3.86003e-07
3.17952e-07
-3.86013e-07
2.91217e-07
-3.83595e-07
2.64899e-07
-3.79386e-07
2.3908e-07
-3.73998e-07
2.13809e-07
-3.67931e-07
1.89109e-07
-3.61552e-07
1.64991e-07
-3.55091e-07
1.4146e-07
-3.48674e-07
1.18517e-07
-3.42352e-07
9.6166e-08
-3.36132e-07
7.44076e-08
-3.29994e-07
5.32447e-08
-3.2391e-07
3.26804e-08
-3.17852e-07
1.27168e-08
-3.11798e-07
-6.6448e-09
-3.05737e-07
-2.54046e-08
-2.99666e-07
-4.35626e-08
-2.9358e-07
-6.1118e-08
-2.87442e-07
-7.8073e-08
-2.81253e-07
-9.4432e-08
-2.75026e-07
-1.10202e-07
-2.68778e-07
-1.25391e-07
-2.62524e-07
-1.40011e-07
-2.56285e-07
-1.54075e-07
-2.5008e-07
-1.676e-07
-2.43929e-07
-1.80603e-07
-2.37853e-07
-1.93106e-07
-2.31872e-07
-2.05131e-07
-2.26007e-07
-2.16704e-07
-2.20276e-07
-2.27852e-07
-2.14698e-07
-2.38607e-07
-2.0929e-07
-2.49002e-07
-2.04069e-07
-2.59072e-07
-1.99049e-07
-2.68857e-07
-1.94247e-07
-2.784e-07
-1.89677e-07
-2.87747e-07
-1.85354e-07
-2.96949e-07
-1.81295e-07
-3.06062e-07
-1.7752e-07
-3.15142e-07
-1.74088e-07
-3.24263e-07
-1.70989e-07
-3.33491e-07
-1.68231e-07
-3.42903e-07
-1.65935e-07
-3.52566e-07
-1.64221e-07
-3.61267e-07
-1.69701e-07
-3.7067e-07
-1.76972e-07
-3.80835e-07
-1.85431e-07
-3.91848e-07
-1.95107e-07
-4.03795e-07
-2.0606e-07
-4.16761e-07
-2.18408e-07
-4.30833e-07
-2.32329e-07
-4.46103e-07
-2.48061e-07
-4.62667e-07
-2.65906e-07
-4.80635e-07
-2.86231e-07
-5.00106e-07
-3.09542e-07
-5.21227e-07
-3.36436e-07
-5.44256e-07
-3.67181e-07
-5.69559e-07
-4.01413e-07
-5.97628e-07
-4.37656e-07
-6.29004e-07
-4.72802e-07
-6.64003e-07
-5.02311e-07
-7.02346e-07
-5.2177e-07
-7.43031e-07
-5.29081e-07
-7.84687e-07
-5.25203e-07
-8.26049e-07
-5.12848e-07
-8.66194e-07
-4.94782e-07
-9.04538e-07
-4.73047e-07
-9.40736e-07
-4.48919e-07
-9.74582e-07
-4.23102e-07
-1.00595e-06
-3.95986e-07
-1.03478e-06
-3.67801e-07
-1.06102e-06
-3.38696e-07
-1.08466e-06
-3.08785e-07
-1.10571e-06
-2.78164e-07
-1.12419e-06
-2.46918e-07
-1.14011e-06
-2.15127e-07
-1.15353e-06
-1.82867e-07
-1.16446e-06
-1.50207e-07
-1.17293e-06
-1.17212e-07
-1.17897e-06
-8.39437e-08
-1.18261e-06
-5.04727e-08
-1.68575e-08
6.5756e-07
-1.33706e-08
6.54648e-07
-3.99612e-08
6.49808e-07
-6.63288e-08
6.43057e-07
-9.23987e-08
6.34412e-07
-1.18093e-07
6.23895e-07
-1.43332e-07
6.11531e-07
-1.68031e-07
5.97355e-07
-1.92099e-07
5.8141e-07
-2.15427e-07
5.63749e-07
-2.37885e-07
5.44444e-07
-2.59308e-07
5.23585e-07
-2.79485e-07
5.01291e-07
-2.98147e-07
4.77711e-07
-3.14962e-07
4.53031e-07
-3.2955e-07
4.2747e-07
-3.41521e-07
4.01279e-07
-3.50549e-07
3.74716e-07
-3.56463e-07
3.48032e-07
-3.59321e-07
3.21443e-07
-3.59426e-07
2.95122e-07
-3.57276e-07
2.69191e-07
-3.53457e-07
2.43727e-07
-3.48536e-07
2.18776e-07
-3.42982e-07
1.94358e-07
-3.37136e-07
1.70482e-07
-3.31217e-07
1.4715e-07
-3.25343e-07
1.2436e-07
-3.19564e-07
1.02111e-07
-3.13885e-07
8.04051e-08
-3.08289e-07
5.92419e-08
-3.02748e-07
3.8624e-08
-2.97235e-07
1.85534e-08
-2.91728e-07
-9.68562e-10
-2.86216e-07
-1.9942e-08
-2.80693e-07
-3.83662e-08
-2.75157e-07
-5.62396e-08
-2.69569e-07
-7.35633e-08
-2.6393e-07
-9.03401e-08
-2.5825e-07
-1.06575e-07
-2.52543e-07
-1.22276e-07
-2.46825e-07
-1.37453e-07
-2.4111e-07
-1.52116e-07
-2.35418e-07
-1.6628e-07
-2.29766e-07
-1.79962e-07
-2.24172e-07
-1.9318e-07
-2.18655e-07
-2.05955e-07
-2.13233e-07
-2.1831e-07
-2.07922e-07
-2.30271e-07
-2.02739e-07
-2.41864e-07
-1.97698e-07
-2.5312e-07
-1.92814e-07
-2.64068e-07
-1.88102e-07
-2.74743e-07
-1.83573e-07
-2.85179e-07
-1.79241e-07
-2.95413e-07
-1.75121e-07
-3.05484e-07
-1.71226e-07
-3.15431e-07
-1.67573e-07
-3.25295e-07
-1.64225e-07
-3.35144e-07
-1.6114e-07
-3.45008e-07
-1.58366e-07
-3.54971e-07
-1.55973e-07
-3.65116e-07
-1.5408e-07
-3.74842e-07
-1.59975e-07
-3.84978e-07
-1.66834e-07
-3.95704e-07
-1.74702e-07
-4.07153e-07
-1.83654e-07
-4.19428e-07
-1.9378e-07
-4.32621e-07
-2.0521e-07
-4.46822e-07
-2.18122e-07
-4.62123e-07
-2.32753e-07
-4.78623e-07
-2.49398e-07
-4.96431e-07
-2.68414e-07
-5.15654e-07
-2.90305e-07
-5.36475e-07
-3.15602e-07
-5.59171e-07
-3.44473e-07
-5.84124e-07
-3.76449e-07
-6.1182e-07
-4.09948e-07
-6.4274e-07
-4.41871e-07
-6.7708e-07
-4.67962e-07
-7.14439e-07
-4.84404e-07
-7.53793e-07
-4.89722e-07
-7.9387e-07
-4.85124e-07
-8.33553e-07
-4.73164e-07
-8.72056e-07
-4.56278e-07
-9.08885e-07
-4.36218e-07
-9.43749e-07
-4.14056e-07
-9.7647e-07
-3.90381e-07
-1.00694e-06
-3.65518e-07
-1.03508e-06
-3.39661e-07
-1.06084e-06
-3.12936e-07
-1.08418e-06
-2.85441e-07
-1.10509e-06
-2.57259e-07
-1.12354e-06
-2.28467e-07
-1.13953e-06
-1.99137e-07
-1.15306e-06
-1.69338e-07
-1.16412e-06
-1.39139e-07
-1.17273e-06
-1.08602e-07
-1.17889e-06
-7.77895e-08
-1.18259e-06
-4.67749e-08
-1.56218e-08
6.57551e-07
-1.2388e-08
6.54618e-07
-3.70281e-08
6.49751e-07
-6.14616e-08
6.42968e-07
-8.56161e-08
6.34294e-07
-1.09418e-07
6.23755e-07
-1.32793e-07
6.11386e-07
-1.55663e-07
5.97229e-07
-1.77942e-07
5.81332e-07
-1.99531e-07
5.6376e-07
-2.20312e-07
5.44587e-07
-2.40135e-07
5.2391e-07
-2.58808e-07
5.01848e-07
-2.76085e-07
4.78549e-07
-2.91664e-07
4.54194e-07
-3.05195e-07
4.28993e-07
-3.16321e-07
4.03183e-07
-3.2474e-07
3.77007e-07
-3.3029e-07
3.50702e-07
-3.33018e-07
3.24473e-07
-3.332e-07
2.98484e-07
-3.3129e-07
2.72854e-07
-3.27829e-07
2.47656e-07
-3.23342e-07
2.22937e-07
-3.18265e-07
1.98715e-07
-3.12917e-07
1.74999e-07
-3.07503e-07
1.5179e-07
-3.02135e-07
1.29085e-07
-2.9686e-07
1.06882e-07
-2.91684e-07
8.51809e-08
-2.86589e-07
6.3981e-08
-2.81549e-07
4.32837e-08
-2.76538e-07
2.30904e-08
-2.71536e-07
3.40235e-09
-2.66529e-07
-1.57801e-08
-2.61512e-07
-3.44568e-08
-2.56481e-07
-5.26261e-08
-2.51401e-07
-7.02879e-08
-2.46269e-07
-8.74442e-08
-2.41095e-07
-1.04099e-07
-2.35889e-07
-1.20258e-07
-2.30666e-07
-1.35929e-07
-2.2544e-07
-1.51122e-07
-2.20225e-07
-1.6585e-07
-2.15039e-07
-1.80126e-07
-2.09897e-07
-1.93967e-07
-2.04815e-07
-2.07391e-07
-1.9981e-07
-2.20419e-07
-1.94895e-07
-2.33072e-07
-1.90087e-07
-2.45373e-07
-1.85397e-07
-2.57349e-07
-1.80839e-07
-2.69025e-07
-1.76426e-07
-2.8043e-07
-1.7217e-07
-2.9159e-07
-1.68082e-07
-3.02533e-07
-1.64178e-07
-3.13289e-07
-1.60471e-07
-3.2388e-07
-1.56982e-07
-3.34329e-07
-1.53776e-07
-3.44678e-07
-1.50791e-07
-3.54929e-07
-1.48116e-07
-3.65103e-07
-1.45798e-07
-3.75219e-07
-1.43951e-07
-3.85594e-07
-1.49597e-07
-3.96356e-07
-1.56069e-07
-4.07631e-07
-1.63424e-07
-4.19539e-07
-1.71742e-07
-4.32189e-07
-1.81127e-07
-4.45676e-07
-1.91718e-07
-4.60097e-07
-2.03698e-07
-4.75548e-07
-2.17298e-07
-4.92138e-07
-2.32807e-07
-5.09984e-07
-2.50568e-07
-5.29216e-07
-2.71076e-07
-5.50026e-07
-2.9479e-07
-5.727e-07
-3.21791e-07
-5.97608e-07
-3.51528e-07
-6.25187e-07
-3.82357e-07
-6.55811e-07
-4.11236e-07
-6.89552e-07
-4.34212e-07
-7.25935e-07
-4.48014e-07
-7.63989e-07
-4.51663e-07
-8.02589e-07
-4.46522e-07
-8.40775e-07
-4.34975e-07
-8.77875e-07
-4.19178e-07
-9.13452e-07
-4.0064e-07
-9.47238e-07
-3.8027e-07
-9.79057e-07
-3.58562e-07
-1.00879e-06
-3.35787e-07
-1.03634e-06
-3.12107e-07
-1.06165e-06
-2.87627e-07
-1.08466e-06
-2.6243e-07
-1.10533e-06
-2.36587e-07
-1.12363e-06
-2.10167e-07
-1.13954e-06
-1.83233e-07
-1.15303e-06
-1.5585e-07
-1.16409e-06
-1.2808e-07
-1.1727e-06
-9.99832e-08
-1.17887e-06
-7.16217e-08
-1.18258e-06
-4.3066e-08
-1.43816e-08
6.57554e-07
-1.14087e-08
6.54628e-07
-3.41016e-08
6.49771e-07
-5.66045e-08
6.43004e-07
-7.88498e-08
6.34355e-07
-1.00769e-07
6.23855e-07
-1.22293e-07
6.11543e-07
-1.4335e-07
5.97463e-07
-1.63862e-07
5.81669e-07
-1.83737e-07
5.64225e-07
-2.02869e-07
5.4521e-07
-2.2112e-07
5.24718e-07
-2.38316e-07
5.02867e-07
-2.54234e-07
4.79801e-07
-2.68598e-07
4.55693e-07
-2.81089e-07
4.3075e-07
-2.91379e-07
4.05197e-07
-2.99189e-07
3.79273e-07
-3.04368e-07
3.53207e-07
-3.06955e-07
3.27201e-07
-3.07196e-07
3.01416e-07
-3.05507e-07
2.75968e-07
-3.02384e-07
2.50932e-07
-2.98309e-07
2.26352e-07
-2.93687e-07
2.02247e-07
-2.88814e-07
1.78622e-07
-2.83881e-07
1.55478e-07
-2.78993e-07
1.32809e-07
-2.74194e-07
1.10613e-07
-2.6949e-07
8.8887e-08
-2.64864e-07
6.7629e-08
-2.60292e-07
4.68395e-08
-2.5575e-07
2.65192e-08
-2.51217e-07
6.66884e-09
-2.46679e-07
-1.27113e-08
-2.42132e-07
-3.16212e-08
-2.37572e-07
-5.00589e-08
-2.32964e-07
-6.80237e-08
-2.28305e-07
-8.55168e-08
-2.23603e-07
-1.02541e-07
-2.18867e-07
-1.191e-07
-2.14108e-07
-1.352e-07
-2.0934e-07
-1.5085e-07
-2.04577e-07
-1.6606e-07
-1.9983e-07
-1.80841e-07
-1.95117e-07
-1.95208e-07
-1.90449e-07
-2.09176e-07
-1.85843e-07
-2.22763e-07
-1.8131e-07
-2.35987e-07
-1.76864e-07
-2.48869e-07
-1.72517e-07
-2.61429e-07
-1.6828e-07
-2.73691e-07
-1.64165e-07
-2.85678e-07
-1.60184e-07
-2.97414e-07
-1.56347e-07
-3.08923e-07
-1.52669e-07
-3.2023e-07
-1.49165e-07
-3.3135e-07
-1.45863e-07
-3.42313e-07
-1.42814e-07
-3.53128e-07
-1.39977e-07
-3.63791e-07
-1.37453e-07
-3.74271e-07
-1.35317e-07
-3.84386e-07
-1.33807e-07
-3.94939e-07
-1.39041e-07
-4.05975e-07
-1.45028e-07
-4.17566e-07
-1.51827e-07
-4.29791e-07
-1.59509e-07
-4.42733e-07
-1.68175e-07
-4.56478e-07
-1.7796e-07
-4.71119e-07
-1.89041e-07
-4.86755e-07
-2.01644e-07
-5.035e-07
-2.16041e-07
-5.21479e-07
-2.32567e-07
-5.40841e-07
-2.51691e-07
-5.61807e-07
-2.73804e-07
-5.8467e-07
-2.98915e-07
-6.09783e-07
-3.26403e-07
-6.37531e-07
-3.54597e-07
-6.68197e-07
-3.80559e-07
-7.01729e-07
-4.00671e-07
-7.37574e-07
-4.12163e-07
-7.74773e-07
-4.14459e-07
-8.12295e-07
-4.08998e-07
-8.49298e-07
-3.97971e-07
-8.85202e-07
-3.83274e-07
-9.19634e-07
-3.66207e-07
-9.52363e-07
-3.47541e-07
-9.83232e-07
-3.27693e-07
-1.01213e-06
-3.06891e-07
-1.03896e-06
-2.85271e-07
-1.06367e-06
-2.62923e-07
-1.08618e-06
-2.39919e-07
-1.10645e-06
-2.16321e-07
-1.12443e-06
-1.92187e-07
-1.14008e-06
-1.67577e-07
-1.15338e-06
-1.42548e-07
-1.1643e-06
-1.17159e-07
-1.17282e-06
-9.14629e-08
-1.17893e-06
-6.55198e-08
-1.1826e-06
-3.93961e-08
-1.31552e-08
6.57558e-07
-1.04331e-08
6.54643e-07
-3.11868e-08
6.49806e-07
-5.17675e-08
6.4307e-07
-7.2113e-08
6.34461e-07
-9.21603e-08
6.24014e-07
-1.11846e-07
6.11769e-07
-1.31105e-07
5.97773e-07
-1.49865e-07
5.82081e-07
-1.68045e-07
5.64758e-07
-1.85547e-07
5.45884e-07
-2.02246e-07
5.25552e-07
-2.17985e-07
5.03879e-07
-2.32562e-07
4.81006e-07
-2.45726e-07
4.57101e-07
-2.57186e-07
4.32365e-07
-2.66643e-07
4.07017e-07
-2.73843e-07
3.81289e-07
-2.78642e-07
3.55404e-07
-2.81072e-07
3.29561e-07
-2.81356e-07
3.03919e-07
-2.79869e-07
2.78595e-07
-2.77062e-07
2.53663e-07
-2.7338e-07
2.29167e-07
-2.69194e-07
2.05126e-07
-2.64776e-07
1.81545e-07
-2.60303e-07
1.58424e-07
-2.55873e-07
1.35756e-07
-2.51528e-07
1.13537e-07
-2.47272e-07
9.17617e-08
-2.43091e-07
7.04292e-08
-2.38961e-07
4.95381e-08
-2.3486e-07
2.90884e-08
-2.30768e-07
9.08066e-09
-2.26673e-07
-1.0485e-08
-2.22568e-07
-2.96087e-08
-2.18449e-07
-4.82881e-08
-2.14285e-07
-6.6522e-08
-2.10072e-07
-8.43103e-08
-2.05815e-07
-1.01655e-07
-2.01523e-07
-1.18558e-07
-1.97206e-07
-1.35024e-07
-1.92875e-07
-1.51061e-07
-1.88541e-07
-1.66675e-07
-1.84217e-07
-1.81878e-07
-1.79915e-07
-1.96679e-07
-1.75649e-07
-2.11093e-07
-1.7143e-07
-2.25132e-07
-1.67271e-07
-2.38814e-07
-1.63183e-07
-2.52154e-07
-1.59177e-07
-2.65172e-07
-1.55264e-07
-2.77886e-07
-1.51453e-07
-2.90315e-07
-1.47756e-07
-3.02481e-07
-1.44183e-07
-3.14404e-07
-1.40747e-07
-3.26107e-07
-1.37464e-07
-3.37606e-07
-1.34364e-07
-3.48933e-07
-1.31489e-07
-3.60101e-07
-1.28809e-07
-3.71119e-07
-1.26436e-07
-3.8197e-07
-1.24466e-07
-3.92179e-07
-1.23564e-07
-4.02891e-07
-1.28326e-07
-4.14129e-07
-1.33789e-07
-4.25944e-07
-1.40013e-07
-4.384e-07
-1.47056e-07
-4.51571e-07
-1.55008e-07
-4.65539e-07
-1.63998e-07
-4.80393e-07
-1.74194e-07
-4.96235e-07
-1.85808e-07
-5.13185e-07
-1.99097e-07
-5.31376e-07
-2.14379e-07
-5.50972e-07
-2.32093e-07
-5.72206e-07
-2.52562e-07
-5.9537e-07
-2.75739e-07
-6.20799e-07
-3.0096e-07
-6.48818e-07
-3.26566e-07
-6.79605e-07
-3.49762e-07
-7.12995e-07
-3.67272e-07
-7.48375e-07
-3.76776e-07
-7.84826e-07
-3.78005e-07
-8.21413e-07
-3.72408e-07
-8.57401e-07
-3.61982e-07
-8.92284e-07
-3.48389e-07
-9.2574e-07
-3.32752e-07
-9.57558e-07
-3.15723e-07
-9.87595e-07
-2.97655e-07
-1.01574e-06
-2.78743e-07
-1.04191e-06
-2.591e-07
-1.06603e-06
-2.38803e-07
-1.08804e-06
-2.17914e-07
-1.10787e-06
-1.96486e-07
-1.12549e-06
-1.74571e-07
-1.14084e-06
-1.52222e-07
-1.1539e-06
-1.29491e-07
-1.16463e-06
-1.06429e-07
-1.17301e-06
-8.30875e-08
-1.17901e-06
-5.95194e-08
-1.18262e-06
-3.57869e-08
-1.19492e-08
6.57564e-07
-9.46342e-09
6.54666e-07
-2.8289e-08
6.49857e-07
-4.69584e-08
6.43159e-07
-6.54153e-08
6.34602e-07
-8.36024e-08
6.24218e-07
-1.01463e-07
6.12049e-07
-1.18936e-07
5.98143e-07
-1.35959e-07
5.82555e-07
-1.52457e-07
5.6535e-07
-1.68342e-07
5.46607e-07
-1.83503e-07
5.26419e-07
-1.97797e-07
5.04898e-07
-2.11042e-07
4.82183e-07
-2.23011e-07
4.58439e-07
-2.33443e-07
4.33861e-07
-2.42066e-07
4.08663e-07
-2.48647e-07
3.83074e-07
-2.53055e-07
3.57313e-07
-2.55314e-07
3.31577e-07
-2.55623e-07
3.06026e-07
-2.54321e-07
2.80776e-07
-2.51816e-07
2.55903e-07
-2.4851e-07
2.31451e-07
-2.44744e-07
2.07438e-07
-2.40766e-07
1.8387e-07
-2.36738e-07
1.60744e-07
-2.3275e-07
1.38054e-07
-2.2884e-07
1.15794e-07
-2.25014e-07
9.39589e-08
-2.21257e-07
7.25451e-08
-2.17549e-07
5.15511e-08
-2.13868e-07
3.09767e-08
-2.10195e-07
1.08219e-08
-2.06519e-07
-8.91301e-09
-2.02834e-07
-2.8228e-08
-1.99135e-07
-4.71208e-08
-1.95394e-07
-6.55891e-08
-1.91605e-07
-8.36322e-08
-1.87773e-07
-1.0125e-07
-1.83906e-07
-1.18445e-07
-1.80013e-07
-1.35219e-07
-1.76102e-07
-1.51578e-07
-1.72183e-07
-1.67527e-07
-1.68269e-07
-1.83075e-07
-1.64369e-07
-1.98229e-07
-1.60496e-07
-2.13002e-07
-1.56659e-07
-2.27403e-07
-1.52871e-07
-2.41447e-07
-1.49141e-07
-2.55146e-07
-1.45479e-07
-2.68517e-07
-1.41894e-07
-2.81574e-07
-1.38397e-07
-2.94334e-07
-1.34996e-07
-3.06815e-07
-1.31703e-07
-3.19035e-07
-1.28528e-07
-3.31013e-07
-1.25487e-07
-3.42769e-07
-1.2261e-07
-3.54327e-07
-1.19932e-07
-3.65708e-07
-1.17429e-07
-3.76945e-07
-1.152e-07
-3.88089e-07
-1.13324e-07
-3.98508e-07
-1.13095e-07
-4.09432e-07
-1.17395e-07
-4.20874e-07
-1.22337e-07
-4.32893e-07
-1.2798e-07
-4.45554e-07
-1.34379e-07
-4.58929e-07
-1.41615e-07
-4.73099e-07
-1.49809e-07
-4.88156e-07
-1.59117e-07
-5.04207e-07
-1.69738e-07
-5.21378e-07
-1.81909e-07
-5.39811e-07
-1.95928e-07
-5.5969e-07
-2.12199e-07
-5.81255e-07
-2.30985e-07
-6.0479e-07
-2.52191e-07
-6.30605e-07
-2.75133e-07
-6.58963e-07
-2.98195e-07
-6.89949e-07
-3.18765e-07
-7.233e-07
-3.33913e-07
-7.58354e-07
-3.41716e-07
-7.94224e-07
-3.42132e-07
-8.30056e-07
-3.36573e-07
-8.65199e-07
-3.26838e-07
-8.99212e-07
-3.14376e-07
-9.31811e-07
-3.00152e-07
-9.62812e-07
-2.84722e-07
-9.92084e-07
-2.68384e-07
-1.01953e-06
-2.51301e-07
-1.04505e-06
-2.33572e-07
-1.0686e-06
-2.15261e-07
-1.09009e-06
-1.96421e-07
-1.10947e-06
-1.771e-07
-1.1267e-06
-1.57344e-07
-1.14173e-06
-1.37197e-07
-1.15451e-06
-1.16708e-07
-1.16502e-06
-9.59207e-08
-1.17322e-06
-7.48819e-08
-1.1791e-06
-5.36398e-08
-1.18264e-06
-3.22503e-08
-1.07678e-08
6.5757e-07
-8.4996e-09
6.54689e-07
-2.54085e-08
6.49909e-07
-4.21779e-08
6.43251e-07
-5.87573e-08
6.34744e-07
-7.50955e-08
6.24423e-07
-9.11411e-08
6.12327e-07
-1.06841e-07
5.98505e-07
-1.22137e-07
5.83012e-07
-1.36964e-07
5.65912e-07
-1.51243e-07
5.47283e-07
-1.64874e-07
5.27217e-07
-1.7773e-07
5.05823e-07
-1.89649e-07
4.83238e-07
-2.00427e-07
4.59623e-07
-2.0983e-07
4.35169e-07
-2.17613e-07
4.10087e-07
-2.23567e-07
3.84602e-07
-2.27571e-07
3.5893e-07
-2.29645e-07
3.33269e-07
-2.29965e-07
3.07776e-07
-2.28831e-07
2.82571e-07
-2.26613e-07
2.57728e-07
-2.23671e-07
2.33293e-07
-2.20311e-07
2.09285e-07
-2.1676e-07
1.8571e-07
-2.13164e-07
1.62562e-07
-2.09605e-07
1.39837e-07
-2.06117e-07
1.17526e-07
-2.02705e-07
9.56247e-08
-1.99357e-07
7.41282e-08
-1.96054e-07
5.30347e-08
-1.92775e-07
3.23433e-08
-1.89505e-07
1.20543e-08
-1.86231e-07
-7.83221e-09
-1.82948e-07
-2.7316e-08
-1.79652e-07
-4.63943e-08
-1.76316e-07
-6.50643e-08
-1.72936e-07
-8.33242e-08
-1.69514e-07
-1.01173e-07
-1.66058e-07
-1.18612e-07
-1.62575e-07
-1.35642e-07
-1.59072e-07
-1.52267e-07
-1.5556e-07
-1.68491e-07
-1.52046e-07
-1.84319e-07
-1.48542e-07
-1.99759e-07
-1.45057e-07
-2.14819e-07
-1.41601e-07
-2.29508e-07
-1.38183e-07
-2.43837e-07
-1.34813e-07
-2.57817e-07
-1.31499e-07
-2.71462e-07
-1.28251e-07
-2.84784e-07
-1.25076e-07
-2.97798e-07
-1.21984e-07
-3.10518e-07
-1.18984e-07
-3.22961e-07
-1.16086e-07
-3.35144e-07
-1.13305e-07
-3.47088e-07
-1.10667e-07
-3.58817e-07
-1.08204e-07
-3.70353e-07
-1.05893e-07
-3.81732e-07
-1.03822e-07
-3.92991e-07
-1.02073e-07
-4.03653e-07
-1.02396e-07
-4.14794e-07
-1.0625e-07
-4.26443e-07
-1.10686e-07
-4.38661e-07
-1.15761e-07
-4.51518e-07
-1.21521e-07
-4.65087e-07
-1.28045e-07
-4.79452e-07
-1.35443e-07
-4.9471e-07
-1.43858e-07
-5.10972e-07
-1.53473e-07
-5.2837e-07
-1.64504e-07
-5.47059e-07
-1.77231e-07
-5.67233e-07
-1.92014e-07
-5.89141e-07
-2.09065e-07
-6.13062e-07
-2.28257e-07
-6.39274e-07
-2.48908e-07
-6.6798e-07
-2.69477e-07
-6.99174e-07
-2.8756e-07
-7.3251e-07
-3.00568e-07
-7.67294e-07
-3.06926e-07
-8.02672e-07
-3.0675e-07
-8.37866e-07
-3.01377e-07
-8.72293e-07
-2.92409e-07
-9.05565e-07
-2.81103e-07
-9.37431e-07
-2.68286e-07
-9.67724e-07
-2.54428e-07
-9.96325e-07
-2.39782e-07
-1.02314e-06
-2.24487e-07
-1.04809e-06
-2.08623e-07
-1.0711e-06
-1.92249e-07
-1.09211e-06
-1.75408e-07
-1.11107e-06
-1.58143e-07
-1.12792e-06
-1.40493e-07
-1.14262e-06
-1.22497e-07
-1.15513e-06
-1.04198e-07
-1.16542e-06
-8.56356e-08
-1.17345e-06
-6.68499e-08
-1.1792e-06
-4.78843e-08
-1.18267e-06
-2.87887e-08
-9.61157e-09
6.57576e-07
-7.54148e-09
6.54712e-07
-2.25447e-08
6.49959e-07
-3.74249e-08
6.43339e-07
-5.21373e-08
6.3488e-07
-6.66366e-08
6.24616e-07
-8.08774e-08
6.12588e-07
-9.48128e-08
5.98842e-07
-1.08392e-07
5.83434e-07
-1.21556e-07
5.66426e-07
-1.34236e-07
5.47895e-07
-1.46343e-07
5.27931e-07
-1.57767e-07
5.06643e-07
-1.68361e-07
4.84164e-07
-1.77948e-07
4.60651e-07
-1.86319e-07
4.36293e-07
-1.93257e-07
4.11299e-07
-1.98574e-07
3.85888e-07
-2.02163e-07
3.60279e-07
-2.04039e-07
3.34666e-07
-2.04355e-07
3.0921e-07
-2.03378e-07
2.84027e-07
-2.01433e-07
2.59196e-07
-1.98843e-07
2.34762e-07
-1.9588e-07
2.10745e-07
-1.92746e-07
1.87149e-07
-1.89571e-07
1.63972e-07
-1.86429e-07
1.41204e-07
-1.83352e-07
1.1884e-07
-1.80342e-07
9.6872e-08
-1.77391e-07
7.52962e-08
-1.74479e-07
5.411e-08
-1.7159e-07
3.33126e-08
-1.68708e-07
1.2904e-08
-1.65823e-07
-7.11558e-09
-1.62929e-07
-2.67456e-08
-1.60023e-07
-4.59828e-08
-1.5708e-07
-6.48239e-08
-1.54095e-07
-8.32663e-08
-1.51073e-07
-1.01308e-07
-1.48017e-07
-1.18949e-07
-1.44935e-07
-1.3619e-07
-1.41833e-07
-1.53032e-07
-1.38719e-07
-1.69478e-07
-1.35601e-07
-1.85533e-07
-1.32489e-07
-2.01201e-07
-1.2939e-07
-2.1649e-07
-1.26313e-07
-2.31406e-07
-1.23267e-07
-2.4596e-07
-1.20261e-07
-2.6016e-07
-1.17301e-07
-2.74017e-07
-1.14395e-07
-2.87543e-07
-1.11552e-07
-3.0075e-07
-1.08778e-07
-3.13652e-07
-1.06083e-07
-3.26263e-07
-1.03476e-07
-3.38599e-07
-1.00969e-07
-3.5068e-07
-9.85872e-08