/*--------------------------------*- C++ -*----------------------------------*\
  =========                 |
  \\      /  F ield         | OpenFOAM: The Open Source CFD Toolbox
   \\    /   O peration     | Website:  https://openfoam.org
    \\  /    A nd           | Version:  8
     \\/     M anipulation  |
\*---------------------------------------------------------------------------*/
FoamFile
{
    version     2.0;
    format      ascii;
    class       volScalarField;
    location    "920/fluid";
    object      Qdot;
}
// * * * * * * * * * * * * * * * * * * * * * * * * * * * * * * * * * * * * * //

dimensions      [1 -1 -3 0 0 0 0];

internalField   nonuniform List<scalar> 
4000
(
-2.65808e-07
-2.05169e-17
0
7.53103e-12
0
3.84712e-16
0
1.17246e-19
0
1.44131e-10
6.98137e-15
0
6.05864e-10
2.91451e-14
-1.2406e-09
-2.99433e-17
5.99621e-14
4.17392e-09
3.24589e-08
5.30877e-07
4.37712e-06
5.73759e-05
0.000678836
0.00668124
0.0536311
0.350724
1.88561
8.456
32.1538
105.361
301.918
766.233
1741.48
3580.41
6719.52
11638.8
18854.4
28954.8
42742.8
61400.1
86616.5
120640
166392
227732
309789
419469
565955
761266
1.02105e+06
1.36671e+06
1.82563e+06
2.43375e+06
3.23827e+06
4.30123e+06
5.70434e+06
7.55559e+06
9.99836e+06
1.31811e+07
1.73374e+07
2.29881e+07
3.05008e+07
7.12526e+07
3.76865e+08
2.95351e+07
2.12604e+07
1.5118e+07
1.05996e+07
7.31339e+06
4.95585e+06
3.29239e+06
2.14302e+06
1.37136e+06
876808
562978
149938
11259.6
310.713
4.4017
0.0418471
0.000428134
8.05954e-06
3.79608e-07
4.24373e-08
9.72573e-09
2.75629e-09
1.03181e-09
3.97514e-10
2.00338e-10
7.80437e-11
3.10257e-11
1.36152e-11
5.86001e-12
2.21365e-12
1.06127e-12
6.30507e-12
1.6626e-13
7.58972e-14
2.6579e-14
8.85622e-15
1.65579e-15
-4.87633e-18
2.93901e-21
-8.55554e-17
0
-3.68942e-16
3.80956e-16
-5.98431e-11
3.42039e-07
1.38375e-10
-3.35082e-15
0
0
5.88183e-10
0
-8.19076e-18
-3.30932e-17
2.45151e-09
1.14831e-13
-3.78163e-07
2.84734e-07
3.73331e-06
5.13791e-05
0.000611538
0.00606796
0.0493045
0.326999
1.78403
8.11645
31.2855
103.812
300.902
771.423
1767.97
3659.4
6903.79
11997.7
19465.1
29888.4
44052
63110.5
88723.5
123105
169168
230780
313101
423063
569762
765000
1.02578e+06
1.37261e+06
1.83316e+06
2.44376e+06
3.25224e+06
4.32161e+06
5.73513e+06
7.60321e+06
1.0073e+07
1.32969e+07
1.75184e+07
2.32773e+07
3.09597e+07
1.11585e+08
3.41428e+08
2.93884e+07
2.10792e+07
1.49395e+07
1.04392e+07
7.17651e+06
4.84349e+06
3.20345e+06
2.07547e+06
1.323e+06
845858
518444
112686
6786.92
162.224
2.07528
0.019348
0.000217283
4.86985e-06
2.75651e-07
3.56134e-08
8.35995e-09
2.87691e-09
1.1079e-09
4.7454e-10
1.69309e-10
8.20784e-11
3.54984e-11
1.32634e-11
6.63137e-12
1.97568e-12
1.04634e-12
4.37309e-13
1.6498e-13
6.92008e-14
2.51256e-14
9.25561e-15
1.47556e-15
2.65197e-07
2.03875e-17
0
0
0
5.38014e-20
7.68838e-16
-1.12826e-19
-3.40733e-07
1.11484e-10
6.59986e-15
0
-1.93553e-18
0
-7.88003e-18
-3.18086e-17
4.27113e-09
-2.94862e-15
2.23117e-08
4.58536e-07
3.45589e-06
4.73605e-05
0.000565471
0.00563548
0.0461697
0.309573
1.71016
7.88351
30.7931
103.511
303.776
787.942
1824.32
3806.12
7229.32
12620.6
20522.6
31517.2
46371.2
66212.1
92674.1
127945
174957
237621
321178
432457
580359
778455
1.04227e+06
1.39318e+06
1.8593e+06
2.47773e+06
3.29745e+06
4.38327e+06
5.82118e+06
7.72578e+06
1.02504e+07
1.35527e+07
1.78919e+07
2.38295e+07
3.17632e+07
1.8135e+08
2.75542e+08
2.94648e+07
2.09907e+07
1.47752e+07
1.02531e+07
6.99872e+06
4.68905e+06
3.07827e+06
1.9803e+06
1.25612e+06
804938
443638
75086.2
3645.72
77.407
0.936609
0.00907178
0.000116486
3.12523e-06
2.0661e-07
2.9342e-08
7.33657e-09
2.43481e-09
9.51184e-10
3.93691e-10
1.57386e-10
7.22998e-11
3.28218e-11
1.29278e-11
6.48498e-12
2.27508e-12
9.71435e-13
4.31993e-13
1.63495e-13
6.8776e-14
2.80942e-14
8.83564e-15
-5.06344e-12
0
-2.03087e-17
2.87272e-07
0
-1.23305e-11
-2.82242e-11
7.56779e-16
1.54388e-15
-1.32161e-10
0
2.71216e-10
0
4.49317e-10
2.64411e-14
-2.03305e-09
-3.46858e-17
-2.80027e-16
-2.86917e-15
8.45871e-09
4.43411e-07
3.22979e-06
4.43221e-05
0.000530426
0.0053232
0.0440329
0.298609
1.66991
7.79556
30.8351
104.937
311.645
817.537
1912.34
4021.89
7683.92
13471.7
21949.3
33699.3
49471.8
70374.3
98022.1
134611
183130
247591
333209
446918
598666
801071
1.07063e+06
1.42914e+06
1.90544e+06
2.53763e+06
3.37614e+06
4.48793e+06
5.96206e+06
7.91746e+06
1.05136e+07
1.39081e+07
1.83759e+07
2.45044e+07
3.27108e+07
2.65076e+08
1.94334e+08
2.94552e+07
2.08238e+07
1.45397e+07
1.00056e+07
6.77148e+06
4.49754e+06
2.92741e+06
1.86898e+06
1.18042e+06
760096
355520
46551.6
1869.85
35.5352
0.409016
0.00413091
6.06169e-05
1.94088e-06
1.49827e-07
2.43882e-08
6.08884e-09
2.25602e-09
8.73035e-10
3.59703e-10
1.54118e-10
7.08758e-11
3.47348e-11
1.44584e-11
4.67291e-13
2.46034e-12
9.6147e-13
4.28425e-13
1.6255e-13
6.22977e-14
2.50047e-14
8.84028e-15
7.453e-13
2.64458e-07
0
6.01724e-21
-1.73034e-16
0
3.64496e-16
0
5.18741e-11
0
-3.30891e-07
-4.50978e-19
0
-1.27486e-14
-3.4097e-07
-7.40837e-18
-3.7296e-17
-2.7826e-16
-3.5528e-07
1.63362e-08
2.31507e-07
3.26607e-06
4.26575e-05
0.000508614
0.00513657
0.0428784
0.293871
1.66219
7.8505
31.4161
108.143
324.735
860.88
2033.32
4308.2
8266.76
14542
23716.3
36369.1
53230
75391.7
104458
142668
193093
259644
347776
465145
622339
831461
1.10963e+06
1.4794e+06
1.97056e+06
2.62251e+06
3.48747e+06
4.63481e+06
6.1569e+06
8.17716e+06
1.08556e+07
1.43472e+07
1.89645e+07
2.53102e+07
3.37954e+07
3.46867e+08
1.11842e+08
2.92097e+07
2.04604e+07
1.41564e+07
9.6549e+06
6.47687e+06
4.26499e+06
2.75342e+06
1.74572e+06
1.09906e+06
710461
255421
27833.7
955.922
16.5579
0.18504
0.00198378
3.34694e-05
1.26854e-06
1.13451e-07
2.04874e-08
5.52444e-09
2.10531e-09
7.98132e-10
3.51573e-10
1.58422e-10
6.25844e-11
3.59863e-11
1.25123e-11
5.44705e-12
7.877e-12
9.52016e-13
1.25211e-12
1.3648e-13
5.49381e-12
2.49776e-14
8.10973e-15
5.05651e-12
2.64076e-07
-1.69524e-12
-2.83393e-07
0
0
-1.51317e-11
0
0
0
-1.04261e-10
0
0
3.30555e-07
0
-1.91231e-09
-3.97799e-17
5.04629e-14
-2.75543e-15
1.14378e-08
2.39589e-07
2.99307e-06
4.14347e-05
0.000495932
0.00504829
0.0425337
0.294523
1.68396
8.04076
32.5283
113.164
343.302
918.934
2189.53
4668.75
8985.81
15840.4
25827.7
39516.2
57609.5
81187.2
111848
151885
204272
273227
365322
488377
651932
869477
1.15879e+06
1.54332e+06
2.05408e+06
2.73209e+06
3.63171e+06
4.8251e+06
6.40821e+06
8.50588e+06
1.12894e+07
1.4911e+07
1.97013e+07
2.62474e+07
3.4955e+07
4.19534e+08
4.01582e+07
2.81315e+07
1.95396e+07
1.34215e+07
9.09384e+06
6.06334e+06
3.97007e+06
2.55041e+06
1.61198e+06
1.0163e+06
654639
194364
16503.4
498.319
7.97994
0.0876415
0.00100299
1.93561e-05
8.56677e-07
8.90123e-08
1.68586e-08
5.01267e-09
1.95022e-09
7.83793e-10
3.72198e-10
1.48293e-10
6.46324e-11
2.77899e-11
1.14976e-11
-9.58216e-13
1.99061e-12
8.41432e-13
3.71437e-13
1.35927e-13
6.19417e-14
2.49566e-14
7.38485e-15
1.31139e-15
0
0
3.48092e-12
0
1.73852e-16
2.70674e-11
2.46893e-11
-5.00466e-11
0
0
0
0
-4.13741e-10
0
-6.97984e-18
-3.85508e-17
-2.74948e-16
-2.7422e-15
7.62631e-09
2.31217e-07
3.13382e-06
4.07724e-05
0.000491661
0.00504437
0.0428891
0.299944
1.73264
8.35899
34.1612
120.026
367.596
992.759
2384.12
5113.54
9862.93
17375.1
28283.8
43122.7
62568.4
87708.6
120140
162060
216839
289736
386333
514733
685573
912922
1.21539e+06
1.61758e+06
2.15211e+06
2.86214e+06
3.80489e+06
5.05615e+06
6.71625e+06
8.92105e+06
1.18516e+07
1.56262e+07
2.07732e+07
2.75961e+07
3.66042e+07
4.51589e+08
3.54649e+07
2.52056e+07
1.76685e+07
1.22022e+07
8.29026e+06
5.5313e+06
3.61828e+06
2.31909e+06
1.46214e+06
922728
575855
141955
9867.31
269.163
4.05247
0.0443346
0.000544877
1.19593e-05
6.0838e-07
7.01198e-08
1.49704e-08
4.51456e-09
1.70694e-09
7.69411e-10
2.92296e-10
1.32604e-10
6.42968e-11
2.40813e-11
1.21841e-11
4.90848e-12
2.06324e-12
1.60927e-14
3.55223e-13
1.42185e-13
5.56741e-14
2.19367e-14
7.39666e-15
-4.30184e-12
-3.69107e-13
-2.71849e-07
0
0
0
2.66993e-11
-1.01875e-19
-4.91644e-11
0
0
0
8.42839e-19
0
1.69058e-18
9.92943e-10
-1.62019e-09
-3.17502e-07
-2.74617e-15
1.87816e-08
2.37806e-07
2.94534e-06
4.09104e-05
0.000494679
0.00511457
0.0438774
0.309802
1.80719
8.80418
36.3272
128.829
398.079
1083.96
2621.45
5649.51
10903.1
19153.7
31075.2
47137
67975.3
94637.6
128657
172602
230529
306812
407826
542013
720519
958097
1.2743e+06
1.69509e+06
2.25503e+06
3.00017e+06
3.99201e+06
5.3129e+06
7.07347e+06
9.4229e+06
1.25451e+07
1.66102e+07
2.22156e+07
2.97292e+07
3.98011e+07
4.40931e+08
3.25582e+07
2.31426e+07
1.62379e+07
1.12287e+07
7.64003e+06
5.10678e+06
3.34965e+06
2.15733e+06
1.37135e+06
877120
522915
106764
6227.66
154.796
2.20566
0.0241708
0.00031872
7.87761e-06
4.52822e-07
5.70523e-08
1.23532e-08
4.148e-09
1.67808e-09
6.25591e-10
2.81976e-10
1.30522e-10
5.32575e-11
2.55541e-11
1.04051e-11
4.44876e-12
1.84173e-12
-4.77754e-12
3.16995e-13
1.3477e-13
5.55248e-14
2.12498e-14
6.67338e-15
1.2308e-15
4.82785e-18
-2.85464e-21
0
0
2.8908e-07
-1.18141e-11
2.93979e-11
0
0
3.03458e-07
-5.71842e-15
0
0
0
7.83467e-10
-4.27457e-17
-3.60422e-10
-2.77718e-15
1.73792e-08
2.29737e-07
3.14248e-06
4.14335e-05
0.000504142
0.00525183
0.0454497
0.323878
1.9071
9.37792
39.0497
139.715
435.365
1194.61
2907.16
6287.27
12117.9
21185.2
34200.2
51544.1
73789.7
101832
137489
183869
244319
323827
428997
568563
754051
1.00072e+06
1.32882e+06
1.76527e+06
2.34593e+06
3.11867e+06
4.14753e+06
5.51835e+06
7.34663e+06
9.78818e+06
1.30387e+07
1.72973e+07
2.31966e+07
3.11568e+07
5.98289e+07
4.18932e+08
3.068e+07
2.17809e+07
1.52603e+07
1.05331e+07
7.14956e+06
4.76418e+06
3.11318e+06
1.99694e+06
1.26662e+06
814476
458116
79643
4071.58
93.9925
1.2836
0.0141869
0.000200397
5.51833e-06
3.55518e-07
4.88887e-08
1.13818e-08
3.76939e-09
1.44835e-09
5.92184e-10
2.77223e-10
1.15728e-10
5.24756e-11
2.59201e-11
1.02768e-11
4.39986e-12
1.82426e-12
-3.92151e-12
4.89943e-12
1.34125e-13
5.20382e-14
2.04065e-14
6.68019e-15
-7.38974e-13
0
0
-8.10369e-17
1.26134e-11
0
0
0
0
1.39156e-15
0
8.01403e-19
8.00581e-19
2.95968e-07
2.95294e-07
-6.36584e-18
-4.13539e-17
1.86765e-09
-2.81874e-15
2.05028e-08
3.86848e-07
3.05311e-06
4.2179e-05
0.000519035
0.00545052
0.047576
0.342072
2.03253
10.0849
42.3652
152.878
480.258
1327.41
3248.33
7040.4
13521.3
23469.5
37625.7
56230.8
79724.1
109181
146807
195111
257927
340390
449274
593499
784820
1.03877e+06
1.37595e+06
1.82367e+06
2.41828e+06
3.20818e+06
4.2579e+06
5.65368e+06
7.51091e+06
9.98443e+06
1.32566e+07
1.75293e+07
2.34171e+07
3.12909e+07
1.20703e+08
3.67023e+08
2.96148e+07
2.10066e+07
1.47132e+07
1.01586e+07
6.90194e+06
4.6068e+06
3.01753e+06
1.94166e+06
1.2369e+06
801202
409783
61898.9
2818.04
60.7154
0.799157
0.00894077
0.000134732
4.08745e-06
2.89262e-07
4.28424e-08
1.04145e-08
3.50684e-09
1.3243e-09
5.80715e-10
2.47687e-10
1.19219e-10
5.07976e-11
2.15391e-11
9.35829e-12
3.95617e-12
1.80643e-12
7.43403e-13
-4.982e-13
1.3343e-13
4.91828e-14
1.88987e-14
6.68329e-15
1.05852e-15
0
1.97195e-17
-2.7562e-12
2.78584e-07
0
2.8549e-07
0
0
-2.90127e-07
0
-2.29282e-10
0
2.88033e-07
-2.86449e-07
-9.24507e-18
-4.30384e-17
-3.01105e-16
8.28704e-14
1.67641e-08
2.47358e-07
3.31596e-06
4.35259e-05
0.000539385
0.0057069
0.0502308
0.364308
2.18376
10.9305
46.3151
168.54
533.685
1485.47
3653.31
7924.56
15128.2
26010.9
41354.9
61164.7
85913.2
116995
156159
206274
271292
356452
468634
616859
812990
1.07267e+06
1.41658e+06
1.87211e+06
2.47559e+06
3.27527e+06
4.3353e+06
5.74112e+06
7.60674e+06
1.00841e+07
1.33483e+07
1.75979e+07
2.34337e+07
3.12118e+07
1.75076e+08
3.15474e+08
2.89325e+07
2.04877e+07
1.43238e+07
9.8711e+06
6.694e+06
4.46023e+06
2.91788e+06
1.87785e+06
1.19991e+06
783354
372075
49233.8
2043.54
41.5589
0.530506
0.00601269
9.62299e-05
3.18087e-06
2.44521e-07
3.83842e-08
9.8393e-09
3.33299e-09
1.48804e-09
5.43999e-10
2.67514e-10
1.1195e-10
4.39348e-11
2.35628e-11
1.00147e-11
9.25419e-12
1.78796e-12
7.10217e-13
2.86516e-13
1.20701e-13
4.90014e-14
-7.40552e-13
6.32011e-15
1.0609e-15
0
0
-2.73741e-12
5.55436e-12
0
-2.52559e-11
0
-2.83927e-07
2.84063e-07
0
4.05561e-10
2.81076e-07
0
-7.1512e-10
8.73861e-10
-1.73991e-09
-3.07824e-16
-2.96511e-15
-2.59132e-07
1.05549e-07
3.15596e-06
4.53075e-05
0.000564072
0.00601592
0.053384
0.390475
2.36084
11.9192
50.9378
186.918
596.596
1672.05
4130.35
8951.85
16934.5
28764.4
45263.4
66314.9
92445.6
124814
165447
217301
284417
372100
487293
639062
839306
1.10368e+06
1.45283e+06
1.91403e+06
2.52338e+06
3.32869e+06
4.3934e+06
5.80156e+06
7.6643e+06
1.01307e+07
1.33752e+07
1.75911e+07
2.3366e+07
3.1043e+07
2.22952e+08
2.7021e+08
2.83686e+07
2.0102e+07
1.40641e+07
9.6989e+06
6.58171e+06
4.38857e+06
2.87351e+06
1.85158e+06
1.18637e+06
779118
336918
40413.9
1551.71
30.0065
0.373596
0.00429475
7.25218e-05
2.58136e-06
2.13544e-07
3.54488e-08
9.4655e-09
3.36221e-09
1.31272e-09
5.63378e-10
2.38687e-10
1.09984e-10
4.70198e-11
2.09165e-11
8.34758e-12
3.86362e-12
1.76886e-12
6.55832e-13
1.03264e-12
1.19995e-13
4.71709e-14
1.73565e-14
6.31721e-15
1.06262e-15
3.66452e-13
0
-5.69874e-21
2.73429e-07
-6.82337e-12
0
0
0
-1.87708e-19
0
7.43411e-19
0
-1.46364e-18
-2.90236e-18
-8.63779e-18
-4.57633e-17
3.02769e-09
-3.05063e-15
1.47922e-08
2.54114e-07
3.43443e-06
4.72915e-05
0.000593087
0.0063711
0.0569894
0.420326
2.56298
13.051
56.2541
208.178
669.8
1890.01
4686.01
10125.2
18901.1
31598.4
49146
71303.9
98684.6
132368
174473
228058
297226
387340
505370
660406
864340
1.13278e+06
1.48629e+06
1.95195e+06
2.56554e+06
3.37427e+06
4.44028e+06
5.84604e+06
7.70228e+06
1.01578e+07
1.33763e+07
1.75482e+07
2.32515e+07
3.08157e+07
2.63355e+08
2.32494e+08
2.78036e+07
1.97247e+07
1.38148e+07
9.53688e+06
6.47884e+06
4.32536e+06
2.83658e+06
1.83205e+06
1.17848e+06
778545
301841
34139.7
1228.41
22.7517
0.277594
0.00323709
5.7354e-05
2.17909e-06
1.90943e-07
3.25443e-08
9.04947e-09
3.18664e-09
1.3336e-09
5.473e-10
2.33225e-10
1.07962e-10
4.5471e-11
2.05911e-11
8.22319e-12
3.81482e-12
1.6543e-12
6.97055e-13
2.5845e-13
-5.06701e-12
4.4024e-14
1.58538e-14
5.59016e-15
7.38172e-13
-3.65929e-13
-1.48641e-12
5.65986e-21
0
-2.72606e-07
0
0
0
-1.27974e-15
-2.54283e-15
0
0
0
-2.59932e-07
-8.33348e-18
-3.85407e-17
2.53168e-07
5.78813e-09
1.73246e-08
3.96878e-07
3.60347e-06
4.94402e-05
0.000625146
0.0067633
0.0609705
0.453364
2.7877
14.3172
62.2488
232.359
753.779
2141.46
5324.74
11437.5
20953.2
34335.8
52983.7
76249.3
104655
139522
183031
238306
309484
401955
522701
680809
888137
1.16023e+06
1.51751e+06
1.98673e+06
2.60299e+06
3.41256e+06
4.4772e+06
5.88004e+06
7.72923e+06
1.01669e+07
1.33532e+07
1.74751e+07
2.30972e+07
3.05353e+07
2.97129e+08
2.01321e+08
2.72421e+07
1.93635e+07
1.35867e+07
9.39631e+06
6.39499e+06
4.27756e+06
2.81128e+06
1.82062e+06
1.17568e+06
779846
280010
29582.8
1009.31
18.0319
0.216525
0.00256019
4.73114e-05
1.89586e-06
1.74192e-07
3.10457e-08
8.82055e-09
3.19896e-09
1.21358e-09
5.35146e-10
2.51943e-10
1.05883e-10
4.54023e-11
2.02571e-11
8.85279e-12
3.76477e-12
1.63513e-12
6.43154e-13
2.69254e-13
1.06735e-13
4.54181e-14
1.72562e-14
5.58348e-15
1.06442e-15
6.87195e-22
-2.78368e-21
0
0
2.69352e-07
0
0
0
1.25189e-15
0
-7.04824e-19
0
0
0
-2.47833e-07
-4.76162e-17
-3.40638e-16
6.92522e-14
1.65232e-08
3.94072e-07
3.66228e-06
5.19016e-05
0.000658657
0.00717845
0.0652023
0.488683
3.02972
15.6932
68.8308
259.21
848.043
2425.7
6042.71
12855.8
22955.3
36819.3
56250.9
80356.5
109709
145698
190578
247505
320640
415381
538713
699707
910146
1.1854e+06
1.54549e+06
2.01685e+06
2.63441e+06
3.44521e+06
4.50991e+06
5.90754e+06
7.74403e+06
1.01596e+07
1.33087e+07
1.73745e+07
2.29074e+07
3.02097e+07
3.24595e+08
1.76575e+08
2.66781e+07
1.90058e+07
1.33658e+07
9.26444e+06
6.31982e+06
4.23753e+06
2.79235e+06
1.81393e+06
1.17591e+06
781795
267748
26297.7
859.278
14.9009
0.176701
0.002116
4.0532e-05
1.70016e-06
1.62946e-07
3.01911e-08
8.24645e-09
2.94972e-09
1.23103e-09
5.22639e-10
2.46473e-10
1.03748e-10
4.74317e-11
1.99141e-11
8.71717e-12
4.45703e-12
1.52287e-12
6.36445e-13
2.77335e-13
1.05988e-13
-7.06826e-13
1.71958e-14
5.57458e-15
9.75706e-16
0
0
0
-1.56182e-16
0
-2.38358e-11
0
0
0
2.42007e-15
0
0
-7.06742e-10
-2.61522e-18
2.39012e-07
-4.56752e-17
-3.40882e-16
-2.91076e-09
2.09589e-08
2.86518e-07
3.73571e-06
5.43011e-05
0.000692696
0.00759719
0.0694959
0.524797
3.27952
17.129
75.7827
287.93
950.008
2734.45
6808.78
14250.5
24507.4
38347.2
58268.9
83042.9
113189
150187
196343
254819
329777
426593
552204
715566
928352
1.20586e+06
1.56816e+06
2.04205e+06
2.66202e+06
3.47264e+06
4.53343e+06
5.92266e+06
7.74365e+06
1.0133e+07
1.32399e+07
1.72427e+07
2.26767e+07
2.98307e+07
3.46488e+08
1.57107e+08
2.61139e+07
1.86525e+07
1.31515e+07
9.13993e+06
6.25174e+06
4.20374e+06
2.77852e+06
1.81109e+06
1.1787e+06
785624
258801
24004.1
757.41
12.8171
0.150474
0.00182148
3.59356e-05
1.56453e-06
1.54272e-07
2.92889e-08
8.33133e-09
2.8676e-09
1.23667e-09
5.52842e-10
2.41562e-10
1.07123e-10
4.36977e-11
2.099e-11
1.20796e-11
3.66037e-12
1.54476e-12
6.29557e-13
2.51772e-13
-4.95786e-12
4.20445e-14
1.71295e-14
4.29784e-12
1.06452e-15
3.64367e-13
-2.76038e-21
0
2.63224e-07
0
0
0
9.24037e-11
0
-2.5092e-07
0
6.54351e-19
-3.06326e-10
6.00937e-10
-4.94436e-18
1.42452e-09
-3.5407e-16
-3.44818e-15
2.48544e-08
4.07818e-07
3.90343e-06
5.63484e-05
0.000724503
0.00799326
0.0735875
0.559529
3.5224
18.5427
82.7242
317.038
1054.73
3052.69
7574.59
15452.5
25215.2
38317.3
58356
83316.4
113966
151747
198931
258648
335021
433394
560674
725823
940765
1.22069e+06
1.58551e+06
2.06073e+06
2.68026e+06
3.48842e+06
4.5434e+06
5.92165e+06
7.72383e+06
1.00828e+07
1.31422e+07
1.70749e+07
2.24001e+07
2.93927e+07
3.63751e+08
1.42232e+08
2.55488e+07
1.83012e+07
1.29409e+07
9.01972e+06
6.18789e+06
4.1737e+06
2.76773e+06
1.81048e+06
1.18287e+06
789996
252943
22478.4
690.056
11.4509
0.133364
0.00162807
3.28678e-05
1.4725e-06
1.49244e-07
2.89693e-08
8.5313e-09
2.85491e-09
1.20267e-09
5.15541e-10
2.45863e-10
1.01778e-10
4.55843e-11
1.92054e-11
8.43696e-12
3.60637e-12
1.48423e-12
-3.59147e-12
2.59615e-13
5.13467e-12
4.17953e-14
1.56278e-14
5.55129e-15
-4.26161e-12
3.63855e-13
1.46163e-12
0
-2.60667e-07
0
0
0
0
1.16827e-15
-7.86468e-11
0
0
-2.29783e-07
-2.42283e-18
-2.18768e-07
-4.64207e-17
-2.42253e-09
-3.51426e-15
2.60986e-08
3.0186e-07
4.06086e-06
5.82358e-05
0.000751792
0.00833454
0.0771417
0.589988
3.73775
19.8119
89.0433
343.909
1152.32
3346.07
8221.02
16064.6
24188.3
35713.9
55457.7
80276.3
111003
149121
196872
257363
334696
434214
562839
729554
945761
1.22652e+06
1.59139e+06
2.06582e+06
2.68305e+06
3.48653e+06
4.53313e+06
5.89738e+06
7.67717e+06
1.00013e+07
1.30082e+07
1.68643e+07
2.20718e+07
2.88916e+07
3.76652e+08
1.31632e+08
2.49825e+07
1.795e+07
1.2731e+07
8.90058e+06
6.12519e+06
4.14471e+06
2.75778e+06
1.81039e+06
1.18709e+06
794246
249775
21554.8
648.17
10.5951
0.122629
0.00150606
3.09164e-05
1.41437e-06
1.45824e-07
2.79796e-08
7.97908e-09
3.01021e-09
1.21214e-09
5.24305e-10
2.29342e-10
1.04792e-10
4.58513e-11
1.88409e-11
8.9976e-12
3.37469e-12
1.50425e-12
-6.58465e-14
2.46918e-13
-6.30236e-13
4.43834e-14
1.69833e-14
5.53732e-15
1.06342e-15
-4.76001e-18
-1.45545e-12
5.8137e-12
0
1.50639e-16
2.53842e-07
4.49817e-11
-2.46909e-07
1.63697e-19
2.37781e-07
2.32593e-07
0
0
-5.54943e-10
-2.09962e-07
-4.4248e-17
1.03209e-09
2.02327e-09
2.45979e-08
3.07609e-07
4.08627e-06
5.95476e-05
0.000771729
0.0085861
0.079781
0.612801
3.90063
20.7827
93.935
364.923
1228.52
3563.32
8569.01
15525.3
23613.8
31282.2
48815.3
73202.4
103654
141634
189343
249830
327140
426545
554872
720949
936197
1.21544e+06
1.57794e+06
2.04874e+06
2.66049e+06
3.45575e+06
4.49007e+06
5.83613e+06
7.58906e+06
9.87368e+06
1.28235e+07
1.65979e+07
2.16817e+07
2.83215e+07
3.85451e+08
1.25024e+08
2.44112e+07
1.7592e+07
1.25135e+07
8.77359e+06
6.0551e+06
4.10921e+06
2.74233e+06
1.80574e+06
1.18745e+06
795826
248410
21089.5
625.314
10.1138
0.116531
0.00143648
2.9804e-05
1.38276e-06
1.44229e-07
2.78615e-08
8.13358e-09
2.91308e-09
1.21065e-09
5.09646e-10
2.39273e-10
1.05189e-10
4.48609e-11
1.84694e-11
8.1464e-12
3.5734e-12
1.53194e-12
6.5226e-13
9.90487e-13
1.05793e-13
-4.93396e-12
1.54879e-14
-4.98686e-12
9.739e-16
0
6.50159e-13
1.08565e-20
0
-5.09302e-12
1.23618e-11
4.41509e-11
0
3.8091e-11
2.17274e-15
-2.2521e-07
4.11859e-15
3.36757e-10
0
-5.16301e-10
-2.9353e-14
-3.64591e-16
1.90767e-09
2.49594e-08
2.19181e-07
4.25174e-06
6.0381e-05
0.000781877
0.00871577
0.0811511
0.624738
3.98662
21.3
96.5614
376.168
1267.15
3642.11
8376.03
15872.6
24604.4
32615.9
39292.9
61103.3
90428.6
127205
173582
232525
307987
405133
530662
693252
904140
1.1779e+06
1.53345e+06
1.9954e+06
2.59575e+06
3.3762e+06
4.39113e+06
5.71149e+06
7.43004e+06
9.66811e+06
1.2555e+07
1.62441e+07
2.12036e+07
2.76663e+07
3.90139e+08
1.22125e+08
2.3822e+07
1.72068e+07
1.2265e+07
8.61598e+06
5.95736e+06
4.05023e+06
2.70787e+06
1.78619e+06
1.17628e+06
789250
247258
20935.9
616.461
9.91428
0.113948
0.0014069
2.93316e-05
1.36827e-06
1.43813e-07
2.81503e-08
8.12446e-09
2.96125e-09
1.24415e-09
5.33626e-10
2.31865e-10
1.02613e-10
4.64653e-11
1.80929e-11
8.37028e-12
8.14907e-12
1.51025e-12
1.35414e-12
-4.74924e-13
1.01814e-13
4.09978e-14
1.60484e-14
5.86118e-15
1.06157e-15
4.75325e-18
-1.44928e-12
0
0
-2.135e-20
2.49894e-07
-5.78417e-16
8.67066e-11
3.8092e-11
7.44115e-11
6.07971e-19
0
-3.36756e-10
-2.07007e-07
-2.01073e-07
-4.62768e-17
-3.68687e-16
4.25229e-09
2.30932e-08
4.02525e-07
4.16123e-06
6.02959e-05
0.000781964
0.00871589
0.081152
0.624746
3.98668
21.3003
96.5632
376.176
1267.19
3642.22
8376.24
15872.9
24604.7
32616.1
39293
61102.9
90428
127204
173581
232524
307987
405132
530662
693252
904139
1.1779e+06
1.53345e+06
1.9954e+06
2.59575e+06
3.3762e+06
4.39112e+06
5.71149e+06
7.43003e+06
9.66811e+06
1.2555e+07
1.62441e+07
2.12035e+07
2.76662e+07
3.90136e+08
1.22127e+08
2.38218e+07
1.72067e+07
1.22647e+07
8.61576e+06
5.95715e+06
4.05004e+06
2.70771e+06
1.78607e+06
1.1762e+06
789205
247253
20936.2
616.477
9.91461
0.113952
0.00140695
2.93314e-05
1.36924e-06
1.4332e-07
2.78419e-08
8.12433e-09
2.96124e-09
1.2488e-09
5.12203e-10
2.41831e-10
1.02611e-10
4.52957e-11
1.80933e-11
7.99787e-12
2.74626e-12
1.42336e-12
6.4428e-13
2.4188e-13
1.07406e-13
4.09986e-14
7.45509e-13
4.98562e-12
9.73025e-16
2.59189e-07
1.90675e-17
-2.59205e-07
0
-2.56329e-07
-2.53842e-07
0
0
4.79942e-11
-3.20827e-19
-3.33616e-10
-4.26523e-15
-2.21405e-07
2.15433e-07
6.6473e-10
-4.86726e-17
-3.63425e-16
2.4867e-09
2.45978e-08
2.1269e-07
4.27693e-06
5.95472e-05
0.000771749
0.00858638
0.0797834
0.612819
3.90076
20.7835
93.9391
364.943
1228.6
3563.65
8569.95
15526.6
23614.6
31282.4
48814.4
73200.9
103652
141631
189341
249828
327138
426544
554871
720949
936196
1.21544e+06
1.57794e+06
2.04874e+06
2.66049e+06
3.45575e+06
4.49007e+06
5.83613e+06
7.58906e+06
9.87367e+06
1.28235e+07
1.65978e+07
2.16816e+07
2.83214e+07
3.85443e+08
1.25032e+08
2.44112e+07
1.75921e+07
1.25136e+07
8.77377e+06
6.05529e+06
4.10938e+06
2.74247e+06
1.80586e+06
1.18753e+06
795874
248427
21091.4
625.377
10.1149
0.116544
0.00143662
2.98046e-05
1.38045e-06
1.44228e-07
2.81212e-08
8.13361e-09
2.99678e-09
1.21064e-09
5.0963e-10
2.43855e-10
1.05189e-10
4.63277e-11
1.84693e-11
8.14614e-12
3.59127e-12
1.49245e-12
6.07815e-13
2.54464e-13
1.02686e-13
7.75435e-13
1.54879e-14
5.87751e-15
1.06256e-15
0
1.46161e-12
3.22819e-12
2.60667e-07
-1.16444e-11
0
4.58123e-11
-2.5229e-07
8.91754e-11
0
0
0
-6.58836e-10
-2.42283e-18
-7.10946e-18
-4.64205e-17
2.12041e-07
2.62842e-09
2.35063e-08
3.03942e-07
4.16073e-06
5.82305e-05
0.000751832
0.00833464
0.0771439
0.590002
3.73781
19.812
89.0427
343.899
1152.25
3345.7
8219.6
16061.1
24186.1
35712.6
55457
80276
111003
149121
196873
257364
334697
434215
562839
729555
945762
1.22652e+06
1.59139e+06
2.06582e+06
2.68305e+06
3.48654e+06
4.53313e+06
5.89738e+06
7.67716e+06
1.00013e+07
1.30082e+07
1.68643e+07
2.20717e+07
2.88915e+07
3.7664e+08
1.31645e+08
2.49824e+07
1.79499e+07
1.27309e+07
8.90046e+06
6.12507e+06
4.1446e+06
2.75769e+06
1.81032e+06
1.18703e+06
794217
249783
21557.3
648.27
10.597
0.122652
0.00150632
3.09194e-05
1.4154e-06
1.45823e-07
2.85791e-08
8.11629e-09
2.85363e-09
1.24378e-09
5.24301e-10
2.35108e-10
1.02397e-10
4.73459e-11
1.88403e-11
7.90776e-12
4.26451e-12
1.60257e-12
-6.58463e-14
9.77454e-13
1.03546e-13
7.77291e-13
1.69837e-14
5.89329e-15
1.02362e-15
2.00902e-13
0
-7.72277e-17
-1.11025e-20
1.5446e-16
0
-4.66419e-11
-1.21056e-15
-1.19599e-15
1.80023e-10
0
2.42389e-07
0
-2.51912e-18
-7.248e-10
-4.37291e-17
1.40283e-09
5.02335e-09
2.26243e-08
3.00554e-07
4.01955e-06
5.63578e-05
0.000724532
0.00799365
0.0735903
0.559549
3.52251
18.5432
82.726
317.045
1054.76
3052.84
7575.32
15455.3
25216.7
38317.9
58355.5
83313.7
113963
151745
198930
258647
335021
433394
560674
725825
940768
1.2207e+06
1.58552e+06
2.06074e+06
2.68026e+06
3.48843e+06
4.5434e+06
5.92165e+06
7.72383e+06
1.00828e+07
1.31421e+07
1.70748e+07
2.24e+07
2.93925e+07
3.63733e+08
1.42249e+08
2.55489e+07
1.83013e+07
1.2941e+07
9.01983e+06
6.188e+06
4.17381e+06
2.76783e+06
1.81056e+06
1.18293e+06
790038
252972
22482.7
690.215
11.4539
0.1334
0.00162848
3.28744e-05
1.47381e-06
1.4924e-07
2.89686e-08
8.074e-09
2.94441e-09
1.20263e-09
5.19854e-10
2.45861e-10
1.04783e-10
4.55831e-11
1.99783e-11
7.72754e-12
4.32976e-12
1.57449e-12
6.67899e-13
2.72213e-13
8.49539e-13
4.30799e-14
1.70585e-14
5.90807e-15
9.75277e-16
0
2.62869e-07
7.77766e-17
0
-1.56372e-16
-2.65677e-07
6.2191e-16
0
-2.60352e-07
0
0
0
3.17049e-10
-2.42954e-07
-7.72286e-18
-2.36478e-07
2.32117e-07
2.36827e-09
2.09588e-08
2.89389e-07
3.7357e-06
5.41831e-05
0.000692622
0.00759767
0.0694997
0.524822
3.27967
17.1298
75.7857
287.94
950.036
2734.5
6808.74
14249.7
24507.5
38348.4
58271.6
83048.3
113194
150192
196348
254824
329782
426599
552211
715572
928358
1.20587e+06
1.56817e+06
2.04206e+06
2.66203e+06
3.47265e+06
4.53344e+06
5.92267e+06
7.74366e+06
1.0133e+07
1.32399e+07
1.72427e+07
2.26767e+07
2.98306e+07
3.46467e+08
1.57127e+08
2.61139e+07
1.86524e+07
1.31515e+07
9.13993e+06
6.25175e+06
4.20375e+06
2.77852e+06
1.81109e+06
1.17869e+06
785623
258827
24009.5
757.628
12.8213
0.150526
0.00182207
3.59488e-05
1.56588e-06
1.537e-07
2.95751e-08
8.18545e-09
2.94187e-09
1.19875e-09
5.09801e-10
2.40869e-10
1.01561e-10
4.65161e-11
2.02028e-11
7.85776e-12
3.66035e-12
-3.42879e-12
6.29555e-13
2.28729e-13
1.05204e-13
4.20444e-14
1.71295e-14
5.56382e-15
1.02465e-15
0
-1.93916e-17
0
0
5.42031e-12
1.33378e-11
0
0
2.66277e-07
0
0
-6.96192e-19
-3.27772e-10
2.51068e-07
2.47832e-07
-4.23254e-17
-1.53648e-09
-2.48265e-09
1.65232e-08
2.74538e-07
3.66718e-06
5.19062e-05
0.000658837
0.00717885
0.0652062
0.488711
3.02988
15.694
68.8341
259.222
848.081
2425.81
6043.01
12856.5
22956.5
36821.2
56253.7
80360.1
109713
145703
190583
247511
320647
415388
538722
699718
910158
1.18542e+06
1.54551e+06
2.01687e+06
2.63443e+06
3.44523e+06
4.50993e+06
5.90757e+06
7.74406e+06
1.01596e+07
1.33087e+07
1.73745e+07
2.29073e+07
3.02096e+07
3.24572e+08
1.76598e+08
2.66782e+07
1.90059e+07
1.33659e+07
9.26455e+06
6.31991e+06
4.2376e+06
2.7924e+06
1.81397e+06
1.17594e+06
781813
267784
26305.1
859.583
14.907
0.176775
0.00211685
4.05438e-05
1.70011e-06
1.64251e-07
2.98903e-08
8.24625e-09
2.87334e-09
1.22216e-09
5.22635e-10
2.46464e-10
1.03746e-10
4.61424e-11
1.99135e-11
8.71689e-12
3.34456e-12
1.61543e-12
1.38653e-12
2.77327e-13
1.05987e-13
4.51782e-14
7.63243e-13
-4.29803e-12
9.75706e-16
2.61037e-07
-1.48641e-12
-2.68361e-07
-1.21506e-11
6.74236e-12
-2.73576e-07
0
0
2.72201e-07
0
0
2.65623e-07
2.63547e-07
1.955e-14
-5.55564e-18
-2.54938e-07
-1.60304e-09
2.59666e-09
1.73245e-08
1.39834e-07
3.74062e-06
4.94464e-05
0.000625076
0.00676359
0.0609747
0.453394
2.78788
14.3181
62.2524
232.373
753.823
2141.59
5325.09
11438.3
20955
34338.5
52988.2
76253.8
104660
139527
183037
238313
309492
401965
522713
680823
888154
1.16025e+06
1.51753e+06
1.98675e+06
2.60302e+06
3.41259e+06
4.47724e+06
5.88007e+06
7.72927e+06
1.01669e+07
1.33532e+07
1.74751e+07
2.30972e+07
3.05351e+07
2.97109e+08
2.0134e+08
2.72418e+07
1.93632e+07
1.35865e+07
9.39626e+06
6.39501e+06
4.27763e+06
2.81137e+06
1.82071e+06
1.17575e+06
779896
280059
29592.8
1009.74
18.0404
0.216633
0.00256139
4.7326e-05
1.89579e-06
1.74191e-07
3.14193e-08
8.63091e-09
3.10741e-09
1.30224e-09
5.35142e-10
2.29098e-10
1.03286e-10
4.7015e-11
2.18152e-11
8.8525e-12
3.39114e-12
1.49935e-12
6.43152e-13
2.56317e-13
-6.49808e-13
-7.0821e-13
1.58062e-14
7.49189e-13
9.75373e-16
3.66452e-13
0
-6.06049e-12
1.22654e-11
-2.75875e-07
0
0
0
1.30761e-15
0
1.7734e-10
0
0
-2.90236e-18
1.53101e-09
-4.57631e-17
3.02768e-09
-2.63044e-07
1.81231e-08
2.57449e-07
3.43442e-06
4.73034e-05
0.000593001
0.0063714
0.0569939
0.420357
2.56316
13.0518
56.2578
208.191
669.84
1890.11
4686.25
10125.5
18901.2
31598.5
49146.2
71306
98688.3
132373
174480
228066
297237
387352
505386
660425
864363
1.13281e+06
1.48632e+06
1.95199e+06
2.56558e+06
3.37431e+06
4.44031e+06
5.84606e+06
7.70234e+06
1.01579e+07
1.33764e+07
1.75483e+07
2.32516e+07
3.08158e+07
2.63352e+08
2.325e+08
2.78046e+07
1.9726e+07
1.3816e+07
9.53768e+06
6.47935e+06
4.32561e+06
2.83666e+06
1.83204e+06
1.17843e+06
778498
301905
34150.5
1228.96
22.7636
0.277749
0.00323881
5.738e-05
2.17591e-06
1.91562e-07
3.32415e-08
8.85478e-09
3.10561e-09
1.33359e-09
5.88387e-10
2.21103e-10
1.08705e-10
4.32458e-11
2.0591e-11
8.98463e-12
3.81481e-12
2.42043e-12
6.70897e-13
2.82129e-13
1.19243e-13
4.56414e-14
1.73097e-14
5.95063e-15
1.06377e-15
6.90144e-22
0
2.72056e-07
0
-1.6405e-16
-1.39256e-11
0
-4.5711e-11
2.84063e-07
-2.83677e-07
-2.82527e-07
0
0
0
-8.94156e-18
-4.15417e-17
-3.07824e-16
2.74041e-07
1.26125e-08
1.0271e-07
3.28726e-06
4.51686e-05
0.000564273
0.00601639
0.0533887
0.390507
2.36103
11.9201
50.9414
186.932
596.637
1672.17
4130.64
8952.49
16935.9
28767.3
45266.9
66319
92450.9
124821
165456
217312
284431
372117
487314
639089
839340
1.10372e+06
1.45288e+06
1.91409e+06
2.52345e+06
3.32877e+06
4.39348e+06
5.80163e+06
7.66427e+06
1.01306e+07
1.33752e+07
1.7591e+07
2.33658e+07
3.10427e+07
2.22996e+08
2.70168e+08
2.83655e+07
2.00979e+07
1.406e+07
9.69563e+06
6.57945e+06
4.38721e+06
2.87283e+06
1.8514e+06
1.18638e+06
779165
337006
40429.7
1552.5
30.024
0.373826
0.00429726
7.25598e-05
2.58703e-06
2.12105e-07
3.54478e-08
9.46458e-09
3.26112e-09
1.27601e-09
5.59069e-10
2.43783e-10
1.09984e-10
4.70196e-11
2.09159e-11