/*--------------------------------*- C++ -*----------------------------------*\
  =========                 |
  \\      /  F ield         | OpenFOAM: The Open Source CFD Toolbox
   \\    /   O peration     | Website:  https://openfoam.org
    \\  /    A nd           | Version:  8
     \\/     M anipulation  |
\*---------------------------------------------------------------------------*/
FoamFile
{
    version     2.0;
    format      ascii;
    class       volScalarField;
    location    "920/fluid";
    object      rDeltaT;
}
// * * * * * * * * * * * * * * * * * * * * * * * * * * * * * * * * * * * * * //

dimensions      [0 0 -1 0 0 0 0];

internalField   nonuniform List<scalar> 
4000
(
513.503
539.555
564.415
588.227
610.927
632.415
652.562
671.225
688.272
703.601
717.174
729.045
739.393
748.551
757.013
765.28
773.741
782.575
791.683
800.673
808.941
815.794
820.576
822.767
822.047
818.232
811.211
800.957
787.507
770.949
751.405
741.737
764.918
809.551
853.357
896.222
938.066
978.815
1018.42
1056.83
1094.02
1129.98
1164.69
1198.17
1230.4
1261.39
1291.17
1319.73
1347.1
1373.28
1398.3
1422.15
1444.86
1466.43
1486.85
1506.14
1524.29
1541.17
1556.76
1571.31
1584.72
2817.51
15097.2
1574.26
1537.71
1496.27
1450.41
1400.67
1347.45
1291.14
1232.14
1170.92
1108.08
1044.11
979.759
916.471
856.246
801.5
755.193
719.967
696.813
684.293
679.156
677.881
677.643
676.676
673.991
669.234
662.435
653.78
643.503
631.839
619.008
605.202
590.586
575.292
559.423
543.046
526.207
508.863
513.026
538.418
562.485
585.158
606.405
626.151
644.303
660.771
675.489
688.439
699.682
709.378
717.815
725.421
732.679
740.062
747.953
756.54
765.731
775.14
784.144
791.997
797.969
801.461
802.02
799.341
793.267
783.758
770.864
754.696
735.404
713.166
715.587
752.884
797.902
842.18
885.612
928.109
969.599
1010.03
1049.35
1087.55
1124.59
1160.48
1195.2
1228.76
1261.18
1292.45
1322.59
1351.63
1379.56
1406.42
1432.21
1456.97
1480.7
1503.41
1525.13
1545.71
1565.19
1583.89
1601.71
4415.8
13694.5
1584.92
1543.65
1498.75
1450.12
1397.84
1342.11
1283.14
1221.22
1156.72
1090.11
1021.82
952.778
884.846
820.652
763.45
716.495
682.132
660.587
649.687
645.913
645.858
646.986
647.734
647.28
645.168
641.242
635.528
628.131
619.196
608.875
597.323
584.68
571.071
556.595
541.323
525.297
508.555
512.322
536.153
558.484
579.28
598.478
616.017
631.842
645.918
658.248
668.89
677.983
685.757
692.547
698.773
704.883
711.334
718.51
726.61
735.562
745.002
754.323
762.792
769.661
774.27
776.071
774.678
769.881
761.603
749.871
734.779
716.467
695.106
678.05
694.782
740.095
784.972
829.289
872.945
915.853
957.946
999.169
1039.48
1078.86
1117.28
1154.73
1191.21
1226.73
1261.28
1294.89
1327.57
1359.34
1390.23
1420.27
1449.47
1477.88
1505.49
1532.32
1558.15
1582.98
1606.93
1629.44
7185.72
11074.9
1603.96
1557.97
1508.25
1454.86
1397.9
1337.5
1273.86
1207.23
1138.02
1066.75
993.961
920.956
850.02
784.152
726.842
681.177
648.849
629.348
620.105
617.602
618.614
620.786
622.667
623.539
623.036
620.985
617.341
612.129
605.417
597.291
587.846
577.177
565.372
552.509
538.649
523.841
508.109
511.632
534.081
554.962
574.228
591.835
607.745
621.932
634.391
645.153
654.3
661.981
668.427
673.964
679.004
684.021
689.491
695.804
703.158
711.487
720.428
729.384
737.616
744.374
748.989
750.929
749.817
745.427
737.655
726.495
712.011
694.316
673.556
649.898
649.941
685.474
730.665
775.584
820.122
864.189
907.71
950.624
992.884
1034.45
1075.31
1115.43
1154.81
1193.44
1231.32
1268.47
1304.89
1340.6
1375.61
1409.93
1443.58
1476.54
1508.79
1540.25
1570.62
1599.74
1627.65
1653.54
10520.2
7830.79
1616.31
1566.47
1512.36
1454.28
1392.49
1327.25
1258.87
1187.74
1114.4
1039.51
963.851
889.054
817.634
752.609
697.175
653.986
624.202
606.859
599.198
597.799
599.662
602.628
605.354
607.119
607.576
606.585
604.111
600.172
594.812
588.088
580.06
570.791
560.338
548.756
536.085
522.367
507.629
510.895
531.841
551.172
568.847
584.831
599.097
611.635
622.461
631.627
639.235
645.454
650.534
654.811
658.707
662.692
667.239
672.727
679.351
687.043
695.453
703.989
711.92
718.497
723.042
725.012
724.019
719.82
712.298
701.431
687.267
669.903
649.469
626.115
612.52
633.796
679.161
724.521
769.768
814.809
859.568
903.98
947.993
991.565
1034.67
1077.27
1119.36
1160.91
1201.93
1242.41
1282.34
1321.72
1360.54
1398.78
1436.41
1473.38
1509.59
1544.89
1578.82
1611.24
1642
1670.09
13789.8
4518.18
1620.1
1567.34
1509.64
1447.58
1381.65
1312.3
1239.99
1165.27
1088.82
1011.38
933.893
858.249
787.024
723.194
669.744
628.942
601.463
585.961
579.565
578.989
581.455
585.002
588.408
590.996
592.423
592.525
591.24
588.559
584.502
579.103
572.4
564.438
555.26
544.904
533.406
520.8
507.116
510.156
529.628
547.475
563.66
578.155
590.945
602.031
611.442
619.24
625.538
630.512
634.414
637.577
640.416
643.396
646.979
651.541
657.277
664.126
671.75
679.573
686.879
692.926
697.042
698.682
697.45
693.095
685.486
674.587
660.432
643.102
622.712
599.399
575.127
585.309
630.761
676.449
722.268
768.125
813.941
859.65
905.196
950.533
995.621
1040.42
1084.92
1129.07
1172.87
1216.29
1259.3
1301.88
1343.98
1385.56
1426.53
1466.78
1506.15
1544.42
1581.03
1615.77
1648.39
1677.71
16707
1663.93
1615.91
1560.78
1500.04
1434.66
1365.36
1292.75
1217.44
1140.1
1061.54
982.54
904.223
828.626
758.363
696.329
645.285
607.128
582.108
568.561
563.531
563.841
566.903
570.922
574.79
577.9
579.938
580.752
580.278
578.495
575.409
571.036
565.399
558.526
550.446
541.185
530.77
519.23
506.594
509.41
527.394
543.756
558.465
571.497
582.844
592.516
600.549
607.014
612.032
615.783
618.522
620.582
622.376
624.36
626.989
630.631
635.478
641.471
648.277
655.331
661.926
667.327
670.866
671.999
670.327
665.593
657.659
646.481
632.082
614.534
593.941
570.426
544.128
545.876
584.737
630.673
676.955
723.492
770.203
817.021
863.885
910.742
957.543
1004.25
1050.82
1097.22
1143.4
1189.34
1234.97
1280.25
1325.1
1369.44
1413.14
1456.05
1497.94
1538.53
1577.03
1613.65
1647.28
1676.93
18015.1
1657.35
1605.71
1547.59
1484.11
1416.12
1344.37
1269.53
1192.26
1113.32
1033.59
953.88
875.463
800.486
731.553
671.462
622.762
587.03
564.168
552.283
548.394
549.454
553.047
557.518
561.853
565.49
568.134
569.637
569.927
568.977
566.782
563.347
558.686
552.817
545.759
537.533
528.159
517.662
506.07
508.667
525.174
540.075
553.341
564.953
574.91
583.227
589.945
595.143
598.942
601.526
603.149
604.14
604.904
605.89
607.544
610.226
614.125
619.184
625.078
631.25
637.006
641.618
644.423
644.878
642.585
637.283
628.829
617.172
602.33
584.366
563.374
539.469
512.78
508.137
540.63
586.728
633.364
680.445
727.89
775.628
823.592
871.723
919.967
968.275
1016.59
1064.87
1113.06
1161.09
1208.9
1256.42
1303.53
1350.13
1396.06
1441.12
1485.04
1527.4
1567.46
1605.21
1639.33
1668.41
17624.5
1643.34
1589.07
1528.7
1463.2
1393.39
1320
1243.72
1165.28
1085.5
1005.29
925.489
847.5
773.529
706.168
648.13
601.775
568.396
547.599
537.305
534.522
536.32
540.432
545.327
550.074
554.162
557.317
559.399
560.341
560.108
558.691
556.087
552.303
547.349
541.238
533.984
525.604
516.118
505.553
507.926
522.963
536.413
548.25
558.462
567.049
574.033
579.459
583.408
586.006
587.435
587.949
587.874
587.607
587.59
588.259
589.967
592.897
596.994
601.935
607.173
612.019
615.754
617.72
617.378
614.33
608.315
599.189
586.898
571.453
552.913
531.366
506.921
479.698
470.183
497.915
544.093
590.977
638.474
686.499
734.978
783.839
833.019
882.455
932.086
981.851
1031.68
1081.52
1131.27
1180.86
1230.19
1279.13
1327.53
1375.22
1421.96
1467.45
1511.18
1552.46
1591.18
1625.97
2366.12
16774.6
1624.11
1567.85
1505.83
1438.91
1367.88
1293.46
1216.38
1137.38
1057.31
977.113
897.648
820.421
747.693
682.025
626.036
581.914
550.707
531.777
522.91
521.127
523.612
528.231
533.556
538.728
543.272
546.935
549.583
551.149
551.598
550.916
549.096
546.14
542.053
536.845
530.524
523.104
514.602
505.043
507.19
520.767
532.778
543.202
552.028
559.264
564.932
569.084
571.801
573.211
573.496
572.908
571.767
570.466
569.436
569.105
569.817
571.75
574.848
578.792
583.038
586.908
589.689
590.728
589.49
585.582
578.742
568.827
555.779
539.61
520.374
498.156
473.059
445.198
431.993
456.204
502.38
549.41
597.199
645.662
694.717
744.293
794.316
844.718
895.429
946.375
997.48
1048.66
1099.83
1150.87
1201.68
1252.1
1301.97
1351.1
1399.21
1445.99
1490.92
1533.32
1573.13
1609.1
4776.17
14720.2
1599.78
1542.54
1479.64
1411.97
1340.32
1265.43
1188.04
1108.95
1029.03
949.206
870.384
794.157
722.806
658.872
604.892
562.894
533.714
516.51
508.965
508.125
511.277
516.405
522.168
527.768
532.766
536.925
540.12
542.285
543.386
543.404
542.332
540.167
536.912
532.57
527.151
520.662
513.119
504.545
506.458
518.585
529.166
538.184
545.635
551.527
555.889
558.772
560.262
560.486
559.628
557.934
555.723
553.379
551.326
549.981
549.681
550.598
552.672
555.587
558.803
561.649
563.417
563.463
561.256
556.405
548.653
537.856
523.96
506.974
486.951
463.973
438.141
409.567
393.563
415.176
461.271
508.351
556.32
605.09
654.579
704.706
755.394
806.568
858.149
910.055
962.198
1014.48
1066.81
1119.05
1171.08
1222.74
1273.85
1324.18
1373.47
1421.38
1467.37
1510.78
1551.56
1588.44
6934.57
12672.8
1571.96
1514.39
1451.18
1383.25
1311.43
1236.48
1159.19
1080.35
1000.87
921.688
843.72
768.64
698.745
636.545
584.499
544.497
517.186
501.561
495.228
495.27
499.068
504.708
510.927
516.976
522.445
527.112
530.858
533.621
535.365
536.072
535.731
534.337
531.891
528.395
523.853
518.273
511.668
504.057
505.731
516.415
525.573
533.194
539.275
543.83
546.889
548.507
548.77
547.809
545.803
543
539.711
536.315
533.227
530.856
529.528
529.41
530.438
532.296
534.45
536.23
536.94
535.939
532.702
526.845
518.114
506.367
491.552
473.68
452.803
429.002
402.378
373.038
354.899
374.595
420.534
467.575
515.623
564.586
614.378
664.915
716.115
767.896
820.17
872.85
925.838
979.029
1032.31
1085.55
1138.6
1191.29
1243.43
1294.79
1345.08
1393.95
1440.87
1485.16
1526.76
1564.39
8836.78
10869.6
1541.83
1484.29
1421.12
1353.29
1281.64
1206.96
1130.05
1051.74
972.954
894.592
817.623
743.786
675.382
614.888
564.693
526.559
500.976
486.802
481.593
482.47
486.903
493.065
499.757
506.276
512.234
517.423
521.73
525.094
527.481
528.871
529.253
528.62
526.969
524.303
520.623
515.934
510.247
503.579
505.007
514.255
521.998
528.226
532.941
536.16
537.918
538.27
537.305
535.154
531.996
528.076
523.701
519.244
515.111
511.701
509.333
508.165
508.129
508.909
509.972
510.657
510.271
508.181
503.87
496.958
487.196
474.447
458.661
439.851
418.071
393.403
365.946
335.806
316.019
334.283
379.996
426.919
474.955
524.009
573.993
624.819
676.399
728.646
781.467
834.766
888.438
942.37
996.438
1050.5
1104.41
1157.98
1211
1263.23
1314.39
1364.12
1411.85
1456.92
1499.25
1537.56
10446
9363.97
1510.15
1452.86
1389.99
1322.52
1251.29
1177.13
1100.83
1023.25
945.309
867.912
792.051
719.522
652.618
593.788
545.35
508.958
484.968
472.128
467.962
469.634
474.693
481.388
488.575
495.587
502.058
507.788
512.671
516.648
519.685
521.761
522.865
522.988
522.127
520.28
517.45
513.638
508.854
503.111
504.287
512.105
518.436
523.274
526.626
528.511
528.966
528.051
525.855
522.509
518.193
513.148
507.68
502.151
496.964
492.505
489.085
486.854
485.74
485.423
485.375
484.939
483.428
480.217
474.796
466.791
455.959
442.169
425.375
405.591
382.875
357.309
328.992
298.033
276.941
294.112
339.536
386.27
434.214
483.271
533.35
584.359
636.208
688.803
742.047
795.837
850.062
904.602
959.324
1014.08
1068.71
1123.02
1176.8
1229.81
1281.73
1332.22
1380.68
1426.47
1469.5
1508.47
11793.1
8116.46
1477.39
1420.52
1358.14
1291.2
1220.59
1147.13
1071.61
994.908
917.956
841.631
766.96
695.777
630.367
573.147
526.375
491.606
469.083
457.471
454.278
456.711
462.391
469.632
477.335
484.865
491.872
498.165
503.642
508.245
511.942
514.712
516.541
517.421
517.346
516.314
514.324
511.379
507.484
502.651
503.569
509.963
514.886
518.337
520.326
520.876
520.027
517.841
514.41
509.863
504.383
498.207
491.636
485.029
478.778
473.262
468.781
465.477
463.271
461.844
460.668
459.09
456.431
452.074
445.516
436.39
424.46
409.601
391.77
370.987
347.312
320.829
291.638
259.849
237.691
253.992
299.072
345.553
393.333
442.317
492.407
543.512
595.535
648.379
701.942
756.116
810.785
865.822
921.088
976.43
1031.68
1086.64
1141.09
1194.77
1247.38
1298.56
1347.7
1394.17
1437.88
1477.54
12890
7124.58
1443.9
1387.56
1325.78
1259.54
1189.69
1117.06
1042.47
966.762
890.895
815.726
742.303
672.486
608.553
552.89
507.695
474.44
453.271
442.788
440.497
443.663
449.963
457.763
466.005
474.077
481.643
488.52
494.61
499.856
504.226
507.699
510.26
511.899
512.611
512.391
511.238
509.151
506.134
502.198
502.854
507.827
511.344
513.409
514.036
513.25
511.095
507.635
502.963
497.212
490.561
483.246
475.567
467.873
460.551
453.97
448.42
444.033
440.727
438.178
435.861
433.126
429.302
423.779
416.063
405.795
392.746
376.797
357.911
336.113
311.465
284.054
253.983
221.361
198.294
213.863
258.549
304.72
352.277
401.119
451.15
502.273
554.389
607.399
661.194
715.664
770.686
826.13
881.851
937.691
993.475
1049
1104.04
1158.34
1211.58
1263.39
1313.18
1360.31
1404.71
1445.07
13765.3
6343.07
1409.87
1354.15
1293.1
1227.65
1158.69
1087.01
1013.44
938.823
864.118
790.164
718.028
649.586
587.106
532.945
489.252
457.422
437.519
428.075
426.594
430.464
437.385
445.761
454.563
463.201
471.349
478.832
485.554
491.46
496.516
500.703
504.003
506.408
507.909
508.501
508.181
506.947
504.802
501.751
502.141
505.695
507.808
508.488
507.752
505.629
502.166
497.428
491.511
484.55
476.722
468.263
459.468
450.682
442.282
434.63
428.003
422.529
418.114
414.434
410.964
407.061
402.058
395.355
386.465
375.04
360.858
343.806
323.853
301.03
275.401
247.059
216.106
182.655
158.776
173.691
217.936
263.749
311.028
359.671
409.579
460.654
512.795
565.898
619.852
674.542
729.843
785.62
841.724
897.991
954.241
1010.27
1065.84
1120.7
1174.52
1226.94
1277.35
1325.14
1370.21
1411.29
14456.1
5745.33
1375.45
1320.44
1260.19
1195.64
1127.65
1057.02
984.546
911.098
837.611
764.917
694.089
627.018
565.955
513.23
470.95
440.456
421.77
413.35
412.603
417.144
424.677
433.634
443.009
452.229
460.978
469.086
476.457
483.037
488.795
493.706
497.757
500.934
503.228
504.634
505.147
504.762
503.482
501.309
501.428
503.566
504.277
503.572
501.472
498.009
493.234
487.215
480.05
471.873
462.863
453.255
443.338
433.454
423.971
415.242
407.535
400.966
395.437
390.619
385.989
380.907
374.715
366.82
356.747
344.154
328.828
310.664
289.639
265.785
239.175
209.902
178.073
143.8
119.163
133.456
177.221
222.632
269.584
317.977
367.708
418.679
470.784
523.918
577.968
632.815
688.33
744.374
800.796
857.429
914.086
970.561
1026.62
1081.99
1136.36
1189.35
1240.38
1288.8
1334.55
1376.38
14972.7
5319.06
1340.73
1286.5
1227.14
1163.57
1096.63
1027.12
955.819
883.593
811.371
739.969
670.468
604.755
545.069
493.709
452.743
423.47
405.905
398.506
398.505
403.702
411.838
421.376
431.333
441.149
450.515
459.264
467.3
474.572
481.044
486.693
491.504
495.461
498.556
500.78
502.126
502.591
502.172
500.871
500.717
501.439
500.747
498.656
495.191
490.387
484.297
476.994
468.575
459.178
448.982
438.218
427.175
416.188
405.618
395.807
387.014
379.347
372.698
366.738
360.941
354.673
347.284
338.19
326.925
313.157
296.682
277.403
255.301
230.418
202.828
172.629
139.931
104.848
100
100
136.405
181.374
227.958
276.054
325.561
376.375
428.391
481.501
535.59
590.536
646.207
702.462
759.147
816.091
873.106
929.981
986.48
1042.33
1097.22
1150.76
1202.37
1251.42
1297.86
1340.43
15325
5053.22
1305.78
1252.39
1194
1131.49
1065.67
997.333
927.265
856.309
785.389
715.309
647.145
582.78
524.431
474.368
434.62
406.451
389.878
383.42
384.235
390.091
398.828
408.952
419.504
429.932
439.933
449.341
458.061
466.041
473.243
479.645
485.228
489.977
493.88
496.927
499.111
500.426
500.867
500.435
500.006
499.313
497.219
493.741
488.908
482.76
475.352
466.759
457.084
446.462
435.074
423.15
410.976
398.881
387.219
376.323
366.442
357.672
349.901
342.792
335.824
328.365
319.774
309.475
297.013
282.065
264.438
244.041
220.864
194.953
166.389
135.273
101.718
100
100
100
100
139.992
186.169
233.927
283.164
333.776
385.655
438.69
492.766
547.758
603.532
659.946
716.843
774.049
831.375
888.608
945.51
1001.81
1057.18
1111.26
1163.44
1213.11
1260.22
1303.52
15512.7
4936.6
1270.61
1218.16
1160.81
1099.41
1034.78
967.675
898.882
829.235
759.648
690.913
624.099
561.071
504.027
455.206
416.605
389.453
373.73
368.014
369.66
376.199
385.56
396.296
407.466
418.533
429.194
439.285
448.712
457.42
465.372
472.543
478.913
484.466
489.187
493.067
496.095
498.263
499.566
500
500.006
499.313
497.218
493.74
488.907
482.76
475.352
466.759
457.083
446.461
435.073
423.15
410.975
398.88
387.218
376.322
366.441
357.671
349.9
342.791
335.823
328.364
319.773
309.474
297.012
282.064
264.437
244.039
220.863
194.952
166.388
135.272
101.716
100
100
100
100
139.991
186.168
233.926
283.164
333.775
385.654
438.689
492.765
547.757
603.532
659.946
716.842
774.048
831.374
888.608
945.509
1001.81
1057.18
1111.26
1163.44
1213.11
1260.22
1303.52
15512.6
4936.7
1270.61
1218.16
1160.81
1099.41
1034.78
967.674
898.881
829.234
759.647
690.912
624.097
561.07
504.026
455.204
416.603
389.451
373.728
368.012
369.658
376.198
385.558
396.294
407.465
418.531
429.193
439.284
448.711
457.419
465.371
472.542
478.912
484.465
489.187
493.066
496.094
498.262
499.565
500
500.717
501.439
500.747
498.656
495.19
490.387
484.297
476.993
468.574
459.177
448.981
438.217
427.174
416.186
405.616
395.805
387.013
379.345
372.697
366.736
360.939
354.671
347.282
338.188
326.923
313.155
296.68
277.4
255.298
230.415
202.825
172.626
139.928
104.845
100
100
136.403
181.372
227.956
276.052
325.559
376.373
428.39
481.5
535.589
590.534
646.206
702.461
759.146
816.09
873.105
929.98
986.479
1042.33
1097.21
1150.76
1202.37
1251.42
1297.86
1340.43
15324.7
5053.54
1305.78
1252.39
1194
1131.49
1065.67
997.332
927.263
856.307
785.388
715.307
647.143
582.778
524.429
474.365
434.617
406.448
389.875
383.416
384.231
390.088
398.824
408.949
419.501
429.929
439.93
449.338
458.059
466.039
473.241
479.643
485.226
489.975
493.879
496.926
499.111
500.425
500.867
500.435
501.428
503.566
504.276
503.571
501.471
498.009
493.233
487.214
480.049
471.872
462.862
453.254
443.337
433.453
423.97
415.24
407.533
400.964
395.435
390.617
385.987
380.904
374.712
366.818
356.744
344.151
328.825
310.661
289.636
265.782
239.172
209.899
178.069
143.796
119.16
133.455
177.22
222.63
269.583
317.975
367.707
418.678
470.783
523.917
577.967
632.814
688.329
744.374
800.796
857.428
914.086
970.561
1026.62
1081.99
1136.36
1189.35
1240.37
1288.8
1334.55
1376.38
14972.1
5319.57
1340.73
1286.5
1227.14
1163.57
1096.63
1027.12
955.818
883.592
811.37
739.968
670.466
604.753
545.067
493.706
452.74
423.466
405.902
398.503
398.501
403.698
411.834
421.372
431.33
441.146
450.512
459.261
467.298
474.569
481.041
486.691
491.502
495.46
498.555
500.779
502.125
502.59
502.171
500.871
502.141
505.695
507.808
508.488
507.752
505.629
502.165
497.427
491.511
484.549
476.721
468.262
459.467
450.681
442.281
434.628
428.002
422.527
418.112
414.432
410.962
407.058
402.056
395.352
386.463
375.037
360.855
343.802
323.85
301.026
275.398
247.055
216.103
182.651
158.773
173.69
217.935
263.749
311.027
359.67
409.579
460.654
512.795
565.898
619.852
674.543
729.844
785.62
841.724
897.992
954.241
1010.27
1065.84
1120.7
1174.52
1226.94
1277.35
1325.13
1370.21
1411.29
14455.4
5746.03
1375.45
1320.43
1260.19
1195.64
1127.65
1057.02
984.545
911.097
837.61
764.916
694.088
627.016
565.954
513.228
470.947
440.453
421.766
413.346
412.599
417.139
424.673
433.63
443.006
452.226
460.975
469.083
476.454
483.035
488.792
493.704
497.755
500.932
503.227
504.633
505.146
504.762
503.481
501.309
502.854
507.826
511.344
513.409
514.035
513.25
511.095
507.634
502.962
497.211
490.56
483.245
475.565
467.872
460.55
453.968
448.418
444.032
440.725
438.176
435.859
433.124
429.3
423.776
416.06
405.792
392.743
376.794
357.908
336.109
311.461
284.05
253.979
221.357
198.291
213.863
258.548
304.72
352.277
401.12
451.151
502.274
554.39
607.399
661.195
715.665
770.687
826.131
881.852
937.693
993.477
1049
1104.05
1158.34
1211.58
1263.4
1313.19
1360.32
1404.71
1445.07
13764.5
6343.93
1409.87
1354.15
1293.1
1227.65
1158.69
1087.01
1013.44
938.823
864.117
790.164
718.027
649.585
587.105
532.943
489.249
457.419
437.515
428.071
426.589
430.459
437.381
445.757
454.559
463.197
471.346
478.829
485.551
491.457
496.514
500.7
504.002
506.407
507.908
508.5
508.18
506.947
504.801
501.751
503.569
509.963
514.885
518.337
520.326
520.876
520.027
517.84
514.409
509.862
504.382
498.206
491.635
485.028
478.776
473.26
468.779
465.475
463.269
461.842
460.666
459.088
456.429
452.072
445.513
436.387
424.457
409.597
391.766
370.983
347.308
320.825
291.634
259.844
237.689
253.992
299.072
345.553
393.334
442.318
492.409
543.513
595.536
648.38
701.944
756.118
810.787
865.824
921.09
976.432
1031.68
1086.64
1141.09
1194.77
1247.39
1298.56
1347.7
1394.17
1437.88
1477.54
12889.1
7125.5
1443.9
1387.56
1325.78
1259.54
1189.69
1117.06
1042.47
966.762
890.895
815.726
742.303
672.486
608.552
552.888
507.693
474.437
453.268
442.784
440.493
443.658
449.958
457.759
466.001
474.073
481.639
488.517
494.607
499.854
504.224
507.697
510.258
511.898
512.61
512.39
511.237
509.15
506.134
502.198
504.287
512.105
518.436
523.274
526.626
528.511
528.966
528.05
525.854
522.508
518.192
513.147
507.678
502.15
496.962
492.504
489.084
486.853
485.738
485.421
485.373
484.937
483.425
480.214
474.793
466.788
455.956
442.166
425.371
405.587
382.871
357.305
328.988
298.028
276.939
294.112
339.537
386.271
434.215
483.272
533.352
584.361
636.21
688.806
742.05
795.84
850.065
904.605
959.327
1014.09
1068.71
1123.03
1176.81
1229.81
1281.74
1332.22
1380.69
1426.47
1469.5
1508.47
11792.3
8117.28
1477.39
1420.52
1358.13
1291.2
1220.59
1147.13
1071.61
994.908
917.956
841.632
766.961
695.777
630.367
573.146
526.373
491.603
469.08
457.467
454.273
456.706
462.387
469.627
477.331
484.862
491.868
498.162
503.639
508.243
511.94
514.71
516.539
517.419
517.344
516.313
514.324
511.379
507.484
502.65
505.007
514.255
521.998
528.225
532.941
536.16
537.917
538.269
537.305
535.153
531.995
528.075
523.7
519.242
515.11
511.7
509.332
508.163
508.128
508.907
509.97
510.655
510.269
508.178
503.867
496.955
487.193
474.444
458.658
439.847
418.067
393.399
365.941
335.802
316.017
334.284
379.997
426.921
474.957
524.012
573.995
624.821
676.402
728.649
781.47
834.769
888.442
942.374
996.443
1050.51
1104.41
1157.98
1211.01
1263.24
1314.4
1364.13
1411.86
1456.93
1499.26
1537.56
10445.9
9364.16
1510.14
1452.86
1389.99
1322.52
1251.29
1177.13
1100.83
1023.25
945.311
867.913
792.053
719.523
652.619
593.788
545.349
508.956
484.964
472.124
467.957
469.629
474.688
481.383
488.57
495.583
502.054
507.785
512.668
516.645
519.682
521.759
522.863
522.987
522.126
520.28
517.449
513.638
508.853
503.11
505.731
516.414
525.573
533.194
539.275
543.829
546.888
548.506
548.77
547.808
545.802
542.999
539.71
536.314
533.226
530.855
529.527
529.409
530.437
532.294
534.448
536.228
536.938
535.936
532.7
526.842
518.111
506.364
491.549
473.676
452.799
428.998
402.373
373.033
354.898
374.597
420.536
467.578
515.625
564.589
614.381
664.918
716.119
767.899
820.174
872.854
925.842
979.033
1032.31
1085.55
1138.6
1191.3
1243.44
1294.8
1345.08
1393.96
1440.88
1485.17
1526.77
1564.4
8838.7
10868.4
1541.83
1484.29
1421.12
1353.29
1281.64
1206.96
1130.05
1051.74
972.956
894.595
817.626
743.789
675.384
614.889
564.692
526.557
500.974
486.798
481.589
482.465
486.898
493.06
499.753
506.272
512.231
517.42
521.727
525.092
527.479
528.869
529.251
528.618
526.968
524.302
520.622
515.934
510.247
503.579
506.458
518.585
529.166
538.184
545.635
551.527
555.888
558.772
560.261
560.485
559.627
557.933
555.722
553.378
551.325
549.98
549.68
550.597
552.671
555.585
558.802
561.647
563.415
563.461
561.253
556.402
548.65
537.853
523.957
506.97
486.947
463.969
438.137
409.563
393.561
415.178
461.273
508.353
556.323
605.093
654.582
704.709
755.398
806.572
858.153
910.059
962.203
1014.49
1066.81
1119.06
1171.09
1222.75
1273.85
1324.19
1373.47
1421.39
1467.37
1510.79
1551.57
1588.45
6942
12668.1
1571.96
1514.39
1451.17
1383.25
1311.43
1236.48
1159.19
1080.35
1000.87
921.689
843.723
768.643
698.748
636.547
584.5
544.497
517.184
501.557
495.224
495.265
499.064
504.704
510.923
516.973
522.442
527.109
530.856
533.619
535.363
536.07
535.729
534.336
531.89
528.394
523.853
518.273
511.668
504.057
507.19
520.767
532.778
543.202
552.028
559.263
564.932
569.083
571.8
573.21
573.495
572.907
571.766
570.465
569.435
569.104
569.815
571.749
574.847
578.79
583.037
586.907
589.687
590.726
589.488
585.58
578.74
568.824
555.776
539.607
520.371
498.152
473.055
445.194
431.992
456.206
502.382
549.412
597.202
645.665
694.721
744.296
794.32
844.722
895.433
946.379
997.484
1048.67
1099.83
1150.88
1201.68
1252.11
1301.98
1351.1
1399.22
1446
1490.93
1533.33
1573.14
1609.11
4783.64
14716.2
1599.79
1542.54
1479.64
1411.98
1340.32
1265.44
1188.05
1108.96
1029.04
949.211
870.388
794.161
722.81
658.875
604.894
562.895
533.713
516.508
508.962
508.122
511.274
516.401
522.164
527.765
532.764
536.923
540.118
542.283
543.384
543.403
542.332
540.167
536.911
532.57
527.15
520.662
513.119
504.545
507.926
522.963
536.413
548.25
558.462
567.049
574.033
579.459
583.408
586.005
587.435
587.948
587.873
587.606
587.589
588.258
589.966
592.896
596.993
601.934
607.172
612.018
615.752
617.718
617.376
614.328
608.313
599.187
586.895
571.45
552.91
531.363
506.918
479.695
470.182
497.917
544.096
590.98
638.476
686.502
734.981
783.842
833.022
882.458
932.09
981.854
1031.69
1081.52
1131.28
1180.87
1230.19
1279.13
1327.54
1375.23
1421.97
1467.45
1511.19
1552.48
1591.2
1625.99
2372.97
16770
1624.1
1567.85
1505.83
1438.91
1367.88
1293.47
1216.38
1137.39
1057.32
977.125
897.657
820.431
747.701
682.031
626.041
581.917
550.708
531.776
522.908
521.125
523.609
528.229
533.554
538.726
543.27
546.933
549.581
551.147
551.597
550.915
549.096
546.14
542.053
536.844
530.524
523.104
514.602
505.043
508.667
525.174
540.075
553.341
564.953
574.91
583.226
589.945
595.142
598.942
601.526
603.148
604.139
604.903
605.89
607.543
610.225
614.124
619.183
625.077
631.249
637.005
641.617
644.421
644.876
642.583
637.28
628.826
617.17
602.327
584.363
563.371
539.466
512.776
508.136
540.633
586.731
633.367
680.448
727.893
775.631
823.595
871.725
919.97
968.278
1016.6
1064.88
1113.06
1161.1
1208.91
1256.42
1303.54
1350.14
1396.07
1441.13
1485.05
1527.41
1567.47
1605.22
1639.34
1668.43
17624.6
1643.34
1589.07
1528.7
1463.21
1393.4
1320
1243.73
1165.3
1085.51
1005.3
925.501
847.507
773.534
706.174
648.136
601.78
568.399
547.599
537.305
534.521
536.318
540.431
545.325
550.072
554.16
557.315
559.398
560.34
560.108
558.691
556.087
552.303
547.349
541.238
533.984
525.604
516.118
505.553
509.41
527.394
543.756
558.465
571.497
582.844
592.516
600.549
607.014
612.032
615.783
618.521
620.582
622.375
624.359
626.988
630.63
635.477
641.47
648.276
655.33
661.925
667.326
670.865
671.997
670.325
665.591
657.657
646.479
632.08
614.532
593.938
570.423
544.124
545.875
584.739
630.675
676.957
723.494
770.206
817.023
863.887
910.744
957.545
1004.25
1050.82
1097.22
1143.4
1189.34
1234.97
1280.25
1325.1
1369.44
1413.15
1456.05
1497.95
1538.54
1577.04
1613.66
1647.3
1676.95
18016
1657.36
1605.71
1547.6
1484.11
1416.13
1344.38
1269.53
1192.26
1113.32
1033.6
953.893
875.483
800.505
731.568
671.473
622.77
587.035
564.17
552.284
548.394
549.453
553.046
557.517
561.852
565.489
568.134
569.636
569.926
568.977
566.782
563.347
558.686
552.817
545.759
537.533
528.159
517.662
506.07
510.156
529.628
547.475
563.66
578.156
590.945
602.031
611.442
619.24
625.538
630.512
634.413
637.576
640.415
643.396
646.979
651.541
657.276
664.126
671.749
679.572
686.878
692.925
697.041
698.68
697.448
693.093
685.484
674.585
660.429
643.099
622.709
599.396
575.127
585.312
630.763
676.452
722.271
768.127
813.944
859.652
905.198
950.535
995.623
1040.42
1084.92
1129.08
1172.87
1216.29
1259.31
1301.88
1343.99
1385.56
1426.53
1466.78
1506.15
1544.43
1581.04
1615.78
1648.4
1677.72
16706.6
1663.93
1615.92
1560.79
1500.04
1434.66
1365.36
1292.76
1217.45
1140.11
1061.55
982.55
904.232
828.636
758.373
696.339
645.293
607.134
582.112
568.563
563.532
563.842
566.903
570.921
574.789
577.9
579.938
580.752
580.278
578.496
575.409
571.036
565.399
558.526
550.446
541.185
530.771
519.23
506.594
510.895
531.841
551.172
568.848
584.831
599.097
611.635
622.461
631.627
639.234
645.454
650.533
654.811
658.706
662.692
667.238
672.726
679.35
687.043
695.453
703.988
711.92
718.496
723.041
725.011
724.017
719.819
712.296
701.429
687.264
669.9
649.465
626.112
612.52
633.799
679.164
724.524
769.77
814.812
859.571
903.983
947.996
991.568
1034.67
1077.27
1119.36
1160.92
1201.94
1242.41
1282.34
1321.72
1360.54
1398.78
1436.41
1473.38
1509.6
1544.89
1578.82
1611.25
1642.01
1670.1
13785.6
4521.9
1620.11
1567.35
1509.65
1447.59
1381.66
1312.31
1240
1165.28
1088.83
1011.39
933.904
858.259
787.034
723.204
669.752
628.948
601.467
585.964
579.566
578.99
581.455
585.003
588.408
590.997
592.423
592.525
591.24
588.56
584.503
579.103
572.401
564.439
555.26
544.905
533.406
520.8
507.116
511.632
534.081
554.962
574.228
591.835
607.746
621.932
634.391
645.153
654.3
661.981
668.427
673.964
679.004
684.021
689.491
695.803
703.158
711.486
720.428
729.383
737.616
744.374
748.989
750.928
749.816
745.425
737.653
726.492
712.008
694.313
673.553
649.894
649.941
685.477
730.669
775.587
820.126
864.192
907.713
950.626
992.886
1034.46
1075.31
1115.43
1154.81
1193.44
1231.33
1268.47
1304.89
1340.6
1375.61
1409.93
1443.58
1476.54
1508.79
1540.25
1570.62
1599.75
1627.65
1653.55
10513.7
7836.04
1616.32
1566.48
1512.37
1454.29
1392.5
1327.26
1258.88
1187.75
1114.41
1039.52
963.861
889.064
817.644
752.619
697.183
653.993
624.207
606.862
599.2
597.801
599.663
602.629
605.355
607.119
607.577
606.586
604.112
600.173
594.813
588.088
580.061
570.791
560.339
548.756
536.086
522.367
507.629
512.322
536.153
558.485
579.281
598.479
616.018
631.843
645.919
658.248
668.89
677.983
685.757
692.547
698.773
704.883
711.334
718.51
726.61
735.562
745.001
754.323
762.791
769.66