/*--------------------------------*- C++ -*----------------------------------*\
  =========                 |
  \\      /  F ield         | OpenFOAM: The Open Source CFD Toolbox
   \\    /   O peration     | Website:  https://openfoam.org
    \\  /    A nd           | Version:  8
     \\/     M anipulation  |
\*---------------------------------------------------------------------------*/
FoamFile
{
    version     2.0;
    format      ascii;
    class       volScalarField;
    location    "920/fluid";
    object      rho;
}
// * * * * * * * * * * * * * * * * * * * * * * * * * * * * * * * * * * * * * //

dimensions      [1 -3 0 0 0 0 0];

internalField   nonuniform List<scalar> 
4000
(
0.658526
0.658499
0.658454
0.658379
0.658254
0.658047
0.657705
0.657147
0.656246
0.654812
0.652566
0.649117
0.643953
0.636453
0.625949
0.611863
0.593879
0.57212
0.547216
0.520209
0.492327
0.464723
0.438293
0.413611
0.390955
0.370382
0.351809
0.335077
0.319994
0.306366
0.294013
0.282772
0.272504
0.263094
0.254443
0.246454
0.239023
0.232088
0.2256
0.219515
0.213795
0.20841
0.203333
0.198541
0.194015
0.189739
0.185701
0.181888
0.178293
0.174908
0.171729
0.168754
0.165982
0.163416
0.161065
0.15894
0.157059
0.155471
0.154205
0.153267
0.152773
0.152841
0.154226
0.163104
0.173599
0.185926
0.200381
0.217357
0.237368
0.261085
0.289377
0.323367
0.364495
0.414712
0.476386
0.55169
0.64177
0.745031
0.854938
0.959589
1.04595
1.10697
1.14437
1.16471
1.17491
1.17978
1.18203
1.18304
1.18348
1.18368
1.18376
1.1838
1.18381
1.18382
1.18382
1.18382
1.18382
1.18382
1.18382
1.18382
0.658526
0.658499
0.658454
0.658379
0.658254
0.658045
0.657702
0.657141
0.656238
0.654801
0.652556
0.64912
0.643991
0.636563
0.626191
0.612306
0.594591
0.573144
0.548551
0.521805
0.494098
0.466572
0.44013
0.415367
0.392586
0.371866
0.353139
0.336257
0.321034
0.307278
0.294809
0.283466
0.273107
0.263616
0.254893
0.246841
0.239355
0.232372
0.22584
0.219715
0.21396
0.208543
0.203437
0.198619
0.19407
0.189774
0.185716
0.181887
0.178277
0.174879
0.171688
0.168702
0.165921
0.163348
0.160991
0.15886
0.156975
0.155385
0.154117
0.153178
0.152686
0.15276
0.154893
0.163936
0.174626
0.187194
0.201952
0.219314
0.239824
0.264189
0.293331
0.328437
0.371035
0.423197
0.487332
0.565502
0.658446
0.763688
0.873498
0.975327
1.05702
1.11344
1.14758
1.16614
1.1755
1.18001
1.18211
1.18307
1.18349
1.18368
1.18376
1.1838
1.18381
1.18382
1.18382
1.18382
1.18382
1.18382
1.18382
1.18382
0.658526
0.658499
0.658454
0.658379
0.658253
0.658043
0.657699
0.657137
0.656231
0.654794
0.652551
0.649125
0.644023
0.636652
0.626378
0.612643
0.595133
0.573933
0.5496
0.523093
0.495576
0.468169
0.441776
0.416999
0.394158
0.373346
0.35451
0.337511
0.322171
0.308302
0.295727
0.284284
0.273833
0.264256
0.255455
0.247333
0.239784
0.232742
0.226156
0.219981
0.21418
0.208721
0.203576
0.198722
0.19414
0.189813
0.185728
0.181874
0.178241
0.174822
0.171614
0.168612
0.165817
0.163233
0.160865
0.158726
0.156835
0.155244
0.153976
0.153041
0.152559
0.152648
0.156097
0.165364
0.17634
0.189267
0.204475
0.222402
0.243623
0.268887
0.299164
0.335701
0.380097
0.434502
0.501247
0.582116
0.677262
0.783273
0.891556
0.98961
1.06659
1.11894
1.15037
1.16746
1.17609
1.18026
1.18222
1.18311
1.18351
1.18369
1.18376
1.1838
1.18381
1.18382
1.18382
1.18382
1.18382
1.18382
1.18382
1.18382
0.658526
0.658499
0.658454
0.658379
0.658253
0.658044
0.657701
0.657141
0.656241
0.654814
0.65259
0.649198
0.644152
0.636866
0.626715
0.613146
0.595837
0.574857
0.550737
0.524412
0.497022
0.469682
0.443299
0.418487
0.395578
0.374678
0.355745
0.338644
0.323204
0.309239
0.296572
0.285043
0.274512
0.26486
0.255987
0.247802
0.240193
0.233096
0.226458
0.220235
0.214388
0.208886
0.203701
0.19881
0.194193
0.189834
0.18572
0.181838
0.178181
0.174741
0.171512
0.168493
0.165684
0.163088
0.160711
0.158565
0.156671
0.155083
0.153824
0.152899
0.152431
0.152546
0.157621
0.167136
0.178434
0.191768
0.207485
0.226045
0.248054
0.274298
0.305793
0.343835
0.3901
0.446791
0.516132
0.599622
0.696828
0.803447
0.910092
1.00435
1.07664
1.12489
1.15352
1.16899
1.1768
1.18058
1.18235
1.18317
1.18354
1.1837
1.18377
1.1838
1.18381
1.18382
1.18382
1.18382
1.18382
1.18382
1.18382
1.18382
0.658526
0.658499
0.658455
0.65838
0.658254
0.658047
0.657705
0.657149
0.656255
0.654839
0.652634
0.649273
0.644277
0.637067
0.627023
0.613595
0.596457
0.575663
0.551725
0.525551
0.498268
0.470984
0.444608
0.419765
0.396797
0.375821
0.356803
0.339616
0.32409
0.310042
0.297298
0.285695
0.275095
0.265378
0.256444
0.248202
0.240542
0.233396
0.226712
0.220445
0.214557
0.209016
0.203794
0.198868
0.194218
0.189829
0.185687
0.18178
0.1781
0.174639
0.171392
0.168359
0.165537
0.162931
0.160548
0.1584
0.156509
0.154934
0.153686
0.152777
0.152338
0.152507
0.159251
0.169015
0.180645
0.194402
0.210646
0.229859
0.252671
0.279906
0.31262
0.352156
0.40027
0.459186
0.530986
0.616862
0.71577
0.822554
0.9272
1.01761
1.08549
1.13006
1.15623
1.17032
1.17741
1.18086
1.18248
1.18322
1.18356
1.18371
1.18377
1.1838
1.18381
1.18382
1.18382
1.18382
1.18382
1.18382
1.18382
1.18382
0.658526
0.6585
0.658455
0.658381
0.658256
0.65805
0.657711
0.65716
0.656274
0.654871
0.652689
0.649363
0.644419
0.637285
0.627345
0.614048
0.597062
0.576427
0.552636
0.526581
0.499374
0.472123
0.44574
0.420859
0.397832
0.376786
0.357692
0.340428
0.324827
0.310709
0.297897
0.286232
0.275573
0.2658
0.256814
0.248525
0.24082
0.233632
0.226907
0.220602
0.214679
0.209103
0.203849
0.198892
0.194214
0.189799
0.185632
0.181703
0.178002
0.174524
0.171263
0.168218
0.165389
0.162779
0.160396
0.158253
0.156369
0.154809
0.153574
0.152686
0.152274
0.15248
0.160709
0.170743
0.182731
0.19693
0.213713
0.233577
0.257183
0.285384
0.319279
0.360253
0.410141
0.471168
0.545269
0.633321
0.733681
0.84041
0.942995
1.02974
1.09356
1.1348
1.15876
1.17157
1.17801
1.18113
1.1826
1.18328
1.18358
1.18372
1.18378
1.1838
1.18381
1.18382
1.18382
1.18382
1.18382
1.18382
1.18382
1.18382
0.658526
0.6585
0.658456
0.658382
0.658258
0.658054
0.657718
0.657172
0.656294
0.654904
0.652742
0.649448
0.644553
0.637488
0.62764
0.614458
0.597604
0.577105
0.553437
0.527479
0.500332
0.473102
0.446707
0.421787
0.398704
0.377593
0.358431
0.341099
0.325433
0.311253
0.298383
0.286664
0.275954
0.266135
0.257104
0.248774
0.241031
0.233807
0.227048
0.220711
0.214756
0.209151
0.203869
0.198886
0.194184
0.189746
0.185559
0.181611
0.177895
0.174404
0.171133
0.168081
0.165248
0.162641
0.160265
0.158136
0.156272
0.154753
0.153523
0.152688
0.152332
0.152588
0.16146
0.172019
0.184498
0.199204
0.216547
0.23706
0.261434
0.290562
0.325579
0.367919
0.41949
0.482489
0.558709
0.648707
0.750257
0.856702
0.957158
1.04042
1.10057
1.13888
1.16092
1.17264
1.17852
1.18136
1.1827
1.18332
1.1836
1.18373
1.18378
1.1838
1.18381
1.18382
1.18382
1.18382
1.18382
1.18382
1.18382
1.18382
0.658526
0.6585
0.658456
0.658383
0.658261
0.658058
0.657725
0.657183
0.656313
0.654936
0.652794
0.649531
0.64468
0.637677
0.627912
0.614831
0.59809
0.577706
0.554141
0.52826
0.501158
0.473938
0.447525
0.422567
0.399432
0.378262
0.359039
0.341647
0.325924
0.31169
0.298771
0.287005
0.276253
0.266393
0.257325
0.24896
0.241185
0.23393
0.227143
0.220778
0.214797
0.209167
0.203862
0.198858
0.194136
0.189679
0.185475
0.181513
0.177784
0.174282
0.171004
0.167948
0.165116
0.162513
0.160149
0.158039
0.156216
0.154748
0.153594
0.15288
0.152716
0.153285
0.162468
0.173374
0.186235
0.201374
0.219218
0.24032
0.2654
0.295381
0.331436
0.375044
0.428176
0.492996
0.571147
0.662868
0.765379
0.871385
0.969745
1.0498
1.10666
1.14241
1.1628
1.17357
1.17896
1.18157
1.1828
1.18336
1.18362
1.18373
1.18378
1.18381
1.18381
1.18382
1.18382
1.18382
1.18382
1.18382
1.18382
1.18382
0.658526
0.6585
0.658457
0.658384
0.658263
0.658062
0.657731
0.657194
0.656332
0.654966
0.652842
0.649606
0.644794
0.637847
0.628153
0.61516
0.598516
0.578229
0.554749
0.528929
0.501861
0.474646
0.448213
0.423218
0.400036
0.378813
0.359536
0.342091
0.326318
0.312038
0.299076
0.287271
0.276482
0.266588
0.257489
0.249094
0.241292
0.234011
0.2272
0.220812
0.21481
0.20916
0.203836
0.198814
0.194075
0.189603
0.185386
0.181412
0.177673
0.174164
0.170881
0.167823
0.164992
0.162395
0.160042
0.15795
0.156158
0.154727
0.15363
0.153001
0.152971
0.154092
0.163542
0.174737
0.187923
0.203438
0.221723
0.243353
0.269072
0.299831
0.336834
0.381608
0.436172
0.502645
0.582529
0.675752
0.779016
0.884466
0.9808
1.05792
1.11188
1.14542
1.16439
1.17436
1.17934
1.18175
1.18288
1.1834
1.18364
1.18374
1.18379
1.18381
1.18382
1.18382
1.18382
1.18382
1.18382
1.18382
1.18382
1.18382
0.658526
0.658501
0.658457
0.658385
0.658265
0.658065
0.657737
0.657204
0.656348
0.654993
0.652885
0.649673
0.644896
0.637996
0.628365
0.615446
0.598885
0.578679
0.555269
0.529499
0.502455
0.475241
0.448788
0.423757
0.400532
0.379263
0.359938
0.342448
0.326633
0.312313
0.299314
0.287476
0.276656
0.266733
0.257607
0.249188
0.241363
0.234061
0.22723
0.220823
0.214803
0.209137
0.203797
0.19876
0.194008
0.189524
0.185296
0.181312
0.177566
0.174051
0.170764
0.167705
0.164875
0.162281
0.159933
0.157848
0.156069
0.154649
0.153557
0.152924
0.152863
0.155013
0.164658
0.176079
0.189533
0.205366
0.224034
0.24613
0.272417
0.303872
0.341729
0.387562
0.443426
0.511391
0.59282
0.687344
0.791184
0.896009
0.990431
1.06491
1.11634
1.14797
1.16574
1.17504
1.17966
1.18189
1.18295
1.18343
1.18365
1.18375
1.18379
1.18381
1.18382
1.18382
1.18382
1.18382
1.18382
1.18382
1.18382
1.18382
0.658526
0.658501
0.658458
0.658386
0.658267
0.658068
0.657743
0.657213
0.656363
0.655017
0.652923
0.649732
0.644985
0.638126
0.628548
0.615693
0.599201
0.579062
0.555709
0.529978
0.502953
0.475735
0.449263
0.424201
0.400938
0.379627
0.360262
0.342733
0.326881
0.312527
0.299498
0.287631
0.276785
0.266839
0.25769
0.249251
0.241407
0.234088
0.227239
0.220817
0.214783
0.209103
0.20375
0.198702
0.193939
0.189446
0.185209
0.181219
0.177467
0.173948
0.170658
0.167597
0.164768
0.162175
0.15983
0.15775
0.155977
0.154561
0.153472
0.152839
0.152773
0.155932
0.165734
0.177345
0.191028
0.207139
0.226144
0.24865
0.275442
0.307518
0.346138
0.392919
0.449945
0.519238
0.602027
0.697664
0.801937
0.9061
0.998751
1.07088
1.12011
1.15013
1.16688
1.1756
1.17993
1.18202
1.183
1.18346
1.18366
1.18375
1.18379
1.18381
1.18382
1.18382
1.18382
1.18382
1.18382
1.18382
1.18382
1.18382
0.658526
0.658501
0.658458
0.658387
0.658268
0.658071
0.657747
0.657221
0.656375
0.655037
0.652955
0.649782
0.645061
0.638237
0.628704
0.615901
0.599467
0.579384
0.556078
0.530378
0.503366
0.476144
0.449653
0.424563
0.401267
0.379921
0.360521
0.342959
0.327075
0.312694
0.299638
0.287748
0.27688
0.266914
0.257747
0.249291
0.241432
0.234098
0.227237
0.220802
0.214755
0.209065
0.203702
0.198644
0.193873
0.189373
0.185129
0.181134
0.177378
0.173856
0.170565
0.167504
0.164675
0.162085
0.159744
0.157668
0.1559
0.154488
0.153403
0.15277
0.152701
0.156765
0.166708
0.178487
0.19237
0.208723
0.228023
0.25089
0.278124
0.310747
0.350042
0.397668
0.455729
0.526195
0.610169
0.70675
0.811337
0.914843
1.00588
1.07595
1.12329
1.15193
1.16783
1.17607
1.18016
1.18213
1.18305
1.18348
1.18367
1.18376
1.18379
1.18381
1.18382
1.18382
1.18382
1.18382
1.18382
1.18382
1.18382
1.18382
0.658526
0.658501
0.658459
0.658388
0.658269
0.658073
0.657751
0.657227
0.656386
0.655055
0.652983
0.649825
0.645126
0.638331
0.628835
0.616076
0.599689
0.579652
0.556383
0.530708
0.503705
0.476478
0.449971
0.424857
0.401531
0.380156
0.360726
0.343136
0.327227
0.312822
0.299745
0.287835
0.27695
0.266967
0.257785
0.249315
0.241444
0.234098
0.227226
0.220781
0.214725
0.209026
0.203655
0.198591
0.193813
0.189307
0.185059
0.18106
0.177301
0.173778
0.170486
0.167426
0.164599
0.162012
0.159675
0.157603
0.15584
0.154433
0.153351
0.15272
0.152649
0.157486
0.167559
0.179488
0.193548
0.210112
0.229667
0.252848
0.28047
0.313572
0.353458
0.401826
0.460795
0.532281
0.617278
0.714651
0.81946
0.922334
1.01194
1.08021
1.12595
1.15343
1.16862
1.17646
1.18035
1.18221
1.18309
1.18349
1.18368
1.18376
1.18379
1.18381
1.18382
1.18382
1.18382
1.18382
1.18382
1.18382
1.18382
1.18382
0.658526
0.658501
0.658459
0.658388
0.658271
0.658075
0.657754
0.657233
0.656395
0.655069
0.653006
0.649861
0.645179
0.638409
0.628943
0.616221
0.599873
0.579872
0.556633
0.530978
0.503981
0.476749
0.450227
0.425092
0.401742
0.380341
0.360887
0.343274
0.327344
0.312919
0.299825
0.2879
0.277
0.267004
0.25781
0.249329
0.241448
0.234093
0.227212
0.220759
0.214696
0.20899
0.203613
0.198543
0.193761
0.189251
0.185
0.180999
0.177239
0.173715
0.170424
0.167366
0.164541
0.161957
0.159623
0.157555
0.155798
0.154395
0.153316
0.152685
0.15261
0.158098
0.168287
0.180347
0.19456
0.211306
0.231083
0.254534
0.28249
0.316004
0.356401
0.40541
0.465161
0.537524
0.623391
0.721421
0.826382
0.928672
1.01702
1.08377
1.12815
1.15467
1.16926
1.17678
1.1805
1.18229
1.18312
1.18351
1.18368
1.18376
1.1838
1.18381
1.18382
1.18382
1.18382
1.18382
1.18382
1.18382
1.18382
1.18382
0.658526
0.658501
0.658459
0.658389
0.658271
0.658077
0.657757
0.657238
0.656403
0.655082
0.653025
0.64989
0.645223
0.638472
0.629031
0.616338
0.600021
0.58005
0.556835
0.531194
0.504202
0.476965
0.45043
0.425278
0.401908
0.380487
0.361013
0.343381
0.327434
0.312994
0.299885
0.287947
0.277036
0.267029
0.257826
0.249337
0.241447
0.234085
0.227198
0.220739
0.21467
0.208959
0.203578
0.198504
0.193718
0.189206
0.184953
0.18095
0.17719
0.173667
0.170378
0.167321
0.164499
0.161918
0.159588
0.157525
0.155772
0.154373
0.153296
0.152664
0.152584
0.158603
0.168896
0.181069
0.195414
0.212316
0.23228
0.255961
0.284198
0.318061
0.358889
0.408441
0.468853
0.541955
0.628551
0.72712
0.832182
0.933949
1.02122
1.08669
1.12995
1.15568
1.16979
1.17704
1.18063
1.18234
1.18315
1.18352
1.18369
1.18376
1.1838
1.18381
1.18382
1.18382
1.18382
1.18382
1.18382
1.18382
1.18382
1.18382
0.658526
0.658501
0.65846
0.658389
0.658272
0.658078
0.657759
0.657241
0.656409
0.655091
0.653041
0.649914
0.645258
0.638523
0.629101
0.616432
0.600139
0.580191
0.556994
0.531365
0.504375
0.477134
0.450589
0.425422
0.402037
0.380599
0.361109
0.343463
0.327502
0.313049
0.29993
0.287982
0.277062
0.267048
0.257837
0.249341
0.241446
0.234078
0.227186
0.220722
0.214649
0.208935
0.20355
0.198474
0.193686
0.189172
0.184919
0.180916
0.177157
0.173635
0.170347
0.167292
0.164474
0.161896
0.15957
0.157511
0.155763
0.154367
0.153291
0.152656
0.152571
0.159014
0.169396
0.181667
0.196121
0.213152
0.233271
0.25714
0.285609
0.319759
0.360943
0.410943
0.471898
0.545609
0.632798
0.731799
0.836927
0.938246
1.02462
1.08904
1.13139
1.15649
1.17021
1.17725
1.18073
1.18239
1.18317
1.18353
1.18369
1.18377
1.1838
1.18381
1.18382
1.18382
1.18382
1.18382
1.18382
1.18382
1.18382
1.18382
0.658526
0.658502
0.65846
0.65839
0.658273
0.658079
0.657761
0.657244
0.656414
0.655099
0.653053
0.649932
0.645285
0.638562
0.629155
0.616503
0.600229
0.580299
0.557116
0.531494
0.504507
0.477262
0.450709
0.425531
0.402133
0.380683
0.361181
0.343523
0.327552
0.313091
0.299963
0.288008
0.277081
0.267061
0.257846
0.249345
0.241445
0.234074
0.227178
0.220711
0.214636
0.208918
0.203532
0.198454
0.193665
0.189151
0.184897
0.180895
0.177136
0.173615
0.17033
0.167278
0.164463
0.16189
0.159568
0.157513
0.155768
0.154374
0.153297
0.152658
0.152563
0.159338
0.169795
0.182146
0.19669
0.213824
0.234066
0.258085
0.286738
0.321115
0.36258
0.412935
0.474321
0.548511
0.636166
0.735499
0.840666
0.941618
1.02728
1.09087
1.13252
1.15712
1.17054
1.17742
1.1808
1.18243
1.18319
1.18354
1.1837
1.18377
1.1838
1.18381
1.18382
1.18382
1.18382
1.18382
1.18382
1.18382
1.18382
1.18382
0.658526
0.658502
0.65846
0.65839
0.658273
0.65808
0.657762
0.657246
0.656417
0.655104
0.653061
0.649945
0.645305
0.63859
0.629195
0.616555
0.600295
0.580377
0.557203
0.531588
0.504603
0.477355
0.450795
0.425609
0.402202
0.380743
0.361232
0.343566
0.327588
0.31312
0.299987
0.288026
0.277095
0.267071
0.257852
0.249349
0.241446
0.234073
0.227174
0.220706
0.214628
0.208909
0.203522
0.198443
0.193654
0.189139
0.184886
0.180884
0.177127
0.173609
0.170326
0.167277
0.164466
0.161896
0.159578
0.157526
0.155785
0.154392
0.153313
0.152668
0.15256
0.159579
0.170098
0.182512
0.197125
0.214338
0.234673
0.258803
0.287593
0.322139
0.363814
0.414433
0.476138
0.550682
0.638679
0.738252
0.843436
0.944106
1.02924
1.09222
1.13335
1.15758
1.17078
1.17754
1.18086
1.18245
1.1832
1.18354
1.1837
1.18377
1.1838
1.18381
1.18382
1.18382
1.18382
1.18382
1.18382
1.18382
1.18382
1.18382
0.658526
0.658502
0.65846
0.65839
0.658273
0.65808
0.657763
0.657248
0.656419
0.655108
0.653067
0.649954
0.645318
0.638609
0.62922
0.616589
0.600337
0.580427
0.55726
0.531649
0.504664
0.477414
0.450851
0.42566
0.402247
0.380782
0.361265
0.343594
0.327611
0.313139
0.300002
0.288038
0.277104
0.267078
0.257858
0.249352
0.241449
0.234074
0.227174
0.220704
0.214626
0.208906
0.203518
0.198439
0.19365
0.189136
0.184884
0.180883
0.177128
0.173611
0.170331
0.167286
0.164477
0.161911
0.159597
0.157549
0.155809
0.154417
0.153336
0.152682
0.152559
0.159738
0.170306
0.182767
0.197429
0.214695
0.235092
0.259297
0.288177
0.322835
0.364648
0.415441
0.477356
0.552133
0.640351
0.740074
0.84526
0.945735
1.03052
1.0931
1.13389
1.15788
1.17094
1.17761
1.1809
1.18247
1.18321
1.18355
1.1837
1.18377
1.1838
1.18381
1.18382
1.18382
1.18382
1.18382
1.18382
1.18382
1.18382
1.18382
0.658526
0.658502
0.65846
0.65839
0.658274
0.658081
0.657764
0.657248
0.65642
0.65511
0.653069
0.649958
0.645324
0.638617
0.629232
0.616605
0.600357
0.580451
0.557287
0.531678
0.504693
0.477442
0.450877
0.425684
0.402268
0.3808
0.361281
0.343607
0.327622
0.313148
0.300009
0.288044
0.277109
0.267082
0.25786
0.249355
0.241451
0.234075
0.227175
0.220705
0.214627
0.208907
0.203519
0.19844
0.193651
0.189137
0.184886
0.180887
0.177133
0.173618
0.170339
0.167296
0.16449
0.161927
0.159615
0.15757
0.155832
0.154441
0.153357
0.152697
0.152559
0.159816
0.170417
0.182905
0.197593
0.214886
0.235314
0.259554
0.288478
0.323189
0.365069
0.415945
0.477959
0.552843
0.641163
0.740952
0.846132
0.946505
1.03111
1.09351
1.13414
1.15802
1.17102
1.17765
1.18092
1.18248
1.18321
1.18355
1.1837
1.18377
1.1838
1.18381
1.18382
1.18382
1.18382
1.18382
1.18382
1.18382
1.18382
1.18382
0.658526
0.658502
0.65846
0.65839
0.658274
0.658081
0.657764
0.657248
0.65642
0.65511
0.653069
0.649958
0.645324
0.638617
0.629232
0.616605
0.600357
0.580451
0.557287
0.531678
0.504693
0.477442
0.450877
0.425684
0.402268
0.3808
0.361281
0.343607
0.327622
0.313148
0.300009
0.288044
0.277109
0.267082
0.25786
0.249355
0.241451
0.234075
0.227175
0.220705
0.214627
0.208907
0.203519
0.19844
0.193651
0.189137
0.184886
0.180887
0.177133
0.173618
0.170339
0.167296
0.16449
0.161927
0.159615
0.15757
0.155832
0.154441
0.153357
0.152697
0.152559
0.159816
0.170417
0.182905
0.197593
0.214886
0.235313
0.259554
0.288478
0.323189
0.365068
0.415944
0.477958
0.552843
0.641163
0.740951
0.846131
0.946505
1.03111
1.09351
1.13414
1.15802
1.17102
1.17765
1.18092
1.18248
1.18321
1.18355
1.1837
1.18377
1.1838
1.18381
1.18382
1.18382
1.18382
1.18382
1.18382
1.18382
1.18382
1.18382
0.658526
0.658502
0.65846
0.65839
0.658273
0.65808
0.657763
0.657248
0.656419
0.655108
0.653067
0.649954
0.645318
0.638608
0.62922
0.616589
0.600337
0.580427
0.55726
0.531649
0.504664
0.477414
0.45085
0.425659
0.402247
0.380782
0.361265
0.343594
0.327611
0.313139
0.300002
0.288038
0.277104
0.267078
0.257857
0.249352
0.241448
0.234073
0.227174
0.220704
0.214626
0.208906
0.203518
0.198439
0.19365
0.189136
0.184883
0.180883
0.177128
0.173611
0.170331
0.167285
0.164477
0.161911
0.159597
0.157548
0.155809
0.154417
0.153336
0.152682
0.152559
0.159738
0.170306
0.182767
0.197428
0.214695
0.235092
0.259296
0.288176
0.322834
0.364647
0.415439
0.477355
0.55213
0.640348
0.740071
0.845257
0.945732
1.03051
1.0931
1.13389
1.15788
1.17094
1.17761
1.1809
1.18247
1.18321
1.18355
1.1837
1.18377
1.1838
1.18381
1.18382
1.18382
1.18382
1.18382
1.18382
1.18382
1.18382
1.18382
0.658526
0.658502
0.65846
0.65839
0.658273
0.65808
0.657762
0.657246
0.656417
0.655104
0.653061
0.649945
0.645305
0.63859
0.629195
0.616555
0.600294
0.580376
0.557203
0.531588
0.504602
0.477354
0.450795
0.425609
0.402202
0.380743
0.361232
0.343566
0.327588
0.31312
0.299986
0.288026
0.277095
0.267071
0.257852
0.249348
0.241446
0.234072
0.227174
0.220705
0.214628
0.208909
0.203522
0.198443
0.193654
0.189139
0.184886
0.180884
0.177127
0.173608
0.170325
0.167277
0.164465
0.161896
0.159578
0.157526
0.155785
0.154392
0.153313
0.152667
0.15256
0.159578
0.170098
0.182512
0.197125
0.214337
0.234672
0.258802
0.287592
0.322137
0.363812
0.41443
0.476135
0.550679
0.638675
0.738247
0.843431
0.944102
1.02924
1.09222
1.13335
1.15758
1.17078
1.17754
1.18086
1.18245
1.1832
1.18354
1.1837
1.18377
1.1838
1.18381
1.18382
1.18382
1.18382
1.18382
1.18382
1.18382
1.18382
1.18382
0.658526
0.658502
0.65846
0.65839
0.658273
0.658079
0.657761
0.657244
0.656414
0.655099
0.653053
0.649932
0.645285
0.638562
0.629155
0.616503
0.600229
0.580298
0.557115
0.531494
0.504507
0.477262
0.450708
0.425531
0.402133
0.380683
0.361181
0.343523
0.327552
0.31309
0.299963
0.288007
0.277081
0.267061
0.257845
0.249344
0.241445
0.234074
0.227178
0.220711
0.214635
0.208918
0.203532
0.198454
0.193665
0.18915
0.184897
0.180894
0.177136
0.173615
0.170329
0.167278
0.164463
0.161889
0.159567
0.157512
0.155768
0.154374
0.153297
0.152658
0.152563
0.159338
0.169795
0.182145
0.196689
0.213823
0.234065
0.258083
0.286736
0.321113
0.362578
0.412932
0.474317
0.548506
0.63616
0.735493
0.840659
0.941612
1.02728
1.09087
1.13252
1.15711
1.17054
1.17742
1.1808
1.18243
1.18319
1.18354
1.1837
1.18377
1.1838
1.18381
1.18382
1.18382
1.18382
1.18382
1.18382
1.18382
1.18382
1.18382
0.658526
0.658501
0.65846
0.658389
0.658272
0.658078
0.657759
0.657241
0.656409
0.655091
0.653041
0.649914
0.645258
0.638523
0.629101
0.616431
0.600138
0.58019
0.556993
0.531364
0.504375
0.477133
0.450588
0.425421
0.402036
0.380598
0.361109
0.343462
0.327501
0.313049
0.29993
0.287981
0.277061
0.267047
0.257837
0.249341
0.241445
0.234078
0.227185
0.220722
0.214649
0.208934
0.20355
0.198473
0.193686
0.189172
0.184918
0.180916
0.177156
0.173634
0.170346
0.167292
0.164473
0.161896
0.15957
0.157511
0.155763
0.154367
0.15329
0.152656
0.15257
0.159014
0.169395
0.181666
0.19612
0.213151
0.233269
0.257138
0.285607
0.319757
0.360939
0.410939
0.471893
0.545602
0.632791
0.731791
0.836919
0.938238
1.02462
1.08903
1.13139
1.15649
1.17021
1.17725
1.18073
1.18239
1.18317
1.18353
1.18369
1.18377
1.1838
1.18381
1.18382
1.18382
1.18382
1.18382
1.18382
1.18382
1.18382
1.18382
0.658526
0.658501
0.658459
0.658389
0.658271
0.658077
0.657757
0.657237
0.656403
0.655082
0.653025
0.64989
0.645223
0.638472
0.629031
0.616338
0.600021
0.58005
0.556834
0.531193
0.504201
0.476964
0.450429
0.425277
0.401907
0.380486
0.361012
0.34338
0.327433
0.312993
0.299885
0.287946
0.277035
0.267029
0.257826
0.249336
0.241447
0.234085
0.227197
0.220738
0.214669
0.208958
0.203577
0.198503
0.193718
0.189205
0.184952
0.18095
0.17719
0.173667
0.170377
0.167321
0.164499
0.161918
0.159587
0.157524
0.155772
0.154373
0.153295
0.152663
0.152584
0.158602
0.168894
0.181068
0.195412
0.212314
0.232278
0.255958
0.284195
0.318057
0.358885
0.408436
0.468846
0.541947
0.628541
0.727109
0.832172
0.93394
1.02121
1.08668
1.12995
1.15568
1.16979
1.17704
1.18063
1.18234
1.18315
1.18352
1.18369
1.18376
1.1838
1.18381
1.18382
1.18382
1.18382
1.18382
1.18382
1.18382
1.18382
1.18382
0.658526
0.658501
0.658459
0.658388
0.658271
0.658075
0.657754
0.657233
0.656395
0.655069
0.653006
0.649861
0.645179
0.638409
0.628943
0.61622
0.599872
0.579872
0.556632
0.530977
0.50398
0.476748
0.450226
0.425091
0.401741
0.380341
0.360886
0.343273
0.327343
0.312919
0.299824
0.287899
0.276999
0.267003
0.25781
0.249328
0.241447
0.234092
0.227211
0.220758
0.214695
0.208989
0.203612
0.198542
0.19376
0.18925
0.184999
0.180998
0.177238
0.173714
0.170423
0.167365
0.16454
0.161956
0.159622
0.157554
0.155797
0.154394
0.153315
0.152684
0.152609
0.158097
0.168286
0.180345
0.194558
0.211304
0.23108
0.254531
0.282486
0.316
0.356395
0.405403
0.465153
0.537514
0.62338
0.721409
0.82637
0.92866
1.01701
1.08376
1.12815
1.15467
1.16926
1.17678
1.1805
1.18229
1.18312
1.18351
1.18368
1.18376
1.1838
1.18381
1.18382
1.18382
1.18382
1.18382
1.18382
1.18382
1.18382
1.18382
0.658526
0.658501
0.658459
0.658388
0.658269
0.658073
0.657751
0.657227
0.656386
0.655055
0.652983
0.649825
0.645126
0.638331
0.628834
0.616076
0.599689
0.579651
0.556382
0.530707
0.503704
0.476477
0.449969
0.424855
0.40153
0.380155
0.360725
0.343135
0.327226
0.312821
0.299744
0.287834
0.276949
0.266966
0.257785
0.249314
0.241443
0.234097
0.227225
0.22078
0.214724
0.209025
0.203654
0.19859
0.193812
0.189306
0.185058
0.181059
0.1773
0.173777
0.170485
0.167425
0.164598
0.162011
0.159673
0.157601
0.155838
0.154431
0.153349
0.152718
0.152647
0.157484
0.167557
0.179486
0.193546
0.210109
0.229664
0.252844
0.280466
0.313567
0.353452
0.401819
0.460786
0.532271
0.617266
0.714637
0.819445
0.922321
1.01193
1.0802
1.12594
1.15343
1.16861
1.17646
1.18035
1.18221
1.18309
1.18349
1.18368
1.18376
1.18379
1.18381
1.18382
1.18382
1.18382
1.18382
1.18382
1.18382
1.18382
1.18382
0.658526
0.658501
0.658458
0.658387
0.658268
0.658071
0.657747
0.657221
0.656375
0.655037
0.652955
0.649782
0.645061
0.638237
0.628703
0.615901
0.599466
0.579383
0.556076
0.530377
0.503364
0.476143
0.449652
0.424562
0.401265
0.37992
0.36052
0.342958
0.327074
0.312693
0.299637
0.287747
0.276879
0.266913
0.257746
0.24929
0.241431
0.234097
0.227236
0.220801
0.214754
0.209063
0.203701
0.198643
0.193872
0.189371
0.185128
0.181133
0.177376
0.173854
0.170563
0.167502
0.164673
0.162083
0.159742
0.157666
0.155898
0.154486
0.1534
0.152767
0.152699
0.156763
0.166706
0.178484
0.192368
0.20872
0.228019
0.250886
0.27812
0.310742
0.350035
0.39766
0.455719
0.526183
0.610155
0.706734
0.811321
0.914828
1.00587
1.07594
1.12329
1.15193
1.16783
1.17607
1.18016
1.18213
1.18305
1.18348
1.18367
1.18376
1.18379
1.18381
1.18382
1.18382
1.18382
1.18382
1.18382
1.18382
1.18382
1.18382
0.658526
0.658501
0.658458
0.658386
0.658267
0.658068
0.657743
0.657213
0.656363
0.655017
0.652923
0.649732
0.644985
0.638126
0.628547
0.615692
0.5992
0.579061
0.555708
0.529977
0.502951
0.475734
0.449261
0.4242
0.400936
0.379626
0.360261
0.342732
0.32688
0.312526
0.299497
0.28763
0.276784
0.266838
0.257689
0.24925
0.241406
0.234087
0.227238
0.220816
0.214782
0.209102
0.203749
0.198701
0.193938
0.189444
0.185208
0.181217
0.177465
0.173946
0.170656
0.167595
0.164765
0.162173
0.159828
0.157747
0.155974
0.154558
0.153469
0.152835
0.152768
0.155929
0.165731
0.177342
0.191024
0.207134
0.226138
0.248645
0.275435
0.307511
0.34613
0.39291
0.449934
0.519225
0.602012
0.697647
0.801919
0.906084
0.998738
1.07087
1.12011
1.15012
1.16688
1.1756
1.17993
1.18202
1.183
1.18346
1.18366
1.18375
1.18379
1.18381
1.18382
1.18382
1.18382
1.18382
1.18382
1.18382
1.18382
1.18382
0.658526
0.658501
0.658457
0.658385
0.658265
0.658065
0.657737
0.657204
0.656348
0.654993
0.652885
0.649673
0.644896
0.637996
0.628365
0.615446
0.598884
0.578678
0.555268
0.529497
0.502453
0.475239
0.448786
0.423756
0.40053
0.379261
0.359937
0.342447
0.326631
0.312312
0.299313
0.287475
0.276655
0.266732
0.257606
0.249187
0.241362
0.23406
0.227228
0.220822
0.214802
0.209135
0.203795
0.198759
0.194006
0.189522
0.185294
0.181311
0.177564
0.174049
0.170762
0.167703
0.164872
0.162278
0.15993
0.157845
0.156066
0.154645
0.153553
0.152919
0.152858
0.15501
0.164655
0.176076
0.18953
0.205363
0.224031
0.246126
0.272412
0.303866
0.341722
0.387553
0.443414
0.511377
0.592803
0.687325
0.791165
0.895991
0.990416
1.0649
1.11633
1.14797
1.16574
1.17503
1.17966
1.18189
1.18295
1.18343
1.18365
1.18375
1.18379
1.18381
1.18382
1.18382
1.18382
1.18382
1.18382
1.18382
1.18382
1.18382
0.658526
0.6585
0.658457
0.658384
0.658263
0.658062
0.657731
0.657194
0.656331
0.654966
0.652842
0.649606
0.644794
0.637846
0.628153
0.615159
0.598515
0.578228
0.554748
0.528928
0.501859
0.474644
0.448212
0.423216
0.400034
0.378811
0.359534
0.34209
0.326317
0.312037
0.299075
0.28727
0.276481
0.266587
0.257487
0.249093
0.241291
0.23401
0.227199
0.220811
0.214808
0.209159
0.203834
0.198812
0.194074
0.189602
0.185384
0.18141
0.177671
0.174162
0.170879
0.167821
0.16499
0.162392
0.160039
0.157947
0.156155
0.154723
0.153625
0.152996
0.152966
0.154089
0.163539
0.174733
0.187919
0.203433
0.221716
0.243345
0.269063
0.29982
0.336822
0.381594
0.436159
0.502632
0.582514
0.675735
0.778997
0.884448
0.980785
1.05791
1.11188
1.14542
1.16439
1.17436
1.17934
1.18175
1.18288
1.1834
1.18364
1.18374
1.18379
1.18381
1.18382
1.18382
1.18382
1.18382
1.18382
1.18382
1.18382
1.18382
0.658526
0.6585
0.658456
0.658383
0.658261
0.658058
0.657725
0.657183
0.656313
0.654936
0.652794
0.649531
0.64468
0.637677
0.627911
0.61483
0.598089
0.577705
0.55414
0.528258
0.501156
0.473937
0.447523
0.422565
0.39943
0.378261
0.359038
0.341646
0.325922
0.311689
0.298769
0.287004
0.276251
0.266391
0.257324
0.248958
0.241183
0.233929
0.227141
0.220777
0.214795
0.209166
0.203861
0.198857
0.194134
0.189678
0.185473
0.181511
0.177782
0.17428
0.171002
0.167946
0.165114
0.162511
0.160147
0.158037
0.156213
0.154745
0.153591
0.152877
0.152713
0.153283
0.162466
0.173371
0.186233
0.201372
0.219215
0.240317
0.265397
0.295377
0.331432
0.375037
0.428167
0.492983
0.571131
0.662849
0.765359
0.871366
0.969729
1.04979
1.10665
1.14241
1.1628
1.17357
1.17896
1.18157
1.1828
1.18336
1.18362
1.18373
1.18378
1.18381
1.18381
1.18382
1.18382
1.18382
1.18382
1.18382
1.18382
1.18382
0.658526
0.6585
0.658456
0.658382
0.658258
0.658054
0.657718
0.657172
0.656294
0.654904
0.652742
0.649448
0.644553
0.637487
0.627639
0.614457
0.597603
0.577103
0.553436
0.527477
0.500331
0.4731
0.446705
0.421785
0.398702
0.377592
0.358429
0.341098
0.325431
0.311251
0.298382
0.286662
0.275953
0.266133
0.257103
0.248772
0.24103
0.233805
0.227047
0.220709
0.214755
0.20915
0.203867
0.198885
0.194183
0.189745
0.185557
0.18161
0.177893
0.174402
0.171131
0.168079
0.165246
0.162638
0.160263
0.158134
0.15627
0.154751
0.153521
0.152686
0.152329
0.152586
0.161458
0.172017
0.184495
0.199202
0.216544
0.237057
0.26143
0.290556
0.325572