/*--------------------------------*- C++ -*----------------------------------*\
  =========                 |
  \\      /  F ield         | OpenFOAM: The Open Source CFD Toolbox
   \\    /   O peration     | Website:  https://openfoam.org
    \\  /    A nd           | Version:  8
     \\/     M anipulation  |
\*---------------------------------------------------------------------------*/
FoamFile
{
    version     2.0;
    format      ascii;
    class       volScalarField;
    location    "920/fluid";
    object      T;
}
// * * * * * * * * * * * * * * * * * * * * * * * * * * * * * * * * * * * * * //

dimensions      [0 0 0 1 0 0 0];

internalField   nonuniform List<scalar> 
4000
(
293.004
293.017
293.039
293.076
293.138
293.241
293.41
293.687
294.135
294.851
295.98
297.73
300.391
304.343
310.057
318.074
328.944
343.157
361.054
382.771
408.226
437.155
469.188
503.914
540.946
579.948
620.651
662.848
706.381
751.127
796.989
843.872
891.685
940.321
989.657
1039.63
1090.26
1141.46
1193.13
1245.16
1297.45
1349.9
1402.38
1454.78
1506.97
1558.84
1610.25
1661.07
1711.13
1760.3
1808.39
1855.22
1900.56
1944.15
1985.7
2024.81
2061.01
2093.25
2120.91
2144.07
2160.59
2168.63
2157.4
2047.52
1930.58
1808.73
1683.73
1557.07
1430.03
1303.79
1179.45
1058.1
940.89
828.717
722.827
625.241
538.286
464.259
404.973
361.068
331.417
313.239
303.051
297.784
295.211
293.999
293.443
293.193
293.083
293.036
293.015
293.006
293.003
293.001
293
293
293
293
293
293
293.004
293.017
293.039
293.076
293.139
293.242
293.412
293.69
294.139
294.857
295.985
297.729
300.371
304.283
309.923
317.815
328.499
342.46
360.046
381.413
406.504
435.085
466.805
501.267
538.09
576.939
617.539
659.678
703.193
747.956
793.864
840.823
888.736
937.495
986.977
1037.1
1087.91
1139.29
1191.16
1243.4
1295.91
1348.57
1401.28
1453.91
1506.34
1558.43
1610.07
1661.11
1711.39
1760.77
1809.06
1856.07
1901.59
1945.35
1987.05
2026.3
2062.62
2094.94
2122.67
2145.88
2162.4
2170.35
2148.7
2037.71
1919.78
1797.01
1671.14
1543.65
1415.84
1288.88
1163.93
1042.1
924.597
812.348
706.795
610.132
524.774
453.002
396.425
355.275
327.962
311.428
302.209
297.42
295.064
293.942
293.422
293.186
293.081
293.035
293.015
293.006
293.003
293.001
293
293
293
293
293
293
293.004
293.017
293.039
293.077
293.139
293.243
293.413
293.692
294.142
294.86
295.988
297.727
300.355
304.236
309.82
317.619
328.162
341.925
359.259
380.324
405.081
433.313
464.69
498.832
535.368
573.969
614.366
656.344
699.74
744.426
790.297
837.257
885.211
934.049
983.648
1033.92
1084.89
1136.48
1188.57
1241.07
1293.85
1346.81
1399.83
1452.78
1505.54
1557.97
1609.95
1661.33
1711.94
1761.65
1810.25
1857.57
1903.37
1947.4
1989.34
2028.8
2065.3
2097.73
2125.51
2148.72
2165.1
2172.86
2133.06
2021.03
1902.01
1778.17
1651.31
1522.95
1394.42
1266.96
1141.75
1020
902.927
791.517
687.413
592.895
510.32
441.758
388.446
350.177
325.036
309.905
301.479
297.088
294.918
293.88
293.396
293.175
293.076
293.033
293.014
293.006
293.002
293.001
293
293
293
293
293
293
293.004
293.017
293.039
293.077
293.139
293.242
293.412
293.69
294.138
294.85
295.968
297.689
300.288
304.122
309.633
317.326
327.724
341.301
358.408
379.216
403.697
431.648
462.751
496.634
532.933
571.324
611.537
653.362
696.634
741.228
787.04
833.976
881.941
930.829
980.516
1030.9
1082.02
1133.79
1186.11
1238.85
1291.91
1345.17
1398.51
1451.81
1504.93
1557.75
1610.1
1661.85
1712.85
1762.92
1811.89
1859.55
1905.67
1949.99
1992.18
2031.86
2068.53
2100.98
2128.71
2151.82
2168.06
2175.45
2113.58
2000.71
1880.74
1755.96
1628.26
1499.22
1370.25
1242.61
1117.56
996.338
880.154
770.052
667.821
575.756
496.11
430.744
380.584
345.065
322.016
308.273
300.661
296.7
294.741
293.801
293.362
293.161
293.07
293.03
293.013
293.005
293.002
293.001
293
293
293
293
293
293
293.004
293.017
293.039
293.076
293.138
293.241
293.41
293.686
294.131
294.838
295.946
297.651
300.223
304.015
309.463
317.065
327.34
340.758
357.674
378.265
402.513
430.227
461.097
494.763
530.863
569.076
609.134
650.828
693.994
738.508
784.267
831.18
879.152
928.081
977.844
1028.34
1079.59
1131.53
1184.05
1237.02
1290.35
1343.9
1397.56
1451.2
1504.68
1557.85
1610.58
1662.71
1714.08
1764.51
1813.83
1861.82
1908.24
1952.82
1995.24
2035.09
2071.82
2104.14
2131.8
2154.77
2170.62
2177.17
2093.14
1979.6
1858.78
1733.16
1604.73
1475.17
1345.93
1218.34
1093.68
973.241
858.149
749.546
649.351
559.818
483.087
420.808
373.604
340.594
319.406
306.871
299.957
296.365
294.587
293.732
293.331
293.148
293.065
293.028
293.012
293.005
293.002
293.001
293
293
293
293
293
293
293.004
293.017
293.039
293.076
293.137
293.239
293.407
293.68
294.121
294.822
295.918
297.605
300.149
303.899
309.286
316.803
326.966
340.245
356.998
377.409
401.467
428.991
459.678
493.173
529.117
567.192
607.132
648.726
691.813
736.269
781.992
828.893
876.881
925.854
975.691
1026.28
1077.67
1129.76
1182.47
1235.66
1289.23
1343.05
1397.01
1450.96
1504.76
1558.28
1611.35
1663.83
1715.55
1766.31
1815.94
1864.21
1910.87
1955.64
1998.19
2038.08
2074.83
2107.02
2134.59
2157.31
2172.8
2178.75
2075.29
1960.65
1838.58
1711.84
1582.55
1452.44
1322.99
1195.53
1071.36
951.771
837.818
730.739
632.53
545.405
471.386
411.928
367.384
336.605
317.061
305.595
299.307
296.05
294.439
293.665
293.302
293.134
293.059
293.026
293.011
293.005
293.002
293.001
293
293
293
293
293
293
293.004
293.017
293.039
293.075
293.136
293.237
293.404
293.675
294.111
294.805
295.891
297.561
300.08
303.791
309.123
316.566
326.631
339.792
356.407
376.666
400.567
427.935
458.474
491.833
527.657
565.627
605.478
647.001
690.033
734.452
780.158
827.063
875.077
924.1
974.013
1024.71
1076.21
1128.46
1181.34
1234.73
1288.53
1342.61
1396.83
1451.06
1505.16
1558.98
1612.37
1665.15
1717.17
1768.22
1818.1
1866.59
1913.42
1958.29
2000.85
2040.67
2077.22
2108.8
2136.59
2158.53
2173.2
2178.37
2066.73
1947.11
1821.91
1693.16
1562.61
1431.79
1302.07
1174.74
1051.05
932.283
819.41
713.794
617.469
532.582
461.05
404.146
361.98
333.167
315.053
304.506
298.752
295.781
294.313
293.607
293.275
293.123
293.054
293.023
293.01
293.004
293.002
293.001
293
293
293
293
293
293
293.004
293.017
293.038
293.075
293.135
293.235
293.4
293.669
294.102
294.789
295.865
297.519
300.014
303.691
308.973
316.35
326.332
339.39
355.889
376.022
399.794
427.037
457.459
490.713
526.445
564.337
604.125
645.599
688.598
732.999
778.704
825.624
873.674
922.753
972.744
1023.53
1075.16
1127.54
1180.58
1234.16
1288.17
1342.47
1396.93
1451.41
1505.78
1559.87
1613.53
1666.59
1718.86
1770.15
1820.25
1868.91
1915.87
1960.8
2003.33
2042.99
2079.03
2109.95
2136.71
2156.94
2168.84
2169.53
2054.89
1932.82
1805.76
1675.68
1544.26
1412.97
1283.14
1156.02
1032.85
914.876
803.037
698.774
604.164
521.305
452.009
397.38
357.308
330.207
313.326
303.568
298.271
295.547
294.202
293.556
293.252
293.113
293.05
293.022
293.009
293.004
293.002
293.001
293
293
293
293
293
293
293.004
293.017
293.038
293.074
293.134
293.233
293.397
293.664
294.093
294.774
295.841
297.481
299.954
303.6
308.841
316.16
326.07
339.042
355.443
375.472
399.139
426.28
456.61
489.782
525.445
563.281
603.026
644.469
687.451
731.848
777.562
824.509
872.6
921.738
971.807
1022.69
1074.43
1126.95
1180.14
1233.89
1288.07
1342.57
1397.24
1451.95
1506.55
1560.87
1614.77
1668.06
1720.55
1772.04
1822.31
1871.11
1918.16
1963.13
2005.6
2045.09
2080.72
2111.17
2137.16
2156.17
2166.15
2159.1
2042.27
1918.56
1790.28
1659.35
1527.41
1395.88
1266.07
1139.24
1016.61
899.382
788.503
685.5
592.46
511.438
444.149
391.538
353.303
327.686
311.862
302.775
297.865
295.348
294.108
293.512
293.233
293.104
293.046
293.02
293.009
293.004
293.002
293.001
293
293
293
293
293
293
293.004
293.016
293.038
293.073
293.133
293.232
293.394
293.659
294.084
294.761
295.819
297.447
299.902
303.521
308.724
315.995
325.843
338.743
355.062
375.005
398.586
425.647
455.904
489.014
524.625
562.422
602.138
643.565
686.541
730.944
776.677
823.655
871.791
920.99
971.134
1022.11
1073.95
1126.59
1179.92
1233.82
1288.16
1342.83
1397.69
1452.6
1507.39
1561.92
1616.02
1669.5
1722.18
1773.84
1824.26
1873.18
1920.33
1965.34
2007.83
2047.28
2082.77
2113.09
2139.02
2158.1
2168.51
2147.08
2029.21
1904.65
1775.74
1644.37
1512.18
1380.6
1250.94
1124.43
1002.33
885.801
775.794
673.922
582.283
502.887
437.364
386.524
349.887
325.546
310.623
302.105
297.522
295.18
294.028
293.475
293.216
293.097
293.043
293.019
293.008
293.003
293.001
293.001
293
293
293
293
293
293
293.004
293.016
293.037
293.073
293.132
293.23
293.392
293.654
294.077
294.749
295.8
297.417
299.856
303.452
308.624
315.853
325.65
338.489
354.741
374.613
398.125
425.122
455.322
488.384
523.958
561.728
601.427
642.846
685.824
730.24
775.997
823.009
871.192
920.449
970.666
1021.73
1073.66
1126.41
1179.86
1233.89
1288.38
1343.2
1398.22
1453.29
1508.26
1562.96
1617.23
1670.87
1723.7
1775.5
1826.05
1875.08
1922.3
1967.37
2009.89
2049.35
2084.79
2115.08
2140.98
2160.07
2170.53
2135.16
2016.7
1891.67
1762.4
1630.8
1498.53
1367
1237.53
1111.38
989.796
873.912
764.708
663.857
573.468
495.513
431.544
382.246
346.988
323.74
309.582
301.542
297.234
295.04
293.961
293.444
293.202
293.09
293.04
293.017
293.007
293.003
293.001
293.001
293
293
293
293
293
293
293.004
293.016
293.037
293.073
293.131
293.229
293.389
293.65
294.071
294.739
295.784
297.391
299.816
303.393
308.538
315.733
325.487
338.276
354.472
374.287
397.744
424.689
454.845
487.871
523.419
561.17
600.86
642.279
685.265
729.698
775.48
822.527
870.755
920.067
970.35
1021.49
1073.51
1126.35
1179.91
1234.05
1288.67
1343.62
1398.78
1453.99
1509.1
1563.94
1618.35
1672.13
1725.08
1776.99
1827.64
1876.75
1924.03
1969.14
2011.66
2051.09
2086.5
2116.75
2142.63
2161.7
2172.18
2124.44
2005.5
1880.12
1750.6
1618.87
1486.57
1355.14
1225.89
1100.08
978.972
863.65
755.137
655.183
565.891
489.196
426.581
378.617
344.542
322.223
308.71
301.073
296.994
294.922
293.905
293.418
293.19
293.085
293.037
293.016
293.007
293.003
293.001
293.001
293
293
293
293
293
293
293.004
293.016
293.037
293.072
293.131
293.228
293.387
293.647
294.065
294.73
295.77
297.37
299.783
303.343
308.466
315.633
325.351
338.098
354.25
374.019
397.43
424.335
454.458
487.458
522.986
560.727
600.413
641.835
684.832
729.283
775.09
822.171
870.441
919.804
970.145
1021.35
1073.45
1126.37
1180.02
1234.26
1288.98
1344.05
1399.32
1454.65
1509.88
1564.84
1619.35
1673.24
1726.29
1778.29
1829
1878.17
1925.48
1970.6
2013.11
2052.55
2087.9
2118.1
2143.93
2162.98
2173.48
2115.25
1995.82
1870.09
1740.37
1608.55
1476.27
1344.94
1215.9
1090.39
969.69
854.857
746.948
647.777
559.437
483.832
422.383
375.562
342.492
320.958
307.985
300.683
296.794
294.824
293.859
293.397
293.18
293.081
293.036
293.015
293.007
293.003
293.001
293.001
293
293
293
293
293
293
293.004
293.016
293.037
293.072
293.13
293.227
293.386
293.644
294.061
294.723
295.758
297.351
299.755
303.302
308.407
315.55
325.239
337.953
354.068
373.8
397.176
424.05
454.147
487.127
522.642
560.376
600.062
641.49
684.499
728.967
774.799
821.911
870.218
919.625
970.018
1021.28
1073.44
1126.44
1180.16
1234.49
1289.3
1344.45
1399.82
1455.24
1510.56
1565.62
1620.22
1674.18
1727.31
1779.37
1830.13
1879.32
1926.64
1971.76
2014.28
2053.68
2088.98
2119.12
2144.91
2163.95
2174.49
2107.51
1987.61
1861.57
1731.68
1599.78
1467.51
1336.28
1207.42
1082.18
961.833
847.42
740.031
641.531
554.003
479.328
418.869
373.014
340.791
319.911
307.387
300.362
296.631
294.744
293.821
293.379
293.172
293.077
293.034
293.015
293.006
293.003
293.001
293
293
293
293
293
293
293
293.004
293.016
293.037
293.072
293.13
293.226
293.384
293.642
294.057
294.716
295.749
297.336
299.732
303.269
308.359
315.482
325.148
337.835
353.922
373.624
396.973
423.823
453.9
486.866
522.372
560.103
599.79
641.225
684.245
728.73
774.584
821.722
870.061
919.506
969.942
1021.25
1073.47
1126.52
1180.31
1234.7
1289.58
1344.81
1400.25
1455.75
1511.14
1566.27
1620.94
1674.96
1728.13
1780.22
1831
1880.21
1927.55
1972.66
2015.15
2054.51
2089.75
2119.85
2145.61
2164.66
2175.23
2101.18
1980.8
1854.47
1724.4
1592.44
1460.18
1329.04
1200.34
1075.33
955.286
841.228
734.281
636.343
549.498
475.602
415.97
370.92
339.397
319.056
306.9
300.101
296.497
294.679
293.789
293.364
293.165
293.074
293.033
293.014
293.006
293.003
293.001
293
293
293
293
293
293
293
293.004
293.016
293.037
293.071
293.129
293.225
293.383
293.64
294.054
294.712
295.741
297.324
299.714
303.242
308.32
315.429
325.077
337.743
353.806
373.486
396.814
423.645
453.708
486.663
522.164
559.892
599.583
641.023
684.054
728.554
774.425
821.586
869.952
919.427
969.898
1021.25
1073.5
1126.61
1180.44
1234.89
1289.82
1345.11
1400.6
1456.16
1511.61
1566.78
1621.49
1675.54
1728.74
1780.86
1831.67
1880.88
1928.2
1973.29
2015.73
2055.05
2090.22
2120.28
2146.03
2165.11
2175.73
2096.04
1975.23
1848.64
1718.42
1586.41
1454.17
1323.11
1194.55
1069.74
949.947
836.185
729.603
632.128
545.844
472.584
413.628
369.231
338.276
318.37
306.51
299.892
296.391
294.627
293.765
293.353
293.16
293.072
293.032
293.014
293.006
293.003
293.001
293
293
293
293
293
293
293
293.004
293.016
293.037
293.071
293.129
293.225
293.382
293.639
294.052
294.708
295.735
297.315
299.7
303.221
308.291
315.388
325.022
337.672
353.718
373.381
396.693
423.511
453.562
486.511
522.007
559.735
599.428
640.875
683.914
728.425
774.311
821.489
869.875
919.373
969.869
1021.25
1073.54
1126.67
1180.54
1235.03
1290
1345.33
1400.86
1456.45
1511.94
1567.14
1621.88
1675.96
1729.18
1781.31
1832.11
1881.3
1928.6
1973.65
2016.05
2055.32
2090.44
2120.46
2146.21
2165.35
2176.08
2092.02
1970.81
1843.98
1713.64
1581.59
1449.38
1318.4
1189.96
1065.31
945.733
832.212
725.924
628.82
542.981
470.226
411.801
367.917
337.404
317.837
306.207
299.73
296.308
294.587
293.745
293.344
293.156
293.07
293.031
293.013
293.006
293.002
293.001
293
293
293
293
293
293
293
293.004
293.016
293.037
293.071
293.129
293.225
293.382
293.638
294.05
294.705
295.731
297.309
299.69
303.206
308.269
315.358
324.982
337.62
353.654
373.305
396.606
423.414
453.458
486.401
521.896
559.623
599.318
640.769
683.815
728.334
774.231
821.421
869.821
919.336
969.85
1021.25
1073.56
1126.71
1180.61
1235.12
1290.12
1345.47
1401.03
1456.65
1512.16
1567.38
1622.14
1676.23
1729.45
1781.57
1832.34
1881.51
1928.77
1973.78
2016.13
2055.35
2090.42
2120.42
2146.19
2165.41
2176.3
2089.04
1967.46
1840.43
1709.99
1577.92
1445.74
1314.84
1186.5
1062
942.583
829.25
723.189
626.367
540.863
468.486
410.457
366.953
336.766
317.447
305.985
299.61
296.247
294.557
293.731
293.337
293.153
293.068
293.03
293.013
293.006
293.002
293.001
293
293
293
293
293
293
293
293.004
293.016
293.037
293.071
293.129
293.224
293.381
293.637
294.049
294.703
295.728
297.304
299.684
303.196
308.255
315.339
324.956
337.587
353.613
373.256
396.549
423.351
453.391
486.331
521.824
559.552
599.248
640.702
683.752
728.277
774.18
821.378
869.787
919.311
969.835
1021.24
1073.56
1126.74
1180.65
1235.17
1290.19
1345.55
1401.13
1456.76
1512.27
1567.5
1622.26
1676.35
1729.56
1781.66
1832.42
1881.55
1928.77
1973.73
2016.03
2055.2
2090.23
2120.21
2146.01
2165.33
2176.43
2087.08
1965.17
1837.96
1707.45
1575.38
1443.23
1312.39
1184.15
1059.75
940.464
827.267
721.366
624.739
539.464
467.341
409.578
366.325
336.352
317.194
305.84
299.533
296.207
294.537
293.722
293.333
293.151
293.067
293.03
293.013
293.006
293.002
293.001
293
293
293
293
293
293
293
293.004
293.016
293.036
293.071
293.129
293.224
293.381
293.637
294.048
294.703
295.726
297.302
299.68
303.192
308.249
315.329
324.944
337.571
353.594
373.233
396.523
423.322
453.359
486.298
521.79
559.518
599.215
640.67
683.722
728.249
774.155
821.357
869.77
919.298
969.827
1021.24
1073.56
1126.74
1180.66
1235.19
1290.21
1345.58
1401.16
1456.79
1512.31
1567.54
1622.29
1676.37
1729.57
1781.66
1832.39
1881.5
1928.69
1973.61
2015.87
2054.99
2090
2119.96
2145.77
2165.18
2176.49
2086.11
1963.95
1836.62
1706.08
1574.02
1441.91
1311.12
1182.94
1058.61
939.397
826.28
720.468
623.944
538.786
466.792
409.159
366.028
336.158
317.076
305.773
299.497
296.189
294.528
293.718
293.331
293.15
293.067
293.03
293.013
293.006
293.002
293.001
293
293
293
293
293
293
293
293.004
293.016
293.036
293.071
293.129
293.224
293.381
293.637
294.048
294.703
295.726
297.302
299.68
303.192
308.249
315.329
324.944
337.571
353.594
373.233
396.523
423.322
453.359
486.298
521.79
559.518
599.215
640.67
683.722
728.249
774.155
821.357
869.77
919.298
969.827
1021.24
1073.56
1126.74
1180.66
1235.19
1290.21
1345.58
1401.16
1456.79
1512.31
1567.54
1622.29
1676.37
1729.57
1781.66
1832.39
1881.5
1928.69
1973.61
2015.87
2054.99
2090
2119.96
2145.77
2165.18
2176.49
2086.11
1963.95
1836.62
1706.08
1574.02
1441.91
1311.12
1182.94
1058.61
939.398
826.281
720.469
623.945
538.787
466.792
409.159
366.029
336.158
317.076
305.773
299.497
296.189
294.528
293.718
293.331
293.15
293.067
293.03
293.013
293.006
293.002
293.001
293
293
293
293
293
293
293
293.004
293.016
293.037
293.071
293.129
293.224
293.381
293.637
294.049
294.703
295.728
297.304
299.684
303.197
308.255
315.339
324.956
337.587
353.613
373.256
396.55
423.352
453.391
486.332
521.824
559.552
599.249
640.702
683.753
728.277
774.18
821.378
869.787
919.311
969.835
1021.24
1073.56
1126.74
1180.65
1235.17
1290.19
1345.56
1401.13
1456.76
1512.27
1567.5
1622.26
1676.35
1729.56
1781.66
1832.42
1881.55
1928.77
1973.73
2016.03
2055.2
2090.23
2120.22
2146.01
2165.33
2176.43
2087.08
1965.17
1837.96
1707.46
1575.38
1443.24
1312.4
1184.15
1059.76
940.467
827.27
721.369
624.741
539.466
467.343
409.579
366.326
336.353
317.194
305.84
299.533
296.208
294.537
293.722
293.333
293.151
293.067
293.03
293.013
293.006
293.002
293.001
293
293
293
293
293
293
293
293.004
293.016
293.037
293.071
293.129
293.225
293.382
293.638
294.05
294.705
295.731
297.309
299.69
303.206
308.269
315.358
324.982
337.621
353.655
373.305
396.606
423.414
453.459
486.402
521.896
559.624
599.319
640.77
683.816
728.335
774.232
821.422
869.822
919.337
969.851
1021.25
1073.56
1126.72
1180.61
1235.12
1290.12
1345.48
1401.04
1456.65
1512.16
1567.38
1622.14
1676.23
1729.45
1781.57
1832.35
1881.52
1928.77
1973.78
2016.13
2055.35
2090.42
2120.42
2146.19
2165.41
2176.3
2089.05
1967.47
1840.43
1710
1577.93
1445.75
1314.84
1186.51
1062
942.588
829.255
723.193
626.371
540.867
468.489
410.46
366.955
336.767
317.447
305.985
299.611
296.247
294.557
293.731
293.337
293.153
293.068
293.03
293.013
293.006
293.002
293.001
293
293
293
293
293
293
293
293.004
293.016
293.037
293.071
293.129
293.225
293.382
293.639
294.052
294.708
295.735
297.315
299.7
303.221
308.291
315.388
325.022
337.672
353.718
373.382
396.693
423.511
453.563
486.511
522.008
559.736
599.429
640.876
683.915
728.426
774.312
821.49
869.876
919.375
969.871
1021.25
1073.54
1126.67
1180.54
1235.03
1290
1345.33
1400.87
1456.46
1511.94
1567.14
1621.88
1675.97
1729.19
1781.32
1832.11
1881.31
1928.6
1973.65
2016.05
2055.32
2090.44
2120.47
2146.21
2165.35
2176.08
2092.03
1970.81
1843.98
1713.65
1581.6
1449.38
1318.41
1189.96
1065.32
945.74
832.219
725.93
628.826
542.986
470.23
411.804
367.919
337.406
317.838
306.208
299.73
296.308
294.587
293.745
293.344
293.156
293.07
293.031
293.013
293.006
293.002
293.001
293
293
293
293
293
293
293
293.004
293.016
293.037
293.071
293.129
293.225
293.383
293.64
294.054
294.712
295.741
297.325
299.714
303.242
308.32
315.429
325.077
337.743
353.807
373.487
396.815
423.646
453.709
486.664
522.165
559.894
599.584
641.025
684.056
728.555
774.427
821.588
869.954
919.429
969.9
1021.25
1073.51
1126.61
1180.44
1234.89
1289.83
1345.11
1400.61
1456.16
1511.61
1566.78
1621.49
1675.55
1728.75
1780.87
1831.67
1880.88
1928.2
1973.29
2015.74
2055.05
2090.23
2120.29
2146.04
2165.11
2175.73
2096.05
1975.24
1848.65
1718.43
1586.42
1454.18
1323.12
1194.56
1069.75
949.956
836.194
729.611
632.136
545.85
472.59
413.632
369.234
338.278
318.371
306.511
299.892
296.391
294.627
293.765
293.353
293.16
293.072
293.032
293.014
293.006
293.003
293.001
293
293
293
293
293
293
293
293.004
293.016
293.037
293.072
293.13
293.226
293.384
293.642
294.057
294.717
295.749
297.336
299.732
303.269
308.359
315.482
325.149
337.836
353.922
373.625
396.974
423.824
453.901
486.867
522.374
560.104
599.792
641.226
684.247
728.732
774.586
821.724
870.064
919.509
969.945
1021.25
1073.47
1126.53
1180.31
1234.71
1289.59
1344.82
1400.26
1455.75
1511.15
1566.27
1620.94
1674.96
1728.13
1780.23
1831.01
1880.22
1927.56
1972.67
2015.16
2054.52
2089.76
2119.86
2145.62
2164.67
2175.24
2101.19
1980.81
1854.49
1724.42
1592.46
1460.2
1329.06
1200.35
1075.34
955.297
841.239
734.291
636.352
549.506
475.608
415.975
370.923
339.399
319.057
306.901
300.101
296.498
294.679
293.789
293.364
293.165
293.074
293.033
293.014
293.006
293.003
293.001
293
293
293
293
293
293
293
293.004
293.016
293.037
293.072
293.13
293.227
293.386
293.644
294.061
294.723
295.758
297.351
299.755
303.302
308.407
315.55
325.239
337.953
354.069
373.801
397.177
424.051
454.148
487.128
522.644
560.378
600.064
641.492
684.501
728.97
774.802
821.913
870.221
919.628
970.021
1021.28
1073.45
1126.44
1180.17
1234.49
1289.3
1344.46
1399.83
1455.25
1510.57
1565.62
1620.23
1674.19
1727.32
1779.38
1830.14
1879.33
1926.65
1971.77
2014.29
2053.69
2088.99
2119.14
2144.93
2163.96
2174.51
2107.53
1987.63
1861.59
1731.69
1599.8
1467.53
1336.3
1207.43
1082.2
961.847
847.433
740.044
641.542
554.013
479.336
418.876
373.019
340.794
319.913
307.388
300.362
296.631
294.744
293.821
293.379
293.172
293.077
293.034
293.015
293.006
293.003
293.001
293
293
293
293
293
293
293
293.004
293.016
293.037
293.072
293.131
293.228
293.387
293.647
294.065
294.73
295.77
297.37
299.783
303.344
308.467
315.633
325.351
338.099
354.25
374.02
397.432
424.337
454.459
487.459
522.988
560.729
600.415
641.837
684.835
729.285
775.093
822.174
870.444
919.807
970.149
1021.35
1073.45
1126.38
1180.02
1234.27
1288.99
1344.06
1399.33
1454.66
1509.88
1564.85
1619.36
1673.25
1726.3
1778.3
1829.02
1878.18
1925.49
1970.61
2013.13
2052.57
2087.92
2118.12
2143.95
2163
2173.5
2115.27
1995.84
1870.11
1740.39
1608.57
1476.29
1344.96
1215.92
1090.41
969.706
854.872
746.962
647.79
559.448
483.842
422.39
375.567
342.496
320.96
307.986
300.683
296.795
294.825
293.859
293.397
293.18
293.081
293.036
293.015
293.007
293.003
293.001
293.001
293
293
293
293
293
293
293.004
293.016
293.037
293.073
293.131
293.229
293.389
293.65
294.071
294.739
295.784
297.391
299.816
303.393
308.538
315.734
325.487
338.276
354.473
374.288
397.745
424.69
454.847
487.873
523.421
561.173
600.863
642.282
685.268
729.701
775.483
822.53
870.758
920.071
970.354
1021.49
1073.51
1126.36
1179.91
1234.06
1288.67
1343.63
1398.79
1454
1509.11
1563.95
1618.36
1672.14
1725.09
1777.01
1827.65
1876.77
1924.05
1969.16
2011.68
2051.12
2086.52
2116.78
2142.66
2161.74
2172.22
2124.47
2005.53
1880.14
1750.62
1618.89
1486.59
1355.15
1225.91
1100.1
978.989
863.667
755.153
655.198
565.904
489.207
426.59
378.623
344.546
322.226
308.711
301.073
296.994
294.922
293.905
293.418
293.19
293.085
293.037
293.016
293.007
293.003
293.001
293.001
293
293
293
293
293
293
293.004
293.016
293.037
293.073
293.132
293.23
293.392
293.654
294.077
294.749
295.8
297.417
299.856
303.452
308.624
315.854
325.651
338.49
354.742
374.615
398.127
425.123
455.324
488.386
523.96
561.73
601.429
642.849
685.827
730.244
776
823.013
871.196
920.454
970.67
1021.73
1073.67
1126.42
1179.86
1233.89
1288.39
1343.21
1398.23
1453.3
1508.27
1562.97
1617.24
1670.89
1723.72
1775.52
1826.07
1875.1
1922.33
1967.4
2009.92
2049.39
2084.83
2115.12
2141.03
2160.12
2170.59
2135.19
2016.74
1891.71
1762.44
1630.85
1498.57
1367.03
1237.56
1111.4
989.818
873.932
764.726
663.874
573.483
495.525
431.554
382.253
346.992
323.743
309.583
301.543
297.234
295.04
293.961
293.444
293.202
293.09
293.04
293.017
293.007
293.003
293.001
293.001
293
293
293
293
293
293
293.004
293.016
293.038
293.073
293.133
293.232
293.394
293.659
294.084
294.761
295.819
297.447
299.902
303.521
308.724
315.996
325.844
338.744
355.063
375.006
398.588
425.649
455.906
489.016
524.628
562.424
602.141
643.568
686.544
730.947
776.681
823.659
871.795
920.994
971.139
1022.12
1073.96
1126.6
1179.92
1233.82
1288.17
1342.84
1397.7
1452.61
1507.4
1561.94
1616.03
1669.52
1722.19
1773.86
1824.28
1873.21
1920.36
1965.38
2007.87
2047.33
2082.82
2113.15
2139.08
2158.17
2168.59
2147.13
2029.24
1904.68
1775.76
1644.4
1512.21
1380.63
1250.96
1124.46
1002.36
885.821
775.816
673.943
582.301
502.902
437.376
386.532
349.892
325.549
310.625
302.106
297.522
295.181
294.028
293.475
293.216
293.097
293.043
293.019
293.008
293.003
293.001
293.001
293
293
293
293
293
293
293.004
293.017
293.038
293.074
293.134
293.233
293.397
293.664
294.093
294.774
295.841
297.481
299.955
303.601
308.841
316.161
326.07
339.043
355.444
375.473
399.14
426.282
456.612
489.784
525.447
563.284
603.029
644.472
687.454
731.851
777.566
824.513
872.604
921.743
971.813
1022.7
1074.44
1126.95
1180.15
1233.9
1288.08
1342.58
1397.25
1451.96
1506.56
1560.89
1614.79
1668.07
1720.57
1772.06
1822.33
1871.14
1918.19
1963.16
2005.64
2045.14
2080.77
2111.22
2137.22
2156.24
2166.23
2159.14
2042.31
1918.6
1790.33
1659.41
1527.46
1395.94
1266.13
1139.29
1016.66
899.426
788.53
685.519
592.476
511.451
444.16
391.546
353.309
327.69
311.864
302.776
297.866
295.349
294.108
293.512
293.233
293.104
293.046
293.02
293.009
293.004
293.002
293.001
293
293
293
293
293
293
293.004
293.017
293.038
293.075
293.135
293.235
293.4
293.669
294.102
294.789
295.865
297.52
300.014
303.691
308.974
316.351
326.332
339.391
355.89
376.023
399.796
427.039
457.462
490.715
526.447
564.34
604.129
645.603
688.602
733.003
778.708
825.629
873.678
922.757
972.749
1023.54
1075.16
1127.55
1180.59
1234.17
1288.18
1342.48
1396.94
1451.42
1505.79
1559.88
1613.55
1666.6
1718.88
1770.17
1820.27
1868.93
1915.89
1960.83
2003.36
2043.03
2079.07
2109.99
2136.76
2156.99
2168.89
2169.57
2054.92
1932.85
1805.78
1675.7
1544.28
1412.99
1283.16
1156.03
1032.87
914.895
803.056
698.793
604.181
521.32
452.021
397.388
357.314
330.211
313.328
303.57
298.272
295.547
294.202
293.556
293.252
293.113
293.05
293.022
293.009
293.004
293.002
293.001
293
293
293
293
293
293
293.004
293.017
293.039
293.075
293.136
293.237
293.404
293.675
294.111
294.805
295.891
297.562
300.08
303.791
309.123
316.566
326.632
339.793
356.408
376.667
400.568
427.937
458.476
491.836
527.66
565.63
605.482
647.004
690.037
734.456
780.163
827.068
875.082
924.105
974.019
1024.71
1076.22
1128.47
1181.34
1234.74
1288.54
1342.61
1396.84
1451.07
1505.17
1558.99
1612.38
1665.17
1717.18
1768.24
1818.12
1866.61
1913.44
1958.32
2000.88
2040.7
2077.25
2108.83
2136.62
2158.57
2173.24
2178.4
2066.75
1947.14
1821.93
1693.18
1562.63
1431.81
1302.09
1174.76
1051.08
932.315
819.45
713.831
617.495
532.6
461.062
404.154
361.986
333.171
315.055
304.507
298.752
295.781
294.313
293.607
293.276
293.123
293.054
293.023
293.01
293.004
293.002
293.001
293
293
293
293
293
293
293.004
293.017
293.039
293.076
293.137
293.239
293.407
293.68
294.121
294.822
295.918
297.605
300.149
303.899
309.286
316.803
326.966
340.246
357
377.41
401.469
428.993
459.681
493.175
529.12
567.196
607.136
648.73
691.817
736.273
781.996
828.898
876.886
925.859
975.696
1026.29
1077.67
1129.77
1182.47
1235.67
1289.24
1343.06
1397.02
1450.97
1504.77
1558.29
1611.37
1663.85
1715.56
1766.33
1815.95
1864.22
1910.89
1955.66
1998.21
2038.1
2074.85
2107.04
2134.61
2157.32
2172.82
2178.76
2075.3
1960.66
1838.6
1711.86
1582.57
1452.46
1323
1195.54
1071.37
951.779
837.822
730.744
632.54
545.416
471.396
411.936
367.39
336.609
317.063
305.596
299.308
296.051
294.44
293.665
293.302
293.135
293.059
293.026
293.011
293.005
293.002
293.001
293
293
293
293
293
293
293.004
293.017
293.039
293.076
293.138
293.241
293.41
293.686
294.131
294.838
295.946
297.651
300.223
304.016
309.464
317.066
327.34
340.759
357.675
378.266
402.515
430.229
461.1
494.766
530.866
569.079
609.138
650.832
693.998
738.512
784.272
831.185
879.157
928.087
977.85
1028.34
1079.6
1131.54
1184.05
1237.03
1290.36
1343.91
1397.57
1451.2
1504.68
1557.86
1610.58
1662.72
1714.09
1764.52
1813.84
1861.83
1908.25
1952.83
1995.24
2035.09
2071.83
2104.14
2131.8
2154.77
2170.62
2177.17
2093.15
1979.61
1858.79
1733.17
1604.74
1475.18
1345.94
1218.35
1093.69
973.25
858.158
749.555
649.361
559.828
483.096
420.815
373.61
340.598
319.408
306.872
299.958
296.366
294.587
293.732
293.331
293.148
293.065
293.028
293.012
293.005
293.002
293.001
293
293
293
293
293
293
293.004
293.017
293.039
293.077
293.139
293.242
293.412
293.69
294.138
294.85
295.968
297.689
300.288
304.122
309.634
317.327
327.725
341.302
358.41
379.218
403.699
431.651
462.753
496.637
532.937
571.327
611.541
653.366
696.638
741.232
787.045
833.981
881.946
930.834
980.521
1030.91
1082.03
1133.8
1186.11
1238.86
1291.92
1345.18
1398.52
1451.82
1504.94
1557.75
1610.11
1661.86
1712.86
1762.93
1811.89
1859.55
1905.67
1949.99
1992.18
2031.86
2068.53
2100.97
2128.7
2151.8
2168.04
2175.42
2113.59
2000.71
1880.74
1755.97
1628.27
1499.23
1370.25
1242.62
1117.56
996.346
880.162
770.061
667.83
575.765
496.118
430.751
380.589
345.068
322.018
308.274
300.661
296.701
294.741
293.801
293.362
293.161
293.07
293.03
293.013
293.005
293.002
293.001
293
293
293
293
293
293
293.004
293.017
293.039
293.077
293.139
293.243
293.413
293.692
294.142
294.86
295.988
297.727
300.355
304.236
309.82
317.619
328.162
341.927
359.26
380.326
405.083
433.316
464.693
498.835
535.371
573.973
614.37
656.348
699.744
744.43
790.301
837.262
885.216
934.055
983.654
1033.92
1084.9
1136.48
1188.58
1241.07
1293.86
1346.81
1399.83
1452.78
1505.54
1557.98
1609.96
1661.33
1711.95
1761.65
1810.25
1857.57
1903.37
1947.39
1989.33
2028.79
2065.29
2097.71
2125.49
2148.69
2165.07
2172.82
2133.07
2021.04
1902.02
1778.18
1651.32
1522.95
1394.43
1266.97
1141.76
1020.01
902.934
791.525
687.42
592.902
510.327
441.763
388.45
350.18
325.038
309.906
301.479
297.088
294.918
293.88
293.396
293.175
293.076
293.033
293.014
293.006
293.002
293.001
293
293
293
293
293
293
293.004
293.017
293.039
293.076
293.139
293.242
293.412
293.69
294.139
294.857
295.985
297.729
300.372
304.284
309.924
317.816
328.5
342.461
360.048
381.415
406.507
435.088
466.808
501.27
538.094
576.942
617.543
659.682
703.197
747.961
793.869
840.828
888.741