/*--------------------------------*- C++ -*----------------------------------*\
  =========                 |
  \\      /  F ield         | OpenFOAM: The Open Source CFD Toolbox
   \\    /   O peration     | Website:  https://openfoam.org
    \\  /    A nd           | Version:  8
     \\/     M anipulation  |
\*---------------------------------------------------------------------------*/
FoamFile
{
    version     2.0;
    format      ascii;
    class       volScalarField;
    location    "600/fluid";
    object      CH4;
}
// * * * * * * * * * * * * * * * * * * * * * * * * * * * * * * * * * * * * * //

dimensions      [0 0 0 0 0 0 0];

internalField   nonuniform List<scalar> 
4000
(
0.999997
0.999986
0.999969
0.999939
0.999889
0.999807
0.999671
0.99945
0.999091
0.998518
0.997615
0.996216
0.994089
0.990927
0.986347
0.979908
0.971145
0.959629
0.94503
0.927165
0.906019
0.881737
0.854592
0.824943
0.793198
0.759785
0.725133
0.689648
0.653715
0.61768
0.581856
0.546512
0.51188
0.47815
0.445476
0.413978
0.38375
0.354857
0.327339
0.301213
0.27648
0.253126
0.231125
0.210441
0.191031
0.172847
0.155836
0.139945
0.125118
0.1113
0.0984357
0.0864733
0.0753618
0.0650538
0.0555052
0.0466763
0.0385325
0.0311428
0.0244597
0.0182083
0.0125755
0.00757327
0.00332878
0.00233357
0.00161548
0.00110234
0.000739943
0.000487552
0.00031463
0.000198437
0.00012219
7.36692e-05
4.41597e-05
2.77479e-05
2.0152e-05
1.54561e-05
1.14617e-05
8.05736e-06
5.31374e-06
3.26295e-06
1.86211e-06
9.92413e-07
4.98552e-07
2.39949e-07
1.12084e-07
5.11225e-08
2.28675e-08
1.00645e-08
4.36966e-09
1.87535e-09
7.9697e-10
3.35854e-10
1.40502e-10
5.8383e-11
2.40855e-11
9.83562e-12
3.93929e-12
1.50646e-12
5.03719e-13
8.83582e-14
0.999997
0.999986
0.999968
0.999939
0.999889
0.999806
0.999669
0.999446
0.999085
0.998509
0.997603
0.996203
0.994082
0.99094
0.986403
0.980042
0.971401
0.96006
0.945682
0.928075
0.907207
0.8832
0.856307
0.826871
0.795291
0.76199
0.727393
0.691914
0.655941
0.619828
0.583894
0.548418
0.513635
0.479745
0.446904
0.415239
0.384846
0.355793
0.328122
0.301852
0.276986
0.25351
0.231397
0.210613
0.191113
0.172847
0.155766
0.139814
0.124934
0.111071
0.0981688
0.0861744
0.0750366
0.0647071
0.0551414
0.0462992
0.0381453
0.0307513
0.0240667
0.0178113
0.0121754
0.00717634
0.00324765
0.00227801
0.00157636
0.00107431
0.00071973
0.000473012
0.000304292
0.000191236
0.000117335
7.05681e-05
4.23845e-05
2.70166e-05
1.9919e-05
1.51866e-05
1.11391e-05
7.73717e-06
5.04195e-06
3.06495e-06
1.73857e-06
9.26088e-07
4.67563e-07
2.26698e-07
1.06832e-07
4.91737e-08
2.2186e-08
9.83837e-09
4.29782e-09
1.85316e-09
7.9011e-10
3.33618e-10
1.39688e-10
5.80446e-11
2.39304e-11
9.76224e-12
3.90527e-12
1.49177e-12
4.98351e-13
8.73963e-14
0.999997
0.999986
0.999968
0.999938
0.999888
0.999804
0.999667
0.999442
0.99908
0.998502
0.997595
0.996195
0.994077
0.990948
0.98644
0.980133
0.971582
0.960369
0.946165
0.928772
0.908148
0.884404
0.857774
0.828587
0.797224
0.7641
0.729633
0.694234
0.658289
0.622158
0.586164
0.550589
0.515679
0.481637
0.448628
0.416783
0.386204
0.356963
0.329106
0.302656
0.277617
0.253979
0.231715
0.210788
0.191159
0.17278
0.155597
0.139554
0.124595
0.110663
0.0977021
0.0856582
0.0744792
0.0641162
0.0545241
0.0456619
0.0374938
0.0300979
0.0234149
0.0171626
0.0115439
0.00656467
0.0031895
0.0022257
0.00153243
0.00103909
0.000692507
0.000452657
0.000289566
0.00018096
0.000110477
6.62857e-05
4.00399e-05
2.6165e-05
1.95824e-05
1.48176e-05
1.07503e-05
7.38529e-06
4.76484e-06
2.87444e-06
1.62353e-06
8.64162e-07
4.37278e-07
2.12757e-07
1.00711e-07
4.65872e-08
2.11269e-08
9.41542e-09
4.13203e-09
1.78894e-09
7.65341e-10
3.24039e-10
1.35949e-10
5.65654e-11
2.33374e-11
9.52247e-12
3.80889e-12
1.45447e-12
4.85677e-13
8.51482e-14
0.999997
0.999986
0.999968
0.999938
0.999888
0.999804
0.999667
0.999442
0.99908
0.998504
0.997601
0.99621
0.994109
0.991008
0.986545
0.980304
0.971846
0.960757
0.946706
0.929493
0.909067
0.885529
0.859104
0.830109
0.798919
0.765939
0.731582
0.696256
0.660345
0.62421
0.588174
0.552526
0.517512
0.483343
0.450187
0.41818
0.387429
0.358012
0.329977
0.303351
0.278143
0.254339
0.231915
0.210846
0.191086
0.172587
0.155295
0.139155
0.124111
0.110105
0.0970815
0.0849846
0.0737622
0.0633647
0.0537464
0.0448657
0.0366866
0.0293028
0.0226411
0.0164123
0.0108067
0.00583959
0.00314652
0.0021801
0.00149031
0.00100334
0.000663942
0.00043093
0.000273757
0.000169959
0.000103203
6.18137e-05
3.76621e-05
2.53625e-05
1.91536e-05
1.43599e-05
1.02991e-05
6.99238e-06
4.4611e-06
2.66601e-06
1.496e-06
7.93702e-07
4.01523e-07
1.95722e-07
9.29259e-08
4.31428e-08
1.96422e-08
8.78914e-09
3.87255e-09
1.68296e-09
7.22522e-10
3.06867e-10
1.29093e-10
5.38352e-11
2.22519e-11
9.09258e-12
3.64076e-12
1.39122e-12
4.64694e-13
8.14798e-14
0.999997
0.999986
0.999968
0.999938
0.999888
0.999804
0.999667
0.999443
0.999083
0.998509
0.997611
0.996228
0.994142
0.991065
0.986639
0.980454
0.972074
0.961087
0.947163
0.930097
0.909834
0.886466
0.860209
0.831371
0.800321
0.767457
0.73319
0.697921
0.662037
0.625897
0.589825
0.554112
0.51901
0.48473
0.451445
0.419297
0.388395
0.35882
0.330626
0.303841
0.278473
0.254516
0.231955
0.210754
0.190872
0.17226
0.154867
0.138637
0.123513
0.109439
0.0963579
0.0842137
0.0729537
0.0625277
0.0528892
0.0439959
0.0358185
0.0284756
0.021822
0.0155876
0.00999948
0.00510013
0.00309971
0.00212745
0.00144129
0.000962121
0.000631576
0.000406821
0.000256601
0.000158283
9.56463e-05
5.72543e-05
3.53082e-05
2.46104e-05
1.86223e-05
1.38292e-05
9.81703e-06
6.59857e-06
4.17194e-06
2.47555e-06
1.38295e-06
7.32464e-07
3.7074e-07
1.81073e-07
8.6199e-08
4.01365e-08
1.8327e-08
8.22358e-09
3.63269e-09
1.58237e-09
6.80718e-10
2.89619e-10
1.22018e-10
5.09467e-11
2.10785e-11
8.61952e-12
3.45315e-12
1.31993e-12
4.40899e-13
7.73053e-14
0.999997
0.999986
0.999968
0.999938
0.999888
0.999805
0.999669
0.999446
0.999087
0.998518
0.997626
0.996253
0.994183
0.991131
0.986743
0.98061
0.972299
0.9614
0.947582
0.930635
0.9105
0.887263
0.861134
0.832414
0.801468
0.768689
0.734483
0.699253
0.663381
0.627227
0.591117
0.555344
0.520161
0.485782
0.452385
0.420113
0.389078
0.359367
0.331031
0.304104
0.278601
0.254518
0.231834
0.210517
0.190527
0.171817
0.154335
0.138028
0.122837
0.108706
0.0955779
0.083397
0.0721099
0.0616662
0.052019
0.0431255
0.034954
0.0276334
0.0209768
0.0147611
0.00919985
0.00437014
0.00298678
0.00202691
0.00136148
0.000902619
0.000589064
0.000377472
0.000236978
0.0001456
8.77774e-05
5.26515e-05
3.2931e-05
2.35554e-05
1.78849e-05
1.32144e-05
9.32004e-06
6.22058e-06
3.90608e-06
2.30441e-06
1.28212e-06
6.77561e-07
3.42744e-07
1.6754e-07
7.98728e-08
3.72587e-08
1.70472e-08
7.66523e-09
3.39305e-09
1.48092e-09
6.38263e-10
2.72016e-10
1.14774e-10
4.79842e-11
1.98742e-11
8.13399e-12
3.26064e-12
1.24679e-12
4.16496e-13
7.30247e-14
0.999997
0.999986
0.999968
0.999939
0.999889
0.999806
0.99967
0.999449
0.999093
0.998527
0.99764
0.996278
0.994223
0.991193
0.986837
0.980749
0.972498
0.961673
0.947941
0.931092
0.91106
0.887927
0.861896
0.833266
0.802395
0.769675
0.73551
0.700299
0.664426
0.62825
0.592099
0.556266
0.521007
0.486539
0.453041
0.420659
0.389508
0.359674
0.331216
0.304174
0.278559
0.254366
0.231576
0.21016
0.19008
0.171288
0.153734
0.137363
0.122119
0.107943
0.0947802
0.0825738
0.0712707
0.0608207
0.0511774
0.0422991
0.0341483
0.0269202
0.0201307
0.0139881
0.00849402
0.00374373
0.00261697
0.00180248
0.00122253
0.000815557
0.000534285
0.000343119
0.000215669
0.000132638
8.01447e-05
4.84147e-05
3.0883e-05
2.26201e-05
1.72192e-05
1.26839e-05
8.90651e-06
5.91296e-06
3.69254e-06
2.16796e-06
1.20194e-06
6.33838e-07
3.20326e-07
1.56611e-07
7.47086e-08
3.48793e-08
1.59741e-08
7.19021e-09
3.18614e-09
1.39207e-09
6.00574e-10
2.56197e-10
1.08193e-10
4.5268e-11
1.87615e-11
7.68258e-12
3.08077e-12
1.1782e-12
3.93554e-13
6.89953e-14
0.999997
0.999986
0.999969
0.999939
0.999889
0.999807
0.999672
0.999452
0.999098
0.998535
0.997655
0.996302
0.99426
0.991251
0.986924
0.980875
0.972674
0.961911
0.948251
0.93148
0.911529
0.888475
0.862518
0.833953
0.803135
0.770453
0.73631
0.701104
0.66522
0.629015
0.59282
0.556929
0.521599
0.487049
0.453461
0.420981
0.389727
0.359791
0.331236
0.304094
0.278381
0.254094
0.231217
0.20972
0.189565
0.170708
0.153096
0.136675
0.121389
0.107181
0.093993
0.08177
0.0704583
0.0600075
0.0503711
0.0415074
0.0334059
0.0262085
0.0194556
0.0133853
0.00800513
0.00343357
0.00239769
0.00165251
0.00112222
0.000749639
0.000491672
0.000316057
0.000198844
0.000122473
7.42699e-05
4.53029e-05
2.95884e-05
2.20999e-05
1.68351e-05
1.23548e-05
8.63101e-06
5.69766e-06
3.53721e-06
2.06565e-06
1.14029e-06
5.99451e-07
3.02317e-07
1.47675e-07
7.04173e-08
3.28738e-08
1.50584e-08
6.78045e-09
3.00603e-09
1.31413e-09
5.67299e-10
2.42156e-10
1.02327e-10
4.28382e-11
1.77634e-11
7.27677e-12
2.9188e-12
1.11635e-12
3.72849e-13
6.53569e-14
0.999997
0.999986
0.999969
0.999939
0.99989
0.999808
0.999674
0.999455
0.999103
0.998544
0.997669
0.996323
0.994294
0.991303
0.987001
0.980985
0.972826
0.962113
0.948511
0.931802
0.911915
0.888921
0.86302
0.834501
0.803718
0.771059
0.736924
0.701714
0.66581
0.629573
0.593332
0.557385
0.521988
0.487364
0.453694
0.421129
0.389791
0.359771
0.331128
0.303901
0.278106
0.253741
0.230792
0.20923
0.189016
0.170106
0.152449
0.135991
0.120675
0.106443
0.0932388
0.0810063
0.0696917
0.0592445
0.049618
0.0407704
0.0327302
0.025564
0.0188444
0.0128173
0.00748792
0.00326634
0.00227789
0.00156802
0.00106373
0.000709952
0.00046533
0.00029899
0.000188098
0.000115963
7.05758e-05
4.35046e-05
2.91002e-05
2.19915e-05
1.67212e-05
1.22202e-05
8.48742e-06
5.56484e-06
3.43233e-06
1.99257e-06
1.09459e-06
5.73282e-07
2.88325e-07
1.40618e-07
6.69808e-08
3.12474e-08
1.43072e-08
6.44087e-09
2.85538e-09
1.2484e-09
5.39034e-10
2.30154e-10
9.72861e-11
4.07409e-11
1.68988e-11
6.92422e-12
2.77777e-12
1.06241e-12
3.54777e-13
6.21761e-14
0.999997
0.999986
0.999969
0.99994
0.999891
0.999809
0.999676
0.999458
0.999108
0.998551
0.997681
0.996343
0.994324
0.991348
0.987067
0.981079
0.972954
0.962283
0.948727
0.932068
0.912229
0.889281
0.86342
0.834932
0.804171
0.771523
0.737388
0.702164
0.666236
0.629965
0.593679
0.557678
0.52222
0.487528
0.453787
0.421151
0.38974
0.359645
0.330929
0.303631
0.277768
0.253341
0.230334
0.208719
0.188459
0.169509
0.151818
0.135332
0.119994
0.105747
0.0925332
0.0802967
0.0689836
0.0585427
0.0489272
0.0400947
0.0320817
0.0249462
0.0182511
0.0122437
0.00692622
0.00320223
0.00222691
0.00152945
0.00103565
0.00069018
0.000451834
0.000290079
0.000182442
0.000112568
6.87399e-05
4.27573e-05
2.91367e-05
2.21791e-05
1.68046e-05
1.22162e-05
8.4374e-06
5.49641e-06
3.36632e-06
1.9421e-06
1.06129e-06
5.53531e-07
2.77494e-07
1.35062e-07
6.42356e-08
2.99326e-08
1.36939e-08
6.16125e-09
2.73044e-09
1.19355e-09
5.15329e-10
2.20046e-10
9.30261e-11
3.89638e-11
1.61646e-11
6.62434e-12
2.65765e-12
1.01643e-12
3.3937e-13
5.94594e-14
0.999997
0.999987
0.999969
0.99994
0.999891
0.99981
0.999677
0.99946
0.999112
0.998558
0.997692
0.996359
0.99435
0.991386
0.987123
0.981158
0.973062
0.962424
0.948905
0.932283
0.912482
0.889568
0.863734
0.835267
0.804518
0.771872
0.73773
0.702489
0.666535
0.630228
0.5939
0.557849
0.522335
0.487585
0.453785
0.421085
0.38961
0.359451
0.330673
0.303317
0.277399
0.252921
0.229868
0.208212
0.187916
0.168935
0.151219
0.134713
0.119361
0.105105
0.0918868
0.0796506
0.0683421
0.0579099
0.0483066
0.0394898
0.0315045
0.024395
0.0177212
0.0117326
0.00643839
0.00317318
0.00220408
0.00151221
0.0010231
0.000681357
0.000445862
0.000286203
0.000180066
0.000111249
6.81686e-05
4.27639e-05
2.96822e-05
2.26591e-05
1.70838e-05
1.23417e-05
8.46459e-06
5.47607e-06
3.33085e-06
1.90934e-06
1.03784e-06
5.38983e-07
2.69283e-07
1.30766e-07
6.20821e-08
2.88891e-08
1.32025e-08
5.93544e-09
2.62888e-09
1.14872e-09
4.95863e-10
2.11713e-10
8.95028e-11
3.74901e-11
1.55545e-11
6.37478e-12
2.55762e-12
9.78132e-13
3.2654e-13
5.72022e-14
0.999997
0.999987
0.999969
0.99994
0.999891
0.999811
0.999678
0.999463
0.999115
0.998564
0.997701
0.996373
0.994372
0.991419
0.987169
0.981223
0.97315
0.962538
0.949048
0.932456
0.912683
0.889793
0.863978
0.835524
0.804779
0.77213
0.737976
0.702717
0.666735
0.630394
0.594026
0.557929
0.522368
0.487567
0.453713
0.420959
0.389429
0.359218
0.330389
0.302985
0.277023
0.252504
0.229414
0.207726
0.187403
0.168399
0.150665
0.134146
0.118785
0.104524
0.0913059
0.0790731
0.0677713
0.0573491
0.0477593
0.0389618
0.0310015
0.0239063
0.0172511
0.0112858
0.00601358
0.00314984
0.00218927
0.00150287
0.00101732
0.000677892
0.000443871
0.00028514
0.000179592
0.000111169
6.83981e-05
4.32995e-05
3.0577e-05
2.33274e-05
1.74851e-05
1.2549e-05
8.54708e-06
5.48999e-06
3.31762e-06
1.89002e-06
1.02202e-06
5.28567e-07
2.63199e-07
1.27516e-07
6.04273e-08
2.80779e-08
1.2817e-08
5.75695e-09
2.5481e-09
1.11288e-09
4.80229e-10
2.04995e-10
8.66525e-11
3.62947e-11
1.50585e-11
6.17168e-12
2.47617e-12
9.4699e-13
3.1613e-13
5.53784e-14
0.999997
0.999987
0.999969
0.99994
0.999892
0.999811
0.999679
0.999464
0.999118
0.998568
0.997708
0.996385
0.99439
0.991445
0.987208
0.981276
0.973221
0.962631
0.949163
0.932593
0.91284
0.889967
0.864165
0.835717
0.804973
0.772317
0.738149
0.702869
0.666862
0.630489
0.594084
0.557948
0.522345
0.487499
0.453599
0.420799
0.389224
0.358968
0.330098
0.302655
0.276657
0.252106
0.228988
0.207275
0.186931
0.167911
0.150165
0.133638
0.118272
0.10401
0.0907937
0.0785664
0.0672731
0.0568633
0.0472899
0.0385065
0.0305646
0.0234884
0.0168519
0.0109063
0.00566046
0.00313023
0.00217877
0.00149776
0.00101526
0.000677453
0.000444221
0.000285821
0.000180368
0.000111943
6.91622e-05
4.41025e-05
3.14773e-05
2.40114e-05
1.7917e-05
1.27892e-05
8.65857e-06
5.52684e-06
3.31949e-06
1.88154e-06
1.01263e-06
5.21634e-07
2.58929e-07
1.25169e-07
5.92089e-08
2.74714e-08
1.25252e-08
5.62049e-09
2.48582e-09
1.08505e-09
4.68017e-10
1.99721e-10
8.44062e-11
3.53494e-11
1.46654e-11
6.01032e-12
2.41138e-12
9.22184e-13
3.07845e-13
5.3926e-14
0.999997
0.999987
0.999969
0.99994
0.999892
0.999812
0.99968
0.999466
0.999121
0.998572
0.997715
0.996395
0.994404
0.991467
0.987239
0.981319
0.973278
0.962704
0.949253
0.9327
0.912962
0.890101
0.864306
0.83586
0.805113
0.772448
0.738267
0.702967
0.666935
0.630534
0.594097
0.557927
0.522286
0.487402
0.453463
0.420625
0.389012
0.358721
0.329818
0.302343
0.276316
0.25174
0.2286
0.206869
0.18651
0.167479
0.149724
0.133191
0.117824
0.103563
0.0903506
0.0781301
0.0668482
0.0564518
0.0468884
0.0381147
0.0301947
0.0231352
0.0165146
0.0105843
0.00537177
0.00311411
0.00217175
0.00149584
0.00101595
0.000679281
0.000446364
0.000287856
0.000182122
0.000113392
7.03639e-05
4.51612e-05
3.24806e-05
2.47552e-05
1.83966e-05
1.3068e-05
8.79998e-06
5.58571e-06
3.33653e-06
1.88172e-06
1.00881e-06
5.17882e-07
2.56278e-07
1.23625e-07
5.83753e-08
2.70446e-08
1.23154e-08
5.52077e-09
2.43971e-09
1.06422e-09
4.58802e-10
1.95714e-10
8.269e-11
3.46239e-11
1.43625e-11
5.88564e-12
2.3612e-12
9.02946e-13
3.01418e-13
5.27983e-14
0.999997
0.999987
0.999969
0.999941
0.999892
0.999812
0.999681
0.999467
0.999123
0.998576
0.99772
0.996403
0.994416
0.991484
0.987263
0.981353
0.973323
0.962761
0.949323
0.932782
0.913054
0.890201
0.86441
0.835965
0.805212
0.772538
0.738343
0.703026
0.666972
0.630546
0.594082
0.557882
0.52221
0.487294
0.453323
0.420453
0.38881
0.35849
0.329559
0.30206
0.276012
0.251416
0.228259
0.206514
0.186144
0.167105
0.149345
0.13281
0.117442
0.103184
0.089978
0.077766
0.0664919
0.0561012
0.0465479
0.037788
0.0298873
0.0228429
0.0162371
0.0103221
0.00513939
0.00310117
0.0021678
0.00149666
0.00101898
0.00068302
0.000450006
0.000291026
0.000184706
0.000115425
7.19589e-05
4.64698e-05
3.36135e-05
2.55789e-05
1.89345e-05
1.33895e-05
8.97226e-06
5.6661e-06
3.36782e-06
1.89079e-06
1.00963e-06
5.16697e-07
2.55032e-07
1.22778e-07
5.78738e-08
2.67717e-08
1.21757e-08
5.45235e-09
2.40737e-09
1.04937e-09
4.52143e-10
1.92788e-10
8.14263e-11
3.40862e-11
1.41368e-11
5.79239e-12
2.32356e-12
8.88505e-13
2.96588e-13
5.19512e-14
0.999997
0.999987
0.99997
0.999941
0.999892
0.999813
0.999682
0.999468
0.999124
0.998578
0.997724
0.996409
0.994425
0.991498
0.987282
0.981379
0.973358
0.962805
0.949376
0.932844
0.913123
0.890275
0.864486
0.836039
0.805281
0.772599
0.738391
0.703058
0.666985
0.630538
0.594051
0.557827
0.522129
0.487187
0.453191
0.420296
0.388628
0.358286
0.329334
0.301815
0.27575
0.25114
0.22797
0.206215
0.185838
0.166793
0.149031
0.132495
0.11713
0.102877
0.0896757
0.0774682
0.0661989
0.0558171
0.0462739
0.0375252
0.0296364
0.0226034
0.0160063
0.0100966
0.00492838
0.00309109
0.00216656
0.0014999
0.00102406
0.000688433
0.000454966
0.000295199
0.000188028
0.00011798
7.3905e-05
4.79935e-05
3.48591e-05
2.64745e-05
1.95245e-05
1.37487e-05
9.17123e-06
5.76476e-06
3.411e-06
1.90716e-06
1.01471e-06
5.17671e-07
2.54852e-07
1.22443e-07
5.76231e-08
2.662e-08
1.2092e-08
5.40919e-09
2.38621e-09
1.03939e-09
4.4758e-10
1.90753e-10
8.05374e-11
3.37047e-11
1.39757e-11
5.72551e-12
2.29653e-12
8.7813e-13
2.93115e-13
5.13417e-14
0.999997
0.999987
0.99997
0.999941
0.999893
0.999813
0.999682
0.999469
0.999125
0.99858
0.997727
0.996413
0.994432
0.991508
0.987297
0.981398
0.973383
0.962837
0.949416
0.932889
0.913174
0.890328
0.86454
0.83609
0.805328
0.772637
0.738419
0.703073
0.666986
0.630521
0.594016
0.557772
0.522054
0.487092
0.453075
0.420161
0.388475
0.358115
0.329148
0.301615
0.275537
0.250915
0.227737
0.205976
0.185593
0.166546
0.148783
0.132248
0.116885
0.102633
0.089434
0.0772314
0.0659696
0.0555959
0.0460615
0.0373218
0.029445
0.0224214
0.0158325
0.00993
0.00477787
0.00308357
0.00216771
0.00150526
0.00103093
0.000695306
0.000461074
0.000300247
0.000191994
0.000120992
7.61583e-05
4.97048e-05
3.61933e-05
2.74224e-05
2.015e-05
1.41327e-05
9.3878e-06
5.87567e-06
3.46229e-06
1.92855e-06
1.02272e-06
5.20266e-07
2.55497e-07
1.22515e-07
5.75608e-08
2.65539e-08
1.20483e-08
5.38466e-09
2.3735e-09
1.03317e-09
4.44658e-10
1.89425e-10
7.99495e-11
3.34503e-11
1.38679e-11
5.68077e-12
2.27843e-12
8.71158e-13
2.90776e-13
5.0931e-14
0.999997
0.999987
0.99997
0.999941
0.999893
0.999813
0.999682
0.999469
0.999126
0.998581
0.997729
0.996417
0.994437
0.991515
0.987307
0.981412
0.973401
0.96286
0.949443
0.932921
0.913208
0.890365
0.864576
0.836124
0.805358
0.772661
0.738435
0.703079
0.66698
0.630503
0.593984
0.557725
0.521993
0.487015
0.452984
0.420056
0.388357
0.357984
0.329005
0.301462
0.275376
0.250747
0.227563
0.205797
0.185412
0.166363
0.148599
0.132064
0.116701
0.102451
0.0892564
0.0770589
0.0658031
0.055436
0.0459085
0.0371761
0.029309
0.0222924
0.0157094
0.00981115
0.00466832
0.00307832
0.00217093
0.00151239
0.00103927
0.000703335
0.000468072
0.000305958
0.000196439
0.000124334
7.8622e-05
5.15248e-05
3.75537e-05
2.83728e-05
2.07731e-05
1.45149e-05
9.60453e-06
5.98835e-06
3.51582e-06
1.95182e-06
1.03199e-06
5.23649e-07
2.566e-07
1.22836e-07
5.76274e-08
2.6552e-08
1.20353e-08
5.37432e-09
2.36734e-09
1.02993e-09
4.43073e-10
1.88686e-10
7.96167e-11
3.33043e-11
1.38051e-11
5.6543e-12
2.26758e-12
8.66947e-13
2.89356e-13
5.06809e-14
0.999997
0.999987
0.99997
0.999941
0.999893
0.999813
0.999682
0.99947
0.999127
0.998582
0.99773
0.996419
0.99444
0.99152
0.987313
0.981421
0.973413
0.962875
0.94946
0.932941
0.91323
0.890387
0.864598
0.836145
0.805376
0.772674
0.738443
0.70308
0.666973
0.630488
0.593959
0.557691
0.521949
0.486963
0.452922
0.419985
0.388277
0.357897
0.328911
0.301361
0.275269
0.250636
0.227449
0.205679
0.185292
0.166241
0.148476
0.131941
0.11658
0.102333
0.0891417
0.0769482
0.0656968
0.0553346
0.0458124
0.0370853
0.0292247
0.0222129
0.0156332
0.00973634
0.00459682
0.00307503
0.00217571
0.00152065
0.00104835
0.000711837
0.000475349
0.000311825
0.000200961
0.0001277
8.10669e-05
5.32782e-05
3.88042e-05
2.92222e-05
2.13195e-05
1.48457e-05
9.79088e-06
6.08524e-06
3.5622e-06
1.97228e-06
1.04033e-06
5.26804e-07
2.5772e-07
1.23224e-07
5.77506e-08
2.65857e-08
1.20416e-08
5.3738e-09
2.3659e-09
1.02887e-09
4.42459e-10
1.8837e-10
7.94649e-11
3.32345e-11
1.3774e-11
5.64089e-12
2.26198e-12
8.64742e-13
2.88606e-13
5.05484e-14
0.999997
0.999987
0.99997
0.999941
0.999893
0.999813
0.999683
0.99947
0.999127
0.998583
0.997731
0.99642
0.994442
0.991522
0.987316
0.981425
0.973419
0.962881
0.949469
0.93295
0.91324
0.890398
0.864608
0.836155
0.805384
0.77268
0.738446
0.703079
0.666969
0.630479
0.593947
0.557674
0.521927
0.486936
0.452891
0.419949
0.388237
0.357853
0.328863
0.301311
0.275216
0.25058
0.227391
0.20562
0.185232
0.166181
0.148416
0.131882
0.116522
0.102277
0.0890872
0.076896
0.0656471
0.0552878
0.0457686
0.0370446
0.0291877
0.0221784
0.0155999
0.00970255
0.00456175
0.00307344
0.00218072
0.00152811
0.0010561
0.000718836
0.000481197
0.000316457
0.000204485
0.000130293
8.29192e-05
5.45595e-05
3.96547e-05
2.97688e-05
2.16574e-05
1.5044e-05
9.90009e-06
6.14114e-06
3.58874e-06
1.98398e-06
1.04513e-06
5.28632e-07
2.58416e-07
1.23477e-07
5.7838e-08
2.66137e-08
1.20496e-08
5.37558e-09
2.36602e-09
1.02868e-09
4.42292e-10
1.88269e-10
7.94115e-11
3.32086e-11
1.37621e-11
5.63559e-12
2.25973e-12
8.63843e-13
2.88297e-13
5.04937e-14
0.999997
0.999987
0.99997
0.999941
0.999893
0.999813
0.999683
0.99947
0.999127
0.998583
0.997731
0.99642
0.994442
0.991522
0.987316
0.981425
0.973418
0.962881
0.949468
0.93295
0.91324
0.890397
0.864608
0.836154
0.805383
0.77268
0.738445
0.703079
0.666969
0.630479
0.593946
0.557673
0.521927
0.486935
0.45289
0.419948
0.388237
0.357853
0.328863
0.30131
0.275216
0.25058
0.227391
0.20562
0.185232
0.166181
0.148416
0.131882
0.116522
0.102277
0.0890871
0.0768958
0.065647
0.0552877
0.0457686
0.0370445
0.0291876
0.0221783
0.0155999
0.0097025
0.00456171
0.00307344
0.00218072
0.00152811
0.0010561
0.000718836
0.000481196
0.000316457
0.000204485
0.000130293
8.29193e-05
5.45596e-05
3.96547e-05
2.97688e-05
2.16574e-05
1.5044e-05
9.90009e-06
6.14115e-06
3.58874e-06
1.98398e-06
1.04513e-06
5.28632e-07
2.58416e-07
1.23477e-07
5.78381e-08
2.66138e-08
1.20496e-08
5.37559e-09
2.36603e-09
1.02868e-09
4.42292e-10
1.88269e-10
7.94116e-11
3.32086e-11
1.37621e-11
5.63559e-12
2.25973e-12
8.63843e-13
2.88297e-13
5.04937e-14
0.999997
0.999987
0.99997
0.999941
0.999893
0.999813
0.999682
0.99947
0.999127
0.998582
0.99773
0.996419
0.99444
0.991519
0.987313
0.981421
0.973413
0.962874
0.94946
0.93294
0.913229
0.890386
0.864597
0.836144
0.805374
0.772673
0.738441
0.703078
0.666972
0.630486
0.593958
0.55769
0.521948
0.486961
0.452921
0.419983
0.388276
0.357896
0.32891
0.30136
0.275268
0.250635
0.227448
0.205679
0.185291
0.16624
0.148475
0.131941
0.11658
0.102333
0.0891413
0.0769478
0.0656964
0.0553343
0.0458121
0.0370851
0.0292245
0.0222127
0.015633
0.00973619
0.0045967
0.00307503
0.00217572
0.00152065
0.00104835
0.000711837
0.000475349
0.000311825
0.000200961
0.000127701
8.10671e-05
5.32784e-05
3.88045e-05
2.92223e-05
2.13196e-05
1.48457e-05
9.7909e-06
6.08526e-06
3.5622e-06
1.97229e-06
1.04034e-06
5.26807e-07
2.57722e-07
1.23225e-07
5.77512e-08
2.6586e-08
1.20418e-08
5.37386e-09
2.36593e-09
1.02887e-09
4.42463e-10
1.88372e-10
7.94654e-11
3.32347e-11
1.37741e-11
5.64091e-12
2.26199e-12
8.64743e-13
2.88606e-13
5.05485e-14
0.999997
0.999987
0.99997
0.999941
0.999893
0.999813
0.999682
0.999469
0.999126
0.998581
0.997729
0.996417
0.994437
0.991515
0.987307
0.981412
0.973401
0.962859
0.949442
0.93292
0.913207
0.890363
0.864574
0.836123
0.805356
0.772659
0.738433
0.703076
0.666978
0.6305
0.593981
0.557722
0.52199
0.487013
0.452982
0.420054
0.388355
0.357982
0.329004
0.301461
0.275374
0.250746
0.227562
0.205796
0.185412
0.166363
0.148598
0.132063
0.1167
0.10245
0.0892557
0.0770583
0.0658025
0.0554354
0.0459081
0.0371757
0.0293086
0.0222921
0.0157091
0.0098109
0.00466812
0.00307833
0.00217094
0.0015124
0.00103927
0.000703336
0.000468072
0.000305959
0.00019644
0.000124334
7.86223e-05
5.15252e-05
3.75541e-05
2.8373e-05
2.07732e-05
1.45149e-05
9.60457e-06
5.98837e-06
3.51583e-06
1.95183e-06
1.032e-06
5.23654e-07
2.56603e-07
1.22837e-07
5.76284e-08
2.65525e-08
1.20355e-08
5.3744e-09
2.36738e-09
1.02994e-09
4.43079e-10
1.88688e-10
7.96177e-11
3.33046e-11
1.38052e-11
5.65434e-12
2.26759e-12
8.66949e-13
2.89356e-13
5.0681e-14
0.999997
0.999987
0.99997
0.999941
0.999893
0.999813
0.999682
0.999469
0.999125
0.99858
0.997726
0.996413
0.994432
0.991507
0.987296
0.981398
0.973382
0.962836
0.949414
0.932888
0.913172
0.890326
0.864537
0.836088
0.805325
0.772635
0.738416
0.70307
0.666982
0.630518
0.594013
0.557768
0.522051
0.487089
0.453073
0.420158
0.388473
0.358113
0.329145
0.301612
0.275534
0.250913
0.227735
0.205974
0.185592
0.166544
0.148781
0.132247
0.116884
0.102632
0.089433
0.0772305
0.0659688
0.0555952
0.0460608
0.0373212
0.0294445
0.0224209
0.0158321
0.00992964
0.00477758
0.00308358
0.00216772
0.00150526
0.00103093
0.000695307
0.000461075
0.000300248
0.000191995
0.000120992
7.61589e-05
4.97053e-05
3.61938e-05
2.74227e-05
2.01502e-05
1.41328e-05
9.38784e-06
5.87569e-06
3.4623e-06
1.92857e-06
1.02272e-06
5.20272e-07
2.55501e-07
1.22517e-07
5.7562e-08
2.65544e-08
1.20486e-08
5.38477e-09
2.37355e-09
1.03319e-09
4.44667e-10
1.89429e-10
7.99507e-11
3.34508e-11
1.3868e-11
5.68081e-12
2.27844e-12
8.7116e-13
2.90776e-13
5.09309e-14
0.999997
0.999987
0.99997
0.999941
0.999892
0.999813
0.999681
0.999468
0.999124
0.998578
0.997723
0.996409
0.994425
0.991497
0.987282
0.981378
0.973357
0.962803
0.949375
0.932842
0.913121
0.890272
0.864483
0.836036
0.805278
0.772595
0.738387
0.703054
0.666981
0.630534
0.594047
0.557822
0.522125
0.487183
0.453187
0.420292
0.388625
0.358282
0.329331
0.301812
0.275747
0.251137
0.227968
0.206213
0.185836
0.166791
0.149029
0.132493
0.117129
0.102875
0.0896744
0.077467
0.0661978
0.0558161
0.0462731
0.0375244
0.0296357
0.0226028
0.0160058
0.0100962
0.00492799
0.0030911
0.00216657
0.0014999
0.00102406
0.000688432
0.000454965
0.000295199
0.000188028
0.00011798
7.39055e-05
4.79941e-05
3.48596e-05
2.64749e-05
1.95247e-05
1.37488e-05
9.17128e-06
5.76478e-06
3.41101e-06
1.90717e-06
1.01473e-06
5.17678e-07
2.54857e-07
1.22445e-07
5.76242e-08
2.66206e-08
1.20923e-08
5.40935e-09
2.38628e-09
1.03942e-09
4.47591e-10
1.90757e-10
8.05388e-11
3.37052e-11
1.39758e-11
5.72554e-12
2.29654e-12
8.78129e-13
2.93114e-13
5.13415e-14
0.999997
0.999987
0.999969
0.999941
0.999892
0.999812
0.999681
0.999467
0.999123
0.998576
0.997719
0.996403
0.994416
0.991484
0.987263
0.981352
0.973322
0.96276
0.949321
0.93278
0.913051
0.890198
0.864406
0.835961
0.805208
0.772534
0.738339
0.703021
0.666967
0.630541
0.594077
0.557877
0.522205
0.487289
0.453318
0.420449
0.388806
0.358486
0.329556
0.302056
0.276008
0.251413
0.228256
0.206511
0.186142
0.167103
0.149343
0.132808
0.117441
0.103183
0.0899764
0.0777646
0.0664906
0.0561
0.0465468
0.037787
0.0298864
0.0228422
0.0162364
0.0103215
0.00513891
0.00310117
0.00216781
0.00149666
0.00101898
0.000683018
0.000450005
0.000291025
0.000184706
0.000115425
7.19595e-05
4.64704e-05
3.36141e-05
2.55793e-05
1.89347e-05
1.33896e-05
8.97232e-06
5.66613e-06
3.36784e-06
1.8908e-06
1.00964e-06
5.16704e-07
2.55036e-07
1.22781e-07
5.78753e-08
2.67725e-08
1.21761e-08
5.45253e-09
2.40744e-09
1.0494e-09
4.52154e-10
1.92792e-10
8.14276e-11
3.40866e-11
1.41369e-11
5.7924e-12
2.32356e-12
8.885e-13
2.96586e-13
5.19507e-14
0.999997
0.999987
0.999969
0.99994
0.999892
0.999812
0.99968
0.999466
0.999121
0.998572
0.997714
0.996395
0.994404
0.991466
0.987238
0.981318
0.973277
0.962702
0.949251
0.932697
0.912958
0.890097
0.864301
0.835856
0.805108
0.772443
0.738261
0.702961
0.666929
0.630528
0.594091
0.557921
0.52228
0.487396
0.453458
0.42062
0.389007
0.358716
0.329813
0.302338
0.276312
0.251736
0.228596
0.206865
0.186507
0.167476
0.149721
0.133189
0.117822
0.103561
0.0903486
0.0781283
0.0668465
0.0564503
0.046887
0.0381135
0.0301937
0.0231343
0.0165138
0.0105836
0.00537118
0.0031141
0.00217176
0.00149585
0.00101595
0.000679279
0.000446363
0.000287855
0.000182122
0.000113393
7.03644e-05
4.51618e-05
3.24813e-05
2.47557e-05
1.83969e-05
1.30681e-05
8.80005e-06
5.58574e-06
3.33655e-06
1.88174e-06
1.00882e-06
5.17888e-07
2.56282e-07
1.23628e-07
5.8377e-08
2.70455e-08
1.23158e-08
5.52096e-09
2.43979e-09
1.06425e-09
4.58814e-10
1.95718e-10
8.26912e-11
3.46243e-11
1.43625e-11
5.88563e-12
2.36118e-12
9.02937e-13
3.01414e-13
5.27977e-14
0.999997
0.999987
0.999969
0.99994
0.999892
0.999811
0.999679
0.999464
0.999118
0.998568
0.997708
0.996385
0.994389
0.991445
0.987207
0.981275
0.97322
0.962629
0.94916
0.93259
0.912836
0.889963
0.86416
0.835712
0.804967
0.77231
0.738143
0.702863
0.666855
0.630482
0.594077
0.557942
0.522338
0.487492
0.453593
0.420793
0.389218
0.358963
0.330093
0.30265
0.276652
0.252101
0.228983
0.207271
0.186927
0.167908
0.150162
0.133635
0.118269
0.104007
0.0907914
0.0785643
0.0672712
0.0568615
0.0472884
0.0385051
0.0305634
0.0234873
0.0168509
0.0109054
0.00565973
0.00313021
0.00217877
0.00149775
0.00101526
0.000677447
0.000444217
0.000285819
0.000180367
0.000111943
6.91624e-05
4.4103e-05
3.1478e-05
2.4012e-05
1.79173e-05
1.27894e-05
8.65865e-06
5.52687e-06
3.31951e-06
1.88155e-06
1.01264e-06
5.21641e-07
2.58934e-07
1.25172e-07
5.92105e-08
2.74722e-08
1.25256e-08
5.62067e-09
2.48589e-09
1.08508e-09
4.68027e-10
1.99724e-10
8.44072e-11
3.53496e-11
1.46654e-11
6.01028e-12
2.41135e-12
9.22171e-13
3.07836e-13
5.39257e-14
0.999997
0.999987
0.999969
0.99994
0.999891
0.999811
0.999678
0.999462
0.999115
0.998564
0.997701
0.996373
0.994371
0.991418
0.987168
0.981222
0.973148
0.962536
0.949045
0.932453
0.912678
0.889788
0.863972
0.835518
0.804773
0.772123
0.737969
0.702709
0.666727
0.630386
0.594018
0.557921
0.52236
0.48756
0.453706
0.420952
0.389422
0.359211
0.330383
0.302979
0.277017
0.252498
0.229409
0.207721
0.187398
0.168395
0.150661
0.134143
0.118782
0.104521
0.0913032
0.0790706
0.0677691
0.0573471
0.0477574
0.0389602
0.031
0.0239049
0.0172499
0.0112848
0.00601268
0.00314982
0.00218926
0.00150286
0.00101731
0.000677882
0.000443864
0.000285135
0.000179589
0.000111168
6.83978e-05
4.32999e-05
3.0578e-05
2.33281e-05
1.74855e-05
1.25492e-05
8.54716e-06
5.49002e-06
3.31763e-06
1.89002e-06
1.02202e-06
5.28572e-07
2.63203e-07
1.27518e-07
6.04286e-08
2.80786e-08
1.28173e-08
5.7571e-09
2.54816e-09
1.1129e-09
4.80237e-10