/*--------------------------------*- C++ -*----------------------------------*\
  =========                 |
  \\      /  F ield         | OpenFOAM: The Open Source CFD Toolbox
   \\    /   O peration     | Website:  https://openfoam.org
    \\  /    A nd           | Version:  8
     \\/     M anipulation  |
\*---------------------------------------------------------------------------*/
FoamFile
{
    version     2.0;
    format      ascii;
    class       volScalarField;
    location    "600/fluid";
    object      CO2;
}
// * * * * * * * * * * * * * * * * * * * * * * * * * * * * * * * * * * * * * //

dimensions      [0 0 0 0 0 0 0];

internalField   nonuniform List<scalar> 
4000
(
4.68246e-07
2.04595e-06
4.69817e-06
9.1423e-06
1.65567e-05
2.88578e-05
4.91253e-05
8.22387e-05
0.000135796
0.000221391
0.000356276
0.000565354
0.000883226
0.00135573
0.00204005
0.00300226
0.00431176
0.0060327
0.00821456
0.0108848
0.0140454
0.0176749
0.0217325
0.0261648
0.0309104
0.0359055
0.0410862
0.0463914
0.051764
0.0571517
0.0625083
0.0677931
0.0729715
0.0780152
0.082901
0.0876108
0.0921305
0.0964502
0.100564
0.104468
0.108163
0.111649
0.114931
0.118012
0.120899
0.123595
0.126108
0.128443
0.130605
0.132597
0.134421
0.136078
0.137565
0.138876
0.139998
0.140916
0.141603
0.142018
0.142121
0.141844
0.141093
0.139737
0.137539
0.126983
0.116245
0.105507
0.0949101
0.0845659
0.074562
0.0649702
0.0558507
0.0472567
0.0392382
0.0318802
0.0251574
0.0191745
0.0139959
0.00968513
0.00628937
0.00380385
0.0021388
0.00112363
0.000556791
0.000264557
0.000122116
5.50902e-05
2.43951e-05
1.06381e-05
4.57992e-06
1.95055e-06
8.23177e-07
3.44725e-07
1.43404e-07
5.92925e-08
2.43543e-08
9.90856e-09
3.95647e-09
1.50955e-09
5.03986e-10
8.8345e-11
4.69672e-07
2.05276e-06
4.71629e-06
9.18428e-06
1.66466e-05
2.90379e-05
4.94641e-05
8.28352e-05
0.000136771
0.000222836
0.000358158
0.000567311
0.000884251
0.00135379
0.00203171
0.00298235
0.00427353
0.00596856
0.00811729
0.0107488
0.013868
0.0174564
0.0214764
0.0258766
0.0305976
0.0355761
0.0407483
0.0460526
0.051431
0.0568305
0.0622033
0.0675079
0.0727088
0.0777764
0.0826871
0.0874219
0.0919663
0.0963099
0.100446
0.104372
0.108086
0.111591
0.114889
0.117985
0.120884
0.123593
0.126116
0.128459
0.130627
0.132625
0.134454
0.136115
0.137605
0.138917
0.140041
0.140959
0.141646
0.142061
0.142162
0.141884
0.141129
0.139766
0.136702
0.126054
0.115249
0.104459
0.0938223
0.0834469
0.0734199
0.0638133
0.0546883
0.0461001
0.038101
0.0307826
0.0241203
0.0182269
0.0131688
0.00900797
0.00578095
0.0034615
0.00193503
0.0010166
0.000506718
0.000242809
0.000113205
5.16014e-05
2.3075e-05
1.01498e-05
4.40119e-06
1.88505e-06
7.98866e-07
3.35503e-07
1.39813e-07
5.78586e-08
2.37714e-08
9.67017e-09
3.86013e-09
1.47233e-09
4.91437e-10
8.61592e-11
4.72111e-07
2.06374e-06
4.74289e-06
9.23907e-06
1.67503e-05
2.92222e-05
4.97721e-05
8.33185e-05
0.000137483
0.000223826
0.000359403
0.000568606
0.000885011
0.00135267
0.00202619
0.00296871
0.00424671
0.00592243
0.00804532
0.0106449
0.0137275
0.0172766
0.0212571
0.0256202
0.0303085
0.0352603
0.0404131
0.0457054
0.0510794
0.0564815
0.0618633
0.0671824
0.0724023
0.0774925
0.0824283
0.08719
0.0917622
0.0961338
0.100298
0.10425
0.10799
0.111519
0.114839
0.117956
0.120873
0.123598
0.126135
0.128491
0.13067
0.132676
0.134512
0.136178
0.137672
0.138987
0.140112
0.14103
0.141716
0.142127
0.142225
0.14194
0.141174
0.139798
0.135163
0.124456
0.1136
0.102771
0.0921082
0.0817216
0.0716996
0.0621156
0.0530329
0.0445087
0.036598
0.0293821
0.022865
0.017145
0.0122833
0.0083311
0.00530649
0.00316074
0.00176323
0.000927392
0.000463959
0.000223314
0.000104639
4.79453e-05
2.15502e-05
9.52511e-06
4.14852e-06
1.78367e-06
7.58332e-07
3.19292e-07
1.33308e-07
5.52378e-08
2.27119e-08
9.24243e-09
3.68967e-09
1.40719e-09
4.69594e-10
8.2318e-11
4.72959e-07
2.0674e-06
4.75118e-06
9.25476e-06
1.6777e-05
2.92629e-05
4.9825e-05
8.3365e-05
0.000137456
0.000223544
0.000358491
0.000566372
0.000880297
0.00134374
0.00201063
0.00294323
0.00420726
0.00586451
0.00796444
0.0105372
0.0135902
0.0171084
0.0210582
0.0253924
0.0300549
0.0349852
0.0401213
0.0454026
0.0507714
0.056174
0.0615618
0.0668919
0.0721272
0.0772364
0.0821941
0.0869798
0.0915775
0.0959753
0.100166
0.104144
0.107909
0.111462
0.114805
0.117943
0.120879
0.12362
0.126172
0.128541
0.130731
0.132746
0.134589
0.136259
0.137756
0.139071
0.140195
0.141109
0.141789
0.142191
0.142276
0.141974
0.141186
0.139777
0.133213
0.12249
0.111616
0.100776
0.0901142
0.0797452
0.0697597
0.0602333
0.0512308
0.0428107
0.0350296
0.0279395
0.0215989
0.0160721
0.0114152
0.00767056
0.00484123
0.00286113
0.00158745
0.000832792
0.000416664
0.000200938
9.44322e-05
4.34206e-05
1.95905e-05
8.69268e-06
3.80056e-06
1.64009e-06
6.99681e-07
2.95507e-07
1.23711e-07
5.13783e-08
2.1165e-08
8.6259e-09
3.44751e-09
1.31588e-09
4.39301e-10
7.70232e-11
4.726e-07
2.06577e-06
4.74716e-06
9.24595e-06
1.67581e-05
2.92223e-05
4.97375e-05
8.31789e-05
0.000137071
0.000222778
0.000357016
0.00056363
0.00087538
0.00133525
0.00199655
0.00292087
0.0041733
0.00581527
0.00789625
0.0104469
0.0134755
0.0169683
0.0208931
0.0252037
0.0298451
0.0347578
0.0398805
0.045153
0.0505177
0.0559209
0.061314
0.0666535
0.071902
0.0770276
0.0820044
0.0868112
0.0914313
0.0958525
0.100066
0.104068
0.107857
0.111432
0.114795
0.117951
0.120905
0.123661
0.126227
0.128607
0.130805
0.132828
0.134675
0.136348
0.137844
0.139156
0.140274
0.141179
0.141846
0.14223
0.142294
0.141965
0.14114
0.139689
0.131136
0.12043
0.109558
0.098723
0.0880781
0.0777426
0.0678105
0.0583583
0.0494513
0.0411477
0.033517
0.0265806
0.0204156
0.0150797
0.0106226
0.0070764
0.00442949
0.00260008
0.00143615
0.000751903
0.000376232
0.000181709
8.5581e-05
3.94485e-05
1.78438e-05
7.93731e-06
3.47839e-06
1.50427e-06
6.42964e-07
2.72009e-07
1.14039e-07
4.74192e-08
1.95537e-08
7.97559e-09
3.18949e-09
1.21786e-09
4.06617e-10
7.12941e-11
4.71085e-07
2.05903e-06
4.7311e-06
9.21309e-06
1.66948e-05
2.91036e-05
4.95189e-05
8.27812e-05
0.000136357
0.000221516
0.000354826
0.00055991
0.000869219
0.00132534
0.00198111
0.00289765
0.0041397
0.00576853
0.00783376
0.0103666
0.013376
0.0168491
0.0207547
0.0250475
0.0296733
0.0345732
0.0396865
0.0449532
0.0503159
0.055721
0.0611196
0.066468
0.0717285
0.0768687
0.0818622
0.0866874
0.0913272
0.0957686
0.100003
0.104026
0.107835
0.111428
0.114809
0.117981
0.120949
0.123718
0.126295
0.128683
0.130889
0.132915
0.134764
0.136436
0.137927
0.139232
0.140337
0.141226
0.141871
0.142227
0.14226
0.141893
0.141027
0.13955
0.129303
0.118566
0.107658
0.0968026
0.0861616
0.0758553
0.0659768
0.0566011
0.0477913
0.0396039
0.032121
0.025334
0.0193368
0.0141816
0.00991089
0.00654669
0.00406414
0.00236853
0.00130122
0.000678959
0.000339189
0.000163824
7.72226e-05
3.56446e-05
1.61507e-05
7.1978e-06
3.16054e-06
1.3695e-06
5.86468e-07
2.48545e-07
1.04368e-07
4.34591e-08
1.79422e-08
7.32538e-09
2.9316e-09
1.11989e-09
3.73959e-10
6.55695e-11
4.69003e-07
2.04984e-06
4.70962e-06
9.17019e-06
1.66145e-05
2.89583e-05
4.92611e-05
8.23304e-05
0.00013558
0.000220192
0.000352606
0.000556258
0.000863338
0.0013161
0.00196702
0.00287684
0.00411003
0.00572781
0.00777999
0.0102982
0.0132922
0.0167498
0.0206405
0.0249198
0.0295343
0.0344252
0.0395324
0.044796
0.0501587
0.0555669
0.0609715
0.0663287
0.0716003
0.0767538
0.0817622
0.0866036
0.0912606
0.0957201
0.0999729
0.104013
0.107837
0.111446
0.114841
0.118027
0.121007
0.123787
0.126371
0.128766
0.130976
0.133004
0.134851
0.136518
0.138001
0.139292
0.140378
0.141239
0.141848
0.142154
0.142126
0.141681
0.140724
0.139164
0.128267
0.117169
0.106065
0.0951132
0.0844402
0.0741467
0.0643144
0.0550105
0.0462926
0.0382126
0.0308525
0.0241986
0.01836
0.0133775
0.00928309
0.00608513
0.00374921
0.00217074
0.00118669
0.000617232
0.000307829
0.000148631
7.00834e-05
3.23722e-05
1.4682e-05
6.55047e-06
2.87971e-06
1.24933e-06
5.35646e-07
2.27269e-07
9.55369e-08
3.98205e-08
1.64538e-08
6.72235e-09
2.6916e-09
1.02849e-09
3.43437e-10
6.0214e-11
4.66685e-07
2.03965e-06
4.68593e-06
9.12324e-06
1.65275e-05
2.88026e-05
4.89883e-05
8.186e-05
0.00013478
0.000218852
0.000350401
0.000552694
0.000857706
0.00130743
0.00195403
0.002858
0.00408367
0.00569222
0.00773374
0.0102403
0.0132221
0.0166677
0.0205473
0.0248168
0.0294232
0.0343083
0.0394119
0.0446746
0.0500389
0.0554511
0.0608622
0.066228
0.07151
0.0766756
0.0816973
0.0865532
0.0912254
0.0956999
0.0999669
0.104021
0.107859
0.111481
0.114889
0.118085
0.121075
0.123862
0.126453
0.128852
0.131063
0.13309
0.134934
0.136594
0.138066
0.13934
0.140402
0.141229
0.141786
0.142022
0.141886
0.141276
0.140057
0.138077
0.126975
0.11573
0.104535
0.0935414
0.0828652
0.0726004
0.0628233
0.0535968
0.0449753
0.0370076
0.0297708
0.0232649
0.0175576
0.0127025
0.00874822
0.00569248
0.00348177
0.00200289
0.00108937
0.000564579
0.00028092
0.000135515
6.38813e-05
2.95124e-05
1.33914e-05
5.97887e-06
2.63066e-06
1.14236e-06
4.90266e-07
2.08219e-07
8.76113e-08
3.65488e-08
1.51135e-08
6.17852e-09
2.47492e-09
9.45894e-10
3.1584e-10
5.53705e-11
4.64373e-07
2.02952e-06
4.66246e-06
9.07698e-06
1.64424e-05
2.86514e-05
4.87258e-05
8.14119e-05
0.000134027
0.000217605
0.000348371
0.000549454
0.000852645
0.00129972
0.00194262
0.00284165
0.00406101
0.00566195
0.00769479
0.010192
0.0131642
0.0166007
0.0204719
0.0247344
0.0293355
0.034217
0.0393192
0.0445824
0.0499494
0.0553663
0.060784
0.066158
0.0714498
0.0766263
0.0816601
0.0865287
0.0912132
0.0956999
0.0999795
0.104046
0.107895
0.111528
0.114945
0.11815
0.121147
0.12394
0.126534
0.128936
0.131148
0.133173
0.135013
0.136666
0.138128
0.139389
0.140432
0.141235
0.141758
0.141954
0.141764
0.141081
0.139766
0.136848
0.125632
0.114316
0.103085
0.0920834
0.0814262
0.0712032
0.0614878
0.0523421
0.0438212
0.0359785
0.0288817
0.0225076
0.0169234
0.0121715
0.00831223
0.00536155
0.00325598
0.00186126
0.00100731
0.000520175
0.000258197
0.000124414
5.86169e-05
2.70768e-05
1.22883e-05
5.48847e-06
2.41619e-06
1.0499e-06
4.50904e-07
1.91643e-07
8.06951e-08
3.36866e-08
1.39383e-08
5.70088e-09
2.28434e-09
8.7317e-10
2.9153e-10
5.10995e-11
4.62198e-07
2.01999e-06
4.64044e-06
9.03373e-06
1.63631e-05
2.85112e-05
4.84837e-05
8.1001e-05
0.00013334
0.000216477
0.000346549
0.00054657
0.000848181
0.00129298
0.00193275
0.00282762
0.00404177
0.00563651
0.00766238
0.0101522
0.0131171
0.0165466
0.0204118
0.0246695
0.0292671
0.0341468
0.0392489
0.0445138
0.0498842
0.0553061
0.0607302
0.0661121
0.0714128
0.0765993
0.0816436
0.0865224
0.0912175
0.0957151
0.100005
0.104081
0.10794
0.111582
0.115006
0.118217
0.121219
0.124016
0.126613
0.129016
0.131227
0.13325
0.135087
0.136734
0.138188
0.139439
0.140471
0.14126
0.141768
0.141951
0.141752
0.141071
0.139785
0.135514
0.124281
0.112959
0.101735
0.0907548
0.0801329
0.069959
0.060306
0.0512351
0.0428029
0.0350579
0.0280065
0.0217259
0.0162669
0.0116732
0.00794461
0.00508359
0.0030627
0.00174038
0.00093749
0.000482463
0.00023891
0.000114992
5.41442e-05
2.50046e-05
1.13482e-05
5.06972e-06
2.2327e-06
9.70643e-07
4.17103e-07
1.77384e-07
7.47368e-08
3.12174e-08
1.29233e-08
5.28791e-09
2.11943e-09
8.10207e-10
2.70483e-10
4.73981e-11
4.60233e-07
2.01139e-06
4.6206e-06
8.99484e-06
1.6292e-05
2.8386e-05
4.82682e-05
8.0637e-05
0.000132735
0.000215489
0.000344962
0.000544074
0.000844344
0.00128724
0.00192438
0.00281583
0.00402571
0.00561546
0.00763578
0.0101198
0.0130791
0.0165035
0.0203644
0.0246188
0.0292145
0.0340937
0.0391967
0.0444639
0.049838
0.055265
0.0606953
0.0660843
0.0713933
0.0765882
0.081641
0.086529
0.0912334
0.09574
0.100039
0.104123
0.107989
0.111637
0.115068
0.118283
0.121289
0.124088
0.126687
0.129089
0.131299
0.13332
0.135152
0.136795
0.138242
0.139485
0.140507
0.141287
0.141785
0.141959
0.141752
0.141069
0.139786
0.134255
0.123024
0.111713
0.100512
0.0895667
0.078991
0.068874
0.0592854
0.0502839
0.0419183
0.0342171
0.0272455
0.0210517
0.015684
0.0111815
0.00756878
0.0048365
0.0028945
0.00163609
0.000877912
0.000450516
0.000222642
0.000107058
5.03805e-05
2.32605e-05
1.05563e-05
4.7166e-06
2.07775e-06
9.03616e-07
3.88471e-07
1.65287e-07
6.96744e-08
2.91167e-08
1.20588e-08
4.93586e-09
1.97877e-09
7.5649e-10
2.52536e-10
4.42444e-11
4.58507e-07
2.00384e-06
4.60321e-06
8.96081e-06
1.62299e-05
2.8277e-05
4.80812e-05
8.03221e-05
0.000132214
0.000214641
0.000343608
0.000541955
0.000841103
0.00128241
0.0019174
0.00280605
0.0040125
0.00559825
0.00761422
0.0100938
0.0130488
0.0164695
0.0203274
0.0245798
0.0291746
0.0340541
0.0391586
0.0444285
0.0498064
0.0552382
0.0606742
0.0660699
0.0713857
0.0765878
0.0816483
0.0865441
0.0912562
0.0957703
0.100076
0.104167
0.108039
0.111692
0.115126
0.118345
0.121353
0.124154
0.126752
0.129154
0.131362
0.13338
0.135208
0.136844
0.138285
0.13952
0.140534
0.141304
0.141793
0.141958
0.141744
0.141055
0.13977
0.133142
0.121912
0.110617
0.0994449
0.0885428
0.0780185
0.0679488
0.0584059
0.0494475
0.0411216
0.0334893
0.0265921
0.0204791
0.015197
0.0107831
0.00725969
0.00461042
0.00275741
0.00154901
0.000828049
0.000423887
0.00020911
0.000100462
4.72513e-05
2.18095e-05
9.89688e-06
4.42221e-06
1.94839e-06
8.47579e-07
3.64497e-07
1.55142e-07
6.54225e-08
2.73499e-08
1.13309e-08
4.6392e-09
1.8602e-09
7.11241e-10
2.37436e-10
4.15973e-11
4.57028e-07
1.99737e-06
4.58833e-06
8.93173e-06
1.61769e-05
2.81841e-05
4.79224e-05
8.00556e-05
0.000131774
0.000213928
0.000342473
0.000540187
0.000838413
0.00127842
0.00191166
0.00279807
0.00400178
0.00558439
0.00759697
0.0100731
0.013025
0.016443
0.020299
0.0245503
0.0291449
0.0340252
0.0391314
0.0444041
0.0497856
0.0552219
0.0606631
0.0660644
0.0713861
0.0765946
0.0816616
0.0865638
0.0912823
0.0958023
0.100113
0.104209
0.108086
0.111742
0.11518
0.118401
0.12141
0.124211
0.126809
0.129209
0.131414
0.133428
0.135251
0.136882
0.138316
0.139543
0.140548
0.14131
0.141788
0.141944
0.141722
0.141027
0.139743
0.132189
0.120954
0.109669
0.0985217
0.0876397
0.0771319
0.0670933
0.0575926
0.0486872
0.040428
0.0328628
0.0260345
0.019994
0.0147873
0.0104509
0.00700409
0.00442598
0.00263302
0.00148007
0.000787687
0.000402016
0.000197986
9.50432e-05
4.46797e-05
2.06161e-05
9.35379e-06
4.17937e-06
1.84151e-06
8.01192e-07
3.44618e-07
1.46717e-07
6.18863e-08
2.58786e-08
1.0724e-08
4.39167e-09
1.76121e-09
6.73445e-10
2.24825e-10
3.93871e-11
4.55788e-07
1.99195e-06
4.57586e-06
8.90739e-06
1.61327e-05
2.81067e-05
4.77902e-05
7.98342e-05
0.00013141
0.000213339
0.00034154
0.000538738
0.000836218
0.00127518
0.00190702
0.00279164
0.0039932
0.00557336
0.00758335
0.010057
0.0130065
0.0164227
0.0202774
0.0245282
0.029123
0.0340044
0.0391125
0.0443878
0.0497727
0.055213
0.0606586
0.0660645
0.0713914
0.0766053
0.0816776
0.0865851
0.0913085
0.0958332
0.100149
0.104248
0.108128
0.111787
0.115226
0.118448
0.121457
0.124258
0.126855
0.129252
0.131454
0.133464
0.135282
0.136907
0.138334
0.139553
0.140551
0.141303
0.141772
0.141919
0.141689
0.140989
0.139706
0.131383
0.120137
0.108857
0.0977138
0.0868512
0.0763761
0.0663744
0.0569152
0.0480563
0.0398484
0.0323381
0.0255676
0.0195883
0.0144457
0.010175
0.00679331
0.00427543
0.00253313
0.0014181
0.000755636
0.000384719
0.000189005
9.06427e-05
4.25881e-05
1.96433e-05
8.91018e-06
3.98062e-06
1.75387e-06
7.63098e-07
3.2827e-07
1.3978e-07
5.89716e-08
2.46647e-08
1.02229e-08
4.18712e-09
1.67936e-09
6.42185e-10
2.14395e-10
3.75593e-11
4.54771e-07
1.98751e-06
4.56564e-06
8.88746e-06
1.60965e-05
2.80434e-05
4.76824e-05
7.96542e-05
0.000131115
0.000212863
0.000340787
0.000537573
0.000834457
0.00127259
0.00190333
0.00278656
0.00398645
0.00556473
0.00757275
0.0100445
0.0129924
0.0164073
0.0202613
0.0245119
0.0291072
0.0339897
0.0390997
0.0443774
0.0497652
0.0552088
0.0606581
0.0660681
0.0713992
0.0766174
0.081694
0.0866055
0.0913328
0.095861
0.10018
0.104282
0.108164
0.111824
0.115264
0.118487
0.121496
0.124295
0.12689
0.129284
0.131483
0.133488
0.135301
0.13692
0.13834
0.139553
0.140542
0.141286
0.141747
0.141888
0.141652
0.140947
0.139666
0.130712
0.11945
0.108169
0.0970391
0.0861972
0.0757491
0.065779
0.0563554
0.0475356
0.0393701
0.031905
0.0251822
0.0192538
0.0141644
0.00994825
0.00662043
0.00415235
0.00245187
0.00136822
0.00072677
0.000370458
0.000181873
8.71108e-05
4.08905e-05
1.88521e-05
8.54933e-06
3.8189e-06
1.68254e-06
7.32081e-07
3.14953e-07
1.34126e-07
5.6595e-08
2.36746e-08
9.81404e-09
4.02016e-09
1.61256e-09
6.16677e-10
2.05885e-10
3.60681e-11
4.53958e-07
1.98396e-06
4.55749e-06
8.87157e-06
1.60677e-05
2.79931e-05
4.75968e-05
7.95113e-05
0.000130881
0.000212486
0.000340193
0.000536657
0.000833078
0.00127057
0.00190046
0.00278262
0.00398123
0.0055581
0.00756467
0.010035
0.0129818
0.0163959
0.0202494
0.0245001
0.029096
0.0339796
0.0390912
0.0443709
0.0497612
0.0552075
0.0606599
0.0660731
0.0714075
0.0766289
0.0817087
0.0866233
0.0913534
0.0958841
0.100205
0.104309
0.108192
0.111853
0.115294
0.118516
0.121523
0.124321
0.126914
0.129305
0.1315
0.133501
0.135308
0.136922
0.138335
0.139541
0.140524
0.141262
0.141719
0.141858
0.141627
0.140938
0.139695
0.130165
0.118893
0.10761
0.0964899
0.0856649
0.0752391
0.0652953
0.0559013
0.0471139
0.0389831
0.0315548
0.0248709
0.0189837
0.0139375
0.00976578
0.00648174
0.00405404
0.00238736
0.00132896
0.00070435
0.000358217
0.000176005
8.4358e-05
3.95712e-05
1.82285e-05
8.26243e-06
3.6899e-06
1.62557e-06
7.07293e-07
3.04306e-07
1.29604e-07
5.46939e-08
2.28825e-08
9.48702e-09
3.88669e-09
1.55919e-09
5.96322e-10
1.99096e-10
3.48787e-11
4.53333e-07
1.98123e-06
4.55121e-06
8.85934e-06
1.60455e-05
2.79544e-05
4.75311e-05
7.94019e-05
0.000130702
0.000212199
0.000339741
0.00053596
0.000832032
0.00126905
0.0018983
0.00277966
0.00397733
0.00555317
0.00755868
0.010028
0.012974
0.0163876
0.0202409
0.0244917
0.0290882
0.0339728
0.0390856
0.044367
0.0497592
0.0552077
0.0606624
0.066078
0.0714149
0.0766387
0.0817207
0.0866373
0.0913693
0.0959016
0.100224
0.104329
0.108212
0.111874
0.115314
0.118535
0.121541
0.124337
0.126927
0.129315
0.131506
0.133503
0.135305
0.136912
0.13832
0.139519
0.140495
0.141227
0.141677
0.141813
0.141579
0.140892
0.139656
0.129744
0.118452
0.107167
0.0960546
0.0852434
0.0748359
0.0649138
0.0555438
0.0467825
0.0386795
0.0312805
0.0246274
0.0187728
0.0137607
0.00962386
0.00637416
0.003978
0.0023376
0.00129878
0.000687205
0.000348933
0.000171104
8.19588e-05
3.84869e-05
1.77368e-05
8.03889e-06
3.58947e-06
1.58119e-06
6.87994e-07
2.96028e-07
1.26096e-07
5.32212e-08
2.22702e-08
9.23483e-09
3.78402e-09
1.51821e-09
5.80693e-10
1.93884e-10
3.39657e-11
4.52878e-07
1.97924e-06
4.54664e-06
8.85045e-06
1.60294e-05
2.79264e-05
4.74835e-05
7.93226e-05
0.000130572
0.000211991
0.000339414
0.000535458
0.000831279
0.00126795
0.00189675
0.00277754
0.00397456
0.00554966
0.00755445
0.0100232
0.0129686
0.0163818
0.020235
0.0244861
0.029083
0.0339683
0.0390822
0.0443648
0.0497584
0.0552084
0.0606647
0.0660821
0.0714205
0.0766459
0.0817292
0.0866471
0.0913801
0.0959133
0.100236
0.104341
0.108225
0.111886
0.115326
0.118546
0.12155
0.124344
0.126931
0.129316
0.131503
0.133495
0.135293
0.136894
0.138296
0.139488
0.140458
0.141183
0.141628
0.14176
0.141527
0.140844
0.139623
0.129434
0.118124
0.106834
0.0957261
0.0849256
0.0745326
0.0646275
0.0552765
0.0465354
0.0384537
0.0310771
0.0244472
0.0186171
0.0136305
0.00951963
0.00629541
0.00392252
0.0023014
0.00127686
0.000674788
0.000342279
0.000167693
8.02749e-05
3.76687e-05
1.73658e-05
7.87453e-06
3.51698e-06
1.54942e-06
6.74235e-07
2.90134e-07
1.23597e-07
5.21725e-08
2.18337e-08
9.05471e-09
3.71052e-09
1.48881e-09
5.69471e-10
1.90139e-10
3.33095e-11
4.52582e-07
1.97795e-06
4.54368e-06
8.84468e-06
1.60189e-05
2.79082e-05
4.74525e-05
7.92712e-05
0.000130488
0.000211857
0.000339203
0.000535135
0.000830794
0.00126724
0.00189575
0.00277619
0.00397278
0.00554743
0.00755176
0.01002
0.0129651
0.0163782
0.0202314
0.0244826
0.0290798
0.0339657
0.0390802
0.0443636
0.0497581
0.0552091
0.0606664
0.0660848
0.0714242
0.0766503
0.0817344
0.0866527
0.091386
0.0959194
0.100242
0.104347
0.108231
0.111892
0.11533
0.118549
0.121552
0.124344
0.126929
0.129311
0.131495
0.133482
0.135275
0.136872
0.138268
0.139455
0.140418
0.141138
0.141579
0.141709
0.141476
0.140801
0.139597
0.129229
0.1179
0.106605
0.0955001
0.0847074
0.0743254
0.0644331
0.0550958
0.0463692
0.0383027
0.0309416
0.0243277
0.0185142
0.0135447
0.00945127
0.00624402
0.00388651
0.00227802
0.00126273
0.000666776
0.000337988
0.000165513
7.92144e-05
3.71612e-05
1.71243e-05
7.76393e-06
3.46843e-06
1.52847e-06
6.65242e-07
2.86308e-07
1.21984e-07
5.14977e-08
2.15536e-08
8.93933e-09
3.66348e-09
1.47e-09
5.62285e-10
1.87741e-10
3.28891e-11
4.52439e-07
1.97732e-06
4.54225e-06
8.8419e-06
1.60139e-05
2.78994e-05
4.74378e-05
7.92467e-05
0.000130448
0.000211793
0.000339103
0.000534981
0.000830565
0.00126691
0.00189528
0.00277555
0.00397194
0.00554638
0.0075505
0.0100186
0.0129635
0.0163765
0.0202297
0.0244809
0.0290784
0.0339644
0.0390793
0.0443631
0.049758
0.0552095
0.0606673
0.0660861
0.0714259
0.0766524
0.0817367
0.0866551
0.0913882
0.0959215
0.100244
0.104349
0.108232
0.111892
0.11533
0.118549
0.121551
0.124341
0.126924
0.129304
0.131486
0.133471
0.135261
0.136854
0.138246
0.139429
0.140388
0.141104
0.141542
0.14167
0.141439
0.14077
0.139584
0.129128
0.117783
0.106483
0.0953798
0.0845922
0.0742171
0.0643326
0.0550035
0.0462852
0.038227
0.0308743
0.0242689
0.0184641
0.0135032
0.0094185
0.00621958
0.00386954
0.0022671
0.00125617
0.00066307
0.000335996
0.000164523
7.87336e-05
3.69323e-05
1.70169e-05
7.71439e-06
3.44574e-06
1.51837e-06
6.60864e-07
2.84442e-07
1.21197e-07
5.11692e-08
2.14174e-08
8.8833e-09
3.64065e-09
1.46087e-09
5.58799e-10
1.86577e-10
3.2685e-11
4.52442e-07
1.97733e-06
4.54227e-06
8.84194e-06
1.6014e-05
2.78996e-05
4.7438e-05
7.92471e-05
0.000130449
0.000211794
0.000339105
0.000534984
0.000830569
0.00126692
0.00189529
0.00277556
0.00397196
0.0055464
0.00755052
0.0100186
0.0129636
0.0163765
0.0202297
0.024481
0.0290784
0.0339645
0.0390793
0.0443631
0.0497581
0.0552096
0.0606674
0.0660861
0.071426
0.0766525
0.0817367
0.0866551
0.0913883
0.0959216
0.100244
0.104349
0.108232
0.111892
0.11533
0.118549
0.121551
0.124341
0.126924
0.129304
0.131486
0.133471
0.135261
0.136854
0.138246
0.139429
0.140388
0.141104
0.141542
0.14167
0.141439
0.14077
0.139584
0.129128
0.117783
0.106483
0.0953797
0.0845921
0.074217
0.0643325
0.0550034
0.0462851
0.0382269
0.0308743
0.0242689
0.018464
0.0135032
0.00941849
0.00621957
0.00386953
0.00226709
0.00125617
0.000663069
0.000335996
0.000164523
7.87335e-05
3.69323e-05
1.70169e-05
7.71438e-06
3.44573e-06
1.51837e-06
6.60863e-07
2.84441e-07
1.21197e-07
5.11691e-08
2.14174e-08
8.88329e-09
3.64065e-09
1.46087e-09
5.58798e-10
1.86576e-10
3.26849e-11
4.52589e-07
1.97798e-06
4.54375e-06
8.84481e-06
1.60192e-05
2.79086e-05
4.74533e-05
7.92724e-05
0.00013049
0.00021186
0.000339208
0.000535142
0.000830806
0.00126726
0.00189578
0.00277622
0.00397283
0.00554749
0.00755184
0.0100201
0.0129653
0.0163783
0.0202315
0.0244827
0.02908
0.0339659
0.0390804
0.0443638
0.0497583
0.0552093
0.0606666
0.066085
0.0714244
0.0766505
0.0817345
0.0866528
0.0913862
0.0959196
0.100242
0.104348
0.108231
0.111892
0.11533
0.118549
0.121552
0.124344
0.126929
0.129311
0.131495
0.133483
0.135275
0.136872
0.138268
0.139455
0.140418
0.141138
0.141579
0.141709
0.141476
0.140801
0.139597
0.129229
0.1179
0.106605
0.0954998
0.0847072
0.0743251
0.0644329
0.0550957
0.0463691
0.0383025
0.0309414
0.0243276
0.0185141
0.0135446
0.00945123
0.00624399
0.00388649
0.00227801
0.00126272
0.000666773
0.000337986
0.000165512
7.92139e-05
3.7161e-05
1.71241e-05
7.76387e-06
3.46841e-06
1.52846e-06
6.65237e-07
2.86306e-07
1.21983e-07
5.14973e-08
2.15535e-08
8.93927e-09
3.66345e-09
1.46999e-09
5.62281e-10
1.87739e-10
3.28888e-11
4.52889e-07
1.97929e-06
4.54676e-06
8.85068e-06
1.60298e-05
2.79271e-05
4.74847e-05
7.93246e-05
0.000130575
0.000211996
0.000339423
0.000535472
0.000831299
0.00126798
0.00189679
0.0027776
0.00397464
0.00554977
0.00755459
0.0100233
0.0129688
0.016382
0.0202353
0.0244863
0.0290833
0.0339687
0.0390825
0.0443652
0.0497587
0.0552088
0.0606651
0.0660824
0.0714209
0.0766462
0.0817296
0.0866474
0.0913804
0.0959135
0.100236
0.104341
0.108225
0.111886
0.115326
0.118546
0.121551
0.124344
0.126931
0.129316
0.131504
0.133495
0.135293
0.136894
0.138296
0.139488
0.140458
0.141183
0.141628
0.14176
0.141527
0.140844
0.139622
0.129433
0.118123
0.106834
0.0957256
0.0849251
0.0745322
0.0646272
0.0552762
0.0465351
0.0384535
0.0310769
0.024447
0.018617
0.0136304
0.00951956
0.00629536
0.00392249
0.00230138
0.00127685
0.000674781
0.000342275
0.000167691
8.02739e-05
3.76683e-05
1.73655e-05
7.87443e-06
3.51694e-06
1.54941e-06
6.74227e-07
2.90131e-07
1.23596e-07
5.21718e-08
2.18334e-08
9.05458e-09
3.71047e-09
1.48879e-09
5.69462e-10
1.90137e-10
3.3309e-11
4.53349e-07
1.9813e-06
4.55137e-06
8.85965e-06
1.6046e-05
2.79554e-05
4.75328e-05
7.94046e-05
0.000130706
0.000212206
0.000339752
0.000535978
0.000832059
0.00126909
0.00189836
0.00277974
0.00397745
0.00555331
0.00755887
0.0100283
0.0129743
0.0163879
0.0202412
0.0244921
0.0290886
0.0339732
0.0390861
0.0443675
0.0497597
0.0552082
0.0606629
0.0660785
0.0714154
0.0766391
0.0817211
0.0866378
0.0913697
0.095902
0.100224
0.104329
0.108213
0.111874
0.115314
0.118535
0.121542
0.124337
0.126927
0.129315
0.131506
0.133503
0.135305
0.136912
0.13832
0.139519
0.140495
0.141227
0.141677
0.141813
0.141579
0.140892
0.139656
0.129743
0.118452
0.107167
0.0960539
0.0852428
0.0748354
0.0649133
0.0555434
0.0467821
0.0386791
0.0312802
0.0246272
0.0187727
0.0137606
0.00962376
0.00637409
0.00397795
0.00233757
0.00129876
0.000687194
0.000348927
0.000171101
8.19572e-05
3.84862e-05
1.77365e-05
8.03873e-06
3.58939e-06
1.58116e-06
6.87979e-07
2.96021e-07
1.26093e-07
5.32199e-08
2.22696e-08
9.2346e-09
3.78392e-09
1.51817e-09
5.80678e-10
1.93879e-10
3.39648e-11
4.53979e-07
1.98405e-06
4.55769e-06
8.87196e-06
1.60684e-05
2.79943e-05
4.75989e-05
7.95148e-05
0.000130886
0.000212495
0.000340208
0.00053668
0.000833113
0.00127063
0.00190054
0.00278273
0.00398138
0.00555829
0.00756491
0.0100353
0.0129821
0.0163963
0.0202498
0.0245006
0.0290965
0.0339802
0.0390918
0.0443715
0.0497618
0.0552082
0.0606605
0.0660737
0.0714081
0.0766295
0.0817093
0.0866239
0.0913539
0.0958846
0.100205
0.104309
0.108192
0.111854
0.115294
0.118516
0.121524
0.124321
0.126914
0.129305
0.1315
0.133501
0.135309
0.136922
0.138336
0.139541
0.140524
0.141262
0.141719
0.141858
0.141627
0.140938
0.139695
0.130164
0.118892
0.107609
0.096489
0.0856641
0.0752383
0.0652947
0.0559007
0.0471133
0.0389826
0.0315544
0.0248706
0.0189835
0.0139373
0.00976564
0.00648164
0.00405397
0.00238732
0.00132893
0.000704335
0.000358208
0.000176001
8.43559e-05
3.95702e-05
1.82281e-05
8.26219e-06
3.68979e-06
1.62552e-06
7.0727e-07
3.04295e-07
1.296e-07
5.46919e-08
2.28817e-08
9.48666e-09
3.88654e-09
1.55914e-09
5.963e-10
1.99089e-10
3.48774e-11
4.54796e-07
1.98762e-06
4.56589e-06
8.88794e-06
1.60974e-05
2.80449e-05
4.7685e-05
7.96584e-05
0.000131121
0.000212874
0.000340805
0.0005376
0.000834499
0.00127266
0.00190342
0.00278669
0.00398662
0.00556495
0.00757304
0.0100448
0.0129928
0.0164078
0.0202618
0.0245125
0.0291079
0.0339904
0.0391004
0.0443781
0.049766
0.0552096
0.0606589
0.0660689
0.0714
0.0766181
0.0816947
0.0866062
0.0913334
0.0958616
0.10018
0.104282
0.108164
0.111825
0.115265
0.118487
0.121496
0.124295
0.12689
0.129285
0.131483
0.133489
0.135301
0.13692
0.13834
0.139553
0.140542
0.141287
0.141747
0.141888
0.141652
0.140947
0.139666
0.130711
0.119449
0.108167
0.0970379
0.0861962
0.0757482
0.0657781
0.0563546
0.047535
0.0393696
0.0319045
0.0251818
0.0192535
0.0141641
0.00994807
0.0066203
0.00415227
0.00245182
0.00136818
0.000726745
0.000370444
0.000181866
8.71072e-05
4.08886e-05
1.88512e-05
8.54895e-06
3.81873e-06
1.68246e-06
7.32049e-07
3.14939e-07
1.3412e-07
5.65923e-08
2.36734e-08
9.81356e-09
4.01996e-09
1.61248e-09
6.16646e-10
2.05875e-10
3.60663e-11
4.55817e-07
1.99208e-06
4.57615e-06
8.90795e-06
1.61337e-05
2.81084e-05
4.77932e-05
7.98392e-05
0.000131418
0.000213352
0.000341561
0.00053877
0.000836267
0.00127525
0.00190713
0.00279179
0.0039934
0.00557363
0.00758369
0.0100574
0.013007
0.0164233
0.0202781
0.0245289
0.0291238
0.0340052
0.0391134
0.0443887
0.0497736
0.0552139
0.0606595
0.0660654
0.0713923
0.0766061
0.0816785
0.0865859
0.0913093
0.0958339
0.100149
0.104249
0.108128
0.111787
0.115227
0.118449
0.121458
0.124258
0.126855
0.129252
0.131455
0.133464
0.135282
0.136907
0.138334
0.139554
0.140551
0.141303
0.141772
0.141919
0.141689
0.140989
0.139706
0.131381
0.120135
0.108855
0.0977124
0.0868499
0.076375
0.0663733
0.0569142
0.0480554
0.0398477
0.0323374
0.025567
0.0195879
0.0144454
0.0101748
0.00679311
0.00427529
0.00253304
0.00141805
0.000755611
0.000384708
0.000188999
9.06395e-05
4.25864e-05
1.96425e-05
8.90978e-06
3.98043e-06
1.75378e-06
7.63058e-07
3.28252e-07
1.39772e-07
5.89682e-08
2.46633e-08
1.02223e-08
4.18686e-09
1.67926e-09
6.42145e-10
2.14382e-10
3.75569e-11
4.57061e-07
1.99752e-06
4.58866e-06
8.93237e-06
1.61781e-05
2.81861e-05
4.79258e-05
8.00612e-05
0.000131784
0.000213943
0.000342497
0.000540224
0.00083847
0.00127851
0.00191178
0.00279824
0.00400201
0.00558469
0.00759736
0.0100736
0.0130256
0.0164437
0.0202997
0.0245511
0.0291458
0.0340261
0.0391324
0.0444051
0.0497867
0.0552229
0.0606642
0.0660654
0.0713871
0.0765956
0.0816626
0.0865648
0.0912832
0.0958031
0.100114
0.10421
0.108086
0.111743
0.11518
0.118401
0.12141
0.124211
0.126809
0.129209
0.131414
0.133428
0.135251
0.136882
0.138316
0.139543
0.140549
0.14131
0.141788
0.141944
0.141722
0.141027
0.139743
0.132187
0.120952
0.109667
0.0985201
0.0876382
0.0771304
0.0670921
0.0575914
0.0486861
0.0404271
0.032862
0.0260338
0.0199934
0.0147868
0.0104505
0.00700381
0.00442578
0.00263289
0.00148001
0.000787663
0.000402006
0.000197981
9.50403e-05
4.46781e-05
2.06152e-05
9.35333e-06
4.17915e-06
1.8414e-06
8.01143e-07
3.44596e-07
1.46707e-07
6.18822e-08
2.58769e-08
1.07233e-08
4.39136e-09
1.76108e-09
6.73396e-10
2.24808e-10
3.93844e-11
4.58545e-07
2.004e-06
4.60359e-06
8.96154e-06
1.62312e-05
2.82792e-05
4.80851e-05
8.03286e-05
0.000132225
0.000214658
0.000343635
0.000541996
0.000841167
0.0012825
0.00191753
0.00280625
0.00401277