/*--------------------------------*- C++ -*----------------------------------*\
  =========                 |
  \\      /  F ield         | OpenFOAM: The Open Source CFD Toolbox
   \\    /   O peration     | Website:  https://openfoam.org
    \\  /    A nd           | Version:  8
     \\/     M anipulation  |
\*---------------------------------------------------------------------------*/
FoamFile
{
    version     2.0;
    format      ascii;
    class       volScalarField;
    location    "600/fluid";
    object      H2O;
}
// * * * * * * * * * * * * * * * * * * * * * * * * * * * * * * * * * * * * * //

dimensions      [0 0 0 0 0 0 0];

internalField   nonuniform List<scalar> 
4000
(
3.83349e-07
1.675e-06
3.84635e-06
7.48472e-06
1.35548e-05
2.36256e-05
4.02185e-05
6.73281e-05
0.000111175
0.000181251
0.00029168
0.00046285
0.000723089
0.00110993
0.00167017
0.00245793
0.00353
0.00493891
0.00672519
0.00891125
0.0114988
0.0144702
0.0177922
0.0214209
0.0253061
0.0293955
0.0336369
0.0379803
0.0423787
0.0467896
0.051175
0.0555016
0.0597412
0.0638703
0.0678703
0.0717262
0.0754264
0.0789629
0.0823307
0.0855272
0.088552
0.0914064
0.0940931
0.0966158
0.0989787
0.101186
0.103244
0.105155
0.106925
0.108556
0.11005
0.111406
0.112623
0.113696
0.114615
0.115366
0.115929
0.116269
0.116353
0.116127
0.115511
0.114402
0.112602
0.10396
0.0951684
0.0863773
0.077702
0.0692333
0.0610433
0.0531905
0.0457245
0.0386887
0.0321239
0.0261
0.0205961
0.015698
0.0114583
0.00792913
0.00514905
0.00311418
0.00175101
0.00091991
0.00045584
0.00021659
9.99753e-05
4.51018e-05
1.9972e-05
8.70936e-06
3.74954e-06
1.5969e-06
6.73928e-07
2.82223e-07
1.17404e-07
4.85423e-08
1.99387e-08
8.11205e-09
3.23913e-09
1.23586e-09
4.12609e-10
7.23273e-11
3.84517e-07
1.68057e-06
3.86119e-06
7.51909e-06
1.36284e-05
2.3773e-05
4.04958e-05
6.78164e-05
0.000111973
0.000182434
0.000293221
0.000464453
0.000723928
0.00110834
0.00166334
0.00244163
0.0034987
0.00488641
0.00664555
0.00879997
0.0113536
0.0142914
0.0175825
0.0211849
0.02505
0.0291258
0.0333603
0.0377029
0.0421061
0.0465266
0.0509253
0.0552681
0.059526
0.0636749
0.0676952
0.0715715
0.075292
0.078848
0.0822344
0.0854483
0.0884893
0.0913585
0.0940586
0.0965932
0.0989668
0.101184
0.10325
0.105168
0.106944
0.108579
0.110077
0.111436
0.112656
0.11373
0.11465
0.115402
0.115965
0.116304
0.116387
0.116159
0.115541
0.114425
0.111917
0.103199
0.0943529
0.0855197
0.0768115
0.0683172
0.0601082
0.0522434
0.0447729
0.0377417
0.031193
0.0252014
0.019747
0.0149222
0.0107812
0.00737475
0.00473282
0.0028339
0.00158419
0.000832284
0.000414846
0.000198785
9.26798e-05
4.22456e-05
1.88913e-05
8.30956e-06
3.60322e-06
1.54327e-06
6.54024e-07
2.74673e-07
1.14463e-07
4.73683e-08
1.94615e-08
7.91688e-09
3.16026e-09
1.20539e-09
4.02335e-10
7.05378e-11
3.86513e-07
1.68956e-06
3.88296e-06
7.56395e-06
1.37133e-05
2.39239e-05
4.0748e-05
6.82121e-05
0.000112556
0.000183245
0.00029424
0.000465513
0.000724551
0.00110742
0.00165883
0.00243045
0.00347674
0.00484864
0.00658663
0.0087149
0.0112385
0.0141442
0.017403
0.020975
0.0248133
0.0288673
0.0330858
0.0374186
0.0418183
0.0462409
0.0506469
0.0550017
0.0592752
0.0634425
0.0674833
0.0713817
0.0751249
0.0787039
0.0821129
0.0853487
0.0884105
0.0912994
0.0940176
0.0965693
0.0989581
0.101189
0.103266
0.105194
0.106978
0.108621
0.110124
0.111488
0.112711
0.113787
0.114708
0.11546
0.116021
0.116358
0.116438
0.116205
0.115578
0.114452
0.110657
0.101891
0.0930031
0.0841376
0.0754082
0.0669048
0.0586998
0.0508535
0.0434175
0.0364389
0.0299625
0.0240549
0.0187193
0.0140365
0.0100562
0.0068206
0.00434438
0.00258767
0.00144354
0.000759248
0.00037984
0.000182825
8.56671e-05
3.92524e-05
1.7643e-05
7.79813e-06
3.39636e-06
1.46027e-06
6.2084e-07
2.61401e-07
1.09138e-07
4.52227e-08
1.85941e-08
7.5667e-09
3.0207e-09
1.15205e-09
3.84453e-10
6.7393e-11
3.87207e-07
1.69256e-06
3.88975e-06
7.57679e-06
1.37352e-05
2.39573e-05
4.07913e-05
6.82502e-05
0.000112534
0.000183014
0.000293493
0.000463684
0.000720692
0.00110011
0.00164609
0.00240959
0.00344445
0.00480123
0.00652042
0.00862672
0.0111261
0.0140065
0.0172402
0.0207886
0.0246057
0.0286421
0.032847
0.0371707
0.0415661
0.0459891
0.0504001
0.0547638
0.0590499
0.0632327
0.0672916
0.0712096
0.0749737
0.0785742
0.0820047
0.0852619
0.0883443
0.0912529
0.0939902
0.0965588
0.0989627
0.101207
0.103296
0.105235
0.107028
0.108678
0.110186
0.111554
0.112779
0.113856
0.114776
0.115525
0.116081
0.11641
0.11648
0.116233
0.115587
0.114434
0.10906
0.100281
0.0913787
0.082504
0.0737757
0.0652867
0.0571117
0.0493125
0.0419422
0.0350488
0.0286784
0.0228738
0.0176828
0.0131581
0.00934556
0.00627982
0.00396347
0.00234238
0.00129963
0.0006818
0.000341119
0.000164506
7.73108e-05
3.55481e-05
1.60386e-05
7.11662e-06
3.11148e-06
1.34273e-06
5.72823e-07
2.41929e-07
1.01281e-07
4.2063e-08
1.73276e-08
7.06195e-09
2.82244e-09
1.0773e-09
3.59652e-10
6.30583e-11
3.86914e-07
1.69123e-06
3.88646e-06
7.56958e-06
1.37197e-05
2.3924e-05
4.07197e-05
6.80978e-05
0.000112219
0.000182386
0.000292286
0.000461439
0.000716666
0.00109316
0.00163456
0.00239129
0.00341664
0.00476091
0.00646459
0.00855279
0.0110323
0.0138918
0.017105
0.020634
0.0244339
0.0284559
0.0326498
0.0369664
0.0413584
0.045782
0.0501972
0.0545687
0.0588655
0.0630619
0.0671363
0.0710715
0.074854
0.0784736
0.0819235
0.0851999
0.0883015
0.0912285
0.093982
0.0965657
0.0989837
0.10124
0.103341
0.105289
0.107089
0.108745
0.110257
0.111627
0.112851
0.113926
0.114841
0.115582
0.116128
0.116442
0.116495
0.116225
0.11555
0.114362
0.10736
0.0985949
0.0896943
0.0808236
0.0721087
0.0636472
0.0555158
0.0477774
0.0404853
0.0336873
0.0274401
0.0217613
0.0167141
0.0123457
0.00869663
0.00579338
0.00362639
0.00212867
0.00117576
0.000615576
0.000308018
0.000148763
7.00644e-05
3.22961e-05
1.46086e-05
6.49821e-06
2.84773e-06
1.23153e-06
5.26389e-07
2.22691e-07
9.33624e-08
3.88217e-08
1.60084e-08
6.52954e-09
2.61121e-09
9.97048e-10
3.32894e-10
5.83679e-11
3.85673e-07
1.68571e-06
3.87331e-06
7.54268e-06
1.36679e-05
2.38269e-05
4.05407e-05
6.77722e-05
0.000111635
0.000181353
0.000290493
0.000458393
0.000711622
0.00108505
0.00162192
0.00237228
0.00338914
0.00472264
0.00641343
0.00848702
0.0109508
0.0137942
0.0169917
0.0205061
0.0242933
0.0283048
0.032491
0.0368028
0.0411932
0.0456183
0.0500381
0.0544168
0.0587235
0.0629317
0.0670199
0.0709702
0.0747688
0.0784049
0.0818719
0.0851655
0.0882832
0.0912249
0.0939927
0.0965897
0.0990197
0.101287
0.103396
0.105352
0.107158
0.108816
0.11033
0.111699
0.11292
0.113988
0.114893
0.11562
0.116149
0.11644
0.116467
0.116166
0.115458
0.114249
0.105859
0.0970686
0.0881384
0.0792514
0.0705397
0.0621021
0.0540147
0.0463388
0.0391263
0.0324234
0.0262972
0.0207407
0.0158309
0.0116103
0.00811396
0.00535972
0.00332728
0.0019391
0.00106529
0.000555858
0.000277691
0.000134121
6.32215e-05
2.91819e-05
1.32225e-05
5.89278e-06
2.58751e-06
1.1212e-06
4.80136e-07
2.03482e-07
8.54453e-08
3.55796e-08
1.46891e-08
5.99723e-09
2.40007e-09
9.16846e-10
3.06157e-10
5.36811e-11
3.83969e-07
1.67819e-06
3.85573e-06
7.50755e-06
1.36022e-05
2.37079e-05
4.03296e-05
6.74032e-05
0.000110998
0.000180269
0.000288675
0.000455403
0.000706807
0.00107748
0.00161038
0.00235524
0.00336485
0.0046893
0.00636941
0.00843105
0.0108822
0.0137129
0.0168982
0.0204017
0.0241794
0.0281836
0.0323648
0.0366741
0.0410645
0.0454921
0.0499168
0.0543027
0.0586186
0.0628377
0.066938
0.0709016
0.0747142
0.0783652
0.081847
0.0851542
0.0882851
0.0912397
0.0940196
0.0966277
0.0990674
0.101343
0.103459
0.10542
0.107229
0.108889
0.110401
0.111766
0.11298
0.114037
0.114926
0.115631
0.116129
0.11638
0.116358
0.115993
0.11521
0.113932
0.105011
0.0959251
0.0868344
0.0778684
0.0691305
0.0607033
0.0526536
0.0450366
0.0378993
0.0312844
0.0252587
0.0198112
0.0150312
0.0109521
0.00759998
0.00498184
0.00306944
0.00177716
0.000971531
0.000505323
0.000252017
0.000121683
5.73767e-05
2.65029e-05
1.20201e-05
5.36281e-06
2.35759e-06
1.02281e-06
4.38529e-07
1.86063e-07
7.82152e-08
3.26007e-08
1.34706e-08
5.50353e-09
2.20359e-09
8.42014e-10
2.81169e-10
4.92967e-11
3.82071e-07
1.66985e-06
3.83633e-06
7.46911e-06
1.35309e-05
2.35804e-05
4.01063e-05
6.7018e-05
0.000110343
0.000179173
0.00028687
0.000452486
0.000702196
0.00107038
0.00159975
0.00233982
0.00334326
0.00466017
0.00633154
0.00838361
0.0108248
0.0136457
0.0168219
0.0203173
0.0240885
0.0280879
0.0322662
0.0365747
0.0409664
0.0453973
0.0498273
0.0542202
0.0585446
0.0627736
0.0668848
0.0708603
0.0746854
0.0783487
0.081842
0.085161
0.0883033
0.0912686
0.0940584
0.0966753
0.0991227
0.101405
0.103526
0.10549
0.1073
0.10896
0.110469
0.111828
0.113033
0.114076
0.114946
0.115623
0.116079
0.116272
0.116161
0.115661
0.114663
0.113042
0.103953
0.094747
0.0855823
0.0765815
0.067841
0.0594373
0.0514328
0.0438792
0.0368209
0.0302978
0.0243731
0.0190468
0.0143742
0.0103994
0.00716209
0.00466038
0.00285049
0.00163975
0.00089186
0.000462216
0.000229987
0.000110945
5.22991e-05
2.41615e-05
1.09635e-05
4.89485e-06
2.1537e-06
9.35237e-07
4.01376e-07
1.70467e-07
7.17266e-08
2.99222e-08
1.23733e-08
5.0583e-09
2.0262e-09
7.74395e-10
2.58576e-10
4.53313e-11
3.80178e-07
1.66155e-06
3.81711e-06
7.43124e-06
1.34612e-05
2.34567e-05
3.98914e-05
6.66512e-05
0.000109726
0.000178152
0.000285208
0.000449833
0.000698053
0.00106407
0.00159041
0.00232643
0.00332471
0.00463539
0.00629966
0.00834406
0.0107774
0.0135909
0.0167602
0.0202499
0.0240167
0.0280132
0.0321903
0.0364992
0.0408931
0.0453279
0.0497633
0.054163
0.0584953
0.0627332
0.0668544
0.0708402
0.0746755
0.0783487
0.0818523
0.0851812
0.088333
0.0913071
0.0941047
0.0967284
0.0991817
0.101468
0.103593
0.105558
0.107369
0.109028
0.110534
0.111888
0.113084
0.114116
0.114971
0.115628
0.116056
0.116217
0.116061
0.115502
0.114425
0.112036
0.102854
0.0935894
0.0843944
0.0753879
0.0666629
0.0582934
0.0503395
0.042852
0.0358761
0.0294553
0.0236452
0.0184268
0.0138551
0.00996469
0.00680515
0.00438946
0.00266564
0.0015238
0.00082468
0.000425863
0.000211384
0.000101857
4.79892e-05
2.21676e-05
1.00604e-05
4.49336e-06
1.97811e-06
8.5954e-07
3.69151e-07
1.56896e-07
6.60644e-08
2.75789e-08
1.14112e-08
4.66726e-09
1.87017e-09
7.14857e-10
2.38673e-10
4.18347e-11
3.78398e-07
1.65375e-06
3.79909e-06
7.39584e-06
1.33963e-05
2.33419e-05
3.96932e-05
6.63148e-05
0.000109164
0.000177228
0.000283717
0.000447472
0.000694398
0.00105855
0.00158232
0.00231495
0.00330896
0.00461456
0.00627312
0.00831148
0.0107388
0.0135466
0.016711
0.0201967
0.0239607
0.0279557
0.0321327
0.0364431
0.0408397
0.0452787
0.0497193
0.0541254
0.0584651
0.0627112
0.0668409
0.0708351
0.074679
0.0783611
0.0818733
0.0852105
0.0883698
0.0913508
0.0941546
0.0967836
0.099241
0.101531
0.103657
0.105624
0.107434
0.109091
0.110594
0.111943
0.113134
0.114158
0.115002
0.115649
0.116065
0.116214
0.116051
0.115494
0.114441
0.110944
0.101748
0.0924785
0.0832895
0.0743002
0.0656041
0.0572748
0.049372
0.0419457
0.0350424
0.0287016
0.0229287
0.0177868
0.0133175
0.00955674
0.00650418
0.00416189
0.00250741
0.00142483
0.000767515
0.000394989
0.000195593
9.41426e-05
4.43274e-05
2.04711e-05
9.29067e-06
4.15054e-06
1.82789e-06
7.94657e-07
3.41478e-07
1.45223e-07
6.11863e-08
2.55574e-08
1.05802e-08
4.32917e-09
1.73516e-09
6.6331e-10
2.21442e-10
3.88044e-11
3.76789e-07
1.6467e-06
3.78284e-06
7.36399e-06
1.33381e-05
2.32394e-05
3.95168e-05
6.60168e-05
0.000108669
0.000176419
0.000282418
0.000445429
0.000691257
0.00105385
0.00157547
0.00230529
0.00329582
0.00459732
0.00625135
0.00828498
0.0107077
0.0135113
0.0166721
0.0201552
0.0239176
0.0279122
0.03209
0.0364022
0.0408019
0.0452449
0.0496907
0.0541027
0.058449
0.0627021
0.0668388
0.0708405
0.074692
0.0783815
0.0819008
0.0852446
0.08841
0.0913964
0.0942049
0.0968377
0.0992981
0.10159
0.103717
0.105684
0.107494
0.109148
0.110648
0.111992
0.113177
0.114195
0.115032
0.11567
0.116078
0.11622
0.116051
0.115492
0.114442
0.109914
0.100718
0.0914588
0.0822886
0.0733275
0.0646693
0.0563865
0.0485364
0.041167
0.0343182
0.0280132
0.0223057
0.0172348
0.0128404
0.00915419
0.00619649
0.0039596
0.0023697
0.00133945
0.000718739
0.000368834
0.000182275
8.76472e-05
4.12461e-05
1.90431e-05
8.64234e-06
3.86144e-06
1.70103e-06
7.39782e-07
3.18038e-07
1.35319e-07
5.70418e-08
2.38376e-08
9.87241e-09
4.04095e-09
1.62e-09
6.19332e-10
2.06749e-10
3.62225e-11
3.75376e-07
1.64053e-06
3.76861e-06
7.33614e-06
1.32873e-05
2.31501e-05
3.93637e-05
6.5759e-05
0.000108242
0.000175724
0.000281309
0.000443693
0.000688604
0.0010499
0.00156976
0.00229729
0.003285
0.00458324
0.0062337
0.00826369
0.0106829
0.0134834
0.0166419
0.0201233
0.023885
0.0278798
0.0320588
0.0363732
0.0407761
0.045223
0.0496734
0.0540908
0.0584428
0.0627018
0.0668448
0.0708529
0.0747107
0.0784063
0.0819313
0.0852803
0.0884505
0.091441
0.0942528
0.0968883
0.0993506
0.101644
0.103771
0.105737
0.107545
0.109197
0.110693
0.112033
0.113213
0.114224
0.115054
0.115685
0.116084
0.116219
0.116044
0.11548
0.114428
0.109002
0.0998086
0.0905612
0.0814147
0.0724892
0.0638731
0.0556291
0.0478164
0.0404822
0.0336659
0.0274174
0.0217707
0.0167661
0.0124416
0.00882805
0.00594344
0.00377451
0.00225746
0.00126816
0.000677916
0.000347033
0.000171197
8.22477e-05
3.86843e-05
1.78553e-05
8.10249e-06
3.62043e-06
1.59513e-06
6.93905e-07
2.98411e-07
1.27014e-07
5.35608e-08
2.23911e-08
9.27648e-09
3.79807e-09
1.52293e-09
5.82287e-10
1.94387e-10
3.40553e-11
3.74165e-07
1.63523e-06
3.75642e-06
7.31233e-06
1.32439e-05
2.30741e-05
3.92336e-05
6.55408e-05
0.000107882
0.000175141
0.00028038
0.000442246
0.000686402
0.00104663
0.00156506
0.00229075
0.00327622
0.00457189
0.00621957
0.00824678
0.0106635
0.0134618
0.0166186
0.0200991
0.0238606
0.0278561
0.0320366
0.0363533
0.0407591
0.0452097
0.0496644
0.0540863
0.0584431
0.0627073
0.0668556
0.0708691
0.074732
0.0784325
0.081962
0.0853151
0.0884888
0.0914823
0.0942966
0.0969337
0.099397
0.10169
0.103817
0.105782
0.107587
0.109236
0.110729
0.112064
0.113238
0.114243
0.115066
0.115689
0.116081
0.116208
0.116026
0.115458
0.114406
0.108222
0.099024
0.0897851
0.0806589
0.0717499
0.0631472
0.0549287
0.0471505
0.0398597
0.033098
0.0269045
0.0213142
0.0163689
0.0121062
0.00855602
0.00573418
0.00362351
0.00215563
0.00121172
0.000644873
0.000329127
0.000162089
7.7811e-05
3.65789e-05
1.68782e-05
7.65786e-06
3.42161e-06
1.50762e-06
6.55929e-07
2.82136e-07
1.20116e-07
5.06658e-08
2.11866e-08
8.77968e-09
3.59542e-09
1.44189e-09
5.51343e-10
1.84062e-10
3.22459e-11
3.7315e-07
1.63079e-06
3.74622e-06
7.2924e-06
1.32077e-05
2.30107e-05
3.91254e-05
6.53596e-05
0.000107584
0.000174659
0.000279616
0.00044106
0.000684604
0.00104398
0.00156126
0.0022855
0.0032692
0.00456286
0.00620842
0.00823354
0.0106483
0.0134451
0.0166009
0.020081
0.0238427
0.0278391
0.0320211
0.0363399
0.0407485
0.0452024
0.0496606
0.0540865
0.0584475
0.0627161
0.0668688
0.0708865
0.0747535
0.0784578
0.0819908
0.085347
0.0885233
0.0915189
0.0943346
0.0969726
0.0994361
0.101729
0.103855
0.105818
0.107621
0.109266
0.110754
0.112085
0.113253
0.114251
0.115068
0.115684
0.116067
0.116188
0.116
0.115426
0.114376
0.107562
0.0983548
0.0891202
0.0799974
0.0711043
0.0625285
0.0543401
0.0465959
0.0393433
0.0326235
0.0264749
0.0209319
0.0160368
0.0118266
0.00833022
0.00556162
0.00350026
0.00207385
0.00116099
0.000618632
0.000314966
0.000154736
7.42084e-05
3.48665e-05
1.60818e-05
7.29469e-06
3.2589e-06
1.43588e-06
6.24742e-07
2.68752e-07
1.14437e-07
4.82795e-08
2.01928e-08
8.36943e-09
3.42795e-09
1.37488e-09
5.25751e-10
1.75523e-10
3.07494e-11
3.72317e-07
1.62716e-06
3.73785e-06
7.27609e-06
1.31781e-05
2.29589e-05
3.90372e-05
6.52122e-05
0.000107342
0.000174269
0.000278999
0.000440106
0.000683163
0.00104186
0.00155824
0.00228133
0.00326367
0.00455579
0.00619975
0.00822332
0.0106368
0.0134325
0.0165877
0.0200677
0.0238298
0.0278271
0.0320106
0.0363314
0.0407423
0.045199
0.0496603
0.0540894
0.0584539
0.062726
0.0668821
0.0709032
0.0747734
0.0784805
0.0820161
0.0853745
0.0885525
0.0915494
0.0943659
0.0970041
0.0994673
0.101759
0.103883
0.105844
0.107644
0.109286
0.11077
0.112095
0.113258
0.11425
0.115061
0.11567
0.116047
0.116163
0.115969
0.115392
0.114343
0.107013
0.0977929
0.0885567
0.079445
0.0705689
0.0620151
0.0538527
0.0461376
0.038917
0.032232
0.0261203
0.0206165
0.0157629
0.0115962
0.00814455
0.00542008
0.00339949
0.00200733
0.00112015
0.000595
0.000303291
0.000148898
7.13169e-05
3.34767e-05
1.5434e-05
6.99926e-06
3.1265e-06
1.37748e-06
5.99349e-07
2.5785e-07
1.09808e-07
4.63338e-08
1.93821e-08
8.03467e-09
3.29127e-09
1.32019e-09
5.04868e-10
1.68556e-10
2.95287e-11
3.71652e-07
1.62425e-06
3.73117e-06
7.26307e-06
1.31544e-05
2.29177e-05
3.89671e-05
6.50952e-05
0.000107151
0.000173961
0.000278513
0.000439356
0.000682034
0.00104021
0.00155589
0.00227811
0.0032594
0.00455037
0.00619313
0.00821558
0.0106281
0.0134232
0.016578
0.020058
0.0238206
0.0278188
0.0320036
0.0363261
0.0407391
0.0451979
0.0496617
0.0540935
0.0584607
0.0627354
0.0668942
0.0709177
0.0747902
0.0784995
0.0820368
0.0853966
0.0885757
0.0915732
0.0943899
0.0970278
0.0994902
0.101781
0.103903
0.105861
0.107658
0.109296
0.110776
0.112096
0.113254
0.114241
0.115046
0.11565
0.116024
0.116138
0.115949
0.115385
0.114367
0.106565
0.0973364
0.0880993
0.0789954
0.0701331
0.0615976
0.0534567
0.0457659
0.0385717
0.0319151
0.0258336
0.0203616
0.0155418
0.0114105
0.00799516
0.00530655
0.00331901
0.00195451
0.00108801
0.000576646
0.000293269
0.000144094
6.90631e-05
3.23966e-05
1.49235e-05
6.76438e-06
3.02089e-06
1.33084e-06
5.79054e-07
2.49132e-07
1.06106e-07
4.47774e-08
1.87337e-08
7.76694e-09
3.182e-09
1.2765e-09
4.88204e-10
1.62998e-10
2.85549e-11
3.71139e-07
1.62201e-06
3.72603e-06
7.25306e-06
1.31363e-05
2.28861e-05
3.89133e-05
6.50056e-05
0.000107004
0.000173725
0.000278143
0.000438786
0.000681177
0.00103896
0.00155412
0.00227568
0.00325621
0.00454633
0.00618823
0.00820988
0.0106217
0.0134163
0.016571
0.0200512
0.0238143
0.0278132
0.0319991
0.0363229
0.0407374
0.0451981
0.0496638
0.0540975
0.0584667
0.0627434
0.066904
0.0709292
0.0748032
0.0785138
0.0820522
0.0854128
0.0885924
0.0915901
0.0944065
0.0970437
0.0995049
0.101794
0.103914
0.105869
0.107663
0.109297
0.110773
0.112089
0.113241
0.114223
0.115022
0.115621
0.11599
0.116101
0.11591
0.115347
0.114336
0.10622
0.0969759
0.087737
0.0786391
0.0697881
0.0612675
0.0531443
0.0454732
0.0383004
0.0316665
0.0256091
0.0201622
0.0153692
0.0112658
0.00787897
0.00521847
0.00325675
0.00191377
0.0010633
0.000562609
0.000285669
0.000140082
6.70989e-05
3.15089e-05
1.4521e-05
6.58137e-06
2.93867e-06
1.29451e-06
5.63255e-07
2.42356e-07
1.03233e-07
4.35718e-08
1.82324e-08
7.56048e-09
3.09794e-09
1.24294e-09
4.75408e-10
1.58731e-10
2.78074e-11
3.70767e-07
1.62039e-06
3.7223e-06
7.24578e-06
1.31231e-05
2.28631e-05
3.88743e-05
6.49407e-05
0.000106898
0.000173555
0.000277876
0.000438375
0.000680561
0.00103806
0.00155285
0.00227395
0.00325393
0.00454346
0.00618476
0.00820587
0.0106173
0.0134116
0.0165662
0.0200465
0.02381
0.0278096
0.0319962
0.0363211
0.0407368
0.0451987
0.0496657
0.0541008
0.0584714
0.0627493
0.066911
0.0709372
0.0748121
0.0785233
0.0820623
0.0854232
0.0886028
0.0916002
0.094416
0.0970523
0.0995122
0.101799
0.103917
0.10587
0.107661
0.109291
0.110763
0.112074
0.113222
0.114198
0.114991
0.115585
0.11595
0.116058
0.115867
0.115307
0.114308
0.105967
0.0967069
0.0874642
0.0783701
0.0695278
0.0610192
0.05291
0.0452544
0.0380981
0.0314817
0.0254425
0.0200147
0.0152417
0.0111591
0.00779364
0.005154
0.00321133
0.00188414
0.00104535
0.000552443
0.000280221
0.000137289
6.57204e-05
3.08391e-05
1.42172e-05
6.44681e-06
2.87932e-06
1.2685e-06
5.5199e-07
2.37531e-07
1.01188e-07
4.27131e-08
1.78751e-08
7.41301e-09
3.03777e-09
1.21888e-09
4.6622e-10
1.55666e-10
2.72702e-11
3.70525e-07
1.61933e-06
3.71987e-06
7.24106e-06
1.31145e-05
2.28482e-05
3.8849e-05
6.48986e-05
0.000106829
0.000173445
0.000277703
0.00043811
0.000680164
0.00103748
0.00155204
0.00227284
0.00325248
0.00454163
0.00618256
0.00820333
0.0106145
0.0134087
0.0165633
0.0200437
0.0238074
0.0278074
0.0319946
0.0363201
0.0407365
0.0451992
0.0496671
0.054103
0.0584743
0.0627529
0.0669152
0.0709418
0.0748169
0.0785284
0.0820675
0.0854283
0.0886077
0.0916046
0.0944198
0.0970551
0.0995138
0.101799
0.103915
0.105866
0.107654
0.109281
0.110749
0.112056
0.113199
0.11417
0.114959
0.115549
0.11591
0.116016
0.115826
0.115272
0.114287
0.105799
0.096524
0.0872769
0.0781851
0.0693492
0.0608495
0.0527508
0.0451065
0.0379621
0.0313581
0.0253316
0.0199168
0.0151574
0.0110889
0.00773767
0.00511192
0.00318185
0.00186499
0.00103378
0.000545884
0.000276707
0.000135504
6.48521e-05
3.04236e-05
1.40195e-05
6.35626e-06
2.83957e-06
1.25134e-06
5.44627e-07
2.34398e-07
9.9867e-08
4.21607e-08
1.76458e-08
7.31855e-09
2.99926e-09
1.20347e-09
4.60338e-10
1.53702e-10
2.6926e-11
3.70408e-07
1.61882e-06
3.7187e-06
7.23878e-06
1.31104e-05
2.2841e-05
3.88369e-05
6.48785e-05
0.000106797
0.000173393
0.000277621
0.000437984
0.000679976
0.00103721
0.00155165
0.00227232
0.0032518
0.00454077
0.00618153
0.00820213
0.0106131
0.0134073
0.0165619
0.0200423
0.0238062
0.0278064
0.0319939
0.0363197
0.0407364
0.0451995
0.0496678
0.0541041
0.0584758
0.0627546
0.0669171
0.0709437
0.0748187
0.0785301
0.082069
0.0854297
0.0886088
0.0916054
0.09442
0.0970546
0.0995124
0.101797
0.103911
0.10586
0.107646
0.109271
0.110737
0.112041
0.113181
0.114149
0.114934
0.115521
0.115879
0.115984
0.115795
0.115247
0.114276
0.105716
0.0964279
0.087177
0.0780866
0.0692549
0.0607609
0.0526685
0.0450309
0.0378933
0.0312961
0.0252765
0.0198687
0.0151164
0.011055
0.00771085
0.00509192
0.00316796
0.00185605
0.00102842
0.000542849
0.000275077
0.000134693
6.44585e-05
3.02362e-05
1.39316e-05
6.3157e-06
2.82099e-06
1.24307e-06
5.41044e-07
2.3287e-07
9.9223e-08
4.18917e-08
1.75343e-08
7.27268e-09
2.98057e-09
1.196e-09
4.57484e-10
1.52749e-10
2.67589e-11
3.7041e-07
1.61883e-06
3.71872e-06
7.23882e-06
1.31105e-05
2.28411e-05
3.88371e-05
6.48789e-05
0.000106797
0.000173394
0.000277622
0.000437987
0.00067998
0.00103721
0.00155166
0.00227233
0.00325181
0.00454079
0.00618155
0.00820216
0.0106132
0.0134073
0.0165619
0.0200424
0.0238063
0.0278064
0.0319939
0.0363197
0.0407365
0.0451996
0.0496678
0.0541041
0.0584758
0.0627547
0.0669172
0.0709438
0.0748188
0.0785302
0.0820691
0.0854297
0.0886089
0.0916054
0.09442
0.0970547
0.0995124
0.101797
0.103911
0.10586
0.107646
0.109271
0.110737
0.112041
0.113181
0.114149
0.114934
0.115521
0.115879
0.115984
0.115795
0.115247
0.114276
0.105716
0.0964278
0.0871769
0.0780865
0.0692548
0.0607608
0.0526684
0.0450308
0.0378932
0.031296
0.0252765
0.0198687
0.0151163
0.011055
0.00771083
0.00509191
0.00316795
0.00185605
0.00102842
0.000542849
0.000275077
0.000134693
6.44584e-05
3.02361e-05
1.39316e-05
6.3157e-06
2.82099e-06
1.24307e-06
5.41043e-07
2.3287e-07
9.92229e-08
4.18917e-08
1.75342e-08
7.27267e-09
2.98057e-09
1.196e-09
4.57483e-10
1.52748e-10
2.67589e-11
3.70531e-07
1.61935e-06
3.71993e-06
7.24117e-06
1.31147e-05
2.28485e-05
3.88496e-05
6.48996e-05
0.000106831
0.000173448
0.000277707
0.000438116
0.000680173
0.00103749
0.00155206
0.00227287
0.00325252
0.00454168
0.00618262
0.0082034
0.0106145
0.0134088
0.0165634
0.0200438
0.0238076
0.0278075
0.0319948
0.0363203
0.0407367
0.0451994
0.0496672
0.0541032
0.0584745
0.0627531
0.0669153
0.0709419
0.0748171
0.0785285
0.0820676
0.0854284
0.0886078
0.0916047
0.0944199
0.0970552
0.0995139
0.101799
0.103915
0.105866
0.107654
0.109281
0.110749
0.112056
0.113199
0.11417
0.114959
0.115549
0.11591
0.116016
0.115826
0.115272
0.114287
0.105799
0.0965237
0.0872767
0.0781849
0.069349
0.0608493
0.0527506
0.0451063
0.037962
0.031358
0.0253315
0.0199168
0.0151574
0.0110889
0.00773764
0.0051119
0.00318184
0.00186498
0.00103378
0.000545881
0.000276706
0.000135503
6.48517e-05
3.04234e-05
1.40194e-05
6.35622e-06
2.83955e-06
1.25133e-06
5.44624e-07
2.34396e-07
9.98663e-08
4.21604e-08
1.76456e-08
7.3185e-09
2.99924e-09
1.20347e-09
4.60334e-10
1.537e-10
2.69258e-11
3.70777e-07
1.62043e-06
3.72239e-06
7.24597e-06
1.31234e-05
2.28637e-05
3.88753e-05
6.49424e-05
0.000106901
0.00017356
0.000277882
0.000438386
0.000680577
0.00103808
0.00155289
0.002274
0.003254
0.00454355
0.00618487
0.008206
0.0106174
0.0134118
0.0165664
0.0200468
0.0238103
0.0278098
0.0319965
0.0363214
0.040737
0.0451989
0.049666
0.0541011
0.0584716
0.0627496
0.0669113
0.0709375
0.0748123
0.0785236
0.0820625
0.0854234
0.088603
0.0916004
0.0944162
0.0970525
0.0995124
0.101799
0.103917
0.10587
0.107661
0.109291
0.110763
0.112074
0.113222
0.114198
0.114992
0.115585
0.11595
0.116058
0.115867
0.115307
0.114308
0.105966
0.0967064
0.0874638
0.0783697
0.0695274
0.0610188
0.0529097
0.0452541
0.0380979
0.0314815
0.0254424
0.0200146
0.0152416
0.0111591
0.00779358
0.00515396
0.00321131
0.00188412
0.00104534
0.000552437
0.000280218
0.000137287
6.57195e-05
3.08387e-05
1.4217e-05
6.44673e-06
2.87929e-06
1.26849e-06
5.51984e-07
2.37528e-07
1.01187e-07
4.27126e-08
1.78748e-08
7.4129e-09
3.03773e-09
1.21886e-09
4.66213e-10
1.55663e-10
2.72698e-11
3.71153e-07
1.62207e-06
3.72616e-06
7.25332e-06
1.31368e-05
2.28869e-05
3.89147e-05
6.50079e-05
0.000107008
0.000173731
0.000278152
0.000438801
0.000681199
0.00103899
0.00155417
0.00227575
0.0032563
0.00454645
0.00618838
0.00821006
0.0106219
0.0134166
0.0165713
0.0200515
0.0238146
0.0278136
0.0319995
0.0363233
0.0407378
0.0451985
0.0496642
0.0540979
0.0584671
0.0627438
0.0669044
0.0709296
0.0748036
0.0785141
0.0820525
0.0854131
0.0885927
0.0915903
0.0944067
0.097044
0.0995051
0.101794
0.103914
0.105869
0.107663
0.109297
0.110773
0.112089
0.113241
0.114223
0.115022
0.115621
0.11599
0.116101
0.11591
0.115347
0.114335
0.10622
0.0969753
0.0877364
0.0786385
0.0697875
0.0612671
0.0531439
0.0454729
0.0383001
0.0316663
0.0256089
0.020162
0.015369
0.0112656
0.00787888
0.00521841
0.00325671
0.00191374
0.00106328
0.0005626
0.000285664
0.000140079
6.70977e-05
3.15083e-05
1.45207e-05
6.58124e-06
2.93861e-06
1.29448e-06
5.63242e-07
2.4235e-07
1.03231e-07
4.35707e-08
1.8232e-08
7.56028e-09
3.09786e-09
1.24291e-09
4.75396e-10
1.58727e-10
2.78067e-11
3.71668e-07
1.62432e-06
3.73134e-06
7.2634e-06
1.3155e-05
2.29187e-05
3.89688e-05
6.50981e-05
0.000107155
0.000173968
0.000278525
0.000439375
0.000682062
0.00104025
0.00155595
0.00227819
0.00325952
0.00455052
0.00619333
0.00821582
0.0106283
0.0134235
0.0165784
0.0200584
0.0238211
0.0278193
0.0320041
0.0363266
0.0407396
0.0451984
0.0496622
0.054094
0.0584612
0.0627359
0.0668947
0.0709182
0.0747907
0.0784999
0.0820372
0.085397
0.0885761
0.0915735
0.0943902
0.0970281
0.0994905
0.101781
0.103903
0.105861
0.107658
0.109296
0.110776
0.112097
0.113254
0.114241
0.115046
0.11565
0.116024
0.116138
0.115949
0.115385
0.114367
0.106564
0.0973356
0.0880985
0.0789947
0.0701325
0.061597
0.0534562
0.0457654
0.0385713
0.0319147
0.0258333
0.0203613
0.0155416
0.0114104
0.00799504
0.00530646
0.00331895
0.00195447
0.00108798
0.000576633
0.000293262
0.00014409
6.90614e-05
3.23958e-05
1.49231e-05
6.76419e-06
3.0208e-06
1.3308e-06
5.79036e-07
2.49124e-07
1.06102e-07
4.47758e-08
1.8733e-08
7.76665e-09
3.18188e-09
1.27645e-09
4.88185e-10
1.62992e-10
2.85538e-11
3.72337e-07
1.62724e-06
3.73805e-06
7.27648e-06
1.31788e-05
2.29601e-05
3.90393e-05
6.52156e-05
0.000107348
0.000174278
0.000279014
0.000440129
0.000683197
0.00104191
0.00155832
0.00228144
0.00326381
0.00455598
0.00619998
0.00822361
0.0106371
0.0134329
0.0165882
0.0200682
0.0238303
0.0278277
0.0320112
0.036332
0.0407429
0.0451996
0.0496609
0.05409
0.0584545
0.0627266
0.0668827
0.0709037
0.0747739
0.0784811
0.0820166
0.0853749
0.088553
0.0915498
0.0943662
0.0970045
0.0994676
0.101759
0.103884
0.105844
0.107644
0.109286
0.11077
0.112095
0.113258
0.114251
0.115061
0.11567
0.116047
0.116163
0.115969
0.115392
0.114343
0.107012
0.0977918
0.0885557
0.0794441
0.0705681
0.0620143
0.053852
0.046137
0.0389165
0.0322315
0.0261199
0.0206161
0.0157626
0.011596
0.00814439
0.00541998
0.00339943
0.00200728
0.00112012
0.00059498
0.00030328
0.000148892
7.13139e-05
3.34751e-05
1.54333e-05
6.99895e-06
3.12636e-06
1.37742e-06
5.99322e-07
2.57838e-07
1.09803e-07
4.63316e-08
1.93812e-08
8.03427e-09
3.29111e-09
1.32012e-09
5.04843e-10
1.68548e-10
2.95272e-11
3.73173e-07
1.6309e-06
3.74645e-06
7.29286e-06
1.32085e-05
2.30121e-05
3.91278e-05
6.53636e-05
0.000107591
0.000174669
0.000279633
0.000441087
0.000684644
0.00104404
0.00156135
0.00228562
0.00326936
0.00456308
0.0062087
0.00823389
0.0106487
0.0134456
0.0166015
0.0200816
0.0238434
0.0278398
0.0320218
0.0363407
0.0407492
0.0452031
0.0496614
0.0540872
0.0584483
0.0627168
0.0668695
0.0708871
0.0747541
0.0784584
0.0819914
0.0853475
0.0885238
0.0915194
0.094335
0.096973
0.0994365
0.101729
0.103855
0.105818
0.107621
0.109266
0.110755
0.112085
0.113253
0.114251
0.115068
0.115684
0.116067
0.116188
0.116
0.115426
0.114376
0.107561
0.0983535
0.0891189
0.0799963
0.0711032
0.0625275
0.0543392
0.0465951
0.0393426
0.0326229
0.0264744
0.0209315
0.0160364
0.0118263
0.00833
0.00556146
0.00350014
0.00207378
0.00116095
0.000618612
0.000314957
0.000154732
7.42058e-05
3.48652e-05
1.60812e-05
7.29436e-06
3.25874e-06
1.4358e-06
6.24709e-07
2.68737e-07
1.1443e-07
4.82767e-08
2.01916e-08
8.36893e-09
3.42775e-09
1.3748e-09
5.25719e-10
1.75512e-10
3.07475e-11
3.74192e-07
1.63535e-06
3.7567e-06
7.31285e-06
1.32449e-05
2.30757e-05
3.92364e-05
6.55454e-05
0.00010789
0.000175153
0.000280399
0.000442277
0.000686448
0.0010467
0.00156516
0.00229089
0.00327641
0.00457214
0.00621989
0.00824718
0.0106639
0.0134623
0.0166192
0.0200998
0.0238614
0.0278569
0.0320374
0.0363541
0.0407599
0.0452105
0.0496652
0.0540872
0.058444
0.0627081
0.0668564
0.0708698
0.0747327
0.0784332
0.0819627
0.0853158
0.0884894
0.0914829
0.0942971
0.0969342
0.0993975
0.101691
0.103818
0.105782
0.107588
0.109236
0.110729
0.112064
0.113238
0.114243
0.115066
0.115689
0.116081
0.116209
0.116027
0.115458
0.114406
0.10822
0.0990225
0.0897836
0.0806575
0.0717486
0.063146
0.0549277
0.0471496
0.0398589
0.0330973
0.0269038
0.0213137
0.0163684
0.0121058
0.00855572
0.00573395
0.00362335
0.00215553
0.00121167
0.000644853
0.000329119
0.000162085
7.78087e-05
3.65776e-05
1.68775e-05
7.65749e-06
3.42143e-06
1.50754e-06
6.55888e-07
2.82118e-07
1.20108e-07
5.06624e-08
2.11852e-08