/*--------------------------------*- C++ -*----------------------------------*\
  =========                 |
  \\      /  F ield         | OpenFOAM: The Open Source CFD Toolbox
   \\    /   O peration     | Website:  https://openfoam.org
    \\  /    A nd           | Version:  8
     \\/     M anipulation  |
\*---------------------------------------------------------------------------*/
FoamFile
{
    version     2.0;
    format      ascii;
    class       volScalarField;
    location    "600/fluid";
    object      N2;
}
// * * * * * * * * * * * * * * * * * * * * * * * * * * * * * * * * * * * * * //

dimensions      [0 0 0 0 0 0 0];

internalField   nonuniform List<scalar> 
4000
(
2.28193e-06
9.97064e-06
2.28958e-05
4.45534e-05
8.06861e-05
0.000140633
0.000239404
0.000400776
0.00066178
0.00107891
0.00173624
0.00275511
0.00430414
0.00660664
0.00994115
0.0146296
0.0210098
0.0293941
0.0400234
0.0530308
0.0684264
0.0861047
0.105868
0.127454
0.150565
0.174891
0.200119
0.225953
0.252113
0.278347
0.304428
0.330159
0.355372
0.379928
0.403716
0.426647
0.448654
0.469689
0.489723
0.508744
0.526751
0.543755
0.559775
0.574837
0.588972
0.602217
0.61461
0.626191
0.637001
0.647082
0.656475
0.665221
0.673359
0.680929
0.687966
0.694507
0.700585
0.706158
0.711276
0.716167
0.720715
0.724947
0.728832
0.732562
0.736129
0.739538
0.742791
0.745889
0.74883
0.751612
0.75423
0.756679
0.758953
0.761031
0.762923
0.764606
0.766063
0.767275
0.768231
0.76893
0.769398
0.769684
0.769843
0.769926
0.769966
0.769984
0.769993
0.769997
0.769999
0.769999
0.77
0.77
0.77
0.77
0.77
0.77
0.77
0.77
0.77
0.77
2.28866e-06
1.00029e-05
2.2982e-05
4.47542e-05
8.11174e-05
0.0001415
0.000241036
0.000403652
0.000666476
0.00108587
0.00174528
0.00276446
0.00430885
0.00659682
0.00990003
0.0145319
0.0208227
0.0290806
0.0395483
0.0523673
0.067561
0.0850393
0.104618
0.126049
0.149041
0.173285
0.198472
0.224302
0.250492
0.276782
0.302943
0.328771
0.354093
0.378766
0.402675
0.425728
0.447855
0.469007
0.489153
0.508278
0.526383
0.543476
0.559576
0.574711
0.588913
0.602217
0.614661
0.626287
0.637136
0.64725
0.656671
0.66544
0.673598
0.681184
0.688234
0.694785
0.700871
0.706448
0.711566
0.716461
0.721013
0.725245
0.72913
0.732865
0.736438
0.739853
0.743112
0.746214
0.749158
0.751942
0.75456
0.757006
0.759273
0.761339
0.763215
0.764872
0.766295
0.767466
0.768374
0.769026
0.769456
0.769714
0.769857
0.769932
0.769968
0.769985
0.769994
0.769997
0.769999
0.769999
0.77
0.77
0.77
0.77
0.77
0.77
0.77
0.77
0.77
0.77
2.30043e-06
1.00559e-05
2.31104e-05
4.50189e-05
8.16189e-05
0.000142391
0.000242525
0.000405989
0.00066992
0.00109065
0.00175129
0.00277067
0.0043124
0.0065911
0.00987277
0.0144649
0.0206913
0.028855
0.0391967
0.05186
0.0668752
0.0841622
0.10355
0.1248
0.147632
0.171748
0.196841
0.222613
0.248782
0.275086
0.301291
0.32719
0.352605
0.377388
0.40142
0.424604
0.446867
0.468155
0.488437
0.507693
0.525923
0.543135
0.559346
0.574585
0.58888
0.602267
0.614786
0.626478
0.637385
0.647549
0.657014
0.66582
0.674009
0.681619
0.688689
0.695256
0.701353
0.706932
0.712051
0.716945
0.721486
0.725707
0.729606
0.733354
0.736935
0.740354
0.743614
0.746714
0.749652
0.752426
0.75503
0.757456
0.759697
0.761733
0.763567
0.765176
0.766544
0.767656
0.768507
0.769111
0.769504
0.769739
0.769869
0.769937
0.769971
0.769987
0.769994
0.769997
0.769999
0.769999
0.77
0.77
0.77
0.77
0.77
0.77
0.77
0.77
0.77
0.77
2.3045e-06
1.00735e-05
2.31503e-05
4.50943e-05
8.17471e-05
0.000142586
0.000242778
0.000406207
0.000669778
0.00108925
0.00174679
0.0027597
0.00428929
0.00654736
0.00979657
0.0143402
0.0204984
0.028572
0.0388018
0.0513344
0.0662056
0.0833423
0.102581
0.12369
0.146398
0.170409
0.195422
0.221141
0.247284
0.273592
0.299827
0.32578
0.351271
0.376147
0.400286
0.423587
0.445975
0.467392
0.487802
0.507187
0.525541
0.542873
0.559201
0.574544
0.588935
0.60241
0.615008
0.626771
0.63774
0.647959
0.65747
0.666316
0.674537
0.682174
0.689265
0.695846
0.701953
0.707526
0.712632
0.717513
0.722051
0.726271
0.730187
0.733941
0.737524
0.740942
0.744195
0.747285
0.750209
0.752963
0.755541
0.757936
0.760139
0.762138
0.763923
0.765478
0.766788
0.767842
0.768638
0.769195
0.769553
0.769766
0.769883
0.769943
0.769973
0.769988
0.769994
0.769998
0.769999
0.77
0.77
0.77
0.77
0.77
0.77
0.77
0.77
0.77
0.77
0.77
2.3027e-06
1.00653e-05
2.31302e-05
4.50503e-05
8.16531e-05
0.000142384
0.000242345
0.000405288
0.000667878
0.00108548
0.00173954
0.00274624
0.00426517
0.00650576
0.00972766
0.0142308
0.0203324
0.0283315
0.0384689
0.0508939
0.0656466
0.0826599
0.101776
0.122771
0.145377
0.169303
0.194251
0.219928
0.246052
0.272364
0.298625
0.324625
0.35018
0.375137
0.399369
0.422774
0.445272
0.466803
0.48733
0.506831
0.525302
0.542745
0.559173
0.574612
0.589092
0.60265
0.615322
0.627152
0.638179
0.648449
0.658003
0.666884
0.675135
0.682795
0.689903
0.696496
0.702606
0.708152
0.713257
0.71815
0.722685
0.726865
0.730805
0.734559
0.738139
0.741549
0.744792
0.747866
0.750769
0.753498
0.756046
0.758406
0.760565
0.76252
0.764255
0.765757
0.767011
0.768009
0.768753
0.769268
0.769596
0.769788
0.769894
0.769949
0.769976
0.769989
0.769995
0.769998
0.769999
0.77
0.77
0.77
0.77
0.77
0.77
0.77
0.77
0.77
0.77
0.77
2.29525e-06
1.00321e-05
2.30512e-05
4.48888e-05
8.13419e-05
0.000141802
0.000241271
0.000403335
0.000664375
0.00107929
0.00172881
0.00272802
0.00423501
0.00645726
0.00965216
0.0141174
0.0201683
0.0281033
0.0381641
0.0505021
0.0651614
0.0820791
0.101102
0.122011
0.144542
0.168406
0.193309
0.218958
0.245074
0.271396
0.297684
0.323728
0.349343
0.374372
0.398686
0.422181
0.444775
0.466406
0.487036
0.506641
0.525209
0.542744
0.559262
0.574786
0.589346
0.602975
0.615712
0.627599
0.638677
0.648989
0.658578
0.667489
0.675761
0.683437
0.690555
0.697153
0.703264
0.708801
0.713918
0.718807
0.723332
0.727466
0.731407
0.73516
0.738734
0.742134
0.745362
0.748418
0.751299
0.754001
0.756518
0.758843
0.760959
0.762871
0.764559
0.766009
0.767211
0.768158
0.768856
0.769333
0.769634
0.769809
0.769905
0.769954
0.769978
0.76999
0.769995
0.769998
0.769999
0.77
0.77
0.77
0.77
0.77
0.77
0.77
0.77
0.77
0.77
0.77
2.28504e-06
9.98712e-06
2.29459e-05
4.46785e-05
8.09484e-05
0.000141089
0.000240008
0.000401127
0.000660564
0.0010728
0.00171794
0.00271014
0.00420623
0.00641209
0.00958327
0.0140157
0.0200235
0.0279046
0.0379018
0.0501689
0.0647531
0.0815955
0.100547
0.121391
0.143866
0.167688
0.192562
0.218197
0.244313
0.270651
0.29697
0.323057
0.348727
0.373821
0.398209
0.421784
0.444462
0.466183
0.486902
0.50659
0.525241
0.542857
0.559452
0.575048
0.589673
0.603363
0.616154
0.628087
0.639205
0.649551
0.659168
0.668099
0.676387
0.684071
0.691191
0.697786
0.703891
0.709371
0.714607
0.719461
0.72396
0.728056
0.731982
0.735725
0.739288
0.742675
0.745887
0.748924
0.751782
0.754457
0.756945
0.759237
0.761316
0.76319
0.764833
0.766235
0.767387
0.768287
0.768945
0.769389
0.769666
0.769826
0.769913
0.769958
0.76998
0.769991
0.769996
0.769998
0.769999
0.77
0.77
0.77
0.77
0.77
0.77
0.77
0.77
0.77
0.77
0.77
2.27369e-06
9.93722e-06
2.28299e-05
4.44486e-05
8.05224e-05
0.000140327
0.000238672
0.000398824
0.00065665
0.00106625
0.00170715
0.00269271
0.0041787
0.00636968
0.00951981
0.0139238
0.0198948
0.027731
0.0376763
0.0498866
0.0644119
0.0811964
0.100094
0.120891
0.143328
0.167121
0.191979
0.21761
0.243735
0.270094
0.296445
0.322575
0.348297
0.37345
0.397903
0.42155
0.444304
0.466099
0.486888
0.50665
0.525372
0.543056
0.559715
0.57537
0.59005
0.603788
0.616623
0.628593
0.639742
0.650114
0.659751
0.668697
0.676994
0.684683
0.691805
0.698398
0.70448
0.709956
0.715194
0.720039
0.724524
0.7286
0.732514
0.736244
0.739794
0.743167
0.746362
0.749379
0.752213
0.754862
0.757319
0.759578
0.761621
0.763453
0.765059
0.766425
0.767538
0.768398
0.76902
0.769436
0.769693
0.769841
0.769921
0.769962
0.769982
0.769992
0.769996
0.769998
0.769999
0.77
0.77
0.77
0.77
0.77
0.77
0.77
0.77
0.77
0.77
0.77
2.26239e-06
9.88763e-06
2.27151e-05
4.42223e-05
8.01059e-05
0.000139587
0.000237388
0.000396632
0.000652965
0.00106015
0.00169722
0.00267687
0.00415397
0.00633204
0.00946411
0.0138439
0.0197843
0.0275835
0.0374866
0.0496515
0.0641307
0.0808709
0.0997285
0.120492
0.142903
0.16668
0.191532
0.217167
0.243306
0.269688
0.296072
0.322244
0.348014
0.373221
0.397734
0.421443
0.444258
0.466114
0.486968
0.506792
0.525573
0.543314
0.560026
0.57573
0.590453
0.60423
0.617097
0.629096
0.640269
0.650659
0.660309
0.669264
0.677566
0.685257
0.692376
0.698964
0.705008
0.710471
0.715699
0.720531
0.725004
0.729073
0.732983
0.736706
0.740246
0.743607
0.746786
0.749784
0.752596
0.755219
0.757645
0.759868
0.761871
0.763665
0.765237
0.766574
0.76766
0.768491
0.769083
0.769476
0.769716
0.769854
0.769927
0.769965
0.769983
0.769992
0.769997
0.769998
0.769999
0.77
0.77
0.77
0.77
0.77
0.77
0.77
0.77
0.77
0.77
0.77
2.25175e-06
9.84104e-06
2.26075e-05
4.40108e-05
7.97181e-05
0.000138902
0.000236204
0.000394623
0.000649609
0.00105464
0.00168832
0.00266278
0.00413217
0.00629915
0.00941592
0.0137755
0.0196905
0.0274596
0.0373289
0.0494581
0.0639017
0.0806087
0.0994374
0.120177
0.142573
0.166343
0.191195
0.216839
0.242996
0.269403
0.29582
0.322031
0.347845
0.373103
0.397667
0.421427
0.444296
0.466207
0.487114
0.50699
0.525821
0.543607
0.560362
0.576104
0.590862
0.604668
0.617561
0.629581
0.640771
0.651173
0.660832
0.669792
0.678095
0.685783
0.692897
0.699477
0.705504
0.710947
0.716159
0.720975
0.725431
0.729497
0.733401
0.737116
0.740647
0.743995
0.74716
0.75014
0.752932
0.755532
0.757933
0.760127
0.762116
0.763885
0.765421
0.766714
0.767763
0.768569
0.769138
0.76951
0.769736
0.769864
0.769933
0.769968
0.769985
0.769993
0.769997
0.769999
0.769999
0.77
0.77
0.77
0.77
0.77
0.77
0.77
0.77
0.77
0.77
0.77
2.24214e-06
9.79899e-06
2.25105e-05
4.38207e-05
7.93706e-05
0.00013829
0.000235151
0.000392844
0.000646654
0.00104981
0.00168057
0.0026506
0.00411345
0.00627111
0.00937513
0.0137181
0.0196124
0.0273572
0.0371996
0.049301
0.0637175
0.0804
0.0992084
0.119934
0.142321
0.166088
0.190946
0.216602
0.242779
0.269212
0.29566
0.321907
0.347762
0.373062
0.39767
0.421476
0.444392
0.466349
0.487301
0.50722
0.526091
0.543915
0.560703
0.576476
0.59126
0.60509
0.618002
0.630037
0.641238
0.651648
0.661311
0.670272
0.678574
0.686258
0.693365
0.699935
0.705944
0.71137
0.716566
0.721369
0.725806
0.729873
0.733771
0.737479
0.740999
0.744335
0.747485
0.750447
0.75322
0.7558
0.758181
0.760363
0.762329
0.764073
0.765584
0.766852
0.767869
0.768638
0.769185
0.769539
0.769753
0.769873
0.769937
0.76997
0.769986
0.769993
0.769997
0.769999
0.769999
0.77
0.77
0.77
0.77
0.77
0.77
0.77
0.77
0.77
0.77
0.77
2.23371e-06
9.76212e-06
2.24255e-05
4.36545e-05
7.90673e-05
0.000137757
0.000234238
0.000391306
0.000644109
0.00104567
0.00167396
0.00264026
0.00409764
0.00624758
0.00934112
0.0136705
0.0195481
0.0272736
0.0370951
0.049175
0.0635712
0.0802361
0.0990306
0.119747
0.14213
0.165901
0.190766
0.216437
0.242634
0.269091
0.295569
0.321849
0.347739
0.373076
0.397723
0.421569
0.444525
0.46652
0.48751
0.507463
0.526367
0.544221
0.561036
0.576833
0.591637
0.605484
0.61841
0.630455
0.641663
0.652078
0.661743
0.670703
0.679001
0.686679
0.693779
0.700337
0.706329
0.711746
0.716931
0.721717
0.726137
0.730203
0.734095
0.737794
0.741303
0.744625
0.747759
0.750708
0.753468
0.756035
0.758405
0.760566
0.762512
0.764234
0.765721
0.766964
0.767956
0.768702
0.769223
0.769564
0.769767
0.769881
0.769941
0.769972
0.769987
0.769994
0.769997
0.769999
0.769999
0.77
0.77
0.77
0.77
0.77
0.77
0.77
0.77
0.77
0.77
0.77
2.22649e-06
9.73054e-06
2.23528e-05
4.35124e-05
7.88087e-05
0.000137304
0.000233462
0.000390005
0.000641963
0.00104219
0.00166843
0.00263164
0.00408454
0.00622818
0.00931323
0.0136317
0.0194961
0.0272064
0.0370116
0.0490753
0.0634566
0.0801091
0.0988947
0.119606
0.14199
0.165765
0.190641
0.216327
0.242542
0.269023
0.295528
0.321836
0.347757
0.373126
0.397807
0.421687
0.444676
0.466704
0.487723
0.507705
0.526636
0.544514
0.56135
0.577164
0.591984
0.605843
0.618779
0.630831
0.642044
0.65246
0.662125
0.671082
0.679376
0.687047
0.694136
0.700686
0.706667
0.712071
0.717244
0.722017
0.726417
0.730485
0.734372
0.738063
0.741564
0.744879
0.748008
0.750947
0.753695
0.756248
0.758599
0.760742
0.762668
0.764369
0.765835
0.767057
0.768027
0.768753
0.769258
0.769583
0.769778
0.769887
0.769944
0.769973
0.769987
0.769994
0.769997
0.769999
0.769999
0.77
0.77
0.77
0.77
0.77
0.77
0.77
0.77
0.77
0.77
0.77
2.22043e-06
9.70407e-06
2.22919e-05
4.33936e-05
7.85927e-05
0.000136926
0.000232817
0.000388925
0.000640187
0.00103932
0.00166388
0.00262459
0.00407385
0.00621243
0.00929069
0.0136005
0.0194545
0.0271531
0.0369459
0.0489975
0.0633681
0.080012
0.0987923
0.119502
0.141888
0.16567
0.190556
0.216256
0.242489
0.268991
0.295519
0.321853
0.347801
0.373198
0.397907
0.421815
0.444831
0.466885
0.48793
0.507935
0.526886
0.544783
0.561635
0.577464
0.592295
0.606163
0.619106
0.631163
0.642378
0.652794
0.662458
0.671411
0.679698
0.687361
0.694445
0.700989
0.706956
0.71235
0.717513
0.722276
0.726649
0.730724
0.734606
0.738293
0.74179
0.745098
0.748218
0.751147
0.753884
0.756423
0.758761
0.760888
0.762798
0.764483
0.765931
0.767134
0.768086
0.768796
0.769286
0.7696
0.769787
0.769892
0.769947
0.769974
0.769988
0.769994
0.769997
0.769999
0.77
0.77
0.77
0.77
0.77
0.77
0.77
0.77
0.77
0.77
0.77
0.77
2.21547e-06
9.68239e-06
2.22421e-05
4.32964e-05
7.84162e-05
0.000136617
0.000232292
0.000388048
0.000638748
0.001037
0.00166022
0.00261892
0.0040653
0.00619987
0.00927281
0.0135759
0.0194219
0.0271115
0.0368949
0.0489377
0.0633007
0.0799391
0.0987164
0.119426
0.141816
0.165604
0.190501
0.216214
0.242463
0.268983
0.295531
0.321887
0.347858
0.373278
0.398011
0.421942
0.44498
0.467056
0.48812
0.508143
0.527111
0.545022
0.561887
0.577726
0.592566
0.606441
0.619388
0.631447
0.642663
0.653079
0.662739
0.671688
0.67997
0.687631
0.694709
0.701245
0.707199
0.712584
0.717737
0.722489
0.726839
0.730922
0.734802
0.738485
0.741977
0.745279
0.748391
0.751312
0.754039
0.756568
0.758893
0.761009
0.762905
0.764576
0.766009
0.767197
0.768135
0.76883
0.769309
0.769614
0.769795
0.769896
0.769949
0.769975
0.769988
0.769995
0.769998
0.769999
0.77
0.77
0.77
0.77
0.77
0.77
0.77
0.77
0.77
0.77
0.77
0.77
2.21151e-06
9.66508e-06
2.22023e-05
4.32189e-05
7.82757e-05
0.000136372
0.000231875
0.000387353
0.00063761
0.00103517
0.00165734
0.00261448
0.00405862
0.00619009
0.00925893
0.0135569
0.0193968
0.0270796
0.0368563
0.0488927
0.0632504
0.0798853
0.0986614
0.119373
0.141766
0.165561
0.190466
0.216191
0.242454
0.268989
0.295554
0.321928
0.347918
0.373357
0.398109
0.422059
0.445115
0.467207
0.488287
0.508324
0.527304
0.545227
0.562101
0.577948
0.592794
0.606673
0.619623
0.631684
0.642899
0.653313
0.66297
0.671917
0.680197
0.687853
0.694925
0.701454
0.707401
0.712777
0.717921
0.722665
0.726994
0.731083
0.734959
0.73864
0.742127
0.745424
0.74853
0.751445
0.754164
0.756684
0.759001
0.761106
0.762992
0.764651
0.766073
0.767248
0.768173
0.768858
0.769327
0.769625
0.769802
0.769899
0.76995
0.769976
0.769989
0.769995
0.769998
0.769999
0.77
0.77
0.77
0.77
0.77
0.77
0.77
0.77
0.77
0.77
0.77
0.77
2.20846e-06
9.65176e-06
2.21717e-05
4.31594e-05
7.81677e-05
0.000136184
0.000231556
0.000386821
0.00063674
0.00103378
0.00165514
0.00261111
0.00405356
0.0061827
0.0092485
0.0135427
0.019378
0.0270561
0.0368278
0.0488597
0.063214
0.0798468
0.0986225
0.119335
0.141732
0.165533
0.190446
0.21618
0.242454
0.269002
0.295581
0.321969
0.347973
0.373428
0.398194
0.422158
0.445228
0.467333
0.488425
0.508473
0.527463
0.545394
0.562275
0.578127
0.592978
0.60686
0.61981
0.631871
0.643086
0.6535
0.663157
0.672102
0.680378
0.688029
0.695097
0.701621
0.70756
0.71293
0.718069
0.722806
0.72712
0.731207
0.735082
0.73876
0.742244
0.745537
0.748639
0.751548
0.754261
0.756775
0.759084
0.761181
0.763059
0.764709
0.766122
0.767288
0.768204
0.768879
0.769341
0.769634
0.769806
0.769902
0.769952
0.769977
0.769989
0.769995
0.769998
0.769999
0.77
0.77
0.77
0.77
0.77
0.77
0.77
0.77
0.77
0.77
0.77
0.77
2.20625e-06
9.6421e-06
2.21496e-05
4.31162e-05
7.80895e-05
0.000136048
0.000231324
0.000386437
0.000636113
0.00103277
0.00165357
0.00260868
0.00404993
0.00617743
0.00924106
0.0135325
0.0193648
0.0270394
0.0368078
0.0488368
0.0631888
0.0798204
0.0985963
0.119311
0.141711
0.165516
0.190435
0.216177
0.242459
0.269017
0.295605
0.322004
0.348019
0.373485
0.398262
0.422237
0.445316
0.467431
0.488531
0.508587
0.527584
0.54552
0.562406
0.578262
0.593115
0.606998
0.619951
0.632013
0.643229
0.653642
0.663297
0.67224
0.680513
0.688161
0.695225
0.701745
0.707678
0.713044
0.718178
0.722911
0.727214
0.731298
0.735172
0.738848
0.74233
0.74562
0.748719
0.751624
0.754333
0.756842
0.759146
0.761237
0.763109
0.764752
0.766158
0.767317
0.768225
0.768894
0.769351
0.76964
0.76981
0.769904
0.769953
0.769977
0.769989
0.769995
0.769998
0.769999
0.77
0.77
0.77
0.77
0.77
0.77
0.77
0.77
0.77
0.77
0.77
0.77
2.20481e-06
9.63583e-06
2.21352e-05
4.30882e-05
7.80389e-05
0.00013596
0.000231175
0.000386189
0.000635709
0.00103213
0.00165255
0.00260713
0.00404761
0.00617406
0.00923632
0.0135261
0.0193564
0.0270289
0.0367952
0.0488224
0.0631731
0.0798041
0.0985802
0.119296
0.141698
0.165507
0.19043
0.216176
0.242464
0.269028
0.295623
0.322029
0.348052
0.373525
0.398309
0.42229
0.445376
0.467497
0.488602
0.508663
0.527664
0.545604
0.562493
0.578352
0.593207
0.607092
0.620046
0.632109
0.643324
0.653736
0.66339
0.672331
0.680603
0.688249
0.69531
0.701828
0.707757
0.713119
0.718251
0.722981
0.727276
0.731358
0.735231
0.738905
0.742386
0.745675
0.748771
0.751674
0.75438
0.756886
0.759186
0.761274
0.763141
0.764781
0.766182
0.767336
0.76824
0.768904
0.769358
0.769644
0.769812
0.769905
0.769953
0.769978
0.76999
0.769995
0.769998
0.769999
0.77
0.77
0.77
0.77
0.77
0.77
0.77
0.77
0.77
0.77
0.77
0.77
2.20412e-06
9.63282e-06
2.21283e-05
4.30748e-05
7.80146e-05
0.000135918
0.000231104
0.000386071
0.000635517
0.00103182
0.00165208
0.0026064
0.00404652
0.00617248
0.0092341
0.0135231
0.0193525
0.027024
0.0367893
0.0488157
0.0631658
0.0797966
0.0985729
0.119289
0.141692
0.165503
0.190428
0.216177
0.242468
0.269035
0.295633
0.322042
0.348068
0.373545
0.398332
0.422317
0.445406
0.46753
0.488638
0.508702
0.527705
0.545646
0.562537
0.578397
0.593253
0.60714
0.620093
0.632156
0.643371
0.653783
0.663436
0.672376
0.680647
0.688292
0.695352
0.701869
0.707796
0.713157
0.718287
0.723016
0.727307
0.731388
0.73526
0.738934
0.742414
0.745702
0.748797
0.751698
0.754403
0.756907
0.759206
0.761292
0.763157
0.764794
0.766193
0.767345
0.768247
0.768909
0.769361
0.769646
0.769813
0.769905
0.769954
0.769978
0.76999
0.769995
0.769998
0.769999
0.77
0.77
0.77
0.77
0.77
0.77
0.77
0.77
0.77
0.77
0.77
0.77
2.20413e-06
9.63287e-06
2.21284e-05
4.3075e-05
7.80151e-05
0.000135919
0.000231105
0.000386073
0.000635521
0.00103183
0.00165208
0.00260642
0.00404654
0.00617251
0.00923415
0.0135231
0.0193526
0.0270241
0.0367895
0.0488158
0.063166
0.0797968
0.0985731
0.119289
0.141693
0.165503
0.190428
0.216177
0.242468
0.269035
0.295633
0.322043
0.348069
0.373545
0.398333
0.422317
0.445407
0.46753
0.488639
0.508702
0.527705
0.545647
0.562538
0.578397
0.593254
0.60714
0.620094
0.632156
0.643371
0.653783
0.663437
0.672377
0.680647
0.688292
0.695352
0.701869
0.707796
0.713157
0.718287
0.723016
0.727307
0.731388
0.73526
0.738934
0.742414
0.745702
0.748797
0.751698
0.754403
0.756907
0.759206
0.761292
0.763157
0.764794
0.766193
0.767345
0.768247
0.768909
0.769361
0.769646
0.769813
0.769905
0.769954
0.769978
0.76999
0.769995
0.769998
0.769999
0.77
0.77
0.77
0.77
0.77
0.77
0.77
0.77
0.77
0.77
0.77
0.77
2.20485e-06
9.63602e-06
2.21356e-05
4.3089e-05
7.80403e-05
0.000135962
0.000231179
0.000386196
0.000635721
0.00103215
0.00165258
0.00260718
0.00404768
0.00617415
0.00923646
0.0135263
0.0193566
0.0270292
0.0367956
0.0488228
0.0631736
0.0798048
0.0985809
0.119297
0.141699
0.165508
0.190431
0.216177
0.242465
0.269029
0.295624
0.32203
0.348053
0.373526
0.39831
0.422291
0.445377
0.467497
0.488603
0.508664
0.527665
0.545604
0.562494
0.578352
0.593208
0.607093
0.620047
0.632109
0.643325
0.653737
0.663391
0.672331
0.680603
0.688249
0.69531
0.701828
0.707757
0.713119
0.718251
0.722981
0.727276
0.731358
0.735231
0.738906
0.742386
0.745675
0.748771
0.751674
0.75438
0.756886
0.759186
0.761274
0.763141
0.764781
0.766182
0.767336
0.76824
0.768904
0.769358
0.769644
0.769812
0.769905
0.769953
0.769978
0.76999
0.769995
0.769998
0.769999
0.77
0.77
0.77
0.77
0.77
0.77
0.77
0.77
0.77
0.77
0.77
0.77
2.20632e-06
9.6424e-06
2.21502e-05
4.31175e-05
7.8092e-05
0.000136052
0.000231332
0.000386449
0.000636133
0.00103281
0.00165362
0.00260876
0.00405005
0.0061776
0.0092413
0.0135329
0.0193652
0.02704
0.0368085
0.0488376
0.0631897
0.0798215
0.0985975
0.119312
0.141712
0.165518
0.190437
0.216178
0.242461
0.269018
0.295607
0.322006
0.348021
0.373487
0.398264
0.422238
0.445318
0.467432
0.488532
0.508588
0.527585
0.545521
0.562407
0.578262
0.593115
0.606999
0.619951
0.632014
0.643229
0.653642
0.663298
0.67224
0.680514
0.688162
0.695225
0.701746
0.707678
0.713044
0.718178
0.722912
0.727214
0.731298
0.735172
0.738848
0.74233
0.74562
0.748719
0.751624
0.754333
0.756842
0.759146
0.761237
0.763109
0.764752
0.766158
0.767317
0.768225
0.768894
0.769351
0.76964
0.76981
0.769904
0.769953
0.769977
0.769989
0.769995
0.769998
0.769999
0.77
0.77
0.77
0.77
0.77
0.77
0.77
0.77
0.77
0.77
0.77
0.77
2.20856e-06
9.65218e-06
2.21727e-05
4.31612e-05
7.81711e-05
0.00013619
0.000231566
0.000386838
0.000636768
0.00103382
0.00165521
0.00261121
0.00405372
0.00618294
0.00924883
0.0135431
0.0193787
0.0270568
0.0368287
0.0488609
0.0632153
0.0798483
0.0986242
0.119337
0.141734
0.165535
0.190448
0.216183
0.242457
0.269005
0.295583
0.321971
0.347976
0.37343
0.398196
0.42216
0.44523
0.467335
0.488427
0.508475
0.527465
0.545395
0.562276
0.578129
0.592979
0.606861
0.619811
0.631872
0.643087
0.6535
0.663158
0.672102
0.680379
0.68803
0.695097
0.701621
0.70756
0.71293
0.718069
0.722807
0.72712
0.731207
0.735082
0.73876
0.742244
0.745537
0.748639
0.751548
0.754261
0.756775
0.759084
0.761181
0.763059
0.764709
0.766122
0.767288
0.768204
0.768879
0.769341
0.769634
0.769806
0.769902
0.769952
0.769977
0.769989
0.769995
0.769998
0.769999
0.77
0.77
0.77
0.77
0.77
0.77
0.77
0.77
0.77
0.77
0.77
0.77
2.21163e-06
9.66561e-06
2.22035e-05
4.32213e-05
7.828e-05
0.00013638
0.000231888
0.000387374
0.000637644
0.00103523
0.00165742
0.00261461
0.00405882
0.00619038
0.00925935
0.0135575
0.0193975
0.0270806
0.0368575
0.0488941
0.0632521
0.0798873
0.0986635
0.119375
0.141768
0.165564
0.190469
0.216194
0.242457
0.268992
0.295557
0.321931
0.34792
0.37336
0.398112
0.422061
0.445117
0.467209
0.488289
0.508326
0.527307
0.545229
0.562103
0.57795
0.592796
0.606675
0.619624
0.631685
0.6429
0.653314
0.662971
0.671918
0.680198
0.687854
0.694926
0.701455
0.707401
0.712777
0.717922
0.722666
0.726994
0.731084
0.73496
0.73864
0.742127
0.745424
0.748531
0.751445
0.754164
0.756685
0.759001
0.761106
0.762992
0.764651
0.766073
0.767248
0.768174
0.768858
0.769327
0.769625
0.769802
0.769899
0.76995
0.769976
0.769989
0.769995
0.769998
0.769999
0.77
0.77
0.77
0.77
0.77
0.77
0.77
0.77
0.77
0.77
0.77
0.77
2.21562e-06
9.68303e-06
2.22436e-05
4.32993e-05
7.84213e-05
0.000136626
0.000232307
0.000388073
0.000638789
0.00103707
0.00166032
0.00261909
0.00406555
0.00620022
0.00927332
0.0135766
0.0194228
0.0271126
0.0368964
0.0489395
0.0633028
0.0799415
0.0987191
0.119429
0.141819
0.165608
0.190504
0.216217
0.242466
0.268987
0.295534
0.32189
0.347861
0.373282
0.398014
0.421945
0.444983
0.467059
0.488123
0.508146
0.527113
0.545024
0.561889
0.577728
0.592568
0.606443
0.619389
0.631449
0.642665
0.65308
0.66274
0.671689
0.679971
0.687632
0.69471
0.701246
0.7072
0.712585
0.717737
0.722489
0.72684
0.730923
0.734802
0.738486
0.741977
0.745279
0.748391
0.751312
0.754039
0.756568
0.758894
0.761009
0.762906
0.764576
0.76601
0.767197
0.768135
0.76883
0.769309
0.769614
0.769795
0.769896
0.769949
0.769975
0.769988
0.769995
0.769998
0.769999
0.77
0.77
0.77
0.77
0.77
0.77
0.77
0.77
0.77
0.77
0.77
0.77
2.22061e-06
9.70482e-06
2.22936e-05
4.33969e-05
7.85987e-05
0.000136936
0.000232835
0.000388955
0.000640235
0.0010394
0.00166401
0.00262478
0.00407413
0.00621284
0.00929128
0.0136013
0.0194556
0.0271545
0.0369476
0.0489996
0.0633705
0.0800148
0.0987954
0.119506
0.141892
0.165674
0.19056
0.21626
0.242493
0.268996
0.295523
0.321857
0.347805
0.373202
0.397911
0.421819
0.444835
0.466889
0.487933
0.507938
0.526889
0.544786
0.561638
0.577466
0.592298
0.606166
0.619108
0.631165
0.642379
0.652796
0.662459
0.671413
0.679699
0.687362
0.694446
0.70099
0.706957
0.712351
0.717513
0.722276
0.72665
0.730724
0.734607
0.738293
0.74179
0.745099
0.748218
0.751148
0.753884
0.756424
0.758761
0.760888
0.762798
0.764483
0.765931
0.767134
0.768086
0.768796
0.769286
0.7696
0.769787
0.769892
0.769947
0.769974
0.769988
0.769994
0.769997
0.769999
0.77
0.77
0.77
0.77
0.77
0.77
0.77
0.77
0.77
0.77
0.77
0.77
2.22668e-06
9.73138e-06
2.23547e-05
4.35162e-05
7.88154e-05
0.000137315
0.000233482
0.000390038
0.000642017
0.00104228
0.00166857
0.00263185
0.00408486
0.00622864
0.00931389
0.0136326
0.0194973
0.027208
0.0370136
0.0490777
0.0634595
0.0801123
0.0988983
0.11961
0.141994
0.16577
0.190645
0.216331
0.242547
0.269028
0.295532
0.321841
0.347762
0.373131
0.397812
0.421692
0.44468
0.466708
0.487727
0.507709
0.526639
0.544517
0.561353
0.577167
0.591987
0.605846
0.618781
0.630834
0.642046
0.652462
0.662127
0.671084
0.679377
0.687048
0.694137
0.700687
0.706668
0.712072
0.717245
0.722018
0.726417
0.730486
0.734372
0.738064
0.741564
0.744879
0.748008
0.750948
0.753696
0.756248
0.758599
0.760742
0.762668
0.764369
0.765836
0.767057
0.768027
0.768753
0.769258
0.769583
0.769778
0.769887
0.769944
0.769973
0.769987
0.769994
0.769997
0.769999
0.769999
0.77
0.77
0.77
0.77
0.77
0.77
0.77
0.77
0.77
0.77
0.77
2.23393e-06
9.76306e-06
2.24276e-05
4.36586e-05
7.90748e-05
0.00013777
0.00023426
0.000391343
0.000644169
0.00104576
0.00167411
0.00264049
0.00409799
0.0062481
0.00934186
0.0136715
0.0195495
0.0272754
0.0370973
0.0491777
0.0635744
0.0802397
0.0990347
0.119751
0.142135
0.165906
0.190772
0.216443
0.242639
0.269097
0.295575
0.321855
0.347745
0.373081
0.397728
0.421575
0.44453
0.466525
0.487514
0.507468
0.526371
0.544225
0.56104
0.576836
0.591641
0.605487
0.618412
0.630458
0.641666
0.65208
0.661745
0.670705
0.679003
0.686681
0.69378
0.700338
0.70633
0.711747
0.716931
0.721718
0.726138
0.730204
0.734095
0.737794
0.741304
0.744625
0.747759
0.750708
0.753468
0.756035
0.758405
0.760567
0.762512
0.764234
0.765721
0.766964
0.767956
0.768702
0.769223
0.769564
0.769767
0.769881
0.769941
0.769972
0.769987
0.769994
0.769997
0.769999
0.769999
0.77
0.77
0.77
0.77
0.77
0.77
0.77
0.77
0.77
0.77
0.77
2.24238e-06
9.80003e-06
2.25128e-05
4.38253e-05
7.93788e-05
0.000138304
0.000235175
0.000392884
0.000646719
0.00104991
0.00168074
0.00265086
0.00411383
0.00627168
0.00937594
0.0137192
0.0196139
0.0273591
0.0372021
0.049304
0.0637211
0.0804041
0.0992129
0.119939
0.142326
0.166094
0.190952
0.216609
0.242785
0.269218
0.295667
0.321913
0.347768
0.373068
0.397676
0.421482
0.444398
0.466355
0.487307
0.507225
0.526096
0.54392
0.560708
0.57648
0.591264
0.605093
0.618005
0.63004
0.64124
0.65165
0.661314
0.670274
0.678575
0.686259
0.693367
0.699937
0.705945
0.711371
0.716567
0.72137
0.725807
0.729873
0.733772
0.737479
0.741
0.744335
0.747485
0.750448
0.753221
0.7558
0.758182
0.760363
0.76233
0.764074
0.765585
0.766852
0.767869
0.768638
0.769185
0.769539
0.769753
0.769873
0.769937
0.76997
0.769986
0.769993
0.769997
0.769999
0.769999
0.77
0.77
0.77
0.77
0.77
0.77
0.77
0.77
0.77
0.77
0.77
2.25201e-06
9.84217e-06
2.261e-05
4.40157e-05
7.9727e-05
0.000138917
0.00023623
0.000394665
0.000649679
0.00105475
0.0016885
0.00266306
0.00413258
0.00629977
0.0094168
0.0137767
0.0196922
0.0274618
0.0373316
0.0494614
0.0639056
0.0806132
0.0994425
0.120183
0.142579
0.166349
0.191201
0.216846
0.243003
0.269411
0.295828
0.322038
0.347852
0.37311
0.397674
0.421434
0.444302
0.466213
0.48712
0.506995
0.525826
0.543612
0.560366
0.576108
0.590866
0.604672
0.617565
0.629584
0.640774
0.651176
0.660835
0.669794
0.678097
0.685785
0.692899
0.699479
0.705506
0.710949
0.71616
0.720976
0.725432
0.729498
0.733402
0.737117
0.740647
0.743995
0.74716
0.75014
0.752933
0.755533
0.757933
0.760127
0.762117
0.763885
0.765421
0.766714
0.767764
0.768569
0.769138
0.76951
0.769736
0.769864
0.769933
0.769968
0.769985
0.769993
0.769997
0.769999
0.769999
0.77
0.77
0.77
0.77
0.77
0.77
0.77
0.77
0.77
0.77
0.77
2.26267e-06
9.88884e-06
2.27178e-05
4.42276e-05
8.01153e-05
0.000139604
0.000237416
0.000396677
0.000653039
0.00106027
0.00169741
0.00267717
0.00415442
0.00633269
0.00946506
0.0138452
0.0197861
0.0275858
0.0374896
0.0496552
0.064135
0.0808759
0.0997341
0.120498
0.14291
0.166688
0.191539
0.217174
0.243314
0.269696
0.296081
0.322252
0.348022
0.373229
0.397742
0.421451
0.444266
0.466122
0.486975
0.506798
0.525579
0.54332
0.560031
0.575735
0.590458
0.604234
0.617101
0.6291
0.640272
0.650662
0.660312
0.669267
0.677569
0.685259
0.692378
0.698966
0.70501
0.710472
0.7157
0.720532
0.725005
0.729074
0.732983
0.736706
0.740247
0.743607
0.746787
0.749784
0.752597
0.755219
0.757646
0.759868
0.761871
0.763666
0.765237
0.766574
0.76766
0.768491
0.769083
0.769476
0.769716
0.769854
0.769927
0.769965
0.769983
0.769992
0.769997
0.769998
0.769999
0.77
0.77
0.77
0.77
0.77
0.77
0.77
0.77
0.77
0.77
0.77
2.27399e-06
9.93851e-06
2.28329e-05
4.44542e-05
8.05324e-05
0.000140344
0.000238701
0.000398872
0.000656728
0.00106638
0.00170735
0.00269302
0.00417917
0.00637038
0.00952082
0.0139252
0.0198967
0.0277336
0.0376795
0.0498905
0.0644166
0.0812018
0.1001
0.120897
0.143335
0.167129
0.191987
0.217619
0.243744
0.270103
0.296454
0.322584
0.348306
0.373459
0.397912
0.421558
0.444311
0.466106
0.486896
0.506657
0.525378
0.543062
0.559721
0.575376
0.590056
0.603793
0.616627
0.628597
0.639746
0.650117
0.659754
0.6687
0.676996
0.684686
0.691807
0.6984
0.704482
0.709957
0.715195
0.72004
0.724525
0.728601
0.732515
0.736245
0.739795
0.743168
0.746363
0.749379
0.752214
0.754862
0.757319
0.759578
0.761621
0.763453
0.765059
0.766425