/*--------------------------------*- C++ -*----------------------------------*\
  =========                 |
  \\      /  F ield         | OpenFOAM: The Open Source CFD Toolbox
   \\    /   O peration     | Website:  https://openfoam.org
    \\  /    A nd           | Version:  8
     \\/     M anipulation  |
\*---------------------------------------------------------------------------*/
FoamFile
{
    version     2.0;
    format      ascii;
    class       volScalarField;
    location    "600/fluid";
    object      O2;
}
// * * * * * * * * * * * * * * * * * * * * * * * * * * * * * * * * * * * * * //

dimensions      [0 0 0 0 0 0 0];

internalField   nonuniform List<scalar> 
4000
(
4.52267e-10
1.9747e-09
4.52702e-09
8.78568e-09
1.58508e-08
2.74907e-08
4.65084e-08
7.72736e-08
1.26465e-07
2.04049e-07
3.24478e-07
5.07955e-07
7.81492e-07
1.17927e-06
1.74185e-06
2.51236e-06
3.53076e-06
4.82655e-06
6.41193e-06
8.27773e-06
1.03936e-05
1.2712e-05
1.51738e-05
1.77148e-05
2.02703e-05
2.27793e-05
2.51863e-05
2.74434e-05
2.95106e-05
3.13571e-05
3.29627e-05
3.4321e-05
3.54458e-05
3.63805e-05
3.72122e-05
3.80854e-05
3.92156e-05
4.08998e-05
4.35274e-05
4.75966e-05
5.37423e-05
6.27804e-05
7.57666e-05
9.40724e-05
0.000119486
0.000154354
0.000201634
0.000265496
0.00035124
0.000465849
0.000618515
0.000821311
0.00109009
0.00144565
0.00191528
0.00253478
0.00335119
0.00441237
0.00579137
0.00765387
0.0101056
0.0133409
0.0176981
0.0341622
0.0508429
0.0674762
0.083857
0.0998245
0.11525
0.130029
0.144073
0.157302
0.169641
0.180961
0.191303
0.200506
0.208471
0.215102
0.220326
0.224149
0.22671
0.228272
0.229144
0.229593
0.229812
0.229915
0.229962
0.229984
0.229993
0.229997
0.229999
0.229999
0.23
0.23
0.23
0.23
0.23
0.23
0.23
0.23
4.60007e-10
2.00988e-09
4.61347e-09
8.96857e-09
1.62123e-08
2.81748e-08
4.77589e-08
7.94869e-08
1.30256e-07
2.10338e-07
3.34595e-07
5.23678e-07
8.04893e-07
1.21186e-06
1.7872e-06
2.57413e-06
3.613e-06
4.93403e-06
6.55046e-06
8.4543e-06
1.06162e-05
1.2989e-05
1.55135e-05
1.81246e-05
2.07561e-05
2.33449e-05
2.58337e-05
2.8172e-05
3.03179e-05
3.22388e-05
3.3913e-05
3.53331e-05
3.65128e-05
3.74968e-05
3.83751e-05
3.92984e-05
4.04913e-05
4.22633e-05
4.50186e-05
4.92715e-05
5.56731e-05
6.50547e-05
7.84856e-05
9.73508e-05
0.000123406
0.000158891
0.000207172
0.000272145
0.000359132
0.000475126
0.00062932
0.00083378
0.00110434
0.00146179
0.00193338
0.00255491
0.00337346
0.00443654
0.00581754
0.00768404
0.0101421
0.0133876
0.019004
0.0356034
0.052384
0.0690938
0.0855346
0.101549
0.117009
0.13181
0.145862
0.159081
0.17139
0.18265
0.192898
0.201963
0.209744
0.216144
0.221108
0.224675
0.227023
0.228436
0.229221
0.229627
0.229826
0.229921
0.229965
0.229984
0.229993
0.229997
0.229999
0.229999
0.23
0.23
0.23
0.23
0.23
0.23
0.23
0.23
4.70924e-10
2.05813e-09
4.72628e-09
9.19207e-09
1.6622e-08
2.88899e-08
4.89568e-08
8.14115e-08
1.33193e-07
2.14933e-07
3.41777e-07
5.34926e-07
8.22913e-07
1.24247e-06
1.83312e-06
2.6394e-06
3.70308e-06
5.05592e-06
6.71283e-06
8.66743e-06
1.08916e-05
1.3339e-05
1.59504e-05
1.86597e-05
2.13994e-05
2.41042e-05
2.6714e-05
2.91758e-05
3.14448e-05
3.34856e-05
3.5274e-05
3.68011e-05
3.80796e-05
3.91557e-05
4.01238e-05
4.11432e-05
4.24524e-05
4.43803e-05
4.73541e-05
5.19135e-05
5.87359e-05
6.86766e-05
8.28256e-05
0.0001025
0.000129493
0.000166464
0.000216322
0.000283138
0.000372257
0.000490695
0.000647662
0.000855243
0.00112929
0.00149059
0.00196643
0.00259267
0.0034165
0.00448469
0.00587181
0.0077477
0.0102172
0.013479
0.0213849
0.0380732
0.05493
0.0716983
0.0881772
0.104207
0.119659
0.134424
0.148409
0.16153
0.173703
0.184804
0.194829
0.203627
0.211106
0.217185
0.221837
0.225138
0.227288
0.228573
0.229286
0.229656
0.229839
0.229926
0.229967
0.229985
0.229994
0.229997
0.229999
0.23
0.23
0.23
0.23
0.23
0.23
0.23
0.23
0.23
4.81223e-10
2.10289e-09
4.82871e-09
9.39175e-09
1.6987e-08
2.95386e-08
5.01018e-08
8.34517e-08
1.36928e-07
2.21136e-07
3.51568e-07
5.49777e-07
8.44469e-07
1.27186e-06
1.87457e-06
2.69842e-06
3.78683e-06
5.17357e-06
6.87558e-06
8.88841e-06
1.11854e-05
1.37207e-05
1.6435e-05
1.92611e-05
2.21297e-05
2.49732e-05
2.77287e-05
3.03402e-05
3.27599e-05
3.49493e-05
3.68817e-05
3.85458e-05
3.99538e-05
4.11535e-05
4.22448e-05
4.33979e-05
4.48691e-05
4.70112e-05
5.02811e-05
5.52514e-05
6.26361e-05
7.33001e-05
8.82551e-05
0.000109008
0.000137657
0.000176409
0.000228416
0.000297804
0.000389979
0.000512034
0.000673266
0.000885862
0.0011658
0.00153402
0.00201804
0.00265403
0.00348962
0.00456981
0.00597156
0.00786837
0.0103696
0.0136779
0.0243941
0.0411079
0.0579914
0.0747755
0.0912508
0.107252
0.122646
0.137321
0.151183
0.164142
0.176115
0.187023
0.196776
0.205278
0.212441
0.218201
0.222553
0.225599
0.227558
0.228719
0.229359
0.229691
0.229855
0.229933
0.22997
0.229987
0.229994
0.229997
0.229999
0.23
0.23
0.23
0.23
0.23
0.23
0.23
0.23
0.23
4.92862e-10
2.15422e-09
4.94836e-09
9.62841e-09
1.74215e-08
3.03008e-08
5.13903e-08
8.55469e-08
1.40162e-07
2.26201e-07
3.59483e-07
5.62033e-07
8.6323e-07
1.30022e-06
1.9169e-06
2.76068e-06
3.87693e-06
5.30162e-06
7.05396e-06
9.13155e-06
1.15092e-05
1.4142e-05
1.69703e-05
1.9926e-05
2.2938e-05
2.59364e-05
2.88555e-05
3.16361e-05
3.42271e-05
3.6587e-05
3.8686e-05
4.05107e-05
4.20726e-05
4.34218e-05
4.46651e-05
4.5986e-05
4.76618e-05
5.00735e-05
5.37119e-05
5.91782e-05
6.71801e-05
7.86062e-05
9.47027e-05
0.000117133
0.000147613
0.000188625
0.000243404
0.000316181
0.000412493
0.000539591
0.000706971
0.000927063
0.00121615
0.00159556
0.00209328
0.00274611
0.0036014
0.00470032
0.00613171
0.00807173
0.0106259
0.0139846
0.0275985
0.0442885
0.0611671
0.077942
0.0943899
0.110338
0.125648
0.140208
0.153921
0.166701
0.178442
0.189113
0.198596
0.206804
0.21366
0.219115
0.223186
0.226
0.227791
0.228843
0.229421
0.22972
0.229868
0.229939
0.229973
0.229988
0.229995
0.229998
0.229999
0.23
0.23
0.23
0.23
0.23
0.23
0.23
0.23
0.23
5.03018e-10
2.1985e-09
5.04969e-09
9.82456e-09
1.77741e-08
3.09095e-08
5.24142e-08
8.72378e-08
1.42917e-07
2.30649e-07
3.66599e-07
5.73306e-07
8.80895e-07
1.32757e-06
1.95865e-06
2.82342e-06
3.96951e-06
5.43539e-06
7.24283e-06
9.39162e-06
1.18582e-05
1.45982e-05
1.7552e-05
2.06504e-05
2.38204e-05
2.69896e-05
3.00894e-05
3.30574e-05
3.58392e-05
3.83898e-05
4.06765e-05
4.26837e-05
4.44224e-05
4.59458e-05
4.73697e-05
4.88934e-05
5.08181e-05
5.35584e-05
5.76148e-05
6.35766e-05
7.22469e-05
8.48053e-05
0.000102481
0.00012665
0.000159313
0.000203052
0.000261231
0.000338245
0.000439845
0.000573555
0.000749222
0.000979724
0.0012819
0.0016778
0.00219625
0.00287506
0.00376208
0.00489857
0.00637913
0.00837277
0.0109828
0.0143655
0.0304438
0.047179
0.0641085
0.0809093
0.0973473
0.113247
0.128473
0.142914
0.156477
0.169077
0.18059
0.191031
0.200256
0.208186
0.214755
0.21993
0.223748
0.226357
0.227998
0.228956
0.229478
0.229748
0.229881
0.229945
0.229975
0.229989
0.229995
0.229998
0.229999
0.23
0.23
0.23
0.23
0.23
0.23
0.23
0.23
0.23
5.12243e-10
2.23873e-09
5.14178e-09
1.00032e-08
1.80969e-08
3.14712e-08
5.33704e-08
8.88414e-08
1.45575e-07
2.3501e-07
3.73681e-07
5.84682e-07
8.98952e-07
1.35584e-06
2.00225e-06
2.88949e-06
4.06766e-06
5.57797e-06
7.44496e-06
9.67083e-06
1.22338e-05
1.50903e-05
1.81806e-05
2.14344e-05
2.47768e-05
2.8133e-05
3.14312e-05
3.46058e-05
3.75986e-05
4.03613e-05
4.28576e-05
4.507e-05
4.70093e-05
4.87329e-05
5.0368e-05
5.21337e-05
5.43514e-05
5.74366e-05
6.19225e-05
6.85638e-05
7.83669e-05
9.22068e-05
0.000111372
0.000137476
0.0001726
0.000219444
0.000281536
0.00036349
0.00047135
0.000613039
0.000798936
0.00104264
0.00136195
0.0017802
0.00232793
0.00304508
0.00398359
0.00517437
0.00677891
0.00887638
0.011612
0.0151036
0.032123
0.049379
0.0665903
0.0835277
0.100008
0.115883
0.131035
0.145363
0.158783
0.171218
0.182542
0.192777
0.201758
0.209422
0.215721
0.22064
0.224233
0.226661
0.228175
0.229051
0.229526
0.229771
0.229892
0.22995
0.229977
0.22999
0.229996
0.229998
0.229999
0.23
0.23
0.23
0.23
0.23
0.23
0.23
0.23
0.23
5.20984e-10
2.27688e-09
5.22931e-09
1.01736e-08
1.84059e-08
3.20118e-08
5.42963e-08
9.04048e-08
1.48186e-07
2.39329e-07
3.80754e-07
5.96144e-07
9.17307e-07
1.38484e-06
2.04736e-06
2.95838e-06
4.17071e-06
5.72855e-06
7.65944e-06
9.96825e-06
1.26351e-05
1.56175e-05
1.88556e-05
2.22781e-05
2.58083e-05
2.93687e-05
3.28845e-05
3.62865e-05
3.95127e-05
4.25108e-05
4.52414e-05
4.76839e-05
4.98493e-05
5.17995e-05
5.36743e-05
5.56918e-05
5.81727e-05
6.16228e-05
6.67089e-05
7.43041e-05
8.51472e-05
0.000100321
0.000121168
0.000149387
0.00018716
0.000237323
0.000303581
0.000390788
0.000505316
0.000655537
0.000852458
0.00111057
0.00144897
0.0018929
0.0024758
0.00324212
0.00424964
0.00554177
0.00730353
0.0096386
0.0127508
0.0168478
0.0341608
0.0516269
0.0689659
0.0859604
0.10244
0.118268
0.133332
0.14754
0.160811
0.173072
0.184206
0.194213
0.202993
0.210461
0.216543
0.221244
0.224644
0.226919
0.228324
0.229132
0.229568
0.229792
0.229902
0.229955
0.229979
0.229991
0.229996
0.229998
0.229999
0.23
0.23
0.23
0.23
0.23
0.23
0.23
0.23
0.23
5.29508e-10
2.31412e-09
5.31491e-09
1.03406e-08
1.87099e-08
3.25459e-08
5.52153e-08
9.19649e-08
1.50807e-07
2.43689e-07
3.87939e-07
6.07861e-07
9.36186e-07
1.41484e-06
2.09425e-06
3.03034e-06
4.27879e-06
5.88704e-06
7.88591e-06
1.02832e-05
1.30612e-05
1.61787e-05
1.95759e-05
2.31809e-05
2.6915e-05
3.06982e-05
3.44526e-05
3.81053e-05
4.15904e-05
4.48514e-05
4.78452e-05
5.05486e-05
5.29726e-05
5.51823e-05
5.7297e-05
5.95307e-05
6.23261e-05
6.6351e-05
7.22639e-05
8.07262e-05
9.26817e-05
0.000109264
0.000131872
0.000162274
0.000202744
0.000256232
0.000326595
0.000418883
0.000539723
0.00069782
0.000904624
0.00117521
0.00152946
0.00199365
0.00260263
0.00340273
0.00444742
0.00579441
0.00763294
0.0100694
0.0133172
0.0187757
0.036253
0.0538212
0.071211
0.0882122
0.104659
0.120421
0.135388
0.149471
0.162587
0.174655
0.185573
0.195378
0.203968
0.211277
0.217214
0.221753
0.224992
0.227137
0.228451
0.2292
0.229603
0.229809
0.22991
0.229958
0.229981
0.229992
0.229996
0.229998
0.229999
0.23
0.23
0.23
0.23
0.23
0.23
0.23
0.23
0.23
5.37902e-10
2.35082e-09
5.39935e-09
1.05056e-08
1.90109e-08
3.30762e-08
5.61307e-08
9.35244e-08
1.53437e-07
2.48084e-07
3.95215e-07
6.19782e-07
9.55483e-07
1.44565e-06
2.14262e-06
3.10487e-06
4.39114e-06
6.05237e-06
8.12294e-06
1.06138e-05
1.351e-05
1.67716e-05
2.03395e-05
2.41411e-05
2.80961e-05
3.21222e-05
3.61382e-05
4.00674e-05
4.384e-05
4.73951e-05
5.06856e-05
5.36856e-05
5.63994e-05
5.88636e-05
6.12208e-05
6.38347e-05
6.72521e-05
7.19154e-05
7.85309e-05
8.79219e-05
0.000101062
0.000119122
0.000143549
0.000176167
0.000219322
0.000276056
0.000350336
0.000447344
0.000573867
0.000738792
0.000953778
0.00123412
0.00159993
0.00207764
0.00270214
0.00351948
0.00458095
0.00594118
0.00778785
0.0102158
0.0134168
0.0208428
0.038343
0.0559172
0.0732933
0.0902602
0.106652
0.122336
0.137207
0.151174
0.164153
0.176071
0.186919
0.19658
0.204978
0.212044
0.217779
0.22218
0.225289
0.227323
0.228558
0.229258
0.229632
0.229823
0.229917
0.229962
0.229983
0.229992
0.229997
0.229999
0.229999
0.23
0.23
0.23
0.23
0.23
0.23
0.23
0.23
0.23
5.46164e-10
2.38695e-09
5.48256e-09
1.06685e-08
1.93086e-08
3.36016e-08
5.70401e-08
9.50785e-08
1.56066e-07
2.52494e-07
4.02542e-07
6.31831e-07
9.75061e-07
1.47701e-06
2.19205e-06
3.18129e-06
4.50673e-06
6.22304e-06
8.36844e-06
1.09575e-05
1.39781e-05
1.73924e-05
2.11422e-05
2.51545e-05
2.93482e-05
3.36384e-05
3.79412e-05
4.21761e-05
4.62689e-05
5.01541e-05
5.37807e-05
5.711e-05
6.01132e-05
6.28765e-05
6.5639e-05
6.88351e-05
7.27925e-05
7.81251e-05
8.5575e-05
9.60075e-05
0.000110433
0.00013006
0.000156376
0.000191259
0.000237115
0.000297057
0.000375135
0.000476626
0.000608414
0.000779494
0.00100162
0.00129016
0.00166524
0.00215327
0.00278889
0.00361769
0.0046887
0.00605658
0.00790872
0.0103365
0.0135279
0.0227853
0.0402824
0.0578368
0.0751766
0.0920896
0.108409
0.124006
0.138778
0.152638
0.165514
0.177364
0.18809
0.197617
0.205874
0.2128
0.218357
0.22256
0.225548
0.227483
0.22865
0.229307
0.229658
0.229835
0.229923
0.229964
0.229984
0.229993
0.229997
0.229999
0.229999
0.23
0.23
0.23
0.23
0.23
0.23
0.23
0.23
0.23
5.54224e-10
2.42221e-09
5.56382e-09
1.08277e-08
1.96e-08
3.4117e-08
5.79343e-08
9.66102e-08
1.58665e-07
2.56865e-07
4.09829e-07
6.43851e-07
9.94657e-07
1.50851e-06
2.24186e-06
3.25855e-06
4.62402e-06
6.39683e-06
8.61935e-06
1.13101e-05
1.44603e-05
1.80348e-05
2.19767e-05
2.62136e-05
3.06636e-05
3.52403e-05
3.98573e-05
4.44303e-05
4.88808e-05
5.31378e-05
5.71348e-05
6.07907e-05
6.41242e-05
6.73723e-05
7.07476e-05
7.44822e-05
7.90746e-05
8.51803e-05
9.3579e-05
0.000105169
0.000120993
0.000142294
0.0001706
0.000207836
0.000256463
0.000319661
0.000401548
0.000507479
0.00064442
0.000821441
0.00105037
0.00134661
0.00173033
0.00222786
0.00287362
0.00371235
0.00479258
0.00617058
0.0080306
0.0104617
0.0136506
0.024503
0.0419953
0.0595253
0.0768197
0.0936653
0.109906
0.125429
0.140131
0.153924
0.166739
0.178484
0.189094
0.198498
0.206623
0.213413
0.218833
0.222908
0.225758
0.227617
0.228726
0.229348
0.229678
0.229845
0.229927
0.229966
0.229985
0.229993
0.229997
0.229999
0.229999
0.23
0.23
0.23
0.23
0.23
0.23
0.23
0.23
0.23
5.61973e-10
2.45612e-09
5.64202e-09
1.0981e-08
1.9881e-08
3.46149e-08
5.87996e-08
9.8096e-08
1.61192e-07
2.61128e-07
4.16953e-07
6.5564e-07
1.01393e-06
1.5396e-06
2.29118e-06
3.33532e-06
4.74096e-06
6.57077e-06
8.87149e-06
1.1666e-05
1.49494e-05
1.86895e-05
2.28318e-05
2.73051e-05
3.20276e-05
3.69126e-05
4.18719e-05
4.6819e-05
5.16718e-05
5.63535e-05
6.07631e-05
6.48662e-05
6.88243e-05
7.2633e-05
7.65319e-05
8.08908e-05
8.62287e-05
9.3232e-05
0.00010271
0.000115589
0.000132941
0.000156043
0.000186463
0.000226174
0.000277691
0.000344256
0.000430057
0.00054052
0.000682684
0.00086569
0.00110142
0.00140534
0.00179761
0.00230436
0.00295968
0.00380914
0.00490006
0.00628747
0.00815583
0.0105915
0.0137741
0.0259734
0.0434716
0.0609846
0.0782402
0.0950544
0.111269
0.126745
0.141381
0.155094
0.167806
0.179447
0.189952
0.199244
0.207253
0.213924
0.219226
0.223192
0.22595
0.227723
0.228788
0.229382
0.229695
0.229854
0.229931
0.229968
0.229986
0.229994
0.229997
0.229999
0.229999
0.23
0.23
0.23
0.23
0.23
0.23
0.23
0.23
0.23
5.6927e-10
2.48805e-09
5.7157e-09
1.11257e-08
2.01464e-08
3.50857e-08
5.96194e-08
9.95063e-08
1.63597e-07
2.65193e-07
4.23766e-07
6.66944e-07
1.03247e-06
1.56959e-06
2.33892e-06
3.4099e-06
4.85501e-06
6.74109e-06
9.11949e-06
1.20177e-05
1.54351e-05
1.93435e-05
2.3691e-05
2.84086e-05
3.34161e-05
3.86272e-05
4.39539e-05
4.93097e-05
5.46125e-05
5.97626e-05
6.46899e-05
6.94103e-05
7.39286e-05
7.83538e-05
8.29403e-05
8.80846e-05
9.43275e-05
0.000102386
0.000113096
0.000127411
0.000146433
0.000171475
0.000204146
0.00024647
0.000301019
0.000371095
0.000460954
0.000576091
0.000723614
0.000912729
0.00115538
0.00146698
0.00186741
0.00238296
0.00304874
0.00390963
0.00501012
0.00640703
0.00828409
0.0107255
0.0138962
0.0272168
0.0447306
0.0622343
0.0794828
0.0962669
0.112431
0.12785
0.142423
0.156064
0.168697
0.180254
0.19067
0.199868
0.207778
0.214348
0.21955
0.223423
0.226103
0.227819
0.228838
0.229408
0.229709
0.229861
0.229934
0.22997
0.229986
0.229994
0.229997
0.229999
0.229999
0.23
0.23
0.23
0.23
0.23
0.23
0.23
0.23
0.23
5.75955e-10
2.51732e-09
5.78324e-09
1.12583e-08
2.039e-08
3.55186e-08
6.03745e-08
1.00808e-07
1.65821e-07
2.68961e-07
4.30097e-07
6.77478e-07
1.0498e-06
1.59771e-06
2.38382e-06
3.4803e-06
4.9631e-06
6.90322e-06
9.35666e-06
1.23558e-05
1.59046e-05
1.99792e-05
2.45315e-05
2.94953e-05
3.47928e-05
4.0339e-05
4.60468e-05
5.18292e-05
5.75981e-05
6.32448e-05
6.8748e-05
7.41439e-05
7.93656e-05
8.45514e-05
8.99887e-05
9.60924e-05
0.000103414
0.000112695
0.000124796
0.000140695
0.000161528
0.000188645
0.000223703
0.000268777
0.000326497
0.000400227
0.000494286
0.000614237
0.000767248
0.000962525
0.0012119
0.00153084
0.00193964
0.00246494
0.00314029
0.00401024
0.0051185
0.00652236
0.00840492
0.0108492
0.0140121
0.0282521
0.0457871
0.0632928
0.0805198
0.0972718
0.113395
0.128765
0.143283
0.156864
0.169432
0.18092
0.191262
0.200382
0.208211
0.214697
0.219816
0.223612
0.226228
0.227895
0.228882
0.22943
0.22972
0.229866
0.229937
0.229971
0.229987
0.229994
0.229997
0.229999
0.23
0.23
0.23
0.23
0.23
0.23
0.23
0.23
0.23
0.23
5.81859e-10
2.54316e-09
5.84293e-09
1.13756e-08
2.06057e-08
3.59023e-08
6.10446e-08
1.01965e-07
1.67801e-07
2.72324e-07
4.35762e-07
6.86928e-07
1.06539e-06
1.62308e-06
2.42449e-06
3.5443e-06
5.06175e-06
7.05186e-06
9.57518e-06
1.2669e-05
1.63422e-05
2.05755e-05
2.53253e-05
3.05294e-05
3.61131e-05
4.19943e-05
4.80868e-05
5.43035e-05
6.05455e-05
6.67932e-05
7.30076e-05
7.90959e-05
8.50946e-05
9.11612e-05
9.7607e-05
0.000104844
0.000113415
0.000124079
0.000137714
0.00015533
0.000178093
0.0002074
0.000244956
0.00029289
0.000353895
0.000431397
0.000529759
0.00065456
0.000812926
0.00101413
0.00127022
0.00159698
0.00201441
0.00254801
0.00323135
0.00410812
0.00522055
0.00662369
0.00849691
0.0109158
0.0140158
0.0290956
0.046645
0.0641514
0.0813634
0.0980894
0.114178
0.129508
0.143981
0.157512
0.170027
0.181458
0.191741
0.200797
0.20856
0.214977
0.220029
0.223764
0.226327
0.227956
0.228916
0.229449
0.229729
0.22987
0.229939
0.229972
0.229987
0.229994
0.229997
0.229999
0.23
0.23
0.23
0.23
0.23
0.23
0.23
0.23
0.23
0.23
5.86816e-10
2.56487e-09
5.89307e-09
1.14743e-08
2.07872e-08
3.62254e-08
6.16097e-08
1.02942e-07
1.69477e-07
2.75176e-07
4.40574e-07
6.94976e-07
1.0787e-06
1.64481e-06
2.45943e-06
3.59949e-06
5.14717e-06
7.18113e-06
9.76618e-06
1.29442e-05
1.67292e-05
2.11067e-05
2.60383e-05
3.1467e-05
3.73237e-05
4.35323e-05
5.00142e-05
5.66912e-05
6.34823e-05
7.03301e-05
7.71806e-05
8.40084e-05
9.08639e-05
9.79299e-05
0.000105537
0.000114067
0.000124032
0.0001362
0.000151472
0.000170886
0.00019565
0.000227206
0.000267312
0.000318149
0.000382458
0.000463697
0.000566259
0.000695833
0.000859727
0.00106747
0.00133106
0.00166564
0.00209113
0.00263317
0.00332498
0.00420971
0.0053283
0.00673552
0.00860966
0.0110248
0.01411
0.0297447
0.047322
0.0648308
0.0820313
0.0987361
0.114797
0.130094
0.14453
0.158021
0.170494
0.181879
0.192115
0.201121
0.208832
0.215195
0.220194
0.223881
0.226404
0.228002
0.228943
0.229463
0.229737
0.229874
0.229941
0.229973
0.229988
0.229994
0.229998
0.229999
0.23
0.23
0.23
0.23
0.23
0.23
0.23
0.23
0.23
0.23
5.90674e-10
2.58176e-09
5.93211e-09
1.15511e-08
2.09286e-08
3.64775e-08
6.20512e-08
1.03707e-07
1.7079e-07
2.77414e-07
4.44358e-07
7.01317e-07
1.08921e-06
1.66202e-06
2.48718e-06
3.64346e-06
5.21547e-06
7.2849e-06
9.92016e-06
1.31672e-05
1.70443e-05
2.15417e-05
2.66257e-05
3.22443e-05
3.83337e-05
4.48236e-05
5.1641e-05
5.87137e-05
6.59866e-05
7.33934e-05
8.08903e-05
8.84741e-05
9.62241e-05
0.000104361
0.000113228
0.000123147
0.000134578
0.000148292
0.000165206
0.000186389
0.000213089
0.0002468
0.000289334
0.000342923
0.000410373
0.000495242
0.000602071
0.000736681
0.000906413
0.00112047
0.00139085
0.00173293
0.00216648
0.00271696
0.00341725
0.00430994
0.00543468
0.00684561
0.00871921
0.0111264
0.0141874
0.0302228
0.0478268
0.0653416
0.0825347
0.0992232
0.115262
0.130533
0.14494
0.1584
0.17084
0.182192
0.192392
0.201361
0.209032
0.215356
0.220316
0.223966
0.22646
0.228036
0.228962
0.229473
0.229742
0.229877
0.229942
0.229973
0.229988
0.229995
0.229998
0.229999
0.23
0.23
0.23
0.23
0.23
0.23
0.23
0.23
0.23
0.23
5.93306e-10
2.59329e-09
5.95875e-09
1.16035e-08
2.10252e-08
3.66496e-08
6.23526e-08
1.04229e-07
1.71687e-07
2.78944e-07
4.4695e-07
7.05666e-07
1.09644e-06
1.67387e-06
2.50632e-06
3.67386e-06
5.26284e-06
7.35712e-06
1.00277e-05
1.33236e-05
1.72663e-05
2.18496e-05
2.70437e-05
3.28008e-05
3.90617e-05
4.57614e-05
5.28338e-05
6.02156e-05
6.78597e-05
7.57139e-05
8.37439e-05
9.1969e-05
0.000100502
0.000109602
0.000119603
0.000130873
0.000143701
0.000158835
0.000177219
0.00019996
0.000228359
0.000263961
0.000308641
0.000364719
0.000435079
0.000523343
0.000634101
0.000773074
0.000947647
0.00116721
0.00144376
0.00179265
0.00223355
0.00279175
0.00349977
0.00439961
0.00552968
0.00694303
0.00881399
0.0112097
0.0142425
0.0305387
0.0481692
0.0656916
0.0828802
0.0995567
0.115579
0.130831
0.145217
0.158655
0.171072
0.1824
0.192575
0.201519
0.209164
0.215461
0.220395
0.224021
0.226496
0.228057
0.228974
0.22948
0.229745
0.229878
0.229943
0.229974
0.229988
0.229995
0.229998
0.229999
0.23
0.23
0.23
0.23
0.23
0.23
0.23
0.23
0.23
0.23
5.94622e-10
2.59905e-09
5.97202e-09
1.16295e-08
2.1073e-08
3.67346e-08
6.2501e-08
1.04485e-07
1.72127e-07
2.79693e-07
4.48216e-07
7.07789e-07
1.09996e-06
1.67965e-06
2.51568e-06
3.68876e-06
5.28612e-06
7.39274e-06
1.0081e-05
1.34015e-05
1.73775e-05
2.20049e-05
2.7256e-05
3.30857e-05
3.94378e-05
4.6251e-05
5.34634e-05
6.10167e-05
6.88597e-05
7.69521e-05
8.52769e-05
9.3867e-05
0.000102853
0.000112497
0.000123197
0.000135384
0.000149433
0.000165657
0.000185091
0.000208909
0.000238462
0.000275346
0.000321478
0.000379213
0.000451469
0.000541907
0.000655137
0.000796992
0.000974883
0.00119824
0.0014791
0.00183279
0.00227898
0.00284281
0.00355658
0.00446186
0.00559612
0.00701136
0.00887982
0.0112649
0.0142714
0.0306949
0.0483486
0.0658776
0.0830635
0.0997323
0.115744
0.130984
0.145358
0.158784
0.171188
0.182503
0.192666
0.201596
0.209227
0.215511
0.220432
0.224047
0.226512
0.228068
0.22898
0.229483
0.229747
0.229879
0.229943
0.229974
0.229988
0.229995
0.229998
0.229999
0.23
0.23
0.23
0.23
0.23
0.23
0.23
0.23
0.23
0.23
5.94625e-10
2.59906e-09
5.97204e-09
1.16296e-08
2.10731e-08
3.67347e-08
6.25013e-08
1.04486e-07
1.72128e-07
2.79695e-07
4.48219e-07
7.07794e-07
1.09997e-06
1.67967e-06
2.51571e-06
3.68881e-06
5.28619e-06
7.39284e-06
1.00812e-05
1.34017e-05
1.73778e-05
2.20054e-05
2.72567e-05
3.30866e-05
3.9439e-05
4.62525e-05
5.34653e-05
6.10188e-05
6.88617e-05
7.69536e-05
8.52778e-05
9.38674e-05
0.000102853
0.000112497
0.000123197
0.000135384
0.000149433
0.000165657
0.000185092
0.00020891
0.000238464
0.000275349
0.000321484
0.000379221
0.000451483
0.000541924
0.000655153
0.000797005
0.000974894
0.00119825
0.0014791
0.0018328
0.00227898
0.00284281
0.00355659
0.00446188
0.00559613
0.00701138
0.00887984
0.0112649
0.0142714
0.0306951
0.0483488
0.0658778
0.0830637
0.0997324
0.115744
0.130984
0.145358
0.158784
0.171188
0.182503
0.192666
0.201596
0.209227
0.215511
0.220432
0.224047
0.226512
0.228068
0.22898
0.229483
0.229747
0.229879
0.229943
0.229974
0.229988
0.229995
0.229998
0.229999
0.23
0.23
0.23
0.23
0.23
0.23
0.23
0.23
0.23
0.23
5.93312e-10
2.59332e-09
5.95881e-09
1.16036e-08
2.10254e-08
3.665e-08
6.23534e-08
1.0423e-07
1.7169e-07
2.78949e-07
4.46958e-07
7.05681e-07
1.09646e-06
1.67391e-06
2.50639e-06
3.67398e-06
5.26301e-06
7.35738e-06
1.00281e-05
1.33242e-05
1.72671e-05
2.18508e-05
2.70453e-05
3.2803e-05
3.90648e-05
4.57659e-05
5.284e-05
6.02237e-05
6.7869e-05
7.57179e-05
8.3745e-05
9.19689e-05
0.000100501
0.000109601
0.000119601
0.000130871
0.0001437
0.000158834
0.000177218
0.00019996
0.00022836
0.000263964
0.00030865
0.000364739
0.000435117
0.000523415
0.000634138
0.000773096
0.000947664
0.00116723
0.00144378
0.00179267
0.00223358
0.00279177
0.0034998
0.00439964
0.00552972
0.00694308
0.00881405
0.0112098
0.0142426
0.0305393
0.0481698
0.0656921
0.0828806
0.0995571
0.115579
0.130831
0.145217
0.158655
0.171072
0.1824
0.192576
0.201519
0.209164
0.215461
0.220395
0.224021
0.226496
0.228058
0.228974
0.22948
0.229745
0.229878
0.229943
0.229974
0.229988
0.229995
0.229998
0.229999
0.23
0.23
0.23
0.23
0.23
0.23
0.23
0.23
0.23
0.23
5.90681e-10
2.5818e-09
5.93219e-09
1.15512e-08
2.09289e-08
3.6478e-08
6.2052e-08
1.03708e-07
1.70792e-07
2.77418e-07
4.44366e-07
7.01329e-07
1.08923e-06
1.66206e-06
2.48723e-06
3.64353e-06
5.21558e-06
7.28505e-06
9.92036e-06
1.31675e-05
1.70446e-05
2.1542e-05
2.66259e-05
3.22444e-05
3.83337e-05
4.48233e-05
5.16408e-05
5.87143e-05
6.59835e-05
7.33913e-05
8.08895e-05
8.84745e-05
9.62254e-05
0.000104363
0.000113231
0.000123151
0.000134582
0.000148296
0.00016521
0.000186392
0.000213092
0.000246802
0.000289332
0.000342912
0.000410347
0.000495182
0.000602049
0.000736678
0.00090642
0.00112048
0.00139087
0.00173296
0.00216651
0.002717
0.0034173
0.00431
0.00543475
0.00684568
0.0087193
0.0111265
0.0141876
0.0302238
0.0478276
0.0653424
0.0825354
0.0992239
0.115262
0.130533
0.14494
0.158401
0.170841
0.182192
0.192392
0.201361
0.209032
0.215356
0.220316
0.223966
0.22646
0.228036
0.228962
0.229473
0.229742
0.229877
0.229942
0.229973
0.229988
0.229995
0.229998
0.229999
0.23
0.23
0.23
0.23
0.23
0.23
0.23
0.23
0.23
0.23
5.86825e-10
2.56491e-09
5.89317e-09
1.14744e-08
2.07875e-08
3.6226e-08
6.16108e-08
1.02944e-07
1.6948e-07
2.75181e-07
4.40583e-07
6.94991e-07
1.07872e-06
1.64485e-06
2.45948e-06
3.59956e-06
5.14727e-06
7.18125e-06
9.76629e-06
1.29443e-05
1.67291e-05
2.11064e-05
2.60375e-05
3.14653e-05
3.73204e-05
4.35262e-05
5.00029e-05
5.66707e-05
6.34476e-05
7.0313e-05
7.71723e-05
8.40048e-05
9.08629e-05
9.79305e-05
0.000105539
0.000114069
0.000124034
0.000136203
0.000151475
0.000170889
0.000195652
0.000227206
0.000267309
0.000318142
0.000382447
0.000463686
0.000566254
0.000695835
0.000859737
0.00106749
0.00133108
0.00166568
0.00209117
0.00263322
0.00332504
0.00420978
0.00532838
0.00673561
0.00860977
0.011025
0.0141101
0.0297459
0.0473233
0.0648319
0.0820324
0.098737
0.114798
0.130095
0.144531
0.158022
0.170494
0.18188
0.192115
0.201122
0.208832
0.215196
0.220195
0.223881
0.226404
0.228002
0.228943
0.229463
0.229737
0.229874
0.229941
0.229973
0.229988
0.229994
0.229998
0.229999
0.23
0.23
0.23
0.23
0.23
0.23
0.23
0.23
0.23
0.23
5.8187e-10
2.54321e-09
5.84305e-09
1.13759e-08
2.06062e-08
3.5903e-08
6.10459e-08
1.01967e-07
1.67805e-07
2.72331e-07
4.35772e-07
6.86944e-07
1.06541e-06
1.62312e-06
2.42454e-06
3.54437e-06
5.06183e-06
7.05193e-06
9.57521e-06
1.26689e-05
1.63419e-05
2.0575e-05
2.53244e-05
3.0528e-05
3.61112e-05
4.19923e-05
4.80861e-05
5.43072e-05
6.05638e-05
6.68004e-05
7.30103e-05
7.90968e-05
8.50951e-05
9.11619e-05
9.76082e-05
0.000104846
0.000113418
0.000124082
0.000137718
0.000155334
0.000178098
0.000207405
0.000244961
0.000292895
0.000353901
0.000431405
0.000529769
0.000654574
0.000812942
0.00101415
0.00127024
0.00159701
0.00201446
0.00254806
0.00323142
0.0041082
0.00522064
0.0066238
0.00849705
0.010916
0.014016
0.0290973
0.0466466
0.0641529
0.0813648
0.0980906
0.114179
0.129509
0.143982
0.157513
0.170028
0.181459
0.191741
0.200797
0.20856
0.214977
0.220029
0.223764
0.226328
0.227956
0.228917
0.229449
0.229729
0.22987
0.229939
0.229972
0.229987
0.229994
0.229997
0.229999
0.23
0.23
0.23
0.23
0.23
0.23
0.23
0.23
0.23
0.23
5.75969e-10
2.51737e-09
5.78338e-09
1.12586e-08
2.03905e-08
3.55195e-08
6.0376e-08
1.0081e-07
1.65825e-07
2.68968e-07
4.30108e-07
6.77495e-07
1.04983e-06
1.59774e-06
2.38388e-06
3.48037e-06
4.96317e-06
6.90328e-06
9.35669e-06
1.23557e-05
1.59045e-05
1.99789e-05
2.45309e-05
2.94947e-05
3.47921e-05
4.03388e-05
4.60473e-05
5.1831e-05
5.76027e-05
6.32473e-05
6.8749e-05
7.41445e-05
7.93661e-05
8.45522e-05
8.99898e-05
9.6094e-05
0.000103416
0.000112698
0.000124799
0.000140699
0.000161533
0.000188651
0.00022371
0.000268785
0.000326506
0.000400239
0.0004943
0.000614254
0.000767269
0.000962551
0.00121192
0.00153087
0.00193968
0.002465
0.00314036
0.00401032
0.0051186
0.00652248
0.00840506
0.0108493
0.0140123
0.0282542
0.0457891
0.0632947
0.0805216
0.0972735
0.113396
0.128767
0.143284
0.156865
0.169433
0.18092
0.191263
0.200382
0.208211
0.214697
0.219816
0.223613
0.226228
0.227895
0.228882
0.22943
0.22972
0.229866
0.229937
0.229971
0.229987
0.229994
0.229997
0.229999
0.23
0.23
0.23
0.23
0.23
0.23
0.23
0.23
0.23
0.23
5.69286e-10
2.48812e-09
5.71586e-09
1.1126e-08
2.01469e-08
3.50866e-08
5.96211e-08
9.95091e-08
1.63602e-07
2.652e-07
4.23778e-07
6.66963e-07
1.0325e-06
1.56963e-06
2.33897e-06
3.40997e-06
4.85509e-06
6.74117e-06
9.11954e-06
1.20177e-05
1.5435e-05
1.93432e-05
2.36906e-05
2.84081e-05
3.34156e-05
3.86268e-05
4.39539e-05
4.93101e-05
5.46127e-05
5.97649e-05
6.46934e-05
6.94138e-05
7.39316e-05
7.83563e-05
8.29426e-05
8.80868e-05
9.43298e-05
0.000102388
0.000113099
0.000127415
0.000146438
0.00017148
0.000204153
0.000246478
0.000301029
0.000371107
0.000460969
0.000576108
0.000723635
0.000912755
0.00115541
0.00146702
0.00186746
0.00238302
0.00304881
0.00390972
0.00501022
0.00640715
0.00828424
0.0107256
0.0138963
0.0272194
0.0447331
0.0622366
0.0794849
0.0962689
0.112433
0.127852
0.142424
0.156065
0.168698
0.180255
0.190671
0.199868
0.207779
0.214348
0.21955
0.223423
0.226103
0.227819
0.228838
0.229408
0.229709
0.229861
0.229934
0.22997
0.229986
0.229994
0.229997
0.229999
0.229999
0.23
0.23
0.23
0.23
0.23
0.23
0.23
0.23
0.23
5.61991e-10
2.4562e-09
5.6422e-09
1.09814e-08
1.98816e-08
3.4616e-08
5.88015e-08
9.80991e-08
1.61198e-07
2.61136e-07
4.16966e-07
6.5566e-07
1.01396e-06
1.53964e-06
2.29124e-06
3.3354e-06
4.74107e-06
6.57089e-06
8.87163e-06
1.16662e-05
1.49495e-05
1.86897e-05
2.2832e-05
2.73053e-05
3.2028e-05
3.69133e-05
4.18729e-05
4.68207e-05
5.16747e-05
5.63584e-05
6.07691e-05
6.48695e-05
6.88259e-05
7.26335e-05
7.65317e-05
8.08903e-05
8.62285e-05
9.32323e-05
0.000102711
0.000115591
0.000132944
0.000156048
0.000186469
0.00022618
0.0002777
0.000344267
0.000430071
0.000540536
0.000682704
0.000865716
0.00110145
0.00140538
0.00179766
0.00230441
0.00295974
0.00380922
0.00490016
0.00628759
0.00815597
0.0105917
0.0137742
0.0259765
0.0434746
0.0609873
0.0782428
0.0950568
0.111271
0.126747
0.141383
0.155095
0.167807
0.179448
0.189953
0.199245
0.207254
0.213924
0.219226
0.223192
0.22595
0.227723
0.228788
0.229382
0.229695
0.229854
0.229931
0.229968
0.229986
0.229994
0.229997
0.229999
0.229999
0.23
0.23
0.23
0.23
0.23
0.23
0.23
0.23
0.23
5.54245e-10
2.4223e-09
5.56403e-09
1.08281e-08
1.96007e-08
3.41182e-08
5.79364e-08
9.66137e-08
1.58671e-07
2.56874e-07
4.09843e-07
6.43874e-07
9.94691e-07
1.50856e-06
2.24193e-06
3.25865e-06
4.62414e-06
6.39697e-06
8.61951e-06
1.13103e-05
1.44605e-05
1.8035e-05
2.19769e-05
2.62138e-05
3.06638e-05
3.52405e-05
3.98574e-05
4.44303e-05
4.88803e-05
5.31361e-05
5.71328e-05
6.07914e-05
6.4125e-05
6.73733e-05
7.07487e-05
7.44831e-05
7.90754e-05
8.51812e-05
9.35802e-05
0.000105171
0.000120996
0.000142298
0.000170605