/*--------------------------------*- C++ -*----------------------------------*\
  =========                 |
  \\      /  F ield         | OpenFOAM: The Open Source CFD Toolbox
   \\    /   O peration     | Website:  https://openfoam.org
    \\  /    A nd           | Version:  8
     \\/     M anipulation  |
\*---------------------------------------------------------------------------*/
FoamFile
{
    version     2.0;
    format      ascii;
    class       surfaceScalarField;
    location    "600/fluid";
    object      phi;
}
// * * * * * * * * * * * * * * * * * * * * * * * * * * * * * * * * * * * * * //

dimensions      [1 0 -1 0 0 0 0];

internalField   nonuniform List<scalar> 
7860
(
6.57283e-07
-1.771e-08
6.54641e-07
-5.3125e-08
6.50881e-07
-8.83602e-08
6.45894e-07
-1.23315e-07
6.39549e-07
-1.57993e-07
6.31687e-07
-1.92348e-07
6.22123e-07
-2.263e-07
6.10663e-07
-2.59729e-07
5.97106e-07
-2.92472e-07
5.81257e-07
-3.24311e-07
5.62946e-07
-3.54962e-07
5.42051e-07
-3.84062e-07
5.18538e-07
-4.1116e-07
4.92561e-07
-4.35717e-07
4.644e-07
-4.571e-07
4.34407e-07
-4.74645e-07
4.03042e-07
-4.87791e-07
3.70839e-07
-4.96231e-07
3.38353e-07
-5.00033e-07
3.06093e-07
-4.99665e-07
2.74468e-07
-4.95899e-07
2.43771e-07
-4.89635e-07
2.14182e-07
-4.81732e-07
1.85833e-07
-4.72894e-07
1.58779e-07
-4.63615e-07
1.32987e-07
-4.54202e-07
1.08389e-07
-4.44824e-07
8.49093e-08
-4.35555e-07
6.24764e-08
-4.2641e-07
4.10266e-08
-4.17373e-07
2.05065e-08
-4.08419e-07
8.70246e-10
-3.9952e-07
-1.7912e-08
-3.90658e-07
-3.58648e-08
-3.81823e-07
-5.30205e-08
-3.73018e-07
-6.94036e-08
-3.64235e-07
-8.50341e-08
-3.55433e-07
-9.99307e-08
-3.46621e-07
-1.14112e-07
-3.37819e-07
-1.27595e-07
-3.29046e-07
-1.40398e-07
-3.20325e-07
-1.52539e-07
-3.11681e-07
-1.64036e-07
-3.03136e-07
-1.74907e-07
-2.94718e-07
-1.85171e-07
-2.8645e-07
-1.94846e-07
-2.78358e-07
-2.03952e-07
-2.70467e-07
-2.12507e-07
-2.62802e-07
-2.20531e-07
-2.55387e-07
-2.28043e-07
-2.48248e-07
-2.35064e-07
-2.41408e-07
-2.41615e-07
-2.34895e-07
-2.47718e-07
-2.28738e-07
-2.53397e-07
-2.22969e-07
-2.5868e-07
-2.17626e-07
-2.63599e-07
-2.12753e-07
-2.68195e-07
-2.08404e-07
-2.72521e-07
-2.04671e-07
-2.76634e-07
-2.01626e-07
-2.80602e-07
-1.99329e-07
-2.84539e-07
-1.98023e-07
-2.8886e-07
-1.97896e-07
-2.93938e-07
-1.99506e-07
-3.00849e-07
-2.10597e-07
-3.08824e-07
-2.23007e-07
-3.17654e-07
-2.36693e-07
-3.27387e-07
-2.51833e-07
-3.38141e-07
-2.68668e-07
-3.50077e-07
-2.8747e-07
-3.63408e-07
-3.08566e-07
-3.78427e-07
-3.3235e-07
-3.95526e-07
-3.59289e-07
-4.1523e-07
-3.89917e-07
-4.38221e-07
-4.24956e-07
-4.65359e-07
-4.65075e-07
-4.97621e-07
-5.1031e-07
-5.35918e-07
-5.59614e-07
-5.80567e-07
-6.1009e-07
-6.31335e-07
-6.56288e-07
-6.87058e-07
-6.911e-07
-7.45396e-07
-7.08856e-07
-8.03408e-07
-7.08422e-07
-8.58555e-07
-6.93006e-07
-9.09252e-07
-6.67284e-07
-9.54821e-07
-6.35295e-07
-9.95074e-07
-5.99655e-07
-1.02989e-06
-5.61807e-07
-1.05961e-06
-5.22444e-07
-1.08476e-06
-4.82003e-07
-1.10591e-06
-4.40815e-07
-1.12353e-06
-3.99133e-07
-1.13808e-06
-3.57152e-07
-1.14997e-06
-3.15023e-07
-1.15956e-06
-2.72856e-07
-1.16719e-06
-2.30725e-07
-1.17312e-06
-1.8867e-07
-1.17759e-06
-1.46701e-07
-1.18081e-06
-1.04794e-07
-1.18292e-06
-6.28884e-08
-2.09712e-08
6.57916e-07
-1.70919e-08
6.55808e-07
-5.10171e-08
6.52134e-07
-8.46862e-08
6.46893e-07
-1.18074e-07
6.40017e-07
-1.51117e-07
6.3141e-07
-1.8374e-07
6.20958e-07
-2.15848e-07
6.08547e-07
-2.47318e-07
5.94074e-07
-2.77998e-07
5.77456e-07
-3.07693e-07
5.58647e-07
-3.36152e-07
5.37647e-07
-3.6306e-07
5.14516e-07
-3.88027e-07
4.89407e-07
-4.10604e-07
4.62544e-07
-4.30229e-07
4.34212e-07
-4.46303e-07
4.04769e-07
-4.58336e-07
3.74626e-07
-4.66072e-07
3.44205e-07
-4.69593e-07
3.1389e-07
-4.6933e-07
2.83997e-07
-4.65983e-07
2.54754e-07
-4.60367e-07
2.26307e-07
-4.53262e-07
1.98755e-07
-4.4532e-07
1.72154e-07
-4.36992e-07
1.46516e-07
-4.28543e-07
1.2183e-07
-4.20119e-07
9.80763e-08
-4.11784e-07
7.52309e-08
-4.03549e-07
5.32707e-08
-3.95399e-07
3.21734e-08
-3.87309e-07
1.1918e-08
-3.79253e-07
-7.51524e-09
-3.71213e-07
-2.6145e-08
-3.63183e-07
-4.3989e-08
-3.55163e-07
-6.10629e-08
-3.47151e-07
-7.73808e-08
-3.39104e-07
-9.2958e-08
-3.31033e-07
-1.07811e-07
-3.22956e-07
-1.21955e-07
-3.14891e-07
-1.35408e-07
-3.06862e-07
-1.48188e-07
-2.9889e-07
-1.60313e-07
-2.91001e-07
-1.71803e-07
-2.83218e-07
-1.82678e-07
-2.75566e-07
-1.92957e-07
-2.68069e-07
-2.02663e-07
-2.60752e-07
-2.11817e-07
-2.5364e-07
-2.20442e-07
-2.46754e-07
-2.2856e-07
-2.4012e-07
-2.36199e-07
-2.33762e-07
-2.43384e-07
-2.27703e-07
-2.50145e-07
-2.2197e-07
-2.56516e-07
-2.16592e-07
-2.62536e-07
-2.116e-07
-2.68253e-07
-2.0703e-07
-2.73726e-07
-2.02925e-07
-2.79028e-07
-1.99363e-07
-2.8426e-07
-1.9639e-07
-2.89557e-07
-1.94026e-07
-2.95141e-07
-1.92433e-07
-3.01289e-07
-1.91735e-07
-3.07262e-07
-1.93717e-07
-3.14332e-07
-2.03549e-07
-3.22636e-07
-2.14725e-07
-3.32073e-07
-2.27281e-07
-3.4263e-07
-2.41303e-07
-3.54379e-07
-2.56947e-07
-3.67452e-07
-2.74429e-07
-3.82028e-07
-2.94025e-07
-3.98339e-07
-3.16076e-07
-4.16677e-07
-3.40992e-07
-4.37383e-07
-3.69257e-07
-4.60833e-07
-4.01556e-07
-4.875e-07
-4.38462e-07
-5.17921e-07
-4.79948e-07
-5.52618e-07
-5.24977e-07
-5.91935e-07
-5.7083e-07
-6.35976e-07
-6.12298e-07
-6.8419e-07
-6.42924e-07
-7.35049e-07
-6.58023e-07
-7.864e-07
-6.57085e-07
-8.36263e-07
-6.43151e-07
-8.83296e-07
-6.20256e-07
-9.26835e-07
-5.91758e-07
-9.66616e-07
-5.59875e-07
-1.00248e-06
-5.25944e-07
-1.03441e-06
-4.90509e-07
-1.06253e-06
-4.53892e-07
-1.08699e-06
-4.16354e-07
-1.10802e-06
-3.781e-07
-1.12588e-06
-3.39294e-07
-1.14083e-06
-3.00071e-07
-1.15315e-06
-2.6054e-07
-1.16308e-06
-2.20789e-07
-1.17087e-06
-1.80881e-07
-1.17671e-06
-1.4086e-07
-1.18076e-06
-1.0075e-07
-1.18309e-06
-6.05565e-08
-2.0238e-08
6.57621e-07
-1.61793e-08
6.5498e-07
-4.83765e-08
6.50623e-07
-8.03289e-08
6.44515e-07
-1.11966e-07
6.36615e-07
-1.43217e-07
6.26875e-07
-1.74e-07
6.15247e-07
-2.0422e-07
6.01695e-07
-2.33766e-07
5.86199e-07
-2.62502e-07
5.68765e-07
-2.90258e-07
5.49431e-07
-3.16816e-07
5.28271e-07
-3.41898e-07
5.05393e-07
-3.65146e-07
4.80912e-07
-3.86118e-07
4.54998e-07
-4.0431e-07
4.27905e-07
-4.19203e-07
3.9995e-07
-4.3037e-07
3.7148e-07
-4.3759e-07
3.42843e-07
-4.4094e-07
3.14346e-07
-4.40816e-07
2.86237e-07
-4.37855e-07
2.58688e-07
-4.328e-07
2.31805e-07
-4.26361e-07
2.05626e-07
-4.19122e-07
1.80156e-07
-4.11505e-07
1.55404e-07
-4.03774e-07
1.31377e-07
-3.96077e-07
1.0808e-07
-3.88472e-07
8.5516e-08
-3.80972e-07
6.36863e-08
-3.73557e-07
4.25897e-08
-3.66201e-07
2.2224e-08
-3.58877e-07
2.58541e-09
-3.51565e-07
-1.63315e-08
-3.44257e-07
-3.45338e-08
-3.36952e-07
-5.2028e-08
-3.29648e-07
-6.88203e-08
-3.22303e-07
-8.49196e-08
-3.14925e-07
-1.00336e-07
-3.0753e-07
-1.15082e-07
-3.00136e-07
-1.29171e-07
-2.92764e-07
-1.42618e-07
-2.85435e-07
-1.5544e-07
-2.78171e-07
-1.67654e-07
-2.70995e-07
-1.7928e-07
-2.63931e-07
-1.90338e-07
-2.57003e-07
-2.00851e-07
-2.50232e-07
-2.10842e-07
-2.4364e-07
-2.20339e-07
-2.3725e-07
-2.29369e-07
-2.31083e-07
-2.37964e-07
-2.2516e-07
-2.46157e-07
-2.19503e-07
-2.53987e-07
-2.14134e-07
-2.61497e-07
-2.09075e-07
-2.6874e-07
-2.04351e-07
-2.75774e-07
-1.99991e-07
-2.8267e-07
-1.96024e-07
-2.8951e-07
-1.92518e-07
-2.96395e-07
-1.895e-07
-3.03444e-07
-1.86973e-07
-3.10797e-07
-1.85076e-07
-3.18612e-07
-1.83906e-07
-3.25526e-07
-1.86953e-07
-3.33344e-07
-1.95753e-07
-3.42241e-07
-2.05851e-07
-3.5224e-07
-2.17305e-07
-3.63386e-07
-2.30182e-07
-3.75754e-07
-2.44606e-07
-3.89444e-07
-2.60768e-07
-4.04579e-07
-2.78921e-07
-4.21301e-07
-2.99388e-07
-4.39769e-07
-3.2256e-07
-4.60134e-07
-3.48931e-07
-4.82541e-07
-3.7919e-07
-5.07219e-07
-4.1383e-07
-5.34496e-07
-4.52717e-07
-5.64883e-07
-4.94636e-07
-5.9918e-07
-5.36576e-07
-6.37987e-07
-5.73526e-07
-6.81119e-07
-5.99818e-07
-7.27314e-07
-6.11846e-07
-7.74632e-07
-6.09777e-07
-8.21226e-07
-5.96561e-07
-8.65785e-07
-5.757e-07
-9.07573e-07
-5.49971e-07
-9.46278e-07
-5.2117e-07
-9.81899e-07
-4.90322e-07
-1.01441e-06
-4.58001e-07
-1.04376e-06
-4.24537e-07
-1.06998e-06
-3.90139e-07
-1.09312e-06
-3.5496e-07
-1.11329e-06
-3.19126e-07
-1.13061e-06
-2.82745e-07
-1.14524e-06
-2.45912e-07
-1.15732e-06
-2.08708e-07
-1.167e-06
-1.71205e-07
-1.1744e-06
-1.33461e-07
-1.17962e-06
-9.55209e-08
-1.18276e-06
-5.74204e-08
-1.91772e-08
6.57638e-07
-1.52836e-08
6.54928e-07
-4.56667e-08
6.50399e-07
-7.58e-08
6.44048e-07
-1.05615e-07
6.35866e-07
-1.35035e-07
6.25841e-07
-1.63975e-07
6.13963e-07
-1.92343e-07
6.0023e-07
-2.20033e-07
5.84648e-07
-2.4692e-07
5.67237e-07
-2.72846e-07
5.48037e-07
-2.97615e-07
5.27113e-07
-3.20973e-07
5.04563e-07
-3.42594e-07
4.80528e-07
-3.62081e-07
4.552e-07
-3.78977e-07
4.28822e-07
-3.92818e-07
4.01677e-07
-4.03217e-07
3.7407e-07
-4.09973e-07
3.46298e-07
-4.13157e-07
3.18627e-07
-4.13131e-07
2.91268e-07
-4.10482e-07
2.64376e-07
-4.05893e-07
2.38052e-07
-4.00022e-07
2.12353e-07
-3.93409e-07
1.87307e-07
-3.86444e-07
1.62924e-07
-3.79378e-07
1.39205e-07
-3.72345e-07
1.16149e-07
-3.65405e-07
9.37531e-08
-3.58565e-07
7.20156e-08
-3.51809e-07
5.09349e-08
-3.45111e-07
3.051e-08
-3.38443e-07
1.07392e-08
-3.31787e-07
-8.37968e-09
-3.25131e-07
-2.68501e-08
-3.18475e-07
-4.46751e-08
-3.11816e-07
-6.18572e-08
-3.05114e-07
-7.84016e-08
-2.98373e-07
-9.43156e-08
-2.91608e-07
-1.09608e-07
-2.84836e-07
-1.2429e-07
-2.78074e-07
-1.38375e-07
-2.71342e-07
-1.51878e-07
-2.64661e-07
-1.64813e-07
-2.58052e-07
-1.77201e-07
-2.51537e-07
-1.89061e-07
-2.45135e-07
-2.00417e-07
-2.38868e-07
-2.11294e-07
-2.32756e-07
-2.21719e-07
-2.26819e-07
-2.31722e-07
-2.21074e-07
-2.41335e-07
-2.15541e-07
-2.50596e-07
-2.10237e-07
-2.59544e-07
-2.0518e-07
-2.68226e-07
-2.00388e-07
-2.76692e-07
-1.9588e-07
-2.85001e-07
-1.91677e-07
-2.93217e-07
-1.87804e-07
-3.0141e-07
-1.84322e-07
-3.09668e-07
-1.81238e-07
-3.18081e-07
-1.78557e-07
-3.26745e-07
-1.7641e-07
-3.35745e-07
-1.74896e-07
-3.43594e-07
-1.792e-07
-3.52232e-07
-1.87135e-07
-3.61793e-07
-1.96311e-07
-3.72336e-07
-2.06783e-07
-3.8393e-07
-2.1861e-07
-3.96651e-07
-2.31909e-07
-4.10586e-07
-2.46859e-07
-4.25831e-07
-2.63703e-07
-4.42492e-07
-2.82754e-07
-4.60691e-07
-3.04391e-07
-4.80539e-07
-3.29114e-07
-5.02186e-07
-3.57576e-07
-5.25903e-07
-3.90146e-07
-5.5209e-07
-4.26565e-07
-5.81298e-07
-4.6546e-07
-6.1416e-07
-5.03743e-07
-6.5108e-07
-5.36628e-07
-6.91788e-07
-5.59127e-07
-7.35146e-07
-5.68498e-07
-7.7953e-07
-5.65398e-07
-8.23426e-07
-5.52668e-07
-8.65735e-07
-5.33392e-07
-9.05785e-07
-5.09922e-07
-9.43213e-07
-4.83742e-07
-9.77854e-07
-4.55682e-07
-1.00965e-06
-4.26203e-07
-1.03861e-06
-3.95581e-07
-1.06475e-06
-3.63998e-07
-1.08812e-06
-3.31594e-07
-1.10876e-06
-2.9848e-07
-1.12675e-06
-2.64756e-07
-1.14215e-06
-2.3051e-07
-1.15504e-06
-1.95823e-07
-1.16548e-06
-1.60766e-07
-1.17353e-06
-1.25405e-07
-1.17926e-06
-8.97979e-08
-1.18268e-06
-5.39955e-08
-1.80362e-08
6.57575e-07
-1.43249e-08
6.54725e-07
-4.28165e-08
6.49996e-07
-7.10709e-08
6.43393e-07
-9.90127e-08
6.34923e-07
-1.26564e-07
6.24594e-07
-1.53645e-07
6.12417e-07
-1.80166e-07
5.98413e-07
-2.06029e-07
5.82612e-07
-2.31118e-07
5.65058e-07
-2.55292e-07
5.45815e-07
-2.78372e-07
5.24969e-07
-3.00125e-07
5.02634e-07
-3.20257e-07
4.78959e-07
-3.38404e-07
4.54133e-07
-3.54147e-07
4.28379e-07
-3.6706e-07
4.01953e-07
-3.76786e-07
3.75126e-07
-3.83137e-07
3.48156e-07
-3.86179e-07
3.21275e-07
-3.8624e-07
2.94666e-07
-3.83861e-07
2.68462e-07
-3.79677e-07
2.42749e-07
-3.74298e-07
2.1758e-07
-3.68228e-07
1.9298e-07
-3.61834e-07
1.68963e-07
-3.5535e-07
1.45533e-07
-3.48905e-07
1.2269e-07
-3.42553e-07
1.00437e-07
-3.36303e-07
7.87721e-08
-3.30137e-07
5.76974e-08
-3.24029e-07
3.72137e-08
-3.17953e-07
1.73214e-08
-3.11888e-07
-1.97968e-09
-3.05824e-07
-2.06913e-08
-2.99758e-07
-3.88146e-08
-2.93687e-07
-5.63505e-08
-2.87572e-07
-7.33021e-08
-2.81416e-07
-8.96748e-08
-2.7523e-07
-1.05476e-07
-2.69029e-07
-1.20715e-07
-2.6283e-07
-1.35402e-07
-2.56649e-07
-1.4955e-07
-2.50507e-07
-1.63175e-07
-2.44421e-07
-1.76295e-07
-2.38411e-07
-1.88929e-07
-2.32496e-07
-2.01099e-07
-2.26693e-07
-2.12829e-07
-2.21021e-07
-2.24146e-07
-2.15496e-07
-2.35078e-07
-2.10137e-07
-2.45658e-07
-2.04956e-07
-2.55918e-07
-1.99971e-07
-2.65898e-07
-1.95195e-07
-2.75638e-07
-1.90644e-07
-2.85181e-07
-1.86332e-07
-2.94578e-07
-1.82276e-07
-3.03882e-07
-1.78497e-07
-3.13147e-07
-1.75054e-07
-3.22447e-07
-1.71936e-07
-3.31849e-07
-1.69153e-07
-3.41432e-07
-1.66826e-07
-3.51264e-07
-1.65064e-07
-3.60047e-07
-1.70465e-07
-3.69498e-07
-1.77701e-07
-3.7971e-07
-1.86116e-07
-3.90767e-07
-1.95744e-07
-4.02754e-07
-2.06641e-07
-4.15755e-07
-2.18926e-07
-4.29855e-07
-2.32779e-07
-4.4514e-07
-2.48438e-07
-4.61707e-07
-2.66209e-07
-4.79657e-07
-2.86462e-07
-4.99084e-07
-3.0971e-07
-5.20133e-07
-3.3655e-07
-5.43059e-07
-3.67242e-07
-5.68237e-07
-4.01408e-07
-5.9618e-07
-4.37537e-07
-6.27459e-07
-4.7248e-07
-6.62421e-07
-5.01677e-07
-7.00796e-07
-5.2076e-07
-7.41567e-07
-5.2773e-07
-7.8334e-07
-5.23627e-07
-8.2483e-07
-5.11179e-07
-8.65106e-07
-4.93116e-07
-9.03578e-07
-4.7145e-07
-9.39898e-07
-4.47422e-07
-9.7386e-07
-4.2172e-07
-1.00534e-06
-3.94723e-07
-1.03427e-06
-3.66656e-07
-1.0606e-06
-3.37667e-07
-1.08432e-06
-3.07869e-07
-1.10544e-06
-2.77357e-07
-1.12398e-06
-2.46216e-07
-1.13996e-06
-2.14527e-07
-1.15342e-06
-1.82365e-07
-1.16439e-06
-1.49801e-07
-1.17289e-06
-1.16902e-07
-1.17896e-06
-8.37325e-08
-1.1826e-06
-5.03518e-08
-1.68158e-08
6.57571e-07
-1.3362e-08
6.54689e-07
-3.99352e-08
6.49902e-07
-6.62839e-08
6.43225e-07
-9.23352e-08
6.34674e-07
-1.18014e-07
6.24271e-07
-1.43242e-07
6.12041e-07
-1.67936e-07
5.98015e-07
-1.92004e-07
5.82236e-07
-2.15339e-07
5.64756e-07
-2.37812e-07
5.45643e-07
-2.59258e-07
5.24985e-07
-2.79466e-07
5.02896e-07
-2.98167e-07
4.79519e-07
-3.15026e-07
4.55036e-07
-3.29662e-07
4.29662e-07
-3.41683e-07
4.03641e-07
-3.5076e-07
3.77229e-07
-3.5672e-07
3.50674e-07
-3.59618e-07
3.24197e-07
-3.59755e-07
2.97971e-07
-3.57628e-07
2.72124e-07
-3.53822e-07
2.46739e-07
-3.48904e-07
2.21862e-07
-3.43343e-07
1.97518e-07
-3.37482e-07
1.73717e-07
-3.31541e-07
1.50459e-07
-3.2564e-07
1.27744e-07
-3.19831e-07
1.05569e-07
-3.14122e-07
8.3935e-08
-3.08497e-07
6.28402e-08
-3.02929e-07
4.22854e-08
-2.97393e-07
2.2271e-08
-2.9187e-07
2.7971e-09
-2.86346e-07
-1.61373e-08
-2.80819e-07
-3.45331e-08
-2.75287e-07
-5.23905e-08
-2.69711e-07
-6.97115e-08
-2.6409e-07
-8.65002e-08
-2.58437e-07
-1.02762e-07
-2.52763e-07
-1.18504e-07
-2.47083e-07
-1.33735e-07
-2.41413e-07
-1.48469e-07
-2.35769e-07
-1.62718e-07
-2.30167e-07
-1.76499e-07
-2.24626e-07
-1.8983e-07
-2.1916e-07
-2.02731e-07
-2.13788e-07
-2.15223e-07
-2.08524e-07
-2.2733e-07
-2.03385e-07
-2.39079e-07
-1.98383e-07
-2.50498e-07
-1.93534e-07
-2.61616e-07
-1.88849e-07
-2.72465e-07
-1.84343e-07
-2.83079e-07
-1.80027e-07
-2.93491e-07
-1.75916e-07
-3.0374e-07
-1.72025e-07
-3.13862e-07
-1.68372e-07
-3.23896e-07
-1.65018e-07
-3.33907e-07
-1.61924e-07
-3.43923e-07
-1.59137e-07
-3.54026e-07
-1.56723e-07
-3.64312e-07
-1.54785e-07
-3.74106e-07
-1.60677e-07
-3.84299e-07
-1.67516e-07
-3.95074e-07
-1.75352e-07
-4.06568e-07
-1.84262e-07
-4.18881e-07
-1.9434e-07
-4.32106e-07
-2.05715e-07
-4.46328e-07
-2.1857e-07
-4.61638e-07
-2.33142e-07
-4.78131e-07
-2.49731e-07
-4.9591e-07
-2.68697e-07
-5.15082e-07
-2.90552e-07
-5.3582e-07
-3.15825e-07
-5.58404e-07
-3.4467e-07
-5.83229e-07
-3.76593e-07
-6.10803e-07
-4.0997e-07
-6.41636e-07
-4.41651e-07
-6.75946e-07
-4.67369e-07
-7.13332e-07
-4.83375e-07
-7.5275e-07
-4.88311e-07
-7.92908e-07
-4.83469e-07
-8.32679e-07
-4.71407e-07
-8.7127e-07
-4.54525e-07
-9.08185e-07
-4.34535e-07
-9.43132e-07
-4.12475e-07
-9.75933e-07
-3.88918e-07
-1.00648e-06
-3.64179e-07
-1.03469e-06
-3.38445e-07
-1.06052e-06
-3.11841e-07
-1.08392e-06
-2.84465e-07
-1.10488e-06
-2.56398e-07
-1.12338e-06
-2.27717e-07
-1.13941e-06
-1.98495e-07
-1.15297e-06
-1.68801e-07
-1.16407e-06
-1.38704e-07
-1.1727e-06
-1.08269e-07
-1.17887e-06
-7.75618e-08
-1.18258e-06
-4.66438e-08
-1.55768e-08
6.5756e-07
-1.23883e-08
6.54654e-07
-3.70288e-08
6.49831e-07
-6.14612e-08
6.4311e-07
-8.56148e-08
6.34515e-07
-1.09418e-07
6.24072e-07
-1.32799e-07
6.11814e-07
-1.55678e-07
5.97782e-07
-1.77972e-07
5.82024e-07
-1.99581e-07
5.646e-07
-2.20388e-07
5.45584e-07
-2.40242e-07
5.2507e-07
-2.58951e-07
5.03172e-07
-2.76268e-07
4.80036e-07
-2.91889e-07
4.55837e-07
-3.05461e-07
4.30782e-07
-3.16625e-07
4.05103e-07
-3.25078e-07
3.79042e-07
-3.30656e-07
3.52834e-07
-3.33406e-07
3.26687e-07
-3.33603e-07
3.00767e-07
-3.31702e-07
2.75195e-07
-3.28245e-07
2.50051e-07
-3.23755e-07
2.25382e-07
-3.18668e-07
2.01211e-07
-3.13305e-07
1.77546e-07
-3.07871e-07
1.54389e-07
-3.02478e-07
1.31737e-07
-2.97175e-07
1.09588e-07
-2.91968e-07
8.79384e-08
-2.86843e-07
6.67886e-08
-2.81775e-07
4.61379e-08
-2.76739e-07
2.59865e-08
-2.71715e-07
6.33437e-09
-2.66691e-07
-1.28192e-08
-2.61663e-07
-3.14753e-08
-2.56628e-07
-4.96338e-08
-2.51549e-07
-6.72957e-08
-2.46425e-07
-8.44632e-08
-2.41266e-07
-1.01141e-07
-2.36082e-07
-1.17334e-07
-2.30886e-07
-1.33052e-07
-2.25691e-07
-1.48306e-07
-2.20512e-07
-1.63106e-07
-2.15364e-07
-1.77467e-07
-2.10261e-07
-1.91405e-07
-2.05219e-07
-2.04937e-07
-2.00252e-07
-2.18082e-07
-1.95375e-07
-2.30863e-07
-1.90601e-07
-2.433e-07
-1.85943e-07
-2.55419e-07
-1.81412e-07
-2.67244e-07
-1.77021e-07
-2.78802e-07
-1.72782e-07
-2.90119e-07
-1.68707e-07
-3.01224e-07
-1.6481e-07
-3.12141e-07
-1.61106e-07
-3.22893e-07
-1.57618e-07
-3.33502e-07
-1.54409e-07
-3.44004e-07
-1.51423e-07
-3.54391e-07
-1.48751e-07
-3.64673e-07
-1.46443e-07
-3.74916e-07
-1.44605e-07
-3.85343e-07
-1.50257e-07
-3.96153e-07
-1.56713e-07
-4.07472e-07
-1.6404e-07
-4.19421e-07
-1.72322e-07
-4.32105e-07
-1.81664e-07
-4.45619e-07
-1.92209e-07
-4.60056e-07
-2.04141e-07
-4.75511e-07
-2.17695e-07
-4.92087e-07
-2.33162e-07
-5.09896e-07
-2.50893e-07
-5.29064e-07
-2.71389e-07
-5.49787e-07
-2.95105e-07
-5.72354e-07
-3.22103e-07
-5.97146e-07
-3.51799e-07
-6.24616e-07
-3.82495e-07
-6.55167e-07
-4.11095e-07
-6.88882e-07
-4.33648e-07
-7.2528e-07
-4.46971e-07
-7.63373e-07
-4.50215e-07
-8.02017e-07
-4.44822e-07
-8.40251e-07
-4.33172e-07
-8.77396e-07
-4.17379e-07
-9.1302e-07
-3.98911e-07
-9.46851e-07
-3.78644e-07
-9.78716e-07
-3.57054e-07
-1.00849e-06
-3.34403e-07
-1.03609e-06
-3.10848e-07
-1.06144e-06
-2.86491e-07
-1.08449e-06
-2.61415e-07
-1.10519e-06
-2.35691e-07
-1.12353e-06
-2.09385e-07
-1.13946e-06
-1.82563e-07
-1.15297e-06
-1.55288e-07
-1.16405e-06
-1.27625e-07
-1.17268e-06
-9.96354e-08
-1.17886e-06
-7.13824e-08
-1.18258e-06
-4.29276e-08
-1.43343e-08
6.57562e-07
-1.14161e-08
6.54657e-07
-3.41238e-08
6.49835e-07
-5.66399e-08
6.43119e-07
-7.88986e-08
6.34534e-07
-1.00833e-07
6.24111e-07
-1.22376e-07
6.11888e-07
-1.43454e-07
5.97908e-07
-1.63991e-07
5.82223e-07
-1.83897e-07
5.64897e-07
-2.03062e-07
5.46005e-07
-2.2135e-07
5.2564e-07
-2.38586e-07
5.03916e-07
-2.54544e-07
4.80975e-07
-2.68947e-07
4.56986e-07
-2.81472e-07
4.32152e-07
-2.9179e-07
4.06697e-07
-2.99621e-07
3.80857e-07
-3.04814e-07
3.5486e-07
-3.07407e-07
3.2891e-07
-3.0765e-07
3.03169e-07
-3.05959e-07
2.77759e-07
-3.02831e-07
2.52756e-07
-2.98748e-07
2.28206e-07
-2.94115e-07
2.04131e-07
-2.89227e-07
1.80538e-07
-2.84274e-07
1.57426e-07
-2.79363e-07
1.34791e-07
-2.74537e-07
1.1263e-07
-2.69804e-07
9.09381e-08
-2.65149e-07
6.97137e-08
-2.60548e-07
4.89558e-08
-2.55979e-07
2.86639e-08
-2.51421e-07
8.83787e-09
-2.46863e-07
-1.05232e-08
-2.423e-07
-2.94204e-08
-2.37729e-07
-4.78528e-08
-2.33115e-07
-6.58202e-08
-2.28456e-07
-8.33243e-08
-2.2376e-07
-1.00369e-07
-2.19036e-07
-1.16958e-07
-2.14294e-07
-1.331e-07
-2.09548e-07
-1.48801e-07
-2.04808e-07
-1.64073e-07
-2.00089e-07
-1.78927e-07
-1.95405e-07
-1.93377e-07
-1.90767e-07
-2.07437e-07
-1.8619e-07
-2.21124e-07
-1.81686e-07
-2.34457e-07
-1.77266e-07
-2.47454e-07
-1.72943e-07
-2.60137e-07
-1.68727e-07
-2.72527e-07
-1.64629e-07
-2.84647e-07
-1.6066e-07
-2.9652e-07
-1.56832e-07
-3.08169e-07
-1.53159e-07
-3.19619e-07
-1.49656e-07
-3.30883e-07
-1.46352e-07
-3.41994e-07
-1.43297e-07
-3.52962e-07
-1.40455e-07
-3.63777e-07
-1.37936e-07
-3.74399e-07
-1.35824e-07
-3.84567e-07
-1.34476e-07
-3.95138e-07
-1.3969e-07
-4.06206e-07
-1.45649e-07
-4.17833e-07
-1.52417e-07
-4.30093e-07
-1.60066e-07
-4.43066e-07
-1.68695e-07
-4.56837e-07
-1.78441e-07
-4.71494e-07
-1.89486e-07
-4.87133e-07
-2.02057e-07
-5.03865e-07
-2.1643e-07
-5.2181e-07
-2.32946e-07
-5.41114e-07
-2.52082e-07
-5.61997e-07
-2.74215e-07
-5.84756e-07
-2.99335e-07
-6.09761e-07
-3.26782e-07
-6.37415e-07
-3.54827e-07
-6.6802e-07
-3.80477e-07
-7.01528e-07
-4.00127e-07
-7.37374e-07
-4.11116e-07
-7.74583e-07
-4.12999e-07
-8.12114e-07
-4.07286e-07
-8.49124e-07
-3.9616e-07
-8.85034e-07
-3.81468e-07
-9.19474e-07
-3.6447e-07
-9.52212e-07
-3.45905e-07
-9.83092e-07
-3.26173e-07
-1.012e-06
-3.05494e-07
-1.03885e-06
-2.83997e-07
-1.06357e-06
-2.61773e-07
-1.0861e-06
-2.38889e-07
-1.10638e-06
-2.15409e-07
-1.12437e-06
-1.91392e-07
-1.14004e-06
-1.66894e-07
-1.15335e-06
-1.41976e-07
-1.16428e-06
-1.16694e-07
-1.17281e-06
-9.11073e-08
-1.17892e-06
-6.52744e-08
-1.18259e-06
-3.92537e-08
-1.31066e-08
6.57564e-07
-1.0446e-08
6.54665e-07
-3.12255e-08
6.49856e-07
-5.18307e-08
6.43158e-07
-7.22005e-08
6.34599e-07
-9.22737e-08
6.24211e-07
-1.11988e-07
6.12034e-07
-1.31277e-07
5.98114e-07
-1.50071e-07
5.82504e-07
-1.68288e-07
5.6527e-07
-1.85828e-07
5.46488e-07
-2.02568e-07
5.2625e-07
-2.18348e-07
5.0467e-07
-2.32964e-07
4.81886e-07
-2.46163e-07
4.58067e-07
-2.57653e-07
4.33407e-07
-2.6713e-07
4.08125e-07
-2.7434e-07
3.82452e-07
-2.7914e-07
3.56611e-07
-2.81565e-07
3.30801e-07
-2.81839e-07
3.05184e-07
-2.80341e-07
2.79878e-07
-2.77524e-07
2.54961e-07
-2.7383e-07
2.30477e-07
-2.69631e-07
2.0645e-07
-2.65198e-07
1.82884e-07
-2.60707e-07
1.59778e-07
-2.56256e-07
1.37127e-07
-2.51885e-07
1.14927e-07
-2.47602e-07
9.31712e-08
-2.43392e-07
7.1858e-08
-2.39234e-07
5.09852e-08
-2.35105e-07
3.05522e-08
-2.30987e-07
1.05583e-08
-2.26868e-07
-8.99729e-09
-2.22744e-07
-2.81151e-08
-2.1861e-07
-4.67936e-08
-2.14435e-07
-6.50325e-08
-2.10216e-07
-8.28327e-08
-2.05958e-07
-1.00196e-07
-2.01671e-07
-1.17127e-07
-1.97362e-07
-1.33629e-07
-1.93044e-07
-1.4971e-07
-1.88726e-07
-1.65378e-07
-1.8442e-07
-1.80642e-07
-1.80139e-07
-1.95513e-07
-1.75894e-07
-2.10003e-07
-1.71698e-07
-2.24128e-07
-1.6756e-07
-2.379e-07
-1.63492e-07
-2.51338e-07
-1.59504e-07
-2.64458e-07
-1.55606e-07
-2.77278e-07
-1.51808e-07
-2.89817e-07
-1.4812e-07
-3.02096e-07
-1.44553e-07
-3.14134e-07
-1.4112e-07
-3.25952e-07
-1.37836e-07
-3.3757e-07
-1.34733e-07
-3.49014e-07
-1.31852e-07
-3.60302e-07
-1.29166e-07
-3.71448e-07
-1.26789e-07
-3.82459e-07
-1.2481e-07
-3.92732e-07
-1.24228e-07
-4.03469e-07
-1.28955e-07
-4.14738e-07
-1.34381e-07
-4.26587e-07
-1.4057e-07
-4.39077e-07
-1.47577e-07
-4.52278e-07
-1.55493e-07
-4.66268e-07
-1.6445e-07
-4.81135e-07
-1.74617e-07
-4.96978e-07
-1.86209e-07
-5.13913e-07
-1.99488e-07
-5.32071e-07
-2.14779e-07
-5.51616e-07
-2.32525e-07
-5.72781e-07
-2.53035e-07
-5.95863e-07
-2.76235e-07
-6.21207e-07
-3.01418e-07
-6.49151e-07
-3.26861e-07
-6.79887e-07
-3.49721e-07
-7.1325e-07
-3.66747e-07
-7.48613e-07
-3.75739e-07
-7.85044e-07
-3.7656e-07
-8.21605e-07
-3.7072e-07
-8.57563e-07
-3.602e-07
-8.92415e-07
-3.46613e-07
-9.25842e-07
-3.31043e-07
-9.57635e-07
-3.14112e-07
-9.87652e-07
-2.96157e-07
-1.01578e-06
-2.77363e-07
-1.04194e-06
-2.5784e-07
-1.06605e-06
-2.37662e-07
-1.08805e-06
-2.16891e-07
-1.10788e-06
-1.95579e-07
-1.12549e-06
-1.73779e-07
-1.14084e-06
-1.51542e-07
-1.1539e-06
-1.28919e-07
-1.16463e-06
-1.05965e-07
-1.173e-06
-8.2732e-08
-1.17901e-06
-5.92734e-08
-1.18262e-06
-3.56437e-08
-1.19004e-08
6.57568e-07
-9.48029e-09
6.54682e-07
-2.83396e-08
6.49893e-07
-4.70415e-08
6.43223e-07
-6.55306e-08
6.347e-07
-8.37511e-08
6.24359e-07
-1.01646e-07
6.12238e-07
-1.19157e-07
5.98386e-07
-1.36219e-07
5.82856e-07
-1.52758e-07
5.65712e-07
-1.68684e-07
5.47032e-07
-1.83887e-07
5.26906e-07
-1.98223e-07
5.05447e-07
-2.11505e-07
4.82791e-07
-2.23507e-07
4.59101e-07
-2.33963e-07
4.34569e-07
-2.42599e-07
4.0941e-07
-2.49181e-07
3.8385e-07
-2.53581e-07
3.5811e-07
-2.55826e-07
3.32388e-07
-2.56117e-07
3.06844e-07
-2.54797e-07
2.81596e-07
-2.52276e-07
2.56722e-07
-2.48957e-07
2.32268e-07
-2.45177e-07
2.08253e-07
-2.41184e-07
1.84686e-07
-2.37139e-07
1.61561e-07
-2.33131e-07
1.38875e-07
-2.29199e-07
1.1662e-07
-2.25347e-07
9.47909e-08
-2.21563e-07
7.3384e-08
-2.17827e-07
5.23971e-08
-2.14118e-07
3.18289e-08
-2.10418e-07
1.16789e-08
-2.06718e-07
-8.05323e-09
-2.03011e-07
-2.7368e-08
-1.99295e-07
-4.6264e-08
-1.95539e-07
-6.47402e-08
-1.91739e-07
-8.27961e-08
-1.87902e-07
-1.00433e-07
-1.84033e-07
-1.17652e-07
-1.80142e-07
-1.34458e-07
-1.76237e-07
-1.50855e-07
-1.72328e-07
-1.66849e-07
-1.68425e-07
-1.82449e-07
-1.64539e-07
-1.97662e-07
-1.6068e-07
-2.12499e-07
-1.5686e-07
-2.26971e-07
-1.53087e-07
-2.41091e-07
-1.49371e-07
-2.54872e-07
-1.45722e-07
-2.68329e-07
-1.42149e-07
-2.81476e-07
-1.3866e-07
-2.94329e-07
-1.35266e-07
-3.06905e-07
-1.31976e-07
-3.19222e-07
-1.28802e-07
-3.31298e-07
-1.25759e-07
-3.43154e-07
-1.22877e-07
-3.54814e-07
-1.20192e-07
-3.663e-07
-1.1768e-07
-3.77647e-07
-1.15441e-07
-3.88899e-07
-1.13556e-07
-3.99394e-07
-1.13735e-07
-4.10353e-07
-1.17996e-07
-4.21832e-07
-1.22901e-07
-4.33889e-07
-1.28511e-07
-4.46586e-07
-1.34877e-07
-4.59992e-07
-1.42083e-07
-4.74185e-07
-1.5025e-07
-4.89256e-07
-1.59538e-07
-5.05309e-07
-1.70147e-07
-5.22468e-07
-1.82317e-07
-5.40873e-07
-1.96358e-07
-5.60706e-07
-2.12673e-07
-5.82211e-07
-2.31508e-07
-6.05677e-07
-2.52742e-07
-6.31424e-07
-2.75644e-07
-6.59724e-07
-2.98532e-07
-6.90667e-07
-3.18751e-07
-7.23985e-07
-3.33408e-07
-7.59003e-07
-3.40705e-07
-7.94824e-07
-3.40729e-07
-8.30597e-07
-3.34941e-07
-8.65675e-07
-3.25118e-07
-8.99623e-07
-3.12664e-07
-9.3216e-07
-2.98504e-07
-9.63105e-07
-2.83166e-07
-9.92327e-07
-2.66935e-07
-1.01972e-06
-2.49965e-07
-1.04522e-06
-2.32349e-07
-1.06872e-06
-2.14153e-07
-1.09019e-06
-1.95427e-07
-1.10955e-06
-1.76218e-07
-1.12676e-06
-1.56571e-07
-1.14177e-06
-1.36533e-07
-1.15454e-06
-1.16149e-07
-1.16503e-06
-9.54672e-08
-1.17323e-06
-7.45341e-08
-1.17911e-06
-5.33985e-08
-1.18264e-06
-3.21097e-08
-1.07199e-08
6.57572e-07
-8.51897e-09
6.547e-07
-2.54666e-08
6.49932e-07
-4.22738e-08
6.43291e-07
-5.88903e-08
6.34807e-07
-7.52665e-08
6.24512e-07
-9.13514e-08
6.12446e-07
-1.07092e-07
5.98658e-07
-1.2243e-07
5.832e-07
-1.373e-07
5.66136e-07
-1.51621e-07
5.47544e-07
-1.65295e-07
5.27512e-07
-1.78191e-07
5.06152e-07
-1.90146e-07
4.83597e-07
-2.00953e-07
4.60008e-07
-2.10375e-07
4.35573e-07
-2.18166e-07
4.10505e-07
-2.24115e-07
3.85027e-07
-2.28104e-07
3.59356e-07
-2.30158e-07
3.3369e-07
-2.30453e-07
3.08189e-07
-2.29298e-07
2.82971e-07
-2.27061e-07
2.58115e-07
-2.24103e-07
2.33666e-07
-2.20729e-07
2.09644e-07
-2.17164e-07
1.86056e-07
-2.13552e-07
1.62899e-07
-2.09975e-07
1.40165e-07
-2.06466e-07
1.17848e-07
-2.03031e-07
9.59414e-08
-1.99657e-07
7.44415e-08
-1.96327e-07
5.33453e-08
-1.93022e-07
3.26516e-08
-1.89725e-07
1.236e-08
-1.86426e-07
-7.52985e-09
-1.83121e-07
-2.70184e-08
-1.79806e-07
-4.61038e-08
-1.76453e-07
-6.47839e-08
-1.73059e-07
-8.30575e-08
-1.69628e-07
-1.00924e-07
-1.66167e-07
-1.18386e-07
-1.62681e-07
-1.35443e-07
-1.59179e-07
-1.521e-07
-1.55671e-07
-1.68362e-07
-1.52163e-07
-1.84233e-07
-1.48667e-07
-1.99722e-07
-1.45192e-07
-2.14835e-07
-1.41746e-07
-2.29583e-07
-1.38338e-07
-2.43976e-07
-1.34978e-07
-2.58024e-07
-1.31674e-07
-2.7174e-07
-1.28433e-07
-2.85136e-07
-1.25264e-07
-2.98227e-07
-1.22175e-07
-3.11026e-07
-1.19176e-07
-3.2355e-07
-1.16278e-07
-3.35816e-07
-1.13493e-07
-3.47842e-07
-1.10851e-07
-3.59654e-07
-1.0838e-07
-3.71274e-07
-1.0606e-07
-3.82737e-07
-1.03977e-07
-3.94072e-07
-1.0222e-07
-4.04808e-07
-1.02983e-07
-4.16e-07
-1.06802e-07
-4.27693e-07
-1.11204e-07
-4.39951e-07
-1.16247e-07
-4.52843e-07
-1.21978e-07
-4.66442e-07
-1.28477e-07
-4.80829e-07
-1.35853e-07
-4.961e-07
-1.44255e-07
-5.12365e-07
-1.53866e-07
-5.29757e-07
-1.64907e-07
-5.48428e-07
-1.77667e-07
-5.6857e-07
-1.92505e-07
-5.90436e-07
-2.09613e-07
-6.14309e-07
-2.28837e-07
-6.40473e-07
-2.49445e-07
-6.69137e-07
-2.69834e-07
-7.00294e-07
-2.87562e-07
-7.33589e-07
-3.00088e-07
-7.68317e-07
-3.0596e-07
-8.03619e-07
-3.05415e-07
-8.38723e-07
-2.99831e-07
-8.73055e-07
-2.90784e-07
-9.06231e-07
-2.79486e-07
-9.38006e-07
-2.66729e-07
-9.68215e-07
-2.52957e-07
-9.96739e-07
-2.3841e-07
-1.02349e-06
-2.23219e-07
-1.04837e-06
-2.07462e-07
-1.07133e-06
-1.91195e-07
-1.0923e-06
-1.74461e-07
-1.11121e-06
-1.57302e-07
-1.12803e-06
-1.39755e-07
-1.1427e-06
-1.21863e-07
-1.15518e-06
-1.03664e-07
-1.16545e-06
-8.52017e-08
-1.17347e-06
-6.6517e-08
-1.17921e-06
-4.7653e-08
-1.18267e-06
-2.86536e-08
-9.56567e-09
6.57577e-07
-7.56204e-09
6.54717e-07
-2.26065e-08
6.4997e-07
-3.75268e-08
6.43358e-07
-5.22788e-08
6.3491e-07
-6.68182e-08
6.24659e-07
-8.11001e-08
6.12644e-07
-9.50773e-08
5.98913e-07
-1.08699e-07
5.83519e-07
-1.21906e-07
5.66525e-07
-1.34628e-07
5.48007e-07
-1.46777e-07
5.28053e-07
-1.58238e-07
5.06773e-07
-1.68866e-07
4.84297e-07
-1.78478e-07
4.60786e-07
-1.86864e-07
4.36424e-07
-1.93805e-07
4.11421e-07
-1.99114e-07
3.85998e-07
-2.02684e-07
3.60372e-07
-2.04535e-07
3.34739e-07
-2.04824e-07
3.0926e-07
-2.03822e-07
2.84053e-07
-2.01857e-07
2.59197e-07
-1.99251e-07
2.34739e-07
-1.96274e-07
2.10698e-07
-1.93126e-07
1.8708e-07
-1.89937e-07
1.63882e-07
-1.86779e-07
1.41096e-07
-1.83682e-07
1.18716e-07
-1.80652e-07
9.67337e-08
-1.77677e-07
7.51458e-08
-1.7474e-07
5.3949e-08
-1.71826e-07
3.31421e-08
-1.68919e-07
1.27248e-08
-1.66009e-07
-7.30328e-09
-1.63094e-07
-2.69423e-08
-1.60168e-07
-4.61897e-08
-1.57206e-07
-6.50427e-08
-1.54207e-07
-8.34991e-08
-1.51172e-07
-1.01558e-07
-1.48108e-07
-1.19219e-07
-1.4502e-07
-1.36483e-07
-1.41916e-07
-1.53352e-07
-1.38802e-07
-1.69829e-07
-1.35686e-07
-1.85919e-07
-1.32578e-07
-2.01627e-07
-1.29484e-07
-2.1696e-07
-1.26414e-07
-2.31924e-07
-1.23374e-07
-2.46529e-07
-1.20374e-07
-2.60784e-07
-1.17419e-07
-2.74698e-07
-1.14518e-07
-2.88284e-07
-1.11678e-07
-3.01554e-07
-1.08906e-07
-3.14519e-07
-1.06211e-07
-3.27195e-07
-1.03602e-07
-3.39597e-07
-1.01092e-07
-3.51743e-07
-9.87053e-08
-3.63656e-07
-9.64673e-08
-3.75358e-07
-9.43591e-08