/*--------------------------------*- C++ -*----------------------------------*\
  =========                 |
  \\      /  F ield         | OpenFOAM: The Open Source CFD Toolbox
   \\    /   O peration     | Website:  https://openfoam.org
    \\  /    A nd           | Version:  8
     \\/     M anipulation  |
\*---------------------------------------------------------------------------*/
FoamFile
{
    version     2.0;
    format      ascii;
    class       volScalarField;
    location    "600/fluid";
    object      Qdot;
}
// * * * * * * * * * * * * * * * * * * * * * * * * * * * * * * * * * * * * * //

dimensions      [1 -1 -3 0 0 0 0];

internalField   nonuniform List<scalar> 
4000
(
-4.88038e-18
0
0
0
2.83572e-11
-1.31691e-11
6.05813e-11
1.17198e-19
3.34902e-15
-3.64425e-07
2.3909e-10
0
0
2.09404e-18
-1.01068e-09
-2.99911e-17
2.54095e-09
-2.78845e-15
2.40792e-08
2.67383e-07
3.53756e-06
4.96134e-05
0.000591125
0.00586298
0.0475252
0.3141
1.70704
7.73749
29.7294
98.4037
284.76
729.579
1673.14
3469.97
6565.92
11455.7
18672.1
28813.5
42678.6
61432.8
86741.6
120826
166584
227854
309744
419159
564920
759527
1.01886e+06
1.36378e+06
1.82168e+06
2.42852e+06
3.23151e+06
4.29274e+06
5.69401e+06
7.54348e+06
9.9848e+06
1.31687e+07
1.73275e+07
2.29817e+07
3.05018e+07
4.50762e+07
4.02393e+08
2.98633e+07
2.14975e+07
1.52903e+07
1.07243e+07
7.40298e+06
5.01939e+06
3.3367e+06
2.17326e+06
1.39146e+06
889686
573427
155571
11853.6
328.027
4.63899
0.0438249
0.000443831
8.26572e-06
3.89243e-07
4.38684e-08
9.19728e-09
2.86248e-09
9.79047e-10
4.59288e-10
1.68971e-10
6.94578e-11
3.30776e-11
1.64093e-11
5.85462e-12
-3.70854e-12
1.00003e-12
4.17756e-13
1.6618e-13
6.95259e-14
2.51895e-14
8.85378e-15
1.65548e-15
0
-2.04689e-17
0
-1.27714e-20
-1.84394e-16
-3.23991e-07
-3.33433e-07
1.15395e-19
2.35968e-19
-1.14761e-10
4.89054e-19
1.38191e-14
-4.79043e-10
-3.75988e-07
3.81079e-07
3.83836e-07
-2.59807e-16
-2.73908e-15
1.41664e-08
5.76135e-08
3.27172e-06
4.57484e-05
0.000545591
0.00544416
0.0445567
0.29792
1.6393
7.52258
29.2456
97.8651
286.037
739.433
1708.3
3561.92
6769.03
11840.1
19315.3
29786.1
44032.8
63193.4
88904.3
123354
169437
231012
313092
422290
568621
763804
1.02383e+06
1.36969e+06
1.82899e+06
2.43801e+06
3.2445e+06
4.31142e+06
5.722e+06
7.58663e+06
1.00525e+07
1.32743e+07
1.74931e+07
2.32483e+07
3.09296e+07
8.68634e+07
3.67175e+08
2.95145e+07
2.11927e+07
1.50349e+07
1.05155e+07
7.23526e+06
4.88719e+06
3.23494e+06
2.09744e+06
1.3378e+06
855408
527168
115712
6993.34
166.438
2.11269
0.0195077
0.000217235
4.84752e-06
2.72021e-07
3.59663e-08
8.551e-09
2.87783e-09
9.85852e-10
4.40734e-10
1.79159e-10
7.02736e-11
3.4685e-11
1.40712e-11
6.62743e-12
2.41642e-12
9.86273e-13
4.1342e-13
1.64955e-13
6.9196e-14
2.51256e-14
-5.2271e-12
7.4664e-13
0
-2.77486e-07
0
2.99783e-07
0
-1.28323e-11
0
0
1.34882e-10
-1.1154e-10
0
-1.02016e-09
5.68249e-10
-1.95622e-18
1.15755e-09
-2.33704e-09
-4.28279e-09
-4.77782e-09
1.75503e-08
2.48952e-07
3.33435e-06
4.36678e-05
0.000517832
0.00518166
0.04267
0.287808
1.60005
7.4243
29.1913
98.777
291.811
762.016
1776.2
3728.67
7123.19
12503.3
20425.9
31481.6
46433.2
66392.5
92971.3
128332
175381
237773
320673
431867
580146
777797
1.041e+06
1.39106e+06
1.85602e+06
2.47285e+06
3.29041e+06
4.3733e+06
5.80728e+06
7.70659e+06
1.02241e+07
1.35196e+07
1.78473e+07
2.37687e+07
3.16807e+07
1.62491e+08
2.96754e+08
2.94586e+07
2.10115e+07
1.48057e+07
1.02842e+07
7.02612e+06
4.71117e+06
3.09505e+06
1.99242e+06
1.26453e+06
810614
447966
75637.5
3643.65
76.5314
0.915333
0.00878798
0.000112581
3.0346e-06
2.02684e-07
2.88882e-08
7.32444e-09
2.30401e-09
9.49806e-10
3.99138e-10
1.86128e-10
8.2675e-11
3.44091e-11
1.29221e-11
6.08883e-12
2.2526e-12
1.01929e-12
4.32036e-13
1.6354e-13
7.16099e-14
2.64208e-14
8.84042e-15
5.0663e-12
0
-1.39072e-12
0
1.74658e-16
-3.06341e-07
5.30782e-20
0
-1.10841e-19
0
-3.39164e-07
-4.62961e-19
0
-1.00313e-09
0
-2.67015e-14
-5.38644e-14
4.2627e-10
-2.72085e-15
8.48958e-09
5.35748e-08
3.20713e-06
4.19228e-05
0.000498536
0.00501417
0.0416125
0.283315
1.59131
7.46291
29.6597
101.428
302.723
798.228
1877.33
3968.24
7612.11
13403.6
21918.2
33747.2
49637.7
70685.4
98492.9
135178
183426
247376
333044
447093
599036
801422
1.07079e+06
1.42895e+06
1.90465e+06
2.5359e+06
3.37301e+06
4.48267e+06
5.95361e+06
7.90428e+06
1.04935e+07
1.38814e+07
1.83361e+07
2.44417e+07
3.26165e+07
2.53031e+08
2.08797e+08
2.9414e+07
2.08054e+07
1.45344e+07
1.00069e+07
6.7755e+06
4.50215e+06
2.93159e+06
1.87238e+06
1.18308e+06
762277
353897
45631.9
1801.77
33.6878
0.382472
0.00384071
5.66691e-05
1.83477e-06
1.44505e-07
2.34862e-08
6.28265e-09
2.25358e-09
8.66644e-10
3.59409e-10
1.47705e-10
6.46962e-11
2.87085e-11
8.47886e-12
5.5257e-12
2.43902e-12
9.61879e-13
4.05423e-13
1.6966e-13
6.57781e-14
2.50258e-14
9.18023e-15
-7.42318e-13
-4.85665e-18
2.90292e-21
0
0
-3.55826e-16
1.53427e-11
7.44334e-16
-1.08774e-19
-3.27155e-07
3.31409e-07
0
4.34313e-10
4.37305e-10
0
1.97434e-09
1.78423e-09
4.01126e-09
-2.71292e-15
1.27197e-08
2.32459e-07
3.14615e-06
4.11005e-05
0.000489517
0.00495132
0.041401
0.284354
1.61241
7.6367
30.6525
105.851
318.932
848.56
2012.15
4279.05
8233.44
14529.2
23758.6
36508.8
53508
75822.4
104944
142980
193167
260110
348930
467051
624303
833641
1.11216e+06
1.48239e+06
1.97411e+06
2.6267e+06
3.49233e+06
4.64022e+06
6.16247e+06
8.18204e+06
1.08603e+07
1.43501e+07
1.89601e+07
2.52908e+07
3.37512e+07
3.42548e+08
1.18472e+08
2.91242e+07
2.04036e+07
1.41187e+07
9.63001e+06
6.46055e+06
4.25449e+06
2.74693e+06
1.74207e+06
1.09753e+06
710080
250749
26434.9
885.877
15.0259
0.165552
0.00177356
3.03521e-05
1.178e-06
1.09197e-07
1.91588e-08
5.52248e-09
1.98434e-09
7.97709e-10
3.5143e-10
1.50805e-10
6.17178e-11
2.63157e-11
1.08887e-11
5.63983e-12
3.06976e-12
9.52799e-13
5.9981e-12
1.56184e-13
6.49512e-14
2.50082e-14
8.12072e-15
1.30838e-15
0
-2.0139e-17
5.97686e-21
0
0
0
0
0
-3.21e-07
-2.32618e-10
0
8.87825e-19
-9.75361e-11
1.05171e-09
-1.91694e-09
-3.62636e-17
-2.77644e-16
-2.74286e-15
1.58514e-08
2.24542e-07
2.9415e-06
4.09823e-05
0.000488963
0.00497373
0.0419098
0.290337
1.66135
7.94156
32.1711
112.104
340.729
914.032
2183.35
4668.7
9003.15
15887.4
25946.9
39749.3
57956.5
81509
111970
152072
205121
275086
367824
491092
655141
873492
1.16399e+06
1.55019e+06
2.06327e+06
2.74446e+06
3.64839e+06
4.84747e+06
6.43791e+06
8.54767e+06
1.13422e+07
1.49775e+07
1.97825e+07
2.63393e+07
3.50448e+07
4.22296e+08
3.99678e+07
2.79853e+07
1.9431e+07
1.33426e+07
9.03751e+06
6.02353e+06
3.94214e+06
2.53092e+06
1.59847e+06
1.00721e+06
645427
185334
15067.1
442.28
6.9213
0.0750944
0.000864753
1.70914e-05
7.7925e-07
8.2526e-08
1.56592e-08
5.0187e-09
1.8559e-09
7.83734e-10
3.06527e-10
1.42285e-10
5.48985e-11
2.78046e-11
1.16015e-11
4.55221e-12
1.87882e-12
7.40026e-13
3.21298e-13
1.54233e-13
5.449e-12
2.19869e-14
-7.53339e-13
-5.04835e-12
-4.84267e-18
-2.00548e-17
2.83233e-12
-1.69906e-16
-1.73886e-16
-1.49291e-11
-3.03577e-11
-3.11101e-07
0
-3.16998e-07
0
0
0
0
1.02568e-09
-3.86569e-17
-4.95464e-14
-2.77302e-15
1.1876e-08
2.32163e-07
2.98585e-06
4.11214e-05
0.000495085
0.00507232
0.0430689
0.300869
1.73659
8.37406
34.2176
120.245
368.448
995.874
2394.42
5143.9
9930.01
17487.3
28478.2
43378.6
62783.6
87818.2
120439
162829
218374
291640
388755
517844
689653
918383
1.22282e+06
1.62783e+06
2.1664e+06
2.88229e+06
3.83359e+06
5.09748e+06
6.77647e+06
9.00682e+06
1.19686e+07
1.57895e+07
2.10057e+07
2.79264e+07
3.70657e+07
4.52964e+08
3.50689e+07
2.49333e+07
1.74814e+07
1.20747e+07
8.20478e+06
5.47566e+06
3.584e+06
2.30044e+06
1.45425e+06
921540
572632
133306
8747.71
230.134
3.37327
0.036531
0.000455078
1.03318e-05
5.49247e-07
6.63576e-08
1.37305e-08
4.33451e-09
1.54744e-09
6.98942e-10
3.13093e-10
1.26791e-10
6.0702e-11
2.55931e-11
1.10017e-11
5.74462e-12
1.0371e-12
8.36134e-13
3.44587e-13
1.35635e-13
5.57884e-14
2.04857e-14
7.08381e-15
1.2791e-15
0
1.99709e-17
2.79591e-07
0
-1.71903e-16
-1.19817e-11
0
-3.05619e-07
0
3.10344e-07
-3.11752e-07
0
0
0
1.80506e-09
-3.40503e-17
2.00614e-09
-2.81738e-15
3.43857e-07
2.53675e-07
3.20409e-06
4.18744e-05
0.000508236
0.005241
0.0448415
0.3158
1.83796
8.9367
36.8164
130.411
402.643
1095.9
2650.11
5712.87
11021
19317.6
31245.9
47199.3
68027.4
94903.7
129342
173897
232117
308825
410440
545466
725143
964356
1.28284e+06
1.70685e+06
2.27131e+06
3.02283e+06
4.02371e+06
5.35743e+06
7.1362e+06
9.51143e+06
1.26837e+07
1.68232e+07
2.25439e+07
3.02438e+07
4.06292e+07
4.39082e+08
3.20816e+07
2.28148e+07
1.60101e+07
1.10681e+07
7.52505e+06
5.02322e+06
3.28817e+06
2.11169e+06
1.33837e+06
855421
500989
95997.2
5295.28
126.946
1.76279
0.0192148
0.000258969
6.68186e-06
4.04072e-07
5.33215e-08
1.23857e-08
4.13343e-09
1.57774e-09
6.36214e-10
2.82298e-10
1.17747e-10
5.33358e-11
2.3799e-11
1.04228e-11
-1.10797e-12
1.84556e-12
7.29615e-13
3.04049e-13
1.22814e-13
5.56573e-14
5.25725e-12
6.69182e-15
1.1448e-15
3.68578e-13
0
2.77707e-07
-2.83862e-07
0
-1.45254e-11
2.94128e-11
0
0
0
-8.21851e-19
0
-3.92573e-10
9.64845e-10
-7.85244e-10
-3.95586e-17
3.61419e-10
-2.89252e-15
1.42454e-08
4.07077e-07
3.16345e-06
4.34754e-05
0.000527384
0.00547546
0.0472025
0.335055
1.96568
9.63407
40.0012
142.774
444.019
1216.47
2956.9
6389.04
12282.7
21355.9
34329.1
51725.4
74065.2
102422
138569
185182
245970
325957
431794
572279
759025
1.00742e+06
1.33787e+06
1.77755e+06
2.36264e+06
3.14145e+06
4.17863e+06
5.56089e+06
7.40485e+06
9.86794e+06
1.31391e+07
1.74325e+07
2.33756e+07
3.13805e+07
8.19498e+07
4.00187e+08
3.034e+07
2.15399e+07
1.50925e+07
1.04193e+07
7.07505e+06
4.71758e+06
3.08568e+06
1.98193e+06
1.25955e+06
812765
432130
70291.4
3365.15
74.5144
0.990476
0.010932
0.000159067
4.60936e-06
3.13203e-07
4.52604e-08
1.06369e-08
3.58158e-09
1.35196e-09
5.93209e-10
2.52469e-10
1.15947e-10
4.62008e-11
2.34853e-11
9.05711e-12
4.01019e-12
7.09969e-12
7.95963e-13
3.04805e-13
-6.57322e-13
4.94873e-14
1.81646e-14
6.70063e-15
1.05938e-15
0
0
-6.18655e-12
6.95624e-12
-1.6798e-16
-2.89621e-07
0
-1.38582e-15
0
-4.00875e-19
0
1.11679e-14
-1.11474e-14
0
9.35153e-10
-3.82645e-17
1.52372e-09
-2.98119e-15
2.05714e-08
2.51715e-07
3.29516e-06
4.49654e-05
0.000552371
0.00577357
0.050141
0.358658
2.12054
10.4735
43.8171
157.548
493.387
1360.08
3319.8
7168.48
13686.5
23625.7
37850.2
56546.5
80277.4
110109
147915
196487
259688
342692
452319
597553
790238
1.04603e+06
1.38567e+06
1.83671e+06
2.43578e+06
3.23164e+06
4.28936e+06
5.69581e+06
7.56729e+06
1.00598e+07
1.33551e+07
1.76573e+07
2.35829e+07
3.15052e+07
1.51447e+08
3.37156e+08
2.94333e+07
2.08418e+07
1.45705e+07
1.00392e+07
6.80522e+06
4.53121e+06
2.96102e+06
1.90205e+06
1.21192e+06
788224
384141
52886.4
2255
46.5299
0.596755
0.00670008
0.000104802
3.37034e-06
2.53959e-07
3.93094e-08
9.69642e-09
3.32601e-09
1.42456e-09
5.82831e-10
2.73002e-10
1.14128e-10
4.83517e-11
2.32568e-11
9.38419e-12
4.36148e-12
1.61471e-12
6.6957e-13
3.02884e-13
1.21749e-13
-7.24515e-13
1.89621e-14
5.81512e-15
1.06275e-15
0
-2.68466e-07
-5.77789e-21
-2.78646e-07
1.66035e-16
0
-2.8794e-07
-2.89413e-07
-1.95868e-19
-3.91947e-19
0
-2.89152e-07
-3.71019e-10
2.87828e-07
-7.36539e-10
-3.69714e-17
1.80618e-09
-3.08631e-15
1.97732e-08
1.17165e-07
3.31151e-06
4.7242e-05
0.000582484
0.00613184
0.0536461
0.38664
2.30345
11.4635
48.3175
174.988
551.722
1529.1
3739.39
8058.07
15290.7
26233.7
41650.9
61632.7
86690.5
117928
157317
207755
273229
359017
472055
621434
819113
1.08087e+06
1.42755e+06
1.88679e+06
2.49521e+06
3.30147e+06
4.37025e+06
5.78766e+06
7.66854e+06
1.01664e+07
1.34551e+07
1.7737e+07
2.36204e+07
3.14637e+07
2.12214e+08
2.78943e+08
2.88257e+07
2.03859e+07
1.42349e+07
9.79746e+06
6.63529e+06
4.41505e+06
2.88437e+06
1.85404e+06
1.18456e+06
775652
338677
41069.7
1591.56
30.9205
0.384906
0.00439957
7.35871e-05
2.59448e-06
2.1219e-07
3.49546e-08
9.143e-09
3.07335e-09
1.30227e-09
5.72084e-10
2.19711e-10
1.12265e-10
4.79394e-11
2.04432e-11
8.48963e-12
3.53456e-12
6.2027e-13
5.98815e-12
2.63414e-13
1.15754e-13
4.62072e-14
1.74627e-14
5.98122e-15
1.02535e-15
2.0235e-13
1.96388e-17
2.72098e-07
1.23837e-11
0
0
0
1.91724e-19
-2.84246e-07
-2.83781e-07
5.3179e-15
-3.62397e-10
-1.05207e-14
2.78019e-07
-8.95678e-18
1.41848e-09
-3.32257e-16
-2.74747e-07
1.89727e-08
2.66608e-07
3.51613e-06
4.96609e-05
0.00061766
0.00654742
0.0576981
0.418971
2.51509
12.6122
53.5617
195.41
620.115
1725.22
4225.35
9105.89
17173
29084.6
45691.3
66912.5
93223
125800
166711
218952
286604
375025
491218
644338
846397
1.1132e+06
1.46562e+06
1.9312e+06
2.54642e+06
3.35963e+06
4.43493e+06
5.85751e+06
7.74049e+06
1.02334e+07
1.35071e+07
1.77664e+07
2.36023e+07
3.13607e+07
2.64365e+08
2.29007e+08
2.82593e+07
1.99931e+07
1.39644e+07
9.6133e+06
6.51184e+06
4.33401e+06
2.8329e+06
1.8233e+06
1.16889e+06
770057
291349
32909.8
1177.42
21.7148
0.264027
0.00307605
5.46542e-05
2.08615e-06
1.8362e-07
3.21185e-08
8.59152e-09
3.09226e-09
1.27579e-09
5.18286e-10
2.63282e-10
1.03584e-10
4.79482e-11
2.17578e-11
9.14484e-12
9.14687e-12
1.52997e-12
6.10482e-13
2.61576e-13
1.08564e-13
4.30814e-14
1.59666e-14
-7.41961e-13
9.7815e-16
0
0
0
1.15359e-20
0
0
0
0
1.10127e-10
-2.77194e-07
3.95599e-10
-4.33092e-10
0
-2.90595e-18
-8.65044e-18
-4.58422e-17
-3.42321e-16
7.59925e-14
1.81693e-08
2.85147e-07
3.73761e-06
5.25999e-05
0.000657189
0.00701324
0.0622508
0.455411
2.75473
13.9209
59.5805
219.022
699.282
1956.62
4825.89
10366.7
19248.6
32076.4
49815.4
72191.3
99672.8
133535
175926
229941
299722
390684
509872
666474
872518
1.1438e+06
1.50113e+06
1.97192e+06
2.59242e+06
3.41052e+06
4.48969e+06
5.91358e+06
7.79314e+06
1.02783e+07
1.3535e+07
1.77621e+07
2.35418e+07
3.12067e+07
3.07822e+08
1.87932e+08
2.76951e+07
1.96189e+07
1.37187e+07
9.45408e+06
6.4106e+06
4.27141e+06
2.79583e+06
1.80308e+06
1.15995e+06
766425
266541
27085.7
907.953
16.0347
0.191503
0.00227471
4.26595e-05
1.74774e-06
1.62466e-07
2.93158e-08
8.39652e-09
2.94186e-09
1.20747e-09
5.49473e-10
2.34895e-10
9.98359e-11
3.83205e-11
1.91713e-11
7.50435e-12
-1.36907e-12
1.4711e-12
6.52383e-13
1.02445e-12
-6.54238e-13
-5.11113e-12
1.59306e-14
5.616e-15
9.79582e-16
3.65941e-13
-2.79562e-21
7.88664e-17
2.70917e-07
-1.6024e-16
1.10143e-11
2.20486e-11
0
0
2.5445e-15
-5.04739e-15
2.66574e-07
0
-1.95725e-14
6.6345e-10
-4.41103e-17
-2.53601e-07
-3.47926e-15
2.31506e-08
3.00816e-07
3.97248e-06
5.57082e-05
0.000699941
0.00751912
0.0672177
0.495401
3.0196
15.3798
66.3575
245.768
790.968
2231.87
5512.64
11753.2
21397.4
35001.5
53766.4
77159.5
105716
140806
184650
240417
312290
405721
527775
687652
897368
1.17268e+06
1.53427e+06
2.00939e+06
2.63396e+06
3.45517e+06
4.53499e+06
5.95632e+06
7.83128e+06
1.03062e+07
1.35376e+07
1.77262e+07
2.34427e+07
3.10081e+07
3.43394e+08
1.54651e+08
2.71315e+07
1.92544e+07
1.3487e+07
9.31018e+06
6.32387e+06
4.22124e+06
2.76861e+06
1.79008e+06
1.15581e+06
764756
248451
22965.5
729.675
12.4287
0.146414
0.00177142
3.48266e-05
1.50902e-06
1.49239e-07
2.79181e-08
7.84592e-09
2.87109e-09
1.26839e-09
4.92522e-10
2.30135e-10
9.7956e-11
4.26774e-11
1.74623e-11
8.14729e-12
3.40738e-12
-2.89427e-12
6.46058e-13
2.57534e-13
1.01386e-13
-7.10789e-13
1.73357e-14
5.25079e-15
8.91448e-16
4.78727e-18
0
0
1.13194e-20
-1.58316e-16
-2.6971e-07
0
0
-1.25229e-15
0
-2.61574e-07
-4.85228e-15
0
0
7.85362e-10
-2.4526e-07
-1.25188e-09
-3.05633e-09
2.20719e-08
4.38879e-07
4.09432e-06
5.89981e-05
0.000744376
0.00804906
0.0724506
0.537837
3.30295
16.9542
73.7207
275.1
892.551
2537.34
6274.63
13226
23446.2
37545.1
57130.8
81363.5
110880
147117
192372
249845
323748
419544
544306
707222
920272
1.19913e+06
1.56434e+06
2.04277e+06
2.66958e+06
3.4914e+06
4.57026e+06
5.98884e+06
7.8538e+06
1.03084e+07
1.35049e+07
1.76424e+07
2.32796e+07
3.07294e+07
3.7141e+08
1.28129e+08
2.65696e+07
1.88972e+07
1.32656e+07
9.17736e+06
6.24754e+06
4.18003e+06
2.74862e+06
1.78253e+06
1.15543e+06
764274
234439
20077.9
610.492
10.0915
0.117624
0.00144682
2.96129e-05
1.34686e-06
1.37457e-07
2.65063e-08
7.63673e-09
2.79727e-09
1.10319e-09
5.2526e-10
2.37116e-10
1.01826e-10
4.47719e-11
2.0006e-11
1.30507e-11
3.44442e-12
6.52295e-12
5.69481e-12
2.55354e-13
-4.99443e-12
4.24905e-14
1.58348e-14
5.24356e-15
8.92008e-16
0
0
0
0
-1.56372e-16
0
0
2.62819e-07
1.2241e-15
2.57616e-07
0
0
9.26235e-15
0
7.55228e-10
-1.21166e-09
-3.8139e-16
5.28581e-09
2.33439e-08
3.26378e-07
4.3439e-06
6.19456e-05
0.00078861
0.00857938
0.0777307
0.581008
3.59366
18.5821
81.3811
306.596
1004.99
2872.24
7091.25
14676.8
25070.9
39215.7
59316.5
84157.5
114470
151740
198309
257379
333173
431146
558364
723993
939916
1.22162e+06
1.58923e+06
2.06934e+06
2.697e+06
3.51886e+06
4.59541e+06
6.0053e+06
7.85349e+06
1.02786e+07
1.34267e+07
1.74876e+07
2.2998e+07
3.02441e+07
4.00009e+08
1.04056e+08
2.60088e+07
1.85457e+07
1.30521e+07
9.05283e+06
6.179e+06
4.14558e+06
2.73409e+06
1.77909e+06
1.15781e+06
766106
224180
18086.1
530.735
8.56054
0.0989509
0.00123427
2.61034e-05
1.23517e-06
1.32164e-07
2.53751e-08
7.59755e-09
2.72078e-09
1.2057e-09
5.12618e-10
2.20176e-10
9.34561e-11
4.39229e-11
1.96605e-11
8.22294e-12
3.3148e-12
1.41983e-12
-4.41469e-12
5.31539e-12
9.99822e-14
4.226e-14
5.06868e-12
5.23434e-15
8.92133e-16
0
2.61779e-07
0
-2.63234e-07
1.54474e-16
-2.34839e-11
2.5996e-07
0
1.7172e-19
0
2.46784e-07
2.42411e-07
2.38246e-07
-2.33341e-07
-1.23652e-17
-1.15966e-09
3.29577e-14
-3.86736e-15
2.48811e-08
4.49972e-07
4.57322e-06
6.48741e-05
0.000830049
0.00908146
0.0827886
0.622977
3.88158
20.2334
89.4193
339.754
1121.12
3217.14
7898.83
15880.6
25730.5
39279.2
59530.7
84700
115572
153677
201348
261778
339166
438947
568138
735808
953698
1.23722e+06
1.60656e+06
2.08839e+06
2.7172e+06
3.53755e+06
4.60864e+06
6.00816e+06
7.83841e+06
1.02344e+07
1.33366e+07
1.73311e+07
2.27405e+07
2.98422e+07
4.17771e+08
8.78549e+07
2.54498e+07
1.81984e+07
1.2844e+07
8.93399e+06
6.11579e+06
4.11574e+06
2.72327e+06
1.77838e+06
1.16192e+06
768683
217316
16764.8
478.386
7.56676
0.0868901
0.00109583
2.378e-05
1.16183e-06
1.26695e-07
2.55338e-08
7.68186e-09
2.80323e-09
1.21004e-09
4.9969e-10
2.15019e-10
9.44341e-11
4.45793e-11
1.93077e-11
7.77121e-12
3.26663e-12
1.49202e-12
1.35971e-12
2.50734e-13
1.01797e-13
3.91524e-14
1.57157e-14
5.38351e-15
8.91971e-16
0
0
0
0
0
0
0
-1.70201e-19
1.16818e-15
7.86408e-11
3.43883e-10
0
3.63234e-10
-5.77934e-10
-5.65347e-10
-5.10722e-17
1.08719e-09
4.76945e-09
-1.83416e-07
3.53198e-07
4.87071e-06
6.74778e-05
0.000865258
0.00951198
0.0871582
0.659504
4.1338
21.687
96.5738
369.772
1228.42
3533.43
8572.9
16440.8
24629.1
36811.8
56832.7
81973.6
113062
151627
199958
261215
339552
440359
570613
739371
958434
1.24322e+06
1.61367e+06
2.09543e+06
2.72238e+06
3.53873e+06
4.60237e+06
5.98923e+06
7.79901e+06
1.0163e+07
1.32164e+07
1.71402e+07
2.24412e+07
2.93834e+07
4.31352e+08
7.63224e+07
2.48907e+07
1.78522e+07
1.26373e+07
8.81677e+06
6.0541e+06
4.08716e+06
2.71339e+06
1.77818e+06
1.16601e+06
771452
213335
15954.9
445.785
6.94648
0.0793619
0.00100892
2.23041e-05
1.11401e-06
1.22942e-07
2.52724e-08
7.40326e-09
2.87482e-09
1.17577e-09
4.95686e-10
2.2022e-10
9.47011e-11
4.33862e-11
1.82518e-11
7.63992e-12
3.49141e-12
1.47232e-12
-3.59445e-12
-4.6988e-12
9.84475e-14
3.8915e-14
1.5649e-14
5.56684e-15
8.91549e-16
-2.59191e-07
0
-3.20563e-12
-1.51693e-16
0
-2.98337e-16
-2.50688e-07
1.16065e-15
1.63662e-19
9.40383e-11
0
-4.26376e-15
1.19344e-18
-2.15363e-07
2.10449e-07
-2.04853e-07
1.03208e-09
4.51059e-09
2.46037e-08
3.6634e-07
4.92238e-06
6.91313e-05
0.00089098
0.00982844
0.0903951
0.68682
4.3247
22.8047
102.109
393.225
1312.07
3765.78
8915.71
15736.7
23939.8
31448.7
50266.4
74915.1
105673
144043
192272
253462
331724
432426
562518
730997
949535
1.23312e+06
1.60138e+06
2.07983e+06
2.70172e+06
3.51043e+06
4.56263e+06
5.93244e+06
7.71698e+06
1.00437e+07
1.30428e+07
1.6889e+07
2.20721e+07
2.8842e+07
4.40571e+08
6.91058e+07
2.43262e+07
1.74993e+07
1.24235e+07
8.6924e+06
5.98579e+06
4.0528e+06
2.69862e+06
1.77391e+06
1.16654e+06
772609
211458
15533
427.779
6.59648
0.0750853
0.00095938
2.14645e-05
1.08672e-06
1.21747e-07
2.49443e-08
7.61138e-09
2.78324e-09
1.14023e-09
5.04029e-10
2.24835e-10
9.82371e-11
4.53944e-11
1.9327e-11
8.19332e-12
3.41935e-12
1.4522e-12
6.11302e-13
2.45832e-13
1.03281e-13
-6.92672e-13
1.6216e-14
5.55247e-15
9.15365e-16
0
0
0
0
-1.48693e-16
0
-1.98032e-11
-2.41585e-07
-1.11183e-15
3.1181e-19
-1.78163e-10
-5.9098e-19
0
-2.22825e-18
-8.65277e-18
-5.46647e-17
1.20062e-09
2.34402e-09
2.49546e-08
3.58557e-07
4.92159e-06
7.01928e-05
0.00090433
0.00999305
0.0920964
0.701345
4.42749
23.4133
105.122
405.769
1353.88
3843.94
8687.84
16289.4
24939.9
32787.7
39329.7
62929.1
92557.1
129726
176633
236301
312752
411244
538595
703637
917811
1.19595e+06
1.55733e+06
2.02702e+06
2.63766e+06
3.43178e+06
4.46489e+06
5.80946e+06
7.56024e+06
9.84128e+06
1.27784e+07
1.65409e+07
2.16015e+07
2.81966e+07
4.45455e+08
6.59028e+07
2.37417e+07
1.71181e+07
1.21781e+07
8.5371e+06
5.88967e+06
3.99491e+06
2.66484e+06
1.75473e+06
1.15549e+06
766782
210301
15383.2
420.597
6.44991
0.073267
0.000938274
2.11082e-05
1.07536e-06
1.21694e-07
2.51063e-08
7.62464e-09
2.83785e-09
1.18108e-09
4.98246e-10
2.13386e-10
9.58535e-11
4.29584e-11
1.8941e-11
8.04596e-12
4.15188e-12
1.43182e-12
6.0389e-13
2.43321e-13
9.93381e-14
4.12323e-14
1.5508e-14
5.18341e-15
9.10023e-16
-4.75325e-18
2.58461e-07
0
0
2.53053e-07
-4.2157e-20
-8.3015e-20
-1.13561e-15
2.3669e-07
2.17212e-15
-2.25097e-07
-3.46533e-10
2.12945e-07
2.0635e-07
6.34206e-10
-5.46642e-17
9.76825e-10
1.90715e-09
2.30885e-08
4.47253e-07
4.92152e-06
7.01137e-05
0.00090435
0.00999404
0.0921061
0.701423
4.428
23.4159
105.133
405.798
1353.94
3844.03
8687.96
16289.5
24940
32787.7
39327.9
62927.2
92555.1
129724
176630
236298
312750
411242
538594
703636
917811
1.19595e+06
1.55733e+06
2.02702e+06
2.63766e+06
3.43179e+06
4.46491e+06
5.80948e+06
7.56026e+06
9.84131e+06
1.27784e+07
1.6541e+07
2.16016e+07
2.81967e+07
4.4546e+08
6.58978e+07
2.37417e+07
1.71181e+07
1.21781e+07
8.53711e+06
5.88968e+06
3.99492e+06
2.66485e+06
1.75474e+06
1.1555e+06
766783
210299
15383
420.591
6.44982
0.073266
0.000938261
2.11085e-05
1.07537e-06
1.20596e-07
2.51058e-08
7.33767e-09
2.77112e-09
1.18108e-09
4.98247e-10
2.23992e-10
9.81454e-11
4.29584e-11
1.8208e-11
7.74283e-12
3.45922e-12
1.43182e-12
6.03905e-13
2.43321e-13
9.93381e-14
4.98507e-12
1.62868e-14
5.18341e-15
-4.98316e-12
0
-1.45545e-12
0
-2.58121e-07
-1.50634e-16
-1.02162e-11
-2.50661e-07
0
0
2.37621e-07
-2.32483e-07
4.26432e-15
-2.2104e-07
1.61977e-14
-1.20523e-09
1.29706e-09
-1.03203e-09
2.0235e-09
2.41477e-08
2.60712e-07
5.01094e-06
6.92463e-05
0.000891207
0.00983091
0.0904209
0.687045
4.32634
22.8142
102.154
393.315
1312.22
3765.99
8915.78
15735.8
23939.9
31448.5
50263.4
74911.6
105669
144039
192268
253458
331720
432424
562519
730999
949539
1.23313e+06
1.60139e+06
2.07984e+06
2.70174e+06
3.51046e+06
4.56267e+06
5.93249e+06
7.71705e+06
1.00438e+07
1.30429e+07
1.68892e+07
2.20723e+07
2.88422e+07
4.40586e+08
6.90907e+07
2.43262e+07
1.74994e+07
1.24235e+07
8.69243e+06
5.98581e+06
4.05281e+06
2.69863e+06
1.77392e+06
1.16655e+06
772610
211454
15532.4
427.76
6.59619
0.0750823
0.000959346
2.14657e-05
1.08673e-06
1.21122e-07
2.49444e-08
7.31474e-09
2.78325e-09
1.18387e-09
4.9301e-10
2.14608e-10
9.77009e-11
4.27339e-11
1.85804e-11
7.88488e-12
3.43718e-12
1.50078e-12
5.86794e-13
2.45833e-13
1.03281e-13
3.86707e-14
1.55797e-14
7.39455e-13
-4.98749e-12
-3.63855e-13
-1.46167e-12
0
-1.16936e-11
0
2.31281e-11
6.00166e-16
-9.05021e-11
1.67691e-19
0
0
6.33287e-19
1.23889e-18
-2.42267e-18
-7.10969e-18
-5.10713e-17
1.08714e-09
5.85096e-14
2.35214e-08
3.53189e-07
4.77061e-06
6.7499e-05
0.000865343
0.00951388
0.0871758
0.659645
4.13485
21.6941
96.593
369.843
1228.63
3533.93
8573.81
16441.7
24629.3
36812.5
56834
81975.3
113065
151630
199961
261219
339557
440363
570618
739380
958448
1.24324e+06
1.61369e+06
2.09546e+06
2.72242e+06
3.53879e+06
4.60245e+06
5.98932e+06
7.79914e+06
1.01632e+07
1.32166e+07
1.71405e+07
2.24414e+07
2.93837e+07
4.31377e+08
7.62969e+07
2.48907e+07
1.78522e+07
1.26374e+07
8.81681e+06
6.05413e+06
4.08718e+06
2.7134e+06
1.77819e+06
1.16602e+06
771452
213328
15953.8
445.751
6.94593
0.079356
0.00100885
2.23043e-05
1.11271e-06
1.23472e-07
2.52727e-08
7.57214e-09
2.78905e-09
1.1758e-09
5.06992e-10
2.15525e-10
1.00584e-10
4.21688e-11
1.8947e-11
7.63993e-12
3.39397e-12
1.42313e-12
5.98441e-13
2.60776e-13
1.04127e-13
4.17625e-14
5.02539e-12
5.211e-15
4.99361e-12
0
-1.92303e-17
7.72442e-17
0
0
-3.07656e-16
0
1.73788e-19
-1.19623e-15
2.51013e-07
0
0
0
-2.51965e-18
-2.29018e-07
-4.86123e-17
-3.9262e-16
5.02784e-09
2.26483e-08
3.42575e-07
4.5731e-06
6.4882e-05
0.000830196
0.0090826
0.0827944
0.62298
3.88126
20.23
89.4078
339.741
1121.14
3217.28
7899.26
15881.2
25731.1
39280.6
59532.9
84703.1
115577
153683
201356
261788
339178
438961
568155
735827
953719
1.23725e+06
1.60659e+06
2.08844e+06
2.71726e+06
3.53763e+06
4.60874e+06
6.00829e+06
7.83858e+06
1.02346e+07
1.33369e+07
1.73314e+07
2.27409e+07
2.98427e+07
4.17806e+08
8.78189e+07
2.54498e+07
1.81985e+07
1.2844e+07
8.93402e+06
6.11582e+06
4.11576e+06
2.72329e+06
1.77839e+06
1.16193e+06
768683
217305
16763.3
478.334
7.56589
0.0868806
0.00109573
2.37788e-05
1.16184e-06
1.26695e-07
2.55343e-08
7.50772e-09
2.80324e-09
1.17313e-09
5.11277e-10
2.2092e-10
9.744e-11
4.30549e-11
1.7905e-11
8.48067e-12
3.34706e-12
6.72348e-13
5.80313e-13
2.50734e-13
9.92306e-14
3.91533e-14
1.57152e-14
5.22345e-15
9.40968e-16
1.63701e-13
0
-2.64716e-07
0
0
-2.38395e-11
0
0
-1.75744e-19
-2.42057e-15
-6.85673e-19
0
0
1.82242e-14
-1.79521e-14
-2.70081e-09
-1.47129e-09
-3.74754e-15
2.33434e-08
3.28712e-07
4.3438e-06
6.1959e-05
0.000788741
0.00858017
0.0777341
0.580995
3.59332
18.579
81.3663
306.571
1004.94
2872.15
7091.18
14676.8
25071
39216.8
59318.6
84160.8
114475
151747
198317
257390
333186
431163
558386
724020
939949
1.22166e+06
1.58928e+06
2.0694e+06
2.69707e+06
3.51896e+06
4.59553e+06
6.00546e+06
7.85368e+06
1.02789e+07
1.3427e+07
1.74879e+07
2.29985e+07
3.02446e+07
4.00057e+08
1.04009e+08
2.60088e+07
1.85457e+07
1.30521e+07
9.05288e+06
6.17904e+06
4.14561e+06
2.73412e+06
1.7791e+06
1.15782e+06
766108
224167
18083.9
530.659
8.55924
0.0989362
0.00123411
2.61023e-05
1.23518e-06
1.32162e-07
2.53752e-08
7.74328e-09
2.81213e-09
1.19702e-09
4.88891e-10
2.09229e-10
9.90183e-11
4.26583e-11
2.03806e-11
8.22295e-12
3.3148e-12
6.81391e-13
5.86778e-13
2.53081e-13
-6.45026e-13
4.226e-14
1.57776e-14
5.59204e-15
8.92133e-16
3.65419e-13
1.93932e-17
0
1.13193e-20
1.58316e-16
-2.41953e-11
6.32848e-16
0
0
-2.64209e-07
0
4.85222e-15
2.54641e-07
-2.71312e-18
-8.03591e-18
-2.81646e-09
-2.44531e-07
3.05619e-09
2.51138e-08
1.93826e-07
4.2137e-06
5.90027e-05
0.00074454
0.00805007
0.0724562
0.537839
3.30271
16.9517
73.7098
275.048
892.393
2537.13
6274.54
13226.2
23447
37547
57133.8
81367.6
110885
147124
192381
249856
323762
419562
544329
707251
920308
1.19918e+06
1.5644e+06
2.04284e+06
2.66967e+06
3.49151e+06
4.57039e+06
5.98901e+06
7.85401e+06
1.03087e+07
1.35052e+07
1.76428e+07
2.32801e+07
3.073e+07
3.71469e+08
1.28069e+08
2.65696e+07
1.88971e+07
1.32657e+07
9.17741e+06
6.24758e+06
4.18006e+06
2.74864e+06
1.78255e+06
1.15544e+06
764277
234422
20074.8
610.382
10.0895
0.117602
0.00144659
2.9608e-05
1.34832e-06
1.38179e-07
2.65064e-08
7.63675e-09
2.70351e-09
1.15096e-09
4.81226e-10
2.25227e-10
9.28921e-11
4.34839e-11
1.92066e-11
8.02524e-12
3.54597e-12
-3.64791e-12
5.93065e-13
-4.83029e-12
1.06512e-13
4.24905e-14
1.58348e-14
5.6022e-15
8.91978e-16
0
2.79562e-21
0
1.21527e-11
1.60239e-16
2.45513e-11
2.73902e-07
0
1.2803e-15
0
0
0
0
0
1.47884e-09
-4.41096e-17
-1.60576e-09
5.79946e-09
2.31501e-08
2.98215e-07
3.97239e-06
5.57248e-05
0.000700051
0.00752137
0.0672342
0.495512
3.02027
15.3836
66.3786
245.875
791.302
2232.68
5514.12
11755.3
21400
35005.2
53771
77165
105723
140814
184660
240429
312304
405739
527798
687682
897406
1.17272e+06
1.53433e+06
2.00947e+06
2.63406e+06
3.45529e+06
4.53513e+06
5.9565e+06
7.83151e+06
1.03065e+07
1.35379e+07
1.77266e+07
2.34432e+07
3.10088e+07
3.43467e+08
1.54578e+08
2.71314e+07
1.92543e+07
1.3487e+07
9.3102e+06
6.32389e+06
4.22126e+06
2.76863e+06
1.79009e+06
1.15581e+06
764758
248430
22961.3
729.514
12.4257
0.146379
0.00177105
3.48204e-05
1.51026e-06
1.49243e-07
2.79184e-08
7.84583e-09
2.94935e-09
1.21949e-09
5.37564e-10
2.30136e-10
1.0055e-10
4.26775e-11
1.88685e-11
8.1473e-12
4.16143e-12
-3.69297e-12
5.99138e-13
2.57542e-13
-5.03515e-12
4.27059e-14
1.44366e-14
5.25079e-15
8.91448e-16
4.80096e-18
-2.98558e-12
0
-2.73485e-07
-2.47568e-11
0
0
4.48787e-11
-1.30832e-15
8.92532e-11
2.75763e-07
0
0
-2.69109e-07
-1.15338e-17
3.04697e-09
-3.03371e-09
-2.63642e-07
-2.45521e-07
2.91208e-07
3.73753e-06
5.26353e-05
0.000657345
0.0070161
0.0622754
0.45559
2.7558
13.9262
59.6002
219.086
699.523
1957.18
4826.96
10368
19249.3
32077.3
49816.8
72193.8
99676.9
133541
175934
229952
299736
390702
509896
666504
872557
1.14385e+06
1.50119e+06
1.972e+06
2.59252e+06
3.41065e+06
4.48984e+06
5.91377e+06
7.79336e+06
1.02786e+07
1.35354e+07
1.77625e+07
2.35423e+07
3.12074e+07
3.07913e+08
1.87843e+08
2.76949e+07
1.96188e+07
1.37187e+07
9.45408e+06
6.4106e+06
4.27142e+06
2.79584e+06
1.80308e+06
1.15995e+06
766425
266516
27079.9
907.712
16.03
0.191447
0.00227411
4.26531e-05
1.74777e-06
1.62468e-07
2.96288e-08
8.39654e-09
2.94192e-09
1.15746e-09
5.03464e-10
2.58201e-10
1.01734e-10
4.20463e-11
1.91718e-11
7.50411e-12
9.0289e-12
1.47107e-12
6.52383e-13
2.35944e-13
-4.31485e-12
4.29047e-14
1.59306e-14
5.616e-15
9.79612e-16
0
-1.96388e-17
2.72098e-07
-2.76061e-07
1.64097e-16
2.81608e-07
0
0
0
1.12304e-10
2.82778e-07
0
8.03049e-10
-3.0021e-18
-8.95666e-18
-4.16234e-17
-3.32252e-16
6.31007e-09
1.89724e-08
1.28415e-07
3.51035e-06
4.98247e-05
0.000617971
0.00655006
0.057721
0.419126
2.51595
12.6162
53.5774
195.464
620.284
1725.68
4226.25
9107.94
17176.9
29089.8
45697
66918.6
93229.6
125808
166720
218963
286619
375044
491243
644370
846437
1.11326e+06
1.46568e+06
1.93128e+06
2.54653e+06
3.35976e+06
4.43509e+06
5.85771e+06
7.74074e+06
1.02337e+07
1.35075e+07
1.77669e+07
2.36028e+07
3.13612e+07
2.64476e+08
2.28898e+08
2.8259e+07
1.99929e+07
1.39643e+07
9.61326e+06
6.51183e+06
4.33401e+06
2.83289e+06
1.8233e+06
1.16889e+06
770059
291287
32901.7
1177.05
21.7072
0.263933