/*--------------------------------*- C++ -*----------------------------------*\
  =========                 |
  \\      /  F ield         | OpenFOAM: The Open Source CFD Toolbox
   \\    /   O peration     | Website:  https://openfoam.org
    \\  /    A nd           | Version:  8
     \\/     M anipulation  |
\*---------------------------------------------------------------------------*/
FoamFile
{
    version     2.0;
    format      ascii;
    class       volScalarField;
    location    "600/fluid";
    object      rDeltaT;
}
// * * * * * * * * * * * * * * * * * * * * * * * * * * * * * * * * * * * * * //

dimensions      [0 0 -1 0 0 0 0];

internalField   nonuniform List<scalar> 
4000
(
513.452
539.412
564.197
587.951
610.613
632.085
652.242
670.947
688.07
703.512
717.236
729.296
739.865
749.264
757.975
766.503
775.24
784.378
793.83
803.224
811.968
819.372
824.78
827.66
827.675
824.634
818.422
809.005
796.413
780.728
762.069
740.579
749.07
791.446
834.798
877.308
918.901
959.506
999.07
1037.55
1074.92
1111.16
1146.24
1180.18
1212.95
1244.55
1275
1304.29
1332.42
1359.39
1385.21
1409.88
1433.4
1455.75
1476.94
1496.95
1515.78
1533.27
1549.42
1564.42
1578.12
1769.38
16120.6
1571.65
1535.59
1494.53
1448.96
1399.42
1346.33
1290.09
1231.12
1169.89
1107.01
1042.99
978.58
915.218
854.918
800.11
753.751
718.501
695.37
682.926
677.908
676.774
676.678
675.844
673.281
668.632
661.925
653.35
643.141
631.537
618.758
604.998
590.422
575.165
559.329
542.987
526.18
508.857
512.983
538.292
562.294
584.923
606.151
625.904
644.093
660.628
675.448
688.535
699.949
709.847
718.51
726.356
733.868
741.516
749.684
758.563
768.072
777.838
787.248
795.566
802.066
806.14
807.336
805.343
799.996
791.247
779.141
763.781
745.312
723.906
713.361
736.49
780.976
824.812
867.898
910.151
951.502
991.896
1031.29
1069.66
1106.98
1143.23
1178.41
1212.5
1245.52
1277.45
1308.3
1338.07
1366.78
1394.42
1421.01
1446.54
1471.04
1494.49
1516.91
1538.14
1558.21
1577.42
1595.64
3416.21
14737.7
1583.14
1542.08
1497.37
1448.87
1396.68
1340.98
1282
1220.03
1155.45
1088.73
1020.31
951.129
883.053
818.728
761.435
714.46
680.157
658.747
648.029
644.453
644.589
645.887
646.785
646.463
644.468
640.645
635.022
627.706
618.841
608.583
597.086
584.492
570.926
556.49
541.257
525.266
508.547
512.29
536.064
558.358
579.138
598.346
615.922
631.812
645.982
658.435
669.229
678.5
686.476
693.488
699.951
706.314
713.027
720.473
728.852
738.099
747.858
757.533
766.392
773.695
778.78
781.106
780.28
776.086
768.442
757.371
742.961
725.348
704.699
681.196
685.771
725.567
769.983
813.922
857.285
899.994
941.982
983.197
1023.6
1063.16
1101.85
1139.66
1176.58
1212.6
1247.72
1281.95
1315.29
1347.76
1379.36
1410.13
1440.07
1469.19
1497.51
1525.01
1551.49
1576.93
1601.45
1624.5
6420.06
11939.3
1602.79
1556.81
1507.1
1453.69
1396.67
1336.18
1272.41
1205.64
1136.25
1064.79
991.819
918.633
847.545
781.581
724.253
678.676
646.531
627.274
618.287
616.023
617.244
619.593
621.627
622.632
622.249
620.306
616.76
611.636
605.003
596.949
587.568
576.956
565.202
552.386
538.57
523.803
508.099
511.61
534.02
554.88
574.146
591.778
607.737
621.998
634.558
645.447
654.746
662.604
669.25
675.006
680.28
685.543
691.268
697.841
705.465
714.073
723.312
732.586
741.164
748.298
753.318
755.693
755.045
751.144
743.885
733.259
719.328
702.202
682.023
658.955
648.883
673.399
718.157
762.708
806.952
850.802
894.188
937.053
979.351
1021.05
1062.11
1102.51
1142.25
1181.3
1219.68
1257.36
1294.37
1330.7
1366.35
1401.34
1435.66
1469.29
1502.2
1534.31
1565.31
1595.04
1623.52
1649.98
10025.6
8426.31
1615.5
1565.52
1511.27
1453.03
1391.06
1325.61
1256.99
1185.61
1112.01
1036.88
960.98
885.991
814.454
749.415
694.092
651.137
621.672
604.675
597.334
596.205
598.286
601.43
604.304
606.198
606.77
605.883
603.504
599.652
594.371
587.72
579.759
570.549
560.152
548.619
535.997
522.322
507.617
510.882
531.808
551.134
568.826
584.847
599.172
611.793
622.724
632.018
639.777
646.168
651.44
655.927
660.046
664.266
669.056
674.795
681.675
689.631
698.313
707.133
715.365
722.257
727.136
729.458
728.834
725.023
717.904
707.454
693.722
676.802
656.823
633.933
611.948
624.087
669.071
714.102
759.08
803.917
848.541
892.894
936.925
980.586
1023.84
1066.68
1109.06
1150.98
1192.42
1233.37
1273.81
1313.74
1353.14
1391.98
1430.22
1467.8
1504.62
1540.52
1575.03
1608.01
1639.33
1667.96
13605.5
4799.73
1619.4
1566.4
1508.44
1446.1
1379.87
1310.2
1237.56
1162.51
1085.74
1008.01
930.282
854.474
783.203
719.47
666.27
625.844
598.808
583.737
577.709
577.422
580.11
583.829
587.374
590.083
591.616
591.816
590.622
588.026
584.047
578.719
572.083
564.183
555.06
544.757
533.309
520.75
507.102
510.151
529.617
547.473
563.684
578.223
591.077
602.247
611.761
619.682
626.124
631.26
635.341
638.7
641.75
644.954
648.77
653.572
659.553
666.652
674.528
682.606
690.172
696.484
700.87
702.787
701.842
697.781
690.475
679.889
666.054
649.054
629.003
606.034
580.297
583.287
622.914
668.327
713.918
759.602
805.305
850.962
896.515
941.921
987.141
1032.14
1076.89
1121.36
1165.53
1209.36
1252.83
1295.89
1338.51
1380.62
1422.14
1462.95
1502.88
1541.69
1578.82
1614.06
1647.14
1676.9
16814.2
1663.41
1615.14
1559.69
1498.59
1432.82
1363.12
1290.1
1214.39
1136.67
1057.76
978.449
899.904
824.201
753.988
692.179
641.529
603.888
579.42
566.375
561.747
562.356
565.637
569.816
573.812
577.03
579.164
580.066
579.674
577.969
574.955
570.65
565.078
558.264
550.239
541.031
530.668
519.176
506.578
509.412
527.402
543.783
558.525
571.607
583.02
592.774
600.906
607.487
612.638
616.538
619.442
621.684
623.674
625.867
628.716
632.586
637.665
643.891
650.928
658.208
665.024
670.642
674.394
675.737
674.275
669.752
662.032
651.071
636.894
619.573
599.212
575.935
549.878
546.064
578.929
624.649
670.754
717.16
763.785
810.564
857.44
904.364
951.289
998.172
1044.97
1091.65
1138.16
1184.46
1230.49
1276.2
1321.52
1366.33
1410.52
1453.93
1496.31
1537.36
1576.3
1613.31
1647.25
1677.05
18077.8
1657.11
1604.96
1546.34
1482.35
1413.86
1341.62
1266.29
1188.56
1109.21
1029.11
949.114
870.516
795.508
726.728
666.991
618.824
583.732
561.514
550.185
546.72
548.081
551.884
556.504
560.952
564.683
567.41
568.989
569.352
568.471
566.342
562.97
558.368
552.555
545.551
537.376
528.053
517.605
506.054
508.674
525.197
540.124
553.428
565.091
575.112
583.507
590.318
595.621
599.541
602.261
604.033
605.189
606.133
607.313
609.173
612.069
616.187
621.463
627.567
633.938
639.88
644.664
647.628
648.232
646.08
640.914
632.593
621.069
606.359
588.53
567.675
543.912
517.366
508.589
536.646
582.59
629.101
676.09
723.48
771.203
819.196
867.403
915.77
964.244
1012.77
1061.31
1109.78
1158.14
1206.31
1254.2
1301.72
1348.74
1395.09
1440.57
1484.91
1527.66
1568.1
1606.15
1640.46
1669.51
17561.5
1643.16
1588.15
1527.12
1461.01
1390.62
1316.67
1239.87
1160.95
1080.75
1000.18
920.109
841.986
768.071
700.982
643.432
597.741
565.112
545.035
535.337
532.991
535.085
539.395
544.423
549.268
553.435
556.659
558.806
559.809
559.636
558.275
555.727
551.997
547.094
541.033
533.828
525.497
516.059
505.535
507.937
522.998
536.479
548.356
558.618
567.267
574.322
579.832
583.875
586.58
588.129
588.776
588.849
588.745
588.906
589.766
591.674
594.808
599.105
604.236
609.645
614.643
618.508
620.584
620.335
617.366
611.42
602.355
590.119
574.728
556.241
534.748
510.359
483.194
470.834
495.541
541.623
588.431
635.879
683.886
732.38
781.292
830.56
880.122
929.916
979.879
1029.95
1080.04
1130.09
1180
1229.66
1278.95
1327.72
1375.78
1422.88
1468.73
1512.8
1554.43
1593.48
1628.64
3235.08
16041.3
1623.42
1566.43
1503.73
1436.18
1364.55
1289.56
1211.93
1132.45
1051.97
971.44
891.741
814.454
741.874
676.586
621.204
577.861
547.496
529.344
521.099
519.757
522.531
527.334
532.776
538.03
542.638
546.355
549.054
550.67
551.168
550.533
548.761
545.852
541.811
536.648
530.372
522.999
514.544
505.026
507.204
520.81
532.855
543.318
552.193
559.485
565.218
569.442
572.242
573.744
574.133
573.661
572.651
571.496
570.627
570.471
571.368
573.49
576.771
580.883
585.276
589.265
592.137
593.241
592.045
588.159
581.327
571.407
558.348
542.163
522.908
500.67
475.554
447.675
432.783
455.233
501.367
548.371
596.155
644.636
693.738
743.387
793.514
844.05
894.924
946.064
997.389
1048.82
1100.25
1151.58
1202.69
1253.43
1303.63
1353.08
1401.52
1448.62
1493.86
1536.56
1576.65
1612.89
5991.85
13540.6
1598.49
1540.59
1477.05
1408.75
1336.48
1261.01
1183.08
1103.51
1023.19
943.057
864.05
787.829
716.715
653.266
600.002
558.882
530.62
514.239
507.332
506.931
510.36
515.655
521.519
527.186
532.232
536.432
539.664
541.867
543.005
543.062
542.028
539.903
536.686
532.385
527.006
520.561
513.062
504.527
506.474
518.632
529.247
538.305
545.8
551.742
556.159
559.104
560.664
560.966
560.195
558.601
556.503
554.288
552.379
551.194
551.063
552.153
554.393
557.455
560.792
563.726
565.55
565.618
563.406
558.527
550.728
539.87
525.903
508.839
488.734
465.673
439.758
411.101
394.438
415.415
461.518
508.619
556.625
605.45
655.013
705.237
756.046
807.364
859.113
911.209
963.564
1016.08
1068.66
1121.16
1173.47
1225.41
1276.8
1327.41
1376.98
1425.16
1471.39
1515.03
1556
1593.05
8407.91
11221.2
1570.18
1511.99
1448.14
1379.58
1307.14
1231.61
1153.78
1074.48
994.632
915.17
837.059
762.049
692.473
630.85
579.615
540.574
514.24
499.469
493.783
494.256
498.319
504.111
510.414
516.514
522.016
526.71
530.481
533.268
535.039
535.774
535.462
534.1
531.687
528.224
523.719
518.178
511.614
504.04
505.747
516.464
525.656
533.312
539.432
544.029
547.135
548.803
549.123
548.225
546.291
543.57
540.378
537.093
534.134
531.906
530.733
530.771
531.947
533.932
536.182
538.023
538.753
537.737
534.453
528.522
519.695
507.837
492.9
474.896
453.883
429.944
403.181
373.703
355.812
375.861
421.855
468.961
517.084
566.135
616.03
666.687
718.024
769.959
822.406
875.276
928.469
981.88
1035.39
1088.87
1142.17
1195.11
1247.5
1299.1
1349.63
1398.71
1445.8
1490.25
1531.95
1569.63
10486.2
9225.34
1539.66
1481.51
1417.72
1349.25
1276.98
1201.73
1124.29
1045.53
966.4
887.791
810.722
737.02
669.008
609.172
559.866
522.76
498.201
484.9
480.339
481.638
486.321
492.619
499.381
505.935
511.913
517.115
521.434
524.812
527.214
528.622
529.024
528.414
526.79
524.151
520.501
515.847
510.196
503.563
505.024
514.304
522.077
528.336
533.084
536.338
538.132
538.523
537.602
535.499
532.397
528.543
524.249
519.886
515.866
512.584
510.354
509.327
509.421
510.308
511.445
512.162
511.766
509.626
505.23
498.203
488.303
475.399
459.445
440.459
418.497
393.645
366.001
335.678
316.926
336.406
382.218
429.245
477.39
526.563
576.676
627.642
679.376
731.788
784.787
838.276
892.149
946.292
1000.58
1054.86
1108.99
1162.78
1216.02
1268.46
1319.8
1369.69
1417.53
1462.69
1505.05
1543.32
12221.6
7579.32
1507.68
1449.78
1386.28
1318.18
1246.34
1171.61
1094.8
1016.79
938.529
860.915
785
712.658
646.21
588.104
540.62
505.309
482.373
470.42
466.898
468.981
474.276
481.092
488.334
495.368
501.844
507.575
512.459
516.438
519.479
521.564
522.679
522.817
521.974
520.149
517.342
513.56
508.807
503.096
504.303
512.15
518.508
523.373
526.75
528.661
529.143
528.255
526.089
522.777
518.503
513.509
508.104
502.655
497.564
493.219
489.922
487.816
486.814
486.585
486.589
486.159
484.61
481.318
475.777
467.622
456.616
442.633
425.632
405.633
382.697
356.908
328.368
297.187
277.808
296.935
342.496
389.368
437.453
486.657
536.889
588.059
640.076
692.847
746.275
800.256
854.678
909.419
964.346
1019.31
1074.14
1128.65
1182.61
1235.78
1287.85
1338.46
1386.98
1432.8
1475.79
1514.65
13644.5
6242.57
1474.71
1417.22
1354.2
1286.64
1215.42
1141.39
1065.38
988.273
911.027
834.516
759.83
688.879
623.977
567.538
521.77
488.121
466.675
455.954
453.399
456.232
462.134
469.482
477.227
484.765
491.765
498.047
503.513
508.108
511.8
514.568
516.4
517.286
517.222
516.204
514.233
511.311
507.443
502.637
503.584
510.003
514.948
518.419
520.427
520.994
520.161
517.991
514.577
510.052
504.599
498.459
491.937
485.395
479.225
473.807
469.435
466.24
464.13
462.773
461.627
460.033
457.31
452.843
446.136
436.829
424.693
409.609
391.54
370.51
346.583
319.846
290.402
258.361
238.487
257.368
302.618
349.268
397.219
446.374
496.639
547.922
600.127
653.158
706.911
761.279
816.143
871.376
926.837
982.37
1037.8
1092.93
1147.54
1201.36
1254.08
1305.34
1354.5
1400.95
1444.59
1484.07
14767.1
5175.21
1441.06
1384.09
1321.68
1254.81
1184.37
1111.19
1036.12
960.027
883.889
808.56
735.154
665.61
602.228
547.388
503.237
471.129
451.049
441.457
439.796
443.349
449.857
457.753
466.024
474.092
481.641
488.496
494.564
499.792
504.148
507.61
510.165
511.803
512.518
512.305
511.164
509.095
506.1
502.186
502.866
507.86
511.394
513.473
514.11
513.333
511.184
507.729
503.063
497.32
490.683
483.391
475.746
468.103
460.849
454.351
448.895
444.603
441.377
438.88
436.573
433.801
429.89
424.233
416.342
405.867
392.586
376.386
357.236
335.166
310.241
282.552
252.204
219.307
198.994
217.656
262.541
308.909
356.66
405.697
455.922
507.24
559.552
612.758
666.75
721.417
776.635
832.271
888.179
944.197
1000.15
1055.83
1111.01
1165.42
1218.74
1270.61
1320.39
1367.49
1411.79
1452.01
15912
4204.41
1406.84
1350.52
1288.85
1222.8
1153.26
1081.05
1007.02
932.051
857.098
783.007
710.916
642.779
580.884
527.578
484.955
454.29
435.482
426.918
426.062
430.308
437.425
445.884
454.704
463.328
471.448
478.899
485.59
491.468
496.501
500.668
503.955
506.351
507.848
508.441
508.126
506.903
504.774
501.742
502.15
505.72
507.844
508.531
507.798
505.674
502.207
497.464
491.542
484.577
476.752
468.303
459.53
450.782
442.436
434.854
428.308
422.913
418.564
414.919
411.442
407.482
402.371
395.513
386.428
374.774
360.338
343.014
322.778
299.663
273.74
245.102
213.855
180.114
159.36
177.774
222.243
268.276
315.771
364.628
414.748
466.034
518.383
571.692
625.851
680.742
736.24
792.207
848.493
904.933
961.343
1017.52
1073.22
1128.17
1182.07
1234.52
1284.91
1332.63
1377.59
1418.49
16625.5
3550.39
1372.3
1316.7
1255.86
1190.74
1122.19
1051.05
978.142
904.353
830.639
757.826
687.066
620.322
559.867
508.018
466.825
437.506
419.922
412.366
412.229
417.134
424.853
433.882
443.266
452.462
461.174
469.241
476.572
483.116
488.842
493.726
497.755
500.916
503.199
504.599
505.111
504.732
503.461
501.302
501.435
503.583
504.298
503.592
501.487
498.016
493.228
487.194
480.014
471.823
462.804
453.195
443.289
433.43
423.99
415.319
407.679
401.176
395.698
390.9
386.247
381.091
374.774
366.707
356.42
343.581
327.986
309.535
288.211
264.053
237.136
207.556
175.422
140.849
119.615
137.71
181.72
227.371
274.558
323.181
373.14
424.333
476.658
530.007
584.268
639.321
695.036
751.272
807.877
864.68
921.495
978.11
1034.29
1089.75
1144.19
1197.21
1248.18
1296.53
1342.14
1383.75
17171.3
3084.4
1337.53
1282.73
1222.8
1158.68
1091.2
1021.2
949.484
876.937
804.503
732.998
663.579
598.21
539.144
488.67
448.794
420.691
404.228
397.689
398.283
403.831
412.141
421.742
431.699
441.483
450.804
459.503
467.492
474.719
481.152
486.767
491.548
495.483
498.559
500.771
502.11
502.573
502.158
500.866
500.72
501.446
500.752
498.654
495.176
490.356
484.245
476.918
468.475
459.055
448.84
438.066
427.023
416.051
405.512
395.748
387.011
379.397
372.786
366.831
360.997
354.641
347.113
337.832
326.34
312.314
295.558
275.981
253.573
228.377
200.473
169.962
136.955
101.568
100
100
140.981
186.205
233.039
281.379
331.125
382.173
434.419
487.752
542.059
597.216
653.091
709.542
766.411
823.526
880.698
937.712
994.328
1050.27
1105.21
1158.78
1210.34
1259.31
1305.59
1347.92
17542
2792.62
1302.57
1248.65
1189.71
1126.66
1060.33
991.522
921.057
849.796
778.679
708.506
640.435
576.422
518.698
469.521
430.86
403.85
388.358
382.748
384.147
390.345
399.247
409.426
419.97
430.359
440.308
449.66
458.326
466.254
473.41
479.771
485.318
490.037
493.916
496.944
499.115
500.422
500.862
500.432
500.006
499.311
497.208
493.715
488.863
482.692
475.256
466.632
456.925
446.272
434.857
422.914
410.732
398.643
387.003
376.143
366.307
357.579
349.833
342.718
335.699
328.141
319.398
308.903
296.204
280.991
263.076
242.376
218.889
192.664
163.785
132.357
100
100
100
100
100.043
144.802
191.239
239.253
288.738
339.592
391.708
444.974
499.273
554.481
610.464
667.077
724.16
781.541
839.026
896.4
953.421
1009.81
1065.25
1119.35
1171.47
1221.06
1268.01
1311.07
17738.3
2663.09
1267.45
1214.49
1156.61
1094.7
1029.58
962.026
892.853
822.915
753.141
684.322
617.603
554.928
498.505
450.563
413.035
387.028
372.367
367.488
369.703
376.572
386.089
396.872
408.029
419.049
429.652
439.681
449.047
457.697
465.596
472.719
479.047
484.564
489.255
493.109
496.118
498.272
499.568
500
500.006
499.311
497.207
493.715
488.862
482.69
475.254
466.631
456.923
446.27
434.855
422.912
410.729
398.64
387
376.14
366.303
357.575
349.829
342.713
335.695
328.135
319.393
308.897
296.198
280.984
263.069
242.369
218.882
192.656
163.777
132.349
100
100
100
100
100.038
144.797
191.235
239.249
288.735
339.589
391.705
444.971
499.27
554.479
610.462
667.075
724.159
781.54
839.025
896.4
953.421
1009.81
1065.25
1119.35
1171.47
1221.06
1268.01
1311.07
17738.5
2662.88
1267.45
1214.49
1156.61
1094.7
1029.58
962.026
892.854
822.916
753.142
684.322
617.604
554.929
498.506
450.564
413.036
387.029
372.368
367.489
369.704
376.573
386.09
396.873
408.029
419.05
429.653
439.681
449.047
457.697
465.596
472.72
479.048
484.564
489.255
493.109
496.118
498.272
499.568
500
500.72
501.446
500.751
498.653
495.174
490.353
484.242
476.915
468.472
459.051
448.835
438.06
427.017
416.045
405.506
395.741
387.004
379.389
372.778
366.822
360.987
354.63
347.101
337.82
326.328
312.301
295.544
275.966
253.558
228.361
200.457
169.946
136.939
101.552
100
100
140.972
186.196
233.031
281.372
331.118
382.167
434.413
487.748
542.055
597.213
653.088
709.539
766.409
823.525
880.697
937.711
994.328
1050.27
1105.21
1158.78
1210.34
1259.31
1305.59
1347.92
17542.6
2792
1302.57
1248.65
1189.71
1126.65
1060.32
991.521
921.057
849.797
778.679
708.507
640.436
576.423
518.7
469.523
430.862
403.852
388.359
382.749
384.148
390.346
399.248
409.428
419.971
430.36
440.309
449.661
458.327
466.255
473.411
479.772
485.319
490.037
493.916
496.944
499.115
500.422
500.862
500.432
501.435
503.582
504.297
503.591
501.485
498.013
493.225
487.191
480.01
471.819
462.8
453.19
443.283
433.424
423.984
415.311
407.671
401.168
395.689
390.891
386.236
381.08
374.762
366.694
356.407
343.567
327.971
309.519
288.195
264.037
237.119
207.538
175.404
140.831
119.603
137.703
181.713
227.364
274.552
323.176
373.136
424.33
476.655
530.005
584.267
639.32
695.035
751.272
807.878
864.681
921.496
978.111
1034.29
1089.75
1144.19
1197.21
1248.18
1296.53
1342.15
1383.75
17172.4
3083.35
1337.52
1282.73
1222.8
1158.67
1091.2
1021.19
949.482
876.935
804.502
732.998
663.579
598.21
539.145
488.671
448.795
420.692
404.229
397.69
398.285
403.833
412.142
421.743
431.7
441.484
450.805
459.504
467.493
474.72
481.152
486.767
491.549
495.483
498.56
500.771
502.11
502.573
502.158
500.866
502.15
505.72
507.843
508.53
507.796
505.672
502.204
497.461
491.539
484.573
476.747
468.298
459.524
450.775
442.429
434.847
428.3
422.905
418.555
414.909
411.432
407.471
402.359
395.5
386.414
374.759
360.322
342.998
322.761
299.645
273.722
245.083
213.836
180.094
159.348
177.769
222.239
268.272
315.768
364.626
414.747
466.033
518.383
571.692
625.852
680.744
736.242
792.209
848.495
904.936
961.346
1017.52
1073.22
1128.18
1182.07
1234.53
1284.91
1332.64
1377.59
1418.5
16627
3548.9
1372.29
1316.7
1255.86
1190.73
1122.18
1051.04
978.138
904.35
830.636
757.824
687.064
620.322
559.867
508.018
466.825
437.507
419.923
412.367
412.231
417.135
424.854
433.883
443.267
452.463
461.175
469.242
476.573
483.117
488.842
493.727
497.755
500.916
503.199
504.599
505.111
504.731
503.461
501.302
502.866
507.859
511.393
513.471
514.108
513.33
511.181
507.725
503.059
497.316
490.678
483.385
475.74
468.097
460.842
454.344
448.887
444.595
441.368
438.87
436.563
433.79
429.877
424.219
416.328
405.852
392.57
376.369
357.218
335.147
310.222
282.532
252.183
219.286
198.982
217.654
262.539
308.908
356.66
405.697
455.923
507.241
559.554
612.76
666.754
721.421
776.639
832.276
888.184
944.203
1000.15
1055.83
1111.01
1165.42
1218.75
1270.62
1320.4
1367.49
1411.79
1452.02
15914
4202.45
1406.83
1350.51
1288.84
1222.79
1153.25
1081.05
1007.02
932.046
857.094
783.004
710.913
642.777
580.882
527.577
484.955
454.29
435.483
426.919
426.063
430.309
437.427
445.885
454.705
463.329
471.449
478.9
485.591
491.469
496.501
500.669
503.956
506.351
507.848
508.441
508.126
506.903
504.774
501.742
503.583
510.003
514.947
518.418
520.425
520.992
520.159
517.988
514.573
510.048
504.594
498.454
491.931
485.388
479.218
473.8
469.426
466.231
464.121
462.763
461.616
460.021
457.297
452.83
446.121
436.813
424.676
409.591
391.521
370.49
346.562
319.825
290.38
258.338
238.476
257.368
302.619
349.269
397.221
446.377
496.643
547.926
600.132
653.163
706.917
761.285
816.15
871.383
926.844
982.377
1037.81
1092.94
1147.54
1201.36
1254.09
1305.35
1354.5
1400.96
1444.59
1484.07
14769.6
5172.74
1441.05
1384.08
1321.67
1254.8
1184.36
1111.18
1036.11
960.019
883.883
808.554
735.15
665.607
602.226
547.387
503.236
471.128
451.05
441.458
439.797
443.35
449.859
457.754
466.025
474.094
481.642
488.497
494.565
499.793
504.148
507.61
510.165
511.803
512.518
512.306
511.164
509.094
506.1
502.186
504.302
512.15
518.508
523.371
526.749
528.659
529.14
528.251
526.085
522.773
518.498
513.503
508.098
502.649
497.557
493.211
489.914
487.807
486.805
486.576
486.578
486.148
484.597
481.304
475.762
467.606
456.598
442.614
425.612
405.612
382.675
356.885
328.344
297.162
277.797
296.937
342.499
389.372
437.458
486.663
536.895
588.066
640.083
692.855
746.284
800.265
854.688
909.429
964.356
1019.32
1074.15
1128.66
1182.62
1235.79
1287.86
1338.46
1386.98
1432.8
1475.8
1514.66
13647.6
6239.57
1474.7
1417.21
1354.19
1286.62
1215.41
1141.38
1065.37
988.264
911.018
834.508
759.824
688.875
623.974
567.535
521.769
488.12
466.675
455.955
453.4
456.233
462.135
469.483
477.228
484.766
491.766
498.048
503.514
508.109
511.801
514.569
516.401
517.287
517.222
516.205
514.233
511.311
507.443
502.637
505.024
514.303
522.076
528.335
533.083
536.336
538.129
538.52
537.598
535.494
532.393
528.538
524.243
519.88
515.858
512.576
510.346
509.318
509.412
510.298
511.434
512.151
511.753
509.612
505.214
498.186
488.285
475.379
459.424
440.437
418.474
393.62
365.976
335.652
316.915
336.412
382.224
429.252
477.398
526.572
576.686
627.653
679.387
731.799
784.799
838.288
892.162
946.304
1000.59
1054.88
1109
1162.79
1216.03
1268.47
1319.81
1369.7
1417.54
1462.7
1505.06
1543.32
12225.4
7575.65
1507.66
1449.77
1386.27
1318.16
1246.33
1171.59
1094.79
1016.77
938.518
860.906
784.993
712.652
646.205
588.101
540.618
505.308
482.373
470.421
466.899
468.983
474.277
481.094
488.336
495.369
501.846
507.576
512.46
516.438
519.48
521.565
522.68
522.818
521.974
520.149
517.343
513.56
508.807
503.096
505.747
516.463
525.655
533.311
539.431
544.028
547.132
548.8
549.12
548.221
546.286
543.565
540.372
537.087
534.127
531.899
530.725
530.763
531.938
533.922
536.171
538.011
538.741
537.723
534.437
528.505
519.676
507.817
492.878
474.873
453.858
429.918
403.154
373.675
355.801
375.87
421.865
468.972
517.095
566.147
616.043
666.7
718.038
769.973
822.421
875.291
928.484
981.895
1035.41
1088.88
1142.18
1195.12
1247.51
1299.11
1349.64
1398.73
1445.81
1490.26
1531.96
1569.64
10490.8
9220.86
1539.64
1481.5
1417.7
1349.24
1276.97
1201.71
1124.28
1045.52
966.387
887.78
810.713
737.012
669.002
609.168
559.864
522.759
498.2
484.901
480.34
481.64
486.323
492.621
499.383
505.937
511.914
517.116
521.435
524.812
527.215
528.623
529.025
528.415
526.79
524.151
520.501
515.847
510.196
503.563
506.474
518.632
529.247
538.304
545.798
551.74
556.157
559.102
560.66
560.962
560.19
558.595
556.497
554.281
552.372
551.186
551.056
552.145
554.384
557.445
560.782
563.715
565.537
565.604
563.39
558.509
550.708
539.849
525.88
508.815
488.708
465.646
439.729
411.071
394.428
415.427
461.532
508.633
556.64
605.465
655.029
705.254
756.064
807.382
859.131
911.227
963.582
1016.1
1068.67
1121.18
1173.48
1225.42
1276.81
1327.43
1377
1425.17
1471.4
1515.04
1556.01
1593.06
8413.37
11215.8
1570.16
1511.97
1448.12
1379.56
1307.12
1231.59
1153.76
1074.46
994.617
915.157
837.047
762.04
692.465
630.844
579.611
540.572
514.24
499.47
493.784
494.258
498.32
504.113
510.416
516.515
522.018
526.711
530.482
533.269
535.04
535.774
535.463
534.101
531.687
528.224
523.719
518.178
511.614
504.04
507.204
520.81
532.854
543.318
552.192
559.483
565.216
569.44
572.238
573.74
574.129
573.656
572.646
571.489
570.621
570.464
571.361
573.482
576.762
580.873
585.265
589.253
592.124
593.226
592.029
588.141
581.307
571.385
558.325
542.137
522.881
500.641
475.523
447.643
432.774
455.249
501.384
548.389
596.174
644.656
693.758
743.408
793.535
844.071
894.946
946.085
997.41
1048.84
1100.27
1151.6
1202.71
1253.45
1303.65
1353.1
1401.54
1448.64
1493.87
1536.57
1576.66
1612.9
5998.15
13534.3
1598.46
1540.57
1477.03
1408.72
1336.46
1260.99
1183.06
1103.49
1023.17
943.042
864.037
787.818
716.707
653.259
599.997
558.879
530.619
514.239
507.333
506.932
510.362
515.657
521.521
527.188
532.234
536.433
539.666
541.868
543.006
543.062
542.029
539.903
536.687
532.385
527.006
520.561
513.062
504.527
507.937
522.998
536.479
548.356
558.617
567.265
574.321
579.829
583.873
586.576
588.125
588.771
588.844
588.739
588.9
589.759
591.667
594.8
599.097
604.227
609.635
614.632
618.495
620.57
620.318
617.347
611.399
602.332
590.094
574.701
556.212
534.718
510.326
483.159
470.826
495.561
541.644
588.453
635.902
683.909
732.404
781.316
830.585
880.146
929.94
979.903
1029.97
1080.07
1130.11
1180.02
1229.68
1278.97
1327.74
1375.79
1422.9
1468.74
1512.81
1554.44
1593.49
1628.65
3242.24
16035.2
1623.39
1566.4
1503.71
1436.16
1364.52
1289.53
1211.91
1132.43
1051.95
971.423
891.726
814.441
741.863
676.578
621.199
577.857
547.495
529.345
521.101
519.76
522.533
527.336
532.778
538.032
542.64
546.357
549.056
550.671
551.169
550.534
548.762
545.852
541.812
536.648
530.372
522.999
514.544
505.026
508.674
525.197
540.124
553.427
565.091
575.111
583.506
590.316
595.619
599.538
602.257
604.028
605.184
606.127
607.307
609.166
612.062
616.179
621.455
627.558
633.929
639.869
644.651
647.613
648.215
646.061
640.893
632.57
621.043
606.331
588.499
567.643
543.877
517.33
508.581
536.67
582.615
629.128
676.117
723.507
771.231
819.225
867.432
915.799
964.272
1012.8
1061.33
1109.81
1158.17
1206.33
1254.23
1301.74
1348.76
1395.11
1440.59
1484.92
1527.68
1568.11
1606.16
1640.47
1669.51
17560.2
1643.14
1588.13
1527.1
1460.99
1390.59
1316.64
1239.85
1160.93
1080.73
1000.16
920.092
841.971
768.059
700.973
643.425
597.737
565.111
545.035
535.338
532.993
535.088
539.398
544.426
549.271
553.437
556.661
558.808
559.81
559.637
558.276
555.728
551.997
547.095
541.033
533.828
525.498
516.06
505.535
509.412
527.402
543.783
558.525
571.606
583.019
592.773
600.904
607.485
612.635
616.535
619.438
621.68
623.668
625.861
628.709
632.579
637.658
643.883
650.919
658.198
665.013
670.63
674.379
675.72
674.256
669.73
662.008
651.044
636.865
619.541
599.177
575.898
549.839
546.058
578.959
624.679
670.786
717.192
763.817
810.596
857.473
904.397
951.322
998.204
1045
1091.68
1138.19
1184.49
1230.52
1276.23
1321.54
1366.35
1410.55
1453.95
1496.33
1537.38
1576.32
1613.32
1647.25
1677.05
18075.3
1657.09
1604.94
1546.31
1482.32
1413.84
1341.59
1266.26
1188.54
1109.18
1029.09
949.095
870.499
795.494
726.717
666.983
618.819
583.729
561.514
550.187
546.723
548.084
551.887
556.507
560.954
564.685
567.412
568.991
569.353
568.472
566.343
562.97
558.369
552.556
545.551
537.376
528.053
517.605
506.054
510.151
529.617
547.473
563.684
578.223
591.077
602.246
611.759
619.68
626.121
631.257
635.337
638.696
641.745
644.948
648.764
653.566
659.546
666.644
674.52
682.597
690.161
696.471
700.855
702.77
701.822
697.758
690.45
679.86
666.023
649.02
628.965
605.994
580.255
583.282
622.95
668.363
713.955
759.639
805.343
851
896.552
941.958
987.178
1032.18
1076.93
1121.4
1165.56
1209.39
1252.86
1295.92
1338.54
1380.65
1422.16
1462.97
1502.9
1541.71
1578.84
1614.07
1647.15
1676.9
16817.8
1663.39
1615.12
1559.67
1498.56
1432.79
1363.09
1290.08
1214.37
1136.64
1057.73
978.429
899.886
824.185
753.975
692.169
641.523
603.885
579.419
566.377
561.75
562.36
565.64
569.819
573.815
577.032
579.166
580.068
579.676
577.97
574.956
570.651
565.078
558.265
550.239
541.031
530.668
519.176
506.578
510.882
531.808
551.135
568.826
584.847
599.172
611.792
622.723
632.016
639.775
646.166
651.437
655.923
660.041
664.261
669.051
674.789
681.669
689.624
698.306
707.124
715.354
722.245
727.121
729.44
728.814
724.999
717.877
707.424
693.688
676.765
656.783
633.891
611.945
624.127
669.112
714.144
759.122
803.96
848.584
892.937
936.968
980.628
1023.89
1066.72
1109.1
1151.02
1192.46
1233.4
1273.85
1313.77
1353.17
1392
1430.24
1467.82
1504.64
1540.53
1575.05
1608.03
1639.33
1667.97
13614.4
4789.03
1619.37
1566.38
1508.41
1446.07
1379.84
1310.17
1237.54
1162.48
1085.72
1007.99
930.261
854.456
783.188
719.459
666.262
625.841
598.807
583.739
577.712
577.426
580.114
583.833
587.377
590.086
591.619
591.818
590.623
588.027
584.048
578.72
572.084
564.183
555.061
544.757
533.309
520.75
507.102
511.61
534.02
554.88
574.147
591.779
607.738
621.998
634.557
645.446
654.745
662.602
669.248
675.003
680.276
685.539
691.263
697.836
705.459
714.067
723.304
732.577
741.154
748.285
753.303
755.675
755.024
751.119
743.857
733.227
719.292
702.163
681.981
658.91
648.881
673.445
718.204
762.756
807
850.851
894.237
937.101
979.398
1021.09
1062.16
1102.56
1142.29
1181.35
1219.72
1257.4
1294.4
1330.73
1366.38
1401.37
1435.68
1469.31
1502.22
1534.33
1565.32
1595.05
1623.53
1649.99
10036.7
8414.9
1615.47
1565.49
1511.25
1453.01
1391.03
1325.58
1256.97
1185.58
1111.99
1036.85
960.957
885.971
814.436
749.401
694.082
651.131
621.671
604.676
597.337
596.209
598.29
601.433
604.307
606.2
606.772
605.885
603.505
599.653
594.372
587.72
579.759
570.55
560.152
548.619
535.997
522.322
507.617
512.29
536.065
558.359
579.139
598.348
615.923
631.813
645.982
658.435
669.229
678.499
686.474
693.485
699.948
706.311
713.023
720.468
728.847
738.094
747.852
757.524
766.382
773.682
778.765