/*--------------------------------*- C++ -*----------------------------------*\
  =========                 |
  \\      /  F ield         | OpenFOAM: The Open Source CFD Toolbox
   \\    /   O peration     | Website:  https://openfoam.org
    \\  /    A nd           | Version:  8
     \\/     M anipulation  |
\*---------------------------------------------------------------------------*/
FoamFile
{
    version     2.0;
    format      ascii;
    class       volScalarField;
    location    "600/fluid";
    object      rho;
}
// * * * * * * * * * * * * * * * * * * * * * * * * * * * * * * * * * * * * * //

dimensions      [1 -3 0 0 0 0 0];

internalField   nonuniform List<scalar> 
4000
(
0.658526
0.6585
0.658455
0.658381
0.658258
0.658053
0.657716
0.657166
0.656279
0.654866
0.652655
0.649262
0.644181
0.636798
0.626451
0.612558
0.594792
0.573251
0.548539
0.521675
0.493874
0.466293
0.439837
0.415093
0.392356
0.371693
0.353029
0.336208
0.321043
0.30734
0.294918
0.283615
0.273291
0.263828
0.255129
0.247099
0.23963
0.232661
0.22614
0.220024
0.214275
0.208861
0.203757
0.198939
0.194389
0.190089
0.186028
0.182193
0.178576
0.175171
0.171972
0.168978
0.166189
0.163607
0.161241
0.159101
0.157207
0.155608
0.154332
0.153387
0.15289
0.152958
0.153866
0.162708
0.173167
0.185457
0.199873
0.216807
0.236771
0.260436
0.288671
0.322598
0.363656
0.413796
0.475395
0.550644
0.640715
0.744046
0.854128
0.959033
1.04565
1.10686
1.14435
1.16473
1.17493
1.17979
1.18203
1.18304
1.18349
1.18368
1.18376
1.1838
1.18381
1.18382
1.18382
1.18382
1.18382
1.18382
1.18382
1.18382
0.658526
0.658499
0.658455
0.658381
0.658256
0.65805
0.65771
0.657156
0.656262
0.654843
0.652624
0.64923
0.644165
0.636828
0.626575
0.612839
0.595293
0.57402
0.549585
0.522962
0.495334
0.467839
0.44139
0.41659
0.393754
0.372968
0.354174
0.337224
0.321936
0.308121
0.295598
0.284204
0.273799
0.264265
0.255502
0.247416
0.239899
0.232886
0.226326
0.220174
0.214394
0.208952
0.203823
0.198982
0.194411
0.190093
0.186015
0.182165
0.178536
0.175119
0.17191
0.168907
0.16611
0.163522
0.16115
0.159006
0.157108
0.155506
0.154228
0.153281
0.152782
0.152852
0.154529
0.163558
0.17423
0.186777
0.201511
0.218848
0.23933
0.263668
0.292783
0.327867
0.370448
0.422607
0.486766
0.565005
0.658082
0.763523
0.873562
0.975575
1.05734
1.11373
1.14779
1.16627
1.17557
1.18005
1.18213
1.18308
1.1835
1.18368
1.18376
1.1838
1.18381
1.18382
1.18382
1.18382
1.18382
1.18382
1.18382
1.18382
0.658526
0.658499
0.658455
0.65838
0.658255
0.658047
0.657705
0.657148
0.656251
0.654826
0.652604
0.649209
0.644152
0.636845
0.626657
0.613031
0.595645
0.574575
0.550361
0.523952
0.496499
0.469123
0.442731
0.417934
0.395057
0.374202
0.355319
0.338272
0.322886
0.308975
0.29636
0.28488
0.274395
0.264786
0.255954
0.247806
0.240233
0.233168
0.22656
0.220365
0.214544
0.209065
0.203901
0.199028
0.194427
0.190082
0.18598
0.182109
0.17846
0.175025
0.171801
0.168785
0.165976
0.163378
0.160997
0.158847
0.156944
0.15534
0.154061
0.153115
0.152622
0.152701
0.155782
0.165052
0.176027
0.188951
0.204157
0.222083
0.243308
0.268582
0.29888
0.335455
0.379913
0.434416
0.50131
0.582389
0.677796
0.784075
0.892539
0.990603
1.06742
1.11953
1.15074
1.16766
1.17619
1.18031
1.18224
1.18312
1.18352
1.18369
1.18377
1.1838
1.18381
1.18382
1.18382
1.18382
1.18382
1.18382
1.18382
1.18382
0.658526
0.658499
0.658455
0.658379
0.658254
0.658046
0.657704
0.657147
0.656251
0.654831
0.652619
0.649245
0.644227
0.636983
0.626888
0.61339
0.596164
0.575273
0.551238
0.524983
0.497643
0.470332
0.443957
0.419138
0.39621
0.375286
0.356324
0.339194
0.323724
0.309732
0.297039
0.285486
0.274931
0.265257
0.256364
0.248161
0.240535
0.233422
0.226769
0.220531
0.21467
0.209153
0.203953
0.199047
0.194416
0.190044
0.185916
0.182021
0.178351
0.174898
0.171657
0.168627
0.165806
0.163198
0.160811
0.158656
0.156751
0.155152
0.153883
0.15295
0.152472
0.152574
0.157403
0.166933
0.178246
0.191597
0.207336
0.225926
0.247976
0.274276
0.305851
0.344004
0.390425
0.447332
0.516957
0.600796
0.698373
0.805284
0.912009
1.00607
1.07795
1.12575
1.15402
1.16926
1.17693
1.18064
1.18239
1.18318
1.18354
1.1837
1.18377
1.1838
1.18381
1.18382
1.18382
1.18382
1.18382
1.18382
1.18382
1.18382
0.658526
0.658499
0.658455
0.65838
0.658254
0.658047
0.657706
0.65715
0.656257
0.654843
0.652643
0.64929
0.644305
0.637114
0.627097
0.613705
0.596612
0.575868
0.551979
0.525851
0.498604
0.471345
0.444983
0.420143
0.397172
0.376188
0.357158
0.339958
0.324419
0.310358
0.2976
0.285985
0.275372
0.265643
0.256698
0.248446
0.240775
0.23362
0.226926
0.220649
0.214751
0.2092
0.203968
0.199033
0.194374
0.189975
0.185823
0.181907
0.178217
0.174746
0.171491
0.168448
0.165619
0.163005
0.160615
0.15846
0.156561
0.154979
0.153723
0.152806
0.152358
0.152515
0.159159
0.16895
0.180612
0.194408
0.210701
0.229977
0.252873
0.280218
0.313078
0.352807
0.40118
0.460438
0.532661
0.619017
0.718376
0.82543
0.930004
1.01997
1.08719
1.13114
1.15685
1.17064
1.17758
1.18094
1.18251
1.18324
1.18357
1.18371
1.18377
1.1838
1.18381
1.18382
1.18382
1.18382
1.18382
1.18382
1.18382
1.18382
0.658526
0.658499
0.658455
0.65838
0.658256
0.658049
0.657709
0.657157
0.656269
0.654864
0.652679
0.64935
0.644403
0.637267
0.627327
0.614033
0.597056
0.576434
0.552661
0.526627
0.499443
0.472212
0.445847
0.42098
0.397963
0.376925
0.357835
0.340573
0.324973
0.310854
0.298042
0.286374
0.275713
0.265937
0.256948
0.248655
0.240947
0.233755
0.227026
0.220716
0.214786
0.209206
0.203947
0.198985
0.194301
0.18988
0.185707
0.181772
0.178065
0.174581
0.171315
0.168264
0.16543
0.162815
0.160428
0.158281
0.156395
0.154833
0.153596
0.152706
0.152289
0.152486
0.160749
0.170826
0.182865
0.197129
0.213991
0.233956
0.257691
0.28606
0.320172
0.361427
0.411686
0.473182
0.547841
0.636487
0.73735
0.844286
0.946611
1.03266
1.0956
1.13606
1.15946
1.17193
1.17819
1.18121
1.18264
1.18329
1.18359
1.18372
1.18378
1.1838
1.18381
1.18382
1.18382
1.18382
1.18382
1.18382
1.18382
1.18382
0.658526
0.6585
0.658455
0.658381
0.658257
0.658051
0.657714
0.657164
0.656282
0.654886
0.652715
0.649409
0.644496
0.637409
0.627537
0.614328
0.597448
0.576929
0.55325
0.52729
0.500152
0.472938
0.446564
0.421667
0.398608
0.377518
0.358375
0.34106
0.325407
0.311239
0.298379
0.286668
0.275965
0.266151
0.257125
0.248797
0.241057
0.233834
0.227075
0.220738
0.214783
0.209177
0.203894
0.19891
0.194206
0.189766
0.185576
0.181625
0.177906
0.174412
0.171138
0.168084
0.16525
0.16264
0.160264
0.158136
0.156276
0.154763
0.153542
0.152721
0.152385
0.152668
0.161607
0.172237
0.184796
0.199597
0.217055
0.237709
0.262262
0.291616
0.326922
0.369632
0.421682
0.485278
0.562186
0.652879
0.754954
0.861508
0.961494
1.04381
1.10287
1.14027
1.16169
1.17303
1.17871
1.18146
1.18275
1.18334
1.18361
1.18373
1.18378
1.1838
1.18381
1.18382
1.18382
1.18382
1.18382
1.18382
1.18382
1.18382
0.658526
0.6585
0.658456
0.658382
0.658258
0.658054
0.657718
0.657172
0.656295
0.654908
0.652751
0.649466
0.644585
0.637544
0.62773
0.614595
0.597797
0.577362
0.553757
0.527853
0.500747
0.47354
0.447151
0.422224
0.399124
0.377989
0.358799
0.341437
0.325739
0.311529
0.298629
0.286881
0.276144
0.266296
0.25724
0.248884
0.241116
0.233866
0.227085
0.220725
0.214748
0.209122
0.203819
0.198817
0.194096
0.18964
0.185436
0.181474
0.177745
0.174244
0.170966
0.167911
0.16508
0.162479
0.160118
0.158013
0.156197
0.154739
0.153603
0.152918
0.152807
0.153473
0.162745
0.173743
0.186709
0.201971
0.219961
0.241246
0.266553
0.296821
0.333239
0.377309
0.431031
0.496567
0.57552
0.668013
0.771042
0.877035
0.974705
1.05357
1.10917
1.14391
1.16361
1.17399
1.17917
1.18167
1.18284
1.18338
1.18363
1.18374
1.18379
1.18381
1.18382
1.18382
1.18382
1.18382
1.18382
1.18382
1.18382
1.18382
0.658526
0.6585
0.658456
0.658382
0.65826
0.658056
0.657723
0.65718
0.656308
0.654929
0.652784
0.649518
0.644666
0.637663
0.6279
0.614827
0.598098
0.577731
0.554185
0.528324
0.501239
0.474033
0.447627
0.422671
0.399534
0.378358
0.359126
0.341724
0.325988
0.311742
0.298809
0.28703
0.276263
0.266389
0.257306
0.248926
0.241136
0.233867
0.227065
0.220686
0.214691
0.209048
0.203729
0.198712
0.193977
0.189509
0.185295
0.181324
0.177588
0.174082
0.170801
0.167746
0.164918
0.162324
0.159975
0.157887
0.156102
0.154677
0.153585
0.152962
0.152934
0.154446
0.163984
0.17528
0.188585
0.204242
0.222702
0.24455
0.270541
0.301642
0.339078
0.384403
0.439666
0.506971
0.587761
0.681815
0.785569
0.890865
0.98629
1.06201
1.11455
1.14699
1.16524
1.17479
1.17955
1.18184
1.18292
1.18342
1.18364
1.18374
1.18379
1.18381
1.18382
1.18382
1.18382
1.18382
1.18382
1.18382
1.18382
1.18382
0.658526
0.6585
0.658456
0.658383
0.658261
0.658059
0.657727
0.657186
0.656319
0.654947
0.652814
0.649565
0.644736
0.637767
0.628048
0.615026
0.598354
0.578041
0.554542
0.528712
0.501642
0.474432
0.448009
0.423025
0.399854
0.378643
0.359375
0.341938
0.32617
0.311893
0.298932
0.287127
0.276337
0.26644
0.257336
0.248937
0.24113
0.233843
0.227025
0.22063
0.21462
0.208964
0.203632
0.198603
0.193858
0.18938
0.185158
0.18118
0.177439
0.173929
0.170647
0.167592
0.164767
0.162178
0.159835
0.157756
0.155983
0.154569
0.153485
0.15286
0.152808
0.155538
0.165268
0.176796
0.190382
0.206378
0.225249
0.247596
0.274199
0.30605
0.344407
0.390873
0.447529
0.516427
0.598851
0.694247
0.798533
0.903056
0.99636
1.06924
1.11913
1.14959
1.16661
1.17547
1.17987
1.182
1.18299
1.18345
1.18366
1.18375
1.18379
1.18381
1.18382
1.18382
1.18382
1.18382
1.18382
1.18382
1.18382
1.18382
0.658526
0.6585
0.658457
0.658384
0.658262
0.658061
0.65773
0.657192
0.656329
0.654964
0.65284
0.649605
0.644797
0.637856
0.628173
0.615193
0.598567
0.578299
0.554836
0.529029
0.501967
0.474751
0.44831
0.423301
0.400101
0.378859
0.35956
0.342094
0.326299
0.311997
0.299013
0.287187
0.276376
0.266461
0.257341
0.248926
0.241104
0.233803
0.226972
0.220565
0.214543
0.208875
0.203534
0.198496
0.193742
0.189258
0.185029
0.181047
0.177302
0.17379
0.170508
0.167454
0.164631
0.162045
0.159708
0.157635
0.155872
0.154465
0.153387
0.152764
0.152712
0.156585
0.166481
0.178211
0.192041
0.208335
0.227567
0.250358
0.277505
0.310028
0.349208
0.396699
0.454611
0.524929
0.608787
0.705324
0.809985
0.913699
1.00504
1.07541
1.12299
1.15178
1.16776
1.17604
1.18015
1.18212
1.18305
1.18348
1.18367
1.18376
1.18379
1.18381
1.18382
1.18382
1.18382
1.18382
1.18382
1.18382
1.18382
1.18382
0.658526
0.6585
0.658457
0.658384
0.658263
0.658063
0.657733
0.657198
0.656338
0.654978
0.652862
0.64964
0.644849
0.637931
0.628277
0.615332
0.598743
0.578509
0.555074
0.529284
0.502226
0.475003
0.448546
0.423514
0.400289
0.37902
0.359696
0.342206
0.326388
0.312065
0.299063
0.287219
0.276392
0.266463
0.257329
0.248901
0.241067
0.233755
0.226913
0.220496
0.214465
0.208789
0.20344
0.198395
0.193635
0.189145
0.184912
0.180927
0.17718
0.173667
0.170385
0.167333
0.164513
0.161932
0.1596
0.157535
0.15578
0.15438
0.153308
0.152692
0.152644
0.157522
0.167571
0.179481
0.193529
0.210084
0.229637
0.252819
0.280447
0.313562
0.353471
0.401878
0.460907
0.532475
0.61758
0.715075
0.819986
0.922901
1.01246
1.08062
1.12623
1.1536
1.16871
1.17651
1.18037
1.18223
1.1831
1.1835
1.18368
1.18376
1.18379
1.18381
1.18382
1.18382
1.18382
1.18382
1.18382
1.18382
1.18382
1.18382
0.658526
0.6585
0.658457
0.658385
0.658264
0.658064
0.657736
0.657202
0.656345
0.654989
0.652881
0.649668
0.644892
0.637992
0.628363
0.615446
0.598886
0.578679
0.555265
0.529487
0.50243
0.4752
0.448727
0.423676
0.400429
0.379139
0.359793
0.342283
0.326447
0.312107
0.299089
0.287231
0.276392
0.266451
0.257306
0.248868
0.241024
0.233703
0.226853
0.220428
0.21439
0.208708
0.203353
0.198302
0.193538
0.189045
0.184809
0.180822
0.177075
0.173562
0.170282
0.167232
0.164416
0.16184
0.159515
0.157456
0.155709
0.154317
0.153253
0.152643
0.1526
0.158329
0.168518
0.180591
0.19483
0.211615
0.231445
0.254967
0.283016
0.31665
0.357201
0.406412
0.466416
0.539074
0.625252
0.723544
0.828614
0.930766
1.01873
1.08499
1.12892
1.15511
1.1695
1.1769
1.18056
1.18231
1.18314
1.18352
1.18369
1.18376
1.1838
1.18381
1.18382
1.18382
1.18382
1.18382
1.18382
1.18382
1.18382
1.18382
0.658526
0.658501
0.658458
0.658385
0.658265
0.658066
0.657738
0.657206
0.656351
0.654999
0.652896
0.649692
0.644926
0.638043
0.628432
0.615537
0.599
0.578815
0.555416
0.529646
0.502589
0.475351
0.448865
0.423798
0.400533
0.379224
0.359861
0.342334
0.326484
0.312131
0.2991
0.287231
0.276382
0.266431
0.257278
0.248833
0.240981
0.233653
0.226796
0.220366
0.214323
0.208635
0.203276
0.198222
0.193455
0.188959
0.184722
0.180734
0.176987
0.173476
0.170197
0.167151
0.16434
0.161769
0.159449
0.157397
0.155658
0.154274
0.153217
0.152613
0.152577
0.15901
0.169325
0.18154
0.195945
0.212929
0.233
0.256817
0.285228
0.31931
0.360415
0.41032
0.471164
0.544757
0.631846
0.730795
0.835955
0.937405
1.02399
1.08862
1.13115
1.15636
1.17015
1.17722
1.18071
1.18239
1.18317
1.18353
1.18369
1.18377
1.1838
1.18381
1.18382
1.18382
1.18382
1.18382
1.18382
1.18382
1.18382
1.18382
0.658526
0.658501
0.658458
0.658386
0.658266
0.658067
0.65774
0.657209
0.656356
0.655007
0.652908
0.64971
0.644954
0.638083
0.628487
0.61561
0.59909
0.578921
0.555533
0.529769
0.502711
0.475465
0.448969
0.423887
0.400608
0.379284
0.359907
0.342368
0.326506
0.312142
0.299102
0.287225
0.276367
0.266409
0.25725
0.248798
0.240941
0.233608
0.226746
0.220311
0.214264
0.208573
0.203211
0.198155
0.193386
0.188889
0.184651
0.180664
0.176918
0.173408
0.170133
0.16709
0.164283
0.161717
0.159402
0.157355
0.155625
0.154246
0.153194
0.152595
0.152567
0.159575
0.170001
0.182339
0.196887
0.214039
0.234314
0.25838
0.287097
0.321559
0.363132
0.413625
0.47518
0.549559
0.637408
0.736891
0.842095
0.942921
1.02832
1.09159
1.13296
1.15737
1.17067
1.17748
1.18084
1.18244
1.1832
1.18354
1.1837
1.18377
1.1838
1.18381
1.18382
1.18382
1.18382
1.18382
1.18382
1.18382
1.18382
1.18382
0.658526
0.658501
0.658458
0.658386
0.658266
0.658067
0.657741
0.657211
0.65636
0.655013
0.652918
0.649725
0.644976
0.638114
0.62853
0.615666
0.59916
0.579002
0.555623
0.529862
0.502803
0.475551
0.449045
0.423953
0.400661
0.379326
0.359938
0.342389
0.326518
0.312146
0.299099
0.287215
0.276352
0.266388
0.257224
0.248768
0.240907
0.23357
0.226705
0.220267
0.214217
0.208524
0.203159
0.198102
0.193332
0.188835
0.184597
0.18061
0.176866
0.173359
0.170087
0.167047
0.164244
0.161682
0.159372
0.15733
0.155603
0.154226
0.153172
0.152561
0.152508
0.160038
0.170557
0.183
0.197666
0.214958
0.235401
0.259672
0.288642
0.323414
0.365374
0.416352
0.478492
0.553517
0.641982
0.74189
0.847109
0.947402
1.03182
1.09398
1.13441
1.15817
1.17109
1.17769
1.18094
1.18249
1.18322
1.18355
1.1837
1.18377
1.1838
1.18381
1.18382
1.18382
1.18382
1.18382
1.18382
1.18382
1.18382
1.18382
0.658526
0.658501
0.658458
0.658386
0.658266
0.658068
0.657742
0.657213
0.656363
0.655018
0.652925
0.649736
0.644993
0.638138
0.628562
0.615708
0.599212
0.579063
0.55569
0.529931
0.50287
0.475613
0.4491
0.423999
0.400698
0.379354
0.359959
0.342402
0.326524
0.312146
0.299094
0.287205
0.276338
0.266371
0.257203
0.248744
0.24088
0.23354
0.226673
0.220233
0.214182
0.208487
0.203122
0.198063
0.193293
0.188796
0.18456
0.180574
0.176832
0.173327
0.170057
0.167022
0.164223
0.161665
0.15936
0.157323
0.155601
0.154227
0.153173
0.152561
0.152506
0.160402
0.171001
0.183529
0.198292
0.215696
0.236272
0.260706
0.289875
0.324894
0.367159
0.418522
0.481124
0.556657
0.645605
0.745837
0.851053
0.950912
1.03455
1.09584
1.13554
1.1588
1.17142
1.17785
1.18101
1.18253
1.18323
1.18356
1.18371
1.18377
1.1838
1.18381
1.18382
1.18382
1.18382
1.18382
1.18382
1.18382
1.18382
1.18382
0.658526
0.658501
0.658458
0.658386
0.658267
0.658069
0.657743
0.657214
0.656365
0.655021
0.652931
0.649745
0.645005
0.638155
0.628586
0.615738
0.599249
0.579106
0.555737
0.529979
0.502916
0.475656
0.449137
0.42403
0.400723
0.379373
0.359971
0.342409
0.326527
0.312145
0.299089
0.287197
0.276327
0.266358
0.257188
0.248727
0.240861
0.233521
0.226652
0.220211
0.214158
0.208463
0.203097
0.198039
0.193269
0.188773
0.184537
0.180553
0.176813
0.173311
0.170044
0.167012
0.164217
0.161664
0.159364
0.157331
0.155613
0.154242
0.153189
0.152573
0.152508
0.160673
0.171338
0.183933
0.19877
0.216259
0.236936
0.26149
0.290808
0.32601
0.368503
0.420151
0.483096
0.559005
0.648306
0.74877
0.85397
0.953495
1.03655
1.0972
1.13637
1.15926
1.17166
1.17797
1.18107
1.18255
1.18325
1.18356
1.18371
1.18377
1.1838
1.18381
1.18382
1.18382
1.18382
1.18382
1.18382
1.18382
1.18382
1.18382
0.658526
0.658501
0.658458
0.658386
0.658267
0.658069
0.657744
0.657215
0.656367
0.655023
0.652934
0.64975
0.645013
0.638166
0.628601
0.615758
0.599273
0.579133
0.555767
0.53001
0.502946
0.475683
0.449161
0.42405
0.400738
0.379384
0.359979
0.342413
0.326528
0.312144
0.299085
0.287192
0.27632
0.26635
0.257179
0.248718
0.240851
0.23351
0.22664
0.220199
0.214146
0.20845
0.203084
0.198026
0.193257
0.188761
0.184527
0.180545
0.176807
0.173307
0.170043
0.167015
0.164224
0.161675
0.159379
0.15735
0.155635
0.154266
0.153211
0.152589
0.152512
0.160853
0.171569
0.184214
0.199102
0.216649
0.237393
0.262028
0.291444
0.326767
0.36941
0.421247
0.484417
0.560571
0.650101
0.750709
0.855888
0.955182
1.03785
1.09808
1.13691
1.15955
1.17181
1.17804
1.1811
1.18257
1.18325
1.18357
1.18371
1.18377
1.1838
1.18381
1.18382
1.18382
1.18382
1.18382
1.18382
1.18382
1.18382
1.18382
0.658526
0.658501
0.658458
0.658386
0.658267
0.658069
0.657744
0.657216
0.656367
0.655024
0.652936
0.649752
0.645016
0.638171
0.628608
0.615767
0.599284
0.579146
0.555781
0.530024
0.50296
0.475696
0.449172
0.424059
0.400746
0.379389
0.359982
0.342415
0.326528
0.312143
0.299084
0.287189
0.276317
0.266346
0.257175
0.248713
0.240847
0.233505
0.226636
0.220194
0.214141
0.208446
0.20308
0.198022
0.193254
0.188759
0.184526
0.180545
0.176808
0.17331
0.170049
0.167023
0.164234
0.161689
0.159395
0.15737
0.155658
0.154289
0.153233
0.152606
0.152515
0.160942
0.171691
0.184365
0.199281
0.216857
0.237633
0.262307
0.29177
0.327152
0.369867
0.421793
0.485069
0.561338
0.650972
0.751642
0.856803
0.95598
1.03846
1.09849
1.13715
1.15969
1.17188
1.17808
1.18112
1.18258
1.18326
1.18357
1.18371
1.18377
1.1838
1.18381
1.18382
1.18382
1.18382
1.18382
1.18382
1.18382
1.18382
1.18382
0.658526
0.658501
0.658458
0.658386
0.658267
0.658069
0.657744
0.657216
0.656367
0.655024
0.652936
0.649752
0.645016
0.638171
0.628607
0.615766
0.599284
0.579146
0.555781
0.530024
0.50296
0.475696
0.449172
0.424058
0.400745
0.379389
0.359982
0.342415
0.326528
0.312143
0.299084
0.287189
0.276317
0.266346
0.257175
0.248713
0.240847
0.233505
0.226636
0.220194
0.214141
0.208446
0.20308
0.198022
0.193254
0.188759
0.184526
0.180545
0.176808
0.17331
0.170049
0.167023
0.164234
0.161689
0.159395
0.157369
0.155658
0.154289
0.153233
0.152606
0.152515
0.160942
0.171691
0.184365
0.199281
0.216857
0.237634
0.262308
0.291771
0.327152
0.369867
0.421793
0.485069
0.561338
0.650972
0.751642
0.856803
0.95598
1.03846
1.09849
1.13715
1.15969
1.17188
1.17808
1.18112
1.18258
1.18326
1.18357
1.18371
1.18377
1.1838
1.18381
1.18382
1.18382
1.18382
1.18382
1.18382
1.18382
1.18382
1.18382
0.658526
0.658501
0.658458
0.658386
0.658267
0.658069
0.657744
0.657215
0.656366
0.655023
0.652934
0.64975
0.645013
0.638166
0.6286
0.615757
0.599272
0.579133
0.555766
0.530009
0.502945
0.475682
0.44916
0.424049
0.400738
0.379383
0.359978
0.342413
0.326527
0.312143
0.299085
0.287191
0.27632
0.266349
0.257179
0.248717
0.240851
0.233509
0.22664
0.220198
0.214146
0.20845
0.203084
0.198026
0.193257
0.188761
0.184527
0.180545
0.176806
0.173307
0.170043
0.167015
0.164224
0.161675
0.159379
0.15735
0.155635
0.154266
0.153211
0.152589
0.152512
0.160853
0.171569
0.184214
0.199103
0.21665
0.237393
0.262028
0.291444
0.326768
0.369411
0.421247
0.484418
0.560572
0.650102
0.75071
0.855889
0.955183
1.03785
1.09808
1.13691
1.15955
1.17181
1.17804
1.1811
1.18257
1.18325
1.18357
1.18371
1.18377
1.1838
1.18381
1.18382
1.18382
1.18382
1.18382
1.18382
1.18382
1.18382
1.18382
0.658526
0.658501
0.658458
0.658386
0.658267
0.658069
0.657743
0.657214
0.656365
0.655021
0.652931
0.649744
0.645005
0.638154
0.628585
0.615737
0.599248
0.579105
0.555735
0.529977
0.502915
0.475654
0.449136
0.424029
0.400722
0.379372
0.35997
0.342408
0.326526
0.312144
0.299088
0.287196
0.276326
0.266357
0.257188
0.248727
0.240861
0.23352
0.226652
0.22021
0.214158
0.208462
0.203097
0.198038
0.193269
0.188772
0.184537
0.180553
0.176813
0.173311
0.170044
0.167012
0.164217
0.161664
0.159364
0.157331
0.155613
0.154242
0.153189
0.152573
0.152508
0.160673
0.171338
0.183934
0.198771
0.21626
0.236936
0.261491
0.290809
0.326011
0.368504
0.420153
0.483098
0.559007
0.648308
0.748772
0.853972
0.953496
1.03655
1.0972
1.13637
1.15926
1.17166
1.17797
1.18107
1.18255
1.18325
1.18356
1.18371
1.18377
1.1838
1.18381
1.18382
1.18382
1.18382
1.18382
1.18382
1.18382
1.18382
1.18382
0.658526
0.658501
0.658458
0.658386
0.658266
0.658068
0.657742
0.657213
0.656363
0.655018
0.652925
0.649736
0.644993
0.638137
0.628562
0.615707
0.599211
0.579061
0.555688
0.529929
0.502867
0.475611
0.449098
0.423997
0.400696
0.379353
0.359957
0.3424
0.326522
0.312145
0.299093
0.287204
0.276337
0.26637
0.257202
0.248743
0.240879
0.23354
0.226673
0.220233
0.214181
0.208486
0.203121
0.198063
0.193293
0.188796
0.184559
0.180574
0.176832
0.173327
0.170057
0.167022
0.164222
0.161665
0.15936
0.157323
0.155601
0.154227
0.153173
0.152561
0.152506
0.160402
0.171002
0.18353
0.198293
0.215697
0.236274
0.260707
0.289876
0.324896
0.367161
0.418524
0.481127
0.55666
0.645608
0.74584
0.851056
0.950914
1.03455
1.09584
1.13554
1.1588
1.17142
1.17785
1.18101
1.18253
1.18323
1.18356
1.18371
1.18377
1.1838
1.18381
1.18382
1.18382
1.18382
1.18382
1.18382
1.18382
1.18382
1.18382
0.658526
0.658501
0.658458
0.658386
0.658266
0.658067
0.657741
0.657211
0.65636
0.655013
0.652918
0.649725
0.644976
0.638113
0.628529
0.615664
0.599158
0.579
0.555621
0.529859
0.5028
0.475548
0.449042
0.42395
0.400659
0.379324
0.359936
0.342387
0.326516
0.312144
0.299097
0.287213
0.27635
0.266387
0.257223
0.248767
0.240906
0.233569
0.226704
0.220266
0.214216
0.208523
0.203159
0.198101
0.193331
0.188834
0.184597
0.18061
0.176866
0.173359
0.170086
0.167047
0.164244
0.161682
0.159372
0.15733
0.155603
0.154226
0.153172
0.152561
0.152508
0.160039
0.170558
0.183001
0.197667
0.21496
0.235403
0.259674
0.288643
0.323416
0.365376
0.416355
0.478495
0.55352
0.641986
0.741894
0.847113
0.947405
1.03182
1.09398
1.13442
1.15817
1.17109
1.17769
1.18094
1.18249
1.18322
1.18355
1.1837
1.18377
1.1838
1.18381
1.18382
1.18382
1.18382
1.18382
1.18382
1.18382
1.18382
1.18382
0.658526
0.658501
0.658458
0.658386
0.658266
0.658067
0.65774
0.657209
0.656356
0.655007
0.652908
0.64971
0.644954
0.638082
0.628486
0.615608
0.599088
0.578918
0.55553
0.529765
0.502707
0.475462
0.448965
0.423884
0.400605
0.379281
0.359905
0.342366
0.326503
0.31214
0.2991
0.287223
0.276366
0.266408
0.257249
0.248797
0.24094
0.233607
0.226745
0.22031
0.214264
0.208573
0.20321
0.198154
0.193385
0.188888
0.184651
0.180663
0.176917
0.173408
0.170132
0.16709
0.164283
0.161716
0.159402
0.157355
0.155624
0.154246
0.153194
0.152595
0.152567
0.159576
0.170002
0.18234
0.196888
0.214041
0.234316
0.258382
0.2871
0.321561
0.363135
0.413629
0.475184
0.549564
0.637412
0.736895
0.842099
0.942925
1.02832
1.09159
1.13296
1.15737
1.17067
1.17748
1.18084
1.18244
1.1832
1.18354
1.1837
1.18377
1.1838
1.18381
1.18382
1.18382
1.18382
1.18382
1.18382
1.18382
1.18382
1.18382
0.658526
0.658501
0.658458
0.658385
0.658265
0.658066
0.657738
0.657206
0.656351
0.654999
0.652896
0.649691
0.644926
0.638042
0.62843
0.615535
0.598998
0.578811
0.555412
0.529642
0.502585
0.475346
0.448861
0.423794
0.400529
0.37922
0.359858
0.342332
0.326481
0.312128
0.299098
0.28723
0.27638
0.26643
0.257277
0.248831
0.24098
0.233652
0.226795
0.220365
0.214322
0.208634
0.203275
0.198221
0.193454
0.188958
0.184722
0.180733
0.176987
0.173475
0.170197
0.167151
0.16434
0.161769
0.159449
0.157396
0.155658
0.154274
0.153217
0.152613
0.152576
0.159012
0.169326
0.181542
0.195947
0.212931
0.233002
0.256819
0.285231
0.319314
0.360419
0.410324
0.471169
0.544762
0.631852
0.730801
0.835961
0.93741
1.02399
1.08862
1.13115
1.15636
1.17015
1.17722
1.18071
1.18239
1.18317
1.18353
1.18369
1.18377
1.1838
1.18381
1.18382
1.18382
1.18382
1.18382
1.18382
1.18382
1.18382
1.18382
0.658526
0.6585
0.658457
0.658385
0.658264
0.658064
0.657736
0.657202
0.656345
0.654989
0.65288
0.649668
0.644891
0.637991
0.628361
0.615443
0.598883
0.578676
0.555261
0.529482
0.502426
0.475195
0.448723
0.423672
0.400425
0.379135
0.35979
0.342279
0.326444
0.312105
0.299087
0.287229
0.27639
0.266449
0.257304
0.248867
0.241023
0.233702
0.226851
0.220427
0.214389
0.208707
0.203352
0.198301
0.193537
0.189044
0.184809
0.180821
0.177074
0.173562
0.170281
0.167232
0.164416
0.16184
0.159514
0.157456
0.155709
0.154317
0.153253
0.152643
0.1526
0.158331
0.16852
0.180593
0.194832
0.211617
0.231447
0.25497
0.283019
0.316654
0.357206
0.406417
0.466422
0.53908
0.62526
0.723552
0.828621
0.930773
1.01874
1.08499
1.12893
1.15511
1.1695
1.1769
1.18056
1.18231
1.18314
1.18352
1.18369
1.18376
1.1838
1.18381
1.18382
1.18382
1.18382
1.18382
1.18382
1.18382
1.18382
1.18382
0.658526
0.6585
0.658457
0.658384
0.658263
0.658063
0.657733
0.657198
0.656338
0.654977
0.652862
0.649639
0.644848
0.637929
0.628275
0.61533
0.59874
0.578505
0.555069
0.529279
0.502221
0.474997
0.44854
0.423509
0.400284
0.379016
0.359692
0.342202
0.326385
0.312062
0.29906
0.287216
0.27639
0.26646
0.257327
0.248899
0.241065
0.233753
0.226911
0.220494
0.214464
0.208788
0.203438
0.198393
0.193634
0.189144
0.184911
0.180926
0.177179
0.173667
0.170384
0.167332
0.164513
0.161932
0.1596
0.157534
0.15578
0.15438
0.153308
0.152692
0.152643
0.157524
0.167573
0.179484
0.193531
0.210087
0.22964
0.252822
0.280451
0.313567
0.353477
0.401884
0.460913
0.532483
0.617589
0.715084
0.819995
0.922909
1.01246
1.08062
1.12623
1.1536
1.16871
1.17651
1.18037
1.18223
1.1831
1.1835
1.18368
1.18376
1.18379
1.18381
1.18382
1.18382
1.18382
1.18382
1.18382
1.18382
1.18382
1.18382
0.658526
0.6585
0.658457
0.658384
0.658262
0.658061
0.65773
0.657192
0.656329
0.654963
0.652839
0.649605
0.644796
0.637854
0.62817
0.61519
0.598563
0.578294
0.554831
0.529023
0.501961
0.474745
0.448304
0.423295
0.400096
0.378854
0.359556
0.34209
0.326295
0.311994
0.29901
0.287184
0.276374
0.266459
0.257339
0.248924
0.241102
0.233801
0.22697
0.220563
0.214542
0.208874
0.203533
0.198495
0.193741
0.189257
0.185028
0.181046
0.177301
0.173789
0.170507
0.167453
0.16463
0.162045
0.159707
0.157635
0.155871
0.154465
0.153386
0.152764
0.152711
0.156587
0.166484
0.178213
0.192044
0.208338
0.227571
0.250362
0.27751
0.310033
0.349214
0.396706
0.454619
0.524939
0.608798
0.705335
0.809996
0.913709
1.00505
1.07541
1.12299
1.15178
1.16776
1.17604
1.18015
1.18212
1.18305
1.18348
1.18367
1.18376
1.18379
1.18381
1.18382
1.18382
1.18382
1.18382
1.18382
1.18382
1.18382
1.18382
0.658526
0.6585
0.658456
0.658383
0.658261
0.658059
0.657726
0.657186
0.656319
0.654947
0.652813
0.649564
0.644735
0.637765
0.628045
0.615022
0.598349
0.578036
0.554536
0.528706
0.501635
0.474425
0.448002
0.423018
0.399848
0.378637
0.35937
0.341933
0.326166
0.311889
0.298929
0.287124
0.276334
0.266437
0.257334
0.248935
0.241127
0.233841
0.227023
0.220628
0.214619
0.208962
0.203631
0.198602
0.193856
0.189379
0.185157
0.181179
0.177438
0.173928
0.170646
0.167592
0.164766
0.162177
0.159834
0.157755
0.155983
0.154569
0.153484
0.152859
0.152808
0.155541
0.16527
0.176799
0.190385
0.206382
0.225253
0.247601
0.274204
0.306056
0.344414
0.390881
0.447539
0.516438
0.598863
0.69426
0.798546
0.903068
0.99637
1.06925
1.11913
1.14959
1.16661
1.17547
1.17987
1.182
1.18299
1.18345
1.18366
1.18375
1.18379
1.18381
1.18382
1.18382
1.18382
1.18382
1.18382
1.18382
1.18382
1.18382
0.658526
0.6585
0.658456
0.658382
0.65826
0.658056
0.657722
0.657179
0.656308
0.654928
0.652784
0.649517
0.644664
0.637661
0.627897
0.614823
0.598093
0.577725
0.554179
0.528316
0.501232
0.474025
0.44762
0.422664
0.399527
0.378352
0.359121
0.341719
0.325984
0.311737
0.298805
0.287026
0.27626
0.266386
0.257304
0.248923
0.241134
0.233865
0.227063
0.220684
0.214689
0.209046
0.203727
0.19871
0.193976
0.189508
0.185294
0.181323
0.177587
0.17408
0.1708
0.167745
0.164918
0.162324
0.159974
0.157887
0.156102
0.154676
0.153585
0.152962
0.152934
0.154448
0.163987
0.175283
0.188588
0.204246
0.222707
0.244555
0.270547
0.301649
0.339086
0.384412
0.439677
0.506984
0.587775
0.68183
0.785584
0.890879
0.986302
1.06202
1.11456
1.14699
1.16524
1.17479
1.17955
1.18184
1.18292
1.18342
1.18364
1.18374
1.18379
1.18381
1.18382
1.18382
1.18382
1.18382
1.18382
1.18382
1.18382
1.18382
0.658526
0.6585
0.658456
0.658382
0.658258
0.658054
0.657718
0.657172
0.656295
0.654908
0.65275
0.649465
0.644584
0.637541
0.627727
0.614591
0.597792
0.577355
0.55375
0.527845
0.500738
0.473532
0.447143
0.422217
0.399117
0.377983
0.358793
0.341431
0.325734
0.311524
0.298625
0.286877
0.27614
0.266293
0.257237
0.248881
0.241113
0.233864
0.227082
0.220723
0.214746
0.20912
0.203817
0.198815
0.194094
0.189638
0.185434
0.181472
0.177744
0.174242
0.170965
0.16791
0.165079
0.162478
0.160117
0.158013
0.156196
0.154738
0.153602
0.152919
0.152808
0.153475
0.162747
0.173746
0.186713
0.201975
0.219966
0.241251
0.26656
0.296829
0.333248
0.377319
0.431043
0.496581
0.575536
0.66803
0.77106
0.877052
0.97472
1.05358
1.10918
1.14391
1.16362
1.17399
1.17917
1.18167
1.18284
1.18338
1.18363
1.18374
1.18379
1.18381
1.18382
1.18382
1.18382
1.18382
1.18382
1.18382
1.18382
1.18382
0.658526
0.6585
0.658455
0.658381
0.658257
0.658051
0.657713
0.657164
0.656282
0.654886
0.652714
0.649407
0.644494
0.637407
0.627533
0.614323
0.597442
0.576922
0.553242
0.527281
0.500143
0.472929
0.446555
0.421659
0.3986
0.377511
0.358368
0.341053
0.325402
0.311234
0.298374
0.286664
0.275961
0.266147
0.257121
0.248794
0.241054
0.233831
0.227072
0.220735
0.21478
0.209175
0.203892
0.198908
0.194204
0.189764
0.185574
0.181624
0.177905
0.17441
0.171137
0.168083
0.165249
0.162639
0.160263
0.158135
0.156275
0.154763
0.153543
0.152722
0.152386
0.15267
0.16161
0.172241
0.1848
0.199602
0.21706
0.237715
0.262269
0.291624
0.326931
0.369643
0.421695
0.485293
0.562204