/*--------------------------------*- C++ -*----------------------------------*\
  =========                 |
  \\      /  F ield         | OpenFOAM: The Open Source CFD Toolbox
   \\    /   O peration     | Website:  https://openfoam.org
    \\  /    A nd           | Version:  8
     \\/     M anipulation  |
\*---------------------------------------------------------------------------*/
FoamFile
{
    version     2.0;
    format      ascii;
    class       volScalarField;
    location    "600/fluid";
    object      T;
}
// * * * * * * * * * * * * * * * * * * * * * * * * * * * * * * * * * * * * * //

dimensions      [0 0 0 1 0 0 0];

internalField   nonuniform List<scalar> 
4000
(
293.004
293.017
293.039
293.075
293.136
293.238
293.405
293.678
294.119
294.824
295.935
297.657
300.273
304.159
309.78
317.669
328.375
342.389
360.057
381.526
406.724
435.4
467.187
501.682
538.495
577.292
617.801
659.813
703.169
747.746
793.445
840.176
887.846
936.352
985.575
1035.44
1085.97
1137.09
1188.69
1240.68
1292.95
1345.39
1397.89
1450.33
1502.58
1554.53
1606.03
1656.96
1707.16
1756.46
1804.71
1851.7
1897.21
1940.98
1982.7
2021.99
2058.37
2090.79
2118.6
2141.88
2158.49
2166.56
2162.09
2052.2
1935.14
1813.08
1687.83
1560.87
1433.52
1306.94
1182.26
1060.57
943.02
830.522
724.314
626.416
539.165
464.868
405.355
361.276
331.511
313.271
303.056
297.781
295.207
293.996
293.441
293.192
293.083
293.035
293.015
293.006
293.003
293.001
293
293
293
293
293
293
293.004
293.017
293.039
293.076
293.137
293.239
293.408
293.683
294.127
294.836
295.951
297.673
300.281
304.143
309.711
317.506
328.063
341.867
359.271
380.437
405.315
433.68
465.187
499.443
536.068
574.727
615.145
657.108
700.452
745.05
790.799
837.606
885.376
934.004
983.369
1033.38
1084.08
1135.38
1187.18
1239.37
1291.84
1344.49
1397.2
1449.86
1502.33
1554.5
1606.22
1657.35
1707.75
1757.26
1805.69
1852.86
1898.53
1942.46
1984.33
2023.75
2060.24
2092.75
2120.64
2143.99
2160.64
2168.7
2153.45
2042.16
1923.93
1800.84
1674.65
1546.82
1418.66
1291.36
1166.05
1043.88
926.033
813.464
707.606
610.662
525.061
453.099
396.396
355.185
327.863
311.348
302.154
297.389
295.047
293.933
293.417
293.183
293.08
293.034
293.014
293.006
293.003
293.001
293
293
293
293
293
293
293.004
293.017
293.039
293.076
293.138
293.241
293.41
293.687
294.133
294.844
295.961
297.684
300.288
304.134
309.666
317.394
327.844
341.492
358.69
379.604
404.198
432.264
463.474
497.451
533.825
572.27
612.512
654.34
697.588
742.129
787.858
834.682
882.504
931.221
980.709
1030.87
1081.74
1133.24
1185.27
1237.71
1290.45
1343.39
1396.4
1449.37
1502.17
1554.65
1606.7
1658.15
1708.87
1758.68
1807.41
1854.86
1900.8
1944.98
1987.07
2026.69
2063.36
2095.97
2123.94
2147.33
2163.92
2171.84
2137.14
2024.66
1905.23
1781.01
1653.78
1525.06
1396.17
1268.36
1142.81
1020.73
903.356
791.671
687.327
592.62
509.921
441.309
388.021
349.828
324.784
309.743
301.383
297.036
294.892
293.867
293.39
293.172
293.075
293.032
293.014
293.006
293.002
293.001
293
293
293
293
293
293
293.004
293.017
293.039
293.076
293.138
293.241
293.411
293.687
294.133
294.842
295.953
297.665
300.249
304.06
309.538
317.185
327.522
341.022
358.037
378.74
403.107
430.939
461.92
495.681
531.859
570.129
610.223
651.928
695.082
739.559
785.255
832.077
879.932
928.716
978.307
1028.6
1079.64
1131.33
1183.57
1236.26
1289.29
1342.52
1395.87
1449.18
1502.32
1555.16
1607.57
1659.39
1710.46
1760.63
1809.69
1857.46
1903.7
1948.14
1990.47
2030.28
2067.09
2099.72
2127.6
2150.85
2167.25
2174.87
2116.35
2003.01
1882.62
1757.45
1629.38
1499.98
1370.66
1242.7
1117.35
995.855
879.431
769.133
666.766
574.641
495.021
429.768
379.789
344.48
321.629
308.039
300.529
296.632
294.707
293.785
293.354
293.157
293.069
293.03
293.013
293.005
293.002
293.001
293
293
293
293
293
293
293.004
293.017
293.039
293.076
293.138
293.241
293.41
293.685
294.129
294.836
295.941
297.643
300.208
303.99
309.423
317.002
327.244
340.621
357.485
378.016
402.196
429.836
460.629
494.213
530.231
568.36
608.334
649.942
693.021
737.448
783.119
829.945
877.833
926.68
976.367
1026.79
1077.97
1129.85
1182.31
1235.24
1288.54
1342.08
1395.73
1449.37
1502.85
1556.06
1608.82
1661.01
1712.44
1762.95
1812.34
1860.42
1906.93
1951.6
1994.12
2034.06
2070.91
2103.35
2131.13
2154.23
2170.23
2176.99
2094.3
1980.32
1859.11
1733.1
1604.32
1474.43
1344.88
1217.02
1092.12
971.477
856.23
747.534
647.33
557.887
481.348
419.352
372.485
339.811
318.908
306.578
299.797
296.283
294.546
293.713
293.322
293.143
293.063
293.027
293.012
293.005
293.002
293.001
293
293
293
293
293
293
293.004
293.017
293.039
293.076
293.138
293.24
293.408
293.682
294.124
294.825
295.923
297.612
300.158
303.909
309.296
316.812
326.97
340.241
356.98
377.371
401.404
428.896
459.546
492.999
528.898
566.925
606.813
648.353
691.384
735.782
781.447
828.289
876.218
925.134
974.916
1025.46
1076.79
1128.84
1181.51
1234.68
1288.23
1342.04
1395.98
1449.93
1503.75
1557.28
1610.39
1662.91
1714.67
1765.49
1815.18
1863.51
1910.23
1955.07
1997.68
2037.64
2074.43
2106.66
2134.27
2157.03
2172.6
2178.7
2074.82
1959.76
1837.3
1710.19
1580.57
1450.16
1320.45
1192.77
1068.43
948.731
834.717
727.663
629.59
542.716
469.059
410.05
365.989
335.659
316.474
305.258
299.126
295.959
294.394
293.644
293.292
293.13
293.057
293.025
293.011
293.004
293.002
293.001
293
293
293
293
293
293
293.004
293.017
293.039
293.076
293.137
293.239
293.406
293.678
294.117
294.814
295.905
297.582
300.109
303.833
309.18
316.641
326.728
339.91
356.546
376.823
400.737
428.112
458.653
492.007
527.82
565.774
605.605
647.104
690.11
734.5
780.175
827.048
875.028
924.018
973.899
1024.56
1076.04
1128.26
1181.13
1234.51
1288.29
1342.35
1396.57
1450.8
1504.92
1558.76
1612.17
1664.99
1717.03
1768.12
1818.05
1866.58
1913.45
1958.36
2000.94
2040.77
2077.28
2108.79
2136.45
2158.2
2172.59
2177.37
2064.99
1944.79
1819.11
1689.96
1559.09
1428
1298.07
1170.59
1046.83
928.046
815.23
709.759
613.699
529.213
458.205
401.906
360.357
332.091
314.398
304.136
298.555
295.682
294.264
293.584
293.265
293.118
293.052
293.023
293.01
293.004
293.002
293.001
293
293
293
293
293
293
293.004
293.017
293.039
293.075
293.136
293.237
293.404
293.675
294.111
294.803
295.887
297.553
300.063
303.762
309.073
316.487
326.512
339.621
356.172
376.358
400.179
427.465
457.924
491.205
526.958
564.865
604.662
646.14
689.139
733.538
779.237
826.151
874.192
923.261
973.241
1024.02
1075.64
1128.03
1181.06
1234.64
1288.63
1342.93
1397.4
1451.89
1506.27
1560.38
1614.06
1667.14
1719.43
1770.75
1820.86
1869.55
1916.51
1961.45
2003.95
2043.55
2079.52
2110.32
2136.85
2156.65
2167.8
2167.13
2051.64
1928.94
1801.39
1670.93
1539.22
1407.71
1277.73
1150.54
1027.38
909.48
797.797
693.81
599.62
517.325
448.714
394.836
355.5
329.03
312.62
303.174
298.064
295.443
294.152
293.532
293.241
293.108
293.047
293.021
293.009
293.004
293.002
293.001
293
293
293
293
293
293
293.004
293.017
293.038
293.075
293.135
293.236
293.402
293.671
294.104
294.793
295.87
297.526
300.021
303.698
308.98
316.353
326.327
339.374
355.857
375.97
399.719
426.937
457.334
490.565
526.277
564.156
603.935
645.409
688.415
732.834
778.568
825.531
873.636
922.786
972.866
1023.77
1075.51
1128.04
1181.24
1235
1289.19
1343.7
1398.38
1453.1
1507.72
1562.06
1615.97
1669.27
1721.78
1773.29
1823.57
1872.38
1919.43
1964.38
2006.84
2046.3
2081.84
2112.23
2138.15
2157.08
2167.02
2154.49
2037.08
1912.92
1784.28
1653.08
1520.93
1389.26
1259.39
1132.56
1010.02
892.962
782.328
679.72
587.24
506.931
440.472
388.744
351.348
326.43
311.118
302.364
297.65
295.241
294.056
293.488
293.221
293.099
293.044
293.019
293.008
293.003
293.001
293.001
293
293
293
293
293
293
293.004
293.017
293.038
293.074
293.135
293.235
293.4
293.667
294.099
294.784
295.855
297.502
299.985
303.643
308.899
316.238
326.17
339.167
355.595
375.65
399.343
426.51
456.864
490.06
525.747
563.61
603.386
644.865
687.889
732.336
778.11
825.125
873.297
922.528
972.704
1023.71
1075.58
1128.24
1181.59
1235.51
1289.88
1344.57
1399.45
1454.37
1509.18
1563.73
1617.84
1671.33
1724.02
1775.68
1826.1
1875.02
1922.15
1967.15
2009.6
2049.02
2084.43
2114.68
2140.51
2159.47
2169.73
2140.26
2022.11
1897.29
1768.15
1636.61
1504.3
1372.67
1243.02
1116.61
994.689
878.414
768.777
667.424
576.475
497.925
433.367
383.527
347.816
324.233
309.853
301.682
297.302
295.071
293.976
293.451
293.205
293.091
293.04
293.017
293.008
293.003
293.001
293.001
293
293
293
293
293
293
293.004
293.017
293.038
293.074
293.134
293.234
293.398
293.664
294.094
294.775
295.842
297.482
299.953
303.596
308.83
316.141
326.039
338.996
355.379
375.39
399.041
426.17
456.493
489.666
525.339
563.198
602.977
644.47
687.516
731.996
777.812
824.882
873.119
922.427
972.687
1023.79
1075.77
1128.56
1182.04
1236.11
1290.63
1345.48
1400.53
1455.62
1510.61
1565.33
1619.6
1673.25
1726.08
1777.88
1828.41
1877.42
1924.61
1969.64
2012.1
2051.49
2086.82
2116.97
2142.73
2161.66
2171.91
2126.75
2008.12
1882.91
1753.49
1621.8
1489.47
1357.95
1228.57
1102.58
981.262
865.722
756.966
656.742
567.161
490.175
427.287
379.087
344.829
322.384
308.793
301.113
297.012
294.93
293.908
293.419
293.19
293.085
293.037
293.016
293.007
293.003
293.001
293.001
293
293
293
293
293
293
293.004
293.017
293.038
293.074
293.134
293.233
293.396
293.662
294.089
294.769
295.831
297.464
299.926
303.556
308.773
316.061
325.931
338.856
355.205
375.182
398.8
425.901
456.204
489.363
525.03
562.891
602.68
644.19
687.262
731.776
777.635
824.757
873.055
922.432
972.773
1023.97
1076.05
1128.94
1182.55
1236.74
1291.4
1346.39
1401.58
1456.82
1511.95
1566.81
1621.22
1675
1727.95
1779.84
1830.46
1879.53
1926.77
1971.81
2014.26
2053.6
2088.83
2118.92
2144.6
2163.42
2173.59
2114.79
1995.7
1870.17
1740.55
1608.76
1476.46
1345.09
1215.99
1090.42
969.648
854.745
746.768
647.542
559.164
483.547
422.113
375.332
342.317
320.838
307.91
300.639
296.77
294.812
293.852
293.393
293.179
293.08
293.035
293.015
293.007
293.003
293.001
293
293
293
293
293
293
293
293.004
293.016
293.038
293.074
293.133
293.232
293.395
293.66
294.086
294.763
295.821
297.45
299.904
303.523
308.726
315.996
325.843
338.743
355.065
375.016
398.611
425.693
455.981
489.133
524.8
562.667
602.469
643.998
687.097
731.644
777.544
824.714
873.066
922.507
972.92
1024.19
1076.36
1129.36
1183.06
1237.36
1292.13
1347.24
1402.55
1457.91
1513.16
1568.13
1622.66
1676.54
1729.57
1781.55
1832.23
1881.34
1928.59
1973.63
2016.03
2055.32
2090.46
2120.46
2146.03
2164.75
2174.81
2104.6
1985.03
1859.19
1729.38
1597.54
1465.29
1334.08
1205.23
1080.02
959.714
845.361
738.065
639.705
552.369
477.933
417.749
372.18
340.22
319.552
307.178
300.247
296.571
294.714
293.806
293.372
293.169
293.075
293.033
293.014
293.006
293.003
293.001
293
293
293
293
293
293
293
293.004
293.016
293.038
293.073
293.133
293.232
293.394
293.658
294.083
294.758
295.814
297.438
299.886
303.496
308.687
315.943
325.773
338.654
354.955
374.886
398.463
425.532
455.812
488.961
524.631
562.506
602.322
643.871
686.995
731.573
777.51
824.722
873.125
922.623
973.098
1024.44
1076.69
1129.76
1183.55
1237.94
1292.81
1348.02
1403.42
1458.88
1514.22
1569.29
1623.9
1677.86
1730.96
1782.99
1833.7
1882.83
1930.07
1975.08
2017.46
2056.7
2091.73
2121.63
2147.11
2165.74
2175.65
2096.09
1976.04
1849.89
1719.93
1588.03
1455.82
1324.74
1196.11
1071.21
951.315
837.436
730.725
633.106
546.659
473.229
414.106
369.56
338.485
318.492
306.576
299.926
296.407
294.635
293.768
293.354
293.161
293.072
293.032
293.014
293.006
293.003
293.001
293
293
293
293
293
293
293
293.004
293.016
293.038
293.073
293.133
293.231
293.393
293.656
294.08
294.754
295.808
297.428
299.872
303.475
308.657
315.901
325.718
338.583
354.87
374.786
398.351
425.411
455.686
488.835
524.509
562.393
602.223
643.79
686.937
731.542
777.512
824.762
873.207
922.753
973.281
1024.68
1076.99
1130.13
1183.99
1238.46
1293.4
1348.69
1404.17
1459.7
1515.12
1570.26
1624.93
1678.94
1732.09
1784.15
1834.88
1884.01
1931.24
1976.24
2018.57
2057.75
2092.68
2122.5
2147.89
2166.44
2176.2
2089.08
1968.57
1842.14
1712.03
1580.08
1447.91
1316.95
1188.51
1063.88
944.325
830.847
724.629
627.633
541.932
469.345
411.107
367.411
337.066
317.629
306.088
299.665
296.275
294.57
293.737
293.34
293.154
293.069
293.03
293.013
293.006
293.002
293.001
293
293
293
293
293
293
293
293.004
293.016
293.038
293.073
293.132
293.231
293.392
293.655
294.078
294.751
295.803
297.42
299.86
303.459
308.634
315.869
325.675
338.529
354.804
374.71
398.266
425.321
455.594
488.744
524.423
562.315
602.157
643.741
686.907
731.536
777.533
824.814
873.295
922.879
973.45
1024.9
1077.25
1130.45
1184.37
1238.89
1293.89
1349.24
1404.78
1460.37
1515.85
1571.04
1625.75
1679.8
1732.97
1785.04
1835.77
1884.9
1932.12
1977.08
2019.37
2058.49
2093.38
2123.17
2148.6
2167.31
2177.36
2083.38
1962.45
1835.78
1705.53
1573.55
1441.43
1310.57
1182.3
1057.9
938.634
825.487
719.678
623.194
538.106
466.206
408.69
365.684
335.93
316.939
305.698
299.458
296.169
294.518
293.713
293.329
293.149
293.067
293.029
293.013
293.005
293.002
293.001
293
293
293
293
293
293
293
293.004
293.016
293.038
293.073
293.132
293.23
293.392
293.654
294.077
294.748
295.799
297.415
299.852
303.446
308.616
315.845
325.643
338.489
354.756
374.654
398.205
425.255
455.527
488.679
524.363
562.263
602.116
643.712
686.894
731.542
777.56
824.866
873.374
922.988
973.591
1025.07
1077.47
1130.7
1184.66
1239.23
1294.28
1349.67
1405.25
1460.89
1516.4
1571.62
1626.35
1680.42
1733.6
1785.68
1836.41
1885.52
1932.7
1977.61
2019.85
2058.92
2093.74
2123.48
2148.89
2167.61
2177.67
2078.9
1957.6
1830.7
1700.35
1568.35
1436.27
1305.51
1177.39
1053.18
934.149
821.271
715.79
619.716
535.113
463.758
406.808
364.342
335.048
316.405
305.396
299.297
296.088
294.479
293.694
293.32
293.145
293.065
293.029
293.012
293.005
293.002
293.001
293
293
293
293
293
293
293
293.004
293.016
293.037
293.073
293.132
293.23
293.391
293.654
294.076
294.747
295.796
297.411
299.845
303.437
308.603
315.827
325.621
338.461
354.722
374.615
398.161
425.21
455.482
488.635
524.323
562.229
602.09
643.696
686.891
731.552
777.586
824.909
873.437
923.072
973.697
1025.2
1077.62
1130.89
1184.88
1239.47
1294.55
1349.97
1405.58
1461.24
1516.77
1572
1626.76
1680.83
1734.02
1786.08
1836.79
1885.87
1933.01
1977.87
2020.05
2059.06
2093.81
2123.51
2148.91
2167.67
2177.84
2075.59
1953.93
1826.84
1696.41
1564.4
1432.36
1301.7
1173.7
1049.65
930.803
818.133
712.904
617.14
532.904
461.956
405.428
363.361
334.404
316.014
305.175
299.179
296.028
294.449
293.68
293.313
293.142
293.063
293.028
293.012
293.005
293.002
293.001
293
293
293
293
293
293
293
293.004
293.016
293.037
293.073
293.132
293.23
293.391
293.653
294.075
294.746
295.795
297.408
299.841
303.431
308.595
315.816
325.606
338.443
354.7
374.59
398.134
425.181
455.453
488.608
524.299
562.209
602.075
643.688
686.89
731.561
777.605
824.939
873.479
923.127
973.765
1025.28
1077.72
1131
1185
1239.62
1294.71
1350.14
1405.77
1461.44
1516.99
1572.23
1626.98
1681.05
1734.23
1786.28
1836.96
1886
1933.1
1977.91
2020.03
2058.98
2093.67
2123.34
2148.74
2167.58
2177.92
2073.39
1951.41
1824.16
1693.67
1561.67
1429.68
1299.09
1171.19
1047.26
928.555
816.036
710.984
615.434
531.445
460.771
404.526
362.723
333.987
315.761
305.032
299.102
295.989
294.43
293.671
293.309
293.14
293.063
293.028
293.012
293.005
293.002
293.001
293
293
293
293
293
293
293
293.004
293.016
293.037
293.073
293.132
293.23
293.391
293.653
294.075
294.745
295.794
297.407
299.84
303.428
308.591
315.811
325.599
338.434
354.69
374.578
398.122
425.168
455.44
488.596
524.288
562.2
602.069
643.685
686.891
731.566
777.615
824.954
873.5
923.153
973.798
1025.32
1077.76
1131.05
1185.06
1239.68
1294.78
1350.22
1405.85
1461.53
1517.07
1572.32
1627.07
1681.13
1734.29
1786.32
1836.98
1885.99
1933.06
1977.83
2019.9
2058.81
2093.45
2123.1
2148.51
2167.42
2177.95
2072.3
1950.08
1822.72
1692.2
1560.22
1428.27
1297.74
1169.91
1046.05
927.427
814.994
710.04
614.602
530.741
460.204
404.096
362.422
333.793
315.644
304.966
299.067
295.971
294.421
293.667
293.307
293.139
293.062
293.027
293.012
293.005
293.002
293.001
293
293
293
293
293
293
293
293.004
293.016
293.037
293.073
293.132
293.23
293.391
293.653
294.075
294.745
295.794
297.407
299.84
303.428
308.591
315.811
325.599
338.434
354.69
374.578
398.122
425.168
455.44
488.596
524.288
562.201
602.069
643.686
686.891
731.566
777.615
824.955
873.5
923.154
973.799
1025.32
1077.76
1131.05
1185.06
1239.68
1294.78
1350.22
1405.86
1461.53
1517.07
1572.32
1627.07
1681.13
1734.29
1786.32
1836.98
1885.99
1933.06
1977.83
2019.9
2058.81
2093.46
2123.1
2148.51
2167.43
2177.95
2072.3
1950.08
1822.72
1692.2
1560.22
1428.27
1297.74
1169.91
1046.05
927.426
814.994
710.039
614.602
530.74
460.203
404.096
362.422
333.793
315.644
304.966
299.067
295.971
294.421
293.667
293.307
293.139
293.062
293.027
293.012
293.005
293.002
293.001
293
293
293
293
293
293
293
293.004
293.016
293.037
293.073
293.132
293.23
293.391
293.653
294.075
294.746
295.795
297.408
299.842
303.431
308.595
315.817
325.607
338.443
354.7
374.59
398.135
425.182
455.454
488.61
524.3
562.211
602.077
643.69
686.892
731.562
777.607
824.941
873.481
923.129
973.767
1025.29
1077.72
1131
1185.01
1239.62
1294.71
1350.15
1405.78
1461.44
1516.99
1572.23
1626.99
1681.06
1734.23
1786.28
1836.96
1886
1933.1
1977.91
2020.03
2058.98
2093.67
2123.34
2148.74
2167.58
2177.92
2073.39
1951.41
1824.16
1693.67
1561.67
1429.68
1299.09
1171.19
1047.26
928.553
816.035
710.983
615.433
531.445
460.771
404.525
362.723
333.987
315.761
305.032
299.102
295.989
294.43
293.671
293.309
293.14
293.063
293.028
293.012
293.005
293.002
293.001
293
293
293
293
293
293
293
293.004
293.016
293.037
293.073
293.132
293.23
293.391
293.654
294.076
294.747
295.796
297.411
299.846
303.437
308.603
315.828
325.621
338.462
354.723
374.616
398.163
425.212
455.484
488.638
524.326
562.232
602.092
643.699
686.893
731.555
777.589
824.912
873.44
923.075
973.701
1025.21
1077.63
1130.89
1184.88
1239.48
1294.55
1349.97
1405.58
1461.24
1516.77
1572.01
1626.76
1680.83
1734.02
1786.09
1836.79
1885.87
1933.01
1977.88
2020.05
2059.06
2093.81
2123.51
2148.91
2167.67
2177.84
2075.58
1953.92
1826.83
1696.4
1564.4
1432.36
1301.69
1173.69
1049.64
930.799
818.13
712.902
617.138
532.902
461.954
405.427
363.361
334.404
316.014
305.175
299.179
296.028
294.449
293.68
293.313
293.142
293.063
293.028
293.012
293.005
293.002
293.001
293
293
293
293
293
293
293
293.004
293.016
293.038
293.073
293.132
293.23
293.392
293.654
294.077
294.748
295.799
297.415
299.852
303.446
308.616
315.845
325.644
338.49
354.757
374.656
398.207
425.258
455.53
488.682
524.366
562.267
602.119
643.716
686.898
731.546
777.565
824.87
873.379
922.993
973.596
1025.08
1077.47
1130.71
1184.67
1239.24
1294.28
1349.67
1405.26
1460.89
1516.4
1571.62
1626.36
1680.42
1733.61
1785.68
1836.41
1885.52
1932.7
1977.62
2019.85
2058.92
2093.74
2123.49
2148.89
2167.61
2177.67
2078.9
1957.59
1830.69
1700.34
1568.35
1436.26
1305.5
1177.38
1053.18
934.145
821.267
715.786
619.713
535.111
463.756
406.807
364.342
335.047
316.404
305.396
299.297
296.088
294.479
293.694
293.32
293.145
293.065
293.029
293.012
293.005
293.002
293.001
293
293
293
293
293
293
293
293.004
293.016
293.038
293.073
293.132
293.231
293.392
293.655
294.078
294.751
295.803
297.421
299.861
303.459
308.634
315.87
325.676
338.531
354.806
374.712
398.269
425.324
455.597
488.747
524.427
562.32
602.162
643.746
686.912
731.541
777.538
824.819
873.3
922.885
973.456
1024.9
1077.26
1130.45
1184.37
1238.9
1293.9
1349.25
1404.79
1460.38
1515.86
1571.04
1625.76
1679.8
1732.98
1785.05
1835.78
1884.9
1932.12
1977.08
2019.37
2058.5
2093.38
2123.18
2148.61
2167.31
2177.37
2083.37
1962.44
1835.77
1705.52
1573.55
1441.42
1310.56
1182.29
1057.89
938.628
825.482
719.673
623.19
538.103
466.204
408.688
365.683
335.929
316.939
305.698
299.458
296.169
294.518
293.713
293.329
293.149
293.067
293.029
293.013
293.005
293.002
293.001
293
293
293
293
293
293
293
293.004
293.016
293.038
293.073
293.133
293.231
293.393
293.656
294.08
294.754
295.808
297.428
299.872
303.476
308.658
315.902
325.719
338.585
354.872
374.789
398.354
425.415
455.69
488.84
524.514
562.398
602.228
643.796
686.943
731.549
777.518
824.768
873.214
922.76
973.288
1024.69
1077
1130.14
1184
1238.47
1293.41
1348.69
1404.18
1459.71
1515.13
1570.27
1624.94
1678.95
1732.1
1784.16
1834.89
1884.02
1931.25
1976.24
2018.58
2057.75
2092.69
2122.51
2147.9
2166.45
2176.2
2089.06
1968.56
1842.13
1712.01
1580.07
1447.9
1316.94
1188.5
1063.87
944.317
830.84
724.623
627.628
541.928
469.342
411.105
367.41
337.065
317.629
306.087
299.665
296.275
294.57
293.737
293.34
293.154
293.069
293.03
293.013
293.006
293.002
293.001
293
293
293
293
293
293
293
293.004
293.016
293.038
293.073
293.133
293.232
293.394
293.658
294.083
294.758
295.814
297.438
299.886
303.497
308.688
315.944
325.775
338.656
354.958
374.889
398.467
425.537
455.817
488.967
524.637
562.512
602.328
643.878
687.002
731.58
777.518
824.73
873.133
922.631
973.107
1024.45
1076.69
1129.77
1183.56
1237.95
1292.82
1348.03
1403.43
1458.89
1514.23
1569.3
1623.91
1677.86
1730.97
1783
1833.71
1882.84
1930.08
1975.09
2017.46
2056.71
2091.74
2121.64
2147.11
2165.74
2175.65
2096.07
1976.02
1849.88
1719.91
1588.02
1455.81
1324.73
1196.1
1071.2
951.305
837.428
730.718
633.1
546.654
473.225
414.103
369.558
338.483
318.491
306.576
299.926
296.407
294.634
293.768
293.354
293.161
293.072
293.032
293.014
293.006
293.003
293.001
293
293
293
293
293
293
293
293.004
293.016
293.038
293.074
293.133
293.232
293.395
293.66
294.086
294.763
295.822
297.45
299.905
303.524
308.727
315.997
325.845
338.746
355.069
375.02
398.615
425.698
455.987
489.139
524.807
562.674
602.476
644.006
687.105
731.652
777.553
824.723
873.076
922.517
972.93
1024.2
1076.37
1129.37
1183.07
1237.37
1292.14
1347.25
1402.56
1457.92
1513.17
1568.15
1622.67
1676.55
1729.58
1781.56
1832.24
1881.35
1928.6
1973.63
2016.04
2055.33
2090.47
2120.47
2146.04
2164.76
2174.81
2104.58
1985.01
1859.17
1729.36
1597.52
1465.27
1334.06
1205.21
1080
959.702
845.351
738.056
639.697
552.362
477.928
417.745
372.177
340.218
319.551
307.177
300.247
296.571
294.714
293.806
293.372
293.169
293.075
293.033
293.014
293.006
293.003
293.001
293
293
293
293
293
293
293
293.004
293.017
293.038
293.074
293.134
293.233
293.396
293.662
294.09
294.769
295.831
297.464
299.927
303.557
308.774
316.063
325.933
338.859
355.209
375.186
398.805
425.907
456.21
489.37
525.038
562.899
602.689
644.199
687.272
731.786
777.646
824.767
873.066
922.443
972.784
1023.98
1076.06
1128.96
1182.56
1236.75
1291.41
1346.4
1401.59
1456.83
1511.96
1566.82
1621.23
1675.01
1727.96
1779.86
1830.47
1879.55
1926.78
1971.82
2014.27
2053.61
2088.83
2118.93
2144.6
2163.43
2173.59
2114.76
1995.67
1870.15
1740.53
1608.74
1476.44
1345.07
1215.97
1090.4
969.634
854.732
746.756
647.533
559.157
483.541
422.108
375.328
342.315
320.836
307.909
300.638
296.77
294.812
293.852
293.393
293.178
293.08
293.035
293.015
293.007
293.003
293.001
293
293
293
293
293
293
293
293.004
293.017
293.038
293.074
293.134
293.234
293.398
293.665
294.094
294.776
295.842
297.482
299.954
303.596
308.831
316.143
326.041
338.999
355.383
375.395
399.047
426.176
456.5
489.674
525.348
563.207
602.987
644.48
687.527
732.007
777.824
824.894
873.131
922.44
972.7
1023.8
1075.78
1128.57
1182.06
1236.12
1290.65
1345.5
1400.55
1455.64
1510.62
1565.34
1619.62
1673.27
1726.1
1777.89
1828.43
1877.43
1924.62
1969.65
2012.11
2051.5
2086.83
2116.98
2142.74
2161.67
2171.91
2126.72
2008.09
1882.89
1753.47
1621.77
1489.45
1357.93
1228.55
1102.57
981.246
865.707
756.953
656.731
567.151
490.168
427.281
379.083
344.827
322.382
308.792
301.112
297.011
294.929
293.908
293.419
293.19
293.085
293.037
293.016
293.007
293.003
293.001
293.001
293
293
293
293
293
293
293.004
293.017
293.038
293.074
293.135
293.235
293.4
293.668
294.099
294.784
295.855
297.503
299.985
303.644
308.9
316.24
326.173
339.171
355.599
375.656
399.35
426.517
456.872
490.069
525.757
563.621
603.397
644.877
687.901
732.348
778.123
825.139
873.311
922.543
972.719
1023.72
1075.59
1128.25
1181.6
1235.52
1289.89
1344.59
1399.46
1454.39
1509.2
1563.75
1617.86
1671.35
1724.03
1775.7
1826.12
1875.04
1922.16
1967.16
2009.61
2049.03
2084.44
2114.69
2140.52
2159.48
2169.73
2140.23
2022.08
1897.26
1768.12
1636.58
1504.28
1372.64
1242.99
1116.59
994.669
878.397
768.761
667.411
576.463
497.916
433.36
383.522
347.813
324.23
309.851
301.681
297.302
295.071
293.975
293.451
293.205
293.091
293.04
293.017
293.008
293.003
293.001
293.001
293
293
293
293
293
293
293.004
293.017
293.038
293.075
293.136
293.236
293.402
293.671
294.104
294.793
295.87
297.526
300.022
303.699
308.981
316.355
326.33
339.378
355.862
375.976
399.726
426.945
457.343
490.575
526.288
564.167
603.948
645.422
688.429
732.848
778.583
825.546
873.652
922.802
972.883
1023.78
1075.53
1128.06
1181.26
1235.01
1289.21
1343.72
1398.4
1453.12
1507.73
1562.08
1615.99
1669.29
1721.8
1773.3
1823.58
1872.39
1919.44
1964.4
2006.85
2046.31
2081.85
2112.24
2138.16
2157.09
2167.03
2154.46
2037.05
1912.89
1784.25
1653.05
1520.9
1389.24
1259.37
1132.54
1010
892.941
782.309
679.703
587.226
506.92
440.464
388.738
351.344
326.428
311.116
302.363
297.65
295.241
294.056
293.488
293.221
293.099
293.044
293.019
293.008
293.003
293.001
293.001
293
293
293
293
293
293
293.004
293.017
293.039
293.075
293.136
293.237
293.404
293.675
294.111
294.803
295.887
297.553
300.064
303.763
309.075
316.489
326.515
339.625
356.177
376.364
400.187
427.474
457.934
491.216
526.97
564.878
604.675
646.154
689.154
733.553
779.254
826.168
874.209
923.279
973.259
1024.04
1075.66
1128.05
1181.08
1234.66
1288.65
1342.95
1397.42
1451.91
1506.29
1560.4
1614.08
1667.16
1719.45
1770.76
1820.88
1869.56
1916.53
1961.46
2003.97
2043.57
2079.52
2110.33
2136.85
2156.65
2167.79
2167.1
2051.61
1928.91
1801.36
1670.9
1539.19
1407.68
1277.7
1150.51
1027.35
909.456
797.775
693.79
599.604
517.312
448.703
394.829
355.495
329.026
312.618
303.173
298.063
295.443
294.151
293.532
293.241
293.108
293.047
293.021
293.009
293.004
293.002
293.001
293
293
293
293
293
293
293.004
293.017
293.039
293.076
293.137
293.239
293.406
293.679
294.117
294.814
295.905
297.582
300.11
303.834
309.182
316.644
326.731
339.915
356.552
376.83
400.745
428.122
458.664
492.019
527.833
565.788
605.62
647.12
690.126
734.517
780.193
827.066
875.048
924.038
973.92
1024.58
1076.06
1128.28
1181.15
1234.53
1288.31
1342.37
1396.59
1450.83
1504.94
1558.78
1612.19
1665.01
1717.06
1768.14
1818.07
1866.59
1913.46
1958.37
2000.96
2040.78
2077.29
2108.79
2136.45
2158.2
2172.57
2177.35
2064.96
1944.76
1819.08
1689.93
1559.05
1427.96
1298.04
1170.56
1046.8
928.018
815.204
709.737
613.68
529.197
458.193
401.897
360.351
332.087
314.395
304.135
298.554
295.682
294.264
293.584
293.265
293.118
293.052
293.023
293.01
293.004
293.002
293.001
293
293
293
293
293
293
293.004
293.017
293.039
293.076
293.138
293.24
293.408
293.682
294.124
294.825
295.924
297.613
300.159
303.91
309.298
316.815
326.974
340.246
356.987
377.379
401.413
428.906
459.558
493.012
528.913
566.94
606.829
648.37
691.402
735.801
781.467
828.31
876.24
925.156
974.939
1025.48
1076.81
1128.87
1181.53
1234.7
1288.26
1342.06
1396.01
1449.96
1503.77
1557.31
1610.41
1662.93
1714.69
1765.51
1815.2
1863.53
1910.25
1955.09
1997.7
2037.66
2074.45
2106.67
2134.28
2157.04
2172.61
2178.7
2074.8
1959.73
1837.26
1710.15
1580.53
1450.12
1320.41
1192.74
1068.4
948.699
834.688
727.637
629.568
542.697
469.044
410.038
365.981
335.654
316.471
305.257
299.125
295.958
294.394
293.643
293.291
293.13
293.057
293.025
293.011
293.004
293.002
293.001
293
293
293
293
293
293
293.004
293.017
293.039
293.076
293.138
293.241
293.41
293.686
294.13
294.836
295.942
297.643
300.209
303.992
309.425
317.005
327.249
340.627
357.492
378.024
402.206
429.847
460.641
494.228
530.246
568.377
608.352
649.96
693.041
737.468
783.141
829.967
877.856
926.704
976.391
1026.81
1078
1129.87
1182.33
1235.27
1288.57
1342.11
1395.76
1449.39
1502.88
1556.08
1608.85
1661.03
1712.46
1762.97
1812.37
1860.44
1906.95
1951.63
1994.14
2034.08
2070.93
2103.36
2131.14
2154.24
2170.24
2177
2094.24
1980.27
1859.05
1733.05
1604.27
1474.38
1344.84
1216.97
1092.08
971.439
856.196
747.503
647.303
557.865
481.33
419.338
372.475
339.805
318.904
306.577
299.796
296.283
294.546
293.713
293.322
293.143
293.063
293.027
293.012
293.005
293.002
293.001
293
293
293
293
293
293
293.004
293.017
293.039
293.076
293.138
293.241
293.411
293.687
294.133
294.842
295.954
297.666
300.25
304.062
309.541
317.188
327.526
341.028
358.044
378.749
403.118
430.952
461.934
495.696
531.875
570.147
610.242
651.948
695.104
739.581
785.278
832.102
879.958
928.742
978.334
1028.63
1079.66
1131.36
1183.6
1236.29
1289.32
1342.56
1395.9
1449.21
1502.35
1555.19
1607.6
1659.42
1710.49
1760.65
1809.72
1857.49
1903.73
1948.17
1990.49
2030.3
2067.11
2099.74
2127.62
2150.87
2167.26
2174.88
2116.29
2002.95
1882.56
1757.4
1629.32
1499.93
1370.61
1242.65
1117.3
995.812
879.392
769.098
666.735
574.614
494.999
429.752
379.777
344.473
321.624
308.036
300.528
296.631
294.707
293.785
293.354
293.157
293.069
293.03
293.013
293.005
293.002
293.001
293
293
293
293
293
293
293.004
293.017
293.039
293.076
293.138
293.241
293.41
293.687
294.133
294.845
295.961
297.684
300.289
304.135
309.669
317.398
327.849
341.499
358.698
379.614
404.21
432.278
463.489
497.467
533.843
572.289
612.533
654.362
697.611
742.153
787.883
834.708
882.532
931.249
980.738
1030.9
1081.78
1133.28
1185.3
1237.74
1290.48
1343.42
1396.43
1449.4
1502.2
1554.69
1606.73
1658.18
1708.9
1758.71
1807.44
1854.89
1900.83
1945.01
1987.09
2026.71
2063.38
2095.99
2123.96
2147.35
2163.93
2171.86
2137.07
2024.59
1905.16
1780.95
1653.72
1525
1396.11
1268.3
1142.76
1020.69
903.311
791.63
687.29
592.588
509.895
441.289
388.007
349.819
324.779
309.74
301.382
297.036
294.891
293.867
293.389
293.172
293.075
293.032
293.014
293.006
293.002
293.001
293
293
293
293
293
293
293.004
293.017
293.039
293.076
293.137
293.239
293.408
293.683
294.127
294.836
295.951
297.674
300.283
304.145
309.714
317.51
328.068
341.874
359.28
380.447
405.328
433.695
465.203
499.461
536.088
574.748
615.167
657.131
700.477
745.076
790.827
837.635
885.406
934.035
983.4
1033.42
1084.12