/*--------------------------------*- C++ -*----------------------------------*\
  =========                 |
  \\      /  F ield         | OpenFOAM: The Open Source CFD Toolbox
   \\    /   O peration     | Website:  https://openfoam.org
    \\  /    A nd           | Version:  8
     \\/     M anipulation  |
\*---------------------------------------------------------------------------*/
FoamFile
{
    version     2.0;
    format      ascii;
    class       volVectorField;
    location    "600/fluid";
    object      U;
}
// * * * * * * * * * * * * * * * * * * * * * * * * * * * * * * * * * * * * * //

dimensions      [0 1 -1 0 0 0 0];

internalField   nonuniform List<vector> 
4000
(
(0.0999464 -0.00702993 0)
(0.0996545 -0.0209185 0)
(0.0991835 -0.0346921 0)
(0.0985329 -0.048389 0)
(0.0976949 -0.0620274 0)
(0.0966521 -0.0756093 0)
(0.0953843 -0.0891244 0)
(0.0938725 -0.102553 0)
(0.0921015 -0.115869 0)
(0.0900629 -0.129045 0)
(0.0877585 -0.142053 0)
(0.0852037 -0.154873 0)
(0.0824318 -0.167498 0)
(0.0794999 -0.179914 0)
(0.0764854 -0.19216 0)
(0.0734624 -0.204306 0)
(0.0704827 -0.216412 0)
(0.0675659 -0.228519 0)
(0.0646905 -0.240639 0)
(0.0617952 -0.252745 0)
(0.0587894 -0.264775 0)
(0.0555728 -0.27664 0)
(0.052055 -0.288235 0)
(0.0481757 -0.299434 0)
(0.0439075 -0.31014 0)
(0.0392413 -0.32029 0)
(0.0341814 -0.329825 0)
(0.0287434 -0.338687 0)
(0.0229516 -0.346834 0)
(0.0168358 -0.354232 0)
(0.0104283 -0.360859 0)
(0.00376228 -0.366704 0)
(-0.0031262 -0.371766 0)
(-0.0102013 -0.376052 0)
(-0.0174311 -0.379575 0)
(-0.0247865 -0.382355 0)
(-0.0322407 -0.384417 0)
(-0.0397686 -0.385791 0)
(-0.0473462 -0.386511 0)
(-0.0549505 -0.386615 0)
(-0.06256 -0.386142 0)
(-0.0701542 -0.385134 0)
(-0.0777132 -0.383633 0)
(-0.085218 -0.381683 0)
(-0.0926501 -0.379331 0)
(-0.099991 -0.376621 0)
(-0.107223 -0.373601 0)
(-0.114327 -0.370317 0)
(-0.121284 -0.366819 0)
(-0.128077 -0.363155 0)
(-0.134685 -0.359376 0)
(-0.141087 -0.355535 0)
(-0.147262 -0.351688 0)
(-0.153186 -0.347894 0)
(-0.158833 -0.344217 0)
(-0.164174 -0.34073 0)
(-0.169168 -0.337512 0)
(-0.173761 -0.33465 0)
(-0.17792 -0.33224 0)
(-0.181675 -0.330429 0)
(-0.185109 -0.329481 0)
(-0.187721 -0.32977 0)
(-0.187463 -0.331225 0)
(-0.182909 -0.33214 0)
(-0.176014 -0.331323 0)
(-0.168653 -0.328872 0)
(-0.161062 -0.325093 0)
(-0.153169 -0.32014 0)
(-0.144993 -0.31408 0)
(-0.136602 -0.306955 0)
(-0.128077 -0.298799 0)
(-0.119502 -0.28965 0)
(-0.110966 -0.279553 0)
(-0.102562 -0.268558 0)
(-0.0944386 -0.256727 0)
(-0.0868363 -0.244172 0)
(-0.0800847 -0.231093 0)
(-0.0745555 -0.21777 0)
(-0.0706272 -0.204757 0)
(-0.0685986 -0.19257 0)
(-0.0685093 -0.181456 0)
(-0.070064 -0.171324 0)
(-0.0727478 -0.161861 0)
(-0.0760207 -0.152732 0)
(-0.0794519 -0.143688 0)
(-0.0827583 -0.134585 0)
(-0.085767 -0.125324 0)
(-0.0884096 -0.115949 0)
(-0.0906838 -0.106508 0)
(-0.0926145 -0.0970355 0)
(-0.0942357 -0.087562 0)
(-0.0955829 -0.078115 0)
(-0.0966904 -0.0687157 0)
(-0.0975903 -0.0593782 0)
(-0.0983111 -0.0501095 0)
(-0.0988785 -0.0409093 0)
(-0.0993143 -0.0317709 0)
(-0.0996359 -0.0226802 0)
(-0.099855 -0.0136158 0)
(-0.099982 -0.00454918 0)
(0.0999998 -0.00659844 0)
(0.0997966 -0.0197361 0)
(0.0993766 -0.0327874 0)
(0.0987163 -0.0457351 0)
(0.0978171 -0.0585615 0)
(0.0966749 -0.0712438 0)
(0.0952804 -0.0837548 0)
(0.0936259 -0.0960635 0)
(0.0917093 -0.108138 0)
(0.0895378 -0.11995 0)
(0.0871305 -0.131479 0)
(0.0845215 -0.142723 0)
(0.0817606 -0.153709 0)
(0.0789135 -0.164517 0)
(0.0760531 -0.175213 0)
(0.0732463 -0.185854 0)
(0.0705399 -0.19651 0)
(0.0679477 -0.207249 0)
(0.0654408 -0.218109 0)
(0.0629485 -0.229089 0)
(0.0603691 -0.240143 0)
(0.0575885 -0.251192 0)
(0.0545007 -0.262141 0)
(0.051023 -0.272907 0)
(0.0471051 -0.283383 0)
(0.0427272 -0.293436 0)
(0.0378902 -0.302965 0)
(0.0326118 -0.311894 0)
(0.0269217 -0.320166 0)
(0.0208559 -0.327742 0)
(0.0144538 -0.334598 0)
(0.00775526 -0.340718 0)
(0.000799312 -0.3461 0)
(-0.00637599 -0.35075 0)
(-0.0137344 -0.354681 0)
(-0.0212426 -0.357911 0)
(-0.0288702 -0.360465 0)
(-0.0365894 -0.362371 0)
(-0.0443744 -0.363659 0)
(-0.0522007 -0.364363 0)
(-0.0600457 -0.364521 0)
(-0.0678879 -0.364169 0)
(-0.0757069 -0.363349 0)
(-0.0834835 -0.3621 0)
(-0.0911991 -0.360465 0)
(-0.0988355 -0.358487 0)
(-0.106375 -0.35621 0)
(-0.113799 -0.353677 0)
(-0.121091 -0.350934 0)
(-0.128234 -0.348028 0)
(-0.13521 -0.345005 0)
(-0.142001 -0.341913 0)
(-0.148588 -0.338803 0)
(-0.154953 -0.335724 0)
(-0.161076 -0.332732 0)
(-0.166937 -0.329879 0)
(-0.172499 -0.327223 0)
(-0.17772 -0.324816 0)
(-0.182593 -0.322709 0)
(-0.187207 -0.320958 0)
(-0.19169 -0.319619 0)
(-0.195226 -0.318687 0)
(-0.195197 -0.317676 0)
(-0.190194 -0.315957 0)
(-0.182752 -0.31334 0)
(-0.17498 -0.30972 0)
(-0.167076 -0.30505 0)
(-0.158902 -0.29931 0)
(-0.150437 -0.292489 0)
(-0.141728 -0.284583 0)
(-0.132836 -0.275595 0)
(-0.123826 -0.265545 0)
(-0.114761 -0.254476 0)
(-0.105713 -0.242469 0)
(-0.0968324 -0.229681 0)
(-0.0883964 -0.216395 0)
(-0.0808009 -0.203063 0)
(-0.074512 -0.190321 0)
(-0.0699902 -0.178602 0)
(-0.0675314 -0.16817 0)
(-0.067111 -0.159034 0)
(-0.0683713 -0.150914 0)
(-0.0707792 -0.143396 0)
(-0.073815 -0.136114 0)
(-0.0770788 -0.128829 0)
(-0.0803108 -0.121433 0)
(-0.0833685 -0.113918 0)
(-0.0861667 -0.1062 0)
(-0.0886701 -0.098253 0)
(-0.0908729 -0.0901061 0)
(-0.0927834 -0.0817996 0)
(-0.0944179 -0.073372 0)
(-0.0957967 -0.0648571 0)
(-0.0969423 -0.0562824 0)
(-0.0978769 -0.0476693 0)
(-0.0986215 -0.0390328 0)
(-0.0991939 -0.030382 0)
(-0.0996059 -0.0217204 0)
(-0.0998657 -0.013046 0)
(-0.0999951 -0.00435442 0)
(0.099979 -0.00632306 0)
(0.0997182 -0.0189003 0)
(0.0992073 -0.0313887 0)
(0.0984277 -0.0437686 0)
(0.0973834 -0.0560183 0)
(0.0960752 -0.0681145 0)
(0.0945027 -0.0800327 0)
(0.0926688 -0.0917484 0)
(0.0905835 -0.103239 0)
(0.0882667 -0.114486 0)
(0.0857501 -0.12548 0)
(0.0830792 -0.13622 0)
(0.0803122 -0.146722 0)
(0.0775137 -0.157018 0)
(0.0747493 -0.167161 0)
(0.0720803 -0.177223 0)
(0.0695523 -0.187282 0)
(0.0671787 -0.197407 0)
(0.0649311 -0.207642 0)
(0.0627382 -0.217994 0)
(0.0604965 -0.228427 0)
(0.0580891 -0.238871 0)
(0.0554034 -0.249233 0)
(0.0523439 -0.259412 0)
(0.04884 -0.269309 0)
(0.0448525 -0.278833 0)
(0.0403719 -0.287903 0)
(0.0354101 -0.296452 0)
(0.0299936 -0.304426 0)
(0.0241572 -0.311783 0)
(0.0179399 -0.318493 0)
(0.011382 -0.324538 0)
(0.00452353 -0.329909 0)
(-0.00259612 -0.334607 0)
(-0.00993951 -0.338638 0)
(-0.017472 -0.342018 0)
(-0.0251618 -0.344766 0)
(-0.0329798 -0.346905 0)
(-0.0408993 -0.348462 0)
(-0.0488949 -0.349469 0)
(-0.0569433 -0.349956 0)
(-0.0650225 -0.349959 0)
(-0.073112 -0.349515 0)
(-0.0811924 -0.34866 0)
(-0.089245 -0.347434 0)
(-0.0972519 -0.345875 0)
(-0.105196 -0.344023 0)
(-0.113062 -0.34192 0)
(-0.120833 -0.339606 0)
(-0.128496 -0.337122 0)
(-0.136035 -0.334511 0)
(-0.143437 -0.331815 0)
(-0.150688 -0.329075 0)
(-0.157776 -0.326332 0)
(-0.164687 -0.323627 0)
(-0.171407 -0.320998 0)
(-0.177904 -0.318481 0)
(-0.184139 -0.316102 0)
(-0.190122 -0.313881 0)
(-0.195958 -0.311836 0)
(-0.201657 -0.309978 0)
(-0.205827 -0.308242 0)
(-0.205474 -0.305987 0)
(-0.199795 -0.302891 0)
(-0.191818 -0.299088 0)
(-0.183465 -0.294507 0)
(-0.174912 -0.28905 0)
(-0.166049 -0.282656 0)
(-0.156865 -0.275301 0)
(-0.147404 -0.266982 0)
(-0.13772 -0.257723 0)
(-0.127871 -0.247576 0)
(-0.117917 -0.23663 0)
(-0.107945 -0.225024 0)
(-0.09815 -0.212964 0)
(-0.0888741 -0.200739 0)
(-0.0805843 -0.18872 0)
(-0.0738121 -0.177315 0)
(-0.0690253 -0.166891 0)
(-0.066448 -0.157652 0)
(-0.0659547 -0.149539 0)
(-0.0671235 -0.14226 0)
(-0.0694102 -0.135438 0)
(-0.0723138 -0.128752 0)
(-0.075458 -0.121995 0)
(-0.0786023 -0.115064 0)
(-0.0816164 -0.107927 0)
(-0.0844345 -0.100594 0)
(-0.0870193 -0.0930837 0)
(-0.0893527 -0.0854174 0)
(-0.0914297 -0.0776156 0)
(-0.0932538 -0.0696992 0)
(-0.0948334 -0.0616882 0)
(-0.0961793 -0.053601 0)
(-0.0973042 -0.0454533 0)
(-0.0982207 -0.0372582 0)
(-0.09894 -0.0290259 0)
(-0.0994687 -0.0207635 0)
(-0.099811 -0.0124758 0)
(-0.0999871 -0.00416499 0)
(0.0999837 -0.00597332 0)
(0.0997181 -0.017855 0)
(0.0991892 -0.0296434 0)
(0.0983777 -0.0413124 0)
(0.0972922 -0.0528356 0)
(0.0959394 -0.0641863 0)
(0.0943248 -0.0753382 0)
(0.0924567 -0.0862664 0)
(0.0903498 -0.0969488 0)
(0.0880267 -0.107369 0)
(0.08552 -0.11752 0)
(0.0828739 -0.127407 0)
(0.0801443 -0.137051 0)
(0.0773968 -0.146496 0)
(0.0747018 -0.155803 0)
(0.072124 -0.165046 0)
(0.069709 -0.174308 0)
(0.0674692 -0.18366 0)
(0.0653744 -0.193151 0)
(0.063351 -0.202791 0)
(0.0612932 -0.212553 0)
(0.0590799 -0.222373 0)
(0.0565949 -0.232166 0)
(0.0537411 -0.241836 0)
(0.0504491 -0.251287 0)
(0.0466781 -0.260426 0)
(0.0424132 -0.269172 0)
(0.0376599 -0.277458 0)
(0.0324381 -0.285229 0)
(0.0267769 -0.292442 0)
(0.0207108 -0.299068 0)
(0.0142763 -0.305087 0)
(0.00751065 -0.310488 0)
(0.000450632 -0.315269 0)
(-0.00686783 -0.319434 0)
(-0.0144109 -0.322994 0)
(-0.0221476 -0.325967 0)
(-0.0300495 -0.328371 0)
(-0.0380901 -0.33023 0)
(-0.0462449 -0.33157 0)
(-0.0544909 -0.332421 0)
(-0.0628069 -0.332812 0)
(-0.0711725 -0.332777 0)
(-0.0795685 -0.332347 0)
(-0.0879768 -0.331556 0)
(-0.0963807 -0.33044 0)
(-0.104764 -0.329035 0)
(-0.113113 -0.327374 0)
(-0.121412 -0.325494 0)
(-0.129647 -0.323429 0)
(-0.137806 -0.321215 0)
(-0.145877 -0.318884 0)
(-0.153847 -0.316469 0)
(-0.161703 -0.314 0)
(-0.169433 -0.311503 0)
(-0.177018 -0.309002 0)
(-0.184418 -0.306512 0)
(-0.191584 -0.304041 0)
(-0.198532 -0.301587 0)
(-0.20538 -0.299155 0)
(-0.211974 -0.296742 0)
(-0.216241 -0.29428 0)
(-0.215085 -0.291025 0)
(-0.208614 -0.286892 0)
(-0.200163 -0.282129 0)
(-0.191262 -0.276704 0)
(-0.182021 -0.270525 0)
(-0.17238 -0.263535 0)
(-0.162368 -0.255712 0)
(-0.152049 -0.247062 0)
(-0.141494 -0.237618 0)
(-0.130783 -0.227447 0)
(-0.119999 -0.216649 0)
(-0.109271 -0.205373 0)
(-0.0988545 -0.193831 0)
(-0.0891465 -0.18231 0)
(-0.0806372 -0.171162 0)
(-0.0738291 -0.160761 0)
(-0.0691142 -0.151417 0)
(-0.0666276 -0.143257 0)
(-0.0661758 -0.136164 0)
(-0.0673127 -0.129829 0)
(-0.0695088 -0.123893 0)
(-0.0722945 -0.118063 0)
(-0.0753223 -0.112153 0)
(-0.078367 -0.106065 0)
(-0.0812992 -0.0997615 0)
(-0.0840515 -0.0932344 0)
(-0.086592 -0.086494 0)
(-0.0889069 -0.0795594 0)
(-0.0909917 -0.0724528 0)
(-0.0928471 -0.0651964 0)
(-0.0944765 -0.0578115 0)
(-0.0958848 -0.050318 0)
(-0.0970779 -0.0427335 0)
(-0.0980621 -0.0350739 0)
(-0.0988426 -0.0273528 0)
(-0.0994203 -0.0195821 0)
(-0.0997952 -0.0117719 0)
(-0.0999873 -0.00393086 0)
(0.0999808 -0.00562216 0)
(0.0996999 -0.016804 0)
(0.0991452 -0.0278955 0)
(0.0982989 -0.0388703 0)
(0.0971717 -0.0497018 0)
(0.0957732 -0.0603643 0)
(0.0941117 -0.070833 0)
(0.092199 -0.0810853 0)
(0.0900531 -0.091102 0)
(0.0877 -0.10087 0)
(0.0851758 -0.110383 0)
(0.0825273 -0.119647 0)
(0.0798131 -0.128683 0)
(0.0771006 -0.13753 0)
(0.0744609 -0.146242 0)
(0.0719585 -0.154888 0)
(0.0696381 -0.163545 0)
(0.0675115 -0.17228 0)
(0.0655479 -0.181141 0)
(0.0636735 -0.19014 0)
(0.0617809 -0.199258 0)
(0.0597471 -0.208442 0)
(0.0574522 -0.217616 0)
(0.0547948 -0.226695 0)
(0.0517009 -0.23559 0)
(0.048125 -0.244219 0)
(0.0440479 -0.252506 0)
(0.0394709 -0.260389 0)
(0.0344104 -0.267815 0)
(0.0288921 -0.274743 0)
(0.0229475 -0.281143 0)
(0.0166106 -0.286994 0)
(0.00991622 -0.292284 0)
(0.00289887 -0.297008 0)
(-0.00440712 -0.301169 0)
(-0.0119695 -0.304775 0)
(-0.0197587 -0.307838 0)
(-0.0277475 -0.310375 0)
(-0.0359108 -0.312406 0)
(-0.0442252 -0.313952 0)
(-0.0526686 -0.31504 0)
(-0.0612202 -0.315694 0)
(-0.0698603 -0.315943 0)
(-0.0785705 -0.315815 0)
(-0.087334 -0.31534 0)
(-0.0961344 -0.314547 0)
(-0.104956 -0.313466 0)
(-0.113785 -0.312128 0)
(-0.122606 -0.310561 0)
(-0.131406 -0.308794 0)
(-0.140171 -0.306855 0)
(-0.148887 -0.30477 0)
(-0.157539 -0.302561 0)
(-0.166111 -0.300251 0)
(-0.174586 -0.297855 0)
(-0.182934 -0.295387 0)
(-0.191101 -0.29285 0)
(-0.199026 -0.290241 0)
(-0.206737 -0.28755 0)
(-0.214356 -0.284778 0)
(-0.221538 -0.281911 0)
(-0.225512 -0.278895 0)
(-0.223318 -0.274946 0)
(-0.216082 -0.270183 0)
(-0.207227 -0.264849 0)
(-0.197832 -0.258925 0)
(-0.187948 -0.252339 0)
(-0.177576 -0.245055 0)
(-0.16679 -0.237069 0)
(-0.155684 -0.228402 0)
(-0.144354 -0.219102 0)
(-0.132898 -0.209247 0)
(-0.121422 -0.198947 0)
(-0.110094 -0.188353 0)
(-0.0992109 -0.177672 0)
(-0.0892004 -0.167167 0)
(-0.0805553 -0.157145 0)
(-0.0737512 -0.147908 0)
(-0.0691224 -0.139673 0)
(-0.0667306 -0.132485 0)
(-0.0663248 -0.126187 0)
(-0.0674381 -0.120486 0)
(-0.0695541 -0.115074 0)
(-0.0722316 -0.109713 0)
(-0.0751506 -0.104256 0)
(-0.0781048 -0.0986279 0)
(-0.0809736 -0.0927986 0)
(-0.0836903 -0.0867648 0)
(-0.0862197 -0.0805353 0)
(-0.0885434 -0.0741247 0)
(-0.0906528 -0.0675499 0)
(-0.0925446 -0.0608282 0)
(-0.0942182 -0.0539772 0)
(-0.0956751 -0.0470133 0)
(-0.0969178 -0.0399525 0)
(-0.0979493 -0.0328097 0)
(-0.0987716 -0.0255987 0)
(-0.099383 -0.0183323 0)
(-0.0997812 -0.0110226 0)
(-0.0999861 -0.00368088 0)
(0.0999813 -0.00525583 0)
(0.0996976 -0.0157096 0)
(0.0991362 -0.026077 0)
(0.0982795 -0.036331 0)
(0.0971399 -0.0464451 0)
(0.095729 -0.0563935 0)
(0.0940571 -0.0661524 0)
(0.0921378 -0.0757002 0)
(0.0899908 -0.0850189 0)
(0.0876435 -0.0940963 0)
(0.0851326 -0.102928 0)
(0.0825054 -0.111522 0)
(0.0798203 -0.119898 0)
(0.0771444 -0.128094 0)
(0.0745482 -0.136165 0)
(0.0720962 -0.144179 0)
(0.0698335 -0.152209 0)
(0.0677726 -0.160321 0)
(0.065884 -0.168561 0)
(0.0640951 -0.176946 0)
(0.0622997 -0.185458 0)
(0.0603744 -0.194049 0)
(0.0581984 -0.20265 0)
(0.0556681 -0.21118 0)
(0.0527063 -0.219559 0)
(0.0492641 -0.227708 0)
(0.0453183 -0.235558 0)
(0.0408665 -0.243048 0)
(0.0359212 -0.25013 0)
(0.0305048 -0.256763 0)
(0.0246458 -0.262919 0)
(0.0183753 -0.268577 0)
(0.0117257 -0.273723 0)
(0.00472918 -0.278353 0)
(-0.00258201 -0.282466 0)
(-0.0101773 -0.286068 0)
(-0.0180287 -0.289169 0)
(-0.0261105 -0.291783 0)
(-0.0343989 -0.293926 0)
(-0.0428715 -0.295618 0)
(-0.0515068 -0.296879 0)
(-0.0602849 -0.297731 0)
(-0.0691871 -0.298198 0)
(-0.0781959 -0.298305 0)
(-0.0872946 -0.298076 0)
(-0.0964669 -0.297536 0)
(-0.105697 -0.296711 0)
(-0.11497 -0.295624 0)
(-0.12427 -0.294301 0)
(-0.133582 -0.292763 0)
(-0.14289 -0.291034 0)
(-0.152176 -0.289131 0)
(-0.161422 -0.287073 0)
(-0.170604 -0.284874 0)
(-0.179698 -0.282545 0)
(-0.188662 -0.280091 0)
(-0.197424 -0.27751 0)
(-0.205914 -0.274793 0)
(-0.214167 -0.271929 0)
(-0.2223 -0.268906 0)
(-0.229782 -0.265692 0)
(-0.233246 -0.262258 0)
(-0.230013 -0.257926 0)
(-0.222124 -0.252874 0)
(-0.212875 -0.247247 0)
(-0.202996 -0.241049 0)
(-0.192512 -0.234257 0)
(-0.181483 -0.226863 0)
(-0.17002 -0.218882 0)
(-0.158244 -0.210346 0)
(-0.14627 -0.201313 0)
(-0.134215 -0.191861 0)
(-0.122207 -0.182098 0)
(-0.110447 -0.172165 0)
(-0.0992702 -0.162254 0)
(-0.0891224 -0.152603 0)
(-0.0804928 -0.143479 0)
(-0.073825 -0.135139 0)
(-0.0693935 -0.127754 0)
(-0.0671891 -0.121334 0)
(-0.0669067 -0.115711 0)
(-0.0680609 -0.110609 0)
(-0.0701463 -0.105748 0)
(-0.0727461 -0.100917 0)
(-0.0755644 -0.0959855 0)
(-0.0784136 -0.0908863 0)
(-0.0811846 -0.0855924 0)
(-0.0838174 -0.0800994 0)
(-0.0862795 -0.0744144 0)
(-0.0885531 -0.0685499 0)
(-0.0906287 -0.0625209 0)
(-0.0925009 -0.0563433 0)
(-0.0941668 -0.0500333 0)
(-0.0956248 -0.0436066 0)
(-0.0968747 -0.0370786 0)
(-0.0979168 -0.0304641 0)
(-0.0987506 -0.0237776 0)
(-0.0993722 -0.0170327 0)
(-0.0997776 -0.0102427 0)
(-0.0999861 -0.00342054 0)
(0.0999809 -0.0048881 0)
(0.0996944 -0.0146106 0)
(0.0991283 -0.0242525 0)
(0.0982654 -0.0337877 0)
(0.0971189 -0.0431908 0)
(0.0957011 -0.0524377 0)
(0.0940236 -0.0615059 0)
(0.0921009 -0.0703755 0)
(0.0899539 -0.0790303 0)
(0.087611 -0.0874593 0)
(0.0851097 -0.0956592 0)
(0.082498 -0.103637 0)
(0.0798347 -0.111412 0)
(0.0771873 -0.119021 0)
(0.0746263 -0.126512 0)
(0.0722161 -0.13395 0)
(0.0700022 -0.141402 0)
(0.0679973 -0.148931 0)
(0.0661723 -0.15658 0)
(0.0644551 -0.164368 0)
(0.0627395 -0.172278 0)
(0.0609018 -0.180271 0)
(0.0588197 -0.188284 0)
(0.0563878 -0.196244 0)
(0.0535263 -0.204078 0)
(0.0501836 -0.211714 0)
(0.0463338 -0.219086 0)
(0.0419714 -0.22614 0)
(0.0371063 -0.232829 0)
(0.0317582 -0.239115 0)
(0.0259533 -0.244971 0)
(0.0197204 -0.250376 0)
(0.0130898 -0.255316 0)
(0.00609201 -0.259786 0)
(-0.00124276 -0.263782 0)
(-0.0088855 -0.267311 0)
(-0.0168096 -0.270378 0)
(-0.0249906 -0.272996 0)
(-0.0334057 -0.275178 0)
(-0.0420331 -0.276939 0)
(-0.0508524 -0.278298 0)
(-0.0598446 -0.279272 0)
(-0.0689916 -0.279881 0)
(-0.078276 -0.280147 0)
(-0.0876808 -0.28009 0)
(-0.0971894 -0.27973 0)
(-0.106785 -0.279089 0)
(-0.116452 -0.278186 0)
(-0.126173 -0.27704 0)
(-0.13593 -0.275672 0)
(-0.145705 -0.274096 0)
(-0.155475 -0.272329 0)
(-0.165216 -0.270383 0)
(-0.174901 -0.26827 0)
(-0.184493 -0.265996 0)
(-0.19394 -0.263565 0)
(-0.203152 -0.260973 0)
(-0.212054 -0.25821 0)
(-0.220671 -0.255264 0)
(-0.229077 -0.252113 0)
(-0.236611 -0.248705 0)
(-0.239633 -0.245008 0)
(-0.235593 -0.240508 0)
(-0.227008 -0.235363 0)
(-0.217198 -0.22964 0)
(-0.206799 -0.223371 0)
(-0.195789 -0.216571 0)
(-0.184225 -0.209257 0)
(-0.172232 -0.201456 0)
(-0.159939 -0.193212 0)
(-0.14748 -0.184582 0)
(-0.134984 -0.175647 0)
(-0.122596 -0.166507 0)
(-0.110548 -0.157298 0)
(-0.0992017 -0.148193 0)
(-0.0890129 -0.139407 0)
(-0.0804607 -0.131173 0)
(-0.0739556 -0.123704 0)
(-0.0697172 -0.11712 0)
(-0.067678 -0.111397 0)
(-0.0674946 -0.106355 0)
(-0.068674 -0.10174 0)
(-0.0707263 -0.0973085 0)
(-0.0732574 -0.0928827 0)
(-0.0759918 -0.0883554 0)
(-0.0787558 -0.0836718 0)
(-0.0814485 -0.0788101 0)
(-0.0840134 -0.0737667 0)
(-0.0864192 -0.0685473 0)
(-0.0886479 -0.0631624 0)
(-0.0906891 -0.0576243 0)
(-0.0925361 -0.0519467 0)
(-0.0941847 -0.0461432 0)
(-0.0956318 -0.040228 0)
(-0.0968757 -0.0342149 0)
(-0.0979152 -0.0281177 0)
(-0.0987485 -0.0219501 0)
(-0.0993708 -0.0157255 0)
(-0.0997769 -0.00945717 0)
(-0.099986 -0.0031582 0)
(0.099981 -0.00451838 0)
(0.0996947 -0.013506 0)
(0.0991288 -0.0224191 0)
(0.0982661 -0.0312327 0)
(0.0971205 -0.0399231 0)
(0.0957047 -0.0484676 0)
(0.0940308 -0.0568451 0)
(0.0921142 -0.0650372 0)
(0.0899759 -0.0730288 0)
(0.087645 -0.0808101 0)
(0.0851589 -0.0883784 0)
(0.0825659 -0.0957405 0)
(0.0799246 -0.102915 0)
(0.077302 -0.109935 0)
(0.0747687 -0.116848 0)
(0.0723891 -0.123712 0)
(0.0702087 -0.130592 0)
(0.0682411 -0.137546 0)
(0.0664581 -0.144616 0)
(0.0647886 -0.15182 0)
(0.0631266 -0.159144 0)
(0.0613486 -0.166553 0)
(0.0593314 -0.17399 0)
(0.056968 -0.181389 0)
(0.0541767 -0.188681 0)
(0.0509035 -0.195802 0)
(0.0471199 -0.20269 0)
(0.0428182 -0.209295 0)
(0.0380058 -0.215572 0)
(0.0327004 -0.221488 0)
(0.0269259 -0.227015 0)
(0.0207095 -0.232134 0)
(0.0140795 -0.23683 0)
(0.00706485 -0.241098 0)
(-0.000305684 -0.244934 0)
(-0.00800449 -0.248341 0)
(-0.016006 -0.251325 0)
(-0.0242866 -0.253894 0)
(-0.0328243 -0.25606 0)
(-0.0415982 -0.257836 0)
(-0.0505888 -0.259235 0)
(-0.0597773 -0.260275 0)
(-0.0691456 -0.26097 0)
(-0.0786762 -0.261339 0)
(-0.0883516 -0.261399 0)
(-0.0981546 -0.261166 0)
(-0.108068 -0.260657 0)
(-0.118073 -0.25989 0)
(-0.128151 -0.258879 0)
(-0.138282 -0.257639 0)
(-0.148444 -0.256184 0)
(-0.158612 -0.254524 0)
(-0.168756 -0.252671 0)
(-0.178843 -0.250632 0)
(-0.188831 -0.248413 0)
(-0.198654 -0.246014 0)
(-0.208212 -0.243433 0)
(-0.21742 -0.240663 0)
(-0.226281 -0.237697 0)
(-0.234814 -0.234524 0)
(-0.242194 -0.231107 0)
(-0.244692 -0.227318 0)
(-0.239916 -0.222734 0)
(-0.230729 -0.217572 0)
(-0.220418 -0.211899 0)
(-0.209558 -0.205739 0)
(-0.198103 -0.199113 0)
(-0.186104 -0.192045 0)
(-0.173689 -0.18457 0)
(-0.160998 -0.176735 0)
(-0.148171 -0.168599 0)
(-0.135349 -0.160238 0)
(-0.122691 -0.151748 0)
(-0.110456 -0.143252 0)
(-0.099027 -0.13491 0)
(-0.0888655 -0.126915 0)
(-0.0804393 -0.11947 0)
(-0.0741272 -0.112753 0)
(-0.0700998 -0.106855 0)
(-0.0682388 -0.101729 0)
(-0.068168 -0.0972002 0)
(-0.0693886 -0.0930326 0)
(-0.0714236 -0.0890118 0)
(-0.0738991 -0.0849843 0)
(-0.0765577 -0.0808578 0)
(-0.0792393 -0.076586 0)
(-0.081851 -0.07215 0)
(-0.0843411 -0.0675469 0)
(-0.0866804 -0.0627815 0)
(-0.0888518 -0.0578627 0)
(-0.0908448 -0.0528015 0)
(-0.0926522 -0.0476098 0)
(-0.0942688 -0.0423 0)
(-0.0956908 -0.0368847 0)
(-0.0969153 -0.0313767 0)
(-0.0979403 -0.025789 0)
(-0.098763 -0.0201344 0)
(-0.099378 -0.0144257 0)
(-0.0997795 -0.00867566 0)
(-0.0999862 -0.00289715 0)
(0.099981 -0.00414963 0)
(0.0996954 -0.0124042 0)
(0.0991307 -0.0205904 0)
(0.0982702 -0.0286855 0)
(0.0971278 -0.0366671 0)
(0.0957164 -0.0445145 0)
(0.0940484 -0.0522083 0)
(0.0921393 -0.0597315 0)
(0.0900107 -0.0670704 0)
(0.0876915 -0.0742163 0)
(0.0852194 -0.0811666 0)
(0.0826426 -0.0879279 0)
(0.0800196 -0.0945174 0)
(0.0774174 -0.100966 0)
(0.0749064 -0.107316 0)
(0.0725511 -0.113622 0)
(0.0703973 -0.119944 0)
(0.068459 -0.126335 0)
(0.0667086 -0.132835 0)
(0.0650755 -0.139461 0)
(0.0634542 -0.146203 0)
(0.0617208 -0.153027 0)
(0.0597512 -0.159885 0)
(0.0574374 -0.166715 0)
(0.0546958 -0.173455 0)
(0.0514707 -0.180046 0)
(0.0477318 -0.186432 0)
(0.0434692 -0.192566 0)
(0.0386888 -0.198407 0)
(0.0334063 -0.203924 0)
(0.0276442 -0.209091 0)
(0.0214281 -0.213889 0)
(0.014785 -0.218304 0)
(0.0077425 -0.22233 0)
(0.00032817 -0.225964 0)
(-0.00743128 -0.229206 0)
(-0.015511 -0.232061 0)
(-0.0238883 -0.234535 0)
(-0.0325418 -0.236637 0)
(-0.0414515 -0.238379 0)
(-0.0505978 -0.239772 0)
(-0.059962 -0.240829 0)
(-0.0695258 -0.241564 0)
(-0.0792714 -0.241991 0)
(-0.0891805 -0.242124 0)
(-0.0992351 -0.241976 0)
(-0.109416 -0.241563 0)
(-0.119704 -0.240897 0)
(-0.130078 -0.239991 0)
(-0.140514 -0.238856 0)
(-0.150988 -0.237503 0)
(-0.161471 -0.235941 0)
(-0.17193 -0.234178 0)
(-0.182325 -0.232219 0)
(-0.192609 -0.230069 0)
(-0.202706 -0.227729 0)
(-0.212511 -0.225196 0)
(-0.221942 -0.222467 0)
(-0.231017 -0.219547 0)
(-0.239714 -0.216449 0)
(-0.246863 -0.213167 0)
(-0.248675 -0.209381 0)
(-0.243129 -0.20481 0)
(-0.233477 -0.199732 0)
(-0.222786 -0.194225 0)
(-0.211555 -0.188298 0)
(-0.199735 -0.181969 0)
(-0.187384 -0.175263 0)
(-0.174635 -0.168217 0)
(-0.161635 -0.160877 0)
(-0.14853 -0.153301 0)
(-0.135467 -0.145561 0)
(-0.122621 -0.137746 0)
(-0.110271 -0.12997 0)
(-0.0988161 -0.122379 0)
(-0.0887204 -0.115144 0)
(-0.0804388 -0.108445 0)
(-0.0743198 -0.102431 0)
(-0.0704906 -0.0971629 0)
(-0.0687901 -0.0925804 0)
(-0.0688176 -0.0885125 0)
(-0.0700729 -0.0847463 0)
(-0.0720924 -0.0810945 0)
(-0.07452 -0.0774259 0)
(-0.0771138 -0.0736632 0)
(-0.0797244 -0.0697676 0)
(-0.0822655 -0.065724 0)
(-0.0846891 -0.0615297 0)
(-0.0869677 -0.0571892 0)
(-0.0890849 -0.0527101 0)
(-0.0910302 -0.0481018 0)
(-0.0927964 -0.0433747 0)
(-0.094378 -0.0385396 0)
(-0.0957706 -0.0336078 0)
(-0.0969711 -0.0285909 0)
(-0.0979768 -0.0235004 0)
(-0.0987847 -0.0183482 0)
(-0.0993888 -0.0131461 0)
(-0.0997833 -0.00790604 0)
(-0.0999865 -0.00264007 0)
(0.0999811 -0.00378211 0)
(0.0996967 -0.0113059 0)
(0.0991344 -0.0187678 0)
(0.0982775 -0.0261467 0)
(0.0971399 -0.0334225 0)
(0.0957347 -0.0405758 0)
(0.0940742 -0.0475893 0)
(0.0921742 -0.0544473 0)
(0.0900562 -0.0611375 0)
(0.0877491 -0.0676518 0)
(0.0852906 -0.0739883 0)
(0.0827286 -0.0801527 0)
(0.0801216 -0.0861611 0)
(0.0775362 -0.0920412 0)
(0.0750429 -0.0978328 0)
(0.0727059 -0.103586 0)
(0.0705716 -0.109353 0)
(0.0686542 -0.115186 0)
(0.066927 -0.121121 0)
(0.0653196 -0.127173 0)
(0.063727 -0.133336 0)
(0.0620249 -0.139578 0)
(0.0600887 -0.145856 0)
(0.0578092 -0.152115 0)
(0.0551016 -0.158298 0)
(0.0519086 -0.16435 0)
(0.0481982 -0.170223 0)
(0.0439592 -0.175872 0)
(0.0391958 -0.181259 0)
(0.0339226 -0.186357 0)
(0.0281605 -0.191139 0)
(0.0219342 -0.19559 0)
(0.0152696 -0.199696 0)
(0.00819313 -0.20345 0)
(0.000731702 -0.206848 0)
(-0.00708873 -0.20989 0)
(-0.0152441 -0.21258 0)
(-0.0237122 -0.214922 0)
(-0.0324724 -0.216925 0)
(-0.0415045 -0.218596 0)
(-0.0507891 -0.219945 0)
(-0.0603074 -0.220984 0)
(-0.0700408 -0.221723 0)
(-0.0799709 -0.222174 0)
(-0.0900788 -0.222348 0)
(-0.100345 -0.222258 0)
(-0.11075 -0.221915 0)
(-0.121271 -0.22133 0)
(-0.131887 -0.220512 0)
(-0.14257 -0.219471 0)
(-0.153295 -0.218217 0)
(-0.164027 -0.216756 0)
(-0.174732 -0.215094 0)
(-0.185366 -0.213238 0)
(-0.195876 -0.21119 0)
(-0.206182 -0.208951 0)
(-0.216175 -0.206522 0)
(-0.225789 -0.203902 0)
(-0.23507 -0.201101 0)
(-0.243935 -0.198139 0)
(-0.250711 -0.195027 0)
(-0.251627 -0.191297 0)
(-0.245328 -0.18684 0)
(-0.235372 -0.181949 0)
(-0.224443 -0.1767 0)
(-0.212943 -0.171095 0)
(-0.200844 -0.165146 0)
(-0.18822 -0.158877 0)
(-0.175214 -0.152325 0)
(-0.161978 -0.145534 0)
(-0.148663 -0.138557 0)
(-0.135423 -0.131461 0)
(-0.122447 -0.124328 0)
(-0.11003 -0.117262 0)
(-0.0985851 -0.110394 0)
(-0.0885764 -0.103879 0)
(-0.0804464 -0.0978734 0)
(-0.0745161 -0.0925014 0)
(-0.070874 -0.0878056 0)
(-0.0693228 -0.0837167 0)
(-0.0694422 -0.0800731 0)
(-0.0707317 -0.0766835 0)
(-0.0727404 -0.0733841 0)
(-0.0751276 -0.0700624 0)
(-0.0776646 -0.066653 0)
(-0.0802116 -0.0631233 0)
(-0.0826882 -0.0594606 0)
(-0.0850496 -0.055663 0)
(-0.0872701 -0.0517343 0)
(-0.0893342 -0.0476813 0)
(-0.0912319 -0.0435121 0)
(-0.0929559 -0.0392359 0)
(-0.0945007 -0.0348623 0)
(-0.0958618 -0.0304013 0)
(-0.0970357 -0.0258631 0)
(-0.0980196 -0.0212584 0)
(-0.0988103 -0.0165976 0)
(-0.0994016 -0.0118917 0)
(-0.0997879 -0.00715148 0)
(-0.0999868 -0.00238802 0)
(0.0999812 -0.00341632 0)
(0.0996981 -0.0102128 0)
(0.0991383 -0.0169536 0)
(0.0982852 -0.0236198 0)
(0.0971527 -0.030193 0)
(0.0957538 -0.0366561 0)
(0.0941008 -0.0429931 0)
(0.0922095 -0.0491901 0)
(0.0901014 -0.055236 0)
(0.0878052 -0.0611234 0)
(0.0853585 -0.0668507 0)
(0.0828092 -0.0724232 0)
(0.0802153 -0.0778554 0)
(0.0776436 -0.0831723 0)
(0.0751641 -0.0884099 0)
(0.0728414 -0.0936132 0)
(0.0707218 -0.098831 0)
(0.0688201 -0.104109 0)
(0.06711 -0.109481 0)
(0.0655215 -0.114961 0)
(0.0639495 -0.120544 0)
(0.0622698 -0.126203 0)
(0.0603572 -0.131898 0)
(0.0581013 -0.13758 0)
(0.0554163 -0.143198 0)
(0.0522437 -0.148703 0)
(0.0485504 -0.154049 0)
(0.0443238 -0.159198 0)
(0.039567 -0.164115 0)
(0.0342935 -0.168774 0)
(0.0285234 -0.173151 0)
(0.0222803 -0.177232 0)
(0.0155894 -0.181004 0)
(0.00847642 -0.184459 0)
(0.000967614 -0.187594 0)
(-0.00691168 -0.190408 0)
(-0.0151379 -0.192904 0)
(-0.0236892 -0.195085 0)
(-0.0325451 -0.196958 0)
(-0.0416854 -0.198528 0)
(-0.0510908 -0.199805 0)
(-0.0607422 -0.200797 0)
(-0.0706207 -0.201513 0)
(-0.080707 -0.201963 0)
(-0.0909818 -0.202157 0)
(-0.101424 -0.202104 0)
(-0.112014 -0.201814 0)
(-0.122727 -0.201295 0)
(-0.133538 -0.200556 0)
(-0.144421 -0.199606 0)
(-0.155345 -0.19845 0)
(-0.166276 -0.197096 0)
(-0.177174 -0.195548 0)
(-0.187994 -0.193812 0)
(-0.19868 -0.19189 0)
(-0.209146 -0.189785 0)
(-0.219282 -0.187495 0)
(-0.229037 -0.185023 0)
(-0.238477 -0.182377 0)
(-0.247438 -0.179573 0)
(-0.25375 -0.17664 0)
(-0.253771 -0.173061 0)
(-0.246841 -0.16884 0)
(-0.23668 -0.164244 0)
(-0.225591 -0.15934 0)
(-0.213894 -0.15413 0)
(-0.20158 -0.148625 0)
(-0.188746 -0.142851 0)
(-0.175542 -0.13684 0)
(-0.162126 -0.130634 0)
(-0.148655 -0.124282 0)
(-0.135286 -0.117846 0)
(-0.12222 -0.111398 0)
(-0.109769 -0.105034 0)
(-0.0983551 -0.0988713 0)
(-0.0884423 -0.0930475 0)
(-0.0804606 -0.0876994 0)
(-0.074706 -0.0829304 0)
(-0.0712329 -0.0787674 0)
(-0.0698139 -0.0751374 0)
(-0.0700136 -0.0718902 0)
(-0.0713331 -0.0688558 0)
(-0.0733327 -0.0658921 0)
(-0.0756853 -0.0629031 0)
(-0.0781736 -0.0598338 0)
(-0.0806654 -0.0566569 0)
(-0.0830856 -0.053362 0)
(-0.085392 -0.0499477 0)
(-0.0875604 -0.0464175 0)
(-0.0895762 -0.0427772 0)
(-0.0914296 -0.0390339 0)
(-0.0931138 -0.0351957 0)
(-0.0946233 -0.0312708 0)
(-0.0959536 -0.0272682 0)
(-0.0971012 -0.0231969 0)
(-0.0980633 -0.0190662 0)
(-0.0988365 -0.0148856 0)
(-0.0994148 -0.0106647 0)
(-0.0997926 -0.00641342 0)
(-0.099987 -0.00214149 0)
(0.0999813 -0.00305222 0)
(0.0996994 -0.00912453 0)
(0.0991421 -0.0151474 0)
(0.0982928 -0.0211039 0)
(0.0971651 -0.0269778 0)
(0.0957722 -0.0327535 0)
(0.0941263 -0.038417 0)
(0.092243 -0.0439559 0)
(0.0901437 -0.0493601 0)
(0.0878571 -0.0546234 0)
(0.0854207 -0.059744 0)
(0.0828819 -0.0647269 0)
(0.0802989 -0.0695849 0)
(0.077738 -0.0743405 0)
(0.0752693 -0.079026 0)
(0.0729573 -0.0836814 0)
(0.0708486 -0.0883508 0)
(0.0689583 -0.0930751 0)
(0.0672603 -0.0978848 0)
(0.0656851 -0.102794 0)
(0.0641277 -0.107796 0)
(0.0624636 -0.11287 0)
(0.0605669 -0.117978 0)
(0.0583267 -0.123078 0)
(0.0556562 -0.128125 0)
(0.0524958 -0.133073 0)
(0.0488114 -0.137884 0)
(0.0445896 -0.14252 0)
(0.0398325 -0.146953 0)
(0.0345529 -0.151157 0)
(0.02877 -0.155113 0)
(0.0225067 -0.158805 0)
(0.0157877 -0.162222 0)
(0.0086383 -0.165358 0)
(0.00108406 -0.168208 0)
(-0.00685002 -0.170772 0)
(-0.0151407 -0.173051 0)
(-0.0237662 -0.175048 0)
(-0.0327062 -0.176767 0)
(-0.0419406 -0.178214 0)
(-0.0514498 -0.179396 0)
(-0.0612145 -0.18032 0)
(-0.0712153 -0.180993 0)
(-0.0814325 -0.181424 0)
(-0.0918457 -0.181621 0)
(-0.102434 -0.181591 0)
(-0.113174 -0.181342 0)
(-0.124042 -0.180882 0)
(-0.135011 -0.180218 0)
(-0.146053 -0.179356 0)
(-0.157135 -0.178302 0)
(-0.168221 -0.177062 0)
(-0.17927 -0.17564 0)
(-0.190233 -0.174039 0)
(-0.201052 -0.172264 0)
(-0.211637 -0.170314 0)
(-0.221877 -0.168192 0)
(-0.231734 -0.165896 0)
(-0.241287 -0.163437 0)
(-0.250298 -0.160824 0)
(-0.25614 -0.158116 0)
(-0.255354 -0.154773 0)
(-0.247897 -0.150873 0)
(-0.237579 -0.146645 0)
(-0.226372 -0.142149 0)
(-0.214523 -0.137387 0)
(-0.202046 -0.132374 0)
(-0.189051 -0.127134 0)
(-0.175697 -0.121697 0)
(-0.162146 -0.116101 0)
(-0.148559 -0.110391 0)
(-0.135095 -0.104622 0)
(-0.121968 -0.0988578 0)
(-0.109505 -0.0931851 0)
(-0.0981341 -0.0877094 0)
(-0.0883185 -0.0825512 0)
(-0.0804766 -0.077829 0)
(-0.0748818 -0.0736286 0)
(-0.0715595 -0.0699653 0)
(-0.070257 -0.0667665 0)
(-0.070527 -0.0638955 0)
(-0.071873 -0.0612024 0)
(-0.0738654 -0.0585649 0)
(-0.0761886 -0.0559015 0)
(-0.0786351 -0.0531656 0)
(-0.0810793 -0.0503348 0)
(-0.0834502 -0.0474003 0)
(-0.085708 -0.0443613 0)
(-0.0878299 -0.0412207 0)
(-0.0898021 -0.0379838 0)
(-0.0916154 -0.0346566 0)
(-0.093263 -0.0312461 0)
(-0.0947397 -0.0277596 0)
(-0.0960412 -0.0242049 0)
(-0.097164 -0.0205898 0)
(-0.0981053 -0.0169225 0)