/*--------------------------------*- C++ -*----------------------------------*\
  =========                 |
  \\      /  F ield         | OpenFOAM: The Open Source CFD Toolbox
   \\    /   O peration     | Website:  https://openfoam.org
    \\  /    A nd           | Version:  8
     \\/     M anipulation  |
\*---------------------------------------------------------------------------*/
FoamFile
{
    version     2.0;
    format      ascii;
    class       volScalarField;
    location    "520/fluid";
    object      CH4;
}
// * * * * * * * * * * * * * * * * * * * * * * * * * * * * * * * * * * * * * //

dimensions      [0 0 0 0 0 0 0];

internalField   nonuniform List<scalar> 
4000
(
0.999997
0.999987
0.999969
0.99994
0.999891
0.999811
0.999678
0.999461
0.999109
0.998549
0.997665
0.996295
0.994213
0.991116
0.98663
0.980316
0.971714
0.960393
0.946019
0.9284
0.907512
0.88349
0.856596
0.827183
0.795654
0.762433
0.727945
0.692598
0.656773
0.620818
0.585046
0.549729
0.515099
0.481349
0.448635
0.417079
0.386776
0.357795
0.330175
0.303939
0.279089
0.255613
0.233486
0.212674
0.193134
0.174822
0.157685
0.141672
0.126726
0.112793
0.0998186
0.0877508
0.0765389
0.0661351
0.0564952
0.0475788
0.03935
0.0318374
0.025074
0.0187403
0.0130173
0.00790673
0.00348576
0.00243968
0.00168701
0.00115032
0.000771892
0.000508613
0.000328336
0.000207209
0.000127684
7.70103e-05
4.61013e-05
2.87758e-05
2.06837e-05
1.58431e-05
1.17666e-05
8.29105e-06
5.4837e-06
3.37782e-06
1.93322e-06
1.03265e-06
5.19554e-07
2.50205e-07
1.16894e-07
5.33089e-08
2.38375e-08
1.04865e-08
4.55031e-09
1.95171e-09
8.28913e-10
3.49104e-10
1.45961e-10
6.06192e-11
2.4996e-11
1.02032e-11
4.08506e-12
1.56177e-12
5.22094e-13
9.15708e-14
0.999997
0.999986
0.999969
0.99994
0.99989
0.999809
0.999675
0.999455
0.999101
0.998535
0.997646
0.996271
0.994189
0.991102
0.986645
0.980391
0.971888
0.960713
0.94653
0.929139
0.908498
0.884724
0.85806
0.828843
0.797465
0.764348
0.729912
0.694571
0.658709
0.622682
0.586809
0.551369
0.5166
0.482702
0.449834
0.418124
0.38767
0.358541
0.330783
0.304416
0.279445
0.255858
0.23363
0.212724
0.193105
0.174722
0.157525
0.141458
0.126466
0.112495
0.0994891
0.0873954
0.0761629
0.0657438
0.0560936
0.047172
0.0389441
0.0314646
0.0247138
0.0183943
0.0126977
0.00764947
0.00335044
0.00234952
0.0016261
0.00110871
0.000743294
0.000488945
0.000314887
0.000198138
0.000121713
7.32451e-05
4.39247e-05
2.77913e-05
2.03301e-05
1.55026e-05
1.1393e-05
7.93303e-06
5.18377e-06
3.15965e-06
1.79639e-06
9.58466e-07
4.844e-07
2.34952e-07
1.10728e-07
5.09589e-08
2.29845e-08
1.01884e-08
4.44873e-09
1.91733e-09
8.17086e-10
3.44855e-10
1.44334e-10
5.99542e-11
2.47106e-11
1.00783e-11
4.0311e-12
1.53969e-12
5.14324e-13
9.01961e-14
0.999997
0.999986
0.999969
0.999939
0.99989
0.999807
0.999672
0.999451
0.999094
0.998525
0.997633
0.996256
0.994172
0.99109
0.986649
0.980432
0.971995
0.960923
0.946883
0.929672
0.909242
0.885697
0.859266
0.830269
0.799087
0.766127
0.731808
0.696536
0.660698
0.624652
0.588721
0.553189
0.518301
0.484262
0.451238
0.419362
0.388736
0.359435
0.331507
0.304977
0.279849
0.256111
0.233742
0.212715
0.192983
0.174499
0.157211
0.141065
0.126005
0.111975
0.0989195
0.0867848
0.0755194
0.0650745
0.0554051
0.0464704
0.0382348
0.0307683
0.0240292
0.0177234
0.0120529
0.00702816
0.00321721
0.00225283
0.00155563
0.00105753
0.000706455
0.000462805
0.000296697
0.000185802
0.000113641
6.82518e-05
4.11598e-05
2.66815e-05
1.98884e-05
1.50745e-05
1.09637e-05
7.55189e-06
4.88527e-06
2.95419e-06
1.67175e-06
8.90962e-07
4.51145e-07
2.19533e-07
1.03901e-07
4.80454e-08
2.17777e-08
9.70021e-09
4.25459e-09
1.84095e-09
7.87166e-10
3.33113e-10
1.39694e-10
5.81022e-11
2.39645e-11
9.7764e-12
3.90999e-12
1.493e-12
4.98532e-13
8.74049e-14
0.999997
0.999986
0.999969
0.999939
0.999889
0.999807
0.999671
0.999449
0.999092
0.998523
0.997632
0.996259
0.994185
0.991123
0.986716
0.980549
0.972186
0.961214
0.947299
0.930237
0.909974
0.886603
0.860345
0.831513
0.800477
0.767639
0.733412
0.698199
0.662386
0.626331
0.590357
0.554752
0.519765
0.485606
0.452445
0.420419
0.389635
0.360173
0.332081
0.305387
0.280098
0.256213
0.233712
0.212556
0.192707
0.174117
0.156734
0.140504
0.125371
0.111278
0.0981702
0.0859923
0.0746924
0.0642211
0.0545329
0.0455865
0.0373457
0.0298917
0.0231675
0.0168852
0.0112452
0.00624054
0.00316213
0.00219597
0.00150478
0.00101553
0.00067361
0.000438231
0.000279037
0.000173621
0.000105636
6.33451e-05
3.85456e-05
2.57809e-05
1.94405e-05
1.46033e-05
1.04968e-05
7.14203e-06
4.56565e-06
2.7329e-06
1.5352e-06
8.14923e-07
4.12278e-07
2.00902e-07
9.5338e-08
4.4236e-08
2.01268e-08
9.00013e-09
3.96299e-09
1.72123e-09
7.38545e-10
3.13519e-10
1.31837e-10
5.49606e-11
2.27113e-11
9.27877e-12
3.715e-12
1.41957e-12
4.74169e-13
8.31473e-14
0.999997
0.999986
0.999969
0.999939
0.999889
0.999806
0.99967
0.999449
0.999092
0.998524
0.997636
0.996267
0.994203
0.991157
0.986776
0.98065
0.972346
0.961453
0.947639
0.930696
0.910565
0.887334
0.861214
0.832512
0.80159
0.768848
0.734691
0.699521
0.663723
0.627654
0.59164
0.555971
0.520897
0.486632
0.45335
0.421191
0.390267
0.360656
0.332412
0.305572
0.28015
0.256135
0.233506
0.212233
0.192275
0.173587
0.156116
0.139809
0.124609
0.11046
0.0973051
0.0850899
0.0737616
0.0632701
0.0535692
0.0446168
0.0363771
0.0289619
0.0222725
0.0160111
0.0103817
0.00542313
0.00311124
0.0021432
0.00145639
0.000974754
0.000641366
0.000414014
0.000261665
0.000161711
9.78782e-05
5.86446e-05
3.6114e-05
2.50478e-05
1.89368e-05
1.40777e-05
1.00052e-05
6.73256e-06
4.26054e-06
2.52959e-06
1.41338e-06
7.48416e-07
3.78624e-07
1.84801e-07
8.79091e-08
4.0902e-08
1.86628e-08
8.36839e-09
3.69424e-09
1.60822e-09
6.91471e-10
2.94058e-10
1.2384e-10
5.16913e-11
2.13818e-11
8.74232e-12
3.50214e-12
1.33866e-12
4.47171e-13
7.84131e-14
0.999997
0.999986
0.999969
0.999939
0.999889
0.999807
0.999671
0.99945
0.999095
0.998529
0.997644
0.996283
0.99423
0.991202
0.986847
0.98076
0.972508
0.961682
0.947949
0.931099
0.911068
0.88794
0.86192
0.83331
0.802468
0.769789
0.735676
0.700529
0.664731
0.62864
0.592583
0.556851
0.521697
0.487337
0.453947
0.421668
0.390615
0.360875
0.332511
0.305552
0.280009
0.255877
0.233138
0.211763
0.191711
0.172938
0.155393
0.139021
0.123766
0.109571
0.0963805
0.0841384
0.0727919
0.0622907
0.052588
0.0436413
0.0354277
0.0280604
0.0213832
0.015126
0.00952272
0.00464255
0.00304996
0.0020703
0.00139108
0.00092263
0.000602434
0.000386275
0.000242672
0.000149204
8.99992e-05
5.39748e-05
3.36756e-05
2.39847e-05
1.81961e-05
1.34461e-05
9.48471e-06
6.33087e-06
3.97493e-06
2.34425e-06
1.30354e-06
6.88358e-07
3.47902e-07
1.69914e-07
8.09367e-08
3.77249e-08
1.72478e-08
7.75019e-09
3.42856e-09
1.49561e-09
6.44286e-10
2.74471e-10
1.15771e-10
4.83884e-11
2.0038e-11
8.20014e-12
3.28705e-12
1.25692e-12
4.19901e-13
7.36312e-14
0.999997
0.999986
0.999969
0.999939
0.999889
0.999807
0.999672
0.999452
0.999098
0.998535
0.997654
0.996299
0.994256
0.991243
0.986912
0.980857
0.972649
0.961877
0.948209
0.931431
0.911478
0.888427
0.86248
0.833935
0.803147
0.770506
0.736416
0.701274
0.665463
0.629342
0.593238
0.557444
0.522213
0.487763
0.454272
0.421888
0.390732
0.36089
0.332419
0.305352
0.279704
0.255473
0.232642
0.211181
0.191052
0.172211
0.154605
0.138182
0.122885
0.108657
0.0954422
0.0831846
0.071831
0.061331
0.0516378
0.042709
0.034505
0.0271906
0.0205214
0.0142958
0.00872822
0.00390064
0.00271307
0.00186209
0.0012598
0.000838935
0.000548922
0.000352226
0.000221271
0.00013603
8.21552e-05
4.9574e-05
3.15281e-05
2.30066e-05
1.74917e-05
1.28752e-05
9.03344e-06
5.99251e-06
3.7391e-06
2.19328e-06
1.21477e-06
6.39949e-07
3.23087e-07
1.57821e-07
7.52245e-08
3.50941e-08
1.60617e-08
7.22523e-09
3.19994e-09
1.39743e-09
6.02639e-10
2.56988e-10
1.08497e-10
4.53851e-11
1.88073e-11
7.70067e-12
3.08797e-12
1.181e-12
3.94511e-13
6.91734e-14
0.999997
0.999986
0.999969
0.999939
0.99989
0.999808
0.999673
0.999454
0.999101
0.99854
0.997663
0.996314
0.994281
0.991283
0.986972
0.980944
0.972771
0.962044
0.948426
0.931704
0.911808
0.888812
0.862916
0.834413
0.803657
0.771036
0.736952
0.701802
0.665969
0.629811
0.593658
0.557799
0.522494
0.487961
0.454387
0.421919
0.390672
0.360736
0.332171
0.305012
0.279278
0.254965
0.232058
0.210528
0.190337
0.171442
0.15379
0.137329
0.122002
0.107753
0.0945238
0.0822603
0.0709087
0.0604187
0.0507435
0.041841
0.0336968
0.0264707
0.0196949
0.013586
0.00815425
0.00351195
0.00245225
0.00168953
0.00114684
0.000765716
0.000501996
0.00032257
0.000202872
0.000124908
7.57026e-05
4.61173e-05
3.00258e-05
2.23619e-05
1.70123e-05
1.24739e-05
8.70729e-06
5.74246e-06
3.56132e-06
2.07746e-06
1.14555e-06
6.01573e-07
3.03083e-07
1.47928e-07
7.04857e-08
3.28838e-08
1.5054e-08
6.77484e-09
3.00212e-09
1.31188e-09
5.66126e-10
2.41583e-10
1.02061e-10
4.27189e-11
1.77118e-11
7.25515e-12
2.9101e-12
1.11307e-12
3.71775e-13
6.51791e-14
0.999997
0.999986
0.999969
0.999939
0.99989
0.999808
0.999674
0.999456
0.999104
0.998546
0.997672
0.996329
0.994303
0.991317
0.987023
0.981018
0.972874
0.962181
0.948602
0.931922
0.912067
0.88911
0.863248
0.834771
0.804031
0.771416
0.737326
0.702158
0.666295
0.630096
0.593889
0.55797
0.522599
0.487999
0.454351
0.421803
0.390475
0.360458
0.331813
0.304579
0.278772
0.254393
0.231425
0.20984
0.189601
0.170665
0.152979
0.136491
0.121145
0.106882
0.0936477
0.0813852
0.0700416
0.0595669
0.0499149
0.0410448
0.0329736
0.0257829
0.0190432
0.0130001
0.00766524
0.00329464
0.00229976
0.00158416
0.00107521
0.000717879
0.000470641
0.000302446
0.000190282
0.0001173
7.13637e-05
4.39466e-05
2.93361e-05
2.21469e-05
1.68249e-05
1.22807e-05
8.51969e-06
5.58089e-06
3.43817e-06
1.99354e-06
1.09383e-06
5.72253e-07
2.87519e-07
1.40116e-07
6.66951e-08
3.10948e-08
1.42296e-08
6.40279e-09
2.83729e-09
1.24003e-09
5.35253e-10
2.2848e-10
9.65587e-11
4.04301e-11
1.67681e-11
6.87031e-12
2.75612e-12
1.05418e-12
3.52046e-13
6.17072e-14
0.999997
0.999986
0.999969
0.999939
0.99989
0.999809
0.999675
0.999458
0.999107
0.998551
0.99768
0.996341
0.994323
0.991347
0.987066
0.98108
0.972958
0.962292
0.948743
0.932093
0.912267
0.889336
0.863494
0.83503
0.804295
0.771675
0.73757
0.702378
0.666481
0.630238
0.593982
0.558011
0.522582
0.487917
0.4542
0.421582
0.390184
0.360098
0.331387
0.30409
0.278225
0.253792
0.230775
0.209148
0.188873
0.169906
0.152196
0.13569
0.120332
0.106063
0.0928279
0.0805699
0.0692356
0.0587742
0.049139
0.0402876
0.0322553
0.025102
0.0183893
0.0123655
0.00703427
0.00320675
0.00223201
0.00153401
0.00103927
0.000692855
0.000453703
0.000291322
0.000183233
0.000113051
6.90212e-05
4.29222e-05
2.92433e-05
2.22495e-05
1.68451e-05
1.22347e-05
8.43999e-06
5.48938e-06
3.35785e-06
1.93447e-06
1.05574e-06
5.49991e-07
2.75435e-07
1.33955e-07
6.36666e-08
2.96501e-08
1.35578e-08
6.09729e-09
2.70105e-09
1.18031e-09
5.0947e-10
2.17493e-10
9.19297e-11
3.84991e-11
1.59702e-11
6.54434e-12
2.62553e-12
1.00418e-12
3.35292e-13
5.87538e-14
0.999997
0.999987
0.999969
0.99994
0.999891
0.99981
0.999676
0.999459
0.99911
0.998555
0.997687
0.996352
0.994339
0.991371
0.987102
0.98113
0.973025
0.962379
0.948852
0.932223
0.912417
0.889502
0.86367
0.83521
0.804471
0.77184
0.737715
0.702494
0.666562
0.630281
0.59398
0.557957
0.522473
0.487749
0.453972
0.421293
0.389836
0.359692
0.330927
0.303579
0.277667
0.253191
0.230137
0.208477
0.188175
0.169186
0.15146
0.134943
0.119579
0.105309
0.0920769
0.0798265
0.0685037
0.0580572
0.0484399
0.0396091
0.0316071
0.0244848
0.0178037
0.0118076
0.00650148
0.00317317
0.00220421
0.00151238
0.00102324
0.000681434
0.000445874
0.00028617
0.000180013
0.000111198
6.81374e-05
4.27567e-05
2.97061e-05
2.26703e-05
1.70754e-05
1.23206e-05
8.43838e-06
5.45077e-06
3.30969e-06
1.89442e-06
1.02828e-06
5.33364e-07
2.66194e-07
1.29169e-07
6.12844e-08
2.85021e-08
1.30194e-08
5.85065e-09
2.59038e-09
1.13155e-09
4.8832e-10
2.08447e-10
8.81064e-11
3.69003e-11
1.53084e-11
6.27358e-12
2.51696e-12
9.62589e-13
3.2136e-13
5.63e-14
0.999997
0.999987
0.999969
0.99994
0.999891
0.99981
0.999677
0.99946
0.999112
0.998558
0.997692
0.996361
0.994353
0.991391
0.98713
0.981169
0.973078
0.962446
0.948934
0.93232
0.912526
0.889619
0.863791
0.835328
0.80458
0.771933
0.737785
0.702537
0.666573
0.630253
0.593908
0.557838
0.522303
0.487528
0.453699
0.420969
0.389462
0.359271
0.33046
0.30307
0.277121
0.252612
0.229528
0.207845
0.187523
0.16852
0.150784
0.134261
0.118895
0.104628
0.0914021
0.0791617
0.0678522
0.0574221
0.0478237
0.0390159
0.0310475
0.0239488
0.0172855
0.0113131
0.00603433
0.00314743
0.00218702
0.00150091
0.00101568
0.000676574
0.000442855
0.000284385
0.000179047
0.000110792
6.81548e-05
4.31679e-05
3.05421e-05
2.32912e-05
1.74365e-05
1.24958e-05
8.49679e-06
5.4479e-06
3.28586e-06
1.86882e-06
1.00913e-06
5.21232e-07
2.59265e-07
1.25516e-07
5.94421e-08
2.7605e-08
1.25951e-08
5.65499e-09
2.50208e-09
1.09245e-09
4.71292e-10
2.01138e-10
8.50084e-11
3.56016e-11
1.47697e-11
6.05297e-12
2.42849e-12
9.28745e-13
3.10058e-13
5.43148e-14
0.999997
0.999987
0.999969
0.99994
0.999891
0.99981
0.999678
0.999462
0.999114
0.998561
0.997697
0.996368
0.994363
0.991407
0.987153
0.981199
0.973118
0.962497
0.948995
0.93239
0.912603
0.889699
0.863869
0.8354
0.80464
0.771974
0.737805
0.70253
0.666533
0.630176
0.593792
0.557679
0.5221
0.487281
0.453408
0.420635
0.389086
0.358855
0.330008
0.302585
0.276606
0.252071
0.228966
0.207265
0.18693
0.167917
0.150175
0.13365
0.118286
0.104024
0.0908067
0.0785776
0.067282
0.0568686
0.0472913
0.0385068
0.0305642
0.0234837
0.0168433
0.0108944
0.00564684
0.00312576
0.00217475
0.00149432
0.00101244
0.000675223
0.00044251
0.000284549
0.000179455
0.000111315
6.87539e-05
4.38653e-05
3.13653e-05
2.39215e-05
1.7828e-05
1.27062e-05
8.58711e-06
5.47071e-06
3.27949e-06
1.85519e-06
9.96846e-07
5.12864e-07
2.54299e-07
1.22838e-07
5.80685e-08
2.69275e-08
1.22713e-08
5.50435e-09
2.43361e-09
1.06194e-09
4.57939e-10
1.95381e-10
8.2559e-11
3.45717e-11
1.43415e-11
5.87725e-12
2.35792e-12
9.01732e-13
3.01035e-13
5.27307e-14
0.999997
0.999987
0.999969
0.99994
0.999891
0.999811
0.999678
0.999462
0.999115
0.998564
0.997701
0.996373
0.994372
0.991419
0.98717
0.981223
0.973148
0.962534
0.949039
0.932439
0.912655
0.88975
0.863916
0.835438
0.804664
0.771982
0.737791
0.702489
0.666462
0.630072
0.593652
0.557503
0.521887
0.487029
0.453119
0.42031
0.388727
0.358464
0.329588
0.302139
0.276137
0.251582
0.228461
0.206747
0.186403
0.167384
0.14964
0.133116
0.117755
0.1035
0.0902914
0.0780734
0.0667916
0.0563958
0.0468359
0.0380644
0.0301473
0.0230888
0.0164689
0.0105396
0.00533094
0.00310778
0.00216622
0.00149119
0.00101217
0.00067631
0.000444098
0.000286179
0.000180923
0.000112569
6.98313e-05
4.48539e-05
3.23285e-05
2.46308e-05
1.82785e-05
1.29618e-05
8.71134e-06
5.51782e-06
3.28914e-06
1.85152e-06
9.90869e-07
5.07912e-07
2.51067e-07
1.21017e-07
5.71065e-08
2.64421e-08
1.20353e-08
5.39303e-09
2.38243e-09
1.03894e-09
4.47792e-10
1.9098e-10
8.06773e-11
3.37772e-11
1.401e-11
5.74089e-12
2.30306e-12
8.80707e-13
2.94004e-13
5.14992e-14
0.999997
0.999987
0.999969
0.99994
0.999891
0.999811
0.999679
0.999463
0.999116
0.998565
0.997703
0.996378
0.994378
0.991428
0.987182
0.98124
0.97317
0.962561
0.94907
0.932473
0.912688
0.889781
0.863941
0.835453
0.804666
0.771967
0.737755
0.702429
0.666376
0.629957
0.593507
0.557326
0.521678
0.486789
0.452849
0.42001
0.388399
0.358111
0.329212
0.301742
0.275722
0.251153
0.22802
0.206297
0.185947
0.166926
0.149181
0.13266
0.117304
0.103055
0.0898564
0.0776512
0.0663842
0.0560013
0.0464526
0.037697
0.0298032
0.0227629
0.016161
0.0102503
0.00507682
0.00309321
0.00216094
0.00149096
0.00101438
0.000679427
0.000447276
0.000289012
0.000183268
0.000114439
7.13215e-05
4.61013e-05
3.34284e-05
2.54261e-05
1.87923e-05
1.32639e-05
8.86908e-06
5.58817e-06
3.31406e-06
1.85684e-06
9.89824e-07
5.0583e-07
2.49336e-07
1.19943e-07
5.64993e-08
2.61212e-08
1.18741e-08
5.31513e-09
2.34597e-09
1.02231e-09
4.40378e-10
1.87735e-10
7.92801e-11
3.3184e-11
1.37615e-11
5.63829e-12
2.26168e-12
8.6485e-13
2.88698e-13
5.05692e-14
0.999997
0.999987
0.999969
0.99994
0.999892
0.999811
0.999679
0.999464
0.999117
0.998567
0.997706
0.996381
0.994383
0.991435
0.987192
0.981252
0.973185
0.962579
0.94909
0.932494
0.912709
0.889798
0.863951
0.835454
0.804655
0.77194
0.737709
0.702363
0.666287
0.629844
0.593369
0.557162
0.521488
0.486574
0.452609
0.419747
0.388114
0.357806
0.328889
0.301403
0.27537
0.25079
0.227649
0.20592
0.185567
0.166544
0.148801
0.132282
0.116932
0.102692
0.0895034
0.0773086
0.0660506
0.0556772
0.0461418
0.0374002
0.0295223
0.0224959
0.0159052
0.0100023
0.00484646
0.00308172
0.00215859
0.00149332
0.00101878
0.000684319
0.000451845
0.000292899
0.000186387
0.000116857
7.31832e-05
4.7585e-05
3.46505e-05
2.62994e-05
1.93623e-05
1.36066e-05
9.05549e-06
5.67812e-06
3.35174e-06
1.87002e-06
9.93152e-07
5.05917e-07
2.48766e-07
1.19421e-07
5.61612e-08
2.59279e-08
1.17717e-08
5.26384e-09
2.32133e-09
1.01086e-09
4.35197e-10
1.85442e-10
7.82841e-11
3.27583e-11
1.35822e-11
5.56411e-12
2.23178e-12
8.5337e-13
2.84855e-13
4.98947e-14
0.999997
0.999987
0.999969
0.99994
0.999892
0.999811
0.999679
0.999464
0.999118
0.998568
0.997707
0.996383
0.994386
0.99144
0.987198
0.981261
0.973196
0.962592
0.949104
0.932507
0.91272
0.889806
0.863953
0.835447
0.804637
0.771909
0.737664
0.7023
0.666206
0.629744
0.593248
0.557021
0.521327
0.486393
0.452408
0.419528
0.387879
0.357555
0.328625
0.301128
0.275085
0.250497
0.227351
0.205618
0.185263
0.16624
0.148499
0.131985
0.116641
0.102407
0.0892244
0.0770354
0.0657861
0.0554237
0.0458997
0.0371697
0.0293075
0.0222926
0.0157123
0.00981883
0.00468245
0.00307296
0.00215878
0.00149793
0.00102508
0.000690755
0.000457626
0.000297706
0.00019018
0.000119749
7.53606e-05
4.92569e-05
3.59607e-05
2.72254e-05
1.99689e-05
1.39754e-05
9.26071e-06
5.78131e-06
3.39825e-06
1.88869e-06
9.99703e-07
5.07782e-07
2.49056e-07
1.19332e-07
5.60276e-08
2.58323e-08
1.17155e-08
5.23368e-09
2.30614e-09
1.00357e-09
4.3182e-10
1.83923e-10
7.76172e-11
3.24717e-11
1.34613e-11
5.51403e-12
2.21151e-12
8.45566e-13
2.82237e-13
4.94349e-14
0.999997
0.999987
0.999969
0.99994
0.999892
0.999811
0.999679
0.999464
0.999118
0.998568
0.997708
0.996385
0.994389
0.991443
0.987203
0.981266
0.973203
0.9626
0.949112
0.932515
0.912726
0.889808
0.863951
0.835438
0.80462
0.771881
0.737624
0.702248
0.66614
0.629663
0.593152
0.55691
0.521201
0.486252
0.452254
0.41936
0.387699
0.357365
0.328424
0.30092
0.27487
0.250277
0.227127
0.205393
0.185037
0.166015
0.148277
0.131765
0.116424
0.102194
0.0890164
0.0768349
0.0655936
0.0552398
0.0457248
0.0370039
0.0291543
0.0221482
0.0155755
0.00968801
0.00456342
0.00306681
0.00216129
0.00150451
0.00103298
0.000698443
0.000464361
0.00030322
0.000194481
0.000122988
7.77528e-05
5.10295e-05
3.72925e-05
2.81528e-05
2.05737e-05
1.43435e-05
9.4674e-06
5.88736e-06
3.44775e-06
1.9097e-06
1.00781e-06
5.10582e-07
2.49893e-07
1.19529e-07
5.60392e-08
2.58063e-08
1.16919e-08
5.21893e-09
2.29815e-09
9.9956e-10
4.29915e-10
1.83051e-10
7.72287e-11
3.23023e-11
1.33888e-11
5.48358e-12
2.19906e-12
8.4074e-13
2.80611e-13
4.91486e-14
0.999997
0.999987
0.999969
0.99994
0.999892
0.999811
0.999679
0.999464
0.999118
0.998569
0.997709
0.996386
0.99439
0.991445
0.987206
0.98127
0.973207
0.962604
0.949117
0.932519
0.912729
0.889809
0.863947
0.83543
0.804606
0.77186
0.737595
0.702211
0.666093
0.629606
0.593086
0.556834
0.521115
0.486157
0.452149
0.419248
0.387578
0.357237
0.328291
0.300781
0.274728
0.250132
0.22698
0.205244
0.184888
0.165867
0.148129
0.131619
0.11628
0.102054
0.0888818
0.0767056
0.0654702
0.0551227
0.0456141
0.0368999
0.0290589
0.0220587
0.0154904
0.00960551
0.00448587
0.00306292
0.00216559
0.00151238
0.00104175
0.000706703
0.00047145
0.000308942
0.000198894
0.000126275
8.01419e-05
5.2746e-05
3.85196e-05
2.89837e-05
2.11056e-05
1.46635e-05
9.64612e-06
5.97929e-06
3.49118e-06
1.92853e-06
1.0153e-06
5.13312e-07
2.50866e-07
1.19849e-07
5.61309e-08
2.58255e-08
1.16918e-08
5.21563e-09
2.29551e-09
9.97981e-10
4.29083e-10
1.82644e-10
7.70388e-11
3.22166e-11
1.33512e-11
5.46749e-12
2.19239e-12
8.38124e-13
2.79723e-13
4.8992e-14
0.999997
0.999987
0.999969
0.99994
0.999892
0.999811
0.999679
0.999465
0.999119
0.998569
0.997709
0.996386
0.994391
0.991446
0.987207
0.981272
0.973209
0.962607
0.949119
0.932521
0.91273
0.889808
0.863945
0.835426
0.804598
0.77185
0.737581
0.702192
0.666069
0.629578
0.593053
0.556796
0.521072
0.486109
0.452097
0.419191
0.387518
0.357174
0.328225
0.300713
0.274657
0.25006
0.226906
0.20517
0.184814
0.165793
0.148056
0.131548
0.116211
0.101987
0.0888174
0.0766442
0.065412
0.0550681
0.0455632
0.0368526
0.0290164
0.0220192
0.0154529
0.009568
0.00444786
0.00306105
0.00217037
0.00151965
0.00104935
0.000713575
0.000477195
0.000313493
0.000202355
0.000128821
8.19621e-05
5.40079e-05
3.93565e-05
2.95199e-05
2.14355e-05
1.4856e-05
9.75131e-06
6.03263e-06
3.51622e-06
1.93942e-06
1.01968e-06
5.14941e-07
2.51472e-07
1.20062e-07
5.62004e-08
2.58457e-08
1.16963e-08
5.21591e-09
2.29499e-09
9.97522e-10
4.28802e-10
1.82495e-10
7.69659e-11
3.21827e-11
1.3336e-11
5.46084e-12
2.1896e-12
8.37018e-13
2.79346e-13
4.89252e-14
0.999997
0.999987
0.999969
0.99994
0.999892
0.999811
0.999679
0.999465
0.999119
0.998569
0.997709
0.996386
0.994391
0.991446
0.987207
0.981272
0.973209
0.962606
0.949119
0.932521
0.91273
0.889808
0.863945
0.835425
0.804598
0.771849
0.73758
0.702191
0.666069
0.629577
0.593052
0.556795
0.521071
0.486108
0.452096
0.419191
0.387518
0.357174
0.328224
0.300712
0.274656
0.250059
0.226906
0.20517
0.184814
0.165793
0.148056
0.131547
0.116211
0.101987
0.0888172
0.076644
0.0654118
0.0550679
0.045563
0.0368524
0.0290162
0.0220191
0.0154528
0.0095679
0.00444778
0.00306105
0.00217037
0.00151965
0.00104935
0.000713574
0.000477195
0.000313493
0.000202354
0.000128821
8.19619e-05
5.40078e-05
3.93565e-05
2.95199e-05
2.14355e-05
1.4856e-05
9.7513e-06
6.03263e-06
3.51621e-06
1.93941e-06
1.01968e-06
5.1494e-07
2.51471e-07
1.20061e-07
5.62003e-08
2.58456e-08
1.16963e-08
5.21589e-09
2.29498e-09
9.97517e-10
4.288e-10
1.82494e-10
7.69655e-11
3.21825e-11
1.33359e-11
5.46081e-12
2.18958e-12
8.37013e-13
2.79344e-13
4.89249e-14
0.999997
0.999987
0.999969
0.99994
0.999892
0.999811
0.999679
0.999464
0.999118
0.998569
0.997709
0.996386
0.99439
0.991445
0.987205
0.98127
0.973207
0.962604
0.949116
0.932519
0.912728
0.889807
0.863946
0.835428
0.804604
0.771859
0.737593
0.702209
0.666091
0.629604
0.593084
0.556832
0.521113
0.486155
0.452147
0.419246
0.387577
0.357236
0.328289
0.30078
0.274726
0.25013
0.226978
0.205243
0.184887
0.165866
0.148128
0.131618
0.11628
0.102053
0.0888811
0.076705
0.0654696
0.0551221
0.0456136
0.0368994
0.0290585
0.0220583
0.0154901
0.00960524
0.00448564
0.00306292
0.00216559
0.00151238
0.00104175
0.000706702
0.000471449
0.000308941
0.000198893
0.000126274
8.01414e-05
5.27458e-05
3.85196e-05
2.89837e-05
2.11056e-05
1.46634e-05
9.6461e-06
5.97927e-06
3.49116e-06
1.92852e-06
1.01529e-06
5.13307e-07
2.50863e-07
1.19847e-07
5.61302e-08
2.58252e-08
1.16916e-08
5.21555e-09
2.29547e-09
9.97964e-10
4.29076e-10
1.8264e-10
7.70373e-11
3.2216e-11
1.3351e-11
5.46738e-12
2.19235e-12
8.38107e-13
2.79718e-13
4.8991e-14
0.999997
0.999987
0.999969
0.99994
0.999892
0.999811
0.999679
0.999464
0.999118
0.998568
0.997708
0.996385
0.994389
0.991443
0.987203
0.981266
0.973202
0.962598
0.949111
0.932514
0.912724
0.889806
0.863948
0.835435
0.804616
0.771878
0.737621
0.702245
0.666136
0.629659
0.593149
0.556906
0.521197
0.486249
0.45225
0.419357
0.387696
0.357362
0.328422
0.300917
0.274867
0.250275
0.227125
0.205391
0.185035
0.166014
0.148275
0.131764
0.116423
0.102192
0.0890152
0.0768338
0.0655926
0.0552389
0.0457239
0.0370032
0.0291537
0.0221476
0.0155749
0.00968754
0.00456302
0.00306681
0.00216129
0.00150451
0.00103298
0.000698441
0.00046436
0.000303219
0.00019448
0.000122987
7.77523e-05
5.10293e-05
3.72926e-05
2.81529e-05
2.05737e-05
1.43435e-05
9.46739e-06
5.88733e-06
3.44772e-06
1.90968e-06
1.00779e-06
5.10574e-07
2.49888e-07
1.19527e-07
5.6038e-08
2.58056e-08
1.16916e-08
5.21879e-09
2.29808e-09
9.9953e-10
4.29901e-10
1.83045e-10
7.72261e-11
3.23011e-11
1.33884e-11
5.48338e-12
2.19899e-12
8.40709e-13
2.806e-13
4.91468e-14
0.999997
0.999987
0.999969
0.99994
0.999892
0.999811
0.999679
0.999464
0.999118
0.998568
0.997707
0.996383
0.994386
0.991439
0.987198
0.98126
0.973195
0.96259
0.949102
0.932505
0.912717
0.889802
0.863949
0.835443
0.804633
0.771905
0.737659
0.702296
0.666201
0.629738
0.593243
0.557016
0.521322
0.486388
0.452403
0.419524
0.387874
0.357551
0.328621
0.301124
0.275081
0.250494
0.227347
0.205615
0.18526
0.166237
0.148497
0.131983
0.116639
0.102405
0.0892226
0.0770338
0.0657846
0.0554224
0.0458985
0.0371686
0.0293066
0.0222918
0.0157116
0.00981816
0.00468189
0.00307296
0.00215878
0.00149793
0.00102508
0.000690753
0.000457623
0.000297704
0.000190179
0.000119748
7.53599e-05
4.92567e-05
3.59608e-05
2.72255e-05
1.9969e-05
1.39754e-05
9.26068e-06
5.78128e-06
3.39821e-06
1.88866e-06
9.99684e-07
5.0777e-07
2.49049e-07
1.19328e-07
5.60258e-08
2.58314e-08
1.1715e-08
5.23345e-09
2.30603e-09
1.00351e-09
4.31798e-10
1.83913e-10
7.7613e-11
3.24699e-11
1.34606e-11
5.51373e-12
2.21139e-12
8.4552e-13
2.82222e-13
4.94321e-14
0.999997
0.999987
0.999969
0.99994
0.999892
0.999811
0.999679
0.999464
0.999117
0.998567
0.997705
0.996381
0.994383
0.991434
0.987191
0.981251
0.973184
0.962577
0.949088
0.932491
0.912705
0.889794
0.863947
0.835449
0.804649
0.771934
0.737703
0.702357
0.66628
0.629837
0.593362
0.557156
0.521482
0.486568
0.452602
0.419741
0.388108
0.3578
0.328883
0.301398
0.275365
0.250785
0.227645
0.205916
0.185563
0.166541
0.148797
0.132279
0.116929
0.102689
0.0895011
0.0773065
0.0660487
0.0556755
0.0461402
0.0373988
0.0295211
0.0224948
0.0159042
0.0100014
0.00484571
0.00308171
0.00215859
0.00149332
0.00101878
0.000684315
0.000451842
0.000292896
0.000186385
0.000116855
7.31823e-05
4.75847e-05
3.46507e-05
2.62996e-05
1.93624e-05
1.36066e-05
9.05545e-06
5.67807e-06
3.35169e-06
1.86998e-06
9.93127e-07
5.05902e-07
2.48757e-07
1.19416e-07
5.61587e-08
2.59266e-08
1.17711e-08
5.26352e-09
2.32119e-09
1.01079e-09
4.35167e-10
1.85429e-10
7.82785e-11
3.27559e-11
1.35813e-11
5.56371e-12
2.23162e-12
8.53309e-13
2.84835e-13
4.9891e-14
0.999997
0.999987
0.999969
0.99994
0.999891
0.999811
0.999679
0.999463
0.999116
0.998565
0.997703
0.996377
0.994378
0.991427
0.987181
0.981238
0.973168
0.962558
0.949067
0.932469
0.912684
0.889776
0.863935
0.835447
0.80466
0.77196
0.737747
0.702421
0.666368
0.629949
0.593499
0.557318
0.52167
0.486782
0.452841
0.420003
0.388392
0.358104
0.329205
0.301736
0.275716
0.251147
0.228015
0.206292
0.185943
0.166921
0.149177
0.132656
0.1173
0.103052
0.0898536
0.0776486
0.0663818
0.0559992
0.0464506
0.0376952
0.0298017
0.0227615
0.0161597
0.0102492
0.0050759
0.00309318
0.00216093
0.00149095
0.00101438
0.000679421
0.00044727
0.000289008
0.000183265
0.000114437
7.13203e-05
4.61009e-05
3.34286e-05
2.54263e-05
1.87924e-05
1.32639e-05
8.86903e-06
5.5881e-06
3.31399e-06
1.85679e-06
9.89791e-07
5.05811e-07
2.49325e-07
1.19937e-07
5.64963e-08
2.61198e-08
1.18734e-08
5.31479e-09
2.34581e-09
1.02224e-09
4.40346e-10
1.87721e-10
7.92739e-11
3.31813e-11
1.37603e-11
5.63781e-12
2.26149e-12
8.64773e-13
2.88672e-13
5.05646e-14
0.999997
0.999987
0.999969
0.99994
0.999891
0.999811
0.999678
0.999462
0.999115
0.998563
0.9977
0.996373
0.994371
0.991418
0.987169
0.981221
0.973146
0.962531
0.949036
0.932435
0.91265
0.889744
0.86391
0.83543
0.804656
0.771973
0.737782
0.70248
0.666452
0.630062
0.593643
0.557493
0.521877
0.48702
0.45311
0.420301
0.388718
0.358456
0.32958
0.302132
0.276129
0.251575
0.228455
0.206741
0.186397
0.167379
0.149635
0.133111
0.117751
0.103496
0.090288
0.0780703
0.0667887
0.0563932
0.0468336
0.0380622
0.0301454
0.0230871
0.0164674
0.0105382
0.00532981
0.00310774
0.0021662
0.00149118
0.00101216
0.000676301
0.00044409
0.000286174
0.000180919
0.000112566
6.98296e-05
4.48533e-05
3.23287e-05
2.46309e-05
1.82786e-05
1.29617e-05
8.71126e-06
5.51773e-06
3.28905e-06
1.85146e-06
9.9083e-07
5.07888e-07
2.51053e-07
1.2101e-07
5.71028e-08
2.64403e-08
1.20345e-08
5.39261e-09
2.38224e-09
1.03885e-09
4.47753e-10
1.90962e-10
8.06696e-11
3.37739e-11
1.40086e-11
5.7403e-12
2.30282e-12
8.80614e-13
2.93971e-13
5.14939e-14
0.999997
0.999987
0.999969
0.99994
0.999891
0.99981
0.999678
0.999461
0.999114
0.998561
0.997697
0.996368
0.994363
0.991406
0.987151
0.981198
0.973116
0.962494
0.948991
0.932385
0.912597
0.889692
0.863862
0.835391
0.80463
0.771965
0.737795
0.702519
0.666522
0.630165
0.593781
0.557668
0.522089
0.48727
0.453397
0.420624
0.389076
0.358846
0.329999
0.302577
0.276598
0.252063
0.228959
0.207258
0.186923
0.167911
0.150169
0.133645
0.118281
0.10402
0.0908027
0.0785739
0.0672786
0.0568655
0.0472885
0.0385043
0.030562
0.0234817
0.0168415
0.0108928
0.00564547
0.0031257
0.00217472
0.00149429
0.00101243
0.000675209
0.000442499
0.000284541
0.000179449
0.000111311
6.87516e-05
4.38643e-05
3.13654e-05
2.39216e-05
1.78281e-05
1.27061e-05
8.587e-06
5.47058e-06
3.27939e-06
1.85511e-06
9.96797e-07
5.12834e-07
2.54282e-07
1.22829e-07
5.80641e-08
2.69253e-08
1.22703e-08
5.50385e-09
2.43337e-09
1.06184e-09
4.57891e-10
1.9536e-10
8.25499e-11
3.45678e-11
1.43398e-11
5.87655e-12
2.35763e-12
9.01622e-13
3.00997e-13
5.27244e-14
0.999997
0.999987
0.999969
0.99994
0.999891
0.99981
0.999677
0.99946
0.999112
0.998558
0.997692
0.99636
0.994352
0.99139
0.987129
0.981167
0.973075
0.962443
0.94893
0.932315
0.912519
0.889611
0.863782
0.835318
0.80457
0.771922
0.737773
0.702525
0.66656
0.63024
0.593895
0.557825
0.52229
0.487515
0.453687
0.420957
0.38945
0.35926
0.330449
0.30306
0.277111
0.252603
0.22952
0.207837
0.187516
0.168513
0.150777
0.134255
0.118889
0.104623
0.0913974
0.0791574
0.0678482
0.0574185
0.0478205
0.039013
0.0310449
0.0239464
0.0172834
0.0113113
0.00603266
0.00314736
0.00218698
0.00150088
0.00101565
0.000676554
0.00044284
0.000284374
0.000179039
0.000110787
6.81516e-05
4.31664e-05
3.0542e-05
2.32913e-05
1.74365e-05
1.24957e-05
8.49663e-06
5.44774e-06
3.28573e-06
1.86873e-06
1.00907e-06
5.21196e-07
2.59245e-07
1.25506e-07
5.94368e-08
2.76024e-08
1.25939e-08
5.65439e-09
2.5018e-09
1.09232e-09
4.71237e-10