/*--------------------------------*- C++ -*----------------------------------*\
  =========                 |
  \\      /  F ield         | OpenFOAM: The Open Source CFD Toolbox
   \\    /   O peration     | Website:  https://openfoam.org
    \\  /    A nd           | Version:  8
     \\/     M anipulation  |
\*---------------------------------------------------------------------------*/
FoamFile
{
    version     2.0;
    format      ascii;
    class       volScalarField;
    location    "520/fluid";
    object      CO2;
}
// * * * * * * * * * * * * * * * * * * * * * * * * * * * * * * * * * * * * * //

dimensions      [0 0 0 0 0 0 0];

internalField   nonuniform List<scalar> 
4000
(
4.59726e-07
2.00862e-06
4.61189e-06
8.97282e-06
1.6246e-05
2.83087e-05
4.81764e-05
8.06253e-05
0.000133092
0.000216924
0.000349005
0.000553713
0.000864947
0.00132769
0.00199818
0.00294188
0.00422759
0.00591955
0.00806794
0.0107014
0.0138234
0.0174141
0.0214339
0.0258305
0.0305435
0.0355094
0.0406649
0.045949
0.0513047
0.0566799
0.062028
0.0673082
0.0724859
0.0775321
0.0824235
0.0871418
0.0916724
0.0960053
0.100134
0.104054
0.107767
0.111272
0.114572
0.117673
0.120579
0.123295
0.125828
0.128182
0.130362
0.132373
0.134217
0.135893
0.1374
0.138731
0.139877
0.140822
0.141542
0.142001
0.14216
0.141966
0.141337
0.140173
0.138375
0.127878
0.117159
0.106413
0.0957891
0.0854054
0.0753537
0.0657086
0.0565323
0.0478793
0.0398004
0.0323771
0.0255923
0.0195459
0.0143026
0.00992678
0.00646769
0.00392486
0.00221343
0.00116549
0.000578373
0.000274948
0.000126922
5.72466e-05
2.53406e-05
1.10452e-05
4.75265e-06
2.02302e-06
8.53309e-07
3.57164e-07
1.4851e-07
6.13782e-08
2.5202e-08
1.02503e-08
4.09192e-09
1.56092e-09
5.21054e-10
9.13296e-11
4.61877e-07
2.01863e-06
4.63758e-06
9.03007e-06
1.63648e-05
2.85415e-05
4.86095e-05
8.13886e-05
0.00013436
0.00021889
0.000351803
0.000557229
0.000868529
0.00132977
0.00199594
0.0029307
0.00420154
0.00587169
0.00799147
0.0105909
0.0136759
0.0172294
0.0212149
0.0255821
0.0302723
0.0352228
0.0403704
0.0456536
0.0510148
0.0564007
0.0617638
0.0670625
0.0722608
0.0773292
0.0822436
0.0869848
0.0915381
0.0958928
0.100042
0.103982
0.107712
0.111234
0.114549
0.117663
0.120581
0.123307
0.125848
0.128209
0.130396
0.132411
0.134257
0.135936
0.137443
0.138773
0.139916
0.140854
0.141562
0.142
0.142126
0.141873
0.141139
0.139784
0.137642
0.127001
0.11618
0.105359
0.0946815
0.0842575
0.0741771
0.0645138
0.05533
0.0466815
0.0386215
0.0312411
0.0245164
0.0185599
0.0134384
0.0092152
0.00592945
0.00355915
0.00199356
0.00104873
0.000523106
0.0002507
0.000116874
5.3262e-05
2.38107e-05
1.047e-05
4.53856e-06
1.94327e-06
8.23294e-07
3.45672e-07
1.44018e-07
5.9589e-08
2.44796e-08
9.95763e-09
3.97482e-09
1.51609e-09
5.06047e-10
8.87213e-11
4.65435e-07
2.03459e-06
4.67594e-06
9.10839e-06
1.65122e-05
2.88035e-05
4.90513e-05
8.20953e-05
0.000135427
0.000220393
0.000353758
0.000559572
0.000870978
0.00133153
0.00199527
0.00292454
0.00418546
0.00584024
0.00793867
0.010511
0.0135645
0.0170837
0.0210344
0.0253686
0.0300297
0.0349564
0.0400866
0.0453594
0.0507169
0.0561057
0.0614775
0.0667897
0.0720059
0.0770952
0.0820329
0.0867989
0.0913778
0.0957581
0.0999325
0.103897
0.10765
0.111194
0.11453
0.117662
0.120595
0.123336
0.125889
0.128261
0.130456
0.132478
0.13433
0.136011
0.13752
0.13885
0.13999
0.140923
0.141623
0.142048
0.142157
0.141879
0.141114
0.139722
0.136224
0.125446
0.114528
0.103641
0.0929211
0.0824766
0.072396
0.0627527
0.0536104
0.0450262
0.0370553
0.0297849
0.0232072
0.0174277
0.0125078
0.0085001
0.00542513
0.00323737
0.00180858
0.000952124
0.000476556
0.000229389
0.00010747
4.92303e-05
2.2121e-05
9.7742e-06
4.25559e-06
1.82912e-06
7.77432e-07
3.27252e-07
1.36604e-07
5.65951e-08
2.32681e-08
9.46858e-09
3.78008e-09
1.44177e-09
4.81163e-10
8.435e-11
4.67348e-07
2.0429e-06
4.69481e-06
9.14446e-06
1.65752e-05
2.89062e-05
4.92074e-05
8.23131e-05
0.000135696
0.000220667
0.000353874
0.000559083
0.000868997
0.00132661
0.00198532
0.00290692
0.0041568
0.00579669
0.00787631
0.0104264
0.013455
0.0169481
0.0208727
0.0251824
0.0298215
0.0347299
0.0398463
0.0451101
0.0504638
0.055854
0.0612321
0.0665552
0.071786
0.0768933
0.0818514
0.0866398
0.0912421
0.0956465
0.0998452
0.103834
0.107611
0.111176
0.114531
0.117681
0.120631
0.123387
0.125953
0.128335
0.130539
0.132568
0.134425
0.13611
0.13762
0.138949
0.140086
0.141015
0.141708
0.142125
0.142223
0.141935
0.141161
0.13977
0.134207
0.123409
0.112468
0.101565
0.0908435
0.0804158
0.0703726
0.0607888
0.0517294
0.043253
0.0354159
0.0282748
0.02188
0.0163006
0.0115935
0.007802
0.00493144
0.0029181
0.0016205
0.000850539
0.000425603
0.000205226
9.64254e-05
4.43244e-05
1.99922e-05
8.86815e-06
3.87614e-06
1.67227e-06
7.13239e-07
3.01175e-07
1.26066e-07
5.23516e-08
2.15653e-08
8.78929e-09
3.51308e-09
1.34105e-09
4.47748e-10
7.85104e-11
4.68015e-07
2.04574e-06
4.70106e-06
9.15587e-06
1.6594e-05
2.89341e-05
4.92432e-05
8.23457e-05
0.000135688
0.00022051
0.000353354
0.000557821
0.000866351
0.00132154
0.00197628
0.00289175
0.0041328
0.00576077
0.00782534
0.0103576
0.0133664
0.0168386
0.0207426
0.0250327
0.0296546
0.0345488
0.0396546
0.0449119
0.0502633
0.0556553
0.0610394
0.066372
0.0716158
0.0767388
0.0817149
0.0865229
0.0911463
0.0955727
0.099794
0.103804
0.107601
0.111184
0.114558
0.117725
0.12069
0.123458
0.126036
0.128428
0.130639
0.132673
0.134533
0.136219
0.137728
0.139053
0.140185
0.141104
0.141787
0.142187
0.142268
0.141958
0.141154
0.139722
0.132006
0.121222
0.110287
0.0993952
0.0886965
0.0783084
0.0683244
0.058821
0.0498636
0.0415107
0.033828
0.0268454
0.020635
0.0152554
0.0107569
0.00717319
0.00449428
0.00264002
0.00145882
0.000763878
0.00038219
0.000184548
8.68943e-05
4.00421e-05
1.8107e-05
8.05213e-06
3.5278e-06
1.52529e-06
6.51821e-07
2.75713e-07
1.15579e-07
4.80571e-08
1.98167e-08
8.08328e-09
3.23287e-09
1.23458e-09
4.12248e-10
7.22883e-11
4.67634e-07
2.04397e-06
4.69655e-06
9.14574e-06
1.65722e-05
2.88884e-05
4.9149e-05
8.21553e-05
0.000135313
0.000219798
0.000352044
0.000555487
0.000862329
0.00131486
0.00196558
0.0028753
0.00410853
0.00572648
0.0077789
0.0102973
0.013291
0.0167478
0.0206367
0.024913
0.0295228
0.0344076
0.0395067
0.0447605
0.0501118
0.055507
0.0608974
0.0662393
0.071495
0.0766321
0.0816243
0.0864502
0.0910927
0.0955382
0.0997772
0.103805
0.107619
0.111219
0.114608
0.117789
0.120767
0.123546
0.126133
0.128532
0.130748
0.132785
0.134645
0.136328
0.137832
0.139149
0.140269
0.141173
0.141835
0.142212
0.142267
0.141927
0.141089
0.139631
0.129887
0.119145
0.108216
0.0973303
0.0866523
0.0763054
0.0663845
0.0569658
0.0481135
0.0398849
0.0323598
0.0255347
0.0195002
0.0143095
0.0100058
0.00661275
0.00410679
0.00239391
0.00131517
0.000686126
0.000342672
0.000165457
7.79691e-05
3.59786e-05
1.62977e-05
7.26149e-06
3.18782e-06
1.38107e-06
5.91333e-07
2.5058e-07
1.05215e-07
4.38111e-08
1.8088e-08
7.38547e-09
2.95599e-09
1.12937e-09
3.77173e-10
6.61402e-11
4.66619e-07
2.03945e-06
4.68579e-06
9.12374e-06
1.65299e-05
2.88094e-05
4.90043e-05
8.18942e-05
0.000134849
0.000218984
0.000350642
0.000553122
0.000858433
0.00130861
0.00195588
0.00286074
0.00408749
0.00569727
0.00773997
0.0102474
0.0132296
0.0166747
0.0205526
0.0248191
0.0294209
0.0342997
0.0393954
0.0446483
0.0500014
0.055401
0.0607983
0.0661495
0.0714165
0.076567
0.0815742
0.0864157
0.0910734
0.0955339
0.0997885
0.103832
0.107661
0.111275
0.114677
0.11787
0.120857
0.123645
0.126238
0.128641
0.130859
0.132896
0.134753
0.136431
0.137924
0.139227
0.140327
0.141206
0.141836
0.14217
0.142179
0.141788
0.140908
0.139456
0.128644
0.11758
0.106479
0.0955113
0.0848121
0.0744865
0.0646191
0.0552794
0.0465266
0.0384142
0.031025
0.0243427
0.0184748
0.0134645
0.00934263
0.00612366
0.00377245
0.00218371
0.00119341
0.000620496
0.000309334
0.000149311
7.03833e-05
3.25021e-05
1.47375e-05
6.57384e-06
2.88947e-06
1.25337e-06
5.37321e-07
2.27962e-07
9.58243e-08
3.99405e-08
1.65042e-08
6.74351e-09
2.7004e-09
1.032e-09
3.44659e-10
6.04353e-11
4.65287e-07
2.03357e-06
4.67199e-06
9.09607e-06
1.64779e-05
2.87149e-05
4.88361e-05
8.15994e-05
0.000134339
0.000218118
0.000349195
0.000550751
0.000854639
0.0013027
0.00194694
0.00284767
0.00406907
0.00567227
0.00770735
0.0102064
0.01318
0.0166168
0.0204871
0.0247471
0.029344
0.0342198
0.0393144
0.0445684
0.0499247
0.0553297
0.0607343
0.0660949
0.071373
0.0765358
0.0815553
0.0864092
0.0910801
0.0955544
0.0998228
0.103879
0.10772
0.111346
0.114759
0.11796
0.120955
0.123748
0.126345
0.128751
0.130969
0.133004
0.134855
0.136523
0.138004
0.139288
0.140361
0.141202
0.141776
0.142035
0.141933
0.141375
0.14024
0.138403
0.127313
0.116065
0.104857
0.0938412
0.0831378
0.0728428
0.0630336
0.0537744
0.0451203
0.037121
0.0298513
0.0233158
0.0175923
0.0127321
0.00876916
0.00570418
0.00348758
0.00200537
0.00109022
0.000564761
0.000280889
0.00013546
6.38382e-05
2.94854e-05
1.33764e-05
5.97103e-06
2.6268e-06
1.14053e-06
4.89434e-07
2.07853e-07
8.7455e-08
3.64841e-08
1.50875e-08
6.16849e-09
2.47121e-09
9.44612e-10
3.15457e-10
5.53098e-11
4.63882e-07
2.02739e-06
4.65761e-06
9.06752e-06
1.64249e-05
2.862e-05
4.86697e-05
8.13126e-05
0.000133853
0.000217305
0.00034786
0.000548603
0.00085126
0.00129752
0.00193923
0.00283658
0.00405367
0.00565168
0.00768086
0.0101737
0.0131409
0.0165719
0.0204371
0.0246932
0.0292875
0.0341623
0.0392577
0.0445143
0.0498748
0.0552858
0.0606983
0.0660679
0.0713557
0.0765283
0.0815585
0.0864242
0.0911071
0.0955932
0.099873
0.10394
0.107791
0.111427
0.114847
0.118055
0.121055
0.123852
0.126452
0.128858
0.131075
0.133105
0.134951
0.13661
0.138078
0.139344
0.140394
0.141203
0.141732
0.141932
0.141742
0.141048
0.139701
0.137154
0.125916
0.114576
0.103321
0.0922948
0.0816111
0.0713606
0.0616172
0.0524426
0.0438917
0.0360169
0.0288852
0.0225094
0.0169165
0.0121519
0.00829436
0.00535182
0.00324835
0.00185586
0.00100383
0.000518102
0.000257045
0.00012382
5.83203e-05
2.69329e-05
1.22202e-05
5.45694e-06
2.4019e-06
1.04354e-06
4.48131e-07
1.90451e-07
8.01914e-08
3.34768e-08
1.38522e-08
5.66615e-09
2.27069e-09
8.68071e-10
2.89868e-10
5.08139e-11
4.62532e-07
2.02147e-06
4.64388e-06
9.04042e-06
1.6375e-05
2.85311e-05
4.85152e-05
8.10487e-05
0.000133409
0.000216572
0.00034667
0.000546712
0.000848325
0.00129308
0.00193272
0.00282733
0.00404101
0.00563501
0.00765975
0.010148
0.0131108
0.0165378
0.0203999
0.024654
0.0292475
0.0341229
0.0392202
0.0444802
0.0498458
0.0552633
0.0606829
0.0660601
0.0713563
0.0765384
0.0815788
0.0864547
0.0911478
0.0956438
0.0999329
0.104009
0.107868
0.11151
0.114936
0.118149
0.121153
0.123953
0.126553
0.128959
0.131174
0.133201
0.135041
0.136692
0.13815
0.139404
0.14044
0.141233
0.141744
0.141929
0.141731
0.14105
0.139763
0.135755
0.124491
0.113139
0.101888
0.0908821
0.0802352
0.0700375
0.060362
0.0512695
0.0428138
0.0350494
0.0280116
0.0217142
0.0162433
0.0116404
0.00790236
0.00505417
0.00304601
0.0017296
0.000931004
0.000478803
0.000236954
0.000114004
5.36598e-05
2.47731e-05
1.12401e-05
5.02024e-06
2.21047e-06
9.60827e-07
4.12835e-07
1.75554e-07
7.3963e-08
3.08941e-08
1.27899e-08
5.23373e-09
2.09792e-09
8.02085e-10
2.67806e-10
4.69338e-11
4.61313e-07
2.01613e-06
4.63152e-06
9.01611e-06
1.63303e-05
2.84521e-05
4.83787e-05
8.08172e-05
0.000133023
0.000215939
0.000345654
0.000545112
0.000845865
0.00128941
0.00192738
0.00281985
0.00403089
0.00562185
0.00764332
0.0101283
0.0130881
0.0165127
0.0203731
0.0246265
0.0292204
0.0340973
0.0391975
0.0444617
0.0498324
0.0552554
0.0606814
0.066066
0.0713704
0.0765611
0.0816103
0.0864949
0.0911965
0.0957007
0.0999975
0.10408
0.107946
0.111593
0.115024
0.11824
0.121246
0.124047
0.126647
0.129051
0.131264
0.133287
0.135121
0.136766
0.138216
0.139461
0.140486
0.141268
0.141768
0.141943
0.141738
0.141056
0.139773
0.134395
0.123137
0.111802
0.100578
0.0896098
0.079012
0.0688749
0.0592713
0.0502605
0.041895
0.0341984
0.0272139
0.0210136
0.0156453
0.0111476
0.00754506
0.00480169
0.00287166
0.00162184
0.000869302
0.000445676
0.000220072
0.000105766
4.97506e-05
2.29608e-05
1.04169e-05
4.65301e-06
2.04926e-06
8.9106e-07
3.83019e-07
1.62951e-07
6.86862e-08
2.87034e-08
1.1888e-08
4.86625e-09
1.95103e-09
7.45959e-10
2.49045e-10
4.36367e-11
4.60254e-07
2.01149e-06
4.62082e-06
8.99511e-06
1.62919e-05
2.83844e-05
4.82623e-05
8.06207e-05
0.000132697
0.000215409
0.000344807
0.00054379
0.000843851
0.00128642
0.0019231
0.00281391
0.00402296
0.00561168
0.00763083
0.0101136
0.0130715
0.0164948
0.0203546
0.0246082
0.0292033
0.0340825
0.0391859
0.044454
0.0498293
0.0552578
0.0606901
0.0660816
0.0713933
0.0765914
0.081648
0.08654
0.0912486
0.0957595
0.100062
0.104151
0.108021
0.111672
0.115106
0.118324
0.121331
0.124132
0.126731
0.129133
0.131342
0.133361
0.13519
0.136828
0.13827
0.139507
0.140522
0.141294
0.141783
0.141949
0.141735
0.141047
0.139761
0.133182
0.121932
0.110616
0.0994231
0.0885009
0.0779595
0.0678852
0.0583364
0.0493731
0.0410439
0.0334106
0.0265136
0.0204039
0.0151283
0.0107245
0.00721399
0.00457908
0.00272472
0.00153018
0.000817292
0.000417928
0.000205986
9.89047e-05
4.64961e-05
2.1452e-05
9.7312e-06
4.34689e-06
1.91474e-06
8.32779e-07
3.58082e-07
1.52398e-07
6.42622e-08
2.68647e-08
1.11302e-08
4.55733e-09
1.82753e-09
6.9881e-10
2.33313e-10
4.08766e-11
4.59363e-07
2.00759e-06
4.61184e-06
8.97752e-06
1.62598e-05
2.8328e-05
4.81656e-05
8.04585e-05
0.00013243
0.000214976
0.000344121
0.000542725
0.000842242
0.00128406
0.00191974
0.0028093
0.00401689
0.00560401
0.00762156
0.0101029
0.0130598
0.0164824
0.0203424
0.0245968
0.0291936
0.0340753
0.0391818
0.0444536
0.0498335
0.0552672
0.0607053
0.0661029
0.0714207
0.0766252
0.081688
0.0865861
0.0913005
0.0958166
0.100124
0.104217
0.10809
0.111744
0.11518
0.118399
0.121407
0.124207
0.126804
0.129203
0.131409
0.133422
0.135246
0.136877
0.138311
0.139539
0.140545
0.141306
0.141784
0.14194
0.141717
0.141021
0.139733
0.132142
0.120892
0.109591
0.0984294
0.0875424
0.0770312
0.0669818
0.0574742
0.0485652
0.0403054
0.0327425
0.0259193
0.0198872
0.0146922
0.0103705
0.00694073
0.00438043
0.00260397
0.00145653
0.000774529
0.000395059
0.000194404
9.32668e-05
4.38221e-05
2.02116e-05
9.16698e-06
4.09471e-06
1.80379e-06
7.84643e-07
3.37458e-07
1.43658e-07
6.05939e-08
2.53383e-08
1.05005e-08
4.30041e-09
1.72475e-09
6.59562e-10
2.20216e-10
3.85796e-11
4.58634e-07
2.0044e-06
4.60449e-06
8.96316e-06
1.62336e-05
2.82822e-05
4.80874e-05
8.03276e-05
0.000132215
0.00021463
0.000343576
0.000541886
0.000840984
0.00128223
0.00191716
0.0028058
0.00401234
0.00559835
0.00761486
0.0100953
0.0130517
0.0164744
0.0203348
0.0245905
0.0291892
0.0340732
0.0391827
0.0444583
0.0498423
0.0552807
0.0607237
0.0661265
0.0714496
0.0766593
0.0817273
0.0866302
0.0913491
0.0958693
0.100181
0.104276
0.108152
0.111808
0.115244
0.118464
0.12147
0.124269
0.126864
0.12926
0.131461
0.13347
0.135287
0.136912
0.138338
0.139557
0.140553
0.141305
0.141772
0.141918
0.141685
0.140981
0.139694
0.131265
0.120008
0.108718
0.0975713
0.0866998
0.0762183
0.0662119
0.0567505
0.047892
0.0396875
0.0321834
0.0254222
0.0194557
0.0143291
0.0100772
0.00671636
0.00421952
0.0024962
0.00139629
0.000740996
0.000376792
0.000185041
8.87027e-05
4.16542e-05
1.92043e-05
8.708e-06
3.88922e-06
1.71323e-06
7.45296e-07
3.20576e-07
1.36495e-07
5.7584e-08
2.40846e-08
9.98288e-09
4.08905e-09
1.64016e-09
6.27248e-10
2.09428e-10
3.66901e-11
4.58052e-07
2.00186e-06
4.59863e-06
8.95172e-06
1.62129e-05
2.82459e-05
4.80256e-05
8.02246e-05
0.000132047
0.00021436
0.000343153
0.000541239
0.00084002
0.00128084
0.00191522
0.00280321
0.00400901
0.00559429
0.00761015
0.0100902
0.0130465
0.0164694
0.0203306
0.0245876
0.029188
0.0340743
0.0391867
0.0444656
0.0498533
0.0552957
0.0607429
0.0661499
0.0714773
0.0766913
0.0817633
0.08667
0.0913924
0.0959156
0.100229
0.104327
0.108204
0.111861
0.115297
0.118516
0.121522
0.124319
0.126911
0.129304
0.1315
0.133504
0.135315
0.136933
0.138351
0.139562
0.14055
0.141292
0.141751
0.141888
0.141647
0.140937
0.139648
0.130534
0.119266
0.107981
0.0968441
0.0859967
0.0755452
0.0655739
0.0561516
0.0473359
0.0391773
0.0317221
0.0250123
0.0191004
0.0140307
0.00983722
0.0065337
0.00408962
0.00241033
0.00134319
0.000713205
0.000362779
0.000177739
8.50696e-05
3.99149e-05
1.83939e-05
8.338e-06
3.72331e-06
1.64002e-06
7.13457e-07
3.06903e-07
1.30688e-07
5.51426e-08
2.30671e-08
9.56256e-09
3.91738e-09
1.57144e-09
6.01013e-10
2.00671e-10
3.5156e-11
4.57599e-07
1.99988e-06
4.59409e-06
8.94286e-06
1.61968e-05
2.82178e-05
4.7978e-05
8.01455e-05
0.000131918
0.000214155
0.000342832
0.000540752
0.0008393
0.00127981
0.0019138
0.00280133
0.00400664
0.00559144
0.00760693
0.0100868
0.0130432
0.0164665
0.0203286
0.0245868
0.0291889
0.0340773
0.0391922
0.0444739
0.0498647
0.0553103
0.0607609
0.0661713
0.0715021
0.0767193
0.0817944
0.0867039
0.0914287
0.095954
0.10027
0.104368
0.108246
0.111903
0.115339
0.118557
0.121561
0.124356
0.126945
0.129334
0.131526
0.133524
0.13533
0.13694
0.138352
0.139555
0.140535
0.141271
0.141723
0.141858
0.14162
0.140923
0.139671
0.129944
0.118665
0.107376
0.0962517
0.0854241
0.0749976
0.0650556
0.0556658
0.0468854
0.0387645
0.0313491
0.0246814
0.0188139
0.0137906
0.00964448
0.00638752
0.00398613
0.00234231
0.00130142
0.000688691
0.000349776
0.000171633
8.21376e-05
3.85152e-05
1.77411e-05
8.04054e-06
3.59026e-06
1.58142e-06
6.87998e-07
2.95979e-07
1.26052e-07
5.31942e-08
2.22555e-08
9.22745e-09
3.78062e-09
1.51679e-09
5.80155e-10
1.93712e-10
3.39365e-11
4.57259e-07
1.99839e-06
4.59067e-06
8.93621e-06
1.61847e-05
2.81969e-05
4.79425e-05
8.00867e-05
0.000131822
0.000214003
0.000342597
0.000540396
0.000838778
0.00127906
0.00191279
0.0028
0.00400499
0.00558951
0.0076048
0.0100846
0.0130412
0.0164651
0.0203279
0.0245872
0.0291908
0.034081
0.0391979
0.0444818
0.049875
0.0553232
0.0607763
0.0661893
0.0715226
0.0767421
0.0818193
0.0867307
0.0914571
0.0959837
0.1003
0.104399
0.108278
0.111934
0.115369
0.118586
0.121588
0.12438
0.126966
0.129351
0.131539
0.133532
0.135332
0.136936
0.138341
0.139536
0.140509
0.141237
0.141682
0.141811
0.14157
0.140872
0.139624
0.129485
0.118188
0.106898
0.095783
0.0849712
0.0745652
0.064647
0.0552836
0.0465315
0.0384408
0.0310572
0.0244227
0.0185904
0.0136036
0.00949482
0.00627442
0.00390643
0.00229029
0.00126993
0.000670838
0.000340188
0.000166667
7.98247e-05
3.74513e-05
1.72451e-05
7.81255e-06
3.48761e-06
1.53607e-06
6.68286e-07
2.87526e-07
1.22468e-07
5.16904e-08
2.16304e-08
8.97001e-09
3.67578e-09
1.4749e-09
5.64176e-10
1.88382e-10
3.30026e-11
4.57018e-07
1.99734e-06
4.58825e-06
8.93149e-06
1.61762e-05
2.8182e-05
4.79174e-05
8.00451e-05
0.000131755
0.000213897
0.000342432
0.000540148
0.000838416
0.00127855
0.0019121
0.00279911
0.00400389
0.00558824
0.00760345
0.0100833
0.0130401
0.0164644
0.0203279
0.0245881
0.0291928
0.0340843
0.0392028
0.0444884
0.0498834
0.0553334
0.0607883
0.0662031
0.0715381
0.0767591
0.0818375
0.0867499
0.0914772
0.0960045
0.100321
0.104421
0.108299
0.111954
0.115388
0.118604
0.121604
0.124393
0.126976
0.129357
0.131541
0.133529
0.135323
0.136922
0.138319
0.139508
0.140473
0.141194
0.141633
0.141757
0.141514
0.140819
0.139583
0.129146
0.117832
0.106539
0.0954299
0.0846302
0.0742403
0.0643409
0.0549981
0.046268
0.0382004
0.030841
0.0242315
0.0184255
0.013466
0.00938502
0.00619174
0.0038484
0.00225256
0.00124715
0.00065796
0.000333291
0.000163125
7.80421e-05
3.66023e-05
1.68664e-05
7.64438e-06
3.41315e-06
1.50347e-06
6.54168e-07
2.81481e-07
1.19908e-07
5.0616e-08
2.11833e-08
8.78563e-09
3.60058e-09
1.44483e-09
5.52695e-10
1.84551e-10
3.23314e-11
4.56863e-07
1.99667e-06
4.5867e-06
8.92848e-06
1.61707e-05
2.81725e-05
4.79014e-05
8.00187e-05
0.000131712
0.000213829
0.000342328
0.000539992
0.000838188
0.00127824
0.00191167
0.00279856
0.00400322
0.00558748
0.00760267
0.0100826
0.0130396
0.0164642
0.0203281
0.0245889
0.0291944
0.0340868
0.0392063
0.044493
0.0498892
0.0553403
0.0607964
0.0662123
0.0715482
0.07677
0.081849
0.0867618
0.0914893
0.0960167
0.100333
0.104432
0.10831
0.111965
0.115398
0.118612
0.12161
0.124397
0.126977
0.129355
0.131535
0.133519
0.135309
0.136901
0.138293
0.139476
0.140435
0.141149
0.141583
0.141705
0.141462
0.140772
0.139553
0.128923
0.11759
0.106293
0.0951877
0.0843969
0.074019
0.0641334
0.0548055
0.0460911
0.0380398
0.030697
0.0241048
0.0183166
0.0133755
0.00931306
0.00613782
0.00381076
0.00222821
0.00123249
0.000649664
0.000328847
0.000160901
7.69569e-05
3.60839e-05
1.66215e-05
7.53425e-06
3.36473e-06
1.48236e-06
6.45064e-07
2.77598e-07
1.18268e-07
4.9929e-08
2.08978e-08
8.66788e-09
3.55253e-09
1.4256e-09
5.45349e-10
1.82099e-10
3.19014e-11
4.5679e-07
1.99635e-06
4.58597e-06
8.92705e-06
1.61682e-05
2.81681e-05
4.78938e-05
8.00063e-05
0.000131692
0.000213798
0.00034228
0.000539919
0.000838083
0.00127809
0.00191147
0.0027983
0.00400292
0.00558714
0.00760231
0.0100823
0.0130393
0.0164641
0.0203283
0.0245894
0.0291953
0.0340881
0.0392081
0.0444953
0.049892
0.0553438
0.0608004
0.0662168
0.0715531
0.0767753
0.0818545
0.0867673
0.0914946
0.0960218
0.100338
0.104437
0.108314
0.111968
0.115401
0.118613
0.12161
0.124396
0.126974
0.12935
0.131528
0.133509
0.135295
0.136884
0.138272
0.13945
0.140405
0.141115
0.141545
0.141664
0.141422
0.140739
0.139536
0.128812
0.117464
0.106163
0.0950594
0.0842742
0.0739038
0.0640265
0.0547073
0.0460018
0.0379594
0.0306256
0.0240425
0.0182635
0.0133318
0.00927859
0.0061122
0.00379302
0.00221684
0.00122569
0.00064583
0.000326794
0.000159882
7.64627e-05
3.58487e-05
1.65109e-05
7.48267e-06
3.3414e-06
1.4721e-06
6.40638e-07
2.75711e-07
1.17472e-07
4.95962e-08
2.07597e-08
8.61096e-09
3.5293e-09
1.41631e-09
5.41795e-10
1.80911e-10
3.16932e-11
4.56794e-07
1.99636e-06
4.58601e-06
8.92712e-06
1.61683e-05
2.81683e-05
4.78942e-05
8.00069e-05
0.000131693
0.000213799
0.000342282
0.000539923
0.000838089
0.0012781
0.00191148
0.00279832
0.00400294
0.00558717
0.00760236
0.0100823
0.0130394
0.0164642
0.0203284
0.0245895
0.0291954
0.0340882
0.0392082
0.0444954
0.0498921
0.0553439
0.0608005
0.0662169
0.0715532
0.0767754
0.0818546
0.0867674
0.0914947
0.0960219
0.100338
0.104437
0.108314
0.111968
0.115401
0.118614
0.12161
0.124396
0.126974
0.129351
0.131528
0.133509
0.135295
0.136884
0.138272
0.13945
0.140405
0.141115
0.141545
0.141664
0.141422
0.140739
0.139536
0.128812
0.117464
0.106163
0.0950592
0.084274
0.0739036
0.0640263
0.0547072
0.0460017
0.0379593
0.0306256
0.0240424
0.0182635
0.0133317
0.00927855
0.00611217
0.00379301
0.00221683
0.00122568
0.000645827
0.000326792
0.000159881
7.64622e-05
3.58484e-05
1.65108e-05
7.48262e-06
3.34138e-06
1.47209e-06
6.40634e-07
2.7571e-07
1.17471e-07
4.95959e-08
2.07595e-08
8.61091e-09
3.52928e-09
1.4163e-09
5.41792e-10
1.8091e-10
3.1693e-11
4.56874e-07
1.99671e-06
4.58681e-06
8.92868e-06
1.61711e-05
2.81732e-05
4.79025e-05
8.00205e-05
0.000131715
0.000213834
0.000342336
0.000540004
0.000838206
0.00127826
0.00191171
0.00279861
0.00400329
0.00558758
0.00760278
0.0100827
0.0130397
0.0164644
0.0203284
0.0245892
0.0291947
0.0340871
0.0392066
0.0444933
0.0498895
0.0553406
0.0607967
0.0662126
0.0715485
0.0767703
0.0818493
0.0867621
0.0914896
0.096017
0.100334
0.104433
0.10831
0.111965
0.115398
0.118612
0.12161
0.124397
0.126977
0.129356
0.131535
0.133519
0.135309
0.136902
0.138294
0.139476
0.140435
0.141149
0.141583
0.141705
0.141462
0.140772
0.139552
0.128922
0.11759
0.106293
0.0951872
0.0843964
0.0740185
0.064133
0.0548051
0.0460908
0.0380395
0.0306968
0.0241046
0.0183164
0.0133754
0.00931296
0.00613775
0.00381071
0.00222818
0.00123247
0.000649653
0.000328841
0.000160898
7.69554e-05
3.60831e-05
1.66211e-05
7.53407e-06
3.36465e-06
1.48233e-06
6.45051e-07
2.77592e-07
1.18265e-07
4.99279e-08
2.08974e-08
8.6677e-09
3.55245e-09
1.42557e-09
5.45337e-10
1.82095e-10
3.19008e-11
4.57035e-07
1.99742e-06
4.58843e-06
8.93184e-06
1.61768e-05
2.81831e-05
4.79192e-05
8.00482e-05
0.00013176
0.000213905
0.000342445
0.000540168
0.000838446
0.0012786
0.00191216
0.0027992
0.00400401
0.0055884
0.00760366
0.0100836
0.0130404
0.0164648
0.0203283
0.0245885
0.0291933
0.0340848
0.0392033
0.0444889
0.0498839
0.0553339
0.0607889
0.0662037
0.0715386
0.0767596
0.081838
0.0867504
0.0914777
0.0960049
0.100322
0.104421
0.108299
0.111955
0.115389
0.118604
0.121604
0.124393
0.126976
0.129358
0.131541
0.133529
0.135323
0.136922
0.13832
0.139508
0.140473
0.141194
0.141633
0.141757
0.141514
0.140819
0.139583
0.129145
0.117831
0.106538
0.095429
0.0846294
0.0742396
0.0643402
0.0549975
0.0462675
0.0382
0.0308405
0.0242312
0.0184252
0.0134658
0.00938484
0.00619161
0.0038483
0.0022525
0.00124712
0.000657939
0.000333279
0.000163118
7.80389e-05
3.66007e-05
1.68656e-05
7.64405e-06
3.413e-06
1.5034e-06
6.54138e-07
2.81468e-07
1.19903e-07
5.06138e-08
2.11824e-08
8.78527e-09
3.60043e-09
1.44477e-09
5.52674e-10
1.84544e-10
3.23301e-11
4.57284e-07
1.9985e-06
4.59092e-06
8.93669e-06
1.61856e-05
2.81984e-05
4.79451e-05
8.00909e-05
0.000131829
0.000214015
0.000342615
0.000540424
0.00083882
0.00127913
0.00191288
0.00280013
0.00400516
0.00558973
0.00760509
0.010085
0.0130416
0.0164656
0.0203285
0.0245878
0.0291914
0.0340817
0.0391986
0.0444825
0.0498758
0.055324
0.0607771
0.0661901
0.0715234
0.0767429
0.08182
0.0867314
0.0914577
0.0959844
0.100301
0.1044
0.108278
0.111935
0.11537
0.118587
0.121589
0.12438
0.126966
0.129351
0.131539
0.133532
0.135332
0.136936
0.138341
0.139537
0.140509
0.141237
0.141682
0.141811
0.14157
0.140872
0.139624
0.129483
0.118186
0.106897
0.0957817
0.08497
0.0745641
0.064646
0.0552827
0.0465308
0.0384402
0.0310567
0.0244222
0.01859
0.0136033
0.00949455
0.00627423
0.00390629
0.0022902
0.00126988
0.000670804
0.000340169
0.000166656
7.9819e-05
3.74486e-05
1.72438e-05
7.81193e-06
3.48733e-06
1.53595e-06
6.68233e-07
2.87504e-07
1.2246e-07
5.16868e-08
2.1629e-08
8.96946e-09
3.67556e-09
1.47482e-09
5.64144e-10
1.88372e-10
3.30008e-11
4.5763e-07
2.00002e-06
4.5944e-06
8.94347e-06
1.61979e-05
2.82198e-05
4.79813e-05
8.01509e-05
0.000131927
0.000214169
0.000342855
0.000540787
0.000839354
0.00127989
0.00191392
0.00280149
0.00400686
0.00559173
0.0076073
0.0100872
0.0130437
0.0164672
0.0203293
0.0245876
0.0291897
0.0340782
0.0391932
0.0444749
0.0498657
0.0553113
0.0607619
0.0661723
0.0715031
0.0767202
0.0817953
0.0867048
0.0914295
0.0959549
0.10027
0.104369
0.108247
0.111904
0.11534
0.118558
0.121562
0.124356
0.126945
0.129334
0.131526
0.133525
0.13533
0.136941
0.138352
0.139555
0.140536
0.141271
0.141723
0.141858
0.14162
0.140923
0.13967
0.129942
0.118663
0.107374
0.09625
0.0854225
0.0749962
0.0650543
0.0556647
0.0468843
0.0387636
0.0313484
0.0246807
0.0188134
0.0137902
0.00964413
0.00638726
0.00398595
0.00234218
0.00130134
0.000688642
0.000349748
0.000171617
8.21302e-05
3.85117e-05
1.77394e-05
8.03973e-06
3.5899e-06
1.58127e-06
6.87932e-07
2.95952e-07
1.26041e-07
5.31897e-08
2.22536e-08
9.22673e-09
3.78034e-09
1.51668e-09
5.80113e-10
1.93699e-10
3.3934e-11
4.5809e-07
2.00202e-06
4.59902e-06
8.95247e-06
1.62142e-05
2.82482e-05
4.80296e-05
8.02312e-05
0.000132057
0.000214378
0.00034318
0.000541282
0.000840085
0.00128093
0.00191536
0.00280341
0.00400928
0.00559464
0.0076106
0.0100907
0.0130471
0.0164702
0.0203315
0.0245885
0.029189
0.0340754
0.0391879
0.0444668
0.0498545
0.0552969
0.0607441
0.0661511
0.0714785
0.0766924
0.0817644
0.0866711
0.0913934
0.0959166
0.10023
0.104328
0.108205
0.111862
0.115298
0.118517
0.121523
0.124319
0.126912
0.129304
0.131501
0.133504
0.135316
0.136933
0.138352
0.139562
0.14055
0.141292
0.141751
0.141888
0.141647
0.140937
0.139648
0.130531
0.119264
0.107979
0.0968419
0.0859948
0.0755434
0.0655723
0.0561502
0.0473346
0.0391762
0.0317211
0.0250115
0.0190997
0.0140302
0.00983678
0.00653338
0.0040894
0.00241018
0.00134311
0.000713158
0.000362755
0.000177727
8.50638e-05
3.9912e-05
1.83925e-05
8.33738e-06
3.72303e-06
1.6399e-06
7.13401e-07
3.06879e-07
1.30678e-07
5.5138e-08
2.30652e-08
9.56174e-09
3.91704e-09
1.57131e-09
6.00961e-10
2.00653e-10
3.51528e-11
4.58679e-07
2.0046e-06
4.60494e-06
8.96403e-06
1.62352e-05
2.82849e-05
4.80921e-05
8.03354e-05
0.000132228
0.000214651
0.000343608
0.000541936
0.00084106
0.00128234
0.00191733
0.00280604
0.00401266
0.00559877
0.00761539
0.010096
0.0130525
0.0164753
0.0203358
0.0245916
0.0291904
0.0340745
0.039184
0.0444596
0.0498437
0.0552822
0.0607252
0.0661279
0.071451
0.0766607
0.0817286
0.0866315
0.0913504
0.0958706
0.100182
0.104277
0.108153
0.111809
0.115245
0.118464
0.121471
0.12427
0.126865
0.129261
0.131462
0.133471
0.135288
0.136912
0.138338
0.139557
0.140554
0.141305
0.141772
0.141918
0.141685
0.140981
0.139694
0.131262
0.120005
0.108715
0.0975688
0.0866974
0.0762162
0.06621
0.0567487
0.0478905
0.0396861
0.0321822
0.0254212
0.0194549
0.0143284
0.0100767
0.00671596
0.00421925
0.00249603
0.00139619
0.000740945
0.000376767
0.000185027
8.86962e-05
4.16511e-05
1.92029e-05
8.70732e-06
3.8889e-06
1.71308e-06
7.4523e-07
3.20547e-07
1.36482e-07
5.75784e-08
2.40822e-08
9.98185e-09
4.08862e-09
1.63999e-09
6.27181e-10
2.09405e-10
3.66863e-11
4.59415e-07
2.00782e-06
4.61235e-06
8.97852e-06
1.62616e-05
2.83311e-05
4.8171e-05
8.04673e-05
0.000132444
0.000214999
0.000344158
0.000542783
0.00084233
0.00128419
0.00191993
0.00280957
0.00401725
0.00560449
0.00762217
0.0101036
0.0130607
0.0164835
0.0203435
0.0245981
0.029195
0.0340768
0.0391834
0.0444553
0.0498351
0.0552689
0.060707
0.0661045
0.0714224
0.0766268
0.0816896
0.0865876
0.091302
0.095818
0.100126
0.104218
0.108092
0.111746
0.115181
0.1184
0.121408
0.124208
0.126805
0.129204
0.131409
0.133423
0.135246
0.136877
0.138312
0.139539
0.140545
0.141306
0.141784
0.14194
0.141717
0.141021
0.139733
0.132139
0.120888
0.109588
0.0984264
0.0875397
0.0770287
0.0669795
0.0574721
0.0485633
0.0403037
0.032741
0.0259181
0.0198862
0.0146914
0.0103698
0.00694024
0.00438009
0.00260376
0.00145641
0.000774461
0.000395023
0.000194386
9.32582e-05
4.3818e-05
2.02097e-05
9.16609e-06
4.0943e-06
1.8036e-06
7.84559e-07
3.3742e-07
1.43641e-07
6.05868e-08
2.53353e-08
1.04992e-08
4.29987e-09
1.72454e-09
6.59479e-10
2.20187e-10
3.85748e-11
4.60312e-07
2.01174e-06
4.62141e-06
8.99625e-06
1.62939e-05
2.8388e-05
4.82683e-05
8.06308e-05
0.000132714
0.000215436
0.000344849
0.000543855
0.00084395
0.00128657
0.00192331
0.00281421
0.00402337
0.00561222
0.00763152
0.0101144