/*--------------------------------*- C++ -*----------------------------------*\
  =========                 |
  \\      /  F ield         | OpenFOAM: The Open Source CFD Toolbox
   \\    /   O peration     | Website:  https://openfoam.org
    \\  /    A nd           | Version:  8
     \\/     M anipulation  |
\*---------------------------------------------------------------------------*/
FoamFile
{
    version     2.0;
    format      ascii;
    class       volScalarField;
    location    "520/fluid";
    object      H2O;
}
// * * * * * * * * * * * * * * * * * * * * * * * * * * * * * * * * * * * * * //

dimensions      [0 0 0 0 0 0 0];

internalField   nonuniform List<scalar> 
4000
(
3.76373e-07
1.64444e-06
3.77572e-06
7.34597e-06
1.33005e-05
2.31761e-05
3.94416e-05
6.60072e-05
0.000108962
0.000177594
0.000285727
0.00045332
0.000708125
0.00108697
0.00163589
0.00240849
0.00346109
0.00484628
0.00660515
0.00876111
0.0113171
0.0142567
0.0175478
0.0211472
0.0250057
0.0290712
0.033292
0.037618
0.0420027
0.0464033
0.0507818
0.0551047
0.0593436
0.0634749
0.0674794
0.0713422
0.0750514
0.0785987
0.0819786
0.0851885
0.0882276
0.0910971
0.0937994
0.0963378
0.0987168
0.100941
0.103014
0.104941
0.106727
0.108373
0.109882
0.111254
0.112488
0.113578
0.114516
0.115289
0.115879
0.116255
0.116385
0.116226
0.115711
0.114759
0.113286
0.104693
0.0959171
0.087119
0.0784217
0.0699207
0.0616914
0.053795
0.0462825
0.0391984
0.0325842
0.0265068
0.0209522
0.016002
0.0117095
0.00812696
0.00529504
0.00321325
0.00181212
0.000954175
0.000473509
0.000225098
0.00010391
4.68673e-05
2.07461e-05
9.0426e-06
3.89095e-06
1.65623e-06
6.98596e-07
2.92407e-07
1.21584e-07
5.02498e-08
2.06326e-08
8.39184e-09
3.35002e-09
1.27791e-09
4.26583e-10
7.47707e-11
3.78135e-07
1.65264e-06
3.79675e-06
7.39284e-06
1.33977e-05
2.33667e-05
3.97962e-05
6.66322e-05
0.00011
0.000179203
0.000288018
0.000456198
0.000711057
0.00108867
0.00163406
0.00239934
0.00343976
0.0048071
0.00654255
0.00867066
0.0111964
0.0141056
0.0173685
0.0209439
0.0247837
0.0288366
0.0330509
0.0373762
0.0417653
0.0461748
0.0505655
0.0549034
0.0591593
0.0633087
0.0673321
0.0712137
0.0749415
0.0785066
0.0819035
0.0851293
0.0881831
0.0910659
0.0937803
0.0963299
0.0987183
0.10095
0.103031
0.104964
0.106754
0.108404
0.109915
0.111289
0.112523
0.113612
0.114548
0.115316
0.115896
0.116255
0.116358
0.11615
0.115549
0.11444
0.112687
0.103975
0.0951154
0.0862568
0.0775149
0.0689809
0.0607281
0.0528168
0.0452982
0.0382178
0.0316191
0.0255768
0.0200714
0.0151948
0.0110019
0.0075444
0.00485439
0.00291385
0.00163211
0.000858589
0.000428262
0.000205246
9.56837e-05
4.36051e-05
1.94936e-05
8.57174e-06
3.71568e-06
1.59093e-06
6.74023e-07
2.82998e-07
1.17907e-07
4.8785e-08
2.00412e-08
8.15222e-09
3.25415e-09
1.24121e-09
4.14296e-10
7.26353e-11
3.81048e-07
1.6657e-06
3.82815e-06
7.45696e-06
1.35184e-05
2.35811e-05
4.01579e-05
6.72107e-05
0.000110873
0.000180434
0.000289618
0.000458116
0.000713062
0.00109011
0.00163351
0.0023943
0.0034266
0.00478136
0.00649932
0.00860529
0.0111051
0.0139863
0.0172207
0.0207691
0.024585
0.0286185
0.0328186
0.0371354
0.0415215
0.0459332
0.050331
0.0546802
0.0589506
0.0631172
0.0671596
0.0710615
0.0748102
0.0783963
0.0818139
0.0850595
0.0881323
0.0910334
0.0937646
0.0963286
0.0987302
0.100974
0.103064
0.105006
0.106803
0.108459
0.109975
0.111351
0.112586
0.113675
0.114609
0.115372
0.115946
0.116294
0.116382
0.116155
0.115529
0.114389
0.111526
0.102702
0.0937633
0.0848501
0.0760737
0.0675228
0.0592699
0.0513751
0.0438903
0.0368625
0.0303369
0.0243846
0.0189996
0.0142679
0.01024
0.00695896
0.0044415
0.0026504
0.00148066
0.000779496
0.000390152
0.000187798
8.79851e-05
4.03044e-05
1.81103e-05
8.00205e-06
3.48402e-06
1.49749e-06
6.36477e-07
2.67918e-07
1.11837e-07
4.63339e-08
1.90494e-08
7.75184e-09
3.09472e-09
1.18036e-09
3.93924e-10
6.90566e-11
3.82613e-07
1.6725e-06
3.8436e-06
7.48649e-06
1.357e-05
2.36653e-05
4.02857e-05
6.7389e-05
0.000111093
0.000180658
0.000289714
0.000457716
0.00071144
0.00108609
0.00162537
0.00237987
0.00340314
0.0047457
0.00644827
0.00853599
0.0110155
0.0138753
0.0170883
0.0206166
0.0244146
0.0284331
0.0326218
0.0369312
0.0413143
0.0457272
0.0501302
0.0544881
0.0587706
0.0629519
0.067011
0.0709312
0.0746991
0.078305
0.0817424
0.0850079
0.0881002
0.0910187
0.0937657
0.0963447
0.0987598
0.101015
0.103116
0.105067
0.106871
0.108533
0.110053
0.111432
0.112668
0.113756
0.114687
0.115447
0.116015
0.116356
0.116437
0.116201
0.115568
0.114428
0.109874
0.101034
0.0920764
0.0831504
0.0743728
0.0658357
0.0576134
0.0497673
0.0423504
0.0354109
0.0289947
0.0231483
0.0179129
0.0133452
0.00949149
0.00638743
0.00403732
0.00238903
0.00132669
0.000696328
0.000348438
0.000168016
7.89426e-05
3.6288e-05
1.63674e-05
7.26028e-06
3.17336e-06
1.36907e-06
5.83923e-07
2.46569e-07
1.03209e-07
4.28598e-08
1.76553e-08
7.19571e-09
2.87613e-09
1.09791e-09
3.66567e-10
6.42758e-11
3.8316e-07
1.67483e-06
3.84871e-06
7.49583e-06
1.35853e-05
2.36881e-05
4.0315e-05
6.74157e-05
0.000111086
0.000180529
0.000289288
0.000456683
0.000709274
0.00108194
0.00161796
0.00236745
0.00338349
0.00471629
0.00640654
0.00847967
0.0109429
0.0137856
0.0169817
0.0204941
0.0242779
0.0282848
0.0324649
0.036769
0.0411501
0.0455645
0.0499724
0.0543382
0.0586312
0.0628254
0.0668993
0.0708356
0.0746207
0.0782446
0.0817005
0.0849836
0.0880918
0.0910258
0.0937876
0.0963803
0.0988077
0.101074
0.103184
0.105143
0.106953
0.108619
0.110141
0.111521
0.112756
0.113842
0.114768
0.115521
0.11608
0.116407
0.116473
0.116219
0.115561
0.114389
0.108072
0.0992433
0.0902911
0.081374
0.0726151
0.0641104
0.0559366
0.0481562
0.0408229
0.0339845
0.0276947
0.0219781
0.0168937
0.0124895
0.00880661
0.00587263
0.00367943
0.00216136
0.00119433
0.00062538
0.000312896
0.000151087
7.11396e-05
3.27821e-05
1.48241e-05
6.59221e-06
2.88818e-06
1.24874e-06
5.3364e-07
2.25724e-07
9.46237e-08
3.93439e-08
1.62238e-08
6.61771e-09
2.64673e-09
1.01074e-09
3.37504e-10
5.91818e-11
3.82848e-07
1.67338e-06
3.84502e-06
7.48753e-06
1.35675e-05
2.36506e-05
4.02378e-05
6.72598e-05
0.00011078
0.000179947
0.000288215
0.000454772
0.000705981
0.00107646
0.0016092
0.00235398
0.00336362
0.00468822
0.00636852
0.00843028
0.0108812
0.0137113
0.0168951
0.020396
0.0241701
0.0281692
0.0323438
0.036645
0.0410261
0.0454431
0.0498561
0.0542296
0.0585323
0.0627381
0.0668251
0.070776
0.0745768
0.0782163
0.0816867
0.084984
0.0881065
0.0910543
0.0938289
0.0964332
0.0988709
0.101146
0.103264
0.105228
0.107042
0.10871
0.110233
0.111611
0.112842
0.11392
0.114837
0.115577
0.116119
0.116428
0.116473
0.116194
0.115508
0.114314
0.106338
0.0975427
0.0885955
0.0796834
0.0709415
0.0624706
0.0543484
0.0466374
0.0393901
0.0326534
0.0264927
0.020905
0.0159647
0.011715
0.00819166
0.0054138
0.00336219
0.00195987
0.00107672
0.000561725
0.000280542
0.000135459
6.38326e-05
2.94554e-05
1.33428e-05
5.94492e-06
2.60984e-06
1.13067e-06
4.84119e-07
2.05147e-07
8.61389e-08
3.58677e-08
1.48085e-08
6.04642e-09
2.42004e-09
9.24604e-10
3.08789e-10
5.41484e-11
3.82017e-07
1.66968e-06
3.83622e-06
7.46952e-06
1.35329e-05
2.3586e-05
4.01194e-05
6.70461e-05
0.000110399
0.00017928
0.000287068
0.000452836
0.000702792
0.00107135
0.00160126
0.00234206
0.00334639
0.0046643
0.00633664
0.00838946
0.0108309
0.0136514
0.0168263
0.0203192
0.0240867
0.0280809
0.0322526
0.0365532
0.0409357
0.0453563
0.049775
0.054156
0.058468
0.0626847
0.0667841
0.0707478
0.074561
0.0782127
0.081696
0.0850061
0.0881409
0.0911002
0.0938853
0.0964989
0.0989448
0.101227
0.10335
0.105317
0.107133
0.108801
0.110321
0.111694
0.112917
0.113984
0.114885
0.115604
0.11612
0.116394
0.116401
0.11608
0.11536
0.114171
0.10532
0.0962617
0.0871731
0.0781943
0.0694349
0.0609815
0.0529031
0.0452567
0.0380909
0.0314493
0.0253999
0.0199292
0.0151252
0.0110233
0.00764873
0.00501338
0.00308847
0.00178779
0.000977033
0.000507994
0.000253249
0.000122239
5.76222e-05
2.66092e-05
1.20654e-05
5.38195e-06
2.36558e-06
1.02613e-06
4.399e-07
1.8663e-07
7.84506e-08
3.26989e-08
1.35118e-08
5.52085e-09
2.2108e-09
8.44893e-10
2.82169e-10
4.94779e-11
3.80926e-07
1.66487e-06
3.82492e-06
7.44687e-06
1.34903e-05
2.35086e-05
3.99817e-05
6.68047e-05
0.000109982
0.000178571
0.000285883
0.000450895
0.000699685
0.00106651
0.00159394
0.00233136
0.00333131
0.00464384
0.00630994
0.00835593
0.0107904
0.013604
0.0167726
0.0202603
0.0240237
0.0280154
0.0321863
0.0364878
0.0408729
0.045298
0.0497227
0.0541113
0.0584325
0.0626592
0.0667686
0.0707425
0.0745665
0.0782296
0.081724
0.0850449
0.0881898
0.0911584
0.0939518
0.0965728
0.0990248
0.101312
0.103438
0.105407
0.107223
0.108889
0.110405
0.111771
0.112982
0.114034
0.114912
0.115601
0.116071
0.116283
0.1162
0.115742
0.114813
0.113309
0.10423
0.0950216
0.0858457
0.076827
0.0680642
0.0596357
0.051605
0.0440246
0.0369396
0.0303906
0.024439
0.0190884
0.0144027
0.0104237
0.00717923
0.00466996
0.00285525
0.00164178
0.000892553
0.000462365
0.000229961
0.0001109
5.22638e-05
2.41394e-05
1.09511e-05
4.88843e-06
2.15053e-06
9.33742e-07
4.00696e-07
1.70167e-07
7.15987e-08
2.98692e-08
1.2352e-08
5.05009e-09
2.02315e-09
7.73345e-10
2.58262e-10
4.52817e-11
3.79776e-07
1.65981e-06
3.81314e-06
7.4235e-06
1.34469e-05
2.34309e-05
3.98455e-05
6.65699e-05
0.000109584
0.000177905
0.00028479
0.000449137
0.000696919
0.00106227
0.00158763
0.00232228
0.0033187
0.00462698
0.00628825
0.0083291
0.0107584
0.0135672
0.0167316
0.0202161
0.0239775
0.0279684
0.0321399
0.0364434
0.0408321
0.045262
0.0496931
0.0540892
0.0584183
0.062653
0.0667713
0.0707548
0.0745886
0.0782613
0.0817651
0.0850948
0.0882479
0.0912239
0.0940239
0.0966504
0.0991067
0.101397
0.103525
0.105495
0.10731
0.108972
0.110483
0.111841
0.113043
0.11408
0.114939
0.115602
0.116035
0.116199
0.116043
0.115475
0.114372
0.112287
0.103086
0.0938025
0.0845879
0.0755609
0.0668143
0.0584223
0.0504454
0.0429343
0.0359337
0.0294867
0.023648
0.0184282
0.0138494
0.00994867
0.00679052
0.00438149
0.0026594
0.00151937
0.000821824
0.000424166
0.00021044
0.000101371
4.77464e-05
2.20497e-05
1.00046e-05
4.46755e-06
1.96641e-06
8.54341e-07
3.66881e-07
1.55921e-07
6.5652e-08
2.74071e-08
1.13407e-08
4.63883e-09
1.85899e-09
7.10682e-10
2.37313e-10
4.16009e-11
3.78671e-07
1.65496e-06
3.80191e-06
7.40132e-06
1.3406e-05
2.33581e-05
3.97189e-05
6.63538e-05
0.000109221
0.000177305
0.000283816
0.000447589
0.000694516
0.00105864
0.0015823
0.00231471
0.00330834
0.00461333
0.00627097
0.00830806
0.0107337
0.0135394
0.0167012
0.020184
0.0239447
0.0279361
0.0321092
0.0364156
0.0408083
0.0452435
0.0496806
0.0540828
0.0584188
0.0626613
0.0667879
0.0707797
0.0746219
0.0783027
0.0818142
0.0851511
0.0883107
0.0912925
0.0940974
0.0967279
0.0991872
0.101479
0.103608
0.105577
0.107391
0.10905
0.110556
0.111908
0.113102
0.114129
0.114977
0.115626
0.116045
0.116196
0.116034
0.115476
0.114423
0.111141
0.10192
0.0926263
0.0834149
0.0744044
0.0656879
0.0573391
0.0494179
0.0419739
0.0350513
0.0286946
0.0229329
0.0177772
0.0132982
0.00952989
0.00646959
0.00413781
0.00249374
0.00141601
0.000762204
0.000391992
0.000193993
9.33338e-05
4.39308e-05
2.02816e-05
9.20215e-06
4.11003e-06
1.80969e-06
7.8662e-07
3.37984e-07
1.43725e-07
6.05529e-08
2.52927e-08
1.0471e-08
4.2848e-09
1.71755e-09
6.5666e-10
2.1925e-10
3.84243e-11
3.77673e-07
1.65058e-06
3.79179e-06
7.38141e-06
1.33695e-05
2.32935e-05
3.96072e-05
6.61644e-05
0.000108905
0.000176788
0.000282984
0.000446278
0.000692502
0.00105562
0.00157793
0.00230858
0.00330005
0.00460256
0.00625752
0.00829194
0.0107151
0.0135188
0.0166793
0.0201615
0.0239225
0.0279152
0.0320907
0.0364004
0.0407973
0.0452371
0.0496793
0.0540877
0.0584304
0.0626799
0.0668136
0.0708126
0.0746618
0.0783493
0.0818671
0.0852097
0.0883744
0.0913605
0.094169
0.0968022
0.0992634
0.101556
0.103685
0.105653
0.107464
0.109121
0.110622
0.111969
0.113156
0.114175
0.115015
0.115655
0.116064
0.116208
0.11604
0.115482
0.114431
0.110028
0.100811
0.0915313
0.0823422
0.0733628
0.0646864
0.0563873
0.0485249
0.0411478
0.0342991
0.0279979
0.0222798
0.0172036
0.0128086
0.00912644
0.00617707
0.0039311
0.002351
0.00132779
0.00071169
0.000364871
0.000180171
8.65901e-05
4.07304e-05
1.87978e-05
8.5282e-06
3.80938e-06
1.67771e-06
7.29503e-07
3.13574e-07
1.33407e-07
5.62328e-08
2.34992e-08
9.73258e-09
3.98396e-09
1.59729e-09
6.1071e-10
2.03891e-10
3.5725e-11
3.76806e-07
1.64679e-06
3.78303e-06
7.36422e-06
1.3338e-05
2.32381e-05
3.95119e-05
6.60035e-05
0.000108638
0.000176353
0.000282291
0.000445196
0.000690853
0.00105318
0.00157442
0.00230372
0.00329356
0.00459423
0.00624729
0.00827989
0.0107016
0.0135041
0.0166641
0.0201465
0.0239085
0.027903
0.0320812
0.0363941
0.0407948
0.0452391
0.0496864
0.0541005
0.058449
0.0627047
0.0668445
0.0708495
0.0747045
0.0783975
0.0819202
0.0852673
0.0884358
0.0914251
0.094236
0.096871
0.099333
0.101626
0.103754
0.10572
0.107529
0.109181
0.110679
0.11202
0.1132
0.114213
0.115044
0.115676
0.116076
0.116212
0.116037
0.115474
0.114421
0.109035
0.0998244
0.0905607
0.0813969
0.0724549
0.0638248
0.055577
0.0477595
0.0404213
0.0336023
0.0273529
0.0217065
0.0167045
0.0123854
0.00878009
0.00590603
0.00374885
0.0022307
0.00125274
0.00066911
0.000342154
0.000168639
8.09724e-05
3.8066e-05
1.75626e-05
7.96685e-06
3.55876e-06
1.56758e-06
6.81789e-07
2.93159e-07
1.24767e-07
5.26109e-08
2.19939e-08
9.11221e-09
3.73105e-09
1.49618e-09
5.7211e-10
1.91012e-10
3.34653e-11
3.76077e-07
1.6436e-06
3.77567e-06
7.34982e-06
1.33117e-05
2.31919e-05
3.94328e-05
6.58706e-05
0.000108419
0.000175999
0.000281728
0.000444324
0.000689536
0.00105125
0.00157167
0.00229995
0.00328859
0.00458795
0.0062397
0.00827113
0.0106919
0.013494
0.0166541
0.0201372
0.0239006
0.0278971
0.0320778
0.0363938
0.0407982
0.0452468
0.0496989
0.0541178
0.0584715
0.0627324
0.0668773
0.0708873
0.0747469
0.0784442
0.0819708
0.0853213
0.0884927
0.0914841
0.0942966
0.0969324
0.0993945
0.101687
0.103813
0.105778
0.107583
0.109232
0.110724
0.11206
0.113234
0.114239
0.115063
0.115686
0.116077
0.116205
0.116022
0.115452
0.114398
0.108184
0.098973
0.0897212
0.0805833
0.0716702
0.0630648
0.0548374
0.0470536
0.0397599
0.0329977
0.026806
0.0212199
0.0162815
0.0120284
0.00849022
0.00568232
0.00358622
0.00213185
0.00119245
0.0006341
0.000323432
0.000159157
7.63567e-05
3.58767e-05
1.65471e-05
7.50493e-06
3.3523e-06
1.47674e-06
6.42381e-07
2.76274e-07
1.17611e-07
4.96077e-08
2.07443e-08
8.59669e-09
3.52071e-09
1.41204e-09
5.39978e-10
1.80289e-10
3.15848e-11
3.7548e-07
1.64099e-06
3.76966e-06
7.33806e-06
1.32903e-05
2.31544e-05
3.93688e-05
6.57635e-05
0.000108243
0.000175716
0.000281282
0.000443637
0.000688506
0.00104975
0.00156956
0.00229709
0.00328487
0.00458332
0.00623422
0.00826496
0.0106853
0.0134874
0.0166479
0.020132
0.0238969
0.0278954
0.0320785
0.0363976
0.0408055
0.0452578
0.049714
0.0541371
0.0584951
0.0627603
0.0669094
0.0709234
0.0747867
0.0784874
0.0820169
0.0853698
0.0885431
0.091536
0.0943492
0.0969851
0.0994468
0.101738
0.103862
0.105824
0.107626
0.109271
0.110759
0.112088
0.113256
0.114254
0.11507
0.115685
0.116068
0.116187
0.115996
0.11542
0.114366
0.107465
0.0982497
0.0890064
0.0798808
0.0709803
0.0623993
0.0542071
0.0464611
0.0392088
0.0324918
0.0263482
0.0208129
0.0159282
0.0117311
0.00825015
0.00549862
0.00345449
0.00204362
0.00114313
0.000606647
0.000308477
0.000151491
7.26201e-05
3.41019e-05
1.57224e-05
7.12916e-06
3.18407e-06
1.4026e-06
6.10167e-07
2.62453e-07
1.11747e-07
4.71435e-08
1.97179e-08
8.17289e-09
3.34767e-09
1.34278e-09
5.13522e-10
1.71457e-10
3.00378e-11
3.75003e-07
1.6389e-06
3.76486e-06
7.3287e-06
1.32733e-05
2.31247e-05
3.93182e-05
6.56792e-05
0.000108105
0.000175495
0.000280936
0.000443108
0.000687717
0.00104861
0.00156798
0.00229496
0.00328214
0.00458
0.00623036
0.00826074
0.010681
0.0134833
0.0166445
0.0201297
0.023896
0.0278964
0.0320818
0.0364036
0.0408145
0.0452701
0.0497297
0.0541563
0.0585179
0.0627865
0.0669389
0.070956
0.0748221
0.0785253
0.0820569
0.0854115
0.088586
0.0915795
0.0943929
0.0970284
0.0994891
0.101779
0.103901
0.10586
0.107658
0.109299
0.110781
0.112106
0.113267
0.114258
0.115067
0.115675
0.11605
0.116162
0.115966
0.115384
0.114329
0.106867
0.0976422
0.0884029
0.0792854
0.0704048
0.0618482
0.0536848
0.0459708
0.0387535
0.0320741
0.0259706
0.0204774
0.0156374
0.0114868
0.00805364
0.00534908
0.00334814
0.00197331
0.00109966
0.000583894
0.000297004
0.000145513
6.96457e-05
3.2678e-05
1.50589e-05
6.82625e-06
3.04824e-06
1.34267e-06
5.84101e-07
2.51259e-07
1.06993e-07
4.51448e-08
1.88848e-08
7.82878e-09
3.20712e-09
1.28653e-09
4.92044e-10
1.64288e-10
2.87819e-11
3.74632e-07
1.63728e-06
3.76114e-06
7.32144e-06
1.32602e-05
2.31017e-05
3.92792e-05
6.56144e-05
0.000108
0.000175327
0.000280674
0.000442709
0.000687128
0.00104777
0.00156681
0.00229342
0.0032802
0.00457766
0.00622773
0.00825796
0.0106783
0.013481
0.0166429
0.020129
0.0238967
0.0278988
0.0320863
0.0364104
0.0408238
0.0452821
0.0497444
0.0541739
0.0585382
0.0628094
0.0669643
0.0709837
0.0748519
0.0785567
0.0820898
0.0854453
0.0886204
0.0916141
0.0944272
0.0970618
0.0995211
0.101809
0.103929
0.105884
0.107679
0.109315
0.110793
0.112112
0.113268
0.114253
0.115055
0.115657
0.116027
0.116138
0.115943
0.115372
0.114347
0.106384
0.0971496
0.0879078
0.0788004
0.0699359
0.0613999
0.0532605
0.0455731
0.0383846
0.0317361
0.0256653
0.0202064
0.0154028
0.0112902
0.00789585
0.00522941
0.00326341
0.00191763
0.00106546
0.000563826
0.000286359
0.000140514
6.72454e-05
3.1532e-05
1.45245e-05
6.58272e-06
2.93932e-06
1.2947e-06
5.63258e-07
2.42316e-07
1.03198e-07
4.35496e-08
1.82203e-08
7.55443e-09
3.09516e-09
1.24178e-09
4.74967e-10
1.58591e-10
2.77835e-11
3.74354e-07
1.63607e-06
3.75834e-06
7.316e-06
1.32503e-05
2.30845e-05
3.92501e-05
6.55663e-05
0.000107922
0.000175203
0.000280481
0.000442418
0.0006867
0.00104716
0.00156598
0.00229234
0.00327885
0.00457608
0.00622599
0.0082562
0.0106767
0.0134798
0.0166423
0.0201293
0.0238982
0.0279018
0.032091
0.0364169
0.0408322
0.0452926
0.049757
0.0541886
0.0585549
0.0628281
0.0669847
0.0710056
0.0748751
0.078581
0.0821148
0.0854709
0.0886461
0.0916395
0.0944519
0.0970854
0.0995432
0.101829
0.103946
0.105899
0.10769
0.109321
0.110795
0.112108
0.113258
0.114237
0.115033
0.115629
0.115994
0.1161
0.115902
0.115331
0.114309
0.106008
0.0967592
0.0875168
0.0784167
0.0695652
0.0610459
0.0529259
0.0452602
0.038095
0.0314712
0.0254263
0.0199947
0.0152198
0.0111372
0.00777332
0.00513681
0.00319816
0.00187504
0.00103968
0.000549209
0.000278509
0.000136449
6.53518e-05
3.06611e-05
1.41184e-05
6.39607e-06
2.85528e-06
1.25757e-06
5.4712e-07
2.35395e-07
1.00264e-07
4.23185e-08
1.77086e-08
7.34367e-09
3.00933e-09
1.20749e-09
4.61886e-10
1.54227e-10
2.70189e-11
3.74156e-07
1.6352e-06
3.75636e-06
7.31213e-06
1.32433e-05
2.30724e-05
3.92295e-05
6.55323e-05
0.000107867
0.000175115
0.000280346
0.000442215
0.000686403
0.00104674
0.00156542
0.0022916
0.00327795
0.00457504
0.00622488
0.00825513
0.0106758
0.0134793
0.0166423
0.0201301
0.0238999
0.0279045
0.032095
0.0364222
0.0408391
0.0453009
0.0497669
0.0541999
0.0585676
0.062842
0.0669996
0.0710214
0.0748916
0.078598
0.0821321
0.0854882
0.0886632
0.091656
0.0944675
0.0970998
0.0995559
0.101839
0.103954
0.105904
0.107691
0.109319
0.110788
0.112096
0.113241
0.114214
0.115004
0.115594
0.115953
0.116056
0.115856
0.115287
0.114275
0.105731
0.0964678
0.0872228
0.0781277
0.069286
0.0607799
0.0526753
0.0450264
0.0378792
0.0312744
0.0252492
0.0198381
0.0150848
0.0110245
0.00768344
0.00506913
0.00315065
0.00184415
0.00102103
0.000538666
0.000272862
0.000133549
6.38924e-05
2.9966e-05
1.38083e-05
6.25839e-06
2.79431e-06
1.23087e-06
5.35561e-07
2.30446e-07
9.81677e-08
4.14389e-08
1.73426e-08
7.19272e-09
2.94776e-09
1.18287e-09
4.52487e-10
1.51091e-10
2.64694e-11
3.7403e-07
1.63465e-06
3.75509e-06
7.30967e-06
1.32388e-05
2.30646e-05
3.92164e-05
6.55106e-05
0.000107832
0.00017506
0.000280261
0.000442087
0.000686217
0.00104648
0.00156507
0.00229115
0.0032774
0.00457442
0.00622424
0.00825453
0.0106754
0.0134791
0.0166425
0.0201307
0.0239012
0.0279066
0.0320979
0.036426
0.0408438
0.0453066
0.0497735
0.0542074
0.0585759
0.0628509
0.0670091
0.0710311
0.0749015
0.078608
0.0821421
0.0854979
0.0886725
0.0916647
0.0944753
0.0971064
0.099561
0.101843
0.103955
0.105902
0.107687
0.109311
0.110776
0.11208
0.11322
0.114188
0.114973
0.115558
0.115913
0.116012
0.115813
0.115249
0.11425
0.105548
0.0962702
0.0870214
0.0779294
0.069095
0.0605987
0.0525054
0.0448688
0.0377344
0.0311428
0.0251314
0.0197344
0.0149956
0.0109504
0.00762452
0.00502498
0.00311983
0.00182422
0.00100903
0.000531874
0.000269224
0.000131728
6.3004e-05
2.95416e-05
1.36078e-05
6.16822e-06
2.75467e-06
1.21359e-06
5.28108e-07
2.27267e-07
9.68247e-08
4.08764e-08
1.71089e-08
7.09632e-09
2.90842e-09
1.16713e-09
4.46472e-10
1.49083e-10
2.61174e-11
3.7397e-07
1.63439e-06
3.75449e-06
7.3085e-06
1.32367e-05
2.3061e-05
3.92103e-05
6.55004e-05
0.000107815
0.000175034
0.000280221
0.000442027
0.000686131
0.00104636
0.0015649
0.00229095
0.00327715
0.00457414
0.00622395
0.00825427
0.0106752
0.013479
0.0166426
0.0201311
0.0239019
0.0279077
0.0320993
0.0364279
0.0408462
0.0453095
0.0497768
0.0542111
0.0585799
0.0628552
0.0670136
0.0710357
0.0749058
0.0786122
0.082146
0.0855016
0.0886758
0.0916675
0.0944775
0.0971078
0.0995614
0.101842
0.103953
0.105898
0.107681
0.109303
0.110765
0.112066
0.113202
0.114167
0.114948
0.11553
0.115882
0.115979
0.115781
0.115222
0.114237
0.105457
0.0961668
0.0869145
0.0778243
0.0689946
0.0605044
0.0524179
0.0447884
0.0376613
0.031077
0.0250729
0.0196834
0.0149522
0.0109146
0.0075963
0.005004
0.00310531
0.00181491
0.00100346
0.000528735
0.000267543
0.000130894
6.25993e-05
2.9349e-05
1.35174e-05
6.126e-06
2.73557e-06
1.2052e-06
5.24484e-07
2.25723e-07
9.61734e-08
4.0604e-08
1.69958e-08
7.04972e-09
2.88941e-09
1.15952e-09
4.43563e-10
1.4811e-10
2.59469e-11
3.73973e-07
1.6344e-06
3.75452e-06
7.30856e-06
1.32368e-05
2.30611e-05
3.92106e-05
6.5501e-05
0.000107816
0.000175036
0.000280223
0.00044203
0.000686136
0.00104637
0.00156491
0.00229096
0.00327717
0.00457417
0.00622398
0.00825431
0.0106752
0.0134791
0.0166427
0.0201312
0.023902
0.0279077
0.0320994
0.036428
0.0408463
0.0453096
0.0497768
0.0542112
0.05858
0.0628553
0.0670137
0.0710357
0.0749059
0.0786123
0.0821461
0.0855017
0.0886758
0.0916676
0.0944776
0.0971078
0.0995614
0.101842
0.103953
0.105898
0.107681
0.109303
0.110765
0.112066
0.113202
0.114167
0.114948
0.11553
0.115882
0.115979
0.115781
0.115222
0.114237
0.105457
0.0961666
0.0869143
0.0778241
0.0689944
0.0605042
0.0524178
0.0447883
0.0376612
0.0310769
0.0250729
0.0196833
0.0149522
0.0109146
0.00759627
0.00500398
0.0031053
0.0018149
0.00100346
0.000528733
0.000267542
0.000130893
6.2599e-05
2.93488e-05
1.35173e-05
6.12596e-06
2.73555e-06
1.20519e-06
5.24481e-07
2.25721e-07
9.61727e-08
4.06037e-08
1.69957e-08
7.04967e-09
2.88939e-09
1.15951e-09
4.4356e-10
1.48109e-10
2.59468e-11
3.74039e-07
1.63469e-06
3.75518e-06
7.30983e-06
1.32391e-05
2.30651e-05
3.92173e-05
6.55121e-05
0.000107834
0.000175064
0.000280267
0.000442096
0.000686232
0.0010465
0.0015651
0.0022912
0.00327746
0.0045745
0.00622433
0.00825465
0.0106755
0.0134792
0.0166427
0.020131
0.0239014
0.0279068
0.0320981
0.0364263
0.0408441
0.0453069
0.0497738
0.0542077
0.0585761
0.0628512
0.0670093
0.0710314
0.0749017
0.0786083
0.0821423
0.0854981
0.0886726
0.0916648
0.0944755
0.0971066
0.0995611
0.101843
0.103955
0.105902
0.107687
0.109311
0.110776
0.11208
0.11322
0.114188
0.114973
0.115558
0.115913
0.116012
0.115813
0.115249
0.11425
0.105547
0.0962697
0.0870209
0.0779289
0.0690946
0.0605983
0.0525051
0.0448685
0.0377341
0.0311426
0.0251312
0.0197342
0.0149955
0.0109503
0.00762444
0.00502492
0.00311979
0.00182419
0.00100901
0.000531865
0.000269219
0.000131726
6.30027e-05
2.9541e-05
1.36075e-05
6.16808e-06
2.75461e-06
1.21357e-06
5.28097e-07
2.27262e-07
9.68227e-08
4.08755e-08
1.71085e-08
7.09617e-09
2.90836e-09
1.1671e-09
4.46463e-10
1.49079e-10
2.61169e-11
3.74171e-07
1.63527e-06
3.75651e-06
7.31242e-06
1.32438e-05
2.30733e-05
3.92311e-05
6.55348e-05
0.000107871
0.000175122
0.000280357
0.000442231
0.000686428
0.00104678
0.00156547
0.00229168
0.00327805
0.00457518
0.00622505
0.00825533
0.0106761
0.0134795
0.0166426
0.0201304
0.0239003
0.0279049
0.0320954
0.0364227
0.0408395
0.0453014
0.0497673
0.0542003
0.058568
0.0628424
0.0670001
0.0710218
0.074892
0.0785984
0.0821325
0.0854885
0.0886635
0.0916563
0.0944678
0.0971001
0.0995561
0.10184
0.103954
0.105904
0.107692
0.109319
0.110788
0.112097
0.113241
0.114214
0.115004
0.115594
0.115954
0.116056
0.115856
0.115287
0.114275
0.10573
0.096467
0.0872219
0.0781269
0.0692853
0.0607793
0.0526747
0.0450259
0.0378788
0.031274
0.0252489
0.0198378
0.0150846
0.0110243
0.00768329
0.00506902
0.00315057
0.0018441
0.001021
0.000538649
0.000272852
0.000133544
6.38898e-05
2.99647e-05
1.38077e-05
6.25812e-06
2.79419e-06
1.23082e-06
5.35537e-07
2.30436e-07
9.81634e-08
4.14371e-08
1.73419e-08
7.19242e-09
2.94764e-09
1.18282e-09
4.52469e-10
1.51085e-10
2.64684e-11
3.74374e-07
1.63616e-06
3.75855e-06
7.31639e-06
1.3251e-05
2.30858e-05
3.92522e-05
6.55697e-05
0.000107928
0.000175212
0.000280496
0.00044244
0.000686734
0.00104721
0.00156606
0.00229244
0.00327899
0.00457626
0.00622622
0.00825648
0.0106771
0.0134802
0.0166427
0.0201298
0.0238988
0.0279024
0.0320915
0.0364175
0.0408329
0.0452932
0.0497577
0.0541892
0.0585556
0.0628287
0.0669853
0.0710062
0.0748756
0.0785816
0.0821153
0.0854713
0.0886465
0.0916399
0.0944523
0.0970858
0.0995435
0.101829
0.103946
0.105899
0.10769
0.109322
0.110795
0.112108
0.113258
0.114237
0.115033
0.115629
0.115994
0.1161
0.115902
0.115331
0.114309
0.106007
0.0967579
0.0875156
0.0784157
0.0695642
0.061045
0.0529251
0.0452595
0.0380943
0.0314706
0.0254258
0.0199943
0.0152195
0.0111369
0.00777311
0.00513665
0.00319805
0.00187497
0.00103964
0.000549182
0.000278493
0.00013644
6.53471e-05
3.06588e-05
1.41173e-05
6.39556e-06
2.85505e-06
1.25747e-06
5.47077e-07
2.35377e-07
1.00257e-07
4.23156e-08
1.77075e-08
7.34322e-09
3.00915e-09
1.20742e-09
4.6186e-10
1.54218e-10
2.70175e-11
3.74658e-07
1.6374e-06
3.7614e-06
7.32194e-06
1.32611e-05
2.31033e-05
3.92818e-05
6.56188e-05
0.000108007
0.000175338
0.000280692
0.000442738
0.000687171
0.00104783
0.00156691
0.00229355
0.00328038
0.0045779
0.00622803
0.00825833
0.0106788
0.0134815
0.0166434
0.0201296
0.0238974
0.0278995
0.0320871
0.0364112
0.0408246
0.0452829
0.0497452
0.0541747
0.058539
0.0628102
0.0669651
0.0709844
0.0748526
0.0785574
0.0820904
0.0854459
0.088621
0.0916146
0.0944277
0.0970623
0.0995216
0.101809
0.103929
0.105885
0.107679
0.109315
0.110793
0.112112
0.113268
0.114253
0.115055
0.115657
0.116027
0.116138
0.115943
0.115372
0.114347
0.106382
0.097148
0.0879063
0.078799
0.0699347
0.0613987
0.0532594
0.0455722
0.0383838
0.0317354
0.0256646
0.0202059
0.0154023
0.0112899
0.00789556
0.0052292
0.00326326
0.00191752
0.0010654
0.000563785
0.000286335
0.000140502
6.72393e-05
3.15292e-05
1.45231e-05
6.58206e-06
2.93902e-06
1.29457e-06
5.63204e-07
2.42293e-07
1.03189e-07
4.35459e-08
1.82189e-08
7.55384e-09
3.09493e-09
1.24169e-09
4.74933e-10
1.58579e-10
2.77815e-11
3.75034e-07
1.63904e-06
3.76517e-06
7.32931e-06
1.32744e-05
2.31266e-05
3.93214e-05
6.56846e-05
0.000108114
0.000175509
0.000280958
0.000443143
0.00068777
0.00104869
0.00156809
0.00229512
0.00328236
0.00458028
0.00623073
0.00826119
0.0106816
0.013484
0.0166452
0.0201304
0.0238968
0.0278972
0.0320828
0.0364046
0.0408155
0.0452711
0.0497307
0.0541573
0.0585189
0.0627874
0.0669398
0.0709569
0.074823
0.0785261
0.0820577
0.0854123
0.0885867
0.0915802
0.0943935
0.097029
0.0994896
0.101779
0.103901
0.10586
0.107659
0.109299
0.110782
0.112106
0.113267
0.114258
0.115067
0.115675
0.11605
0.116162
0.115966
0.115384
0.114329
0.106864
0.0976401
0.0884011
0.0792836
0.0704032
0.0618467
0.0536835
0.0459697
0.0387525
0.0320732
0.0259698
0.0204767
0.0156368
0.0114864
0.00805329
0.00534882
0.00334795
0.0019732
0.00109959
0.000583856
0.000296985
0.000145504
6.9641e-05
3.26756e-05
1.50578e-05
6.82574e-06
3.04801e-06
1.34257e-06
5.84055e-07
2.51239e-07
1.06985e-07
4.5141e-08
1.88832e-08
7.82811e-09
3.20684e-09
1.28642e-09
4.92001e-10
1.64273e-10
2.87793e-11
3.75516e-07
1.64115e-06
3.77002e-06
7.33878e-06
1.32916e-05
2.31566e-05
3.93726e-05
6.57699e-05
0.000108254
0.000175733
0.000281309
0.000443678
0.000688568
0.00104984
0.0015697
0.00229728
0.00328513
0.00458366
0.00623465
0.00826549
0.010686
0.0134882
0.0166488
0.0201329
0.0238979
0.0278965
0.0320796
0.0363987
0.0408066
0.045259
0.0497151
0.0541383
0.0584963
0.0627614
0.0669105
0.0709245
0.0747878
0.0784884
0.0820179
0.0853707
0.088544
0.0915368
0.09435
0.0969858
0.0994474
0.101739
0.103863
0.105825
0.107627
0.109271
0.110759
0.112089
0.113256
0.114254
0.11507
0.115685
0.116068
0.116187
0.115996
0.11542
0.114366
0.107463
0.0982473
0.0890041
0.0798787
0.0709784
0.0623975
0.0542056
0.0464597
0.0392075
0.0324907
0.0263473
0.0208121
0.0159275
0.0117305
0.00824972
0.0054983
0.00345427
0.00204348
0.00114305
0.000606605
0.000308455
0.00015148
7.26148e-05
3.40994e-05
1.57212e-05
7.12861e-06
3.18381e-06
1.40248e-06
6.10113e-07
2.62429e-07
1.11736e-07
4.71389e-08
1.97159e-08
8.17206e-09
3.34732e-09
1.34264e-09
5.13468e-10
1.71438e-10
3.00348e-11
3.76119e-07
1.64378e-06
3.77609e-06
7.35064e-06
1.33132e-05
2.31945e-05
3.94372e-05
6.58779e-05
0.000108431
0.000176018
0.000281759
0.000444372
0.000689608
0.00105135
0.00157183
0.00230017
0.00328889
0.00458834
0.0062402
0.00827175
0.0106927
0.0134949
0.0166551
0.0201382
0.0239017
0.0278984
0.0320791
0.0363951
0.0407996
0.0452482
0.0497002
0.0541192
0.0584729
0.0627337
0.0668786
0.0708885
0.0747481
0.0784454
0.081972
0.0853224
0.0884937
0.0914851
0.0942975
0.0969332
0.0993953
0.101688
0.103814
0.105778
0.107584
0.109232
0.110725
0.11206
0.113234
0.114239
0.115063
0.115686
0.116078
0.116205
0.116022
0.115452
0.114398
0.108181
0.0989701
0.0897186
0.0805808
0.071668
0.0630628
0.0548356
0.0470519
0.0397584
0.0329963
0.0268048
0.0212189
0.0162806
0.0120277
0.00848968
0.00568192
0.00358594
0.00213168
0.00119235
0.000634045
0.000323402
0.000159142
7.63496e-05
3.58734e-05
1.65455e-05
7.5042e-06
3.35197e-06
1.47659e-06
6.42311e-07
2.76243e-07
1.17598e-07
4.96019e-08