/*--------------------------------*- C++ -*----------------------------------*\
  =========                 |
  \\      /  F ield         | OpenFOAM: The Open Source CFD Toolbox
   \\    /   O peration     | Website:  https://openfoam.org
    \\  /    A nd           | Version:  8
     \\/     M anipulation  |
\*---------------------------------------------------------------------------*/
FoamFile
{
    version     2.0;
    format      ascii;
    class       volScalarField;
    location    "520/fluid";
    object      N2;
}
// * * * * * * * * * * * * * * * * * * * * * * * * * * * * * * * * * * * * * //

dimensions      [0 0 0 0 0 0 0];

internalField   nonuniform List<scalar> 
4000
(
2.23959e-06
9.78512e-06
2.24672e-05
4.37117e-05
7.91437e-05
0.000137908
0.000234694
0.000392769
0.000648363
0.00105675
0.00170017
0.00269739
0.00421354
0.00646771
0.00973389
0.014331
0.020594
0.028836
0.0393012
0.0521289
0.0673368
0.0848266
0.104407
0.125822
0.148777
0.172964
0.198073
0.223808
0.24989
0.276067
0.302111
0.327824
0.353036
0.377607
0.401425
0.424399
0.44646
0.46756
0.487668
0.50677
0.524862
0.541956
0.558067
0.573222
0.587452
0.60079
0.613274
0.624943
0.63584
0.646003
0.655476
0.664297
0.672507
0.680144
0.687245
0.693845
0.699979
0.705635
0.710798
0.715729
0.720312
0.724573
0.728482
0.732233
0.735821
0.739251
0.742523
0.74564
0.7486
0.7514
0.754037
0.756504
0.758795
0.760892
0.762802
0.764503
0.765977
0.767208
0.768181
0.768896
0.769377
0.769672
0.769837
0.769923
0.769964
0.769984
0.769993
0.769997
0.769999
0.769999
0.77
0.77
0.77
0.77
0.77
0.77
0.77
0.77
0.77
0.77
2.25015e-06
9.83427e-06
2.25931e-05
4.39921e-05
7.97247e-05
0.000139046
0.000236811
0.0003965
0.000654558
0.00106635
0.00171385
0.00271459
0.00423109
0.00647802
0.00972319
0.0142768
0.0204674
0.0286033
0.0389292
0.0515914
0.0666191
0.0839284
0.103341
0.124613
0.147458
0.17157
0.19664
0.222371
0.248481
0.27471
0.300827
0.32663
0.351943
0.376622
0.400551
0.423638
0.44581
0.467017
0.487226
0.506423
0.524603
0.541777
0.557962
0.573186
0.587473
0.600863
0.613392
0.6251
0.63603
0.646222
0.655718
0.664559
0.672785
0.680434
0.687543
0.694149
0.700286
0.705922
0.711084
0.716021
0.720613
0.724881
0.728792
0.732549
0.736143
0.739578
0.742856
0.745978
0.748941
0.751743
0.754379
0.756843
0.759128
0.761211
0.763104
0.76478
0.76622
0.767408
0.768332
0.768999
0.769439
0.769705
0.769853
0.769929
0.769967
0.769985
0.769993
0.769997
0.769999
0.769999
0.77
0.77
0.77
0.77
0.77
0.77
0.77
0.77
0.77
0.77
2.26753e-06
9.91225e-06
2.27805e-05
4.43747e-05
8.04448e-05
0.000140325
0.000238968
0.000399951
0.00065977
0.0010737
0.0017234
0.00272605
0.00424308
0.00648669
0.00972009
0.014247
0.0203894
0.0284505
0.0386726
0.0512032
0.0660771
0.0832194
0.102463
0.123575
0.146277
0.170274
0.19526
0.22094
0.247032
0.273276
0.299435
0.325304
0.350704
0.375486
0.399529
0.422737
0.445033
0.466366
0.486699
0.506014
0.52431
0.541594
0.557881
0.573193
0.587563
0.601027
0.613621
0.625388
0.636368
0.646603
0.656136
0.665007
0.673258
0.680927
0.688052
0.69467
0.700815
0.706444
0.711603
0.716536
0.721117
0.725376
0.729292
0.73306
0.736661
0.7401
0.743379
0.746497
0.749454
0.752246
0.754867
0.757312
0.759569
0.761621
0.763472
0.765098
0.766482
0.767609
0.768474
0.769089
0.769491
0.769732
0.769866
0.769935
0.76997
0.769986
0.769994
0.769997
0.769999
0.769999
0.77
0.77
0.77
0.77
0.77
0.77
0.77
0.77
0.77
0.77
2.27689e-06
9.95288e-06
2.28728e-05
4.45512e-05
8.07532e-05
0.000140828
0.000239733
0.000401018
0.000661089
0.00107504
0.00172399
0.0027237
0.00423349
0.00646282
0.00967179
0.0141614
0.0202502
0.0282388
0.0383694
0.0507916
0.0655448
0.08256
0.101677
0.122669
0.145265
0.169173
0.194092
0.219729
0.245803
0.272053
0.298244
0.324166
0.349638
0.374507
0.39865
0.421967
0.444379
0.465829
0.486281
0.505716
0.524129
0.541519
0.557904
0.573309
0.587765
0.601306
0.61397
0.625798
0.636832
0.647114
0.656686
0.66559
0.673867
0.681556
0.688697
0.695325
0.701475
0.707097
0.712247
0.717165
0.721725
0.725969
0.729901
0.733675
0.737278
0.740714
0.743987
0.747095
0.750036
0.752807
0.755401
0.757813
0.760031
0.762045
0.763845
0.765414
0.766738
0.767805
0.768613
0.769179
0.769544
0.769761
0.76988
0.769942
0.769973
0.769988
0.769994
0.769998
0.769999
0.77
0.77
0.77
0.77
0.77
0.77
0.77
0.77
0.77
0.77
0.77
2.28018e-06
9.96685e-06
2.29036e-05
4.46074e-05
8.08456e-05
0.000140966
0.00023991
0.000401182
0.000661057
0.00107429
0.00172149
0.00271761
0.00422068
0.00643825
0.0096279
0.0140877
0.0201336
0.0280643
0.0381217
0.0504573
0.065114
0.0820279
0.101044
0.121942
0.144454
0.168293
0.193161
0.218766
0.244829
0.271089
0.297309
0.323279
0.348814
0.37376
0.397991
0.421404
0.443918
0.465477
0.48604
0.505581
0.524091
0.541576
0.558053
0.573545
0.58808
0.601693
0.614422
0.626307
0.63739
0.647714
0.657321
0.666253
0.674552
0.682259
0.689411
0.696045
0.702198
0.707795
0.712923
0.717832
0.722392
0.726611
0.730557
0.734329
0.737927
0.741355
0.744614
0.747704
0.750624
0.753368
0.755931
0.758305
0.760479
0.762447
0.764194
0.765708
0.766974
0.767982
0.768735
0.769257
0.76959
0.769785
0.769892
0.769948
0.769976
0.769989
0.769995
0.769998
0.769999
0.77
0.77
0.77
0.77
0.77
0.77
0.77
0.77
0.77
0.77
0.77
2.27836e-06
9.95842e-06
2.2882e-05
4.45587e-05
8.07409e-05
0.000140746
0.000239455
0.000400262
0.000659245
0.00107085
0.00171514
0.00270628
0.00420117
0.00640579
0.00957594
0.0140078
0.0200157
0.0278977
0.0378961
0.0501642
0.0647478
0.0815868
0.10053
0.12136
0.143815
0.167607
0.192444
0.218033
0.244095
0.270371
0.296623
0.322637
0.348231
0.373247
0.397556
0.421057
0.443665
0.465317
0.485968
0.505596
0.524194
0.541765
0.558322
0.573888
0.588492
0.602167
0.614951
0.626884
0.638008
0.648366
0.658001
0.666955
0.675269
0.682985
0.690142
0.696777
0.702915
0.708482
0.713608
0.718521
0.723071
0.727238
0.731198
0.734968
0.738558
0.741974
0.745217
0.748288
0.751183
0.753898
0.756428
0.758765
0.760893
0.762815
0.764513
0.765974
0.767185
0.768139
0.768844
0.769326
0.76963
0.769807
0.769904
0.769953
0.769978
0.76999
0.769995
0.769998
0.769999
0.77
0.77
0.77
0.77
0.77
0.77
0.77
0.77
0.77
0.77
0.77
2.27345e-06
9.93656e-06
2.283e-05
4.44523e-05
8.05361e-05
0.000140363
0.000238755
0.000398997
0.000656993
0.0010669
0.00170834
0.00269481
0.00418226
0.00637549
0.00952884
0.0139371
0.0199136
0.0277559
0.0377071
0.0499222
0.0644496
0.0812322
0.100123
0.120905
0.143321
0.167085
0.191905
0.21749
0.243562
0.26986
0.296146
0.322206
0.347855
0.372937
0.39732
0.420897
0.44358
0.465306
0.486035
0.505742
0.524416
0.542059
0.558684
0.574313
0.588974
0.602699
0.615528
0.627499
0.638655
0.649038
0.658693
0.66766
0.675983
0.683702
0.690857
0.697485
0.703625
0.709163
0.714296
0.719199
0.723733
0.727858
0.731806
0.735567
0.739147
0.742549
0.745775
0.748824
0.751694
0.754381
0.756879
0.759181
0.761269
0.763151
0.764802
0.766211
0.767371
0.768277
0.768938
0.769385
0.769664
0.769825
0.769913
0.769958
0.76998
0.769991
0.769996
0.769998
0.769999
0.77
0.77
0.77
0.77
0.77
0.77
0.77
0.77
0.77
0.77
0.77
2.267e-06
9.90807e-06
2.27631e-05
4.43182e-05
8.02842e-05
0.000139905
0.000237939
0.000397567
0.000654523
0.0010627
0.00170132
0.00268331
0.00416385
0.00634679
0.00948546
0.0138737
0.0198242
0.0276346
0.0375489
0.0497235
0.0642094
0.0809516
0.0998051
0.120557
0.142949
0.166699
0.191514
0.217105
0.243194
0.269518
0.29584
0.321947
0.347651
0.372792
0.397236
0.420874
0.443623
0.465418
0.486216
0.505989
0.524727
0.54243
0.559111
0.57479
0.589496
0.603262
0.616125
0.628124
0.639303
0.649704
0.659371
0.668345
0.67667
0.684387
0.691535
0.698154
0.704264
0.709755
0.715001
0.719861
0.724362
0.728452
0.732381
0.736125
0.739688
0.743073
0.746281
0.749308
0.752153
0.754812
0.757279
0.759546
0.761599
0.763439
0.76505
0.766417
0.767532
0.768395
0.769018
0.769436
0.769693
0.769841
0.769921
0.769962
0.769982
0.769992
0.769996
0.769998
0.769999
0.77
0.77
0.77
0.77
0.77
0.77
0.77
0.77
0.77
0.77
0.77
2.26018e-06
9.87811e-06
2.26934e-05
4.41798e-05
8.00273e-05
0.000139445
0.000237132
0.000396176
0.000652163
0.00105876
0.00169484
0.00267289
0.00414746
0.00632168
0.0094481
0.0138199
0.0197495
0.0275347
0.0374205
0.0495648
0.0640203
0.0807343
0.0995635
0.120297
0.142677
0.166423
0.191242
0.216846
0.242956
0.269311
0.295671
0.321823
0.347574
0.372764
0.397262
0.420958
0.443767
0.465621
0.486476
0.506305
0.525095
0.542847
0.559573
0.575293
0.590034
0.60383
0.616719
0.628739
0.639934
0.650345
0.660018
0.668994
0.677317
0.685027
0.692164
0.698767
0.704833
0.710313
0.715556
0.720404
0.72489
0.72897
0.73289
0.736624
0.740174
0.743544
0.746733
0.749739
0.75256
0.755191
0.757627
0.759858
0.761871
0.763666
0.765239
0.76658
0.767666
0.768494
0.769086
0.769478
0.769717
0.769854
0.769928
0.769965
0.769984
0.769992
0.769997
0.769998
0.769999
0.77
0.77
0.77
0.77
0.77
0.77
0.77
0.77
0.77
0.77
0.77
2.25364e-06
9.8494e-06
2.26268e-05
4.40484e-05
7.97849e-05
0.000139014
0.000236383
0.000394896
0.000650011
0.0010552
0.00168907
0.00266372
0.00413322
0.00630016
0.00941653
0.0137751
0.0196882
0.027454
0.0373184
0.0494406
0.0638748
0.08057
0.0993845
0.120108
0.142485
0.166234
0.191064
0.216686
0.242821
0.269208
0.295604
0.321793
0.347587
0.372824
0.397372
0.42112
0.443979
0.465883
0.486787
0.506662
0.525495
0.543286
0.560047
0.575798
0.590567
0.604386
0.617292
0.629327
0.640531
0.650949
0.660624
0.669599
0.677917
0.68562
0.692748
0.699341
0.705382
0.710838
0.716062
0.720892
0.725358
0.72943
0.733342
0.737065
0.740604
0.74396
0.747132
0.750119
0.752918
0.755524
0.757931
0.76013
0.762116
0.763889
0.765428
0.766724
0.767776
0.768577
0.769143
0.769513
0.769738
0.769865
0.769933
0.769968
0.769985
0.769993
0.769997
0.769999
0.769999
0.77
0.77
0.77
0.77
0.77
0.77
0.77
0.77
0.77
0.77
0.77
2.24773e-06
9.82349e-06
2.25669e-05
4.39305e-05
7.95685e-05
0.000138631
0.000235721
0.000393774
0.00064814
0.00105214
0.00168414
0.00265596
0.0041213
0.00628233
0.00939068
0.0137389
0.0196392
0.0273904
0.0372391
0.0493456
0.0637657
0.0804495
0.0992564
0.119977
0.142357
0.166114
0.190959
0.216601
0.242762
0.269177
0.295605
0.321832
0.347667
0.372947
0.397539
0.42133
0.444233
0.466179
0.487123
0.507035
0.525903
0.543725
0.560514
0.576289
0.591078
0.604913
0.617832
0.629876
0.641086
0.651505
0.661179
0.67015
0.678462
0.686156
0.693273
0.699853
0.705874
0.711309
0.716511
0.721319
0.725765
0.729837
0.733743
0.737457
0.740984
0.744325
0.747481
0.750449
0.753226
0.755808
0.758189
0.760369
0.762339
0.764085
0.765596
0.766862
0.767876
0.768648
0.769191
0.769543
0.769755
0.769875
0.769938
0.76997
0.769986
0.769994
0.769997
0.769999
0.769999
0.77
0.77
0.77
0.77
0.77
0.77
0.77
0.77
0.77
0.77
0.77
2.2426e-06
9.80101e-06
2.2515e-05
4.38287e-05
7.93822e-05
0.000138303
0.000235157
0.000392822
0.000646561
0.00104957
0.00168004
0.00264956
0.00411156
0.0062679
0.00936996
0.0137102
0.0196009
0.0273414
0.0371789
0.049275
0.0636862
0.0803639
0.0991684
0.119891
0.142277
0.166046
0.190908
0.216571
0.242754
0.269197
0.295658
0.321919
0.34779
0.373109
0.397738
0.421567
0.444506
0.466487
0.487464
0.507406
0.526301
0.544149
0.560959
0.576752
0.591556
0.605402
0.618329
0.630378
0.64159
0.652009
0.661679
0.670644
0.678947
0.686632
0.693737
0.700302
0.706301
0.71172
0.71691
0.721702
0.726128
0.730197
0.734094
0.737798
0.741313
0.74464
0.747779
0.750728
0.753489
0.756058
0.758428
0.76059
0.762535
0.764255
0.765741
0.76698
0.767969
0.768711
0.769233
0.769569
0.76977
0.769882
0.769942
0.769972
0.769987
0.769994
0.769997
0.769999
0.769999
0.77
0.77
0.77
0.77
0.77
0.77
0.77
0.77
0.77
0.77
0.77
2.23828e-06
9.78213e-06
2.24715e-05
4.37435e-05
7.92266e-05
0.000138029
0.000234689
0.000392036
0.000645265
0.00104747
0.00167672
0.00264441
0.00410378
0.00625648
0.00935374
0.013688
0.0195717
0.0273046
0.0371345
0.0492239
0.0636303
0.0803058
0.0991114
0.119839
0.142234
0.166016
0.190893
0.216576
0.242783
0.269253
0.295743
0.322035
0.347938
0.373289
0.39795
0.421811
0.444781
0.466791
0.487794
0.507761
0.526678
0.544544
0.561371
0.577177
0.591991
0.605845
0.618777
0.630828
0.642039
0.652456
0.662121
0.67108
0.679375
0.687048
0.69414
0.700691
0.706672
0.71208
0.717256
0.722032
0.726434
0.730505
0.734395
0.738091
0.741595
0.74491
0.748039
0.750982
0.753731
0.756284
0.758635
0.760777
0.762701
0.7644
0.765863
0.76708
0.768045
0.768766
0.769267
0.76959
0.769782
0.769889
0.769945
0.769974
0.769988
0.769994
0.769997
0.769999
0.769999
0.77
0.77
0.77
0.77
0.77
0.77
0.77
0.77
0.77
0.77
0.77
2.23474e-06
9.76667e-06
2.24359e-05
4.36739e-05
7.91e-05
0.000137807
0.00023431
0.000391402
0.000644226
0.0010458
0.00167408
0.00264035
0.0040977
0.00624764
0.00934132
0.0136712
0.0195499
0.0272775
0.0371026
0.0491882
0.0635926
0.0802684
0.0990772
0.119811
0.142216
0.166011
0.190904
0.216606
0.242836
0.26933
0.295845
0.322164
0.348095
0.373473
0.398161
0.422048
0.445043
0.467077
0.488101
0.508088
0.527022
0.544903
0.561741
0.577558
0.592379
0.606238
0.619172
0.631223
0.642433
0.652846
0.662506
0.671458
0.679744
0.687407
0.694488
0.701031
0.706996
0.71239
0.717553
0.722316
0.726688
0.730765
0.73465
0.738338
0.741836
0.745146
0.748266
0.751196
0.753933
0.756472
0.758807
0.760933
0.76284
0.764521
0.765964
0.767162
0.768108
0.768811
0.769297
0.769607
0.769791
0.769894
0.769948
0.769975
0.769988
0.769995
0.769998
0.769999
0.77
0.77
0.77
0.77
0.77
0.77
0.77
0.77
0.77
0.77
0.77
0.77
2.23192e-06
9.75434e-06
2.24075e-05
4.36185e-05
7.89993e-05
0.000137632
0.000234011
0.000390904
0.000643411
0.00104449
0.00167204
0.00263723
0.00409306
0.00624095
0.00933201
0.0136587
0.019534
0.0272582
0.0370803
0.0491641
0.0635683
0.0802461
0.0990593
0.1198
0.142215
0.166022
0.190931
0.21665
0.242899
0.269414
0.295952
0.322293
0.348247
0.373648
0.398359
0.422268
0.445283
0.467335
0.488377
0.508379
0.527326
0.545218
0.562066
0.577889
0.592715
0.606576
0.619512
0.631562
0.642769
0.653178
0.662833
0.671777
0.680054
0.687709
0.694784
0.701318
0.707267
0.712649
0.7178
0.722551
0.726896
0.730982
0.734862
0.738545
0.742038
0.74534
0.748452
0.751373
0.754099
0.756626
0.758949
0.761061
0.762954
0.76462
0.766048
0.767229
0.768159
0.768848
0.769321
0.769622
0.769799
0.769898
0.76995
0.769976
0.769989
0.769995
0.769998
0.769999
0.77
0.77
0.77
0.77
0.77
0.77
0.77
0.77
0.77
0.77
0.77
0.77
2.22973e-06
9.74475e-06
2.23855e-05
4.35756e-05
7.89214e-05
0.000137496
0.00023378
0.000390521
0.000642789
0.0010435
0.0016705
0.00263488
0.00408959
0.006236
0.0093252
0.0136497
0.0195227
0.0272447
0.0370653
0.0491485
0.0635535
0.080234
0.099052
0.1198
0.142223
0.166042
0.190964
0.216698
0.242964
0.269497
0.296053
0.322413
0.348386
0.373806
0.398535
0.422461
0.445492
0.467559
0.488614
0.508628
0.527585
0.545485
0.56234
0.578167
0.592996
0.60686
0.619795
0.631844
0.643048
0.653452
0.663101
0.672038
0.680311
0.68796
0.695027
0.701552
0.707491
0.712863
0.718005
0.722746
0.727067
0.731156
0.735032
0.738713
0.742201
0.745497
0.748603
0.751515
0.754233
0.756751
0.759064
0.761165
0.763046
0.764699
0.766115
0.767283
0.7682
0.768877
0.76934
0.769633
0.769806
0.769901
0.769952
0.769977
0.769989
0.769995
0.769998
0.769999
0.77
0.77
0.77
0.77
0.77
0.77
0.77
0.77
0.77
0.77
0.77
0.77
2.22808e-06
9.73756e-06
2.23689e-05
4.35434e-05
7.88631e-05
0.000137394
0.000233609
0.000390237
0.000642328
0.00104277
0.00166936
0.00263317
0.00408708
0.00623244
0.00932036
0.0136434
0.0195149
0.0272357
0.0370555
0.0491388
0.0635452
0.0802284
0.0990508
0.119805
0.142236
0.166064
0.190997
0.216744
0.243023
0.26957
0.296141
0.322517
0.348505
0.373939
0.398682
0.422621
0.445665
0.467744
0.488809
0.508831
0.527796
0.545702
0.562561
0.578392
0.593223
0.607087
0.620021
0.632068
0.643269
0.653669
0.663315
0.67225
0.680517
0.688161
0.695221
0.701739
0.707668
0.713033
0.718167
0.722901
0.727206
0.731291
0.735166
0.738843
0.742327
0.745619
0.748719
0.751626
0.754337
0.756848
0.759153
0.761245
0.763118
0.764761
0.766166
0.767324
0.768232
0.768899
0.769355
0.769642
0.769811
0.769904
0.769953
0.769978
0.769989
0.769995
0.769998
0.769999
0.77
0.77
0.77
0.77
0.77
0.77
0.77
0.77
0.77
0.77
0.77
0.77
2.22691e-06
9.73245e-06
2.23572e-05
4.35205e-05
7.88217e-05
0.000137322
0.000233487
0.000390036
0.000642003
0.00104225
0.00166857
0.00263198
0.00408534
0.00623
0.00931706
0.0136392
0.0195097
0.0272298
0.0370494
0.0491331
0.0635408
0.0802265
0.0990525
0.119812
0.142249
0.166085
0.191026
0.216783
0.243072
0.26963
0.296212
0.322598
0.348597
0.374042
0.398796
0.422745
0.445798
0.467884
0.488957
0.508985
0.527955
0.545866
0.562727
0.57856
0.593392
0.607256
0.62019
0.632235
0.643435
0.653834
0.663477
0.672408
0.680671
0.68831
0.695366
0.701878
0.707799
0.713159
0.718288
0.723017
0.727309
0.731391
0.735264
0.738939
0.74242
0.745709
0.748805
0.751708
0.754414
0.756919
0.759218
0.761305
0.76317
0.764807
0.766205
0.767355
0.768255
0.768915
0.769365
0.769648
0.769815
0.769906
0.769954
0.769978
0.76999
0.769995
0.769998
0.769999
0.77
0.77
0.77
0.77
0.77
0.77
0.77
0.77
0.77
0.77
0.77
0.77
2.22616e-06
9.72918e-06
2.23497e-05
4.35059e-05
7.87953e-05
0.000137277
0.000233409
0.000389908
0.000641796
0.00104193
0.00166806
0.00263122
0.00408425
0.00622847
0.00931502
0.0136366
0.0195066
0.0272263
0.0370459
0.04913
0.0635388
0.0802263
0.0990549
0.119817
0.142259
0.1661
0.191047
0.21681
0.243106
0.269671
0.29626
0.322655
0.348661
0.374113
0.398873
0.422829
0.445887
0.467979
0.489056
0.509088
0.528061
0.545974
0.562838
0.578672
0.593505
0.607369
0.620303
0.632348
0.643547
0.653944
0.663585
0.672513
0.680774
0.688409
0.695462
0.701971
0.707887
0.713243
0.718368
0.723093
0.727377
0.731457
0.735328
0.739002
0.742481
0.745768
0.748862
0.751762
0.754465
0.756966
0.759262
0.761344
0.763205
0.764837
0.76623
0.767375
0.76827
0.768926
0.769372
0.769653
0.769817
0.769907
0.769955
0.769978
0.76999
0.769995
0.769998
0.769999
0.77
0.77
0.77
0.77
0.77
0.77
0.77
0.77
0.77
0.77
0.77
0.77
2.22581e-06
9.72762e-06
2.23461e-05
4.34989e-05
7.87827e-05
0.000137255
0.000233373
0.000389847
0.000641699
0.00104177
0.00166783
0.00263087
0.00408374
0.00622777
0.00931407
0.0136354
0.0195052
0.0272248
0.0370443
0.0491287
0.063538
0.0802265
0.0990564
0.119821
0.142265
0.166108
0.191058
0.216824
0.243123
0.269692
0.296285
0.322683
0.348692
0.374148
0.398912
0.42287
0.445932
0.468026
0.489106
0.50914
0.528115
0.546029
0.562894
0.578729
0.593562
0.607426
0.62036
0.632404
0.643602
0.653999
0.663638
0.672565
0.680824
0.688458
0.695509
0.702017
0.70793
0.713284
0.718408
0.723131
0.727411
0.731489
0.73536
0.739033
0.742512
0.745797
0.74889
0.751788
0.754489
0.756989
0.759283
0.761363
0.763222
0.764851
0.766242
0.767384
0.768277
0.768931
0.769375
0.769654
0.769818
0.769908
0.769955
0.769978
0.76999
0.769995
0.769998
0.769999
0.77
0.77
0.77
0.77
0.77
0.77
0.77
0.77
0.77
0.77
0.77
0.77
2.22582e-06
9.72769e-06
2.23463e-05
4.34992e-05
7.87833e-05
0.000137256
0.000233374
0.00038985
0.000641703
0.00104178
0.00166784
0.00263089
0.00408377
0.00622781
0.00931413
0.0136355
0.0195053
0.0272249
0.0370445
0.049129
0.0635383
0.0802268
0.0990568
0.119821
0.142265
0.166109
0.191059
0.216824
0.243124
0.269692
0.296285
0.322683
0.348693
0.374149
0.398912
0.422871
0.445932
0.468027
0.489106
0.50914
0.528115
0.546029
0.562894
0.578729
0.593562
0.607426
0.62036
0.632405
0.643603
0.653999
0.663638
0.672565
0.680825
0.688459
0.695509
0.702017
0.70793
0.713284
0.718408
0.723131
0.727411
0.731489
0.73536
0.739033
0.742512
0.745797
0.74889
0.751788
0.754489
0.756989
0.759283
0.761363
0.763222
0.764851
0.766242
0.767384
0.768277
0.768931
0.769375
0.769654
0.769818
0.769908
0.769955
0.769978
0.76999
0.769995
0.769998
0.769999
0.77
0.77
0.77
0.77
0.77
0.77
0.77
0.77
0.77
0.77
0.77
0.77
2.22621e-06
9.72938e-06
2.23501e-05
4.35068e-05
7.87969e-05
0.000137279
0.000233414
0.000389916
0.000641809
0.00104195
0.0016681
0.00263128
0.00408433
0.00622859
0.00931519
0.0136368
0.019507
0.0272268
0.0370464
0.0491307
0.0635396
0.0802273
0.099056
0.119819
0.142261
0.166102
0.191049
0.216811
0.243108
0.269673
0.296262
0.322656
0.348662
0.374114
0.398875
0.42283
0.445888
0.46798
0.489057
0.509089
0.528062
0.545975
0.562839
0.578673
0.593506
0.60737
0.620304
0.632349
0.643548
0.653945
0.663585
0.672514
0.680774
0.68841
0.695462
0.701971
0.707887
0.713243
0.718369
0.723093
0.727378
0.731457
0.735328
0.739002
0.742482
0.745768
0.748862
0.751762
0.754465
0.756966
0.759262
0.761344
0.763205
0.764837
0.76623
0.767375
0.76827
0.768926
0.769372
0.769653
0.769817
0.769907
0.769955
0.769978
0.76999
0.769995
0.769998
0.769999
0.77
0.77
0.77
0.77
0.77
0.77
0.77
0.77
0.77
0.77
0.77
0.77
2.22699e-06
9.73278e-06
2.2358e-05
4.3522e-05
7.88244e-05
0.000137327
0.000233495
0.000390049
0.000642025
0.00104229
0.00166862
0.00263207
0.00408548
0.00623021
0.00931736
0.0136396
0.0195103
0.0272306
0.0370504
0.0491343
0.0635423
0.0802282
0.0990544
0.119814
0.142252
0.166087
0.191029
0.216785
0.243075
0.269632
0.296214
0.322601
0.3486
0.374045
0.398799
0.422747
0.4458
0.467887
0.488959
0.508987
0.527957
0.545867
0.562729
0.578562
0.593394
0.607257
0.620191
0.632236
0.643436
0.653835
0.663478
0.672409
0.680672
0.688311
0.695366
0.701879
0.7078
0.713159
0.718289
0.723017
0.72731
0.731391
0.735264
0.738939
0.74242
0.745709
0.748806
0.751708
0.754414
0.756919
0.759219
0.761305
0.76317
0.764807
0.766205
0.767355
0.768255
0.768915
0.769365
0.769649
0.769815
0.769906
0.769954
0.769978
0.76999
0.769995
0.769998
0.769999
0.77
0.77
0.77
0.77
0.77
0.77
0.77
0.77
0.77
0.77
0.77
0.77
2.22819e-06
9.73803e-06
2.237e-05
4.35455e-05
7.88669e-05
0.000137401
0.00023362
0.000390255
0.000642359
0.00104282
0.00166944
0.00263329
0.00408727
0.00623273
0.00932078
0.013644
0.0195157
0.0272368
0.0370569
0.0491405
0.0635472
0.0802308
0.0990534
0.119808
0.142239
0.166068
0.191001
0.216748
0.243027
0.269574
0.296145
0.322521
0.348508
0.373943
0.398686
0.422625
0.445668
0.467747
0.488812
0.508834
0.527798
0.545704
0.562563
0.578394
0.593225
0.607089
0.620023
0.632069
0.64327
0.653671
0.663316
0.672251
0.680519
0.688162
0.695222
0.70174
0.707668
0.713033
0.718168
0.722902
0.727207
0.731292
0.735166
0.738844
0.742328
0.74562
0.74872
0.751627
0.754337
0.756848
0.759153
0.761245
0.763118
0.764761
0.766167
0.767324
0.768232
0.768899
0.769355
0.769642
0.769811
0.769904
0.769953
0.769978
0.769989
0.769995
0.769998
0.769999
0.77
0.77
0.77
0.77
0.77
0.77
0.77
0.77
0.77
0.77
0.77
0.77
2.22986e-06
9.74534e-06
2.23868e-05
4.35782e-05
7.89262e-05
0.000137504
0.000233795
0.000390545
0.000642828
0.00104356
0.0016706
0.00263504
0.00408984
0.00623637
0.00932574
0.0136505
0.0195237
0.0272461
0.0370671
0.0491506
0.0635561
0.080237
0.0990553
0.119804
0.142227
0.166046
0.190968
0.216703
0.242969
0.269501
0.296058
0.322418
0.348391
0.373811
0.39854
0.422465
0.445496
0.467563
0.488618
0.508631
0.527588
0.545489
0.562343
0.57817
0.592999
0.606862
0.619798
0.631846
0.64305
0.653454
0.663102
0.67204
0.680312
0.687962
0.695029
0.701553
0.707492
0.712864
0.718005
0.722746
0.727068
0.731156
0.735033
0.738713
0.742201
0.745498
0.748603
0.751516
0.754233
0.756751
0.759064
0.761165
0.763046
0.764699
0.766115
0.767283
0.7682
0.768877
0.76934
0.769633
0.769806
0.769901
0.769952
0.769977
0.769989
0.769995
0.769998
0.769999
0.77
0.77
0.77
0.77
0.77
0.77
0.77
0.77
0.77
0.77
0.77
0.77
2.23209e-06
9.75505e-06
2.24091e-05
4.36217e-05
7.90052e-05
0.000137642
0.000234028
0.000390933
0.00064346
0.00104457
0.00167217
0.00263742
0.00409335
0.0062414
0.00933267
0.0136596
0.0195352
0.0272599
0.0370825
0.0491667
0.0635714
0.0802497
0.0990635
0.119805
0.14222
0.166027
0.190936
0.216655
0.242905
0.26942
0.295958
0.322299
0.348253
0.373654
0.398365
0.422273
0.445288
0.46734
0.488382
0.508383
0.52733
0.545222
0.562069
0.577892
0.592718
0.60658
0.619515
0.631565
0.642772
0.653181
0.662835
0.671779
0.680056
0.687711
0.694786
0.701319
0.707268
0.71265
0.717801
0.722552
0.726897
0.730982
0.734863
0.738546
0.742038
0.745341
0.748453
0.751373
0.754099
0.756627
0.75895
0.761061
0.762954
0.76462
0.766048
0.767229
0.768159
0.768848
0.769321
0.769622
0.769799
0.769898
0.76995
0.769976
0.769989
0.769995
0.769998
0.769999
0.77
0.77
0.77
0.77
0.77
0.77
0.77
0.77
0.77
0.77
0.77
0.77
2.23494e-06
9.76752e-06
2.24378e-05
4.36777e-05
7.91069e-05
0.00013782
0.000234331
0.000391437
0.000644283
0.00104589
0.00167423
0.00264058
0.00409805
0.00624817
0.00934209
0.0136722
0.0195514
0.0272795
0.0371051
0.0491913
0.0635963
0.0802728
0.0990821
0.119817
0.142222
0.166017
0.190911
0.216613
0.242843
0.269337
0.295852
0.322171
0.348102
0.37348
0.398168
0.422055
0.445049
0.467082
0.488107
0.508093
0.527027
0.544908
0.561746
0.577562
0.592383
0.606241
0.619176
0.631226
0.642436
0.652849
0.662509
0.67146
0.679747
0.687409
0.69449
0.701033
0.706998
0.712391
0.717554
0.722317
0.726689
0.730766
0.73465
0.738339
0.741836
0.745146
0.748267
0.751197
0.753933
0.756472
0.758808
0.760933
0.76284
0.764521
0.765964
0.767162
0.768108
0.768812
0.769297
0.769607
0.769791
0.769894
0.769948
0.769975
0.769988
0.769995
0.769998
0.769999
0.77
0.77
0.77
0.77
0.77
0.77
0.77
0.77
0.77
0.77
0.77
0.77
2.2385e-06
9.78311e-06
2.24737e-05
4.37479e-05
7.92347e-05
0.000138043
0.000234713
0.000392076
0.000645331
0.00104758
0.00167689
0.00264467
0.00410418
0.00625709
0.00935464
0.0136892
0.0195734
0.0273068
0.0371374
0.0492275
0.0636346
0.0803108
0.099117
0.119845
0.142241
0.166023
0.190901
0.216584
0.242792
0.269262
0.295751
0.322043
0.347947
0.373297
0.397958
0.421818
0.444788
0.466798
0.487801
0.507767
0.526684
0.54455
0.561376
0.577182
0.591996
0.60585
0.618781
0.630832
0.642043
0.652459
0.662124
0.671082
0.679377
0.687051
0.694142
0.700693
0.706674
0.712082
0.717257
0.722033
0.726435
0.730506
0.734396
0.738092
0.741596
0.744911
0.74804
0.750982
0.753731
0.756284
0.758635
0.760777
0.762702
0.7644
0.765863
0.76708
0.768046
0.768766
0.769267
0.76959
0.769782
0.769889
0.769945
0.769974
0.769988
0.769994
0.769997
0.769999
0.769999
0.77
0.77
0.77
0.77
0.77
0.77
0.77
0.77
0.77
0.77
0.77
2.24285e-06
9.80214e-06
2.25176e-05
4.38338e-05
7.93915e-05
0.000138319
0.000235184
0.000392867
0.000646637
0.00104969
0.00168024
0.00264986
0.00411202
0.00626859
0.00937098
0.0137116
0.0196029
0.027344
0.0371822
0.0492791
0.0636911
0.0803696
0.0991749
0.119898
0.142285
0.166055
0.190916
0.21658
0.242764
0.269207
0.295667
0.321929
0.3478
0.373118
0.397747
0.421575
0.444514
0.466495
0.487471
0.507414
0.526308
0.544155
0.560965
0.576758
0.591561
0.605407
0.618334
0.630382
0.641594
0.652012
0.661682
0.670647
0.67895
0.686634
0.693739
0.700305
0.706303
0.711722
0.716912
0.721704
0.726129
0.730198
0.734095
0.737799
0.741315
0.744641
0.74778
0.750729
0.75349
0.756058
0.758429
0.76059
0.762536
0.764256
0.765741
0.766981
0.767969
0.768711
0.769233
0.769569
0.76977
0.769882
0.769942
0.769972
0.769987
0.769994
0.769997
0.769999
0.769999
0.77
0.77
0.77
0.77
0.77
0.77
0.77
0.77
0.77
0.77
0.77
2.24802e-06
9.82477e-06
2.25698e-05
4.39363e-05
7.9579e-05
0.000138649
0.000235752
0.000393826
0.000648226
0.00105227
0.00168436
0.00265631
0.00412183
0.00628312
0.00939182
0.0137405
0.0196414
0.0273934
0.0372428
0.0493502
0.0637712
0.0804559
0.0992636
0.119985
0.142365
0.166124
0.190969
0.216612
0.242773
0.269188
0.295616
0.321843
0.347677
0.372958
0.397549
0.42134
0.444242
0.466188
0.487132
0.507043
0.52591
0.543733
0.560521
0.576296
0.591084
0.604919
0.617838
0.629881
0.64109
0.65151
0.661183
0.670154
0.678465
0.686159
0.693276
0.699856
0.705876
0.711311
0.716513
0.721321
0.725766
0.729838
0.733744
0.737458
0.740985
0.744326
0.747482
0.75045
0.753227
0.755809
0.75819
0.76037
0.76234
0.764085
0.765596
0.766862
0.767876
0.768648
0.769192
0.769543
0.769755
0.769875
0.769938
0.76997
0.769986
0.769994
0.769997
0.769999
0.769999
0.77
0.77
0.77
0.77
0.77
0.77
0.77
0.77
0.77
0.77
0.77
2.25397e-06
9.85085e-06
2.26302e-05
4.40549e-05
7.97967e-05
0.000139034
0.000236418
0.000394955
0.000650107
0.00105536
0.00168932
0.00266411
0.00413382
0.00630104
0.00941781
0.0137769
0.0196907
0.0274573
0.0373225
0.0494457
0.0638809
0.0805772
0.0993926
0.120117
0.142495
0.166245
0.191075
0.216697
0.242833
0.26922
0.295616
0.321805
0.347599
0.372836
0.397383
0.421131
0.44399
0.465894
0.486797
0.506671
0.525504
0.543295
0.560055
0.575806
0.590574
0.604392
0.617298
0.629332
0.640536
0.650954
0.660628
0.669603
0.677921
0.685623
0.692751
0.699344
0.705385
0.710841
0.716065
0.720894
0.725359
0.729431
0.733343
0.737067
0.740605
0.743961
0.747133
0.75012
0.752919
0.755525
0.757932
0.760131
0.762116
0.763889
0.765429
0.766724
0.767776
0.768577
0.769143
0.769513
0.769738
0.769865
0.769933
0.769968
0.769985
0.769993
0.769997
0.769999
0.769999
0.77
0.77
0.77
0.77
0.77
0.77
0.77
0.77
0.77
0.77
0.77
2.26055e-06
9.87973e-06
2.26971e-05
4.41871e-05
8.00405e-05
0.000139468
0.000237172
0.000396242
0.00065227
0.00105893
0.00169512
0.00267332
0.00414812
0.00632266
0.00944953
0.0138219
0.0197522
0.0275383
0.0374251
0.0495705
0.0640271
0.0807421
0.0995724
0.120306
0.142688
0.166434
0.191254
0.216859
0.242969
0.269324
0.295685
0.321836
0.347587
0.372777
0.397274
0.42097
0.443779
0.465632
0.486487
0.506316
0.525105
0.542857
0.559582
0.575301
0.590042
0.603838
0.616726
0.628745
0.63994
0.650351
0.660023
0.668999
0.677321
0.685031
0.692168
0.69877
0.704836
0.710316
0.715559
0.720406
0.724892
0.728972
0.732892
0.736625
0.740176
0.743545
0.746734
0.749741
0.752561
0.755192
0.757628
0.759859
0.761871
0.763666
0.76524
0.76658
0.767666
0.768494
0.769086
0.769478
0.769717
0.769854
0.769928
0.769965
0.769984
0.769992
0.769997
0.769998
0.769999
0.77
0.77
0.77
0.77
0.77
0.77
0.77
0.77
0.77
0.77
0.77
2.26741e-06
9.90988e-06
2.27673e-05
4.43264e-05
8.0299e-05
0.000139931
0.000237983
0.000397641
0.000654644
0.0010629
0.00170163
0.00268379
0.00416458
0.00634788
0.00948704
0.0138759
0.0198272
0.0276385
0.0375539
0.0497298
0.0642168
0.0809602
0.0998149
0.120568
0.142961
0.166712
0.191528
0.217119
0.243208
0.269533
0.295855
0.321961
0.347665
0.372806
0.39725
0.420888
0.443636
0.465431
0.486228
0.506001
0.524738
0.54244
0.559121
0.5748
0.589505
0.60327
0.616132
0.628132
0.63931
0.649711
0.659376
0.668351
0.676675
0.684392
0.69154
0.698158
0.704267
0.709758
0.715004
0.719864
0.724365
0.728454
0.732383
0.736127
0.73969
0.743075
0.746282
0.749309
0.752154
0.754813
0.75728
0.759547
0.7616
0.76344
0.76505
0.766418
0.767533
0.768395
0.769019