/*--------------------------------*- C++ -*----------------------------------*\
  =========                 |
  \\      /  F ield         | OpenFOAM: The Open Source CFD Toolbox
   \\    /   O peration     | Website:  https://openfoam.org
    \\  /    A nd           | Version:  8
     \\/     M anipulation  |
\*---------------------------------------------------------------------------*/
FoamFile
{
    version     2.0;
    format      ascii;
    class       volScalarField;
    location    "520/fluid";
    object      O2;
}
// * * * * * * * * * * * * * * * * * * * * * * * * * * * * * * * * * * * * * //

dimensions      [0 0 0 0 0 0 0];

internalField   nonuniform List<scalar> 
4000
(
4.44492e-10
1.94067e-09
4.44866e-09
8.6327e-09
1.5573e-08
2.70057e-08
4.56831e-08
7.58966e-08
1.24206e-07
2.00405e-07
3.187e-07
4.98989e-07
7.67986e-07
1.15963e-06
1.71429e-06
2.47247e-06
3.4772e-06
4.75864e-06
6.33015e-06
8.18402e-06
1.02914e-05
1.26059e-05
1.50695e-05
1.76183e-05
2.01881e-05
2.27175e-05
2.5151e-05
2.744e-05
2.95442e-05
3.14318e-05
3.30817e-05
3.44862e-05
3.5657e-05
3.6635e-05
3.75035e-05
3.8403e-05
3.95448e-05
4.1222e-05
4.38206e-05
4.78346e-05
5.38926e-05
6.27997e-05
7.5594e-05
9.36222e-05
0.000118535
0.000152733
0.000199199
0.000261854
0.000345855
0.000457973
0.000607091
0.000804842
0.00106644
0.00141175
0.00186667
0.00246491
0.00325032
0.00427175
0.00558353
0.00733937
0.00962304
0.0125882
0.0163715
0.0327558
0.0494156
0.0660675
0.0824939
0.098525
0.114026
0.128889
0.143021
0.156341
0.168774
0.180195
0.190633
0.199934
0.207999
0.21473
0.220051
0.223963
0.226595
0.228207
0.22911
0.229577
0.229805
0.229912
0.229961
0.229983
0.229993
0.229997
0.229999
0.229999
0.23
0.23
0.23
0.23
0.23
0.23
0.23
0.23
4.52775e-10
1.97816e-09
4.54021e-09
8.82528e-09
1.59519e-08
2.77207e-08
4.69885e-08
7.82082e-08
1.28176e-07
2.07007e-07
3.29315e-07
5.1536e-07
7.92261e-07
1.19387e-06
1.75849e-06
2.53592e-06
3.56373e-06
4.87273e-06
6.47722e-06
8.37057e-06
1.05248e-05
1.2894e-05
1.54199e-05
1.8038e-05
2.06823e-05
2.32899e-05
2.58032e-05
2.81714e-05
3.03521e-05
3.2312e-05
3.40286e-05
3.54931e-05
3.67174e-05
3.77435e-05
3.8658e-05
3.96076e-05
4.08127e-05
4.25794e-05
4.53086e-05
4.95111e-05
5.58333e-05
6.51001e-05
7.83561e-05
9.6879e-05
0.000122516
0.000157599
0.000205132
0.00026907
0.00035462
0.000468631
0.0006201
0.000820845
0.00108638
0.00143707
0.00189966
0.00250932
0.00331244
0.00435867
0.00571802
0.00756105
0.0100013
0.0132459
0.017529
0.0341257
0.0509358
0.0676969
0.0842041
0.100295
0.115839
0.130729
0.144871
0.158184
0.170588
0.181943
0.192288
0.20145
0.209328
0.215825
0.220879
0.224525
0.226933
0.228387
0.229195
0.229614
0.22982
0.229918
0.229963
0.229984
0.229993
0.229997
0.229999
0.229999
0.23
0.23
0.23
0.23
0.23
0.23
0.23
0.23
4.65049e-10
2.03252e-09
4.66778e-09
9.07893e-09
1.64188e-08
2.85399e-08
4.83747e-08
8.04805e-08
1.31787e-07
2.12532e-07
3.37497e-07
5.2711e-07
8.10176e-07
1.22244e-06
1.80733e-06
2.6058e-06
3.65993e-06
5.0022e-06
6.64852e-06
8.59373e-06
1.0811e-05
1.32551e-05
1.58676e-05
1.85831e-05
2.13343e-05
2.4056e-05
2.66882e-05
2.91775e-05
3.14786e-05
3.35557e-05
3.53839e-05
3.6953e-05
3.82739e-05
3.93905e-05
4.03937e-05
4.1439e-05
4.27609e-05
4.46843e-05
4.76331e-05
5.21437e-05
5.88795e-05
6.86314e-05
8.24335e-05
0.000101889
0.000128792
0.00016533
0.000214573
0.000280542
0.00036851
0.000485408
0.000640343
0.000845285
0.00111596
0.00147307
0.00194386
0.00256426
0.00338183
0.00444545
0.00582905
0.00770632
0.0101883
0.0134843
0.019741
0.0365393
0.0534922
0.0703515
0.0869202
0.10304
0.118583
0.13344
0.147518
0.160731
0.172997
0.184183
0.194301
0.203192
0.21076
0.216925
0.221655
0.22502
0.227218
0.228535
0.229267
0.229647
0.229835
0.229924
0.229966
0.229985
0.229993
0.229997
0.229999
0.229999
0.23
0.23
0.23
0.23
0.23
0.23
0.23
0.23
4.76614e-10
2.08315e-09
4.78442e-09
9.30667e-09
1.68317e-08
2.9257e-08
4.95807e-08
8.24482e-08
1.34887e-07
2.17641e-07
3.46208e-07
5.42504e-07
8.34182e-07
1.25724e-06
1.85414e-06
2.67065e-06
3.7504e-06
5.12765e-06
6.82021e-06
8.82465e-06
1.11154e-05
1.36477e-05
1.63628e-05
1.91942e-05
2.20729e-05
2.49315e-05
2.7707e-05
3.03434e-05
3.27924e-05
3.50152e-05
3.69843e-05
3.86877e-05
4.01358e-05
4.13741e-05
4.24995e-05
4.36786e-05
4.51636e-05
4.73047e-05
5.05488e-05
5.54412e-05
6.26396e-05
7.30568e-05
8.79857e-05
0.000108694
0.00013702
0.000175335
0.000226747
0.000295327
0.000386417
0.000507029
0.000666368
0.000876512
0.00115332
0.00151763
0.00199683
0.002627
0.00345574
0.00453005
0.00592487
0.00781299
0.010301
0.0135926
0.0228571
0.0396856
0.0566733
0.0735547
0.0901233
0.106216
0.121699
0.136464
0.150413
0.16346
0.17552
0.186506
0.196343
0.204925
0.212166
0.217998
0.222414
0.225511
0.227507
0.228692
0.229345
0.229684
0.229852
0.229932
0.229969
0.229986
0.229994
0.229997
0.229999
0.23
0.23
0.23
0.23
0.23
0.23
0.23
0.23
0.23
4.87046e-10
2.12836e-09
4.88728e-09
9.50568e-09
1.71925e-08
2.98931e-08
5.06947e-08
8.44204e-08
1.38489e-07
2.23713e-07
3.55754e-07
5.56457e-07
8.54971e-07
1.28821e-06
1.89989e-06
2.73739e-06
3.84623e-06
5.2628e-06
7.00702e-06
9.07736e-06
1.14496e-05
1.40796e-05
1.69085e-05
1.98687e-05
2.28895e-05
2.5901e-05
2.88377e-05
3.16403e-05
3.42576e-05
3.66475e-05
3.878e-05
4.06408e-05
4.224e-05
4.36258e-05
4.49023e-05
4.62504e-05
4.79369e-05
5.03195e-05
5.38361e-05
5.90984e-05
6.70198e-05
7.85206e-05
9.46209e-05
0.000116795
0.000146933
0.000187478
0.000241617
0.000313517
0.000408634
0.000534116
0.000699329
0.000916542
0.00120183
0.0015763
0.00206763
0.00271229
0.00355825
0.00464821
0.00606298
0.00798044
0.0105114
0.0138544
0.026254
0.0430625
0.0600386
0.0769015
0.0934332
0.109463
0.124854
0.139493
0.153285
0.166141
0.177963
0.188705
0.198258
0.206533
0.213453
0.218966
0.223087
0.225939
0.227756
0.228825
0.229412
0.229716
0.229866
0.229938
0.229972
0.229988
0.229995
0.229998
0.229999
0.23
0.23
0.23
0.23
0.23
0.23
0.23
0.23
0.23
4.98609e-10
2.17927e-09
5.00565e-09
9.73927e-09
1.76209e-08
3.06457e-08
5.19734e-08
8.65179e-08
1.41762e-07
2.28822e-07
3.63746e-07
5.6892e-07
8.74291e-07
1.31788e-06
1.94484e-06
2.80443e-06
3.94439e-06
5.40353e-06
7.20418e-06
9.34686e-06
1.18088e-05
1.45464e-05
1.75006e-05
2.06028e-05
2.37801e-05
2.69605e-05
3.00755e-05
3.30626e-05
3.58672e-05
3.84442e-05
4.07604e-05
4.27997e-05
4.45721e-05
4.61301e-05
4.75823e-05
4.91095e-05
5.09813e-05
5.36127e-05
5.75674e-05
6.36167e-05
7.24164e-05
8.49403e-05
0.000102388
0.000126285
0.000158587
0.000201831
0.000259322
0.000335377
0.000435645
0.000567514
0.000740647
0.000967677
0.00126513
0.0016546
0.00216438
0.00283155
0.00370215
0.00481759
0.00626837
0.0082313
0.010809
0.0141747
0.0295264
0.0462744
0.0632392
0.0800897
0.0965864
0.11255
0.127842
0.14235
0.155979
0.168643
0.180221
0.190721
0.200003
0.207988
0.214608
0.219828
0.223683
0.226318
0.227977
0.228945
0.229473
0.229745
0.22988
0.229945
0.229975
0.229989
0.229995
0.229998
0.229999
0.23
0.23
0.23
0.23
0.23
0.23
0.23
0.23
0.23
5.09119e-10
2.22514e-09
5.11081e-09
9.94344e-09
1.79895e-08
3.12856e-08
5.3057e-08
8.83213e-08
1.44725e-07
2.33642e-07
3.71516e-07
5.81323e-07
8.93861e-07
1.34834e-06
1.99151e-06
2.87467e-06
4.04799e-06
5.55293e-06
7.41446e-06
9.63539e-06
1.21945e-05
1.5049e-05
1.81396e-05
2.13965e-05
2.4745e-05
2.81106e-05
3.14216e-05
3.46122e-05
3.76243e-05
4.04091e-05
4.29302e-05
4.51696e-05
4.71339e-05
4.88628e-05
5.04579e-05
5.21284e-05
5.42239e-05
5.73107e-05
6.19534e-05
6.87259e-05
7.84727e-05
9.22177e-05
0.000111228
0.000137105
0.0001719
0.000218277
0.000279703
0.000360714
0.000467247
0.000607069
0.000790348
0.00103038
0.00134456
0.00175559
0.00229316
0.00299593
0.00391373
0.00508202
0.0066025
0.00863685
0.0112709
0.0146145
0.0315159
0.0487293
0.065942
0.0829068
0.0994293
0.115356
0.130562
0.144947
0.158421
0.170906
0.182275
0.192554
0.201581
0.209288
0.215629
0.22058
0.224197
0.226641
0.228164
0.229046
0.229524
0.22977
0.229892
0.22995
0.229977
0.22999
0.229996
0.229998
0.229999
0.23
0.23
0.23
0.23
0.23
0.23
0.23
0.23
0.23
5.18894e-10
2.26779e-09
5.20856e-09
1.01334e-08
1.83334e-08
3.18857e-08
5.40816e-08
9.00454e-08
1.47594e-07
2.38367e-07
3.79222e-07
5.93754e-07
9.13666e-07
1.37945e-06
2.0396e-06
2.94762e-06
4.15634e-06
5.71016e-06
7.63693e-06
9.94194e-06
1.26058e-05
1.55866e-05
1.88249e-05
2.22498e-05
2.5785e-05
2.93531e-05
3.28796e-05
3.6295e-05
3.95373e-05
4.25536e-05
4.53037e-05
4.77493e-05
4.98818e-05
5.17461e-05
5.35005e-05
5.55117e-05
5.81302e-05
6.17317e-05
6.69395e-05
7.44919e-05
8.52746e-05
0.000100361
0.000121081
0.000149115
0.00018662
0.000236398
0.000302107
0.000388538
0.000501974
0.000650663
0.000845442
0.00110056
0.00143478
0.00187284
0.00244746
0.00320198
0.0041917
0.00545567
0.00717127
0.009436
0.0124305
0.0163242
0.0336248
0.0510989
0.068462
0.0854926
0.102015
0.117891
0.133005
0.147264
0.160586
0.172896
0.184081
0.194134
0.202938
0.210415
0.216511
0.221225
0.224635
0.226915
0.228323
0.229131
0.229568
0.229792
0.229902
0.229955
0.229979
0.229991
0.229996
0.229998
0.229999
0.23
0.23
0.23
0.23
0.23
0.23
0.23
0.23
0.23
5.2831e-10
2.30891e-09
5.30302e-09
1.03175e-08
1.86681e-08
3.24728e-08
5.50899e-08
9.17531e-08
1.50454e-07
2.43112e-07
3.87011e-07
6.06398e-07
9.33937e-07
1.41148e-06
2.08937e-06
3.0235e-06
4.26956e-06
5.8751e-06
7.87114e-06
1.02657e-05
1.30416e-05
1.61579e-05
1.95552e-05
2.3162e-05
2.68999e-05
3.06894e-05
3.44526e-05
3.81168e-05
4.16168e-05
4.48846e-05
4.78562e-05
5.04717e-05
5.27655e-05
5.49432e-05
5.71534e-05
5.95506e-05
6.25345e-05
6.66322e-05
7.25006e-05
8.09245e-05
9.28357e-05
0.000109357
0.000131878
0.000162153
0.000202438
0.000255662
0.000325651
0.00041742
0.000537546
0.000694673
0.000900173
0.00116903
0.00152103
0.00198234
0.00258771
0.00338348
0.00442627
0.00577289
0.00761651
0.0100725
0.0133717
0.0182949
0.0358088
0.0534137
0.0708416
0.0878823
0.104371
0.120175
0.135187
0.149314
0.162477
0.174594
0.185567
0.195375
0.203978
0.211307
0.217241
0.221767
0.225003
0.227145
0.228456
0.229203
0.229605
0.22981
0.22991
0.229959
0.229981
0.229992
0.229996
0.229998
0.229999
0.23
0.23
0.23
0.23
0.23
0.23
0.23
0.23
0.23
5.37518e-10
2.34916e-09
5.3956e-09
1.04984e-08
1.89977e-08
3.30526e-08
5.60893e-08
9.34522e-08
1.53312e-07
2.47873e-07
3.94863e-07
6.19206e-07
9.54568e-07
1.44423e-06
2.1405e-06
3.1018e-06
4.38685e-06
6.04664e-06
8.1156e-06
1.06049e-05
1.34996e-05
1.67603e-05
2.03281e-05
2.41305e-05
2.80881e-05
3.21186e-05
3.61416e-05
4.00781e-05
4.38407e-05
4.73419e-05
5.05451e-05
5.34655e-05
5.6215e-05
5.8755e-05
6.126e-05
6.40154e-05
6.74437e-05
7.21149e-05
7.87283e-05
8.81103e-05
0.000101233
0.000119264
0.000143644
0.00017619
0.000219238
0.000275819
0.000349884
0.000446598
0.000572727
0.00073714
0.000951474
0.00123101
0.00159587
0.00207253
0.00269595
0.0035124
0.00457372
0.00593484
0.00778412
0.0102165
0.0134226
0.020467
0.0380158
0.0556352
0.0730538
0.090061
0.106491
0.122213
0.137119
0.15112
0.164135
0.176083
0.18691
0.196598
0.205013
0.212094
0.217844
0.222225
0.225314
0.227339
0.228568
0.229263
0.229635
0.229825
0.229917
0.229962
0.229983
0.229992
0.229997
0.229999
0.229999
0.23
0.23
0.23
0.23
0.23
0.23
0.23
0.23
0.23
5.46538e-10
2.38861e-09
5.48641e-09
1.0676e-08
1.93221e-08
3.36247e-08
5.70779e-08
9.51381e-08
1.56158e-07
2.52629e-07
4.02737e-07
6.32099e-07
9.75416e-07
1.47745e-06
2.19257e-06
3.18182e-06
4.50718e-06
6.22326e-06
8.36824e-06
1.09567e-05
1.39765e-05
1.73901e-05
2.11392e-05
2.51513e-05
2.93455e-05
3.36376e-05
3.79359e-05
4.21392e-05
4.61486e-05
4.99279e-05
5.35265e-05
5.69219e-05
6.00258e-05
6.29253e-05
6.58119e-05
6.90048e-05
7.29631e-05
7.82993e-05
8.57536e-05
9.61893e-05
0.000110615
0.000130235
0.000156535
0.000191388
0.000237195
0.000297063
0.000375034
0.000476378
0.000607973
0.000778806
0.00100063
0.00128881
0.00166351
0.00215114
0.00278642
0.00361505
0.00468667
0.00605509
0.00790708
0.0103354
0.013529
0.0225669
0.0401047
0.0576974
0.075073
0.0920206
0.108375
0.124002
0.138797
0.152672
0.165548
0.177392
0.188137
0.197675
0.205933
0.212852
0.218394
0.222614
0.225583
0.227505
0.228663
0.229314
0.229661
0.229837
0.229923
0.229965
0.229984
0.229993
0.229997
0.229999
0.229999
0.23
0.23
0.23
0.23
0.23
0.23
0.23
0.23
0.23
5.55308e-10
2.42696e-09
5.57479e-09
1.08491e-08
1.96386e-08
3.41838e-08
5.80464e-08
9.67939e-08
1.5896e-07
2.57328e-07
4.10539e-07
6.44918e-07
9.96216e-07
1.51072e-06
2.24488e-06
3.26252e-06
4.629e-06
6.40276e-06
8.62603e-06
1.13172e-05
1.44674e-05
1.80413e-05
2.19822e-05
2.62176e-05
3.06659e-05
3.52298e-05
3.98016e-05
4.43042e-05
4.86925e-05
5.2979e-05
5.70141e-05
6.07709e-05
6.4259e-05
6.75686e-05
7.09093e-05
7.46281e-05
7.92168e-05
8.53268e-05
9.37348e-05
0.000105337
0.000121173
0.000142484
0.000170796
0.000208031
0.000256649
0.000319825
0.000401675
0.000507551
0.000644416
0.000821338
0.00105014
0.00134624
0.0017298
0.00222717
0.00287291
0.00371211
0.00479269
0.00617038
0.00803152
0.0104643
0.013656
0.0244391
0.0419628
0.0595237
0.0768508
0.0937275
0.109994
0.125525
0.140236
0.154037
0.166858
0.178604
0.189214
0.198613
0.206728
0.213502
0.218903
0.222956
0.225809
0.227646
0.228743
0.229357
0.229683
0.229848
0.229928
0.229967
0.229985
0.229993
0.229997
0.229999
0.229999
0.23
0.23
0.23
0.23
0.23
0.23
0.23
0.23
0.23
5.63715e-10
2.46375e-09
5.65959e-09
1.10153e-08
1.9943e-08
3.47224e-08
5.89811e-08
9.83954e-08
1.61677e-07
2.61896e-07
4.18148e-07
6.57457e-07
1.01663e-06
1.54347e-06
2.29657e-06
3.34255e-06
4.75025e-06
6.58215e-06
8.88477e-06
1.16807e-05
1.49648e-05
1.87049e-05
2.28461e-05
2.73173e-05
3.20254e-05
3.68575e-05
4.17422e-05
4.66653e-05
5.15531e-05
5.62626e-05
6.0738e-05
6.49473e-05
6.89061e-05
7.27182e-05
7.66173e-05
8.0979e-05
8.63241e-05
9.33396e-05
0.000102834
0.000115734
0.000133108
0.000156234
0.000186678
0.000226412
0.000277952
0.000344539
0.00043036
0.000540843
0.00068303
0.000866066
0.00110184
0.00140583
0.00179819
0.00230524
0.00296107
0.00381072
0.00490201
0.00629102
0.00816168
0.0106007
0.0137878
0.0260429
0.0435653
0.0611025
0.0783802
0.0952021
0.111422
0.126915
0.141562
0.15528
0.167993
0.179631
0.190128
0.199407
0.207399
0.214047
0.219323
0.223262
0.225994
0.227759
0.228809
0.229392
0.229701
0.229857
0.229933
0.229969
0.229986
0.229994
0.229997
0.229999
0.229999
0.23
0.23
0.23
0.23
0.23
0.23
0.23
0.23
0.23
5.71614e-10
2.49831e-09
5.73932e-09
1.11717e-08
2.02298e-08
3.52306e-08
5.98646e-08
9.99124e-08
1.64257e-07
2.66245e-07
4.25411e-07
6.69461e-07
1.03623e-06
1.57503e-06
2.34655e-06
3.42021e-06
4.86837e-06
6.75762e-06
9.13893e-06
1.20394e-05
1.54581e-05
1.93664e-05
2.37125e-05
2.84201e-05
3.33885e-05
3.8558e-05
4.38948e-05
4.92568e-05
5.45634e-05
5.97356e-05
6.47093e-05
6.94483e-05
7.39715e-05
7.83965e-05
8.29831e-05
8.81309e-05
9.43828e-05
0.000102456
0.000113188
0.000127529
0.000146583
0.00017166
0.000204373
0.000246744
0.000301347
0.000371489
0.000461427
0.000576664
0.000724318
0.000913611
0.0011565
0.00146853
0.00186979
0.00238625
0.00305253
0.00391449
0.00501649
0.00641593
0.0082969
0.0107439
0.0139214
0.0273967
0.0449262
0.0624463
0.0797001
0.0964981
0.112672
0.128099
0.142675
0.156315
0.168944
0.180491
0.190893
0.200071
0.207957
0.214498
0.219668
0.223509
0.22616
0.227852
0.22886
0.22942
0.229715
0.229864
0.229936
0.22997
0.229987
0.229994
0.229997
0.229999
0.23
0.23
0.23
0.23
0.23
0.23
0.23
0.23
0.23
0.23
5.78841e-10
2.52994e-09
5.81231e-09
1.1315e-08
2.04928e-08
3.56974e-08
6.06774e-08
1.01311e-07
1.6664e-07
2.70272e-07
4.32154e-07
6.80638e-07
1.05454e-06
1.60461e-06
2.39355e-06
3.49352e-06
4.98032e-06
6.92463e-06
9.38197e-06
1.23841e-05
1.59345e-05
2.00086e-05
2.45554e-05
2.94963e-05
3.47711e-05
4.03334e-05
4.60551e-05
5.18495e-05
5.76331e-05
6.33281e-05
6.88705e-05
7.42251e-05
7.94173e-05
8.45829e-05
9.00084e-05
9.61083e-05
0.000103435
0.000112731
0.000124855
0.000140786
0.000161659
0.000188825
0.000223942
0.000269088
0.000326896
0.000400738
0.000494939
0.000615071
0.00076832
0.000963975
0.00121398
0.0015337
0.00194329
0.00246928
0.0031463
0.00401846
0.00512935
0.00653727
0.00842577
0.0108783
0.0140505
0.0285251
0.0460689
0.0635801
0.0808183
0.0975787
0.113707
0.129079
0.143595
0.15717
0.169728
0.1812
0.191523
0.200617
0.208416
0.214867
0.219949
0.223709
0.226292
0.227934
0.228903
0.229442
0.229727
0.229869
0.229939
0.229972
0.229987
0.229994
0.229997
0.229999
0.23
0.23
0.23
0.23
0.23
0.23
0.23
0.23
0.23
0.23
5.85218e-10
2.55786e-09
5.87676e-09
1.14416e-08
2.07254e-08
3.61107e-08
6.13984e-08
1.02553e-07
1.68762e-07
2.73866e-07
4.38188e-07
6.90667e-07
1.07101e-06
1.63131e-06
2.43615e-06
3.56023e-06
5.08263e-06
7.07798e-06
9.60624e-06
1.27039e-05
1.63789e-05
2.06113e-05
2.53523e-05
3.05447e-05
3.61437e-05
4.20407e-05
4.81515e-05
5.43916e-05
6.06796e-05
6.69398e-05
7.31107e-05
7.91618e-05
8.51297e-05
9.11726e-05
9.76024e-05
0.000104831
0.000113405
0.000124082
0.000137742
0.000155394
0.000178206
0.000207574
0.000245209
0.000293244
0.000354376
0.000432037
0.000530625
0.000655766
0.000814663
0.00101653
0.00127335
0.00160072
0.0020191
0.0025545
0.00324023
0.00412021
0.00523636
0.0066452
0.00852661
0.0109568
0.014069
0.0294351
0.0469949
0.0645098
0.0817285
0.0984585
0.114548
0.129876
0.144342
0.157862
0.170363
0.181773
0.192032
0.201058
0.208785
0.215163
0.220174
0.223868
0.226397
0.227998
0.228941
0.229462
0.229736
0.229874
0.229941
0.229973
0.229988
0.229994
0.229998
0.229999
0.23
0.23
0.23
0.23
0.23
0.23
0.23
0.23
0.23
0.23
5.90571e-10
2.5813e-09
5.93089e-09
1.1548e-08
2.0921e-08
3.64588e-08
6.20063e-08
1.03603e-07
1.70558e-07
2.76914e-07
4.43317e-07
6.99216e-07
1.0851e-06
1.65422e-06
2.47283e-06
3.61792e-06
5.17154e-06
7.21199e-06
9.80348e-06
1.29872e-05
1.67761e-05
2.11546e-05
2.60806e-05
3.15186e-05
3.73836e-05
4.35991e-05
5.00856e-05
5.67643e-05
6.35589e-05
7.04002e-05
7.72336e-05
8.40394e-05
9.0872e-05
9.79179e-05
0.000105509
0.000114027
0.000123992
0.000136174
0.000151472
0.000170926
0.000195745
0.000227374
0.00026758
0.000318558
0.000383063
0.000464584
0.000567556
0.000697629
0.000862074
0.0010703
0.0013346
0.00167049
0.00209767
0.002642
0.00333689
0.00422578
0.00534917
0.00676372
0.00864829
0.0110777
0.0141784
0.0301428
0.0477285
0.0652436
0.0824479
0.0991536
0.115212
0.130503
0.144929
0.158406
0.17086
0.182222
0.192429
0.201401
0.209073
0.215394
0.220348
0.223991
0.226477
0.228046
0.228968
0.229477
0.229744
0.229877
0.229942
0.229973
0.229988
0.229995
0.229998
0.229999
0.23
0.23
0.23
0.23
0.23
0.23
0.23
0.23
0.23
0.23
5.94739e-10
2.59955e-09
5.97304e-09
1.16309e-08
2.10736e-08
3.67305e-08
6.24814e-08
1.04424e-07
1.71966e-07
2.79308e-07
4.47355e-07
7.05962e-07
1.09625e-06
1.67241e-06
2.50205e-06
3.66406e-06
5.24295e-06
7.32012e-06
9.96342e-06
1.3218e-05
1.71013e-05
2.16029e-05
2.66941e-05
3.23195e-05
3.84145e-05
4.49086e-05
5.17289e-05
5.88039e-05
6.6066e-05
7.34563e-05
8.09331e-05
8.84945e-05
9.62223e-05
0.00010434
0.000113189
0.000123092
0.000134519
0.000148246
0.000165194
0.000186432
0.000213216
0.000247041
0.000289726
0.000343521
0.000411246
0.000496448
0.000603643
0.00073862
0.000908872
0.00112383
0.00139537
0.00173901
0.00217463
0.00272789
0.00343191
0.00432962
0.00546009
0.00687977
0.00876572
0.0111896
0.0142691
0.0306649
0.0482753
0.0657945
0.0829893
0.0996764
0.11571
0.130973
0.145367
0.158811
0.171229
0.182554
0.192723
0.201655
0.209284
0.215562
0.220475
0.22408
0.226535
0.228081
0.228988
0.229487
0.229749
0.22988
0.229944
0.229974
0.229988
0.229995
0.229998
0.229999
0.23
0.23
0.23
0.23
0.23
0.23
0.23
0.23
0.23
0.23
5.97582e-10
2.612e-09
6.00181e-09
1.16875e-08
2.11777e-08
3.69159e-08
6.28058e-08
1.04985e-07
1.72928e-07
2.80946e-07
4.50121e-07
7.10591e-07
1.10391e-06
1.68493e-06
2.52223e-06
3.69599e-06
5.29252e-06
7.39543e-06
1.00752e-05
1.33802e-05
1.73312e-05
2.1922e-05
2.71259e-05
3.2891e-05
3.9158e-05
4.5862e-05
5.29368e-05
6.03185e-05
6.7949e-05
7.5781e-05
8.37886e-05
9.19924e-05
0.000100507
0.000109593
0.000119582
0.000130845
0.00014367
0.000158822
0.000177248
0.000200057
0.000228551
0.000264279
0.000309118
0.000365386
0.000435972
0.000524528
0.000635665
0.000775231
0.000950565
0.00117114
0.00144903
0.0017997
0.00224298
0.00280434
0.0035166
0.00442211
0.00555861
0.00698174
0.00886642
0.0112806
0.0143338
0.0310099
0.0486457
0.066171
0.0833598
0.100033
0.116049
0.131291
0.145662
0.159082
0.171476
0.182775
0.192918
0.201822
0.209423
0.215673
0.220558
0.224138
0.226572
0.228104
0.229001
0.229494
0.229752
0.229882
0.229944
0.229974
0.229988
0.229995
0.229998
0.229999
0.23
0.23
0.23
0.23
0.23
0.23
0.23
0.23
0.23
0.23
5.99007e-10
2.61823e-09
6.01617e-09
1.17157e-08
2.12294e-08
3.70078e-08
6.29661e-08
1.05262e-07
1.73402e-07
2.81751e-07
4.51479e-07
7.12861e-07
1.10767e-06
1.69109e-06
2.53216e-06
3.71176e-06
5.31711e-06
7.43299e-06
1.01313e-05
1.34621e-05
1.74481e-05
2.20846e-05
2.73437e-05
3.31795e-05
3.95353e-05
4.63493e-05
5.3559e-05
6.11053e-05
6.89362e-05
7.70121e-05
8.53174e-05
9.3887e-05
0.000102854
0.000112482
0.000123171
0.000135348
0.000149386
0.000165623
0.000185095
0.000208975
0.000238619
0.000275624
0.000321915
0.000379854
0.000452376
0.000543163
0.000656857
0.000799334
0.000978049
0.0012025
0.0014848
0.00184041
0.00228914
0.00285636
0.00357466
0.00448598
0.00562703
0.00705262
0.00893552
0.0113399
0.0143677
0.0311806
0.0488389
0.0663701
0.0835555
0.100221
0.116225
0.131454
0.145813
0.159219
0.171599
0.182885
0.193013
0.201904
0.209491
0.215726
0.220597
0.224165
0.22659
0.228114
0.229006
0.229497
0.229754
0.229882
0.229945
0.229975
0.229988
0.229995
0.229998
0.229999
0.23
0.23
0.23
0.23
0.23
0.23
0.23
0.23
0.23
0.23
5.99014e-10
2.61826e-09
6.01624e-09
1.17158e-08
2.12297e-08
3.70082e-08
6.29669e-08
1.05263e-07
1.73404e-07
2.81755e-07
4.51486e-07
7.12874e-07
1.10769e-06
1.69112e-06
2.53222e-06
3.71187e-06
5.31728e-06
7.43326e-06
1.01317e-05
1.34627e-05
1.74488e-05
2.20853e-05
2.73441e-05
3.31797e-05
3.95353e-05
4.63492e-05
5.35588e-05
6.11051e-05
6.89359e-05
7.70118e-05
8.53171e-05
9.38867e-05
0.000102853
0.000112482
0.000123171
0.000135348
0.000149386
0.000165623
0.000185095
0.000208976
0.00023862
0.000275625
0.000321916
0.000379855
0.000452377
0.000543165
0.00065686
0.000799337
0.000978054
0.00120251
0.0014848
0.00184042
0.00228915
0.00285638
0.00357468
0.004486
0.00562706
0.00705265
0.00893556
0.0113399
0.0143678
0.031181
0.0488392
0.0663704
0.0835558
0.100221
0.116225
0.131454
0.145813
0.159219
0.171599
0.182885
0.193013
0.201904
0.209491
0.215726
0.220597
0.224165
0.22659
0.228114
0.229006
0.229497
0.229754
0.229882
0.229945
0.229975
0.229988
0.229995
0.229998
0.229999
0.23
0.23
0.23
0.23
0.23
0.23
0.23
0.23
0.23
0.23
5.97599e-10
2.61207e-09
6.00198e-09
1.16879e-08
2.11784e-08
3.69171e-08
6.28079e-08
1.04989e-07
1.72934e-07
2.80957e-07
4.5014e-07
7.10623e-07
1.10397e-06
1.68503e-06
2.52239e-06
3.69626e-06
5.29297e-06
7.39618e-06
1.00764e-05
1.33821e-05
1.7334e-05
2.19256e-05
2.71267e-05
3.28908e-05
3.91574e-05
4.58613e-05
5.29359e-05
6.03175e-05
6.7948e-05
7.57799e-05
8.37876e-05
9.19914e-05
0.000100506
0.000109593
0.000119581
0.000130845
0.000143669
0.000158822
0.000177248
0.000200057
0.000228551
0.000264279
0.000309119
0.000365386
0.000435974
0.000524533
0.000635672
0.000775241
0.000950578
0.00117116
0.00144905
0.00179973
0.00224301
0.00280439
0.00351665
0.00442217
0.00555868
0.00698184
0.00886654
0.0112808
0.014334
0.0310109
0.0486466
0.0661719
0.0833606
0.100034
0.11605
0.131291
0.145663
0.159082
0.171476
0.182776
0.192918
0.201822
0.209424
0.215673
0.220558
0.224138
0.226572
0.228104
0.229001
0.229494
0.229752
0.229882
0.229944
0.229974
0.229988
0.229995
0.229998
0.229999
0.23
0.23
0.23
0.23
0.23
0.23
0.23
0.23
0.23
0.23
5.94759e-10
2.59964e-09
5.97325e-09
1.16313e-08
2.10743e-08
3.67317e-08
6.24834e-08
1.04427e-07
1.71971e-07
2.79316e-07
4.47368e-07
7.05981e-07
1.09628e-06
1.67245e-06
2.50211e-06
3.66413e-06
5.24304e-06
7.32022e-06
9.96352e-06
1.32181e-05
1.71013e-05
2.16023e-05
2.66898e-05
3.23185e-05
3.8415e-05
4.49097e-05
5.17304e-05
5.88056e-05
6.60679e-05
7.34583e-05
8.09352e-05
8.84967e-05
9.62248e-05
0.000104342
0.000113192
0.000123096
0.000134524
0.000148251
0.000165199
0.000186438
0.000213222
0.000247048
0.000289734
0.00034353
0.000411255
0.000496457
0.000603654
0.000738636
0.000908892
0.00112385
0.00139541
0.00173905
0.00217468
0.00272795
0.00343199
0.00432973
0.00546022
0.00687993
0.00876592
0.0111899
0.0142694
0.0306667
0.048277
0.065796
0.0829907
0.0996777
0.115711
0.130974
0.145368
0.158811
0.17123
0.182555
0.192723
0.201655
0.209285
0.215563
0.220475
0.22408
0.226535
0.228081
0.228988
0.229487
0.229749
0.22988
0.229944
0.229974
0.229988
0.229995
0.229998
0.229999
0.23
0.23
0.23
0.23
0.23
0.23
0.23
0.23
0.23
0.23
5.90598e-10
2.58141e-09
5.93115e-09
1.15485e-08
2.09219e-08
3.64603e-08
6.20089e-08
1.03607e-07
1.70564e-07
2.76924e-07
4.43332e-07
6.99237e-07
1.08513e-06
1.65426e-06
2.47288e-06
3.61797e-06
5.17159e-06
7.21204e-06
9.80351e-06
1.29872e-05
1.67761e-05
2.11556e-05
2.60872e-05
3.15225e-05
3.73863e-05
4.36011e-05
5.00873e-05
5.67659e-05
6.35605e-05
7.04018e-05
7.72354e-05
8.40412e-05
9.0874e-05
9.79202e-05
0.000105512
0.00011403
0.000123995
0.000136178
0.000151477
0.000170932
0.000195752
0.000227382
0.00026759
0.00031857
0.000383077
0.0004646
0.000567574
0.000697648
0.000862097
0.00107033
0.00133464
0.00167054
0.00209774
0.00264208
0.003337
0.00422591
0.00534933
0.00676393
0.00864855
0.011078
0.0141788
0.0301453
0.0477308
0.0652457
0.08245
0.0991555
0.115214
0.130505
0.14493
0.158407
0.170861
0.182223
0.19243
0.201402
0.209073
0.215394
0.220348
0.223991
0.226477
0.228046
0.228968
0.229477
0.229744
0.229877
0.229942
0.229973
0.229988
0.229995
0.229998
0.229999
0.23
0.23
0.23
0.23
0.23
0.23
0.23
0.23
0.23
0.23
5.8525e-10
2.558e-09
5.87708e-09
1.14422e-08
2.07265e-08
3.61126e-08
6.14015e-08
1.02558e-07
1.6877e-07
2.73878e-07
4.38206e-07
6.90693e-07
1.07105e-06
1.63136e-06
2.4362e-06
3.56029e-06
5.08269e-06
7.07806e-06
9.60637e-06
1.27042e-05
1.63797e-05
2.06129e-05
2.53569e-05
3.05482e-05
3.61464e-05
4.20428e-05
4.81532e-05
5.43931e-05
6.0681e-05
6.69412e-05
7.31121e-05
7.91632e-05
8.51312e-05
9.11743e-05
9.76043e-05
0.000104833
0.000113407
0.000124085
0.000137746
0.000155399
0.000178212
0.000207582
0.000245218
0.000293255
0.000354389
0.000432054
0.000530646
0.000655792
0.000814694
0.00101657
0.00127339
0.00160078
0.00201917
0.00255459
0.00324035
0.00412037
0.00523655
0.00664544
0.00852691
0.0109571
0.0140694
0.0294383
0.0469979
0.0645127
0.0817312
0.0984609
0.11455
0.129878
0.144344
0.157864
0.170364
0.181775
0.192033
0.201059
0.208786
0.215164
0.220174
0.223868
0.226397
0.227998
0.228941
0.229462
0.229736
0.229874
0.229941
0.229973
0.229988
0.229994
0.229998
0.229999
0.23
0.23
0.23
0.23
0.23
0.23
0.23
0.23
0.23
0.23
5.78879e-10
2.53011e-09
5.81269e-09
1.13157e-08
2.04941e-08
3.56996e-08
6.06812e-08
1.01317e-07
1.6665e-07
2.70287e-07
4.32178e-07
6.80672e-07
1.05458e-06
1.60467e-06
2.39363e-06
3.49361e-06
4.98039e-06
6.92467e-06
9.38194e-06
1.23839e-05
1.59341e-05
2.00078e-05
2.45553e-05
2.94994e-05
3.47736e-05
4.03355e-05
4.60569e-05
5.18511e-05
5.76344e-05
6.33294e-05
6.88718e-05
7.42262e-05
7.94184e-05
8.4584e-05
9.00096e-05
9.61098e-05
0.000103437
0.000112733
0.000124858
0.00014079
0.000161664
0.000188831
0.00022395
0.000269098
0.000326909
0.000400754
0.000494959
0.000615096
0.000768351
0.000964014
0.00121402
0.00153375
0.00194337
0.00246937
0.00314643
0.00401862
0.00512955
0.00653753
0.0084261
0.0108787
0.0140509
0.0285292
0.0460728
0.0635837
0.0808216
0.0975817
0.11371
0.129082
0.143598
0.157172
0.16973
0.181202
0.191524
0.200618
0.208417
0.214868
0.219949
0.223709
0.226292
0.227934
0.228903
0.229442
0.229727
0.229869
0.229939
0.229972
0.229987
0.229994
0.229997
0.229999
0.23
0.23
0.23
0.23
0.23
0.23
0.23
0.23
0.23
0.23
5.71657e-10
2.4985e-09
5.73975e-09
1.11725e-08
2.02313e-08
3.52333e-08
5.98691e-08
9.99198e-08
1.64269e-07
2.66264e-07
4.25441e-07
6.69506e-07
1.03629e-06
1.57513e-06
2.34668e-06
3.42037e-06
4.86855e-06
6.75781e-06
9.13909e-06
1.20395e-05
1.5458e-05
1.93661e-05
2.3712e-05
2.84207e-05
3.3393e-05
3.85621e-05
4.38982e-05
4.92586e-05
5.45636e-05
5.97352e-05
6.47088e-05
6.94479e-05
7.39712e-05
7.83964e-05
8.29832e-05
8.81313e-05
9.43836e-05
0.000102458
0.00011319
0.000127532
0.000146587
0.000171666
0.00020438
0.000246753
0.000301359
0.000371504
0.000461446
0.000576688
0.000724349
0.00091365
0.00115655
0.00146859
0.00186987
0.00238635
0.00305266
0.00391466
0.0050167
0.00641621
0.00829725
0.0107443
0.0139218
0.0274016
0.0449307
0.0624506
0.079704
0.0965017
0.112675
0.128102
0.142677
0.156317
0.168946
0.180493
0.190894
0.200072
0.207958
0.214499
0.219669
0.223509
0.22616
0.227852
0.22886
0.22942
0.229715
0.229864
0.229936
0.22997
0.229987
0.229994
0.229997
0.229999
0.23
0.23
0.23
0.23
0.23
0.23
0.23
0.23
0.23
0.23
5.63763e-10
2.46396e-09
5.66007e-09
1.10162e-08
1.99447e-08
3.47254e-08
5.89861e-08
9.84038e-08
1.61691e-07
2.61918e-07
4.18183e-07
6.57511e-07
1.01671e-06
1.54359e-06
2.29674e-06
3.34278e-06
4.75055e-06
6.58251e-06
8.88516e-06
1.16811e-05
1.49651e-05
1.87049e-05
2.28458e-05
2.73163e-05
3.20246e-05
3.68594e-05
4.17433e-05
4.66671e-05
5.15557e-05
5.62645e-05
6.07392e-05
6.49479e-05
6.89063e-05
7.27182e-05
7.66173e-05
8.0979e-05
8.63244e-05
9.33404e-05
0.000102836
0.000115736
0.000133112
0.000156239
0.000186684
0.00022642
0.000277963
0.000344553
0.000430379
0.000540867
0.000683061
0.000866105
0.00110189
0.00140589
0.00179828
0.00230534
0.0029612
0.00381089
0.00490222
0.0062913
0.00816203
0.0106011
0.0137883
0.0260485
0.0435706
0.0611075
0.0783847
0.0952064
0.111426
0.126918
0.141565
0.155283
0.167996
0.179633
0.19013
0.199409
0.2074
0.214048
0.219324
0.223262
0.225995
0.22776
0.228809
0.229392
0.229701
0.229857
0.229933
0.229969
0.229986
0.229994
0.229997
0.229999
0.229999
0.23
0.23
0.23
0.23
0.23
0.23
0.23
0.23
0.23
5.55361e-10
2.4272e-09
5.57532e-09
1.08501e-08
1.96405e-08
3.41871e-08
5.8052e-08
9.68032e-08
1.58975e-07
2.57352e-07
4.10578e-07
6.44979e-07
9.96308e-07
1.51086e-06
2.24508e-06
3.26279e-06
4.62935e-06
6.4032e-06
8.62653e-06
1.13177e-05
1.44678e-05
1.80415e-05
2.19819e-05
2.62167e-05
3.0664e-05
3.52279e-05
3.98018e-05
4.43058e-05
4.86958e-05
5.29818e-05
5.7016e-05
6.07719e-05
6.42592e-05
6.75684e-05
7.09089e-05
7.46278e-05
7.92167e-05
8.53272e-05
9.37359e-05
0.000105339
0.000121176