/*--------------------------------*- C++ -*----------------------------------*\
  =========                 |
  \\      /  F ield         | OpenFOAM: The Open Source CFD Toolbox
   \\    /   O peration     | Website:  https://openfoam.org
    \\  /    A nd           | Version:  8
     \\/     M anipulation  |
\*---------------------------------------------------------------------------*/
FoamFile
{
    version     2.0;
    format      ascii;
    class       surfaceScalarField;
    location    "520/fluid";
    object      phi;
}
// * * * * * * * * * * * * * * * * * * * * * * * * * * * * * * * * * * * * * //

dimensions      [1 0 -1 0 0 0 0];

internalField   nonuniform List<scalar> 
7860
(
6.57304e-07
-1.76286e-08
6.54707e-07
-5.2877e-08
6.51011e-07
-8.79451e-08
6.4611e-07
-1.22735e-07
6.39874e-07
-1.57249e-07
6.32148e-07
-1.91445e-07
6.22752e-07
-2.25244e-07
6.11493e-07
-2.58531e-07
5.98174e-07
-2.91145e-07
5.82603e-07
-3.22873e-07
5.64611e-07
-3.53438e-07
5.44071e-07
-3.82483e-07
5.20944e-07
-4.09562e-07
4.95361e-07
-4.34143e-07
4.67597e-07
-4.55602e-07
4.37995e-07
-4.73277e-07
4.07e-07
-4.86598e-07
3.75134e-07
-4.95242e-07
3.42947e-07
-4.99251e-07
3.10948e-07
-4.99069e-07
2.79551e-07
-4.95444e-07
2.49054e-07
-4.89269e-07
2.19646e-07
-4.81404e-07
1.91454e-07
-4.72559e-07
1.64545e-07
-4.63242e-07
1.38891e-07
-4.53772e-07
1.14426e-07
-4.44328e-07
9.10734e-08
-4.34992e-07
6.87611e-08
-4.25784e-07
4.74238e-08
-4.16694e-07
2.7006e-08
-4.07699e-07
7.46068e-09
-3.98776e-07
-1.1246e-08
-3.89906e-07
-2.91401e-08
-3.81082e-07
-4.6252e-08
-3.72306e-07
-6.26082e-08
-3.63576e-07
-7.82297e-08
-3.54849e-07
-9.3136e-08
-3.46132e-07
-1.07346e-07
-3.37442e-07
-1.20876e-07
-3.288e-07
-1.33746e-07
-3.20224e-07
-1.45973e-07
-3.11738e-07
-1.57573e-07
-3.03361e-07
-1.68565e-07
-2.95118e-07
-1.78966e-07
-2.8703e-07
-1.88794e-07
-2.7912e-07
-1.98065e-07
-2.71409e-07
-2.06799e-07
-2.63919e-07
-2.15013e-07
-2.56672e-07
-2.22725e-07
-2.4969e-07
-2.29954e-07
-2.42996e-07
-2.36718e-07
-2.36613e-07
-2.43038e-07
-2.30568e-07
-2.48935e-07
-2.24892e-07
-2.54434e-07
-2.19621e-07
-2.59563e-07
-2.14796e-07
-2.64358e-07
-2.1047e-07
-2.68861e-07
-2.06725e-07
-2.73123e-07
-2.03646e-07
-2.77194e-07
-2.01275e-07
-2.81162e-07
-1.99837e-07
-2.85394e-07
-1.9951e-07
-2.90797e-07
-2.00297e-07
-2.97807e-07
-2.113e-07
-3.05862e-07
-2.23635e-07
-3.14758e-07
-2.37229e-07
-3.24544e-07
-2.52255e-07
-3.35337e-07
-2.68948e-07
-3.47296e-07
-2.87576e-07
-3.60631e-07
-3.08459e-07
-3.75629e-07
-3.31986e-07
-3.92674e-07
-3.58618e-07
-4.12282e-07
-3.88885e-07
-4.35122e-07
-4.23498e-07
-4.62045e-07
-4.63151e-07
-4.9403e-07
-5.07934e-07
-5.32007e-07
-5.56885e-07
-5.76369e-07
-6.07239e-07
-6.26917e-07
-6.53691e-07
-6.82564e-07
-6.89146e-07
-7.41032e-07
-7.07747e-07
-7.99368e-07
-7.08084e-07
-8.54962e-07
-6.93211e-07
-9.06149e-07
-6.67801e-07
-9.52201e-07
-6.35961e-07
-9.92904e-07
-6.00376e-07
-1.02814e-06
-5.62532e-07
-1.05821e-06
-5.23151e-07
-1.08367e-06
-4.82672e-07
-1.10506e-06
-4.41432e-07
-1.12288e-06
-3.9969e-07
-1.13759e-06
-3.57644e-07
-1.14961e-06
-3.15447e-07
-1.15931e-06
-2.73213e-07
-1.16702e-06
-2.31016e-07
-1.17301e-06
-1.88898e-07
-1.17753e-06
-1.46868e-07
-1.18078e-06
-1.04906e-07
-1.18291e-06
-6.29505e-08
-2.09901e-08
6.57924e-07
-1.70194e-08
6.55849e-07
-5.0801e-08
6.52231e-07
-8.43277e-08
6.47072e-07
-1.17575e-07
6.40304e-07
-1.50481e-07
6.31832e-07
-1.82973e-07
6.21546e-07
-2.14957e-07
6.09331e-07
-2.46316e-07
5.95084e-07
-2.76898e-07
5.78724e-07
-3.06512e-07
5.60203e-07
-3.34914e-07
5.39515e-07
-3.61791e-07
5.16718e-07
-3.86759e-07
4.91951e-07
-4.09367e-07
4.6543e-07
-4.29069e-07
4.37432e-07
-4.45261e-07
4.08303e-07
-4.57446e-07
3.78445e-07
-4.65355e-07
3.48276e-07
-4.69048e-07
3.18182e-07
-4.68937e-07
2.88484e-07
-4.65705e-07
2.59416e-07
-4.60159e-07
2.31133e-07
-4.53079e-07
2.03735e-07
-4.4512e-07
1.77283e-07
-4.36751e-07
1.51791e-07
-4.28244e-07
1.2725e-07
-4.19752e-07
1.03636e-07
-4.11347e-07
8.0927e-08
-4.03045e-07
5.90963e-08
-3.94837e-07
3.81198e-08
-3.86699e-07
1.79751e-08
-3.78609e-07
-1.36029e-09
-3.7055e-07
-1.99062e-08
-3.62516e-07
-3.76809e-08
-3.54511e-07
-5.47023e-08
-3.46535e-07
-7.09857e-08
-3.38545e-07
-8.65476e-08
-3.3055e-07
-1.01404e-07
-3.22566e-07
-1.15573e-07
-3.14612e-07
-1.2907e-07
-3.06707e-07
-1.41915e-07
-2.98873e-07
-1.54125e-07
-2.91132e-07
-1.65718e-07
-2.83505e-07
-1.76714e-07
-2.76015e-07
-1.87132e-07
-2.68683e-07
-1.96992e-07
-2.61531e-07
-2.06315e-07
-2.54579e-07
-2.15122e-07
-2.47848e-07
-2.23435e-07
-2.4136e-07
-2.31278e-07
-2.35137e-07
-2.38676e-07
-2.292e-07
-2.45656e-07
-2.23574e-07
-2.52251e-07
-2.18285e-07
-2.58495e-07
-2.13365e-07
-2.64433e-07
-2.08848e-07
-2.70118e-07
-2.04776e-07
-2.75614e-07
-2.01225e-07
-2.81012e-07
-1.98247e-07
-2.86432e-07
-1.9586e-07
-2.92051e-07
-1.94228e-07
-2.98086e-07
-1.93496e-07
-3.04437e-07
-1.94365e-07
-3.11601e-07
-2.04185e-07
-3.19971e-07
-2.15319e-07
-3.29456e-07
-2.27805e-07
-3.40046e-07
-2.41732e-07
-3.51818e-07
-2.57252e-07
-3.649e-07
-2.74577e-07
-3.79471e-07
-2.93981e-07
-3.9576e-07
-3.15801e-07
-4.14051e-07
-3.40442e-07
-4.34681e-07
-3.68382e-07
-4.58023e-07
-4.00299e-07
-4.84539e-07
-4.36792e-07
-5.14766e-07
-4.77878e-07
-5.49238e-07
-5.22593e-07
-5.88335e-07
-5.68319e-07
-6.32193e-07
-6.09991e-07
-6.80332e-07
-6.41133e-07
-7.31277e-07
-6.5689e-07
-7.8287e-07
-6.56544e-07
-8.33077e-07
-6.43033e-07
-8.80495e-07
-6.20397e-07
-9.24419e-07
-5.92044e-07
-9.64563e-07
-5.60234e-07
-1.00077e-06
-5.2633e-07
-1.03301e-06
-4.90909e-07
-1.06139e-06
-4.54289e-07
-1.08609e-06
-4.16735e-07
-1.10732e-06
-3.78455e-07
-1.12535e-06
-3.39616e-07
-1.14045e-06
-3.00354e-07
-1.15288e-06
-2.60783e-07
-1.1629e-06
-2.20989e-07
-1.17076e-06
-1.81039e-07
-1.17665e-06
-1.40977e-07
-1.18073e-06
-1.00827e-07
-1.18308e-06
-6.05992e-08
-2.02511e-08
6.57634e-07
-1.61201e-08
6.55032e-07
-4.81986e-08
6.50738e-07
-8.00334e-08
6.44718e-07
-1.11556e-07
6.36932e-07
-1.42696e-07
6.27333e-07
-1.73373e-07
6.15873e-07
-2.03497e-07
6.02514e-07
-2.32956e-07
5.87236e-07
-2.61619e-07
5.70041e-07
-2.89316e-07
5.50965e-07
-3.15836e-07
5.30079e-07
-3.40902e-07
5.07484e-07
-3.64159e-07
4.83295e-07
-3.85172e-07
4.57672e-07
-4.03435e-07
4.30857e-07
-4.18432e-07
4.0316e-07
-4.2973e-07
3.74921e-07
-4.37094e-07
3.46486e-07
-4.40585e-07
3.18164e-07
-4.40584e-07
2.90206e-07
-4.37714e-07
2.62793e-07
-4.32711e-07
2.36038e-07
-4.26288e-07
2.09985e-07
-4.19033e-07
1.84642e-07
-4.11376e-07
1.60017e-07
-4.03589e-07
1.36118e-07
-3.95825e-07
1.12949e-07
-3.88151e-07
9.05115e-08
-3.80583e-07
6.8804e-08
-3.73106e-07
4.78242e-08
-3.65698e-07
2.75679e-08
-3.58333e-07
8.0292e-09
-3.50994e-07
-1.07982e-08
-3.43672e-07
-2.89228e-08
-3.3637e-07
-4.63532e-08
-3.29088e-07
-6.30971e-08
-3.21784e-07
-7.91646e-08
-3.14465e-07
-9.45671e-08
-3.07146e-07
-1.09317e-07
-2.99844e-07
-1.2343e-07
-2.92577e-07
-1.3692e-07
-2.85367e-07
-1.49802e-07
-2.78233e-07
-1.62095e-07
-2.71196e-07
-1.73817e-07
-2.64276e-07
-1.84989e-07
-2.57495e-07
-1.95632e-07
-2.50871e-07
-2.05769e-07
-2.44426e-07
-2.15425e-07
-2.38177e-07
-2.24627e-07
-2.32144e-07
-2.33404e-07
-2.26346e-07
-2.41787e-07
-2.20802e-07
-2.49815e-07
-2.15533e-07
-2.57527e-07
-2.10561e-07
-2.64972e-07
-2.05908e-07
-2.72207e-07
-2.01603e-07
-2.79298e-07
-1.97676e-07
-2.86321e-07
-1.94192e-07
-2.93372e-07
-1.91186e-07
-3.00559e-07
-1.88661e-07
-3.08009e-07
-1.86768e-07
-3.15864e-07
-1.85609e-07
-3.2307e-07
-1.87568e-07
-3.30936e-07
-1.96371e-07
-3.39872e-07
-2.06439e-07
-3.49902e-07
-2.17836e-07
-3.61073e-07
-2.30628e-07
-3.73458e-07
-2.4494e-07
-3.87158e-07
-2.60958e-07
-4.02293e-07
-2.78935e-07
-4.19003e-07
-2.99188e-07
-4.37444e-07
-3.22108e-07
-4.57765e-07
-3.4818e-07
-4.80106e-07
-3.7809e-07
-5.04684e-07
-4.12357e-07
-5.31823e-07
-4.50892e-07
-5.62027e-07
-4.92545e-07
-5.96095e-07
-5.34401e-07
-6.34695e-07
-5.71522e-07
-6.77717e-07
-5.98212e-07
-7.23947e-07
-6.10727e-07
-7.71441e-07
-6.09092e-07
-8.18303e-07
-5.96192e-07
-8.63175e-07
-5.75537e-07
-9.05285e-07
-5.49938e-07
-9.44302e-07
-5.2122e-07
-9.80209e-07
-4.90424e-07
-1.01298e-06
-4.58134e-07
-1.04259e-06
-4.24688e-07
-1.06902e-06
-3.90297e-07
-1.09236e-06
-3.55117e-07
-1.1127e-06
-3.19275e-07
-1.13018e-06
-2.82881e-07
-1.14493e-06
-2.46031e-07
-1.15711e-06
-2.08808e-07
-1.16686e-06
-1.71284e-07
-1.17432e-06
-1.33518e-07
-1.17959e-06
-9.5557e-08
-1.18275e-06
-5.74386e-08
-1.91821e-08
6.57649e-07
-1.52357e-08
6.54974e-07
-4.55233e-08
6.50503e-07
-7.55624e-08
6.44234e-07
-1.05286e-07
6.36156e-07
-1.34618e-07
6.26259e-07
-1.63476e-07
6.14533e-07
-1.91771e-07
6.00974e-07
-2.19397e-07
5.85586e-07
-2.4623e-07
5.68388e-07
-2.72118e-07
5.49417e-07
-2.96864e-07
5.28735e-07
-3.20217e-07
5.06435e-07
-3.41855e-07
4.82653e-07
-3.61383e-07
4.57573e-07
-3.78346e-07
4.3143e-07
-3.92278e-07
4.04502e-07
-4.02787e-07
3.77088e-07
-4.09661e-07
3.49486e-07
-4.1296e-07
3.2196e-07
-4.13033e-07
2.94728e-07
-4.10455e-07
2.67951e-07
-4.05906e-07
2.41734e-07
-4.00042e-07
2.16139e-07
-3.9341e-07
1.91196e-07
-3.86406e-07
1.66917e-07
-3.79285e-07
1.43305e-07
-3.72189e-07
1.20358e-07
-3.65181e-07
9.80707e-08
-3.58275e-07
7.64409e-08
-3.51457e-07
5.54652e-08
-3.44704e-07
3.51406e-08
-3.37992e-07
1.54641e-08
-3.31302e-07
-3.56833e-09
-3.24626e-07
-2.19614e-08
-3.17964e-07
-3.97199e-08
-3.11315e-07
-5.68481e-08
-3.04642e-07
-7.33529e-08
-2.97946e-07
-8.9243e-08
-2.91242e-07
-1.04528e-07
-2.84544e-07
-1.19219e-07
-2.77872e-07
-1.33329e-07
-2.71242e-07
-1.46872e-07
-2.64674e-07
-1.59866e-07
-2.58187e-07
-1.7233e-07
-2.51798e-07
-1.84282e-07
-2.45528e-07
-1.95746e-07
-2.39393e-07
-2.06745e-07
-2.33412e-07
-2.17306e-07
-2.27602e-07
-2.27456e-07
-2.2198e-07
-2.37228e-07
-2.16561e-07
-2.46655e-07
-2.11362e-07
-2.55778e-07
-2.06399e-07
-2.64638e-07
-2.01689e-07
-2.73285e-07
-1.97249e-07
-2.81776e-07
-1.93102e-07
-2.90171e-07
-1.8927e-07
-2.98539e-07
-1.85815e-07
-3.06965e-07
-1.82752e-07
-3.15536e-07
-1.80083e-07
-3.24351e-07
-1.77945e-07
-3.33499e-07
-1.76432e-07
-3.41517e-07
-1.79851e-07
-3.5016e-07
-1.87778e-07
-3.59739e-07
-1.96914e-07
-3.70308e-07
-2.07326e-07
-3.81929e-07
-2.1907e-07
-3.94676e-07
-2.32261e-07
-4.08632e-07
-2.47077e-07
-4.2389e-07
-2.63758e-07
-4.40554e-07
-2.82613e-07
-4.5874e-07
-3.0402e-07
-4.78557e-07
-3.2847e-07
-5.00143e-07
-3.5662e-07
-5.23761e-07
-3.88865e-07
-5.49806e-07
-4.24978e-07
-5.78834e-07
-4.63649e-07
-6.11498e-07
-5.0186e-07
-6.48254e-07
-5.34871e-07
-6.88883e-07
-5.57661e-07
-7.32281e-07
-5.67382e-07
-7.7681e-07
-5.64593e-07
-8.20921e-07
-5.52097e-07
-8.63481e-07
-5.32986e-07
-9.03793e-07
-5.0963e-07
-9.4148e-07
-4.83535e-07
-9.76367e-07
-4.55538e-07
-1.0084e-06
-4.26107e-07
-1.03756e-06
-3.95521e-07
-1.06389e-06
-3.63966e-07
-1.08743e-06
-3.3158e-07
-1.10823e-06
-2.98478e-07
-1.12635e-06
-2.64761e-07
-1.14186e-06
-2.30518e-07
-1.15484e-06
-1.95831e-07
-1.16535e-06
-1.60771e-07
-1.17346e-06
-1.25406e-07
-1.17922e-06
-8.97946e-08
-1.18267e-06
-5.39906e-08
-1.80335e-08
6.57586e-07
-1.4288e-08
6.54769e-07
-4.27058e-08
6.50094e-07
-7.08878e-08
6.43567e-07
-9.87595e-08
6.35195e-07
-1.26245e-07
6.24983e-07
-1.53265e-07
6.12944e-07
-1.79732e-07
5.99096e-07
-2.05549e-07
5.83469e-07
-2.30602e-07
5.66104e-07
-2.54752e-07
5.47062e-07
-2.7782e-07
5.26425e-07
-2.99578e-07
5.04305e-07
-3.19732e-07
4.80845e-07
-3.37919e-07
4.56226e-07
-3.53721e-07
4.30669e-07
-3.66711e-07
4.04422e-07
-3.76528e-07
3.77752e-07
-3.82976e-07
3.50919e-07
-3.86109e-07
3.24154e-07
-3.86248e-07
2.97645e-07
-3.83924e-07
2.71531e-07
-3.79768e-07
2.45902e-07
-3.74391e-07
2.20814e-07
-3.683e-07
1.96297e-07
-3.61867e-07
1.72364e-07
-3.55331e-07
1.49021e-07
-3.48826e-07
1.26269e-07
-3.4241e-07
1.04106e-07
-3.36096e-07
8.25336e-08
-3.29869e-07
6.15499e-08
-3.23706e-07
4.11546e-08
-3.17583e-07
2.13469e-08
-3.11482e-07
2.12483e-09
-3.05393e-07
-1.65144e-08
-2.99314e-07
-3.45739e-08
-2.93245e-07
-5.20566e-08
-2.87148e-07
-6.89671e-08
-2.81024e-07
-8.5311e-08
-2.74886e-07
-1.01096e-07
-2.68747e-07
-1.16332e-07
-2.62624e-07
-1.31031e-07
-2.56531e-07
-1.45206e-07
-2.50486e-07
-1.58875e-07
-2.44506e-07
-1.72053e-07
-2.38607e-07
-1.84761e-07
-2.32808e-07
-1.97019e-07
-2.27122e-07
-2.08851e-07
-2.21568e-07
-2.20282e-07
-2.16159e-07
-2.3134e-07
-2.1091e-07
-2.42056e-07
-2.05834e-07
-2.52463e-07
-2.00944e-07
-2.62596e-07
-1.96255e-07
-2.72495e-07
-1.91779e-07
-2.82203e-07
-1.87531e-07
-2.91769e-07
-1.83527e-07
-3.01244e-07
-1.79787e-07
-3.10684e-07
-1.76368e-07
-3.20158e-07
-1.7327e-07
-3.29739e-07
-1.70496e-07
-3.39504e-07
-1.68175e-07
-3.495e-07
-1.66414e-07
-3.58335e-07
-1.71192e-07
-3.67784e-07
-1.78377e-07
-3.78016e-07
-1.86732e-07
-3.89105e-07
-1.9629e-07
-4.01128e-07
-2.07104e-07
-4.14164e-07
-2.19287e-07
-4.28294e-07
-2.33014e-07
-4.43602e-07
-2.48523e-07
-4.60178e-07
-2.66116e-07
-4.78121e-07
-2.86161e-07
-4.9752e-07
-3.09165e-07
-5.18509e-07
-3.35732e-07
-5.41338e-07
-3.66142e-07
-5.66379e-07
-4.00047e-07
-5.94151e-07
-4.35984e-07
-6.25251e-07
-4.70858e-07
-6.60068e-07
-5.00135e-07
-6.98375e-07
-5.19413e-07
-7.39176e-07
-5.2662e-07
-7.8106e-07
-5.22731e-07
-8.22718e-07
-5.10452e-07
-8.6319e-07
-4.92519e-07
-9.01868e-07
-4.70955e-07
-9.38395e-07
-4.47009e-07
-9.72557e-07
-4.21375e-07
-1.00423e-06
-3.94436e-07
-1.03333e-06
-3.66418e-07
-1.05983e-06
-3.3747e-07
-1.0837e-06
-3.07706e-07
-1.10496e-06
-2.77222e-07
-1.12361e-06
-2.46105e-07
-1.1397e-06
-2.14435e-07
-1.15324e-06
-1.82288e-07
-1.16427e-06
-1.49738e-07
-1.17283e-06
-1.16851e-07
-1.17893e-06
-8.36928e-08
-1.18259e-06
-5.03255e-08
-1.68061e-08
6.5758e-07
-1.33346e-08
6.54728e-07
-3.98534e-08
6.49989e-07
-6.61488e-08
6.43379e-07
-9.21491e-08
6.34913e-07
-1.1778e-07
6.24613e-07
-1.42965e-07
6.12503e-07
-1.67621e-07
5.98614e-07
-1.91659e-07
5.82986e-07
-2.14973e-07
5.65668e-07
-2.37434e-07
5.46728e-07
-2.58879e-07
5.26249e-07
-2.79097e-07
5.04342e-07
-2.97822e-07
4.81146e-07
-3.1472e-07
4.56838e-07
-3.29408e-07
4.31628e-07
-3.41494e-07
4.05754e-07
-3.50645e-07
3.79472e-07
-3.56682e-07
3.53028e-07
-3.59651e-07
3.26643e-07
-3.59848e-07
3.00496e-07
-3.57761e-07
2.74719e-07
-3.53973e-07
2.49397e-07
-3.49052e-07
2.24583e-07
-3.43469e-07
2.00303e-07
-3.3757e-07
1.76567e-07
-3.3158e-07
1.53378e-07
-3.25622e-07
1.30736e-07
-3.19753e-07
1.08636e-07
-3.13983e-07
8.70784e-08
-3.08299e-07
6.60605e-08
-3.02677e-07
4.55817e-08
-2.97094e-07
2.56412e-08
-2.91532e-07
6.2372e-09
-2.8598e-07
-1.26325e-08
-2.80436e-07
-3.09704e-08
-2.74898e-07
-4.87779e-08
-2.69332e-07
-6.60574e-08
-2.63736e-07
-8.28137e-08
-2.5812e-07
-9.90536e-08
-2.52498e-07
-1.14786e-07
-2.46881e-07
-1.30023e-07
-2.41285e-07
-1.44774e-07
-2.35724e-07
-1.59055e-07
-2.30214e-07
-1.72882e-07
-2.2477e-07
-1.86272e-07
-2.19407e-07
-1.99245e-07
-2.14139e-07
-2.11822e-07
-2.08981e-07
-2.24026e-07
-2.03944e-07
-2.35883e-07
-1.99042e-07
-2.4742e-07
-1.94287e-07
-2.58664e-07
-1.8969e-07
-2.69647e-07
-1.85263e-07
-2.80402e-07
-1.81016e-07
-2.90962e-07
-1.76963e-07
-3.01364e-07
-1.73117e-07
-3.11648e-07
-1.69496e-07
-3.21852e-07
-1.66159e-07
-3.32033e-07
-1.63085e-07
-3.42247e-07
-1.60279e-07
-3.52581e-07
-1.5784e-07
-3.63123e-07
-1.55872e-07
-3.72892e-07
-1.61484e-07
-3.83078e-07
-1.68232e-07
-3.93867e-07
-1.75986e-07
-4.05385e-07
-1.84819e-07
-4.17727e-07
-1.94811e-07
-4.30981e-07
-2.06087e-07
-4.45229e-07
-2.18824e-07
-4.60555e-07
-2.33259e-07
-4.77052e-07
-2.49687e-07
-4.94819e-07
-2.68467e-07
-5.13954e-07
-2.90108e-07
-5.34624e-07
-3.15146e-07
-5.57104e-07
-3.4375e-07
-5.81789e-07
-3.75451e-07
-6.09197e-07
-4.0866e-07
-6.39866e-07
-4.40265e-07
-6.74051e-07
-4.6601e-07
-7.11382e-07
-4.82124e-07
-7.50827e-07
-4.87202e-07
-7.91076e-07
-4.82497e-07
-8.30978e-07
-4.70557e-07
-8.69722e-07
-4.53779e-07
-9.06799e-07
-4.3388e-07
-9.41908e-07
-4.11901e-07
-9.74868e-07
-3.88416e-07
-1.00556e-06
-3.63741e-07
-1.03392e-06
-3.38064e-07
-1.05988e-06
-3.11512e-07
-1.0834e-06
-2.8418e-07
-1.10447e-06
-2.56154e-07
-1.12307e-06
-2.27509e-07
-1.13918e-06
-1.98319e-07
-1.15282e-06
-1.68654e-07
-1.16397e-06
-1.38583e-07
-1.17265e-06
-1.08174e-07
-1.17885e-06
-7.74911e-08
-1.18258e-06
-4.65993e-08
-1.55611e-08
6.57568e-07
-1.23693e-08
6.54687e-07
-3.69721e-08
6.49906e-07
-6.13679e-08
6.43244e-07
-8.54868e-08
6.34723e-07
-1.09259e-07
6.24369e-07
-1.32611e-07
6.12215e-07
-1.55467e-07
5.98299e-07
-1.77744e-07
5.82669e-07
-1.99343e-07
5.65383e-07
-2.20147e-07
5.46512e-07
-2.40007e-07
5.26148e-07
-2.58732e-07
5.04402e-07
-2.76074e-07
4.81416e-07
-2.91731e-07
4.5736e-07
-3.05349e-07
4.32438e-07
-3.16567e-07
4.06878e-07
-3.25078e-07
3.8092e-07
-3.30716e-07
3.54799e-07
-3.3352e-07
3.28723e-07
-3.3376e-07
3.02862e-07
-3.31887e-07
2.77341e-07
-3.2844e-07
2.52245e-07
-3.23942e-07
2.27622e-07
-3.18833e-07
2.03499e-07
-3.13434e-07
1.79884e-07
-3.07953e-07
1.5678e-07
-3.02507e-07
1.34186e-07
-2.97148e-07
1.12096e-07
-2.91884e-07
9.05097e-08
-2.86703e-07
6.94239e-08
-2.81582e-07
4.88374e-08
-2.76499e-07
2.87489e-08
-2.71436e-07
9.15686e-09
-2.66381e-07
-9.94009e-09
-2.61332e-07
-2.85436e-08
-2.56288e-07
-4.66545e-08
-2.51214e-07
-6.42752e-08
-2.46108e-07
-8.141e-08
-2.40978e-07
-9.80647e-08
-2.35835e-07
-1.14247e-07
-2.30691e-07
-1.29964e-07
-2.25559e-07
-1.45229e-07
-2.20451e-07
-1.60053e-07
-2.15382e-07
-1.7445e-07
-2.10365e-07
-1.88435e-07
-2.05413e-07
-2.02027e-07
-2.00538e-07
-2.15245e-07
-1.95755e-07
-2.28108e-07
-1.91073e-07
-2.40638e-07
-1.86504e-07
-2.52859e-07
-1.82059e-07
-2.64794e-07
-1.77747e-07
-2.76468e-07
-1.73581e-07
-2.87907e-07
-1.6957e-07
-2.99137e-07
-1.65727e-07
-3.10181e-07
-1.62067e-07
-3.21065e-07
-1.58608e-07
-3.3181e-07
-1.55411e-07
-3.42455e-07
-1.52439e-07
-3.52993e-07
-1.49742e-07
-3.63466e-07
-1.47372e-07
-3.74027e-07
-1.45422e-07
-3.84521e-07
-1.51011e-07
-3.95373e-07
-1.57406e-07
-4.06725e-07
-1.64666e-07
-4.18704e-07
-1.72877e-07
-4.31416e-07
-1.82139e-07
-4.44955e-07
-1.92592e-07
-4.59411e-07
-2.04416e-07
-4.74875e-07
-2.17846e-07
-4.91447e-07
-2.33169e-07
-5.09236e-07
-2.50737e-07
-5.28359e-07
-2.71047e-07
-5.49008e-07
-2.94563e-07
-5.71468e-07
-3.21357e-07
-5.96123e-07
-3.50863e-07
-6.2344e-07
-3.81407e-07
-6.53844e-07
-4.09915e-07
-6.87451e-07
-4.32446e-07
-7.23803e-07
-4.45802e-07
-7.61911e-07
-4.49112e-07
-8.00618e-07
-4.438e-07
-8.38946e-07
-4.32235e-07
-8.76201e-07
-4.16526e-07
-9.11943e-07
-3.9814e-07
-9.45895e-07
-3.7795e-07
-9.77878e-07
-3.56433e-07
-1.00777e-06
-3.33851e-07
-1.03547e-06
-3.10358e-07
-1.06093e-06
-2.86059e-07
-1.08407e-06
-2.61036e-07
-1.10487e-06
-2.3536e-07
-1.12327e-06
-2.091e-07
-1.13927e-06
-1.82319e-07
-1.15284e-06
-1.55084e-07
-1.16397e-06
-1.27458e-07
-1.17264e-06
-9.95042e-08
-1.17884e-06
-7.12866e-08
-1.18257e-06
-4.28683e-08
-1.43137e-08
6.57569e-07
-1.14043e-08
6.54685e-07
-3.40883e-08
6.49899e-07
-5.65819e-08
6.43232e-07
-7.88196e-08
6.34709e-07
-1.00736e-07
6.2436e-07
-1.22263e-07
6.12223e-07
-1.4333e-07
5.9834e-07
-1.6386e-07
5.82762e-07
-1.83764e-07
5.6555e-07
-2.02935e-07
5.46777e-07
-2.21234e-07
5.26535e-07
-2.38489e-07
5.04935e-07
-2.54473e-07
4.82114e-07
-2.68909e-07
4.58241e-07
-2.81473e-07
4.33513e-07
-2.91835e-07
4.08152e-07
-2.99712e-07
3.82391e-07
-3.04949e-07
3.5646e-07
-3.07582e-07
3.30562e-07
-3.07855e-07
3.04864e-07
-3.06181e-07
2.79489e-07
-3.03056e-07
2.54519e-07
-2.98963e-07
2.30001e-07
-2.94306e-07
2.0596e-07
-2.89383e-07
1.82403e-07
-2.84388e-07
1.59331e-07
-2.79427e-07
1.36741e-07
-2.74549e-07
1.14627e-07
-2.69763e-07
9.29852e-08
-2.65054e-07
7.18129e-08
-2.60404e-07
5.11079e-08
-2.55788e-07
3.08686e-08
-2.51191e-07
1.10945e-08
-2.46602e-07
-8.21586e-09
-2.42017e-07
-2.70647e-08
-2.37435e-07
-4.5453e-08
-2.32821e-07
-6.33825e-08
-2.28173e-07
-8.08561e-08
-2.23499e-07
-9.7878e-08
-2.18807e-07
-1.14454e-07
-2.14109e-07
-1.30592e-07
-2.09415e-07
-1.463e-07
-2.04736e-07
-1.61589e-07
-2.00086e-07
-1.76472e-07
-1.95475e-07
-1.90961e-07
-1.90916e-07
-2.05073e-07
-1.8642e-07
-2.18822e-07
-1.81998e-07
-2.32228e-07
-1.7766e-07
-2.45308e-07
-1.73416e-07
-2.58083e-07
-1.69277e-07
-2.70573e-07
-1.6525e-07
-2.828e-07
-1.61347e-07
-2.94786e-07
-1.57578e-07
-3.06552e-07
-1.53955e-07
-3.18119e-07
-1.50494e-07
-3.29501e-07
-1.47221e-07
-3.40719e-07
-1.44191e-07
-3.51794e-07
-1.41363e-07
-3.62702e-07
-1.38837e-07
-3.734e-07
-1.36682e-07
-3.83873e-07
-1.35125e-07
-3.94567e-07
-1.40337e-07
-4.05724e-07
-1.46273e-07
-4.17417e-07
-1.53e-07
-4.29729e-07
-1.60595e-07
-4.42744e-07
-1.69157e-07
-4.56547e-07
-1.78825e-07
-4.71227e-07
-1.89775e-07
-4.86877e-07
-2.02237e-07
-5.03605e-07
-2.16485e-07
-5.21528e-07
-2.32859e-07
-5.40787e-07
-2.51837e-07
-5.61597e-07
-2.73803e-07
-5.84254e-07
-2.9875e-07
-6.09132e-07
-3.26033e-07
-6.36648e-07
-3.53935e-07
-6.67124e-07
-3.79476e-07
-7.00541e-07
-3.99057e-07
-7.36343e-07
-4.10018e-07
-7.73556e-07
-4.11911e-07
-8.11125e-07
-4.06236e-07
-8.48196e-07
-3.95168e-07
-8.84179e-07
-3.80544e-07
-9.18698e-07
-3.63621e-07
-9.51519e-07
-3.45131e-07
-9.82481e-07
-3.25471e-07
-1.01147e-06
-3.0486e-07
-1.0384e-06
-2.83429e-07
-1.06319e-06
-2.61266e-07
-1.08579e-06
-2.3844e-07
-1.10613e-06
-2.15015e-07
-1.12418e-06
-1.91049e-07
-1.1399e-06
-1.66601e-07
-1.15326e-06
-1.41729e-07
-1.16422e-06
-1.16492e-07
-1.17278e-06
-9.09494e-08
-1.17891e-06
-6.51598e-08
-1.18259e-06
-3.91834e-08
-1.30825e-08
6.57569e-07
-1.04399e-08
6.54689e-07
-3.12075e-08
6.49908e-07
-5.18015e-08
6.4325e-07
-7.21615e-08
6.34741e-07
-9.22268e-08
6.24414e-07
-1.11936e-07
6.12308e-07
-1.31223e-07
5.98466e-07
-1.50019e-07
5.82942e-07
-1.68241e-07
5.658e-07
-1.85792e-07
5.47112e-07
-2.02547e-07
5.26972e-07
-2.18348e-07
5.05489e-07
-2.3299e-07
4.82801e-07
-2.46219e-07
4.5907e-07
-2.57741e-07
4.34491e-07
-2.67254e-07
4.0928e-07
-2.74499e-07
3.83665e-07
-2.79332e-07
3.57871e-07
-2.81783e-07
3.32097e-07
-2.82076e-07
3.06508e-07
-2.80587e-07
2.81224e-07
-2.77767e-07
2.56327e-07
-2.7406e-07
2.31864e-07
-2.69837e-07
2.07858e-07
-2.65371e-07
1.84316e-07
-2.60841e-07
1.61239e-07
-2.56345e-07
1.38621e-07
-2.51926e-07
1.16457e-07
-2.47593e-07
9.47404e-08
-2.43333e-07
7.34687e-08
-2.39128e-07
5.26395e-08
-2.34955e-07
3.22515e-08
-2.30799e-07
1.23033e-08
-2.2665e-07
-7.20718e-09
-2.22503e-07
-2.62821e-08
-2.18356e-07
-4.49215e-08
-2.14178e-07
-6.31262e-08
-2.09964e-07
-8.08977e-08
-2.05723e-07
-9.82393e-08
-2.01461e-07
-1.15155e-07
-1.97188e-07
-1.31652e-07
-1.92913e-07
-1.47736e-07
-1.88647e-07
-1.63416e-07
-1.844e-07
-1.78703e-07
-1.80183e-07
-1.93607e-07
-1.76006e-07
-2.08141e-07
-1.7188e-07
-2.2232e-07
-1.67814e-07
-2.36157e-07
-1.63817e-07
-2.49669e-07
-1.59899e-07
-2.62872e-07
-1.56068e-07
-2.75785e-07
-1.52332e-07
-2.88425e-07
-1.48702e-07
-3.00812e-07
-1.45186e-07
-3.12965e-07
-1.41798e-07
-3.24903e-07
-1.38551e-07
-3.36643e-07
-1.35478e-07
-3.48211e-07
-1.32619e-07
-3.59623e-07
-1.29946e-07
-3.70878e-07
-1.27579e-07
-3.81935e-07
-1.25616e-07
-3.92422e-07
-1.24826e-07
-4.03232e-07
-1.29547e-07
-4.14573e-07
-1.34954e-07
-4.26485e-07
-1.41112e-07
-4.39029e-07
-1.48076e-07
-4.52276e-07
-1.55938e-07
-4.66303e-07
-1.64826e-07
-4.81196e-07
-1.74912e-07
-4.97053e-07
-1.86411e-07
-5.13988e-07
-1.99582e-07
-5.32127e-07
-2.14753e-07
-5.5163e-07
-2.32368e-07
-5.72729e-07
-2.52739e-07
-5.95719e-07
-2.75794e-07
-6.20951e-07
-3.00833e-07
-6.48776e-07
-3.26137e-07
-6.79403e-07
-3.4887e-07
-7.12685e-07
-3.6579e-07
-7.48005e-07
-3.74709e-07
-7.84424e-07
-3.75497e-07
-8.20999e-07
-3.69665e-07
-8.56985e-07
-3.59183e-07
-8.91876e-07
-3.45654e-07
-9.25347e-07
-3.3015e-07
-9.57188e-07
-3.13289e-07
-9.87254e-07
-2.95405e-07
-1.01543e-06
-2.76679e-07
-1.04164e-06
-2.57222e-07
-1.0658e-06
-2.37108e-07
-1.08784e-06
-2.16397e-07
-1.10771e-06
-1.95143e-07
-1.12537e-06
-1.73399e-07
-1.14075e-06
-1.51215e-07
-1.15384e-06
-1.28644e-07
-1.16459e-06
-1.0574e-07
-1.17298e-06
-8.2556e-08
-1.179e-06
-5.91462e-08
-1.18261e-06
-3.55661e-08
-1.18739e-08
6.57573e-07
-9.47879e-09
6.547e-07
-2.83353e-08
6.49934e-07
-4.70351e-08
6.43296e-07
-6.55231e-08
6.34813e-07
-8.3744e-08
6.24519e-07
-1.01642e-07
6.12454e-07
-1.19158e-07
5.98662e-07
-1.36227e-07
5.83198e-07
-1.52777e-07
5.66125e-07
-1.68719e-07
5.47518e-07
-1.8394e-07
5.27467e-07
-1.98297e-07
5.06081e-07
-2.11604e-07
4.83495e-07
-2.23633e-07
4.5987e-07
-2.34116e-07
4.35397e-07
-2.4278e-07
4.10288e-07
-2.49388e-07
3.84768e-07
-2.5381e-07
3.59058e-07
-2.56072e-07
3.33357e-07
-2.56373e-07
3.07827e-07
-2.55055e-07
2.8259e-07
-2.52527e-07
2.57726e-07
-2.49193e-07
2.33281e-07
-2.45389e-07
2.09279e-07
-2.41366e-07
1.85726e-07
-2.37285e-07
1.6262e-07
-2.33236e-07
1.39956e-07
-2.29259e-07
1.17728e-07
-2.25361e-07
9.59284e-08
-2.21532e-07
7.4555e-08
-2.17751e-07
5.36045e-08
-2.14002e-07
3.30748e-08
-2.10267e-07
1.2964e-08
-2.06537e-07
-6.72927e-09
-2.02808e-07
-2.60067e-08
-1.99076e-07
-4.48679e-08
-1.95314e-07
-6.33125e-08
-1.91517e-07
-8.13414e-08
-1.87691e-07
-9.89564e-08
-1.83843e-07
-1.16161e-07
-1.7998e-07
-1.32959e-07
-1.76112e-07
-1.49356e-07
-1.72247e-07
-1.65358e-07
-1.68393e-07
-1.80975e-07
-1.64562e-07
-1.96215e-07
-1.60762e-07
-2.11089e-07
-1.57002e-07
-2.25607e-07
-1.53291e-07
-2.39782e-07
-1.49638e-07
-2.53627e-07
-1.46049e-07
-2.67156e-07
-1.42535e-07
-2.80383e-07
-1.39101e-07
-2.93324e-07
-1.35757e-07
-3.05994e-07
-1.32512e-07
-3.1841e-07
-1.29378e-07
-3.3059e-07
-1.26368e-07
-3.42552e-07
-1.23513e-07
-3.54318e-07
-1.20849e-07
-3.65909e-07
-1.18352e-07
-3.77358e-07
-1.16127e-07
-3.88714e-07
-1.1425e-07
-3.99392e-07
-1.14296e-07
-4.10408e-07
-1.18549e-07
-4.21947e-07
-1.23434e-07
-4.34063e-07
-1.29016e-07
-4.46814e-07
-1.35345e-07
-4.60268e-07
-1.42504e-07
-4.74502e-07
-1.50612e-07
-4.89604e-07
-1.59831e-07
-5.05676e-07
-1.7036e-07
-5.2284e-07
-1.82441e-07
-5.41232e-07
-1.96383e-07
-5.61031e-07
-2.12591e-07
-5.82479e-07
-2.31312e-07
-6.05867e-07
-2.52425e-07
-6.31519e-07
-2.75199e-07
-6.59718e-07
-2.97951e-07
-6.90568e-07
-3.18029e-07
-7.23813e-07
-3.32551e-07
-7.58783e-07
-3.39742e-07
-7.94578e-07
-3.39704e-07
-8.30339e-07
-3.33904e-07
-8.65417e-07
-3.24106e-07
-8.99372e-07
-3.11699e-07
-9.31923e-07
-2.976e-07
-9.62884e-07
-2.82328e-07
-9.92126e-07
-2.66163e-07
-1.01955e-06
-2.49259e-07
-1.04506e-06
-2.31709e-07
-1.06859e-06
-2.13575e-07
-1.09008e-06
-1.9491e-07
-1.10946e-06
-1.7576e-07
-1.12669e-06
-1.56171e-07
-1.14172e-06
-1.36188e-07
-1.1545e-06
-1.15859e-07
-1.16501e-06
-9.52293e-08
-1.17322e-06
-7.43483e-08
-1.1791e-06
-5.32646e-08
-1.18264e-06
-3.20283e-08
-1.06922e-08
6.57576e-07
-8.52091e-09
6.54713e-07
-2.54727e-08
6.49963e-07
-4.22844e-08
6.43346e-07
-5.89065e-08
6.34891e-07
-7.52893e-08
6.24632e-07
-9.13824e-08
6.12607e-07
-1.07133e-07
5.98863e-07
-1.22483e-07
5.83454e-07
-1.37368e-07
5.66442e-07
-1.51707e-07
5.47902e-07
-1.654e-07
5.27924e-07
-1.78318e-07
5.06615e-07
-1.90296e-07
4.84108e-07
-2.01126e-07
4.60564e-07
-2.10572e-07
4.36167e-07
-2.18384e-07
4.1113e-07
-2.24352e-07
3.85675e-07
-2.28355e-07
3.60019e-07
-2.30417e-07
3.34362e-07
-2.30716e-07
3.08864e-07
-2.29557e-07
2.83647e-07
-2.2731e-07
2.58791e-07
-2.24336e-07
2.34343e-07
-2.2094e-07
2.10324e-07
-2.17347e-07
1.86743e-07
-2.13702e-07
1.63595e-07
-2.10087e-07
1.40876e-07
-2.06538e-07
1.18577e-07
-2.03062e-07
9.66938e-08
-1.99647e-07
7.52206e-08
-1.96277e-07
5.41541e-08
-1.92934e-07
3.34923e-08
-1.89604e-07
1.32337e-08
-1.86277e-07
-6.62275e-09
-1.8295e-07
-2.60784e-08
-1.79619e-07
-4.51324e-08
-1.76258e-07
-6.37834e-08
-1.72864e-07
-8.20315e-08
-1.69441e-07
-9.98773e-08
-1.65995e-07
-1.17323e-07
-1.62533e-07
-1.34371e-07
-1.59061e-07
-1.51026e-07
-1.55589e-07
-1.67292e-07
-1.52124e-07
-1.83177e-07
-1.48675e-07
-1.98687e-07
-1.45249e-07
-2.1383e-07
-1.41855e-07
-2.28617e-07
-1.38502e-07
-2.43057e-07
-1.35195e-07
-2.5716e-07
-1.31943e-07
-2.70939e-07
-1.28752e-07
-2.84406e-07
-1.25631e-07
-2.97573e-07
-1.22586e-07
-3.10456e-07
-1.19627e-07
-3.23067e-07
-1.16763e-07
-3.35425e-07
-1.14008e-07
-3.47546e-07
-1.11389e-07
-3.59455e-07
-1.08937e-07
-3.71174e-07
-1.06631e-07
-3.82738e-07
-1.0456e-07
-3.94172e-07
-1.02808e-07
-4.05056e-07
-1.03508e-07
-4.16304e-07
-1.07314e-07
-4.28056e-07
-1.11696e-07
-4.40373e-07
-1.16713e-07
-4.5332e-07
-1.22412e-07
-4.66969e-07
-1.28869e-07
-4.81399e-07
-1.36196e-07
-4.96705e-07
-1.4454e-07
-5.12994e-07
-1.54084e-07
-5.30397e-07
-1.65051e-07
-5.49061e-07
-1.77731e-07
-5.69179e-07
-1.92483e-07
-5.91e-07
-2.09499e-07
-6.14809e-07
-2.28622e-07
-6.40895e-07
-2.49116e-07
-6.69474e-07
-2.69372e-07
-7.00552e-07
-2.8695e-07
-7.33778e-07
-2.99322e-07
-7.68451e-07
-3.05067e-07
-8.03711e-07
-3.04443e-07
-8.3878e-07
-2.98833e-07
-8.73085e-07
-2.898e-07
-9.0624e-07
-2.78543e-07
-9.37999e-07
-2.6584e-07
-9.68198e-07
-2.52129e-07
-9.96716e-07
-2.37645e-07
-1.02346e-06
-2.22517e-07
-1.04834e-06
-2.06822e-07
-1.0713e-06
-1.90616e-07
-1.09227e-06
-1.73942e-07
-1.11119e-06
-1.5684e-07
-1.12801e-06
-1.39351e-07
-1.14269e-06
-1.21514e-07
-1.15518e-06
-1.0337e-07
-1.16544e-06
-8.49608e-08
-1.17346e-06
-6.63288e-08
-1.17921e-06
-4.75177e-08
-1.18267e-06
-2.85715e-08
-9.53778e-09
6.57579e-07
-7.56639e-09
6.54726e-07
-2.26197e-08
6.49991e-07
-3.75494e-08
6.43396e-07
-5.23114e-08
6.34969e-07
-6.68618e-08
6.24742e-07
-8.11557e-08
6.12755e-07
-9.51464e-08
5.99055e-07
-1.08783e-07
5.83693e-07
-1.22007e-07
5.66734e-07
-1.34747e-07
5.4825e-07
-1.46916e-07
5.2833e-07
-1.58399e-07
5.07082e-07
-1.69048e-07
4.84636e-07
-1.78681e-07
4.61149e-07
-1.87086e-07
4.36807e-07
-1.94044e-07
4.11818e-07
-1.99364e-07
3.86403e-07
-2.02942e-07
3.6078e-07
-2.04795e-07
3.35144e-07
-2.05082e-07
3.09659e-07
-2.04074e-07
2.84444e-07
-2.02097e-07
2.59581e-07
-1.99474e-07
2.35116e-07
-1.96476e-07
2.1107e-07
-1.93303e-07
1.87452e-07
-1.90084e-07
1.64257e-07
-1.86893e-07
1.41479e-07
-1.83761e-07
1.19111e-07
-1.80693e-07
9.71454e-08
-1.77681e-07
7.55779e-08
-1.74709e-07
5.44047e-08
-1.7176e-07
3.3624e-08
-1.68823e-07
1.32345e-08
-1.65887e-07
-6.76462e-09
-1.6295e-07
-2.63744e-08
-1.60009e-07
-4.55932e-08
-1.57039e-07
-6.44192e-08
-1.54037e-07
-8.28514e-08
-1.51008e-07
-1.0089e-07
-1.47955e-07
-1.18534e-07
-1.44886e-07
-1.35788e-07
-1.41806e-07
-1.52652e-07
-1.38723e-07
-1.69132e-07
-1.35643e-07
-1.85231e-07
-1.32574e-07
-2.00956e-07
-1.29522e-07
-2.16313e-07
-1.26496e-07
-2.31309e-07
-1.23503e-07
-2.45954e-07
-1.20548e-07
-2.60257e-07
-1.17638e-07
-2.74226e-07
-1.1478e-07
-2.87874e-07
-1.11981e-07
-3.01211e-07
-1.09247e-07
-3.1425e-07
-1.06586e-07
-3.27004e-07
-1.04007e-07
-3.39488e-07
-1.01521e-07
-3.51719e-07