/*--------------------------------*- C++ -*----------------------------------*\
  =========                 |
  \\      /  F ield         | OpenFOAM: The Open Source CFD Toolbox
   \\    /   O peration     | Website:  https://openfoam.org
    \\  /    A nd           | Version:  8
     \\/     M anipulation  |
\*---------------------------------------------------------------------------*/
FoamFile
{
    version     2.0;
    format      ascii;
    class       volScalarField;
    location    "520/fluid";
    object      Qdot;
}
// * * * * * * * * * * * * * * * * * * * * * * * * * * * * * * * * * * * * * //

dimensions      [1 -1 -3 0 0 0 0];

internalField   nonuniform List<scalar> 
4000
(
3.72535e-13
-2.05049e-17
0
0
1.856e-16
0
0
0
0
0
-5.32745e-10
0
1.09951e-09
0
2.25373e-09
2.04526e-09
2.06895e-09
-2.43123e-15
9.44889e-09
2.29519e-07
2.94436e-06
4.19068e-05
0.000503492
0.00503999
0.0412967
0.276077
1.5178
6.95739
27.0208
90.3573
264.039
682.89
1580.08
3303.72
6300.55
11068.5
18144.1
28120.6
41773.4
60224.7
85081.3
118496
163278
223164
302832
409294
551414
740918
993206
1.32847e+06
1.77313e+06
2.36178e+06
3.13965e+06
4.16593e+06
5.51812e+06
7.29782e+06
9.63853e+06
1.26929e+07
1.66349e+07
2.19433e+07
2.89118e+07
3.8071e+07
4.1744e+08
3.10881e+07
2.23575e+07
1.58922e+07
1.11433e+07
7.69248e+06
5.2173e+06
3.47009e+06
2.26146e+06
1.44816e+06
924451
600783
177156
14727.6
425.736
6.18922
0.0586822
0.00057708
1.01649e-05
4.4845e-07
4.88786e-08
9.34808e-09
2.98259e-09
1.21167e-09
5.129e-10
1.99184e-10
8.35226e-11
3.19861e-11
1.45748e-11
5.83232e-12
2.65176e-12
9.9636e-13
4.40293e-13
1.91667e-13
7.21327e-14
8.25239e-13
9.56922e-15
1.65008e-15
0
1.72244e-12
-8.54892e-17
-3.02617e-07
0
3.23813e-07
-3.33213e-07
1.15336e-19
0
-3.56308e-07
0
0
0
0
-1.20347e-09
-2.90381e-17
-5.86778e-14
-2.42826e-15
9.14429e-09
2.22309e-07
2.9655e-06
3.9327e-05
0.000473505
0.00476017
0.0393021
0.265326
1.47438
6.83176
26.8102
90.5279
266.898
695.81
1620.56
3404.01
6515.54
11469
18807.9
29119.3
43160.7
62030.1
87310.5
121136
166292
226313
306425
413465
556370
746984
1.00091e+06
1.33867e+06
1.78723e+06
2.38208e+06
3.16994e+06
4.21246e+06
5.5912e+06
7.4145e+06
9.82706e+06
1.29896e+07
1.71314e+07
2.27982e+07
3.03898e+07
4.06163e+07
4.09355e+08
3.03265e+07
2.17834e+07
1.54625e+07
1.08225e+07
7.4532e+06
5.03968e+06
3.33967e+06
2.16762e+06
1.38315e+06
882837
554940
132357
8595.94
211.94
2.74268
0.025193
0.000271101
5.74127e-06
3.08073e-07
3.89355e-08
8.97091e-09
2.61605e-09
9.87209e-10
4.38816e-10
1.91832e-10
8.16864e-11
3.56637e-11
1.50264e-11
4.39704e-13
2.85007e-12
1.04274e-12
4.35909e-13
1.90327e-13
7.24668e-14
2.64228e-14
9.56385e-15
1.65131e-15
-4.8689e-18
1.39572e-12
-3.5732e-12
7.41193e-12
0
0
-2.6317e-11
6.61488e-11
-3.40786e-07
-2.48642e-10
0
0
-1.03118e-09
-9.34036e-10
1.15865e-09
-5.56289e-14
-4.28858e-09
-2.48077e-15
8.79014e-09
1.98665e-08
2.72991e-06
3.84651e-05
0.000458824
0.00461575
0.0382868
0.260312
1.45915
6.82606
27.0535
92.2493
274.565
722.237
1695.85
3584.27
6886.55
12155.6
19949.3
30853.2
45607.3
65284.5
91425.1
125989
171688
232883
314744
423746
569063
762787
1.02085e+06
1.36424e+06
1.82066e+06
2.42668e+06
3.23073e+06
4.29706e+06
5.71119e+06
7.58748e+06
1.00797e+07
1.33538e+07
1.76617e+07
2.35755e+07
3.15199e+07
1.06066e+08
3.53214e+08
2.97261e+07
2.12665e+07
1.50243e+07
1.04604e+07
7.16197e+06
4.81215e+06
3.16755e+06
2.04251e+06
1.29737e+06
830128
477868
86498.8
4397.11
94.8776
1.14821
0.0109092
0.000135156
3.48029e-06
2.23318e-07
3.18005e-08
7.53005e-09
2.5271e-09
9.45334e-10
4.81131e-10
1.72492e-10
6.87436e-11
3.07205e-11
8.47756e-12
6.46548e-12
2.46234e-12
1.01653e-12
4.30941e-13
-6.65041e-13
6.51736e-14
8.17201e-13
8.81856e-15
1.47434e-15
3.71217e-13
-2.76376e-07
0
-1.25323e-20
0
0
-2.59125e-11
-3.285e-07
1.07581e-10
-3.39113e-07
4.63122e-19
0
4.50359e-10
2.6514e-14
-2.67321e-14
-3.09525e-17
-1.86381e-09
-2.49634e-15
1.70105e-08
4.11631e-07
2.86525e-06
3.79319e-05
0.000450128
0.00454921
0.0379764
0.260252
1.47171
6.94884
27.7999
95.6808
287.365
762.437
1804.43
3836.56
7395.3
13084.7
21481.1
33171.9
48871.6
69586.8
96746.6
132506
180217
243462
327532
439461
588599
787302
1.05187e+06
1.40383e+06
1.87161e+06
2.49285e+06
3.31744e+06
4.41164e+06
5.8638e+06
7.79197e+06
1.03547e+07
1.37184e+07
1.81454e+07
2.42172e+07
3.23456e+07
2.06799e+08
2.57753e+08
2.95551e+07
2.09578e+07
1.46772e+07
1.01296e+07
6.87459e+06
4.57828e+06
2.98752e+06
1.91162e+06
1.20907e+06
778099
379010
51936.9
2128.48
40.5518
0.462672
0.00458071
6.54919e-05
2.0464e-06
1.55618e-07
2.50934e-08
6.49864e-09
2.24239e-09
8.63087e-10
4.14306e-10
1.81651e-10
7.76586e-11
3.01927e-11
1.44215e-11
5.51186e-12
-3.40128e-12
1.06488e-12
6.11433e-12
1.76332e-13
6.84391e-14
8.13382e-13
8.49998e-15
1.47992e-15
3.70695e-13
0
-3.52747e-12
-5.92429e-12
0
-1.24815e-11
2.54908e-11
-3.22356e-07
0
-1.31102e-10
0
0
9.75626e-10
-1.08287e-09
-7.43546e-18
-3.37071e-17
5.23798e-14
-2.5346e-15
8.21504e-09
2.16319e-07
2.70042e-06
3.78085e-05
0.000450378
0.00457199
0.038405
0.265151
1.5117
7.19883
29.0502
100.845
305.414
816.776
1946.99
4162.41
8043.72
14244.2
23365
35953.8
52612.9
74339.9
102992
140830
190594
256353
343592
459604
614046
819657
1.09325e+06
1.45702e+06
1.9403e+06
2.58195e+06
3.43346e+06
4.56327e+06
6.06253e+06
8.05308e+06
1.06981e+07
1.41552e+07
1.87088e+07
2.49643e+07
3.33505e+07
3.0574e+08
1.59507e+08
2.92826e+07
2.05768e+07
1.42761e+07
9.76016e+06
6.56184e+06
4.32973e+06
2.80059e+06
1.77882e+06
1.12156e+06
725887
267153
29758.9
1021.1
17.5124
0.192779
0.00203279
3.38513e-05
1.27296e-06
1.14516e-07
2.0379e-08
5.49723e-09
1.97655e-09
7.94948e-10
3.50355e-10
1.36662e-10
6.92885e-11
3.15674e-11
1.24906e-11
5.43952e-12
1.25437e-12
9.51272e-13
3.73622e-13
5.67557e-12
8.63013e-13
2.49748e-14
8.10973e-15
1.30649e-15
2.64062e-07
-2.01369e-17
0
0
-1.20456e-11
-3.05946e-07
-3.11753e-07
-1.06873e-19
-1.26976e-10
-3.24342e-07
0
-1.2378e-14
0
-1.79562e-18
-1.05835e-09
1.73271e-09
-1.74589e-09
-2.59282e-15
1.23206e-08
3.99992e-07
2.55985e-06
3.80762e-05
0.000457729
0.00466962
0.0394825
0.274606
1.57791
7.57457
30.8129
107.813
329.028
886.289
2126.2
4567.87
8841.11
15622.7
25523.5
39052.1
56911.6
80376.4
110842
150575
202711
271506
362692
483877
645118
859681
1.14508e+06
1.52444e+06
2.02833e+06
2.69721e+06
3.58467e+06
4.76175e+06
6.32283e+06
8.39355e+06
1.11337e+07
1.46996e+07
1.94073e+07
2.58627e+07
3.44662e+07
3.98246e+08
6.25747e+07
2.85543e+07
1.98327e+07
1.36243e+07
9.23303e+06
6.1574e+06
4.03227e+06
2.59036e+06
1.63667e+06
1.03091e+06
663177
197462
16652.6
495.371
7.78763
0.0840782
0.000953329
1.84272e-05
8.24289e-07
8.37482e-08
1.67982e-08
4.80783e-09
1.72717e-09
8.2942e-10
3.03008e-10
1.40595e-10
5.78041e-11
2.77587e-11
1.23357e-11
4.73268e-12
2.08334e-12
8.41569e-13
-5.19204e-12
1.48494e-13
6.19842e-14
2.19678e-14
7.39283e-15
5.05091e-12
2.63683e-07
2.72983e-07
0
-2.89092e-07
1.73879e-16
-1.21471e-11
0
1.04985e-19
0
-1.0216e-10
0
0
-5.09905e-10
0
-2.44102e-14
-2.06386e-09
-2.07691e-09
-2.66391e-15
1.87822e-08
2.17155e-07
2.64787e-06
3.90979e-05
0.000471329
0.00483664
0.0411671
0.288394
1.6696
8.07581
33.1005
116.675
358.599
972.293
2345.15
5052.1
9757.98
17144.9
27879.9
42581.2
61996.5
87052.3
119340
161238
216062
288321
384046
511231
680439
905616
1.2052e+06
1.60359e+06
2.13311e+06
2.83658e+06
3.77075e+06
5.01088e+06
6.6567e+06
8.84029e+06
1.17349e+07
1.54816e+07
2.04311e+07
2.71429e+07
3.59491e+07
4.55226e+08
3.63688e+07
2.57629e+07
1.80157e+07
1.24205e+07
8.42849e+06
5.61968e+06
3.67582e+06
2.35811e+06
1.48974e+06
942777
588540
140950
9439.4
249.678
3.65743
0.0393244
0.000483408
1.08025e-05
5.65522e-07
6.68363e-08
1.36875e-08
4.50675e-09
1.70399e-09
6.64098e-10
3.06936e-10
1.32501e-10
6.06215e-11
2.40824e-11
1.05362e-11
4.91071e-12
2.06482e-12
9.36889e-13
3.44417e-13
1.35572e-13
-7.37623e-13
2.1976e-14
7.41082e-15
1.22932e-15
0
2.86672e-21
2.79579e-07
2.86474e-07
1.71907e-16
1.47278e-11
2.98879e-11
-1.43689e-15
-2.21372e-10
-9.9976e-11
-3.11957e-07
-4.03036e-10
0
0
-1.01975e-17
-3.62659e-09
-2.81009e-16
-2.74661e-15
1.81271e-08
2.39257e-07
3.09877e-06
4.06373e-05
0.000491166
0.00507029
0.0434429
0.306492
1.78726
8.70787
35.9478
127.598
394.754
1075.9
2602.18
5603.29
10784.7
18922.3
30810.4
46846.3
67661.9
94297.7
128417
172533
230148
306021
406491
539952
717496
953810
1.26836e+06
1.68702e+06
2.24421e+06
2.98581e+06
3.97308e+06
5.28797e+06
7.04042e+06
9.37832e+06
1.24943e+07
1.65445e+07
2.21174e+07
2.95876e+07
3.95833e+07
4.4552e+08
3.28273e+07
2.33394e+07
1.6371e+07
1.13118e+07
7.68688e+06
5.1288e+06
3.35572e+06
2.15395e+06
1.3641e+06
870544
512539
99902.1
5555.17
133.1
1.84071
0.019913
0.000265816
6.79525e-06
4.0842e-07
5.35514e-08
1.25802e-08
4.0418e-09
1.51967e-09
6.30724e-10
2.81988e-10
1.17638e-10
5.32966e-11
2.37842e-11
1.04182e-11
4.45554e-12
1.84508e-12
8.29662e-13
-4.83707e-13
5.51484e-12
5.56621e-14
2.04839e-14
-7.49433e-13
1.2346e-15
2.62924e-07
0
0
2.83854e-07
0
2.93673e-07
0
-4.83355e-11
-2.04058e-19
1.20221e-10
0
0
-4.82969e-10
-2.29503e-14
7.86252e-10
3.05725e-07
-2.91502e-16
3.17801e-09
1.42722e-08
4.0144e-07
3.2557e-06
4.23739e-05
0.00051674
0.00536792
0.0463001
0.328918
1.93157
9.47737
39.3989
140.73
437.473
1195.29
2894.78
6258.87
12086.2
21115.2
34120
51449.9
73694.5
101897
137813
184098
244430
323793
428785
568132
753362
999746
1.32756e+06
1.76378e+06
2.34439e+06
3.11746e+06
4.14738e+06
5.5206e+06
7.35362e+06
9.80403e+06
1.30704e+07
1.73653e+07
2.33293e+07
3.14048e+07
6.02859e+07
4.18679e+08
3.06568e+07
2.17817e+07
1.52701e+07
1.05457e+07
7.16236e+06
4.77614e+06
3.12382e+06
2.00597e+06
1.27414e+06
821178
440204
71736.4
3431.99
75.6163
0.998372
0.010945
0.000158439
4.5818e-06
3.09756e-07
4.44396e-08
1.06253e-08
3.57833e-09
1.35096e-09
5.92841e-10
2.52349e-10
1.23143e-10
4.61935e-11
2.18856e-11
1.49898e-11
-2.68677e-13
1.63006e-12
7.4667e-13
3.15949e-13
1.22371e-13
4.95135e-14
1.89937e-14
6.70468e-15
1.06013e-15
2.62547e-07
0
0
-2.81255e-07
1.4141e-11
0
0
0
-1.39298e-15
0
2.9757e-07
-2.97173e-07
0
1.59889e-18
-9.58024e-18
-3.83163e-17
-3.40157e-09
-2.96683e-15
-2.81561e-07
4.13552e-07
3.42419e-06
4.47766e-05
0.000548107
0.0057283
0.0497359
0.355733
2.10345
10.3902
43.4418
155.828
486.456
1337.64
3271.73
7090.06
13602.4
23550.4
37731
56367.1
80013.5
109724
147360
195697
258579
341154
450214
594704
786426
1.04099e+06
1.37909e+06
1.82823e+06
2.42501e+06
3.21823e+06
4.27302e+06
5.67651e+06
7.54548e+06
1.00368e+07
1.33344e+07
1.76439e+07
2.3585e+07
3.15332e+07
1.38904e+08
3.50776e+08
2.95363e+07
2.09302e+07
1.46404e+07
1.00912e+07
6.84203e+06
4.55613e+06
2.97717e+06
1.91209e+06
1.21788e+06
791754
385577
52844.8
2237.06
45.7901
0.582731
0.00650605
0.000101726
3.28391e-06
2.48004e-07
3.78044e-08
9.69531e-09
3.32399e-09
1.27416e-09
5.33133e-10
2.73001e-10
1.01704e-10
5.23376e-11
2.1604e-11
8.60109e-12
2.78048e-12
8.21914e-13
7.19084e-13
2.89697e-13
1.16437e-13
4.64006e-14
-7.44364e-13
5.62092e-15
1.06389e-15
-2.02642e-13
0
2.73971e-07
0
-2.3837e-20
-1.41301e-11
0
0
-2.90331e-07
0
-4.16497e-10
0
0
-4.65182e-18
-7.37348e-10
-4.31868e-17
-3.14617e-16
-3.11571e-15
1.32037e-08
2.68537e-07
3.33089e-06
4.7492e-05
0.000584779
0.00614974
0.0537437
0.386954
2.30209
11.4274
47.9705
173.016
545.115
1514.88
3718.2
8048.12
15316.6
26231.1
41617.7
61551.3
86541
117687
156957
207236
272503
358023
470714
619654
816787
1.07788e+06
1.42377e+06
1.88212e+06
2.48958e+06
3.2949e+06
4.36291e+06
5.77999e+06
7.6614e+06
1.01612e+07
1.34558e+07
1.77456e+07
2.36382e+07
3.14976e+07
2.05033e+08
2.87011e+08
2.88729e+07
2.04212e+07
1.42602e+07
9.81466e+06
6.64619e+06
4.42142e+06
2.88776e+06
1.85569e+06
1.18545e+06
776219
335417
40221.6
1539.17
29.5668
0.364807
0.00415909
6.984e-05
2.48453e-06
2.03712e-07
3.42545e-08
9.1491e-09
3.26226e-09
1.30797e-09
5.72376e-10
2.44109e-10
1.12339e-10
4.79751e-11
2.13136e-11
9.27451e-12
3.53838e-12
1.50377e-12
6.64904e-13
2.87859e-13
8.89743e-13
4.62662e-14
1.74866e-14
5.62673e-15
1.06686e-15
-1.6464e-13
0
0
1.23847e-11
0
-1.13363e-11
5.08298e-11
0
0
0
0
-2.82354e-07
8.03644e-10
0
-8.96551e-18
-4.167e-17
-2.75066e-07
-3.25602e-15
1.90005e-08
4.15291e-07
3.44093e-06
5.06384e-05
0.000626546
0.00663022
0.0583219
0.422398
2.5246
12.5913
53.3664
194.901
619.074
1727.05
4246.62
9159.92
17236.9
29130.1
45717.1
66904
93166.5
125684
166520
218669
286208
374488
490508
643420
845238
1.11178e+06
1.46392e+06
1.92927e+06
2.54435e+06
3.35761e+06
4.4333e+06
5.85685e+06
7.74198e+06
1.02396e+07
1.35196e+07
1.77856e+07
2.36359e+07
3.14156e+07
2.62107e+08
2.31987e+08
2.8285e+07
2.00063e+07
1.39695e+07
9.6136e+06
6.50962e+06
4.33074e+06
2.82944e+06
1.82023e+06
1.16655e+06
768414
284164
31635.6
1113.06
20.2485
0.243952
0.0028403
5.09194e-05
1.96975e-06
1.74742e-07
3.00303e-08
8.2416e-09
2.93083e-09
1.18437e-09
5.153e-10
2.39758e-10
1.10465e-10
4.20446e-11
1.79679e-11
8.39115e-12
3.88245e-12
1.48916e-12
6.59375e-13
2.38109e-13
-5.11515e-12
4.02033e-14
1.74571e-14
-5.07941e-12
-7.36864e-13
-2.02063e-13
-2.6623e-07
3.34232e-12
1.2269e-11
0
0
2.75648e-11
1.8818e-19
0
0
-7.44303e-19
-2.73737e-07
0
1.54633e-09
2.0095e-14
-2.68634e-07
-3.5411e-16
7.60024e-14
2.42566e-08
1.53276e-07
3.70766e-06
5.39187e-05
0.000672646
0.00716473
0.0634046
0.461651
2.7798
14.0333
59.9956
220.371
704.125
1973.72
4860.89
10427.8
19329.8
32156.4
49890
72247.1
99701.9
133534
175894
229877
299626
390559
509722
666314
872377
1.14374e+06
1.50123e+06
1.97236e+06
2.59343e+06
3.4125e+06
4.49318e+06
5.9198e+06
7.80365e+06
1.02937e+07
1.35576e+07
1.77979e+07
2.35968e+07
3.12892e+07
3.0951e+08
1.86866e+08
2.77058e+07
1.9618e+07
1.37118e+07
9.44444e+06
6.40032e+06
4.26179e+06
2.78761e+06
1.79659e+06
1.15529e+06
762690
259700
25582.4
840.814
14.6216
0.173061
0.00205959
3.91361e-05
1.63022e-06
1.561e-07
2.86948e-08
8.06081e-09
2.94622e-09
1.25004e-09
5.04264e-10
2.11949e-10
9.67472e-11
4.05266e-11
1.92043e-11
3.1029e-12
3.45763e-12
1.4738e-12
5.8165e-12
2.36426e-13
1.0548e-13
4.4384e-12
1.59625e-14
5.26639e-15
-4.27679e-12
4.79415e-18
0
0
0
0
0
-2.74e-07
0
-2.72392e-07
1.94284e-10
2.68492e-07
0
-2.639e-07
-2.60344e-07
-1.93958e-14
-4.96629e-17
-3.61798e-16
-3.20092e-09
2.63699e-08
4.36216e-07
4.0015e-06
5.76248e-05
0.000721964
0.00773317
0.0687982
0.504879
3.07289
15.6245
67.2891
248.947
800.84
2256.63
5563.54
11836.8
21506
35127.1
53898.1
77286.7
105837
140925
184779
240570
312488
405993
528160
688211
898190
1.1739e+06
1.53609e+06
2.01211e+06
2.63801e+06
3.46139e+06
4.54494e+06
5.97111e+06
7.85097e+06
1.03338e+07
1.35764e+07
1.77817e+07
2.3523e+07
3.11236e+07
3.48033e+08
1.50443e+08
2.71294e+07
1.92426e+07
1.34708e+07
9.29293e+06
6.30758e+06
4.20703e+06
2.75701e+06
1.78121e+06
1.14959e+06
758965
239826
21363.8
663.841
11.1183
0.129847
0.00157781
3.15523e-05
1.40233e-06
1.40443e-07
2.66526e-08
7.67691e-09
2.87747e-09
1.13324e-09
5.38558e-10
2.19876e-10
9.49627e-11
4.77806e-11
1.89061e-11
3.81298e-12
3.41446e-12
1.45763e-12
6.00421e-13
2.58078e-13
1.01614e-13
7.96208e-13
5.11233e-12
-5.05239e-12
-5.00939e-12
-2.60676e-07
1.93938e-17
0
-1.13201e-20
0
0
0
0
0
-1.8954e-10
0
-2.58842e-07
0
-6.47505e-10
-8.04016e-18
2.46672e-07
-1.5397e-09
-3.74525e-15
2.20904e-08
4.50277e-07
4.2786e-06
6.12571e-05
0.000772807
0.00832049
0.0745893
0.55263
3.38616
17.3406
75.2402
280.493
908.874
2574.8
6347.25
13335.5
23581.4
37723.2
57327.1
81571
111102
147367
192671
250223
324244
420212
545220
708484
922029
1.20159e+06
1.56779e+06
2.04775e+06
2.677e+06
3.50213e+06
4.58501e+06
6.00822e+06
7.8815e+06
1.03475e+07
1.35588e+07
1.7718e+07
2.33864e+07
3.08796e+07
3.78286e+08
1.2144e+08
2.65563e+07
1.88761e+07
1.32419e+07
9.1541e+06
6.22658e+06
4.16229e+06
2.73443e+06
1.77183e+06
1.14801e+06
757495
224390
18435
547.097
8.88265
0.102689
0.00127141
2.65508e-05
1.24023e-06
1.31608e-07
2.59486e-08
7.32634e-09
2.80478e-09
1.10602e-09
5.26457e-10
2.13849e-10
9.31165e-11
4.19998e-11
1.85981e-11
8.04345e-12
3.55389e-12
1.34832e-12
6.40887e-13
2.55941e-13
1.00945e-13
3.67926e-14
5.09025e-12
5.25642e-15
5.0067e-12
4.77981e-18
0
0
-2.65819e-07
-2.38773e-11
0
0
-9.43263e-11
0
2.42093e-15
0
2.50269e-07
-2.4632e-07
-2.61724e-18
-2.39248e-07
2.35286e-07
-3.91617e-16
-3.89889e-15
2.3358e-08
3.39365e-07
4.57032e-06
6.48797e-05
0.000822851
0.00891986
0.080629
0.601048
3.70747
19.1228
83.6093
314.164
1025.63
2920.41
7183.17
14803.4
25220.8
39450.8
59585.2
84455.9
114806
152132
198788
257989
333970
432210
559800
725938
942605
1.22542e+06
1.59475e+06
2.07718e+06
2.70772e+06
3.53275e+06
4.61392e+06
6.03145e+06
7.89005e+06
1.03295e+07
1.34957e+07
1.75829e+07
2.3131e+07
3.04288e+07
4.08822e+08
9.55207e+07
2.59856e+07
1.85167e+07
1.30222e+07
9.02477e+06
6.15438e+06
4.1251e+06
2.71791e+06
1.76702e+06
1.14956e+06
757094
213036
16427.6
469.743
7.43583
0.0852915
0.00107296
2.3217e-05
1.13247e-06
1.22762e-07
2.51956e-08
7.11996e-09
2.89504e-09
1.16239e-09
4.92444e-10
2.20762e-10
9.67751e-11
3.83946e-11
1.82816e-11
7.19921e-12
3.50506e-12
6.85109e-13
5.88303e-13
-4.83123e-12
1.06007e-13
3.94828e-14
1.58178e-14
-7.34716e-13
8.94513e-16
0
1.92307e-17
0
0
-1.54481e-16
0
-4.66475e-11
0
1.71729e-19
-2.3587e-15
2.46798e-07
0
-2.38267e-07
-2.51999e-18
-9.8938e-18
-5.34862e-17
1.14253e-09
2.77321e-09
2.48901e-08
3.65163e-07
4.94971e-06
6.8333e-05
0.000870544
0.0095007
0.0863251
0.647252
4.01805
20.8697
91.936
348.178
1145.05
3274.09
8005.14
16007
25876.3
39576.8
59880.7
85100.6
116034
154223
202013
262617
340256
440402
570123
738567
957601
1.24264e+06
1.61385e+06
2.09776e+06
2.72954e+06
3.55471e+06
4.63231e+06
6.04079e+06
7.88336e+06
1.02962e+07
1.34196e+07
1.74448e+07
2.28981e+07
3.00594e+07
4.27839e+08
7.78934e+07
2.54181e+07
1.81631e+07
1.28091e+07
8.90222e+06
6.08837e+06
4.09317e+06
2.70557e+06
1.76526e+06
1.15302e+06
758021
205291
15095.2
419.211
6.50367
0.074147
0.000944623
2.10169e-05
1.05817e-06
1.17661e-07
2.44148e-08
7.36329e-09
2.65158e-09
1.13135e-09
5.01189e-10
2.15657e-10
9.22685e-11
3.97076e-11
1.86645e-11
7.79284e-12
3.27586e-12
1.31529e-12
5.81913e-13
2.51391e-13
9.95017e-14
4.33397e-12
1.43263e-14
-7.3281e-13
-7.3369e-13
4.76687e-18
-1.91493e-17
0
0
2.18997e-20
-2.31285e-11
2.52597e-11
-2.52187e-07
1.67689e-19
0
1.54268e-10
3.71332e-10
-2.29747e-07
-2.42262e-18
5.65341e-10
-1.3613e-09
-4.1932e-16
-2.07684e-07
2.82293e-08
2.68074e-07
5.07379e-06
7.12278e-05
0.000912006
0.00999413
0.091228
0.687518
4.29226
22.4338
99.5049
379.558
1256.3
3599.29
8688.75
16542.2
24751.5
37184.1
57275.2
82487.4
113663
152348
200852
262355
341041
442342
573285
742955
963151
1.24928e+06
1.6216e+06
2.10631e+06
2.73722e+06
3.559e+06
4.63006e+06
6.02707e+06
7.85075e+06
1.02338e+07
1.33106e+07
1.72687e+07
2.26182e+07
2.96262e+07
4.42295e+08
6.53622e+07
2.48531e+07
1.78124e+07
1.25992e+07
8.78249e+06
6.02479e+06
4.06318e+06
2.69463e+06
1.7643e+06
1.15656e+06
760624
200608
14270.4
387.703
5.92343
0.0672185
0.00086431
1.96271e-05
1.01112e-06
1.14805e-07
2.42015e-08
6.99148e-09
2.72857e-09
1.09955e-09
4.83712e-10
2.20915e-10
9.2604e-11
3.95832e-11
1.76238e-11
7.66304e-12
3.05049e-12
2.1075e-12
6.20262e-13
9.79541e-13
-4.15355e-12
4.18751e-14
1.42672e-14
4.86949e-15
-4.99179e-12
0
-1.90679e-17
-1.09337e-20
0
2.56318e-07
-4.28253e-20
4.49754e-11
-8.85878e-11
1.63647e-19
2.37689e-07
-1.83865e-10
2.92004e-10
8.31224e-15
-2.32512e-18
6.6444e-10
1.05517e-09
1.26827e-09
4.51e-09
2.21568e-08
2.82021e-07
5.05628e-06
7.33774e-05
0.000941933
0.0103553
0.0948558
0.717642
4.49975
23.6319
105.376
404.148
1343.18
3837.97
9029.39
15772.3
24051.8
31513
50820.2
75562.6
106434
144954
193388
254858
333498
434695
565432
734774
954471
1.23978e+06
1.61036e+06
2.09197e+06
2.71818e+06
3.53277e+06
4.59299e+06
5.97374e+06
7.7732e+06
1.01203e+07
1.31442e+07
1.70269e+07
2.22613e+07
2.91005e+07
4.52059e+08
5.75147e+07
2.42849e+07
1.74569e+07
1.23835e+07
8.65677e+06
5.95549e+06
4.02809e+06
2.67933e+06
1.75962e+06
1.1568e+06
761459
198270
13831.6
370.171
5.59544
0.063283
0.000818536
1.88307e-05
9.84722e-07
1.12821e-07
2.36606e-08
7.21575e-09
2.7262e-09
1.14158e-09
4.74753e-10
2.15348e-10
9.56765e-11
4.14024e-11
1.78916e-11
8.60288e-12
3.35143e-12
1.36836e-12
6.13049e-13
-4.77215e-13
9.7939e-14
4.16151e-14
1.56239e-14
5.21224e-15
8.93483e-16
0
2.58461e-07
0
0
0
1.23593e-11
-2.45987e-07
-3.8883e-11
-1.11181e-15
9.14016e-11
-6.07524e-19
-4.11575e-15
-1.14756e-18
6.53087e-10
2.00893e-07
-5.4646e-17
-2.89468e-14
4.24971e-09
2.72373e-08
3.86898e-07
5.07557e-06
7.44852e-05
0.00095724
0.0105402
0.0967261
0.733298
4.60856
24.2659
108.503
417.167
1386.26
3915.85
8809.24
16432.9
25055.9
32852
39960.3
63651.2
93393.4
130712
177821
237764
314590
413587
541623
707597
923042
1.20293e+06
1.56669e+06
2.03962e+06
2.65468e+06
3.45483e+06
4.49615e+06
5.85189e+06
7.61788e+06
9.91966e+06
1.28821e+07
1.66815e+07
2.17942e+07
2.84592e+07
4.57209e+08
5.40011e+07
2.36987e+07
1.70748e+07
1.21376e+07
8.50129e+06
5.85932e+06
3.97021e+06
2.64557e+06
1.74047e+06
1.14577e+06
755200
196984
13669.5
363.068
5.45728
0.0616051
0.000798981
1.84925e-05
9.7369e-07
1.12673e-07
2.35711e-08
7.24522e-09
2.70165e-09
1.18564e-09
4.69886e-10
2.1967e-10
9.56631e-11
4.30996e-11
1.69392e-11
7.7332e-12
3.29814e-12
1.34927e-12
6.05694e-13
2.44051e-13
9.15341e-14
4.13504e-14
4.98249e-12
5.19836e-15
8.68353e-16
-4.75257e-18
0
-2.5737e-07
0
-2.53043e-07
0
-2.4603e-07
8.6672e-11
0
-2.17168e-15
4.23149e-15
0
0
-6.53079e-10
-1.50725e-14
-5.46452e-17
-2.89463e-14
1.90647e-09
2.26522e-08
3.8099e-07
5.16669e-06
7.44028e-05
0.000957418
0.0105408
0.0967301
0.73332
4.60866
24.2664
108.505
417.172
1386.28
3915.86
8809.3
16432.9
25055.9
32852
39958
63648.8
93390.8
130709
177818
237761
314587
413585
541621
707595
923042
1.20293e+06
1.56669e+06
2.03963e+06
2.65469e+06
3.45485e+06
4.49617e+06
5.85191e+06
7.61792e+06
9.91971e+06
1.28821e+07
1.66816e+07
2.17943e+07
2.84594e+07
4.57218e+08
5.39917e+07
2.36988e+07
1.70748e+07
1.21376e+07
8.5013e+06
5.85933e+06
3.97022e+06
2.64558e+06
1.74048e+06
1.14578e+06
755200
196980
13669.1
363.054
5.45706
0.0616028
0.000798955
1.84916e-05
9.737e-07
1.12674e-07
2.35712e-08
7.08681e-09
2.70162e-09
1.10977e-09
4.91379e-10
2.15188e-10
9.10788e-11
4.04926e-11
1.75359e-11
7.73322e-12
3.22118e-12
1.30131e-12
5.61722e-13
2.49029e-13
9.71255e-14
3.85369e-14
1.55528e-14
5.19836e-15
8.68353e-16
2.59192e-07
0
2.59208e-07
-1.15789e-11
2.56317e-07
2.27717e-11
-2.47977e-11
0
-2.42474e-07
1.70528e-10
-2.32448e-07
4.26297e-15
-2.84637e-10
0
-1.57957e-14
-5.30795e-17
2.97056e-14
5.48334e-14
2.2156e-08
4.72298e-07
5.05991e-06
7.34123e-05
0.000942195
0.010357
0.0948665
0.717701
4.50003
23.6331
105.38
404.161
1343.22
3838.03
9029.26
15770.8
24051.9
31513
50816.7
75558.7
106430
144949
193383
254853
333494
434691
565429
734775
954476
1.23979e+06
1.61037e+06
2.092e+06
2.71821e+06
3.53282e+06
4.59306e+06
5.97383e+06
7.77332e+06
1.01204e+07
1.31444e+07
1.70272e+07
2.22616e+07
2.91009e+07
4.52085e+08
5.74863e+07
2.4285e+07
1.7457e+07
1.23835e+07
8.6568e+06
5.95551e+06
4.0281e+06
2.67933e+06
1.75963e+06
1.1568e+06
761456
198260
13830.3
370.13
5.5948
0.0632759
0.000818457
1.88255e-05
9.84737e-07
1.13966e-07
2.39213e-08
7.05211e-09
2.64233e-09
1.06706e-09
4.94756e-10
2.20994e-10
9.27972e-11
4.14026e-11
1.80308e-11
8.53253e-12
3.17723e-12
1.32886e-12
6.13051e-13
2.46552e-13
9.79373e-14
3.87866e-14
7.48879e-13
-4.98743e-12
4.98923e-12
3.63862e-13
0
-5.85509e-12
0
1.52556e-16
-2.31283e-11
0
0
2.48464e-07
7.8637e-11
0
-6.3325e-19
3.63209e-10
0
2.19465e-07
3.22877e-14
1.33627e-09
4.76983e-09
2.82283e-08
3.67154e-07
4.86859e-06
7.127e-05
0.000912455
0.00999738
0.0912518
0.687675
4.29314
22.438
99.5219
379.617
1256.47
3599.73
8689.52
16542.6
24751
37184.4
57275.9
82488.7
113665
152351
200856
262361
341048
442351
573296
742967
963168
1.2493e+06
1.62164e+06
2.10636e+06
2.73729e+06
3.55909e+06
4.63019e+06
6.02723e+06
7.85096e+06
1.0234e+07
1.3311e+07
1.72692e+07
2.26187e+07
2.96269e+07
4.42339e+08
6.53143e+07
2.48532e+07
1.78124e+07
1.25992e+07
8.78251e+06
6.0248e+06
4.06318e+06
2.69463e+06
1.7643e+06
1.15657e+06
760618
200590
14268.2
387.631
5.92225
0.0672053
0.000864158
1.96252e-05
1.0122e-06
1.1546e-07
2.42017e-08
7.16051e-09
2.57176e-09
1.1798e-09
4.67606e-10
2.16215e-10
9.50005e-11
4.08003e-11
1.70056e-11
7.66284e-12
3.12974e-12
1.38721e-12
-1.05764e-13
2.49002e-13
8.38171e-13
3.90287e-14
1.42677e-14
4.86961e-15
8.49711e-16
-2.59933e-07
0
-1.10888e-20
0
0
-1.05358e-11
2.59992e-07
2.57516e-07
0
1.8004e-10
0
0
2.38192e-07
-2.33364e-07
-9.89356e-18
-2.27725e-07
-1.14249e-09
2.2401e-07
2.48891e-08
3.5528e-07
4.83861e-06
6.83591e-05
0.000870735
0.00950358
0.0863503
0.647424
4.01902
20.8743
91.9545
348.242
1145.24
3274.58
8006.08
16008
25876.9
39578.5
59882.9
85103.6
116038
154228
202020
262627
340269
440420
570146
738596
957635
1.24268e+06
1.6139e+06
2.09783e+06
2.72964e+06
3.55484e+06
4.63247e+06
6.041e+06
7.88364e+06
1.02966e+07
1.34201e+07
1.74454e+07
2.28988e+07
3.00604e+07
4.27904e+08
7.78252e+07
2.54182e+07
1.81631e+07
1.28092e+07
8.90223e+06
6.08837e+06
4.09317e+06
2.70556e+06
1.76525e+06
1.15302e+06
758012
205266
15091.8
419.101
6.50182
0.0741262
0.000944391
2.10164e-05
1.0571e-06
1.18337e-07
2.44152e-08
7.22169e-09
2.6516e-09
1.13136e-09
4.70743e-10
2.15662e-10
8.92646e-11
4.04081e-11
1.65542e-11
7.79311e-12
7.37531e-12
5.85918e-13
-1.52051e-13
2.28571e-13
1.02656e-13
7.82221e-13
-5.01673e-12
-5.01321e-12
8.50035e-16
2.60304e-07
0
0
-1.56209e-16
0
3.12295e-16
4.74837e-11
0
0
8.2901e-11
6.8578e-19
0
-7.07157e-10
0
1.794e-14
-2.37982e-07
-3.5366e-14
-3.89877e-15
2.62523e-08
3.41695e-07
4.56908e-06
6.47797e-05
0.000823245
0.00892359
0.0806584
0.601241
3.70854
19.1278
83.6291
314.232
1025.83
2920.91
7184.18
14804.8
25222.3
39453.4
59588.5
84460.1
114811
152139
198797
258001
333986
432231
559827
725973
942650
1.22548e+06
1.59482e+06
2.07726e+06
2.70783e+06
3.5329e+06
4.61411e+06
6.0317e+06
7.89039e+06
1.033e+07
1.34963e+07
1.75836e+07
2.3132e+07
3.04299e+07
4.08908e+08
9.54314e+07
2.59856e+07
1.85168e+07
1.30222e+07
9.02477e+06
6.15436e+06
4.12508e+06
2.71789e+06
1.76701e+06
1.14956e+06
757075
213003
16422.9
469.581
7.43306
0.0852599
0.0010726
2.32126e-05
1.12996e-06
1.24029e-07
2.52003e-08
7.12014e-09
2.89512e-09
1.1624e-09
5.13983e-10
2.20764e-10
9.35794e-11
4.12138e-11
1.76418e-11
1.21483e-11
-1.58551e-12
6.85081e-13
5.8832e-13
2.30681e-13
-4.22265e-12
3.94839e-14
1.58178e-14
4.89024e-15
8.94542e-16
0
0
2.66568e-07
-1.20387e-11
1.5833e-16
-2.69714e-07
2.16772e-11
0
0
2.64077e-07
0
7.4098e-10
2.55464e-07
2.52158e-07
-1.42506e-09
2.46665e-07
-1.53966e-09
-3.74514e-15
2.20897e-08
3.24881e-07
4.41999e-06
6.12766e-05
0.000772906
0.00832392
0.0746209
0.552852
3.3874
17.3462
75.2619
280.565
909.08
2575.31
6348.29
13337
23583.4
37726.4
57331.1
81575.9
111108
147374
192681
250235
324261
420234
545248
708521
922077
1.20165e+06
1.56787e+06
2.04785e+06
2.67714e+06
3.50229e+06
4.58522e+06
6.0085e+06
7.88187e+06
1.0348e+07
1.35594e+07
1.77188e+07
2.33874e+07
3.08809e+07
3.78392e+08
1.21326e+08
2.65563e+07
1.88761e+07
1.32419e+07
9.15407e+06
6.22654e+06
4.16226e+06
2.7344e+06
1.77181e+06
1.148e+06
757479
224349
18428.5
546.863
8.87848
0.10264
0.00127087
2.65411e-05
1.24027e-06
1.30307e-07
2.5949e-08
7.32642e-09
2.80486e-09
1.14492e-09
5.02182e-10
2.19573e-10
1.01334e-10
4.48708e-11
1.85987e-11
8.04373e-12
7.68532e-12
1.44089e-12
-3.75677e-12
2.55942e-13
5.20716e-12
7.88622e-13
1.66686e-14
-7.36287e-13
-7.34937e-13
4.79346e-18
0
0
-1.14284e-20
-1.60256e-16
0
0
0
0
-2.54524e-15
0
0
0
0
8.15951e-10
-4.41437e-17
2.5382e-07
-7.96323e-14
2.31746e-08
3.12726e-07
4.25352e-06
5.76626e-05
0.000722252
0.00773816
0.068841
0.505153
3.07434
15.6308
67.3125
249.022
801.05
2257.13
5564.57
11838.5
21508.3
35130.6
53902.6
77292.1
105844
140934
184790
240584
312506
406016
528191
688250
898242
1.17396e+06
1.53618e+06
2.01222e+06
2.63815e+06
3.46158e+06
4.54519e+06
5.97141e+06
7.85137e+06
1.03344e+07
1.3577e+07
1.77826e+07
2.35242e+07
3.1125e+07
3.48165e+08
1.50306e+08
2.71293e+07
1.92425e+07
1.34707e+07
9.29285e+06
6.30751e+06
4.20697e+06
2.75696e+06
1.78118e+06
1.14957e+06
758941
239775
21354.6
663.495
11.1119
0.129771
0.00157697
3.15359e-05
1.40239e-06
1.41793e-07
2.66529e-08
7.52321e-09
2.70311e-09
1.13328e-09
5.38577e-10
2.19161e-10
1.01474e-10
4.20251e-11
1.96506e-11
8.1639e-12
3.41459e-12
1.45767e-12
6.00438e-13
2.58079e-13
1.01614e-13
4.2797e-14
1.59217e-14
5.26281e-15
8.9359e-16
2.61421e-07
0
-2.7026e-07
2.73507e-07
-1.11077e-11
0
0
0
0
-3.74287e-19
3.9577e-10
0
1.46605e-18
-6.937e-10
-8.46095e-10
-4.58847e-17
3.94377e-14
-6.06222e-09
2.42559e-08
2.91597e-07
3.98482e-06
5.39655e-05
0.000673289
0.0071692
0.063447
0.461979
2.78141
14.0401
60.0199
220.447
704.333
1974.21
4861.91
10429.5
19332.2
32160.2
49894.8
72253
99709.1
133543
175905
229892
299645
390583
509754
666356
872432
1.14381e+06
1.50132e+06
1.97248e+06
2.59359e+06
3.4127e+06
4.49343e+06
5.92013e+06
7.80406e+06
1.02942e+07
1.35583e+07
1.77987e+07
2.35979e+07
3.12905e+07
3.0967e+08
1.867e+08
2.77055e+07
1.96178e+07
1.37116e+07
9.4443e+06
6.4002e+06
4.2617e+06
2.78754e+06
1.79654e+06
1.15527e+06
762670
259638
25569.6
840.293
14.6115
0.172939
0.00205826
3.91153e-05
1.63154e-06
1.54719e-07
2.86955e-08
8.0609e-09
2.94695e-09
1.25079e-09
5.09189e-10
2.11955e-10
9.67478e-11
4.35008e-11
1.92044e-11
8.27972e-12
3.45764e-12
1.43127e-12
6.06092e-13
5.43859e-12
1.05482e-13
4.29869e-14
-5.1028e-12
5.26651e-15
-5.01395e-12
3.66991e-13
0
-5.73894e-21
2.76095e-07
2.79261e-07
0
0
0
0
2.84012e-07
0
4.45664e-10
-1.05282e-14
0
-7.12891e-10
-1.74528e-09
-3.3266e-16
-3.25594e-15
1.26666e-08
2.83235e-07
3.71177e-06
5.07008e-05
0.000626924
0.00663469
0.0583561
0.42263
2.52612
12.598
53.3916
194.98
619.282
1727.54
4247.59
9161.55
17239.3
29133.9
45722
66910.2
93174.2
125693
166532
218685
286229
374515
490544
643466
845299
1.11186e+06
1.46402e+06
1.9294e+06
2.54452e+06
3.35782e+06
4.43357e+06
5.8572e+06
7.74242e+06
1.02402e+07
1.35203e+07
1.77864e+07
2.3637e+07
3.14169e+07
2.62302e+08
2.31786e+08
2.82846e+07
2.0006e+07
1.39693e+07
9.61339e+06
6.50945e+06
4.33061e+06
2.82934e+06
1.82016e+06
1.16651e+06
768390
284091
31617.4
1112.25
20.2321
0.243748
0.0028381
5.08871e-05
1.96985e-06
1.76176e-07
3.00313e-08
8.60373e-09
3.01297e-09
1.27706e-09
5.09539e-10
2.39759e-10
1.04465e-10
4.72404e-11
1.94912e-11