/*--------------------------------*- C++ -*----------------------------------*\
  =========                 |
  \\      /  F ield         | OpenFOAM: The Open Source CFD Toolbox
   \\    /   O peration     | Website:  https://openfoam.org
    \\  /    A nd           | Version:  8
     \\/     M anipulation  |
\*---------------------------------------------------------------------------*/
FoamFile
{
    version     2.0;
    format      ascii;
    class       volScalarField;
    location    "520/fluid";
    object      rDeltaT;
}
// * * * * * * * * * * * * * * * * * * * * * * * * * * * * * * * * * * * * * //

dimensions      [0 0 -1 0 0 0 0];

internalField   nonuniform List<scalar> 
4000
(
513.39
539.238
563.93
587.604
610.204
631.635
651.772
670.483
687.641
703.149
716.968
729.15
739.86
749.411
758.267
766.939
775.822
785.12
794.762
804.392
813.432
821.198
827.031
830.39
830.918
828.424
822.787
813.967
801.994
786.946
768.942
748.125
744.968
774.601
817.365
859.375
900.56
940.859
980.224
1018.62
1056.01
1092.39
1127.73
1162.03
1195.27
1227.44
1258.54
1288.56
1317.49
1345.33
1372.05
1397.66
1422.13
1445.45
1467.6
1488.56
1508.3
1526.73
1543.71
1559.52
1574
1587.85
16691.4
1572.15
1537.32
1497.2
1452.34
1403.32
1350.59
1294.57
1235.7
1174.47
1111.48
1047.29
982.607
918.861
858.049
802.609
755.488
719.42
695.555
682.587
677.295
676.087
676.043
675.319
672.887
668.36
661.756
653.259
643.109
631.545
618.792
605.047
590.477
575.219
559.377
543.024
526.203
508.865
512.927
538.133
562.05
584.614
605.797
625.529
643.721
660.287
675.164
688.336
699.86
709.891
718.7
726.694
734.354
742.146
750.457
759.485
769.162
779.127
788.78
797.396
804.246
808.72
810.361
808.852
804.024
795.822
784.288
769.522
751.668
730.897
709.694
721.095
764.94
808.211
850.818
892.685
933.751
973.967
1013.3
1051.71
1089.18
1125.71
1161.26
1195.83
1229.41
1261.99
1293.57
1324.14
1353.7
1382.23
1409.74
1436.21
1461.64
1486.02
1509.32
1531.39
1552.17
1571.92
1590.33
1607.07
16395.7
1585.11
1544.94
1500.89
1452.88
1401.03
1345.56
1286.69
1224.74
1160.07
1093.19
1024.56
955.039
886.494
821.553
763.503
715.698
680.589
658.53
647.4
643.639
643.753
645.122
646.131
645.93
644.055
640.34
634.808
627.566
618.758
608.543
597.077
584.504
570.949
556.516
541.281
525.282
508.553
512.245
535.938
558.171
578.91
598.1
615.68
631.598
645.821
658.351
669.244
678.632
686.738
693.888
700.494
707.005
713.862
721.446
729.965
739.363
749.295
759.173
768.276
775.863
781.274
783.967
783.544
779.783
772.6
762.012
748.108
731.024
710.925
687.993
682.593
711.459
755.306
798.745
841.691
884.069
925.822
966.902
1007.28
1046.91
1085.78
1123.86
1161.15
1197.63
1233.3
1268.16
1302.19
1335.4
1367.8
1399.38
1430.15
1460.12
1489.26
1517.54
1544.77
1570.84
1595.87
1619.27
4151.01
14207.4
1606.44
1560.8
1511.37
1458.18
1401.3
1340.87
1277.09
1210.23
1140.67
1068.98
995.702
922.103
850.475
783.844
725.744
679.376
646.525
626.74
617.44
615.051
616.28
618.71
620.856
621.98
621.712
619.877
616.426
611.385
604.822
596.824
587.488
576.91
565.181
552.381
538.573
523.808
508.101
511.573
533.918
554.732
573.972
591.598
607.573
621.871
634.49
645.459
654.859
662.835
669.612
675.507
680.924
686.329
692.19
698.896
706.652
715.401
724.796
734.252
743.042
750.42
755.716
758.396
758.079
754.533
747.65
737.422
723.908
707.22
687.501
664.916
646.209
661.242
705.456
749.522
793.347
836.855
879.986
922.686
964.907
1006.61
1047.78
1088.38
1128.41
1167.84
1206.67
1244.88
1282.48
1319.46
1355.81
1391.52
1426.59
1460.98
1494.64
1527.5
1559.26
1589.72
1618.89
1646.01
8163.23
10404.5
1619.85
1569.95
1515.79
1457.62
1395.66
1330.17
1261.45
1189.88
1116.03
1040.58
964.297
888.827
816.71
751.012
694.991
651.365
621.335
603.941
596.384
595.188
597.3
600.529
603.512
605.52
606.202
605.417
603.129
599.357
594.146
587.553
579.64
570.47
560.102
548.591
535.984
522.318
507.616
510.854
531.731
551.027
568.706
584.733
599.084
611.75
622.746
632.124
639.983
646.489
651.887
656.507
660.761
665.116
670.036
675.9
682.905
690.99
699.813
708.79
717.201
724.297
729.402
731.972
731.616
728.089
721.272
711.14
697.743
681.177
661.572
639.078
613.858
618.061
658.289
702.869
747.453
791.965
836.334
880.498
924.417
968.052
1011.37
1054.35
1096.96
1139.19
1181.01
1222.41
1263.37
1303.86
1343.87
1383.36
1422.29
1460.58
1498.12
1534.78
1570.08
1603.82
1635.9
1665.39
12112.7
6468.55
1623.87
1570.81
1512.85
1450.51
1384.23
1314.44
1241.62
1166.31
1089.22
1011.12
932.954
856.637
784.796
720.457
666.655
625.686
598.222
582.873
576.71
576.398
579.133
582.935
586.58
589.393
591.027
591.322
590.214
587.695
583.785
578.517
571.932
564.074
554.986
544.709
533.282
520.737
507.098
510.13
529.562
547.398
563.607
578.16
591.045
602.263
611.841
619.844
626.381
631.625
635.824
639.308
642.486
645.816
649.756
654.678
660.777
667.996
675.999
684.216
691.934
698.414
702.984
705.098
704.363
700.525
693.453
683.114
669.541
652.818
633.061
610.408
585.007
581.452
613.92
658.929
704.163
749.538
794.987
840.456
885.894
931.26
976.515
1021.63
1066.56
1111.29
1155.78
1200
1243.92
1287.49
1330.65
1373.35
1415.5
1456.96
1497.58
1537.1
1574.99
1611
1644.92
1675.64
15824.2
2559.17
1619.25
1563.88
1502.81
1437
1367.19
1293.99
1218.01
1139.96
1060.66
980.937
901.924
825.71
754.962
692.623
641.483
603.431
578.665
565.447
560.753
561.373
564.712
568.973
573.059
576.369
578.592
579.579
579.264
577.63
574.68
570.431
564.908
558.137
550.148
540.969
530.629
519.155
506.572
509.397
527.365
543.737
558.485
571.586
583.033
592.836
601.031
607.689
612.929
616.93
619.943
622.299
624.405
626.716
629.68
633.663
638.852
645.189
652.339
659.739
666.682
672.435
676.331
677.826
676.523
672.167
664.622
653.845
639.863
622.751
602.615
579.58
553.785
544.595
571.573
616.933
662.713
708.835
755.231
801.84
848.607
895.486
942.432
989.403
1036.36
1083.26
1130.05
1176.69
1223.13
1269.29
1315.1
1360.45
1405.21
1449.21
1492.23
1533.96
1573.69
1611.23
1646.16
1677.2
18149.8
1660.25
1608.68
1550.31
1486.38
1417.82
1345.39
1269.79
1191.72
1111.97
1031.45
950.99
871.915
796.419
727.164
666.988
618.447
583.069
560.668
549.251
545.772
547.167
551.032
555.727
560.255
564.066
566.87
568.522
568.953
568.135
566.063
562.743
558.188
552.416
545.447
537.303
528.005
517.578
506.045
508.665
525.176
540.102
553.416
565.102
575.158
583.6
590.47
595.845
599.846
602.656
604.526
605.786
606.836
608.124
610.09
613.091
617.311
622.688
628.892
635.365
641.41
646.3
649.372
650.087
648.048
642.999
634.8
623.404
608.832
591.15
570.457
546.872
520.524
507.433
530.759
576.387
622.614
669.359
716.549
764.121
812.017
860.182
908.566
957.117
1005.78
1054.51
1103.24
1151.91
1200.44
1248.75
1296.72
1344.23
1391.11
1437.15
1482.07
1525.44
1566.48
1605.21
1640.3
1670.29
17811.1
1646.48
1591.85
1530.96
1464.81
1394.25
1320.04
1242.9
1163.59
1082.95
1001.93
921.397
842.811
768.45
700.956
643.065
597.113
564.315
544.152
534.436
532.116
534.261
538.635
543.73
548.643
552.877
556.165
558.374
559.434
559.315
558.005
555.503
551.815
546.951
540.923
533.748
525.444
516.029
505.525
507.932
522.989
536.475
548.366
558.653
567.336
574.436
579.999
584.107
586.884
588.513
589.247
589.412
589.404
589.662
590.618
592.622
595.85
600.237
605.455
610.949
616.028
619.971
622.123
621.947
619.051
613.177
604.187
592.03
576.724
558.332
536.947
512.68
485.654
469.942
490.965
536.78
583.349
630.59
678.426
726.79
775.62
824.853
874.433
924.297
974.385
1024.63
1074.96
1125.29
1175.53
1225.56
1275.27
1324.49
1373.02
1420.63
1466.99
1511.6
1553.74
1593.25
1628.72
2362.95
16787
1627.19
1570.23
1507.45
1439.71
1367.81
1292.48
1214.47
1134.55
1053.62
972.632
892.482
814.759
741.789
676.176
620.551
577.056
546.624
528.47
520.262
518.976
521.811
526.674
532.175
537.485
542.147
545.916
548.665
550.328
550.871
550.279
548.547
545.675
541.668
536.536
530.289
522.942
514.511
505.015
507.203
520.811
532.864
543.344
552.243
559.567
565.341
569.614
572.469
574.034
574.493
574.096
573.167
572.095
571.313
571.245
572.228
574.434
577.795
581.981
586.442
590.491
593.416
594.566
593.41
589.56
582.761
572.874
559.851
543.706
524.5
502.322
477.28
449.493
432.112
451.823
497.737
544.542
592.153
640.493
689.488
739.07
789.172
839.728
890.669
941.923
993.41
1045.04
1096.73
1148.36
1199.8
1250.91
1301.5
1351.37
1400.25
1447.8
1493.48
1536.62
1577.13
1613.77
5482.01
14095.2
1602.3
1544.24
1480.48
1411.9
1339.3
1263.45
1185.1
1105.09
1024.31
943.729
864.288
787.677
716.238
652.544
599.133
557.96
529.72
513.406
506.58
506.256
509.752
515.104
521.017
526.727
531.815
536.054
539.326
541.565
542.739
542.83
541.83
539.736
536.549
532.276
526.923
520.503
513.028
504.516
506.475
518.64
529.266
538.341
545.859
551.831
556.284
559.271
560.878
561.233
560.521
558.991
556.962
554.819
552.986
551.878
551.825
552.989
555.298
558.421
561.811
564.786
566.639
566.727
564.524
559.648
551.847
540.986
527.017
509.955
489.859
466.818
440.935
412.326
393.948
413.031
458.958
505.898
553.763
602.474
651.953
702.127
752.921
804.264
856.078
908.281
960.785
1013.49
1066.29
1119.07
1171.67
1223.94
1275.69
1326.68
1376.64
1425.22
1471.87
1515.91
1557.27
1594.72
8111.47
11554.7
1573.72
1515.3
1451.19
1382.31
1309.51
1233.57
1155.31
1075.56
995.27
915.375
836.866
761.515
691.676
629.888
578.593
539.585
513.351
498.703
493.131
493.697
497.827
503.67
510.012
516.145
521.677
526.398
530.197
533.012
534.809
535.57
535.285
533.948
531.559
528.121
523.639
518.121
511.579
504.028
505.751
516.476
525.681
533.354
539.496
544.118
547.254
548.957
549.316
548.461
546.575
543.907
540.772
537.549
534.654
532.494
531.388
531.492
532.727
534.761
537.047
538.911
539.65
538.628
535.327
529.37
520.512
508.62
493.647
475.612
454.575
430.621
403.855
374.389
355.468
374.372
420.228
467.207
515.221
564.184
614.016
664.637
715.971
767.936
820.448
873.419
926.749
980.333
1034.05
1087.77
1141.34
1194.58
1247.29
1299.23
1350.11
1399.57
1447.02
1491.83
1533.9
1571.95
10386.8
9354.74
1542.87
1484.47
1420.38
1351.57
1278.92
1203.25
1125.38
1046.18
966.619
887.602
810.168
736.172
667.959
608.031
558.743
521.747
497.349
484.217
479.796
481.197
485.948
492.29
499.081
505.656
511.652
516.872
521.208
524.603
527.023
528.45
528.871
528.28
526.675
524.056
520.427
515.793
510.163
503.552
505.028
514.319
522.105
528.379
533.146
536.421
538.239
538.658
537.767
535.698
532.635
528.822
524.573
520.262
516.296
513.071
510.9
509.928
510.071
510.995
512.154
512.877
512.47
510.303
505.867
498.789
488.832
475.866
459.85
440.805
418.791
393.895
366.22
335.878
316.696
335.686
381.394
428.327
476.392
525.501
575.57
626.516
678.255
730.703
783.767
837.352
891.353
945.654
1000.13
1054.63
1109.01
1163.06
1216.59
1269.34
1321
1371.21
1419.38
1464.86
1507.55
1546.12
12281
7545.32
1510.54
1452.39
1388.58
1320.11
1247.88
1172.74
1095.5
1017.06
938.397
860.401
784.155
711.565
644.971
586.838
539.441
504.303
481.582
469.831
466.469
468.66
474.019
480.872
488.134
495.179
501.663
507.401
512.292
516.279
519.33
521.426
522.553
522.704
521.875
520.065
517.275
513.51
508.777
503.085
504.308
512.166
518.536
523.414
526.807
528.734
529.234
528.366
526.222
522.935
518.689
513.726
508.357
502.949
497.902
493.604
490.357
488.297
487.333
487.13
487.143
486.704
485.126
481.788
476.187
467.96
456.874
442.807
425.722
405.642
382.629
356.774
328.178
296.954
277.664
296.865
342.356
389.162
437.192
486.353
536.559
587.721
639.753
692.564
746.056
800.129
854.67
909.557
964.656
1019.82
1074.87
1129.62
1183.84
1237.29
1289.64
1340.53
1389.33
1435.43
1478.7
1517.81
13823.4
6081.23
1477.26
1419.5
1356.15
1288.23
1216.63
1142.19
1065.77
988.245
910.61
833.741
758.758
687.601
622.605
566.194
520.571
487.148
465.958
455.468
453.084
456.027
461.991
469.368
477.124
484.664
491.662
497.942
503.406
508.001
511.694
514.466
516.303
517.197
517.141
516.134
514.176
511.268
507.416
502.628
503.589
510.018
514.974
518.456
520.474
521.053
520.232
518.075
514.676
510.167
504.732
498.614
492.118
485.606
479.472
474.092
469.76
466.602
464.521
463.178
462.03
460.412
457.646
453.117
446.331
436.934
424.701
409.515
391.343
370.215
346.194
319.373
289.854
257.752
238.406
257.84
303.047
349.657
397.574
446.706
496.96
548.247
600.475
653.547
707.365
761.819
816.793
872.159
927.777
983.488
1039.12
1094.46
1149.3
1203.36
1256.34
1307.85
1357.25
1403.95
1447.8
1487.49
15036.9
4912.89
1443.32
1386.08
1323.34
1256.12
1185.29
1111.71
1036.23
959.753
883.249
807.587
733.915
664.202
600.77
546.007
502.048
470.209
450.419
441.074
439.594
443.259
449.824
457.742
466.015
474.077
481.614
488.459
494.517
499.737
504.086
507.545
510.099
511.738
512.457
512.25
511.117
509.058
506.076
502.178
502.871
507.873
511.416
513.502
514.146
513.375
511.233
507.784
503.125
497.39
490.763
483.484
475.856
468.235
461.006
454.539
449.114
444.851
441.644
439.152
436.831
434.023
430.055
424.322
416.339
405.76
392.367
376.051
356.786
334.603
309.572
281.785
251.35
218.378
198.956
218.566
263.432
309.783
357.52
406.549
456.776
508.107
560.447
613.697
667.752
722.5
777.819
833.576
889.626
945.805
1001.93
1057.8
1113.19
1167.82
1221.36
1273.45
1323.44
1370.74
1415.23
1455.62
16260.5
3866.54
1408.85
1352.25
1290.26
1223.86
1153.95
1081.35
1006.94
931.59
856.292
781.893
709.563
641.291
579.382
526.191
483.798
453.436
434.944
426.64
425.972
430.328
437.497
445.971
454.786
463.394
471.496
478.928
485.601
491.463
496.483
500.641
503.921
506.312
507.807
508.401
508.091
506.874
504.754
501.735
502.154
505.731
507.861
508.551
507.82
505.699
502.232
497.489
491.568
484.603
476.78
468.336
459.571
450.837
442.51
434.95
428.427
423.052
418.714
415.065
411.564
407.558
402.38
395.434
386.245
374.476
359.918
342.468
322.107
298.871
272.833
244.09
212.748
178.923
159.348
179.024
223.496
269.53
317.027
365.89
416.023
467.328
519.709
573.063
627.282
682.249
737.839
793.916
850.328
906.911
963.479
1019.82
1075.71
1130.86
1184.95
1237.6
1288.17
1336.07
1381.17
1422.2
17025.4
3154.18
1374.09
1318.22
1257.07
1191.6
1122.69
1051.18
977.902
903.76
829.722
756.623
685.649
618.799
558.36
506.656
465.721
436.728
419.477
412.189
412.242
417.255
425.021
434.06
443.431
452.606
461.292
469.332
476.639
483.161
488.867
493.736
497.752
500.903
503.18
504.577
505.088
504.711
503.447
501.297
501.438
503.59
504.307
503.602
501.496
498.021
493.229
487.19
480.004
471.807
462.784
453.172
443.267
433.415
423.986
415.329
407.706
401.216
395.74
390.93
386.245
381.034
374.641
366.478
356.079
343.118
327.393
308.811
287.358
263.074
236.038
206.348
174.116
139.455
119.617
139.21
183.24
228.907
276.11
324.749
374.728
425.947
478.305
531.698
586.015
641.136
696.934
753.268
809.986
866.917
923.873
980.642
1036.98
1092.62
1147.23
1200.42
1251.55
1300.05
1345.79
1387.48
17607.2
2647.18
1339.13
1284.07
1223.84
1159.39
1091.57
1021.21
949.143
876.263
803.526
731.755
662.144
596.69
537.664
487.357
447.759
419.997
403.876
397.611
398.394
404.047
412.399
422.004
431.942
441.698
450.987
459.654
467.613
474.812
481.22
486.813
491.577
495.496
498.562
500.765
502.1
502.562
502.149
500.862
500.722
501.45
500.755
498.654
495.17
490.343
484.223
476.886
468.432
459
448.775
437.992
426.945
415.973
405.439
395.683
386.956
379.348
372.733
366.759
360.885
354.468
346.857
337.474
325.866
311.713
294.825
275.115
252.575
227.254
199.232
168.612
135.506
100.033
100
100
142.678
187.931
234.789
283.154
332.925
384.001
436.28
489.654
544.011
599.229
655.178
711.714
768.683
825.911
883.208
940.359
997.122
1053.22
1108.32
1162.04
1213.73
1262.84
1309.22
1351.62
18000.3
2329.46
1304.02
1249.85
1190.62
1127.26
1060.6
991.459
920.662
849.088
777.686
707.267
639.021
574.941
517.274
468.279
429.907
403.245
388.097
382.761
384.346
390.646
399.586
409.765
420.285
430.64
440.552
449.866
458.497
466.392
473.518
479.853
485.377
490.077
493.939
496.956
499.118
500.42
500.858
500.43
500.006
499.31
497.203
493.705
488.844
482.661
475.213
466.575
456.852
446.184
434.754
422.798
410.606
398.512
386.871
376.014
366.182
357.454
349.698
342.558
335.495
327.87
319.04
308.44
295.623
280.283
262.236
241.405
217.79
191.443
162.451
130.918
100
100
100
100
101.832
146.628
193.097
241.139
290.652
341.534
393.68
446.982
501.325
556.585
612.631
669.317
726.487
783.967
841.562
899.058
956.211
1012.74
1068.32
1122.56
1174.81
1224.52
1271.57
1314.68
18207.5
2187.16
1268.77
1215.58
1157.43
1095.23
1029.8
961.932
892.449
822.218
752.178
683.127
616.249
553.52
497.163
449.409
412.174
386.516
372.197
367.59
369.986
376.952
386.503
397.28
408.409
419.391
429.952
439.939
449.265
457.877
465.742
472.835
479.136
484.629
489.3
493.138
496.134
498.28
499.57
500
500.006
499.31
497.202
493.704
488.843
482.66
475.211
466.573
456.849
446.18
434.75
422.794
410.601
398.507
386.866
376.009
366.176
357.448
349.691
342.551
335.487
327.862
319.032
308.431
295.614
280.273
262.226
241.395
217.779
191.432
162.439
130.907
100
100
100
100
101.825
146.621
193.091
241.133
290.647
341.529
393.676
446.978
501.322
556.582
612.628
669.315
726.486
783.965
841.561
899.058
956.21
1012.74
1068.32
1122.56
1174.81
1224.52
1271.57
1314.68
18207.9
2186.78
1268.77
1215.58
1157.43
1095.23
1029.8
961.933
892.45
822.22
752.18
683.129
616.252
553.522
497.165
449.411
412.176
386.518
372.199
367.593
369.989
376.954
386.505
397.282
408.411
419.393
429.954
439.94
449.266
457.878
465.743
472.836
479.137
484.629
489.301
493.139
496.134
498.28
499.57
500
500.721
501.449
500.753
498.651
495.168
490.339
484.219
476.88
468.426
458.994
448.768
437.984
426.936
415.963
405.429
395.672
386.944
379.335
372.719
366.744
360.87
354.451
346.839
337.456
325.847
311.693
294.804
275.093
252.553
227.231
199.209
168.588
135.483
100.009
100
100
142.666
187.919
234.779
283.144
332.916
383.993
436.273
489.649
544.007
599.225
655.175
711.712
768.681
825.91
883.208
940.36
997.123
1053.22
1108.32
1162.04
1213.73
1262.84
1309.22
1351.63
18001.3
2328.3
1304.02
1249.85
1190.62
1127.26
1060.6
991.46
920.664
849.091
777.689
707.27
639.025
574.945
517.278
468.283
429.911
403.25
388.102
382.766
384.351
390.65
399.591
409.769
420.288
430.644
440.555
449.869
458.499
466.394
473.521
479.855
485.379
490.078
493.941
496.957
499.119
500.42
500.858
500.43
501.437
503.589
504.306
503.6
501.493
498.018
493.225
487.185
479.998
471.8
462.776
453.163
443.258
433.405
423.975
415.318
407.694
401.203
395.726
390.916
386.229
381.017
374.623
366.458
356.059
343.097
327.371
308.788
287.333
263.049
236.012
206.323
174.089
139.429
119.599
139.2
183.232
228.899
276.103
324.744
374.723
425.943
478.303
531.697
586.014
641.137
696.935
753.27
809.988
866.92
923.876
980.645
1036.99
1092.62
1147.23
1200.43
1251.55
1300.05
1345.79
1387.49
17609
2645.22
1339.13
1284.07
1223.84
1159.38
1091.56
1021.21
949.142
876.262
803.526
731.756
662.145
596.692
537.667
487.36
447.763
420.001
403.881
397.615
398.398
404.051
412.404
422.008
431.946
441.701
450.99
459.657
467.615
474.814
481.222
486.815
491.578
495.498
498.563
500.766
502.1
502.562
502.149
500.862
502.154
505.73
507.859
508.549
507.817
505.695
502.227
497.484
491.562
484.596
476.772
468.327
459.562
450.826
442.499
434.938
428.415
423.039
418.699
415.05
411.548
407.54
402.361
395.414
386.224
374.454
359.894
342.443
322.081
298.844
272.806
244.061
212.719
178.893
159.33
179.018
223.491
269.527
317.025
365.889
416.022
467.329
519.711
573.066
627.285
682.253
737.844
793.921
850.334
906.917
963.486
1019.83
1075.72
1130.86
1184.96
1237.61
1288.17
1336.07
1381.18
1422.2
17028
3151.4
1374.08
1318.21
1257.06
1191.6
1122.69
1051.17
977.898
903.757
829.719
756.621
685.648
618.799
558.361
506.658
465.724
436.731
419.481
412.193
412.247
417.26
425.026
434.064
443.435
452.609
461.295
469.335
476.642
483.164
488.87
493.738
497.754
500.905
503.181
504.577
505.088
504.712
503.447
501.297
502.871
507.873
511.414
513.5
514.143
513.372
511.228
507.779
503.119
497.383
490.755
483.475
475.846
468.224
460.995
454.527
449.101
444.837
441.63
439.136
436.814
434.006
430.036
424.302
416.317
405.736
392.342
376.024
356.758
334.574
309.542
281.755
251.318
218.347
198.938
218.564
263.431
309.783
357.522
406.552
456.78
508.112
560.453
613.704
667.76
722.508
777.828
833.586
889.636
945.815
1001.94
1057.81
1113.2
1167.82
1221.37
1273.46
1323.45
1370.75
1415.24
1455.62
16264
3862.9
1408.84
1352.24
1290.25
1223.85
1153.94
1081.35
1006.93
931.584
856.287
781.888
709.56
641.289
579.381
526.192
483.8
453.439
434.947
426.644
425.976
430.332
437.502
445.976
454.79
463.398
471.499
478.931
485.604
491.466
496.486
500.643
503.922
506.314
507.809
508.402
508.091
506.875
504.755
501.735
503.588
510.018
514.972
518.454
520.472
521.05
520.228
518.07
514.67
510.16
504.724
498.605
492.108
485.596
479.461
474.08
469.747
466.588
464.507
463.163
462.013
460.394
457.626
453.096
446.309
436.91
424.675
409.487
391.314
370.184
346.162
319.34
289.82
257.717
238.389
257.842
303.051
349.662
397.581
446.713
496.969
548.257
600.485
653.559
707.377
761.832
816.806
872.173
927.79
983.502
1039.13
1094.48
1149.31
1203.38
1256.35
1307.86
1357.26
1403.96
1447.81
1487.49
15041.3
4908.26
1443.31
1386.06
1323.33
1256.1
1185.28
1111.7
1036.22
959.744
883.241
807.58
733.909
664.198
600.767
546.006
502.048
470.211
450.422
441.078
439.599
443.263
449.829
457.746
466.02
474.081
481.618
488.462
494.52
499.739
504.088
507.547
510.1
511.74
512.458
512.251
511.118
509.058
506.076
502.178
504.307
512.166
518.535
523.412
526.804
528.731
529.229
528.361
526.216
522.929
518.681
513.718
508.347
502.938
497.891
493.592
490.344
488.283
487.319
487.115
487.126
486.686
485.107
481.767
476.164
467.935
456.847
442.778
425.691
405.609
382.596
356.739
328.142
296.917
277.648
296.873
342.364
389.172
437.203
486.365
536.572
587.736
639.769
692.58
746.073
800.146
854.687
909.575
964.673
1019.83
1074.88
1129.63
1183.86
1237.3
1289.65
1340.54
1389.35
1435.44
1478.71
1517.82
13828.7
6075.64
1477.24
1419.48
1356.13
1288.22
1216.61
1142.18
1065.75
988.232
910.598
833.732
758.75
687.595
622.6
566.191
520.57
487.149
465.961
455.472
453.088
456.032
461.996
469.373
477.129
484.668
491.666
497.945
503.409
508.003
511.696
514.468
516.305
517.198
517.142
516.135
514.176
511.268
507.416
502.628
505.028
514.318
522.104
528.378
533.144
536.418
538.235
538.653
537.761
535.691
532.627
528.814
524.564
520.251
516.284
513.059
510.887
509.915
510.057
510.979
512.137
512.859
512.45
510.282
505.843
498.763
488.804
475.836
459.818
440.771
418.755
393.857
366.18
335.837
316.681
335.698
381.408
428.342
476.408
525.518
575.588
626.535
678.276
730.724
783.789
837.374
891.375
945.676
1000.15
1054.65
1109.03
1163.08
1216.61
1269.36
1321.02
1371.23
1419.39
1464.87
1507.56
1546.13
12287.5
7538.63
1510.52
1452.36
1388.55
1320.09
1247.86
1172.72
1095.48
1017.05
938.382
860.388
784.144
711.556
644.965
586.834
539.439
504.303
481.584
469.835
466.473
468.665
474.024
480.877
488.138
495.183
501.667
507.404
512.295
516.282
519.333
521.428
522.555
522.706
521.877
520.066
517.276
513.511
508.777
503.085
505.751
516.475
525.68
533.353
539.493
544.115
547.25
548.952
549.311
548.454
546.568
543.899
540.763
537.539
534.643
532.482
531.376
531.479
532.712
534.745
537.031
538.892
539.63
538.606
535.303
529.344
520.483
508.588
493.613
475.576
454.537
430.581
403.813
374.345
355.453
374.389
420.247
467.228
515.243
564.207
614.04
664.662
715.997
767.962
820.475
873.446
926.776
980.36
1034.08
1087.8
1141.36
1194.6
1247.31
1299.25
1350.13
1399.59
1447.04
1491.84
1533.92
1571.96
10394.7
9346.64
1542.84
1484.44
1420.35
1351.55
1278.9
1203.23
1125.36
1046.16
966.601
887.586
810.154
736.16
667.949
608.024
558.739
521.746
497.351
484.221
479.801
481.203
485.953
492.295
499.085
505.661
511.656
516.875
521.211
524.605
527.026
528.452
528.873
528.282
526.676
524.057
520.427
515.793
510.163
503.552
506.475
518.639
529.266
538.34
545.857
551.828
556.28
559.267
560.872
561.227
560.514
558.983
556.953
554.809
552.975
551.866
551.812
552.976
555.284
558.406
561.794
564.768
566.619
566.704
564.5
559.621
551.817
540.954
526.982
509.917
489.819
466.776
440.891
412.28
393.935
413.055
458.982
505.924
553.791
602.503
651.983
702.157
752.953
804.296
856.11
908.313
960.816
1013.52
1066.32
1119.1
1171.7
1223.97
1275.71
1326.71
1376.66
1425.24
1471.89
1515.93
1557.29
1594.73
8120.69
11545.1
1573.69
1515.27
1451.16
1382.28
1309.48
1233.55
1155.29
1075.54
995.247
915.354
836.848
761.499
691.663
629.879
578.587
539.583
513.352
498.706
493.136
493.702
497.833
503.675
510.017
516.149
521.681
526.402
530.2
533.014
534.811
535.572
535.286
533.949
531.56
528.122
523.639
518.121
511.579
504.028
507.203
520.81
532.863
543.343
552.242
559.565
565.338
569.61
572.464
574.028
574.486
574.089
573.158
572.086
571.303
571.233
572.216
574.422
577.781
581.966
586.426
590.473
593.396
594.544
593.385
589.532
582.73
572.841
559.814
543.667
524.458
502.277
477.232
449.443
432.1
451.853
497.768
544.575
592.187
640.528
689.524
739.106
789.21
839.766
890.707
941.96
993.447
1045.08
1096.77
1148.39
1199.83
1250.94
1301.53
1351.4
1400.27
1447.82
1493.5
1536.64
1577.15
1613.78
5492.56
14084
1602.27
1544.2
1480.44
1411.86
1339.27
1263.41
1185.07
1105.06
1024.28
943.705
864.266
787.658
716.222
652.533
599.125
557.956
529.72
513.409
506.585
506.262
509.758
515.109
521.022
526.732
531.82
536.058
539.329
541.568
542.742
542.832
541.832
539.737
536.55
532.276
526.924
520.503
513.028
504.516
507.932
522.989
536.474
548.366
558.651
567.334
574.433
579.996
584.102
586.878
588.507
589.24
589.404
589.394
589.651
590.608
592.611
595.838
600.224
605.441
610.933
616.01
619.951
622.1
621.922
619.022
613.145
604.152
591.991
576.682
558.287
536.899
512.629
485.601
469.931
491.001
536.818
583.389
630.63
678.468
726.833
775.663
824.897
874.476
924.341
974.429
1024.67
1075
1125.33
1175.56
1225.6
1275.3
1324.52
1373.05
1420.66
1467.02
1511.62
1553.76
1593.27
1628.74
2375.43
16776.7
1627.16
1570.19
1507.41
1439.68
1367.77
1292.44
1214.43
1134.52
1053.59
972.603
892.455
814.736
741.769
676.161
620.541
577.05
546.623
528.472
520.267
518.982
521.817
526.68
532.181
537.49
542.152
545.92
548.669
550.331
550.874
550.281
548.549
545.676
541.669
536.537
530.29
522.942
514.511
505.015
508.665
525.176
540.101
553.415
565.101
575.157
583.598
590.467
595.841
599.841
602.65
604.519
605.778
606.827
608.114
610.08
613.08
617.299
622.675
628.878
635.35
641.393
646.28
649.35
650.061
648.019
642.967
634.764
623.364
608.788
591.103
570.407
546.818
520.467
507.425
530.802
576.432
622.66
669.406
716.598
764.171
812.067
860.233
908.616
957.167
1005.83
1054.56
1103.29
1151.96
1200.49
1248.79
1296.76
1344.27
1391.15
1437.18
1482.1
1525.47
1566.5
1605.23
1640.31
1670.29
17808.8
1646.45
1591.82
1530.92
1464.77
1394.21
1320
1242.86
1163.55
1082.92
1001.9
921.366
842.783
768.427
700.938
643.052
597.106
564.312
544.154
534.44
532.122
534.268
538.641
543.736
548.649
552.881
556.17
558.377
559.437
559.318
558.007
555.505
551.816
546.952
540.924
533.749
525.444
516.029
505.525
509.397
527.365
543.738
558.485
571.585
583.032
592.834
601.028
607.686
612.925
616.924
619.936
622.292
624.397
626.707
629.67
633.652
638.841
645.177
652.326
659.724
666.665
672.416
676.308
677.8
676.493
672.133
664.584
653.803
639.818
622.702
602.561
579.522
553.724
544.588
571.624
616.986
662.767
708.891
755.287
801.896
848.664
895.543
942.489
989.46
1036.41
1083.31
1130.1
1176.75
1223.18
1269.34
1315.14
1360.49
1405.25
1449.25
1492.26
1533.99
1573.71
1611.25
1646.17
1677.2
18150.5
1660.22
1608.64
1550.27
1486.34
1417.77
1345.34
1269.74
1191.68
1111.93
1031.41
950.955
871.883
796.391
727.141
666.972
618.436
583.065
560.669
549.255
545.778
547.174
551.039
555.734
560.261
564.071
566.874
568.526
568.956
568.138
566.065
562.745
558.189
552.417
545.448
537.303
528.005
517.578
506.045
510.13
529.562
547.399
563.607
578.16
591.044
602.262
611.84
619.841
626.377
631.621
635.819
639.302
642.478
645.807
649.747
654.668
660.767
667.985
675.987
684.202
691.917
698.395
702.961
705.072
704.332
700.49
693.414
683.07
669.493
652.765
633.005
610.347
584.942
581.447
613.979
658.99
704.225
749.602
795.051
840.52
885.959
931.324
976.579
1021.69
1066.62
1111.35
1155.84
1200.06
1243.97
1287.54
1330.7
1373.4
1415.54
1457
1497.62
1537.13
1575.02
1611.02
1644.93
1675.65
15838.2
2543.22
1619.2
1563.82
1502.76
1436.95
1367.14
1293.94
1217.97
1139.92
1060.62
980.896
901.887
825.677
754.935
692.603
641.47
603.425
578.665
565.451
560.759
561.381
564.719
568.98
573.065
576.375
578.597
579.583
579.267
577.632
574.682
570.432
564.909
558.137
550.148
540.969
530.629
519.155
506.572
510.854
531.732
551.028
568.707
584.734
599.085
611.75
622.745
632.122
639.98
646.486
651.882
656.501
660.754
665.108
670.028
675.891
682.895
690.98
699.801
708.777
717.185
724.278
729.379
731.945
731.585
728.053
721.231
711.095
697.693
681.122
661.512
639.013
613.789
618.058
658.357
702.939
747.524
792.037
836.406
880.571
924.489
968.123
1011.44
1054.42
1097.03
1139.25
1181.07
1222.47
1263.43
1303.92
1343.93
1383.42
1422.34
1460.62
1498.17
1534.82
1570.12
1603.85
1635.92
1665.41
12130.2
6450.49
1623.8
1570.75
1512.79
1450.45
1384.17
1314.39
1241.57
1166.26
1089.17
1011.07
932.912
856.6
784.765
720.433
666.638
625.678
598.221
582.877
576.717
576.406
579.141
582.943
586.587
589.399
591.032
591.325
590.217
587.697
583.786
578.518
571.932
564.074
554.986
544.709
533.282
520.736
507.098
511.574
533.919
554.734
573.974
591.599
607.574
621.872
634.49
645.458
654.857
662.832
669.608
675.502
680.919
686.322
692.183
698.889
706.644
715.391
724.785
734.239
743.026
750.401
755.693
758.368
758.047
754.495
747.608
737.373
723.854
707.161
687.437
664.846
646.209
661.318
705.534
749.601
793.427
836.936
880.066
922.767
964.987
1006.69
1047.85
1088.46
1128.48
1167.91
1206.73
1244.95
1282.54
1319.52
1355.86
1391.57
1426.64
1461.03
1494.69
1527.55
1559.3
1589.76
1618.92
1646.03
8181.69
10384.3
1619.78
1569.89
1515.73
1457.56
1395.61
1330.12
1261.39
1189.83
1115.98
1040.53
964.251
888.784
816.673
750.983
694.971
651.353
621.332
603.944
596.391
595.196
597.309
600.537
603.519
605.526
606.207
605.42
603.132
599.359
594.147
587.553
579.64
570.47
560.102
548.591
535.984
522.318
507.616
512.245
535.939
558.172
578.912
598.101
615.681
631.599
645.822
658.351
669.243
678.63
686.735
693.884
700.49
707
713.856
721.44
729.958
739.355
749.285
759.161
768.261
775.845