/*--------------------------------*- C++ -*----------------------------------*\
  =========                 |
  \\      /  F ield         | OpenFOAM: The Open Source CFD Toolbox
   \\    /   O peration     | Website:  https://openfoam.org
    \\  /    A nd           | Version:  8
     \\/     M anipulation  |
\*---------------------------------------------------------------------------*/
FoamFile
{
    version     2.0;
    format      ascii;
    class       volScalarField;
    location    "520/fluid";
    object      rho;
}
// * * * * * * * * * * * * * * * * * * * * * * * * * * * * * * * * * * * * * //

dimensions      [1 -3 0 0 0 0 0];

internalField   nonuniform List<scalar> 
4000
(
0.658526
0.6585
0.658457
0.658384
0.658263
0.658062
0.657732
0.657193
0.656323
0.65494
0.652774
0.649449
0.64447
0.63723
0.627072
0.613407
0.595895
0.574607
0.550115
0.523411
0.4957
0.468138
0.441646
0.416829
0.393995
0.373226
0.354456
0.337534
0.322275
0.308487
0.295988
0.284616
0.27423
0.26471
0.255959
0.247884
0.240376
0.23337
0.226814
0.220666
0.214886
0.209444
0.204312
0.199467
0.194889
0.190564
0.186477
0.182618
0.178977
0.175548
0.172325
0.169307
0.166492
0.163885
0.161491
0.159321
0.157393
0.155742
0.154414
0.153394
0.152787
0.152684
0.153226
0.161908
0.172209
0.184335
0.198572
0.215304
0.235033
0.25842
0.28632
0.319841
0.360403
0.409923
0.470782
0.545213
0.634505
0.737335
0.847516
0.953319
1.04143
1.10419
1.14288
1.16399
1.17458
1.17963
1.18196
1.18301
1.18347
1.18367
1.18376
1.1838
1.18381
1.18382
1.18382
1.18382
1.18382
1.18382
1.18382
1.18382
0.658526
0.6585
0.658456
0.658383
0.658261
0.658058
0.657724
0.65718
0.656302
0.654907
0.652728
0.649393
0.644413
0.637198
0.627105
0.613565
0.596238
0.575184
0.550942
0.524466
0.496925
0.469459
0.442988
0.418133
0.395219
0.374347
0.355464
0.338428
0.32306
0.309171
0.296581
0.285127
0.274668
0.265083
0.256274
0.248148
0.240596
0.23355
0.226959
0.220779
0.214971
0.209503
0.204348
0.199482
0.194886
0.190544
0.186443
0.182571
0.178918
0.175479
0.172248
0.169223
0.166403
0.163793
0.161398
0.15923
0.157308
0.155677
0.154373
0.153399
0.152877
0.152934
0.153784
0.162692
0.173236
0.185641
0.200214
0.217364
0.237626
0.261699
0.290496
0.325193
0.367302
0.418875
0.482351
0.559867
0.652312
0.757452
0.867793
0.970797
1.05396
1.11165
1.14666
1.16571
1.17531
1.17992
1.18208
1.18305
1.18349
1.18368
1.18376
1.1838
1.18381
1.18382
1.18382
1.18382
1.18382
1.18382
1.18382
1.18382
0.658526
0.6585
0.658456
0.658382
0.658259
0.658054
0.657717
0.657168
0.656285
0.654883
0.652696
0.649355
0.644374
0.637171
0.627115
0.613652
0.59645
0.575564
0.551516
0.525232
0.497856
0.470508
0.444103
0.419263
0.396324
0.375398
0.356442
0.339324
0.323871
0.309898
0.297227
0.285697
0.275166
0.265515
0.256644
0.248462
0.240859
0.233767
0.227133
0.220913
0.215068
0.209565
0.204378
0.199484
0.194862
0.190497
0.186374
0.182482
0.178812
0.175358
0.172114
0.169077
0.166249
0.163631
0.161231
0.159062
0.157141
0.155518
0.154225
0.153267
0.152769
0.152856
0.154916
0.164122
0.175009
0.187823
0.202892
0.220653
0.241679
0.266713
0.29672
0.332943
0.376972
0.430952
0.497256
0.577743
0.672687
0.77884
0.887718
0.986729
1.06474
1.11791
1.14986
1.16722
1.17599
1.18022
1.1822
1.1831
1.18351
1.18369
1.18376
1.1838
1.18381
1.18382
1.18382
1.18382
1.18382
1.18382
1.18382
1.18382
0.658526
0.6585
0.658455
0.658381
0.658257
0.658052
0.657714
0.657165
0.65628
0.654878
0.652694
0.649363
0.644406
0.637247
0.627264
0.613902
0.596829
0.576091
0.552195
0.526048
0.498775
0.47149
0.445108
0.420255
0.397279
0.376297
0.357276
0.340088
0.324565
0.310522
0.297783
0.286189
0.275597
0.265889
0.256964
0.248732
0.241082
0.233946
0.227271
0.221012
0.21513
0.209593
0.204376
0.199452
0.194803
0.190413
0.186267
0.182355
0.178666
0.175195
0.171937
0.168888
0.16605
0.163424
0.161019
0.158846
0.156924
0.155305
0.154017
0.153066
0.152574
0.152657
0.156573
0.166048
0.177285
0.19054
0.20616
0.224605
0.246479
0.272568
0.303887
0.341734
0.387783
0.444246
0.51339
0.596774
0.694045
0.800974
0.908168
1.00309
1.07595
1.12458
1.1534
1.16895
1.17679
1.18058
1.18236
1.18317
1.18354
1.1837
1.18377
1.1838
1.18381
1.18382
1.18382
1.18382
1.18382
1.18382
1.18382
1.18382
0.658526
0.6585
0.658455
0.658381
0.658257
0.658052
0.657714
0.657164
0.65628
0.654881
0.652703
0.649383
0.644448
0.637325
0.627398
0.614116
0.597146
0.576527
0.552752
0.526713
0.499522
0.472287
0.445922
0.421058
0.398049
0.377021
0.357945
0.340699
0.325117
0.311016
0.298222
0.286574
0.275932
0.266175
0.257204
0.24893
0.24124
0.234066
0.227353
0.221059
0.215146
0.20958
0.204333
0.199383
0.194709
0.190295
0.186128
0.182196
0.178491
0.175005
0.171734
0.168675
0.165829
0.163198
0.160791
0.158618
0.1567
0.155095
0.153822
0.152887
0.152416
0.15254
0.15842
0.168169
0.179766
0.193477
0.209666
0.228815
0.25156
0.278723
0.311369
0.350845
0.398913
0.45782
0.529678
0.615717
0.714912
0.822083
0.927123
1.01781
1.08579
1.13033
1.15643
1.17043
1.17748
1.18089
1.18249
1.18323
1.18356
1.18371
1.18377
1.1838
1.18381
1.18382
1.18382
1.18382
1.18382
1.18382
1.18382
1.18382
0.658526
0.6585
0.658455
0.658381
0.658258
0.658052
0.657715
0.657167
0.656287
0.654893
0.652724
0.649421
0.644512
0.637428
0.627558
0.614349
0.597467
0.576944
0.553261
0.527298
0.50016
0.472951
0.446586
0.421703
0.398659
0.377588
0.358464
0.341168
0.325535
0.311387
0.298546
0.286854
0.27617
0.266374
0.257365
0.249054
0.24133
0.234122
0.227381
0.221059
0.215118
0.209526
0.204254
0.199281
0.194585
0.190151
0.185965
0.182017
0.178298
0.1748
0.17152
0.168455
0.165605
0.162975
0.160571
0.158406
0.156502
0.154918
0.153662
0.152747
0.152303
0.152473
0.160242
0.170238
0.182196
0.196371
0.213135
0.232989
0.256598
0.28482
0.318762
0.359821
0.40985
0.471092
0.545505
0.633964
0.734778
0.841887
0.944627
1.03123
1.0947
1.13556
1.15921
1.17181
1.17813
1.18119
1.18263
1.18329
1.18359
1.18372
1.18378
1.1838
1.18381
1.18382
1.18382
1.18382
1.18382
1.18382
1.18382
1.18382
0.658526
0.6585
0.658456
0.658382
0.658258
0.658054
0.657718
0.657172
0.656294
0.654906
0.652747
0.649459
0.644574
0.637525
0.627702
0.614556
0.597746
0.5773
0.553688
0.527783
0.500682
0.473487
0.447116
0.42221
0.399134
0.378023
0.358856
0.341517
0.325842
0.311652
0.298773
0.287045
0.276326
0.266496
0.257455
0.249114
0.241362
0.23413
0.227363
0.221017
0.215053
0.209439
0.204146
0.199153
0.194439
0.189989
0.185789
0.181828
0.178098
0.174592
0.171307
0.16824
0.165392
0.162768
0.160375
0.158228
0.156344
0.154797
0.153572
0.152697
0.152288
0.152467
0.161283
0.171815
0.184287
0.199005
0.216379
0.236944
0.2614
0.290646
0.325832
0.368408
0.420308
0.483751
0.560528
0.651149
0.753265
0.860012
0.960325
1.04302
1.1024
1.14002
1.16157
1.17298
1.17869
1.18144
1.18274
1.18334
1.18361
1.18373
1.18378
1.1838
1.18381
1.18382
1.18382
1.18382
1.18382
1.18382
1.18382
1.18382
0.658526
0.6585
0.658456
0.658382
0.658259
0.658055
0.657721
0.657176
0.656303
0.65492
0.652771
0.649497
0.644634
0.637617
0.627836
0.614741
0.597991
0.577605
0.554047
0.528182
0.501104
0.473914
0.447531
0.422601
0.399493
0.378346
0.359142
0.341766
0.326055
0.311832
0.298921
0.287161
0.276413
0.266555
0.257489
0.249126
0.241352
0.234098
0.22731
0.220944
0.214961
0.209328
0.204019
0.199009
0.194281
0.189818
0.185606
0.181636
0.177899
0.174389
0.171101
0.168036
0.165195
0.162582
0.160208
0.158088
0.156252
0.154773
0.153609
0.152879
0.152691
0.153225
0.162441
0.173386
0.186299
0.201508
0.219444
0.240671
0.265918
0.296122
0.332474
0.376475
0.430128
0.495609
0.574539
0.667063
0.770198
0.87637
0.974257
1.05332
1.10906
1.14386
1.1636
1.17398
1.17917
1.18167
1.18284
1.18338
1.18363
1.18374
1.18379
1.18381
1.18382
1.18382
1.18382
1.18382
1.18382
1.18382
1.18382
1.18382
0.658526
0.6585
0.658456
0.658383
0.65826
0.658057
0.657723
0.657181
0.656311
0.654934
0.652793
0.649532
0.644688
0.637697
0.627951
0.614899
0.598195
0.577856
0.554339
0.528502
0.501437
0.474245
0.447848
0.422895
0.399758
0.378579
0.359343
0.341935
0.326195
0.311943
0.299005
0.28722
0.276448
0.26657
0.257484
0.249101
0.241309
0.234036
0.227231
0.220849
0.21485
0.209203
0.20388
0.198858
0.194119
0.189646
0.185426
0.181449
0.177707
0.174194
0.170907
0.167845
0.16501
0.162408
0.160051
0.157956
0.156163
0.154731
0.153637
0.15302
0.153017
0.154195
0.163715
0.174988
0.18827
0.203903
0.222338
0.244161
0.270129
0.301212
0.338635
0.383956
0.439231
0.506577
0.587443
0.681614
0.785515
0.890953
0.98647
1.06221
1.11472
1.1471
1.16531
1.17483
1.17957
1.18185
1.18293
1.18342
1.18365
1.18375
1.18379
1.18381
1.18382
1.18382
1.18382
1.18382
1.18382
1.18382
1.18382
1.18382
0.658526
0.6585
0.658456
0.658383
0.658261
0.658058
0.657726
0.657186
0.656318
0.654946
0.652812
0.649563
0.644734
0.637765
0.628048
0.61503
0.598364
0.57806
0.554571
0.528753
0.501695
0.474497
0.448084
0.423109
0.399946
0.37874
0.359476
0.342042
0.326277
0.312001
0.299041
0.287237
0.276448
0.266552
0.257449
0.24905
0.241243
0.233956
0.227137
0.220741
0.21473
0.209072
0.203738
0.198707
0.193959
0.189478
0.185252
0.181271
0.177525
0.174011
0.170724
0.167665
0.164835
0.16224
0.159892
0.157808
0.156031
0.154613
0.153525
0.152899
0.152846
0.155339
0.165067
0.176591
0.190174
0.206168
0.22504
0.247393
0.274008
0.305884
0.344279
0.390806
0.447556
0.516581
0.59917
0.694754
0.799207
0.903815
0.997081
1.06982
1.11953
1.14984
1.16675
1.17554
1.17991
1.18201
1.183
1.18345
1.18366
1.18375
1.18379
1.18381
1.18382
1.18382
1.18382
1.18382
1.18382
1.18382
1.18382
1.18382
0.658526
0.6585
0.658457
0.658383
0.658262
0.65806
0.657728
0.65719
0.656325
0.654956
0.652829
0.649589
0.644773
0.637822
0.628128
0.615136
0.598498
0.578221
0.554753
0.528946
0.501889
0.474683
0.448255
0.423259
0.400073
0.378844
0.359558
0.342102
0.326315
0.312022
0.299045
0.287226
0.276421
0.266511
0.257395
0.248983
0.241163
0.233865
0.227035
0.220629
0.214609
0.208942
0.2036
0.198561
0.193807
0.189321
0.18509
0.181106
0.177359
0.173844
0.170558
0.167501
0.164675
0.162086
0.159745
0.157669
0.155902
0.154492
0.153411
0.152787
0.152732
0.156466
0.166368
0.178106
0.191948
0.208257
0.227512
0.250335
0.277528
0.310115
0.349385
0.396999
0.455075
0.525602
0.609703
0.706482
0.811314
0.915047
1.00622
1.0763
1.12357
1.15212
1.16794
1.17614
1.18019
1.18214
1.18306
1.18348
1.18367
1.18376
1.18379
1.18381
1.18382
1.18382
1.18382
1.18382
1.18382
1.18382
1.18382
1.18382
0.658526
0.6585
0.658457
0.658384
0.658262
0.658061
0.65773
0.657193
0.65633
0.654965
0.652843
0.64961
0.644805
0.637869
0.628192
0.615221
0.598604
0.578346
0.554891
0.529091
0.502032
0.474816
0.448373
0.42336
0.400155
0.378906
0.3596
0.342126
0.326325
0.312017
0.299026
0.287194
0.276377
0.266456
0.257329
0.248908
0.241078
0.233771
0.226933
0.220519
0.214491
0.208817
0.20347
0.198426
0.193667
0.189177
0.184944
0.180957
0.17721
0.173696
0.170412
0.167359
0.164537
0.161954
0.159619
0.157552
0.155795
0.154394
0.15332
0.152702
0.152653
0.157486
0.167548
0.179476
0.193547
0.210134
0.229729
0.252968
0.280672
0.313889
0.353932
0.402517
0.461777
0.533627
0.619043
0.716823
0.821898
0.924755
1.01402
1.08176
1.12696
1.15402
1.16894
1.17663
1.18043
1.18225
1.18311
1.1835
1.18368
1.18376
1.1838
1.18381
1.18382
1.18382
1.18382
1.18382
1.18382
1.18382
1.18382
1.18382
0.658526
0.6585
0.658457
0.658384
0.658263
0.658062
0.657732
0.657195
0.656334
0.654972
0.652854
0.649627
0.644831
0.637905
0.628242
0.615286
0.598685
0.57844
0.554994
0.529196
0.502133
0.474908
0.448452
0.423423
0.400201
0.378936
0.359615
0.342129
0.326314
0.311994
0.298993
0.28715
0.276324
0.266394
0.257259
0.24883
0.240994
0.233679
0.226835
0.220415
0.214382
0.208703
0.203351
0.198303
0.193541
0.189049
0.184815
0.180828
0.177081
0.173569
0.170288
0.167238
0.164421
0.161844
0.159518
0.157459
0.155712
0.154319
0.153255
0.152645
0.152604
0.158366
0.168576
0.180676
0.19495
0.211782
0.231674
0.255275
0.283426
0.317195
0.357921
0.40736
0.467655
0.540659
0.627206
0.725816
0.831032
0.933055
1.02062
1.08634
1.12977
1.1556
1.16976
1.17703
1.18062
1.18234
1.18315
1.18352
1.18369
1.18376
1.1838
1.18381
1.18382
1.18382
1.18382
1.18382
1.18382
1.18382
1.18382
1.18382
0.658526
0.6585
0.658457
0.658384
0.658263
0.658063
0.657733
0.657198
0.656338
0.654978
0.652863
0.649641
0.644851
0.637934
0.628281
0.615336
0.598746
0.578509
0.555068
0.52927
0.502202
0.474969
0.4485
0.423458
0.400223
0.378945
0.359613
0.342115
0.32629
0.311961
0.298951
0.287101
0.276268
0.266331
0.257191
0.248756
0.240914
0.233595
0.226745
0.220321
0.214284
0.208602
0.203247
0.198197
0.193433
0.18894
0.184705
0.180719
0.176973
0.173463
0.170185
0.16714
0.164329
0.161758
0.159439
0.157387
0.155651
0.154267
0.153212
0.152611
0.15258
0.159111
0.169454
0.181705
0.196157
0.213201
0.233348
0.257264
0.285802
0.320049
0.361365
0.411543
0.472732
0.546725
0.634231
0.73352
0.838807
0.940057
1.02613
1.09013
1.13209
1.15689
1.17043
1.17736
1.18078
1.18242
1.18318
1.18354
1.1837
1.18377
1.1838
1.18381
1.18382
1.18382
1.18382
1.18382
1.18382
1.18382
1.18382
1.18382
0.658526
0.6585
0.658457
0.658385
0.658264
0.658063
0.657734
0.657199
0.656341
0.654982
0.65287
0.649651
0.644866
0.637955
0.62831
0.615373
0.59879
0.578559
0.55512
0.529321
0.502248
0.475006
0.448528
0.423475
0.400229
0.378941
0.359599
0.342093
0.326261
0.311924
0.298908
0.287052
0.276214
0.266273
0.257128
0.248689
0.240843
0.23352
0.226667
0.22024
0.2142
0.208515
0.203158
0.198107
0.193342
0.188849
0.184615
0.18063
0.176886
0.173379
0.170105
0.167064
0.164259
0.161694
0.159381
0.157337
0.155609
0.154233
0.153186
0.152593
0.152573
0.15973
0.17019
0.182572
0.197176
0.2144
0.234765
0.258947
0.287813
0.322464
0.36428
0.415087
0.477031
0.551858
0.640162
0.740001
0.84531
0.945872
1.03068
1.09323
1.13398
1.15794
1.17098
1.17763
1.18091
1.18248
1.18321
1.18355
1.1837
1.18377
1.1838
1.18381
1.18382
1.18382
1.18382
1.18382
1.18382
1.18382
1.18382
1.18382
0.658526
0.6585
0.658457
0.658385
0.658264
0.658064
0.657735
0.657201
0.656343
0.654986
0.652875
0.649659
0.644878
0.637971
0.628331
0.6154
0.598822
0.578594
0.555156
0.529355
0.502277
0.475028
0.448541
0.423479
0.400225
0.37893
0.359581
0.342068
0.32623
0.311888
0.298868
0.287008
0.276166
0.266221
0.257074
0.248632
0.240783
0.233458
0.226603
0.220173
0.214132
0.208446
0.203088
0.198036
0.193271
0.188778
0.184545
0.180561
0.17682
0.173316
0.170046
0.16701
0.164209
0.16165
0.159343
0.157304
0.155581
0.154209
0.153159
0.152556
0.152514
0.160234
0.170795
0.183288
0.198018
0.215392
0.235937
0.260339
0.289474
0.324459
0.366688
0.418012
0.480579
0.55609
0.645042
0.745317
0.850619
0.950592
1.03434
1.09572
1.13549
1.15877
1.17141
1.17785
1.18101
1.18252
1.18323
1.18356
1.18371
1.18377
1.1838
1.18381
1.18382
1.18382
1.18382
1.18382
1.18382
1.18382
1.18382
1.18382
0.658526
0.6585
0.658457
0.658385
0.658264
0.658064
0.657736
0.657202
0.656344
0.654988
0.652879
0.649665
0.644886
0.637983
0.628346
0.615419
0.598844
0.578618
0.55518
0.529376
0.502294
0.475039
0.448546
0.423478
0.400217
0.378916
0.359561
0.342044
0.326202
0.311857
0.298834
0.28697
0.276126
0.266179
0.25703
0.248587
0.240736
0.233409
0.226553
0.220122
0.21408
0.208393
0.203034
0.197982
0.193218
0.188726
0.184494
0.180513
0.176775
0.173274
0.170008
0.166975
0.164179
0.161625
0.159324
0.157291
0.155574
0.154206
0.153159
0.152556
0.152515
0.160633
0.171277
0.183861
0.198694
0.216188
0.236876
0.261452
0.290801
0.326049
0.368606
0.420341
0.483401
0.55945
0.648909
0.749515
0.854794
0.954286
1.0372
1.09766
1.13665
1.15942
1.17174
1.17801
1.18109
1.18256
1.18325
1.18357
1.18371
1.18377
1.1838
1.18381
1.18382
1.18382
1.18382
1.18382
1.18382
1.18382
1.18382
1.18382
0.658526
0.658501
0.658457
0.658385
0.658264
0.658064
0.657736
0.657202
0.656346
0.65499
0.652881
0.649669
0.644892
0.637991
0.628357
0.615432
0.598859
0.578633
0.555195
0.529389
0.502303
0.475044
0.448546
0.423473
0.400208
0.378902
0.359545
0.342024
0.32618
0.311832
0.298807
0.286942
0.276096
0.266148
0.256998
0.248554
0.240703
0.233375
0.226518
0.220087
0.214044
0.208356
0.202998
0.197947
0.193183
0.188693
0.184463
0.180483
0.176747
0.17325
0.169987
0.166959
0.164167
0.161619
0.159323
0.157295
0.155584
0.154219
0.153174
0.152569
0.152521
0.160929
0.171643
0.184298
0.199211
0.216794
0.23759
0.262296
0.291804
0.327249
0.370049
0.42209
0.485515
0.561962
0.651791
0.752633
0.857881
0.957004
1.03929
1.09907
1.13751
1.15989
1.17199
1.17813
1.18115
1.18259
1.18326
1.18357
1.18371
1.18377
1.1838
1.18381
1.18382
1.18382
1.18382
1.18382
1.18382
1.18382
1.18382
1.18382
0.658526
0.658501
0.658457
0.658385
0.658264
0.658064
0.657736
0.657203
0.656346
0.654991
0.652883
0.649671
0.644895
0.637996
0.628363
0.61544
0.598868
0.578643
0.555204
0.529396
0.502308
0.475046
0.448545
0.423469
0.400201
0.378893
0.359533
0.34201
0.326164
0.311815
0.298789
0.286923
0.276076
0.266128
0.256978
0.248534
0.240682
0.233354
0.226497
0.220066
0.214023
0.208336
0.202978
0.197927
0.193164
0.188675
0.184446
0.180469
0.176736
0.173241
0.169981
0.166957
0.16417
0.161626
0.159334
0.157311
0.155604
0.154242
0.153197
0.152587
0.152528
0.161127
0.171893
0.184601
0.199568
0.217214
0.238082
0.262873
0.292487
0.328061
0.371022
0.423265
0.48693
0.563637
0.653706
0.754695
0.85991
0.958779
1.04065
1.09999
1.13806
1.1602
1.17214
1.17821
1.18118
1.18261
1.18327
1.18358
1.18371
1.18377
1.1838
1.18381
1.18382
1.18382
1.18382
1.18382
1.18382
1.18382
1.18382
1.18382
0.658526
0.658501
0.658457
0.658385
0.658264
0.658065
0.657736
0.657203
0.656347
0.654991
0.652884
0.649673
0.644897
0.637998
0.628366
0.615443
0.598872
0.578647
0.555208
0.5294
0.50231
0.475047
0.448544
0.423466
0.400197
0.378887
0.359526
0.342003
0.326156
0.311807
0.29878
0.286914
0.276067
0.266119
0.256968
0.248524
0.240673
0.233345
0.226488
0.220057
0.214014
0.208328
0.20297
0.19792
0.193158
0.188669
0.184442
0.180466
0.176734
0.173241
0.169984
0.166963
0.164178
0.161638
0.159349
0.157329
0.155626
0.154265
0.153219
0.152604
0.152532
0.161224
0.172025
0.184763
0.19976
0.217436
0.238339
0.263173
0.292837
0.328474
0.371512
0.423851
0.487628
0.564457
0.654635
0.755688
0.860879
0.959618
1.04129
1.10042
1.13832
1.16034
1.17222
1.17825
1.1812
1.18261
1.18327
1.18358
1.18371
1.18377
1.1838
1.18381
1.18382
1.18382
1.18382
1.18382
1.18382
1.18382
1.18382
1.18382
0.658526
0.658501
0.658457
0.658385
0.658264
0.658065
0.657736
0.657203
0.656347
0.654991
0.652884
0.649673
0.644897
0.637998
0.628366
0.615443
0.598871
0.578647
0.555207
0.529399
0.50231
0.475046
0.448544
0.423466
0.400197
0.378887
0.359526
0.342003
0.326156
0.311807
0.29878
0.286914
0.276067
0.266118
0.256968
0.248524
0.240673
0.233345
0.226488
0.220057
0.214014
0.208327
0.20297
0.19792
0.193158
0.188669
0.184442
0.180466
0.176734
0.173241
0.169984
0.166962
0.164178
0.161637
0.159349
0.157329
0.155626
0.154265
0.153219
0.152604
0.152532
0.161225
0.172025
0.184763
0.19976
0.217436
0.23834
0.263173
0.292838
0.328474
0.371513
0.423851
0.487629
0.564458
0.654636
0.755689
0.860879
0.959619
1.04129
1.10042
1.13832
1.16034
1.17222
1.17825
1.1812
1.18261
1.18327
1.18358
1.18371
1.18377
1.1838
1.18381
1.18382
1.18382
1.18382
1.18382
1.18382
1.18382
1.18382
1.18382
0.658526
0.658501
0.658457
0.658385
0.658264
0.658064
0.657736
0.657203
0.656346
0.654991
0.652883
0.649671
0.644895
0.637995
0.628362
0.615439
0.598867
0.578642
0.555203
0.529395
0.502307
0.475045
0.448544
0.423467
0.4002
0.378891
0.359532
0.342009
0.326163
0.311814
0.298788
0.286922
0.276076
0.266128
0.256977
0.248533
0.240682
0.233354
0.226496
0.220065
0.214022
0.208335
0.202978
0.197927
0.193164
0.188675
0.184446
0.180469
0.176735
0.17324
0.169981
0.166957
0.16417
0.161626
0.159334
0.157311
0.155604
0.154242
0.153197
0.152587
0.152528
0.161127
0.171894
0.184602
0.199569
0.217215
0.238083
0.262874
0.292489
0.328063
0.371024
0.423267
0.486932
0.56364
0.653709
0.754698
0.859913
0.958781
1.04066
1.09999
1.13807
1.1602
1.17214
1.17821
1.18118
1.18261
1.18327
1.18358
1.18371
1.18377
1.1838
1.18381
1.18382
1.18382
1.18382
1.18382
1.18382
1.18382
1.18382
1.18382
0.658526
0.658501
0.658457
0.658385
0.658264
0.658064
0.657736
0.657202
0.656345
0.65499
0.652881
0.649669
0.644891
0.63799
0.628356
0.61543
0.598857
0.578631
0.555193
0.529387
0.502301
0.475041
0.448544
0.423471
0.400206
0.3789
0.359543
0.342023
0.326178
0.311831
0.298805
0.286941
0.276095
0.266147
0.256997
0.248553
0.240702
0.233374
0.226517
0.220086
0.214043
0.208356
0.202998
0.197946
0.193183
0.188692
0.184462
0.180483
0.176747
0.173249
0.169987
0.166958
0.164167
0.161619
0.159322
0.157294
0.155583
0.154219
0.153174
0.152569
0.152521
0.16093
0.171644
0.1843
0.199212
0.216796
0.237592
0.262298
0.291806
0.327251
0.370052
0.422093
0.485519
0.561966
0.651796
0.752639
0.857886
0.957008
1.0393
1.09908
1.13751
1.15989
1.17199
1.17813
1.18115
1.18259
1.18326
1.18357
1.18371
1.18377
1.1838
1.18381
1.18382
1.18382
1.18382
1.18382
1.18382
1.18382
1.18382
1.18382
0.658526
0.6585
0.658457
0.658385
0.658264
0.658064
0.657736
0.657202
0.656344
0.654988
0.652878
0.649664
0.644885
0.637982
0.628345
0.615417
0.598842
0.578615
0.555177
0.529373
0.50229
0.475035
0.448542
0.423474
0.400214
0.378913
0.359559
0.342042
0.3262
0.311855
0.298832
0.286969
0.276124
0.266178
0.257029
0.248586
0.240735
0.233408
0.226552
0.220121
0.214079
0.208392
0.203034
0.197982
0.193217
0.188725
0.184494
0.180513
0.176774
0.173273
0.170007
0.166975
0.164179
0.161625
0.159323
0.15729
0.155574
0.154206
0.153159
0.152556
0.152515
0.160634
0.171279
0.183863
0.198696
0.21619
0.236879
0.261454
0.290804
0.326053
0.36861
0.420346
0.483406
0.559456
0.648916
0.749523
0.854801
0.954292
1.03721
1.09766
1.13666
1.15942
1.17174
1.17801
1.18109
1.18256
1.18325
1.18357
1.18371
1.18377
1.1838
1.18381
1.18382
1.18382
1.18382
1.18382
1.18382
1.18382
1.18382
1.18382
0.658526
0.6585
0.658457
0.658385
0.658264
0.658064
0.657735
0.657201
0.656343
0.654985
0.652875
0.649659
0.644877
0.63797
0.628329
0.615398
0.598819
0.57859
0.555152
0.52935
0.502272
0.475023
0.448537
0.423475
0.400221
0.378926
0.359577
0.342065
0.326227
0.311886
0.298866
0.287006
0.276164
0.266219
0.257072
0.248631
0.240782
0.233456
0.226601
0.220172
0.214131
0.208445
0.203087
0.198035
0.19327
0.188777
0.184544
0.180561
0.176819
0.173316
0.170046
0.167009
0.164209
0.161649
0.159342
0.157303
0.155581
0.154208
0.153159
0.152556
0.152514
0.160236
0.170797
0.18329
0.198021
0.215395
0.23594
0.260342
0.289478
0.324463
0.366693
0.418019
0.480586
0.556098
0.645051
0.745327
0.850628
0.9506
1.03435
1.09573
1.13549
1.15877
1.17141
1.17785
1.18101
1.18252
1.18323
1.18356
1.18371
1.18377
1.1838
1.18381
1.18382
1.18382
1.18382
1.18382
1.18382
1.18382
1.18382
1.18382
0.658526
0.6585
0.658457
0.658385
0.658264
0.658063
0.657734
0.657199
0.656341
0.654982
0.652869
0.649651
0.644865
0.637954
0.628308
0.61537
0.598787
0.578555
0.555116
0.529316
0.502242
0.475
0.448522
0.42347
0.400224
0.378937
0.359595
0.342089
0.326257
0.311921
0.298906
0.28705
0.276211
0.26627
0.257126
0.248687
0.240841
0.233518
0.226666
0.220239
0.214199
0.208514
0.203157
0.198106
0.193341
0.188848
0.184614
0.180629
0.176885
0.173378
0.170104
0.167063
0.164258
0.161694
0.159381
0.157336
0.155608
0.154233
0.153186
0.152592
0.152573
0.159733
0.170192
0.182575
0.197179
0.214403
0.234769
0.258952
0.287818
0.32247
0.364287
0.415094
0.47704
0.551868
0.640173
0.740013
0.845322
0.945882
1.03068
1.09324
1.13398
1.15794
1.17098
1.17763
1.18091
1.18248
1.18321
1.18355
1.1837
1.18377
1.1838
1.18381
1.18382
1.18382
1.18382
1.18382
1.18382
1.18382
1.18382
1.18382
0.658526
0.6585
0.658457
0.658384
0.658263
0.658063
0.657733
0.657198
0.656338
0.654977
0.652862
0.64964
0.64485
0.637932
0.628278
0.615333
0.598742
0.578504
0.555062
0.529264
0.502196
0.474962
0.448494
0.423452
0.400217
0.37894
0.359608
0.342111
0.326286
0.311957
0.298948
0.287098
0.276265
0.266329
0.257189
0.248754
0.240912
0.233593
0.226744
0.22032
0.214283
0.2086
0.203245
0.198195
0.193431
0.188938
0.184704
0.180718
0.176972
0.173462
0.170185
0.167139
0.164328
0.161758
0.159439
0.157387
0.15565
0.154267
0.153212
0.152611
0.15258
0.159114
0.169457
0.181709
0.196161
0.213205
0.233353
0.257269
0.285808
0.320056
0.361373
0.411553
0.472742
0.546738
0.634245
0.733535
0.838822
0.94007
1.02614
1.09014
1.1321
1.15689
1.17043
1.17737
1.18078
1.18242
1.18318
1.18354
1.1837
1.18377
1.1838
1.18381
1.18382
1.18382
1.18382
1.18382
1.18382
1.18382
1.18382
1.18382
0.658526
0.6585
0.658457
0.658384
0.658263
0.658062
0.657732
0.657195
0.656334
0.654972
0.652853
0.649626
0.64483
0.637903
0.628239
0.615283
0.59868
0.578434
0.554987
0.529189
0.502125
0.474901
0.448444
0.423416
0.400194
0.37893
0.35961
0.342123
0.326309
0.31199
0.298989
0.287146
0.27632
0.266391
0.257257
0.248828
0.240991
0.233677
0.226833
0.220413
0.21438
0.208701
0.203349
0.198302
0.19354
0.189048
0.184814
0.180827
0.17708
0.173568
0.170287
0.167237
0.16442
0.161844
0.159517
0.157458
0.155711
0.154319
0.153254
0.152645
0.152604
0.158369
0.16858
0.18068
0.194955
0.211787
0.231679
0.255281
0.283433
0.317203
0.35793
0.407371
0.467668
0.540674
0.627223
0.725833
0.83105
0.93307
1.02063
1.08634
1.12978
1.1556
1.16976
1.17703
1.18062
1.18234
1.18315
1.18352
1.18369
1.18376
1.1838
1.18381
1.18382
1.18382
1.18382
1.18382
1.18382
1.18382
1.18382
1.18382
0.658526
0.6585
0.658457
0.658384
0.658262
0.658061
0.65773
0.657193
0.65633
0.654964
0.652842
0.649609
0.644804
0.637866
0.628189
0.615217
0.598599
0.578339
0.554884
0.529082
0.502023
0.474808
0.448365
0.423352
0.400147
0.378899
0.359594
0.342121
0.32632
0.312012
0.299022
0.287189
0.276373
0.266452
0.257326
0.248905
0.241076
0.233768
0.22693
0.220517
0.214489
0.208815
0.203468
0.198424
0.193665
0.189175
0.184942
0.180956
0.177209
0.173695
0.170411
0.167357
0.164536
0.161953
0.159619
0.157551
0.155794
0.154393
0.153319
0.152702
0.152652
0.157489
0.167552
0.17948
0.193551
0.210139
0.229735
0.252975
0.28068
0.313898
0.353943
0.402529
0.461791
0.533644
0.619063
0.716844
0.821918
0.924774
1.01404
1.08177
1.12697
1.15403
1.16894
1.17663
1.18043
1.18225
1.18311
1.1835
1.18368
1.18376
1.1838
1.18381
1.18382
1.18382
1.18382
1.18382
1.18382
1.18382
1.18382
1.18382
0.658526
0.6585
0.658457
0.658383
0.658262
0.65806
0.657728
0.657189
0.656324
0.654956
0.652828
0.649587
0.644772
0.63782
0.628124
0.615132
0.598492
0.578214
0.554744
0.528937
0.50188
0.474674
0.448245
0.42325
0.400065
0.378836
0.359551
0.342095
0.32631
0.312016
0.29904
0.287221
0.276417
0.266507
0.257391
0.24898
0.24116
0.233862
0.227033
0.220627
0.214606
0.208939
0.203598
0.198559
0.193805
0.189319
0.185089
0.181104
0.177357
0.173843
0.170557
0.1675
0.164674
0.162085
0.159744
0.157668
0.155901
0.154491
0.153411
0.152786
0.152732
0.15647
0.166373
0.178111
0.191953
0.208263
0.227519
0.250343
0.277537
0.310126
0.349397
0.397013
0.455092
0.525621
0.609726
0.706507
0.811338
0.915069
1.00624
1.07631
1.12358
1.15213
1.16795
1.17614
1.18019
1.18214
1.18306
1.18348
1.18367
1.18376
1.18379
1.18381
1.18382
1.18382
1.18382
1.18382
1.18382
1.18382
1.18382
1.18382
0.658526
0.6585
0.658456
0.658383
0.658261
0.658058
0.657726
0.657185
0.656318
0.654945
0.652811
0.649561
0.644732
0.637763
0.628044
0.615025
0.598357
0.578052
0.554562
0.528743
0.501684
0.474486
0.448074
0.423099
0.399936
0.378731
0.359468
0.342035
0.32627
0.311995
0.299035
0.287232
0.276443
0.266548
0.257445
0.249046
0.241239
0.233952
0.227134
0.220738
0.214728
0.209069
0.203736
0.198705
0.193957
0.189476
0.18525
0.181269
0.177524
0.174009
0.170723
0.167663
0.164833
0.162239
0.159891
0.157807
0.15603
0.154612
0.153525
0.152898
0.152846
0.155343
0.165072
0.176597
0.19018
0.206175
0.225047
0.247401
0.274018
0.305895
0.344293
0.390822
0.447575
0.516603
0.599195
0.694781
0.799235
0.903841
0.997102
1.06984
1.11954
1.14984
1.16675
1.17554
1.17991
1.18201
1.183
1.18345
1.18366
1.18375
1.18379
1.18381
1.18382
1.18382
1.18382
1.18382
1.18382
1.18382
1.18382
1.18382
0.658526
0.6585
0.658456
0.658383
0.65826
0.658057
0.657723
0.657181
0.65631
0.654933
0.652792
0.649531
0.644685
0.637694
0.627946
0.614893
0.598188
0.577847
0.554328
0.528491
0.501426
0.474233
0.447836
0.422884
0.399747
0.37857
0.359334
0.341927
0.326187
0.311936
0.298998
0.287214
0.276443
0.266565
0.25748
0.249097
0.241305
0.234033
0.227228
0.220845
0.214847
0.2092
0.203877
0.198856
0.194116
0.189643
0.185424
0.181447
0.177705
0.174192
0.170905
0.167843
0.165008
0.162407
0.16005
0.157955
0.156162
0.15473
0.153636
0.153019
0.153016
0.1542
0.16372
0.174994
0.188276
0.20391
0.222346
0.244171
0.27014
0.301225
0.33865
0.383974
0.439252
0.506602
0.587472
0.681646
0.785548
0.890983
0.986495
1.06223
1.11473
1.14711
1.16531
1.17483
1.17957
1.18185
1.18293
1.18342
1.18365
1.18375
1.18379
1.18381
1.18382
1.18382
1.18382
1.18382
1.18382
1.18382
1.18382
1.18382
0.658526
0.6585
0.658456
0.658382
0.658259
0.658055
0.657721
0.657176
0.656302
0.65492
0.65277
0.649496
0.644632
0.637613
0.627831
0.614735
0.597983
0.577595
0.554035
0.528169
0.501091
0.473901
0.447518
0.422589
0.399482
0.378336
0.359132
0.341757
0.326047
0.311824
0.298914
0.287155
0.276407
0.26655
0.257484
0.249121
0.241348
0.234094
0.227306
0.22094
0.214957
0.209325
0.204015
0.199006
0.194278
0.189815
0.185604
0.181634
0.177897
0.174387
0.1711
0.168034
0.165193
0.16258
0.160207
0.158087
0.156251
0.154773
0.153608
0.152879
0.152693
0.153228
0.162446
0.173391
0.186305
0.201515
0.219452
0.240681
0.26593
0.296136
0.33249
0.376494
0.430151
0.495636
0.574571
0.667099
0.770235
0.876405
0.974287
1.05334
1.10907
1.14387
1.16361
1.17399
1.17917
1.18167
1.18284
1.18338
1.18363
1.18374
1.18379
1.18381
1.18382
1.18382
1.18382
1.18382
1.18382
1.18382
1.18382
1.18382
0.658526
0.6585
0.658456
0.658382
0.658258
0.658054
0.657718
0.657171
0.656294
0.654905
0.652746
0.649457
0.644571
0.637521
0.627697
0.614549
0.597737
0.577289
0.553676
0.527769
0.500668
0.473473
0.447102
0.422197
0.399121
0.378011
0.358845
0.341507
0.325833
0.311644
0.298766
0.287038
0.276319
0.26649
0.257449
0.249108
0.241357
0.234125
0.227359
0.221013
0.215049
0.209435
0.204143
0.19915
0.194436
0.189986
0.185786
0.181825
0.178095
0.17459
0.171304
0.168238
0.16539
0.162766
0.160374
0.158226
0.156343
0.154796
0.153572
0.152697
0.152288
0.152469
0.161287
0.17182
0.184294
0.199013
0.216388
0.236955
0.261413
0.290661
0.325851
0.36843
0.420334
0.483782
0.560563