/*--------------------------------*- C++ -*----------------------------------*\
  =========                 |
  \\      /  F ield         | OpenFOAM: The Open Source CFD Toolbox
   \\    /   O peration     | Website:  https://openfoam.org
    \\  /    A nd           | Version:  8
     \\/     M anipulation  |
\*---------------------------------------------------------------------------*/
FoamFile
{
    version     2.0;
    format      ascii;
    class       volVectorField;
    location    "520/fluid";
    object      U;
}
// * * * * * * * * * * * * * * * * * * * * * * * * * * * * * * * * * * * * * //

dimensions      [0 1 -1 0 0 0 0];

internalField   nonuniform List<vector> 
4000
(
(0.0999473 -0.0069938 0)
(0.0996604 -0.0208116 0)
(0.0991974 -0.034515 0)
(0.0985579 -0.0481416 0)
(0.0977342 -0.0617095 0)
(0.0967094 -0.0752211 0)
(0.0954636 -0.0886666 0)
(0.0939782 -0.102027 0)
(0.0922383 -0.115278 0)
(0.0902355 -0.12839 0)
(0.0879715 -0.141338 0)
(0.0854612 -0.154102 0)
(0.0827368 -0.166674 0)
(0.0798535 -0.179043 0)
(0.0768874 -0.191239 0)
(0.0739135 -0.203333 0)
(0.0709855 -0.215382 0)
(0.0681251 -0.227428 0)
(0.0653138 -0.239483 0)
(0.0624932 -0.25152 0)
(0.0595753 -0.263478 0)
(0.0564604 -0.275268 0)
(0.0530577 -0.286786 0)
(0.0493036 -0.297911 0)
(0.0451686 -0.30854 0)
(0.0406422 -0.318613 0)
(0.035727 -0.328072 0)
(0.0304368 -0.336863 0)
(0.0247945 -0.344946 0)
(0.0188282 -0.352289 0)
(0.0125691 -0.358874 0)
(0.0060494 -0.364693 0)
(-0.000697557 -0.369747 0)
(-0.0076374 -0.374046 0)
(-0.014738 -0.377606 0)
(-0.0219709 -0.38045 0)
(-0.0293106 -0.382604 0)
(-0.0367327 -0.384099 0)
(-0.0442143 -0.384969 0)
(-0.0517333 -0.385253 0)
(-0.059269 -0.384987 0)
(-0.0668014 -0.384213 0)
(-0.0743115 -0.38297 0)
(-0.0817807 -0.3813 0)
(-0.0891908 -0.379245 0)
(-0.0965234 -0.376847 0)
(-0.103761 -0.374147 0)
(-0.110884 -0.371188 0)
(-0.117875 -0.368013 0)
(-0.124714 -0.364667 0)
(-0.131382 -0.361195 0)
(-0.137857 -0.357644 0)
(-0.144116 -0.354066 0)
(-0.150136 -0.350514 0)
(-0.15589 -0.347048 0)
(-0.161349 -0.343737 0)
(-0.166472 -0.340655 0)
(-0.171205 -0.337886 0)
(-0.175511 -0.335522 0)
(-0.179413 -0.333699 0)
(-0.183005 -0.332661 0)
(-0.185867 -0.332783 0)
(-0.18603 -0.334075 0)
(-0.181908 -0.334977 0)
(-0.17527 -0.334149 0)
(-0.168102 -0.331647 0)
(-0.160678 -0.327778 0)
(-0.152934 -0.322707 0)
(-0.144884 -0.316504 0)
(-0.1366 -0.309217 0)
(-0.128162 -0.300886 0)
(-0.119657 -0.291555 0)
(-0.111173 -0.281273 0)
(-0.102803 -0.270099 0)
(-0.0946911 -0.258096 0)
(-0.0870739 -0.245379 0)
(-0.0802786 -0.232148 0)
(-0.0746799 -0.218682 0)
(-0.0706609 -0.205514 0)
(-0.0685322 -0.193179 0)
(-0.0683543 -0.181938 0)
(-0.0698494 -0.171715 0)
(-0.0725074 -0.162193 0)
(-0.0757821 -0.153026 0)
(-0.0792328 -0.143959 0)
(-0.0825673 -0.134837 0)
(-0.0856076 -0.125562 0)
(-0.0882802 -0.116167 0)
(-0.0905809 -0.106706 0)
(-0.092534 -0.0972119 0)
(-0.0941737 -0.087717 0)
(-0.0955361 -0.0782488 0)
(-0.0966559 -0.0688291 0)
(-0.0975654 -0.0594722 0)
(-0.0982939 -0.0501853 0)
(-0.0988672 -0.0409683 0)
(-0.0993074 -0.0318142 0)
(-0.0996322 -0.0227093 0)
(-0.0998536 -0.0136323 0)
(-0.0999818 -0.0045544 0)
(0.0999998 -0.00656944 0)
(0.0997996 -0.0196489 0)
(0.099386 -0.0326422 0)
(0.0987359 -0.0455327 0)
(0.0978508 -0.058303 0)
(0.0967265 -0.0709313 0)
(0.095354 -0.083391 0)
(0.0937256 -0.0956521 0)
(0.0918392 -0.107683 0)
(0.0897017 -0.119457 0)
(0.0873318 -0.130952 0)
(0.0847629 -0.142166 0)
(0.0820438 -0.153124 0)
(0.0792391 -0.163899 0)
(0.0764212 -0.174565 0)
(0.073657 -0.185173 0)
(0.0709947 -0.195794 0)
(0.0684497 -0.206491 0)
(0.0659959 -0.217302 0)
(0.0635654 -0.228227 0)
(0.0610589 -0.23922 0)
(0.0583636 -0.250202 0)
(0.0553738 -0.261078 0)
(0.0520061 -0.271763 0)
(0.0482079 -0.282157 0)
(0.0439581 -0.292129 0)
(0.0392556 -0.301579 0)
(0.0341167 -0.31043 0)
(0.0285692 -0.318629 0)
(0.0226478 -0.32614 0)
(0.0163902 -0.332939 0)
(0.00983505 -0.339016 0)
(0.00301972 -0.34437 0)
(-0.00401854 -0.349009 0)
(-0.0112445 -0.35295 0)
(-0.0186262 -0.356213 0)
(-0.0261344 -0.358825 0)
(-0.0337424 -0.360814 0)
(-0.0414252 -0.362214 0)
(-0.0491597 -0.363057 0)
(-0.0569239 -0.363381 0)
(-0.0646976 -0.363221 0)
(-0.0724612 -0.362616 0)
(-0.0801958 -0.361604 0)
(-0.0878831 -0.360225 0)
(-0.0955051 -0.358516 0)
(-0.103044 -0.356519 0)
(-0.110484 -0.354273 0)
(-0.117806 -0.351818 0)
(-0.124993 -0.349196 0)
(-0.132027 -0.346449 0)
(-0.138889 -0.343621 0)
(-0.145562 -0.340756 0)
(-0.152024 -0.337901 0)
(-0.158255 -0.335106 0)
(-0.164233 -0.332421 0)
(-0.169922 -0.329898 0)
(-0.175274 -0.327588 0)
(-0.180268 -0.325539 0)
(-0.184964 -0.3238 0)
(-0.189491 -0.322416 0)
(-0.193317 -0.321388 0)
(-0.193921 -0.320375 0)
(-0.189507 -0.31865 0)
(-0.182285 -0.316004 0)
(-0.174643 -0.312314 0)
(-0.166865 -0.307545 0)
(-0.158809 -0.30168 0)
(-0.150447 -0.294715 0)
(-0.141826 -0.28665 0)
(-0.133005 -0.277492 0)
(-0.124051 -0.267267 0)
(-0.115028 -0.25602 0)
(-0.106005 -0.243838 0)
(-0.0971267 -0.230874 0)
(-0.0886655 -0.217411 0)
(-0.081015 -0.203896 0)
(-0.0746439 -0.19096 0)
(-0.0700219 -0.179074 0)
(-0.0674617 -0.168503 0)
(-0.0669589 -0.159263 0)
(-0.0681679 -0.151078 0)
(-0.0705555 -0.143527 0)
(-0.0735943 -0.13623 0)
(-0.0768751 -0.12894 0)
(-0.0801307 -0.121541 0)
(-0.0832136 -0.114022 0)
(-0.0860374 -0.106304 0)
(-0.0885643 -0.0983549 0)
(-0.0907882 -0.0902035 0)
(-0.092717 -0.0818901 0)
(-0.094367 -0.0734539 0)
(-0.095759 -0.0649292 0)
(-0.0969152 -0.0563441 0)
(-0.0978584 -0.0477202 0)
(-0.0986097 -0.039073 0)
(-0.0991871 -0.0304118 0)
(-0.0996026 -0.0217403 0)
(-0.0998647 -0.0130571 0)
(-0.0999951 -0.00435782 0)
(0.0999794 -0.00629802 0)
(0.0997223 -0.0188252 0)
(0.0992188 -0.0312639 0)
(0.0984505 -0.0435948 0)
(0.0974213 -0.0557968 0)
(0.0961322 -0.0678472 0)
(0.0945824 -0.0797221 0)
(0.0927748 -0.0913977 0)
(0.0907192 -0.102852 0)
(0.0884347 -0.114066 0)
(0.0859525 -0.125031 0)
(0.0833172 -0.135746 0)
(0.0805864 -0.146226 0)
(0.0778247 -0.156503 0)
(0.0750975 -0.166627 0)
(0.0724657 -0.176668 0)
(0.0699753 -0.186702 0)
(0.0676415 -0.196798 0)
(0.0654379 -0.206998 0)
(0.0632957 -0.217308 0)
(0.0611135 -0.227693 0)
(0.0587755 -0.238084 0)
(0.0561699 -0.248388 0)
(0.0532011 -0.258503 0)
(0.0497981 -0.268332 0)
(0.04592 -0.277783 0)
(0.0415556 -0.28678 0)
(0.0367153 -0.295255 0)
(0.0314243 -0.303157 0)
(0.0257161 -0.310446 0)
(0.0196284 -0.317096 0)
(0.0132005 -0.32309 0)
(0.00647117 -0.328423 0)
(-0.000521596 -0.333098 0)
(-0.00774125 -0.337126 0)
(-0.015154 -0.340522 0)
(-0.0227293 -0.343308 0)
(-0.0304391 -0.34551 0)
(-0.0382577 -0.347156 0)
(-0.0461613 -0.348276 0)
(-0.0541276 -0.348903 0)
(-0.0621357 -0.349071 0)
(-0.0701656 -0.348814 0)
(-0.078198 -0.348167 0)
(-0.0862152 -0.347166 0)
(-0.0942003 -0.345847 0)
(-0.102137 -0.344246 0)
(-0.110009 -0.3424 0)
(-0.1178 -0.340347 0)
(-0.125497 -0.338121 0)
(-0.133084 -0.335762 0)
(-0.140547 -0.333306 0)
(-0.147871 -0.33079 0)
(-0.155043 -0.328253 0)
(-0.162048 -0.32573 0)
(-0.16887 -0.323257 0)
(-0.175476 -0.320867 0)
(-0.181823 -0.318584 0)
(-0.187905 -0.316429 0)
(-0.193801 -0.31442 0)
(-0.199566 -0.312575 0)
(-0.204154 -0.310839 0)
(-0.204578 -0.308638 0)
(-0.199464 -0.305522 0)
(-0.191619 -0.301653 0)
(-0.183329 -0.296971 0)
(-0.174859 -0.291387 0)
(-0.166084 -0.284848 0)
(-0.15698 -0.27733 0)
(-0.147586 -0.268837 0)
(-0.137956 -0.259395 0)
(-0.128148 -0.249062 0)
(-0.118222 -0.237929 0)
(-0.108262 -0.226138 0)
(-0.0984552 -0.213896 0)
(-0.0891411 -0.201495 0)
(-0.0807851 -0.189308 0)
(-0.0739226 -0.177747 0)
(-0.0690342 -0.167188 0)
(-0.0663625 -0.15784 0)
(-0.065798 -0.149653 0)
(-0.0669249 -0.142331 0)
(-0.0691964 -0.135491 0)
(-0.0721039 -0.128801 0)
(-0.0752634 -0.122048 0)
(-0.0784285 -0.115121 0)
(-0.0814647 -0.107988 0)
(-0.0843047 -0.100656 0)
(-0.0869106 -0.0931453 0)
(-0.0892635 -0.0854767 0)
(-0.0913582 -0.0776712 0)
(-0.0931979 -0.06975 0)
(-0.0947908 -0.0617334 0)
(-0.0961482 -0.0536399 0)
(-0.0972824 -0.0454855 0)
(-0.0982065 -0.0372836 0)
(-0.0989316 -0.0290445 0)
(-0.0994646 -0.0207757 0)
(-0.0998095 -0.0124823 0)
(-0.099987 -0.00416691 0)
(0.0999839 -0.00595308 0)
(0.0997217 -0.0177943 0)
(0.0991995 -0.0295428 0)
(0.0983984 -0.0411729 0)
(0.0973269 -0.0526587 0)
(0.0959916 -0.0639741 0)
(0.0943976 -0.0750935 0)
(0.0925534 -0.0859924 0)
(0.0904731 -0.0966493 0)
(0.088179 -0.107048 0)
(0.0857034 -0.117181 0)
(0.0830895 -0.127054 0)
(0.0803927 -0.136687 0)
(0.077678 -0.146122 0)
(0.0750154 -0.155419 0)
(0.0724696 -0.164652 0)
(0.0700869 -0.1739 0)
(0.0678809 -0.183234 0)
(0.0658234 -0.192701 0)
(0.0638428 -0.202312 0)
(0.0618351 -0.212037 0)
(0.0596804 -0.221815 0)
(0.0572629 -0.23156 0)
(0.0544855 -0.241176 0)
(0.0512779 -0.250567 0)
(0.0475986 -0.259641 0)
(0.0434316 -0.268319 0)
(0.0387813 -0.276535 0)
(0.0336666 -0.284236 0)
(0.0281157 -0.291382 0)
(0.022162 -0.297945 0)
(0.0158413 -0.303908 0)
(0.00918968 -0.309264 0)
(0.00224277 -0.314012 0)
(-0.0049643 -0.31816 0)
(-0.0123986 -0.321722 0)
(-0.0200301 -0.324715 0)
(-0.0278316 -0.327162 0)
(-0.035778 -0.329087 0)
(-0.0438461 -0.330517 0)
(-0.0520135 -0.331481 0)
(-0.0602593 -0.332008 0)
(-0.0685641 -0.332129 0)
(-0.0769099 -0.331876 0)
(-0.0852799 -0.33128 0)
(-0.0936578 -0.330373 0)
(-0.102028 -0.329188 0)
(-0.110376 -0.327755 0)
(-0.118687 -0.326107 0)
(-0.126948 -0.324274 0)
(-0.135146 -0.322287 0)
(-0.143267 -0.320175 0)
(-0.151299 -0.317967 0)
(-0.159228 -0.315688 0)
(-0.167041 -0.313364 0)
(-0.174717 -0.311014 0)
(-0.182219 -0.308654 0)
(-0.189493 -0.30629 0)
(-0.196544 -0.303921 0)
(-0.203471 -0.301555 0)
(-0.21019 -0.299197 0)
(-0.214943 -0.296779 0)
(-0.214531 -0.293571 0)
(-0.208503 -0.289369 0)
(-0.200128 -0.284497 0)
(-0.191261 -0.278942 0)
(-0.182083 -0.272618 0)
(-0.172512 -0.265467 0)
(-0.162562 -0.257471 0)
(-0.152293 -0.248641 0)
(-0.141776 -0.239012 0)
(-0.131089 -0.228654 0)
(-0.120316 -0.217672 0)
(-0.109582 -0.206218 0)
(-0.0991375 -0.194504 0)
(-0.0893782 -0.18282 0)
(-0.0807964 -0.171523 0)
(-0.0739019 -0.16099 0)
(-0.0690982 -0.151537 0)
(-0.0665342 -0.143296 0)
(-0.066027 -0.136152 0)
(-0.0671332 -0.129793 0)
(-0.0693195 -0.123851 0)
(-0.0721101 -0.118026 0)
(-0.0751515 -0.112125 0)
(-0.078214 -0.106048 0)
(-0.0811655 -0.0997539 0)
(-0.0839369 -0.0932348 0)
(-0.0864955 -0.0865005 0)
(-0.088827 -0.0795701 0)
(-0.0909271 -0.0724658 0)
(-0.092796 -0.0652104 0)
(-0.0944373 -0.0578254 0)
(-0.0958557 -0.0503307 0)
(-0.0970574 -0.0427443 0)
(-0.0980487 -0.0350823 0)
(-0.0988347 -0.0273586 0)
(-0.0994164 -0.0195854 0)
(-0.0997938 -0.0117732 0)
(-0.0999873 -0.00393109 0)
(0.099981 -0.00560611 0)
(0.0997033 -0.0167559 0)
(0.0991551 -0.027816 0)
(0.0983185 -0.0387602 0)
(0.0972044 -0.0495625 0)
(0.0958219 -0.0601978 0)
(0.0941794 -0.0706417 0)
(0.0922884 -0.0808721 0)
(0.0901666 -0.0908702 0)
(0.0878397 -0.100623 0)
(0.0853431 -0.110124 0)
(0.0827231 -0.11938 0)
(0.0800377 -0.128411 0)
(0.0773539 -0.137253 0)
(0.0747423 -0.145962 0)
(0.0722674 -0.154605 0)
(0.0699746 -0.163256 0)
(0.0678766 -0.171982 0)
(0.0659442 -0.180829 0)
(0.0641051 -0.18981 0)
(0.0622536 -0.198903 0)
(0.0602678 -0.208056 0)
(0.0580281 -0.217193 0)
(0.0554333 -0.226228 0)
(0.0524087 -0.235073 0)
(0.0489084 -0.243646 0)
(0.0449123 -0.251873 0)
(0.0404211 -0.259692 0)
(0.0354501 -0.267053 0)
(0.0300247 -0.273916 0)
(0.0241755 -0.280255 0)
(0.0179357 -0.286049 0)
(0.0113394 -0.291291 0)
(0.00442016 -0.295978 0)
(-0.00278848 -0.300115 0)
(-0.0102551 -0.303711 0)
(-0.0179512 -0.306783 0)
(-0.0258507 -0.309348 0)
(-0.0339294 -0.311428 0)
(-0.0421643 -0.313045 0)
(-0.0505341 -0.314224 0)
(-0.059019 -0.31499 0)
(-0.067601 -0.315371 0)
(-0.0762628 -0.315395 0)
(-0.084988 -0.315087 0)
(-0.093761 -0.314476 0)
(-0.102567 -0.313589 0)
(-0.111391 -0.312452 0)
(-0.120219 -0.311091 0)
(-0.129038 -0.309531 0)
(-0.137834 -0.307797 0)
(-0.146593 -0.30591 0)
(-0.1553 -0.30389 0)
(-0.163938 -0.301756 0)
(-0.172489 -0.299521 0)
(-0.180926 -0.297197 0)
(-0.189195 -0.294786 0)
(-0.197231 -0.292284 0)
(-0.205051 -0.289682 0)
(-0.212771 -0.286981 0)
(-0.22012 -0.284181 0)
(-0.224573 -0.281217 0)
(-0.223013 -0.277268 0)
(-0.216094 -0.272398 0)
(-0.207286 -0.266932 0)
(-0.197923 -0.260867 0)
(-0.188093 -0.254131 0)
(-0.177777 -0.246685 0)
(-0.167039 -0.238527 0)
(-0.155967 -0.229683 0)
(-0.144657 -0.220204 0)
(-0.133209 -0.210171 0)
(-0.121728 -0.199698 0)
(-0.110378 -0.188938 0)
(-0.0994561 -0.178102 0)
(-0.0893881 -0.167456 0)
(-0.0806716 -0.157311 0)
(-0.0737896 -0.147972 0)
(-0.0690861 -0.139659 0)
(-0.0666334 -0.132419 0)
(-0.0661864 -0.126094 0)
(-0.0672784 -0.120384 0)
(-0.0693892 -0.114975 0)
(-0.0720722 -0.109625 0)
(-0.0750029 -0.104181 0)
(-0.0779718 -0.0985655 0)
(-0.0808565 -0.0927479 0)
(-0.0835891 -0.0867243 0)
(-0.0861338 -0.0805034 0)
(-0.0884719 -0.0740998 0)
(-0.0905945 -0.0675304 0)
(-0.0924982 -0.0608131 0)
(-0.0941824 -0.0539653 0)
(-0.0956485 -0.0470039 0)
(-0.096899 -0.0399448 0)
(-0.0979369 -0.0328032 0)
(-0.0987642 -0.0255931 0)
(-0.0993794 -0.0183276 0)
(-0.09978 -0.0110193 0)
(-0.099986 -0.00367956 0)
(0.0999815 -0.00524372 0)
(0.0997007 -0.0156733 0)
(0.0991449 -0.0260172 0)
(0.0982968 -0.0362484 0)
(0.0971687 -0.046341 0)
(0.095772 -0.0562699 0)
(0.0941168 -0.0660113 0)
(0.0922165 -0.0755442 0)
(0.0900906 -0.0848511 0)
(0.087766 -0.0939197 0)
(0.0852791 -0.102746 0)
(0.0826768 -0.111337 0)
(0.0800168 -0.119713 0)
(0.0773658 -0.127911 0)
(0.0747941 -0.135984 0)
(0.072366 -0.144 0)
(0.0701271 -0.152031 0)
(0.0680907 -0.16014 0)
(0.0662284 -0.168375 0)
(0.0644689 -0.17675 0)
(0.0627072 -0.185246 0)
(0.0608209 -0.193814 0)
(0.0586896 -0.202386 0)
(0.0562097 -0.210882 0)
(0.0533038 -0.219219 0)
(0.0499226 -0.22732 0)
(0.0460426 -0.235116 0)
(0.0416606 -0.242548 0)
(0.0367888 -0.24957 0)
(0.0314491 -0.256142 0)
(0.0256692 -0.262239 0)
(0.01948 -0.26784 0)
(0.0129129 -0.272938 0)
(0.00599965 -0.277526 0)
(-0.00122857 -0.28161 0)
(-0.00874199 -0.285196 0)
(-0.0165132 -0.288296 0)
(-0.0245171 -0.290927 0)
(-0.0327304 -0.293105 0)
(-0.0411314 -0.29485 0)
(-0.0497003 -0.296184 0)
(-0.0584184 -0.297129 0)
(-0.067268 -0.297707 0)
(-0.0762323 -0.297943 0)
(-0.0852951 -0.297858 0)
(-0.0944409 -0.297476 0)
(-0.103655 -0.296819 0)
(-0.112921 -0.29591 0)
(-0.122226 -0.294769 0)
(-0.131554 -0.293416 0)
(-0.140888 -0.291869 0)
(-0.150213 -0.290145 0)
(-0.159507 -0.288257 0)
(-0.16875 -0.286218 0)
(-0.177915 -0.284035 0)
(-0.186963 -0.281711 0)
(-0.195824 -0.279245 0)
(-0.204423 -0.276624 0)
(-0.212791 -0.273835 0)
(-0.221051 -0.270873 0)
(-0.228733 -0.26772 0)
(-0.232615 -0.264341 0)
(-0.229861 -0.259964 0)
(-0.222195 -0.254782 0)
(-0.213009 -0.249015 0)
(-0.203175 -0.242679 0)
(-0.192739 -0.23574 0)
(-0.181749 -0.228191 0)
(-0.170315 -0.220046 0)
(-0.158553 -0.211344 0)
(-0.146581 -0.202142 0)
(-0.134516 -0.192525 0)
(-0.122486 -0.182604 0)
(-0.110692 -0.172524 0)
(-0.0994676 -0.16248 0)
(-0.0892606 -0.152712 0)
(-0.0805648 -0.143491 0)
(-0.073831 -0.135075 0)
(-0.069341 -0.127636 0)
(-0.0670923 -0.121185 0)
(-0.0667825 -0.11555 0)
(-0.0679245 -0.110449 0)
(-0.0700089 -0.105598 0)
(-0.072615 -0.100781 0)
(-0.0754436 -0.095865 0)
(-0.078305 -0.0907809 0)
(-0.0810888 -0.0855012 0)
(-0.0837343 -0.080021 0)
(-0.0862086 -0.0743472 0)
(-0.0884939 -0.0684926 0)
(-0.0905802 -0.0624722 0)
(-0.0924621 -0.0563021 0)
(-0.0941366 -0.0499985 0)
(-0.0956023 -0.0435774 0)
(-0.0968587 -0.0370543 0)
(-0.0979063 -0.0304442 0)
(-0.0987443 -0.0237617 0)
(-0.0993691 -0.0170208 0)
(-0.0997765 -0.0102351 0)
(-0.099986 -0.00341784 0)
(0.099981 -0.00487939 0)
(0.0996971 -0.0145847 0)
(0.0991359 -0.0242097 0)
(0.0982805 -0.0337288 0)
(0.097144 -0.043117 0)
(0.0957386 -0.0523505 0)
(0.0940754 -0.0614072 0)
(0.0921692 -0.0702676 0)
(0.0900403 -0.0789156 0)
(0.087717 -0.0873405 0)
(0.0852362 -0.095539 0)
(0.0826458 -0.103518 0)
(0.0800041 -0.111297 0)
(0.077378 -0.118911 0)
(0.0748379 -0.126409 0)
(0.0724483 -0.133853 0)
(0.0702546 -0.141311 0)
(0.0682704 -0.148843 0)
(0.0664673 -0.156493 0)
(0.0647741 -0.164276 0)
(0.0630856 -0.172178 0)
(0.0612788 -0.180156 0)
(0.0592319 -0.188148 0)
(0.0568396 -0.196081 0)
(0.0540221 -0.203881 0)
(0.0507275 -0.211475 0)
(0.0469297 -0.218801 0)
(0.0426229 -0.225803 0)
(0.0378166 -0.232437 0)
(0.0325304 -0.238667 0)
(0.0267897 -0.244466 0)
(0.0206233 -0.249817 0)
(0.0140607 -0.254708 0)
(0.0071317 -0.259136 0)
(-0.000134058 -0.2631 0)
(-0.00770796 -0.266608 0)
(-0.0155636 -0.269668 0)
(-0.0236773 -0.272293 0)
(-0.0320271 -0.274499 0)
(-0.0405926 -0.276301 0)
(-0.0493545 -0.277717 0)
(-0.0582945 -0.278768 0)
(-0.0673953 -0.27947 0)
(-0.0766402 -0.279846 0)
(-0.086013 -0.279912 0)
(-0.095498 -0.279689 0)
(-0.105079 -0.279195 0)
(-0.114741 -0.278447 0)
(-0.124466 -0.277463 0)
(-0.134237 -0.276257 0)
(-0.144035 -0.274844 0)
(-0.15384 -0.273237 0)
(-0.163626 -0.271445 0)
(-0.173365 -0.269476 0)
(-0.183023 -0.267336 0)
(-0.192548 -0.265024 0)
(-0.201854 -0.262536 0)
(-0.210854 -0.259859 0)
(-0.21958 -0.256979 0)
(-0.22814 -0.253878 0)
(-0.235915 -0.250505 0)
(-0.239268 -0.246832 0)
(-0.235539 -0.242263 0)
(-0.227114 -0.236998 0)
(-0.217392 -0.231145 0)
(-0.207049 -0.224739 0)
(-0.196078 -0.217794 0)
(-0.184537 -0.210328 0)
(-0.172551 -0.20237 0)
(-0.160255 -0.193966 0)
(-0.14778 -0.185179 0)
(-0.135258 -0.176093 0)
(-0.122836 -0.166812 0)
(-0.110744 -0.157473 0)
(-0.0993467 -0.148255 0)
(-0.0891016 -0.139374 0)
(-0.0804927 -0.131066 0)
(-0.0739358 -0.123544 0)
(-0.0696557 -0.116928 0)
(-0.0675877 -0.11119 0)
(-0.0673886 -0.106149 0)
(-0.0685628 -0.101542 0)
(-0.0706169 -0.0971246 0)
(-0.0731541 -0.092715 0)
(-0.0758969 -0.0882043 0)
(-0.0786705 -0.0835368 0)
(-0.081373 -0.0786902 0)
(-0.0839477 -0.0736606 0)
(-0.0863629 -0.068454 0)
(-0.0886007 -0.0630806 0)
(-0.0906502 -0.057553 0)
(-0.092505 -0.0518849 0)
(-0.0941604 -0.0460902 0)
(-0.0956137 -0.0401829 0)
(-0.0968628 -0.0341772 0)
(-0.0979067 -0.0280869 0)
(-0.0987435 -0.0219258 0)
(-0.0993683 -0.0157077 0)
(-0.0997761 -0.00944609 0)
(-0.0999859 -0.00315435 0)
(0.0999812 -0.00451261 0)
(0.099697 -0.0134889 0)
(0.0991352 -0.0223909 0)
(0.0982789 -0.0311942 0)
(0.0971417 -0.0398753 0)
(0.0957363 -0.0484116 0)
(0.0940745 -0.0567827 0)
(0.0921716 -0.0649702 0)
(0.0900486 -0.0729594 0)
(0.087734 -0.0807406 0)
(0.0852653 -0.0883111 0)
(0.0826901 -0.0956776 0)
(0.0800669 -0.102859 0)
(0.0774624 -0.109887 0)
(0.074947 -0.116809 0)
(0.0725848 -0.123683 0)
(0.0704217 -0.130572 0)
(0.0684715 -0.137534 0)
(0.0667065 -0.144609 0)
(0.0650562 -0.151814 0)
(0.0634156 -0.159136 0)
(0.0616615 -0.166536 0)
(0.0596711 -0.173958 0)
(0.0573377 -0.181336 0)
(0.0545796 -0.1886 0)
(0.0513429 -0.195685 0)
(0.0475991 -0.202533 0)
(0.0433401 -0.209091 0)
(0.0385734 -0.215319 0)
(0.0333164 -0.221183 0)
(0.0275926 -0.226657 0)
(0.021429 -0.231724 0)
(0.0148534 -0.236373 0)
(0.00789449 -0.240599 0)
(0.000580605 -0.244401 0)
(-0.0070609 -0.247784 0)
(-0.015005 -0.250756 0)
(-0.0232291 -0.253325 0)
(-0.0317121 -0.255506 0)
(-0.0404341 -0.257312 0)
(-0.0493762 -0.258758 0)
(-0.0585203 -0.25986 0)
(-0.0678492 -0.260634 0)
(-0.0773462 -0.261095 0)
(-0.0869946 -0.26126 0)
(-0.0967779 -0.261145 0)
(-0.106679 -0.260764 0)
(-0.116681 -0.260132 0)
(-0.126765 -0.259261 0)
(-0.136911 -0.258164 0)
(-0.147097 -0.256853 0)
(-0.157299 -0.255335 0)
(-0.167487 -0.253618 0)
(-0.177627 -0.251709 0)
(-0.187677 -0.24961 0)
(-0.197574 -0.24732 0)
(-0.207215 -0.244833 0)
(-0.216512 -0.24214 0)
(-0.225474 -0.239234 0)
(-0.234134 -0.236093 0)
(-0.24172 -0.232661 0)
(-0.244498 -0.228857 0)
(-0.239983 -0.224213 0)
(-0.230916 -0.218962 0)
(-0.220668 -0.213174 0)
(-0.209849 -0.206883 0)
(-0.198416 -0.200115 0)
(-0.186423 -0.192899 0)
(-0.174001 -0.185274 0)
(-0.161291 -0.177288 0)
(-0.148436 -0.169007 0)
(-0.135578 -0.160508 0)
(-0.122878 -0.151892 0)
(-0.110596 -0.143284 0)
(-0.0991168 -0.134848 0)
(-0.0889057 -0.126777 0)
(-0.0804348 -0.119277 0)
(-0.0740863 -0.112526 0)
(-0.0700335 -0.106611 0)
(-0.0681579 -0.101484 0)
(-0.0680815 -0.0969621 0)
(-0.0693026 -0.092808 0)
(-0.0713417 -0.0888036 0)
(-0.0738231 -0.0847933 0)
(-0.0764885 -0.080684 0)
(-0.079177 -0.0764287 0)
(-0.0817958 -0.0720084 0)
(-0.0842929 -0.0674199 0)
(-0.086639 -0.0626682 0)
(-0.088817 -0.0577621 0)
(-0.090816 -0.0527128 0)
(-0.092629 -0.0475322 0)
(-0.0942507 -0.0422327 0)
(-0.0956772 -0.0368272 0)
(-0.0969056 -0.0313285 0)
(-0.0979339 -0.0257496 0)
(-0.0987593 -0.0201035 0)
(-0.0993761 -0.0144032 0)
(-0.0997789 -0.00866186 0)
(-0.0999862 -0.00289241 0)
(0.0999811 -0.0041463 0)
(0.0996972 -0.0123943 0)
(0.099136 -0.0205744 0)
(0.0982807 -0.0286638 0)
(0.0971452 -0.0366407 0)
(0.0957423 -0.0444843 0)
(0.0940842 -0.0521756 0)
(0.0921865 -0.059698 0)
(0.0900703 -0.0670378 0)
(0.0877644 -0.0741865 0)
(0.0853065 -0.0811417 0)
(0.0827445 -0.0879096 0)
(0.0801364 -0.0945078 0)
(0.0775493 -0.100966 0)
(0.0750533 -0.107328 0)
(0.0727126 -0.113646 0)
(0.0705732 -0.119979 0)
(0.0686493 -0.126381 0)
(0.0669135 -0.13289 0)
(0.0652956 -0.139521 0)
(0.0636904 -0.146264 0)
(0.0619746 -0.153085 0)
(0.0600244 -0.159932 0)
(0.057732 -0.166746 0)
(0.0550141 -0.173464 0)
(0.0518153 -0.180025 0)
(0.048105 -0.186376 0)
(0.0438738 -0.192469 0)
(0.0391271 -0.198266 0)
(0.0338809 -0.203735 0)
(0.0281573 -0.208853 0)
(0.0219817 -0.213602 0)
(0.0153812 -0.217972 0)
(0.00838293 -0.221958 0)
(0.00101417 -0.225557 0)
(-0.00669891 -0.228773 0)
(-0.0147322 -0.231611 0)
(-0.0230635 -0.234081 0)
(-0.0316724 -0.236193 0)
(-0.0405393 -0.237957 0)
(-0.0496454 -0.239386 0)
(-0.0589728 -0.240494 0)
(-0.0685041 -0.241293 0)
(-0.0782221 -0.241798 0)
(-0.0881095 -0.24202 0)
(-0.0981487 -0.241973 0)
(-0.108322 -0.241669 0)
(-0.118609 -0.241119 0)
(-0.12899 -0.240334 0)
(-0.139443 -0.239323 0)
(-0.149942 -0.238093 0)
(-0.160458 -0.236653 0)
(-0.170959 -0.235006 0)
(-0.181406 -0.233158 0)
(-0.19175 -0.231109 0)
(-0.201916 -0.228858 0)
(-0.211796 -0.226401 0)
(-0.221304 -0.223733 0)
(-0.230442 -0.220857 0)
(-0.23919 -0.217778 0)
(-0.246517 -0.21448 0)
(-0.248649 -0.210704 0)
(-0.243368 -0.206074 0)
(-0.233773 -0.200908 0)
(-0.223094 -0.19529 0)
(-0.211871 -0.189238 0)
(-0.200052 -0.182774 0)
(-0.18769 -0.175928 0)
(-0.17492 -0.16874 0)
(-0.161889 -0.161262 0)
(-0.148747 -0.153554 0)
(-0.135642 -0.145691 0)
(-0.12275 -0.137765 0)
(-0.110352 -0.129893 0)
(-0.0988514 -0.122225 0)
(-0.0887156 -0.114932 0)
(-0.0804025 -0.108194 0)
(-0.0742628 -0.10216 0)
(-0.0704235 -0.0968874 0)
(-0.0687211 -0.0923114 0)
(-0.0687516 -0.0882566 0)
(-0.0700119 -0.0845068 0)
(-0.0720369 -0.0808725 0)
(-0.0744698 -0.0772213 0)
(-0.0770685 -0.0734757 0)
(-0.0796837 -0.0695966 0)
(-0.0822294 -0.0655685 0)
(-0.0846575 -0.0613891 0)
(-0.0869403 -0.0570626 0)
(-0.0890617 -0.0525968 0)
(-0.0910109 -0.0480011 0)
(-0.0927808 -0.043286 0)
(-0.0943658 -0.0384624 0)
(-0.0957615 -0.0335416 0)
(-0.0969646 -0.0285352 0)
(-0.0979726 -0.0234549 0)
(-0.0987822 -0.0183126 0)
(-0.0993875 -0.0131203 0)
(-0.0997829 -0.00789031 0)
(-0.0999864 -0.0026347 0)
(0.0999812 -0.00378074 0)
(0.0996982 -0.011302 0)
(0.0991386 -0.0187615 0)
(0.0982858 -0.0261386 0)
(0.0971537 -0.0334132 0)
(0.0957552 -0.0405662 0)
(0.0941026 -0.0475804 0)
(0.0922115 -0.0544404 0)
(0.0901033 -0.0611341 0)
(0.0878068 -0.0676535 0)
(0.0853596 -0.0739966 0)
(0.0828094 -0.0801694 0)
(0.0802145 -0.0861877 0)
(0.0776414 -0.0920793 0)
(0.0751603 -0.0978834 0)
(0.0728356 -0.103649 0)
(0.0707132 -0.10943 0)
(0.0688076 -0.115276 0)
(0.0670919 -0.121222 0)
(0.065496 -0.127282 0)
(0.0639149 -0.133449 0)
(0.0622248 -0.139692 0)
(0.0603014 -0.145964 0)
(0.0580358 -0.15221 0)
(0.0553435 -0.158375 0)
(0.0521674 -0.164403 0)
(0.0484759 -0.170245 0)
(0.044258 -0.175858 0)
(0.0395178 -0.181205 0)
(0.03427 -0.186259 0)
(0.0285357 -0.190997 0)
(0.0223393 -0.195402 0)
(0.0157067 -0.199465 0)
(0.00866411 -0.20318 0)
(0.00123784 -0.206544 0)
(-0.00654654 -0.20956 0)
(-0.0146654 -0.212232 0)
(-0.0230972 -0.214567 0)
(-0.0318216 -0.216573 0)
(-0.0408192 -0.21826 0)
(-0.0500714 -0.219638 0)
(-0.0595601 -0.220717 0)
(-0.0692674 -0.221509 0)
(-0.0791756 -0.222025 0)
(-0.0892665 -0.222275 0)
(-0.0995216 -0.22227 0)
(-0.109921 -0.22202 0)
(-0.120444 -0.221533 0)
(-0.131068 -0.220819 0)
(-0.141768 -0.219884 0)
(-0.152516 -0.218735 0)
(-0.16328 -0.217378 0)
(-0.174023 -0.215816 0)
(-0.184703 -0.214052 0)
(-0.195266 -0.212088 0)
(-0.205632 -0.209924 0)
(-0.215689 -0.207557 0)
(-0.225369 -0.204986 0)
(-0.234708 -0.202222 0)
(-0.243639 -0.199289 0)
(-0.250593 -0.196193 0)
(-0.251779 -0.192461 0)
(-0.245651 -0.187929 0)
(-0.23571 -0.18294 0)
(-0.224768 -0.177579 0)
(-0.213257 -0.171854 0)
(-0.201143 -0.165777 0)
(-0.188495 -0.159379 0)
(-0.175457 -0.152697 0)
(-0.162182 -0.14578 0)
(-0.148825 -0.138685 0)
(-0.135538 -0.131481 0)
(-0.122514 -0.124252 0)
(-0.110053 -0.117106 0)
(-0.0985691 -0.110176 0)
(-0.0885309 -0.103617 0)
(-0.0803832 -0.0975859 0)
(-0.0744473 -0.0922054 0)
(-0.070809 -0.087514 0)
(-0.0692669 -0.0834375 0)
(-0.0693963 -0.0798102 0)
(-0.0706945 -0.0764383 0)
(-0.0727095 -0.0731565 0)
(-0.0751012 -0.069852 0)
(-0.0776415 -0.0664591 0)
(-0.0801909 -0.0629453 0)
(-0.0826698 -0.0592978 0)
(-0.0850333 -0.0555148 0)
(-0.0872558 -0.0516001 0)
(-0.089322 -0.0475605 0)
(-0.0912216 -0.0434043 0)
(-0.0929475 -0.0391406 0)
(-0.0944941 -0.034779 0)
(-0.0958568 -0.0303296 0)
(-0.0970322 -0.0258028 0)
(-0.0980173 -0.021209 0)
(-0.0988089 -0.0165591 0)
(-0.099401 -0.0118639 0)
(-0.0997877 -0.00713458 0)
(-0.0999867 -0.00238227 0)
(0.0999813 -0.00341647 0)
(0.0996992 -0.0102133 0)
(0.0991415 -0.0169548 0)
(0.0982915 -0.0236221 0)
(0.0971631 -0.0301969 0)
(0.0957693 -0.0366622 0)
(0.0941223 -0.0430024 0)
(0.0922377 -0.0492035 0)
(0.090137 -0.0552546 0)
(0.0878489 -0.0611486 0)
(0.0854109 -0.0668838 0)
(0.0828706 -0.0724656 0)
(0.0802862 -0.0779085 0)
(0.0777242 -0.0832374 0)
(0.0752546 -0.0884881 0)
(0.0729418 -0.0937052 0)
(0.070832 -0.0989372 0)
(0.0689397 -0.104229 0)
(0.0672384 -0.109613 0)
(0.0656581 -0.115104 0)
(0.0640937 -0.120693 0)
(0.0624211 -0.126355 0)
(0.0605153 -0.132047 0)
(0.0582666 -0.13772 0)
(0.0555895 -0.143324 0)
(0.0524258 -0.148808 0)
(0.0487427 -0.154128 0)
(0.044528 -0.159245 0)
(0.0397851 -0.164127 0)
(0.0345277 -0.168746 0)
(0.028776 -0.173083 0)
(0.0225533 -0.177122 0)
(0.0158848 -0.180854 0)
(0.00879615 -0.184272 0)
(0.00131307 -0.187375 0)
(-0.00653935 -0.190164 0)
(-0.0147379 -0.192641 0)
(-0.0232613 -0.194812 0)
(-0.0320894 -0.196685 0)
(-0.041203 -0.198266 0)
(-0.0505831 -0.199564 0)
(-0.0602114 -0.200588 0)
(-0.0700697 -0.201348 0)
(-0.0801396 -0.201852 0)
(-0.090402 -0.202109 0)
(-0.100837 -0.202128 0)
(-0.111424 -0.201916 0)
(-0.122141 -0.201482 0)
(-0.132963 -0.200831 0)
(-0.143862 -0.199971 0)
(-0.154809 -0.198905 0)
(-0.16577 -0.19764 0)
(-0.176704 -0.196177 0)
(-0.187568 -0.194521 0)
(-0.198302 -0.192672 0)
(-0.208824 -0.190632 0)
(-0.219019 -0.188398 0)
(-0.228835 -0.18597 0)
(-0.238334 -0.18336 0)
(-0.247364 -0.180584 0)
(-0.253811 -0.177664 0)
(-0.254012 -0.174061 0)
(-0.247181 -0.169755 0)
(-0.237017 -0.165059 0)
(-0.225907 -0.160048 0)
(-0.214188 -0.154726 0)
(-0.201849 -0.149105 0)
(-0.188982 -0.143213 0)
(-0.175739 -0.137086 0)
(-0.162278 -0.130769 0)
(-0.14876 -0.124313 0)
(-0.135342 -0.117783 0)
(-0.122229 -0.111255 0)
(-0.109738 -0.104824 0)
(-0.0982927 -0.0986124 0)
(-0.0883615 -0.092757 0)
(-0.0803755 -0.0873944 0)
(-0.0746291 -0.0826254 0)
(-0.0711722 -0.0784727 0)
(-0.0697716 -0.0748587 0)
(-0.0699871 -0.0716296 0)
(-0.0713178 -0.0686131 0)
(-0.0733243 -0.0656665 0)
(-0.0756805 -0.0626939 0)
(-0.0781704 -0.0596402 0)
(-0.0806628 -0.0564783 0)
(-0.0830831 -0.0531979 0)
(-0.0853895 -0.0497977 0)
(-0.0875579 -0.0462811 0)
(-0.0895738 -0.042654 0)
(-0.0914275 -0.0389235 0)
(-0.093112 -0.0350977 0)
(-0.0946218 -0.0311851 0)
(-0.0959525 -0.0271943 0)
(-0.0971005 -0.0231346 0)
(-0.0980628 -0.0190152 0)
(-0.0988362 -0.0148458 0)
(-0.0994147 -0.0106361 0)
(-0.0997926 -0.00639605 0)
(-0.099987 -0.0021356 0)
(0.0999814 -0.00305347 0)
(0.0997002 -0.00912842 0)
(0.0991444 -0.0151541 0)
(0.0982972 -0.0211138 0)
(0.0971725 -0.0269912 0)
(0.0957831 -0.032771 0)
(0.0941414 -0.0384393 0)
(0.0922629 -0.0439836 0)
(0.0901689 -0.0493943 0)
(0.087888 -0.054665 0)
(0.0854578 -0.0597942 0)
(0.0829258 -0.0647868 0)
(0.0803498 -0.0696557 0)
(0.0777964 -0.0744234 0)
(0.0753354 -0.0791219 0)
(0.0730314 -0.0837913 0)
(0.0709304 -0.0884749 0)
(0.0690475 -0.0932133 0)
(0.067356 -0.0980361 0)
(0.0657861 -0.102956 0)
(0.0642327 -0.107967 0)
(0.0625713 -0.113044 0)
(0.0606765 -0.118152 0)
(0.0584375 -0.123247 0)
(0.0557683 -0.128282 0)
(0.0526097 -0.133213 0)
(0.048928 -0.138001 0)
(0.0447102 -0.14261 0)
(0.039959 -0.147011 0)
(0.0346871 -0.151181 0)
(0.0289141 -0.155099 0)
(0.0226628 -0.158754 0)
(0.0159578 -0.162135 0)
(0.00882422 -0.165237 0)
(0.00128747 -0.168057 0)
(-0.00662775 -0.170596 0)
(-0.0148985 -0.172856 0)
(-0.0235036 -0.174842 0)
(-0.0324231 -0.176558 0)
(-0.0416375 -0.178012 0)
(-0.0511278 -0.17921 0)
(-0.0608753 -0.18016 0)
(-0.0708613 -0.180868 0)
(-0.0810668 -0.181344 0)
(-0.0914719 -0.181593 0)
(-0.102056 -0.181623 0)
(-0.112797 -0.18144 0)
(-0.123671 -0.181051 0)
(-0.134651 -0.180461 0)
(-0.145711 -0.179676 0)
(-0.156816 -0.178698 0)
(-0.167931 -0.177533 0)
(-0.179014 -0.176183 0)
(-0.190018 -0.17465 0)
(-0.200882 -0.172936 0)
(-0.211518 -0.171042 0)
(-0.221812 -0.168965 0)
(-0.231726 -0.166707 0)
(-0.241338 -0.164276 0)
(-0.250413 -0.161686 0)
(-0.256341 -0.158984 0)
(-0.255647 -0.155607 0)
(-0.248232 -0.151625 0)
(-0.237902 -0.147304 0)
(-0.22667 -0.142709 0)
(-0.214792 -0.137846 0)
(-0.20228 -0.132729 0)
(-0.189245 -0.127384 0)
(-0.175845 -0.121845 0)
(-0.162246 -0.116151 0)
(-0.148608 -0.110352 0)
(-0.135095 -0.104502 0)
(-0.121923 -0.098671 0)
(-0.109424 -0.0929447 0)
(-0.0980305 -0.0874311 0)
(-0.0882072 -0.0822509 0)
(-0.0803734 -0.0775221 0)
(-0.0747994 -0.0733276 0)
(-0.0715042 -0.0696784 0)
(-0.0702278 -0.0664973 0)
(-0.0705184 -0.0636446 0)
(-0.0718777 -0.060969 0)
(-0.0738772 -0.0583477 0)
(-0.0762032 -0.0556994 0)
(-0.0786497 -0.0529781 0)
(-0.0810927 -0.0501612 0)
(-0.0834618 -0.0472403 0)
(-0.0857178 -0.0442145 0)
(-0.087838 -0.0410868 0)
(-0.0898086 -0.0378624 0)
(-0.0916205 -0.0345476 0)
(-0.093267 -0.0311492 0)
(-0.0947428 -0.0276746 0)
(-0.0960435 -0.0241315 0)
(-0.0971657 -0.0205278 0)