/*--------------------------------*- C++ -*----------------------------------*\
  =========                 |
  \\      /  F ield         | OpenFOAM: The Open Source CFD Toolbox
   \\    /   O peration     | Website:  https://openfoam.org
    \\  /    A nd           | Version:  8
     \\/     M anipulation  |
\*---------------------------------------------------------------------------*/
FoamFile
{
    version     2.0;
    format      ascii;
    class       volScalarField;
    location    "0.45/fluid";
    object      CH4;
}
// * * * * * * * * * * * * * * * * * * * * * * * * * * * * * * * * * * * * * //

dimensions      [0 0 0 0 0 0 0];

internalField   nonuniform List<scalar> 
4000
(
0.999997
0.999986
0.999968
0.999938
0.999888
0.999805
0.999667
0.999442
0.999078
0.998496
0.997578
0.996156
0.993992
0.990777
0.986123
0.979587
0.970704
0.959046
0.944286
0.92625
0.90493
0.880478
0.853174
0.823381
0.791514
0.758009
0.7233
0.687808
0.651796
0.615603
0.579692
0.54431
0.509673
0.475964
0.44333
0.411887
0.381727
0.352912
0.325479
0.299445
0.274808
0.251552
0.229651
0.209066
0.189753
0.171662
0.154741
0.138933
0.124182
0.110431
0.0976243
0.0857081
0.074631
0.0643449
0.0548069
0.0459802
0.0378368
0.0304668
0.0238281
0.0176944
0.0123271
0.00786611
0.00456701
0.00261189
0.00146133
0.000795113
0.000418315
0.00021152
0.000102096
4.67345e-05
2.01465e-05
8.16464e-06
3.25139e-06
1.64029e-06
1.15594e-06
8.89305e-07
6.61656e-07
4.66601e-07
3.08759e-07
1.90315e-07
1.09055e-07
5.83617e-08
2.94317e-08
1.42056e-08
6.64798e-09
3.03695e-09
1.35898e-09
5.98225e-10
2.59473e-10
1.1126e-10
4.7193e-11
1.98599e-11
8.28785e-12
3.43817e-12
1.41466e-12
5.7662e-13
2.30321e-13
8.79954e-14
2.93172e-14
5.1818e-15
0.999997
0.999986
0.999968
0.999938
0.999888
0.999805
0.999667
0.999442
0.999078
0.998497
0.997582
0.996168
0.994024
0.99085
0.986268
0.979844
0.971121
0.959677
0.945178
0.927435
0.906421
0.882265
0.855226
0.825652
0.793945
0.760532
0.725845
0.69021
0.654049
0.61793
0.58199
0.546514
0.511742
0.477872
0.445063
0.41344
0.383099
0.354107
0.326505
0.30031
0.275523
0.252129
0.2301
0.2094
0.189984
0.171801
0.154798
0.138918
0.124104
0.110299
0.0974455
0.0854899
0.0743797
0.0640662
0.0545058
0.0456615
0.0375054
0.0301527
0.0235161
0.0173922
0.0120512
0.00764
0.00442778
0.00252618
0.0014091
0.000763851
0.000400058
0.000201181
9.64544e-05
4.38023e-05
1.8708e-05
7.51714e-06
3.01708e-06
1.61118e-06
1.15985e-06
8.83433e-07
6.48415e-07
4.5104e-07
2.94519e-07
1.7945e-07
1.02016e-07
5.44371e-08
2.75162e-08
1.33484e-08
6.28932e-09
2.8945e-09
1.30481e-09
5.7827e-10
2.52264e-10
1.08668e-10
4.62472e-11
1.95049e-11
8.14963e-12
3.38203e-12
1.39146e-12
5.66931e-13
2.26344e-13
8.65199e-14
2.88112e-14
5.1229e-15
0.999997
0.999986
0.999968
0.999938
0.999888
0.999804
0.999666
0.999441
0.999077
0.998496
0.997584
0.996176
0.994048
0.990901
0.986367
0.980022
0.971419
0.96014
0.945856
0.92837
0.907645
0.883794
0.857054
0.827756
0.796288
0.763064
0.728467
0.692856
0.656905
0.620764
0.58476
0.549181
0.514271
0.480237
0.447244
0.415422
0.384875
0.355673
0.327863
0.301465
0.276483
0.252904
0.230702
0.209842
0.190279
0.171962
0.154837
0.138849
0.12394
0.110052
0.0971276
0.0851108
0.0739491
0.0635932
0.0539989
0.0451282
0.036952
0.0296302
0.0229864
0.0168795
0.0115862
0.00726222
0.0041972
0.00238563
0.00132444
0.000713856
0.000371308
0.000185187
8.79198e-05
3.94752e-05
1.66465e-05
6.62231e-06
2.70836e-06
1.54239e-06
1.13913e-06
8.62083e-07
6.2639e-07
4.31283e-07
2.79014e-07
1.68797e-07
9.55758e-08
5.09607e-08
2.58077e-08
1.25542e-08
5.93584e-09
2.74213e-09
1.24093e-09
5.52009e-10
2.41651e-10
1.04408e-10
4.45474e-11
1.88229e-11
7.87533e-12
3.27059e-12
1.34605e-12
5.48467e-13
2.18993e-13
8.38144e-14
2.78966e-14
4.99715e-15
0.999997
0.999986
0.999968
0.999938
0.999888
0.999805
0.999668
0.999444
0.999082
0.998506
0.997603
0.996211
0.994108
0.991002
0.98653
0.980275
0.971794
0.960675
0.946585
0.929324
0.908842
0.885242
0.85875
0.829684
0.79842
0.765364
0.730818
0.695477
0.659547
0.623391
0.587336
0.551671
0.516647
0.482471
0.449315
0.417314
0.386576
0.357177
0.329166
0.302569
0.277393
0.253627
0.231248
0.210221
0.190501
0.17204
0.154787
0.138684
0.123672
0.109693
0.0966905
0.0846076
0.0733916
0.0629933
0.053369
0.0444819
0.0363059
0.029039
0.022261
0.0162179
0.0110052
0.00679915
0.0039184
0.00221801
0.00122487
0.000655901
0.000338496
0.000167242
7.85413e-05
3.48237e-05
1.44875e-05
5.72019e-06
2.42739e-06
1.4786e-06
1.11045e-06
8.34509e-07
6.00384e-07
4.08986e-07
2.61789e-07
1.56881e-07
8.81891e-08
4.68152e-08
2.36686e-08
1.15184e-08
5.45499e-09
2.52601e-09
1.14632e-09
5.11444e-10
2.24575e-10
9.73201e-11
4.16422e-11
1.76411e-11
7.39833e-12
3.07867e-12
1.26926e-12
5.17956e-13
2.07066e-13
7.9433e-14
2.64599e-14
4.78059e-15
0.999997
0.999986
0.999969
0.999939
0.999889
0.999806
0.99967
0.999447
0.999089
0.998518
0.997623
0.996245
0.994165
0.991095
0.986677
0.980498
0.972123
0.961139
0.947214
0.930141
0.909865
0.886478
0.860196
0.831328
0.800243
0.767312
0.733007
0.697709
0.6618
0.625635
0.589541
0.553808
0.518687
0.484391
0.451094
0.418937
0.38803
0.358455
0.330264
0.303487
0.278133
0.254195
0.23165
0.210465
0.190598
0.172005
0.154629
0.138415
0.123305
0.10924
0.0961624
0.0840166
0.0727491
0.0623108
0.0526577
0.0437536
0.0355725
0.0283167
0.0215492
0.0155461
0.0104068
0.00632055
0.00363132
0.00204656
0.00112393
0.000597786
0.000306008
0.000149732
6.95422e-05
3.04448e-05
1.25019e-05
4.92215e-06
2.21203e-06
1.42857e-06
1.081e-06
8.06193e-07
5.74619e-07
3.87619e-07
2.45773e-07
1.46092e-07
8.16387e-08
4.31877e-08
2.18059e-08
1.06139e-08
5.03173e-09
2.33349e-09
1.06078e-09
4.74124e-10
2.08548e-10
9.05225e-11
3.87903e-11
1.64544e-11
6.90853e-12
2.87757e-12
1.18733e-12
4.84885e-13
1.93982e-13
7.45657e-14
2.48318e-14
4.53154e-15
0.999997
0.999986
0.999969
0.999939
0.99989
0.999808
0.999672
0.999452
0.999097
0.998532
0.997647
0.996285
0.994228
0.991194
0.986828
0.980721
0.972441
0.961575
0.94779
0.930875
0.910768
0.887552
0.861436
0.832724
0.801776
0.768916
0.734736
0.699514
0.663641
0.627477
0.591352
0.55556
0.520356
0.485955
0.452537
0.420243
0.38919
0.359461
0.331112
0.304177
0.278667
0.254577
0.231884
0.21056
0.190567
0.171854
0.15437
0.138057
0.12286
0.108718
0.0955754
0.0833748
0.0720631
0.0615908
0.0519139
0.0429962
0.0348308
0.02759
0.0208467
0.0148893
0.00982547
0.00585918
0.00335694
0.00188429
0.00102941
0.00054399
0.00027631
0.000133946
6.15523e-05
2.66232e-05
1.08035e-05
4.25779e-06
2.03572e-06
1.38199e-06
1.04994e-06
7.77812e-07
5.49665e-07
3.6732e-07
2.30719e-07
1.35987e-07
7.54828e-08
3.97449e-08
2.00119e-08
9.73122e-09
4.61317e-09
2.1408e-09
9.74235e-10
4.36045e-10
1.92092e-10
8.35133e-11
3.58426e-11
1.52271e-11
6.40214e-12
2.66996e-12
1.10289e-12
4.5086e-13
1.80528e-13
6.95434e-14
2.316e-14
4.2692e-15
0.999997
0.999987
0.999969
0.99994
0.999891
0.999809
0.999675
0.999457
0.999105
0.998546
0.99767
0.996322
0.994287
0.991285
0.986965
0.980922
0.972724
0.96196
0.948295
0.931512
0.911545
0.88847
0.862489
0.833897
0.803044
0.770356
0.736217
0.701023
0.665158
0.62898
0.59282
0.55697
0.521689
0.487194
0.453668
0.421255
0.390073
0.36021
0.331726
0.304654
0.279009
0.254785
0.231968
0.210527
0.190423
0.171608
0.154031
0.137635
0.122364
0.108159
0.0949621
0.0827171
0.0713703
0.0608722
0.0511787
0.0422539
0.034116
0.0268966
0.0201836
0.0142762
0.00929012
0.00544302
0.00311208
0.00174086
0.000946615
0.000497292
0.000250778
0.000120517
5.48367e-05
2.34563e-05
9.4249e-06
3.74831e-06
1.93404e-06
1.35619e-06
1.02582e-06
7.52943e-07
5.2704e-07
3.48855e-07
2.17145e-07
1.26987e-07
7.00615e-08
3.67379e-08
1.84517e-08
8.96395e-09
4.24848e-09
1.9721e-09
8.97983e-10
4.02232e-10
1.77356e-10
7.71809e-11
3.3157e-11
1.40996e-11
5.93361e-12
2.47659e-12
1.02381e-12
4.18877e-13
1.67831e-13
6.47619e-14
2.15735e-14
4.01123e-15
0.999997
0.999987
0.999969
0.99994
0.999892
0.999811
0.999678
0.999462
0.999114
0.99856
0.997692
0.996357
0.994343
0.99137
0.987091
0.981104
0.972977
0.962301
0.948736
0.932065
0.912214
0.889254
0.863383
0.83489
0.804097
0.771493
0.737407
0.702241
0.66638
0.630185
0.593987
0.558083
0.522731
0.488151
0.454529
0.422011
0.390718
0.36074
0.332138
0.304949
0.279187
0.254853
0.231932
0.210392
0.190195
0.171295
0.15364
0.137176
0.121845
0.107589
0.0943499
0.0820709
0.0706985
0.0601831
0.0504809
0.0415563
0.0334578
0.0262622
0.0195837
0.013732
0.00883248
0.00512085
0.0029189
0.00162625
0.000879941
0.000459539
0.000230123
0.00010968
4.94445e-05
2.09334e-05
8.33853e-06
3.34952e-06
1.82107e-06
1.31432e-06
9.93492e-07
7.25298e-07
5.04291e-07
3.3133e-07
2.04711e-07
1.18922e-07
6.52641e-08
3.40909e-08
1.70786e-08
8.28743e-09
3.92582e-09
1.82225e-09
8.29965e-10
3.71951e-10
1.64109e-10
7.14705e-11
3.07279e-11
1.30775e-11
5.50798e-12
2.30064e-12
9.51734e-13
3.89636e-13
1.56192e-13
6.03249e-14
2.0093e-14
3.75456e-15
0.999997
0.999987
0.99997
0.999941
0.999892
0.999812
0.999681
0.999466
0.999121
0.998572
0.997712
0.996389
0.994393
0.991445
0.987203
0.981263
0.973198
0.962595
0.949116
0.932537
0.912781
0.889916
0.864135
0.835726
0.805035
0.772457
0.738391
0.703231
0.667362
0.631143
0.594907
0.558949
0.523531
0.488876
0.455168
0.422558
0.391168
0.361091
0.332389
0.305099
0.279242
0.254816
0.231806
0.210183
0.18991
0.17094
0.153224
0.136705
0.121327
0.107031
0.0937595
0.0814556
0.0700657
0.0595401
0.0498356
0.0409171
0.0328679
0.0256955
0.0190523
0.0132575
0.00844708
0.00487594
0.00276959
0.00153659
0.00082734
0.000429599
0.000213696
0.000101086
4.51809e-05
1.89514e-05
7.49865e-06
3.0599e-06
1.74195e-06
1.28048e-06
9.65617e-07
7.01238e-07
4.84538e-07
3.16205e-07
1.94057e-07
1.12056e-07
6.1198e-08
3.18518e-08
1.59167e-08
7.71383e-09
3.65139e-09
1.6943e-09
7.71633e-10
3.45861e-10
1.52645e-10
6.65055e-11
2.86085e-11
1.21818e-11
5.13378e-12
2.14544e-12
8.87996e-13
3.63672e-13
1.4584e-13
5.63562e-14
1.8773e-14
3.52131e-15
0.999997
0.999987
0.99997
0.999941
0.999893
0.999814
0.999683
0.999471
0.999128
0.998583
0.99773
0.996418
0.994437
0.991512
0.9873
0.981402
0.973388
0.962848
0.949439
0.932936
0.913257
0.890465
0.864747
0.836378
0.805753
0.773217
0.739172
0.704018
0.668139
0.631895
0.595621
0.559614
0.524136
0.489412
0.455629
0.422939
0.391466
0.361304
0.332516
0.305144
0.279206
0.254704
0.231621
0.20993
0.189595
0.17057
0.152803
0.136242
0.120827
0.106501
0.0932051
0.0808834
0.0694818
0.0589508
0.0492474
0.0403373
0.0323404
0.025191
0.0185823
0.0128416
0.00811444
0.0046733
0.00264659
0.00146299
0.000784296
0.00040518
0.000200351
9.41394e-05
4.17567e-05
1.73737e-05
6.84342e-06
2.85316e-06
1.6892e-06
1.25543e-06
9.43403e-07
6.8145e-07
4.68035e-07
3.03484e-07
1.8508e-07
1.06271e-07
5.77713e-08
2.99628e-08
1.49343e-08
7.22757e-09
3.41804e-09
1.58517e-09
7.21729e-10
3.23475e-10
1.42783e-10
6.22225e-11
2.67764e-11
1.14059e-11
4.80895e-12
2.01036e-12
8.32411e-13
3.41024e-13
1.36812e-13
5.29217e-14
1.76298e-14
3.32722e-15
0.999997
0.999987
0.99997
0.999941
0.999894
0.999815
0.999685
0.999474
0.999134
0.998593
0.997746
0.996443
0.994475
0.991569
0.987384
0.98152
0.97355
0.963062
0.949712
0.933272
0.913659
0.890932
0.865279
0.836969
0.806363
0.773842
0.739804
0.704645
0.66875
0.632481
0.596169
0.560116
0.524584
0.4898
0.455951
0.423192
0.391648
0.361414
0.332555
0.305114
0.279109
0.254543
0.231401
0.209655
0.18927
0.170201
0.152396
0.135801
0.120358
0.10601
0.0926965
0.0803624
0.0689532
0.0584193
0.0487177
0.0398145
0.0318655
0.0247413
0.0181662
0.0124753
0.00782321
0.00449774
0.00254096
0.00140029
0.000747909
0.000384691
0.000189239
8.84e-05
3.89509e-05
1.60933e-05
6.3182e-06
2.69114e-06
1.64855e-06
1.23449e-06
9.24713e-07
6.64777e-07
4.54099e-07
2.92734e-07
1.77501e-07
1.01396e-07
5.48881e-08
2.83743e-08
1.41078e-08
6.81798e-09
3.22114e-09
1.49291e-09
6.79449e-10
3.04473e-10
1.34393e-10
5.85718e-11
2.52116e-11
1.07418e-11
4.5305e-12
1.89443e-12
7.84645e-13
3.21537e-13
1.29037e-13
4.99744e-14
1.66471e-14
3.16768e-15
0.999997
0.999987
0.99997
0.999942
0.999895
0.999816
0.999687
0.999477
0.999139
0.998602
0.99776
0.996464
0.994508
0.991618
0.987455
0.981621
0.973687
0.963241
0.949938
0.933548
0.913983
0.891301
0.865684
0.837415
0.806838
0.774334
0.740301
0.705136
0.669225
0.63293
0.596585
0.56049
0.52491
0.490073
0.456168
0.42335
0.391746
0.361451
0.332533
0.305034
0.278975
0.254356
0.231166
0.209377
0.188953
0.169849
0.152014
0.135394
0.119931
0.105566
0.0922413
0.0798995
0.0684864
0.0579523
0.048254
0.0393578
0.0314551
0.0243487
0.0178013
0.0121539
0.00756804
0.00434451
0.00244925
0.00134619
0.000716727
0.000367262
0.00017986
8.35961e-05
3.66236e-05
1.50434e-05
5.89834e-06
2.57743e-06
1.62196e-06
1.21916e-06
9.09846e-07
6.51019e-07
4.42405e-07
2.83657e-07
1.71097e-07
9.72824e-08
5.24595e-08
2.70377e-08
1.34127e-08
6.47341e-09
3.05537e-09
1.41518e-09
6.43779e-10
2.88431e-10
1.27297e-10
5.54822e-11
2.38854e-11
1.01783e-11
4.29406e-12
1.79583e-12
7.44e-13
3.04946e-13
1.22419e-13
4.75071e-14
1.5819e-14
3.03699e-15
0.999997
0.999987
0.99997
0.999942
0.999895
0.999817
0.999689
0.99948
0.999144
0.998609
0.997772
0.996482
0.994535
0.991659
0.987515
0.981704
0.9738
0.963389
0.950126
0.933776
0.91425
0.891602
0.866012
0.837774
0.807217
0.774723
0.740691
0.705519
0.669591
0.633272
0.596896
0.560764
0.525143
0.49026
0.456306
0.423438
0.391783
0.361438
0.332472
0.304925
0.278821
0.254161
0.230932
0.209109
0.188654
0.169523
0.151666
0.135028
0.11955
0.105175
0.0918438
0.079499
0.0680862
0.0575553
0.0478624
0.0389726
0.031107
0.0240008
0.0174749
0.0118672
0.00734166
0.00420927
0.00236884
0.00129912
0.000689808
0.000352341
0.000171899
7.95537e-05
3.4683e-05
1.41768e-05
5.55766e-06
2.49112e-06
1.60123e-06
1.20575e-06
8.96713e-07
6.38948e-07
4.32235e-07
2.75834e-07
1.65625e-07
9.37926e-08
5.04106e-08
2.59145e-08
1.28299e-08
6.18491e-09
2.91663e-09
1.35015e-09
6.1392e-10
2.75e-10
1.21349e-10
5.28924e-11
2.27715e-11
9.70515e-12
4.09522e-12
1.71293e-12
7.09791e-13
2.90968e-13
1.16842e-13
4.54071e-14
1.51202e-14
2.92863e-15
0.999997
0.999987
0.99997
0.999942
0.999896
0.999818
0.99969
0.999482
0.999147
0.998615
0.997781
0.996497
0.994558
0.991693
0.987564
0.981773
0.973894
0.963512
0.950279
0.933963
0.914471
0.891857
0.866297
0.838071
0.807523
0.775032
0.740997
0.705815
0.669871
0.633529
0.597125
0.560961
0.525304
0.490382
0.456388
0.423478
0.391781
0.361395
0.332388
0.304804
0.278663
0.25397
0.230711
0.20886
0.188382
0.169231
0.151357
0.134706
0.119219
0.104838
0.0915043
0.079161
0.067754
0.057234
0.0475589
0.0386969
0.0308922
0.0236127
0.0171498
0.0115987
0.00713674
0.00408894
0.00229831
0.00125831
0.000666718
0.000339662
0.000165195
7.61782e-05
3.30758e-05
1.34641e-05
5.27639e-06
2.41056e-06
1.57816e-06
1.19088e-06
8.8372e-07
6.27789e-07
4.23197e-07
2.69053e-07
1.60958e-07
9.08503e-08
4.86964e-08
2.49794e-08
1.23462e-08
5.9459e-09
2.80179e-09
1.29635e-09
5.89208e-10
2.63881e-10
1.16423e-10
5.07458e-11
2.18477e-11
9.31248e-12
3.93004e-12
1.64404e-12
6.81348e-13
2.79317e-13
1.12207e-13
4.36931e-14
1.45491e-14
2.84141e-15
0.999997
0.999987
0.99997
0.999943
0.999896
0.999819
0.999691
0.999484
0.999151
0.99862
0.997789
0.99651
0.994577
0.991721
0.987604
0.981829
0.973969
0.963609
0.950402
0.934111
0.914644
0.892052
0.866511
0.838299
0.807759
0.77527
0.741231
0.70604
0.670081
0.63372
0.597292
0.5611
0.525412
0.490458
0.456431
0.423487
0.391756
0.361336
0.332297
0.304681
0.278512
0.253793
0.23051
0.208638
0.188142
0.168976
0.15109
0.134429
0.118935
0.10455
0.0912155
0.0788734
0.0674701
0.056956
0.0472885
0.0384351
0.0306392
0.0233581
0.016912
0.011391
0.0069738
0.00399214
0.00224117
0.00122514
0.000647926
0.000329351
0.000159754
7.34472e-05
3.17808e-05
1.28931e-05
5.05372e-06
2.34985e-06
1.56009e-06
1.17856e-06
8.72868e-07
6.18495e-07
4.15707e-07
2.63461e-07
1.57128e-07
8.84455e-08
4.72995e-08
2.42189e-08
1.19533e-08
5.75174e-09
2.70847e-09
1.25261e-09
5.69109e-10
2.54827e-10
1.12412e-10
4.89952e-11
2.10941e-11
8.99166e-12
3.795e-12
1.58766e-12
6.58057e-13
2.69796e-13
1.08423e-13
4.23072e-14
1.40876e-14
2.77227e-15
0.999997
0.999987
0.999971
0.999943
0.999896
0.999819
0.999692
0.999486
0.999153
0.998624
0.997795
0.996519
0.994592
0.991743
0.987636
0.981873
0.974028
0.963686
0.950498
0.934226
0.914777
0.892198
0.866674
0.838473
0.807938
0.775451
0.741408
0.706207
0.670236
0.633858
0.59741
0.561196
0.525483
0.490503
0.456448
0.423476
0.391718
0.361272
0.332207
0.304568
0.278376
0.253636
0.230335
0.208448
0.187937
0.16876
0.150865
0.134197
0.118699
0.104311
0.0909752
0.078634
0.067233
0.0567227
0.0470603
0.0382131
0.0304253
0.0231552
0.0167253
0.0112281
0.00684566
0.00391596
0.00219616
0.00119899
0.000633109
0.000321224
0.00015547
7.13013e-05
3.07661e-05
1.2448e-05
4.88298e-06
2.30675e-06
1.54767e-06
1.1697e-06
8.64762e-07
6.11386e-07
4.09892e-07
2.59081e-07
1.54115e-07
8.65489e-08
4.61966e-08
2.36177e-08
1.16422e-08
5.59785e-09
2.6344e-09
1.21785e-09
5.53121e-10
2.47616e-10
1.09215e-10
4.75982e-11
2.04922e-11
8.73532e-12
3.68698e-12
1.54253e-12
6.39405e-13
2.62166e-13
1.05391e-13
4.1198e-14
1.37186e-14
2.7174e-15
0.999997
0.999987
0.999971
0.999943
0.999896
0.99982
0.999693
0.999487
0.999155
0.998627
0.9978
0.996527
0.994603
0.99176
0.98766
0.981907
0.974073
0.963745
0.950571
0.934315
0.91488
0.892316
0.8668
0.838605
0.808073
0.775584
0.741537
0.706329
0.670347
0.633955
0.597491
0.561259
0.525527
0.490526
0.45645
0.423457
0.391678
0.361211
0.332127
0.304469
0.278261
0.253506
0.230191
0.208291
0.187771
0.168585
0.150684
0.134011
0.118509
0.10412
0.0907834
0.078443
0.0670441
0.056537
0.0468789
0.0380375
0.0302576
0.0229974
0.016581
0.0111025
0.00674706
0.00385743
0.00216163
0.00117895
0.000621775
0.000315017
0.000152205
6.96687e-05
2.99961e-05
1.21116e-05
4.75547e-06
2.27702e-06
1.54041e-06
1.16415e-06
8.59276e-07
6.06345e-07
4.05651e-07
2.55831e-07
1.51853e-07
8.51135e-08
4.53571e-08
2.31582e-08
1.14036e-08
5.47963e-09
2.57739e-09
1.19105e-09
5.40799e-10
2.4205e-10
1.06746e-10
4.65184e-11
2.00267e-11
8.53693e-12
3.60335e-12
1.50759e-12
6.24953e-13
2.56253e-13
1.0304e-13
4.03376e-14
1.34322e-14
2.67497e-15
0.999997
0.999987
0.999971
0.999943
0.999897
0.99982
0.999694
0.999488
0.999156
0.998629
0.997804
0.996532
0.994612
0.991772
0.987677
0.981931
0.974106
0.963787
0.950624
0.934379
0.914954
0.892399
0.866889
0.838698
0.808168
0.775678
0.741627
0.706414
0.670423
0.634021
0.597545
0.5613
0.525553
0.490537
0.456445
0.423437
0.391642
0.361161
0.332062
0.304391
0.278171
0.253405
0.23008
0.208172
0.187645
0.168453
0.150547
0.133871
0.118367
0.103976
0.09064
0.0783005
0.0669033
0.0563988
0.0467443
0.0379075
0.0301339
0.0228814
0.0164751
0.0110105
0.00667485
0.00381467
0.00213646
0.00116438
0.000613546
0.00031052
0.000149843
6.84903e-05
2.94417e-05
1.18705e-05
4.66564e-06
2.25786e-06
1.53645e-06
1.16092e-06
8.558e-07
6.02992e-07
4.02749e-07
2.53567e-07
1.50257e-07
8.40908e-08
4.47534e-08
2.28255e-08
1.12302e-08
5.39348e-09
2.53577e-09
1.17148e-09
5.31791e-10
2.37979e-10
1.04939e-10
4.57283e-11
1.9686e-11
8.39175e-12
3.54216e-12
1.48201e-12
6.14373e-13
2.51923e-13
1.01318e-13
3.97081e-14
1.32227e-14
2.64406e-15
0.999997
0.999987
0.999971
0.999943
0.999897
0.99982
0.999694
0.999488
0.999157
0.998631
0.997806
0.996536
0.994617
0.99178
0.987689
0.981947
0.974127
0.963815
0.950658
0.934419
0.915001
0.892451
0.866945
0.838757
0.808228
0.775738
0.741684
0.706466
0.67047
0.634062
0.597578
0.561323
0.525567
0.490541
0.456439
0.423421
0.391616
0.361125
0.332017
0.304338
0.27811
0.253336
0.230006
0.208092
0.18756
0.168365
0.150456
0.133778
0.118272
0.103881
0.0905447
0.0782059
0.06681
0.0563074
0.0466553
0.0378217
0.0300524
0.0228051
0.0164057
0.0109503
0.0066277
0.00378674
0.00212003
0.00115488
0.000608187
0.000307594
0.000148309
6.7726e-05
2.90829e-05
1.17151e-05
4.60861e-06
2.24662e-06
1.53448e-06
1.1592e-06
8.53793e-07
6.00975e-07
4.00966e-07
2.5216e-07
1.49258e-07
8.34445e-08
4.43679e-08
2.26115e-08
1.11181e-08
5.33767e-09
2.50878e-09
1.15876e-09
5.25938e-10
2.35332e-10
1.03764e-10
4.52138e-11
1.94642e-11
8.29718e-12
3.50229e-12
1.46534e-12
6.07477e-13
2.491e-13
1.00196e-13
3.9299e-14
1.30866e-14
2.62407e-15
0.999997
0.999987
0.999971
0.999943
0.999897
0.99982
0.999694
0.999489
0.999158
0.998631
0.997807
0.996538
0.994619
0.991784
0.987694
0.981954
0.974137
0.963828
0.950674
0.934439
0.915023
0.892476
0.866972
0.838785
0.808256
0.775766
0.741711
0.706491
0.670493
0.63408
0.597592
0.561334
0.525573
0.490542
0.456435
0.423412
0.391602
0.361106
0.331994
0.304311
0.278079
0.253302
0.229968
0.208053
0.187518
0.168321
0.150411
0.133731
0.118225
0.103834
0.0904977
0.0781592
0.0667639
0.0562622
0.0466115
0.0377794
0.0300123
0.0227675
0.0163715
0.0109207
0.00660454
0.00377304
0.00211198
0.00115022
0.000605563
0.000306164
0.00014756
6.73535e-05
2.89083e-05
1.16395e-05
4.58076e-06
2.2413e-06
1.53359e-06
1.15843e-06
8.52876e-07
6.00046e-07
4.00141e-07
2.5151e-07
1.48799e-07
8.31484e-08
4.41913e-08
2.25131e-08
1.10663e-08
5.31177e-09
2.49622e-09
1.15283e-09
5.23199e-10
2.34089e-10
1.03211e-10
4.49711e-11
1.93593e-11
8.25232e-12
3.48333e-12
1.45739e-12
6.04178e-13
2.47745e-13
9.96563e-14
3.91021e-14
1.3021e-14
2.61444e-15
0.999997
0.999987
0.999971
0.999943
0.999897
0.99982
0.999694
0.999489
0.999158
0.998631
0.997807
0.996538
0.994619
0.991784
0.987694
0.981954
0.974137
0.963828
0.950674
0.934439
0.915023
0.892476
0.866972
0.838785
0.808256
0.775766
0.741711
0.706491
0.670493
0.63408
0.597592
0.561334
0.525573
0.490542
0.456435
0.423412
0.391602
0.361106
0.331994
0.304311
0.278079
0.253302
0.229968
0.208053
0.187518
0.168321
0.150411
0.133731
0.118225
0.103834
0.0904977
0.0781591
0.0667639
0.0562622
0.0466115
0.0377794
0.0300123
0.0227675
0.0163715
0.0109207
0.00660453
0.00377304
0.00211197
0.00115022
0.000605563
0.000306163
0.00014756
6.73535e-05
2.89082e-05
1.16395e-05
4.58075e-06
2.2413e-06
1.53358e-06
1.15843e-06
8.52875e-07
6.00046e-07
4.00141e-07
2.5151e-07
1.48799e-07
8.31484e-08
4.41913e-08
2.25131e-08
1.10663e-08
5.31177e-09
2.49622e-09
1.15283e-09
5.23199e-10
2.34089e-10
1.03211e-10
4.49711e-11
1.93593e-11
8.25233e-12
3.48333e-12
1.45739e-12
6.04178e-13
2.47746e-13
9.96565e-14
3.91023e-14
1.30211e-14
2.6145e-15
0.999997
0.999987
0.999971
0.999943
0.999897
0.99982
0.999694
0.999488
0.999157
0.998631
0.997806
0.996536
0.994617
0.99178
0.987689
0.981947
0.974127
0.963815
0.950658
0.934419
0.915001
0.892451
0.866945
0.838757
0.808228
0.775738
0.741684
0.706467
0.67047
0.634062
0.597578
0.561323
0.525567
0.490541
0.456439
0.423421
0.391616
0.361125
0.332017
0.304338
0.27811
0.253336
0.230006
0.208092
0.18756
0.168365
0.150456
0.133777
0.118272
0.103881
0.0905447
0.0782059
0.06681
0.0563073
0.0466553
0.0378217
0.0300524
0.0228051
0.0164056
0.0109503
0.00662769
0.00378674
0.00212003
0.00115488
0.000608185
0.000307593
0.000148308
6.77258e-05
2.90828e-05
1.1715e-05
4.60858e-06
2.24661e-06
1.53447e-06
1.1592e-06
8.5379e-07
6.00974e-07
4.00965e-07
2.5216e-07
1.49258e-07
8.34444e-08
4.43679e-08
2.26115e-08
1.11181e-08
5.33766e-09
2.50877e-09
1.15876e-09
5.25938e-10
2.35331e-10
1.03764e-10
4.52138e-11
1.94642e-11
8.29717e-12
3.50229e-12
1.46534e-12
6.07478e-13
2.49101e-13
1.00197e-13
3.92997e-14
1.30869e-14
2.62413e-15
0.999997
0.999987
0.999971
0.999943
0.999897
0.99982
0.999694
0.999488
0.999156
0.998629
0.997804
0.996532
0.994612
0.991772
0.987677
0.981931
0.974106
0.963788
0.950624
0.934379
0.914954
0.892399
0.866889
0.838698
0.808168
0.775678
0.741628
0.706414
0.670423
0.634021
0.597545
0.5613
0.525553
0.490537
0.456445
0.423437
0.391642
0.361161
0.332062
0.304391
0.278171
0.253405
0.23008
0.208172
0.187645
0.168453
0.150547
0.133871
0.118367
0.103976
0.0906399
0.0783004
0.0669033
0.0563988
0.0467443
0.0379074
0.0301339
0.0228813
0.0164751
0.0110105
0.00667483
0.00381465
0.00213645
0.00116438
0.000613543
0.000310518
0.000149842
6.84899e-05
2.94415e-05
1.18704e-05
4.6656e-06
2.25784e-06
1.53644e-06
1.16091e-06
8.55796e-07
6.02989e-07
4.02747e-07
2.53566e-07
1.50257e-07
8.40907e-08
4.47533e-08
2.28255e-08
1.12302e-08
5.39346e-09
2.53576e-09
1.17147e-09
5.3179e-10
2.37979e-10
1.04939e-10
4.57282e-11
1.9686e-11
8.39173e-12
3.54216e-12
1.48201e-12
6.14372e-13
2.51924e-13
1.01319e-13
3.97092e-14
1.32232e-14
2.64418e-15
0.999997
0.999987
0.999971
0.999943
0.999896
0.99982
0.999693
0.999487
0.999155
0.998627
0.9978
0.996527
0.994603
0.99176
0.98766
0.981907
0.974074
0.963745
0.950572
0.934315
0.914881
0.892317
0.8668
0.838605
0.808073
0.775584
0.741537
0.706329
0.670347
0.633956
0.597491
0.561259
0.525527
0.490526
0.45645
0.423457
0.391678
0.361211
0.332127
0.304469
0.278261
0.253506
0.230191
0.208291
0.187771
0.168585
0.150683
0.134011
0.118509
0.10412
0.0907833
0.0784429
0.0670441
0.0565369
0.0468789
0.0380374
0.0302576
0.0229974
0.016581
0.0111025
0.00674703
0.00385741
0.00216162
0.00117895
0.000621771
0.000315015
0.000152204
6.96681e-05
2.99958e-05
1.21115e-05
4.75542e-06
2.277e-06
1.5404e-06
1.16414e-06
8.5927e-07
6.06341e-07
4.05649e-07
2.5583e-07
1.51852e-07
8.51132e-08
4.5357e-08
2.31581e-08
1.14036e-08
5.47961e-09
2.57738e-09
1.19105e-09
5.40796e-10
2.42048e-10
1.06745e-10
4.65181e-11
2.00266e-11
8.53691e-12
3.60335e-12
1.50759e-12
6.24953e-13
2.56253e-13
1.03041e-13
4.03392e-14
1.34328e-14
2.67514e-15
0.999997
0.999987
0.999971
0.999943
0.999896
0.999819
0.999692
0.999486
0.999153
0.998624
0.997795
0.996519
0.994592
0.991743
0.987636
0.981873
0.974028
0.963686
0.950498
0.934227
0.914777
0.892199
0.866674
0.838473
0.807938
0.775451
0.741408
0.706207
0.670236
0.633858
0.59741
0.561196
0.525483
0.490503
0.456448
0.423476
0.391718
0.361272
0.332207
0.304567
0.278376
0.253636
0.230335
0.208448
0.187937
0.16876
0.150865
0.134197
0.118698
0.104311
0.0909751
0.0786339
0.067233
0.0567227
0.0470602
0.038213
0.0304252
0.0231551
0.0167253
0.011228
0.00684563
0.00391594
0.00219614
0.00119898
0.000633103
0.000321221
0.000155469
7.13005e-05
3.07657e-05
1.24479e-05
4.88291e-06
2.30672e-06
1.54766e-06
1.16968e-06
8.64754e-07
6.1138e-07
4.09889e-07
2.59079e-07
1.54114e-07
8.65484e-08
4.61963e-08
2.36175e-08
1.16421e-08
5.59781e-09
2.63438e-09
1.21784e-09
5.53118e-10
2.47614e-10
1.09215e-10
4.75979e-11
2.04921e-11
8.73528e-12
3.68697e-12
1.54253e-12
6.39405e-13
2.62167e-13
1.05392e-13
4.12e-14
1.37193e-14
2.71755e-15
0.999997
0.999987
0.99997
0.999943
0.999896
0.999819
0.999691
0.999484
0.999151
0.99862
0.997789
0.99651
0.994577
0.991721
0.987604
0.981829
0.973969
0.963609
0.950402
0.934112
0.914644
0.892052
0.866511
0.8383
0.807759
0.77527
0.741231
0.70604
0.670081
0.63372
0.597292
0.5611
0.525413
0.490458
0.456431
0.423487
0.391756
0.361336
0.332297
0.304681
0.278512
0.253793
0.23051
0.208638
0.188142
0.168976
0.15109
0.134429
0.118935
0.10455
0.0912154
0.0788733
0.06747
0.0569559
0.0472884
0.0384351
0.0306391
0.023358
0.0169119
0.0113909
0.00697375
0.00399211
0.00224115
0.00122513
0.000647919
0.000329347
0.000159752
7.34461e-05
3.17803e-05
1.28929e-05
5.05362e-06
2.34981e-06
1.56007e-06
1.17854e-06
8.72857e-07
6.18488e-07
4.15702e-07
2.63457e-07
1.57127e-07
8.84445e-08
4.72989e-08
2.42186e-08
1.19531e-08
5.75167e-09
2.70844e-09
1.25259e-09
5.69103e-10
2.54824e-10
1.12411e-10
4.89947e-11
2.10939e-11
8.9916e-12
3.79499e-12
1.58765e-12
6.58056e-13
2.69796e-13
1.08424e-13
4.23095e-14
1.40884e-14
2.77248e-15
0.999997
0.999987
0.99997
0.999942
0.999896
0.999818
0.99969
0.999482
0.999147
0.998615
0.997781
0.996497
0.994558
0.991694
0.987564
0.981773
0.973894
0.963512
0.95028
0.933964
0.914472
0.891857
0.866297
0.838072
0.807523
0.775032
0.740997
0.705815
0.669871
0.63353
0.597126
0.560961
0.525304
0.490382
0.456388
0.423478
0.391781
0.361395
0.332388
0.304804
0.278663
0.25397
0.230711
0.20886
0.188382
0.169231
0.151357
0.134706
0.119219
0.104838
0.0915042
0.0791609
0.0677539
0.0572339
0.0475588
0.0386968
0.0308921
0.0236126
0.0171497
0.0115986
0.00713668
0.0040889
0.00229828
0.0012583
0.000666709
0.000339658
0.000165192
7.61769e-05
3.30751e-05
1.34638e-05
5.27627e-06
2.41051e-06
1.57814e-06
1.19086e-06
8.83705e-07
6.27778e-07
4.2319e-07
2.69048e-07
1.60955e-07
9.08486e-08
4.86954e-08
2.49789e-08
1.2346e-08
5.94579e-09
2.80174e-09
1.29633e-09
5.89199e-10
2.63876e-10
1.16422e-10
5.0745e-11
2.18475e-11
9.31238e-12
3.93001e-12
1.64403e-12
6.81345e-13
2.79317e-13
1.12208e-13
4.36953e-14
1.455e-14
2.84155e-15
0.999997
0.999987
0.99997
0.999942
0.999895
0.999817
0.999689
0.99948
0.999144
0.998609
0.997772
0.996482
0.994535
0.991659
0.987515
0.981704
0.9738
0.96339
0.950126
0.933776
0.91425
0.891603
0.866012
0.837774
0.807217
0.774723
0.740691
0.705519
0.669592
0.633272
0.596896
0.560764
0.525143
0.49026
0.456306
0.423438
0.391783
0.361438
0.332471
0.304925
0.278821
0.254161
0.230932
0.209109
0.188654
0.169523
0.151666
0.135027
0.11955
0.105175
0.0918437
0.0794988
0.0680861
0.0575552
0.0478623
0.0389725
0.0311068
0.0240007
0.0174748
0.0118671
0.00734159
0.00420922
0.00236881
0.0012991
0.000689798
0.000352335
0.000171896
7.95521e-05
3.46823e-05
1.41765e-05
5.55752e-06
2.49107e-06
1.6012e-06
1.20573e-06
8.96696e-07
6.38934e-07
4.32225e-07
2.75828e-07
1.6562e-07
9.37901e-08
5.04092e-08
2.59138e-08
1.28295e-08
6.18474e-09
2.91656e-09
1.35012e-09
6.13907e-10
2.74993e-10
1.21346e-10
5.28913e-11
2.27712e-11
9.70501e-12
4.09518e-12
1.71291e-12
7.09785e-13
2.90967e-13
1.16842e-13
4.54087e-14
1.51208e-14
2.92871e-15
0.999997
0.999987
0.99997
0.999942
0.999895
0.999816
0.999687
0.999477
0.999139
0.998602
0.99776
0.996464
0.994508
0.991618
0.987455
0.981621
0.973687
0.963241
0.949938
0.933548
0.913984
0.891301
0.865684
0.837416
0.806838
0.774334
0.740301
0.705137
0.669226
0.63293
0.596585
0.56049
0.524911
0.490073
0.456168
0.42335
0.391746
0.36145
0.332533
0.305034
0.278975
0.254356
0.231166
0.209377
0.188953
0.169848
0.152014
0.135394
0.11993
0.105566
0.0922411
0.0798993
0.0684863
0.0579522
0.0482538
0.0393576
0.0314549
0.0243486
0.0178012
0.0121538
0.00756795
0.00434446
0.00244921
0.00134617
0.000716715
0.000367256
0.000179856
8.35942e-05
3.66227e-05
1.5043e-05
5.89818e-06
2.57738e-06
1.62194e-06
1.21913e-06
9.09827e-07
6.51004e-07
4.42394e-07
2.83649e-07
1.71092e-07
9.72791e-08
5.24577e-08
2.70368e-08
1.34122e-08
6.47318e-09
3.05527e-09
1.41514e-09
6.43761e-10
2.88422e-10
1.27294e-10
5.54808e-11
2.3885e-11