/*--------------------------------*- C++ -*----------------------------------*\
  =========                 |
  \\      /  F ield         | OpenFOAM: The Open Source CFD Toolbox
   \\    /   O peration     | Website:  https://openfoam.org
    \\  /    A nd           | Version:  8
     \\/     M anipulation  |
\*---------------------------------------------------------------------------*/
FoamFile
{
    version     2.0;
    format      ascii;
    class       volScalarField;
    location    "0.45/fluid";
    object      CO2;
}
// * * * * * * * * * * * * * * * * * * * * * * * * * * * * * * * * * * * * * //

dimensions      [0 0 0 0 0 0 0];

internalField   nonuniform List<scalar> 
4000
(
4.75039e-07
2.076e-06
4.76901e-06
9.28529e-06
1.68269e-05
2.93504e-05
5.0002e-05
8.3768e-05
0.000138415
0.000225783
0.00036348
0.000576871
0.00090131
0.00138341
0.00208089
0.00306024
0.00439105
0.00613716
0.00834725
0.0110475
0.0142388
0.0178981
0.0219837
0.0264411
0.0312081
0.0362197
0.0414107
0.0467183
0.0521031
0.0575146
0.0628834
0.0681726
0.07335
0.0783885
0.083266
0.087965
0.092472
0.0967777
0.100877
0.104766
0.108447
0.111921
0.115192
0.118266
0.121149
0.123849
0.126374
0.12873
0.130925
0.132966
0.134859
0.136606
0.138208
0.139658
0.140945
0.142041
0.142904
0.143451
0.143577
0.143095
0.141692
0.138868
0.133789
0.125807
0.116282
0.106029
0.0955473
0.0851505
0.0750356
0.0653453
0.0561705
0.0475777
0.0396476
0.0323617
0.0255386
0.0195127
0.0142796
0.00991131
0.00646034
0.00392517
0.00221876
0.00117236
0.000584359
0.000279091
0.000129427
5.86442e-05
2.60655e-05
1.14042e-05
4.92254e-06
2.10138e-06
8.88418e-07
3.72673e-07
1.55205e-07
6.42435e-08
2.64008e-08
1.07458e-08
4.28936e-09
1.63643e-09
5.4541e-10
9.58388e-11
4.74509e-07
2.07399e-06
4.76571e-06
9.28251e-06
1.68294e-05
2.93668e-05
5.00424e-05
8.38337e-05
0.00013847
0.000225695
0.000362901
0.000575057
0.000896544
0.00137243
0.00205915
0.00302179
0.00432852
0.00604268
0.00821377
0.0108701
0.0140156
0.0176307
0.0216766
0.0261014
0.0308446
0.0358423
0.0410301
0.046359
0.0517662
0.0571665
0.0625397
0.0678431
0.0730408
0.0781033
0.0830069
0.0877329
0.0922669
0.0965991
0.100723
0.104637
0.10834
0.111835
0.115125
0.118216
0.121115
0.123828
0.126365
0.128731
0.130936
0.132985
0.134884
0.136636
0.13824
0.139691
0.140976
0.142066
0.142916
0.14344
0.143531
0.14299
0.141492
0.138512
0.133176
0.125026
0.115389
0.105058
0.0945229
0.0840892
0.0739504
0.0642513
0.0550813
0.0465121
0.0386348
0.0313947
0.0246739
0.0186713
0.0135193
0.00927495
0.00597403
0.003592
0.00201671
0.00106399
0.000532452
0.000256064
0.000119785
5.47836e-05
2.45737e-05
1.08423e-05
4.7142e-06
2.02445e-06
8.59806e-07
3.61863e-07
1.51033e-07
6.25979e-08
2.57425e-08
1.04812e-08
4.18499e-09
1.59763e-09
5.32616e-10
9.38105e-11
4.74935e-07
2.07613e-06
4.77185e-06
9.29733e-06
1.68611e-05
2.94273e-05
5.0146e-05
8.39888e-05
0.000138657
0.000225818
0.000362683
0.000573832
0.000892986
0.00136476
0.0020443
0.00299511
0.00428401
0.00597331
0.00811228
0.0107301
0.0138323
0.017402
0.0214032
0.0257865
0.030494
0.0354637
0.0406379
0.0459634
0.0513391
0.0567427
0.0621255
0.0674443
0.0726626
0.0777497
0.0826808
0.0874365
0.0920014
0.0963649
0.10052
0.104464
0.108196
0.111719
0.115035
0.11815
0.12107
0.123804
0.126358
0.128741
0.130959
0.13302
0.134928
0.136687
0.138296
0.139748
0.141028
0.142108
0.142937
0.143422
0.143455
0.142817
0.141162
0.137928
0.132172
0.123758
0.113953
0.103517
0.0929197
0.0824563
0.0723147
0.0626384
0.0535132
0.0450139
0.0372299
0.0300562
0.0234382
0.0176206
0.0126644
0.00862298
0.00551724
0.00330243
0.00185139
0.000978294
0.000491486
0.000237409
0.00011159
5.12809e-05
2.31095e-05
1.02407e-05
4.47027e-06
1.92626e-06
8.20434e-07
3.46046e-07
1.44662e-07
6.00171e-08
2.46947e-08
1.00574e-08
4.01693e-09
1.53486e-09
5.11862e-10
9.04234e-11
4.73611e-07
2.07027e-06
4.75806e-06
9.26926e-06
1.68063e-05
2.93207e-05
4.99366e-05
8.35756e-05
0.000137846
0.000224255
0.000359753
0.000568554
0.000883955
0.00134968
0.00201994
0.00295729
0.00422772
0.00589314
0.00800301
0.0105873
0.0136531
0.0171852
0.0211494
0.0254982
0.0301752
0.0351196
0.0402863
0.0455714
0.050944
0.05635
0.0617404
0.0670719
0.0723074
0.0774157
0.0823712
0.0871536
0.0917471
0.0961401
0.100325
0.104299
0.10806
0.11161
0.114953
0.118093
0.121037
0.123792
0.126365
0.128765
0.130998
0.133071
0.134989
0.136756
0.138369
0.13982
0.141095
0.14216
0.142962
0.143402
0.143365
0.14261
0.140767
0.137229
0.130975
0.122255
0.112264
0.101722
0.0910733
0.0805992
0.0704837
0.0608625
0.0518192
0.0434321
0.0357767
0.0286922
0.0222316
0.0165923
0.0118282
0.00798288
0.0050631
0.00300749
0.00167678
0.000883514
0.00044375
0.000214708
0.000101197
4.66604e-05
2.11038e-05
9.38672e-06
4.11253e-06
1.77838e-06
7.5996e-07
3.21504e-07
1.34761e-07
5.60374e-08
2.31017e-08
9.42357e-09
3.76919e-09
1.44274e-09
4.81709e-10
8.5416e-11
4.7115e-07
2.05943e-06
4.73275e-06
9.21877e-06
1.67116e-05
2.91478e-05
4.96252e-05
8.3019e-05
0.000136859
0.00022252
0.000356745
0.000563425
0.000875394
0.00133575
0.00199795
0.00292375
0.00417846
0.00582366
0.00790895
0.010465
0.0135001
0.0170003
0.0209331
0.0252522
0.0299024
0.0348281
0.0399589
0.0452375
0.0506071
0.0560143
0.0614105
0.0667524
0.0720023
0.0771286
0.0821051
0.0869109
0.0915296
0.095949
0.100161
0.104162
0.107949
0.111525
0.114892
0.118056
0.121022
0.123796
0.126388
0.128803
0.131051
0.133136
0.135064
0.136837
0.138453
0.139903
0.14117
0.142218
0.142992
0.143383
0.143268
0.142389
0.140348
0.136492
0.129721
0.120691
0.110517
0.099877
0.0891909
0.0787223
0.0686518
0.059105
0.0501634
0.0419101
0.0343877
0.0273882
0.021097
0.0156395
0.0110648
0.00740797
0.00466233
0.00275172
0.00152758
0.00080329
0.00040345
0.000195464
9.23071e-05
4.26587e-05
1.93397e-05
8.6221e-06
3.78581e-06
1.64038e-06
7.02242e-07
2.97553e-07
1.2489e-07
5.19913e-08
2.14538e-08
8.7582e-09
3.50569e-09
1.34349e-09
4.48887e-10
7.99137e-11
4.67763e-07
2.04451e-06
4.69796e-06
9.14948e-06
1.65823e-05
2.89144e-05
4.92116e-05
8.22961e-05
0.000135611
0.000220393
0.000353178
0.000557552
0.000865933
0.0013209
0.0019753
0.00289033
0.00413086
0.00575834
0.00782264
0.0103551
0.013365
0.0168396
0.0207474
0.0250434
0.029673
0.0345882
0.0397003
0.0449675
0.0503318
0.0557389
0.0611397
0.0664903
0.0717527
0.0768946
0.0818893
0.0867155
0.0913561
0.0957984
0.100034
0.104058
0.107869
0.111468
0.114857
0.118041
0.121026
0.123818
0.126426
0.128856
0.131115
0.133211
0.135147
0.136925
0.138543
0.13999
0.141248
0.142279
0.14302
0.143362
0.143168
0.142165
0.139928
0.13576
0.12849
0.119165
0.108824
0.0981012
0.0873898
0.0769381
0.0669224
0.0574579
0.0486236
0.0405075
0.0331122
0.0261946
0.0200682
0.0147816
0.0103814
0.00689532
0.00430545
0.00252334
0.00139328
0.000730123
0.000366062
0.00017733
8.38026e-05
3.8777e-05
1.7608e-05
7.86421e-06
3.45957e-06
1.50187e-06
6.44125e-07
2.73399e-07
1.14931e-07
4.7912e-08
1.97942e-08
8.08904e-09
3.24097e-09
1.24374e-09
4.1589e-10
7.43426e-11
4.64026e-07
2.02811e-06
4.65993e-06
9.07441e-06
1.64438e-05
2.86676e-05
4.87809e-05
8.15559e-05
0.000134356
0.000218295
0.000349722
0.00055196
0.000857073
0.00130719
0.00195468
0.00286025
0.00408845
0.00570069
0.00774711
0.0102597
0.0132486
0.0167021
0.02059
0.0248679
0.0294833
0.0343728
0.0394788
0.0447419
0.0501049
0.0555141
0.0609203
0.0662795
0.0715534
0.0767093
0.0817202
0.0865642
0.0912239
0.0956862
0.0999423
0.103987
0.107818
0.111436
0.114844
0.118046
0.121047
0.123854
0.126476
0.128918
0.131187
0.133291
0.135234
0.137015
0.138633
0.140077
0.141324
0.142336
0.143042
0.143334
0.14306
0.141932
0.139502
0.135028
0.127309
0.117724
0.10724
0.0964511
0.0857262
0.0752986
0.0653408
0.0559579
0.0472273
0.0392422
0.03194
0.0251501
0.0191643
0.0140279
0.00978263
0.0064486
0.00399667
0.0023272
0.00127865
0.000667894
0.000334277
0.000161876
7.65211e-05
3.54323e-05
1.61043e-05
7.20045e-06
3.17126e-06
1.37835e-06
5.91845e-07
2.51493e-07
1.05834e-07
4.4161e-08
1.82601e-08
7.46789e-09
2.99408e-09
1.15017e-09
3.84769e-10
6.9042e-11
4.6023e-07
2.01147e-06
4.62144e-06
8.99866e-06
1.63046e-05
2.84207e-05
4.83527e-05
8.08251e-05
0.000133127
0.000216258
0.000346401
0.000546647
0.000848753
0.00129448
0.00193578
0.00283303
0.00405054
0.00564971
0.00768102
0.010177
0.0131486
0.0165848
0.0204562
0.0247192
0.0293258
0.0342027
0.0393007
0.0445597
0.0499221
0.0553339
0.0607456
0.0661131
0.0713976
0.0765661
0.0815914
0.0864511
0.0911275
0.095607
0.0998806
0.103943
0.107791
0.111426
0.114849
0.118066
0.121081
0.123901
0.126533
0.128985
0.131263
0.133373
0.13532
0.137104
0.138721
0.140159
0.141394
0.142385
0.143054
0.143294
0.142934
0.141671
0.139025
0.134202
0.126149
0.116369
0.105781
0.0949481
0.0842219
0.0738241
0.0639249
0.0546201
0.0459861
0.0381154
0.0309049
0.0242309
0.0183713
0.0133688
0.0092612
0.00606145
0.00373035
0.00215862
0.00118022
0.000614352
0.000306807
0.000148455
7.01633e-05
3.24963e-05
1.47777e-05
6.61223e-06
2.91474e-06
1.26807e-06
5.45024e-07
2.31824e-07
9.76487e-08
4.07811e-08
1.68757e-08
6.90626e-09
2.77057e-09
1.06507e-09
3.56479e-10
6.40931e-11
4.56599e-07
1.99557e-06
4.58475e-06
8.92668e-06
1.61728e-05
2.81881e-05
4.79513e-05
8.01443e-05
0.000131989
0.000214386
0.000343374
0.000541841
0.000841284
0.00128315
0.00191908
0.00280913
0.00401749
0.00560559
0.0076242
0.0101064
0.0130636
0.0164857
0.0203437
0.0245942
0.0291855
0.0340584
0.0391536
0.0444116
0.0497752
0.0551905
0.0606081
0.0659835
0.0712778
0.0764578
0.0814958
0.0863692
0.09106
0.0955544
0.0998429
0.10392
0.107783
0.111431
0.114868
0.118097
0.121123
0.123953
0.126594
0.129054
0.131339
0.133454
0.135404
0.137188
0.138802
0.140234
0.141457
0.142426
0.143058
0.143244
0.142797
0.141396
0.138528
0.133341
0.125045
0.115123
0.104461
0.0936013
0.0828818
0.0725197
0.0626765
0.0534443
0.0448995
0.0371292
0.0299932
0.0234245
0.0176781
0.012795
0.0088095
0.00572809
0.00350253
0.00201529
0.0010969
0.000569137
0.000283616
0.000137108
6.47746e-05
2.99997e-05
1.36455e-05
6.10813e-06
2.694e-06
1.17278e-06
5.04423e-07
2.14706e-07
9.05034e-08
3.78218e-08
1.56608e-08
6.41183e-09
2.57324e-09
9.89428e-10
3.31223e-10
5.96486e-11
4.53249e-07
1.98092e-06
4.55096e-06
8.86052e-06
1.6052e-05
2.79754e-05
4.75854e-05
7.9526e-05
0.00013096
0.000212702
0.000340663
0.000537561
0.000834672
0.00127319
0.00190447
0.00278838
0.00398897
0.00556776
0.0075758
0.0100466
0.0129924
0.0164036
0.020252
0.0244966
0.0290781
0.0339448
0.0390366
0.0442939
0.049659
0.0550781
0.0605013
0.0658841
0.0711874
0.0763776
0.0814268
0.0863122
0.0910154
0.0955224
0.0998238
0.103913
0.107788
0.111448
0.114895
0.118134
0.12117
0.124008
0.126657
0.129122
0.131412
0.13353
0.135482
0.137266
0.138878
0.140302
0.141513
0.142461
0.143058
0.143193
0.142665
0.141135
0.138062
0.13254
0.124044
0.114009
0.10329
0.0924131
0.0817047
0.0713781
0.0615872
0.0524213
0.0439577
0.0362733
0.0291957
0.0227215
0.0170759
0.0122986
0.00842062
0.00544269
0.00330862
0.00189388
0.00102656
0.000531011
0.000264053
0.000127523
6.02134e-05
2.78815e-05
1.26824e-05
5.67828e-06
2.50532e-06
1.09114e-06
4.69561e-07
1.99977e-07
8.43432e-08
3.52648e-08
1.46093e-08
5.98367e-09
2.40253e-09
9.24297e-10
3.09546e-10
5.58883e-11
4.50243e-07
1.96777e-06
4.5207e-06
8.80135e-06
1.59441e-05
2.77859e-05
4.72605e-05
7.89785e-05
0.000130053
0.000211222
0.00033829
0.00053383
0.000828936
0.00126458
0.00189192
0.00277063
0.00396469
0.00553569
0.00753492
0.00999628
0.0129323
0.0163337
0.0201725
0.0244081
0.0289868
0.0338513
0.0389422
0.0442001
0.0495676
0.0549906
0.0604193
0.065809
0.0711203
0.0763195
0.0813785
0.0862742
0.0909881
0.0955059
0.0998179
0.103918
0.107802
0.111472
0.114928
0.118175
0.121218
0.124063
0.126717
0.129187
0.13148
0.133601
0.135554
0.137337
0.138946
0.140364
0.141563
0.142492
0.143057
0.143147
0.142546
0.140903
0.137648
0.13183
0.123162
0.113031
0.102266
0.0913772
0.0806812
0.0703881
0.0606447
0.051538
0.0431465
0.0355364
0.0285034
0.0221128
0.0165561
0.0118717
0.00808779
0.00519974
0.00314448
0.00179165
0.000967545
0.000499094
0.000247687
0.0001195
5.63912e-05
2.61036e-05
1.18725e-05
5.31609e-06
2.34599e-06
1.02206e-06
4.40004e-07
1.87465e-07
7.9101e-08
3.30854e-08
1.37116e-08
5.61763e-09
2.2564e-09
8.68706e-10
2.91026e-10
5.27291e-11
4.47604e-07
1.95624e-06
4.49416e-06
8.74951e-06
1.58498e-05
2.76205e-05
4.69773e-05
7.85026e-05
0.000129266
0.000209942
0.000336245
0.000530627
0.000824028
0.00125725
0.00188127
0.00275564
0.00394429
0.00550891
0.00750104
0.00995499
0.0128837
0.0162786
0.0201119
0.0243414
0.0289158
0.0337778
0.0388679
0.0441266
0.0494965
0.0549233
0.0603571
0.065753
0.0710715
0.0762786
0.0813461
0.0862506
0.0909735
0.0955004
0.0998211
0.103929
0.107822
0.1115
0.114963
0.118216
0.121265
0.124115
0.126773
0.129247
0.131543
0.133665
0.135618
0.137401
0.139006
0.140418
0.141606
0.142519
0.143055
0.143106
0.142442
0.140699
0.137286
0.13121
0.122393
0.112181
0.101379
0.090482
0.0797989
0.0695365
0.0598357
0.0507816
0.0424546
0.0349047
0.0279063
0.0215896
0.0161108
0.0115073
0.00780484
0.00499424
0.00300635
0.00170599
0.000918265
0.000472493
0.000234055
0.000112817
5.32043e-05
2.46197e-05
1.11956e-05
5.01296e-06
2.21243e-06
9.64068e-07
4.15155e-07
1.76931e-07
7.46827e-08
3.12458e-08
1.29531e-08
5.30803e-09
2.13286e-09
8.22052e-10
2.75465e-10
5.01012e-11
4.45331e-07
1.94631e-06
4.47132e-06
8.70495e-06
1.57687e-05
2.74787e-05
4.6735e-05
7.80961e-05
0.000128595
0.000208853
0.00033451
0.000527917
0.000819888
0.00125108
0.00187234
0.0027431
0.00392729
0.00548667
0.007473
0.0099209
0.0128438
0.0162334
0.0200628
0.0242878
0.0288591
0.0337196
0.0388095
0.0440694
0.0494418
0.0548722
0.0603106
0.0657121
0.0710368
0.0762507
0.0813254
0.0862374
0.0909679
0.0955021
0.0998302
0.103946
0.107845
0.111529
0.114998
0.118256
0.121309
0.124163
0.126825
0.129301
0.131598
0.133722
0.135675
0.137456
0.139057
0.140464
0.141643
0.142542
0.143054
0.143071
0.142352
0.140523
0.136973
0.130673
0.121729
0.111449
0.100617
0.0897154
0.0790451
0.0688106
0.0591474
0.0501394
0.0418688
0.0343681
0.0273969
0.0211442
0.0157327
0.0111989
0.00756635
0.00482178
0.00289097
0.00163474
0.000877396
0.000450473
0.000222782
0.000107289
5.05672e-05
2.33908e-05
1.06344e-05
4.76141e-06
2.10145e-06
9.15834e-07
3.94454e-07
1.68149e-07
7.09939e-08
2.97093e-08
1.2319e-08
5.04901e-09
2.02943e-09
7.82828e-10
2.62426e-10
4.79164e-11
4.43411e-07
1.93792e-06
4.45204e-06
8.66736e-06
1.57005e-05
2.73593e-05
4.65313e-05
7.7755e-05
0.000128033
0.000207944
0.000333064
0.000525662
0.000816451
0.00124598
0.00186496
0.00273277
0.0039133
0.0054684
0.00744996
0.00989284
0.0128106
0.0161953
0.0200202
0.0242433
0.0288133
0.0336733
0.0387638
0.0440252
0.0493999
0.0548337
0.0602763
0.0656826
0.0710127
0.0762324
0.0813131
0.0862314
0.0909681
0.0955085
0.0998426
0.103964
0.107869
0.111557
0.115031
0.118293
0.12135
0.124207
0.126871
0.129349
0.131647
0.133771
0.135723
0.137502
0.139101
0.140502
0.141673
0.142559
0.143051
0.143042
0.142277
0.140374
0.136705
0.130213
0.121163
0.110827
0.0999711
0.0890674
0.0784094
0.0681996
0.0585689
0.0496001
0.0413769
0.0339195
0.0269684
0.0207703
0.0154159
0.0109411
0.0073676
0.0046786
0.00279555
0.00157602
0.000843806
0.000432406
0.000213539
0.000102758
4.84046e-05
2.23825e-05
1.01735e-05
4.55463e-06
2.01014e-06
8.76109e-07
3.77389e-07
1.60902e-07
6.7947e-08
2.84395e-08
1.17944e-08
4.83435e-09
1.94382e-09
7.50605e-10
2.51718e-10
4.61336e-11
4.41822e-07
1.93098e-06
4.4361e-06
8.63629e-06
1.56441e-05
2.72608e-05
4.63635e-05
7.74744e-05
0.000127572
0.000207198
0.00033188
0.00052382
0.000813651
0.00124183
0.00185898
0.00272442
0.00390204
0.00545375
0.0074316
0.00987067
0.0127848
0.0161662
0.0199881
0.0242092
0.028778
0.0336377
0.0387287
0.0439915
0.0493685
0.0548052
0.0602514
0.0656618
0.0709964
0.076221
0.0813067
0.0862301
0.0909719
0.0955174
0.0998562
0.103982
0.107891
0.111584
0.115061
0.118326
0.121386
0.124245
0.12691
0.12939
0.131689
0.133813
0.135764
0.137542
0.139138
0.140534
0.141698
0.142574
0.143051
0.143018
0.142214
0.14025
0.136483
0.129833
0.120694
0.110312
0.0994366
0.0885313
0.0778839
0.0676947
0.0580913
0.0491554
0.0409721
0.0335492
0.0266141
0.0204616
0.0151549
0.0107292
0.0072046
0.00456152
0.00271776
0.00152829
0.000816564
0.000417774
0.000206058
9.90898e-05
4.66534e-05
2.15656e-05
9.79987e-06
4.38686e-06
1.936e-06
8.43825e-07
3.63509e-07
1.55002e-07
6.54649e-08
2.7404e-08
1.13666e-08
4.65939e-09
1.87412e-09
7.24525e-10
2.43049e-10
4.47006e-11
4.40542e-07
1.92539e-06
4.42326e-06
8.61129e-06
1.55987e-05
2.71817e-05
4.62288e-05
7.72494e-05
0.000127203
0.000206601
0.000330934
0.000522352
0.000811422
0.00123853
0.00185424
0.00271782
0.00389317
0.00544225
0.00741727
0.00985347
0.012765
0.0161442
0.0199638
0.0241832
0.0287512
0.0336107
0.0387024
0.0439665
0.0493454
0.0547846
0.0602337
0.0656475
0.0709859
0.0762144
0.0813042
0.0862316
0.0909775
0.0955269
0.0998696
0.103999
0.107912
0.111607
0.115087
0.118355
0.121416
0.124277
0.126944
0.129424
0.131723
0.133847
0.135798
0.137575
0.139168
0.140561
0.14172
0.142587
0.143052
0.142998
0.142163
0.14015
0.136305
0.129527
0.120317
0.109897
0.0990062
0.0880995
0.0774604
0.067288
0.0577066
0.0487975
0.0406469
0.0332506
0.0263289
0.0202137
0.0149455
0.0105593
0.00707415
0.00446795
0.0026557
0.00149028
0.000794906
0.000406149
0.000200116
9.61757e-05
4.52612e-05
2.09158e-05
9.50248e-06
4.25323e-06
1.87691e-06
8.1808e-07
3.52434e-07
1.50293e-07
6.34822e-08
2.65767e-08
1.10246e-08
4.51949e-09
1.8184e-09
7.03697e-10
2.36128e-10
4.35603e-11
4.39548e-07
1.92105e-06
4.4133e-06
8.5919e-06
1.55636e-05
2.71204e-05
4.61246e-05
7.70754e-05
0.000126917
0.000206141
0.000330206
0.000521222
0.000809708
0.001236
0.00185061
0.00271277
0.00388637
0.00543344
0.00740625
0.00984018
0.0127494
0.0161266
0.019945
0.0241635
0.0287311
0.0335908
0.038683
0.0439482
0.0493288
0.05477
0.0602216
0.065638
0.0709793
0.0762108
0.0813038
0.0862345
0.0909835
0.095536
0.0998816
0.104014
0.107929
0.111626
0.115108
0.118378
0.121441
0.124303
0.126971
0.129451
0.131751
0.133875
0.135826
0.137601
0.139193
0.140583
0.141737
0.142598
0.143052
0.142983
0.142124
0.140072
0.136166
0.12929
0.120024
0.109575
0.0986721
0.0877641
0.0771314
0.0669717
0.0574071
0.0485183
0.0403926
0.0330151
0.0261136
0.0200248
0.0147851
0.0104289
0.00697384
0.00439597
0.00260794
0.001461
0.000778208
0.00039718
0.000195527
9.39243e-05
4.41852e-05
2.04134e-05
9.27254e-06
4.14989e-06
1.8312e-06
7.98159e-07
3.43862e-07
1.46648e-07
6.19472e-08
2.59362e-08
1.07598e-08
4.4112e-09
1.77528e-09
6.87576e-10
2.30771e-10
4.26797e-11
4.38822e-07
1.91788e-06
4.40602e-06
8.57773e-06
1.55379e-05
2.70757e-05
4.60485e-05
7.69485e-05
0.000126709
0.000205806
0.000329676
0.000520401
0.000808464
0.00123416
0.00184797
0.00270911
0.00388146
0.00542708
0.00739833
0.00983067
0.0127384
0.0161142
0.0199317
0.0241496
0.0287169
0.0335767
0.0386695
0.0439356
0.0493174
0.0547601
0.0602135
0.065632
0.0709754
0.0762092
0.0813045
0.0862375
0.0909888
0.0955435
0.0998912
0.104025
0.107942
0.111641
0.115125
0.118396
0.12146
0.124322
0.126991
0.129472
0.131772
0.133896
0.135846
0.137621
0.139211
0.140599
0.14175
0.142606
0.143053
0.142972
0.142095
0.140015
0.136065
0.129117
0.11981
0.10934
0.0984276
0.0875186
0.0768903
0.0667399
0.0571875
0.0483136
0.0402062
0.0328419
0.0259577
0.019888
0.0146689
0.0103343
0.00690113
0.00434382
0.00257331
0.00143973
0.000766029
0.000390618
0.000192164
9.22734e-05
4.33959e-05
2.00449e-05
9.10391e-06
4.07413e-06
1.79769e-06
7.83561e-07
3.37582e-07
1.43977e-07
6.08232e-08
2.54671e-08
1.0566e-08
4.33195e-09
1.74374e-09
6.75795e-10
2.26858e-10
4.20375e-11
4.38348e-07
1.91581e-06
4.40128e-06
8.56849e-06
1.55212e-05
2.70466e-05
4.5999e-05
7.68661e-05
0.000126574
0.000205589
0.000329332
0.000519869
0.000807659
0.00123297
0.00184627
0.00270675
0.0038783
0.005423
0.00739325
0.00982459
0.0127314
0.0161064
0.0199232
0.0241407
0.0287079
0.0335678
0.038661
0.0439277
0.0493103
0.0547541
0.0602087
0.0656285
0.0709733
0.0762086
0.0813054
0.0862399
0.0909927
0.0955489
0.099898
0.104033
0.107951
0.111652
0.115136
0.118408
0.121472
0.124335
0.127004
0.129486
0.131786
0.13391
0.13586
0.137634
0.139223
0.14061
0.141759
0.142611
0.143053
0.142965
0.142076
0.139978
0.135999
0.129004
0.11967
0.109186
0.0982675
0.0873578
0.0767325
0.0665882
0.0570439
0.0481798
0.0400846
0.0327287
0.0258562
0.0197991
0.0145935
0.0102732
0.00685424
0.00431028
0.00255109
0.00142605
0.00075816
0.000386362
0.000189978
9.1199e-05
4.2882e-05
1.98049e-05
8.99407e-06
4.02475e-06
1.77587e-06
7.74045e-07
3.33489e-07
1.42237e-07
6.00904e-08
2.51614e-08
1.04396e-08
4.28027e-09
1.72318e-09
6.68126e-10
2.2431e-10
4.16203e-11
4.38118e-07
1.9148e-06
4.39897e-06
8.56403e-06
1.55131e-05
2.70325e-05
4.59753e-05
7.68266e-05
0.00012651
0.000205485
0.000329169
0.000519617
0.000807279
0.00123241
0.00184547
0.00270564
0.00387681
0.00542108
0.00739086
0.00982173
0.0127281
0.0161027
0.0199192
0.0241366
0.0287037
0.0335637
0.038657
0.043924
0.049307
0.0547513
0.0602064
0.0656269
0.0709724
0.0762085
0.081306
0.0862412
0.0909948
0.0955516
0.0999014
0.104037
0.107956
0.111657
0.115141
0.118414
0.121478
0.124342
0.127011
0.129493
0.131793
0.133917
0.135866
0.13764
0.139229
0.140615
0.141763
0.142614
0.143054
0.142961
0.142067
0.139959
0.135966
0.128948
0.119602
0.10911
0.098189
0.0872791
0.0766553
0.066514
0.0569738
0.0481146
0.0400256
0.0326737
0.025807
0.0197562
0.0145573
0.010244
0.006832
0.00429449
0.00254072
0.00141971
0.00075452
0.000384392
0.000188963
9.06989e-05
4.26423e-05
1.96926e-05
8.94258e-06
4.00155e-06
1.76558e-06
7.69552e-07
3.31552e-07
1.41411e-07
5.97417e-08
2.50155e-08
1.03792e-08
4.25546e-09
1.71328e-09
6.64428e-10
2.2308e-10
4.14186e-11
4.38117e-07
1.9148e-06
4.39897e-06
8.56402e-06
1.55131e-05
2.70325e-05
4.59753e-05
7.68266e-05
0.00012651
0.000205485
0.000329169
0.000519617
0.000807279
0.00123241
0.00184547
0.00270564
0.00387681
0.00542108
0.00739086
0.00982172
0.0127281
0.0161027
0.0199192
0.0241366
0.0287037
0.0335636
0.038657
0.043924
0.049307
0.0547513
0.0602064
0.0656269
0.0709724
0.0762085
0.081306
0.0862412
0.0909947
0.0955516
0.0999014
0.104037
0.107956
0.111657
0.115141
0.118414
0.121478
0.124342
0.127011
0.129493
0.131793
0.133917
0.135866
0.13764
0.139229
0.140615
0.141763
0.142614
0.143054
0.142961
0.142067
0.139959
0.135966
0.128948
0.119602
0.10911
0.098189
0.0872791
0.0766553
0.066514
0.0569738
0.0481146
0.0400255
0.0326737
0.025807
0.0197562
0.0145573
0.010244
0.00683199
0.00429449
0.00254072
0.00141971
0.00075452
0.000384392
0.000188963
9.06989e-05
4.26423e-05
1.96926e-05
8.94257e-06
4.00155e-06
1.76558e-06
7.69552e-07
3.31552e-07
1.41411e-07
5.97417e-08
2.50154e-08
1.03792e-08
4.25546e-09
1.71328e-09
6.64428e-10
2.2308e-10
4.14189e-11
4.38348e-07
1.91581e-06
4.40127e-06
8.56849e-06
1.55212e-05
2.70465e-05
4.5999e-05
7.6866e-05
0.000126574
0.000205588
0.000329332
0.000519868
0.000807659
0.00123297
0.00184627
0.00270675
0.00387829
0.005423
0.00739325
0.00982459
0.0127314
0.0161064
0.0199232
0.0241407
0.0287079
0.0335678
0.038661
0.0439277
0.0493103
0.0547541
0.0602087
0.0656285
0.0709733
0.0762086
0.0813054
0.0862399
0.0909927
0.0955489
0.0998979
0.104033
0.107951
0.111652
0.115136
0.118408
0.121472
0.124335
0.127004
0.129486
0.131786
0.13391
0.13586
0.137634
0.139223
0.14061
0.141759
0.142611
0.143053
0.142965
0.142076
0.139978
0.135999
0.129004
0.11967
0.109186
0.0982675
0.0873578
0.0767325
0.0665882
0.0570438
0.0481798
0.0400846
0.0327286
0.0258562
0.0197991
0.0145935
0.0102732
0.00685423
0.00431028
0.00255109
0.00142605
0.000758159
0.000386362
0.000189978
9.11988e-05
4.28819e-05
1.98048e-05
8.99405e-06
4.02474e-06
1.77586e-06
7.74043e-07
3.33488e-07
1.42236e-07
6.00902e-08
2.51613e-08
1.04396e-08
4.28026e-09
1.72318e-09
6.6813e-10
2.24312e-10
4.16207e-11
4.38821e-07
1.91787e-06
4.40601e-06
8.57771e-06
1.55379e-05
2.70756e-05
4.60484e-05
7.69484e-05
0.000126709
0.000205806
0.000329675
0.0005204
0.000808463
0.00123416
0.00184797
0.0027091
0.00388145
0.00542708
0.00739832
0.00983066
0.0127384
0.0161142
0.0199316
0.0241496
0.0287169
0.0335767
0.0386695
0.0439356
0.0493174
0.0547601
0.0602135
0.065632
0.0709754
0.0762092
0.0813045
0.0862375
0.0909888
0.0955435
0.0998912
0.104025
0.107942
0.111641
0.115125
0.118396
0.12146
0.124322
0.126991
0.129472
0.131772
0.133896
0.135846
0.137621
0.139211
0.140599
0.14175
0.142606
0.143053
0.142972
0.142095
0.140015
0.136065
0.129117
0.11981
0.10934
0.0984275
0.0875185
0.0768903
0.0667398
0.0571875
0.0483136
0.0402062
0.0328418
0.0259577
0.0198879
0.0146688
0.0103343
0.00690111
0.00434381
0.00257331
0.00143972
0.000766027
0.000390617
0.000192164
9.22732e-05
4.33958e-05
2.00448e-05
9.10388e-06
4.07411e-06
1.79769e-06
7.83556e-07
3.37581e-07
1.43977e-07
6.08229e-08
2.5467e-08
1.0566e-08
4.33193e-09
1.74374e-09
6.75802e-10
2.2686e-10
4.20382e-11
4.39547e-07
1.92104e-06
4.41329e-06
8.59187e-06
1.55636e-05
2.71204e-05
4.61244e-05
7.70752e-05
0.000126917
0.000206141
0.000330205
0.000521221
0.000809707
0.00123599
0.0018506
0.00271276
0.00388636
0.00543343
0.00740623
0.00984017
0.0127494
0.0161265
0.0199449
0.0241635
0.0287311
0.0335907
0.038683
0.0439482
0.0493287
0.05477
0.0602215
0.065638
0.0709793
0.0762108
0.0813038
0.0862344
0.0909834
0.0955359
0.0998815
0.104014
0.107929
0.111626
0.115108
0.118378
0.121441
0.124303
0.126971
0.129451
0.131751
0.133875
0.135826
0.137601
0.139193
0.140583
0.141737
0.142598
0.143052
0.142983
0.142124
0.140072
0.136166
0.12929
0.120024
0.109575
0.098672
0.087764
0.0771313
0.0669716
0.057407
0.0485182
0.0403925
0.033015
0.0261136
0.0200248
0.0147851
0.0104289
0.00697382
0.00439596
0.00260793
0.001461
0.000778206
0.000397178
0.000195526
9.39239e-05
4.4185e-05
2.04132e-05
9.27248e-06
4.14986e-06
1.83119e-06
7.98153e-07
3.4386e-07
1.46646e-07
6.19467e-08
2.59359e-08
1.07597e-08
4.41116e-09
1.77527e-09
6.87586e-10
2.30775e-10
4.26808e-11
4.4054e-07
1.92538e-06
4.42325e-06
8.61126e-06
1.55987e-05
2.71816e-05
4.62287e-05
7.72491e-05
0.000127202
0.000206601
0.000330933
0.000522351
0.00081142
0.00123852
0.00185424
0.00271782
0.00389316
0.00544224
0.00741725
0.00985346
0.012765
0.0161442
0.0199638
0.0241832
0.0287512
0.0336107
0.0387023
0.0439664
0.0493453
0.0547845
0.0602337
0.0656475
0.0709858
0.0762143
0.0813041
0.0862316
0.0909774
0.0955269
0.0998696
0.103999
0.107912
0.111607
0.115087
0.118355
0.121416
0.124277
0.126944
0.129424
0.131723
0.133847
0.135798
0.137575
0.139168
0.140561
0.14172
0.142587
0.143052
0.142998
0.142163
0.14015
0.136305
0.129527
0.120317
0.109897
0.0990061
0.0880994
0.0774603
0.0672879
0.0577065
0.0487974
0.0406468
0.0332506
0.0263288
0.0202137
0.0149455
0.0105593
0.00707412
0.00446794
0.00265569
0.00149027
0.000794902
0.000406147
0.000200115
9.61751e-05
4.52609e-05
2.09156e-05
9.50241e-06
4.25319e-06
1.87689e-06
8.18071e-07
3.52431e-07
1.50291e-07
6.34815e-08
2.65764e-08
1.10245e-08
4.51945e-09
1.8184e-09
7.03709e-10
2.36132e-10
4.35616e-11
4.4182e-07
1.93097e-06
4.43608e-06
8.63625e-06
1.5644e-05
2.72607e-05
4.63633e-05
7.7474e-05
0.000127572
0.000207197
0.000331878
0.000523818
0.000813648
0.00124182
0.00185898
0.00272441
0.00390203
0.00545374
0.00743159
0.00987065
0.0127848
0.0161661
0.0199881
0.0242091
0.028778
0.0336377
0.0387287
0.0439915
0.0493685
0.0548052
0.0602514
0.0656617
0.0709964
0.076221
0.0813067
0.0862301
0.0909718
0.0955173
0.0998562
0.103982
0.107891
0.111584
0.115061
0.118326
0.121385
0.124245
0.12691
0.12939
0.131689
0.133813
0.135764
0.137542
0.139137
0.140534
0.141698
0.142574
0.143051
0.143018
0.142214
0.14025
0.136483
0.129833
0.120694
0.110311
0.0994364
0.0885311
0.0778837
0.0676946
0.0580912
0.0491553
0.040972
0.0335491
0.026614
0.0204615
0.0151548
0.0107291
0.00720456
0.00456149
0.00271775
0.00152828
0.000816559
0.000417771
0.000206057
9.90889e-05
4.66529e-05
2.15653e-05
9.79976e-06
4.3868e-06
1.93597e-06
8.43813e-07
3.63504e-07
1.55e-07
6.54639e-08
2.74036e-08
1.13664e-08
4.65933e-09
1.87411e-09
7.2454e-10
2.43054e-10
4.47024e-11
4.43408e-07
1.93791e-06
4.45202e-06
8.66731e-06
1.57004e-05
2.73591e-05
4.6531e-05
7.77545e-05
0.000128033
0.000207943
0.000333062
0.000525659
0.000816447
0.00124597
0.00186496
0.00273276
0.00391329
0.00546838
0.00744993
0.00989281
0.0128106
0.0161953
0.0200202
0.0242432
0.0288133
0.0336733
0.0387637
0.0440251
0.0493999
0.0548336
0.0602762
0.0656825
0.0710126
0.0762324
0.0813131
0.0862314
0.090968
0.0955085
0.0998425
0.103964
0.107869
0.111557
0.115031
0.118293
0.12135
0.124207
0.126871
0.129349
0.131647
0.133771
0.135723
0.137502
0.139101
0.140501
0.141673
0.142558
0.143051
0.143042
0.142277
0.140374
0.136705
0.130213
0.121162
0.110827
0.0999709
0.0890672
0.0784092
0.0681994
0.0585687
0.0495999
0.0413768
0.0339193
0.0269683
0.0207702
0.0154158
0.0109411
0.00736755
0.00467857
0.00279553
0.001576
0.000843798
0.000432402
0.000213537
0.000102756
4.84039e-05
2.23822e-05
1.01734e-05
4.55456e-06
2.0101e-06
8.76093e-07
3.77382e-07
1.60899e-07
6.79458e-08
2.84389e-08
1.17942e-08
4.83426e-09
1.9438e-09
7.50617e-10
2.51723e-10
4.6135e-11
4.45328e-07
1.94629e-06
4.47129e-06
8.70489e-06
1.57686e-05
2.74785e-05
4.67347e-05
7.80956e-05
0.000128594
0.000208852
0.000334508
0.000527914
0.000819884
0.00125108
0.00187233
0.00274309
0.00392727
0.00548665
0.00747297
0.00992087
0.0128437
0.0162334
0.0200628
0.0242878
0.0288591
0.0337195
0.0388095
0.0440694
0.0494417
0.0548721
0.0603106
0.065712
0.0710367
0.0762507
0.0813253
0.0862373
0.0909678
0.0955021
0.0998301
0.103946
0.107845
0.111529
0.114998
0.118256
0.121309
0.124163
0.126825
0.129301
0.131598
0.133722
0.135675
0.137455
0.139057
0.140464
0.141643
0.142542
0.143054
0.143071
0.142352
0.140523
0.136972
0.130673
0.121729
0.111449
0.100617
0.0897151
0.0790449
0.0688104
0.0591472
0.0501392
0.0418686
0.0343679
0.0273967
0.0211441
0.0157326
0.0111988
0.00756629
0.00482174
0.00289094
0.00163472
0.000877384
0.000450467
0.000222778
0.000107287
5.05664e-05
2.33904e-05
1.06342e-05
4.76131e-06
2.1014e-06
9.15813e-07
3.94445e-07
1.68145e-07
7.09922e-08
2.97086e-08
1.23187e-08
5.0489e-09
2.0294e-09
7.82831e-10
2.62427e-10
4.79166e-11
4.47601e-07
1.95622e-06
4.49413e-06
8.74944e-06
1.58496e-05
2.76203e-05
4.6977e-05
7.8502e-05
0.000129265
0.00020994
0.000336242
0.000530623
0.000824022
0.00125724
0.00188126
0.00275562