/*--------------------------------*- C++ -*----------------------------------*\
  =========                 |
  \\      /  F ield         | OpenFOAM: The Open Source CFD Toolbox
   \\    /   O peration     | Website:  https://openfoam.org
    \\  /    A nd           | Version:  8
     \\/     M anipulation  |
\*---------------------------------------------------------------------------*/
FoamFile
{
    version     2.0;
    format      ascii;
    class       volScalarField;
    location    "0.45/fluid";
    object      H2O;
}
// * * * * * * * * * * * * * * * * * * * * * * * * * * * * * * * * * * * * * //

dimensions      [0 0 0 0 0 0 0];

internalField   nonuniform List<scalar> 
4000
(
3.8891e-07
1.6996e-06
3.90435e-06
7.60178e-06
1.37761e-05
2.40289e-05
4.09362e-05
6.85801e-05
0.000113319
0.000184846
0.000297578
0.000472279
0.000737894
0.00113259
0.0017036
0.00250539
0.00359491
0.00502444
0.00683382
0.00904451
0.0116571
0.014653
0.0179979
0.0216471
0.0255498
0.0296527
0.0339026
0.0382478
0.0426563
0.0470867
0.051482
0.0558123
0.060051
0.064176
0.0681691
0.0720161
0.075706
0.0792311
0.0825868
0.0857713
0.0887845
0.0916285
0.0943066
0.0968233
0.099184
0.101394
0.103461
0.10539
0.107187
0.108858
0.110408
0.111838
0.113149
0.114337
0.11539
0.116288
0.116994
0.117442
0.117545
0.117151
0.116002
0.11369
0.109532
0.102997
0.0951992
0.0868048
0.0782237
0.0697119
0.061431
0.0534977
0.0459863
0.0389515
0.0324591
0.0264943
0.0209082
0.0159749
0.0116905
0.0081143
0.00528902
0.0032135
0.00181648
0.000959804
0.00047841
0.000228489
0.000105961
4.80115e-05
2.13396e-05
9.3365e-06
4.03004e-06
1.72038e-06
7.2734e-07
3.05104e-07
1.27065e-07
5.25956e-08
2.16141e-08
8.79751e-09
3.51166e-09
1.33973e-09
4.46523e-10
7.84624e-11
3.88476e-07
1.69796e-06
3.90165e-06
7.59951e-06
1.37781e-05
2.40423e-05
4.09693e-05
6.86339e-05
0.000113364
0.000184775
0.000297104
0.000470794
0.000733993
0.00112359
0.00168581
0.00247391
0.00354372
0.00494709
0.00672454
0.00889927
0.0114745
0.0144341
0.0177465
0.021369
0.0252522
0.0293438
0.033591
0.0379537
0.0423806
0.0468017
0.0512007
0.0555425
0.0597979
0.0639425
0.067957
0.0718262
0.0755381
0.0790848
0.0824614
0.0856654
0.088697
0.091558
0.0942516
0.0967823
0.0991556
0.101377
0.103454
0.105391
0.107196
0.108874
0.110428
0.111862
0.113176
0.114364
0.115416
0.116308
0.117004
0.117433
0.117507
0.117064
0.115838
0.113399
0.10903
0.102357
0.0944676
0.08601
0.077385
0.0688431
0.0605425
0.052602
0.0450946
0.0380791
0.03163
0.0257026
0.0202003
0.0152861
0.0110681
0.00759332
0.00489089
0.00294073
0.00165106
0.00087108
0.000435914
0.000209637
9.80666e-05
4.48509e-05
2.01183e-05
8.87654e-06
3.85947e-06
1.6574e-06
7.03916e-07
2.96254e-07
1.23649e-07
5.12483e-08
2.10751e-08
8.58085e-09
3.42621e-09
1.30797e-09
4.36048e-10
7.68019e-11
3.88825e-07
1.69971e-06
3.90667e-06
7.61164e-06
1.3804e-05
2.40919e-05
4.10541e-05
6.87609e-05
0.000113517
0.000184875
0.000296925
0.000469791
0.00073108
0.00111732
0.00167365
0.00245207
0.00350728
0.0048903
0.00664145
0.00878461
0.0113244
0.0142468
0.0175226
0.0211112
0.0249652
0.0290338
0.0332699
0.0376299
0.0420309
0.0464548
0.0508616
0.0552161
0.0594882
0.063653
0.0676901
0.0715835
0.0753207
0.0788931
0.0822951
0.085524
0.0885795
0.091463
0.0941778
0.0967281
0.0991193
0.101357
0.103449
0.105399
0.107215
0.108902
0.110464
0.111904
0.113222
0.11441
0.115459
0.116342
0.117021
0.117418
0.117445
0.116923
0.115568
0.112921
0.108208
0.10132
0.093292
0.0847481
0.0760726
0.0675063
0.0592034
0.0512815
0.0438108
0.0368525
0.0304798
0.0246067
0.0191887
0.0144258
0.0103682
0.00705956
0.00451691
0.00270367
0.00151572
0.000800921
0.000402375
0.000194365
9.1358e-05
4.19832e-05
1.89195e-05
8.384e-06
3.65977e-06
1.57702e-06
6.71682e-07
2.83305e-07
1.18433e-07
4.91355e-08
2.02174e-08
8.23389e-09
3.28862e-09
1.25658e-09
4.19057e-10
7.40288e-11
3.87741e-07
1.69491e-06
3.89538e-06
7.58866e-06
1.37592e-05
2.40046e-05
4.08826e-05
6.84226e-05
0.000112853
0.000183595
0.000294527
0.00046547
0.000723686
0.00110497
0.00165371
0.00242111
0.0034612
0.00482467
0.006552
0.00866775
0.0111777
0.0140694
0.0173148
0.0208752
0.0247042
0.0287521
0.0329821
0.0373089
0.0417074
0.0461332
0.0505463
0.0549112
0.0591975
0.0633795
0.0674365
0.0713519
0.0751125
0.0787091
0.0821355
0.0853887
0.0884679
0.0913743
0.0941108
0.0966815
0.0990917
0.101347
0.103454
0.105418
0.107247
0.108944
0.110515
0.111961
0.113281
0.11447
0.115513
0.116385
0.117042
0.117402
0.117372
0.116753
0.115244
0.112348
0.107228
0.100089
0.0919097
0.0832785
0.0745609
0.0659858
0.0577044
0.0498276
0.042424
0.0355575
0.02929
0.02349
0.0182008
0.013584
0.00968362
0.00653551
0.00414511
0.0024622
0.00137276
0.000723325
0.000363294
0.00017578
8.28488e-05
3.82004e-05
1.72775e-05
7.68482e-06
3.36689e-06
1.45594e-06
6.22173e-07
2.63212e-07
1.10328e-07
4.58773e-08
1.89131e-08
7.71499e-09
3.0858e-09
1.18116e-09
3.94371e-10
6.99293e-11
3.85726e-07
1.68604e-06
3.87466e-06
7.54733e-06
1.36816e-05
2.38631e-05
4.06277e-05
6.7967e-05
0.000112045
0.000182175
0.000292064
0.000461271
0.000716677
0.00109357
0.0016357
0.00239365
0.00342087
0.00476778
0.00647498
0.00856761
0.0110524
0.013918
0.0171377
0.0206737
0.0244808
0.0285135
0.032714
0.0370355
0.0414316
0.0458584
0.0502762
0.0546496
0.0589477
0.0631445
0.0672187
0.0711532
0.0749345
0.0785526
0.082001
0.0852763
0.0883772
0.0913047
0.0940613
0.0966513
0.0990795
0.101351
0.103473
0.10545
0.10729
0.108997
0.110576
0.112027
0.11335
0.114537
0.115574
0.116433
0.117066
0.117386
0.117292
0.116573
0.114902
0.111745
0.106202
0.0988083
0.0904792
0.0817685
0.0730198
0.0644492
0.0562046
0.0483888
0.0410684
0.0343114
0.0281529
0.0224225
0.0172719
0.0128039
0.00905863
0.00606484
0.00381701
0.00225281
0.00125062
0.000657646
0.000330301
0.000160024
7.5571e-05
3.49243e-05
1.58332e-05
7.05883e-06
3.09941e-06
1.34296e-06
5.7492e-07
2.43604e-07
1.02246e-07
4.25648e-08
1.7564e-08
7.17026e-09
2.87008e-09
1.0999e-09
3.675e-10
6.54247e-11
3.82954e-07
1.67382e-06
3.84618e-06
7.4906e-06
1.35758e-05
2.3672e-05
4.02891e-05
6.73751e-05
0.000111023
0.000180434
0.000289144
0.000456463
0.000708932
0.00108141
0.00161716
0.00236629
0.0033819
0.0047143
0.00640433
0.00847765
0.0109418
0.0137864
0.0169857
0.0205028
0.024293
0.028317
0.0325022
0.0368145
0.0412062
0.045633
0.0500545
0.0544351
0.0587433
0.0629529
0.0670421
0.0709932
0.0747924
0.0784293
0.0818971
0.0851917
0.0883117
0.0912577
0.0940325
0.0966393
0.0990829
0.101369
0.103504
0.105493
0.107343
0.109059
0.110644
0.112099
0.113424
0.114609
0.115638
0.116482
0.117089
0.117369
0.117211
0.116389
0.114558
0.111145
0.105194
0.0975595
0.0890935
0.0803146
0.0715453
0.0629886
0.0547888
0.0470403
0.0398077
0.0331632
0.0271086
0.0214453
0.0164297
0.0121016
0.00849913
0.00564514
0.00352484
0.00206584
0.00114067
0.000597746
0.000299691
0.000145178
6.86085e-05
3.17464e-05
1.44155e-05
6.43836e-06
2.83232e-06
1.22957e-06
5.2734e-07
2.2383e-07
9.40931e-08
3.92252e-08
1.62053e-08
6.62243e-09
2.65336e-09
1.01824e-09
3.40485e-10
6.08636e-11
3.79894e-07
1.6604e-06
3.81504e-06
7.42914e-06
1.34624e-05
2.34699e-05
3.99365e-05
6.67691e-05
0.000109996
0.000178716
0.000286314
0.000451885
0.000701678
0.00107019
0.00160028
0.00234166
0.00334718
0.0046671
0.00634249
0.00839955
0.0108465
0.0136739
0.0168568
0.0203591
0.0241377
0.0281407
0.0323209
0.0366298
0.0410204
0.0454489
0.0498749
0.0542624
0.0585801
0.0628012
0.0669036
0.0708694
0.0746842
0.0783375
0.0818219
0.0851332
0.0882697
0.091232
0.094022
0.0966431
0.0991001
0.101399
0.103544
0.105544
0.107402
0.109124
0.110715
0.112173
0.113498
0.11468
0.115701
0.116529
0.117107
0.117347
0.117122
0.116199
0.114209
0.110546
0.104226
0.0963792
0.0877966
0.0789636
0.0701833
0.0616463
0.053494
0.0458122
0.0386646
0.0321273
0.026149
0.0205901
0.0156897
0.0114845
0.00800895
0.00527941
0.00327204
0.00190526
0.00104682
0.000546799
0.000273669
0.000132526
6.26472e-05
2.90081e-05
1.31844e-05
5.89495e-06
2.59629e-06
1.12845e-06
4.84539e-07
2.05895e-07
8.66451e-08
3.61543e-08
1.49494e-08
6.11389e-09
2.45123e-09
9.41636e-10
3.15007e-10
5.65241e-11
3.76786e-07
1.64677e-06
3.78353e-06
7.36713e-06
1.33484e-05
2.32678e-05
3.95859e-05
6.61708e-05
0.00010899
0.000177048
0.000283596
0.000447535
0.000694866
0.00105978
0.00158481
0.00231937
0.00331614
0.00462537
0.00628838
0.00833184
0.0107646
0.0135778
0.0167473
0.0202374
0.0240088
0.0280014
0.0321751
0.0364807
0.0408708
0.0453014
0.0497319
0.0541262
0.0584526
0.062684
0.0667981
0.0707768
0.0746052
0.0782726
0.0817714
0.085097
0.0882477
0.0912235
0.0940262
0.0966594
0.0991277
0.101436
0.103591
0.105599
0.107464
0.109192
0.110785
0.112246
0.113569
0.114747
0.115758
0.116569
0.117117
0.117313
0.117019
0.115984
0.113818
0.10987
0.103277
0.0952704
0.0866021
0.0777332
0.0689517
0.0604392
0.0523348
0.044717
0.0376484
0.0312048
0.0253016
0.0198376
0.0150404
0.0109449
0.00758206
0.00496245
0.003054
0.00176725
0.000966237
0.000502965
0.000251181
0.000121539
5.74421e-05
2.66044e-05
1.20984e-05
5.41338e-06
2.38627e-06
1.03816e-06
4.46206e-07
1.89793e-07
7.99441e-08
3.33871e-08
1.3816e-08
5.6541e-09
2.26824e-09
8.71965e-10
2.91846e-10
5.24724e-11
3.73814e-07
1.63376e-06
3.75349e-06
7.3082e-06
1.32406e-05
2.30774e-05
3.92573e-05
6.56134e-05
0.000108058
0.000175516
0.000281117
0.0004436
0.000688752
0.00105051
0.00157113
0.00229981
0.00328908
0.00458925
0.00624186
0.008274
0.0106951
0.0134967
0.0166552
0.0201351
0.0238939
0.0278834
0.0320547
0.0363594
0.0407505
0.045184
0.0496193
0.0540201
0.0583545
0.0625953
0.0667199
0.0707097
0.07455
0.0782295
0.0817405
0.0850785
0.0882409
0.0912279
0.0940413
0.0966846
0.0991622
0.101479
0.103642
0.105655
0.107526
0.109258
0.110854
0.112315
0.113636
0.114808
0.115809
0.116603
0.11712
0.117272
0.116907
0.115759
0.113412
0.109165
0.102373
0.0942505
0.0855216
0.0766305
0.0678546
0.0593712
0.0513127
0.0437544
0.0367588
0.0303974
0.0245552
0.0191774
0.0144729
0.0104752
0.00721226
0.00468953
0.00286749
0.0016499
0.000898025
0.000465947
0.000232194
0.000112249
5.30304e-05
2.45605e-05
1.11714e-05
5.00067e-06
2.20555e-06
9.60146e-07
4.12967e-07
1.75778e-07
7.40944e-08
3.09644e-08
1.28213e-08
5.24931e-09
2.10669e-09
8.10036e-10
2.71169e-10
4.88338e-11
3.71071e-07
1.62176e-06
3.72583e-06
7.25403e-06
1.31416e-05
2.29032e-05
3.89578e-05
6.51072e-05
0.000107216
0.000174137
0.000278898
0.000440096
0.000683339
0.00104235
0.00155918
0.00228282
0.00326573
0.00455828
0.00620224
0.00822509
0.0106368
0.0134295
0.0165802
0.0200552
0.023806
0.0277903
0.031959
0.036263
0.0406554
0.0450919
0.0495319
0.0539388
0.0582805
0.0625297
0.0666634
0.070663
0.0745135
0.0782034
0.0817249
0.0850729
0.0882451
0.0912415
0.0940638
0.0967153
0.0992004
0.101524
0.103693
0.105711
0.107586
0.10932
0.110918
0.112379
0.113698
0.114864
0.115855
0.116632
0.11712
0.117231
0.116799
0.115546
0.11303
0.108509
0.101554
0.0933384
0.084563
0.0756578
0.0668909
0.0584366
0.0504209
0.0429168
0.0359878
0.0296966
0.0239023
0.0186019
0.0139799
0.0100687
0.00689388
0.00445588
0.00270874
0.0015505
0.000840435
0.000434734
0.000216178
0.000104402
4.92962e-05
2.28263e-05
1.0383e-05
4.64876e-06
2.05108e-06
8.93303e-07
3.84425e-07
1.6372e-07
6.9051e-08
2.8871e-08
1.19605e-08
4.89878e-09
1.96693e-09
7.56714e-10
2.53423e-10
4.57553e-11
3.6861e-07
1.611e-06
3.70106e-06
7.20559e-06
1.30533e-05
2.27481e-05
3.86917e-05
6.4659e-05
0.000106473
0.000172925
0.000276955
0.000437042
0.000678642
0.0010353
0.0015489
0.00226829
0.00324585
0.00453202
0.00616877
0.00818387
0.0105876
0.0133723
0.016515
0.0199827
0.0237312
0.0277138
0.0318816
0.0361862
0.0405805
0.0450203
0.0494647
0.0538772
0.0582256
0.0624821
0.0666239
0.070632
0.0744911
0.0781899
0.08172
0.0850764
0.0882568
0.091261
0.0940906
0.0967487
0.0992398
0.101569
0.103742
0.105764
0.107642
0.109378
0.110977
0.112437
0.113754
0.114914
0.115896
0.116657
0.117119
0.117193
0.116701
0.115356
0.112691
0.107928
0.100832
0.0925376
0.0837246
0.0748097
0.066053
0.0576261
0.0496493
0.0421937
0.0353237
0.0290933
0.0233355
0.0181036
0.0135544
0.00971928
0.0066214
0.00425698
0.00257436
0.0014668
0.00079212
0.000408604
0.000202779
9.78336e-05
4.6167e-05
2.13708e-05
9.71992e-06
4.35223e-06
1.92065e-06
8.36748e-07
3.60228e-07
1.53476e-07
6.47593e-08
2.70867e-08
1.12256e-08
4.5991e-09
1.84729e-09
7.11202e-10
2.38261e-10
4.31688e-11
3.6645e-07
1.60156e-06
3.67933e-06
7.16315e-06
1.29761e-05
2.26127e-05
3.84599e-05
6.42694e-05
0.000105829
0.000171877
0.000275281
0.000434419
0.000674624
0.0010293
0.00154018
0.00225601
0.00322915
0.0045101
0.00614104
0.00815006
0.0105478
0.0133271
0.0164655
0.0199281
0.0236731
0.0276536
0.0318208
0.0361261
0.0405224
0.0449652
0.0494138
0.0538314
0.0581856
0.0624487
0.0665973
0.0706126
0.0744792
0.0781853
0.0817226
0.0850861
0.0882732
0.0912837
0.0941191
0.0967826
0.0992785
0.101612
0.103788
0.105813
0.107693
0.109431
0.11103
0.112489
0.113803
0.114959
0.115932
0.116679
0.117118
0.11716
0.116616
0.115189
0.112395
0.10742
0.100202
0.0918419
0.0829981
0.0740768
0.0653306
0.0569289
0.048987
0.0415745
0.0347572
0.0285761
0.0228467
0.0176752
0.0131898
0.00942092
0.00638976
0.00408874
0.00246128
0.00139668
0.000751775
0.000386826
0.000191619
9.23619e-05
4.35579e-05
2.01559e-05
9.16572e-06
4.10407e-06
1.8113e-06
7.89274e-07
3.39884e-07
1.44852e-07
6.11421e-08
2.55807e-08
1.06046e-08
4.34563e-09
1.74615e-09
6.73007e-10
2.25521e-10
4.10174e-11
3.64589e-07
1.59342e-06
3.66063e-06
7.12667e-06
1.29097e-05
2.24966e-05
3.82615e-05
6.39366e-05
0.00010528
0.000170986
0.000273861
0.000432201
0.000671235
0.00102425
0.00153287
0.00224575
0.00321523
0.00449189
0.00611808
0.00812216
0.0105151
0.0132901
0.0164253
0.0198842
0.0236267
0.0276059
0.031773
0.0360793
0.0404775
0.0449234
0.0493758
0.0537979
0.0581572
0.0624258
0.0665804
0.0706018
0.0744746
0.0781868
0.0817301
0.0850994
0.0882919
0.0913075
0.0941476
0.0968153
0.0993148
0.101651
0.10383
0.105858
0.107739
0.109477
0.111076
0.112534
0.113845
0.114996
0.115962
0.116698
0.117117
0.117131
0.116543
0.115045
0.112138
0.106981
0.0996587
0.0912425
0.0823742
0.0734492
0.0647135
0.0563347
0.0484235
0.0410487
0.0342776
0.0281369
0.0224296
0.0173106
0.0128802
0.00916846
0.0061945
0.00394755
0.00236681
0.00133835
0.000718316
0.000368798
0.000182389
8.78366e-05
4.1399e-05
1.91499e-05
8.70629e-06
3.89813e-06
1.72044e-06
7.49785e-07
3.22936e-07
1.37662e-07
5.81221e-08
2.43228e-08
1.00855e-08
4.13358e-09
1.66148e-09
6.40894e-10
2.14846e-10
3.92287e-11
3.63016e-07
1.58656e-06
3.64485e-06
7.09589e-06
1.28538e-05
2.23988e-05
3.80948e-05
6.36573e-05
0.00010482
0.000170242
0.000272676
0.000430355
0.000668421
0.00102007
0.00152683
0.0022373
0.00320378
0.00447693
0.00609921
0.00809918
0.010488
0.013259
0.0163904
0.0198478
0.0235892
0.0275681
0.0317356
0.036043
0.0404433
0.0448919
0.0493477
0.0537737
0.0581375
0.0624108
0.0665703
0.0705969
0.0744748
0.078192
0.0817402
0.0851142
0.0883112
0.0913308
0.0941746
0.0968456
0.099348
0.101687
0.103868
0.105897
0.107778
0.109517
0.111115
0.112572
0.11388
0.115027
0.115986
0.116711
0.117115
0.117108
0.116481
0.114923
0.111919
0.106604
0.0991948
0.0907329
0.0818455
0.0729187
0.0641931
0.0558344
0.0479498
0.0406072
0.0338749
0.0277696
0.0220788
0.0170044
0.0126209
0.0089574
0.00603179
0.00383033
0.00228869
0.00129027
0.000690817
0.000354007
0.000174823
8.41268e-05
3.96284e-05
1.83244e-05
8.32897e-06
3.72884e-06
1.64568e-06
7.17263e-07
3.08965e-07
1.31729e-07
5.56276e-08
2.32831e-08
9.65601e-09
3.95784e-09
1.59139e-09
6.14514e-10
2.0608e-10
3.77692e-11
3.61716e-07
1.58088e-06
3.6318e-06
7.07046e-06
1.28077e-05
2.23182e-05
3.79574e-05
6.34276e-05
0.000104442
0.000169631
0.000271707
0.000428847
0.000666129
0.00101667
0.00152193
0.00223046
0.00319457
0.00446494
0.00608419
0.00808103
0.0104668
0.0132351
0.0163641
0.0198198
0.0235603
0.0275389
0.0317069
0.0360155
0.0404176
0.0448686
0.0493273
0.0537567
0.0581242
0.0624015
0.0665651
0.0705958
0.0744779
0.0781992
0.0817514
0.0851291
0.0883296
0.0913525
0.0941992
0.0968727
0.0993773
0.101718
0.1039
0.10593
0.107812
0.109551
0.111149
0.112604
0.113911
0.115054
0.116007
0.116724
0.117115
0.117087
0.11643
0.114821
0.111738
0.106293
0.0988109
0.0903111
0.0814078
0.0724798
0.0637628
0.0554211
0.0475588
0.0402431
0.0335435
0.0274664
0.0217887
0.0167517
0.0124071
0.00878388
0.00589834
0.00373448
0.00222501
0.0012512
0.000668514
0.000342028
0.000168698
8.1124e-05
3.81947e-05
1.76555e-05
8.02307e-06
3.59148e-06
1.58498e-06
6.90832e-07
2.97602e-07
1.26899e-07
5.35955e-08
2.24354e-08
9.30571e-09
3.8146e-09
1.53432e-09
5.93163e-10
1.98982e-10
3.6596e-11
3.60668e-07
1.5763e-06
3.62129e-06
7.04999e-06
1.27706e-05
2.22534e-05
3.78471e-05
6.32434e-05
0.00010414
0.000169143
0.000270933
0.000427645
0.000664304
0.00101397
0.00151805
0.00222506
0.0031873
0.00445553
0.00607245
0.00806695
0.0104506
0.0132171
0.0163442
0.0197986
0.0235383
0.0275168
0.0316853
0.035995
0.0403986
0.0448516
0.0493128
0.053745
0.0581155
0.062396
0.066563
0.0705971
0.0744825
0.0782071
0.0817624
0.085143
0.0883463
0.0913716
0.0942205
0.096896
0.0994022
0.101744
0.103928
0.105958
0.107841
0.10958
0.111177
0.112631
0.113936
0.115076
0.116025
0.116735
0.117115
0.117071
0.116388
0.114739
0.111592
0.106043
0.0985022
0.0899717
0.0810555
0.0721263
0.0634162
0.0550881
0.0472439
0.0399501
0.0332772
0.027222
0.0215552
0.0165488
0.0122358
0.00864485
0.00579154
0.00365787
0.0021742
0.00122008
0.000650783
0.000332511
0.000163833
7.87382e-05
3.7055e-05
1.71235e-05
7.7796e-06
3.48209e-06
1.53661e-06
6.69755e-07
2.88535e-07
1.23044e-07
5.19723e-08
2.17581e-08
9.02573e-09
3.70007e-09
1.48871e-09
5.76111e-10
1.93316e-10
3.56624e-11
3.59854e-07
1.57275e-06
3.61313e-06
7.03411e-06
1.27418e-05
2.22033e-05
3.77618e-05
6.31009e-05
0.000103906
0.000168766
0.000270337
0.00042672
0.000662901
0.0010119
0.00151508
0.00222092
0.00318173
0.00444831
0.00606343
0.00805607
0.0104379
0.0132027
0.0163288
0.0197825
0.0235219
0.0275005
0.0316694
0.03598
0.040385
0.0448397
0.0493029
0.0537373
0.0581101
0.0623932
0.0665627
0.0705994
0.0744874
0.0782145
0.0817722
0.0851551
0.0883603
0.0913875
0.0942381
0.096915
0.0994225
0.101766
0.10395
0.105981
0.107864
0.109603
0.111199
0.112653
0.113956
0.115094
0.116039
0.116743
0.117116
0.117059
0.116355
0.114676
0.111478
0.105849
0.0982628
0.0897084
0.080782
0.0718517
0.0631468
0.0548291
0.0469987
0.0397215
0.0330691
0.0270291
0.021379
0.0163942
0.0121045
0.00853806
0.00570942
0.00359894
0.00213509
0.00119611
0.000637112
0.000325167
0.000160076
7.6895e-05
3.6174e-05
1.67122e-05
7.59134e-06
3.39748e-06
1.49919e-06
6.53446e-07
2.81517e-07
1.20059e-07
5.07156e-08
2.12337e-08
8.80897e-09
3.61141e-09
1.4534e-09
5.62912e-10
1.8893e-10
3.49415e-11
3.5926e-07
1.57015e-06
3.60717e-06
7.02251e-06
1.27208e-05
2.21666e-05
3.76995e-05
6.29971e-05
0.000103736
0.000168492
0.000269903
0.000426048
0.000661883
0.0010104
0.00151292
0.00221792
0.00317771
0.00444311
0.00605695
0.00804828
0.0104288
0.0131926
0.0163179
0.019771
0.0235103
0.027489
0.0316584
0.0359697
0.0403757
0.0448316
0.0492963
0.0537323
0.0581069
0.0623918
0.0665633
0.0706019
0.0744917
0.0782206
0.0817801
0.0851646
0.0883713
0.0913999
0.0942516
0.0969295
0.0994379
0.101782
0.103966
0.105998
0.107881
0.10962
0.111216
0.112669
0.113971
0.115107
0.11605
0.11675
0.117116
0.11705
0.116332
0.114629
0.111395
0.105707
0.0980878
0.0895157
0.0805818
0.0716507
0.0629494
0.0546394
0.0468189
0.0395539
0.0329165
0.0268873
0.0212513
0.0162821
0.0120093
0.00846062
0.00564989
0.00355624
0.00210675
0.00117869
0.000627141
0.000319796
0.000157323
7.55434e-05
3.55278e-05
1.64106e-05
7.45329e-06
3.33545e-06
1.47176e-06
6.41494e-07
2.76376e-07
1.17873e-07
4.97954e-08
2.08497e-08
8.6503e-09
3.54653e-09
1.42758e-09
5.53268e-10
1.85727e-10
3.44157e-11
3.58872e-07
1.56846e-06
3.60329e-06
7.01495e-06
1.27071e-05
2.21428e-05
3.7659e-05
6.29296e-05
0.000103625
0.000168314
0.000269621
0.000425612
0.000661224
0.00100942
0.00151153
0.00221599
0.00317513
0.00443976
0.00605279
0.00804331
0.0104231
0.0131862
0.016311
0.0197638
0.0235029
0.0274817
0.0316514
0.0359632
0.0403699
0.0448267
0.0492923
0.0537294
0.0581052
0.0623913
0.066564
0.0706039
0.0744949
0.078225
0.0817856
0.0851711
0.0883788
0.0914082
0.0942607
0.0969393
0.0994482
0.101792
0.103977
0.106009
0.107892
0.109631
0.111227
0.112679
0.113981
0.115116
0.116057
0.116754
0.117116
0.117044
0.116316
0.114599
0.111341
0.105614
0.0979731
0.0893896
0.0804508
0.0715191
0.0628202
0.0545152
0.0467013
0.0394444
0.0328169
0.0267947
0.0211682
0.0162094
0.0119476
0.00841055
0.0056115
0.00352879
0.00208856
0.00116749
0.000620699
0.000316312
0.000155533
7.46638e-05
3.51071e-05
1.62141e-05
7.36336e-06
3.29503e-06
1.45389e-06
6.33704e-07
2.73025e-07
1.16448e-07
4.91955e-08
2.05994e-08
8.54685e-09
3.50422e-09
1.41075e-09
5.46988e-10
1.83641e-10
3.40742e-11
3.58683e-07
1.56763e-06
3.6014e-06
7.01129e-06
1.27005e-05
2.21313e-05
3.76396e-05
6.28973e-05
0.000103572
0.000168229
0.000269488
0.000425406
0.000660912
0.00100897
0.00151087
0.00221508
0.00317391
0.00443819
0.00605083
0.00804096
0.0104204
0.0131832
0.0163077
0.0197604
0.0234994
0.0274783
0.0316481
0.0359602
0.0403672
0.0448244
0.0492905
0.0537282
0.0581045
0.0623912
0.0665645
0.0706049
0.0744966
0.0782273
0.0817884
0.0851744
0.0883826
0.0914124
0.0942653
0.0969442
0.0994533
0.101798
0.103983
0.106015
0.107898
0.109636
0.111233
0.112685
0.113986
0.11512
0.11606
0.116757
0.117117
0.117041
0.116309
0.114584
0.111314
0.105569
0.0979168
0.0893277
0.0803865
0.0714546
0.062757
0.0544545
0.0466439
0.039391
0.0327686
0.0267497
0.021128
0.0161743
0.011918
0.00838665
0.00559329
0.00351587
0.00208006
0.0011623
0.000617719
0.000314698
0.000154702
7.42544e-05
3.49109e-05
1.61222e-05
7.32121e-06
3.27603e-06
1.44547e-06
6.30026e-07
2.71439e-07
1.15772e-07
4.891e-08
2.04799e-08
8.49733e-09
3.48391e-09
1.40265e-09
5.43961e-10
1.82633e-10
3.39091e-11
3.58683e-07
1.56763e-06
3.6014e-06
7.01129e-06
1.27005e-05
2.21313e-05
3.76396e-05
6.28973e-05
0.000103572
0.000168229
0.000269488
0.000425406
0.000660912
0.00100896
0.00151087
0.00221508
0.00317391
0.00443819
0.00605083
0.00804096
0.0104204
0.0131832
0.0163077
0.0197604
0.0234994
0.0274783
0.0316481
0.0359602
0.0403672
0.0448244
0.0492905
0.0537282
0.0581045
0.0623912
0.0665645
0.0706049
0.0744966
0.0782273
0.0817884
0.0851744
0.0883826
0.0914124
0.0942653
0.0969442
0.0994533
0.101798
0.103983
0.106015
0.107898
0.109636
0.111233
0.112685
0.113986
0.11512
0.11606
0.116757
0.117117
0.117041
0.116309
0.114584
0.111314
0.105569
0.0979168
0.0893277
0.0803865
0.0714546
0.062757
0.0544545
0.0466439
0.039391
0.0327686
0.0267497
0.021128
0.0161743
0.011918
0.00838665
0.00559329
0.00351586
0.00208006
0.0011623
0.000617719
0.000314698
0.000154702
7.42544e-05
3.49108e-05
1.61222e-05
7.32121e-06
3.27603e-06
1.44547e-06
6.30025e-07
2.71439e-07
1.15772e-07
4.891e-08
2.04799e-08
8.49732e-09
3.4839e-09
1.40265e-09
5.43962e-10
1.82634e-10
3.39093e-11
3.58871e-07
1.56846e-06
3.60328e-06
7.01494e-06
1.27071e-05
2.21428e-05
3.7659e-05
6.29295e-05
0.000103625
0.000168313
0.000269621
0.000425612
0.000661223
0.00100942
0.00151153
0.00221599
0.00317512
0.00443976
0.00605279
0.00804331
0.0104231
0.0131862
0.0163109
0.0197638
0.0235029
0.0274817
0.0316514
0.0359632
0.0403699
0.0448267
0.0492923
0.0537294
0.0581052
0.0623913
0.066564
0.0706039
0.0744949
0.078225
0.0817856
0.0851711
0.0883788
0.0914082
0.0942607
0.0969393
0.0994482
0.101792
0.103977
0.106009
0.107892
0.109631
0.111227
0.112679
0.113981
0.115116
0.116057
0.116754
0.117116
0.117044
0.116316
0.114599
0.111341
0.105614
0.0979731
0.0893895
0.0804507
0.0715191
0.0628202
0.0545151
0.0467013
0.0394444
0.0328169
0.0267946
0.0211682
0.0162093
0.0119476
0.00841055
0.0056115
0.00352879
0.00208855
0.00116749
0.000620698
0.000316311
0.000155533
7.46637e-05
3.51071e-05
1.6214e-05
7.36335e-06
3.29502e-06
1.45388e-06
6.33702e-07
2.73024e-07
1.16448e-07
4.91953e-08
2.05993e-08
8.54682e-09
3.50421e-09
1.41075e-09
5.46992e-10
1.83642e-10
3.40745e-11
3.59259e-07
1.57015e-06
3.60717e-06
7.0225e-06
1.27207e-05
2.21666e-05
3.76994e-05
6.2997e-05
0.000103736
0.000168491
0.000269902
0.000426047
0.000661882
0.00101039
0.00151292
0.00221792
0.00317771
0.0044431
0.00605694
0.00804827
0.0104288
0.0131926
0.0163179
0.019771
0.0235103
0.0274889
0.0316583
0.0359697
0.0403757
0.0448316
0.0492963
0.0537323
0.0581069
0.0623918
0.0665633
0.0706019
0.0744917
0.0782206
0.08178
0.0851645
0.0883713
0.0913998
0.0942516
0.0969295
0.0994378
0.101782
0.103966
0.105998
0.107881
0.10962
0.111216
0.112669
0.113971
0.115107
0.11605
0.11675
0.117116
0.11705
0.116332
0.114629
0.111395
0.105707
0.0980877
0.0895157
0.0805818
0.0716506
0.0629494
0.0546393
0.0468189
0.0395539
0.0329165
0.0268873
0.0212513
0.0162821
0.0120092
0.00846061
0.00564988
0.00355624
0.00210674
0.00117869
0.00062714
0.000319795
0.000157323
7.55432e-05
3.55277e-05
1.64105e-05
7.45326e-06
3.33544e-06
1.47175e-06
6.41491e-07
2.76374e-07
1.17872e-07
4.97951e-08
2.08496e-08
8.65025e-09
3.54651e-09
1.42758e-09
5.53273e-10
1.85729e-10
3.44163e-11
3.59853e-07
1.57274e-06
3.61312e-06
7.03409e-06
1.27417e-05
2.22032e-05
3.77617e-05
6.31008e-05
0.000103906
0.000168766
0.000270336
0.000426719
0.0006629
0.0010119
0.00151507
0.00222091
0.00318173
0.0044483
0.00606342
0.00805606
0.0104378
0.0132027
0.0163287
0.0197824
0.0235219
0.0275004
0.0316694
0.03598
0.040385
0.0448397
0.0493028
0.0537372
0.0581101
0.0623931
0.0665627
0.0705994
0.0744873
0.0782144
0.0817721
0.085155
0.0883603
0.0913875
0.0942381
0.096915
0.0994224
0.101765
0.10395
0.105981
0.107864
0.109602
0.111199
0.112653
0.113956
0.115094
0.116039
0.116743
0.117116
0.117059
0.116355
0.114676
0.111478
0.105849
0.0982628
0.0897083
0.0807819
0.0718516
0.0631467
0.0548291
0.0469986
0.0397214
0.033069
0.0270291
0.0213789
0.0163941
0.0121044
0.00853804
0.0057094
0.00359893
0.00213509
0.00119611
0.00063711
0.000325166
0.000160076
7.68947e-05
3.61739e-05
1.67121e-05
7.5913e-06
3.39746e-06
1.49918e-06
6.53441e-07
2.81515e-07
1.20058e-07
5.07152e-08
2.12335e-08
8.8089e-09
3.61138e-09
1.4534e-09
5.62921e-10
1.88933e-10
3.49424e-11
3.60666e-07
1.57629e-06
3.62127e-06
7.04996e-06
1.27705e-05
2.22534e-05
3.7847e-05
6.32432e-05
0.000104139
0.000169142
0.000270932
0.000427644
0.000664302
0.00101397
0.00151805
0.00222505
0.00318729
0.00445552
0.00607244
0.00806694
0.0104506
0.0132171
0.0163442
0.0197986
0.0235383
0.0275168
0.0316853
0.0359949
0.0403986
0.0448516
0.0493128
0.053745
0.0581155
0.062396
0.066563
0.0705971
0.0744824
0.078207
0.0817624
0.085143
0.0883462
0.0913716
0.0942205
0.0968959
0.0994022
0.101744
0.103928
0.105958
0.107841
0.10958
0.111177
0.112631
0.113936
0.115076
0.116025
0.116735
0.117115
0.117071
0.116388
0.114739
0.111591
0.106043
0.0985021
0.0899716
0.0810554
0.0721262
0.0634161
0.055088
0.0472438
0.03995
0.0332772
0.0272219
0.0215552
0.0165488
0.0122357
0.00864482
0.00579152
0.00365786
0.00217419
0.00122007
0.000650779
0.000332509
0.000163832
7.87377e-05
3.70547e-05
1.71234e-05
7.77954e-06
3.48205e-06
1.5366e-06
6.69748e-07
2.88532e-07
1.23042e-07
5.19718e-08
2.17579e-08
9.02563e-09
3.70003e-09
1.48871e-09
5.76121e-10
1.93319e-10
3.56635e-11
3.61714e-07
1.58087e-06
3.63178e-06
7.07042e-06
1.28076e-05
2.23181e-05
3.79572e-05
6.34273e-05
0.000104442
0.00016963
0.000271706
0.000428845
0.000666126
0.00101667
0.00152193
0.00223045
0.00319456
0.00446493
0.00608418
0.00808102
0.0104668
0.0132351
0.0163641
0.0198198
0.0235603
0.0275389
0.0317068
0.0360155
0.0404175
0.0448685
0.0493273
0.0537567
0.0581241
0.0624014
0.0665651
0.0705958
0.0744778
0.0781992
0.0817514
0.0851291
0.0883296
0.0913524
0.0941991
0.0968726
0.0993772
0.101718
0.1039
0.10593
0.107812
0.109551
0.111149
0.112604
0.113911
0.115054
0.116007
0.116724
0.117115
0.117087
0.116429
0.114821
0.111738
0.106293
0.0988107
0.090311
0.0814077
0.0724796
0.0637627
0.055421
0.0475587
0.040243
0.0335434
0.0274663
0.0217886
0.0167517
0.0124071
0.00878384
0.00589831
0.00373446
0.00222499
0.00125119
0.000668509
0.000342025
0.000168697
8.11233e-05
3.81944e-05
1.76554e-05
8.02298e-06
3.59143e-06
1.58496e-06
6.90822e-07
2.97598e-07
1.26897e-07
5.35947e-08
2.24351e-08
9.30558e-09
3.81455e-09
1.53431e-09
5.93174e-10
1.98987e-10
3.65975e-11
3.63014e-07
1.58655e-06
3.64483e-06
7.09585e-06
1.28538e-05
2.23987e-05
3.80946e-05
6.3657e-05
0.000104819
0.000170241
0.000272675
0.000430353
0.000668418
0.00102007
0.00152682
0.00223729
0.00320377
0.00447691
0.0060992
0.00809916
0.0104879
0.0132589
0.0163903
0.0198477
0.0235892
0.027568
0.0317355
0.036043
0.0404433
0.0448918
0.0493476
0.0537737
0.0581374
0.0624108
0.0665703
0.0705968
0.0744747
0.0781919
0.0817402
0.0851141
0.0883111
0.0913308
0.0941746
0.0968455
0.0993479
0.101687
0.103868
0.105897
0.107778
0.109517
0.111115
0.112572
0.11388
0.115027
0.115986
0.116711
0.117115
0.117107
0.116481
0.114923
0.111919
0.106604
0.0991946
0.0907328
0.0818453
0.0729185
0.0641929
0.0558342
0.0479497
0.040607
0.0338748
0.0277695
0.0220787
0.0170044
0.0126208
0.00895735
0.00603175
0.0038303
0.00228867
0.00129026
0.00069081
0.000354003
0.000174821
8.41257e-05
3.96279e-05
1.83241e-05
8.32885e-06
3.72878e-06
1.64565e-06
7.1725e-07
3.08959e-07
1.31726e-07
5.56266e-08
2.32827e-08
9.65582e-09
3.95777e-09
1.59137e-09
6.14524e-10
2.06083e-10
3.77703e-11
3.64586e-07
1.59341e-06
3.66061e-06
7.12662e-06
1.29096e-05
2.24964e-05
3.82613e-05
6.39362e-05
0.000105279
0.000170985
0.000273859
0.000432199
0.000671232
0.00102425
0.00153286
0.00224574
0.00321522
0.00449187
0.00611806
0.00812213
0.0105151
0.0132901
0.0164252
0.0198842
0.0236267
0.0276059
0.031773
0.0360792
0.0404775
0.0449233
0.0493757
0.0537978
0.0581572
0.0624258
0.0665803
0.0706018
0.0744746
0.0781867
0.08173
0.0850993
0.0882919
0.0913075
0.0941476
0.0968152
0.0993148
0.101651
0.10383
0.105858
0.107738
0.109477
0.111076
0.112534
0.113845
0.114996
0.115962
0.116698
0.117117
0.117131
0.116543
0.115045
0.112138
0.10698
0.0996585
0.0912423
0.082374
0.073449
0.0647133
0.0563345
0.0484233
0.0410485
0.0342775
0.0281367
0.0224295
0.0173105
0.0128802
0.00916839
0.00619445
0.00394751
0.00236679
0.00133833
0.000718307
0.000368793
0.000182387
8.78352e-05
4.13983e-05
1.91495e-05
8.70613e-06
3.89805e-06
1.7204e-06
7.49768e-07
3.22929e-07
1.37659e-07
5.81207e-08
2.43222e-08