/*--------------------------------*- C++ -*----------------------------------*\
  =========                 |
  \\      /  F ield         | OpenFOAM: The Open Source CFD Toolbox
   \\    /   O peration     | Website:  https://openfoam.org
    \\  /    A nd           | Version:  8
     \\/     M anipulation  |
\*---------------------------------------------------------------------------*/
FoamFile
{
    version     2.0;
    format      ascii;
    class       volScalarField;
    location    "0.45/fluid";
    object      N2;
}
// * * * * * * * * * * * * * * * * * * * * * * * * * * * * * * * * * * * * * //

dimensions      [0 0 0 0 0 0 0];

internalField   nonuniform List<scalar> 
4000
(
2.29503e-06
1.00303e-05
2.30447e-05
4.48764e-05
8.13449e-05
0.000141925
0.000241858
0.000405313
0.000669943
0.00109319
0.00176048
0.00279499
0.0043684
0.00670728
0.0100922
0.0148468
0.0213097
0.0297923
0.040532
0.0536574
0.0691732
0.086969
0.106842
0.128528
0.151725
0.176115
0.201383
0.227222
0.25344
0.279791
0.305937
0.331699
0.356919
0.381465
0.405228
0.428124
0.450087
0.471071
0.491049
0.510008
0.527951
0.544888
0.560839
0.575832
0.589899
0.603076
0.615401
0.626917
0.637664
0.647684
0.657018
0.665707
0.673791
0.681308
0.688294
0.694787
0.700818
0.706342
0.711422
0.716282
0.720811
0.725041
0.729009
0.732757
0.736317
0.739708
0.74294
0.746017
0.748938
0.751699
0.754291
0.756708
0.758934
0.760975
0.762884
0.764569
0.76603
0.767249
0.76821
0.768915
0.769388
0.769678
0.76984
0.769924
0.769965
0.769984
0.769993
0.769997
0.769999
0.769999
0.77
0.77
0.77
0.77
0.77
0.77
0.77
0.77
0.77
0.77
2.29249e-06
1.00207e-05
2.3029e-05
4.48635e-05
8.13578e-05
0.000142005
0.000242056
0.000405634
0.000670212
0.00109277
0.00175768
0.00278618
0.00434528
0.00665396
0.00998667
0.01466
0.0210059
0.0293331
0.0398832
0.0527949
0.068088
0.0856684
0.105349
0.126875
0.149956
0.174278
0.19953
0.225473
0.2518
0.278096
0.304264
0.330095
0.355413
0.380076
0.403966
0.426994
0.449088
0.470201
0.490302
0.509379
0.527431
0.544468
0.560512
0.575589
0.589731
0.602975
0.61536
0.626928
0.637721
0.64778
0.657148
0.665867
0.673975
0.681513
0.688518
0.695025
0.70107
0.706588
0.711675
0.716545
0.721081
0.725316
0.729289
0.733043
0.736609
0.740006
0.743242
0.746323
0.749248
0.752008
0.754598
0.757008
0.759218
0.761246
0.763126
0.764804
0.766243
0.767427
0.768346
0.769008
0.769445
0.769708
0.769854
0.76993
0.769967
0.769985
0.769993
0.769997
0.769999
0.769999
0.77
0.77
0.77
0.77
0.77
0.77
0.77
0.77
0.77
0.77
2.29459e-06
1.00312e-05
2.3059e-05
4.49359e-05
8.1512e-05
0.0001423
0.000242559
0.000406387
0.000671124
0.00109336
0.00175663
0.00278025
0.00432802
0.00661677
0.00991455
0.0145305
0.0207897
0.028996
0.0393898
0.0521139
0.0671967
0.0845561
0.104018
0.125343
0.14825
0.172436
0.197621
0.223547
0.24972
0.276033
0.302247
0.328153
0.353572
0.378353
0.402378
0.42555
0.447795
0.46906
0.489313
0.508538
0.526732
0.543904
0.560074
0.575267
0.589516
0.602858
0.615332
0.626979
0.63784
0.64796
0.657381
0.666145
0.674292
0.681862
0.688894
0.695425
0.701491
0.706996
0.712105
0.716989
0.721532
0.725771
0.729749
0.733507
0.737077
0.740477
0.743715
0.746794
0.749714
0.752464
0.75504
0.757429
0.759612
0.761621
0.763472
0.765099
0.766482
0.767609
0.768474
0.769089
0.76949
0.769732
0.769866
0.769935
0.76997
0.769986
0.769994
0.769997
0.769999
0.769999
0.77
0.77
0.77
0.77
0.77
0.77
0.77
0.77
0.77
0.77
2.28825e-06
1.00031e-05
2.29929e-05
4.48011e-05
8.12485e-05
0.000141786
0.000241549
0.000404391
0.000667202
0.00108579
0.00174243
0.00275466
0.00428422
0.00654357
0.00979631
0.0143468
0.0205163
0.0286065
0.0388587
0.05142
0.0663254
0.0835016
0.102784
0.123941
0.146698
0.170761
0.19591
0.221639
0.247797
0.274121
0.300372
0.32634
0.351842
0.376727
0.40087
0.424173
0.446557
0.467966
0.488365
0.507734
0.526069
0.543377
0.559677
0.574991
0.589354
0.602801
0.615369
0.627099
0.638036
0.648223
0.657701
0.666513
0.674701
0.682304
0.689361
0.695908
0.701982
0.707457
0.712689
0.717557
0.722091
0.726325
0.7303
0.734059
0.737629
0.741026
0.744259
0.747329
0.750235
0.752966
0.755517
0.757874
0.76002
0.762003
0.763811
0.765386
0.766716
0.767788
0.7686
0.769171
0.769539
0.769758
0.769879
0.769941
0.769972
0.769987
0.769994
0.769997
0.769999
0.77
0.77
0.77
0.77
0.77
0.77
0.77
0.77
0.77
0.77
0.77
2.27639e-06
9.95088e-06
2.28709e-05
4.45576e-05
8.07914e-05
0.000140951
0.000240044
0.000401699
0.000662424
0.00107739
0.00172786
0.0027298
0.00424269
0.00647598
0.00968956
0.0141839
0.020277
0.0282689
0.0384015
0.0508253
0.0655811
0.0826023
0.101731
0.122744
0.145371
0.169343
0.194317
0.220014
0.246157
0.272487
0.298766
0.324784
0.350357
0.375329
0.399575
0.422991
0.445498
0.467035
0.487565
0.507066
0.52553
0.542964
0.559384
0.574814
0.589284
0.602827
0.615484
0.627296
0.638305
0.648554
0.658087
0.666946
0.675172
0.682807
0.689888
0.696453
0.702539
0.708019
0.713265
0.718137
0.72267
0.726901
0.730874
0.734631
0.738197
0.741589
0.744813
0.74787
0.750756
0.753463
0.755983
0.758301
0.76041
0.762369
0.764128
0.765653
0.76693
0.767948
0.768712
0.769242
0.76958
0.76978
0.76989
0.769947
0.769975
0.769988
0.769995
0.769998
0.769999
0.77
0.77
0.77
0.77
0.77
0.77
0.77
0.77
0.77
0.77
0.77
2.26005e-06
9.8789e-06
2.27029e-05
4.4223e-05
8.01668e-05
0.000139823
0.000238043
0.0003982
0.000656379
0.00106709
0.00171057
0.00270132
0.0041968
0.0064039
0.00957962
0.0140216
0.0200458
0.0279515
0.0379821
0.0502912
0.0649244
0.0818207
0.100828
0.121728
0.144255
0.168175
0.193058
0.2187
0.244817
0.271146
0.297448
0.323508
0.349141
0.37419
0.398525
0.42204
0.444653
0.466303
0.486947
0.506563
0.525141
0.542686
0.559214
0.574745
0.589307
0.602937
0.615674
0.627557
0.63863
0.648935
0.658516
0.667416
0.675676
0.683337
0.690439
0.69702
0.703103
0.708585
0.713835
0.718707
0.723236
0.727462
0.731432
0.735184
0.738746
0.74213
0.745342
0.748383
0.751248
0.753929
0.756417
0.758695
0.760768
0.762704
0.764417
0.765893
0.767121
0.768091
0.768811
0.769305
0.769617
0.7698
0.7699
0.769952
0.769977
0.76999
0.769995
0.769998
0.769999
0.77
0.77
0.77
0.77
0.77
0.77
0.77
0.77
0.77
0.77
0.77
2.24201e-06
9.7997e-06
2.25193e-05
4.38602e-05
7.94973e-05
0.000138629
0.00023596
0.000394617
0.000650302
0.00105692
0.00169382
0.0026742
0.00415382
0.0063374
0.00947951
0.0138755
0.0198398
0.0276713
0.037615
0.0498274
0.0643585
0.0811525
0.100063
0.120874
0.143332
0.167127
0.19198
0.217601
0.243712
0.270052
0.29638
0.322482
0.348171
0.373288
0.397701
0.421304
0.44401
0.465757
0.486501
0.506216
0.524893
0.542535
0.559153
0.574769
0.589412
0.603117
0.615921
0.627865
0.638992
0.649344
0.658965
0.667898
0.676185
0.683867
0.690985
0.697576
0.703648
0.709128
0.714377
0.719245
0.723769
0.727989
0.731953
0.7357
0.739255
0.742629
0.745829
0.748854
0.751698
0.754352
0.75681
0.759051
0.761097
0.762996
0.76467
0.766104
0.767288
0.768216
0.768897
0.76936
0.769649
0.769817
0.769909
0.769956
0.769979
0.76999
0.769996
0.769998
0.769999
0.77
0.77
0.77
0.77
0.77
0.77
0.77
0.77
0.77
0.77
0.77
2.22368e-06
9.71932e-06
2.23333e-05
4.34941e-05
7.88243e-05
0.000137435
0.000233888
0.00039108
0.000644349
0.00104705
0.00167772
0.00264845
0.00411346
0.0062757
0.0093878
0.0137434
0.0196556
0.0274237
0.0372938
0.0494253
0.063872
0.0805817
0.0994117
0.120151
0.142565
0.166299
0.191113
0.216715
0.242823
0.269175
0.295529
0.321672
0.347413
0.372591
0.397074
0.420753
0.443541
0.465372
0.486201
0.506002
0.524763
0.542485
0.55918
0.574868
0.589579
0.603346
0.616206
0.6282
0.63937
0.64976
0.659412
0.668371
0.676678
0.684375
0.691503
0.6981
0.704152
0.709628
0.714875
0.719738
0.724256
0.72847
0.732428
0.736169
0.739717
0.743081
0.746267
0.749277
0.752099
0.75473
0.757159
0.759367
0.761387
0.763254
0.764892
0.766289
0.767434
0.768324
0.768971
0.769406
0.769676
0.769832
0.769916
0.76996
0.769981
0.769991
0.769996
0.769998
0.769999
0.77
0.77
0.77
0.77
0.77
0.77
0.77
0.77
0.77
0.77
0.77
2.20613e-06
9.64252e-06
2.2156e-05
4.31462e-05
7.81871e-05
0.00013631
0.000231945
0.000387784
0.00063884
0.00103799
0.00166305
0.00262514
0.00407723
0.00622075
0.00930671
0.0136274
0.0194951
0.0272093
0.0370176
0.0490819
0.063459
0.0800999
0.0988646
0.119543
0.141883
0.165598
0.190397
0.215994
0.242108
0.268477
0.29486
0.321041
0.34683
0.372064
0.396609
0.420355
0.443213
0.465116
0.486018
0.505892
0.524724
0.542513
0.559271
0.57502
0.589787
0.603604
0.616509
0.628543
0.639748
0.650167
0.659844
0.668821
0.677143
0.68485
0.691983
0.698582
0.704606
0.710079
0.715323
0.720181
0.724693
0.728901
0.732853
0.736589
0.740128
0.743482
0.746656
0.74965
0.752453
0.755062
0.757465
0.759644
0.761643
0.76348
0.765086
0.766449
0.76756
0.768417
0.769035
0.769446
0.769699
0.769845
0.769923
0.769963
0.769982
0.769992
0.769996
0.769998
0.769999
0.77
0.77
0.77
0.77
0.77
0.77
0.77
0.77
0.77
0.77
0.77
2.18995e-06
9.5717e-06
2.19927e-05
4.28264e-05
7.76028e-05
0.000135281
0.000230175
0.00038479
0.000633858
0.00102983
0.00164991
0.00260438
0.00404516
0.0061724
0.00923582
0.0135266
0.0193565
0.0270255
0.0367824
0.0487914
0.0631125
0.0797003
0.0984187
0.119068
0.14136
0.165045
0.189828
0.215421
0.241542
0.267929
0.29434
0.320557
0.34639
0.371674
0.396273
0.420078
0.442996
0.464961
0.485926
0.50586
0.524749
0.542595
0.559407
0.575205
0.590016
0.603874
0.616816
0.628882
0.640113
0.650554
0.660249
0.66924
0.677572
0.685285
0.69242
0.699019
0.705012
0.710482
0.715722
0.720575
0.72508
0.729282
0.733229
0.736958
0.74049
0.743835
0.746997
0.749976
0.752762
0.75535
0.757729
0.759885
0.761866
0.763677
0.765255
0.766588
0.767668
0.768497
0.769089
0.76948
0.769719
0.769855
0.769928
0.769965
0.769984
0.769992
0.769997
0.769998
0.769999
0.77
0.77
0.77
0.77
0.77
0.77
0.77
0.77
0.77
0.77
0.77
2.17542e-06
9.50819e-06
2.18465e-05
4.25403e-05
7.70811e-05
0.000134364
0.000228602
0.00038214
0.000629462
0.00102265
0.0016384
0.00258629
0.00401733
0.00613064
0.00917488
0.0134404
0.0192386
0.0268696
0.0365837
0.0485466
0.0628202
0.0793606
0.0980317
0.118637
0.140916
0.164589
0.189368
0.214964
0.241097
0.267503
0.293941
0.320191
0.346063
0.371391
0.396039
0.419893
0.442864
0.464881
0.485897
0.505882
0.52482
0.542712
0.559567
0.575405
0.590253
0.604143
0.617113
0.629203
0.640455
0.650913
0.660621
0.669622
0.67796
0.685677
0.692815
0.699413
0.705378
0.710842
0.716076
0.720922
0.725421
0.729617
0.733558
0.737281
0.740806
0.744142
0.747293
0.750258
0.753028
0.755599
0.757957
0.760091
0.76206
0.763848
0.7654
0.766707
0.767761
0.768564
0.769134
0.769508
0.769735
0.769864
0.769933
0.769968
0.769985
0.769993
0.769997
0.769999
0.769999
0.77
0.77
0.77
0.77
0.77
0.77
0.77
0.77
0.77
0.77
0.77
2.16267e-06
9.45244e-06
2.17182e-05
4.22897e-05
7.66247e-05
0.000133564
0.000227232
0.000379835
0.000625651
0.00101645
0.00162849
0.00257076
0.00399352
0.00609505
0.00912317
0.0133676
0.0191395
0.0267395
0.036419
0.0483458
0.062584
0.0790922
0.097737
0.118313
0.14057
0.164232
0.189007
0.214607
0.240751
0.267176
0.293638
0.319919
0.345826
0.371192
0.395881
0.419778
0.442793
0.464854
0.485913
0.50594
0.524918
0.542848
0.559738
0.575608
0.590484
0.6044
0.617391
0.6295
0.640767
0.651237
0.660953
0.669961
0.678302
0.686022
0.69316
0.699757
0.705695
0.711156
0.716387
0.721227
0.725719
0.729909
0.733845
0.737562
0.741079
0.744406
0.747548
0.750501
0.753257
0.755811
0.758151
0.760268
0.762227
0.763994
0.765524
0.766809
0.76784
0.768621
0.769172
0.769532
0.769749
0.769871
0.769936
0.769969
0.769986
0.769993
0.769997
0.769999
0.769999
0.77
0.77
0.77
0.77
0.77
0.77
0.77
0.77
0.77
0.77
0.77
2.15169e-06
9.40444e-06
2.16078e-05
4.20742e-05
7.62329e-05
0.000132878
0.000226059
0.000377867
0.000622402
0.00101118
0.00162008
0.00255762
0.00397344
0.00606513
0.00907982
0.0133067
0.0190569
0.0266314
0.0362827
0.0481801
0.0623898
0.0788726
0.0974982
0.118052
0.140295
0.163948
0.188723
0.214328
0.240485
0.266927
0.293412
0.31972
0.345657
0.371056
0.39578
0.419714
0.442766
0.464863
0.485958
0.506019
0.52503
0.54299
0.559908
0.575803
0.590702
0.604637
0.617645
0.629767
0.641044
0.651522
0.661244
0.670254
0.678596
0.686314
0.693451
0.700047
0.705964
0.711434
0.716663
0.721497
0.725981
0.730164
0.734093
0.737803
0.741313
0.744633
0.747765
0.750707
0.753451
0.755992
0.758316
0.760418
0.76237
0.764118
0.76563
0.766895
0.767906
0.768669
0.769204
0.769551
0.76976
0.769877
0.769939
0.769971
0.769986
0.769994
0.769997
0.769999
0.769999
0.77
0.77
0.77
0.77
0.77
0.77
0.77
0.77
0.77
0.77
0.77
2.14241e-06
9.36389e-06
2.15146e-05
4.18924e-05
7.59026e-05
0.0001323
0.000225073
0.000376215
0.000619681
0.00100677
0.00161307
0.00254668
0.00395677
0.00604034
0.009044
0.0132565
0.0189889
0.0265426
0.0361707
0.0480436
0.0622286
0.0786872
0.0972907
0.117835
0.140072
0.163723
0.1885
0.214113
0.240281
0.26674
0.293245
0.319576
0.345539
0.370967
0.395721
0.419685
0.442767
0.464895
0.486019
0.506108
0.525145
0.543129
0.560069
0.575984
0.5909
0.60485
0.61787
0.630001
0.641286
0.651768
0.661492
0.670501
0.67884
0.686551
0.693676
0.700255
0.70613
0.711741
0.716935
0.721746
0.726214
0.730385
0.734306
0.738009
0.741512
0.744824
0.747949
0.750881
0.753615
0.756143
0.758453
0.760544
0.762489
0.764223
0.765718
0.766966
0.767961
0.768709
0.769231
0.769567
0.769769
0.769882
0.769942
0.769972
0.769987
0.769994
0.769997
0.769999
0.769999
0.77
0.77
0.77
0.77
0.77
0.77
0.77
0.77
0.77
0.77
0.77
2.13473e-06
9.33035e-06
2.14375e-05
4.17422e-05
7.56299e-05
0.000131824
0.000224261
0.000374857
0.000617446
0.00100316
0.00160733
0.00253775
0.00394318
0.00602019
0.00901496
0.013216
0.0189342
0.0264714
0.0360815
0.0479359
0.0621029
0.0785454
0.0971347
0.117669
0.1399
0.16355
0.188329
0.213949
0.240128
0.266601
0.293124
0.319475
0.34546
0.370912
0.39569
0.419679
0.442786
0.464938
0.486086
0.506197
0.525255
0.543258
0.560216
0.576146
0.591075
0.605036
0.618065
0.630203
0.641493
0.651978
0.661702
0.670711
0.679048
0.686756
0.693877
0.700452
0.706324
0.711943
0.717135
0.721941
0.726402
0.730567
0.734482
0.738179
0.741676
0.744982
0.7481
0.751024
0.753749
0.756268
0.758567
0.760647
0.762588
0.764308
0.765791
0.767025
0.768007
0.768741
0.769252
0.769581
0.769777
0.769886
0.769944
0.769973
0.769987
0.769994
0.769997
0.769999
0.769999
0.77
0.77
0.77
0.77
0.77
0.77
0.77
0.77
0.77
0.77
0.77
2.12854e-06
9.30333e-06
2.13754e-05
4.16213e-05
7.54106e-05
0.000131441
0.000223609
0.000373767
0.000615656
0.00100027
0.00160275
0.00253063
0.00393237
0.00600419
0.00899195
0.0131839
0.0188911
0.0264155
0.0360118
0.0478522
0.0620065
0.0784386
0.0970164
0.117543
0.139769
0.163419
0.188201
0.213827
0.240015
0.266501
0.293038
0.319405
0.345409
0.370879
0.395677
0.419686
0.442813
0.464985
0.486151
0.50628
0.525354
0.543372
0.560343
0.576285
0.591224
0.605193
0.618229
0.630372
0.641665
0.652152
0.661878
0.670886
0.679222
0.686928
0.694047
0.700619
0.706489
0.712105
0.717293
0.722094
0.72655
0.730711
0.734622
0.738316
0.741808
0.745109
0.748222
0.75114
0.753857
0.756368
0.758658
0.76073
0.762668
0.764377
0.765849
0.767072
0.768043
0.768767
0.769269
0.769591
0.769782
0.769889
0.769946
0.769974
0.769988
0.769994
0.769997
0.769999
0.769999
0.77
0.77
0.77
0.77
0.77
0.77
0.77
0.77
0.77
0.77
0.77
2.12374e-06
9.28235e-06
2.13273e-05
4.15275e-05
7.52406e-05
0.000131144
0.000223104
0.000372925
0.000614273
0.000998035
0.00159922
0.00252515
0.00392405
0.00599189
0.00897429
0.0131593
0.0188581
0.0263727
0.0359582
0.0477876
0.061931
0.0783528
0.0969247
0.117447
0.139671
0.163321
0.188107
0.213738
0.239934
0.26643
0.292978
0.319359
0.345377
0.370862
0.395676
0.4197
0.442842
0.465029
0.486209
0.506351
0.525438
0.543467
0.560448
0.576398
0.591345
0.60532
0.618361
0.630508
0.641803
0.652292
0.662018
0.671026
0.679361
0.687065
0.694182
0.700752
0.706618
0.712231
0.717415
0.722213
0.726665
0.730822
0.734731
0.738421
0.741911
0.745208
0.748316
0.751229
0.753942
0.756447
0.758728
0.760796
0.762727
0.76443
0.765893
0.767108
0.76807
0.768786
0.769282
0.769599
0.769787
0.769892
0.769947
0.769975
0.769988
0.769994
0.769998
0.769999
0.77
0.77
0.77
0.77
0.77
0.77
0.77
0.77
0.77
0.77
0.77
0.77
2.12022e-06
9.26702e-06
2.12921e-05
4.1459e-05
7.51164e-05
0.000130928
0.000222736
0.00037231
0.000613266
0.00099641
0.00159665
0.00252116
0.00391802
0.00598298
0.0089615
0.0131416
0.0188342
0.0263418
0.0359197
0.0477413
0.0618774
0.0782929
0.0968599
0.117379
0.139602
0.163253
0.188041
0.213677
0.239879
0.266382
0.292939
0.31933
0.345358
0.370855
0.395679
0.419715
0.442868
0.465066
0.486256
0.506408
0.525504
0.543541
0.560528
0.576485
0.591437
0.605416
0.61846
0.630609
0.641907
0.652396
0.662122
0.67113
0.679464
0.687167
0.694281
0.700849
0.706713
0.712323
0.717505
0.722299
0.726749
0.730904
0.73481
0.738498
0.741985
0.74528
0.748386
0.751295
0.754003
0.756504
0.75878
0.760844
0.762771
0.764468
0.765925
0.767134
0.76809
0.768801
0.769291
0.769605
0.76979
0.769893
0.769948
0.769975
0.769988
0.769995
0.769998
0.769999
0.77
0.77
0.77
0.77
0.77
0.77
0.77
0.77
0.77
0.77
0.77
0.77
2.11793e-06
9.25702e-06
2.12691e-05
4.14143e-05
7.50355e-05
0.000130787
0.000222496
0.000371911
0.000612611
0.000995356
0.00159498
0.00251858
0.00391411
0.00597721
0.00895324
0.0131301
0.0188188
0.026322
0.035895
0.0477118
0.0618433
0.0782548
0.0968188
0.117336
0.139559
0.16321
0.188
0.213638
0.239845
0.266352
0.292916
0.319313
0.345348
0.370852
0.395683
0.419727
0.442887
0.465092
0.486289
0.506447
0.525548
0.543591
0.560583
0.576543
0.591498
0.60548
0.618527
0.630677
0.641976
0.652466
0.662192
0.671199
0.679532
0.687234
0.694348
0.700914
0.706775
0.712384
0.717564
0.722356
0.726804
0.730957
0.734862
0.738548
0.742034
0.745327
0.748431
0.751338
0.754044
0.756541
0.758814
0.760875
0.762799
0.764492
0.765946
0.767151
0.768103
0.76881
0.769297
0.769608
0.769792
0.769895
0.769948
0.769975
0.769988
0.769995
0.769998
0.769999
0.77
0.77
0.77
0.77
0.77
0.77
0.77
0.77
0.77
0.77
0.77
0.77
2.11682e-06
9.25215e-06
2.1258e-05
4.13927e-05
7.49964e-05
0.000130719
0.000222381
0.00037172
0.000612299
0.000994854
0.00159419
0.00251736
0.00391226
0.00597449
0.00894934
0.0131247
0.0188116
0.0263126
0.0358834
0.0476978
0.0618271
0.0782368
0.0967994
0.117316
0.139538
0.163189
0.18798
0.21362
0.239828
0.266339
0.292905
0.319305
0.345343
0.370851
0.395686
0.419733
0.442897
0.465105
0.486306
0.506467
0.525571
0.543616
0.56061
0.576572
0.591529
0.605512
0.618559
0.630711
0.64201
0.6525
0.662226
0.671234
0.679566
0.687267
0.69438
0.700946
0.706806
0.712414
0.717593
0.722384
0.726831
0.730983
0.734887
0.738573
0.742058
0.74535
0.748453
0.751359
0.754063
0.756559
0.758831
0.760891
0.762812
0.764504
0.765956
0.767159
0.768109
0.768814
0.7693
0.76961
0.769793
0.769895
0.769949
0.769975
0.769988
0.769995
0.769998
0.769999
0.77
0.77
0.77
0.77
0.77
0.77
0.77
0.77
0.77
0.77
0.77
0.77
2.11682e-06
9.25214e-06
2.12579e-05
4.13927e-05
7.49963e-05
0.000130719
0.000222381
0.000371719
0.000612298
0.000994854
0.00159419
0.00251736
0.00391226
0.00597449
0.00894934
0.0131247
0.0188116
0.0263126
0.0358833
0.0476978
0.0618271
0.0782368
0.0967994
0.117316
0.139538
0.163189
0.18798
0.21362
0.239828
0.266339
0.292905
0.319305
0.345343
0.370851
0.395686
0.419733
0.442897
0.465105
0.486306
0.506467
0.525571
0.543616
0.56061
0.576572
0.591529
0.605512
0.61856
0.630711
0.64201
0.6525
0.662226
0.671234
0.679566
0.687267
0.69438
0.700946
0.706806
0.712414
0.717593
0.722384
0.726831
0.730983
0.734887
0.738573
0.742058
0.74535
0.748453
0.751359
0.754063
0.756559
0.758831
0.760891
0.762812
0.764504
0.765956
0.767159
0.768109
0.768814
0.7693
0.76961
0.769793
0.769895
0.769949
0.769975
0.769988
0.769995
0.769998
0.769999
0.77
0.77
0.77
0.77
0.77
0.77
0.77
0.77
0.77
0.77
0.77
0.77
2.11793e-06
9.25699e-06
2.1269e-05
4.14142e-05
7.50353e-05
0.000130786
0.000222496
0.00037191
0.00061261
0.000995354
0.00159498
0.00251858
0.0039141
0.00597721
0.00895323
0.0131301
0.0188188
0.0263219
0.035895
0.0477117
0.0618432
0.0782547
0.0968188
0.117336
0.139559
0.16321
0.187999
0.213638
0.239845
0.266352
0.292916
0.319313
0.345348
0.370852
0.395683
0.419727
0.442887
0.465092
0.486289
0.506447
0.525548
0.543591
0.560583
0.576543
0.591498
0.60548
0.618527
0.630677
0.641976
0.652466
0.662192
0.671199
0.679532
0.687234
0.694348
0.700914
0.706775
0.712384
0.717564
0.722356
0.726804
0.730957
0.734862
0.738549
0.742034
0.745327
0.748431
0.751338
0.754044
0.756541
0.758814
0.760876
0.762799
0.764492
0.765946
0.767151
0.768103
0.76881
0.769297
0.769608
0.769792
0.769895
0.769948
0.769975
0.769988
0.769995
0.769998
0.769999
0.77
0.77
0.77
0.77
0.77
0.77
0.77
0.77
0.77
0.77
0.77
0.77
2.12021e-06
9.26697e-06
2.1292e-05
4.14588e-05
7.5116e-05
0.000130927
0.000222735
0.000372309
0.000613263
0.000996407
0.00159664
0.00252116
0.003918
0.00598296
0.00896148
0.0131415
0.0188342
0.0263418
0.0359196
0.0477413
0.0618773
0.0782928
0.0968599
0.117379
0.139602
0.163253
0.188041
0.213677
0.239879
0.266382
0.292939
0.31933
0.345358
0.370855
0.395679
0.419715
0.442868
0.465066
0.486256
0.506408
0.525504
0.543541
0.560529
0.576485
0.591437
0.605416
0.61846
0.63061
0.641907
0.652396
0.662123
0.67113
0.679464
0.687167
0.694282
0.700849
0.706713
0.712323
0.717505
0.722299
0.726749
0.730904
0.73481
0.738498
0.741985
0.74528
0.748386
0.751295
0.754003
0.756504
0.75878
0.760844
0.762771
0.764468
0.765925
0.767134
0.76809
0.768801
0.769291
0.769605
0.76979
0.769893
0.769948
0.769975
0.769988
0.769995
0.769998
0.769999
0.77
0.77
0.77
0.77
0.77
0.77
0.77
0.77
0.77
0.77
0.77
0.77
2.12372e-06
9.28228e-06
2.13271e-05
4.15273e-05
7.52401e-05
0.000131143
0.000223103
0.000372923
0.00061427
0.00099803
0.00159921
0.00252514
0.00392404
0.00599187
0.00897426
0.0131593
0.018858
0.0263726
0.0359581
0.0477875
0.0619309
0.0783527
0.0969246
0.117447
0.139671
0.163321
0.188107
0.213738
0.239934
0.26643
0.292978
0.319359
0.345377
0.370862
0.395676
0.4197
0.442842
0.465029
0.486209
0.506351
0.525438
0.543468
0.560448
0.576398
0.591345
0.60532
0.618361
0.630508
0.641803
0.652292
0.662018
0.671026
0.679361
0.687065
0.694182
0.700752
0.706618
0.712231
0.717416
0.722213
0.726665
0.730822
0.734731
0.738421
0.741911
0.745208
0.748317
0.75123
0.753942
0.756447
0.758729
0.760796
0.762727
0.76443
0.765893
0.767108
0.76807
0.768786
0.769282
0.769599
0.769787
0.769892
0.769947
0.769975
0.769988
0.769994
0.769998
0.769999
0.77
0.77
0.77
0.77
0.77
0.77
0.77
0.77
0.77
0.77
0.77
0.77
2.12852e-06
9.30324e-06
2.13752e-05
4.1621e-05
7.541e-05
0.00013144
0.000223607
0.000373765
0.000615652
0.00100026
0.00160274
0.00253062
0.00393235
0.00600416
0.00899191
0.0131839
0.0188911
0.0264155
0.0360117
0.0478521
0.0620064
0.0784385
0.0970163
0.117543
0.139769
0.163418
0.188201
0.213827
0.240015
0.266501
0.293038
0.319405
0.345409
0.37088
0.395677
0.419686
0.442813
0.464985
0.486151
0.50628
0.525354
0.543373
0.560343
0.576285
0.591224
0.605193
0.618229
0.630372
0.641665
0.652152
0.661878
0.670887
0.679222
0.686928
0.694047
0.70062
0.706489
0.712105
0.717294
0.722094
0.72655
0.730711
0.734622
0.738316
0.741809
0.745109
0.748222
0.75114
0.753858
0.756369
0.758658
0.76073
0.762668
0.764377
0.765849
0.767072
0.768043
0.768767
0.769269
0.769591
0.769782
0.769889
0.769946
0.769974
0.769988
0.769994
0.769997
0.769999
0.769999
0.77
0.77
0.77
0.77
0.77
0.77
0.77
0.77
0.77
0.77
0.77
2.1347e-06
9.33024e-06
2.14373e-05
4.17418e-05
7.56292e-05
0.000131822
0.000224259
0.000374853
0.000617441
0.00100315
0.00160732
0.00253773
0.00394316
0.00602015
0.00901491
0.0132159
0.0189342
0.0264713
0.0360814
0.0479357
0.0621028
0.0785453
0.0971346
0.117669
0.1399
0.16355
0.188329
0.213949
0.240128
0.266601
0.293124
0.319475
0.34546
0.370912
0.39569
0.419679
0.442786
0.464938
0.486086
0.506197
0.525255
0.543259
0.560216
0.576146
0.591075
0.605036
0.618065
0.630203
0.641493
0.651978
0.661703
0.670712
0.679048
0.686756
0.693877
0.700452
0.706325
0.711944
0.717136
0.721941
0.726402
0.730567
0.734482
0.738179
0.741677
0.744982
0.7481
0.751025
0.753749
0.756268
0.758567
0.760647
0.762588
0.764308
0.765791
0.767025
0.768007
0.768741
0.769252
0.769581
0.769777
0.769886
0.769944
0.769973
0.769987
0.769994
0.769997
0.769999
0.769999
0.77
0.77
0.77
0.77
0.77
0.77
0.77
0.77
0.77
0.77
0.77
2.14238e-06
9.36377e-06
2.15143e-05
4.18919e-05
7.59017e-05
0.000132299
0.00022507
0.000376211
0.000619675
0.00100676
0.00161306
0.00254666
0.00395674
0.0060403
0.00904394
0.0132564
0.0189888
0.0265425
0.0361705
0.0480435
0.0622285
0.0786871
0.0972905
0.117835
0.140072
0.163723
0.1885
0.214113
0.240281
0.26674
0.293245
0.319576
0.345539
0.370967
0.395721
0.419685
0.442767
0.464895
0.486019
0.506108
0.525145
0.543129
0.560069
0.575984
0.5909
0.60485
0.61787
0.630001
0.641286
0.651768
0.661492
0.670501
0.67884
0.686551
0.693677
0.700255
0.70613
0.711741
0.716935
0.721746
0.726214
0.730386
0.734307
0.73801
0.741512
0.744824
0.747949
0.750881
0.753615
0.756144
0.758454
0.760544
0.762489
0.764223
0.765718
0.766966
0.767961
0.768709
0.769231
0.769567
0.769769
0.769882
0.769942
0.769972
0.769987
0.769994
0.769997
0.769999
0.769999
0.77
0.77
0.77
0.77
0.77
0.77
0.77
0.77
0.77
0.77
0.77
2.15165e-06
9.40429e-06
2.16074e-05
4.20736e-05
7.62318e-05
0.000132876
0.000226056
0.000377863
0.000622395
0.00101117
0.00162007
0.0025576
0.00397341
0.00606508
0.00907976
0.0133066
0.0190568
0.0266313
0.0362825
0.0481799
0.0623896
0.0788723
0.097498
0.118052
0.140295
0.163948
0.188723
0.214328
0.240484
0.266927
0.293412
0.31972
0.345657
0.371056
0.39578
0.419714
0.442766
0.464864
0.485958
0.506019
0.52503
0.54299
0.559908
0.575803
0.590702
0.604637
0.617645
0.629767
0.641045
0.651522
0.661244
0.670254
0.678597
0.686315
0.693451
0.700048
0.705964
0.711434
0.716664
0.721498
0.725982
0.730164
0.734093
0.737804
0.741314
0.744633
0.747766
0.750707
0.753451
0.755992
0.758316
0.760418
0.76237
0.764118
0.76563
0.766895
0.767906
0.768669
0.769204
0.769551
0.76976
0.769877
0.769939
0.769971
0.769986
0.769994
0.769997
0.769999
0.769999
0.77
0.77
0.77
0.77
0.77
0.77
0.77
0.77
0.77
0.77
0.77
2.16263e-06
9.45227e-06
2.17178e-05
4.2289e-05
7.66235e-05
0.000133562
0.000227228
0.00037983
0.000625642
0.00101644
0.00162847
0.00257073
0.00399348
0.006095
0.0091231
0.0133674
0.0191393
0.0267394
0.0364189
0.0483456
0.0625838
0.079092
0.0977369
0.118313
0.14057
0.164232
0.189007
0.214607
0.240751
0.267176
0.293638
0.319919
0.345826
0.371192
0.395881
0.419778
0.442793
0.464855
0.485914
0.50594
0.524919
0.542848
0.559738
0.575608
0.590484
0.6044
0.617392
0.6295
0.640767
0.651237
0.660954
0.669961
0.678303
0.686022
0.69316
0.699757
0.705695
0.711156
0.716387
0.721228
0.725719
0.729909
0.733845
0.737562
0.741079
0.744406
0.747548
0.750501
0.753257
0.755812
0.758152
0.760268
0.762227
0.763994
0.765524
0.766809
0.76784
0.768621
0.769172
0.769532
0.769749
0.769871
0.769936
0.769969
0.769986
0.769993
0.769997
0.769999
0.769999
0.77
0.77
0.77
0.77
0.77
0.77
0.77
0.77
0.77
0.77
0.77
2.17538e-06
9.508e-06
2.1846e-05
4.25395e-05
7.70797e-05
0.000134362
0.000228598
0.000382134
0.000629453
0.00102264
0.00163838
0.00258626
0.00401729
0.00613057
0.00917479
0.0134403
0.0192384
0.0268695
0.0365835
0.0485464
0.06282
0.0793603
0.0980313
0.118637
0.140916
0.164589
0.189368
0.214964
0.241097
0.267503
0.293941
0.320191
0.346063
0.371391
0.396039
0.419893
0.442864
0.464881
0.485898
0.505882
0.52482
0.542712
0.559567
0.575405
0.590253
0.604143
0.617113
0.629203
0.640456
0.650913
0.660621
0.669622
0.67796
0.685677
0.692815
0.699413
0.705379
0.710842
0.716077
0.720923
0.725421
0.729617
0.733559
0.737282
0.740806
0.744142
0.747293
0.750258
0.753028
0.755599
0.757957
0.760091
0.76206
0.763848
0.7654
0.766707
0.767761
0.768564
0.769134
0.769508
0.769735
0.769864
0.769933
0.769968
0.769985
0.769993
0.769997
0.769999
0.769999
0.77
0.77
0.77
0.77
0.77
0.77
0.77
0.77
0.77
0.77
0.77
2.1899e-06
9.57149e-06
2.19922e-05
4.28255e-05
7.76012e-05
0.000135278
0.00023017
0.000384783
0.000633848
0.00102981
0.00164988
0.00260435
0.00404511
0.00617232
0.00923572
0.0135264
0.0193564
0.0270253
0.0367821
0.0487911
0.0631122
0.0796999
0.0984183
0.119068
0.14136
0.165044
0.189828
0.215421
0.241542
0.267929
0.29434
0.320557
0.34639
0.371674
0.396274
0.420078
0.442996
0.464961
0.485926
0.50586
0.52475
0.542595
0.559407
0.575205
0.590017
0.603875
0.616816
0.628882
0.640114
0.650555
0.660249
0.669241
0.677572
0.685285
0.692421
0.699019
0.705013
0.710483
0.715723
0.720575
0.72508
0.729283
0.73323
0.736959
0.74049
0.743835
0.746998
0.749976
0.752762
0.75535
0.757729
0.759885
0.761866
0.763677
0.765255
0.766588
0.767668
0.768497
0.769089
0.76948
0.769719
0.769855
0.769928
0.769965
0.769984
0.769992
0.769997
0.769998
0.769999
0.77
0.77
0.77
0.77
0.77
0.77
0.77
0.77
0.77
0.77
0.77
2.20608e-06
9.64228e-06
2.21555e-05
4.31452e-05
7.81853e-05
0.000136307
0.00023194
0.000387776
0.000638828
0.00103797
0.00166302
0.0026251
0.00407718
0.00622067
0.0093066
0.0136272
0.0194949
0.0272091
0.0370174
0.0490816
0.0634586
0.0800996
0.0988643
0.119543
0.141883
0.165597
0.190397
0.215994
0.242108
0.268477
0.29486
0.321041
0.34683
0.372064
0.396609
0.420355
0.443213
0.465116
0.486019
0.505893
0.524724
0.542513
0.559272
0.575021
0.589787
0.603604
0.61651
0.628544
0.639749
0.650168
0.659844
0.668822
0.677143
0.68485
0.691983
0.698582
0.704606
0.71008
0.715323
0.720182
0.724693
0.728901
0.732854
0.736589
0.740128
0.743483
0.746657
0.74965
0.752453
0.755062
0.757465
0.759644
0.761643
0.76348
0.765086
0.766449
0.76756
0.768417
0.769035
0.769446
0.769699
0.769845
0.769923
0.769963
0.769982
0.769992
0.769996
0.769998
0.769999
0.77
0.77
0.77
0.77
0.77
0.77
0.77
0.77
0.77
0.77
0.77
2.22361e-06
9.71906e-06
2.23327e-05
4.3493e-05
7.88223e-05
0.000137432
0.000233882
0.000391071
0.000644336
0.00104703
0.00167769
0.0026484
0.0041134
0.00627561
0.00938767
0.0137432
0.0196554
0.0274234
0.0372935
0.049425
0.0638716
0.0805813
0.0994113
0.12015
0.142565
0.166299
0.191113
0.216714
0.242823
0.269175
0.295529
0.321672
0.347413
0.372591
0.397075
0.420754
0.443541
0.465372
0.486201
0.506002
0.524764
0.542486
0.55918
0.574869
0.589579
0.603346
0.616206
0.6282
0.639371
0.64976
0.659413
0.668371
0.676679
0.684376
0.691504
0.698101
0.704152
0.709629
0.714875
0.719739
0.724256
0.72847
0.732428
0.73617
0.739717
0.743081
0.746268
0.749277
0.7521
0.75473
0.757159
0.759367
0.761387
0.763254
0.764892
0.766289
0.767434
0.768324
0.768971
0.769406
0.769676
0.769832