/*--------------------------------*- C++ -*----------------------------------*\
  =========                 |
  \\      /  F ield         | OpenFOAM: The Open Source CFD Toolbox
   \\    /   O peration     | Website:  https://openfoam.org
    \\  /    A nd           | Version:  8
     \\/     M anipulation  |
\*---------------------------------------------------------------------------*/
FoamFile
{
    version     2.0;
    format      ascii;
    class       volScalarField;
    location    "0.45/fluid";
    object      O2;
}
// * * * * * * * * * * * * * * * * * * * * * * * * * * * * * * * * * * * * * //

dimensions      [0 0 0 0 0 0 0];

internalField   nonuniform List<scalar> 
4000
(
4.48689e-11
1.96085e-10
4.50437e-10
8.76936e-10
1.58893e-09
2.77091e-09
4.71917e-09
7.90281e-09
1.30515e-08
2.12763e-08
3.42195e-08
5.42471e-08
8.4628e-08
1.29665e-07
1.94657e-07
2.85647e-07
4.08858e-07
5.6987e-07
7.7273e-07
1.01929e-06
1.30897e-06
1.63895e-06
2.00467e-06
2.40037e-06
2.81967e-06
3.25597e-06
3.70272e-06
4.1537e-06
4.60341e-06
5.04635e-06
5.47796e-06
5.89452e-06
6.29333e-06
6.67322e-06
7.03528e-06
7.38385e-06
7.72801e-06
8.0834e-06
8.47439e-06
8.93678e-06
9.5215e-06
1.03004e-05
1.13759e-05
1.28984e-05
1.50967e-05
1.83315e-05
2.31904e-05
3.06513e-05
4.23623e-05
6.109e-05
9.14257e-05
0.000140866
0.000221471
0.000352427
0.000564055
0.000904039
0.00144715
0.00229828
0.00362813
0.00577781
0.00916707
0.014534
0.0231028
0.0358279
0.0507403
0.0666629
0.0828704
0.0989093
0.114493
0.129412
0.143532
0.156754
0.168956
0.180168
0.190668
0.199943
0.207999
0.214725
0.22004
0.223946
0.226576
0.22819
0.229097
0.229569
0.2298
0.229909
0.22996
0.229982
0.229992
0.229997
0.229999
0.229999
0.23
0.23
0.23
0.23
0.23
0.23
0.23
0.23
4.48785e-11
1.96164e-10
4.5078e-10
8.78063e-10
1.59201e-09
2.77786e-09
4.73283e-09
7.92636e-09
1.30862e-08
2.13155e-08
3.42496e-08
5.42206e-08
8.44374e-08
1.29102e-07
1.93411e-07
2.83308e-07
4.04942e-07
5.63899e-07
7.64352e-07
1.00839e-06
1.29574e-06
1.62389e-06
1.98855e-06
2.38415e-06
2.80445e-06
3.24288e-06
3.69289e-06
4.1484e-06
4.60309e-06
5.05189e-06
5.49013e-06
5.91391e-06
6.32041e-06
6.70833e-06
7.07863e-06
7.43557e-06
7.7882e-06
8.15225e-06
8.5524e-06
9.02505e-06
9.62219e-06
1.04174e-05
1.1516e-05
1.3073e-05
1.53245e-05
1.86445e-05
2.36432e-05
3.13217e-05
4.341e-05
6.27841e-05
9.42204e-05
0.000145518
0.000229224
0.000365304
0.000585323
0.000938944
0.00150407
0.00238711
0.00377067
0.00600857
0.00953856
0.0151333
0.0240779
0.0370483
0.0521261
0.0681627
0.0844497
0.100544
0.116163
0.131095
0.145207
0.158393
0.170514
0.181655
0.191998
0.201237
0.209169
0.215704
0.220789
0.224459
0.226888
0.228357
0.229177
0.229604
0.229815
0.229915
0.229962
0.229983
0.229993
0.229997
0.229999
0.229999
0.23
0.23
0.23
0.23
0.23
0.23
0.23
0.23
4.50017e-11
1.96728e-10
4.52192e-10
8.81086e-10
1.59792e-09
2.78873e-09
4.75163e-09
7.95682e-09
1.31319e-08
2.1378e-08
3.43176e-08
5.4265e-08
8.4393e-08
1.28849e-07
1.9275e-07
2.81948e-07
4.0252e-07
5.60029e-07
7.58701e-07
1.00077e-06
1.2862e-06
1.61276e-06
1.97642e-06
2.37192e-06
2.79318e-06
3.2338e-06
3.68742e-06
4.14763e-06
4.60853e-06
5.06481e-06
5.51168e-06
5.94515e-06
6.36226e-06
6.76158e-06
7.14392e-06
7.51344e-06
7.87916e-06
8.25695e-06
8.67195e-06
9.1615e-06
9.77926e-06
1.06016e-05
1.17382e-05
1.33512e-05
1.5689e-05
1.91441e-05
2.43484e-05
3.24128e-05
4.51397e-05
6.55954e-05
9.88669e-05
0.000153255
0.00024211
0.000386685
0.000620603
0.000996835
0.00159862
0.00253413
0.00400865
0.00639184
0.010152
0.0161179
0.0256732
0.0390294
0.0543536
0.0705444
0.0869215
0.103058
0.11868
0.133576
0.147619
0.160698
0.172676
0.183715
0.1939
0.202854
0.210484
0.216708
0.221492
0.224905
0.227142
0.228489
0.229241
0.229633
0.229827
0.229921
0.229964
0.229984
0.229993
0.229997
0.229999
0.229999
0.23
0.23
0.23
0.23
0.23
0.23
0.23
0.23
4.49851e-11
1.96655e-10
4.52022e-10
8.80711e-10
1.59703e-09
2.78644e-09
4.74573e-09
7.94212e-09
1.30973e-08
2.13013e-08
3.41578e-08
5.39523e-08
8.38197e-08
1.27862e-07
1.9114e-07
2.79457e-07
3.98869e-07
5.54965e-07
7.52067e-07
9.9257e-07
1.27663e-06
1.60226e-06
1.96566e-06
2.36175e-06
2.78467e-06
3.22811e-06
3.6858e-06
4.15133e-06
4.61898e-06
5.08331e-06
5.53953e-06
5.98356e-06
6.41237e-06
6.82441e-06
7.2204e-06
7.60441e-06
7.98549e-06
8.37972e-06
8.81281e-06
9.32326e-06
9.96678e-06
1.08231e-05
1.20075e-05
1.36911e-05
1.61351e-05
1.97504e-05
2.52526e-05
3.37833e-05
4.73008e-05
6.90994e-05
0.000104639
0.000162816
0.000257917
0.000412653
0.000662903
0.00106509
0.00170769
0.0027006
0.00431314
0.00686168
0.0108929
0.0172996
0.0275786
0.0413787
0.0569727
0.0733179
0.0897684
0.105918
0.121498
0.136309
0.150225
0.163131
0.174911
0.185813
0.195756
0.204437
0.211771
0.217693
0.222191
0.22536
0.227411
0.228635
0.229314
0.229668
0.229843
0.229928
0.229967
0.229985
0.229994
0.229997
0.229999
0.23
0.23
0.23
0.23
0.23
0.23
0.23
0.23
0.23
4.48515e-11
1.96064e-10
4.5063e-10
8.77899e-10
1.59167e-09
2.77645e-09
4.72729e-09
7.9083e-09
1.30357e-08
2.11906e-08
3.39621e-08
5.36139e-08
8.32503e-08
1.26934e-07
1.89684e-07
2.77267e-07
3.95725e-07
5.50681e-07
7.46537e-07
9.85831e-07
1.26891e-06
1.59397e-06
1.95744e-06
2.35444e-06
2.77923e-06
3.22575e-06
3.6875e-06
4.15851e-06
4.63294e-06
5.10539e-06
5.57101e-06
6.02571e-06
6.46639e-06
6.89145e-06
7.3015e-06
7.70061e-06
8.09787e-06
8.50966e-06
8.96236e-06
9.49577e-06
1.01679e-05
1.10622e-05
1.23001e-05
1.40605e-05
1.66184e-05
2.04417e-05
2.62585e-05
3.53159e-05
4.97252e-05
7.30369e-05
0.000111129
0.000173562
0.000275668
0.000441799
0.000710394
0.00114189
0.00183102
0.00289487
0.00462483
0.00735522
0.0116738
0.0185421
0.0295721
0.0438241
0.0596825
0.0761676
0.0926707
0.108809
0.124318
0.139013
0.152772
0.165472
0.177048
0.187819
0.197502
0.205903
0.212946
0.218578
0.222809
0.225754
0.227641
0.228759
0.229376
0.229698
0.229857
0.229934
0.22997
0.229987
0.229994
0.229997
0.229999
0.23
0.23
0.23
0.23
0.23
0.23
0.23
0.23
0.23
4.46185e-11
1.95035e-10
4.48216e-10
8.73059e-10
1.58257e-09
2.75989e-09
4.69774e-09
7.85632e-09
1.29456e-08
2.10366e-08
3.37036e-08
5.31896e-08
8.25715e-08
1.25881e-07
1.88105e-07
2.74993e-07
3.92593e-07
5.46571e-07
7.41421e-07
9.79812e-07
1.26225e-06
1.58712e-06
1.95101e-06
2.34919e-06
2.77607e-06
3.22563e-06
3.69167e-06
4.16813e-06
4.64921e-06
5.12954e-06
5.60429e-06
6.06935e-06
6.52158e-06
6.95932e-06
7.38316e-06
7.79718e-06
8.21058e-06
8.64007e-06
9.11276e-06
9.66987e-06
1.03718e-05
1.13059e-05
1.2598e-05
1.44371e-05
1.71356e-05
2.11634e-05
2.73161e-05
3.69357e-05
5.22964e-05
7.72209e-05
0.000118026
0.000184969
0.00029447
0.000472574
0.000760351
0.00122229
0.00195775
0.0030933
0.00493936
0.00785037
0.0124527
0.0197739
0.0315275
0.0462067
0.0623068
0.0789106
0.095447
0.111556
0.126979
0.141547
0.155141
0.16763
0.17901
0.189655
0.199084
0.207223
0.213998
0.219368
0.223358
0.226106
0.227849
0.228872
0.229434
0.229726
0.22987
0.22994
0.229973
0.229988
0.229995
0.229998
0.229999
0.23
0.23
0.23
0.23
0.23
0.23
0.23
0.23
0.23
4.43426e-11
1.93822e-10
4.45398e-10
8.67481e-10
1.57225e-09
2.74146e-09
4.66554e-09
7.80096e-09
1.28518e-08
2.08802e-08
3.34475e-08
5.27786e-08
8.19276e-08
1.249e-07
1.86661e-07
2.72945e-07
3.89814e-07
5.42979e-07
7.3702e-07
9.74731e-07
1.25677e-06
1.58167e-06
1.94618e-06
2.34571e-06
2.77481e-06
3.22745e-06
3.69761e-06
4.17928e-06
4.6667e-06
5.15452e-06
5.63792e-06
6.11276e-06
6.57592e-06
7.02568e-06
7.46265e-06
7.89092e-06
8.31985e-06
8.76652e-06
9.25885e-06
9.83947e-06
1.05712e-05
1.15437e-05
1.28899e-05
1.48234e-05
1.76534e-05
2.18921e-05
2.83915e-05
3.85923e-05
5.49378e-05
8.15311e-05
0.000125141
0.000196738
0.000313854
0.000504266
0.000811718
0.00130482
0.00208677
0.00329451
0.005257
0.00834812
0.0132307
0.0209934
0.0334004
0.0484562
0.0647617
0.0814587
0.0980111
0.11408
0.129413
0.143854
0.157289
0.169576
0.180813
0.191262
0.200475
0.208383
0.21492
0.220056
0.223834
0.226408
0.228025
0.228968
0.229483
0.22975
0.229882
0.229945
0.229975
0.229989
0.229995
0.229998
0.229999
0.23
0.23
0.23
0.23
0.23
0.23
0.23
0.23
0.23
4.40526e-11
1.9255e-10
4.42451e-10
8.61673e-10
1.56156e-09
2.7225e-09
4.63265e-09
7.74492e-09
1.27578e-08
2.07253e-08
3.31967e-08
5.23813e-08
8.1314e-08
1.2398e-07
1.85326e-07
2.71084e-07
3.8733e-07
5.39824e-07
7.33229e-07
9.70451e-07
1.25227e-06
1.57738e-06
1.94263e-06
2.34355e-06
2.77481e-06
3.23051e-06
3.70464e-06
4.19125e-06
4.68462e-06
5.17942e-06
5.67084e-06
6.15476e-06
6.62803e-06
7.08895e-06
7.53811e-06
7.97966e-06
8.42315e-06
8.88607e-06
9.39713e-06
1.00004e-05
1.07596e-05
1.17696e-05
1.31795e-05
1.51973e-05
1.81588e-05
2.26091e-05
2.94575e-05
4.02451e-05
5.75868e-05
8.58707e-05
0.000132325
0.000208645
0.000333504
0.00053646
0.00086404
0.00138919
0.0022186
0.00350241
0.00558886
0.0088751
0.0140688
0.0223374
0.035228
0.0505648
0.0670202
0.0837783
0.100329
0.11635
0.131591
0.145912
0.159198
0.171309
0.182405
0.192676
0.201695
0.209397
0.215722
0.220652
0.224244
0.226668
0.228177
0.229051
0.229526
0.22977
0.229891
0.22995
0.229977
0.22999
0.229995
0.229998
0.229999
0.23
0.23
0.23
0.23
0.23
0.23
0.23
0.23
0.23
4.37707e-11
1.91315e-10
4.39599e-10
8.56074e-10
1.55131e-09
2.70441e-09
4.60147e-09
7.69217e-09
1.26701e-08
2.05818e-08
3.29666e-08
5.20203e-08
8.07617e-08
1.23159e-07
1.84149e-07
2.69458e-07
3.85185e-07
5.37134e-07
7.30045e-07
9.66925e-07
1.24868e-06
1.5741e-06
1.94019e-06
2.34255e-06
2.7759e-06
3.23448e-06
3.71231e-06
4.20349e-06
4.70233e-06
5.20352e-06
5.70227e-06
6.19445e-06
6.67693e-06
7.14798e-06
7.60823e-06
8.06191e-06
8.51875e-06
8.99665e-06
9.52512e-06
1.01485e-05
1.0934e-05
1.1987e-05
1.34509e-05
1.55504e-05
1.86398e-05
2.32964e-05
3.04861e-05
4.18488e-05
6.01691e-05
9.01153e-05
0.000139367
0.000220335
0.000352816
0.000568135
0.000915584
0.00147244
0.0023481
0.00370896
0.00592105
0.00940642
0.0149208
0.0237174
0.0369596
0.0525008
0.0690617
0.0858562
0.102393
0.118358
0.133512
0.147721
0.16087
0.172826
0.183807
0.193917
0.202762
0.21028
0.216418
0.221165
0.224595
0.226889
0.228306
0.22912
0.229561
0.229788
0.2299
0.229954
0.229979
0.229991
0.229996
0.229998
0.229999
0.23
0.23
0.23
0.23
0.23
0.23
0.23
0.23
0.23
4.35085e-11
1.90167e-10
4.36953e-10
8.5089e-10
1.54184e-09
2.68775e-09
4.57288e-09
7.64402e-09
1.25904e-08
2.04522e-08
3.27601e-08
5.16983e-08
8.02728e-08
1.22439e-07
1.83123e-07
2.68056e-07
3.83354e-07
5.34867e-07
7.27402e-07
9.64059e-07
1.24584e-06
1.57166e-06
1.93858e-06
2.34234e-06
2.7777e-06
3.23896e-06
3.7202e-06
4.21555e-06
4.71934e-06
5.2263e-06
5.73163e-06
6.23122e-06
6.72192e-06
7.20203e-06
7.67218e-06
8.13669e-06
8.60548e-06
9.09686e-06
9.64034e-06
1.02823e-05
1.10972e-05
1.21848e-05
1.36992e-05
1.58755e-05
1.90854e-05
2.39367e-05
3.14495e-05
4.3358e-05
6.26076e-05
9.41326e-05
0.000146039
0.000231413
0.000371113
0.000598123
0.000964332
0.00155106
0.00246933
0.00390232
0.0062315
0.00990179
0.0157128
0.0249957
0.0385263
0.0542309
0.0708721
0.087689
0.104207
0.120115
0.135188
0.149295
0.162318
0.174143
0.185034
0.194998
0.203689
0.211044
0.217017
0.221605
0.224894
0.227076
0.228414
0.229179
0.229592
0.229803
0.229907
0.229957
0.22998
0.229991
0.229996
0.229998
0.229999
0.23
0.23
0.23
0.23
0.23
0.23
0.23
0.23
0.23
4.32724e-11
1.89135e-10
4.34575e-10
8.46241e-10
1.53337e-09
2.6729e-09
4.54746e-09
7.60135e-09
1.252e-08
2.03384e-08
3.25795e-08
5.14185e-08
7.98503e-08
1.2182e-07
1.82249e-07
2.6687e-07
3.81821e-07
5.32989e-07
7.25247e-07
9.61773e-07
1.24366e-06
1.5699e-06
1.93766e-06
2.34273e-06
2.77996e-06
3.24368e-06
3.728e-06
4.22709e-06
4.73531e-06
5.24739e-06
5.75855e-06
6.26466e-06
6.76259e-06
7.25063e-06
7.72945e-06
8.20344e-06
8.6827e-06
9.18552e-06
9.7423e-06
1.04045e-05
1.12417e-05
1.23606e-05
1.39208e-05
1.61668e-05
1.94864e-05
2.45158e-05
3.23246e-05
4.4734e-05
6.48374e-05
9.78126e-05
0.000152157
0.000241574
0.000387894
0.000625626
0.00100904
0.00162319
0.0025799
0.00407658
0.00650963
0.0103437
0.0164166
0.0261277
0.0399071
0.0557495
0.0724554
0.0892868
0.105783
0.121639
0.136639
0.150654
0.163566
0.175276
0.186099
0.195935
0.204489
0.211701
0.217529
0.221979
0.225147
0.227233
0.228505
0.229228
0.229617
0.229815
0.229913
0.22996
0.229982
0.229992
0.229996
0.229998
0.229999
0.23
0.23
0.23
0.23
0.23
0.23
0.23
0.23
0.23
4.30652e-11
1.88229e-10
4.32491e-10
8.42171e-10
1.52597e-09
2.65994e-09
4.52534e-09
7.56434e-09
1.24592e-08
2.02403e-08
3.24246e-08
5.11794e-08
7.94911e-08
1.21297e-07
1.81515e-07
2.65882e-07
3.80554e-07
5.31456e-07
7.23515e-07
9.5998e-07
1.24202e-06
1.56871e-06
1.93728e-06
2.34357e-06
2.78248e-06
3.2484e-06
3.73548e-06
4.23788e-06
4.75e-06
5.26656e-06
5.78279e-06
6.29457e-06
6.79875e-06
7.29363e-06
7.77989e-06
8.262e-06
8.7501e-06
9.2625e-06
9.83335e-06
1.05102e-05
1.13669e-05
1.25131e-05
1.41134e-05
1.64206e-05
1.98369e-05
2.50233e-05
3.30937e-05
4.59461e-05
6.68047e-05
0.000101062
0.000157559
0.000250544
0.0004027
0.000649879
0.00104845
0.0016867
0.00267631
0.00422954
0.0067537
0.0107307
0.0170321
0.0271162
0.0411101
0.0570689
0.0738273
0.0906677
0.107143
0.12295
0.137884
0.151817
0.164631
0.176248
0.187018
0.19674
0.205174
0.212262
0.217965
0.222296
0.22536
0.227366
0.228581
0.22927
0.229638
0.229825
0.229918
0.229962
0.229983
0.229992
0.229997
0.229999
0.229999
0.23
0.23
0.23
0.23
0.23
0.23
0.23
0.23
0.23
4.28871e-11
1.87451e-10
4.30702e-10
8.38681e-10
1.51963e-09
2.64887e-09
4.50648e-09
7.53285e-09
1.24076e-08
2.01573e-08
3.2294e-08
5.09787e-08
7.9191e-08
1.20862e-07
1.80907e-07
2.6507e-07
3.79523e-07
5.30222e-07
7.22144e-07
9.58596e-07
1.24081e-06
1.56793e-06
1.93725e-06
2.34465e-06
2.78508e-06
3.25296e-06
3.74244e-06
4.24774e-06
4.76323e-06
5.28366e-06
5.80426e-06
6.32089e-06
6.83039e-06
7.33107e-06
7.82361e-06
8.31249e-06
8.80767e-06
9.33011e-06
9.91082e-06
1.06e-05
1.14731e-05
1.26425e-05
1.42768e-05
1.6636e-05
2.01344e-05
2.54544e-05
3.37471e-05
4.69756e-05
6.8474e-05
0.000103814
0.000162125
0.000258107
0.000415167
0.0006703
0.00108171
0.00174071
0.00275889
0.00436359
0.00696676
0.0110672
0.0175662
0.0279735
0.0421501
0.0582058
0.0750057
0.0918504
0.108304
0.124068
0.138943
0.152806
0.165532
0.177074
0.187802
0.197426
0.205756
0.212737
0.218332
0.222561
0.225538
0.227475
0.228644
0.229304
0.229655
0.229834
0.229922
0.229964
0.229984
0.229993
0.229997
0.229999
0.229999
0.23
0.23
0.23
0.23
0.23
0.23
0.23
0.23
0.23
4.27371e-11
1.86796e-10
4.29196e-10
8.35748e-10
1.51431e-09
2.63958e-09
4.4907e-09
7.50656e-09
1.23646e-08
2.00884e-08
3.21859e-08
5.08131e-08
7.89443e-08
1.20507e-07
1.80414e-07
2.64414e-07
3.78697e-07
5.29246e-07
7.21078e-07
9.57551e-07
1.23996e-06
1.56748e-06
1.93747e-06
2.34586e-06
2.78762e-06
3.25719e-06
3.74876e-06
4.25654e-06
4.77491e-06
5.29863e-06
5.82292e-06
6.34365e-06
6.85766e-06
7.36325e-06
7.86114e-06
8.3558e-06
8.85786e-06
9.38701e-06
9.97581e-06
1.06752e-05
1.1562e-05
1.27506e-05
1.44132e-05
1.68156e-05
2.03824e-05
2.58132e-05
3.42898e-05
4.78278e-05
6.9848e-05
0.000106062
0.000165812
0.000264123
0.000424882
0.00068578
0.00110599
0.00177806
0.00281201
0.00449676
0.00715682
0.0113582
0.0180245
0.0287082
0.0430379
0.0591726
0.0760045
0.0928502
0.109283
0.125009
0.139834
0.153636
0.166289
0.177765
0.188462
0.198002
0.206244
0.213135
0.218639
0.222782
0.225685
0.227566
0.228696
0.229332
0.22967
0.229841
0.229925
0.229965
0.229984
0.229993
0.229997
0.229999
0.229999
0.23
0.23
0.23
0.23
0.23
0.23
0.23
0.23
0.23
4.26136e-11
1.86256e-10
4.27957e-10
8.33335e-10
1.50994e-09
2.63197e-09
4.47777e-09
7.48506e-09
1.23296e-08
2.00324e-08
3.20981e-08
5.06791e-08
7.87454e-08
1.20221e-07
1.80019e-07
2.63894e-07
3.78047e-07
5.28487e-07
7.20265e-07
9.56781e-07
1.23937e-06
1.56727e-06
1.93785e-06
2.34709e-06
2.79e-06
3.261e-06
3.75433e-06
4.26418e-06
4.78497e-06
5.31143e-06
5.83878e-06
6.36288e-06
6.88055e-06
7.39008e-06
7.89219e-06
8.39126e-06
8.89872e-06
9.43372e-06
1.00293e-05
1.07372e-05
1.16353e-05
1.28399e-05
1.45262e-05
1.69649e-05
2.05891e-05
2.61135e-05
3.47461e-05
4.85475e-05
7.10146e-05
0.000107982
0.000168987
0.000269362
0.000433477
0.000699793
0.00112872
0.00181481
0.00287057
0.00459315
0.00730874
0.0115971
0.0184034
0.0293155
0.0437725
0.0599729
0.0768312
0.0936773
0.110093
0.125786
0.140569
0.15432
0.166913
0.178335
0.189008
0.198477
0.206646
0.213461
0.21889
0.222963
0.225805
0.22764
0.228738
0.229354
0.229681
0.229847
0.229928
0.229967
0.229985
0.229993
0.229997
0.229999
0.229999
0.23
0.23
0.23
0.23
0.23
0.23
0.23
0.23
0.23
4.25145e-11
1.85824e-10
4.26964e-10
8.31403e-10
1.50644e-09
2.62588e-09
4.46745e-09
7.46793e-09
1.23017e-08
1.99878e-08
3.20286e-08
5.05732e-08
7.85888e-08
1.19997e-07
1.79711e-07
2.6349e-07
3.77547e-07
5.27911e-07
7.19659e-07
9.56227e-07
1.23899e-06
1.56721e-06
1.9383e-06
2.34826e-06
2.7921e-06
3.2643e-06
3.75907e-06
4.27063e-06
4.79339e-06
5.32207e-06
5.8519e-06
6.37873e-06
6.89938e-06
7.41213e-06
7.91771e-06
8.42083e-06
8.93219e-06
9.47172e-06
1.00728e-05
1.07875e-05
1.16949e-05
1.29126e-05
1.46184e-05
1.70871e-05
2.0759e-05
2.63614e-05
3.51243e-05
4.91464e-05
7.1989e-05
0.000109591
0.000171655
0.000273777
0.000440735
0.000711637
0.0011479
0.00184565
0.00291913
0.00467021
0.00743031
0.0117889
0.0187078
0.0298032
0.0443629
0.0606168
0.0774968
0.0943436
0.110746
0.126413
0.141161
0.154872
0.167413
0.178795
0.189447
0.198859
0.206969
0.213723
0.219091
0.223107
0.225901
0.227699
0.228772
0.229372
0.22969
0.229851
0.22993
0.229968
0.229985
0.229993
0.229997
0.229999
0.229999
0.23
0.23
0.23
0.23
0.23
0.23
0.23
0.23
0.23
4.2438e-11
1.85489e-10
4.26197e-10
8.29911e-10
1.50374e-09
2.62119e-09
4.45951e-09
7.45476e-09
1.22803e-08
1.99537e-08
3.19755e-08
5.04925e-08
7.84697e-08
1.19827e-07
1.79479e-07
2.63187e-07
3.77175e-07
5.27486e-07
7.1922e-07
9.5584e-07
1.23875e-06
1.56723e-06
1.93874e-06
2.34927e-06
2.79387e-06
3.26702e-06
3.76293e-06
4.27584e-06
4.80014e-06
5.33057e-06
5.86234e-06
6.3913e-06
6.91425e-06
7.42947e-06
7.93767e-06
8.44377e-06
8.95832e-06
9.50144e-06
1.01068e-05
1.08269e-05
1.17416e-05
1.29697e-05
1.46909e-05
1.71836e-05
2.08935e-05
2.6558e-05
3.54246e-05
4.96226e-05
7.27641e-05
0.00011087
0.000173775
0.000277278
0.000446476
0.000720972
0.00116294
0.00186972
0.00295679
0.00472993
0.00752452
0.0119376
0.0189438
0.0301811
0.0448207
0.0611163
0.0780134
0.0948611
0.111253
0.1269
0.141623
0.155301
0.167805
0.179158
0.189779
0.19915
0.207216
0.213924
0.219246
0.223218
0.225975
0.227744
0.228798
0.229386
0.229698
0.229855
0.229932
0.229968
0.229986
0.229994
0.229997
0.229999
0.229999
0.23
0.23
0.23
0.23
0.23
0.23
0.23
0.23
0.23
4.23822e-11
1.85246e-10
4.25639e-10
8.28825e-10
1.50178e-09
2.61778e-09
4.45374e-09
7.4452e-09
1.22647e-08
1.9929e-08
3.19371e-08
5.04343e-08
7.8384e-08
1.19705e-07
1.79313e-07
2.62972e-07
3.76911e-07
5.27188e-07
7.18918e-07
9.55583e-07
1.23861e-06
1.5673e-06
1.93911e-06
2.35008e-06
2.79525e-06
3.2691e-06
3.76587e-06
4.27978e-06
4.80523e-06
5.33695e-06
5.87016e-06
6.4007e-06
6.92538e-06
7.44247e-06
7.95273e-06
8.46086e-06
8.97768e-06
9.5234e-06
1.01318e-05
1.0856e-05
1.1776e-05
1.30119e-05
1.47446e-05
1.72549e-05
2.09931e-05
2.67037e-05
3.56475e-05
4.99761e-05
7.33391e-05
0.000111818
0.000175344
0.000279864
0.00045071
0.000727842
0.001174
0.00188736
0.00298435
0.00477359
0.00759335
0.0120461
0.0191159
0.0304574
0.0451556
0.0614818
0.0783916
0.0952401
0.111625
0.127257
0.141961
0.155617
0.168092
0.179425
0.190019
0.199361
0.207396
0.21407
0.219358
0.223299
0.226028
0.227777
0.228816
0.229396
0.229703
0.229857
0.229933
0.229969
0.229986
0.229994
0.229997
0.229999
0.229999
0.23
0.23
0.23
0.23
0.23
0.23
0.23
0.23
0.23
4.23459e-11
1.85088e-10
4.25275e-10
8.28119e-10
1.5005e-09
2.61556e-09
4.45e-09
7.439e-09
1.22547e-08
1.99131e-08
3.19122e-08
5.03967e-08
7.83288e-08
1.19627e-07
1.79206e-07
2.62834e-07
3.76744e-07
5.27e-07
7.18731e-07
9.55428e-07
1.23853e-06
1.56736e-06
1.93938e-06
2.35064e-06
2.79619e-06
3.27051e-06
3.76784e-06
4.2824e-06
4.80861e-06
5.34119e-06
5.87534e-06
6.40691e-06
6.93271e-06
7.45101e-06
7.96257e-06
8.47208e-06
8.99041e-06
9.53785e-06
1.01484e-05
1.08751e-05
1.17987e-05
1.30396e-05
1.47799e-05
1.7302e-05
2.10588e-05
2.67999e-05
3.57946e-05
5.02092e-05
7.37183e-05
0.000112443
0.000176378
0.000281567
0.000453494
0.000732355
0.00118125
0.00189894
0.00300243
0.00480224
0.00763853
0.0121174
0.0192291
0.0306385
0.0453749
0.0617211
0.0786393
0.0954882
0.111868
0.127491
0.142182
0.155823
0.16828
0.179599
0.190175
0.199498
0.207512
0.214165
0.219431
0.223351
0.226063
0.227798
0.228829
0.229403
0.229706
0.229859
0.229934
0.229969
0.229986
0.229994
0.229997
0.229999
0.229999
0.23
0.23
0.23
0.23
0.23
0.23
0.23
0.23
0.23
4.23282e-11
1.85011e-10
4.25099e-10
8.27777e-10
1.49988e-09
2.6145e-09
4.4482e-09
7.43604e-09
1.22499e-08
1.99055e-08
3.19005e-08
5.03789e-08
7.83028e-08
1.1959e-07
1.79156e-07
2.62769e-07
3.76665e-07
5.26913e-07
7.18643e-07
9.55357e-07
1.2385e-06
1.56739e-06
1.93952e-06
2.35092e-06
2.79664e-06
3.27119e-06
3.7688e-06
4.28368e-06
4.81026e-06
5.34326e-06
5.87787e-06
6.40996e-06
6.9363e-06
7.45519e-06
7.96738e-06
8.47755e-06
8.99662e-06
9.5449e-06
1.01564e-05
1.08845e-05
1.18098e-05
1.30532e-05
1.47973e-05
1.73251e-05
2.1091e-05
2.68472e-05
3.58668e-05
5.03239e-05
7.39048e-05
0.000112751
0.000176886
0.000282404
0.000454863
0.000734575
0.00118482
0.00190463
0.00301132
0.00481634
0.00766075
0.0121524
0.0192848
0.0307275
0.0454826
0.0618385
0.0787607
0.0956097
0.111987
0.127605
0.14229
0.155923
0.168371
0.179684
0.190251
0.199564
0.207568
0.21421
0.219465
0.223375
0.226079
0.227808
0.228834
0.229406
0.229708
0.22986
0.229934
0.229969
0.229986
0.229994
0.229997
0.229999
0.229999
0.23
0.23
0.23
0.23
0.23
0.23
0.23
0.23
0.23
4.23282e-11
1.8501e-10
4.25098e-10
8.27776e-10
1.49988e-09
2.61449e-09
4.44819e-09
7.43603e-09
1.22499e-08
1.99054e-08
3.19004e-08
5.03789e-08
7.83027e-08
1.1959e-07
1.79156e-07
2.62769e-07
3.76665e-07
5.26912e-07
7.18643e-07
9.55356e-07
1.2385e-06
1.56739e-06
1.93952e-06
2.35092e-06
2.79664e-06
3.27119e-06
3.7688e-06
4.28368e-06
4.81026e-06
5.34325e-06
5.87787e-06
6.40995e-06
6.9363e-06
7.45519e-06
7.96737e-06
8.47755e-06
8.99662e-06
9.5449e-06
1.01564e-05
1.08845e-05
1.18098e-05
1.30532e-05
1.47972e-05
1.73251e-05
2.1091e-05
2.68471e-05
3.58668e-05
5.03239e-05
7.39048e-05
0.000112751
0.000176886
0.000282404
0.000454863
0.000734575
0.00118482
0.00190463
0.00301132
0.00481634
0.00766076
0.0121524
0.0192848
0.0307275
0.0454826
0.0618386
0.0787607
0.0956097
0.111987
0.127605
0.14229
0.155923
0.168371
0.179684
0.190251
0.199564
0.207568
0.21421
0.219465
0.223375
0.226079
0.227808
0.228834
0.229406
0.229708
0.22986
0.229934
0.229969
0.229986
0.229994
0.229997
0.229999
0.229999
0.23
0.23
0.23
0.23
0.23
0.23
0.23
0.23
0.23
4.23457e-11
1.85087e-10
4.25273e-10
8.28115e-10
1.50049e-09
2.61555e-09
4.44997e-09
7.43897e-09
1.22546e-08
1.9913e-08
3.19121e-08
5.03965e-08
7.83286e-08
1.19627e-07
1.79206e-07
2.62833e-07
3.76743e-07
5.26999e-07
7.18729e-07
9.55426e-07
1.23853e-06
1.56736e-06
1.93938e-06
2.35064e-06
2.79618e-06
3.2705e-06
3.76783e-06
4.2824e-06
4.8086e-06
5.34118e-06
5.87534e-06
6.40691e-06
6.9327e-06
7.451e-06
7.96257e-06
8.47207e-06
8.9904e-06
9.53784e-06
1.01483e-05
1.08751e-05
1.17987e-05
1.30396e-05
1.47799e-05
1.7302e-05
2.10588e-05
2.67999e-05
3.57945e-05
5.02092e-05
7.37182e-05
0.000112443
0.000176378
0.000281566
0.000453493
0.000732355
0.00118125
0.00189894
0.00300243
0.00480224
0.00763853
0.0121174
0.0192291
0.0306385
0.0453749
0.0617212
0.0786393
0.0954882
0.111868
0.127491
0.142182
0.155823
0.16828
0.179599
0.190175
0.199498
0.207512
0.214165
0.219431
0.223351
0.226063
0.227798
0.228829
0.229403
0.229706
0.229859
0.229934
0.229969
0.229986
0.229994
0.229997
0.229999
0.229999
0.23
0.23
0.23
0.23
0.23
0.23
0.23
0.23
0.23
4.23818e-11
1.85244e-10
4.25635e-10
8.28818e-10
1.50176e-09
2.61776e-09
4.4537e-09
7.44514e-09
1.22646e-08
1.99289e-08
3.19368e-08
5.0434e-08
7.83836e-08
1.19705e-07
1.79312e-07
2.6297e-07
3.7691e-07
5.27186e-07
7.18916e-07
9.5558e-07
1.2386e-06
1.56729e-06
1.93911e-06
2.35008e-06
2.79524e-06
3.2691e-06
3.76586e-06
4.27977e-06
4.80522e-06
5.33695e-06
5.87016e-06
6.4007e-06
6.92537e-06
7.44246e-06
7.95272e-06
8.46085e-06
8.97767e-06
9.52339e-06
1.01318e-05
1.0856e-05
1.1776e-05
1.30118e-05
1.47445e-05
1.72549e-05
2.09931e-05
2.67037e-05
3.56474e-05
4.9976e-05
7.3339e-05
0.000111818
0.000175344
0.000279864
0.00045071
0.000727841
0.001174
0.00188736
0.00298435
0.0047736
0.00759335
0.0120461
0.0191159
0.0304574
0.0451556
0.0614818
0.0783917
0.0952402
0.111625
0.127257
0.141961
0.155617
0.168092
0.179425
0.190019
0.199361
0.207396
0.21407
0.219358
0.223299
0.226028
0.227777
0.228816
0.229396
0.229703
0.229857
0.229933
0.229969
0.229986
0.229994
0.229997
0.229999
0.229999
0.23
0.23
0.23
0.23
0.23
0.23
0.23
0.23
0.23
4.24374e-11
1.85487e-10
4.26192e-10
8.29901e-10
1.50372e-09
2.62116e-09
4.45946e-09
7.45468e-09
1.22801e-08
1.99535e-08
3.19752e-08
5.04921e-08
7.84691e-08
1.19826e-07
1.79478e-07
2.63186e-07
3.77173e-07
5.27483e-07
7.19217e-07
9.55836e-07
1.23874e-06
1.56723e-06
1.93873e-06
2.34926e-06
2.79387e-06
3.26701e-06
3.76293e-06
4.27583e-06
4.80013e-06
5.33057e-06
5.86233e-06
6.39129e-06
6.91424e-06
7.42946e-06
7.93766e-06
8.44376e-06
8.95831e-06
9.50142e-06
1.01067e-05
1.08269e-05
1.17416e-05
1.29697e-05
1.46909e-05
1.71835e-05
2.08934e-05
2.65579e-05
3.54245e-05
4.96225e-05
7.27639e-05
0.00011087
0.000173775
0.000277277
0.000446476
0.000720971
0.00116294
0.00186972
0.00295679
0.00472994
0.00752453
0.0119376
0.0189438
0.0301812
0.0448208
0.0611164
0.0780136
0.0948612
0.111253
0.1269
0.141623
0.155302
0.167805
0.179158
0.189779
0.19915
0.207217
0.213924
0.219246
0.223218
0.225975
0.227744
0.228798
0.229386
0.229698
0.229855
0.229932
0.229968
0.229986
0.229994
0.229997
0.229999
0.229999
0.23
0.23
0.23
0.23
0.23
0.23
0.23
0.23
0.23
4.25138e-11
1.85821e-10
4.26957e-10
8.3139e-10
1.50641e-09
2.62584e-09
4.46739e-09
7.46783e-09
1.23015e-08
1.99876e-08
3.20282e-08
5.05727e-08
7.8588e-08
1.19996e-07
1.7971e-07
2.63488e-07
3.77544e-07
5.27907e-07
7.19655e-07
9.56222e-07
1.23898e-06
1.5672e-06
1.93829e-06
2.34825e-06
2.79209e-06
3.26429e-06
3.75906e-06
4.27062e-06
4.79338e-06
5.32206e-06
5.85189e-06
6.37872e-06
6.89936e-06
7.41212e-06
7.91769e-06
8.42081e-06
8.93217e-06
9.4717e-06
1.00727e-05
1.07875e-05
1.16949e-05
1.29126e-05
1.46183e-05
1.70871e-05
2.0759e-05
2.63614e-05
3.51242e-05
4.91463e-05
7.19888e-05
0.00010959
0.000171655
0.000273776
0.000440735
0.000711636
0.00114789
0.00184565
0.00291913
0.00467022
0.00743032
0.0117889
0.0187078
0.0298033
0.044363
0.0606169
0.0774969
0.0943438
0.110746
0.126413
0.141161
0.154872
0.167414
0.178795
0.189447
0.198859
0.206969
0.213723
0.219091
0.223107
0.225901
0.227699
0.228772
0.229372
0.22969
0.229851
0.22993
0.229968
0.229985
0.229993
0.229997
0.229999
0.229999
0.23
0.23
0.23
0.23
0.23
0.23
0.23
0.23
0.23
4.26128e-11
1.86253e-10
4.27949e-10
8.33319e-10
1.50991e-09
2.63192e-09
4.47769e-09
7.48493e-09
1.23294e-08
2.0032e-08
3.20977e-08
5.06784e-08
7.87444e-08
1.2022e-07
1.80017e-07
2.63891e-07
3.78044e-07
5.28483e-07
7.2026e-07
9.56775e-07
1.23937e-06
1.56726e-06
1.93784e-06
2.34708e-06
2.78998e-06
3.26099e-06
3.75432e-06
4.26417e-06
4.78496e-06
5.31142e-06
5.83876e-06
6.36286e-06
6.88053e-06
7.39006e-06
7.89217e-06
8.39125e-06
8.8987e-06
9.4337e-06
1.00293e-05
1.07372e-05
1.16353e-05
1.28399e-05
1.45261e-05
1.69649e-05
2.0589e-05
2.61134e-05
3.4746e-05
4.85473e-05
7.10143e-05
0.000107981
0.000168986
0.000269361
0.000433476
0.000699792
0.00112871
0.00181481
0.00287057
0.00459316
0.00730875
0.0115972
0.0184034
0.0293156
0.0437726
0.0599731
0.0768314
0.0936775
0.110094
0.125786
0.140569
0.154321
0.166913
0.178335
0.189008
0.198477
0.206647
0.213461
0.21889
0.222963
0.225805
0.22764
0.228738
0.229354
0.229681
0.229847
0.229928
0.229967
0.229985
0.229993
0.229997
0.229999
0.229999
0.23
0.23
0.23
0.23
0.23
0.23
0.23
0.23
0.23
4.27361e-11
1.86791e-10
4.29186e-10
8.35728e-10
1.51427e-09
2.63953e-09
4.49061e-09
7.5064e-09
1.23644e-08
2.00881e-08
3.21853e-08
5.08123e-08
7.89431e-08
1.20505e-07
1.80411e-07
2.64411e-07
3.78693e-07
5.29241e-07
7.21072e-07
9.57543e-07
1.23995e-06
1.56747e-06
1.93746e-06
2.34585e-06
2.78761e-06
3.25718e-06
3.74875e-06
4.25652e-06
4.7749e-06
5.29862e-06
5.8229e-06
6.34364e-06
6.85764e-06
7.36323e-06
7.86112e-06
8.35578e-06
8.85784e-06
9.38698e-06
9.97578e-06
1.06752e-05
1.15619e-05
1.27505e-05
1.44131e-05
1.68156e-05
2.03823e-05
2.58131e-05
3.42897e-05
4.78276e-05
6.98477e-05
0.000106061
0.000165811
0.000264123
0.000424881
0.000685779
0.00110599
0.00177806
0.00281201
0.00449677
0.00715684
0.0113582
0.0180246
0.0287083
0.0430381
0.0591728
0.0760047
0.0928504
0.109284
0.125009
0.139834
0.153636
0.16629
0.177765
0.188462
0.198002
0.206244
0.213135
0.218639
0.222782
0.225685
0.227566
0.228696
0.229332
0.22967
0.229841
0.229925
0.229965
0.229984
0.229993
0.229997
0.229999
0.229999
0.23
0.23
0.23
0.23
0.23
0.23
0.23
0.23
0.23
4.28859e-11
1.87446e-10
4.3069e-10
8.38658e-10
1.51959e-09
2.6488e-09
4.50637e-09
7.53267e-09
1.24073e-08
2.01569e-08
3.22934e-08
5.09777e-08
7.91896e-08
1.2086e-07
1.80905e-07
2.65067e-07
3.79518e-07
5.30216e-07
7.22137e-07
9.58587e-07
1.2408e-06
1.56792e-06
1.93723e-06
2.34463e-06
2.78506e-06
3.25294e-06
3.74242e-06
4.24772e-06
4.76321e-06
5.28364e-06
5.80423e-06
6.32087e-06
6.83037e-06
7.33105e-06
7.82358e-06
8.31246e-06
8.80764e-06
9.33007e-06
9.91079e-06
1.06e-05
1.14731e-05
1.26425e-05
1.42768e-05
1.66359e-05
2.01343e-05
2.54542e-05
3.37469e-05
4.69754e-05
6.84737e-05
0.000103814
0.000162125
0.000258107
0.000415166
0.0006703
0.00108172
0.00174072
0.0027589
0.0043636
0.00696678
0.0110672
0.0175663
0.0279737
0.0421504
0.0582061
0.075006
0.0918507
0.108304
0.124068
0.138943
0.152806
0.165533
0.177074
0.187802
0.197426
0.205756
0.212737
0.218333
0.222561
0.225538
0.227476
0.228644
0.229304
0.229655
0.229834
0.229922
0.229964
0.229984
0.229993
0.229997
0.229999
0.229999
0.23
0.23
0.23
0.23
0.23
0.23
0.23
0.23
0.23
4.30638e-11
1.88223e-10
4.32477e-10
8.42145e-10
1.52592e-09
2.65986e-09
4.52522e-09
7.56413e-09
1.24589e-08
2.02398e-08
3.24238e-08
5.11783e-08
7.94895e-08
1.21295e-07
1.81511e-07
2.65878e-07
3.80548e-07
5.31449e-07
7.23507e-07
9.59969e-07
1.24201e-06
1.5687e-06
1.93727e-06
2.34355e-06
2.78246e-06
3.24838e-06
3.73546e-06
4.23786e-06