/*--------------------------------*- C++ -*----------------------------------*\
  =========                 |
  \\      /  F ield         | OpenFOAM: The Open Source CFD Toolbox
   \\    /   O peration     | Website:  https://openfoam.org
    \\  /    A nd           | Version:  8
     \\/     M anipulation  |
\*---------------------------------------------------------------------------*/
FoamFile
{
    version     2.0;
    format      ascii;
    class       surfaceScalarField;
    location    "0.45/fluid";
    object      phi;
}
// * * * * * * * * * * * * * * * * * * * * * * * * * * * * * * * * * * * * * //

dimensions      [1 0 -1 0 0 0 0];

internalField   nonuniform List<scalar> 
7860
(
6.57189e-07
-1.77992e-08
6.54342e-07
-5.35105e-08
6.50245e-07
-8.90651e-08
6.44829e-07
-1.24303e-07
6.37978e-07
-1.59228e-07
6.29539e-07
-1.93792e-07
6.1933e-07
-2.27913e-07
6.07154e-07
-2.61467e-07
5.92809e-07
-2.94287e-07
5.76112e-07
-3.26155e-07
5.56941e-07
-3.56798e-07
5.35311e-07
-3.85871e-07
5.11268e-07
-4.12914e-07
4.84933e-07
-4.37365e-07
4.56534e-07
-4.58579e-07
4.26416e-07
-4.759e-07
3.95029e-07
-4.88786e-07
3.62895e-07
-4.96956e-07
3.30541e-07
-5.00506e-07
2.98445e-07
-4.99926e-07
2.66989e-07
-4.96e-07
2.36437e-07
-4.89629e-07
2.0695e-07
-4.81663e-07
1.78604e-07
-4.72793e-07
1.5143e-07
-4.63512e-07
1.25467e-07
-4.54128e-07
1.00694e-07
-4.44799e-07
7.70565e-08
-4.35587e-07
5.44858e-08
-4.26501e-07
3.29147e-08
-4.17514e-07
1.22935e-08
-4.08595e-07
-7.4211e-09
-3.99717e-07
-2.62652e-08
-3.90859e-07
-4.42703e-08
-3.82014e-07
-6.1464e-08
-3.73182e-07
-7.78679e-08
-3.64352e-07
-9.35001e-08
-3.55485e-07
-1.08378e-07
-3.46593e-07
-1.2252e-07
-3.37696e-07
-1.35943e-07
-3.28816e-07
-1.48664e-07
-3.19978e-07
-1.60703e-07
-3.11206e-07
-1.72078e-07
-3.02528e-07
-1.82807e-07
-2.93969e-07
-1.9291e-07
-2.85558e-07
-2.02406e-07
-2.77318e-07
-2.11314e-07
-2.69278e-07
-2.19654e-07
-2.61461e-07
-2.27445e-07
-2.53893e-07
-2.34707e-07
-2.46598e-07
-2.4146e-07
-2.39602e-07
-2.47725e-07
-2.32932e-07
-2.53526e-07
-2.2662e-07
-2.58889e-07
-2.20701e-07
-2.63845e-07
-2.15221e-07
-2.68437e-07
-2.10238e-07
-2.7272e-07
-2.05828e-07
-2.76764e-07
-2.0213e-07
-2.80667e-07
-1.99264e-07
-2.84563e-07
-1.97393e-07
-2.88666e-07
-1.96907e-07
-2.93292e-07
-1.98333e-07
-2.9879e-07
-2.02601e-07
-3.05362e-07
-2.10668e-07
-3.12972e-07
-2.21448e-07
-3.21585e-07
-2.34418e-07
-3.31221e-07
-2.49375e-07
-3.41964e-07
-2.6631e-07
-3.53951e-07
-2.85349e-07
-3.67391e-07
-3.06732e-07
-3.82568e-07
-3.30796e-07
-3.99871e-07
-3.57971e-07
-4.19815e-07
-3.88768e-07
-4.43051e-07
-4.23872e-07
-4.70364e-07
-4.63913e-07
-5.02567e-07
-5.09023e-07
-5.40197e-07
-5.58245e-07
-5.83435e-07
-6.0871e-07
-6.32142e-07
-6.5502e-07
-6.85443e-07
-6.90122e-07
-7.41462e-07
-7.08328e-07
-7.97621e-07
-7.08416e-07
-8.51493e-07
-6.93492e-07
-9.0144e-07
-6.68167e-07
-9.46699e-07
-6.3643e-07
-9.87069e-07
-6.00923e-07
-1.02261e-06
-5.63137e-07
-1.05344e-06
-5.23882e-07
-1.07963e-06
-4.8361e-07
-1.10168e-06
-4.42533e-07
-1.12008e-06
-4.00884e-07
-1.13532e-06
-3.58866e-07
-1.14781e-06
-3.16637e-07
-1.15793e-06
-2.74318e-07
-1.16602e-06
-2.3199e-07
-1.17235e-06
-1.89702e-07
-1.17715e-06
-1.47467e-07
-1.18061e-06
-1.05271e-07
-1.18287e-06
-6.30661e-08
-2.09399e-08
6.57965e-07
-1.72309e-08
6.55833e-07
-5.13786e-08
6.52021e-07
-8.52527e-08
6.46554e-07
-1.18837e-07
6.39384e-07
-1.52057e-07
6.30423e-07
-1.84832e-07
6.1957e-07
-2.1706e-07
6.06718e-07
-2.48615e-07
5.91771e-07
-2.79339e-07
5.74655e-07
-3.09039e-07
5.55342e-07
-3.37484e-07
5.33871e-07
-3.64397e-07
5.10318e-07
-3.89358e-07
4.84818e-07
-4.11862e-07
4.57586e-07
-4.31342e-07
4.28918e-07
-4.47225e-07
3.99184e-07
-4.59043e-07
3.688e-07
-4.66561e-07
3.38187e-07
-4.6988e-07
3.07722e-07
-4.69447e-07
2.7771e-07
-4.65974e-07
2.4837e-07
-4.60275e-07
2.1984e-07
-4.5312e-07
1.92193e-07
-4.45134e-07
1.65463e-07
-4.36771e-07
1.39677e-07
-4.28332e-07
1.14841e-07
-4.19953e-07
9.09422e-08
-4.1168e-07
6.79523e-08
-4.03504e-07
4.58498e-08
-3.95405e-07
2.46181e-08
-3.87357e-07
4.24008e-09
-3.79333e-07
-1.53022e-08
-3.71312e-07
-3.40237e-08
-3.63288e-07
-5.19417e-08
-3.5526e-07
-6.9069e-08
-3.47221e-07
-8.5418e-08
-3.39132e-07
-1.01003e-07
-3.31005e-07
-1.1584e-07
-3.22857e-07
-1.29945e-07
-3.1471e-07
-1.43335e-07
-3.06586e-07
-1.56028e-07
-2.98512e-07
-1.68044e-07
-2.90511e-07
-1.79402e-07
-2.8261e-07
-1.90124e-07
-2.74835e-07
-2.00231e-07
-2.67211e-07
-2.09744e-07
-2.59764e-07
-2.18687e-07
-2.52518e-07
-2.27082e-07
-2.45497e-07
-2.34955e-07
-2.38725e-07
-2.4233e-07
-2.32225e-07
-2.49238e-07
-2.26024e-07
-2.55709e-07
-2.20148e-07
-2.61781e-07
-2.14629e-07
-2.675e-07
-2.09502e-07
-2.72921e-07
-2.04817e-07
-2.78114e-07
-2.00634e-07
-2.8316e-07
-1.97084e-07
-2.88183e-07
-1.94241e-07
-2.93316e-07
-1.92258e-07
-2.98733e-07
-1.9149e-07
-3.0458e-07
-1.92487e-07
-3.10946e-07
-1.96237e-07
-3.18147e-07
-2.03472e-07
-3.26335e-07
-2.13266e-07
-3.35591e-07
-2.2517e-07
-3.45986e-07
-2.38988e-07
-3.57618e-07
-2.54689e-07
-3.70618e-07
-2.72362e-07
-3.85164e-07
-2.92201e-07
-4.01485e-07
-3.14492e-07
-4.19868e-07
-3.39608e-07
-4.40653e-07
-3.68006e-07
-4.64223e-07
-4.00329e-07
-4.91033e-07
-4.37135e-07
-5.21579e-07
-4.78517e-07
-5.56283e-07
-5.23585e-07
-5.95458e-07
-5.69582e-07
-6.39188e-07
-6.11337e-07
-6.86897e-07
-6.42452e-07
-7.37098e-07
-6.58156e-07
-7.8774e-07
-6.57793e-07
-8.36931e-07
-6.44311e-07
-8.83366e-07
-6.21737e-07
-9.26366e-07
-5.93433e-07
-9.65668e-07
-5.61622e-07
-1.00123e-06
-5.27577e-07
-1.03308e-06
-4.92035e-07
-1.06122e-06
-4.55467e-07
-1.0858e-06
-4.17957e-07
-1.107e-06
-3.79682e-07
-1.12506e-06
-3.40807e-07
-1.14022e-06
-3.01473e-07
-1.15274e-06
-2.61796e-07
-1.16286e-06
-2.21868e-07
-1.17081e-06
-1.81759e-07
-1.17676e-06
-1.41518e-07
-1.18085e-06
-1.01178e-07
-1.18315e-06
-6.07665e-08
-2.02671e-08
6.57571e-07
-1.62686e-08
6.54823e-07
-4.86306e-08
6.50308e-07
-8.07377e-08
6.4399e-07
-1.12518e-07
6.35832e-07
-1.43899e-07
6.25795e-07
-1.74794e-07
6.13842e-07
-2.05107e-07
5.99952e-07
-2.34724e-07
5.84119e-07
-2.63506e-07
5.66364e-07
-2.91283e-07
5.4672e-07
-3.17839e-07
5.25216e-07
-3.42892e-07
5.01942e-07
-3.66081e-07
4.77045e-07
-3.86962e-07
4.5074e-07
-4.05031e-07
4.23301e-07
-4.19779e-07
3.95052e-07
-4.30785e-07
3.66341e-07
-4.37841e-07
3.37509e-07
-4.41035e-07
3.0885e-07
-4.40775e-07
2.80597e-07
-4.37708e-07
2.52913e-07
-4.32578e-07
2.25902e-07
-4.26095e-07
1.99619e-07
-4.18838e-07
1.74082e-07
-4.11223e-07
1.49273e-07
-4.03512e-07
1.25183e-07
-3.95854e-07
1.01805e-07
-3.88293e-07
7.91437e-08
-3.80835e-07
5.72089e-08
-3.73463e-07
3.60045e-08
-3.66146e-07
1.55328e-08
-3.58856e-07
-4.2051e-09
-3.51569e-07
-2.32126e-08
-3.44276e-07
-4.14933e-08
-3.36976e-07
-5.90501e-08
-3.29661e-07
-7.58866e-08
-3.22293e-07
-9.20102e-08
-3.14878e-07
-1.0743e-07
-3.07435e-07
-1.22157e-07
-2.9998e-07
-1.36204e-07
-2.92537e-07
-1.49587e-07
-2.85127e-07
-1.62322e-07
-2.77774e-07
-1.74428e-07
-2.70503e-07
-1.85925e-07
-2.63337e-07
-1.96835e-07
-2.563e-07
-2.07181e-07
-2.49417e-07
-2.16989e-07
-2.42709e-07
-2.26286e-07
-2.36199e-07
-2.35103e-07
-2.29908e-07
-2.43472e-07
-2.23856e-07
-2.5143e-07
-2.18066e-07
-2.59018e-07
-2.1256e-07
-2.66282e-07
-2.07364e-07
-2.73277e-07
-2.02507e-07
-2.80064e-07
-1.9803e-07
-2.86713e-07
-1.93984e-07
-2.93298e-07
-1.90498e-07
-2.99934e-07
-1.87605e-07
-3.06688e-07
-1.85504e-07
-3.13649e-07
-1.84529e-07
-3.20892e-07
-1.85245e-07
-3.28398e-07
-1.88734e-07
-3.36509e-07
-1.95365e-07
-3.45444e-07
-2.04338e-07
-3.55355e-07
-2.15268e-07
-3.66364e-07
-2.27989e-07
-3.7859e-07
-2.42475e-07
-3.92153e-07
-2.58811e-07
-4.07185e-07
-2.77183e-07
-4.2383e-07
-2.97865e-07
-4.42241e-07
-3.21218e-07
-4.6256e-07
-3.47711e-07
-4.84928e-07
-3.7799e-07
-5.09539e-07
-4.12559e-07
-5.36703e-07
-4.51393e-07
-5.66971e-07
-4.93363e-07
-6.01064e-07
-5.35538e-07
-6.39494e-07
-5.72953e-07
-6.82108e-07
-5.99877e-07
-7.27753e-07
-6.12539e-07
-7.74596e-07
-6.10968e-07
-8.2084e-07
-5.98076e-07
-8.65179e-07
-5.77404e-07
-9.06849e-07
-5.51765e-07
-9.4548e-07
-5.22992e-07
-9.80937e-07
-4.9212e-07
-1.01324e-06
-4.59737e-07
-1.04251e-06
-4.26193e-07
-1.06876e-06
-3.91706e-07
-1.09201e-06
-3.56429e-07
-1.11234e-06
-3.20483e-07
-1.12984e-06
-2.83972e-07
-1.14464e-06
-2.46992e-07
-1.15689e-06
-2.09623e-07
-1.16671e-06
-1.71939e-07
-1.17422e-06
-1.34001e-07
-1.17954e-06
-9.58623e-08
-1.18273e-06
-5.75715e-08
-1.91797e-08
6.57621e-07
-1.53563e-08
6.5485e-07
-4.58592e-08
6.50213e-07
-7.61009e-08
6.43711e-07
-1.06016e-07
6.35336e-07
-1.35524e-07
6.25081e-07
-1.64539e-07
6.12941e-07
-1.92967e-07
5.98918e-07
-2.207e-07
5.83022e-07
-2.4761e-07
5.6528e-07
-2.7354e-07
5.45735e-07
-2.98293e-07
5.2446e-07
-3.21615e-07
5.01562e-07
-3.43181e-07
4.77196e-07
-3.62592e-07
4.51563e-07
-3.79394e-07
4.24915e-07
-3.93124e-07
3.97539e-07
-4.03401e-07
3.6974e-07
-4.10031e-07
3.41813e-07
-4.13096e-07
3.14016e-07
-4.12965e-07
2.86552e-07
-4.10231e-07
2.59568e-07
-4.0558e-07
2.33156e-07
-3.99671e-07
2.07372e-07
-3.93041e-07
1.8224e-07
-3.86079e-07
1.5777e-07
-3.79032e-07
1.3396e-07
-3.72034e-07
1.10805e-07
-3.6513e-07
8.83094e-08
-3.58332e-07
6.6472e-08
-3.51619e-07
4.52931e-08
-3.44961e-07
2.47739e-08
-3.38331e-07
4.91525e-09
-3.31706e-07
-1.42833e-08
-3.25073e-07
-3.2823e-08
-3.18432e-07
-5.07043e-08
-3.11777e-07
-6.79275e-08
-3.05067e-07
-8.44963e-08
-2.98307e-07
-1.00417e-07
-2.91512e-07
-1.15696e-07
-2.84699e-07
-1.30346e-07
-2.77886e-07
-1.44378e-07
-2.71093e-07
-1.57807e-07
-2.64344e-07
-1.70651e-07
-2.57658e-07
-1.82929e-07
-2.51058e-07
-1.94662e-07
-2.44566e-07
-2.05875e-07
-2.38204e-07
-2.16593e-07
-2.3199e-07
-2.26846e-07
-2.25945e-07
-2.36666e-07
-2.20088e-07
-2.46087e-07
-2.14435e-07
-2.55148e-07
-2.09005e-07
-2.63892e-07
-2.03816e-07
-2.72364e-07
-1.98891e-07
-2.80617e-07
-1.94254e-07
-2.88706e-07
-1.89941e-07
-2.9669e-07
-1.86e-07
-3.04627e-07
-1.82561e-07
-3.12606e-07
-1.79625e-07
-3.2067e-07
-1.77439e-07
-3.28868e-07
-1.7633e-07
-3.3723e-07
-1.76884e-07
-3.45707e-07
-1.8026e-07
-3.54644e-07
-1.86434e-07
-3.64267e-07
-1.94721e-07
-3.74746e-07
-2.04798e-07
-3.86216e-07
-2.16529e-07
-3.98796e-07
-2.29907e-07
-4.12596e-07
-2.45024e-07
-4.27728e-07
-2.62066e-07
-4.44307e-07
-2.81304e-07
-4.62455e-07
-3.03091e-07
-4.82294e-07
-3.27897e-07
-5.0398e-07
-3.56334e-07
-5.27761e-07
-3.88815e-07
-5.54015e-07
-4.25181e-07
-5.83271e-07
-4.64154e-07
-6.16115e-07
-5.02742e-07
-6.52912e-07
-5.36203e-07
-6.93377e-07
-5.5945e-07
-7.36401e-07
-5.69541e-07
-7.80415e-07
-5.6697e-07
-8.23957e-07
-5.54544e-07
-8.65968e-07
-5.35398e-07
-9.05795e-07
-5.1194e-07
-9.43079e-07
-4.85709e-07
-9.77632e-07
-4.57567e-07
-1.00937e-06
-4.27994e-07
-1.0383e-06
-3.9727e-07
-1.06443e-06
-3.65577e-07
-1.08781e-06
-3.33051e-07
-1.10848e-06
-2.99805e-07
-1.12652e-06
-2.65938e-07
-1.14197e-06
-2.31537e-07
-1.15491e-06
-1.96684e-07
-1.1654e-06
-1.61451e-07
-1.17349e-06
-1.25906e-07
-1.17924e-06
-9.01126e-08
-1.18268e-06
-5.41347e-08
-1.80388e-08
6.57553e-07
-1.43754e-08
6.54642e-07
-4.29482e-08
6.49815e-07
-7.12746e-08
6.4308e-07
-9.92807e-08
6.34445e-07
-1.26888e-07
6.2392e-07
-1.54015e-07
6.11523e-07
-1.8057e-07
5.97277e-07
-2.06454e-07
5.81217e-07
-2.3155e-07
5.63393e-07
-2.55715e-07
5.43871e-07
-2.7877e-07
5.22741e-07
-3.00484e-07
5.00125e-07
-3.20562e-07
4.76176e-07
-3.3864e-07
4.51091e-07
-3.54304e-07
4.25103e-07
-3.67129e-07
3.98473e-07
-3.76762e-07
3.71474e-07
-3.83022e-07
3.44366e-07
-3.85977e-07
3.17375e-07
-3.85961e-07
2.90678e-07
-3.8352e-07
2.64401e-07
-3.7929e-07
2.38624e-07
-3.73882e-07
2.13395e-07
-3.678e-07
1.88736e-07
-3.61409e-07
1.64658e-07
-3.54945e-07
1.41159e-07
-3.48526e-07
1.18245e-07
-3.42207e-07
9.59154e-08
-3.35995e-07
7.41736e-08
-3.2987e-07
5.30216e-08
-3.23803e-07
3.24625e-08
-3.17767e-07
1.24986e-08
-3.11737e-07
-6.86824e-09
-3.05702e-07
-2.56364e-08
-2.9966e-07
-4.38069e-08
-2.93603e-07
-6.13781e-08
-2.87493e-07
-7.83514e-08
-2.81331e-07
-9.47308e-08
-2.7513e-07
-1.10522e-07
-2.68905e-07
-1.25734e-07
-2.62672e-07
-1.40378e-07
-2.56448e-07
-1.54466e-07
-2.50254e-07
-1.68016e-07
-2.44107e-07
-1.81043e-07
-2.3803e-07
-1.93569e-07
-2.32039e-07
-2.05617e-07
-2.26155e-07
-2.17212e-07
-2.20394e-07
-2.28382e-07
-2.14774e-07
-2.39159e-07
-2.09311e-07
-2.49574e-07
-2.04019e-07
-2.59665e-07
-1.98914e-07
-2.6947e-07
-1.94011e-07
-2.7903e-07
-1.8933e-07
-2.88389e-07
-1.84895e-07
-2.97594e-07
-1.80736e-07
-3.06689e-07
-1.76904e-07
-3.15728e-07
-1.73521e-07
-3.2476e-07
-1.70593e-07
-3.33826e-07
-1.68373e-07
-3.4296e-07
-1.67195e-07
-3.52181e-07
-1.67664e-07
-3.61455e-07
-1.7099e-07
-3.71104e-07
-1.76789e-07
-3.81348e-07
-1.84484e-07
-3.92349e-07
-1.93806e-07
-4.04238e-07
-2.0465e-07
-4.17131e-07
-2.17026e-07
-4.31131e-07
-2.31038e-07
-4.46339e-07
-2.46875e-07
-4.62856e-07
-2.64806e-07
-4.8079e-07
-2.85179e-07
-5.00243e-07
-3.08471e-07
-5.21362e-07
-3.35246e-07
-5.44379e-07
-3.65835e-07
-5.69647e-07
-3.99957e-07
-5.97646e-07
-4.36205e-07
-6.28905e-07
-4.71532e-07
-6.63752e-07
-5.01402e-07
-7.01931e-07
-5.21308e-07
-7.42473e-07
-5.29025e-07
-7.84018e-07
-5.2544e-07
-8.25302e-07
-5.13269e-07
-8.65398e-07
-4.95307e-07
-9.03713e-07
-4.73626e-07
-9.39902e-07
-4.49522e-07
-9.73759e-07
-4.23711e-07
-1.00516e-06
-3.96589e-07
-1.03404e-06
-3.68389e-07
-1.06036e-06
-3.39262e-07
-1.08409e-06
-3.09321e-07
-1.10523e-06
-2.7866e-07
-1.12381e-06
-2.47365e-07
-1.13983e-06
-2.15516e-07
-1.15332e-06
-1.83186e-07
-1.16433e-06
-1.50449e-07
-1.17286e-06
-1.17373e-07
-1.17894e-06
-8.40267e-08
-1.1826e-06
-5.048e-08
-1.68161e-08
6.57555e-07
-1.33968e-08
6.54627e-07
-4.00203e-08
6.49764e-07
-6.64109e-08
6.42981e-07
-9.24979e-08
6.34298e-07
-1.18205e-07
6.23737e-07
-1.43454e-07
6.11328e-07
-1.6816e-07
5.97104e-07
-1.9223e-07
5.8111e-07
-2.15556e-07
5.63403e-07
-2.38007e-07
5.44055e-07
-2.59421e-07
5.23159e-07
-2.79586e-07
5.00833e-07
-2.98233e-07
4.77228e-07
-3.15032e-07
4.52532e-07
-3.29603e-07
4.26966e-07
-3.41556e-07
4.00779e-07
-3.50567e-07
3.7423e-07
-3.56463e-07
3.47566e-07
-3.59301e-07
3.21004e-07
-3.59386e-07
2.94712e-07
-3.57216e-07
2.68813e-07
-3.53377e-07
2.43382e-07
-3.48438e-07
2.18463e-07
-3.42869e-07
1.94077e-07
-3.37012e-07
1.70229e-07
-3.31087e-07
1.46921e-07
-3.25208e-07
1.24152e-07
-3.1943e-07
1.01921e-07
-3.13757e-07
8.02288e-08
-3.08171e-07
5.90756e-08
-3.02644e-07
3.84639e-08
-2.9715e-07
1.8396e-08
-2.91664e-07
-1.12623e-09
-2.86175e-07
-2.01059e-08
-2.80677e-07
-3.85387e-08
-2.75167e-07
-5.6423e-08
-2.69605e-07
-7.37597e-08
-2.63992e-07
-9.05517e-08
-2.58336e-07
-1.06804e-07
-2.52651e-07
-1.22522e-07
-2.46951e-07
-1.37717e-07
-2.41252e-07
-1.524e-07
-2.35569e-07
-1.66585e-07
-2.29922e-07
-1.80287e-07
-2.24327e-07
-1.93525e-07
-2.188e-07
-2.06321e-07
-2.13359e-07
-2.18696e-07
-2.08018e-07
-2.30678e-07
-2.02793e-07
-2.42291e-07
-1.97697e-07
-2.53567e-07
-1.92743e-07
-2.64536e-07
-1.87944e-07
-2.75232e-07
-1.83315e-07
-2.85688e-07
-1.78874e-07
-2.95942e-07
-1.74641e-07
-3.06029e-07
-1.70649e-07
-3.15981e-07
-1.66951e-07
-3.25845e-07
-1.63656e-07
-3.35653e-07
-1.60784e-07
-3.4544e-07
-1.58585e-07
-3.5524e-07
-1.57396e-07
-3.65074e-07
-1.5783e-07
-3.74955e-07
-1.61112e-07
-3.85173e-07
-1.66576e-07
-3.95926e-07
-1.73739e-07
-4.07361e-07
-1.82379e-07
-4.19602e-07
-1.9242e-07
-4.32755e-07
-2.03886e-07
-4.46919e-07
-2.16888e-07
-4.62191e-07
-2.31619e-07
-4.78673e-07
-2.48344e-07
-4.96474e-07
-2.67401e-07
-5.15706e-07
-2.89267e-07
-5.36542e-07
-3.14443e-07
-5.59244e-07
-3.43173e-07
-5.84185e-07
-3.75061e-07
-6.11846e-07
-4.08594e-07
-6.42702e-07
-4.40726e-07
-6.76958e-07
-4.67191e-07
-7.14226e-07
-4.84076e-07
-7.53496e-07
-4.89779e-07
-7.93501e-07
-4.8545e-07
-8.33131e-07
-4.73647e-07
-8.71601e-07
-4.56842e-07
-9.08414e-07
-4.36815e-07
-9.43278e-07
-4.14659e-07
-9.76013e-07
-3.90976e-07
-1.00651e-06
-3.66097e-07
-1.03468e-06
-3.40215e-07
-1.06048e-06
-3.1346e-07
-1.08387e-06
-2.85929e-07
-1.10483e-06
-2.57704e-07
-1.12333e-06
-2.28861e-07
-1.13938e-06
-1.99474e-07
-1.15295e-06
-1.69611e-07
-1.16406e-06
-1.39341e-07
-1.1727e-06
-1.08731e-07
-1.17888e-06
-7.78509e-08
-1.18258e-06
-4.67717e-08
-1.55795e-08
6.57546e-07
-1.24093e-08
6.54601e-07
-3.70749e-08
6.49715e-07
-6.1525e-08
6.42908e-07
-8.56911e-08
6.34205e-07
-1.09502e-07
6.23634e-07
-1.32883e-07
6.1123e-07
-1.55756e-07
5.97036e-07
-1.78036e-07
5.81104e-07
-1.99623e-07
5.63497e-07
-2.20399e-07
5.44292e-07
-2.40215e-07
5.23586e-07
-2.58878e-07
5.015e-07
-2.76145e-07
4.78183e-07
-2.91712e-07
4.53815e-07
-3.05231e-07
4.2861e-07
-3.16344e-07
4.02802e-07
-3.2475e-07
3.76636e-07
-3.30287e-07
3.50346e-07
-3.33e-07
3.24138e-07
-3.33165e-07
2.98173e-07
-3.31238e-07
2.72569e-07
-3.2776e-07
2.47399e-07
-3.23256e-07
2.22706e-07
-3.18164e-07
1.98512e-07
-3.12807e-07
1.74819e-07
-3.07384e-07
1.51631e-07
-3.02011e-07
1.28945e-07
-2.96735e-07
1.06758e-07
-2.91563e-07
8.50702e-08
-2.86476e-07
6.38805e-08
-2.81449e-07
4.31902e-08
-2.76454e-07
2.30007e-08
-2.7147e-07
3.31299e-09
-2.66484e-07
-1.58713e-08
-2.61489e-07
-3.45529e-08
-2.56482e-07
-5.27294e-08
-2.51426e-07
-7.04006e-08
-2.46318e-07
-8.75683e-08
-2.41166e-07
-1.04236e-07
-2.35981e-07
-1.20409e-07
-2.30776e-07
-1.36096e-07
-2.25563e-07
-1.51306e-07
-2.20358e-07
-1.6605e-07
-2.15176e-07
-1.80344e-07
-2.10032e-07
-1.94202e-07
-2.04941e-07
-2.07644e-07
-1.99916e-07
-2.20688e-07
-1.94973e-07
-2.33358e-07
-1.90123e-07
-2.45675e-07
-1.85379e-07
-2.57666e-07
-1.80752e-07
-2.69355e-07
-1.76254e-07
-2.80771e-07
-1.71899e-07
-2.91942e-07
-1.67703e-07
-3.02895e-07
-1.63687e-07
-3.1366e-07
-1.59883e-07
-3.24261e-07
-1.5635e-07
-3.34735e-07
-1.53181e-07
-3.45108e-07
-1.50411e-07
-3.55407e-07
-1.48285e-07
-3.65664e-07
-1.47139e-07
-3.75907e-07
-1.47588e-07
-3.8625e-07
-1.50774e-07
-3.96928e-07
-1.55904e-07
-4.08108e-07
-1.62566e-07
-4.19924e-07
-1.70572e-07
-4.32489e-07
-1.79866e-07
-4.45905e-07
-1.90483e-07
-4.60268e-07
-2.0254e-07
-4.75678e-07
-2.16226e-07
-4.92241e-07
-2.31801e-07
-5.10074e-07
-2.49592e-07
-5.29306e-07
-2.70064e-07
-5.50126e-07
-2.93658e-07
-5.72805e-07
-3.20534e-07
-5.97706e-07
-3.50207e-07
-6.25253e-07
-3.81098e-07
-6.5582e-07
-4.10209e-07
-6.89485e-07
-4.33571e-07
-7.25791e-07
-4.47805e-07
-7.63779e-07
-4.51815e-07
-8.02326e-07
-4.46916e-07
-8.40477e-07
-4.35504e-07
-8.77553e-07
-4.19769e-07
-9.1312e-07
-4.0125e-07
-9.46905e-07
-3.80874e-07
-9.78734e-07
-3.59147e-07
-1.00848e-06
-3.36347e-07
-1.03606e-06
-3.12635e-07
-1.0614e-06
-2.88119e-07
-1.08445e-06
-2.62882e-07
-1.10516e-06
-2.36994e-07
-1.1235e-06
-2.10523e-07
-1.13944e-06
-1.83533e-07
-1.15296e-06
-1.56089e-07
-1.16405e-06
-1.28254e-07
-1.17269e-06
-1.00092e-07
-1.17887e-06
-7.16699e-08
-1.18258e-06
-4.30572e-08
-1.43399e-08
6.57551e-07
-1.14264e-08
6.54615e-07
-3.41393e-08
6.49744e-07
-5.6654e-08
6.4296e-07
-7.8907e-08
6.3429e-07
-1.00832e-07
6.23766e-07
-1.22359e-07
6.11428e-07
-1.43418e-07
5.97322e-07
-1.63929e-07
5.81501e-07
-1.83802e-07
5.64031e-07
-2.02929e-07
5.44991e-07
-2.21174e-07
5.24478e-07
-2.38363e-07
5.02608e-07
-2.54272e-07
4.79527e-07
-2.68627e-07
4.5541e-07
-2.81109e-07
4.30463e-07
-2.9139e-07
4.04913e-07
-2.99191e-07
3.78997e-07
-3.04361e-07
3.52944e-07
-3.06936e-07
3.26956e-07
-3.07164e-07
3.01191e-07
-3.05461e-07
2.75766e-07
-3.02322e-07
2.50754e-07
-2.98232e-07
2.26198e-07
-2.93596e-07
2.02115e-07
-2.88712e-07
1.78511e-07
-2.8377e-07
1.55386e-07
-2.78877e-07
1.32735e-07
-2.74076e-07
1.10555e-07
-2.69375e-07
8.88415e-08
-2.64756e-07
6.7594e-08
-2.60195e-07
4.68122e-08
-2.55667e-07
2.64968e-08
-2.5115e-07
6.64876e-09
-2.46631e-07
-1.27315e-08
-2.42105e-07
-3.16439e-08
-2.37566e-07
-5.00864e-08
-2.3298e-07
-6.80582e-08
-2.28343e-07
-8.556e-08
-2.23662e-07
-1.02594e-07
-2.18945e-07
-1.19166e-07
-2.14203e-07
-1.35279e-07
-2.09448e-07
-1.50943e-07
-2.04693e-07
-1.66168e-07
-1.99951e-07
-1.80965e-07
-1.95235e-07
-1.95347e-07
-1.90558e-07
-2.0933e-07
-1.85933e-07
-2.2293e-07
-1.81372e-07
-2.36166e-07
-1.76887e-07
-2.49057e-07
-1.72487e-07
-2.61623e-07
-1.68185e-07
-2.73887e-07
-1.6399e-07
-2.8587e-07
-1.59915e-07
-2.97596e-07
-1.55977e-07
-3.09087e-07
-1.52195e-07
-3.20367e-07
-1.48602e-07
-3.31455e-07
-1.45262e-07
-3.42384e-07
-1.42252e-07
-3.53174e-07
-1.39619e-07
-3.63852e-07
-1.37608e-07
-3.74443e-07
-1.36549e-07
-3.84968e-07
-1.37065e-07
-3.95648e-07
-1.40098e-07
-4.06677e-07
-1.44881e-07
-4.18198e-07
-1.51053e-07
-4.3033e-07
-1.58451e-07
-4.43176e-07
-1.67031e-07
-4.56835e-07
-1.76837e-07
-4.71404e-07
-1.87987e-07
-4.86984e-07
-2.00664e-07
-5.03689e-07
-2.15117e-07
-5.21646e-07
-2.31661e-07
-5.41001e-07
-2.50738e-07
-5.61964e-07
-2.72731e-07
-5.84816e-07
-2.97725e-07
-6.09908e-07
-3.25163e-07
-6.37622e-07
-3.53436e-07
-6.68238e-07
-3.79644e-07
-7.01713e-07
-4.0014e-07
-7.37503e-07
-4.12049e-07
-7.74657e-07
-4.14683e-07
-8.12144e-07
-4.09442e-07
-8.49124e-07
-3.98532e-07
-8.85012e-07
-3.83884e-07
-9.19438e-07
-3.66826e-07
-9.52167e-07
-3.48146e-07
-9.83042e-07
-3.28272e-07
-1.01195e-06
-3.07439e-07
-1.0388e-06
-2.85783e-07
-1.06353e-06
-2.63396e-07
-1.08606e-06
-2.40348e-07
-1.10635e-06
-2.16703e-07
-1.12435e-06
-1.92519e-07
-1.14003e-06
-1.67855e-07
-1.15335e-06
-1.42768e-07
-1.16429e-06
-1.17317e-07
-1.17282e-06
-9.1561e-08
-1.17893e-06
-6.55619e-08
-1.1826e-06
-3.93863e-08
-1.31159e-08
6.57555e-07
-1.04478e-08
6.54633e-07
-3.12171e-08
6.49785e-07
-5.18064e-08
6.43035e-07
-7.21567e-08
6.3441e-07
-9.2207e-08
6.23946e-07
-1.11895e-07
6.11682e-07
-1.31154e-07
5.97665e-07
-1.49913e-07
5.81953e-07
-1.6809e-07
5.64612e-07
-1.85586e-07
5.45719e-07
-2.0228e-07
5.25371e-07
-2.18013e-07
5.03685e-07
-2.32583e-07
4.80801e-07
-2.4574e-07
4.56891e-07
-2.57194e-07
4.32153e-07
-2.66646e-07
4.06808e-07
-2.73839e-07
3.81088e-07
-2.78631e-07
3.55216e-07
-2.81053e-07
3.29389e-07
-2.81325e-07
3.03767e-07
-2.79825e-07
2.78463e-07
-2.77005e-07
2.53553e-07
-2.73309e-07
2.29079e-07
-2.6911e-07
2.05059e-07
-2.64681e-07
1.81498e-07
-2.602e-07
1.58396e-07
-2.55765e-07
1.35745e-07
-2.51418e-07
1.13541e-07
-2.47164e-07
9.17794e-08
-2.42988e-07
7.04578e-08
-2.38868e-07
4.95752e-08
-2.34779e-07
2.91316e-08
-2.30702e-07
9.1275e-09
-2.26623e-07
-1.0437e-08
-2.22537e-07
-2.95617e-08
-2.18438e-07
-4.82444e-08
-2.14295e-07
-6.64837e-08
-2.10101e-07
-8.42795e-08
-2.05864e-07
-1.01633e-07
-2.01589e-07
-1.18547e-07
-1.97287e-07
-1.35026e-07
-1.92968e-07
-1.51076e-07
-1.88642e-07
-1.66704e-07
-1.84321e-07
-1.81921e-07
-1.80017e-07
-1.96737e-07
-1.75741e-07
-2.11165e-07
-1.71505e-07
-2.25217e-07
-1.67319e-07
-2.3891e-07
-1.63194e-07
-2.52259e-07
-1.59138e-07
-2.65281e-07
-1.55163e-07
-2.77994e-07
-1.51277e-07
-2.90416e-07
-1.47493e-07
-3.02566e-07
-1.43826e-07
-3.14463e-07
-1.40297e-07
-3.26128e-07
-1.36936e-07
-3.37575e-07
-1.33814e-07
-3.48838e-07
-1.30989e-07
-3.59935e-07
-1.28522e-07
-3.70895e-07
-1.26648e-07
-3.81743e-07
-1.25702e-07
-3.92508e-07
-1.26302e-07
-4.03454e-07
-1.29156e-07
-4.14759e-07
-1.33584e-07
-4.26552e-07
-1.39268e-07
-4.38946e-07
-1.46068e-07
-4.52038e-07
-1.53951e-07
-4.65925e-07
-1.62964e-07
-4.80707e-07
-1.73222e-07
-4.96488e-07
-1.84901e-07
-5.1339e-07
-1.98237e-07
-5.31549e-07
-2.13528e-07
-5.5113e-07
-2.31187e-07
-5.72356e-07
-2.51542e-07
-5.95508e-07
-2.74616e-07
-6.20917e-07
-2.99804e-07
-6.48901e-07
-3.25504e-07
-6.79641e-07
-3.48955e-07
-7.12979e-07
-3.66845e-07
-7.48313e-07
-3.76748e-07
-7.84726e-07
-3.78291e-07
-8.21289e-07
-3.72892e-07
-8.57261e-07
-3.62567e-07
-8.92137e-07
-3.49011e-07
-9.2559e-07
-3.33373e-07
-9.57412e-07
-3.16325e-07
-9.87457e-07
-2.98228e-07
-1.01562e-06
-2.7928e-07
-1.0418e-06
-2.59598e-07
-1.06594e-06
-2.39259e-07
-1.08796e-06
-2.18325e-07
-1.10781e-06
-1.9685e-07
-1.12545e-06
-1.74886e-07
-1.14082e-06
-1.52484e-07
-1.15389e-06
-1.29697e-07
-1.16463e-06
-1.06578e-07
-1.17301e-06
-8.31793e-08
-1.17901e-06
-5.95592e-08
-1.18262e-06
-3.57784e-08
-1.19133e-08
6.57562e-07
-9.47566e-09
6.54658e-07
-2.83136e-08
6.49841e-07
-4.6989e-08
6.43133e-07
-6.54487e-08
6.34563e-07
-8.36371e-08
6.24166e-07
-1.01498e-07
6.11983e-07
-1.18971e-07
5.98062e-07
-1.35991e-07
5.8246e-07
-1.52486e-07
5.65241e-07
-1.68367e-07
5.46485e-07
-1.83523e-07
5.26285e-07
-1.97812e-07
5.04755e-07
-2.11051e-07
4.82033e-07
-2.23016e-07
4.58287e-07
-2.33443e-07
4.33709e-07
-2.42061e-07
4.08516e-07
-2.48638e-07
3.82935e-07
-2.5304e-07
3.57187e-07
-2.55293e-07
3.31468e-07
-2.55594e-07
3.05935e-07
-2.5428e-07
2.80705e-07
-2.51763e-07
2.55853e-07
-2.48445e-07
2.31421e-07
-2.44667e-07
2.07429e-07
-2.40677e-07
1.83881e-07
-2.36641e-07
1.60773e-07
-2.32648e-07
1.38101e-07
-2.28737e-07
1.15856e-07
-2.24912e-07
9.40348e-08
-2.2116e-07
7.26326e-08
-2.1746e-07
5.1648e-08
-2.13789e-07
3.10806e-08
-2.1013e-07
1.09305e-08
-2.06469e-07
-8.80214e-09
-2.028e-07
-2.81172e-08
-1.9912e-07
-4.70122e-08
-1.95397e-07
-6.5485e-08
-1.91626e-07
-8.35347e-08
-1.87812e-07
-1.01161e-07
-1.83961e-07
-1.18366e-07
-1.80081e-07
-1.35152e-07
-1.7618e-07
-1.51524e-07
-1.72268e-07
-1.67488e-07
-1.68356e-07
-1.8305e-07
-1.64453e-07
-1.9822e-07
-1.60571e-07
-2.13006e-07
-1.56717e-07
-2.27421e-07
-1.52903e-07
-2.41477e-07
-1.49138e-07
-2.55186e-07
-1.45429e-07
-2.68562e-07
-1.41786e-07
-2.81621e-07
-1.38218e-07
-2.94377e-07
-1.34737e-07
-3.06846e-07
-1.31357e-07
-3.19045e-07
-1.28097e-07
-3.30992e-07
-1.24989e-07
-3.42702e-07
-1.22103e-07
-3.54204e-07
-1.19486e-07
-3.65521e-07
-1.17205e-07
-3.76683e-07
-1.15485e-07
-3.87724e-07
-1.14662e-07
-3.98699e-07
-1.15329e-07
-4.09869e-07
-1.17991e-07
-4.21401e-07
-1.22058e-07
-4.33423e-07
-1.27255e-07
-4.46041e-07
-1.3346e-07
-4.59352e-07
-1.40652e-07
-4.73453e-07
-1.48877e-07
-4.88444e-07
-1.58247e-07
-5.04438e-07
-1.68927e-07
-5.21561e-07
-1.81135e-07
-5.39961e-07
-1.95155e-07
-5.59817e-07
-2.11364e-07
-5.81361e-07
-2.30036e-07
-6.04875e-07
-2.51147e-07
-6.30663e-07
-2.74067e-07
-6.58986e-07
-2.97233e-07
-6.89931e-07
-3.18062e-07
-7.2324e-07
-3.33579e-07
-7.58262e-07
-3.41758e-07
-7.94109e-07
-3.42464e-07
-8.29928e-07
-3.37084e-07
-8.65066e-07
-3.27436e-07
-8.99079e-07
-3.15001e-07
-9.31683e-07
-3.00771e-07
-9.62692e-07
-2.85317e-07
-9.91974e-07
-2.68945e-07
-1.01943e-06
-2.51825e-07
-1.04497e-06
-2.34055e-07
-1.06853e-06
-2.15702e-07
-1.09004e-06
-1.96817e-07
-1.10944e-06
-1.7745e-07
-1.12668e-06
-1.57645e-07
-1.14171e-06
-1.37447e-07
-1.15451e-06
-1.16904e-07
-1.16502e-06
-9.60623e-08
-1.17323e-06
-7.49703e-08
-1.17911e-06
-5.36793e-08
-1.18264e-06
-3.22446e-08
-1.07357e-08
6.57568e-07
-8.50977e-09
6.54683e-07
-2.54285e-08
6.49896e-07
-4.22021e-08
6.4323e-07
-5.87829e-08
6.34714e-07
-7.51212e-08
6.24383e-07
-9.11661e-08
6.12277e-07
-1.06865e-07
5.98444e-07
-1.22159e-07
5.8294e-07
-1.36982e-07
5.65831e-07
-1.51257e-07
5.47193e-07
-1.64884e-07
5.27118e-07
-1.77736e-07
5.05719e-07
-1.8965e-07
4.83131e-07
-2.00424e-07
4.59516e-07
-2.09823e-07
4.35065e-07
-2.17603e-07
4.09989e-07
-2.23554e-07
3.84513e-07
-2.27555e-07
3.58855e-07
-2.29624e-07
3.3321e-07
-2.29936e-07
3.07736e-07
-2.28793e-07
2.8255e-07
-2.26564e-07
2.57728e-07
-2.2361e-07
2.33314e-07
-2.2024e-07
2.09326e-07
-2.16679e-07
1.8577e-07
-2.13075e-07
1.62642e-07
-2.09511e-07
1.39935e-07
-2.06021e-07
1.1764e-07
-2.0261e-07
9.5753e-08
-1.99266e-07
7.42689e-08
-1.9597e-07
5.31855e-08
-1.92701e-07
3.25021e-08
-1.89442e-07
1.22187e-08
-1.86181e-07
-7.66464e-09
-1.82913e-07
-2.71476e-08
-1.79634e-07
-4.62273e-08
-1.76314e-07
-6.49011e-08
-1.7295e-07
-8.31669e-08
-1.69544e-07
-1.01024e-07
-1.66102e-07
-1.18473e-07
-1.6263e-07
-1.35514e-07
-1.59137e-07
-1.52152e-07
-1.5563e-07
-1.68389e-07
-1.52118e-07
-1.84232e-07
-1.4861e-07
-1.99687e-07
-1.45115e-07
-2.14761e-07
-1.41642e-07
-2.29464e-07
-1.382e-07
-2.43805e-07
-1.34796e-07
-2.57794e-07
-1.31439e-07
-2.71444e-07
-1.28135e-07
-2.84767e-07
-1.24895e-07
-2.97774e-07
-1.21729e-07
-3.10481e-07
-1.18649e-07
-3.22903e-07
-1.15676e-07
-3.35054e-07
-1.12836e-07
-3.46953e-07
-1.10204e-07
-3.58626e-07
-1.07812e-07
-3.70098e-07
-1.05732e-07
-3.81405e-07
-1.04177e-07
-3.9259e-07
-1.03478e-07
-4.03739e-07
-1.04183e-07
-4.15097e-07
-1.06639e-07
-4.26823e-07
-1.10339e-07
-4.39043e-07
-1.15044e-07
-4.51859e-07
-1.20655e-07
-4.6537e-07
-1.27154e-07
-4.79672e-07
-1.34589e-07
-4.9487e-07
-1.43065e-07
-5.11081e-07
-1.52736e-07
-5.28438e-07
-1.63801e-07
-5.47098e-07
-1.76524e-07
-5.67252e-07
-1.91242e-07
-5.8914e-07
-2.08187e-07
-6.13038e-07
-2.27295e-07
-6.39223e-07
-2.47933e-07
-6.67897e-07
-2.68614e-07
-6.99056e-07
-2.86953e-07
-7.32361e-07
-3.00316e-07
-7.67125e-07
-3.07025e-07
-8.02494e-07
-3.07115e-07
-8.37687e-07
-3.01902e-07
-8.72121e-07
-2.93008e-07
-9.05404e-07
-2.81721e-07
-9.37282e-07
-2.68893e-07
-9.67591e-07
-2.55009e-07
-9.96208e-07
-2.40328e-07
-1.02304e-06
-2.24994e-07
-1.04801e-06
-2.09089e-07
-1.07104e-06
-1.92672e-07
-1.09206e-06
-1.75788e-07
-1.11104e-06
-1.58477e-07
-1.1279e-06
-1.4078e-07
-1.14261e-06
-1.22736e-07
-1.15513e-06
-1.04386e-07
-1.16542e-06
-8.57715e-08
-1.17346e-06
-6.69359e-08
-1.17921e-06
-4.79244e-08
-1.18267e-06
-2.87862e-08
-9.58356e-09
6.57574e-07
-7.54988e-09
6.54706e-07
-2.25609e-08
6.49948e-07
-3.7444e-08
6.43322e-07
-5.21568e-08
6.34856e-07
-6.66555e-08
6.24585e-07
-8.08951e-08
6.1255e-07
-9.48287e-08
5.98797e-07
-1.08405e-07
5.83381e-07
-1.21566e-07
5.66367e-07
-1.34242e-07
5.4783e-07
-1.46346e-07
5.27861e-07
-1.57766e-07
5.0657e-07
-1.68356e-07
4.8409e-07
-1.7794e-07
4.6058e-07
-1.86308e-07
4.36226e-07
-1.93244e-07
4.1124e-07
-1.98559e-07
3.8584e-07
-2.02146e-07
3.60245e-07
-2.04017e-07
3.34649e-07
-2.04327e-07
3.09211e-07
-2.03342e-07
2.84048e-07
-2.01388e-07
2.59239e-07
-1.98789e-07
2.34826e-07
-1.95815e-07
2.10829e-07
-1.92672e-07
1.87254e-07
-1.8949e-07
1.64096e-07
-1.86344e-07
1.41347e-07
-1.83264e-07
1.18999e-07
-1.80255e-07
9.70463e-08
-1.77307e-07
7.54837e-08
-1.74401e-07
5.43086e-08
-1.7152e-07
3.352e-08
-1.68649e-07
1.31178e-08
-1.65775e-07
-6.89768e-09
-1.62894e-07
-2.6526e-08
-1.60002e-07
-4.5764e-08
-1.57074e-07
-6.46081e-08
-1.54103e-07
-8.30557e-08
-1.51094e-07
-1.01105e-07
-1.48051e-07
-1.18756e-07
-1.44978e-07
-1.36007e-07
-1.41884e-07
-1.52861e-07
-1.38774e-07
-1.69321e-07
-1.35657e-07
-1.8539e-07
-1.3254e-07
-2.01072e-07
-1.29432e-07
-2.16374e-07
-1.26339e-07
-2.31303e-07
-1.2327e-07
-2.45867e-07
-1.20232e-07
-2.60074e-07
-1.17231e-07
-2.73934e-07
-1.14275e-07
-2.87457e-07
-1.11372e-07
-3.00654e-07
-1.08531e-07
-3.13537e-07
-1.05765e-07
-3.26121e-07
-1.03092e-07
-3.38421e-07
-1.00536e-07
-3.50454e-07
-9.81698e-08
-3.6225e-07
-9.60148e-08