/*--------------------------------*- C++ -*----------------------------------*\
  =========                 |
  \\      /  F ield         | OpenFOAM: The Open Source CFD Toolbox
   \\    /   O peration     | Website:  https://openfoam.org
    \\  /    A nd           | Version:  8
     \\/     M anipulation  |
\*---------------------------------------------------------------------------*/
FoamFile
{
    version     2.0;
    format      ascii;
    class       volScalarField;
    location    "0.45/fluid";
    object      Qdot;
}
// * * * * * * * * * * * * * * * * * * * * * * * * * * * * * * * * * * * * * //

dimensions      [1 -1 -3 0 0 0 0];

internalField   nonuniform List<scalar> 
4000
(
2.17408e-06
2.1741e-06
-6.3883e-16
0
0
2.17427e-06
3.90103e-10
7.80205e-10
2.17563e-06
2.17407e-06
2.17719e-06
6.24164e-09
2.17407e-06
1.24831e-08
1.24831e-08
2.49666e-08
2.17407e-06
2.17407e-06
4.99325e-08
1.1421e-06
1.1869e-06
2.24063e-06
1.16958e-05
0.000121752
0.00102972
0.00711965
0.0405838
0.193372
0.78366
2.74588
8.43962
23.0753
56.8224
127.397
262.597
502.551
902.218
1533.17
2489.69
3903.49
5974.68
9030.52
13631.4
20759.4
32153.3
50896.9
82412.3
136029
227310
381227
636954
1.05569e+06
1.73346e+06
2.82132e+06
4.55632e+06
7.30932e+06
1.16605e+07
1.84253e+07
2.89494e+07
4.59689e+07
7.30096e+07
1.16504e+08
1.50771e+08
8.98829e+07
5.31231e+07
3.08481e+07
1.74693e+07
9.58125e+06
5.05312e+06
2.54602e+06
1.21736e+06
551626
245126
79121.8
12458.5
744.06
20.646
0.29958
0.00289024
2.94691e-05
5.48858e-07
3.51422e-08
5.30726e-09
3.0684e-09
8.08597e-10
3.50177e-10
3.93811e-10
1.52154e-10
5.94894e-11
1.94113e-11
1.8266e-11
6.0622e-12
-1.38253e-14
7.56193e-13
3.78607e-13
-4.16768e-11
-4.1824e-11
-4.18427e-11
-4.18545e-11
-8.61982e-18
3.04764e-12
2.17407e-06
2.17412e-06
2.17417e-06
2.29261e-20
2.17427e-06
2.17446e-06
7.80195e-10
0
2.17563e-06
3.12082e-09
3.44151e-09
6.24156e-09
2.18656e-06
-1.6354e-13
2.19904e-06
2.19904e-06
-3.52145e-17
2.224e-06
1.08704e-06
1.28677e-06
8.98793e-07
1.08854e-05
0.000104951
0.000893077
0.00627076
0.0363135
0.175854
0.723328
2.5654
7.97598
22.0407
54.8038
123.955
257.531
496.305
896.533
1531.88
2499.65
3935.86
6047.19
9171.9
13890.2
21221
32972.7
52359.1
85037
140626
235394
395256
660855
1.09574e+06
1.79974e+06
2.93e+06
4.73327e+06
7.59577e+06
1.21221e+07
1.91399e+07
3.00913e+07
4.78209e+07
7.60239e+07
1.2145e+08
1.46639e+08
8.73108e+07
5.15035e+07
2.98287e+07
1.68346e+07
9.19358e+06
4.82255e+06
2.41424e+06
1.14564e+06
515701
227888
64936.1
8908.42
454.502
11.0018
0.143538
0.00134431
1.48491e-05
3.19635e-07
2.89201e-08
3.23742e-09
1.68071e-09
8.45573e-10
7.32686e-10
3.8777e-10
2.00211e-10
-3.61384e-11
-3.11106e-11
6.07685e-12
-4.1899e-11
-4.05127e-11
7.56288e-13
-4.16978e-11
6.15323e-12
-3.56912e-11
2.36659e-14
-4.18578e-11
-4.18664e-11
2.17408e-06
1.34431e-11
2.17412e-06
2.17417e-06
0
1.95049e-10
3.90097e-10
2.17485e-06
2.17563e-06
1.56041e-09
3.12082e-09
2.17407e-06
2.18031e-06
2.18656e-06
2.18656e-06
2.19904e-06
2.49666e-08
2.19647e-06
2.22401e-06
1.08704e-06
1.28677e-06
1.88596e-06
9.38741e-06
9.10584e-05
0.000780623
0.00553521
0.0324479
0.159171
0.662353
2.37884
7.48568
20.9242
52.5927
120.164
252.021
489.893
891.965
1535.12
2521.48
3994.1
6170.53
9407.26
14317.1
21979.4
34315.5
54739.7
89192.3
148202
248860
418659
700692
1.16239e+06
1.90985e+06
3.11026e+06
5.0264e+06
8.0702e+06
1.28879e+07
2.03215e+07
3.19961e+07
5.08961e+07
8.10048e+07
1.29576e+08
1.39712e+08
8.30401e+07
4.88382e+07
2.81692e+07
1.58144e+07
8.57976e+06
4.46458e+06
2.21399e+06
1.03942e+06
464223
200397
50406.9
5595.08
245.847
5.32587
0.0656759
0.000636738
8.04474e-06
2.05479e-07
1.12655e-08
-2.07023e-10
1.36498e-09
8.5291e-10
7.39188e-10
3.52179e-10
-3.66598e-11
-3.61202e-11
-1.76596e-11
-2.35959e-11
-3.8537e-11
1.66733e-12
-4.11099e-11
-4.16586e-11
-9.13516e-16
-4.18191e-11
6.15403e-12
-3.57063e-11
8.12194e-16
2.17407e-06
-3.19415e-16
2.17412e-06
2.17417e-06
2.17427e-06
1.95049e-10
4.58522e-20
9.17043e-20
0
8.60358e-10
2.17719e-06
2.17687e-06
6.24156e-09
1.24833e-08
5.60026e-09
2.19904e-06
2.18784e-06
2.17407e-06
2.17407e-06
1.08703e-06
1.08703e-06
1.7861e-06
8.18902e-06
7.88748e-05
0.000690253
0.00494973
0.0293542
0.145476
0.612444
2.22471
7.07792
19.9938
50.7623
117.098
247.83
485.841
891.598
1545.85
2556.56
4075.62
6334.36
9712.55
14864.7
22947.7
36018.5
57713.1
94642.9
157885
265884
448024
750314
1.24476e+06
2.04474e+06
3.32876e+06
5.37705e+06
8.62828e+06
1.37696e+07
2.16578e+07
3.44276e+07
5.46621e+07
8.70252e+07
1.39256e+08
1.31234e+08
7.7865e+07
4.56441e+07
2.62041e+07
1.46223e+07
7.87285e+06
4.05992e+06
1.99197e+06
924438
410551
169050
36774.4
3313.64
126.59
2.4629
0.0287958
0.000289336
4.16021e-06
1.38016e-07
1.71614e-08
2.62045e-09
-3.55062e-11
1.55438e-09
-4.66772e-11
4.12131e-12
-8.76722e-13
6.51783e-12
2.42182e-11
-2.97451e-11
-2.94856e-14
7.6657e-12
6.91097e-12
-3.57143e-11
1.89618e-13
4.72749e-14
6.17785e-12
5.9085e-15
-4.18656e-11
2.17408e-06
2.43814e-11
2.17407e-06
2.17407e-06
2.17416e-06
1.95051e-10
2.17407e-06
7.80205e-10
2.17407e-06
2.17477e-06
2.17719e-06
2.17407e-06
2.18031e-06
6.88286e-09
2.18656e-06
-3.27081e-13
2.49666e-08
2.2016e-06
-6.54538e-13
1.1869e-06
1.08704e-06
5.99195e-07
7.39009e-06
7.08189e-05
0.000622874
0.004504
0.0269465
0.134916
0.573787
2.10512
6.7624
19.2813
49.3942
114.927
245.244
484.517
895.699
1563.74
2603.09
4175.48
6527.94
10066.8
15494.6
24049.5
37934.7
61210.2
100861
168918
285219
481246
806251
1.33734e+06
2.19602e+06
3.57352e+06
5.76992e+06
9.2549e+06
1.47645e+07
2.32134e+07
3.69162e+07
5.86209e+07
9.33808e+07
1.49307e+08
1.22411e+08
7.24938e+07
4.23483e+07
2.41931e+07
1.34148e+07
7.16565e+06
3.66096e+06
1.77678e+06
815393
361433
136574
25889.2
1937.52
65.3827
1.16058
0.0131273
0.000139256
2.31305e-06
9.22021e-08
2.43079e-08
3.32787e-09
3.08985e-09
-1.09337e-11
7.75807e-10
3.88232e-10
1.0287e-10
5.80288e-12
-1.14824e-11
5.40421e-12
6.12671e-12
-3.41999e-11
-4.79299e-15
6.53316e-12
-8.06741e-16
-4.18453e-11
6.15405e-12
5.91109e-15
-3.57114e-11
2.17407e-06
2.1741e-06
-6.3883e-16
2.17417e-06
-1.27764e-15
2.17427e-06
2.17446e-06
7.80205e-10
2.17477e-06
1.56041e-09
2.17407e-06
2.17407e-06
6.24156e-09
1.24831e-08
2.18656e-06
2.18784e-06
2.17407e-06
2.17407e-06
2.22401e-06
9.98656e-08
1.08704e-06
5.99197e-07
6.69103e-06
6.527e-05
0.000570499
0.00416411
0.0251266
0.126921
0.544561
2.01524
6.52829
18.7657
48.4514
113.587
244.148
485.685
903.744
1587.64
2658.6
4288.82
6742.09
10453.5
16172.2
25224.9
40063.6
64976.7
107562
180795
305970
516768
865830
1.43561e+06
2.35603e+06
3.83148e+06
6.1823e+06
9.90955e+06
1.57851e+07
2.48001e+07
3.94262e+07
6.2595e+07
9.97293e+07
1.58963e+08
1.13893e+08
6.73405e+07
3.92112e+07
2.22966e+07
1.2288e+07
6.51358e+06
3.29803e+06
1.58403e+06
719541
318571
110006
17854.9
1142.81
34.557
0.566145
0.00625854
7.03865e-05
1.3518e-06
4.48099e-08
5.08567e-09
3.30557e-09
-2.07995e-11
-3.62948e-12
-4.58592e-11
1.5763e-10
4.30089e-11
-3.23962e-13
3.03956e-11
6.09432e-12
7.80916e-12
-4.1877e-11
-3.49547e-11
-4.14872e-11
9.44885e-14
4.73194e-14
2.36941e-14
6.15413e-12
-3.57114e-11
2.17408e-06
2.1741e-06
-6.38824e-16
2.17417e-06
2.17407e-06
1.95051e-10
2.17407e-06
9.17043e-20
-1.02211e-14
1.56039e-09
3.12082e-09
2.80005e-09
-8.17702e-14
1.24833e-08
2.17967e-06
1.3766e-08
-3.27075e-13
-1.76072e-17
2.17407e-06
9.98656e-08
1.08704e-06
1.58637e-06
6.09183e-06
6.07645e-05
0.000531505
0.0039017
0.0237303
0.120829
0.522505
1.94841
6.35838
18.4072
47.8513
112.919
244.248
488.815
914.79
1615.89
2720.19
4410.56
6968.13
10854.5
16870.3
26482.3
42272.1
68893.1
114537
193150
327516
553559
927397
1.53696e+06
2.52081e+06
4.09673e+06
6.60572e+06
1.05806e+07
1.68234e+07
2.64086e+07
4.19626e+07
6.65975e+07
1.06088e+08
1.67355e+08
1.06251e+08
6.27457e+07
3.64321e+07
2.06281e+07
1.13042e+07
5.94915e+06
2.98704e+06
1.42092e+06
640054
283022
83642.5
12440.6
694.639
19.0118
0.290564
0.00317259
3.79648e-05
8.2481e-07
4.63385e-08
-3.91605e-10
-7.32165e-11
-1.76246e-11
1.51589e-09
3.86458e-10
1.93484e-10
6.11311e-11
-2.9764e-13
-1.76143e-11
-5.54279e-14
-3.26881e-11
-3.41982e-11
7.5779e-13
-4.14871e-11
9.45419e-14
-4.1819e-11
1.30203e-14
-3.59005e-17
-4.18664e-11
-3.99265e-17
-1.59705e-16
5.73152e-21
9.75256e-11
1.95051e-10
1.95049e-10
3.90097e-10
7.80205e-10
2.17407e-06
1.56041e-09
-4.08851e-14
6.24156e-09
3.44143e-09
2.17407e-06
2.17967e-06
2.19904e-06
2.19904e-06
2.75314e-08
2.75314e-08
-6.58306e-13
1.1869e-06
5.99197e-07
6.8242e-06
5.67148e-05
0.000501011
0.00370087
0.0226678
0.116227
0.506057
1.89961
6.23877
18.1718
47.5179
112.767
245.248
493.366
927.886
1646.83
2785.05
4535.99
7196.16
11256.7
17594.8
27747.1
44499.7
72853.3
121600
205666
349328
590773
989646
1.63948e+06
2.68769e+06
4.36592e+06
7.03668e+06
1.12665e+07
1.78847e+07
2.8073e+07
4.46196e+07
7.08543e+07
1.12983e+08
1.67034e+08
1.00283e+08
5.90923e+07
3.4195e+07
1.92744e+07
1.05028e+07
5.48909e+06
2.7342e+06
1.28904e+06
576391
252069
68046.9
8651.69
432.64
10.8819
0.157198
0.00171157
2.18868e-05
5.26505e-07
3.48296e-08
-3.08607e-10
-6.8032e-11
-2.11547e-11
7.72187e-10
-3.9049e-11
1.12256e-10
9.68929e-11
-3.59881e-11
-1.19714e-13
-2.90417e-11
-3.26863e-11
6.98521e-12
6.15034e-12
8.38674e-14
-4.1867e-11
-3.56862e-11
1.18044e-14
-4.18631e-11
4.04004e-16
2.17407e-06
2.17407e-06
2.17412e-06
2.17417e-06
2.17427e-06
1.95051e-10
-5.11064e-15
2.1745e-06
2.17563e-06
1.56039e-09
2.17719e-06
2.17407e-06
2.18031e-06
1.24833e-08
1.24833e-08
2.93454e-18
2.19904e-06
-6.5418e-13
2.22401e-06
2.224e-06
1.08703e-06
1.58637e-06
6.4798e-06
5.34743e-05
0.000476133
0.00354583
0.0218546
0.112754
0.493879
1.86457
6.15741
18.0293
47.383
112.99
246.872
498.83
942.126
1678.92
2850.53
4659.64
7419.52
11662.5
18302.1
28984.1
46683.4
76743.2
128547
217976
370765
627315
1.05073e+06
1.74008e+06
2.85155e+06
4.63052e+06
7.46092e+06
1.1943e+07
1.89277e+07
2.97285e+07
4.72854e+07
7.51629e+07
1.2003e+08
1.61375e+08
9.57336e+07
5.62582e+07
3.24371e+07
1.82011e+07
9.86332e+06
5.12206e+06
2.53252e+06
1.1843e+06
526630
225781
55768.2
6168.37
280.703
6.55638
0.0903964
0.000987845
1.3481e-05
3.66901e-07
3.54328e-08
1.22228e-08
-9.51916e-11
-1.9049e-11
7.72884e-10
1.7193e-10
6.43425e-11
-5.86169e-13
2.16194e-11
-1.11109e-13
1.22017e-11
-4.02062e-11
6.75067e-13
-3.57497e-15
1.89001e-13
-4.17717e-11
6.17529e-12
6.16598e-12
5.92123e-15
7.38191e-16
3.04768e-12
1.21905e-11
2.17407e-06
2.17407e-06
2.17427e-06
2.17427e-06
2.17425e-06
7.80205e-10
-1.02211e-14
2.17563e-06
2.17719e-06
2.17407e-06
2.17687e-06
-1.63539e-13
2.17407e-06
2.17407e-06
2.17407e-06
2.17407e-06
-6.5442e-13
2.224e-06
1.1869e-06
1.4865e-06
5.09317e-06
5.19648e-05
0.000459421
0.00342807
0.0212387
0.110158
0.484991
1.84003
6.10492
17.9556
47.3907
113.47
248.885
504.769
956.729
1710.79
2913.89
4778.19
7639.01
12047.6
18973.3
30159
48760.5
80447.7
135165
229698
391149
662008
1.10865e+06
1.83538e+06
3.00664e+06
4.88073e+06
7.8617e+06
1.25813e+07
1.99037e+07
3.12785e+07
4.97793e+07
7.91894e+07
1.26598e+08
1.55335e+08
9.19936e+07
5.39312e+07
3.09953e+07
1.73218e+07
9.34049e+06
4.82298e+06
2.36893e+06
1.09999e+06
487413
202801
46279
4537.73
190.403
4.16855
0.0553043
0.000609052
8.81891e-06
2.51191e-07
3.58638e-08
2.54335e-09
1.62608e-09
8.49168e-10
7.73434e-10
3.93398e-10
1.12454e-10
5.60648e-12
-4.21058e-11
-2.97797e-11
9.47023e-12
7.81562e-12
-3.488e-11
4.16761e-13
6.34327e-12
-3.56175e-11
4.73921e-14
-3.57123e-11
-3.57096e-11
6.1545e-12
-3.99262e-17
2.17408e-06
5.73152e-21
2.17417e-06
2.17407e-06
8.75015e-11
2.17425e-06
0
1.5604e-09
2.17563e-06
3.12078e-09
7.33635e-19
3.44151e-09
1.24831e-08
1.24831e-08
2.17407e-06
2.49662e-08
4.99331e-08
-6.54408e-13
1.13697e-06
1.08703e-06
1.58637e-06
4.9933e-06
5.00674e-05
0.000443443
0.00333719
0.0207716
0.10823
0.478601
1.82339
6.07371
17.9311
47.4954
114.107
251.096
510.823
971.055
1741.19
2973.48
4891.98
7842.08
12403
19592.1
31241.9
50675.6
83864.8
141269
240498
409898
693864
1.16176e+06
1.92271e+06
3.1487e+06
5.10989e+06
8.22881e+06
1.31662e+07
2.0793e+07
3.26746e+07
5.2014e+07
8.27857e+07
1.32444e+08
1.5004e+08
8.87614e+07
5.19341e+07
2.97662e+07
1.65771e+07
8.90063e+06
4.57309e+06
2.23327e+06
1.03068e+06
455552
184534
38835.9
3441.72
134.78
2.79114
0.0358937
0.000399534
6.12333e-06
2.07027e-07
1.1204e-08
6.05575e-09
3.07935e-09
1.50254e-09
7.73904e-10
-2.68079e-12
6.45106e-11
5.32573e-11
-2.25761e-13
1.15252e-11
-3.57543e-11
-3.40496e-11
-4.18739e-11
-4.14886e-11
1.03718e-13
-3.567e-11
-4.18452e-11
6.166e-12
-4.18664e-11
-4.18664e-11
1.68039e-12
5.46884e-12
2.17409e-06
2.17412e-06
9.75244e-11
2.17427e-06
0
7.80195e-10
2.17407e-06
8.60378e-10
2.17407e-06
-4.08851e-14
2.17407e-06
2.18656e-06
-1.63539e-13
0
2.49662e-08
2.22401e-06
4.99325e-08
1.13697e-06
1.08703e-06
1.58637e-06
4.6937e-06
4.74823e-05
0.000433832
0.00326673
0.0204201
0.106817
0.474109
1.81262
6.0579
17.9405
47.6612
114.827
253.354
516.716
984.588
1769.31
3029.56
4995.02
8025.01
12721.9
20145.9
32209.9
52385.6
86912.5
146705
250096
426521
722044
1.20867e+06
1.99972e+06
3.27389e+06
5.31169e+06
8.55187e+06
1.36805e+07
2.15677e+07
3.38994e+07
5.39751e+07
8.59384e+07
1.37542e+08
1.45388e+08
8.59311e+07
5.0194e+07
2.87015e+07
1.59364e+07
8.52492e+06
4.3613e+06
2.11928e+06
973113
429749
167663
33160.7
2697.79
99.5422
1.96496
0.0246375
0.000277577
4.47841e-06
1.60889e-07
1.14121e-08
6.03578e-09
3.07722e-09
1.54548e-09
2.09471e-13
3.51859e-10
1.0644e-10
4.32651e-11
1.32303e-11
-2.97683e-11
-2.96567e-11
9.18489e-12
-7.14994e-15
-3.55051e-11
-4.17626e-11
-3.56175e-11
6.17778e-12
5.26161e-15
2.64409e-15
3.2875e-16
3.04764e-12
2.17409e-06
4.87622e-11
1.1463e-20
5.37736e-11
2.17427e-06
2.17446e-06
2.17485e-06
2.17493e-06
2.17477e-06
3.12082e-09
2.18031e-06
2.18031e-06
2.17407e-06
1.24833e-08
2.49666e-08
2.49666e-08
4.99331e-08
2.224e-06
1.1421e-06
1.1869e-06
1.4865e-06
5.68088e-06
4.7371e-05
0.000425732
0.00321484
0.0201603
0.105798
0.471036
1.80614
6.05282
17.9718
47.8605
115.572
255.546
522.242
996.938
1795.37
3079.53
5086.15
8185.84
13001
20628.7
33050.6
53866.3
89543
151379
258312
440682
745942
1.24828e+06
2.06458e+06
3.37911e+06
5.48134e+06
8.82429e+06
1.41175e+07
2.22308e+07
3.49719e+07
5.56858e+07
8.8679e+07
1.41951e+08
1.41251e+08
8.34254e+07
4.86628e+07
2.77714e+07
1.5381e+07
8.20193e+06
4.18077e+06
2.02299e+06
924980
408466
153080
28765.6
2179.16
76.4386
1.44895
0.0178059
0.000203124
3.47695e-06
1.135e-07
1.71308e-08
2.65273e-09
1.36579e-09
-1.40438e-11
3.50541e-10
3.87693e-10
8.64471e-11
-4.2331e-11
-3.11319e-11
-2.90788e-11
-3.91699e-11
-4.18825e-11
1.51702e-12
-4.14883e-11
6.15299e-12
-4.85429e-16
-4.18534e-11
-4.18545e-11
-4.18634e-11
-4.88148e-18
2.17408e-06
1.21905e-11
4.87628e-11
9.75256e-11
2.17412e-06
2.17427e-06
2.17446e-06
2.17485e-06
1.5604e-09
2.17563e-06
3.12082e-09
2.17407e-06
6.24164e-09
1.24831e-08
1.24831e-08
0
2.19904e-06
-1.76072e-17
4.99325e-08
1.13697e-06
1.08703e-06
1.4865e-06
4.59384e-06
4.64722e-05
0.000418941
0.00317476
0.0199667
0.105074
0.46901
1.80269
6.05484
18.0157
48.0724
116.3
257.609
527.325
1008.31
1818.36
3123.16
5165.16
8324.5
13240.4
21041.2
33766.3
55121.8
91763
155301
265157
452376
765469
1.28024e+06
2.11607e+06
3.46092e+06
5.60959e+06
9.02252e+06
1.44191e+07
2.26576e+07
3.60333e+07
5.72072e+07
9.10456e+07
1.45711e+08
1.37538e+08
8.12045e+07
4.73207e+07
2.69643e+07
1.49035e+07
7.92677e+06
4.02826e+06
1.94229e+06
884914
390506
142540
25274.6
1807.94
60.8324
1.11539
0.013497
0.00015593
2.74188e-06
1.1527e-07
1.85265e-08
6.06501e-09
1.68282e-09
1.54708e-09
7.92602e-13
3.87798e-10
1.12691e-10
6.1367e-11
2.4186e-11
1.82601e-11
-3.6509e-14
1.66492e-12
-4.18729e-11
2.07317e-13
-4.1782e-11
-3.57127e-11
-3.57017e-11
6.1541e-12
-3.57109e-11
4.05526e-16
3.04768e-12
5.46884e-12
4.87628e-11
2.17407e-06
9.75256e-11
-2.5553e-15
2.17446e-06
2.17485e-06
2.17442e-06
2.17407e-06
2.17407e-06
2.18031e-06
2.17687e-06
-1.6354e-13
6.88302e-09
-3.27078e-13
2.93454e-18
-2.34763e-17
2.224e-06
4.99325e-08
1.1869e-06
1.58637e-06
5.58101e-06
4.57731e-05
0.000413548
0.00314478
0.0198292
0.104573
0.467738
1.80128
6.06102
18.0645
48.2782
116.968
259.44
531.725
1018.03
1838.01
3160.38
5232.35
8442.07
13443
21389.7
34370.9
56182.7
93640.8
158623
270964
462327
782162
1.30777e+06
2.16089e+06
3.53329e+06
5.72571e+06
9.2082e+06
1.47159e+07
2.31269e+07
3.68032e+07
5.8426e+07
9.29926e+07
1.48806e+08
1.34546e+08
7.94e+07
4.62249e+07
2.63039e+07
1.45128e+07
7.70186e+06
3.90393e+06
1.87675e+06
852553
376103
133619
22627.3
1544.62
50.2111
0.895797
0.0107107
0.000125231
2.2855e-06
1.16524e-07
1.17429e-08
2.63308e-09
1.3223e-09
1.55382e-09
7.75046e-10
1.30919e-10
1.94075e-10
-4.31274e-13
-4.20547e-11
-4.19481e-11
-3.91671e-11
1.35229e-12
6.90977e-12
6.53249e-12
8.43577e-14
-3.57126e-11
-4.18427e-11
-3.57123e-11
1.31179e-15
-4.1866e-11
2.17408e-06
1.21905e-11
4.87628e-11
-1.27766e-15
2.17417e-06
2.17427e-06
3.90097e-10
2.17485e-06
3.50006e-10
1.56041e-09
1.40006e-09
2.17751e-06
6.24156e-09
1.24831e-08
1.24833e-08
2.19904e-06
2.49662e-08
4.99325e-08
-6.54379e-13
1.13697e-06
-4.5861e-14
2.99598e-07
4.49397e-06
4.53737e-05
0.00041084
0.00312378
0.0197301
0.104235
0.466991
1.80115
6.06924
18.113
48.4675
117.562
261.037
535.569
1026.29
1854.52
3191.44
5288.19
8539.54
13610.8
21678.5
34872.1
57063.7
95203.2
161392
275815
470653
796158
1.3309e+06
2.19865e+06
3.59437e+06
5.82379e+06
9.36478e+06
1.49647e+07
2.35156e+07
3.74185e+07
5.94018e+07
9.45565e+07
1.51281e+08
1.32188e+08
7.79752e+07
4.53586e+07
2.57814e+07
1.42036e+07
7.524e+06
3.80575e+06
1.82512e+06
827187
364826
126334
20665.8
1358.96
42.955
0.749576
0.00887933
0.000104853
1.98762e-06
9.24385e-08
1.73733e-08
2.67612e-09
1.37181e-09
1.55425e-09
7.752e-10
-2.1503e-12
-4.2814e-11
4.83447e-11
2.41982e-11
1.82654e-11
6.06112e-12
6.13962e-12
-4.11106e-11
6.36166e-12
-4.16769e-11
6.15374e-12
2.36345e-14
-4.18545e-11
-4.18634e-11
6.15458e-12
-3.99269e-17
1.21905e-11
-6.3883e-16
2.17417e-06
2.17407e-06
2.17427e-06
2.15095e-10
2.17485e-06
4.30179e-10
2.17493e-06
-4.08848e-14
-4.08844e-14
6.24156e-09
2.17407e-06
2.18656e-06
2.49662e-08
-3.27078e-13
-6.5418e-13
2.2401e-08
4.99325e-08
-1.35368e-12
1.43143e-06
5.58101e-06
4.48743e-05
0.000406757
0.0031082
0.0196625
0.104016
0.466593
1.80172
6.07775
18.1566
48.6296
118.057
262.343
538.665
1032.95
1867.79
3216.32
5332.81
8617.29
13744.6
21908.5
35271.7
57766.4
96449.7
163601
279682
477285
807293
1.34927e+06
2.22857e+06
3.64264e+06
5.90103e+06
9.48751e+06
1.51587e+07
2.38169e+07
3.78951e+07
6.01579e+07
9.57692e+07
1.53189e+08
1.30373e+08
7.68795e+07
4.46931e+07
2.53804e+07
1.39666e+07
7.38791e+06
3.73075e+06
1.78577e+06
807935
356363
120585
19253.7
1230
38.035
0.652371
0.00767356
9.13767e-05
1.74917e-06
6.80944e-08
1.74211e-08
2.68143e-09
1.64562e-09
1.54844e-09
7.75321e-10
-2.10575e-12
1.94124e-10
6.48847e-12
5.97549e-12
-2.35992e-11
-3.57456e-11
-3.26788e-11
6.48999e-12
-4.16588e-11
6.15313e-12
-3.56174e-11
-3.56992e-11
1.18378e-14
6.15713e-12
4.05804e-16
2.17408e-06
5.46884e-12
2.68868e-11
2.17407e-06
2.17417e-06
2.17416e-06
2.17407e-06
2.17407e-06
2.17485e-06
-2.04426e-14
3.12082e-09
6.2416e-09
-8.17695e-14
1.24833e-08
2.18656e-06
2.93454e-18
2.49662e-08
2.17407e-06
4.99331e-08
2.24004e-08
-1.35333e-12
1.43144e-06
5.48114e-06
4.35876e-05
0.00040476
0.00309819
0.0196177
0.103879
0.466408
1.80254
6.08528
18.1924
48.7585
118.445
263.363
541.034
1038
1877.79
3235.01
5366.24
8675.45
13844.5
22080.3
35569.9
58290.6
97379
165246
282559
482210
815546
1.36286e+06
2.25067e+06
3.67821e+06
5.95782e+06
9.57757e+06
1.53008e+07
2.40372e+07
3.82433e+07
6.07101e+07
9.66542e+07
1.54615e+08
1.29044e+08
7.60788e+07
4.42076e+07
2.50885e+07
1.37944e+07
7.28916e+06
3.67644e+06
1.75735e+06
794095
350250
116327
18280.1
1143.47
34.7939
0.589315
0.00689734
8.26009e-05
1.64861e-06
7.97311e-08
1.18497e-08
6.13298e-09
1.3676e-09
-1.17274e-11
7.39698e-10
4.08082e-12
1.12792e-10
5.45161e-11
2.42058e-11
1.82684e-11
-2.96497e-11
-1.39519e-14
-4.11103e-11
3.78492e-13
6.25818e-12
-3.57126e-11
6.16469e-12
1.18389e-14
-4.18647e-11
-3.57119e-11
1.68043e-12
2.17407e-06
2.17412e-06
2.17407e-06
-1.27766e-15
1.95051e-10
3.90097e-10
9.17043e-20
7.00022e-10
8.60358e-10
2.17719e-06
2.17407e-06
-8.17695e-14
2.17407e-06
2.18656e-06
2.49662e-08
2.93454e-18
2.17407e-06
-2.17156e-16
2.22401e-06
1.1869e-06
1.38663e-06
5.42608e-06
4.44749e-05
0.000404848
0.00309229
0.0195904
0.103802
0.466336
1.80325
6.09079
18.2174
48.8468
118.707
264.045
542.622
1041.38
1884.47
3247.47
5388.48
8714.11
13910.8
22194.3
35767.7
58638
97994.4
166335
284460
485460
820987
1.37181e+06
2.26521e+06
3.70159e+06
5.99511e+06
9.63667e+06
1.5394e+07
2.41817e+07
3.84718e+07
6.10727e+07
9.72358e+07
1.55519e+08
1.28176e+08
7.55554e+07
4.38904e+07
2.48979e+07
1.36821e+07
7.22487e+06
3.64113e+06
1.7389e+06
785150
346263
113516
17670.1
1090.3
32.8302
0.551575
0.00643627
7.74909e-05
1.53164e-06
6.8766e-08
1.74679e-08
6.08736e-09
3.09503e-09
-1.15816e-11
4.25459e-10
3.94216e-10
-8.98995e-13
2.76343e-11
2.42078e-11
-7.54224e-14
-4.18989e-11
9.18802e-12
-3.49561e-11
6.15173e-12
1.89469e-13
-4.17929e-11
-4.18427e-11
6.49867e-15
1.31346e-15
3.2943e-16
3.04764e-12
1.21905e-11
4.87628e-11
2.17407e-06
9.75244e-11
2.17427e-06
2.17446e-06
4.30179e-10
2.1752e-06
1.56039e-09
1.40006e-09
2.17407e-06
2.17407e-06
2.17407e-06
2.18656e-06
2.49666e-08
2.49666e-08
2.17407e-06
2.17407e-06
-6.57202e-13
1.08704e-06
1.4865e-06
5.38128e-06
4.33878e-05
0.000404049
0.00308918
0.0195791
0.103768
0.466318
1.80365
6.09364
18.2301
48.8911
118.838
264.383
543.406
1043.05
1887.76
3253.6
5399.43
8733.13
13943.5
22250.4
35865
58809
98297.4
166871
285395
487060
823664
1.37621e+06
2.27235e+06
3.71308e+06
6.01344e+06
9.66573e+06
1.54398e+07
2.42528e+07
3.85842e+07
6.1251e+07
9.75219e+07
1.55963e+08
1.27749e+08
7.52984e+07
4.37348e+07
2.48045e+07
1.36271e+07
7.19343e+06
3.62389e+06
1.72991e+06
780791
344387
112131
17381.4
1065.55
31.9276
0.534423
0.00622829
7.5111e-05
1.48525e-06
8.00847e-08
1.18966e-08
-1.11313e-10
-2.55617e-11
8.48877e-10
7.81654e-10
-3.77451e-11
-4.27613e-11
6.50264e-12
-4.20395e-11
1.21157e-11
1.22172e-11
3.03395e-12
6.4902e-12
6.3618e-12
6.25819e-12
4.72077e-14
-4.18534e-11
6.15411e-12
-4.18651e-11
4.05904e-16
2.17408e-06
2.17408e-06
5.73152e-21
2.17407e-06
2.17417e-06
1.95051e-10
2.17446e-06
2.17407e-06
7.80205e-10
1.56039e-09
3.12078e-09
2.17407e-06
6.24156e-09
1.46727e-18
1.24831e-08
2.19904e-06
0
4.99331e-08
4.99325e-08
1.13697e-06
1.13184e-06
1.4865e-06
5.38128e-06
4.44749e-05
0.000404249
0.00309027
0.0195791
0.103768
0.466317
1.80365
6.09363
18.2301
48.8911
118.838
264.383
543.405
1043.05
1887.76
3253.59
5399.43
8733.12
13943.5
22250.4
35865
58809
98297.4
166871
285395
487060
823664
1.37621e+06
2.27235e+06
3.71308e+06
6.01345e+06
9.66573e+06
1.54398e+07
2.42528e+07
3.85842e+07
6.1251e+07
9.7522e+07
1.55963e+08
1.27749e+08
7.52983e+07
4.37348e+07
2.48045e+07
1.36271e+07
7.19342e+06
3.62389e+06
1.72991e+06
780790
344386
112131
17381.3
1065.54
31.9275
0.534421
0.00622829
7.5111e-05
1.49643e-06
9.38747e-08
1.7476e-08
6.08853e-09
-3.16835e-11
-5.34648e-12
7.39787e-10
-2.03286e-12
4.47427e-11
4.8369e-11
5.98106e-12
1.82698e-11
-3.57445e-11
-1.37304e-14
6.91029e-12
2.07629e-13
6.34365e-12
-4.17715e-11
-4.18427e-11
-3.57123e-11
-3.57109e-11
-4.1866e-11
2.17408e-06
1.21905e-11
-6.38824e-16
9.75244e-11
2.17417e-06
2.17407e-06
-5.11064e-15
2.17407e-06
2.17442e-06
2.17493e-06
2.17407e-06
2.18031e-06
6.24156e-09
2.17407e-06
1.24833e-08
2.49666e-08
2.49662e-08
2.17407e-06
-6.54379e-13
4.99325e-08
1.08703e-06
1.38663e-06
4.29424e-06
4.44749e-05
0.000404649
0.00309229
0.0195903
0.103801
0.466334
1.80324
6.09077
18.2174
48.8467
118.707
264.045
542.621
1041.38
1884.47
3247.46
5388.47
8714.09
13910.8
22194.3
35767.6
58637.9
97994.3
166334
284459
485460
820986
1.3718e+06
2.2652e+06
3.70158e+06
5.99511e+06
9.63667e+06
1.5394e+07
2.41818e+07
3.84719e+07
6.10727e+07
9.72359e+07
1.55519e+08
1.28175e+08
7.55552e+07
4.38903e+07
2.48978e+07
1.3682e+07
7.22485e+06
3.64112e+06
1.7389e+06
785146
346261
113515
17669.9
1090.28
32.8298
0.551569
0.00643612
7.7491e-05
1.53164e-06
9.37326e-08
2.43238e-08
6.12923e-09
1.69497e-09
-1.15816e-11
7.75475e-10
1.79117e-10
-3.66112e-11
4.8367e-11
-2.24424e-11
-3.64729e-11
3.32833e-12
6.14035e-12
-3.49561e-11
1.68466e-13
6.15316e-12
-3.5665e-11
1.05151e-14
1.18396e-14
2.95443e-15
4.05889e-16
0
1.21907e-11
-6.38824e-16
2.17407e-06
9.75244e-11
1.95049e-10
-5.11064e-15
2.17407e-06
2.17485e-06
8.60378e-10
3.12082e-09
2.17407e-06
-8.17695e-14
0
2.18656e-06
1.37657e-08
0
2.17407e-06
2.224e-06
1.13697e-06
9.98662e-08
1.4865e-06
4.29424e-06
4.45747e-05
0.00040476
0.00309928
0.0196175
0.103878
0.466404
1.80253
6.08525
18.1923
48.7583
118.444
263.362
541.032
1038
1877.79
3235
5366.22
8675.43
13844.4
22080.3
35569.8
58290.5
97378.8
165246
282558
482209
815545
1.36285e+06
2.25067e+06
3.67821e+06
5.95782e+06
9.57757e+06
1.53008e+07
2.40372e+07
3.82434e+07
6.07102e+07
9.66544e+07
1.54615e+08
1.29044e+08
7.60785e+07
4.42074e+07
2.50883e+07
1.37943e+07
7.28912e+06
3.67642e+06
1.75734e+06
794089
350247
116325
18279.8
1143.44
34.7932
0.589304
0.00689725
8.2651e-05
1.63741e-06
6.85306e-08
1.18436e-08
3.3267e-09
-2.63068e-11
-1.17112e-11
7.81565e-10
4.08487e-12
1.06638e-10
2.64859e-11
1.07624e-11
-3.52211e-11
1.22166e-11
-3.57262e-11
-4.11103e-11
3.78492e-13
-4.16769e-11
-4.19189e-16
-4.18665e-11
-4.18664e-11
6.15713e-12
3.29399e-16
-3.99265e-17
1.21905e-11
5.73152e-21
2.17413e-06
9.75244e-11
-2.5553e-15
2.17425e-06
7.80195e-10
7.80205e-10
-2.04424e-14
2.17719e-06
2.18031e-06
7.33635e-19
1.24833e-08
2.18656e-06
2.49666e-08
2.49662e-08
4.99325e-08
2.224e-06
1.13697e-06
1.13184e-06
1.38663e-06
5.48114e-06
4.38321e-05
0.000407844
0.00310938
0.0196621
0.104014
0.466589
1.80171
6.07771
18.1565
48.6293
118.056
262.342
538.662
1032.95
1867.78
3216.31
5332.78
8617.25
13744.5
21908.4
35271.6
57766.2
96449.3
163600
279681
477284
807291
1.34926e+06
2.22857e+06
3.64264e+06
5.90102e+06
9.48751e+06
1.51587e+07
2.38169e+07
3.78951e+07
6.0158e+07
9.57694e+07
1.53189e+08
1.30372e+08
7.68791e+07
4.46928e+07
2.53803e+07
1.39665e+07
7.38785e+06
3.73072e+06
1.78576e+06
807926
356360
120583
19253.3
1229.97
38.0339
0.652351
0.00767334
9.13494e-05
1.76039e-06
6.81154e-08
1.86768e-08
-1.12546e-10
-7.51373e-11
6.52366e-10
7.75321e-10
1.72902e-10
-4.27917e-11
4.83548e-11
-1.76636e-11
6.644e-12
-2.96502e-11
-1.4205e-14
7.55924e-13
6.53262e-12
-3.56278e-11
6.15375e-12
6.16468e-12
1.18378e-14
6.15549e-12
-4.1866e-11
3.04768e-12
2.17408e-06
4.87628e-11
-1.27765e-15
4.37507e-11
8.75015e-11
3.90097e-10
7.80205e-10
2.1745e-06
0
2.17719e-06
2.18031e-06
6.24156e-09
1.46727e-18
2.17407e-06
2.93454e-18
2.19904e-06
-6.5418e-13
2.22401e-06
1.13697e-06
1.1421e-06
1.38663e-06
5.58101e-06
4.53737e-05
0.000409553
0.00312358
0.0197299
0.104233
0.466986
1.80113
6.06919
18.1128
48.4671
117.561
261.035
535.565
1026.29
1854.51
3191.43
5288.16
8539.49
13610.7
21678.3
34871.9
57063.4
95202.7
161391
275814
470651
796156
1.33089e+06
2.19864e+06
3.59436e+06
5.82379e+06
9.36478e+06
1.49647e+07
2.35157e+07
3.74185e+07
5.94019e+07
9.45568e+07
1.51282e+08
1.32187e+08
7.79748e+07
4.53583e+07
2.57812e+07
1.42034e+07
7.52393e+06
3.80571e+06
1.8251e+06
827176
364821
126332
20665.2
1358.91
42.9532
0.749543
0.00887886
0.000104853
1.98765e-06
1.17405e-07
1.73733e-08
6.11763e-09
-3.44048e-11
1.55427e-09
-4.68716e-11
-2.15435e-12
1.94104e-10
2.64697e-11
3.03528e-11
1.21112e-11
6.12001e-12
3.03312e-12
6.56814e-12
-4.16589e-11
-4.16769e-11
9.48039e-14
-3.57017e-11
-3.57004e-11
6.15713e-12
4.05734e-16
3.04764e-12
1.21907e-11
2.17407e-06
2.17412e-06
2.17412e-06
1.95051e-10
2.17407e-06
2.17442e-06
2.17485e-06
7.00012e-10
2.17407e-06
2.17407e-06
2.18031e-06
2.17407e-06
1.24831e-08
1.37657e-08
2.17407e-06
4.99331e-08
-6.54385e-13
2.75314e-08
-4.653e-14
1.58637e-06
5.68087e-06
4.5873e-05
0.000413548
0.00314586
0.0198288
0.104571
0.467731
1.80125
6.06095
18.0643
48.2778
116.967
259.438
531.721
1018.02
1837.99
3160.36
5232.31
8442.01
13442.9
21389.6
34370.6
56182.3
93640.3
158622
270963
462325
782159
1.30776e+06
2.16088e+06
3.53328e+06
5.72571e+06
9.2082e+06
1.47159e+07
2.31269e+07
3.68033e+07
5.84262e+07
9.29929e+07
1.48807e+08
1.34545e+08
7.93994e+07
4.62246e+07
2.63037e+07
1.45126e+07
7.70177e+06
3.90388e+06
1.87673e+06
852539
376096
133616
22626.4
1544.55
50.2083
0.895744
0.0107101
0.000125254
2.28553e-06
1.05321e-07
1.17158e-08
-1.73201e-10
3.04921e-09
8.47614e-10
3.02991e-10
1.78943e-10
5.17824e-12
7.63617e-11
1.94093e-11
5.38713e-12
-3.52435e-14
6.13921e-12
7.55592e-13
-3.53339e-11
-3.57133e-11
-4.48849e-16
-4.18427e-11
1.18345e-14
-4.18651e-11
7.39443e-16
2.17408e-06
2.17408e-06
2.17412e-06
9.75256e-11
4.3752e-11
1.07545e-10
2.17407e-06
2.17442e-06
1.83409e-19
2.17563e-06
3.66817e-19
2.18031e-06
2.18031e-06
1.24833e-08
2.18656e-06
-3.27078e-13
2.49666e-08
2.75321e-08
2.2016e-06
2.24004e-08
1.08704e-06
3.99463e-07
4.49397e-06
4.543e-05
0.000417854
0.00317476
0.0199663
0.105072
0.469003
1.80266
6.05475
18.0155
48.0719
116.299
257.606
527.32
1008.31
1818.34
3123.13
5165.12
8324.43
13240.3
21041
33766.1
55121.4
91762.4
155300
265155
452374
765466
1.28024e+06
2.11606e+06
3.46092e+06
5.60958e+06
9.02252e+06
1.44191e+07
2.26576e+07
3.60334e+07
5.72074e+07
9.1046e+07
1.45711e+08
1.37537e+08
8.12038e+07
4.73203e+07
2.6964e+07
1.49034e+07
7.92666e+06
4.0282e+06
1.94226e+06
884898
390498
142535
25273.4
1807.83
60.8282
1.1153
0.0134959
0.000155931
2.7419e-06
1.15274e-07
2.40996e-08
2.61734e-09
1.32029e-09
6.50989e-10
3.02788e-10
1.36988e-10
1.94041e-10
5.70771e-12
1.07431e-11
-3.52294e-11
3.32434e-12
7.50592e-12
6.77076e-13
-4.14882e-11
-3.56279e-11
5.20477e-14
-3.57017e-11
6.16066e-12
6.15548e-12
-3.57118e-11
-3.99269e-17
1.21905e-11
4.87622e-11
2.17417e-06
2.17412e-06
1.95049e-10
2.17407e-06
7.80195e-10
2.17563e-06
2.17563e-06
2.17719e-06
6.2416e-09
2.18031e-06
1.46727e-18
1.24831e-08
-3.27078e-13
2.19904e-06
2.224e-06
-6.54397e-13
-6.57472e-13
1.1869e-06
3.99463e-07
5.68087e-06
4.6284e-05
0.000424645
0.00321464
0.0201597
0.105796
0.471028
1.80611
6.05272
17.9716
47.8599
115.57
255.543
522.236
996.928
1795.36
3079.5
5086.09
8185.76
13000.8
20628.5
33050.3
53865.8
89542.2
151378
258310
440680
745939
1.24828e+06
2.06458e+06
3.37911e+06