/*--------------------------------*- C++ -*----------------------------------*\
  =========                 |
  \\      /  F ield         | OpenFOAM: The Open Source CFD Toolbox
   \\    /   O peration     | Website:  https://openfoam.org
    \\  /    A nd           | Version:  8
     \\/     M anipulation  |
\*---------------------------------------------------------------------------*/
FoamFile
{
    version     2.0;
    format      ascii;
    class       volScalarField;
    location    "0.45/fluid";
    object      rho;
}
// * * * * * * * * * * * * * * * * * * * * * * * * * * * * * * * * * * * * * //

dimensions      [1 -3 0 0 0 0 0];

internalField   nonuniform List<scalar> 
4000
(
0.658526
0.658499
0.658454
0.658379
0.658253
0.658044
0.6577
0.657139
0.656233
0.65479
0.65253
0.649063
0.643875
0.636347
0.625816
0.611705
0.593704
0.57194
0.547043
0.520054
0.492196
0.464616
0.438208
0.413541
0.390895
0.370328
0.351758
0.335026
0.319948
0.306328
0.29398
0.282742
0.272476
0.263068
0.254419
0.246431
0.239001
0.232067
0.225579
0.219492
0.21377
0.20838
0.203296
0.198494
0.193954
0.18966
0.185597
0.181752
0.178114
0.174676
0.171429
0.168369
0.165496
0.162811
0.160324
0.158053
0.156032
0.154343
0.15306
0.15229
0.152333
0.153651
0.157119
0.163769
0.173
0.184634
0.19874
0.215567
0.235539
0.259261
0.287562
0.321529
0.362575
0.412599
0.473902
0.548721
0.638273
0.741071
0.850771
0.955675
1.04276
1.10474
1.14301
1.16397
1.17454
1.1796
1.18194
1.183
1.18347
1.18367
1.18376
1.18379
1.18381
1.18382
1.18382
1.18382
1.18382
1.18382
1.18382
1.18382
0.658526
0.658499
0.658454
0.658379
0.658253
0.658044
0.6577
0.657138
0.656232
0.654792
0.652542
0.6491
0.643963
0.636527
0.626143
0.612247
0.594523
0.57307
0.548474
0.52173
0.494028
0.466507
0.440073
0.415316
0.39254
0.371824
0.3531
0.336224
0.321008
0.307252
0.294783
0.28344
0.273083
0.263592
0.25487
0.24682
0.239335
0.232352
0.22582
0.219693
0.213935
0.208513
0.2034
0.198572
0.194009
0.189693
0.18561
0.181748
0.178095
0.174643
0.171384
0.168314
0.165433
0.162742
0.160252
0.157981
0.155966
0.154295
0.153037
0.152312
0.152432
0.153887
0.157606
0.164481
0.173943
0.18584
0.200259
0.217475
0.23794
0.262299
0.291428
0.326481
0.368952
0.420856
0.484542
0.562155
0.654549
0.759409
0.86923
0.971598
1.05422
1.11162
1.14652
1.16559
1.17522
1.17988
1.18205
1.18304
1.18348
1.18368
1.18376
1.1838
1.18381
1.18382
1.18382
1.18382
1.18382
1.18382
1.18382
1.18382
0.658526
0.658499
0.658454
0.658379
0.658252
0.658043
0.657698
0.657135
0.656229
0.65479
0.652545
0.649118
0.644013
0.636638
0.626359
0.612619
0.595105
0.573901
0.549566
0.523059
0.495541
0.468136
0.441744
0.416969
0.394129
0.373319
0.354488
0.337497
0.322153
0.308283
0.295707
0.284264
0.273814
0.264238
0.255437
0.247316
0.239767
0.232725
0.226138
0.219962
0.214158
0.208693
0.20354
0.198675
0.194078
0.189731
0.18562
0.181731
0.178055
0.174581
0.171304
0.168219
0.165324
0.162625
0.16013
0.157861
0.155855
0.154215
0.152997
0.152345
0.152594
0.154274
0.158411
0.165652
0.175485
0.187791
0.20269
0.220484
0.241661
0.266909
0.297154
0.333606
0.377828
0.431902
0.498122
0.57838
0.672951
0.778616
0.887009
0.985721
1.06372
1.11709
1.1493
1.1669
1.17581
1.18013
1.18215
1.18308
1.1835
1.18368
1.18376
1.1838
1.18381
1.18382
1.18382
1.18382
1.18382
1.18382
1.18382
1.18382
0.658526
0.658499
0.658454
0.658379
0.658253
0.658045
0.657701
0.657142
0.656242
0.654815
0.652591
0.6492
0.644154
0.636869
0.626719
0.613151
0.595843
0.574864
0.550746
0.52442
0.497029
0.469687
0.443302
0.418487
0.395575
0.374673
0.355745
0.338639
0.323195
0.309228
0.29656
0.28503
0.274498
0.264846
0.255974
0.247789
0.240181
0.233083
0.226444
0.220218
0.214368
0.20886
0.203666
0.198763
0.19413
0.18975
0.185608
0.181691
0.177989
0.174492
0.171194
0.168092
0.165184
0.162475
0.159977
0.157713
0.155724
0.154125
0.152931
0.152376
0.152784
0.15474
0.159385
0.167067
0.17734
0.190127
0.205577
0.224027
0.245998
0.27222
0.303666
0.341597
0.387648
0.44395
0.512724
0.595594
0.692268
0.79865
0.905564
1.00062
1.07398
1.12322
1.15257
1.1685
1.17655
1.18046
1.1823
1.18314
1.18352
1.18369
1.18377
1.1838
1.18381
1.18382
1.18382
1.18382
1.18382
1.18382
1.18382
1.18382
0.658526
0.658499
0.658455
0.65838
0.658255
0.658047
0.657706
0.657151
0.656258
0.654843
0.65264
0.649282
0.644289
0.637084
0.627045
0.613623
0.596491
0.575702
0.551766
0.525593
0.498308
0.47102
0.444639
0.41979
0.396815
0.375836
0.356813
0.339621
0.32409
0.31004
0.297293
0.285689
0.275088
0.26537
0.256437
0.248195
0.240534
0.233387
0.226701
0.220431
0.214539
0.208991
0.203759
0.19882
0.194153
0.189741
0.18557
0.181625
0.177898
0.174379
0.171061
0.167942
0.165021
0.162304
0.159804
0.157547
0.155575
0.154009
0.152871
0.152414
0.152989
0.155237
0.160423
0.168573
0.179311
0.192601
0.208624
0.227748
0.25053
0.277737
0.310386
0.349786
0.397646
0.456112
0.527312
0.61256
0.710968
0.817599
0.92263
1.01393
1.08292
1.12847
1.15535
1.16986
1.17719
1.18075
1.18243
1.1832
1.18355
1.1837
1.18377
1.1838
1.18381
1.18382
1.18382
1.18382
1.18382
1.18382
1.18382
1.18382
0.658526
0.6585
0.658455
0.658381
0.658257
0.658051
0.657713
0.657163
0.656279
0.654878
0.652699
0.649377
0.644439
0.637313
0.627382
0.614095
0.597119
0.576492
0.552707
0.526653
0.499444
0.472187
0.445797
0.420907
0.397871
0.376822
0.357718
0.340446
0.324839
0.310716
0.297901
0.286233
0.275572
0.265799
0.256812
0.248522
0.240817
0.233627
0.2269
0.220592
0.214662
0.209079
0.203813
0.198842
0.194145
0.189705
0.185507
0.181538
0.177788
0.174248
0.170913
0.16778
0.164848
0.162124
0.159624
0.157373
0.155425
0.153894
0.152816
0.152458
0.1532
0.155739
0.16146
0.170075
0.181273
0.195056
0.21164
0.231422
0.25499
0.28315
0.316959
0.357769
0.407364
0.467886
0.541356
0.628776
0.728673
0.835337
0.938421
1.02614
1.0911
1.13331
1.15793
1.17114
1.1778
1.18103
1.18255
1.18325
1.18357
1.18371
1.18377
1.1838
1.18381
1.18382
1.18382
1.18382
1.18382
1.18382
1.18382
1.18382
0.658526
0.6585
0.658456
0.658382
0.658259
0.658055
0.65772
0.657175
0.656299
0.654913
0.652755
0.649467
0.644579
0.637524
0.627689
0.61452
0.597679
0.577192
0.553532
0.527576
0.500427
0.47319
0.446786
0.421855
0.398763
0.377641
0.358468
0.341127
0.325454
0.311268
0.298394
0.286672
0.27596
0.266139
0.257107
0.248776
0.241032
0.233805
0.227044
0.220702
0.214741
0.209127
0.203832
0.198834
0.194111
0.189646
0.185425
0.181435
0.177665
0.174108
0.170758
0.167613
0.164672
0.161945
0.159446
0.157205
0.155283
0.15379
0.152773
0.152517
0.153426
0.156254
0.162477
0.171527
0.183157
0.197406
0.214518
0.234919
0.259228
0.288286
0.323186
0.365327
0.416555
0.479003
0.554564
0.643926
0.745049
0.85151
0.952566
1.03688
1.09819
1.13745
1.16014
1.17224
1.17832
1.18127
1.18266
1.1833
1.18359
1.18372
1.18378
1.1838
1.18381
1.18382
1.18382
1.18382
1.18382
1.18382
1.18382
1.18382
0.658526
0.6585
0.658457
0.658384
0.658262
0.65806
0.657728
0.657187
0.65632
0.654946
0.652809
0.649553
0.644711
0.63772
0.62797
0.614905
0.598181
0.577811
0.554255
0.528377
0.501273
0.474046
0.447623
0.422652
0.399508
0.378323
0.359088
0.341685
0.325954
0.311713
0.298789
0.287019
0.276264
0.266402
0.257332
0.248965
0.241189
0.233931
0.22714
0.22077
0.214782
0.209142
0.203823
0.198802
0.194057
0.189571
0.18533
0.181322
0.177537
0.173966
0.170604
0.167449
0.164503
0.161774
0.159279
0.15705
0.155159
0.153706
0.152756
0.152611
0.153709
0.156874
0.163501
0.172924
0.184936
0.199605
0.217199
0.23817
0.263163
0.293049
0.328959
0.372332
0.425073
0.489291
0.56675
0.657827
0.759946
0.866049
0.965111
1.04629
1.10434
1.14104
1.16205
1.17319
1.17877
1.18148
1.18276
1.18334
1.18361
1.18373
1.18378
1.1838
1.18381
1.18382
1.18382
1.18382
1.18382
1.18382
1.18382
1.18382
0.658526
0.6585
0.658457
0.658385
0.658264
0.658063
0.657734
0.657199
0.656339
0.654977
0.652859
0.64963
0.64483
0.637895
0.628219
0.615244
0.598619
0.578348
0.554879
0.529064
0.501993
0.474771
0.448326
0.423316
0.40012
0.378883
0.359593
0.342137
0.326355
0.312068
0.2991
0.28729
0.276497
0.266601
0.257499
0.249102
0.241298
0.234015
0.227199
0.220805
0.214794
0.209133
0.203794
0.198753
0.193989
0.189486
0.18523
0.181207
0.177408
0.173826
0.170455
0.167293
0.164343
0.161614
0.159126
0.156911
0.155052
0.153641
0.15276
0.152729
0.154024
0.157545
0.164498
0.174236
0.186582
0.201626
0.219654
0.241139
0.266754
0.297395
0.334225
0.378727
0.432851
0.498678
0.577839
0.670415
0.773325
0.878956
0.976093
1.05442
1.1096
1.14408
1.16367
1.174
1.17916
1.18166
1.18284
1.18338
1.18363
1.18374
1.18378
1.18381
1.18381
1.18382
1.18382
1.18382
1.18382
1.18382
1.18382
1.18382
0.658526
0.658501
0.658458
0.658386
0.658266
0.658067
0.65774
0.657209
0.656356
0.655005
0.652903
0.649699
0.644934
0.63805
0.628436
0.615538
0.598997
0.578809
0.555412
0.529647
0.502601
0.475379
0.448914
0.42387
0.400627
0.379342
0.360003
0.342501
0.326675
0.312347
0.299342
0.287498
0.276674
0.266748
0.25762
0.249198
0.241371
0.234065
0.227229
0.220815
0.214785
0.209107
0.203751
0.198693
0.193915
0.189398
0.185128
0.181094
0.177284
0.173693
0.170315
0.167148
0.164196
0.161469
0.158987
0.156786
0.15496
0.153587
0.152771
0.152848
0.154327
0.158182
0.165418
0.175433
0.188074
0.20345
0.221866
0.243813
0.269985
0.301306
0.338966
0.384491
0.439862
0.507133
0.587805
0.681676
0.785203
0.890296
0.985625
1.06139
1.11407
1.14665
1.16503
1.17468
1.17949
1.18181
1.18291
1.18341
1.18364
1.18374
1.18379
1.18381
1.18382
1.18382
1.18382
1.18382
1.18382
1.18382
1.18382
1.18382
0.658526
0.658501
0.658458
0.658387
0.658268
0.65807
0.657746
0.657218
0.656371
0.655029
0.652942
0.64976
0.645026
0.638183
0.628624
0.61579
0.59932
0.579201
0.555862
0.530137
0.503109
0.475883
0.449396
0.424319
0.401039
0.379712
0.360332
0.34279
0.326927
0.312565
0.299528
0.287656
0.276805
0.266855
0.257704
0.249261
0.241415
0.234091
0.227237
0.220808
0.214763
0.209069
0.203699
0.198629
0.193838
0.18931
0.18503
0.180986
0.177168
0.17357
0.170186
0.167016
0.164063
0.161338
0.158862
0.156673
0.154877
0.15354
0.152783
0.152956
0.154599
0.158753
0.166241
0.176501
0.189403
0.205074
0.223833
0.24619
0.272858
0.304784
0.343186
0.389626
0.44611
0.514663
0.596663
0.691642
0.795643
0.900165
0.993828
1.06732
1.11784
1.14882
1.16618
1.17525
1.17976
1.18194
1.18297
1.18344
1.18365
1.18375
1.18379
1.18381
1.18382
1.18382
1.18382
1.18382
1.18382
1.18382
1.18382
1.18382
0.658526
0.658501
0.658459
0.658388
0.658269
0.658073
0.65775
0.657226
0.656384
0.65505
0.652975
0.649811
0.645104
0.638296
0.628783
0.616004
0.599593
0.57953
0.556238
0.530546
0.503531
0.476301
0.449795
0.424689
0.401374
0.380011
0.360595
0.343019
0.327124
0.312733
0.29967
0.287774
0.276901
0.266931
0.257761
0.249301
0.241438
0.2341
0.227232
0.220789
0.214731
0.209026
0.203645
0.198564
0.193763
0.189226
0.184937
0.180886
0.177062
0.173459
0.170071
0.166899
0.163945
0.161222
0.158753
0.156576
0.154806
0.153499
0.152793
0.153051
0.154838
0.159257
0.166966
0.177442
0.190574
0.206503
0.225563
0.248281
0.275385
0.307844
0.346898
0.394148
0.451615
0.521293
0.604447
0.700366
0.804722
0.908674
1.00083
1.07234
1.12101
1.15063
1.16713
1.17572
1.17999
1.18205
1.18301
1.18346
1.18366
1.18375
1.18379
1.18381
1.18382
1.18382
1.18382
1.18382
1.18382
1.18382
1.18382
1.18382
0.658526
0.658501
0.658459
0.658388
0.658271
0.658075
0.657755
0.657233
0.656395
0.655068
0.653003
0.649855
0.645169
0.638392
0.628916
0.616182
0.599819
0.579804
0.556549
0.530882
0.503877
0.476641
0.450119
0.424987
0.401642
0.380248
0.360802
0.343198
0.327276
0.312861
0.299776
0.28786
0.276969
0.266982
0.257797
0.249323
0.241447
0.234097
0.227217
0.220763
0.214695
0.20898
0.20359
0.198501
0.193692
0.189148
0.184853
0.180796
0.176968
0.173361
0.169971
0.166797
0.163844
0.161124
0.15866
0.156493
0.154746
0.153463
0.1528
0.153131
0.155045
0.159696
0.1676
0.178263
0.191594
0.207746
0.227068
0.250097
0.27758
0.310503
0.350125
0.398082
0.456404
0.527058
0.611202
0.707909
0.812528
0.915933
1.00675
1.07655
1.12365
1.15213
1.16793
1.17612
1.18018
1.18213
1.18305
1.18348
1.18367
1.18376
1.18379
1.18381
1.18382
1.18382
1.18382
1.18382
1.18382
1.18382
1.18382
1.18382
0.658526
0.658501
0.658459
0.658389
0.658272
0.658077
0.657758
0.657238
0.656404
0.655083
0.653027
0.649892
0.645224
0.638471
0.629027
0.616329
0.600005
0.580027
0.556803
0.531155
0.504156
0.476914
0.450376
0.425223
0.401854
0.380435
0.360964
0.343335
0.327392
0.312957
0.299854
0.287922
0.277016
0.267016
0.257818
0.249333
0.241447
0.234086
0.227198
0.220735
0.214659
0.208936
0.203539
0.198443
0.193628
0.189078
0.184778
0.180717
0.176885
0.173276
0.169884
0.166711
0.16376
0.161044
0.158588
0.156433
0.15471
0.153414
0.152796
0.153195
0.15522
0.160074
0.168145
0.178968
0.192469
0.208812
0.228356
0.251651
0.279458
0.312778
0.352887
0.401451
0.460506
0.531993
0.616977
0.714338
0.819149
0.922048
1.0117
1.08004
1.12583
1.15336
1.16857
1.17644
1.18033
1.18221
1.18309
1.18349
1.18368
1.18376
1.18379
1.18381
1.18382
1.18382
1.18382
1.18382
1.18382
1.18382
1.18382
1.18382
0.658526
0.658502
0.65846
0.65839
0.658273
0.658079
0.657761
0.657243
0.656412
0.655095
0.653046
0.649921
0.645268
0.638535
0.629116
0.616448
0.600156
0.580207
0.557007
0.531373
0.504379
0.477132
0.450581
0.425409
0.40202
0.380579
0.361088
0.34344
0.32748
0.313029
0.299911
0.287965
0.277048
0.267037
0.257829
0.249335
0.24144
0.234072
0.227176
0.220706
0.214624
0.208895
0.203492
0.198391
0.193571
0.189017
0.184714
0.180649
0.176815
0.173204
0.169811
0.166638
0.163688
0.160975
0.158524
0.156377
0.154666
0.153386
0.152799
0.153251
0.155368
0.16039
0.1686
0.179557
0.1932
0.209703
0.229434
0.252953
0.281032
0.314685
0.355204
0.404279
0.46395
0.536136
0.621818
0.719715
0.824663
0.927112
1.01577
1.0829
1.12761
1.15436
1.1691
1.1767
1.18046
1.18227
1.18311
1.1835
1.18368
1.18376
1.1838
1.18381
1.18382
1.18382
1.18382
1.18382
1.18382
1.18382
1.18382
1.18382
0.658526
0.658502
0.65846
0.65839
0.658273
0.65808
0.657763
0.657247
0.656418
0.655105
0.653062
0.649945
0.645304
0.638586
0.629187
0.616542
0.600275
0.580349
0.557167
0.531545
0.504553
0.477302
0.450739
0.425553
0.402147
0.38069
0.361182
0.343519
0.327544
0.31308
0.299952
0.287995
0.277069
0.267049
0.257833
0.249332
0.241431
0.234056
0.227155
0.22068
0.214592
0.208859
0.203451
0.198346
0.193523
0.188965
0.184659
0.180593
0.176756
0.173143
0.16975
0.166577
0.163628
0.160917
0.15847
0.15633
0.154628
0.153364
0.152803
0.153297
0.155487
0.160644
0.168968
0.180035
0.193794
0.210427
0.230311
0.254013
0.282314
0.31624
0.357094
0.406588
0.466764
0.539521
0.62577
0.724096
0.829142
0.931209
1.01905
1.08519
1.12903
1.15516
1.16952
1.17691
1.18056
1.18231
1.18314
1.18351
1.18369
1.18376
1.1838
1.18381
1.18382
1.18382
1.18382
1.18382
1.18382
1.18382
1.18382
1.18382
0.658526
0.658502
0.65846
0.65839
0.658274
0.658081
0.657765
0.65725
0.656423
0.655113
0.653074
0.649963
0.645331
0.638626
0.629241
0.616614
0.600365
0.580457
0.557289
0.531675
0.504685
0.477429
0.450858
0.42566
0.402241
0.380771
0.36125
0.343576
0.32759
0.313117
0.299979
0.288015
0.277082
0.267055
0.257834
0.249327
0.241421
0.234042
0.227136
0.220657
0.214565
0.208828
0.203418
0.198309
0.193484
0.188924
0.184615
0.180547
0.176709
0.173095
0.169702
0.166528
0.16358
0.160871
0.158427
0.156292
0.154598
0.153347
0.152806
0.153333
0.15558
0.160842
0.169255
0.180408
0.194257
0.210993
0.230997
0.254842
0.283318
0.317459
0.358577
0.408401
0.468974
0.542178
0.62887
0.727526
0.83264
0.934399
1.0216
1.08696
1.13012
1.15578
1.16984
1.17707
1.18064
1.18235
1.18315
1.18352
1.18369
1.18376
1.1838
1.18381
1.18382
1.18382
1.18382
1.18382
1.18382
1.18382
1.18382
1.18382
0.658526
0.658502
0.65846
0.658391
0.658274
0.658082
0.657766
0.657252
0.656426
0.655118
0.653082
0.649977
0.645351
0.638654
0.629281
0.616666
0.600431
0.580535
0.557377
0.531768
0.504779
0.47752
0.450943
0.425737
0.402308
0.380828
0.361298
0.343615
0.327622
0.313142
0.299998
0.288028
0.277089
0.267058
0.257832
0.249322
0.241412
0.23403
0.22712
0.220638
0.214544
0.208805
0.203392
0.198281
0.193454
0.188892
0.184582
0.180513
0.176674
0.173059
0.169665
0.166492
0.163545
0.160837
0.158395
0.156263
0.154576
0.153334
0.152808
0.153359
0.155648
0.160988
0.169465
0.180681
0.194598
0.21141
0.231501
0.255453
0.284059
0.318357
0.359672
0.409739
0.470605
0.544138
0.631154
0.730048
0.835205
0.936732
1.02346
1.08826
1.13093
1.15623
1.17008
1.17719
1.18069
1.18238
1.18316
1.18353
1.18369
1.18376
1.1838
1.18381
1.18382
1.18382
1.18382
1.18382
1.18382
1.18382
1.18382
1.18382
0.658526
0.658502
0.65846
0.658391
0.658275
0.658083
0.657767
0.657253
0.656428
0.655122
0.653088
0.649985
0.645363
0.638672
0.629306
0.6167
0.600473
0.580585
0.557433
0.531828
0.504839
0.477578
0.450997
0.425785
0.402351
0.380864
0.361329
0.34364
0.327642
0.313157
0.300009
0.288035
0.277093
0.267059
0.257831
0.249318
0.241406
0.234021
0.22711
0.220626
0.21453
0.208789
0.203374
0.198263
0.193434
0.188871
0.18456
0.18049
0.17665
0.173035
0.169641
0.166468
0.163521
0.160814
0.158374
0.156245
0.154561
0.153325
0.152809
0.153377
0.155693
0.161083
0.169603
0.180861
0.194822
0.211683
0.231833
0.255855
0.284545
0.318948
0.360391
0.410618
0.471677
0.545425
0.632651
0.731696
0.836875
0.938243
1.02466
1.08909
1.13145
1.15652
1.17024
1.17726
1.18073
1.18239
1.18317
1.18353
1.18369
1.18377
1.1838
1.18381
1.18382
1.18382
1.18382
1.18382
1.18382
1.18382
1.18382
1.18382
0.658526
0.658502
0.65846
0.658391
0.658275
0.658083
0.657767
0.657254
0.656429
0.655124
0.653091
0.649989
0.645369
0.638681
0.629318
0.616716
0.600493
0.580609
0.55746
0.531856
0.504868
0.477605
0.451022
0.425808
0.402371
0.380882
0.361343
0.343652
0.327651
0.313164
0.300014
0.288039
0.277095
0.267059
0.25783
0.249315
0.241402
0.234017
0.227104
0.22062
0.214523
0.208781
0.203366
0.198253
0.193424
0.188861
0.184549
0.180478
0.176639
0.173024
0.169629
0.166456
0.163509
0.160803
0.158363
0.156236
0.154554
0.153321
0.15281
0.153385
0.155715
0.16113
0.169671
0.180949
0.194932
0.211818
0.231996
0.256052
0.284783
0.319237
0.360742
0.411046
0.472197
0.546046
0.63337
0.732484
0.837668
0.938955
1.02522
1.08948
1.13169
1.15666
1.17031
1.1773
1.18075
1.1824
1.18318
1.18353
1.18369
1.18377
1.1838
1.18381
1.18382
1.18382
1.18382
1.18382
1.18382
1.18382
1.18382
1.18382
0.658526
0.658502
0.65846
0.658391
0.658275
0.658083
0.657767
0.657254
0.656429
0.655124
0.653091
0.649989
0.645369
0.638681
0.629318
0.616716
0.600493
0.580609
0.55746
0.531856
0.504868
0.477605
0.451022
0.425808
0.402371
0.380882
0.361343
0.343652
0.327651
0.313164
0.300014
0.288039
0.277095
0.26706
0.25783
0.249315
0.241402
0.234017
0.227104
0.22062
0.214523
0.208781
0.203366
0.198253
0.193424
0.188861
0.184549
0.180478
0.176639
0.173024
0.169629
0.166456
0.163509
0.160803
0.158363
0.156236
0.154554
0.153321
0.15281
0.153385
0.155715
0.16113
0.169671
0.180949
0.194932
0.211818
0.231996
0.256052
0.284783
0.319237
0.360742
0.411046
0.472197
0.546046
0.63337
0.732484
0.837668
0.938955
1.02522
1.08948
1.13169
1.15666
1.17031
1.1773
1.18075
1.1824
1.18318
1.18353
1.18369
1.18377
1.1838
1.18381
1.18382
1.18382
1.18382
1.18382
1.18382
1.18382
1.18382
1.18382
0.658526
0.658502
0.65846
0.658391
0.658275
0.658083
0.657767
0.657253
0.656428
0.655122
0.653088
0.649985
0.645363
0.638672
0.629306
0.6167
0.600473
0.580585
0.557433
0.531828
0.504839
0.477578
0.450997
0.425785
0.402351
0.380864
0.361329
0.34364
0.327642
0.313157
0.300009
0.288035
0.277093
0.267059
0.257831
0.249318
0.241406
0.234021
0.22711
0.220626
0.21453
0.208789
0.203374
0.198263
0.193434
0.188871
0.18456
0.18049
0.17665
0.173035
0.169641
0.166468
0.163521
0.160814
0.158374
0.156245
0.154561
0.153325
0.152809
0.153377
0.155693
0.161083
0.169603
0.180861
0.194822
0.211683
0.231833
0.255855
0.284545
0.318948
0.360391
0.410619
0.471677
0.545425
0.632651
0.731697
0.836875
0.938243
1.02466
1.08909
1.13145
1.15652
1.17024
1.17726
1.18073
1.18239
1.18317
1.18353
1.18369
1.18377
1.1838
1.18381
1.18382
1.18382
1.18382
1.18382
1.18382
1.18382
1.18382
1.18382
0.658526
0.658502
0.65846
0.658391
0.658274
0.658082
0.657766
0.657252
0.656426
0.655118
0.653082
0.649977
0.645351
0.638654
0.629281
0.616666
0.600431
0.580535
0.557377
0.531768
0.504779
0.47752
0.450943
0.425737
0.402308
0.380828
0.361298
0.343615
0.327622
0.313142
0.299998
0.288028
0.277089
0.267058
0.257833
0.249322
0.241412
0.23403
0.22712
0.220638
0.214544
0.208805
0.203392
0.198281
0.193454
0.188892
0.184582
0.180513
0.176674
0.173059
0.169665
0.166492
0.163545
0.160837
0.158395
0.156263
0.154576
0.153334
0.152808
0.153359
0.155648
0.160988
0.169465
0.180681
0.194598
0.21141
0.231502
0.255453
0.284059
0.318358
0.359672
0.409739
0.470606
0.544139
0.631155
0.730049
0.835205
0.936732
1.02346
1.08826
1.13093
1.15623
1.17008
1.17719
1.18069
1.18238
1.18316
1.18353
1.18369
1.18376
1.1838
1.18381
1.18382
1.18382
1.18382
1.18382
1.18382
1.18382
1.18382
1.18382
0.658526
0.658502
0.65846
0.65839
0.658274
0.658081
0.657765
0.65725
0.656423
0.655113
0.653074
0.649963
0.645331
0.638626
0.629241
0.616614
0.600365
0.580457
0.557289
0.531675
0.504685
0.477429
0.450858
0.425661
0.402242
0.380771
0.36125
0.343576
0.327591
0.313117
0.299979
0.288015
0.277082
0.267055
0.257834
0.249327
0.241421
0.234042
0.227136
0.220657
0.214565
0.208828
0.203418
0.198309
0.193484
0.188924
0.184615
0.180547
0.176709
0.173095
0.169702
0.166528
0.16358
0.160871
0.158427
0.156292
0.154598
0.153347
0.152806
0.153333
0.155581
0.160842
0.169255
0.180408
0.194258
0.210994
0.230997
0.254842
0.283319
0.317459
0.358578
0.408402
0.468975
0.542179
0.628871
0.727527
0.83264
0.934399
1.0216
1.08696
1.13012
1.15578
1.16984
1.17707
1.18064
1.18235
1.18315
1.18352
1.18369
1.18376
1.1838
1.18381
1.18382
1.18382
1.18382
1.18382
1.18382
1.18382
1.18382
1.18382
0.658526
0.658502
0.65846
0.65839
0.658273
0.65808
0.657763
0.657247
0.656418
0.655105
0.653062
0.649945
0.645304
0.638586
0.629187
0.616542
0.600275
0.580349
0.557168
0.531545
0.504554
0.477302
0.45074
0.425553
0.402147
0.38069
0.361182
0.343519
0.327544
0.31308
0.299952
0.287996
0.277069
0.267049
0.257833
0.249332
0.241431
0.234056
0.227155
0.22068
0.214592
0.208859
0.203451
0.198346
0.193523
0.188965
0.184659
0.180593
0.176756
0.173143
0.16975
0.166577
0.163628
0.160917
0.15847
0.15633
0.154628
0.153364
0.152803
0.153297
0.155487
0.160644
0.168968
0.180035
0.193794
0.210427
0.230311
0.254013
0.282314
0.31624
0.357095
0.406589
0.466764
0.539522
0.625771
0.724097
0.829142
0.93121
1.01905
1.08519
1.12903
1.15516
1.16952
1.17691
1.18056
1.18231
1.18314
1.18351
1.18369
1.18376
1.1838
1.18381
1.18382
1.18382
1.18382
1.18382
1.18382
1.18382
1.18382
1.18382
0.658526
0.658502
0.65846
0.65839
0.658273
0.658079
0.657761
0.657243
0.656412
0.655095
0.653046
0.649921
0.645268
0.638535
0.629116
0.616448
0.600156
0.580207
0.557007
0.531374
0.504379
0.477132
0.450581
0.42541
0.40202
0.38058
0.361088
0.343441
0.32748
0.313029
0.299911
0.287966
0.277048
0.267037
0.257829
0.249335
0.24144
0.234072
0.227176
0.220706
0.214624
0.208895
0.203492
0.198391
0.193571
0.189017
0.184714
0.180649
0.176815
0.173204
0.169811
0.166638
0.163688
0.160975
0.158524
0.156377
0.154666
0.153386
0.152799
0.153251
0.155368
0.16039
0.1686
0.179558
0.1932
0.209703
0.229434
0.252953
0.281032
0.314685
0.355204
0.404279
0.463951
0.536137
0.621819
0.719716
0.824664
0.927113
1.01577
1.0829
1.12761
1.15436
1.1691
1.1767
1.18046
1.18227
1.18311
1.1835
1.18368
1.18376
1.1838
1.18381
1.18382
1.18382
1.18382
1.18382
1.18382
1.18382
1.18382
1.18382
0.658526
0.658501
0.658459
0.658389
0.658272
0.658077
0.657758
0.657238
0.656404
0.655083
0.653027
0.649892
0.645224
0.638471
0.629027
0.616329
0.600006
0.580027
0.556803
0.531155
0.504156
0.476914
0.450377
0.425223
0.401854
0.380435
0.360964
0.343336
0.327393
0.312957
0.299855
0.287922
0.277016
0.267016
0.257818
0.249333
0.241447
0.234086
0.227198
0.220735
0.214659
0.208936
0.203539
0.198443
0.193628
0.189078
0.184778
0.180717
0.176886
0.173276
0.169885
0.166711
0.16376
0.161044
0.158588
0.156433
0.15471
0.153414
0.152796
0.153195
0.155221
0.160075
0.168145
0.178968
0.192469
0.208812
0.228356
0.251652
0.279459
0.312779
0.352888
0.401452
0.460507
0.531994
0.616978
0.71434
0.81915
0.922049
1.0117
1.08004
1.12583
1.15336
1.16857
1.17644
1.18033
1.18221
1.18309
1.18349
1.18368
1.18376
1.18379
1.18381
1.18382
1.18382
1.18382
1.18382
1.18382
1.18382
1.18382
1.18382
0.658526
0.658501
0.658459
0.658388
0.658271
0.658075
0.657755
0.657233
0.656395
0.655068
0.653003
0.649855
0.645169
0.638392
0.628917
0.616182
0.59982
0.579804
0.55655
0.530882
0.503877
0.476641
0.45012
0.424987
0.401642
0.380249
0.360802
0.343198
0.327277
0.312861
0.299776
0.28786
0.276969
0.266982
0.257797
0.249323
0.241447
0.234097
0.227217
0.220763
0.214696
0.208981
0.20359
0.198501
0.193692
0.189148
0.184853
0.180796
0.176968
0.173361
0.169971
0.166797
0.163844
0.161124
0.15866
0.156493
0.154746
0.153463
0.1528
0.153131
0.155045
0.159697
0.1676
0.178263
0.191594
0.207747
0.227068
0.250098
0.277581
0.310504
0.350126
0.398083
0.456405
0.527059
0.611204
0.707911
0.81253
0.915935
1.00675
1.07655
1.12365
1.15213
1.16793
1.17612
1.18018
1.18213
1.18305
1.18348
1.18367
1.18376
1.18379
1.18381
1.18382
1.18382
1.18382
1.18382
1.18382
1.18382
1.18382
1.18382
0.658526
0.658501
0.658459
0.658388
0.658269
0.658073
0.65775
0.657226
0.656384
0.65505
0.652975
0.649811
0.645104
0.638296
0.628783
0.616004
0.599593
0.579531
0.556239
0.530546
0.503532
0.476301
0.449796
0.424689
0.401374
0.380011
0.360595
0.343019
0.327124
0.312733
0.29967
0.287774
0.276901
0.266931
0.257761
0.249301
0.241438
0.2341
0.227232
0.220789
0.214731
0.209026
0.203645
0.198564
0.193763
0.189226
0.184937
0.180886
0.177062
0.173459
0.170071
0.166899
0.163945
0.161222
0.158753
0.156576
0.154806
0.1535
0.152793
0.153051
0.154838
0.159257
0.166967
0.177442
0.190574
0.206503
0.225564
0.248281
0.275386
0.307845
0.346899
0.394149
0.451616
0.521295
0.604449
0.700368
0.804724
0.908676
1.00083
1.07234
1.12101
1.15063
1.16713
1.17572
1.17999
1.18205
1.18301
1.18346
1.18366
1.18375
1.18379
1.18381
1.18382
1.18382
1.18382
1.18382
1.18382
1.18382
1.18382
1.18382
0.658526
0.658501
0.658458
0.658387
0.658268
0.65807
0.657746
0.657218
0.656371
0.655029
0.652942
0.64976
0.645026
0.638183
0.628624
0.615791
0.599321
0.579202
0.555862
0.530138
0.50311
0.475884
0.449397
0.42432
0.401039
0.379713
0.360333
0.342791
0.326927
0.312565
0.299528
0.287656
0.276806
0.266856
0.257704
0.249261
0.241415
0.234091
0.227238
0.220808
0.214763
0.209069
0.203699
0.198629
0.193838
0.18931
0.18503
0.180986
0.177168
0.17357
0.170186
0.167016
0.164063
0.161338
0.158862
0.156674
0.154877
0.15354
0.152783
0.152956
0.154599
0.158754
0.166241
0.176501
0.189404
0.205074
0.223834
0.246191
0.272859
0.304785
0.343187
0.389627
0.446112
0.514665
0.596666
0.691645
0.795646
0.900168
0.99383
1.06732
1.11784
1.14882
1.16618
1.17525
1.17976
1.18194
1.18297
1.18344
1.18365
1.18375
1.18379
1.18381
1.18382
1.18382
1.18382
1.18382
1.18382
1.18382
1.18382
1.18382
0.658526
0.658501
0.658458
0.658386
0.658266
0.658067
0.65774
0.657209
0.656356
0.655005
0.652903
0.649699
0.644935
0.63805
0.628437
0.615538
0.598998
0.57881
0.555412
0.529648
0.502602
0.475379
0.448914
0.42387
0.400627
0.379342
0.360003
0.342501
0.326675
0.312347
0.299342
0.287498
0.276674
0.266749
0.25762
0.249198
0.241371
0.234065
0.227229
0.220815
0.214786
0.209107
0.203751
0.198693
0.193915
0.189398
0.185128
0.181094
0.177284
0.173693
0.170315
0.167148
0.164196
0.161469
0.158987
0.156786
0.15496
0.153587
0.152771
0.152848
0.154327
0.158182
0.165418
0.175433
0.188074
0.20345
0.221866
0.243814
0.269986
0.301307
0.338967
0.384493
0.439864
0.507135
0.587808
0.68168
0.785207
0.890299
0.985628
1.06139
1.11407
1.14666
1.16504
1.17468
1.17949
1.18181
1.18291
1.18341
1.18364
1.18374
1.18379
1.18381
1.18382
1.18382
1.18382
1.18382
1.18382
1.18382
1.18382
1.18382
0.658526
0.6585
0.658457
0.658385
0.658264
0.658063
0.657734
0.657199
0.656339
0.654977
0.652859
0.64963
0.64483
0.637896
0.628219
0.615244
0.598619
0.578348
0.554879
0.529064
0.501994
0.474771
0.448326
0.423317
0.40012
0.378883
0.359593
0.342138
0.326355
0.312068
0.2991
0.28729
0.276498
0.266601
0.257499
0.249102
0.241298
0.234015
0.227199
0.220805
0.214794
0.209133
0.203794
0.198753
0.193989
0.189487
0.18523
0.181207
0.177408
0.173826
0.170455
0.167293
0.164343
0.161614
0.159126
0.156911
0.155052
0.153641
0.15276
0.152729
0.154024
0.157545
0.164498
0.174237
0.186583
0.201626
0.219655
0.24114
0.266755
0.297396
0.334226
0.378729
0.432853
0.49868
0.577842
0.670419
0.773329
0.87896
0.976096
1.05442
1.1096
1.14408
1.16367
1.174
1.17916
1.18166
1.18284
1.18338
1.18363
1.18374
1.18378
1.18381
1.18381
1.18382
1.18382
1.18382
1.18382
1.18382
1.18382
1.18382
0.658526
0.6585
0.658457
0.658384
0.658262
0.65806
0.657728
0.657188
0.65632
0.654946
0.652809
0.649553
0.644711
0.637721
0.62797
0.614906
0.598181
0.577811
0.554256
0.528378
0.501273
0.474047
0.447623
0.422652
0.399508
0.378324
0.359088
0.341686
0.325954
0.311713
0.298789
0.287019
0.276264
0.266402
0.257332
0.248965
0.241189
0.233931
0.227141
0.22077
0.214782
0.209142
0.203824
0.198802
0.194057
0.189571
0.185331
0.181322
0.177537
0.173966
0.170604
0.167449
0.164503
0.161774
0.159279
0.15705
0.155159
0.153706
0.152756
0.152611
0.153709
0.156874
0.163501
0.172924
0.184936
0.199606
0.2172
0.238171
0.263164
0.29305
0.32896
0.372334
0.425075
0.489294
0.566753
0.657831
0.75995
0.866054
0.965115
1.0463
1.10434
1.14104
1.16205
1.17319
1.17878
1.18148
1.18276
1.18334
1.18361
1.18373
1.18378
1.1838
1.18381
1.18382
1.18382
1.18382
1.18382
1.18382
1.18382
1.18382
0.658526
0.6585
0.658456
0.658382
0.658259
0.658055
0.65772
0.657175
0.6563
0.654913
0.652755
0.649467
0.644579
0.637524
0.627689
0.614521
0.59768
0.577192
0.553532
0.527576
0.500428
0.473191
0.446786
0.421856
0.398764
0.377641
0.358469
0.341128
0.325454
0.311268
0.298394
0.286672
0.27596
0.266139
0.257107
0.248776
0.241032
0.233806
0.227044
0.220702
0.214741
0.209127
0.203832
0.198834
0.194111
0.189646
0.185425
0.181435
0.177665
0.174108
0.170759
0.167613
0.164673
0.161945
0.159446
0.157205
0.155283
0.15379
0.152773
0.152517
0.153426
0.156255
0.162477
0.171528
0.183157
0.197406
0.214519
0.23492
0.25923
0.288287
0.323188
0.365329
0.416558
0.479006
0.554568
0.64393