/*--------------------------------*- C++ -*----------------------------------*\
  =========                 |
  \\      /  F ield         | OpenFOAM: The Open Source CFD Toolbox
   \\    /   O peration     | Website:  https://openfoam.org
    \\  /    A nd           | Version:  8
     \\/     M anipulation  |
\*---------------------------------------------------------------------------*/
FoamFile
{
    version     2.0;
    format      ascii;
    class       volScalarField;
    location    "0.45/fluid";
    object      T;
}
// * * * * * * * * * * * * * * * * * * * * * * * * * * * * * * * * * * * * * //

dimensions      [0 0 0 1 0 0 0];

internalField   nonuniform List<scalar> 
4000
(
293.004
293.017
293.039
293.077
293.139
293.242
293.412
293.691
294.141
294.861
295.996
297.756
300.428
304.393
310.124
318.155
329.038
343.259
361.156
382.865
408.304
437.213
469.22
503.919
540.924
579.898
620.569
662.726
706.236
750.99
796.85
843.728
891.531
940.156
989.483
1039.44
1090.07
1141.27
1192.94
1244.99
1297.3
1349.79
1402.33
1454.82
1507.15
1559.2
1610.86
1662.02
1712.56
1762.35
1811.27
1859.15
1905.83
1951.06
1994.54
2035.81
2074.19
2108.15
2136.36
2157.39
2166.41
2156.81
2117.52
2039.12
1937.19
1821.31
1697.55
1569.9
1441.05
1312.87
1186.8
1064.05
945.744
832.827
726.523
628.553
541.185
466.705
406.934
362.533
332.42
313.866
303.411
297.972
295.305
294.044
293.464
293.203
293.087
293.037
293.016
293.007
293.003
293.001
293
293
293
293
293
293
293.004
293.017
293.039
293.077
293.139
293.242
293.413
293.691
294.141
294.86
295.99
297.737
300.382
304.298
309.942
317.839
328.527
342.49
360.076
381.44
406.526
435.097
466.803
501.25
538.056
576.885
617.465
659.6
703.126
747.863
793.748
840.687
888.581
937.324
986.793
1036.91
1087.7
1139.08
1190.95
1243.21
1295.74
1348.45
1401.22
1453.94
1506.5
1558.79
1610.68
1662.07
1712.83
1762.84
1811.96
1860.04
1906.89
1952.27
1995.87
2037.2
2075.58
2109.3
2137.2
2157.63
2165.57
2154.09
2111.56
2030.87
1927.25
1810.03
1685.19
1556.61
1426.95
1298.07
1171.42
1048.23
929.667
816.715
710.746
613.682
527.844
455.519
398.349
356.626
328.826
311.935
302.485
297.561
295.133
293.975
293.437
293.193
293.084
293.036
293.015
293.006
293.003
293.001
293
293
293
293
293
293
293.004
293.017
293.039
293.077
293.139
293.243
293.413
293.692
294.143
294.861
295.989
297.728
300.356
304.238
309.823
317.622
328.164
341.926
359.257
380.317
405.067
433.291
464.658
498.788
535.31
573.897
614.285
656.276
699.645
744.307
790.154
837.093
885.027
933.848
983.432
1033.69
1084.65
1136.23
1188.33
1240.84
1293.65
1346.65
1399.74
1452.78
1505.68
1558.31
1610.56
1662.3
1713.41
1763.75
1813.19
1861.58
1908.7
1954.33
1998.1
2039.54
2077.9
2111.23
2138.66
2158.11
2164.24
2149.65
2101.79
2017.45
1911.22
1792.07
1665.77
1536.1
1405.65
1276.25
1149.36
1026.28
908.196
796.134
691.616
596.649
513.537
444.366
390.417
351.546
325.907
310.415
301.756
297.229
294.987
293.913
293.411
293.182
293.079
293.034
293.015
293.006
293.003
293.001
293
293
293
293
293
293
293.004
293.017
293.039
293.076
293.139
293.242
293.412
293.689
294.137
294.849
295.966
297.686
300.283
304.115
309.623
317.312
327.705
341.275
358.374
379.173
403.644
431.584
462.674
496.546
532.832
571.211
611.433
653.236
696.488
741.062
786.854
833.77
881.716
930.587
980.258
1030.63
1081.74
1133.51
1185.82
1238.58
1291.67
1344.98
1398.39
1451.79
1505.06
1558.08
1610.72
1662.85
1714.35
1765.08
1814.89
1863.62
1911.06
1956.95
2000.9
2042.4
2080.64
2113.42
2140.81
2158.88
2162.74
2144.35
2090.09
2001.47
1892.26
1771.03
1643.27
1512.63
1381.59
1251.98
1125.26
1002.73
885.558
774.833
672.153
579.576
499.328
433.3
382.468
346.34
322.808
308.728
300.905
296.824
294.802
293.83
293.375
293.167
293.073
293.032
293.014
293.006
293.002
293.001
293
293
293
293
293
293
293.004
293.017
293.039
293.076
293.138
293.24
293.409
293.685
294.128
294.835
295.941
297.644
300.213
304.001
309.443
317.038
327.303
340.711
357.615
378.193
402.428
430.129
460.986
494.638
530.724
568.927
608.972
650.65
693.799
738.295
784.035
830.929
878.883
927.795
977.542
1028.02
1079.27
1131.2
1183.72
1236.71
1290.07
1343.67
1397.41
1451.16
1504.8
1558.19
1611.22
1663.75
1715.64
1766.76
1816.96
1866.04
1913.79
1959.94
2004.07
2045.63
2083.75
2116.16
2142.85
2159.56
2161.07
2138.7
2077.75
1984.71
1872.53
1749.27
1620.18
1488.73
1357.32
1227.74
1101.42
979.682
863.639
754.455
653.773
563.679
486.303
423.328
375.437
341.819
320.158
307.299
300.186
296.481
294.643
293.759
293.344
293.153
293.067
293.029
293.012
293.005
293.002
293.001
293
293
293
293
293
293
293.004
293.017
293.039
293.075
293.137
293.238
293.406
293.679
294.118
294.817
295.912
297.595
300.135
303.879
309.257
316.765
326.915
340.181
356.919
377.313
401.355
428.863
459.535
493.014
528.944
567.016
606.936
648.511
691.579
736.015
781.719
828.6
876.569
925.524
975.344
1025.92
1077.3
1129.39
1182.1
1235.31
1288.91
1342.79
1396.84
1450.91
1504.89
1558.64
1612.03
1664.94
1717.21
1768.71
1819.25
1868.67
1916.72
1963.1
2007.4
2049
2086.91
2118.91
2144.82
2160.15
2159.3
2132.99
2065.54
1968.27
1853.28
1728.19
1597.94
1465.86
1334.25
1204.84
1079.06
958.21
843.347
735.723
637.002
549.279
474.581
414.401
369.158
337.774
317.77
305.995
299.519
296.157
294.491
293.69
293.313
293.14
293.061
293.027
293.011
293.005
293.002
293.001
293
293
293
293
293
293
293.004
293.017
293.038
293.075
293.136
293.236
293.402
293.673
294.108
294.8
295.883
297.549
300.062
303.766
309.088
316.519
326.57
339.713
356.309
376.549
400.431
427.781
458.303
491.645
527.455
565.409
605.243
646.747
689.761
734.16
779.846
826.731
874.725
923.729
973.626
1024.3
1075.8
1128.04
1180.93
1234.34
1288.18
1342.32
1396.63
1451
1505.29
1559.37
1613.1
1666.35
1718.97
1770.79
1821.66
1871.37
1919.68
1966.26
2010.68
2052.29
2089.91
2121.46
2146.55
2160.46
2157.25
2127.07
2053.68
1952.62
1835.16
1708.48
1577.28
1444.72
1313.03
1183.88
1058.69
938.729
825.017
718.865
621.994
536.473
464.23
406.583
363.708
334.294
315.73
304.885
298.952
295.881
294.362
293.63
293.286
293.128
293.056
293.025
293.011
293.005
293.002
293.001
293
293
293
293
293
293
293.004
293.017
293.038
293.074
293.134
293.234
293.399
293.667
294.098
294.783
295.856
297.506
299.994
303.662
308.934
316.296
326.261
339.3
355.777
375.888
399.639
426.861
457.264
490.499
526.218
564.091
603.859
645.314
688.293
732.673
778.357
825.257
873.286
922.346
972.32
1023.1
1074.71
1127.09
1180.14
1233.74
1287.79
1342.16
1396.72
1451.36
1505.93
1560.3
1614.33
1667.89
1720.8
1772.92
1824.07
1874.03
1922.56
1969.3
2013.79
2055.35
2092.61
2123.66
2147.84
2160.17
2154.32
2119.69
2041.79
1937.75
1818.35
1690.42
1558.5
1425.61
1293.93
1165.09
1040.49
921.366
808.726
703.937
608.76
525.236
455.199
399.802
359.009
331.305
313.98
303.932
298.463
295.642
294.248
293.578
293.263
293.118
293.052
293.023
293.01
293.004
293.002
293.001
293
293
293
293
293
293
293.004
293.016
293.038
293.074
293.133
293.232
293.395
293.661
294.088
294.768
295.831
297.466
299.932
303.569
308.797
316.101
325.991
338.942
355.319
375.324
398.967
426.085
456.394
489.545
525.189
563.006
602.731
644.155
687.116
731.493
777.187
824.112
872.182
921.3
971.351
1022.22
1073.95
1126.46
1179.66
1233.44
1287.68
1342.25
1397.03
1451.9
1506.72
1561.35
1615.65
1669.46
1722.64
1775.01
1826.4
1876.57
1925.27
1972.13
2016.66
2058.13
2094.96
2125.49
2148.73
2159.44
2150.84
2111.55
2030.27
1923.96
1803.04
1674.16
1541.69
1408.59
1276.97
1148.45
1024.41
906.064
794.402
690.848
597.196
515.46
447.382
393.969
354.993
328.766
312.5
303.128
298.05
295.44
294.153
293.534
293.243
293.109
293.048
293.021
293.009
293.004
293.002
293.001
293
293
293
293
293
293
293.004
293.016
293.038
293.073
293.132
293.231
293.392
293.656
294.08
294.754
295.809
297.431
299.878
303.487
308.677
315.931
325.759
338.635
354.929
374.846
398.402
425.438
455.672
488.762
524.351
562.127
601.823
643.229
686.184
730.566
776.277
823.233
871.348
920.527
970.654
1021.62
1073.45
1126.08
1179.42
1233.35
1287.76
1342.51
1397.49
1452.57
1507.6
1562.46
1616.98
1671.02
1724.42
1777.01
1828.59
1878.94
1927.77
1974.72
2019.27
2060.64
2097.04
2127.07
2149.41
2158.6
2147.44
2103.85
2019.74
1911.55
1789.39
1659.74
1526.84
1393.61
1262.08
1133.88
1010.36
892.702
781.92
679.468
587.173
507.017
440.664
388.984
351.579
326.619
311.252
302.45
297.702
295.27
294.071
293.496
293.225
293.101
293.045
293.019
293.008
293.004
293.002
293.001
293
293
293
293
293
293
293.004
293.016
293.037
293.073
293.131
293.229
293.39
293.651
294.072
294.742
295.789
297.4
299.831
303.417
308.574
315.786
325.561
338.375
354.6
374.445
397.93
424.9
455.075
488.114
523.667
561.416
601.094
642.493
685.45
729.845
775.579
822.569
870.73
919.967
970.166
1021.21
1073.14
1125.89
1179.35
1233.42
1287.97
1342.88
1398.04
1453.29
1508.51
1563.56
1618.27
1672.5
1726.09
1778.85
1830.6
1881.09
1930.04
1977.07
2021.62
2062.9
2098.9
2128.47
2149.99
2157.81
2144.38
2096.97
2010.4
1900.6
1777.4
1647.11
1513.88
1380.54
1249.13
1121.22
998.169
881.125
771.122
669.644
578.543
499.774
434.924
384.746
348.694
324.812
310.206
301.884
297.411
295.127
294.004
293.464
293.211
293.095
293.042
293.018
293.008
293.003
293.001
293.001
293
293
293
293
293
293
293.004
293.016
293.037
293.072
293.131
293.228
293.387
293.647
294.066
294.731
295.772
297.374
299.791
303.356
308.487
315.663
325.394
338.157
354.326
374.112
397.54
424.458
454.589
487.592
523.117
560.847
600.516
641.914
684.879
729.29
775.05
822.075
870.281
919.573
969.838
1020.96
1072.98
1125.82
1179.39
1233.58
1288.26
1343.31
1398.61
1454.02
1509.4
1564.6
1619.48
1673.87
1727.61
1780.53
1832.41
1883.02
1932.06
1979.13
2023.68
2064.88
2100.51
2129.68
2150.5
2157.12
2141.7
2090.95
2002.23
1891.05
1766.96
1636.14
1502.65
1369.26
1237.96
1110.32
987.683
871.173
761.854
661.227
571.167
493.601
430.053
381.166
346.269
323.301
309.334
301.412
297.169
295.009
293.947
293.438
293.199
293.089
293.039
293.017
293.007
293.003
293.001
293.001
293
293
293
293
293
293
293.004
293.016
293.037
293.072
293.13
293.227
293.385
293.644
294.06
294.722
295.758
297.352
299.757
303.306
308.414
315.561
325.256
337.977
354.099
373.839
397.221
424.099
454.196
487.171
522.677
560.396
600.061
641.462
684.438
728.868
774.654
821.713
869.962
919.305
969.63
1020.82
1072.91
1125.85
1179.51
1233.8
1288.59
1343.77
1399.19
1454.73
1510.24
1565.58
1620.59
1675.11
1728.97
1782
1833.99
1884.68
1933.78
1980.89
2025.42
2066.54
2101.87
2130.77
2150.99
2156.56
2139.4
2085.72
1995.16
1882.79
1757.97
1626.72
1493.02
1359.6
1228.41
1101.01
978.745
862.698
753.972
654.079
564.916
488.385
425.95
378.164
344.244
322.043
308.61
301.021
296.969
294.91
293.9
293.416
293.189
293.085
293.037
293.016
293.007
293.003
293.001
293.001
293
293
293
293
293
293
293.004
293.016
293.037
293.071
293.129
293.226
293.384
293.641
294.056
294.715
295.746
297.333
299.728
303.264
308.353
315.476
325.142
337.829
353.915
373.617
396.963
423.809
453.879
486.835
522.328
560.041
599.706
641.114
684.103
728.551
774.362
821.453
869.74
919.129
969.507
1020.76
1072.92
1125.92
1179.67
1234.05
1288.94
1344.21
1399.74
1455.38
1511
1566.45
1621.57
1676.19
1730.16
1783.28
1835.34
1886.09
1935.23
1982.32
2026.78
2067.75
2102.7
2132.09
2151.62
2156.2
2137.47
2081.26
1989.12
1875.76
1750.33
1618.74
1484.88
1351.44
1220.36
1093.18
971.222
855.569
747.348
648.081
559.68
484.026
422.532
375.672
342.569
321.008
308.016
300.701
296.805
294.83
293.862
293.398
293.181
293.081
293.036
293.016
293.007
293.003
293.001
293.001
293
293
293
293
293
293
293.004
293.016
293.037
293.071
293.129
293.225
293.382
293.639
294.052
294.709
295.736
297.318
299.705
303.23
308.304
315.408
325.05
337.71
353.767
373.439
396.758
423.579
453.63
486.572
522.056
559.766
599.434
640.849
683.85
728.316
774.15
821.269
869.59
919.019
969.443
1020.75
1072.96
1126.03
1179.85
1234.3
1289.26
1344.62
1400.23
1455.97
1511.68
1567.21
1622.42
1677.13
1731.18
1784.37
1836.49
1887.29
1936.46
1983.56
2027.99
2068.88
2103.7
2132.9
2152
2155.82
2135.84
2077.54
1984.1
1869.92
1743.99
1612.11
1478.13
1344.68
1213.69
1086.69
965.001
849.675
741.876
643.131
555.364
480.439
419.727
373.633
341.203
320.165
307.533
300.441
296.672
294.765
293.831
293.384
293.174
293.078
293.034
293.015
293.007
293.003
293.001
293.001
293
293
293
293
293
293
293.004
293.016
293.036
293.071
293.129
293.224
293.381
293.637
294.049
294.704
295.729
297.306
299.687
303.203
308.265
315.354
324.978
337.616
353.65
373.3
396.598
423.401
453.438
486.37
521.849
559.557
599.228
640.651
683.664
728.146
774
821.144
869.494
918.956
969.418
1020.76
1073.03
1126.15
1180.02
1234.53
1289.56
1344.98
1400.66
1456.47
1512.25
1567.86
1623.13
1677.92
1732.03
1785.28
1837.45
1888.29
1937.49
1984.59
2029.01
2069.85
2104.56
2133.54
2152.28
2155.5
2134.52
2074.55
1980.05
1865.22
1738.88
1606.77
1472.68
1339.23
1208.32
1081.46
959.982
844.921
737.464
639.142
551.891
477.556
417.476
371.999
340.111
319.493
307.149
300.234
296.566
294.713
293.806
293.372
293.169
293.076
293.033
293.015
293.006
293.003
293.001
293.001
293
293
293
293
293
293
293.004
293.016
293.036
293.071
293.128
293.224
293.38
293.636
294.047
294.7
295.723
297.297
299.673
303.182
308.235
315.313
324.922
337.545
353.562
373.195
396.477
423.267
453.293
486.218
521.694
559.403
599.078
640.507
683.531
728.025
773.896
821.06
869.433
918.922
969.414
1020.79
1073.09
1126.26
1180.17
1234.73
1289.81
1345.28
1401.02
1456.88
1512.72
1568.38
1623.71
1678.55
1732.71
1786
1838.22
1889.09
1938.31
1985.42
2029.83
2070.62
2105.23
2134.04
2152.5
2155.24
2133.48
2072.22
1976.91
1861.56
1734.91
1602.62
1468.45
1334.99
1204.14
1077.39
956.081
841.227
734.034
636.044
549.196
475.322
415.734
370.737
339.268
318.974
306.852
300.075
296.484
294.673
293.787
293.363
293.165
293.074
293.033
293.014
293.006
293.003
293.001
293.001
293
293
293
293
293
293
293.004
293.016
293.036
293.071
293.128
293.223
293.38
293.635
294.045
294.697
295.718
297.29
299.663
303.167
308.214
315.283
324.883
337.494
353.498
373.119
396.39
423.171
453.19
486.111
521.585
559.295
598.973
640.408
683.439
727.944
773.828
821.007
869.398
918.907
969.422
1020.83
1073.16
1126.35
1180.3
1234.89
1290.01
1345.52
1401.29
1457.19
1513.07
1568.78
1624.15
1679.02
1733.22
1786.55
1838.79
1889.69
1938.92
1986.04
2030.43
2071.19
2105.73
2134.42
2152.66
2155.06
2132.73
2070.52
1974.62
1858.89
1732
1599.58
1465.35
1331.89
1201.07
1074.42
953.223
838.523
731.523
633.778
547.227
473.693
414.466
369.819
338.655
318.596
306.635
299.958
296.424
294.643
293.773
293.357
293.162
293.072
293.032
293.014
293.006
293.003
293.001
293.001
293
293
293
293
293
293
293.004
293.016
293.036
293.071
293.128
293.223
293.379
293.634
294.044
294.695
295.715
297.286
299.656
303.157
308.2
315.263
324.857
337.461
353.457
373.07
396.334
423.109
453.124
486.042
521.516
559.226
598.907
640.346
683.382
727.895
773.787
820.976
869.379
918.902
969.431
1020.85
1073.2
1126.41
1180.38
1235
1290.14
1345.68
1401.48
1457.41
1513.31
1569.04
1624.44
1679.34
1733.56
1786.91
1839.17
1890.09
1939.33
1986.45
2030.83
2071.56
2106.05
2134.66
2152.76
2154.94
2132.23
2069.4
1973.11
1857.13
1730.1
1597.59
1463.32
1329.86
1199.07
1072.47
951.354
836.754
729.882
632.299
545.944
472.635
413.644
369.227
338.261
318.352
306.495
299.882
296.385
294.624
293.764
293.352
293.16
293.072
293.032
293.014
293.006
293.003
293.001
293
293
293
293
293
293
293
293.004
293.016
293.036
293.071
293.128
293.223
293.379
293.634
294.043
294.694
295.714
297.283
299.653
303.152
308.193
315.254
324.845
337.445
353.438
373.047
396.308
423.08
453.093
486.01
521.483
559.194
598.876
640.317
683.356
727.872
773.768
820.962
869.371
918.9
969.437
1020.87
1073.22
1126.45
1180.43
1235.05
1290.21
1345.76
1401.57
1457.51
1513.43
1569.17
1624.58
1679.49
1733.73
1787.09
1839.36
1890.28
1939.53
1986.65
2031.03
2071.75
2106.22
2134.78
2152.82
2154.88
2131.99
2068.85
1972.37
1856.28
1729.17
1596.61
1462.33
1328.86
1198.09
1071.52
950.445
835.897
729.089
631.588
545.33
472.13
413.255
368.949
338.077
318.24
306.43
299.847
296.367
294.615
293.759
293.35
293.159
293.071
293.031
293.014
293.006
293.003
293.001
293
293
293
293
293
293
293
293.004
293.016
293.036
293.071
293.128
293.223
293.379
293.634
294.043
294.694
295.714
297.283
299.653
303.152
308.193
315.254
324.845
337.445
353.438
373.047
396.308
423.08
453.093
486.01
521.483
559.194
598.876
640.317
683.356
727.872
773.768
820.962
869.371
918.9
969.437
1020.87
1073.22
1126.45
1180.43
1235.05
1290.21
1345.76
1401.57
1457.51
1513.43
1569.17
1624.58
1679.49
1733.73
1787.09
1839.36
1890.28
1939.53
1986.65
2031.03
2071.75
2106.22
2134.78
2152.82
2154.88
2131.99
2068.85
1972.37
1856.27
1729.17
1596.61
1462.33
1328.86
1198.09
1071.52
950.445
835.897
729.089
631.587
545.33
472.13
413.255
368.949
338.077
318.24
306.43
299.847
296.367
294.615
293.759
293.35
293.159
293.071
293.031
293.014
293.006
293.003
293.001
293
293
293
293
293
293
293
293.004
293.016
293.036
293.071
293.128
293.223
293.379
293.634
294.044
294.695
295.715
297.286
299.656
303.157
308.2
315.263
324.857
337.461
353.457
373.07
396.334
423.109
453.124
486.042
521.516
559.226
598.907
640.346
683.382
727.895
773.787
820.976
869.379
918.902
969.431
1020.85
1073.2
1126.41
1180.38
1235
1290.14
1345.68
1401.48
1457.41
1513.31
1569.04
1624.44
1679.34
1733.56
1786.91
1839.17
1890.09
1939.33
1986.45
2030.83
2071.56
2106.05
2134.66
2152.76
2154.94
2132.23
2069.4
1973.11
1857.13
1730.1
1597.59
1463.32
1329.86
1199.07
1072.47
951.353
836.754
729.882
632.299
545.944
472.635
413.644
369.227
338.261
318.352
306.495
299.882
296.385
294.624
293.764
293.352
293.16
293.072
293.032
293.014
293.006
293.003
293.001
293
293
293
293
293
293
293
293.004
293.016
293.036
293.071
293.128
293.223
293.38
293.635
294.045
294.697
295.718
297.29
299.663
303.167
308.214
315.283
324.882
337.494
353.498
373.119
396.39
423.17
453.19
486.111
521.585
559.295
598.973
640.408
683.439
727.944
773.828
821.006
869.398
918.907
969.422
1020.83
1073.16
1126.35
1180.3
1234.89
1290.01
1345.52
1401.29
1457.19
1513.07
1568.78
1624.15
1679.02
1733.22
1786.55
1838.79
1889.69
1938.92
1986.04
2030.43
2071.19
2105.73
2134.42
2152.66
2155.06
2132.73
2070.52
1974.62
1858.89
1732
1599.58
1465.35
1331.89
1201.07
1074.42
953.223
838.522
731.522
633.778
547.226
473.693
414.466
369.819
338.655
318.596
306.635
299.958
296.424
294.643
293.773
293.357
293.162
293.072
293.032
293.014
293.006
293.003
293.001
293.001
293
293
293
293
293
293
293.004
293.016
293.036
293.071
293.128
293.224
293.38
293.636
294.047
294.7
295.723
297.297
299.673
303.182
308.235
315.313
324.922
337.545
353.562
373.194
396.477
423.266
453.293
486.218
521.694
559.403
599.078
640.507
683.53
728.025
773.896
821.06
869.433
918.922
969.414
1020.79
1073.09
1126.26
1180.17
1234.73
1289.81
1345.28
1401.02
1456.88
1512.72
1568.38
1623.71
1678.55
1732.71
1786
1838.22
1889.09
1938.31
1985.42
2029.83
2070.62
2105.23
2134.04
2152.5
2155.24
2133.48
2072.22
1976.91
1861.56
1734.91
1602.62
1468.45
1334.99
1204.13
1077.39
956.08
841.227
734.033
636.043
549.195
475.322
415.734
370.737
339.268
318.974
306.852
300.075
296.484
294.673
293.787
293.363
293.165
293.074
293.033
293.014
293.006
293.003
293.001
293.001
293
293
293
293
293
293
293.004
293.016
293.036
293.071
293.129
293.224
293.381
293.637
294.049
294.704
295.729
297.306
299.687
303.203
308.265
315.354
324.978
337.616
353.65
373.3
396.598
423.401
453.437
486.369
521.848
559.557
599.228
640.651
683.664
728.145
774
821.143
869.493
918.956
969.417
1020.76
1073.03
1126.15
1180.02
1234.53
1289.56
1344.98
1400.66
1456.47
1512.25
1567.86
1623.13
1677.92
1732.03
1785.28
1837.45
1888.29
1937.49
1984.59
2029.01
2069.85
2104.55
2133.54
2152.28
2155.5
2134.52
2074.54
1980.05
1865.22
1738.88
1606.77
1472.68
1339.23
1208.31
1081.46
959.98
844.92
737.463
639.141
551.89
477.555
417.475
371.999
340.111
319.493
307.149
300.234
296.566
294.713
293.806
293.372
293.169
293.076
293.033
293.015
293.006
293.003
293.001
293.001
293
293
293
293
293
293
293.004
293.016
293.037
293.071
293.129
293.225
293.382
293.639
294.052
294.709
295.736
297.318
299.705
303.23
308.304
315.408
325.05
337.71
353.766
373.439
396.758
423.579
453.63
486.572
522.056
559.766
599.434
640.849
683.85
728.316
774.15
821.269
869.59
919.019
969.443
1020.75
1072.96
1126.03
1179.85
1234.3
1289.26
1344.62
1400.23
1455.97
1511.68
1567.21
1622.42
1677.13
1731.18
1784.37
1836.49
1887.29
1936.46
1983.56
2027.99
2068.88
2103.7
2132.9
2152
2155.82
2135.84
2077.54
1984.1
1869.92
1743.99
1612.11
1478.13
1344.68
1213.69
1086.69
964.999
849.673
741.875
643.13
555.363
480.438
419.726
373.632
341.203
320.165
307.533
300.441
296.672
294.765
293.831
293.384
293.174
293.078
293.034
293.015
293.007
293.003
293.001
293.001
293
293
293
293
293
293
293.004
293.016
293.037
293.071
293.129
293.226
293.384
293.641
294.056
294.715
295.746
297.333
299.728
303.264
308.353
315.476
325.142
337.829
353.915
373.616
396.963
423.808
453.879
486.835
522.328
560.04
599.706
641.114
684.102
728.55
774.361
821.452
869.739
919.128
969.506
1020.76
1072.92
1125.92
1179.67
1234.05
1288.94
1344.21
1399.74
1455.38
1511
1566.45
1621.57
1676.19
1730.16
1783.28
1835.34
1886.09
1935.23
1982.32
2026.78
2067.75
2102.7
2132.09
2151.62
2156.2
2137.47
2081.25
1989.11
1875.76
1750.33
1618.73
1484.88
1351.44
1220.36
1093.17
971.22
855.567
747.346
648.08
559.679
484.025
422.532
375.671
342.569
321.007
308.015
300.701
296.805
294.83
293.862
293.398
293.181
293.081
293.036
293.016
293.007
293.003
293.001
293.001
293
293
293
293
293
293
293.004
293.016
293.037
293.072
293.13
293.227
293.385
293.644
294.06
294.722
295.758
297.352
299.757
303.306
308.413
315.56
325.256
337.977
354.099
373.839
397.221
424.098
454.196
487.171
522.677
560.395
600.061
641.462
684.438
728.867
774.653
821.713
869.961
919.305
969.63
1020.82
1072.91
1125.85
1179.51
1233.8
1288.59
1343.77
1399.19
1454.73
1510.24
1565.58
1620.59
1675.11
1728.97
1782
1833.99
1884.68
1933.78
1980.89
2025.42
2066.54
2101.87
2130.77
2150.99
2156.56
2139.39
2085.72
1995.16
1882.79
1757.97
1626.72
1493.02
1359.59
1228.41
1101.01
978.742
862.695
753.97
654.077
564.915
488.384
425.949
378.163
344.243
322.043
308.61
301.021
296.969
294.91
293.9
293.416
293.189
293.085
293.037
293.016
293.007
293.003
293.001
293.001
293
293
293
293
293
293
293.004
293.016
293.037
293.072
293.131
293.228
293.387
293.647
294.066
294.731
295.772
297.374
299.791
303.356
308.487
315.663
325.394
338.157
354.326
374.112
397.54
424.458
454.589
487.591
523.116
560.846
600.516
641.913
684.878
729.289
775.049
822.075
870.281
919.573
969.838
1020.96
1072.98
1125.82
1179.39
1233.58
1288.26
1343.31
1398.61
1454.02
1509.4
1564.6
1619.48
1673.87
1727.61
1780.53
1832.41
1883.01
1932.06
1979.13
2023.68
2064.88
2100.51
2129.68
2150.5
2157.12
2141.7
2090.95
2002.23
1891.04
1766.96
1636.14
1502.65
1369.25
1237.95
1110.32
987.68
871.17
761.852
661.225
571.165
493.599
430.051
381.165
346.268
323.3
309.333
301.411
297.169
295.009
293.947
293.438
293.199
293.089
293.039
293.017
293.007
293.003
293.001
293.001
293
293
293
293
293
293
293.004
293.016
293.037
293.073
293.131
293.229
293.39
293.651
294.072
294.742
295.789
297.4
299.831
303.417
308.574
315.786
325.561
338.375
354.6
374.445
397.929
424.899
455.074
488.114
523.666
561.415
601.094
642.492
685.45
729.844
775.579
822.569
870.73
919.967
970.165
1021.21
1073.14
1125.89
1179.35
1233.41
1287.97
1342.88
1398.03
1453.29
1508.51
1563.55
1618.27
1672.5
1726.09
1778.85
1830.6
1881.09
1930.04
1977.07
2021.62
2062.9
2098.9
2128.47
2149.99
2157.81
2144.38
2096.97
2010.39
1900.59
1777.39
1647.1
1513.87
1380.54
1249.13
1121.22
998.166
881.121
771.119
669.641
578.541
499.772
434.923
384.745
348.693
324.812
310.206
301.883
297.411
295.127
294.003
293.464
293.211
293.095
293.042
293.018
293.008
293.003
293.001
293.001
293
293
293
293
293
293
293.004
293.016
293.038
293.073
293.132
293.231
293.392
293.656
294.08
294.754
295.809
297.431
299.878
303.487
308.677
315.931
325.759
338.635
354.929
374.846
398.401
425.437
455.672
488.761
524.351
562.126
601.822
643.228
686.183
730.565
776.277
823.233
871.348
920.526
970.653
1021.61
1073.45
1126.08
1179.42
1233.35
1287.75
1342.51
1397.49
1452.57
1507.6
1562.46
1616.98
1671.02
1724.42
1777.01
1828.59
1878.94
1927.77
1974.72
2019.27
2060.64
2097.04
2127.07
2149.41
2158.59
2147.44
2103.84
2019.73
1911.54
1789.39
1659.73
1526.84
1393.6
1262.08
1133.88
1010.36
892.698
781.916
679.465
587.171
507.015
440.662
388.982
351.578
326.618
311.252
302.45
297.702
295.27
294.071
293.496
293.225
293.101
293.045
293.019
293.008
293.004
293.002
293.001
293
293
293
293
293
293
293.004
293.016
293.038
293.074
293.133
293.232
293.395
293.661
294.088
294.768
295.831
297.466
299.932
303.569
308.797
316.101
325.991
338.942
355.319
375.324
398.966
426.085
456.393
489.544
525.188
563.005
602.731
644.154
687.116
731.492
777.186
824.111
872.181
921.299
971.351
1022.22
1073.95
1126.46
1179.66
1233.44
1287.68
1342.25
1397.03
1451.9
1506.72
1561.35
1615.65
1669.46
1722.64
1775.01
1826.4
1876.57
1925.27
1972.13
2016.66
2058.13
2094.96
2125.49
2148.73
2159.44
2150.84
2111.55
2030.27
1923.96
1803.04
1674.15
1541.68
1408.59
1276.96
1148.45
1024.41
906.06
794.399
690.845
597.193
515.457
447.38
393.968
354.992
328.765
312.499
303.127
298.05
295.44
294.152
293.533
293.243
293.109
293.048
293.021
293.009
293.004
293.002
293.001
293
293
293
293
293
293
293.004
293.017
293.038
293.074
293.134
293.234
293.399
293.666
294.098
294.783
295.856
297.506
299.994
303.662
308.933
316.296
326.26
339.299
355.777
375.888
399.638
426.86
457.263
490.498
526.218
564.09
603.859
645.313
688.292
732.673
778.357
825.257
873.285
922.345
972.319
1023.1
1074.71
1127.09
1180.14
1233.74
1287.79
1342.16
1396.72
1451.36
1505.93
1560.3
1614.33
1667.88
1720.8
1772.92
1824.07
1874.03
1922.55
1969.3
2013.79
2055.35
2092.61
2123.66
2147.84
2160.17
2154.31
2119.68
2041.78
1937.75
1818.34
1690.42
1558.49
1425.61
1293.92
1165.08
1040.48
921.361
808.721
703.933
608.756
525.233
455.196
399.8
359.007
331.304
313.979
303.932
298.462
295.642
294.248
293.578
293.263
293.118
293.052
293.023
293.01
293.004
293.002
293.001
293
293
293
293
293
293
293.004
293.017
293.038
293.075
293.136
293.236
293.402
293.673
294.108
294.8
295.883
297.549
300.062
303.766
309.088
316.518
326.569
339.713
356.309
376.549
400.43
427.78
458.302
491.645
527.454
565.408
605.242
646.746
689.76
734.159
779.846
826.73
874.724
923.729
973.625
1024.3
1075.8
1128.04
1180.93
1234.34
1288.18
1342.31
1396.63
1451
1505.29
1559.37
1613.1
1666.35
1718.96
1770.79
1821.66
1871.37
1919.68
1966.26
2010.68
2052.29
2089.91
2121.46
2146.55
2160.46
2157.25
2127.07
2053.68
1952.61
1835.15
1708.47
1577.27
1444.72
1313.02
1183.88
1058.69
938.723
825.012
718.861
621.989
536.469
464.227
406.58
363.707
334.293
315.729
304.885
298.952
295.881
294.362
293.63
293.286
293.128
293.056
293.025
293.011
293.005
293.002
293.001
293
293
293
293
293
293
293.004
293.017
293.039
293.075
293.137
293.238
293.406
293.679
294.118
294.817
295.911
297.595
300.135
303.879
309.257
316.764
326.915
340.18
356.918
377.312
401.354
428.862
459.534
493.013
528.943
567.015
606.935
648.51
691.578
736.014
781.718
828.6
876.568
925.523
975.344
1025.92
1077.3
1129.39
1182.1
1235.31
1288.91
1342.79
1396.83
1450.91
1504.89
1558.64
1612.03
1664.94
1717.21
1768.71
1819.25
1868.67
1916.72
1963.1
2007.4
2049
2086.9
2118.9
2144.82
2160.14
2159.29
2132.99
2065.54
1968.27
1853.28
1728.18
1597.93
1465.85
1334.24
1204.83
1079.06
958.204
843.341
735.718
636.997
549.275
474.577
414.398
369.155
337.772
317.769
305.994
299.519
296.157
294.491
293.69
293.313
293.14
293.061
293.027
293.011
293.005
293.002
293.001
293
293
293
293
293
293
293.004
293.017
293.039
293.076
293.138
293.24
293.409
293.685
294.128
294.835
295.941
297.644
300.213
304.001
309.443
317.038
327.303
340.711
357.615
378.193
402.427
430.128
460.985
494.637
530.723
568.926
608.971
650.649
693.799
738.294
784.035
830.928
878.882
927.794
977.541
1028.02
1079.27
1131.2
1183.72
1236.71
1290.07
1343.67
1397.41
1451.16
1504.8
1558.19
1611.22
1663.74
1715.64
1766.76
1816.96
1866.04
1913.79
1959.93
2004.07
2045.63
2083.75
2116.15
2142.84
2159.56
2161.06
2138.7
2077.74
1984.71
1872.52
1749.26
1620.17
1488.72
1357.31
1227.73
1101.42
979.675
863.633
754.449
653.768
563.674
486.298
423.325
375.434
341.817
320.157
307.298
300.186
296.48
294.643
293.759
293.344
293.153
293.067
293.029
293.012
293.005
293.002
293.001
293
293
293
293
293
293
293.004
293.017
293.039
293.076
293.139
293.242
293.412
293.689
294.137
294.849
295.965
297.686
300.283
304.115
309.623
317.312
327.705
341.275
358.374
379.173
403.643
431.583
462.674
496.545
532.832
571.21
611.432
653.235
696.487
741.061
786.853
833.769
881.716
930.586
980.257
1030.63
1081.74
1133.51
1185.82
1238.58
1291.67
1344.98
1398.39
1451.79
1505.06
1558.08
1610.72
1662.85
1714.35
1765.08
1814.89
1863.62
1911.06
1956.94
2000.9
2042.4
2080.64
2113.42
2140.81
2158.88
2162.73
2144.35
2090.08
2001.46
1892.25
1771.02
1643.26
1512.62
1381.58
1251.98
1125.25
1002.72
885.551
774.826
672.147
579.57
499.324
433.296
382.465
346.338
322.807
308.727
300.905
296.824
294.802
293.83
293.375
293.167
293.073
293.032
293.014
293.006
293.002
293.001
293
293
293
293
293
293
293.004
293.017
293.039
293.077
293.139
293.243
293.413
293.692
294.143
294.861
295.989
297.728
300.356
304.238
309.823
317.621
328.164
341.926
359.256
380.316
405.066
433.29
464.657
498.787
535.309
573.896
614.284
656.275
699.644
744.306
790.153
837.092
885.026
933.847
983.431
1033.69
1084.65
1136.23
1188.33
1240.84
1293.65
1346.65
1399.73
1452.78
1505.68
1558.31
1610.56
1662.3
1713.41
1763.75
1813.19
1861.57
1908.7
1954.33
1998.1
2039.54
2077.9
2111.23
2138.66
2158.1
2164.23
2149.64
2101.78
2017.44
1911.21
1792.06
1665.76
1536.09
1405.64
1276.24
1149.36
1026.27
908.188
796.126
691.609
596.642
513.532
444.362
390.413
351.544
325.905
310.414
301.756
297.229
294.987
293.913
293.411
293.182
293.079
293.034
293.015
293.006
293.003
293.001
293
293
293
293
293
293
293.004
293.017
293.039
293.077
293.139
293.242
293.413
293.691
294.141
294.86
295.99
297.737
300.382
304.298
309.942
317.838
328.526
342.489
360.076
381.44
406.525
435.096
466.802
501.249
538.055
576.884