/*--------------------------------*- C++ -*----------------------------------*\
  =========                 |
  \\      /  F ield         | OpenFOAM: The Open Source CFD Toolbox
   \\    /   O peration     | Website:  https://openfoam.org
    \\  /    A nd           | Version:  8
     \\/     M anipulation  |
\*---------------------------------------------------------------------------*/
FoamFile
{
    version     2.0;
    format      ascii;
    class       volVectorField;
    location    "0.45/fluid";
    object      U;
}
// * * * * * * * * * * * * * * * * * * * * * * * * * * * * * * * * * * * * * //

dimensions      [0 1 -1 0 0 0 0];

internalField   nonuniform List<vector> 
4000
(
(0.0999459 -0.00716196 0)
(0.0996291 -0.0212684 0)
(0.0991162 -0.0352291 0)
(0.0984075 -0.0490927 0)
(0.0974983 -0.0628834 0)
(0.0963736 -0.0766056 0)
(0.0950139 -0.0902503 0)
(0.0934002 -0.103798 0)
(0.0915171 -0.117221 0)
(0.0893569 -0.13049 0)
(0.0869257 -0.143569 0)
(0.0842533 -0.156414 0)
(0.0813911 -0.169039 0)
(0.0784004 -0.181469 0)
(0.0753486 -0.193744 0)
(0.0723001 -0.205919 0)
(0.069302 -0.21805 0)
(0.0663691 -0.230181 0)
(0.0634746 -0.242326 0)
(0.0605518 -0.254459 0)
(0.0575061 -0.266517 0)
(0.0542346 -0.278409 0)
(0.0506444 -0.290036 0)
(0.0466661 -0.301293 0)
(0.0422609 -0.312079 0)
(0.0374279 -0.322279 0)
(0.032187 -0.331837 0)
(0.0265648 -0.340713 0)
(0.0205908 -0.348864 0)
(0.0142962 -0.356256 0)
(0.00771487 -0.362864 0)
(0.000882382 -0.368676 0)
(-0.00616504 -0.373686 0)
(-0.0133936 -0.3779 0)
(-0.0207712 -0.38133 0)
(-0.0282667 -0.383995 0)
(-0.0358521 -0.38592 0)
(-0.0435009 -0.387135 0)
(-0.0511881 -0.387675 0)
(-0.0588901 -0.38758 0)
(-0.0665846 -0.38689 0)
(-0.0742506 -0.385649 0)
(-0.0818684 -0.383903 0)
(-0.0894189 -0.381701 0)
(-0.0968839 -0.379089 0)
(-0.104246 -0.376118 0)
(-0.111487 -0.372839 0)
(-0.118592 -0.369303 0)
(-0.125543 -0.365563 0)
(-0.132324 -0.361674 0)
(-0.138919 -0.357692 0)
(-0.145309 -0.353678 0)
(-0.151478 -0.349695 0)
(-0.157404 -0.345814 0)
(-0.163063 -0.342111 0)
(-0.168425 -0.338676 0)
(-0.173438 -0.335602 0)
(-0.178031 -0.332991 0)
(-0.18213 -0.330946 0)
(-0.18561 -0.329591 0)
(-0.188165 -0.32903 0)
(-0.189207 -0.32921 0)
(-0.188001 -0.329771 0)
(-0.184237 -0.329975 0)
(-0.178508 -0.329199 0)
(-0.171584 -0.327198 0)
(-0.163928 -0.323933 0)
(-0.155792 -0.319436 0)
(-0.147334 -0.313755 0)
(-0.138671 -0.306938 0)
(-0.129902 -0.299035 0)
(-0.121117 -0.290095 0)
(-0.112401 -0.280174 0)
(-0.103841 -0.269327 0)
(-0.0955687 -0.257617 0)
(-0.0877982 -0.245137 0)
(-0.0808381 -0.232037 0)
(-0.0750742 -0.21869 0)
(-0.070933 -0.205674 0)
(-0.0687234 -0.193489 0)
(-0.0684543 -0.182386 0)
(-0.0698163 -0.172268 0)
(-0.0723206 -0.162812 0)
(-0.0754583 -0.153675 0)
(-0.0788078 -0.144615 0)
(-0.0820832 -0.135501 0)
(-0.0851233 -0.12628 0)
(-0.0878469 -0.116932 0)
(-0.0902097 -0.107444 0)
(-0.0922214 -0.0979124 0)
(-0.0939132 -0.088374 0)
(-0.0953222 -0.0788568 0)
(-0.0964839 -0.0693824 0)
(-0.0974314 -0.0599656 0)
(-0.0981941 -0.0506137 0)
(-0.0987978 -0.0413267 0)
(-0.0992644 -0.0320976 0)
(-0.0996106 -0.0229127 0)
(-0.0998472 -0.0137511 0)
(-0.0999829 -0.00458805 0)
(0.100007 -0.00662951 0)
(0.0998049 -0.0198363 0)
(0.099373 -0.032959 0)
(0.0986853 -0.0459745 0)
(0.0977464 -0.0588599 0)
(0.0965549 -0.0715889 0)
(0.0951035 -0.0841311 0)
(0.0933859 -0.0964538 0)
(0.0914014 -0.108525 0)
(0.0891586 -0.12032 0)
(0.0866792 -0.13184 0)
(0.0840021 -0.143118 0)
(0.0811811 -0.15416 0)
(0.0782806 -0.164998 0)
(0.0753698 -0.17569 0)
(0.0725128 -0.186313 0)
(0.0697545 -0.196952 0)
(0.0671064 -0.207679 0)
(0.0645377 -0.218539 0)
(0.0619752 -0.229529 0)
(0.0593154 -0.240604 0)
(0.0564436 -0.251679 0)
(0.0532529 -0.26265 0)
(0.0496601 -0.273406 0)
(0.0456123 -0.28385 0)
(0.0410867 -0.293914 0)
(0.036091 -0.30349 0)
(0.030649 -0.312481 0)
(0.0247921 -0.320817 0)
(0.0185571 -0.328453 0)
(0.0119844 -0.335359 0)
(0.0051156 -0.341517 0)
(-0.00200629 -0.346924 0)
(-0.00934152 -0.351581 0)
(-0.0168543 -0.3555 0)
(-0.0245093 -0.358698 0)
(-0.0322744 -0.361199 0)
(-0.0401207 -0.36303 0)
(-0.0480212 -0.364223 0)
(-0.0559505 -0.364812 0)
(-0.0638854 -0.364836 0)
(-0.0718037 -0.364334 0)
(-0.079685 -0.363349 0)
(-0.0875101 -0.361925 0)
(-0.0952605 -0.360107 0)
(-0.102919 -0.357942 0)
(-0.110469 -0.355477 0)
(-0.117895 -0.352762 0)
(-0.125181 -0.349847 0)
(-0.132313 -0.346782 0)
(-0.139277 -0.34362 0)
(-0.146059 -0.340416 0)
(-0.152645 -0.337224 0)
(-0.159021 -0.334102 0)
(-0.165169 -0.331109 0)
(-0.171065 -0.328302 0)
(-0.176662 -0.325736 0)
(-0.181893 -0.323456 0)
(-0.186689 -0.321494 0)
(-0.190916 -0.319861 0)
(-0.194236 -0.318511 0)
(-0.195849 -0.317348 0)
(-0.194896 -0.316016 0)
(-0.191044 -0.314231 0)
(-0.185054 -0.311728 0)
(-0.177817 -0.30833 0)
(-0.169844 -0.303927 0)
(-0.161392 -0.298452 0)
(-0.152612 -0.291871 0)
(-0.143604 -0.284168 0)
(-0.134448 -0.275342 0)
(-0.125215 -0.265413 0)
(-0.115965 -0.254429 0)
(-0.106766 -0.24248 0)
(-0.0977526 -0.22974 0)
(-0.0891838 -0.216513 0)
(-0.0814553 -0.203301 0)
(-0.0750662 -0.19062 0)
(-0.0704996 -0.178889 0)
(-0.0680248 -0.168424 0)
(-0.067558 -0.159258 0)
(-0.0687177 -0.151121 0)
(-0.0710005 -0.143602 0)
(-0.0739234 -0.136327 0)
(-0.0771012 -0.129045 0)
(-0.080272 -0.121627 0)
(-0.083283 -0.114031 0)
(-0.0860555 -0.106267 0)
(-0.0885573 -0.098369 0)
(-0.0907664 -0.090272 0)
(-0.0926892 -0.0819982 0)
(-0.0943396 -0.0735858 0)
(-0.0957363 -0.0650707 0)
(-0.0968998 -0.0564832 0)
(-0.0978512 -0.0478467 0)
(-0.0986103 -0.0391784 0)
(-0.0991939 -0.0304895 0)
(-0.0996127 -0.0217864 0)
(-0.0998739 -0.0130722 0)
(-0.0999991 -0.00435141 0)
(0.0999769 -0.00636831 0)
(0.0997052 -0.0190251 0)
(0.0991737 -0.0315888 0)
(0.0983659 -0.0440398 0)
(0.0972861 -0.0563552 0)
(0.0959359 -0.0685103 0)
(0.0943164 -0.0804795 0)
(0.0924326 -0.0922374 0)
(0.0902972 -0.10376 0)
(0.0879328 -0.115029 0)
(0.0853723 -0.126031 0)
(0.0826573 -0.136766 0)
(0.0798399 -0.14725 0)
(0.0769849 -0.157521 0)
(0.0741622 -0.167638 0)
(0.0714364 -0.177674 0)
(0.0688524 -0.187711 0)
(0.0664215 -0.197821 0)
(0.0641124 -0.208051 0)
(0.0618512 -0.218406 0)
(0.0595322 -0.228851 0)
(0.0570359 -0.239317 0)
(0.0542491 -0.24971 0)
(0.0510803 -0.259925 0)
(0.0474656 -0.269861 0)
(0.0433667 -0.279423 0)
(0.0387698 -0.288532 0)
(0.0336843 -0.297121 0)
(0.0281362 -0.305133 0)
(0.0221617 -0.312525 0)
(0.0158022 -0.319266 0)
(0.00909973 -0.325334 0)
(0.00209618 -0.330718 0)
(-0.00516597 -0.335417 0)
(-0.012648 -0.339436 0)
(-0.0203148 -0.342788 0)
(-0.0281322 -0.34549 0)
(-0.0360697 -0.347567 0)
(-0.044099 -0.349044 0)
(-0.0521939 -0.349953 0)
(-0.0603299 -0.350327 0)
(-0.0684845 -0.350203 0)
(-0.0766367 -0.349618 0)
(-0.0847668 -0.348613 0)
(-0.0928568 -0.347229 0)
(-0.10089 -0.34551 0)
(-0.108851 -0.343498 0)
(-0.116725 -0.341238 0)
(-0.1245 -0.338776 0)
(-0.132164 -0.336157 0)
(-0.139707 -0.333428 0)
(-0.14712 -0.330634 0)
(-0.154395 -0.327822 0)
(-0.161522 -0.325036 0)
(-0.168489 -0.322319 0)
(-0.175273 -0.319709 0)
(-0.18182 -0.317235 0)
(-0.188055 -0.314914 0)
(-0.193893 -0.312751 0)
(-0.199137 -0.310726 0)
(-0.203309 -0.308765 0)
(-0.205466 -0.306744 0)
(-0.20461 -0.304378 0)
(-0.20053 -0.301488 0)
(-0.194109 -0.297932 0)
(-0.186309 -0.293595 0)
(-0.17769 -0.288384 0)
(-0.168542 -0.282234 0)
(-0.159028 -0.27511 0)
(-0.149252 -0.267002 0)
(-0.139292 -0.25793 0)
(-0.12921 -0.247945 0)
(-0.119062 -0.237137 0)
(-0.108925 -0.225644 0)
(-0.0989734 -0.213669 0)
(-0.0895353 -0.201497 0)
(-0.081097 -0.18949 0)
(-0.074227 -0.178058 0)
(-0.0694015 -0.167581 0)
(-0.0668074 -0.158274 0)
(-0.066267 -0.150092 0)
(-0.0673449 -0.142757 0)
(-0.0695283 -0.1359 0)
(-0.0723494 -0.1292 0)
(-0.0754423 -0.122444 0)
(-0.0785584 -0.115521 0)
(-0.0815511 -0.10839 0)
(-0.0843469 -0.101049 0)
(-0.0869168 -0.0935174 0)
(-0.0892476 -0.0858242 0)
(-0.091331 -0.0779927 0)
(-0.0931667 -0.0700438 0)
(-0.0947605 -0.0619973 0)
(-0.0961215 -0.0538712 0)
(-0.0972608 -0.0456812 0)
(-0.0981904 -0.0374407 0)
(-0.0989207 -0.0291606 0)
(-0.0994587 -0.0208498 0)
(-0.0998087 -0.012516 0)
(-0.0999874 -0.00416855 0)
(0.0999843 -0.00600331 0)
(0.099713 -0.0179362 0)
(0.0991707 -0.0297713 0)
(0.0983394 -0.0414829 0)
(0.0972278 -0.0530438 0)
(0.0958432 -0.0644262 0)
(0.0941914 -0.075603 0)
(0.0922819 -0.0865485 0)
(0.0901301 -0.0972408 0)
(0.0877595 -0.107664 0)
(0.0852037 -0.117812 0)
(0.0825076 -0.127691 0)
(0.0797282 -0.137324 0)
(0.0769324 -0.146752 0)
(0.0741905 -0.156037 0)
(0.0715668 -0.165256 0)
(0.0691053 -0.174494 0)
(0.0668168 -0.183823 0)
(0.0646698 -0.193294 0)
(0.0625898 -0.20292 0)
(0.0604697 -0.212673 0)
(0.0581875 -0.222491 0)
(0.0556256 -0.232288 0)
(0.0526868 -0.241968 0)
(0.0493021 -0.251434 0)
(0.0454316 -0.260595 0)
(0.041061 -0.269372 0)
(0.0361962 -0.277693 0)
(0.0308582 -0.285504 0)
(0.0250774 -0.292758 0)
(0.0188894 -0.299424 0)
(0.0123316 -0.305478 0)
(0.00544201 -0.310907 0)
(-0.00173986 -0.315708 0)
(-0.00917685 -0.319883 0)
(-0.0168351 -0.32344 0)
(-0.0246819 -0.326396 0)
(-0.0326874 -0.328769 0)
(-0.040824 -0.330582 0)
(-0.0490659 -0.331861 0)
(-0.0573893 -0.332636 0)
(-0.065772 -0.332938 0)
(-0.0741935 -0.332801 0)
(-0.0826349 -0.332261 0)
(-0.0910789 -0.331353 0)
(-0.0995095 -0.330116 0)
(-0.107912 -0.328588 0)
(-0.116273 -0.326807 0)
(-0.124583 -0.324812 0)
(-0.13283 -0.322641 0)
(-0.141006 -0.320334 0)
(-0.149104 -0.317925 0)
(-0.157116 -0.315451 0)
(-0.165031 -0.312942 0)
(-0.172835 -0.310427 0)
(-0.180494 -0.307927 0)
(-0.187942 -0.305455 0)
(-0.19509 -0.303011 0)
(-0.201825 -0.300586 0)
(-0.207868 -0.298143 0)
(-0.212619 -0.295606 0)
(-0.215006 -0.292843 0)
(-0.213962 -0.289634 0)
(-0.20946 -0.285835 0)
(-0.202498 -0.281377 0)
(-0.194061 -0.276197 0)
(-0.184724 -0.270238 0)
(-0.174795 -0.263455 0)
(-0.164458 -0.255826 0)
(-0.153835 -0.247354 0)
(-0.143019 -0.238069 0)
(-0.132093 -0.228034 0)
(-0.121137 -0.217351 0)
(-0.110268 -0.206166 0)
(-0.0997156 -0.194687 0)
(-0.0898638 -0.183197 0)
(-0.0812204 -0.172045 0)
(-0.0743237 -0.161606 0)
(-0.0695756 -0.152194 0)
(-0.0670727 -0.143951 0)
(-0.0665701 -0.136773 0)
(-0.0676129 -0.130364 0)
(-0.0697033 -0.12437 0)
(-0.0724018 -0.118497 0)
(-0.0753702 -0.112554 0)
(-0.0783795 -0.106439 0)
(-0.0812921 -0.100113 0)
(-0.0840339 -0.093567 0)
(-0.0865685 -0.0868115 0)
(-0.0888804 -0.0798616 0)
(-0.0909648 -0.0727373 0)
(-0.0928219 -0.06546 0)
(-0.0944545 -0.0580506 0)
(-0.095867 -0.0505287 0)
(-0.0970647 -0.0429123 0)
(-0.0980533 -0.0352174 0)
(-0.0988375 -0.0274586 0)
(-0.0994187 -0.019649 0)
(-0.0997969 -0.0118016 0)
(-0.0999887 -0.00393128 0)
(0.0999807 -0.00564553 0)
(0.0996938 -0.0168656 0)
(0.0991266 -0.0279915 0)
(0.0982626 -0.0389977 0)
(0.0971128 -0.0498573 0)
(0.095687 -0.0605436 0)
(0.093994 -0.0710313 0)
(0.0920463 -0.0812971 0)
(0.0898629 -0.0913212 0)
(0.0874705 -0.10109 0)
(0.0849057 -0.110597 0)
(0.0822163 -0.11985 0)
(0.0794611 -0.128868 0)
(0.0767077 -0.13769 0)
(0.0740268 -0.146374 0)
(0.0714823 -0.154989 0)
(0.0691183 -0.163614 0)
(0.0669458 -0.172318 0)
(0.0649338 -0.18115 0)
(0.0630083 -0.190125 0)
(0.061062 -0.199225 0)
(0.058971 -0.208396 0)
(0.0566146 -0.217566 0)
(0.0538909 -0.226647 0)
(0.0507252 -0.235552 0)
(0.0470725 -0.244197 0)
(0.0429132 -0.252507 0)
(0.038249 -0.260418 0)
(0.033097 -0.267876 0)
(0.027484 -0.274839 0)
(0.0214422 -0.281274 0)
(0.0150065 -0.287159 0)
(0.00821235 -0.292479 0)
(0.00109568 -0.297228 0)
(-0.00630726 -0.301407 0)
(-0.0139635 -0.30502 0)
(-0.0218433 -0.308081 0)
(-0.0299178 -0.310604 0)
(-0.0381607 -0.312608 0)
(-0.0465473 -0.314116 0)
(-0.055055 -0.315152 0)
(-0.0636623 -0.315745 0)
(-0.07235 -0.315921 0)
(-0.0810998 -0.315713 0)
(-0.089895 -0.31515 0)
(-0.09872 -0.314266 0)
(-0.107561 -0.313092 0)
(-0.116406 -0.31166 0)
(-0.125243 -0.310004 0)
(-0.134062 -0.308155 0)
(-0.142855 -0.306142 0)
(-0.151612 -0.303994 0)
(-0.160322 -0.301737 0)
(-0.16897 -0.299393 0)
(-0.177534 -0.296981 0)
(-0.18597 -0.294512 0)
(-0.194192 -0.29199 0)
(-0.202094 -0.289407 0)
(-0.209524 -0.286747 0)
(-0.216141 -0.283969 0)
(-0.221241 -0.281005 0)
(-0.223612 -0.277726 0)
(-0.222191 -0.273945 0)
(-0.217154 -0.269547 0)
(-0.209617 -0.26451 0)
(-0.20056 -0.258811 0)
(-0.190548 -0.252421 0)
(-0.179899 -0.245321 0)
(-0.168814 -0.237508 0)
(-0.157433 -0.229 0)
(-0.145868 -0.219843 0)
(-0.134222 -0.210111 0)
(-0.122595 -0.199912 0)
(-0.111136 -0.189392 0)
(-0.100118 -0.178755 0)
(-0.0899561 -0.168258 0)
(-0.0811679 -0.158206 0)
(-0.074266 -0.148905 0)
(-0.0695911 -0.140583 0)
(-0.0671663 -0.133299 0)
(-0.0666973 -0.126908 0)
(-0.067716 -0.121129 0)
(-0.0697356 -0.115656 0)
(-0.0723377 -0.11025 0)
(-0.0752061 -0.104756 0)
(-0.0781286 -0.0990957 0)
(-0.0809775 -0.0932364 0)
(-0.0836819 -0.0871728 0)
(-0.0862041 -0.0809133 0)
(-0.0885243 -0.074472 0)
(-0.0906329 -0.0678658 0)
(-0.0925258 -0.0611119 0)
(-0.0942017 -0.0542274 0)
(-0.0956617 -0.0472287 0)
(-0.0969077 -0.0401317 0)
(-0.0979423 -0.0329512 0)
(-0.0987672 -0.0257016 0)
(-0.0993815 -0.0183967 0)
(-0.0997829 -0.0110509 0)
(-0.0999874 -0.00368118 0)
(0.0999816 -0.00527178 0)
(0.0996934 -0.0157498 0)
(0.099122 -0.026138 0)
(0.0982512 -0.0364102 0)
(0.0970936 -0.0465394 0)
(0.0956607 -0.0564996 0)
(0.0939632 -0.0662662 0)
(0.0920151 -0.075817 0)
(0.0898369 -0.0851337 0)
(0.0874563 -0.094204 0)
(0.0849107 -0.103023 0)
(0.0822481 -0.111599 0)
(0.0795273 -0.119952 0)
(0.0768155 -0.128121 0)
(0.0741831 -0.13616 0)
(0.0716938 -0.144139 0)
(0.0693923 -0.152132 0)
(0.0672906 -0.160207 0)
(0.0653596 -0.168413 0)
(0.0635274 -0.176766 0)
(0.0616877 -0.185251 0)
(0.0597172 -0.19382 0)
(0.0574939 -0.202406 0)
(0.0549133 -0.21093 0)
(0.0518974 -0.21931 0)
(0.048397 -0.227468 0)
(0.044389 -0.235335 0)
(0.0398712 -0.242848 0)
(0.0348564 -0.249958 0)
(0.0293678 -0.256625 0)
(0.0234344 -0.262816 0)
(0.0170881 -0.268509 0)
(0.0103614 -0.273689 0)
(0.0032858 -0.278349 0)
(-0.00410061 -0.282488 0)
(-0.0117668 -0.286109 0)
(-0.0196885 -0.289222 0)
(-0.0278372 -0.291838 0)
(-0.0361875 -0.293974 0)
(-0.0447161 -0.295647 0)
(-0.0534015 -0.29688 0)
(-0.0622236 -0.297695 0)
(-0.0711636 -0.298116 0)
(-0.0802037 -0.298169 0)
(-0.0893277 -0.29788 0)
(-0.0985203 -0.297276 0)
(-0.107768 -0.296384 0)
(-0.117057 -0.295231 0)
(-0.126376 -0.293842 0)
(-0.135713 -0.292244 0)
(-0.145057 -0.29046 0)
(-0.154395 -0.288511 0)
(-0.163711 -0.286417 0)
(-0.172986 -0.284194 0)
(-0.182186 -0.281854 0)
(-0.191254 -0.279402 0)
(-0.200088 -0.276838 0)
(-0.208561 -0.27415 0)
(-0.21649 -0.271318 0)
(-0.223482 -0.268308 0)
(-0.228732 -0.265051 0)
(-0.230904 -0.261428 0)
(-0.228978 -0.25727 0)
(-0.223348 -0.252496 0)
(-0.215239 -0.247114 0)
(-0.205605 -0.241128 0)
(-0.194991 -0.234531 0)
(-0.183717 -0.227321 0)
(-0.171994 -0.219511 0)
(-0.159978 -0.211131 0)
(-0.1478 -0.202232 0)
(-0.135579 -0.192891 0)
(-0.123437 -0.183212 0)
(-0.111553 -0.173336 0)
(-0.100237 -0.163448 0)
(-0.0899285 -0.153781 0)
(-0.0811482 -0.144604 0)
(-0.0743762 -0.13618 0)
(-0.0698885 -0.12869 0)
(-0.0676359 -0.122162 0)
(-0.0672767 -0.11644 0)
(-0.0683305 -0.111255 0)
(-0.0703213 -0.106331 0)
(-0.0728508 -0.101451 0)
(-0.0756243 -0.0964795 0)
(-0.0784469 -0.0913456 0)
(-0.0812022 -0.0860199 0)
(-0.0838255 -0.0804963 0)
(-0.0862817 -0.074781 0)
(-0.0885518 -0.0688861 0)
(-0.0906255 -0.062826 0)
(-0.0924968 -0.0566166 0)
(-0.0941627 -0.0502737 0)
(-0.0956213 -0.0438129 0)
(-0.0968721 -0.0372498 0)
(-0.0979151 -0.0305991 0)
(-0.0987496 -0.0238756 0)
(-0.0993726 -0.0170939 0)
(-0.0997801 -0.0102696 0)
(-0.0999875 -0.00342083 0)
(0.0999811 -0.00489858 0)
(0.0996909 -0.0146351 0)
(0.0991163 -0.0242879 0)
(0.0982417 -0.0338318 0)
(0.0970804 -0.0432414 0)
(0.0956446 -0.0524921 0)
(0.093946 -0.0615609 0)
(0.0919998 -0.0704275 0)
(0.0898271 -0.0790753 0)
(0.0874568 -0.0874929 0)
(0.0849269 -0.0956769 0)
(0.0822858 -0.103634 0)
(0.0795927 -0.111384 0)
(0.0769149 -0.118963 0)
(0.0743227 -0.12642 0)
(0.07188 -0.133821 0)
(0.0696317 -0.141233 0)
(0.0675908 -0.14872 0)
(0.0657289 -0.156329 0)
(0.0639751 -0.164078 0)
(0.062224 -0.171955 0)
(0.0603517 -0.179919 0)
(0.0582351 -0.187911 0)
(0.0557678 -0.195857 0)
(0.0528691 -0.203686 0)
(0.0494866 -0.211324 0)
(0.0455937 -0.218707 0)
(0.0411854 -0.225778 0)
(0.0362717 -0.232491 0)
(0.0308727 -0.238807 0)
(0.0250149 -0.244696 0)
(0.0187277 -0.250135 0)
(0.0120417 -0.255111 0)
(0.00498736 -0.259614 0)
(-0.00240219 -0.26364 0)
(-0.0100973 -0.267195 0)
(-0.0180724 -0.270283 0)
(-0.0263019 -0.272915 0)
(-0.0347617 -0.275103 0)
(-0.0434299 -0.276862 0)
(-0.0522858 -0.27821 0)
(-0.0613101 -0.279166 0)
(-0.0704842 -0.279751 0)
(-0.0797909 -0.279985 0)
(-0.0892139 -0.27989 0)
(-0.098738 -0.279489 0)
(-0.108349 -0.278804 0)
(-0.118031 -0.277856 0)
(-0.127773 -0.276668 0)
(-0.137559 -0.275259 0)
(-0.147376 -0.273647 0)
(-0.157206 -0.271851 0)
(-0.167029 -0.269883 0)
(-0.176818 -0.267757 0)
(-0.186532 -0.26548 0)
(-0.196099 -0.263055 0)
(-0.205401 -0.260478 0)
(-0.214295 -0.257737 0)
(-0.222571 -0.254815 0)
(-0.229782 -0.251676 0)
(-0.23503 -0.248253 0)
(-0.236879 -0.244426 0)
(-0.23439 -0.240058 0)
(-0.228177 -0.235107 0)
(-0.219544 -0.229598 0)
(-0.209409 -0.223545 0)
(-0.198289 -0.216954 0)
(-0.186502 -0.209836 0)
(-0.174266 -0.202215 0)
(-0.16175 -0.194128 0)
(-0.1491 -0.18563 0)
(-0.136445 -0.176799 0)
(-0.123925 -0.167734 0)
(-0.111748 -0.158568 0)
(-0.100247 -0.149471 0)
(-0.0898808 -0.140654 0)
(-0.0811629 -0.132354 0)
(-0.0745391 -0.124789 0)
(-0.0702271 -0.118095 0)
(-0.0681198 -0.11226 0)
(-0.0678444 -0.107118 0)
(-0.0689181 -0.102421 0)
(-0.0708777 -0.0979254 0)
(-0.0733434 -0.0934487 0)
(-0.0760379 -0.0888788 0)
(-0.0787793 -0.0841571 0)
(-0.0814595 -0.0792596 0)
(-0.0840174 -0.0741814 0)
(-0.0864193 -0.0689277 0)
(-0.0886461 -0.0635085 0)
(-0.0906864 -0.0579361 0)
(-0.0925333 -0.0522237 0)
(-0.0941822 -0.0463853 0)
(-0.0956299 -0.0404346 0)
(-0.0968745 -0.0343854 0)
(-0.0979145 -0.0282517 0)
(-0.0987483 -0.0220473 0)
(-0.0993715 -0.0157865 0)
(-0.0997796 -0.00948441 0)
(-0.0999874 -0.00315908 0)
(0.0999813 -0.00452419 0)
(0.0996921 -0.0135172 0)
(0.0991193 -0.0224328 0)
(0.0982474 -0.0312473 0)
(0.09709 -0.0399366 0)
(0.09566 -0.0484778 0)
(0.0939695 -0.0568496 0)
(0.092034 -0.0650329 0)
(0.0898753 -0.0730126 0)
(0.0875223 -0.0807784 0)
(0.0850131 -0.0883273 0)
(0.0823962 -0.0956659 0)
(0.0797301 -0.102813 0)
(0.0770821 -0.109801 0)
(0.0745222 -0.116679 0)
(0.0721143 -0.123504 0)
(0.0699037 -0.130342 0)
(0.0679044 -0.137252 0)
(0.0660896 -0.144279 0)
(0.0643896 -0.15144 0)
(0.0626999 -0.158726 0)
(0.0608971 -0.166102 0)
(0.0588571 -0.173512 0)
(0.0564717 -0.180892 0)
(0.053658 -0.188174 0)
(0.0503613 -0.195291 0)
(0.0465525 -0.202185 0)
(0.0422234 -0.208803 0)
(0.0373815 -0.215102 0)
(0.0320446 -0.221044 0)
(0.0262369 -0.226602 0)
(0.0199859 -0.231755 0)
(0.0133203 -0.236487 0)
(0.00626925 -0.24079 0)
(-0.00113709 -0.244661 0)
(-0.00887028 -0.248099 0)
(-0.016905 -0.251111 0)
(-0.0252172 -0.253703 0)
(-0.0337841 -0.255886 0)
(-0.0425847 -0.257672 0)
(-0.0515988 -0.259076 0)
(-0.0608075 -0.260113 0)
(-0.0701925 -0.2608 0)
(-0.0797368 -0.261156 0)
(-0.0894239 -0.261197 0)
(-0.0992378 -0.260942 0)
(-0.109163 -0.26041 0)
(-0.119183 -0.259618 0)
(-0.129284 -0.258584 0)
(-0.139448 -0.257324 0)
(-0.149658 -0.255852 0)
(-0.159893 -0.254182 0)
(-0.170128 -0.252326 0)
(-0.18033 -0.250291 0)
(-0.190449 -0.248085 0)
(-0.200401 -0.245708 0)
(-0.210053 -0.243155 0)
(-0.219251 -0.240415 0)
(-0.227754 -0.237473 0)
(-0.235058 -0.234292 0)
(-0.24017 -0.230803 0)
(-0.241613 -0.226891 0)
(-0.238585 -0.222456 0)
(-0.231863 -0.217494 0)
(-0.22278 -0.21203 0)
(-0.212219 -0.206078 0)
(-0.200678 -0.199653 0)
(-0.188473 -0.192772 0)
(-0.175828 -0.185466 0)
(-0.16292 -0.177776 0)
(-0.149906 -0.169757 0)
(-0.136926 -0.161485 0)
(-0.124132 -0.153054 0)
(-0.111755 -0.144585 0)
(-0.100153 -0.136234 0)
(-0.0897942 -0.128192 0)
(-0.0811854 -0.120665 0)
(-0.0747393 -0.113843 0)
(-0.0706209 -0.107827 0)
(-0.0686736 -0.102586 0)
(-0.0684975 -0.0979571 0)
(-0.0696077 -0.0937093 0)
(-0.071552 -0.0896263 0)
(-0.0739665 -0.085549 0)
(-0.0765897 -0.0813805 0)
(-0.0792525 -0.0770706 0)
(-0.0818548 -0.0725987 0)
(-0.0843404 -0.0679606 0)
(-0.0866778 -0.0631605 0)
(-0.0888486 -0.0582071 0)
(-0.0908416 -0.0531112 0)
(-0.0926495 -0.0478847 0)
(-0.0942668 -0.0425397 0)
(-0.0956895 -0.037089 0)
(-0.0969147 -0.0315453 0)
(-0.0979401 -0.0259216 0)
(-0.0987632 -0.0202308 0)
(-0.0993789 -0.0144865 0)
(-0.0997823 -0.00870343 0)
(-0.0999877 -0.00289875 0)
(0.0999813 -0.0041518 0)
(0.0996934 -0.0124051 0)
(0.0991233 -0.0205877 0)
(0.0982556 -0.0286775 0)
(0.097104 -0.0366525 0)
(0.0956817 -0.0444915 0)
(0.0940008 -0.0521748 0)
(0.0920772 -0.0596853 0)
(0.0899326 -0.067009 0)
(0.0875962 -0.0741366 0)
(0.085106 -0.0810656 0)
(0.0825102 -0.087802 0)
(0.0798673 -0.0943632 0)
(0.0772443 -0.100779 0)
(0.074711 -0.107093 0)
(0.0723314 -0.11336 0)
(0.0701513 -0.119639 0)
(0.0681854 -0.125985 0)
(0.0664079 -0.13244 0)
(0.0647501 -0.139021 0)
(0.0631083 -0.145722 0)
(0.0613588 -0.15251 0)
(0.0593771 -0.159337 0)
(0.0570537 -0.166145 0)
(0.0543035 -0.17287 0)
(0.0510698 -0.179454 0)
(0.0473214 -0.185842 0)
(0.0430482 -0.191986 0)
(0.0382555 -0.197845 0)
(0.0329592 -0.203385 0)
(0.0271817 -0.208581 0)
(0.0209489 -0.213411 0)
(0.0142881 -0.217862 0)
(0.00722702 -0.221925 0)
(-0.000205908 -0.225595 0)
(-0.00798322 -0.228872 0)
(-0.0160803 -0.231759 0)
(-0.0244741 -0.234262 0)
(-0.0331429 -0.23639 0)
(-0.042066 -0.238152 0)
(-0.0512238 -0.23956 0)
(-0.0605973 -0.240626 0)
(-0.0701687 -0.241366 0)
(-0.0799207 -0.241793 0)
(-0.089836 -0.241923 0)
(-0.0998978 -0.24177 0)
(-0.110089 -0.241349 0)
(-0.120394 -0.240675 0)
(-0.130793 -0.239763 0)
(-0.141268 -0.238624 0)
(-0.1518 -0.237271 0)
(-0.162362 -0.235715 0)
(-0.172926 -0.233964 0)
(-0.183453 -0.232026 0)
(-0.193886 -0.229905 0)
(-0.204128 -0.227601 0)
(-0.214037 -0.225109 0)
(-0.223446 -0.222419 0)
(-0.232087 -0.219517 0)
(-0.239395 -0.216368 0)
(-0.244291 -0.212909 0)
(-0.245312 -0.20903 0)
(-0.241807 -0.204665 0)
(-0.234663 -0.199827 0)
(-0.225203 -0.194538 0)
(-0.214285 -0.188814 0)
(-0.202397 -0.182673 0)
(-0.189854 -0.176139 0)
(-0.176885 -0.169244 0)
(-0.163675 -0.162029 0)
(-0.150385 -0.154552 0)
(-0.137163 -0.146883 0)
(-0.124174 -0.139109 0)
(-0.111667 -0.131343 0)
(-0.100019 -0.123727 0)
(-0.089706 -0.116432 0)
(-0.0812238 -0.109642 0)
(-0.0749541 -0.103514 0)
(-0.0710156 -0.0981255 0)
(-0.0692105 -0.0934286 0)
(-0.0691205 -0.0892631 0)
(-0.0702612 -0.0854195 0)
(-0.0721918 -0.0817072 0)
(-0.0745624 -0.0779898 0)
(-0.077125 -0.0741854 0)
(-0.0797206 -0.0702517 0)
(-0.0822556 -0.0661717 0)
(-0.0846775 -0.061942 0)
(-0.0869564 -0.0575663 0)
(-0.089075 -0.0530522 0)
(-0.091022 -0.0484089 0)
(-0.0927901 -0.0436468 0)
(-0.0943734 -0.0387766 0)
(-0.0957677 -0.0338097 0)
(-0.0969695 -0.0287574 0)
(-0.0979761 -0.0236314 0)
(-0.0987846 -0.0184437 0)
(-0.0993896 -0.0132069 0)
(-0.099786 -0.0079344 0)
(-0.0999879 -0.00264243 0)
(0.0999815 -0.00378146 0)
(0.0996955 -0.011299 0)
(0.0991288 -0.0187525 0)
(0.0982666 -0.0261218 0)
(0.0971223 -0.0333866 0)
(0.095709 -0.0405278 0)
(0.094039 -0.0475274 0)
(0.0921283 -0.0543698 0)
(0.0899985 -0.0610423 0)
(0.0876786 -0.0675366 0)
(0.0852065 -0.0738504 0)
(0.08263 -0.0799894 0)
(0.0800075 -0.0859691 0)
(0.0774055 -0.0918172 0)
(0.0748937 -0.097573 0)
(0.0725362 -0.103286 0)
(0.0703791 -0.109012 0)
(0.0684379 -0.1148 0)
(0.0666877 -0.120689 0)
(0.0650609 -0.126696 0)
(0.0634541 -0.132816 0)
(0.0617438 -0.139021 0)
(0.0598049 -0.145267 0)
(0.0575266 -0.1515 0)
(0.0548227 -0.157666 0)
(0.0516346 -0.16371 0)
(0.0479292 -0.169581 0)
(0.0436945 -0.175237 0)
(0.0389343 -0.180639 0)
(0.033663 -0.185757 0)
(0.0279016 -0.190566 0)
(0.0216747 -0.195048 0)
(0.0150083 -0.199188 0)
(0.00792911 -0.202979 0)
(0.000464341 -0.206414 0)
(-0.00735929 -0.209493 0)
(-0.0155178 -0.212219 0)
(-0.0239889 -0.214594 0)
(-0.0327515 -0.216627 0)
(-0.0417851 -0.218324 0)
(-0.0510703 -0.219696 0)
(-0.0605885 -0.220753 0)
(-0.0703214 -0.221507 0)
(-0.0802514 -0.221969 0)
(-0.0903605 -0.222151 0)
(-0.100631 -0.222067 0)
(-0.111045 -0.221728 0)
(-0.121584 -0.221147 0)
(-0.132228 -0.220334 0)
(-0.142957 -0.219301 0)
(-0.153747 -0.218057 0)
(-0.16457 -0.216611 0)
(-0.175393 -0.21497 0)
(-0.186173 -0.21314 0)
(-0.196846 -0.211124 0)
(-0.207304 -0.208922 0)
(-0.217396 -0.206528 0)
(-0.226947 -0.203935 0)
(-0.235664 -0.20113 0)
(-0.242929 -0.198081 0)
(-0.247575 -0.194744 0)
(-0.248196 -0.191 0)
(-0.244273 -0.186809 0)
(-0.236772 -0.182192 0)
(-0.226996 -0.17717 0)
(-0.215781 -0.171763 0)
(-0.20361 -0.16599 0)
(-0.190797 -0.159876 0)
(-0.177574 -0.153455 0)
(-0.164129 -0.146769 0)
(-0.15063 -0.13987 0)
(-0.13723 -0.132826 0)
(-0.124102 -0.125716 0)
(-0.111514 -0.118643 0)
(-0.0998564 -0.111737 0)
(-0.0896106 -0.105151 0)
(-0.0812629 -0.0990456 0)
(-0.0751656 -0.0935562 0)
(-0.0713969 -0.0887388 0)
(-0.069725 -0.0845377 0)
(-0.0697166 -0.0808002 0)
(-0.0708889 -0.0773368 0)
(-0.0728107 -0.07398 0)
(-0.0751447 -0.0706119 0)
(-0.0776545 -0.0671624 0)
(-0.0801899 -0.0635958 0)
(-0.0826635 -0.0598977 0)
(-0.0850258 -0.0560655 0)
(-0.087249 -0.0521024 0)
(-0.0893165 -0.0480152 0)
(-0.0912176 -0.0438118 0)
(-0.0929449 -0.0395014 0)
(-0.0944926 -0.0350935 0)
(-0.0958563 -0.0305982 0)
(-0.0970323 -0.0260256 0)
(-0.0980178 -0.0213864 0)
(-0.0988095 -0.0166913 0)
(-0.0994022 -0.0119518 0)
(-0.0997905 -0.00718009 0)
(-0.0999882 -0.00239106 0)
(0.0999816 -0.0034136 0)
(0.0996974 -0.0102002 0)
(0.0991344 -0.0169294 0)
(0.0982775 -0.0235828 0)
(0.0971404 -0.0301424 0)
(0.095736 -0.0365908 0)
(0.0940766 -0.0429118 0)
(0.092178 -0.0490915 0)
(0.0900617 -0.0551184 0)
(0.0877566 -0.060985 0)
(0.0853003 -0.0666894 0)
(0.0827406 -0.0722365 0)
(0.0801352 -0.0776406 0)
(0.0775505 -0.0829264 0)
(0.0750561 -0.0881295 0)
(0.0727161 -0.0932948 0)
(0.070577 -0.0984715 0)
(0.0686549 -0.103706 0)
(0.0669257 -0.109033 0)
(0.0653223 -0.114469 0)
(0.063742 -0.12001 0)
(0.0620612 -0.125631 0)
(0.0601543 -0.131293 0)
(0.0579094 -0.136949 0)
(0.0552391 -0.142548 0)
(0.0520833 -0.148042 0)
(0.0484075 -0.153385 0)
(0.0441985 -0.158539 0)
(0.0394586 -0.163468 0)
(0.0342011 -0.168145 0)
(0.0284459 -0.172547 0)
(0.0222164 -0.176656 0)
(0.0155378 -0.180461 0)
(0.00843594 -0.183952 0)
(0.000937188 -0.187124 0)
(-0.00693228 -0.189976 0)
(-0.0151489 -0.192508 0)
(-0.0236912 -0.194725 0)
(-0.0325381 -0.19663 0)
(-0.0416695 -0.198231 0)
(-0.0510659 -0.199535 0)
(-0.0607088 -0.200552 0)
(-0.0705796 -0.201289 0)
(-0.08066 -0.201757 0)
(-0.0909317 -0.201967 0)
(-0.101376 -0.201928 0)
(-0.111973 -0.201651 0)
(-0.122704 -0.201144 0)
(-0.133548 -0.200419 0)
(-0.14448 -0.199483 0)
(-0.155476 -0.198345 0)
(-0.166505 -0.197011 0)
(-0.177531 -0.195488 0)
(-0.188506 -0.193779 0)
(-0.199361 -0.191889 0)
(-0.20998 -0.189817 0)
(-0.220203 -0.187558 0)
(-0.229847 -0.185106 0)
(-0.238598 -0.182448 0)
(-0.245796 -0.179559 0)
(-0.250192 -0.176417 0)
(-0.250446 -0.172884 0)
(-0.246152 -0.168944 0)
(-0.238345 -0.16462 0)
(-0.228305 -0.159936 0)
(-0.216849 -0.154911 0)
(-0.204451 -0.149567 0)
(-0.191424 -0.143929 0)
(-0.178002 -0.13803 0)
(-0.164378 -0.13191 0)
(-0.150722 -0.125619 0)
(-0.13719 -0.119216 0)
(-0.123965 -0.112777 0)
(-0.11133 -0.106393 0)
(-0.0996855 -0.100181 0)
(-0.0895173 -0.0942789 0)
(-0.0813015 -0.0888277 0)
(-0.0753642 -0.083941 0)
(-0.0717483 -0.0796589 0)
(-0.0701942 -0.0759211 0)
(-0.0702574 -0.0725852 0)
(-0.0714577 -0.0694816 0)
(-0.0733726 -0.0664641 0)
(-0.0756757 -0.0634313 0)
(-0.0781405 -0.0603238 0)
(-0.0806243 -0.0571116 0)
(-0.0830444 -0.0537828 0)
(-0.0853544 -0.0503352 0)
(-0.0875279 -0.0467719 0)
(-0.0895491 -0.0430986 0)
(-0.0914079 -0.0393223 0)
(-0.093097 -0.0354511 0)
(-0.0946109 -0.0314934 0)
(-0.095945 -0.0274578 0)
(-0.0970956 -0.0233535 0)
(-0.09806 -0.0191898 0)
(-0.0988349 -0.0149764 0)
(-0.0994149 -0.0107233 0)
(-0.099795 -0.00644181 0)
(-0.0999884 -0.00214507 0)
(0.0999817 -0.00304809 0)
(0.0996993 -0.00910836 0)
(0.0991397 -0.0151176 0)
(0.0982879 -0.0210595 0)
(0.0971576 -0.0269181 0)
(0.0957614 -0.0326777 0)
(0.0941117 -0.0383242 0)
(0.0922241 -0.0438449 0)
(0.0901199 -0.0492298 0)
(0.0878279 -0.0544723 0)
(0.0853854 -0.0595704 0)
(0.0828398 -0.0645287 0)
(0.0802488 -0.0693599 0)
(0.0776783 -0.074086 0)
(0.0751978 -0.0787388 0)
(0.0728715 -0.0833583 0)
(0.0707462 -0.0879887 0)
(0.0688384 -0.0926717 0)
(0.0671247 -0.0974386 0)
(0.0655387 -0.102305 0)
(0.0639779 -0.107267 0)
(0.0623189 -0.112303 0)
(0.0604354 -0.11738 0)
(0.0582149 -0.122454 0)
(0.0555688 -0.127481 0)
(0.0524357 -0.132418 0)
(0.0487801 -0.137224 0)
(0.0445875 -0.141863 0)
(0.0398594 -0.146306 0)
(0.034608 -0.150526 0)
(0.0288523 -0.154504 0)
(0.022615 -0.158223 0)
(0.0159207 -0.161671 0)
(0.00879451 -0.16484 0)
(0.00126208 -0.167726 0)
(-0.00665071 -0.170327 0)
(-0.0149207 -0.172642 0)
(-0.0235266 -0.174674 0)
(-0.0324478 -0.176428 0)
(-0.0416641 -0.177908 0)
(-0.0511561 -0.17912 0)
(-0.060905 -0.180071 0)
(-0.0708919 -0.18077 0)
(-0.0810981 -0.181224 0)
(-0.0915045 -0.181441 0)
(-0.102092 -0.181431 0)
(-0.112839 -0.181201 0)
(-0.123726 -0.180759 0)
(-0.134729 -0.180113 0)
(-0.145824 -0.179271 0)
(-0.156984 -0.178238 0)
(-0.168174 -0.177022 0)
(-0.179358 -0.175627 0)
(-0.190483 -0.174056 0)
(-0.201477 -0.172312 0)
(-0.212214 -0.170395 0)
(-0.222529 -0.168301 0)
(-0.232234 -0.166025 0)
(-0.240996 -0.163559 0)
(-0.248119 -0.160879 0)
(-0.252275 -0.157987 0)
(-0.252199 -0.15472 0)
(-0.247578 -0.151087 0)
(-0.239509 -0.147112 0)
(-0.22925 -0.142819 0)
(-0.217598 -0.138228 0)
(-0.205019 -0.133359 0)
(-0.191824 -0.128238 0)
(-0.178249 -0.122896 0)
(-0.164488 -0.11737 0)
(-0.150713 -0.111705 0)
(-0.137084 -0.105956 0)
(-0.123793 -0.100189 0)
(-0.111133 -0.0944885 0)
(-0.0995145 -0.0889574 0)
(-0.0894265 -0.0837174 0)
(-0.0813352 -0.0788921 0)
(-0.0755433 -0.074577 0)
(-0.0720636 -0.0708 0)
(-0.0706136 -0.0675 0)
(-0.0707402 -0.0645468 0)
(-0.0719657 -0.0617901 0)
(-0.0738757 -0.0591031 0)
(-0.076153 -0.0563991 0)
(-0.0785795 -0.0536278 0)
(-0.0810188 -0.050764 0)
(-0.0833924 -0.0477977 0)
(-0.0856564 -0.0447273 0)
(-0.0877858 -0.0415556 0)
(-0.0897655 -0.0382875 0)
(-0.091586 -0.0349292 0)
(-0.0932401 -0.0314877 0)
(-0.0947226 -0.0279702 0)
(-0.0960291 -0.0243843 0)
(-0.097156 -0.0207382 0)
(-0.0981004 -0.0170398 0)
(-0.0988592 -0.0132978 0)