/*--------------------------------*- C++ -*----------------------------------*\
  =========                 |
  \\      /  F ield         | OpenFOAM: The Open Source CFD Toolbox
   \\    /   O peration     | Website:  https://openfoam.org
    \\  /    A nd           | Version:  8
     \\/     M anipulation  |
\*---------------------------------------------------------------------------*/
FoamFile
{
    version     2.0;
    format      ascii;
    class       volScalarField;
    location    "860/fluid";
    object      CH4;
}
// * * * * * * * * * * * * * * * * * * * * * * * * * * * * * * * * * * * * * //

dimensions      [0 0 0 0 0 0 0];

internalField   nonuniform List<scalar> 
4000
(
0.999997
0.999986
0.999968
0.999938
0.999888
0.999804
0.999667
0.999442
0.999078
0.998496
0.997578
0.996155
0.993992
0.990776
0.98612
0.979576
0.970678
0.958997
0.944206
0.926128
0.904758
0.880251
0.852886
0.82303
0.791096
0.757517
0.722723
0.687123
0.651101
0.615004
0.579144
0.54379
0.50917
0.475473
0.44285
0.411421
0.381275
0.352477
0.325062
0.299046
0.274429
0.251195
0.229314
0.208751
0.18946
0.171392
0.154495
0.138712
0.123989
0.11027
0.097499
0.0856241
0.0745943
0.0643621
0.0548837
0.0461194
0.0380345
0.0307018
0.0240674
0.0178583
0.0122621
0.00729041
0.00327562
0.00229748
0.00159086
0.00108555
0.000728551
0.000479886
0.000309539
0.000195115
0.00012007
7.23536e-05
4.33726e-05
2.73029e-05
1.98827e-05
1.52578e-05
1.13147e-05
7.95344e-06
5.24489e-06
3.22078e-06
1.83841e-06
9.80186e-07
4.92711e-07
2.37271e-07
1.10902e-07
5.06171e-08
2.26569e-08
9.97863e-09
4.33527e-09
1.86178e-09
7.91688e-10
3.33817e-10
1.39723e-10
5.80866e-11
2.3973e-11
9.79312e-12
3.9233e-12
1.5006e-12
5.01817e-13
8.80487e-14
0.999997
0.999986
0.999968
0.999938
0.999887
0.999804
0.999665
0.999439
0.999074
0.998491
0.997574
0.996156
0.994006
0.990822
0.986226
0.979783
0.971036
0.959563
0.94503
0.927249
0.906193
0.881993
0.854908
0.825287
0.793534
0.760076
0.725343
0.689749
0.653682
0.617501
0.581521
0.546021
0.511236
0.477363
0.444558
0.412944
0.382616
0.353641
0.326057
0.299882
0.275116
0.251744
0.229739
0.209062
0.18967
0.171511
0.154533
0.13868
0.123896
0.110123
0.0973067
0.0853931
0.0743309
0.064072
0.0545716
0.0457898
0.0376914
0.0303525
0.0237147
0.0175007
0.0119027
0.00693902
0.00322493
0.00225966
0.00156223
0.0010638
0.000712121
0.000467648
0.000300607
0.000188772
0.000115735
6.95646e-05
4.17807e-05
2.66748e-05
1.96978e-05
1.50228e-05
1.10213e-05
7.65764e-06
4.99232e-06
3.03663e-06
1.72383e-06
9.19042e-07
4.64436e-07
2.25331e-07
1.06256e-07
4.89396e-08
2.20938e-08
9.80317e-09
4.2848e-09
1.84851e-09
7.885e-10
3.33081e-10
1.39515e-10
5.79913e-11
2.39147e-11
9.75763e-12
3.90381e-12
1.49121e-12
4.98162e-13
8.74176e-14
0.999997
0.999986
0.999968
0.999938
0.999887
0.999803
0.999664
0.999437
0.999071
0.998488
0.997571
0.996157
0.994019
0.990858
0.986307
0.979939
0.971307
0.959995
0.945672
0.928145
0.907376
0.88348
0.856697
0.827359
0.795854
0.762598
0.728012
0.692509
0.656479
0.62028
0.584237
0.548632
0.513709
0.479671
0.446681
0.414869
0.384337
0.355153
0.327363
0.300988
0.27603
0.252476
0.230299
0.209465
0.189928
0.171637
0.15454
0.138582
0.123705
0.109851
0.0969647
0.0849909
0.0738777
0.0635763
0.0540413
0.0452321
0.0371132
0.0297685
0.0231276
0.0169172
0.0113375
0.00638377
0.00318462
0.00221941
0.00152638
0.00103395
0.000688456
0.000449628
0.000287396
0.000179466
0.000109486
6.56502e-05
3.96455e-05
2.59252e-05
1.94097e-05
1.46902e-05
1.06622e-05
7.32934e-06
4.73269e-06
2.8579e-06
1.61593e-06
8.6105e-07
4.36158e-07
2.12363e-07
1.00591e-07
4.65616e-08
2.11283e-08
9.42165e-09
4.13711e-09
1.79209e-09
7.67072e-10
3.24917e-10
1.36371e-10
5.67598e-11
2.34237e-11
9.55949e-12
3.82398e-12
1.46015e-12
4.8756e-13
8.55705e-14
0.999997
0.999986
0.999968
0.999938
0.999887
0.999803
0.999665
0.999439
0.999075
0.998495
0.997587
0.996187
0.994072
0.990949
0.986457
0.980174
0.97166
0.960501
0.946367
0.929057
0.908525
0.884875
0.858336
0.829226
0.797926
0.764841
0.730389
0.694978
0.658994
0.622799
0.586717
0.551036
0.516004
0.481829
0.44868
0.416692
0.385971
0.356592
0.328605
0.302034
0.276885
0.253147
0.230796
0.209798
0.190106
0.171676
0.154454
0.138383
0.123404
0.109462
0.0964987
0.0844591
0.0732905
0.0629434
0.0533717
0.0445343
0.0363951
0.0290561
0.0224286
0.0162261
0.0106444
0.00570875
0.00314537
0.00217801
0.00148796
0.00100114
0.000662089
0.000429482
0.000272688
0.000169206
0.000102693
6.14745e-05
3.74325e-05
2.51899e-05
1.90219e-05
1.42678e-05
1.02404e-05
6.9594e-06
4.44565e-06
2.66057e-06
1.49512e-06
7.94319e-07
4.02331e-07
1.96273e-07
9.32543e-08
4.33238e-08
1.97368e-08
8.83668e-09
3.89566e-09
1.69388e-09
7.27558e-10
3.09139e-10
1.30099e-10
5.4272e-11
2.24383e-11
9.17038e-12
3.67211e-12
1.40305e-12
4.68627e-13
8.23005e-14
0.999997
0.999986
0.999968
0.999938
0.999888
0.999804
0.999667
0.999442
0.999081
0.998505
0.997604
0.996217
0.994123
0.991035
0.986592
0.980383
0.97197
0.960941
0.946965
0.929839
0.909507
0.886065
0.85973
0.830813
0.799685
0.766745
0.732406
0.697073
0.661131
0.62494
0.588828
0.553084
0.517961
0.483669
0.450383
0.418241
0.387354
0.357803
0.329638
0.30289
0.277566
0.253659
0.231146
0.209992
0.190159
0.171599
0.154258
0.138079
0.123005
0.10898
0.0959441
0.0838436
0.0726246
0.0622368
0.0526335
0.0437724
0.035628
0.0283168
0.0216882
0.0154771
0.00991063
0.00503581
0.00310501
0.00212971
0.00144216
0.000962377
0.000631575
0.000406729
0.00025649
0.000158178
9.55504e-05
5.71599e-05
3.51992e-05
2.44819e-05
1.85228e-05
1.37687e-05
9.78655e-06
6.58802e-06
4.17237e-06
2.48024e-06
1.38796e-06
7.36248e-07
3.73159e-07
1.82411e-07
8.6901e-08
4.04911e-08
1.85007e-08
8.30645e-09
3.67135e-09
1.60005e-09
6.88656e-10
2.93125e-10
1.23543e-10
5.16003e-11
2.13546e-11
8.73409e-12
3.49921e-12
1.33733e-12
4.46692e-13
7.84914e-14
0.999997
0.999986
0.999968
0.999938
0.999888
0.999805
0.999669
0.999447
0.999088
0.998518
0.997626
0.996253
0.994182
0.991127
0.986735
0.980594
0.972271
0.961356
0.947515
0.930541
0.910372
0.887097
0.860924
0.832159
0.801165
0.768337
0.734084
0.698807
0.662893
0.626701
0.590558
0.554757
0.519552
0.485157
0.451751
0.419476
0.388445
0.358742
0.330423
0.30352
0.278043
0.253986
0.231327
0.21004
0.190083
0.171408
0.153961
0.137688
0.122531
0.108433
0.0953369
0.0831863
0.0719278
0.0615108
0.0518881
0.0430212
0.0348674
0.0275666
0.0209263
0.0147255
0.00917842
0.00436336
0.00298633
0.00202858
0.00136355
0.000904469
0.000590526
0.00037856
0.000237759
0.000146147
8.81468e-05
5.28813e-05
3.30434e-05
2.35543e-05
1.7866e-05
1.32061e-05
9.32487e-06
6.23398e-06
3.92202e-06
2.31842e-06
1.29232e-06
6.84066e-07
3.46521e-07
1.69536e-07
8.08875e-08
3.77589e-08
1.72875e-08
7.77808e-09
3.445e-09
1.50441e-09
6.48704e-10
2.76589e-10
1.16749e-10
4.88265e-11
2.02287e-11
8.2807e-12
3.31956e-12
1.26906e-12
4.23918e-13
7.45367e-14
0.999997
0.999986
0.999969
0.999939
0.999889
0.999807
0.999672
0.999451
0.999096
0.998531
0.997648
0.996288
0.994238
0.991214
0.986865
0.980784
0.97254
0.961723
0.947997
0.93115
0.911117
0.887977
0.861936
0.83329
0.8024
0.769657
0.735466
0.700229
0.664328
0.628125
0.591948
0.556091
0.520811
0.486324
0.452812
0.420419
0.389262
0.359428
0.330975
0.303937
0.278327
0.25414
0.231362
0.209962
0.189898
0.171123
0.153588
0.137236
0.12201
0.107853
0.0947077
0.0825187
0.0712324
0.0607989
0.0511724
0.0423075
0.0341625
0.0269408
0.0201563
0.0140172
0.00852431
0.00377221
0.00263603
0.00181533
0.00123118
0.000821333
0.000538078
0.000345544
0.000217153
0.000133483
8.05579e-05
4.85488e-05
3.0824e-05
2.25327e-05
1.71869e-05
1.26898e-05
8.9311e-06
5.94319e-06
3.72027e-06
2.18926e-06
1.21625e-06
6.42522e-07
3.25203e-07
1.59146e-07
7.59818e-08
3.5501e-08
1.62704e-08
7.32841e-09
3.24938e-09
1.42051e-09
6.13158e-10
2.61686e-10
1.10557e-10
4.6273e-11
1.91836e-11
7.85705e-12
3.1508e-12
1.20468e-12
4.02385e-13
7.07964e-14
0.999997
0.999986
0.999969
0.999939
0.99989
0.999809
0.999674
0.999456
0.999104
0.998544
0.997669
0.996322
0.99429
0.991294
0.986985
0.980957
0.972782
0.962047
0.948418
0.931677
0.911754
0.888724
0.862786
0.834234
0.803423
0.770742
0.736594
0.70138
0.665482
0.629261
0.593047
0.557136
0.521785
0.487215
0.453608
0.421112
0.389845
0.359898
0.33133
0.304176
0.278453
0.254161
0.231281
0.209783
0.18963
0.170774
0.153165
0.136748
0.121467
0.107263
0.0940792
0.08186
0.0705513
0.0601021
0.050465
0.0415965
0.0334993
0.0263069
0.0195523
0.0134742
0.00807871
0.00347966
0.00242772
0.00167229
0.00113539
0.000758484
0.000497669
0.000320148
0.000201632
0.000124347
7.54886e-05
4.60191e-05
2.98938e-05
2.21754e-05
1.68756e-05
1.23957e-05
8.67458e-06
5.73977e-06
3.57297e-06
2.0921e-06
1.15765e-06
6.0982e-07
3.08076e-07
1.50655e-07
7.19077e-08
3.35987e-08
1.54026e-08
6.94042e-09
3.07898e-09
1.34683e-09
5.81728e-10
2.48434e-10
1.05024e-10
4.39833e-11
1.82438e-11
7.47515e-12
2.9984e-12
1.14647e-12
3.82895e-13
6.7418e-14
0.999997
0.999987
0.999969
0.99994
0.999891
0.99981
0.999677
0.99946
0.999111
0.998556
0.997688
0.996352
0.994338
0.991366
0.987091
0.981109
0.972992
0.962328
0.948779
0.932126
0.912293
0.889351
0.863496
0.835016
0.804264
0.771627
0.737508
0.702304
0.6664
0.630157
0.593905
0.557941
0.522525
0.487879
0.454188
0.421601
0.39024
0.360195
0.331527
0.304276
0.278461
0.254079
0.231113
0.209536
0.189309
0.170387
0.152719
0.136251
0.120926
0.106686
0.0934746
0.0812349
0.0699134
0.0594594
0.0498262
0.0409725
0.032915
0.0257442
0.01902
0.0129861
0.00765174
0.00330166
0.00230222
0.00158471
0.00107508
0.000717561
0.00047032
0.000302175
0.000190066
0.000117126
7.12067e-05
4.37629e-05
2.90679e-05
2.19392e-05
1.67225e-05
1.22555e-05
8.53771e-06
5.61554e-06
3.47482e-06
2.02364e-06
1.11475e-06
5.85205e-07
2.94896e-07
1.44006e-07
6.8669e-08
3.20656e-08
1.46945e-08
6.62029e-09
2.93696e-09
1.28486e-09
5.55087e-10
2.37124e-10
1.00275e-10
4.20082e-11
1.74298e-11
7.14335e-12
2.86572e-12
1.09569e-12
3.65888e-13
6.44725e-14
0.999997
0.999987
0.999969
0.99994
0.999892
0.999811
0.999679
0.999464
0.999117
0.998567
0.997705
0.99638
0.99438
0.99143
0.987184
0.981242
0.973174
0.962569
0.949087
0.932506
0.912747
0.889875
0.864084
0.835659
0.804951
0.772345
0.738242
0.70304
0.667124
0.630855
0.594565
0.558551
0.523076
0.488362
0.454597
0.421931
0.390487
0.360358
0.331607
0.304277
0.278383
0.253925
0.230889
0.209247
0.18896
0.169985
0.152271
0.135763
0.120405
0.106138
0.0929061
0.0806522
0.0693225
0.0588658
0.0492353
0.0403885
0.032358
0.0252067
0.0184975
0.0124743
0.00714115
0.00322129
0.00224307
0.00154252
0.00104589
0.000698002
0.000457657
0.000294286
0.00018537
0.000114499
6.9905e-05
4.33325e-05
2.92439e-05
2.21742e-05
1.68255e-05
1.2264e-05
8.49853e-06
5.55785e-06
3.41665e-06
1.9781e-06
1.08434e-06
5.67019e-07
2.84866e-07
1.38842e-07
6.61115e-08
3.08384e-08
1.41211e-08
6.35855e-09
2.81989e-09
1.23343e-09
5.32844e-10
2.27635e-10
9.62747e-11
4.03388e-11
1.67399e-11
6.86154e-12
2.75305e-12
1.05262e-12
3.51432e-13
6.1968e-14
0.999997
0.999987
0.999969
0.999941
0.999892
0.999813
0.999681
0.999467
0.999123
0.998576
0.99772
0.996403
0.994417
0.991485
0.987264
0.981355
0.973328
0.962773
0.949347
0.932825
0.913124
0.890309
0.864568
0.836184
0.805507
0.772922
0.738827
0.703622
0.66769
0.631394
0.595066
0.559006
0.523477
0.488703
0.454873
0.422138
0.390624
0.360424
0.331605
0.304206
0.278247
0.253728
0.230634
0.208939
0.188605
0.169588
0.151837
0.135299
0.119915
0.105629
0.092383
0.0801199
0.0687857
0.0583289
0.0487019
0.0398626
0.0318504
0.0247174
0.01802
0.0120126
0.00669842
0.0031888
0.00221746
0.0015231
0.00103163
0.000687853
0.000450678
0.000289674
0.000182486
0.000112861
6.91448e-05
4.32189e-05
2.96762e-05
2.26159e-05
1.70985e-05
1.23968e-05
8.53733e-06
5.54754e-06
3.3901e-06
1.95079e-06
1.06396e-06
5.54084e-07
2.77458e-07
1.34935e-07
6.41402e-08
2.98784e-08
1.36672e-08
6.14927e-09
2.7255e-09
1.19167e-09
5.14678e-10
2.19848e-10
9.29783e-11
3.89589e-11
1.61682e-11
6.62778e-12
2.65937e-12
1.01686e-12
3.394e-13
5.98914e-14
0.999997
0.999987
0.99997
0.999941
0.999893
0.999814
0.999683
0.99947
0.999128
0.998584
0.997733
0.996424
0.994448
0.991531
0.987332
0.981451
0.973459
0.962944
0.949564
0.933089
0.913436
0.890665
0.864962
0.83661
0.805955
0.773382
0.73929
0.704077
0.668127
0.631805
0.595442
0.55934
0.523763
0.488936
0.455049
0.422256
0.390682
0.360423
0.331546
0.304091
0.278078
0.253508
0.230367
0.20863
0.188259
0.169209
0.151431
0.134869
0.119467
0.105167
0.0919117
0.0796435
0.0683082
0.0578544
0.0482361
0.0394102
0.031411
0.0242873
0.0176043
0.0116119
0.00631211
0.00316683
0.00220366
0.00151468
0.00102672
0.00068515
0.000449304
0.000289082
0.000182346
0.00011299
6.94856e-05
4.37824e-05
3.05181e-05
2.32832e-05
1.75185e-05
1.26277e-05
8.6411e-06
5.57739e-06
3.38627e-06
1.93791e-06
1.0515e-06
5.45336e-07
2.72175e-07
1.32059e-07
6.26567e-08
2.91438e-08
1.33153e-08
5.98538e-09
2.65097e-09
1.15848e-09
5.00155e-10
2.13593e-10
9.03205e-11
3.78428e-11
1.57049e-11
6.43791e-12
2.58319e-12
9.87739e-13
3.29575e-13
5.82088e-14
0.999997
0.999987
0.99997
0.999941
0.999894
0.999815
0.999685
0.999473
0.999132
0.998591
0.997744
0.996441
0.994474
0.991571
0.987389
0.981531
0.973568
0.963086
0.949742
0.933306
0.913691
0.890954
0.865281
0.836952
0.806312
0.773746
0.739653
0.704429
0.668462
0.632114
0.59572
0.559581
0.523961
0.489088
0.455153
0.42231
0.390686
0.360378
0.331452
0.303951
0.277894
0.253283
0.230106
0.208335
0.187934
0.168859
0.151059
0.13448
0.119065
0.104756
0.0914953
0.0792251
0.0678922
0.0574452
0.0478341
0.0390118
0.0310265
0.0239182
0.0172496
0.0112718
0.0059862
0.00314842
0.00219402
0.00151016
0.00102508
0.000685024
0.000449911
0.000289974
0.000183295
0.000113907
7.03724e-05
4.47083e-05
3.15977e-05
2.40841e-05
1.80279e-05
1.29198e-05
8.78662e-06
5.63547e-06
3.4005e-06
1.93537e-06
1.04547e-06
5.40034e-07
2.68649e-07
1.30053e-07
6.15908e-08
2.86046e-08
1.30528e-08
5.8615e-09
2.59404e-09
1.1329e-09
4.88888e-10
2.08712e-10
8.82369e-11
3.69646e-11
1.53391e-11
6.28768e-12
2.52284e-12
9.6462e-13
3.21761e-13
5.68772e-14
0.999997
0.999987
0.99997
0.999941
0.999894
0.999815
0.999686
0.999475
0.999136
0.998597
0.997754
0.996456
0.994497
0.991604
0.987437
0.981597
0.973657
0.963203
0.949888
0.933483
0.913897
0.891187
0.865536
0.837224
0.806594
0.774032
0.739934
0.7047
0.668716
0.632345
0.595922
0.55975
0.524094
0.489182
0.455206
0.422322
0.390657
0.360308
0.331342
0.303802
0.27771
0.253067
0.22986
0.208063
0.187639
0.168545
0.150729
0.134138
0.118714
0.104399
0.0911364
0.0788689
0.0675408
0.0570967
0.0474883
0.0386745
0.0307037
0.023608
0.0169515
0.0109858
0.00571545
0.00313307
0.00218777
0.00150894
0.00102636
0.000687334
0.00045243
0.000292295
0.000185262
0.000115511
7.16867e-05
4.58503e-05
3.26886e-05
2.4901e-05
1.85629e-05
1.32386e-05
8.95547e-06
5.71185e-06
3.42786e-06
1.94122e-06
1.04422e-06
5.37621e-07
2.66637e-07
1.28804e-07
6.08875e-08
2.82349e-08
1.28677e-08
5.77236e-09
2.55242e-09
1.11397e-09
4.80468e-10
2.05037e-10
8.66578e-11
3.62957e-11
1.50594e-11
6.17243e-12
2.4765e-12
9.46803e-13
3.15736e-13
5.58537e-14
0.999997
0.999987
0.99997
0.999942
0.999894
0.999816
0.999687
0.999477
0.999139
0.998602
0.997761
0.996468
0.994515
0.99163
0.987475
0.98165
0.973729
0.963296
0.950005
0.933624
0.914061
0.891372
0.865737
0.837437
0.806814
0.774252
0.74015
0.704906
0.668906
0.632514
0.596067
0.559867
0.52418
0.489236
0.455226
0.422308
0.390608
0.360226
0.331228
0.303658
0.277538
0.252869
0.229639
0.207821
0.187381
0.168272
0.150444
0.133845
0.118416
0.1041
0.0908374
0.0785693
0.0672403
0.0567999
0.0471991
0.038394
0.0304363
0.0233511
0.0167041
0.0107469
0.00549734
0.00312058
0.00218429
0.0015102
0.00102979
0.00069142
0.000456361
0.000295697
0.000188023
0.000117673
7.33668e-05
4.72034e-05
3.38521e-05
2.57612e-05
1.91337e-05
1.35868e-05
9.14739e-06
5.80537e-06
3.46708e-06
1.95469e-06
1.04734e-06
5.37433e-07
2.65863e-07
1.28172e-07
6.04894e-08
2.80085e-08
1.27483e-08
5.71263e-09
2.5238e-09
1.10069e-09
4.74473e-10
2.02389e-10
8.55106e-11
3.58065e-11
1.48538e-11
6.08746e-12
2.44225e-12
9.33627e-13
3.11274e-13
5.5099e-14
0.999997
0.999987
0.99997
0.999942
0.999895
0.999816
0.999688
0.999479
0.999141
0.998606
0.997767
0.996477
0.994529
0.991652
0.987505
0.981693
0.973786
0.96337
0.950097
0.933734
0.914189
0.891515
0.865893
0.837601
0.806983
0.77442
0.740312
0.705059
0.669045
0.632636
0.596168
0.559945
0.524233
0.489263
0.455226
0.42228
0.390553
0.360144
0.331121
0.303528
0.277385
0.252697
0.229449
0.207616
0.187163
0.168044
0.150209
0.133605
0.118173
0.103853
0.0905876
0.0783202
0.0669953
0.0565602
0.0469661
0.0381686
0.0302219
0.0231457
0.0165065
0.0105562
0.0053232
0.00311056
0.00218324
0.00151369
0.00103513
0.000697082
0.000461539
0.000300051
0.000191487
0.000120331
7.53805e-05
4.87602e-05
3.51182e-05
2.66828e-05
1.97482e-05
1.39666e-05
9.36203e-06
5.9147e-06
3.51679e-06
1.97469e-06
1.0543e-06
5.39347e-07
2.66102e-07
1.2802e-07
6.03117e-08
2.78887e-08
1.26795e-08
5.67618e-09
2.50557e-09
1.09198e-09
4.70451e-10
2.00588e-10
8.47221e-11
3.54682e-11
1.47111e-11
6.02842e-12
2.41851e-12
9.24504e-13
3.08178e-13
5.45818e-14
0.999997
0.999987
0.99997
0.999942
0.999895
0.999817
0.999689
0.99948
0.999143
0.998609
0.997772
0.996484
0.99454
0.991668
0.987529
0.981725
0.973829
0.963426
0.950167
0.933818
0.914286
0.891624
0.866011
0.837724
0.807108
0.774544
0.740432
0.70517
0.669145
0.632722
0.596238
0.559996
0.524265
0.489274
0.455216
0.422249
0.390502
0.360073
0.33103
0.303419
0.27726
0.252557
0.229296
0.207453
0.18699
0.167864
0.150024
0.133414
0.117977
0.103656
0.0903913
0.0781264
0.0668052
0.0563751
0.0467868
0.0379957
0.0300575
0.0229884
0.0163551
0.0104094
0.00518769
0.0031028
0.00218435
0.00151913
0.00104215
0.000704126
0.000467819
0.000305252
0.00019558
0.000123439
7.76973e-05
5.05025e-05
3.64718e-05
2.76533e-05
2.03949e-05
1.43685e-05
9.59217e-06
6.03485e-06
3.57372e-06
1.9992e-06
1.0639e-06
5.42715e-07
2.67108e-07
1.28254e-07
6.03227e-08
2.7855e-08
1.26497e-08
5.65775e-09
2.49563e-09
1.08702e-09
4.681e-10
1.99517e-10
8.42487e-11
3.52656e-11
1.46244e-11
5.99301e-12
2.40444e-12
9.1905e-13
3.06313e-13
5.42765e-14
0.999997
0.999987
0.99997
0.999942
0.999895
0.999817
0.999689
0.99948
0.999145
0.998611
0.997776
0.99649
0.994548
0.99168
0.987546
0.981749
0.973861
0.963467
0.950218
0.933879
0.914356
0.891701
0.866094
0.837811
0.807196
0.774631
0.740515
0.705247
0.669213
0.63278
0.596284
0.560029
0.524283
0.489277
0.455204
0.422222
0.390459
0.360016
0.330961
0.303337
0.277166
0.252452
0.229182
0.20733
0.18686
0.167727
0.149882
0.133269
0.117832
0.103511
0.0902482
0.0779858
0.066668
0.056242
0.0466584
0.0378724
0.0299401
0.0228762
0.0162468
0.0103034
0.00508823
0.00309702
0.00218734
0.00152621
0.00105053
0.000712255
0.000474933
0.000311079
0.000200126
0.000126862
8.02182e-05
5.23541e-05
3.78534e-05
2.86257e-05
2.10376e-05
1.47668e-05
9.82091e-06
6.15556e-06
3.63207e-06
2.02511e-06
1.07451e-06
5.46733e-07
2.68501e-07
1.28708e-07
6.04501e-08
2.78814e-08
1.2649e-08
5.65332e-09
2.4921e-09
1.08508e-09
4.67079e-10
1.99058e-10
8.4033e-11
3.51768e-11
1.45848e-11
5.97692e-12
2.39796e-12
9.16492e-13
3.05437e-13
5.41388e-14
0.999997
0.999987
0.99997
0.999942
0.999895
0.999817
0.999689
0.999481
0.999146
0.998612
0.997778
0.996493
0.994553
0.991687
0.987557
0.981764
0.973881
0.963493
0.950251
0.933918
0.914401
0.891751
0.866148
0.837867
0.807253
0.774687
0.740568
0.705295
0.669256
0.632816
0.596311
0.560047
0.524292
0.489276
0.455193
0.4222
0.390428
0.359975
0.33091
0.303278
0.2771
0.252379
0.229103
0.207246
0.186772
0.167637
0.149789
0.133176
0.117738
0.103418
0.0901565
0.0778962
0.0665812
0.0561584
0.0465784
0.037796
0.029866
0.0228054
0.016178
0.0102352
0.00502316
0.00309351
0.00219202
0.00153446
0.00105968
0.000720848
0.000482313
0.000317044
0.000204735
0.0001303
8.27159e-05
5.41424e-05
3.9128e-05
2.94964e-05
2.16019e-05
1.51114e-05
1.00171e-05
6.25886e-06
3.6822e-06
2.04757e-06
1.08384e-06
5.50354e-07
2.69805e-07
1.29207e-07
6.06075e-08
2.79401e-08
1.26642e-08
5.6587e-09
2.49279e-09
1.08527e-09
4.66939e-10
1.98997e-10
8.39815e-11
3.51566e-11
1.45732e-11
5.97231e-12
2.39599e-12
9.15641e-13
3.0515e-13
5.40989e-14
0.999997
0.999987
0.99997
0.999942
0.999895
0.999817
0.999689
0.999481
0.999146
0.998613
0.997779
0.996495
0.994556
0.991691
0.987562
0.981771
0.973891
0.963505
0.950266
0.933936
0.914422
0.891775
0.866173
0.837894
0.80728
0.774713
0.740593
0.705318
0.669276
0.632832
0.596324
0.560056
0.524296
0.489275
0.455187
0.42219
0.390413
0.359955
0.330886
0.303249
0.277067
0.252343
0.229065
0.207205
0.18673
0.167593
0.149745
0.133131
0.117693
0.103374
0.0901133
0.0778545
0.0665412
0.0561205
0.0465427
0.0377625
0.0298297
0.0227697
0.0161398
0.0101897
0.00496665
0.0030916
0.00219689
0.00154189
0.00106745
0.000727908
0.000488233
0.000321749
0.000208324
0.000132947
8.46122e-05
5.54593e-05
4.00023e-05
3.006e-05
2.1952e-05
1.53185e-05
1.01322e-05
6.31841e-06
3.71083e-06
2.06036e-06
1.08918e-06
5.52443e-07
2.70567e-07
1.29511e-07
6.0708e-08
2.79798e-08
1.26762e-08
5.6634e-09
2.49401e-09
1.08575e-09
4.6703e-10
1.99032e-10
8.39821e-11
3.51566e-11
1.45716e-11
5.97152e-12
2.39565e-12
9.15435e-13
3.05077e-13
5.40914e-14
0.999997
0.999987
0.99997
0.999942
0.999895
0.999817
0.999689
0.999481
0.999146
0.998613
0.997779
0.996495
0.994556
0.991691
0.987562
0.981771
0.973891
0.963505
0.950266
0.933936
0.914422
0.891775
0.866173
0.837894
0.80728
0.774713
0.740593
0.705318
0.669276
0.632832
0.596324
0.560056
0.524296
0.489275
0.455187
0.42219
0.390413
0.359955
0.330886
0.303249
0.277067
0.252343
0.229064
0.207205
0.18673
0.167593
0.149745
0.133131
0.117693
0.103374
0.0901134
0.0778545
0.0665413
0.0561205
0.0465427
0.0377625
0.0298298
0.0227697
0.0161398
0.0101897
0.00496666
0.0030916
0.00219689
0.00154189
0.00106745
0.000727903
0.000488228
0.000321744
0.00020832
0.000132944
8.46106e-05
5.54585e-05
4.0002e-05
3.00599e-05
2.1952e-05
1.53185e-05
1.01322e-05
6.31843e-06
3.71084e-06
2.06037e-06
1.08918e-06
5.52447e-07
2.70568e-07
1.29511e-07
6.07082e-08
2.79791e-08
1.26758e-08
5.66302e-09
2.49384e-09
1.08563e-09
4.66982e-10
1.99007e-10
8.39711e-11
3.51511e-11
1.45696e-11
5.97048e-12
2.39526e-12
9.15281e-13
3.05023e-13
5.40817e-14
0.999997
0.999987
0.99997
0.999942
0.999895
0.999817
0.999689
0.999481
0.999146
0.998612
0.997778
0.996493
0.994553
0.991687
0.987557
0.981764
0.973881
0.963493
0.95025
0.933917
0.9144
0.891751
0.866147
0.837867
0.807253
0.774686
0.740568
0.705295
0.669256
0.632815
0.596311
0.560047
0.524292
0.489276
0.455193
0.4222
0.390428
0.359975
0.330911
0.303278
0.2771
0.252379
0.229103
0.207246
0.186772
0.167637
0.149789
0.133176
0.117738
0.103418
0.0901565
0.0778962
0.0665812
0.0561584
0.0465784
0.037796
0.0298661
0.0228054
0.0161781
0.0102352
0.00502319
0.00309352
0.00219203
0.00153448
0.00105969
0.000720857
0.00048232
0.00031705
0.000204739
0.000130303
8.27177e-05
5.41434e-05
3.91283e-05
2.94966e-05
2.1602e-05
1.51115e-05
1.00172e-05
6.25893e-06
3.68225e-06
2.0476e-06
1.08386e-06
5.50365e-07
2.69808e-07
1.29208e-07
6.06086e-08
2.79385e-08
1.26633e-08
5.65785e-09
2.4924e-09
1.08501e-09
4.66828e-10
1.98936e-10
8.39553e-11
3.51432e-11
1.45684e-11
5.96975e-12
2.39506e-12
9.15262e-13
3.05015e-13
5.40745e-14
0.999997
0.999987
0.99997
0.999942
0.999895
0.999817
0.999689
0.99948
0.999145
0.998611
0.997776
0.99649
0.994548
0.99168
0.987546
0.981749
0.973861
0.963467
0.950218
0.933878
0.914355
0.891701
0.866094
0.837811
0.807196
0.774631
0.740515
0.705246
0.669213
0.63278
0.596283
0.560028
0.524282
0.489276
0.455203
0.422221
0.390459
0.360016
0.33096
0.303336
0.277166
0.252452
0.229182
0.20733
0.18686
0.167727
0.149882
0.133269
0.117832
0.103511
0.0902483
0.0779858
0.0666681
0.0562421
0.0466585
0.0378725
0.0299401
0.0228762
0.0162469
0.0103035
0.00508828
0.00309704
0.00218736
0.00152623
0.00105055
0.000712267
0.000474941
0.000311084
0.000200129
0.000126864
8.02186e-05
5.23541e-05
3.78532e-05
2.86256e-05
2.10377e-05
1.47669e-05
9.82101e-06
6.15566e-06
3.63214e-06
2.02516e-06
1.07454e-06
5.46748e-07
2.68507e-07
1.28711e-07
6.04513e-08
2.78809e-08
1.26485e-08
5.65276e-09
2.49179e-09
1.08486e-09
4.66981e-10
1.99002e-10
8.4008e-11
3.51635e-11
1.45799e-11
5.97432e-12
2.39693e-12
9.1609e-13
3.05295e-13
5.41125e-14
0.999997
0.999987
0.99997
0.999942
0.999895
0.999817
0.999689
0.99948
0.999143
0.998609
0.997772
0.996484
0.99454
0.991668
0.987529
0.981725
0.973829
0.963426
0.950167
0.933818
0.914286
0.891623
0.86601
0.837723
0.807107
0.774543
0.740431
0.705169
0.669144
0.632721
0.596237
0.559996
0.524264
0.489274
0.455216
0.422249
0.390502
0.360073
0.33103
0.303419
0.27726
0.252556
0.229296
0.207453
0.18699
0.167864
0.150024
0.133414
0.117977
0.103656
0.0903914
0.0781265
0.0668053
0.0563752
0.0467868
0.0379958
0.0300576
0.0229885
0.0163552
0.0104094
0.00518776
0.00310282
0.00218437
0.00151914
0.00104216
0.000704133
0.000467822
0.000305254
0.000195581
0.00012344
7.76977e-05
5.05027e-05
3.64719e-05
2.76534e-05
2.0395e-05
1.43687e-05
9.59233e-06
6.03498e-06
3.57381e-06
1.99927e-06
1.06393e-06
5.42733e-07
2.67117e-07
1.28258e-07
6.03243e-08
2.78554e-08
1.26497e-08
5.65752e-09
2.49545e-09
1.08692e-09
4.68046e-10
1.99489e-10
8.42344e-11
3.52575e-11
1.46218e-11
5.99129e-12
2.40375e-12
9.18796e-13
3.06227e-13
5.42592e-14
0.999997
0.999987
0.99997
0.999942
0.999895
0.999816
0.999688
0.999478
0.999141
0.998606
0.997767
0.996477
0.994529
0.991651
0.987505
0.981693
0.973785
0.963369
0.950097
0.933734
0.914188
0.891514
0.865892
0.8376
0.806982
0.774419
0.740311
0.705058
0.669044
0.632635
0.596167
0.559944
0.524232
0.489262
0.455225
0.422279
0.390553
0.360144
0.331121
0.303527
0.277385
0.252696
0.229449
0.207616
0.187162
0.168044
0.150209
0.133605
0.118173
0.103853
0.0905877
0.0783203
0.0669954
0.0565603
0.0469662
0.0381687
0.030222
0.0231458
0.0165066
0.0105563
0.00532329
0.00311059
0.00218327
0.00151371
0.00103515
0.000697098
0.000461552
0.00030006
0.000191493
0.000120336
7.53832e-05
4.87615e-05
3.51185e-05
2.66829e-05
1.97483e-05
1.39668e-05
9.36222e-06
5.91486e-06
3.5169e-06
1.97477e-06
1.05434e-06
5.39368e-07
2.66112e-07
1.28025e-07
6.03138e-08
2.78897e-08
1.268e-08
5.67634e-09
2.50562e-09
1.09199e-09
4.70453e-10
2.00585e-10
8.47199e-11
3.54669e-11
1.47106e-11
6.02793e-12
2.41834e-12
9.24445e-13
3.0816e-13
5.45759e-14
0.999997
0.999987
0.99997
0.999942
0.999894
0.999816
0.999687
0.999477
0.999139
0.998602
0.997761
0.996467
0.994514
0.99163
0.987475
0.98165
0.973728
0.963296
0.950005
0.933623
0.91406
0.891371
0.865736
0.837436
0.806813
0.774251
0.740149
0.704904
0.668904
0.632513
0.596066
0.559866
0.524179
0.489235
0.455225
0.422307
0.390608
0.360225
0.331228
0.303658
0.277537
0.252869
0.229639
0.207821
0.18738
0.168272
0.150444
0.133845
0.118416
0.1041
0.0908376
0.0785695
0.0672404
0.0568
0.0471993
0.0383942
0.0304364
0.0233513
0.0167042
0.010747
0.00549744
0.00312061
0.00218432
0.00151023
0.00102981
0.000691435
0.000456371
0.000295702
0.000188026
0.000117675
7.33678e-05
4.7204e-05
3.38524e-05
2.57614e-05
1.91339e-05
1.35871e-05
9.14764e-06
5.80556e-06
3.46722e-06
1.95477e-06
1.04738e-06
5.37458e-07
2.65875e-07
1.28178e-07
6.04923e-08
2.80099e-08
1.27489e-08
5.71294e-09
2.52393e-09
1.10075e-09
4.74495e-10
2.02397e-10
8.55136e-11
3.58077e-11
1.48543e-11
6.08766e-12
2.44235e-12
9.33665e-13
3.11288e-13
5.50987e-14
0.999997
0.999987
0.99997
0.999941
0.999894
0.999815
0.999686
0.999475
0.999136
0.998597
0.997754
0.996456
0.994496
0.991603
0.987436
0.981597
0.973656
0.963202
0.949887
0.933482
0.913896
0.891186
0.865535
0.837222
0.806593
0.77403
0.739933
0.704699
0.668715
0.632344
0.595921
0.559749
0.524093
0.489181
0.455205
0.422321
0.390657
0.360307
0.331342
0.303802
0.27771
0.253067
0.22986
0.208063
0.187639
0.168545
0.150729
0.134138
0.118714
0.104399
0.0911366
0.0788691
0.067541
0.0570968
0.0474884
0.0386746
0.0307038
0.0236081
0.0169515
0.0109859
0.00571552
0.00313308
0.00218778
0.00150895
0.00102636
0.000687338
0.000452433
0.000292297
0.000185261
0.00011551
7.16847e-05
4.58482e-05
3.2687e-05
2.49002e-05
1.85627e-05
1.32388e-05
8.95568e-06
5.71205e-06
3.428e-06
1.94131e-06
1.04427e-06
5.37648e-07
2.6665e-07
1.28811e-07
6.0891e-08
2.82367e-08
1.28686e-08
5.77275e-09
2.5526e-09
1.11405e-09
4.80502e-10
2.05051e-10
8.66639e-11
3.62983e-11
1.50605e-11
6.1729e-12
2.4767e-12
9.46886e-13
3.15765e-13
5.58557e-14
0.999997
0.999987
0.99997
0.999941
0.999894
0.999815
0.999685
0.999473
0.999132
0.998591
0.997744
0.996441
0.994474
0.991571
0.987389
0.98153
0.973567
0.963086
0.949742
0.933305
0.91369
0.890953
0.865279
0.83695
0.806311
0.773745
0.739651
0.704428
0.668461
0.632113
0.595719
0.559579
0.52396
0.489087
0.455152
0.422309
0.390685
0.360377
0.331452
0.30395
0.277893
0.253283
0.230105
0.208334
0.187934
0.168859
0.151059
0.13448
0.119065
0.104756
0.0914953
0.0792252
0.0678923
0.0574453
0.0478342
0.0390118
0.0310264
0.0239182
0.0172496
0.0112717
0.00598615
0.00314838
0.00219404
0.0015102
0.00102512
0.000685061
0.000449942
0.000290001
0.000183317
0.000113926
7.03877e-05
4.47191e-05
3.16032e-05
2.40865e-05
1.80289e-05
1.29203e-05
8.78692e-06
5.63569e-06
3.40065e-06
1.93546e-06
1.04552e-06
5.40063e-07
2.68665e-07
1.30061e-07
6.15949e-08
2.86067e-08
1.30538e-08
5.86196e-09
2.59426e-09
1.133e-09
4.88931e-10
2.08731e-10
8.82449e-11
3.6968e-11
1.53405e-11
6.28829e-12
2.5231e-12
9.64723e-13
3.21798e-13
5.68802e-14
0.999997
0.999987
0.99997
0.999941
0.999893
0.999814
0.999683
0.99947
0.999128
0.998584
0.997733
0.996424
0.994448
0.991531
0.987332
0.98145
0.973458
0.962944
0.949563
0.933088
0.913435
0.890663
0.86496
0.836608
0.805953
0.77338
0.739288
0.704075
0.668126
0.631803
0.595441
0.559339
0.523761
0.488935
0.455048
0.422255
0.390681
0.360423
0.331545
0.30409
0.278077
0.253507
0.230367
0.20863
0.188259
0.169209
0.15143
0.134869
0.119467
0.105167
0.0919116
0.0796434
0.0683081
0.0578542
0.048236
0.0394099
0.0314105
0.0242869
0.0176041
0.0116117
0.00631188
0.00316673
0.00220352
0.00151451
0.00102654
0.000684992
0.000449168
0.000288968
0.000182252
0.000112918
6.94349e-05
4.37507e-05
3.05016e-05
2.32766e-05
1.75163e-05
1.26272e-05
8.64112e-06
5.57753e-06
3.38639e-06
1.93799e-06
1.05155e-06
5.45366e-07
2.72191e-07
1.32067e-07
6.26611e-08
2.91461e-08
1.33164e-08
5.9859e-09
2.65121e-09
1.15858e-09
5.00204e-10