/*--------------------------------*- C++ -*----------------------------------*\
  =========                 |
  \\      /  F ield         | OpenFOAM: The Open Source CFD Toolbox
   \\    /   O peration     | Website:  https://openfoam.org
    \\  /    A nd           | Version:  8
     \\/     M anipulation  |
\*---------------------------------------------------------------------------*/
FoamFile
{
    version     2.0;
    format      ascii;
    class       volScalarField;
    location    "860/fluid";
    object      CO2;
}
// * * * * * * * * * * * * * * * * * * * * * * * * * * * * * * * * * * * * * //

dimensions      [0 0 0 0 0 0 0];

internalField   nonuniform List<scalar> 
4000
(
4.74187e-07
2.07204e-06
4.75875e-06
9.26214e-06
1.67784e-05
2.92542e-05
4.98197e-05
8.34369e-05
0.000137838
0.000224826
0.000361969
0.000574627
0.000898013
0.0013787
0.00207465
0.00305269
0.00438264
0.00612863
0.00833957
0.0110418
0.0142361
0.0178995
0.0219901
0.0264532
0.031227
0.0362468
0.0414486
0.0467708
0.0521564
0.0575531
0.0629148
0.068201
0.0733775
0.0784161
0.0832941
0.0879937
0.092501
0.0968067
0.100905
0.104793
0.10847
0.111939
0.115203
0.118266
0.121135
0.123814
0.12631
0.128629
0.130776
0.132753
0.134564
0.136208
0.137683
0.138983
0.140096
0.141005
0.141684
0.142093
0.142191
0.141913
0.141161
0.13981
0.137051
0.126514
0.115803
0.105097
0.0945349
0.0842264
0.0742583
0.0647015
0.0556158
0.047054
0.0390659
0.0317376
0.0250412
0.019083
0.0139268
0.00963588
0.00625705
0.00378475
0.00212885
0.00111914
0.000555077
0.000263982
0.000121972
5.50821e-05
2.4417e-05
1.06586e-05
4.59328e-06
1.95807e-06
8.27074e-07
3.46636e-07
1.44304e-07
5.97035e-08
2.45371e-08
9.9877e-09
3.98956e-09
1.52255e-09
5.08398e-10
8.91373e-11
4.74684e-07
2.0747e-06
4.76699e-06
9.28399e-06
1.68298e-05
2.93631e-05
5.00287e-05
8.37996e-05
0.000138397
0.00022555
0.000362628
0.000574565
0.000895836
0.0013718
0.0020588
0.00302181
0.00432908
0.00604404
0.00821624
0.0108741
0.0140215
0.0176389
0.0216876
0.0261154
0.0308621
0.0358638
0.0410564
0.0463777
0.0517698
0.0571793
0.0625587
0.0678666
0.0730677
0.0781326
0.0830379
0.0877651
0.0922996
0.0966317
0.100755
0.104667
0.108366
0.111855
0.115137
0.118217
0.121101
0.123793
0.126301
0.12863
0.130784
0.132769
0.134586
0.136235
0.137713
0.139015
0.14013
0.14104
0.141719
0.142127
0.142223
0.14194
0.141182
0.139819
0.136213
0.125607
0.114842
0.104091
0.0934928
0.0831545
0.0731635
0.0635914
0.0544993
0.045942
0.0379719
0.0306804
0.0240426
0.0181712
0.013132
0.00898653
0.00577087
0.00345855
0.00193558
0.00101821
0.000508222
0.0002438
0.000113789
5.19204e-05
2.32399e-05
1.02314e-05
4.44023e-06
1.9032e-06
8.07104e-07
3.39166e-07
1.41412e-07
5.8546e-08
2.40623e-08
9.79106e-09
3.90901e-09
1.49102e-09
4.97656e-10
8.7283e-11
4.75815e-07
2.07991e-06
4.78016e-06
9.31248e-06
1.68862e-05
2.94668e-05
5.02061e-05
8.4079e-05
0.000138793
0.000226027
0.000363014
0.00057438
0.000893976
0.00136632
0.0020466
0.00299839
0.00428853
0.00597937
0.00812017
0.01074
0.0138444
0.0174164
0.0214198
0.0258053
0.0305149
0.0354863
0.0406566
0.0459642
0.0513508
0.0567627
0.0621517
0.0674752
0.0726968
0.0777863
0.0827192
0.0874758
0.092041
0.0964041
0.100558
0.104499
0.108227
0.111743
0.115051
0.118154
0.121058
0.123769
0.126294
0.128637
0.130804
0.132799
0.134625
0.136281
0.137765
0.13907
0.140187
0.141097
0.141775
0.142179
0.142269
0.141977
0.141203
0.139818
0.134735
0.12408
0.11327
0.102482
0.0918585
0.081508
0.0715199
0.0619675
0.0529141
0.0444169
0.0365307
0.0293362
0.0228382
0.0171339
0.012284
0.00833933
0.00531796
0.00317195
0.00177215
0.000933513
0.000467722
0.000225383
0.000105723
4.84906e-05
2.18159e-05
9.65105e-06
4.20679e-06
1.81007e-06
7.70071e-07
3.24426e-07
1.35521e-07
5.61782e-08
2.31062e-08
9.40505e-09
3.755e-09
1.43204e-09
4.7783e-10
8.38162e-11
4.75323e-07
2.07773e-06
4.77501e-06
9.30164e-06
1.68634e-05
2.94168e-05
5.00939e-05
8.38274e-05
0.000138243
0.000224869
0.000360692
0.000569966
0.000886042
0.00135271
0.00202423
0.00296324
0.00423572
0.0059036
0.00801625
0.0106035
0.0136724
0.0172074
0.0211745
0.0255257
0.0302046
0.0351502
0.0403005
0.0455943
0.0509738
0.0563851
0.0617797
0.0671144
0.0723523
0.0774623
0.0824188
0.0872017
0.091795
0.096187
0.10037
0.104341
0.108097
0.11164
0.114973
0.1181
0.121026
0.123757
0.126299
0.128658
0.130838
0.132844
0.134678
0.13634
0.137829
0.139137
0.140253
0.141161
0.141834
0.142229
0.142307
0.141997
0.1412
0.139781
0.132898
0.122226
0.111395
0.100594
0.0899685
0.0796315
0.0696751
0.0601748
0.0511955
0.0427958
0.0350321
0.0279565
0.0216272
0.0161079
0.0114541
0.00770794
0.00487318
0.00288542
0.00160397
0.000842979
0.000422462
0.000203979
9.59655e-05
4.41693e-05
1.99464e-05
8.85792e-06
3.87574e-06
1.67369e-06
7.14453e-07
3.01908e-07
1.26449e-07
5.25352e-08
2.16479e-08
8.82446e-09
3.5271e-09
1.3461e-09
4.49303e-10
7.88546e-11
4.73464e-07
2.0695e-06
4.75568e-06
9.26269e-06
1.67893e-05
2.92795e-05
4.98418e-05
8.33676e-05
0.00013741
0.000223377
0.000358058
0.000565401
0.000878312
0.00133997
0.0020039
0.00293193
0.00418938
0.00583778
0.00792663
0.0104865
0.0135254
0.0170293
0.0209656
0.025288
0.029941
0.0348649
0.0399981
0.0452802
0.0506533
0.0560638
0.0614628
0.0668068
0.0720583
0.0771856
0.0821625
0.0869683
0.0915862
0.0960039
0.100213
0.10421
0.107992
0.11156
0.114916
0.118065
0.121012
0.123761
0.126319
0.128691
0.130883
0.132898
0.134739
0.136406
0.137896
0.139204
0.140316
0.141217
0.141879
0.142257
0.142316
0.14198
0.141146
0.139684
0.130966
0.120304
0.10947
0.0986673
0.0880512
0.0777411
0.0678312
0.0583979
0.0495065
0.0412153
0.0335929
0.0266628
0.0205006
0.0151632
0.0106994
0.00714169
0.00448024
0.00263586
0.00145907
0.000765406
0.000383651
0.000185514
8.74652e-05
4.03553e-05
1.82698e-05
8.1332e-06
3.5668e-06
1.54351e-06
6.6012e-07
2.79409e-07
1.17192e-07
4.87479e-08
2.01071e-08
8.20281e-09
3.2805e-09
1.25238e-09
4.18034e-10
7.33964e-11
4.70534e-07
2.05657e-06
4.72541e-06
9.20214e-06
1.66758e-05
2.90731e-05
4.94734e-05
8.27189e-05
0.000136281
0.00022144
0.000354784
0.000559972
0.000869513
0.00132608
0.00198261
0.00290037
0.00414425
0.00577563
0.00784425
0.0103813
0.0133958
0.0168747
0.0207866
0.0250862
0.0297192
0.0346262
0.0397464
0.0450198
0.0503887
0.0557993
0.0612027
0.0665552
0.0718188
0.0769612
0.081956
0.0867816
0.0914209
0.0958611
0.100093
0.104113
0.107917
0.111507
0.114884
0.118052
0.121015
0.12378
0.126352
0.128736
0.130937
0.132958
0.134803
0.136471
0.137959
0.139261
0.140364
0.141251
0.141894
0.142249
0.14228
0.141911
0.141041
0.139553
0.129316
0.118599
0.107713
0.0968802
0.0862595
0.0759709
0.0661071
0.0567427
0.0479404
0.0397564
0.0322738
0.025484
0.0194807
0.0143138
0.0100251
0.00663824
0.00413165
0.00241403
0.00132933
0.000695043
0.000347833
0.000168195
7.93643e-05
3.66666e-05
1.66276e-05
7.41592e-06
3.25856e-06
1.41285e-06
6.05366e-07
2.56678e-07
1.07828e-07
4.49148e-08
1.8548e-08
7.57401e-09
3.03115e-09
1.15764e-09
3.86438e-10
6.78802e-11
4.67143e-07
2.04168e-06
4.69081e-06
9.13368e-06
1.65491e-05
2.88468e-05
4.90773e-05
8.20359e-05
0.000135119
0.00021949
0.000351561
0.000554739
0.000861192
0.00131316
0.00196312
0.00287186
0.00410395
0.00572071
0.00777216
0.0102901
0.0132842
0.0167427
0.020635
0.0249166
0.0295338
0.034428
0.0395388
0.0448062
0.0501729
0.055585
0.0609933
0.066354
0.0716287
0.0767848
0.0817954
0.0866384
0.0912963
0.0957559
0.100008
0.104047
0.107871
0.111479
0.114873
0.118057
0.121035
0.123812
0.126394
0.128787
0.130994
0.13302
0.134866
0.136531
0.138013
0.139304
0.14039
0.141253
0.141865
0.142177
0.142157
0.141724
0.140782
0.13924
0.128386
0.117322
0.106244
0.0953136
0.084657
0.074376
0.0645527
0.0552544
0.0465381
0.0384568
0.0310892
0.0244275
0.0185698
0.0135592
0.00943185
0.00619913
0.0038301
0.00222359
0.00121857
0.000635146
0.000317329
0.000153399
7.24054e-05
3.34753e-05
1.51949e-05
6.78436e-06
2.98455e-06
1.2956e-06
5.55786e-07
2.35925e-07
9.92147e-08
4.13669e-08
1.70971e-08
6.9863e-09
2.79727e-09
1.06854e-09
3.56687e-10
6.26826e-11
4.63619e-07
2.02622e-06
4.65503e-06
9.06319e-06
1.64194e-05
2.86163e-05
4.86769e-05
8.13513e-05
0.000133966
0.000217574
0.000348431
0.000549722
0.000853319
0.00130111
0.00194518
0.00284597
0.00406784
0.00567212
0.00770911
0.0102111
0.0131887
0.0166308
0.0205074
0.0247749
0.0293802
0.034265
0.0393692
0.044633
0.0499991
0.0554137
0.0608274
0.066196
0.0714811
0.0766495
0.0816741
0.0865324
0.0912065
0.0956827
0.0999515
0.104007
0.107847
0.111471
0.114879
0.118075
0.121065
0.123853
0.126443
0.128842
0.131053
0.133081
0.134925
0.136586
0.138058
0.139335
0.140399
0.141231
0.141795
0.142041
0.141922
0.141339
0.140166
0.138265
0.127217
0.116009
0.104839
0.0938609
0.0831949
0.0729356
0.06316
0.0539322
0.0453082
0.0373365
0.0300904
0.0235516
0.0178094
0.0129155
0.00891704
0.00581861
0.00357026
0.00206013
0.00112357
0.000583648
0.000290971
0.000140542
6.63231e-05
3.06698e-05
1.39285e-05
6.22338e-06
2.74011e-06
1.1906e-06
5.1124e-07
2.17226e-07
9.14359e-08
3.81563e-08
1.5782e-08
6.45282e-09
2.58472e-09
9.87518e-10
3.29646e-10
5.79593e-11
4.60205e-07
2.01127e-06
4.62051e-06
8.9954e-06
1.62952e-05
2.83969e-05
4.82978e-05
8.07076e-05
0.000132889
0.000215801
0.000345559
0.000545157
0.000846216
0.00129033
0.00192926
0.00282319
0.00403632
0.00563002
0.00765489
0.0101437
0.0131078
0.0165365
0.0204008
0.0246574
0.0292536
0.0341317
0.0392315
0.0444935
0.0498604
0.0552782
0.0606974
0.0660737
0.0713683
0.0765479
0.0815848
0.0864565
0.0911446
0.095635
0.0999183
0.103988
0.107841
0.111477
0.114897
0.118104
0.121103
0.123898
0.126495
0.128898
0.131112
0.133139
0.134981
0.136637
0.138101
0.139365
0.140412
0.141219
0.141747
0.141949
0.141765
0.141089
0.139779
0.137207
0.126023
0.114729
0.103513
0.0925207
0.0818664
0.071641
0.0619179
0.0527589
0.044218
0.036346
0.0292125
0.0228185
0.0172049
0.012423
0.00850578
0.00550114
0.00335121
0.00192218
0.00104338
0.000540149
0.000268669
0.000129636
6.1147e-05
2.82734e-05
1.28425e-05
5.74032e-06
2.52875e-06
1.09945e-06
4.72425e-07
2.00876e-07
8.46138e-08
3.53329e-08
1.46228e-08
5.98171e-09
2.39675e-09
9.15838e-10
3.05719e-10
5.37774e-11
4.57029e-07
1.99738e-06
4.58847e-06
8.93263e-06
1.61805e-05
2.81948e-05
4.795e-05
8.01195e-05
0.00013191
0.000214196
0.000342975
0.000541074
0.000839906
0.00128081
0.00191531
0.00280336
0.00400907
0.00559388
0.00760866
0.0100867
0.0130397
0.0164578
0.0203124
0.0245606
0.0291502
0.0340235
0.0391206
0.0443821
0.0497506
0.055172
0.0605968
0.0659804
0.0712837
0.0764732
0.081521
0.0864043
0.0911043
0.095607
0.0999023
0.103984
0.107847
0.111493
0.114923
0.118138
0.121144
0.123945
0.126546
0.128952
0.131167
0.133194
0.135034
0.136686
0.138144
0.139398
0.140435
0.141229
0.141743
0.141932
0.141739
0.141067
0.139791
0.136056
0.12483
0.113512
0.10229
0.0913098
0.0806833
0.0704996
0.0608303
0.0517355
0.0432718
0.0354894
0.0284096
0.0220744
0.0165594
0.0119037
0.00813763
0.00523265
0.00316283
0.00180402
0.000975066
0.000503183
0.000249726
0.000120366
5.6741e-05
2.62297e-05
1.19143e-05
5.32655e-06
2.3473e-06
1.02103e-06
4.38961e-07
1.86754e-07
7.87106e-08
3.2886e-08
1.36168e-08
5.57236e-09
2.23345e-09
8.53561e-10
2.84919e-10
5.01386e-11
4.54164e-07
1.98485e-06
4.55961e-06
8.87618e-06
1.60775e-05
2.8014e-05
4.76397e-05
7.95964e-05
0.000131042
0.00021278
0.000340704
0.000537504
0.000834415
0.00127258
0.0019033
0.00278637
0.00398584
0.00556324
0.00756967
0.0100388
0.0129829
0.0163925
0.0202395
0.0244814
0.0290661
0.0339362
0.0390319
0.0442938
0.0496644
0.0550896
0.0605197
0.06591
0.0712211
0.0764194
0.0814767
0.0863699
0.0910801
0.0955931
0.0998981
0.103989
0.107862
0.111516
0.114952
0.118174
0.121186
0.123991
0.126595
0.129003
0.131218
0.133244
0.135082
0.136729
0.138182
0.13943
0.140459
0.141245
0.14175
0.141931
0.141735
0.141063
0.139794
0.134931
0.123695
0.112377
0.101166
0.0902085
0.0796175
0.0694802
0.0598672
0.0508367
0.0424366
0.0346972
0.0276816
0.0214376
0.0160158
0.0114562
0.00778599
0.00499775
0.00300705
0.0017041
0.000917346
0.00047201
0.000233765
0.000112557
5.30264e-05
2.45047e-05
1.11298e-05
4.97623e-06
2.19341e-06
9.54397e-07
4.10478e-07
1.74713e-07
7.36698e-08
3.07937e-08
1.27556e-08
5.22175e-09
2.09344e-09
8.00183e-10
2.67077e-10
4.70199e-11
4.51639e-07
1.97381e-06
4.5342e-06
8.82655e-06
1.59871e-05
2.78555e-05
4.73683e-05
7.91402e-05
0.000130288
0.000211553
0.000338743
0.00053443
0.000829705
0.00126554
0.00189307
0.00277198
0.00396625
0.00553752
0.00753711
0.00999905
0.012936
0.0163389
0.02018
0.024417
0.0289982
0.0338663
0.0389614
0.0442242
0.0495972
0.0550261
0.0604612
0.0658575
0.0711756
0.0763815
0.081447
0.0863486
0.0910674
0.0955885
0.0999016
0.104
0.10788
0.111541
0.114983
0.11821
0.121225
0.124033
0.126639
0.129047
0.131262
0.133286
0.135121
0.136764
0.138212
0.139454
0.140475
0.141254
0.141752
0.141927
0.141725
0.141052
0.139786
0.133927
0.122685
0.111377
0.10019
0.0892699
0.0787149
0.0686138
0.0590369
0.0500426
0.0416785
0.0340034
0.0270587
0.020892
0.0155515
0.0110757
0.00748863
0.00477811
0.00287146
0.00162142
0.00086865
0.000445733
0.000220354
0.000106003
4.99111e-05
2.30579e-05
1.04714e-05
4.68199e-06
2.06402e-06
8.9831e-07
3.86473e-07
1.64553e-07
6.94111e-08
2.90241e-08
1.20266e-08
4.9247e-09
1.97475e-09
7.5491e-10
2.51928e-10
4.43797e-11
4.49457e-07
1.96427e-06
4.51227e-06
8.78375e-06
1.59093e-05
2.77192e-05
4.71355e-05
7.87495e-05
0.000129643
0.000210507
0.000337076
0.000531826
0.000825727
0.00125961
0.0018845
0.00275995
0.00394994
0.00551617
0.0075102
0.00996632
0.0128975
0.0162952
0.0201317
0.0243652
0.0289439
0.0338107
0.0389058
0.0441699
0.0495453
0.0549777
0.0604172
0.0658188
0.0711429
0.0763553
0.0814276
0.0863363
0.091062
0.0955899
0.0999095
0.104014
0.1079
0.111565
0.115012
0.118242
0.121259
0.124069
0.126676
0.129084
0.131297
0.133319
0.13515
0.136789
0.138231
0.139467
0.140482
0.141253
0.141743
0.141912
0.141706
0.141031
0.139769
0.133061
0.121808
0.110503
0.0993299
0.0884179
0.0778836
0.0678129
0.0582753
0.0493292
0.0410253
0.0334111
0.0265293
0.02043
0.0151598
0.0107563
0.00724108
0.00459771
0.00274821
0.00155164
0.00082927
0.000424039
0.000209224
0.000100575
4.7332e-05
2.18598e-05
9.92576e-06
4.43788e-06
1.95653e-06
8.51651e-07
3.66475e-07
1.56077e-07
6.58537e-08
2.75442e-08
1.14163e-08
4.6758e-09
1.87525e-09
7.16934e-10
2.39216e-10
4.21656e-11
4.47608e-07
1.9562e-06
4.49371e-06
8.74755e-06
1.58436e-05
2.76042e-05
4.69392e-05
7.84208e-05
0.000129102
0.00020963
0.000335682
0.000529654
0.000822418
0.0012547
0.0018774
0.00275002
0.00393652
0.00549869
0.00748823
0.00993971
0.0128664
0.0162599
0.020093
0.0243238
0.0289008
0.0337669
0.0388624
0.0441277
0.0495054
0.054941
0.0603844
0.0657906
0.0711197
0.0763375
0.0814155
0.0863298
0.0910611
0.0955944
0.0999192
0.104028
0.107918
0.111587
0.115037
0.118269
0.121288
0.124099
0.126705
0.129112
0.131323
0.133342
0.135169
0.136803
0.13824
0.139469
0.140477
0.141241
0.141725
0.141888
0.141677
0.141002
0.139746
0.132327
0.121059
0.109755
0.0985846
0.0876913
0.0771824
0.067143
0.0576422
0.0487378
0.0404801
0.0329157
0.0260867
0.0200438
0.014833
0.0104908
0.00703657
0.00445017
0.00264912
0.00148931
0.000796522
0.000407009
0.000200346
9.61742e-05
4.5231e-05
2.08815e-05
9.47917e-06
4.23764e-06
1.86819e-06
8.13238e-07
3.49985e-07
1.49079e-07
6.2913e-08
2.63195e-08
1.09108e-08
4.46952e-09
1.79277e-09
6.85439e-10
2.28676e-10
4.03293e-11
4.46075e-07
1.9495e-06
4.47833e-06
8.71756e-06
1.57891e-05
2.75091e-05
4.67772e-05
7.81499e-05
0.000128656
0.00020891
0.000334539
0.000527876
0.000819715
0.00125069
0.00187163
0.00274197
0.00392567
0.00548458
0.00747056
0.00991837
0.0128415
0.0162319
0.0200623
0.0242912
0.028867
0.0337327
0.0388287
0.0440953
0.049475
0.0549133
0.06036
0.06577
0.0711032
0.0763255
0.0814079
0.0863266
0.0910623
0.0955998
0.0999285
0.104041
0.107934
0.111606
0.115057
0.118291
0.12131
0.124121
0.126726
0.129131
0.13134
0.133355
0.135178
0.136807
0.138238
0.139461
0.140462
0.141219
0.141696
0.141854
0.14164
0.140966
0.139721
0.13172
0.120433
0.109122
0.0979618
0.0870855
0.0765995
0.0665877
0.0571185
0.0482492
0.0400298
0.0325066
0.0257215
0.0197254
0.0145639
0.0102726
0.00686922
0.00433017
0.0025693
0.0014399
0.000767607
0.000392506
0.000193361
9.27195e-05
4.35486e-05
2.00895e-05
9.1163e-06
4.07473e-06
1.79622e-06
7.81907e-07
3.36523e-07
1.43361e-07
6.0509e-08
2.53181e-08
1.04975e-08
4.30084e-09
1.72534e-09
6.59711e-10
2.20072e-10
3.88298e-11
4.44837e-07
1.94409e-06
4.46591e-06
8.69337e-06
1.57453e-05
2.74326e-05
4.66468e-05
7.79321e-05
0.000128299
0.000208333
0.000333624
0.000526455
0.000817558
0.0012475
0.00186704
0.00273559
0.00391708
0.00547344
0.00745664
0.00990162
0.0128221
0.01621
0.0200385
0.0242659
0.028841
0.0337065
0.038803
0.0440708
0.0494522
0.0548927
0.0603421
0.065755
0.0710915
0.0763171
0.0814028
0.086325
0.0910639
0.0956045
0.099936
0.104051
0.107946
0.111619
0.115072
0.118306
0.121325
0.124135
0.126738
0.129141
0.131347
0.133359
0.135177
0.136801
0.138226
0.139443
0.140437
0.141188
0.141658
0.141812
0.141597
0.140926
0.139694
0.131228
0.119924
0.108608
0.0974534
0.0865908
0.0761239
0.0661353
0.0566926
0.0478525
0.0396647
0.0321753
0.0254258
0.0194679
0.0143466
0.0100968
0.0067347
0.00423407
0.0025057
0.00140082
0.000744994
0.000379851
0.00018691
8.97742e-05
4.22066e-05
1.94609e-05
8.82596e-06
3.94355e-06
1.73816e-06
7.56637e-07
3.25672e-07
1.38759e-07
5.85772e-08
2.4515e-08
1.01666e-08
4.16614e-09
1.67163e-09
6.3927e-10
2.13245e-10
3.76412e-11
4.43874e-07
1.93989e-06
4.45625e-06
8.67457e-06
1.57112e-05
2.73731e-05
4.65457e-05
7.77633e-05
0.000128022
0.000207886
0.000332917
0.000525359
0.000815896
0.00124505
0.00186352
0.00273069
0.00391051
0.00546493
0.00744603
0.00988887
0.0128073
0.0161934
0.0200204
0.0242469
0.0288214
0.033687
0.0387839
0.0440526
0.0494354
0.0548776
0.060329
0.0657441
0.071083
0.076311
0.0813992
0.0863236
0.0910647
0.0956074
0.0999406
0.104057
0.107953
0.111627
0.11508
0.118314
0.121333
0.124141
0.126743
0.129143
0.131346
0.133354
0.135167
0.136786
0.138205
0.139416
0.140404
0.141149
0.141615
0.141765
0.14155
0.140884
0.139669
0.130839
0.119515
0.108196
0.0970474
0.0861967
0.0757461
0.0657771
0.0563563
0.0475399
0.0393777
0.0319152
0.0251942
0.0192665
0.014177
0.00995988
0.00663017
0.00415962
0.00245661
0.00137085
0.000727899
0.000370611
0.00018212
8.7343e-05
4.10473e-05
1.89496e-05
8.60124e-06
3.84353e-06
1.69414e-06
7.37506e-07
3.1748e-07
1.35293e-07
5.71279e-08
2.39145e-08
9.91967e-09
4.0659e-09
1.63174e-09
6.24073e-10
2.08166e-10
3.67572e-11
4.43168e-07
1.93681e-06
4.44918e-06
8.6608e-06
1.56862e-05
2.73296e-05
4.64717e-05
7.76399e-05
0.000127819
0.00020756
0.000332401
0.00052456
0.000814687
0.00124326
0.00186096
0.00272714
0.00390574
0.00545877
0.00743836
0.00987967
0.0127967
0.0161815
0.0200075
0.0242333
0.0288075
0.0336731
0.0387704
0.0440398
0.0494235
0.0548669
0.0603197
0.0657364
0.0710768
0.0763064
0.0813961
0.0863219
0.0910643
0.0956081
0.0999424
0.10406
0.107956
0.11163
0.115083
0.118316
0.121334
0.124141
0.12674
0.129138
0.131338
0.133341
0.135151
0.136765
0.138178
0.139383
0.140366
0.141106
0.141568
0.141717
0.141504
0.140845
0.139647
0.130551
0.119209
0.107885
0.0967392
0.085898
0.0754607
0.0655073
0.0561039
0.0473062
0.0391637
0.031722
0.0250225
0.0191175
0.0140518
0.00985911
0.0065535
0.00410519
0.00242081
0.00134903
0.000715471
0.000363932
0.000178695
8.56534e-05
4.0233e-05
1.85606e-05
8.42392e-06
3.76726e-06
1.66166e-06
7.23803e-07
3.11725e-07
1.32889e-07
5.61281e-08
2.3503e-08
9.75047e-09
3.99718e-09
1.60433e-09
6.13617e-10
2.04673e-10
3.61489e-11
4.42708e-07
1.93479e-06
4.44456e-06
8.65181e-06
1.56699e-05
2.73012e-05
4.64235e-05
7.75595e-05
0.000127688
0.000207348
0.000332066
0.000524041
0.000813902
0.00124211
0.00185931
0.00272484
0.00390266
0.00545479
0.00743341
0.00987374
0.0127898
0.0161739
0.0199992
0.0242246
0.0287986
0.0336641
0.0387617
0.0440315
0.0494159
0.05486
0.0603137
0.0657313
0.0710727
0.0763031
0.0813935
0.0863199
0.0910629
0.0956072
0.0999418
0.104059
0.107956
0.11163
0.115082
0.118315
0.121331
0.124136
0.126734
0.129129
0.131325
0.133326
0.135131
0.136741
0.13815
0.13935
0.140329
0.141065
0.141525
0.141674
0.141464
0.140815
0.139632
0.130361
0.119
0.10767
0.0965263
0.0856922
0.075265
0.0653234
0.0559329
0.0471488
0.0390203
0.031593
0.0249084
0.0190189
0.0139692
0.00979293
0.00650339
0.00406979
0.00239763
0.00133491
0.000707423
0.000359605
0.000176476
8.4586e-05
3.97242e-05
1.83265e-05
8.31632e-06
3.71875e-06
1.64011e-06
7.14566e-07
3.07794e-07
1.31271e-07
5.54606e-08
2.32314e-08
9.63974e-09
3.95273e-09
1.58673e-09
6.06931e-10
2.02454e-10
3.57632e-11
4.42483e-07
1.93381e-06
4.44231e-06
8.64745e-06
1.56621e-05
2.72876e-05
4.64003e-05
7.7521e-05
0.000127625
0.000207247
0.000331907
0.000523795
0.00081353
0.00124156
0.00185852
0.00272375
0.0039012
0.00545291
0.00743107
0.00987094
0.0127866
0.0161702
0.0199953
0.0242204
0.0287943
0.0336599
0.0387575
0.0440276
0.0494122
0.0548567
0.0603108
0.0657288
0.0710706
0.0763014
0.0813921
0.0863186
0.0910615
0.0956058
0.0999404
0.104058
0.107954
0.111628
0.115079
0.118311
0.121327
0.124131
0.126727
0.12912
0.131315
0.133313
0.135116
0.136722
0.138128
0.139326
0.140302
0.141036
0.141497
0.14165
0.141453
0.140828
0.139696
0.130268
0.11889
0.107555
0.0964125
0.0855831
0.0751623
0.0652281
0.0558452
0.0470688
0.0389482
0.0315288
0.0248522
0.0189708
0.0139293
0.00976116
0.00647953
0.00405309
0.0023868
0.00132837
0.000703705
0.000357607
0.00017545
8.40963e-05
3.9491e-05
1.82202e-05
8.26763e-06
3.69717e-06
1.63053e-06
7.10443e-07
3.06018e-07
1.30519e-07
5.51438e-08
2.31009e-08
9.586e-09
3.93097e-09
1.5781e-09
6.03646e-10
2.01364e-10
3.55737e-11
4.42484e-07
1.93382e-06
4.44232e-06
8.64747e-06
1.56621e-05
2.72876e-05
4.64004e-05
7.75211e-05
0.000127625
0.000207248
0.000331907
0.000523796
0.000813531
0.00124156
0.00185852
0.00272375
0.00390121
0.00545292
0.00743108
0.00987095
0.0127866
0.0161703
0.0199953
0.0242204
0.0287943
0.0336599
0.0387576
0.0440276
0.0494122
0.0548568
0.0603108
0.0657288
0.0710706
0.0763014
0.0813921
0.0863187
0.0910616
0.0956058
0.0999404
0.104058
0.107954
0.111628
0.115079
0.118311
0.121327
0.124131
0.126727
0.12912
0.131315
0.133313
0.135116
0.136722
0.138128
0.139326
0.140302
0.141036
0.141497
0.14165
0.141453
0.140828
0.139696
0.130268
0.11889
0.107555
0.0964126
0.0855832
0.0751623
0.0652281
0.0558452
0.0470689
0.0389482
0.0315288
0.0248522
0.0189708
0.0139293
0.00976118
0.00647954
0.0040531
0.00238681
0.00132837
0.000703708
0.000357608
0.000175451
8.40963e-05
3.94908e-05
1.82198e-05
8.2674e-06
3.69701e-06
1.63043e-06
7.10386e-07
3.05989e-07
1.30504e-07
5.51368e-08
2.30976e-08
9.58466e-09
3.93036e-09
1.57786e-09
6.03551e-10
2.01332e-10
3.55679e-11
4.4271e-07
1.9348e-06
4.44458e-06
8.65186e-06
1.567e-05
2.73014e-05
4.64238e-05
7.75599e-05
0.000127688
0.000207349
0.000332068
0.000524044
0.000813906
0.00124211
0.00185931
0.00272485
0.00390267
0.00545481
0.00743343
0.00987377
0.0127898
0.0161739
0.0199993
0.0242246
0.0287986
0.0336642
0.0387617
0.0440316
0.0494159
0.0548601
0.0603137
0.0657313
0.0710727
0.0763031
0.0813935
0.08632
0.091063
0.0956072
0.0999418
0.104059
0.107956
0.11163
0.115082
0.118315
0.121331
0.124136
0.126734
0.129129
0.131325
0.133326
0.135131
0.136741
0.13815
0.13935
0.140329
0.141065
0.141525
0.141674
0.141464
0.140815
0.139632
0.130361
0.119
0.10767
0.0965264
0.0856923
0.075265
0.0653235
0.055933
0.0471488
0.0390204
0.031593
0.0249085
0.019019
0.0139693
0.00979298
0.00650343
0.00406982
0.00239765
0.00133493
0.000707432
0.00035961
0.000176479
8.45866e-05
3.97241e-05
1.83261e-05
8.31608e-06
3.7185e-06
1.63993e-06
7.14447e-07
3.0773e-07
1.31237e-07
5.54439e-08
2.32234e-08
9.63646e-09
3.95122e-09
1.58614e-09
6.06696e-10
2.02373e-10
3.57485e-11
4.43173e-07
1.93682e-06
4.44922e-06
8.66088e-06
1.56864e-05
2.73299e-05
4.64722e-05
7.76406e-05
0.000127821
0.000207562
0.000332404
0.000524565
0.000814694
0.00124327
0.00186098
0.00272716
0.00390577
0.0054588
0.0074384
0.00987972
0.0127967
0.0161816
0.0200076
0.0242334
0.0288076
0.0336731
0.0387704
0.0440398
0.0494235
0.054867
0.0603198
0.0657364
0.0710769
0.0763065
0.0813961
0.0863219
0.0910644
0.0956082
0.0999424
0.10406
0.107956
0.11163
0.115083
0.118316
0.121334
0.124141
0.12674
0.129138
0.131338
0.133341
0.135151
0.136765
0.138178
0.139384
0.140366
0.141106
0.141568
0.141717
0.141504
0.140845
0.139647
0.130551
0.119209
0.107885
0.0967394
0.0858982
0.0754608
0.0655075
0.0561041
0.0473064
0.0391639
0.0317221
0.0250226
0.0191177
0.0140519
0.00985921
0.00655358
0.00410525
0.00242085
0.00134905
0.000715486
0.00036394
0.000178699
8.56556e-05
4.02343e-05
1.85621e-05
8.42632e-06
3.76771e-06
1.66163e-06
7.23716e-07
3.11664e-07
1.32853e-07
5.61098e-08
2.34941e-08
9.74678e-09
3.99551e-09
1.60364e-09
6.13342e-10
2.04578e-10
3.61317e-11
4.4388e-07
1.93991e-06
4.45631e-06
8.67468e-06
1.57114e-05
2.73735e-05
4.65463e-05
7.77643e-05
0.000128023
0.000207889
0.000332921
0.000525365
0.000815905
0.00124506
0.00186354
0.00273072
0.00391054
0.00546497
0.00744608
0.00988893
0.0128074
0.0161935
0.0200205
0.024247
0.0288215
0.0336871
0.038784
0.0440527
0.0494355
0.0548777
0.0603291
0.0657442
0.0710831
0.0763111
0.0813992
0.0863237
0.0910648
0.0956074
0.0999407
0.104057
0.107953
0.111627
0.11508
0.118314
0.121333
0.124141
0.126743
0.129143
0.131346
0.133354
0.135167
0.136786
0.138205
0.139416
0.140404
0.141149
0.141615
0.141765
0.14155
0.140884
0.139669
0.130839
0.119515
0.108197
0.0970476
0.0861969
0.0757464
0.0657773
0.0563565
0.0475402
0.0393779
0.0319155
0.0251944
0.0192667
0.0141771
0.00996003
0.00663029
0.0041597
0.00245666
0.00137089
0.000727919
0.000370622
0.000182125
8.73448e-05
4.10471e-05
1.8948e-05
8.59829e-06
3.84246e-06
1.69371e-06
7.37335e-07
3.17406e-07
1.35261e-07
5.71128e-08
2.39074e-08
9.91687e-09
4.06462e-09
1.63122e-09
6.2387e-10
2.08099e-10
3.67446e-11
4.44844e-07
1.94412e-06
4.46598e-06
8.69352e-06
1.57455e-05
2.7433e-05
4.66476e-05
7.79333e-05
0.000128301
0.000208336
0.000333629
0.000526463
0.000817569
0.00124752
0.00186707
0.00273562
0.00391712
0.0054735
0.00745671
0.0099017
0.0128222
0.0162101
0.0200386
0.024266
0.0288411
0.0337067
0.0388032
0.0440709
0.0494523
0.0548928
0.0603422
0.0657551
0.0710916
0.0763172
0.0814029
0.0863251
0.091064
0.0956046
0.099936
0.104051
0.107946
0.111619
0.115072
0.118306
0.121325
0.124135
0.126738
0.129141
0.131347
0.133359
0.135177
0.136801
0.138226
0.139443
0.140437
0.141188
0.141658
0.141812
0.141597
0.140926
0.139694
0.131228
0.119924
0.108608
0.0974536
0.086591
0.0761241
0.0661356
0.0566929
0.0478528
0.0396651
0.0321756
0.0254261
0.0194682
0.0143469
0.010097
0.00673486
0.00423418
0.00250577
0.00140087
0.00074502
0.000379865
0.000186917
8.97773e-05
4.22075e-05
1.94609e-05
8.82578e-06
3.94352e-06
1.73817e-06
7.56643e-07
3.25676e-07
1.3876e-07
5.85767e-08
2.45144e-08
1.01663e-08
4.1659e-09
1.67152e-09
6.3922e-10
2.13228e-10
3.76372e-11
4.46084e-07
1.94954e-06
4.47841e-06
8.71774e-06
1.57894e-05
2.75097e-05
4.67781e-05
7.81513e-05
0.000128659
0.000208914
0.000334545
0.000527885
0.000819728
0.00125071
0.00187166
0.00274201
0.00392572
0.00548465
0.00747064
0.00991847
0.0128417
0.016232
0.0200624
0.0242913
0.0288672
0.0337329
0.0388289
0.0440955
0.0494752
0.0549135
0.0603602
0.0657701
0.0711034
0.0763256
0.081408
0.0863267
0.0910624
0.0955999
0.0999286
0.104041
0.107934
0.111606
0.115057
0.118291
0.12131
0.124121
0.126726
0.129131
0.13134
0.133355
0.135178
0.136807
0.138238
0.139461
0.140462
0.141219
0.141696
0.141854
0.14164
0.140966
0.139721
0.13172
0.120433
0.109122
0.0979618
0.0870856
0.0765997
0.066588
0.0571189
0.0482496
0.0400303
0.0325071
0.0257219
0.0197257
0.0145642
0.0102729
0.00686942
0.00433032
0.00256939
0.00143996
0.000767641
0.000392524
0.00019337
9.27235e-05
4.35505e-05
2.00905e-05
9.11682e-06
4.07495e-06
1.79631e-06
7.81947e-07
3.3654e-07
1.43368e-07
6.05116e-08
2.53191e-08
1.04978e-08
4.30096e-09
1.72538e-09
6.59724e-10
2.20078e-10
3.88297e-11
4.47619e-07
1.95624e-06
4.49382e-06
8.74775e-06
1.58439e-05
2.76048e-05
4.69403e-05
7.84225e-05
0.000129105
0.000209635
0.000335689
0.000529665
0.000822434
0.00125472
0.00187743
0.00275007
0.00393658
0.00549876
0.00748832
0.00993982
0.0128665
0.0162601
0.0200931
0.024324
0.028901
0.0337671
0.0388626
0.0441279
0.0495056
0.0549411
0.0603846
0.0657907
0.0711199
0.0763377
0.0814156
0.0863299
0.0910612
0.0955946
0.0999193
0.104028
0.107918
0.111587
0.115037
0.118269
0.121288
0.124099
0.126705
0.129112
0.131324
0.133342
0.135169
0.136803
0.13824
0.139469
0.140477
0.141241
0.141725
0.141888
0.141677
0.141002
0.139746
0.132327
0.121059
0.109755
0.0985843
0.0876911
0.0771823
0.0671432
0.0576426
0.0487382
0.0404807
0.0329163
0.0260873
0.0200443
0.0148335
0.0104911
0.00703683
0.00445035
0.00264924
0.00148939
0.000796564
0.00040703
0.000200357
9.61799e-05
4.52339e-05
2.08829e-05
9.47981e-06
4.23793e-06
1.86832e-06
8.13294e-07
3.50009e-07
1.49089e-07
6.29172e-08
2.63212e-08
1.09115e-08
4.4698e-09
1.79288e-09
6.8548e-10
2.28693e-10
4.03309e-11
4.49469e-07
1.96432e-06
4.51239e-06
8.78398e-06
1.59097e-05
2.77199e-05
4.71367e-05
7.87514e-05
0.000129646
0.000210512
0.000337083
0.000531838
0.000825745
0.00125964
0.00188453
0.00276
0.00395
0.00551626
0.00751031
0.00996646
0.0128977
0.0162954
0.0201319
0.0243654
0.0289441
0.0338109
0.0389061
0.0441701
0.0495455
0.0549779
0.0604174
0.065819
0.0711431
0.0763555
0.0814278
0.0863364
0.0910621
0.09559
0.0999097
0.104014
0.1079
0.111565
0.115012
0.118242
0.12126
0.124069
0.126676
0.129084
0.131297
0.133319
0.13515
0.136789
0.138231
0.139467
0.140482
0.141253
0.141743
0.141912
0.141706
0.141031
0.139769
0.133061
0.121807
0.110502
0.0993287
0.0884165
0.0778826
0.0678124
0.0582751
0.049329
0.0410255
0.0334115
0.0265299
0.0204305
0.0151603
0.0107566
0.00724138
0.00459792
0.00274835
0.00155173
0.000829321
0.000424067
0.000209239
0.000100583
4.73356e-05
2.18615e-05
9.92655e-06
4.43824e-06
1.95669e-06
8.5172e-07
3.66504e-07
1.5609e-07
6.58589e-08
2.75463e-08
1.14172e-08
4.67617e-09
1.87539e-09
7.16989e-10
2.39237e-10
4.21681e-11
4.51652e-07
1.97387e-06
4.53434e-06
8.8268e-06
1.59876e-05
2.78563e-05
4.73697e-05
7.91424e-05
0.000130291
0.000211558
0.000338751
0.000534444
0.000829726
0.00126557
0.00189312
0.00277204
0.00396633
0.00553762