/*--------------------------------*- C++ -*----------------------------------*\
  =========                 |
  \\      /  F ield         | OpenFOAM: The Open Source CFD Toolbox
   \\    /   O peration     | Website:  https://openfoam.org
    \\  /    A nd           | Version:  8
     \\/     M anipulation  |
\*---------------------------------------------------------------------------*/
FoamFile
{
    version     2.0;
    format      ascii;
    class       volScalarField;
    location    "860/fluid";
    object      H2O;
}
// * * * * * * * * * * * * * * * * * * * * * * * * * * * * * * * * * * * * * //

dimensions      [0 0 0 0 0 0 0];

internalField   nonuniform List<scalar> 
4000
(
3.88213e-07
1.69636e-06
3.89594e-06
7.58283e-06
1.37364e-05
2.39502e-05
4.0787e-05
6.83091e-05
0.000112847
0.000184063
0.000296341
0.000470442
0.000735195
0.00112873
0.0016985
0.00249921
0.00358803
0.00501745
0.00682754
0.00903983
0.011655
0.0146542
0.0180031
0.021657
0.0255653
0.029675
0.0339336
0.0382909
0.0427
0.0471182
0.0515078
0.0558355
0.0600735
0.0641985
0.0681921
0.0720396
0.0757298
0.0792548
0.0826099
0.0857928
0.0888035
0.0916434
0.0943154
0.0968234
0.0991718
0.101365
0.103409
0.105308
0.107065
0.108684
0.110166
0.111513
0.11272
0.113784
0.114695
0.115439
0.115996
0.11633
0.116411
0.116183
0.115568
0.114461
0.112203
0.103576
0.0948065
0.0860417
0.0773949
0.0689554
0.0607946
0.0529705
0.0455321
0.0385227
0.0319829
0.0259833
0.020501
0.0156231
0.0114017
0.00788881
0.00512259
0.00309854
0.00174287
0.000916233
0.000454436
0.00021612
9.98572e-05
4.50952e-05
1.999e-05
8.72613e-06
3.76048e-06
1.60305e-06
6.77118e-07
2.83788e-07
1.1814e-07
4.88788e-08
2.00883e-08
8.17684e-09
3.26622e-09
1.2465e-09
4.16221e-10
7.29759e-11
3.8862e-07
1.69854e-06
3.90269e-06
7.60072e-06
1.37784e-05
2.40393e-05
4.09581e-05
6.8606e-05
0.000113304
0.000184656
0.00029688
0.000470391
0.000733413
0.00112308
0.00168552
0.00247393
0.00354418
0.0049482
0.00672656
0.00890252
0.0114793
0.0144408
0.0177554
0.0213805
0.0252666
0.0293614
0.0336125
0.037969
0.0423834
0.0468122
0.0512163
0.0555618
0.0598199
0.0639665
0.0679824
0.0718525
0.0755649
0.0791115
0.0824872
0.0856896
0.0887183
0.0915749
0.094262
0.0967836
0.0991441
0.101348
0.103402
0.105308
0.107072
0.108697
0.110184
0.111534
0.112745
0.113811
0.114723
0.115468
0.116024
0.116358
0.116437
0.116205
0.115585
0.114469
0.111517
0.102834
0.0940199
0.0852186
0.0765417
0.0680779
0.0598983
0.0520617
0.0446181
0.0376123
0.0310873
0.0251178
0.0196834
0.0148766
0.010751
0.00735719
0.00472456
0.00283148
0.00158464
0.000833601
0.000416077
0.000199597
9.3158e-05
4.25068e-05
1.90263e-05
8.37638e-06
3.63518e-06
1.55813e-06
6.60769e-07
2.77672e-07
1.15773e-07
4.79311e-08
1.96996e-08
8.01585e-09
3.20027e-09
1.22069e-09
4.07426e-10
7.14578e-11
3.89546e-07
1.7028e-06
3.91348e-06
7.62405e-06
1.38246e-05
2.41243e-05
4.11033e-05
6.88347e-05
0.000113629
0.000185046
0.000297196
0.00047024
0.00073189
0.0011186
0.00167553
0.00245475
0.00351098
0.00489526
0.00664791
0.00879275
0.0113343
0.0142586
0.0175362
0.0211266
0.0249822
0.0290523
0.0332852
0.0376305
0.0420404
0.0464711
0.050883
0.0552413
0.0595163
0.063683
0.0677215
0.0716157
0.0753532
0.0789252
0.082326
0.0855528
0.0886049
0.0914834
0.094191
0.0967314
0.0991091
0.101329
0.103396
0.105314
0.107088
0.108722
0.110216
0.111572
0.112787
0.113856
0.11477
0.115515
0.11607
0.116401
0.116475
0.116235
0.115602
0.114467
0.110306
0.101583
0.0927327
0.0839014
0.0752037
0.0667299
0.0585527
0.0507322
0.0433203
0.0363637
0.0299073
0.0240173
0.0186974
0.0140274
0.0100568
0.00682734
0.00435377
0.00259685
0.00145085
0.000764259
0.00038292
0.000184519
8.65541e-05
3.96988e-05
1.78605e-05
7.90123e-06
3.44406e-06
1.48189e-06
6.3045e-07
2.65605e-07
1.1095e-07
4.59926e-08
1.89168e-08
7.69983e-09
3.07418e-09
1.1724e-09
3.91195e-10
6.86196e-11
3.89143e-07
1.70102e-06
3.90926e-06
7.61517e-06
1.38059e-05
2.40833e-05
4.10114e-05
6.86288e-05
0.000113178
0.000184098
0.000295295
0.000466626
0.000725395
0.00110745
0.00165722
0.00242598
0.00346775
0.00483323
0.00656283
0.00868103
0.0111935
0.0140876
0.0173353
0.0208976
0.0247282
0.0287772
0.0329937
0.0373277
0.0417318
0.046162
0.0505785
0.054946
0.0592342
0.0634177
0.0674756
0.0713913
0.0751517
0.0787475
0.0821723
0.0854228
0.088498
0.0913987
0.0941272
0.0966871
0.0990829
0.101319
0.1034
0.105331
0.107116
0.108758
0.11026
0.111621
0.112839
0.11391
0.114824
0.115567
0.116118
0.116441
0.116505
0.116252
0.115599
0.114437
0.108803
0.100065
0.0911984
0.0823558
0.0736564
0.0651936
0.0570424
0.0492646
0.0419133
0.0350365
0.0286805
0.0228877
0.017706
0.0131874
0.0093774
0.00631042
0.00398963
0.00236227
0.00131316
0.000690139
0.000345866
0.000166996
7.85661e-05
3.6161e-05
1.63299e-05
7.2519e-06
3.17304e-06
1.37024e-06
5.84916e-07
2.47169e-07
1.03522e-07
4.30101e-08
1.77229e-08
7.22451e-09
2.88761e-09
1.10204e-09
3.67841e-10
6.45576e-11
3.8762e-07
1.69429e-06
3.89344e-06
7.58328e-06
1.37453e-05
2.39709e-05
4.0805e-05
6.82523e-05
0.000112496
0.000182877
0.000293139
0.000462889
0.000719066
0.00109702
0.00164058
0.00240035
0.00342981
0.00477934
0.00648946
0.00858519
0.0110731
0.0139417
0.0171644
0.020703
0.0245125
0.0285436
0.0327461
0.0370705
0.0414694
0.045899
0.050319
0.0546941
0.0589935
0.0631911
0.0672657
0.0712002
0.0749808
0.0785976
0.0820439
0.0853159
0.0884121
0.091333
0.0940808
0.096659
0.0990712
0.101322
0.103416
0.105358
0.107153
0.108803
0.11031
0.111675
0.112895
0.113965
0.114876
0.115613
0.116155
0.116465
0.116513
0.116238
0.115555
0.114358
0.10722
0.0984918
0.089622
0.0807781
0.0720868
0.063646
0.0555328
0.0478099
0.0405305
0.0337426
0.0275022
0.0218286
0.0167837
0.012414
0.00875948
0.00584684
0.00366793
0.00215796
0.00119453
0.000626631
0.000314091
0.000151878
7.1607e-05
3.30385e-05
1.49573e-05
6.65858e-06
2.92011e-06
1.26366e-06
5.40434e-07
2.2875e-07
9.59441e-08
3.99094e-08
1.64615e-08
6.71557e-09
2.68571e-09
1.02531e-09
3.42241e-10
6.0089e-11
3.85222e-07
1.6837e-06
3.86865e-06
7.53371e-06
1.36523e-05
2.38019e-05
4.05034e-05
6.77212e-05
0.000111572
0.000181291
0.000290458
0.000458444
0.000711862
0.00108565
0.00162315
0.00237451
0.00339286
0.00472846
0.00642202
0.00849908
0.010967
0.0138152
0.0170178
0.0205379
0.0243308
0.0283481
0.0325401
0.0368573
0.0412528
0.0456824
0.0501061
0.0544882
0.0587974
0.0630075
0.0670967
0.0710474
0.0748455
0.0784806
0.0819456
0.0852363
0.0883508
0.0912895
0.0940545
0.0966481
0.0990742
0.101338
0.103443
0.105395
0.107197
0.108852
0.110362
0.111728
0.112946
0.114012
0.114915
0.115641
0.116168
0.116458
0.116484
0.116181
0.115469
0.114251
0.10587
0.0970956
0.0881838
0.0793149
0.0706199
0.0621967
0.0541213
0.0464547
0.0392484
0.0325482
0.0264223
0.0208636
0.0159487
0.0117186
0.00820742
0.00543467
0.00338254
0.00197635
0.00108831
0.000569026
0.000284768
0.0001377
6.49749e-05
3.00186e-05
1.36129e-05
6.07135e-06
2.66776e-06
1.15669e-06
4.95608e-07
2.1014e-07
8.82775e-08
3.67713e-08
1.5185e-08
6.20077e-09
2.48157e-09
9.47748e-10
3.16373e-10
5.55729e-11
3.82445e-07
1.6715e-06
3.84033e-06
7.47767e-06
1.35486e-05
2.36166e-05
4.01792e-05
6.71621e-05
0.000110621
0.000179694
0.00028782
0.00045416
0.00070505
0.00107507
0.00160719
0.00235117
0.00335987
0.0046835
0.006363
0.00842438
0.0108757
0.0137071
0.0168937
0.020399
0.024179
0.0281859
0.0323701
0.0366825
0.0410761
0.0455069
0.0499347
0.0543234
0.0586418
0.0628631
0.0669651
0.0709301
0.0747435
0.0783945
0.0818756
0.0851823
0.0883127
0.0912668
0.0940455
0.0966519
0.0990899
0.101364
0.103478
0.105437
0.107244
0.108902
0.110413
0.111777
0.11299
0.114047
0.114936
0.115643
0.116144
0.116399
0.116383
0.116028
0.115257
0.113994
0.105108
0.0960504
0.0869814
0.0780324
0.0693079
0.060891
0.0528487
0.0452363
0.0381003
0.0314842
0.0254524
0.0199986
0.015203
0.0111008
0.00772177
0.00507517
0.00313567
0.00182044
0.000997629
0.000519989
0.000259795
0.000125586
5.92777e-05
2.74059e-05
1.24399e-05
5.55429e-06
2.44343e-06
1.0607e-06
4.55017e-07
1.93149e-07
8.12262e-08
3.38667e-08
1.39973e-08
5.71962e-09
2.2901e-09
8.74807e-10
2.92016e-10
5.13177e-11
3.7956e-07
1.65885e-06
3.81103e-06
7.41995e-06
1.34424e-05
2.3428e-05
3.98513e-05
6.66016e-05
0.000109677
0.000178126
0.000285258
0.000450053
0.000698605
0.00106521
0.0015925
0.00232997
0.00333031
0.00464372
0.00631138
0.00835976
0.0107975
0.0136155
0.0167892
0.020283
0.0240533
0.0280524
0.0322312
0.0365407
0.0409339
0.0453667
0.0497988
0.0541941
0.0585209
0.0627523
0.0668658
0.0708433
0.0746699
0.0783346
0.0818295
0.0851499
0.0882937
0.09126
0.0940502
0.0966673
0.0991149
0.101397
0.103518
0.105482
0.107292
0.108952
0.110462
0.111822
0.113027
0.114072
0.114944
0.115625
0.116086
0.116288
0.11619
0.115713
0.114752
0.113196
0.104152
0.0949753
0.0858305
0.0768431
0.0681109
0.0597117
0.0517085
0.0441538
0.0370935
0.0305671
0.0246348
0.0192815
0.0145804
0.0105738
0.0073003
0.00476365
0.00292294
0.00168661
0.000919857
0.000477828
0.000238216
0.000115061
5.42981e-05
2.51091e-05
1.14031e-05
5.09503e-06
2.2433e-06
9.74733e-07
4.18548e-07
1.77841e-07
7.48578e-08
3.12382e-08
1.29206e-08
5.28286e-09
2.11609e-09
8.08473e-10
2.69878e-10
4.74507e-11
3.76766e-07
1.64661e-06
3.78277e-06
7.36446e-06
1.33407e-05
2.32483e-05
3.9541e-05
6.60746e-05
0.000108795
0.000176674
0.000282906
0.000446315
0.00069279
0.00105638
0.00157947
0.00231132
0.0033045
0.00460925
0.00626699
0.00830459
0.0107312
0.0135383
0.016702
0.0201868
0.0239497
0.0279433
0.0321185
0.0364265
0.0408203
0.0452557
0.0496924
0.054094
0.0584286
0.0626691
0.0667928
0.0707812
0.0746193
0.0782956
0.0818023
0.0851343
0.0882887
0.0912651
0.094065
0.0966907
0.0991458
0.101434
0.10356
0.105528
0.10734
0.109
0.110508
0.111864
0.113062
0.114097
0.114954
0.115615
0.116047
0.116212
0.116062
0.115508
0.114435
0.11233
0.103174
0.0939274
0.0847451
0.0757459
0.0670233
0.0586518
0.0506916
0.0431932
0.0362009
0.0297562
0.023916
0.0186813
0.0140855
0.0101706
0.00696361
0.00450373
0.00274361
0.00157367
0.000854209
0.000442215
0.000219957
0.000106132
5.00605e-05
2.31472e-05
1.0514e-05
4.69955e-06
2.07026e-06
9.0011e-07
3.8677e-07
1.64456e-07
6.92726e-08
2.89268e-08
1.19716e-08
4.89718e-09
1.9622e-09
7.49789e-10
2.50289e-10
4.40271e-11
3.74166e-07
1.63523e-06
3.75654e-06
7.31306e-06
1.32468e-05
2.30828e-05
3.92563e-05
6.55931e-05
0.000107993
0.00017536
0.00028079
0.000442972
0.000687624
0.00104859
0.00156805
0.00229509
0.00328219
0.00457966
0.00622914
0.00825787
0.0106755
0.0134738
0.0166295
0.0201075
0.023865
0.0278547
0.0320277
0.0363353
0.0407304
0.0451688
0.0496101
0.0540175
0.0583593
0.0626079
0.0667405
0.0707384
0.0745863
0.0782726
0.0817892
0.0851304
0.0882937
0.0912786
0.0940861
0.0967187
0.0991796
0.101473
0.103602
0.105572
0.107386
0.109045
0.110551
0.111903
0.113097
0.114124
0.114973
0.115623
0.116044
0.116198
0.116041
0.11549
0.114446
0.111388
0.102197
0.0929312
0.0837442
0.0747545
0.0660547
0.0577174
0.0498013
0.0423554
0.0354262
0.0290549
0.0232587
0.0180721
0.0135571
0.00974544
0.00666221
0.00428393
0.00258938
0.00147694
0.000798278
0.000411951
0.000204448
9.85429e-05
4.64533e-05
2.1474e-05
9.75414e-06
4.3608e-06
1.92171e-06
8.35907e-07
3.59374e-07
1.52894e-07
6.44397e-08
2.69235e-08
1.11479e-08
4.56204e-09
1.8285e-09
6.98803e-10
2.33261e-10
4.1048e-11
3.7182e-07
1.62498e-06
3.73291e-06
7.26685e-06
1.31625e-05
2.29348e-05
3.90022e-05
6.51649e-05
0.000107283
0.000174201
0.000278932
0.00044005
0.000683128
0.00104185
0.00155821
0.00228118
0.00326317
0.00455457
0.00619722
0.00821869
0.010629
0.0134204
0.0165699
0.0200427
0.0237961
0.0277832
0.0319551
0.0362629
0.0406598
0.0451014
0.0495469
0.0539599
0.0583081
0.0625639
0.0667043
0.0707103
0.0745665
0.0782612
0.0817857
0.0851346
0.0883053
0.0912969
0.0941105
0.0967483
0.0992136
0.10151
0.103642
0.105613
0.107427
0.109086
0.11059
0.111939
0.113128
0.11415
0.114992
0.115636
0.116049
0.116198
0.116037
0.115487
0.114448
0.110467
0.101268
0.0920023
0.082824
0.0738529
0.0651821
0.0568828
0.0490128
0.0416195
0.0347425
0.0284063
0.0226627
0.0175508
0.013112
0.00937912
0.00637432
0.00409161
0.00246184
0.00139513
0.000751023
0.00038643
0.000191381
9.2149e-05
4.34122e-05
2.00618e-05
9.11184e-06
4.07399e-06
1.79572e-06
7.81356e-07
3.36055e-07
1.43036e-07
6.03128e-08
2.52105e-08
1.04429e-08
4.275e-09
1.71388e-09
6.55103e-10
2.18654e-10
3.84948e-11
3.69753e-07
1.61594e-06
3.71211e-06
7.22622e-06
1.30885e-05
2.2805e-05
3.878e-05
6.47914e-05
0.000106665
0.000173196
0.000277326
0.000437533
0.000679273
0.00103609
0.00154984
0.0022694
0.00324714
0.00453352
0.00617056
0.00818613
0.0105906
0.0133765
0.0165212
0.01999
0.0237406
0.027726
0.0318974
0.036206
0.0406048
0.0450494
0.0494991
0.053917
0.0582708
0.0625329
0.0666799
0.0706928
0.0745561
0.0782575
0.0817885
0.0851438
0.0883203
0.0913172
0.0941354
0.0967772
0.0992456
0.101545
0.103678
0.10565
0.107463
0.10912
0.110622
0.111968
0.113153
0.114169
0.115006
0.115643
0.116051
0.116194
0.116029
0.115478
0.114441
0.109645
0.100441
0.0911834
0.0820251
0.0730845
0.0644432
0.0561735
0.048333
0.0409694
0.0341218
0.0278383
0.0221527
0.0171041
0.0127319
0.00906757
0.00613088
0.00391179
0.00235084
0.00132744
0.000711156
0.000364918
0.000180402
8.6784e-05
4.08618e-05
1.88773e-05
8.57283e-06
3.83311e-06
1.68979e-06
7.35438e-07
3.16402e-07
1.34718e-07
5.68263e-08
2.37618e-08
9.8461e-09
4.03181e-09
1.61671e-09
6.18038e-10
2.06251e-10
3.63333e-11
3.67966e-07
1.60813e-06
3.69416e-06
7.19118e-06
1.30248e-05
2.26935e-05
3.85894e-05
6.44715e-05
0.000106138
0.00017234
0.000275961
0.000435401
0.000676016
0.00103124
0.00154282
0.00225954
0.00323378
0.00451604
0.00614853
0.00815934
0.0105591
0.0133407
0.0164816
0.0199476
0.0236961
0.0276805
0.0318519
0.0361615
0.0405623
0.0450098
0.0494631
0.0538853
0.0582441
0.0625114
0.0666641
0.0706827
0.0745517
0.0782586
0.0817951
0.0851553
0.0883364
0.0913374
0.094159
0.0968035
0.099274
0.101574
0.103708
0.10568
0.107492
0.109147
0.110646
0.111988
0.113169
0.11418
0.115011
0.115643
0.116044
0.116183
0.116014
0.115461
0.114427
0.108936
0.0997232
0.0904676
0.0813205
0.0723869
0.0637626
0.0555178
0.0477095
0.0403854
0.033587
0.0273533
0.0217193
0.0167258
0.0124112
0.00880606
0.00592821
0.0037641
0.00224993
0.00127032
0.000678916
0.000347157
0.00017129
8.23401e-05
3.87503e-05
1.78965e-05
8.12614e-06
3.63326e-06
1.60179e-06
6.97239e-07
3.0003e-07
1.27779e-07
5.39138e-08
2.25502e-08
9.34644e-09
3.82804e-09
1.53525e-09
5.86947e-10
1.95844e-10
3.45206e-11
3.66453e-07
1.60152e-06
3.67896e-06
7.16154e-06
1.2971e-05
2.25993e-05
3.84287e-05
6.42024e-05
0.000105695
0.000171622
0.00027482
0.000433623
0.000673306
0.00102721
0.00153701
0.00225142
0.00322279
0.00450173
0.00613054
0.00813755
0.0105336
0.0133119
0.0164499
0.0199137
0.0236609
0.0276447
0.0318163
0.036127
0.0405296
0.0449797
0.0494362
0.0538622
0.0582251
0.0624969
0.0666541
0.0706775
0.0745509
0.0782623
0.081803
0.0851671
0.0883517
0.0913556
0.0941796
0.096826
0.0992977
0.101598
0.103732
0.105703
0.107513
0.109166
0.110662
0.112
0.113176
0.114182
0.115007
0.115633
0.116029
0.116162
0.11599
0.115437
0.114409
0.108335
0.0991101
0.0898554
0.0807104
0.0717921
0.0631886
0.0549694
0.0471912
0.0399012
0.0331407
0.0269478
0.021357
0.0164097
0.0121437
0.0085887
0.00576078
0.00364332
0.00216881
0.00121929
0.000652106
0.000333214
0.000164022
7.8737e-05
3.70302e-05
1.70955e-05
7.76051e-06
3.46932e-06
1.52947e-06
6.65791e-07
2.8653e-07
1.22049e-07
5.15063e-08
2.15476e-08
8.93262e-09
3.65916e-09
1.46772e-09
5.61163e-10
1.87215e-10
3.30172e-11
3.65198e-07
1.59604e-06
3.66637e-06
7.13699e-06
1.29264e-05
2.25215e-05
3.82961e-05
6.39806e-05
0.00010533
0.000171033
0.000273884
0.000432167
0.000671093
0.00102393
0.00153229
0.00224483
0.00321391
0.00449018
0.00611608
0.00812008
0.0105133
0.0132889
0.0164248
0.019887
0.0236332
0.0276167
0.0317887
0.0361005
0.0405048
0.044957
0.0494162
0.0538453
0.0582116
0.062487
0.0666479
0.0706749
0.0745519
0.0782668
0.0818106
0.0851776
0.0883646
0.0913706
0.0941962
0.0968436
0.0993158
0.101616
0.103749
0.105719
0.107527
0.109177
0.110669
0.112003
0.113174
0.114175
0.114995
0.115615
0.116005
0.116134
0.11596
0.115407
0.114388
0.107838
0.0985971
0.0893376
0.0802005
0.0712962
0.0627113
0.0545147
0.0467624
0.0395012
0.0327721
0.0266129
0.0210579
0.016149
0.0119234
0.00841011
0.00562377
0.00354507
0.00210346
0.00117883
0.000628433
0.000321341
0.000158303
7.59086e-05
3.56528e-05
1.64471e-05
7.46343e-06
3.33594e-06
1.47055e-06
6.4014e-07
2.75508e-07
1.17368e-07
4.95382e-08
2.07277e-08
8.59418e-09
3.52106e-09
1.41252e-09
5.401e-10
1.80171e-10
3.17896e-11
3.64184e-07
1.59161e-06
3.6562e-06
7.11719e-06
1.28905e-05
2.24588e-05
3.81894e-05
6.38023e-05
0.000105037
0.00017056
0.000273135
0.000431004
0.000669328
0.00102132
0.00152853
0.0022396
0.00320688
0.00448106
0.00610469
0.00810637
0.0104973
0.013271
0.0164053
0.0198663
0.0236119
0.0275953
0.0317677
0.0360804
0.0404861
0.0449402
0.0494015
0.053833
0.058202
0.0624801
0.0666438
0.0706735
0.0745532
0.0782706
0.0818167
0.0851857
0.0883744
0.0913816
0.0942081
0.0968558
0.0993279
0.101628
0.10376
0.105727
0.107533
0.10918
0.110668
0.111998
0.113164
0.11416
0.114975
0.115589
0.115974
0.1161
0.115924
0.115375
0.114366
0.107435
0.0981805
0.0889166
0.0797843
0.0708911
0.0623219
0.0541444
0.0464137
0.0391764
0.0324732
0.0263416
0.0208159
0.0159382
0.0117455
0.0082662
0.00551364
0.0034664
0.00205139
0.00114684
0.00060992
0.000310981
0.000153022
7.34974e-05
3.45542e-05
1.59325e-05
7.22574e-06
3.22855e-06
1.42301e-06
6.19452e-07
2.66625e-07
1.13601e-07
4.79566e-08
2.00702e-08
8.32333e-09
3.41078e-09
1.36855e-09
5.23365e-10
1.74582e-10
3.08165e-11
3.63396e-07
1.58817e-06
3.64829e-06
7.10179e-06
1.28626e-05
2.24101e-05
3.81066e-05
6.36641e-05
0.00010481
0.000170195
0.000272556
0.000430107
0.000667967
0.00101931
0.00152565
0.00223559
0.0032015
0.00447409
0.006096
0.00809593
0.0104852
0.0132574
0.0163906
0.0198507
0.0235959
0.0275792
0.031752
0.0360655
0.0404723
0.0449278
0.0493908
0.0538241
0.058195
0.0624751
0.0666408
0.0706724
0.0745539
0.0782729
0.0818205
0.0851908
0.0883804
0.0913883
0.094215
0.0968626
0.099334
0.101633
0.103763
0.105728
0.107532
0.109175
0.11066
0.111986
0.113147
0.114139
0.114948
0.115558
0.115939
0.116062
0.115886
0.115341
0.114346
0.107117
0.0978461
0.0885795
0.0794519
0.0705685
0.0620127
0.0538511
0.0461384
0.0389205
0.0322382
0.0261287
0.0206263
0.0157733
0.0116066
0.00815407
0.00542806
0.00340545
0.0020112
0.0011223
0.000595925
0.000303416
0.0001491
7.15069e-05
3.3605e-05
1.55139e-05
7.04176e-06
3.14666e-06
1.38697e-06
6.0379e-07
2.59918e-07
1.10764e-07
4.67701e-08
1.95786e-08
8.12115e-09
3.32872e-09
1.33589e-09
5.10923e-10
1.70424e-10
3.00928e-11
3.62818e-07
1.58565e-06
3.6425e-06
7.09052e-06
1.28422e-05
2.23745e-05
3.8046e-05
6.35631e-05
0.000104645
0.000169928
0.000272134
0.000429453
0.000666977
0.00101785
0.00152355
0.00223268
0.0031976
0.00446905
0.00608972
0.0080884
0.0104765
0.0132477
0.01638
0.0198396
0.0235845
0.0275678
0.0317409
0.036055
0.0404626
0.044919
0.0493832
0.0538178
0.05819
0.0624714
0.0666382
0.070671
0.0745536
0.0782735
0.0818219
0.0851928
0.0883829
0.0913909
0.0942174
0.0968646
0.0993351
0.101633
0.103761
0.105724
0.107525
0.109165
0.110647
0.111968
0.113125
0.114112
0.114917
0.115522
0.1159
0.116022
0.115848
0.115309
0.114328
0.106881
0.097595
0.0883242
0.0791995
0.070324
0.061779
0.0536303
0.0459318
0.0387292
0.032063
0.0259705
0.0204857
0.0156514
0.0115041
0.00807157
0.0053653
0.00336088
0.0019819
0.00110444
0.00058575
0.000297948
0.000146296
7.01237e-05
3.29384e-05
1.51954e-05
6.89659e-06
3.08423e-06
1.36039e-06
5.92571e-07
2.55207e-07
1.08795e-07
4.59516e-08
1.92417e-08
7.98262e-09
3.27246e-09
1.31345e-09
5.02362e-10
1.67564e-10
2.95948e-11
3.62441e-07
1.584e-06
3.63872e-06
7.08316e-06
1.28288e-05
2.23513e-05
3.80065e-05
6.34973e-05
0.000104537
0.000169754
0.00027186
0.000429028
0.000666334
0.0010169
0.0015222
0.0022308
0.00319507
0.00446579
0.00608567
0.00808355
0.0104709
0.0132414
0.0163732
0.0198324
0.0235771
0.0275605
0.0317338
0.0360482
0.0404563
0.0449134
0.0493783
0.0538136
0.0581866
0.0624687
0.0666361
0.0706694
0.0745524
0.0782728
0.0818215
0.0851926
0.0883826
0.0913905
0.0942166
0.0968631
0.0993327
0.101629
0.103756
0.105717
0.107515
0.109153
0.110631
0.111949
0.113102
0.114085
0.114886
0.115489
0.115865
0.115987
0.115816
0.115284
0.114316
0.106726
0.0974239
0.0881481
0.0790252
0.0701555
0.0616188
0.0534797
0.0457918
0.0386003
0.0319456
0.0258649
0.0203923
0.0155706
0.0114365
0.00801738
0.00532427
0.0033319
0.00196292
0.00109288
0.000579161
0.000294406
0.00014448
6.92498e-05
3.25218e-05
1.50038e-05
6.80849e-06
3.04451e-06
1.34274e-06
5.85009e-07
2.51989e-07
1.0747e-07
4.54051e-08
1.90194e-08
7.89197e-09
3.23606e-09
1.29904e-09
4.96889e-10
1.65748e-10
2.9279e-11
3.62257e-07
1.5832e-06
3.63688e-06
7.07959e-06
1.28224e-05
2.23401e-05
3.79876e-05
6.34658e-05
0.000104485
0.000169671
0.000271729
0.000428826
0.00066603
0.00101645
0.00152156
0.00222991
0.00319388
0.00446425
0.00608375
0.00808125
0.0104682
0.0132384
0.01637
0.019829
0.0235737
0.0275571
0.0317305
0.036045
0.0404533
0.0449107
0.0493759
0.0538116
0.0581848
0.0624673
0.066635
0.0706683
0.0745513
0.0782716
0.0818203
0.0851913
0.0883812
0.0913888
0.0942145
0.0968604
0.0993293
0.101625
0.10375
0.10571
0.107506
0.109142
0.110618
0.111933
0.113084
0.114065
0.114864
0.115465
0.115842
0.115968
0.115806
0.115295
0.114368
0.10665
0.0973341
0.088054
0.0789321
0.0700662
0.0615347
0.0534017
0.04572
0.0385348
0.0318865
0.0258123
0.0203463
0.0155312
0.0114038
0.00799138
0.00530473
0.00331823
0.00195405
0.00108752
0.000576117
0.00029277
0.000143639
6.88489e-05
3.2331e-05
1.49167e-05
6.76864e-06
3.02684e-06
1.3349e-06
5.81633e-07
2.50534e-07
1.06855e-07
4.51458e-08
1.89125e-08
7.84797e-09
3.21825e-09
1.29198e-09
4.942e-10
1.64855e-10
2.91239e-11
3.62258e-07
1.5832e-06
3.63689e-06
7.0796e-06
1.28224e-05
2.23401e-05
3.79876e-05
6.34659e-05
0.000104486
0.000169672
0.00027173
0.000428827
0.000666031
0.00101645
0.00152156
0.00222991
0.00319389
0.00446426
0.00608376
0.00808126
0.0104682
0.0132384
0.01637
0.0198291
0.0235737
0.0275571
0.0317305
0.036045
0.0404533
0.0449108
0.0493759
0.0538116
0.0581849
0.0624673
0.066635
0.0706683
0.0745513
0.0782716
0.0818203
0.0851913
0.0883812
0.0913888
0.0942145
0.0968604
0.0993293
0.101625
0.10375
0.10571
0.107506
0.109142
0.110618
0.111933
0.113084
0.114065
0.114864
0.115465
0.115842
0.115968
0.115806
0.115295
0.114368
0.10665
0.0973341
0.088054
0.0789321
0.0700662
0.0615347
0.0534017
0.04572
0.0385349
0.0318866
0.0258124
0.0203463
0.0155312
0.0114038
0.00799139
0.00530475
0.00331823
0.00195406
0.00108753
0.00057612
0.000292771
0.00014364
6.88489e-05
3.23308e-05
1.49164e-05
6.76844e-06
3.02671e-06
1.33482e-06
5.81587e-07
2.50511e-07
1.06843e-07
4.51401e-08
1.89098e-08
7.84688e-09
3.21775e-09
1.29178e-09
4.94122e-10
1.64828e-10
2.91191e-11
3.62443e-07
1.58401e-06
3.63874e-06
7.0832e-06
1.28289e-05
2.23514e-05
3.80067e-05
6.34976e-05
0.000104537
0.000169755
0.000271861
0.00042903
0.000666337
0.00101691
0.0015222
0.00223081
0.00319508
0.0044658
0.00608569
0.00808357
0.0104709
0.0132414
0.0163732
0.0198325
0.0235772
0.0275606
0.0317339
0.0360483
0.0404564
0.0449135
0.0493783
0.0538137
0.0581866
0.0624687
0.0666362
0.0706694
0.0745524
0.0782728
0.0818215
0.0851926
0.0883826
0.0913905
0.0942166
0.0968631
0.0993327
0.101629
0.103756
0.105717
0.107515
0.109153
0.110631
0.111949
0.113102
0.114085
0.114886
0.115489
0.115865
0.115987
0.115816
0.115284
0.114316
0.106726
0.097424
0.0881482
0.0790253
0.0701555
0.0616188
0.0534798
0.0457918
0.0386003
0.0319456
0.0258649
0.0203923
0.0155707
0.0114365
0.00801743
0.0053243
0.00333193
0.00196294
0.00109289
0.000579168
0.00029441
0.000144482
6.92503e-05
3.25218e-05
1.50035e-05
6.8083e-06
3.0443e-06
1.34259e-06
5.84912e-07
2.51936e-07
1.07442e-07
4.53914e-08
1.90128e-08
7.88928e-09
3.23483e-09
1.29856e-09
4.96696e-10
1.65681e-10
2.9267e-11
3.62822e-07
1.58566e-06
3.64254e-06
7.09059e-06
1.28423e-05
2.23747e-05
3.80464e-05
6.35637e-05
0.000104646
0.000169929
0.000272136
0.000429456
0.000666982
0.00101786
0.00152357
0.0022327
0.00319762
0.00446907
0.00608975
0.00808844
0.0104766
0.0132477
0.0163801
0.0198396
0.0235845
0.0275679
0.031741
0.036055
0.0404626
0.0449191
0.0493833
0.0538179
0.05819
0.0624715
0.0666383
0.070671
0.0745536
0.0782736
0.081822
0.0851929
0.0883829
0.0913909
0.0942175
0.0968646
0.0993352
0.101633
0.103761
0.105724
0.107525
0.109165
0.110647
0.111968
0.113125
0.114112
0.114917
0.115522
0.1159
0.116022
0.115848
0.115309
0.114328
0.106881
0.0975951
0.0883243
0.0791997
0.0703241
0.0617791
0.0536304
0.0459319
0.0387293
0.0320631
0.0259706
0.0204858
0.0156515
0.0115042
0.00807165
0.00536536
0.00336093
0.00198193
0.00110446
0.000585762
0.000297955
0.000146299
7.01255e-05
3.29395e-05
1.51967e-05
6.89855e-06
3.08459e-06
1.36037e-06
5.925e-07
2.55156e-07
1.08765e-07
4.59366e-08
1.92344e-08
7.9796e-09
3.27109e-09
1.31289e-09
5.02138e-10
1.67486e-10
2.95807e-11
3.634e-07
1.58819e-06
3.64834e-06
7.10189e-06
1.28628e-05
2.24104e-05
3.8107e-05
6.36649e-05
0.000104812
0.000170197
0.000272559
0.000430112
0.000667975
0.00101932
0.00152566
0.00223561
0.00320152
0.00447413
0.00609604
0.00809598
0.0104853
0.0132575
0.0163906
0.0198508
0.0235959
0.0275793
0.0317521
0.0360656
0.0404724
0.0449279
0.0493909
0.0538242
0.0581951
0.0624752
0.0666408
0.0706724
0.0745539
0.078273
0.0818206
0.0851908
0.0883804
0.0913883
0.094215
0.0968626
0.099334
0.101633
0.103763
0.105728
0.107532
0.109175
0.11066
0.111986
0.113147
0.114139
0.114948
0.115558
0.115939
0.116062
0.115886
0.115341
0.114346
0.107117
0.0978462
0.0885797
0.079452
0.0705687
0.0620129
0.0538513
0.0461386
0.0389207
0.0322384
0.0261289
0.0206265
0.0157735
0.0116067
0.00815419
0.00542816
0.00340551
0.00201125
0.00112233
0.000595941
0.000303425
0.000149104
7.15084e-05
3.36049e-05
1.55126e-05
7.03934e-06
3.14579e-06
1.38663e-06
6.0365e-07
2.59857e-07
1.10737e-07
4.67577e-08
1.95728e-08
8.11885e-09
3.32767e-09
1.33546e-09
5.10757e-10
1.70368e-10
3.00824e-11
3.6419e-07
1.59164e-06
3.65626e-06
7.1173e-06
1.28907e-05
2.24592e-05
3.819e-05
6.38033e-05
0.000105039
0.000170563
0.000273139
0.00043101
0.000669337
0.00102133
0.00152855
0.00223963
0.00320691
0.0044811
0.00610474
0.00810643
0.0104974
0.0132711
0.0164054
0.0198664
0.023612
0.0275954
0.0317678
0.0360805
0.0404862
0.0449403
0.0494016
0.0538331
0.058202
0.0624802
0.0666439
0.0706736
0.0745533
0.0782706
0.0818168
0.0851858
0.0883744
0.0913817
0.0942081
0.0968559
0.0993279
0.101628
0.10376
0.105727
0.107533
0.10918
0.110668
0.111998
0.113164
0.11416
0.114975
0.115589
0.115974
0.1161
0.115924
0.115375
0.114366
0.107436
0.0981806
0.0889167
0.0797844
0.0708913
0.0623221
0.0541446
0.046414
0.0391767
0.0324734
0.0263419
0.0208162
0.0159384
0.0117457
0.00826636
0.00551377
0.00346649
0.00205145
0.00114688
0.000609942
0.000310993
0.000153027
7.34999e-05
3.45549e-05
1.59325e-05
7.22559e-06
3.22852e-06
1.42302e-06
6.19457e-07
2.66628e-07
1.13601e-07
4.79562e-08
2.00697e-08
8.32304e-09
3.41059e-09
1.36846e-09
5.23324e-10
1.74568e-10
3.08132e-11
3.65205e-07
1.59607e-06
3.66644e-06
7.13713e-06
1.29267e-05
2.25219e-05
3.82968e-05
6.39818e-05
0.000105332
0.000171036
0.000273889
0.000432175
0.000671104
0.00102395
0.00153231
0.00224486
0.00321395
0.00449023
0.00611615
0.00812016
0.0105133
0.013289
0.0164249
0.0198871
0.0236333
0.0276168
0.0317888
0.0361006
0.0405049
0.0449572
0.0494164
0.0538454
0.0582117
0.0624871
0.066648
0.0706749
0.074552
0.0782668
0.0818107
0.0851777
0.0883647
0.0913706
0.0941963
0.0968436
0.0993158
0.101616
0.103749
0.105719
0.107527
0.109177
0.110669
0.112003
0.113174
0.114175
0.114995
0.115615
0.116005
0.116134
0.11596
0.115407
0.114388
0.107838
0.0985971
0.0893376
0.0802005
0.0712962
0.0627115
0.054515
0.0467627
0.0395015
0.0327724
0.0266132
0.0210583
0.0161493
0.0119236
0.00841033
0.00562393
0.00354519
0.00210354
0.00117888
0.000628461
0.000321356
0.00015831
7.59119e-05
3.56544e-05
1.64479e-05
7.46386e-06
3.33612e-06
1.47063e-06
6.40173e-07
2.75522e-07
1.17374e-07
4.95403e-08
2.07285e-08
8.59447e-09
3.52116e-09
1.41255e-09
5.4011e-10
1.80176e-10
3.17896e-11
3.66461e-07
1.60156e-06
3.67905e-06
7.16171e-06
1.29713e-05
2.25998e-05
3.84296e-05
6.42038e-05
0.000105697
0.000171626
0.000274825
0.000433632
0.000673319
0.00102723
0.00153704
0.00225146
0.00322284
0.00450179
0.00613062
0.00813765
0.0105337
0.013312
0.0164501
0.0199138
0.023661
0.0276448
0.0318164
0.0361271
0.0405298
0.0449798
0.0494363
0.0538623
0.0582252
0.062497
0.0666542
0.0706776
0.074551
0.0782624
0.0818031
0.0851672
0.0883517
0.0913556
0.0941797
0.096826
0.0992977
0.101599
0.103732
0.105703
0.107513
0.109166
0.110662
0.112
0.113176
0.114182
0.115007
0.115633
0.116029
0.116162
0.11599
0.115437
0.114409
0.108335
0.0991099
0.0898552
0.0807101
0.0717919
0.0631885
0.0549695
0.0471915
0.0399016
0.0331412
0.0269483
0.0213574
0.0164101
0.012144
0.00858897
0.00576099
0.00364347
0.00216891
0.00121935
0.00065214
0.000333232
0.000164031
7.87417e-05
3.70326e-05
1.70966e-05
7.76103e-06
3.46956e-06
1.52957e-06
6.65836e-07
2.86549e-07
1.22058e-07
5.15097e-08
2.1549e-08
8.93318e-09
3.65938e-09
1.46781e-09
5.61196e-10
1.87229e-10
3.30185e-11
3.67976e-07
1.60818e-06
3.69426e-06
7.19137e-06
1.30252e-05
2.2694e-05
3.85904e-05
6.44731e-05
0.00010614
0.000172344
0.000275967
0.000435411
0.00067603
0.00103126
0.00154285
0.00225959
0.00323383
0.00451612
0.00614862
0.00815945
0.0105592
0.0133409
0.0164818
0.0199477
0.0236963
0.0276807
0.0318521
0.0361617
0.0405624
0.0450099
0.0494632
0.0538855
0.0582442
0.0625116
0.0666642
0.0706829
0.0745518
0.0782587
0.0817952
0.0851554
0.0883365
0.0913374
0.0941591
0.0968036
0.0992741
0.101574
0.103708
0.10568
0.107492
0.109147
0.110646
0.111988
0.113169
0.11418
0.115011
0.115643
0.116044
0.116182
0.116013
0.115461
0.114427
0.108936
0.0997226
0.0904669
0.0813195
0.0723858
0.0637618
0.0555174
0.0477093
0.0403852
0.0335872
0.0273537
0.0217198
0.0167263
0.0124116
0.00880637
0.00592845
0.00376428
0.00225005
0.00127039
0.000678958
0.00034718
0.000171302
8.23462e-05
3.87533e-05
1.78979e-05
8.12678e-06
3.63355e-06
1.60192e-06
6.97296e-07
3.00054e-07
1.27789e-07
5.39181e-08
2.25519e-08
9.34717e-09
3.82834e-09
1.53537e-09