/*--------------------------------*- C++ -*----------------------------------*\
  =========                 |
  \\      /  F ield         | OpenFOAM: The Open Source CFD Toolbox
   \\    /   O peration     | Website:  https://openfoam.org
    \\  /    A nd           | Version:  8
     \\/     M anipulation  |
\*---------------------------------------------------------------------------*/
FoamFile
{
    version     2.0;
    format      ascii;
    class       volScalarField;
    location    "860/fluid";
    object      N2;
}
// * * * * * * * * * * * * * * * * * * * * * * * * * * * * * * * * * * * * * //

dimensions      [0 0 0 0 0 0 0];

internalField   nonuniform List<scalar> 
4000
(
2.30964e-06
1.00924e-05
2.31786e-05
4.51136e-05
8.17239e-05
0.000142491
0.000242662
0.000406407
0.000671388
0.0010951
0.00176311
0.00279895
0.00437413
0.00671552
0.0101054
0.0148693
0.0213473
0.0298516
0.0406205
0.0537821
0.0693402
0.0871826
0.107105
0.128842
0.152091
0.176538
0.20187
0.227788
0.254014
0.280293
0.3064
0.33214
0.357344
0.381877
0.405627
0.428509
0.450455
0.471422
0.491381
0.510321
0.528244
0.545161
0.561093
0.576067
0.590115
0.603275
0.615585
0.627087
0.637821
0.64783
0.657155
0.665837
0.673916
0.68143
0.688416
0.694909
0.700943
0.706475
0.711556
0.716415
0.720935
0.725142
0.729008
0.732719
0.736269
0.739664
0.742903
0.745988
0.748917
0.751688
0.754296
0.756736
0.759001
0.76107
0.762955
0.764631
0.766082
0.767289
0.768239
0.768935
0.769401
0.769685
0.769844
0.769926
0.769966
0.769984
0.769993
0.769997
0.769999
0.769999
0.77
0.77
0.77
0.77
0.77
0.77
0.77
0.77
0.77
0.77
2.31206e-06
1.01053e-05
2.32188e-05
4.52201e-05
8.19744e-05
0.000143022
0.000243681
0.000408175
0.000674111
0.00109863
0.00176633
0.00279866
0.00436356
0.00668197
0.0100283
0.014719
0.0210866
0.0294399
0.0400203
0.0529659
0.0682957
0.0859144
0.105633
0.127199
0.150316
0.174675
0.199962
0.225877
0.252134
0.278476
0.30467
0.330516
0.35584
0.380501
0.404384
0.4274
0.449479
0.470574
0.490657
0.509713
0.527744
0.544761
0.560784
0.575841
0.589964
0.603189
0.615559
0.627111
0.637891
0.647939
0.657297
0.666008
0.67411
0.681644
0.688646
0.695153
0.701198
0.706734
0.711818
0.716682
0.721206
0.72541
0.729282
0.733002
0.736561
0.739963
0.743208
0.746298
0.749231
0.752004
0.754613
0.75705
0.759309
0.761367
0.763236
0.764888
0.766305
0.767471
0.768376
0.769027
0.769455
0.769713
0.769857
0.769931
0.769968
0.769985
0.769993
0.769997
0.769999
0.769999
0.77
0.77
0.77
0.77
0.77
0.77
0.77
0.77
0.77
0.77
2.31757e-06
1.01307e-05
2.3283e-05
4.53589e-05
8.22492e-05
0.000143527
0.000244545
0.000409537
0.000676044
0.00110096
0.00176822
0.00279778
0.00435454
0.00665534
0.00996897
0.0146051
0.0208894
0.0291254
0.0395529
0.0523136
0.0674346
0.0848321
0.104331
0.12569
0.148628
0.17284
0.198019
0.223867
0.250098
0.276452
0.302693
0.328615
0.35404
0.378821
0.402838
0.425998
0.448227
0.469474
0.489706
0.508909
0.52708
0.54423
0.560377
0.575549
0.589777
0.6031
0.615555
0.627185
0.638032
0.648139
0.657549
0.666304
0.674445
0.68201
0.689039
0.695566
0.701627
0.707169
0.712257
0.717121
0.721635
0.725838
0.729728
0.733462
0.73703
0.740437
0.743685
0.746774
0.749703
0.752467
0.755062
0.757481
0.759715
0.761745
0.763574
0.765179
0.766543
0.767653
0.768503
0.769107
0.769501
0.769737
0.769868
0.769937
0.76997
0.769986
0.769994
0.769997
0.769999
0.769999
0.77
0.77
0.77
0.77
0.77
0.77
0.77
0.77
0.77
0.77
2.31517e-06
1.01201e-05
2.32579e-05
4.53062e-05
8.2138e-05
0.000143284
0.000244
0.000408313
0.000673368
0.00109533
0.00175692
0.00277631
0.00431593
0.00658909
0.00986015
0.0144341
0.0206325
0.0287567
0.0390474
0.0516499
0.0665979
0.0838161
0.103138
0.124331
0.147119
0.171206
0.196289
0.22207
0.248267
0.274619
0.300888
0.326865
0.35237
0.37725
0.401384
0.424672
0.447038
0.468427
0.488803
0.508148
0.526458
0.543742
0.560017
0.575307
0.589648
0.603073
0.61562
0.627333
0.638254
0.648426
0.657893
0.666697
0.674879
0.682479
0.689536
0.696086
0.702164
0.707704
0.712785
0.717648
0.722169
0.726368
0.730274
0.734014
0.737586
0.740992
0.744236
0.747317
0.750232
0.752978
0.75555
0.75794
0.760137
0.762133
0.763914
0.765467
0.766777
0.767831
0.768629
0.769188
0.769549
0.769763
0.769881
0.769943
0.769973
0.769988
0.769994
0.769998
0.769999
0.77
0.77
0.77
0.77
0.77
0.77
0.77
0.77
0.77
0.77
0.77
2.30612e-06
1.00801e-05
2.31638e-05
4.51167e-05
8.17779e-05
0.000142616
0.000242773
0.000406077
0.000669318
0.00108807
0.00174411
0.0027541
0.00427833
0.00652714
0.00976126
0.0142818
0.020407
0.0284366
0.0386115
0.0510806
0.0658829
0.0829501
0.102123
0.123176
0.145839
0.16982
0.194821
0.220545
0.246712
0.273061
0.299352
0.325374
0.350946
0.375911
0.400145
0.423545
0.446031
0.467546
0.488051
0.507526
0.525963
0.54337
0.559763
0.575168
0.589612
0.603131
0.615766
0.627558
0.638549
0.648783
0.658303
0.667153
0.675373
0.683004
0.690086
0.696657
0.702742
0.708265
0.713353
0.718229
0.72275
0.726913
0.730847
0.734591
0.738161
0.741563
0.744798
0.747865
0.750762
0.753486
0.75603
0.758386
0.760543
0.762497
0.764231
0.765733
0.766989
0.76799
0.768739
0.769258
0.769589
0.769785
0.769892
0.769948
0.769975
0.769989
0.769995
0.769998
0.769999
0.77
0.77
0.77
0.77
0.77
0.77
0.77
0.77
0.77
0.77
0.77
2.29186e-06
1.00171e-05
2.30165e-05
4.4822e-05
8.12251e-05
0.000141612
0.000240981
0.000402921
0.000663827
0.00107864
0.00172818
0.00272769
0.00423553
0.00645956
0.0096577
0.0141283
0.0201875
0.0281344
0.038211
0.0505693
0.0652529
0.0821989
0.101254
0.122196
0.144762
0.168662
0.1936
0.219282
0.24543
0.271779
0.298093
0.324157
0.349788
0.374828
0.399149
0.422647
0.445238
0.466863
0.487481
0.507068
0.525617
0.543133
0.559633
0.575134
0.589669
0.603273
0.615985
0.627846
0.638899
0.649187
0.658753
0.667641
0.675892
0.683547
0.690647
0.697226
0.703323
0.708845
0.713949
0.718827
0.723343
0.727468
0.731402
0.735147
0.738715
0.742109
0.745332
0.748383
0.75126
0.753959
0.756475
0.758799
0.760915
0.762828
0.764518
0.765972
0.767179
0.768132
0.768837
0.769321
0.769626
0.769804
0.769902
0.769953
0.769978
0.76999
0.769995
0.769998
0.769999
0.77
0.77
0.77
0.77
0.77
0.77
0.77
0.77
0.77
0.77
0.77
2.27536e-06
9.94464e-06
2.28482e-05
4.44889e-05
8.06091e-05
0.000140511
0.000239054
0.000399598
0.000658175
0.00106916
0.0017125
0.00270224
0.00419506
0.00639676
0.00956292
0.0139897
0.0199916
0.0278674
0.0378606
0.0501259
0.0647112
0.081558
0.100517
0.121373
0.143862
0.167701
0.192593
0.218248
0.244385
0.270743
0.297081
0.323186
0.348872
0.373979
0.398378
0.421961
0.444644
0.466365
0.48708
0.506765
0.525412
0.543023
0.559609
0.575194
0.589807
0.603483
0.616261
0.62818
0.639284
0.649616
0.65922
0.668138
0.676412
0.684083
0.691191
0.697774
0.703874
0.709347
0.714577
0.719425
0.723919
0.728011
0.731932
0.73567
0.739229
0.742613
0.745822
0.748856
0.751713
0.754387
0.756874
0.759167
0.761249
0.763125
0.764774
0.766184
0.767345
0.768255
0.768922
0.769374
0.769657
0.769821
0.769911
0.769957
0.76998
0.769991
0.769996
0.769998
0.769999
0.77
0.77
0.77
0.77
0.77
0.77
0.77
0.77
0.77
0.77
0.77
2.25822e-06
9.86946e-06
2.26741e-05
4.4146e-05
7.9978e-05
0.00013939
0.000237107
0.000396269
0.000652564
0.00105984
0.00169729
0.00267784
0.00415678
0.00633815
0.00947569
0.0138639
0.0198161
0.0276313
0.0375543
0.0497426
0.0642475
0.0810146
0.0998985
0.120686
0.143118
0.166911
0.191772
0.217411
0.243546
0.269916
0.296281
0.322426
0.348163
0.373331
0.397799
0.421457
0.44422
0.466023
0.486822
0.506592
0.525321
0.543009
0.55967
0.575326
0.590005
0.603741
0.616573
0.62854
0.639686
0.650054
0.659687
0.66863
0.676924
0.684611
0.691733
0.698328
0.704405
0.709873
0.715108
0.719951
0.724435
0.72851
0.732421
0.736149
0.739697
0.743069
0.746264
0.74928
0.752115
0.754765
0.757223
0.759484
0.76153
0.763372
0.764988
0.766365
0.76749
0.768362
0.768995
0.76942
0.769684
0.769836
0.769918
0.76996
0.769981
0.769991
0.769996
0.769998
0.769999
0.77
0.77
0.77
0.77
0.77
0.77
0.77
0.77
0.77
0.77
0.77
2.24162e-06
9.79675e-06
2.25062e-05
4.38164e-05
7.9374e-05
0.000138323
0.000235264
0.000393139
0.000647329
0.00105122
0.00168332
0.00265565
0.00412226
0.00628576
0.00939835
0.0137532
0.019663
0.0274268
0.0372911
0.0494155
0.0638548
0.0805576
0.0993818
0.120117
0.142506
0.166267
0.191108
0.216738
0.242878
0.269265
0.295658
0.321841
0.347625
0.372848
0.397377
0.421102
0.443934
0.465808
0.48668
0.506521
0.525317
0.543071
0.559794
0.575508
0.590241
0.604026
0.616901
0.628907
0.640086
0.650481
0.660137
0.669097
0.677403
0.685098
0.692221
0.698812
0.704868
0.710333
0.715562
0.720397
0.724873
0.728944
0.732853
0.736575
0.740116
0.743477
0.746658
0.749657
0.752473
0.7551
0.757533
0.759764
0.761777
0.763578
0.765157
0.766503
0.767606
0.768451
0.769057
0.769459
0.769706
0.769848
0.769924
0.769963
0.769983
0.769992
0.769996
0.769998
0.769999
0.77
0.77
0.77
0.77
0.77
0.77
0.77
0.77
0.77
0.77
0.77
2.22618e-06
9.72919e-06
2.23504e-05
4.35112e-05
7.88163e-05
0.00013734
0.000233573
0.00039028
0.00064257
0.00104342
0.00167076
0.00263581
0.0040916
0.00623953
0.00933059
0.0136569
0.0195307
0.0272514
0.0370668
0.0491388
0.0635248
0.0801763
0.0989538
0.119649
0.142006
0.165745
0.190574
0.216202
0.242351
0.268757
0.295178
0.321397
0.347225
0.372498
0.397081
0.420863
0.443755
0.465691
0.486623
0.506522
0.525375
0.543184
0.55996
0.575722
0.590498
0.604322
0.617232
0.629268
0.640472
0.650888
0.66056
0.669532
0.677846
0.685545
0.69267
0.699259
0.705298
0.710751
0.715971
0.720798
0.725262
0.729329
0.733233
0.736949
0.740481
0.743831
0.746999
0.749984
0.752782
0.755389
0.757799
0.760004
0.762002
0.763786
0.765338
0.766649
0.767709
0.768527
0.769109
0.769492
0.769725
0.769858
0.76993
0.769966
0.769984
0.769993
0.769997
0.769998
0.769999
0.77
0.77
0.77
0.77
0.77
0.77
0.77
0.77
0.77
0.77
0.77
2.21225e-06
9.6683e-06
2.22102e-05
4.32368e-05
7.83161e-05
0.000136462
0.000232065
0.000387738
0.000638355
0.00103654
0.00165973
0.00261847
0.00406493
0.00619953
0.00927225
0.0135744
0.019418
0.0271028
0.0368778
0.048907
0.06325
0.0798608
0.0986019
0.119267
0.141601
0.165325
0.190148
0.215779
0.24194
0.268365
0.294813
0.321066
0.346933
0.37225
0.396881
0.420713
0.443656
0.465644
0.486626
0.506575
0.525476
0.54333
0.560148
0.575949
0.59076
0.604616
0.617552
0.629611
0.640834
0.651266
0.660949
0.669929
0.678249
0.68595
0.693074
0.699659
0.705687
0.711128
0.71634
0.721154
0.725602
0.729669
0.733571
0.737283
0.740808
0.744149
0.747304
0.750273
0.753054
0.755643
0.758034
0.760227
0.762206
0.763965
0.765491
0.766774
0.767808
0.768593
0.769153
0.76952
0.769742
0.769867
0.769934
0.769968
0.769985
0.769993
0.769997
0.769999
0.769999
0.77
0.77
0.77
0.77
0.77
0.77
0.77
0.77
0.77
0.77
0.77
2.19998e-06
9.61466e-06
2.20868e-05
4.29957e-05
7.7877e-05
0.000135692
0.000230747
0.000385523
0.00063469
0.00103058
0.00165021
0.00260355
0.00404207
0.00616538
0.00922266
0.0135046
0.0193231
0.0269782
0.0367201
0.0487146
0.0630232
0.0796018
0.0983149
0.118957
0.141275
0.16499
0.189811
0.215449
0.241622
0.268066
0.29454
0.320824
0.346726
0.372082
0.396753
0.420628
0.443616
0.465646
0.486671
0.506661
0.525602
0.543493
0.560344
0.576176
0.591016
0.604896
0.617854
0.62993
0.641167
0.65161
0.661301
0.670286
0.678608
0.686309
0.693428
0.700005
0.706025
0.711461
0.716663
0.721466
0.725902
0.729968
0.733865
0.73757
0.741086
0.744414
0.747558
0.750517
0.753287
0.755866
0.758247
0.760421
0.762381
0.764117
0.765621
0.766881
0.767891
0.768654
0.769191
0.769543
0.769755
0.769874
0.769938
0.76997
0.769986
0.769994
0.769997
0.769999
0.769999
0.77
0.77
0.77
0.77
0.77
0.77
0.77
0.77
0.77
0.77
0.77
2.18939e-06
9.56837e-06
2.19803e-05
4.27879e-05
7.74992e-05
0.00013503
0.000229616
0.000383626
0.000631561
0.00102551
0.00164212
0.00259091
0.00402277
0.00613665
0.00918107
0.0134463
0.019244
0.0268749
0.03659
0.0485565
0.0628377
0.0793913
0.0980829
0.118708
0.141016
0.164726
0.189548
0.215192
0.241378
0.267842
0.294339
0.32065
0.346583
0.371972
0.396678
0.42059
0.443614
0.46568
0.48674
0.506765
0.525738
0.543659
0.560538
0.576395
0.591256
0.605155
0.618129
0.630219
0.641467
0.651917
0.661614
0.670602
0.678923
0.68662
0.693736
0.700312
0.706323
0.711749
0.716941
0.721734
0.726158
0.730226
0.734119
0.737819
0.741329
0.744653
0.747791
0.750741
0.753501
0.756065
0.75843
0.760587
0.762528
0.764246
0.76573
0.766971
0.76796
0.768705
0.769226
0.769563
0.769766
0.769881
0.769941
0.769972
0.769987
0.769994
0.769997
0.769999
0.769999
0.77
0.77
0.77
0.77
0.77
0.77
0.77
0.77
0.77
0.77
0.77
2.18042e-06
9.52917e-06
2.18902e-05
4.26123e-05
7.71801e-05
0.000134472
0.000228664
0.000382032
0.000628936
0.00102125
0.00163536
0.00258038
0.00400673
0.00611283
0.00914671
0.0133983
0.0191791
0.0267904
0.0364839
0.0484282
0.0626878
0.0792219
0.0978974
0.118511
0.140811
0.164518
0.189343
0.214996
0.241194
0.267675
0.294192
0.320528
0.346487
0.371905
0.396641
0.420582
0.443636
0.465733
0.486823
0.506875
0.525874
0.543819
0.56072
0.576597
0.591475
0.605389
0.618375
0.630474
0.64173
0.652185
0.661885
0.670872
0.679191
0.686888
0.694003
0.700575
0.706577
0.711995
0.717179
0.721962
0.726372
0.730443
0.734334
0.73803
0.741537
0.744855
0.747986
0.750927
0.753677
0.75623
0.758582
0.760725
0.762652
0.764354
0.765822
0.767045
0.768018
0.768746
0.769254
0.76958
0.769776
0.769885
0.769944
0.769973
0.769987
0.769994
0.769997
0.769999
0.769999
0.77
0.77
0.77
0.77
0.77
0.77
0.77
0.77
0.77
0.77
0.77
2.17298e-06
9.4967e-06
2.18156e-05
4.24669e-05
7.69162e-05
0.000134011
0.000227879
0.000380718
0.000626776
0.00101776
0.00162982
0.00257177
0.00399364
0.00609344
0.00911879
0.0133593
0.0191267
0.0267223
0.0363987
0.0483255
0.0625684
0.0790876
0.097751
0.118356
0.140651
0.164358
0.189187
0.214847
0.241057
0.267552
0.294088
0.320444
0.346426
0.371867
0.396628
0.420594
0.443674
0.465795
0.486908
0.506982
0.526002
0.543967
0.560885
0.576776
0.591668
0.605593
0.618589
0.630695
0.641955
0.652413
0.662113
0.671102
0.679423
0.687119
0.69423
0.700797
0.706791
0.712202
0.71738
0.722156
0.726548
0.730623
0.734513
0.738206
0.741709
0.745022
0.748147
0.751081
0.753822
0.756365
0.758707
0.760839
0.762754
0.764443
0.765897
0.767106
0.768065
0.76878
0.769276
0.769594
0.769784
0.769889
0.769946
0.769974
0.769988
0.769994
0.769997
0.769999
0.769999
0.77
0.77
0.77
0.77
0.77
0.77
0.77
0.77
0.77
0.77
0.77
2.16698e-06
9.4705e-06
2.17554e-05
4.23497e-05
7.67036e-05
0.00013364
0.000227247
0.000379663
0.000625044
0.00101497
0.00162539
0.00256489
0.0039832
0.00607801
0.00909663
0.0133285
0.0190853
0.0266686
0.0363318
0.0482451
0.0624752
0.0789832
0.0976376
0.118236
0.140529
0.164236
0.189069
0.214736
0.240956
0.267464
0.294015
0.320388
0.346388
0.371849
0.39663
0.420616
0.443716
0.465856
0.486988
0.50708
0.526116
0.544095
0.561027
0.57693
0.591832
0.605765
0.618766
0.630877
0.64214
0.652601
0.662305
0.671295
0.679615
0.687309
0.694417
0.70098
0.706967
0.712372
0.717544
0.722314
0.726689
0.730769
0.734656
0.738348
0.741848
0.745157
0.748276
0.751204
0.753939
0.756475
0.758808
0.76093
0.762836
0.764515
0.765957
0.767155
0.768102
0.768807
0.769294
0.769605
0.76979
0.769893
0.769947
0.769975
0.769988
0.769995
0.769998
0.769999
0.77
0.77
0.77
0.77
0.77
0.77
0.77
0.77
0.77
0.77
0.77
0.77
2.16232e-06
9.45014e-06
2.17087e-05
4.22586e-05
7.65386e-05
0.000133353
0.000226758
0.000378847
0.000623704
0.00101281
0.00162197
0.00255959
0.00397517
0.00606615
0.00907962
0.0133049
0.0190536
0.0266277
0.0362809
0.048184
0.0624047
0.0789044
0.0975525
0.118147
0.140438
0.164146
0.188982
0.214655
0.240884
0.267402
0.293965
0.320351
0.346366
0.371842
0.396638
0.42064
0.443755
0.46591
0.487057
0.507162
0.526211
0.544201
0.561142
0.577054
0.591963
0.605901
0.618908
0.631024
0.642292
0.652755
0.662459
0.671449
0.679767
0.687459
0.694564
0.701124
0.707106
0.712506
0.717674
0.722439
0.726801
0.730885
0.73477
0.73846
0.741956
0.745262
0.748378
0.751301
0.75403
0.75656
0.758886
0.761002
0.7629
0.76457
0.766005
0.767193
0.768131
0.768828
0.769308
0.769614
0.769795
0.769896
0.769949
0.769975
0.769988
0.769995
0.769998
0.769999
0.77
0.77
0.77
0.77
0.77
0.77
0.77
0.77
0.77
0.77
0.77
0.77
2.15891e-06
9.43524e-06
2.16745e-05
4.21921e-05
7.6418e-05
0.000133142
0.0002264
0.00037825
0.000622727
0.00101123
0.00161948
0.00255574
0.00396934
0.00605754
0.00906729
0.0132878
0.0190307
0.0265981
0.0362441
0.0481401
0.062354
0.0788481
0.0974918
0.118084
0.140373
0.164083
0.188922
0.2146
0.240834
0.26736
0.293932
0.320328
0.346354
0.371841
0.396649
0.420662
0.443788
0.465954
0.48711
0.507225
0.526282
0.544281
0.561229
0.577148
0.592062
0.606007
0.619018
0.631136
0.642405
0.65287
0.662574
0.671563
0.679881
0.68757
0.694674
0.701231
0.707209
0.712606
0.717771
0.722532
0.726883
0.73097
0.734854
0.738542
0.742036
0.74534
0.748452
0.751372
0.754097
0.756623
0.758945
0.761055
0.762947
0.764611
0.766039
0.767221
0.768153
0.768843
0.769318
0.76962
0.769798
0.769897
0.76995
0.769976
0.769989
0.769995
0.769998
0.769999
0.77
0.77
0.77
0.77
0.77
0.77
0.77
0.77
0.77
0.77
0.77
0.77
2.15668e-06
9.42552e-06
2.16522e-05
4.21487e-05
7.63394e-05
0.000133005
0.000226168
0.000377862
0.000622091
0.00101021
0.00161787
0.00255323
0.00396555
0.00605197
0.00905931
0.0132767
0.0190159
0.026579
0.0362205
0.0481119
0.0623215
0.0788119
0.0974529
0.118043
0.140332
0.164043
0.188884
0.214565
0.240804
0.267335
0.293913
0.320316
0.346348
0.371842
0.396658
0.420679
0.443812
0.465986
0.487149
0.50727
0.526334
0.544337
0.561291
0.577213
0.592131
0.606078
0.619091
0.631211
0.642481
0.652946
0.66265
0.671639
0.679956
0.687644
0.694746
0.701301
0.707278
0.712673
0.717835
0.722593
0.726938
0.731026
0.734909
0.738596
0.742089
0.745391
0.748502
0.751419
0.754142
0.756665
0.758983
0.76109
0.762978
0.764638
0.766062
0.767239
0.768167
0.768853
0.769324
0.769624
0.769801
0.769899
0.76995
0.769976
0.769989
0.769995
0.769998
0.769999
0.77
0.77
0.77
0.77
0.77
0.77
0.77
0.77
0.77
0.77
0.77
0.77
2.1556e-06
9.4208e-06
2.16414e-05
4.21277e-05
7.63015e-05
0.000132939
0.000226056
0.000377677
0.000621788
0.00100972
0.0016171
0.00255205
0.00396376
0.00604934
0.00905555
0.0132715
0.0190089
0.02657
0.0362093
0.0480985
0.0623061
0.0787948
0.0974345
0.118024
0.140313
0.164024
0.188866
0.214548
0.240789
0.267323
0.293904
0.32031
0.346346
0.371844
0.396663
0.420688
0.443825
0.466002
0.487168
0.507292
0.526359
0.544365
0.561321
0.577245
0.592165
0.606113
0.619127
0.631248
0.642519
0.652984
0.662688
0.671676
0.679992
0.68768
0.694781
0.701335
0.707314
0.712707
0.717867
0.722624
0.726963
0.731053
0.734936
0.738622
0.742115
0.745416
0.748526
0.751442
0.754164
0.756685
0.759002
0.761107
0.762993
0.764651
0.766073
0.767248
0.768173
0.768857
0.769327
0.769626
0.769802
0.769899
0.769951
0.769976
0.769989
0.769995
0.769998
0.769999
0.77
0.77
0.77
0.77
0.77
0.77
0.77
0.77
0.77
0.77
0.77
0.77
2.15561e-06
9.42083e-06
2.16414e-05
4.21278e-05
7.63017e-05
0.00013294
0.000226057
0.000377678
0.00062179
0.00100973
0.00161711
0.00255206
0.00396377
0.00604935
0.00905556
0.0132715
0.0190089
0.0265701
0.0362094
0.0480986
0.0623062
0.0787949
0.0974346
0.118024
0.140313
0.164024
0.188866
0.214548
0.240789
0.267323
0.293904
0.32031
0.346346
0.371844
0.396663
0.420688
0.443825
0.466002
0.487168
0.507293
0.526359
0.544365
0.561321
0.577245
0.592165
0.606113
0.619127
0.631248
0.642519
0.652984
0.662688
0.671676
0.679992
0.68768
0.694781
0.701335
0.707314
0.712707
0.717867
0.722624
0.726963
0.731053
0.734936
0.738622
0.742115
0.745416
0.748526
0.751442
0.754164
0.756685
0.759002
0.761107
0.762993
0.764651
0.766073
0.767248
0.768173
0.768857
0.769327
0.769625
0.769802
0.769899
0.769951
0.769976
0.769989
0.769995
0.769998
0.769999
0.77
0.77
0.77
0.77
0.77
0.77
0.77
0.77
0.77
0.77
0.77
0.77
2.15671e-06
9.42562e-06
2.16524e-05
4.21491e-05
7.63401e-05
0.000133006
0.00022617
0.000377866
0.000622097
0.00101022
0.00161788
0.00255325
0.00396558
0.00605201
0.00905936
0.0132768
0.019016
0.0265792
0.0362206
0.048112
0.0623217
0.0788121
0.0974531
0.118043
0.140333
0.164043
0.188884
0.214565
0.240804
0.267335
0.293913
0.320316
0.346348
0.371842
0.396658
0.420679
0.443812
0.465986
0.487149
0.50727
0.526334
0.544337
0.561291
0.577213
0.592131
0.606078
0.619091
0.631211
0.642481
0.652946
0.66265
0.671639
0.679956
0.687644
0.694746
0.701301
0.707278
0.712673
0.717835
0.722593
0.726938
0.731026
0.734909
0.738596
0.742089
0.745391
0.748501
0.751419
0.754142
0.756665
0.758983
0.76109
0.762978
0.764638
0.766062
0.767239
0.768167
0.768853
0.769324
0.769624
0.769801
0.769899
0.76995
0.769976
0.769989
0.769995
0.769998
0.769999
0.77
0.77
0.77
0.77
0.77
0.77
0.77
0.77
0.77
0.77
0.77
0.77
2.15895e-06
9.4354e-06
2.16749e-05
4.21928e-05
7.64192e-05
0.000133144
0.000226404
0.000378256
0.000622736
0.00101125
0.00161951
0.00255577
0.00396938
0.00605761
0.00906738
0.0132879
0.0190308
0.0265983
0.0362444
0.0481404
0.0623544
0.0788484
0.0974922
0.118084
0.140374
0.164083
0.188922
0.2146
0.240835
0.267361
0.293933
0.320329
0.346354
0.371841
0.396649
0.420663
0.443788
0.465954
0.48711
0.507225
0.526283
0.544281
0.56123
0.577148
0.592062
0.606007
0.619018
0.631136
0.642405
0.65287
0.662574
0.671563
0.679881
0.68757
0.694673
0.701231
0.707209
0.712606
0.71777
0.722532
0.726883
0.73097
0.734854
0.738542
0.742036
0.74534
0.748452
0.751372
0.754097
0.756623
0.758945
0.761055
0.762947
0.764611
0.766039
0.767221
0.768153
0.768843
0.769318
0.76962
0.769798
0.769897
0.76995
0.769976
0.769989
0.769995
0.769998
0.769999
0.77
0.77
0.77
0.77
0.77
0.77
0.77
0.77
0.77
0.77
0.77
0.77
2.16237e-06
9.45036e-06
2.17092e-05
4.22596e-05
7.65403e-05
0.000133355
0.000226763
0.000378854
0.000623716
0.00101283
0.001622
0.00255964
0.00397524
0.00606624
0.00907975
0.0133051
0.0190538
0.026628
0.0362812
0.0481844
0.0624051
0.0789049
0.0975531
0.118148
0.140438
0.164147
0.188983
0.214656
0.240884
0.267403
0.293965
0.320352
0.346366
0.371842
0.396638
0.420641
0.443755
0.465911
0.487057
0.507162
0.526211
0.544201
0.561142
0.577054
0.591962
0.605901
0.618908
0.631024
0.642291
0.652755
0.662459
0.671449
0.679767
0.687459
0.694564
0.701124
0.707105
0.712506
0.717674
0.722439
0.726801
0.730884
0.73477
0.738459
0.741956
0.745262
0.748377
0.751301
0.75403
0.75656
0.758886
0.761002
0.7629
0.76457
0.766005
0.767193
0.768131
0.768828
0.769308
0.769614
0.769795
0.769896
0.769949
0.769975
0.769988
0.769995
0.769998
0.769999
0.77
0.77
0.77
0.77
0.77
0.77
0.77
0.77
0.77
0.77
0.77
0.77
2.16705e-06
9.47078e-06
2.17561e-05
4.23509e-05
7.67058e-05
0.000133644
0.000227253
0.000379673
0.00062506
0.00101499
0.00162543
0.00256495
0.00398328
0.00607812
0.00909679
0.0133287
0.0190855
0.026669
0.0363322
0.0482456
0.0624758
0.0789838
0.0976383
0.118237
0.140529
0.164237
0.18907
0.214737
0.240957
0.267465
0.294015
0.320388
0.346389
0.371849
0.39663
0.420617
0.443716
0.465857
0.486988
0.50708
0.526117
0.544096
0.561027
0.57693
0.591832
0.605765
0.618766
0.630877
0.64214
0.652601
0.662305
0.671295
0.679615
0.687308
0.694417
0.70098
0.706966
0.712372
0.717544
0.722314
0.726689
0.730769
0.734656
0.738348
0.741848
0.745157
0.748276
0.751204
0.753938
0.756475
0.758808
0.76093
0.762835
0.764514
0.765957
0.767155
0.768102
0.768807
0.769294
0.769605
0.76979
0.769893
0.769947
0.769975
0.769988
0.769995
0.769998
0.769999
0.77
0.77
0.77
0.77
0.77
0.77
0.77
0.77
0.77
0.77
0.77
0.77
2.17306e-06
9.49704e-06
2.18164e-05
4.24683e-05
7.69188e-05
0.000134016
0.000227886
0.00038073
0.000626795
0.00101779
0.00162987
0.00257184
0.00399373
0.00609358
0.00911898
0.0133596
0.019127
0.0267227
0.0363993
0.0483261
0.0625691
0.0790884
0.0977518
0.118357
0.140652
0.164359
0.189188
0.214848
0.241058
0.267553
0.294089
0.320445
0.346426
0.371868
0.396629
0.420595
0.443674
0.465795
0.486908
0.506982
0.526003
0.543967
0.560885
0.576776
0.591668
0.605593
0.618588
0.630695
0.641955
0.652412
0.662112
0.671101
0.679423
0.687119
0.69423
0.700797
0.706791
0.712202
0.71738
0.722156
0.726547
0.730623
0.734513
0.738206
0.741709
0.745022
0.748147
0.751081
0.753822
0.756365
0.758707
0.760839
0.762753
0.764443
0.765897
0.767106
0.768065
0.76878
0.769276
0.769594
0.769784
0.769889
0.769946
0.769974
0.769988
0.769994
0.769997
0.769999
0.769999
0.77
0.77
0.77
0.77
0.77
0.77
0.77
0.77
0.77
0.77
0.77
2.18051e-06
9.52957e-06
2.18911e-05
4.2614e-05
7.71831e-05
0.000134477
0.000228673
0.000382045
0.000628958
0.00102129
0.00163541
0.00258046
0.00400684
0.00611299
0.00914693
0.0133986
0.0191795
0.0267909
0.0364845
0.0484289
0.0626887
0.0792228
0.0978984
0.118512
0.140812
0.164519
0.189344
0.214997
0.241195
0.267676
0.294193
0.320529
0.346488
0.371905
0.396642
0.420583
0.443637
0.465733
0.486823
0.506875
0.525874
0.543819
0.56072
0.576597
0.591475
0.605389
0.618375
0.630474
0.64173
0.652185
0.661885
0.670872
0.679191
0.686888
0.694003
0.700575
0.706577
0.711994
0.717179
0.721962
0.726372
0.730443
0.734334
0.73803
0.741537
0.744855
0.747986
0.750927
0.753677
0.75623
0.758581
0.760725
0.762652
0.764354
0.765822
0.767045
0.768018
0.768746
0.769254
0.76958
0.769776
0.769885
0.769944
0.769973
0.769987
0.769994
0.769997
0.769999
0.769999
0.77
0.77
0.77
0.77
0.77
0.77
0.77
0.77
0.77
0.77
0.77
2.18949e-06
9.56881e-06
2.19813e-05
4.27899e-05
7.75026e-05
0.000135036
0.000229626
0.000383642
0.000631586
0.00102554
0.00164218
0.002591
0.0040229
0.00613683
0.00918133
0.0134467
0.0192445
0.0268755
0.0365907
0.0485573
0.0628386
0.0793923
0.098084
0.118709
0.141017
0.164727
0.189549
0.215193
0.24138
0.267843
0.29434
0.320651
0.346584
0.371973
0.396679
0.420591
0.443614
0.465681
0.486741
0.506765
0.525738
0.543659
0.560538
0.576395
0.591256
0.605155
0.618129
0.630219
0.641467
0.651917
0.661614
0.670601
0.678923
0.68662
0.693735
0.700312
0.706323
0.711749
0.716941
0.721734
0.726158
0.730226
0.734119
0.737819
0.741329
0.744654
0.747791
0.750741
0.753501
0.756065
0.758429
0.760586
0.762528
0.764246
0.76573
0.76697
0.76796
0.768705
0.769226
0.769563
0.769766
0.769881
0.769941
0.769972
0.769987
0.769994
0.769997
0.769999
0.769999
0.77
0.77
0.77
0.77
0.77
0.77
0.77
0.77
0.77
0.77
0.77
2.2001e-06
9.61516e-06
2.20879e-05
4.29979e-05
7.78809e-05
0.000135698
0.000230758
0.00038554
0.000634718
0.00103063
0.00165028
0.00260365
0.00404221
0.00616559
0.00922294
0.013505
0.0193236
0.0269788
0.0367209
0.0487155
0.0630242
0.079603
0.0983162
0.118958
0.141277
0.164992
0.189813
0.21545
0.241623
0.268068
0.294541
0.320825
0.346727
0.372083
0.396754
0.420629
0.443616
0.465646
0.486671
0.506661
0.525602
0.543493
0.560345
0.576176
0.591016
0.604896
0.617853
0.62993
0.641167
0.65161
0.661301
0.670286
0.678608
0.686309
0.693428
0.700005
0.706025
0.711461
0.716663
0.721466
0.725902
0.729969
0.733866
0.73757
0.741086
0.744414
0.747558
0.750517
0.753288
0.755868
0.758248
0.760421
0.762381
0.764117
0.765621
0.766881
0.767891
0.768654
0.769191
0.769543
0.769755
0.769874
0.769938
0.76997
0.769986
0.769994
0.769997
0.769999
0.769999
0.77
0.77
0.77
0.77
0.77
0.77
0.77
0.77
0.77
0.77
0.77
2.21238e-06
9.66885e-06
2.22115e-05
4.32392e-05
7.83203e-05
0.000136469
0.000232077
0.000387758
0.000638385
0.00103659
0.00165981
0.00261858
0.00406509
0.00619976
0.00927257
0.0135748
0.0194186
0.0271035
0.0368787
0.048908
0.0632511
0.079862
0.0986033
0.119268
0.141603
0.165327
0.19015
0.215781
0.241941
0.268366
0.294815
0.321068
0.346935
0.372251
0.396882
0.420714
0.443657
0.465645
0.486626
0.506575
0.525477
0.543331
0.560148
0.575949
0.59076
0.604616
0.617552
0.629611
0.640834
0.651266
0.660949
0.669929
0.678249
0.68595
0.693075
0.699661
0.705689
0.711133
0.716343
0.721156
0.725603
0.72967
0.733572
0.737283
0.740808
0.744148
0.747303
0.750273
0.753053
0.755641
0.758034
0.760224
0.762206
0.763965
0.765491
0.766774
0.767808
0.768593
0.769153
0.76952
0.769742
0.769867
0.769934
0.769968
0.769985
0.769993
0.769997
0.769999
0.769999
0.77
0.77
0.77
0.77
0.77
0.77
0.77
0.77
0.77
0.77
0.77
2.22632e-06
9.72979e-06
2.23518e-05
4.35138e-05
7.88209e-05
0.000137348
0.000233586
0.000390301
0.000642603
0.00104347
0.00167084
0.00263593
0.00409177
0.00623978
0.00933093
0.0136574
0.0195313
0.0272522
0.0370677
0.0491399
0.0635261
0.0801777
0.0989553
0.11965
0.142008
0.165747
0.190575
0.216204
0.242353
0.268758
0.295179
0.321399
0.347226
0.372499
0.397082
0.420864
0.443756
0.465691
0.486624
0.506522
0.525376
0.543185
0.55996
0.575722
0.590498
0.604323
0.617232
0.629268
0.640472
0.650888
0.66056
0.669531
0.677846
0.685545
0.692669
0.699257
0.705295
0.710746
0.715969
0.720797
0.725262
0.729329
0.733235
0.736952
0.740485
0.743837
0.747006
0.749991
0.752789
0.755396
0.757806
0.760013
0.762009
0.763788
0.765339
0.766649
0.767709
0.768527
0.76911
0.769492
0.769725
0.769858
0.76993
0.769966
0.769984
0.769993
0.769997
0.769998
0.769999
0.77
0.77
0.77
0.77
0.77
0.77
0.77
0.77
0.77
0.77
0.77
2.24177e-06
9.79739e-06
2.25077e-05
4.38192e-05
7.9379e-05
0.000138331
0.000235278
0.000393162
0.000647365
0.00105127
0.00168341
0.00265578
0.00412245
0.00628603
0.00939872
0.0137537
0.0196637
0.0274277
0.0372921
0.0494167
0.0638561
0.0805591
0.0993835
0.120118
0.142508
0.166269
0.191109
0.21674
0.242879
0.269266
0.295659
0.321842
0.347626
0.37285
0.397378
0.421103
0.443935
0.465809
0.486681
0.506521
0.525317
0.543071
0.559795
0.575509
0.590241
0.604027
0.616902
0.628907
0.640086
0.650481
0.660137
0.669097
0.677403
0.685098
0.692221
0.698812
0.704868
0.710332
0.715561
0.720397
0.724873
0.728944
0.732853
0.736575
0.740116
0.743476
0.746657
0.749657
0.752472
0.755098
0.75753
0.75976
0.761774
0.763578
0.765159
0.766504
0.767606
0.768452
0.769057
0.769459
0.769706
0.769848
0.769924
0.769963
0.769983
0.769992
0.769996
0.769998
0.769999
0.77
0.77
0.77
0.77
0.77
0.77
0.77
0.77
0.77
0.77
0.77
2.25838e-06
9.87015e-06
2.26757e-05
4.4149e-05
7.99833e-05
0.000139399
0.000237122
0.000396293
0.000652603
0.0010599
0.00169738
0.00267798
0.00415698
0.00633844
0.00947609
0.0138644
0.0198168
0.0276322
0.0375554
0.0497439
0.064249
0.0810162
0.0999003
0.120688
0.14312
0.166913
0.191774
0.217413
0.243548
0.269918
0.296283
0.322428
0.348164
0.373333
0.3978
0.421458
0.444221
0.466024
0.486823
0.506593
0.525322
0.54301
0.55967
0.575326
0.590005
0.603741
0.616573
0.62854
0.639686
0.650054
0.659687
0.66863
0.676924
0.684611
0.691733
0.698328
0.704404
0.709873
0.715108
0.719951
0.724435
0.72851
0.732421
0.73615
0.739698
0.74307
0.746265
0.749282
0.752118
0.754769
0.75723
0.759492
0.761541
0.763379
0.764992