/*--------------------------------*- C++ -*----------------------------------*\
  =========                 |
  \\      /  F ield         | OpenFOAM: The Open Source CFD Toolbox
   \\    /   O peration     | Website:  https://openfoam.org
    \\  /    A nd           | Version:  8
     \\/     M anipulation  |
\*---------------------------------------------------------------------------*/
FoamFile
{
    version     2.0;
    format      ascii;
    class       volScalarField;
    location    "860/fluid";
    object      O2;
}
// * * * * * * * * * * * * * * * * * * * * * * * * * * * * * * * * * * * * * //

dimensions      [0 0 0 0 0 0 0];

internalField   nonuniform List<scalar> 
4000
(
4.58416e-10
2.00166e-09
4.58936e-09
8.90818e-09
1.60753e-08
2.78869e-08
4.71911e-08
7.84276e-08
1.2838e-07
2.07166e-07
3.29437e-07
5.15695e-07
7.93502e-07
1.1976e-06
1.76866e-06
2.54978e-06
3.58058e-06
4.88974e-06
6.48816e-06
8.36512e-06
1.04886e-05
1.28096e-05
1.5268e-05
1.77985e-05
2.03363e-05
2.28201e-05
2.51945e-05
2.74119e-05
2.94329e-05
3.12273e-05
3.27758e-05
3.40734e-05
3.51354e-05
3.60077e-05
3.67797e-05
3.7598e-05
3.86788e-05
4.03184e-05
4.29032e-05
4.69262e-05
5.30169e-05
6.19853e-05
7.48823e-05
9.30766e-05
0.000118356
0.000153062
0.000200267
0.000263911
0.000349266
0.000463475
0.000615698
0.000817981
0.00108614
0.00144093
0.00190955
0.00252769
0.0033422
0.0044001
0.0057748
0.00763142
0.0100744
0.0132965
0.0184623
0.0348942
0.0515306
0.0681125
0.0844386
0.10035
0.11572
0.130445
0.144436
0.157615
0.169907
0.181182
0.191482
0.200647
0.208578
0.215178
0.220376
0.224178
0.226725
0.228279
0.229146
0.229594
0.229812
0.229915
0.229962
0.229984
0.229993
0.229997
0.229999
0.229999
0.23
0.23
0.23
0.23
0.23
0.23
0.23
0.23
4.65501e-10
2.03401e-09
4.66929e-09
9.07815e-09
1.64127e-08
2.8528e-08
4.8367e-08
8.05161e-08
1.3197e-07
2.1312e-07
3.38888e-07
5.29752e-07
8.14275e-07
1.22746e-06
1.81028e-06
2.60626e-06
3.65565e-06
4.98811e-06
6.61587e-06
8.52963e-06
1.06986e-05
1.30743e-05
1.55963e-05
1.81987e-05
2.08148e-05
2.33813e-05
2.58406e-05
2.81426e-05
3.02457e-05
3.21177e-05
3.37379e-05
3.51e-05
3.62191e-05
3.71419e-05
3.79608e-05
3.88282e-05
3.99694e-05
4.16928e-05
4.43993e-05
4.8598e-05
5.49342e-05
6.42327e-05
7.75572e-05
9.62867e-05
0.000122217
0.000157696
0.000205719
0.000270301
0.00035703
0.000472719
0.000626568
0.000830646
0.00110079
0.00145776
0.00192881
0.00254968
0.00336738
0.00442859
0.00580754
0.00767137
0.010125
0.0133628
0.0197632
0.036297
0.0530149
0.0696638
0.0860452
0.102002
0.117406
0.132154
0.146154
0.159326
0.17159
0.182808
0.193018
0.20205
0.209801
0.216177
0.221123
0.22468
0.227023
0.228434
0.229218
0.229625
0.229825
0.22992
0.229964
0.229984
0.229993
0.229997
0.229999
0.229999
0.23
0.23
0.23
0.23
0.23
0.23
0.23
0.23
4.74862e-10
2.07493e-09
4.7638e-09
9.26377e-09
1.67521e-08
2.91235e-08
4.93824e-08
8.22104e-08
1.34756e-07
2.17685e-07
3.46488e-07
5.4302e-07
8.34892e-07
1.25782e-06
1.85362e-06
2.66683e-06
3.73898e-06
5.10131e-06
6.76782e-06
8.73101e-06
1.09616e-05
1.34118e-05
1.60216e-05
1.8724e-05
2.14508e-05
2.41364e-05
2.67207e-05
2.91504e-05
3.13811e-05
3.33776e-05
3.51165e-05
3.65897e-05
3.78112e-05
3.88288e-05
3.97387e-05
4.07017e-05
4.19568e-05
4.3831e-05
4.67483e-05
5.12431e-05
5.79868e-05
6.78296e-05
8.18585e-05
0.000101474
0.000128495
0.000165201
0.00021463
0.000281232
0.000370105
0.000488278
0.000644978
0.000852312
0.00112616
0.00148736
0.00196326
0.00258979
0.00341426
0.00448264
0.00587124
0.00774942
0.0102225
0.0134932
0.0220459
0.038655
0.0554413
0.0721452
0.0885642
0.104538
0.119937
0.134654
0.148594
0.161672
0.173807
0.184875
0.194871
0.203645
0.211105
0.217173
0.22182
0.225121
0.227274
0.228564
0.229281
0.229653
0.229837
0.229925
0.229966
0.229985
0.229994
0.229997
0.229999
0.23
0.23
0.23
0.23
0.23
0.23
0.23
0.23
0.23
4.85979e-10
2.1241e-09
4.879e-09
9.4931e-09
1.71763e-08
2.98744e-08
5.0669e-08
8.43523e-08
1.3822e-07
2.23107e-07
3.54627e-07
5.54496e-07
8.51605e-07
1.28239e-06
1.88969e-06
2.71943e-06
3.81493e-06
5.2096e-06
6.91973e-06
8.93999e-06
1.12427e-05
1.3781e-05
1.64946e-05
1.93156e-05
2.2174e-05
2.50018e-05
2.77358e-05
3.03199e-05
3.27063e-05
3.48568e-05
3.6745e-05
3.83604e-05
3.9716e-05
4.08609e-05
4.18964e-05
4.29936e-05
4.44088e-05
4.64925e-05
4.96977e-05
5.45907e-05
6.18763e-05
7.24379e-05
8.73948e-05
0.000108182
0.000136544
0.000174851
0.000226642
0.000295775
0.000387667
0.000509423
0.000670362
0.000882703
0.00116247
0.0015307
0.00201499
0.00265167
0.00348859
0.00456975
0.00597453
0.00787723
0.0103871
0.0137052
0.0248802
0.0415168
0.0583327
0.0750564
0.0914771
0.107429
0.122778
0.137413
0.151238
0.164167
0.176113
0.186998
0.196733
0.205223
0.212382
0.218144
0.222504
0.225562
0.227533
0.228703
0.22935
0.229686
0.229852
0.229932
0.229969
0.229986
0.229994
0.229997
0.229999
0.23
0.23
0.23
0.23
0.23
0.23
0.23
0.23
0.23
4.95841e-10
2.16719e-09
4.97797e-09
9.68564e-09
1.75242e-08
3.04777e-08
5.16872e-08
8.60356e-08
1.40956e-07
2.27486e-07
3.61542e-07
5.6528e-07
8.68241e-07
1.30775e-06
1.92787e-06
2.77611e-06
3.89782e-06
5.32872e-06
7.08758e-06
9.17133e-06
1.1554e-05
1.41898e-05
1.70183e-05
1.99707e-05
2.29752e-05
2.59614e-05
2.88633e-05
3.16214e-05
3.41845e-05
3.65111e-05
3.85717e-05
4.03534e-05
4.18683e-05
4.31673e-05
4.43581e-05
4.56248e-05
4.72442e-05
4.95952e-05
5.31647e-05
5.85571e-05
6.65168e-05
7.79678e-05
9.40637e-05
0.000116171
0.0001462
0.000186981
0.000241476
0.000313913
0.000409832
0.000536485
0.000703378
0.000922962
0.00121156
0.00159057
0.0020881
0.00274114
0.00359657
0.00469625
0.00613048
0.00807591
0.0106388
0.014008
0.0278617
0.0444835
0.0613045
0.0780293
0.0944329
0.110342
0.125618
0.140148
0.153838
0.166598
0.178327
0.188988
0.198466
0.206676
0.213542
0.219015
0.223109
0.225946
0.227756
0.228823
0.22941
0.229715
0.229865
0.229938
0.229972
0.229987
0.229995
0.229998
0.229999
0.23
0.23
0.23
0.23
0.23
0.23
0.23
0.23
0.23
5.04404e-10
2.20449e-09
5.06327e-09
9.85075e-09
1.78215e-08
3.09928e-08
5.25586e-08
8.74858e-08
1.43339e-07
2.3136e-07
3.67776e-07
5.75216e-07
8.83919e-07
1.33222e-06
1.96558e-06
2.83338e-06
3.98329e-06
5.45366e-06
7.26602e-06
9.4197e-06
1.18906e-05
1.46337e-05
1.75886e-05
2.06854e-05
2.38506e-05
2.70111e-05
3.00981e-05
3.30486e-05
3.5808e-05
3.83313e-05
4.05856e-05
4.25557e-05
4.42529e-05
4.57307e-05
4.71052e-05
4.85758e-05
5.04435e-05
5.31201e-05
5.71313e-05
6.31242e-05
7.18891e-05
8.43771e-05
0.000101693
0.000125421
0.000157849
0.000201293
0.000259104
0.000335661
0.000436697
0.000569713
0.000744525
0.000973978
0.00127488
0.00166925
0.00218595
0.00286203
0.00374729
0.00488152
0.00636064
0.00835476
0.0109693
0.0143642
0.0304255
0.0471298
0.0640246
0.0807913
0.0971981
0.113071
0.128273
0.142697
0.156248
0.168843
0.180356
0.190801
0.200035
0.207983
0.21458
0.219789
0.223645
0.226287
0.227955
0.228931
0.229465
0.229741
0.229878
0.229944
0.229974
0.229989
0.229995
0.229998
0.229999
0.23
0.23
0.23
0.23
0.23
0.23
0.23
0.23
0.23
5.12301e-10
2.23894e-09
5.14222e-09
1.00042e-08
1.80993e-08
3.14777e-08
5.33869e-08
8.88802e-08
1.4566e-07
2.35185e-07
3.74021e-07
5.85308e-07
9.00053e-07
1.3577e-06
2.00523e-06
2.89409e-06
4.07445e-06
5.58756e-06
7.45786e-06
9.68735e-06
1.22539e-05
1.51134e-05
1.82057e-05
2.14597e-05
2.48001e-05
2.81512e-05
3.1441e-05
3.46032e-05
3.75793e-05
4.03206e-05
4.27909e-05
4.49722e-05
4.68754e-05
4.85576e-05
5.01449e-05
5.1855e-05
5.40164e-05
5.70774e-05
6.16061e-05
6.82957e-05
7.79583e-05
9.1514e-05
0.000110314
0.000136227
0.000171092
0.0002176
0.000279258
0.000360656
0.0004678
0.000608555
0.000793218
0.00103526
0.00135231
0.00176739
0.00231054
0.00302174
0.00395398
0.00513553
0.00672659
0.00880561
0.0115174
0.014983
0.0319371
0.0491425
0.066314
0.0832198
0.0996748
0.115531
0.130669
0.144989
0.158407
0.170843
0.182178
0.192426
0.201436
0.209143
0.215492
0.220465
0.224109
0.22658
0.228126
0.229023
0.229512
0.229764
0.229889
0.229949
0.229977
0.22999
0.229995
0.229998
0.229999
0.23
0.23
0.23
0.23
0.23
0.23
0.23
0.23
0.23
5.19856e-10
2.27193e-09
5.21796e-09
1.01517e-08
1.83673e-08
3.19475e-08
5.41933e-08
9.0246e-08
1.47949e-07
2.38989e-07
3.80284e-07
5.95526e-07
9.16541e-07
1.38397e-06
2.04649e-06
2.95775e-06
4.17068e-06
5.72962e-06
7.66223e-06
9.97337e-06
1.2643e-05
1.56285e-05
1.88693e-05
2.22939e-05
2.58248e-05
2.93838e-05
3.28958e-05
3.62906e-05
3.95061e-05
4.24893e-05
4.52003e-05
4.76185e-05
4.97544e-05
5.16693e-05
5.35014e-05
5.54894e-05
5.7992e-05
6.14969e-05
6.66171e-05
7.40631e-05
8.46216e-05
9.94759e-05
0.000120167
0.000148175
0.000185672
0.00023548
0.000301282
0.000387905
0.000501679
0.000650919
0.000846555
0.00110297
0.00143912
0.00188004
0.00245891
0.00321987
0.00421558
0.00549088
0.00722754
0.00952281
0.0125681
0.0165489
0.0337827
0.0511952
0.068498
0.0854687
0.101933
0.117753
0.132815
0.147025
0.160299
0.172567
0.183715
0.193773
0.202606
0.210134
0.216284
0.22105
0.224508
0.226831
0.228272
0.229102
0.229552
0.229784
0.229898
0.229953
0.229979
0.22999
0.229996
0.229998
0.229999
0.23
0.23
0.23
0.23
0.23
0.23
0.23
0.23
0.23
5.27277e-10
2.30436e-09
5.29254e-09
1.02974e-08
1.86328e-08
3.24145e-08
5.49988e-08
9.16174e-08
1.50262e-07
2.42855e-07
3.86692e-07
6.06044e-07
9.33618e-07
1.41134e-06
2.08967e-06
3.02464e-06
4.2721e-06
5.87979e-06
7.87878e-06
1.02771e-05
1.30571e-05
1.61776e-05
1.95785e-05
2.31873e-05
2.6925e-05
3.07107e-05
3.4466e-05
3.81171e-05
4.15976e-05
4.48502e-05
4.78311e-05
5.05166e-05
5.29169e-05
5.50985e-05
5.72133e-05
5.95235e-05
6.24199e-05
6.64313e-05
7.21844e-05
8.03744e-05
9.20476e-05
0.000108503
0.000130942
0.000161125
0.000201314
0.000254446
0.000324357
0.000416069
0.000536174
0.000693326
0.000898906
0.0011679
0.00152005
0.00198149
0.00258679
0.00338194
0.00442277
0.00576232
0.00759158
0.0100193
0.0132617
0.0182173
0.0356487
0.0531838
0.070551
0.0875392
0.103982
0.119748
0.134727
0.148831
0.161977
0.17409
0.185065
0.194901
0.203536
0.210891
0.216916
0.221538
0.224845
0.227043
0.228395
0.229169
0.229587
0.229801
0.229906
0.229957
0.22998
0.229991
0.229996
0.229998
0.229999
0.23
0.23
0.23
0.23
0.23
0.23
0.23
0.23
0.23
5.34633e-10
2.33653e-09
5.36658e-09
1.04422e-08
1.88973e-08
3.28812e-08
5.58065e-08
9.29977e-08
1.52599e-07
2.46779e-07
3.93225e-07
6.16818e-07
9.51187e-07
1.43961e-06
2.13444e-06
3.09424e-06
4.37799e-06
6.037e-06
8.10609e-06
1.05967e-05
1.34941e-05
1.67586e-05
2.0331e-05
2.41382e-05
2.80997e-05
3.21323e-05
3.61543e-05
4.00883e-05
4.38633e-05
4.74177e-05
5.07033e-05
5.3693e-05
5.6397e-05
5.88878e-05
6.13331e-05
6.40207e-05
6.7375e-05
7.19417e-05
7.83297e-05
8.74757e-05
0.000100515
0.000118439
0.000142687
0.000175079
0.00021795
0.000274327
0.000348157
0.000444596
0.000570397
0.000734404
0.000948217
0.00122706
0.00159094
0.00206618
0.0026875
0.00350076
0.00455762
0.0059124
0.00775162
0.0101706
0.0133603
0.0200062
0.0374974
0.0550652
0.0724382
0.0894063
0.105805
0.121505
0.136401
0.150406
0.163433
0.175408
0.1863
0.196045
0.204528
0.21169
0.217483
0.221951
0.225135
0.227225
0.2285
0.229226
0.229616
0.229815
0.229913
0.22996
0.229982
0.229992
0.229996
0.229998
0.229999
0.23
0.23
0.23
0.23
0.23
0.23
0.23
0.23
0.23
5.41918e-10
2.3684e-09
5.44002e-09
1.0586e-08
1.91605e-08
3.33468e-08
5.66142e-08
9.43822e-08
1.54951e-07
2.50742e-07
3.99846e-07
6.27775e-07
9.69116e-07
1.46855e-06
2.18042e-06
3.16592e-06
4.48733e-06
6.19978e-06
8.34209e-06
1.09295e-05
1.39504e-05
1.73674e-05
2.11223e-05
2.5142e-05
2.93449e-05
3.36458e-05
3.79601e-05
4.22064e-05
4.63099e-05
5.0204e-05
5.38359e-05
5.71754e-05
6.02323e-05
6.30864e-05
6.59233e-05
6.90583e-05
7.29344e-05
7.8068e-05
8.53014e-05
9.56533e-05
0.000109965
0.000129444
0.000155571
0.000190217
0.000235775
0.000295344
0.00037295
0.000473841
0.000604868
0.000774974
0.00099585
0.00128279
0.00165582
0.0021412
0.00277345
0.0035978
0.00466375
0.00602505
0.00786819
0.0102829
0.0134572
0.0217433
0.0392485
0.0568144
0.0741699
0.0911022
0.107446
0.123074
0.137883
0.151788
0.164717
0.176627
0.187419
0.197024
0.205364
0.212378
0.218023
0.222312
0.225375
0.227379
0.228589
0.229274
0.22964
0.229827
0.229918
0.229962
0.229983
0.229992
0.229997
0.229999
0.229999
0.23
0.23
0.23
0.23
0.23
0.23
0.23
0.23
0.23
5.4907e-10
2.39969e-09
5.51217e-09
1.07275e-08
1.94198e-08
3.38062e-08
5.74131e-08
9.57552e-08
1.57289e-07
2.54693e-07
4.06468e-07
6.38765e-07
9.8715e-07
1.49775e-06
2.22694e-06
3.23864e-06
4.59859e-06
6.3659e-06
8.58371e-06
1.12714e-05
1.4421e-05
1.79978e-05
2.19453e-05
2.61909e-05
3.06526e-05
3.52436e-05
3.98769e-05
4.4468e-05
4.89377e-05
5.32153e-05
5.72432e-05
6.09878e-05
6.44594e-05
6.77461e-05
7.10524e-05
7.47195e-05
7.91613e-05
8.50744e-05
9.34076e-05
0.000104902
0.000120598
0.000141737
0.000169839
0.000206819
0.000255124
0.000317913
0.000399279
0.000504543
0.000640623
0.000816528
0.001044
0.00133835
0.00171957
0.00221376
0.00285482
0.0036876
0.0047621
0.00613108
0.00797848
0.0103927
0.0135592
0.0232936
0.0408045
0.0583548
0.075672
0.0925464
0.108834
0.124407
0.13916
0.153009
0.165883
0.177693
0.188377
0.197863
0.206078
0.212963
0.218481
0.22265
0.225583
0.227506
0.228664
0.229314
0.229661
0.229837
0.229923
0.229965
0.229984
0.229993
0.229997
0.229999
0.229999
0.23
0.23
0.23
0.23
0.23
0.23
0.23
0.23
0.23
5.55982e-10
2.42994e-09
5.58198e-09
1.08645e-08
1.96712e-08
3.42524e-08
5.81906e-08
9.70941e-08
1.59575e-07
2.58565e-07
4.12972e-07
6.49589e-07
1.00496e-06
1.52666e-06
2.27314e-06
3.31108e-06
4.70976e-06
6.53247e-06
8.82686e-06
1.16169e-05
1.48985e-05
1.86405e-05
2.27886e-05
2.72717e-05
3.2008e-05
3.69101e-05
4.18894e-05
4.68587e-05
5.17358e-05
5.64455e-05
6.09265e-05
6.51425e-05
6.91059e-05
7.29172e-05
7.6808e-05
8.1109e-05
8.63432e-05
9.32542e-05
0.000102637
0.000115403
0.000132614
0.00015554
0.000185738
0.000225169
0.000276333
0.000342445
0.000427662
0.000537368
0.000678546
0.00086026
0.0010943
0.00139596
0.00178505
0.0022874
0.00293733
0.00378026
0.00486291
0.00623801
0.00808942
0.0105027
0.0136599
0.024629
0.0421557
0.0597007
0.076996
0.0938569
0.110113
0.125638
0.140331
0.154106
0.166888
0.178604
0.189191
0.198574
0.206681
0.213454
0.218861
0.222928
0.225773
0.227613
0.228724
0.229348
0.229678
0.229845
0.229927
0.229966
0.229985
0.229993
0.229997
0.229999
0.229999
0.23
0.23
0.23
0.23
0.23
0.23
0.23
0.23
0.23
5.62521e-10
2.45857e-09
5.64805e-09
1.09943e-08
1.99097e-08
3.46763e-08
5.89303e-08
9.83705e-08
1.61759e-07
2.62273e-07
4.19216e-07
6.60006e-07
1.02215e-06
1.55464e-06
2.31797e-06
3.3816e-06
4.81835e-06
6.69577e-06
9.06622e-06
1.19584e-05
1.5373e-05
1.92826e-05
2.36361e-05
2.83647e-05
3.3388e-05
3.8619e-05
4.39688e-05
4.93489e-05
5.46747e-05
5.98679e-05
6.48634e-05
6.96221e-05
7.41576e-05
7.85801e-05
8.31377e-05
8.8138e-05
9.43179e-05
0.000102394
0.000113059
0.00012728
0.000146164
0.000171022
0.000203458
0.000245479
0.000299642
0.00036922
0.000458432
0.000572723
0.000719141
0.000906771
0.00114732
0.00145594
0.00185261
0.00236395
0.00302378
0.00387577
0.0049661
0.00634732
0.00820215
0.0106132
0.0137566
0.0257612
0.0433089
0.0608509
0.0781419
0.0949737
0.11119
0.126668
0.141305
0.155016
0.167726
0.179366
0.189872
0.199167
0.207183
0.213862
0.219176
0.223154
0.225925
0.227709
0.228775
0.229374
0.229692
0.229852
0.22993
0.229968
0.229985
0.229993
0.229997
0.229999
0.229999
0.23
0.23
0.23
0.23
0.23
0.23
0.23
0.23
0.23
5.68533e-10
2.48489e-09
5.70885e-09
1.11139e-08
2.01295e-08
3.50675e-08
5.96141e-08
9.95525e-08
1.63785e-07
2.6572e-07
4.25035e-07
6.69737e-07
1.03824e-06
1.58092e-06
2.3602e-06
3.44826e-06
4.92137e-06
6.8513e-06
9.29519e-06
1.22868e-05
1.58316e-05
1.99067e-05
2.44652e-05
2.94414e-05
3.47576e-05
4.03291e-05
4.60678e-05
5.18863e-05
5.76996e-05
6.34288e-05
6.90077e-05
7.43976e-05
7.96173e-05
8.47914e-05
9.0164e-05
9.62947e-05
0.000103611
0.000112855
0.00012488
0.000140666
0.000161345
0.000188262
0.000223064
0.00026781
0.000325113
0.000398311
0.00049167
0.000610666
0.000762311
0.00095568
0.00120264
0.00151902
0.00192469
0.00244502
0.00311363
0.00397432
0.00507194
0.00645872
0.00831607
0.0107237
0.0138455
0.0266976
0.0442734
0.0618233
0.0790989
0.0959044
0.112086
0.127521
0.142109
0.155767
0.168418
0.179995
0.190433
0.199657
0.207597
0.214198
0.219433
0.223339
0.226048
0.227785
0.228819
0.229396
0.229703
0.229857
0.229933
0.229969
0.229986
0.229994
0.229997
0.229999
0.229999
0.23
0.23
0.23
0.23
0.23
0.23
0.23
0.23
0.23
5.73859e-10
2.50821e-09
5.76273e-09
1.12199e-08
2.03246e-08
3.54151e-08
6.02227e-08
1.00606e-07
1.65595e-07
2.68805e-07
4.30253e-07
6.78483e-07
1.05275e-06
1.60466e-06
2.39848e-06
3.50887e-06
5.01539e-06
6.99383e-06
9.50598e-06
1.25906e-05
1.62582e-05
2.0491e-05
2.52465e-05
3.04636e-05
3.60683e-05
4.19795e-05
4.81129e-05
5.43837e-05
6.071e-05
6.70158e-05
7.32386e-05
7.93465e-05
8.53732e-05
9.14738e-05
9.7925e-05
0.000105186
0.000113794
0.000124402
0.000137938
0.000155418
0.000178009
0.000207096
0.000244371
0.000291943
0.000352466
0.000429299
0.000526732
0.000650332
0.00080726
0.00100703
0.00126151
0.00158568
0.00199938
0.00252823
0.00320548
0.00407444
0.00517869
0.00656989
0.0084279
0.0108293
0.0139271
0.0274565
0.0450561
0.0626134
0.0798796
0.096664
0.112816
0.128216
0.142764
0.156376
0.168979
0.180504
0.190888
0.200053
0.207931
0.214468
0.21964
0.223487
0.226146
0.227845
0.228854
0.229416
0.229712
0.229862
0.229935
0.22997
0.229986
0.229994
0.229997
0.229999
0.229999
0.23
0.23
0.23
0.23
0.23
0.23
0.23
0.23
0.23
5.78341e-10
2.52784e-09
5.8081e-09
1.13092e-08
2.04891e-08
3.57086e-08
6.0737e-08
1.01498e-07
1.67129e-07
2.71425e-07
4.34693e-07
6.85942e-07
1.06515e-06
1.62501e-06
2.43139e-06
3.56114e-06
5.09676e-06
7.11768e-06
9.68994e-06
1.2857e-05
1.66345e-05
2.10094e-05
2.59444e-05
3.13831e-05
3.72568e-05
4.34893e-05
5.00012e-05
5.67133e-05
6.3549e-05
7.04379e-05
7.7324e-05
8.4184e-05
9.1066e-05
9.81455e-05
0.000105758
0.000114276
0.00012419
0.000136377
0.000151605
0.000170902
0.000195474
0.000226752
0.000266478
0.000316813
0.000380468
0.000460886
0.000562646
0.000691356
0.000854251
0.00106036
0.00132157
0.00165315
0.00207476
0.00261182
0.00329724
0.00417375
0.00528372
0.00667789
0.00853437
0.0109265
0.0139973
0.0280569
0.0456841
0.0632453
0.0805023
0.0972684
0.113396
0.128766
0.14328
0.156856
0.16942
0.180903
0.191243
0.200362
0.208191
0.214679
0.219801
0.223601
0.226221
0.227891
0.22888
0.22943
0.22972
0.229866
0.229937
0.229971
0.229987
0.229994
0.229997
0.229999
0.23
0.23
0.23
0.23
0.23
0.23
0.23
0.23
0.23
0.23
5.81835e-10
2.54315e-09
5.84348e-09
1.13788e-08
2.06176e-08
3.59379e-08
6.11394e-08
1.02196e-07
1.68332e-07
2.73483e-07
4.38187e-07
6.91824e-07
1.07494e-06
1.64114e-06
2.45752e-06
3.60278e-06
5.1618e-06
7.21704e-06
9.83815e-06
1.30727e-05
1.69405e-05
2.14335e-05
2.65188e-05
3.21454e-05
3.82498e-05
4.47615e-05
5.16079e-05
5.87169e-05
6.60202e-05
7.34571e-05
8.09834e-05
8.85912e-05
9.63517e-05
0.000104472
0.000113358
0.000123266
0.000134631
0.00014821
0.000164981
0.00018599
0.000212474
0.000245912
0.000288111
0.000341305
0.0004083
0.000492645
0.000598686
0.000732125
0.000900206
0.00111217
0.00137985
0.00171845
0.00214751
0.00269219
0.00338501
0.00426806
0.00538261
0.00677818
0.00863106
0.0110112
0.0140532
0.0285008
0.0461551
0.0637234
0.0809744
0.0977259
0.113833
0.129179
0.143667
0.157215
0.169748
0.1812
0.191507
0.200591
0.208384
0.214834
0.219919
0.223685
0.226276
0.227925
0.228899
0.22944
0.229725
0.229868
0.229938
0.229971
0.229987
0.229994
0.229997
0.229999
0.23
0.23
0.23
0.23
0.23
0.23
0.23
0.23
0.23
0.23
5.84222e-10
2.5536e-09
5.86766e-09
1.14265e-08
2.07054e-08
3.60946e-08
6.14145e-08
1.02674e-07
1.69156e-07
2.74893e-07
4.40583e-07
6.95862e-07
1.08168e-06
1.65224e-06
2.47556e-06
3.6316e-06
5.20694e-06
7.28622e-06
9.94172e-06
1.3224e-05
1.71563e-05
2.17339e-05
2.69282e-05
3.2692e-05
3.89668e-05
4.56875e-05
5.27879e-05
6.02034e-05
6.78753e-05
7.57551e-05
8.38146e-05
9.20695e-05
0.000100627
0.000109744
0.000119759
0.000131037
0.000143874
0.000158973
0.000177278
0.000199891
0.000228107
0.00026346
0.000307807
0.000363434
0.000433183
0.000520621
0.000630246
0.00076777
0.000940461
0.00115758
0.00143094
0.00177566
0.00221114
0.00276225
0.00346106
0.00434896
0.00546629
0.00686086
0.00870738
0.0110738
0.0140909
0.0287935
0.0464753
0.0640521
0.0812997
0.0980404
0.114132
0.12946
0.143929
0.157456
0.169968
0.181398
0.191682
0.200743
0.208511
0.214935
0.219996
0.223739
0.226312
0.227946
0.228912
0.229447
0.229729
0.22987
0.229939
0.229972
0.229987
0.229994
0.229997
0.229999
0.23
0.23
0.23
0.23
0.23
0.23
0.23
0.23
0.23
0.23
5.85416e-10
2.55882e-09
5.8797e-09
1.14501e-08
2.07488e-08
3.6172e-08
6.15499e-08
1.02909e-07
1.69559e-07
2.75582e-07
4.41752e-07
6.9783e-07
1.08496e-06
1.65765e-06
2.48437e-06
3.64568e-06
5.22905e-06
7.32023e-06
9.99283e-06
1.3299e-05
1.72638e-05
2.18844e-05
2.71344e-05
3.29692e-05
3.93328e-05
4.61636e-05
5.33993e-05
6.09802e-05
6.88539e-05
7.69796e-05
8.53398e-05
9.39648e-05
0.00010298
0.000112644
0.00012335
0.000135534
0.00014958
0.000165803
0.000185174
0.000208863
0.000238218
0.000274818
0.000320565
0.000377781
0.000449348
0.000538873
0.000650898
0.000791172
0.000966987
0.00118761
0.00146485
0.00181376
0.00225357
0.00280889
0.00351122
0.00440103
0.00551769
0.00690521
0.00873385
0.0110631
0.0140063
0.028937
0.046643
0.0642273
0.0814729
0.0982066
0.114289
0.129606
0.144063
0.157578
0.170079
0.181497
0.191769
0.200816
0.208572
0.214984
0.220032
0.223765
0.226328
0.227957
0.228917
0.22945
0.22973
0.229871
0.229939
0.229972
0.229987
0.229994
0.229997
0.229999
0.23
0.23
0.23
0.23
0.23
0.23
0.23
0.23
0.23
0.23
5.85415e-10
2.55882e-09
5.8797e-09
1.14501e-08
2.07488e-08
3.6172e-08
6.15499e-08
1.02909e-07
1.69559e-07
2.75582e-07
4.41752e-07
6.9783e-07
1.08496e-06
1.65765e-06
2.48437e-06
3.64568e-06
5.22906e-06
7.32023e-06
9.99284e-06
1.3299e-05
1.72638e-05
2.18844e-05
2.71344e-05
3.29692e-05
3.93328e-05
4.61637e-05
5.33993e-05
6.09803e-05
6.8854e-05
7.69798e-05
8.534e-05
9.3965e-05
0.00010298
0.000112644
0.000123349
0.000135534
0.000149579
0.000165802
0.000185173
0.000208863
0.000238217
0.000274818
0.000320564
0.000377781
0.000449348
0.000538873
0.000650898
0.000791172
0.000966986
0.00118761
0.00146485
0.00181376
0.00225357
0.00280889
0.00351122
0.00440103
0.00551769
0.00690521
0.00873384
0.0110631
0.0140063
0.0289369
0.046643
0.0642272
0.0814729
0.0982066
0.114289
0.129606
0.144063
0.157578
0.170079
0.181497
0.191769
0.200816
0.208572
0.214984
0.220032
0.223765
0.226328
0.227957
0.228917
0.22945
0.22973
0.229871
0.229939
0.229972
0.229987
0.229994
0.229997
0.229999
0.23
0.23
0.23
0.23
0.23
0.23
0.23
0.23
0.23
0.23
5.84221e-10
2.5536e-09
5.86765e-09
1.14264e-08
2.07053e-08
3.60946e-08
6.14144e-08
1.02674e-07
1.69156e-07
2.74893e-07
4.40583e-07
6.95862e-07
1.08168e-06
1.65224e-06
2.47557e-06
3.6316e-06
5.20694e-06
7.28622e-06
9.94173e-06
1.3224e-05
1.71563e-05
2.17339e-05
2.69282e-05
3.26921e-05
3.89669e-05
4.56876e-05
5.2788e-05
6.02036e-05
6.78757e-05
7.57556e-05
8.38153e-05
9.20706e-05
0.000100628
0.000109745
0.000119759
0.000131036
0.000143872
0.000158971
0.000177274
0.000199888
0.000228104
0.000263457
0.000307805
0.000363433
0.000433182
0.00052062
0.000630245
0.00076777
0.000940461
0.00115758
0.00143094
0.00177566
0.00221114
0.00276225
0.00346106
0.00434896
0.00546628
0.00686085
0.00870736
0.0110738
0.0140909
0.0287934
0.0464752
0.064052
0.0812996
0.0980403
0.114132
0.12946
0.143929
0.157456
0.169968
0.181398
0.191682
0.200742
0.208511
0.214935
0.219996
0.223739
0.226312
0.227946
0.228912
0.229447
0.229729
0.22987
0.229939
0.229972
0.229987
0.229994
0.229997
0.229999
0.23
0.23
0.23
0.23
0.23
0.23
0.23
0.23
0.23
0.23
5.81833e-10
2.54314e-09
5.84346e-09
1.13788e-08
2.06175e-08
3.59378e-08
6.11392e-08
1.02196e-07
1.68332e-07
2.73482e-07
4.38186e-07
6.91822e-07
1.07494e-06
1.64113e-06
2.45752e-06
3.60277e-06
5.16178e-06
7.21701e-06
9.83811e-06
1.30726e-05
1.69404e-05
2.14334e-05
2.65187e-05
3.21453e-05
3.82496e-05
4.47613e-05
5.16077e-05
5.87167e-05
6.60199e-05
7.34567e-05
8.09827e-05
8.85903e-05
9.63504e-05
0.000104471
0.000113357
0.000123266
0.000134632
0.000148211
0.000164982
0.000185991
0.000212474
0.000245913
0.000288111
0.000341305
0.000408299
0.000492644
0.000598685
0.000732124
0.000900204
0.00111217
0.00137985
0.00171845
0.0021475
0.00269218
0.003385
0.00426805
0.0053826
0.00677817
0.00863105
0.0110112
0.0140532
0.0285007
0.0461549
0.0637232
0.0809742
0.0977257
0.113833
0.129179
0.143667
0.157214
0.169748
0.1812
0.191507
0.200591
0.208384
0.214833
0.219919
0.223685
0.226276
0.227925
0.228899
0.22944
0.229725
0.229868
0.229938
0.229971
0.229987
0.229994
0.229997
0.229999
0.23
0.23
0.23
0.23
0.23
0.23
0.23
0.23
0.23
0.23
5.78338e-10
2.52783e-09
5.80807e-09
1.13091e-08
2.0489e-08
3.57084e-08
6.07367e-08
1.01497e-07
1.67128e-07
2.71424e-07
4.34691e-07
6.8594e-07
1.06514e-06
1.62501e-06
2.43138e-06
3.56113e-06
5.09674e-06
7.11765e-06
9.6899e-06
1.2857e-05
1.66344e-05
2.10093e-05
2.59442e-05
3.1383e-05
3.72566e-05
4.34891e-05
5.0001e-05
5.67131e-05
6.35488e-05
7.04378e-05
7.7324e-05
8.41842e-05
9.10667e-05
9.81474e-05
0.000105758
0.000114275
0.000124188
0.000136372
0.0001516
0.000170899
0.00019547
0.000226748
0.000266475
0.000316809
0.000380464
0.000460884
0.000562645
0.000691355
0.000854251
0.00106036
0.00132157
0.00165315
0.00207476
0.00261182
0.00329724
0.00417375
0.00528372
0.00667789
0.00853437
0.0109265
0.0139973
0.0280567
0.0456839
0.0632451
0.0805021
0.0972682
0.113395
0.128765
0.14328
0.156856
0.16942
0.180903
0.191243
0.200362
0.208191
0.214678
0.219801
0.223601
0.226221
0.227891
0.22888
0.22943
0.22972
0.229866
0.229937
0.229971
0.229987
0.229994
0.229997
0.229999
0.23
0.23
0.23
0.23
0.23
0.23
0.23
0.23
0.23
0.23
5.73856e-10
2.5082e-09
5.7627e-09
1.12198e-08
2.03245e-08
3.5415e-08
6.02224e-08
1.00606e-07
1.65594e-07
2.68804e-07
4.30251e-07
6.78481e-07
1.05274e-06
1.60466e-06
2.39847e-06
3.50886e-06
5.01537e-06
6.9938e-06
9.50594e-06
1.25905e-05
1.62581e-05
2.04909e-05
2.52464e-05
3.04634e-05
3.60681e-05
4.19794e-05
4.81127e-05
5.43836e-05
6.07099e-05
6.70157e-05
7.32384e-05
7.93462e-05
8.53725e-05
9.14724e-05
9.79244e-05
0.000105185
0.000113793
0.000124406
0.000137943
0.000155424
0.000178015
0.000207102
0.000244378
0.000291949
0.000352471
0.000429301
0.000526731
0.00065033
0.000807261
0.00100703
0.00126151
0.00158569
0.00199939
0.00252824
0.0032055
0.00407446
0.00517871
0.00656992
0.00842793
0.0108294
0.0139271
0.0274563
0.045056
0.0626132
0.0798794
0.0966638
0.112816
0.128215
0.142763
0.156376
0.168979
0.180503
0.190887
0.200052
0.20793
0.214468
0.21964
0.223487
0.226145
0.227845
0.228854
0.229416
0.229712
0.229862
0.229935
0.22997
0.229986
0.229994
0.229997
0.229999
0.229999
0.23
0.23
0.23
0.23
0.23
0.23
0.23
0.23
0.23
5.6853e-10
2.48488e-09
5.70882e-09
1.11138e-08
2.01294e-08
3.50673e-08
5.96138e-08
9.9552e-08
1.63785e-07
2.65719e-07
4.25033e-07
6.69734e-07
1.03824e-06
1.58091e-06
2.36019e-06
3.44824e-06
4.92135e-06
6.85127e-06
9.29514e-06
1.22867e-05
1.58315e-05
1.99066e-05
2.44651e-05
2.94413e-05
3.47575e-05
4.03289e-05
4.60677e-05
5.18863e-05
5.76996e-05
6.34289e-05
6.9008e-05
7.4398e-05
7.96178e-05
8.47919e-05
9.01662e-05
9.62989e-05
0.000103618
0.000112861
0.000124886
0.000140672
0.000161351
0.000188268
0.000223071
0.000267818
0.000325121
0.000398321
0.000491681
0.000610677
0.000762318
0.000955687
0.00120265
0.00151904
0.00192471
0.00244505
0.00311367
0.00397437
0.005072
0.0064588
0.00831617
0.0107238
0.0138456
0.0266976
0.0442734
0.0618234
0.079099
0.0959044
0.112086
0.127521
0.142109
0.155766
0.168417
0.179994
0.190433
0.199656
0.207596
0.214197
0.219433
0.223339
0.226048
0.227785
0.228819
0.229396
0.229703
0.229857
0.229933
0.229969
0.229986
0.229994
0.229997
0.229999
0.229999
0.23
0.23
0.23
0.23
0.23
0.23
0.23
0.23
0.23
5.62518e-10
2.45855e-09
5.64802e-09
1.09943e-08
1.99096e-08
3.46761e-08
5.893e-08
9.837e-08
1.61758e-07
2.62272e-07
4.19214e-07
6.60002e-07
1.02214e-06
1.55463e-06
2.31796e-06
3.38159e-06
4.81833e-06
6.69574e-06
9.06617e-06
1.19584e-05
1.53729e-05
1.92825e-05
2.3636e-05
2.83646e-05
3.33878e-05
3.8619e-05
4.39688e-05
4.9349e-05
5.46749e-05
5.98683e-05
6.48641e-05
6.96231e-05
7.41592e-05
7.85825e-05
8.31412e-05
8.81415e-05
9.4322e-05
0.000102398
0.000113063
0.000127285
0.00014617
0.000171028
0.000203465
0.000245488
0.000299652
0.000369232
0.000458446
0.00057274
0.000719162
0.000906795
0.00114735
0.00145596
0.00185264
0.002364
0.00302385
0.00387586
0.00496621
0.00634746
0.00820233
0.0106135
0.0137569
0.0257614
0.0433093
0.0608514
0.0781425
0.0949742
0.111191
0.126668
0.141304
0.155015
0.167725
0.179365
0.189871
0.199167
0.207182
0.213862
0.219176
0.223154
0.225925
0.227709
0.228775
0.229374
0.229692
0.229852
0.22993
0.229968
0.229985
0.229993
0.229997
0.229999
0.229999
0.23
0.23
0.23
0.23
0.23
0.23
0.23
0.23
0.23
5.5598e-10
2.42993e-09
5.58195e-09
1.08645e-08
1.96711e-08
3.42523e-08
5.81903e-08
9.70936e-08
1.59574e-07
2.58564e-07
4.1297e-07
6.49586e-07
1.00496e-06
1.52666e-06
2.27313e-06
3.31107e-06
4.70974e-06
6.53244e-06
8.82682e-06
1.16168e-05
1.48984e-05
1.86404e-05
2.27885e-05
2.72716e-05
3.20079e-05
3.69101e-05
4.18894e-05
4.68589e-05
5.1736e-05
5.6446e-05
6.09272e-05
6.51434e-05
6.91071e-05
7.29185e-05
7.6809e-05
8.11109e-05
8.63461e-05
9.32579e-05
0.000102641
0.000115408
0.00013262
0.000155546
0.000185746
0.000225179
0.000276345
0.00034246
0.000427681
0.000537391
0.000678575
0.000860297
0.00109434
0.00139602
0.00178511
0.00228749
0.00293744
0.00378042
0.00486311
0.00623827
0.00808974
0.0105031
0.0136604
0.0246298
0.0421568
0.059702
0.0769979
0.093859
0.110114
0.125639
0.140332
0.154107
0.166887
0.178604
0.18919
0.198573
0.20668
0.213454
0.218861
0.222927
0.225772
0.227613
0.228724
0.229348
0.229678
0.229845
0.229927
0.229966
0.229985
0.229993
0.229997
0.229999
0.229999
0.23
0.23
0.23
0.23
0.23
0.23
0.23
0.23
0.23
5.49069e-10
2.39968e-09
5.51216e-09
1.07275e-08
1.94197e-08
3.38061e-08
5.74129e-08
9.57547e-08
1.57289e-07
2.54692e-07
4.06466e-07
6.38761e-07
9.87145e-07
1.49774e-06
2.22693e-06
3.23862e-06
4.59856e-06
6.36587e-06
8.58367e-06
1.12714e-05
1.44209e-05
1.79977e-05
2.19451e-05
2.61908e-05
3.06525e-05
3.52435e-05
3.98769e-05
4.4468e-05
4.89379e-05
5.32157e-05
5.72438e-05
6.09886e-05
6.44606e-05
6.77478e-05
7.10549e-05
7.47235e-05
7.91657e-05
8.50784e-05
9.34119e-05
0.000104907
0.000120604