/*--------------------------------*- C++ -*----------------------------------*\
  =========                 |
  \\      /  F ield         | OpenFOAM: The Open Source CFD Toolbox
   \\    /   O peration     | Website:  https://openfoam.org
    \\  /    A nd           | Version:  8
     \\/     M anipulation  |
\*---------------------------------------------------------------------------*/
FoamFile
{
    version     2.0;
    format      ascii;
    class       surfaceScalarField;
    location    "860/fluid";
    object      phi;
}
// * * * * * * * * * * * * * * * * * * * * * * * * * * * * * * * * * * * * * //

dimensions      [1 0 -1 0 0 0 0];

internalField   nonuniform List<scalar> 
7860
(
6.57259e-07
-1.7771e-08
6.54566e-07
-5.33312e-08
6.50734e-07
-8.872e-08
6.45651e-07
-1.23825e-07
6.39183e-07
-1.5865e-07
6.31167e-07
-1.93149e-07
6.21415e-07
-2.27241e-07
6.09728e-07
-2.60801e-07
5.95901e-07
-2.93662e-07
5.79738e-07
-3.25601e-07
5.61067e-07
-3.5633e-07
5.39768e-07
-3.85481e-07
5.15816e-07
-4.12597e-07
4.8939e-07
-4.37133e-07
4.6077e-07
-4.5845e-07
4.30324e-07
-4.75883e-07
3.98525e-07
-4.88876e-07
3.65919e-07
-4.97136e-07
3.33068e-07
-5.00755e-07
3.00483e-07
-5.0022e-07
2.6857e-07
-4.96319e-07
2.37614e-07
-4.89963e-07
2.07793e-07
-4.82009e-07
1.7924e-07
-4.73153e-07
1.52001e-07
-4.63878e-07
1.26039e-07
-4.5448e-07
1.01285e-07
-4.45122e-07
7.76632e-08
-4.35868e-07
5.51021e-08
-4.26731e-07
3.35404e-08
-4.17692e-07
1.29254e-08
-4.08721e-07
-6.78314e-09
-3.99791e-07
-2.56135e-08
-3.90884e-07
-4.35948e-08
-3.81989e-07
-6.0758e-08
-3.73112e-07
-7.71264e-08
-3.64238e-07
-9.27193e-08
-3.55331e-07
-1.07556e-07
-3.46404e-07
-1.21655e-07
-3.37477e-07
-1.35035e-07
-3.28572e-07
-1.47714e-07
-3.19714e-07
-1.59712e-07
-3.1093e-07
-1.71048e-07
-3.02245e-07
-1.81742e-07
-2.93689e-07
-1.91814e-07
-2.85288e-07
-2.01285e-07
-2.77069e-07
-2.10175e-07
-2.6906e-07
-2.18504e-07
-2.61286e-07
-2.26295e-07
-2.53775e-07
-2.33569e-07
-2.46552e-07
-2.40348e-07
-2.39644e-07
-2.46654e-07
-2.33078e-07
-2.52511e-07
-2.26883e-07
-2.57946e-07
-2.21093e-07
-2.62987e-07
-2.15745e-07
-2.67669e-07
-2.10882e-07
-2.72036e-07
-2.06559e-07
-2.76141e-07
-2.02868e-07
-2.80042e-07
-1.99879e-07
-2.83813e-07
-1.97653e-07
-2.8759e-07
-1.9643e-07
-2.91811e-07
-1.96383e-07
-2.96727e-07
-1.98684e-07
-3.03587e-07
-2.09814e-07
-3.11494e-07
-2.22262e-07
-3.2026e-07
-2.36001e-07
-3.29934e-07
-2.51213e-07
-3.40636e-07
-2.68137e-07
-3.52527e-07
-2.87045e-07
-3.65824e-07
-3.08264e-07
-3.80822e-07
-3.32189e-07
-3.97914e-07
-3.59284e-07
-4.1763e-07
-3.90084e-07
-4.40656e-07
-4.25311e-07
-4.67852e-07
-4.65623e-07
-5.00191e-07
-5.11042e-07
-5.38567e-07
-5.60504e-07
-5.83257e-07
-6.11088e-07
-6.34021e-07
-6.57324e-07
-6.89663e-07
-6.92113e-07
-7.47832e-07
-7.09814e-07
-8.05605e-07
-7.09321e-07
-8.60476e-07
-6.93851e-07
-9.10892e-07
-6.6808e-07
-9.56197e-07
-6.36039e-07
-9.96207e-07
-6.00347e-07
-1.03081e-06
-5.62449e-07
-1.06033e-06
-5.23037e-07
-1.08534e-06
-4.8255e-07
-1.10635e-06
-4.41319e-07
-1.12387e-06
-3.99593e-07
-1.13833e-06
-3.57568e-07
-1.15015e-06
-3.15392e-07
-1.15969e-06
-2.73173e-07
-1.16728e-06
-2.30989e-07
-1.17318e-06
-1.88885e-07
-1.17763e-06
-1.46872e-07
-1.18083e-06
-1.04911e-07
-1.18292e-06
-6.29286e-08
-2.09567e-08
6.57906e-07
-1.71433e-08
6.55763e-07
-5.11885e-08
6.52027e-07
-8.49834e-08
6.46695e-07
-1.18494e-07
6.397e-07
-1.51654e-07
6.30941e-07
-1.8439e-07
6.20305e-07
-2.16604e-07
6.07675e-07
-2.48171e-07
5.92946e-07
-2.78934e-07
5.76038e-07
-3.08693e-07
5.56905e-07
-3.37197e-07
5.3555e-07
-3.64126e-07
5.12041e-07
-3.89088e-07
4.86543e-07
-4.11635e-07
4.59286e-07
-4.31194e-07
4.30568e-07
-4.47165e-07
4.00759e-07
-4.59067e-07
3.70277e-07
-4.66655e-07
3.3955e-07
-4.70028e-07
3.08962e-07
-4.69632e-07
2.78824e-07
-4.66181e-07
2.49355e-07
-4.60495e-07
2.20698e-07
-4.53352e-07
1.92949e-07
-4.45405e-07
1.66161e-07
-4.3709e-07
1.40343e-07
-4.28663e-07
1.15486e-07
-4.20264e-07
9.15711e-08
-4.11953e-07
6.85764e-08
-4.03736e-07
4.6481e-08
-3.95596e-07
2.52649e-08
-3.87504e-07
4.9088e-09
-3.79435e-07
-1.46057e-08
-3.71369e-07
-3.32954e-08
-3.633e-07
-5.11778e-08
-3.55229e-07
-6.82668e-08
-3.47149e-07
-8.45762e-08
-3.39022e-07
-1.00121e-07
-3.30859e-07
-1.14918e-07
-3.2268e-07
-1.28983e-07
-3.14506e-07
-1.42335e-07
-3.06362e-07
-1.54992e-07
-2.98272e-07
-1.66975e-07
-2.90262e-07
-1.78305e-07
-2.82359e-07
-1.89002e-07
-2.7459e-07
-1.99089e-07
-2.66982e-07
-2.08589e-07
-2.59559e-07
-2.17526e-07
-2.52349e-07
-2.25924e-07
-2.45377e-07
-2.3381e-07
-2.38667e-07
-2.41209e-07
-2.32245e-07
-2.48151e-07
-2.26136e-07
-2.54668e-07
-2.20366e-07
-2.60795e-07
-2.14966e-07
-2.66574e-07
-2.09965e-07
-2.72055e-07
-2.05401e-07
-2.77299e-07
-2.01315e-07
-2.82382e-07
-1.97785e-07
-2.87407e-07
-1.94853e-07
-2.92519e-07
-1.92541e-07
-2.97947e-07
-1.91001e-07
-3.03972e-07
-1.90357e-07
-3.09722e-07
-1.92924e-07
-3.16751e-07
-2.02784e-07
-3.25009e-07
-2.14002e-07
-3.34396e-07
-2.26612e-07
-3.44904e-07
-2.40703e-07
-3.56608e-07
-2.56429e-07
-3.69642e-07
-2.74008e-07
-3.84187e-07
-2.93715e-07
-4.0048e-07
-3.15891e-07
-4.18813e-07
-3.40945e-07
-4.39531e-07
-3.69359e-07
-4.63017e-07
-4.01817e-07
-4.89745e-07
-4.38886e-07
-5.20247e-07
-4.80529e-07
-5.55033e-07
-5.25705e-07
-5.94422e-07
-5.71687e-07
-6.38487e-07
-6.13247e-07
-6.86647e-07
-6.43942e-07
-7.37364e-07
-6.59091e-07
-7.88503e-07
-6.58176e-07
-8.38119e-07
-6.44232e-07
-8.84899e-07
-6.21299e-07
-9.28197e-07
-5.9274e-07
-9.67757e-07
-5.60787e-07
-1.00342e-06
-5.26784e-07
-1.03518e-06
-4.91278e-07
-1.06314e-06
-4.54591e-07
-1.08747e-06
-4.16988e-07
-1.10839e-06
-3.7867e-07
-1.12616e-06
-3.39801e-07
-1.14104e-06
-3.00514e-07
-1.15329e-06
-2.60918e-07
-1.16318e-06
-2.211e-07
-1.17093e-06
-1.81133e-07
-1.17675e-06
-1.41059e-07
-1.18077e-06
-1.00886e-07
-1.18309e-06
-6.06085e-08
-2.02275e-08
6.57607e-07
-1.62161e-08
6.54924e-07
-4.85059e-08
6.50497e-07
-8.05567e-08
6.44292e-07
-1.12288e-07
6.36265e-07
-1.43628e-07
6.26369e-07
-1.74494e-07
6.14555e-07
-2.04791e-07
6.00789e-07
-2.34404e-07
5.8505e-07
-2.63195e-07
5.67348e-07
-2.90991e-07
5.47724e-07
-3.17573e-07
5.26257e-07
-3.4266e-07
5.03059e-07
-3.6589e-07
4.78247e-07
-3.86823e-07
4.52001e-07
-4.04948e-07
4.24588e-07
-4.19752e-07
3.96332e-07
-4.30811e-07
3.67589e-07
-4.37914e-07
3.3871e-07
-4.41149e-07
3.1e-07
-4.40923e-07
2.81701e-07
-4.37883e-07
2.53981e-07
-4.32776e-07
2.26939e-07
-4.26311e-07
2.00602e-07
-4.19069e-07
1.74976e-07
-4.11464e-07
1.5007e-07
-4.03757e-07
1.25893e-07
-3.96087e-07
1.02451e-07
-3.88511e-07
7.97496e-08
-3.81035e-07
5.77916e-08
-3.73638e-07
3.65787e-08
-3.66292e-07
1.61106e-08
-3.58967e-07
-3.61451e-09
-3.51644e-07
-2.26008e-08
-3.44313e-07
-4.08546e-08
-3.36975e-07
-5.83804e-08
-3.29623e-07
-7.51832e-08
-3.22219e-07
-9.12716e-08
-3.14771e-07
-1.06656e-07
-3.07296e-07
-1.21347e-07
-2.99815e-07
-1.3536e-07
-2.92349e-07
-1.4871e-07
-2.84922e-07
-1.61415e-07
-2.77557e-07
-1.73493e-07
-2.70281e-07
-1.84966e-07
-2.63118e-07
-1.95856e-07
-2.56092e-07
-2.06187e-07
-2.49229e-07
-2.15984e-07
-2.42552e-07
-2.25276e-07
-2.36085e-07
-2.34092e-07
-2.2985e-07
-2.42466e-07
-2.2387e-07
-2.50435e-07
-2.18167e-07
-2.58038e-07
-2.12763e-07
-2.65322e-07
-2.07682e-07
-2.72339e-07
-2.02947e-07
-2.79153e-07
-1.98587e-07
-2.85835e-07
-1.94633e-07
-2.92469e-07
-1.91151e-07
-2.99159e-07
-1.88163e-07
-3.06026e-07
-1.85673e-07
-3.1321e-07
-1.83817e-07
-3.20869e-07
-1.82697e-07
-3.27605e-07
-1.86177e-07
-3.35383e-07
-1.95004e-07
-3.44237e-07
-2.05145e-07
-3.54193e-07
-2.16653e-07
-3.65298e-07
-2.29595e-07
-3.77627e-07
-2.44097e-07
-3.91282e-07
-2.60348e-07
-4.0639e-07
-2.78602e-07
-4.23096e-07
-2.9918e-07
-4.41561e-07
-3.22472e-07
-4.6194e-07
-3.48971e-07
-4.84385e-07
-3.79362e-07
-5.09126e-07
-4.14134e-07
-5.36492e-07
-4.53151e-07
-5.66985e-07
-4.95198e-07
-6.01387e-07
-5.37272e-07
-6.40249e-07
-5.74372e-07
-6.83353e-07
-6.00828e-07
-7.29434e-07
-6.13002e-07
-7.76578e-07
-6.11028e-07
-8.22969e-07
-5.97839e-07
-8.67317e-07
-5.7695e-07
-9.089e-07
-5.51155e-07
-9.47414e-07
-5.22273e-07
-9.8286e-07
-4.91337e-07
-1.01521e-06
-4.58929e-07
-1.04442e-06
-4.2538e-07
-1.07051e-06
-3.909e-07
-1.09354e-06
-3.55641e-07
-1.11361e-06
-3.19729e-07
-1.13085e-06
-2.83269e-07
-1.14541e-06
-2.46357e-07
-1.15744e-06
-2.09075e-07
-1.16707e-06
-1.715e-07
-1.17444e-06
-1.33692e-07
-1.17964e-06
-9.56805e-08
-1.18277e-06
-5.74868e-08
-1.91722e-08
6.57626e-07
-1.53086e-08
6.54879e-07
-4.5759e-08
6.50287e-07
-7.59647e-08
6.43847e-07
-1.05848e-07
6.3555e-07
-1.3533e-07
6.25384e-07
-1.64328e-07
6.1334e-07
-1.92748e-07
5.99416e-07
-2.2048e-07
5.8362e-07
-2.47398e-07
5.65973e-07
-2.73344e-07
5.46518e-07
-2.98119e-07
5.25325e-07
-3.21466e-07
5.02495e-07
-3.43061e-07
4.78177e-07
-3.62505e-07
4.52569e-07
-3.79341e-07
4.25922e-07
-3.93107e-07
3.98528e-07
-4.03418e-07
3.70696e-07
-4.10082e-07
3.42725e-07
-4.13179e-07
3.14877e-07
-4.13077e-07
2.87363e-07
-4.1037e-07
2.6033e-07
-4.05744e-07
2.33874e-07
-3.99856e-07
2.08048e-07
-3.93244e-07
1.82877e-07
-3.86294e-07
1.5837e-07
-3.79251e-07
1.3453e-07
-3.72247e-07
1.11354e-07
-3.65336e-07
8.88422e-08
-3.58524e-07
6.69948e-08
-3.51791e-07
4.58123e-08
-3.45109e-07
2.52955e-08
-3.38451e-07
5.44492e-09
-3.31794e-07
-1.37404e-08
-3.25128e-07
-3.22628e-08
-3.18453e-07
-5.01234e-08
-3.11763e-07
-6.73234e-08
-3.05019e-07
-8.38673e-08
-2.98227e-07
-9.97615e-08
-2.91402e-07
-1.15015e-07
-2.84562e-07
-1.29638e-07
-2.77726e-07
-1.43645e-07
-2.70915e-07
-1.5705e-07
-2.64153e-07
-1.69872e-07
-2.5746e-07
-1.82129e-07
-2.5086e-07
-1.93844e-07
-2.44377e-07
-2.05041e-07
-2.38032e-07
-2.15745e-07
-2.31848e-07
-2.25987e-07
-2.25843e-07
-2.35798e-07
-2.2004e-07
-2.45212e-07
-2.14456e-07
-2.54269e-07
-2.09111e-07
-2.63011e-07
-2.04022e-07
-2.71484e-07
-1.99208e-07
-2.79744e-07
-1.94688e-07
-2.87848e-07
-1.90483e-07
-2.95864e-07
-1.86617e-07
-3.03864e-07
-1.83151e-07
-3.11936e-07
-1.80091e-07
-3.20169e-07
-1.77439e-07
-3.2866e-07
-1.75326e-07
-3.37495e-07
-1.73859e-07
-3.45227e-07
-1.78436e-07
-3.53828e-07
-1.86402e-07
-3.63348e-07
-1.95622e-07
-3.7385e-07
-2.06148e-07
-3.85404e-07
-2.18038e-07
-3.98089e-07
-2.31408e-07
-4.11992e-07
-2.4644e-07
-4.27214e-07
-2.63374e-07
-4.43865e-07
-2.82522e-07
-4.62069e-07
-3.04261e-07
-4.81944e-07
-3.29087e-07
-5.03645e-07
-3.5765e-07
-5.27446e-07
-3.90321e-07
-5.5374e-07
-4.26842e-07
-5.83065e-07
-4.65858e-07
-6.16023e-07
-5.04298e-07
-6.52986e-07
-5.37395e-07
-6.93663e-07
-5.6014e-07
-7.36923e-07
-5.69735e-07
-7.81166e-07
-5.6678e-07
-8.249e-07
-5.54102e-07
-8.67041e-07
-5.34807e-07
-9.06927e-07
-5.11269e-07
-9.44199e-07
-4.85e-07
-9.78695e-07
-4.56841e-07
-1.01036e-06
-4.27264e-07
-1.0392e-06
-3.96544e-07
-1.06523e-06
-3.64868e-07
-1.0885e-06
-3.32371e-07
-1.10906e-06
-2.99166e-07
-1.12698e-06
-2.65353e-07
-1.14232e-06
-2.31017e-07
-1.15515e-06
-1.96241e-07
-1.16555e-06
-1.61103e-07
-1.17357e-06
-1.25668e-07
-1.17927e-06
-8.99796e-08
-1.18269e-06
-5.4076e-08
-1.80367e-08
6.57563e-07
-1.43383e-08
6.54678e-07
-4.28739e-08
6.49891e-07
-7.11773e-08
6.43207e-07
-9.91637e-08
6.34632e-07
-1.26755e-07
6.24174e-07
-1.53871e-07
6.11848e-07
-1.80421e-07
5.97674e-07
-2.06306e-07
5.81684e-07
-2.31408e-07
5.63924e-07
-2.55585e-07
5.44461e-07
-2.78656e-07
5.23384e-07
-3.00389e-07
5.00812e-07
-3.2049e-07
4.76901e-07
-3.38594e-07
4.51843e-07
-3.54284e-07
4.2587e-07
-3.67134e-07
3.99242e-07
-3.76792e-07
3.72234e-07
-3.83076e-07
3.45107e-07
-3.86053e-07
3.18089e-07
-3.8606e-07
2.91359e-07
-3.83642e-07
2.65047e-07
-3.79433e-07
2.39234e-07
-3.74044e-07
2.13967e-07
-3.67979e-07
1.89271e-07
-3.616e-07
1.65158e-07
-3.55139e-07
1.41632e-07
-3.48722e-07
1.18694e-07
-3.42399e-07
9.63474e-08
-3.36178e-07
7.45933e-08
-3.30038e-07
5.34346e-08
-3.23951e-07
3.28739e-08
-3.17891e-07
1.29135e-08
-3.11834e-07
-6.44535e-09
-3.0577e-07
-2.5203e-08
-2.99696e-07
-4.33595e-08
-2.93607e-07
-6.09141e-08
-2.87465e-07
-7.7869e-08
-2.81272e-07
-9.42288e-08
-2.75043e-07
-1.1e-07
-2.68791e-07
-1.25191e-07
-2.62535e-07
-1.39814e-07
-2.56293e-07
-1.53883e-07
-2.50085e-07
-1.67412e-07
-2.43931e-07
-1.80421e-07
-2.37852e-07
-1.9293e-07
-2.31869e-07
-2.04961e-07
-2.26001e-07
-2.16541e-07
-2.20268e-07
-2.27697e-07
-2.14688e-07
-2.3846e-07
-2.09278e-07
-2.48862e-07
-2.04054e-07
-2.58941e-07
-1.99033e-07
-2.68734e-07
-1.94229e-07
-2.78285e-07
-1.89657e-07
-2.8764e-07
-1.85333e-07
-2.9685e-07
-1.81273e-07
-3.0597e-07
-1.77497e-07
-3.15056e-07
-1.74065e-07
-3.24182e-07
-1.70965e-07
-3.33415e-07
-1.68206e-07
-3.42832e-07
-1.65909e-07
-3.52496e-07
-1.64194e-07
-3.61217e-07
-1.69709e-07
-3.70629e-07
-1.76987e-07
-3.80798e-07
-1.8545e-07
-3.91814e-07
-1.95129e-07
-4.03762e-07
-2.06085e-07
-4.16729e-07
-2.18437e-07
-4.30802e-07
-2.32362e-07
-4.46071e-07
-2.48099e-07
-4.62634e-07
-2.65951e-07
-4.806e-07
-2.86286e-07
-5.00066e-07
-3.09611e-07
-5.21182e-07
-3.36522e-07
-5.44205e-07
-3.67284e-07
-5.69501e-07
-4.01531e-07
-5.97565e-07
-4.37777e-07
-6.28939e-07
-4.72907e-07
-6.63943e-07
-5.02377e-07
-7.02293e-07
-5.21778e-07
-7.42987e-07
-5.29032e-07
-7.84651e-07
-5.25111e-07
-8.26019e-07
-5.12732e-07
-8.66169e-07
-4.94655e-07
-9.04516e-07
-4.72921e-07
-9.40717e-07
-4.48799e-07
-9.74566e-07
-4.22992e-07
-1.00594e-06
-3.95889e-07
-1.03477e-06
-3.67717e-07
-1.06101e-06
-3.38626e-07
-1.08465e-06
-3.08727e-07
-1.1057e-06
-2.78115e-07
-1.12418e-06
-2.46875e-07
-1.14011e-06
-2.15087e-07
-1.15353e-06
-1.82827e-07
-1.16445e-06
-1.50173e-07
-1.17293e-06
-1.17193e-07
-1.17898e-06
-8.39341e-08
-1.18261e-06
-5.04452e-08
-1.68216e-08
6.57561e-07
-1.33657e-08
6.5465e-07
-3.99625e-08
6.49812e-07
-6.63396e-08
6.43064e-07
-9.24152e-08
6.34422e-07
-1.18114e-07
6.23909e-07
-1.43358e-07
6.1155e-07
-1.68063e-07
5.9738e-07
-1.92136e-07
5.8144e-07
-2.15469e-07
5.63786e-07
-2.37931e-07
5.44488e-07
-2.59358e-07
5.23637e-07
-2.79539e-07
5.01351e-07
-2.98204e-07
4.77778e-07
-3.15022e-07
4.53105e-07
-3.29611e-07
4.27552e-07
-3.41582e-07
4.01368e-07
-3.50609e-07
3.74811e-07
-3.56521e-07
3.48132e-07
-3.59376e-07
3.21548e-07
-3.59478e-07
2.9523e-07
-3.57326e-07
2.69303e-07
-3.53507e-07
2.43842e-07
-3.48586e-07
2.18894e-07
-3.43032e-07
1.94479e-07
-3.37187e-07
1.70606e-07
-3.31268e-07
1.47277e-07
-3.25393e-07
1.24489e-07
-3.19613e-07
1.02244e-07
-3.13933e-07
8.05401e-08
-3.08335e-07
5.93795e-08
-3.02792e-07
3.87639e-08
-2.97276e-07
1.86953e-08
-2.91766e-07
-8.24925e-10
-2.8625e-07
-1.97971e-08
-2.80724e-07
-3.82205e-08
-2.75184e-07
-5.60936e-08
-2.69592e-07
-7.34175e-08
-2.63949e-07
-9.01951e-08
-2.58266e-07
-1.06432e-07
-2.52555e-07
-1.22135e-07
-2.46833e-07
-1.37313e-07
-2.41115e-07
-1.5198e-07
-2.35419e-07
-1.66148e-07
-2.29763e-07
-1.79834e-07
-2.24167e-07
-1.93057e-07
-2.18647e-07
-2.05837e-07
-2.13222e-07
-2.18198e-07
-2.07908e-07
-2.30165e-07
-2.02722e-07
-2.41765e-07
-1.97678e-07
-2.53027e-07
-1.92792e-07
-2.63983e-07
-1.88078e-07
-2.74665e-07
-1.83547e-07
-2.85109e-07
-1.79214e-07
-2.9535e-07
-1.75092e-07
-3.05427e-07
-1.71197e-07
-3.15381e-07
-1.67544e-07
-3.25249e-07
-1.64197e-07
-3.35101e-07
-1.61114e-07
-3.44965e-07
-1.58342e-07
-3.54922e-07
-1.55953e-07
-3.65059e-07
-1.54063e-07
-3.74798e-07
-1.5997e-07
-3.84945e-07
-1.66838e-07
-3.95679e-07
-1.74714e-07
-4.07134e-07
-1.83671e-07
-4.19414e-07
-1.93801e-07
-4.3261e-07
-2.05235e-07
-4.46813e-07
-2.18153e-07
-4.62114e-07
-2.32791e-07
-4.78613e-07
-2.49445e-07
-4.96418e-07
-2.68473e-07
-5.15641e-07
-2.90379e-07
-5.36457e-07
-3.15694e-07
-5.59143e-07
-3.44582e-07
-5.84087e-07
-3.76569e-07
-6.11778e-07
-4.10068e-07
-6.42696e-07
-4.4197e-07
-6.7704e-07
-4.68017e-07
-7.14406e-07
-4.84401e-07
-7.53767e-07
-4.89663e-07
-7.93848e-07
-4.85025e-07
-8.33535e-07
-4.73042e-07
-8.72041e-07
-4.56148e-07
-9.08872e-07
-4.36089e-07
-9.43737e-07
-4.13934e-07
-9.76459e-07
-3.90269e-07
-1.00693e-06
-3.6542e-07
-1.03507e-06
-3.39576e-07
-1.06083e-06
-3.12864e-07
-1.08418e-06
-2.85381e-07
-1.10508e-06
-2.57209e-07
-1.12354e-06
-2.28423e-07
-1.13953e-06
-1.99096e-07
-1.15306e-06
-1.69298e-07
-1.16412e-06
-1.39105e-07
-1.17273e-06
-1.08582e-07
-1.17889e-06
-7.77792e-08
-1.18259e-06
-4.67478e-08
-1.55872e-08
6.57552e-07
-1.23837e-08
6.5462e-07
-3.70305e-08
6.49754e-07
-6.14739e-08
6.42974e-07
-8.56347e-08
6.34302e-07
-1.09442e-07
6.23766e-07
-1.32822e-07
6.11401e-07
-1.55698e-07
5.97247e-07
-1.77982e-07
5.81356e-07
-1.99577e-07
5.63788e-07
-2.20363e-07
5.4462e-07
-2.40191e-07
5.23949e-07
-2.58868e-07
5.01892e-07
-2.76148e-07
4.78599e-07
-2.9173e-07
4.54248e-07
-3.05262e-07
4.29053e-07
-3.16387e-07
4.03246e-07
-3.24804e-07
3.77075e-07
-3.30351e-07
3.50773e-07
-3.33076e-07
3.24547e-07
-3.33254e-07
2.9856e-07
-3.31342e-07
2.72931e-07
-3.2788e-07
2.47736e-07
-3.23393e-07
2.23017e-07
-3.18316e-07
1.98797e-07
-3.12968e-07
1.75082e-07
-3.07555e-07
1.51874e-07
-3.02187e-07
1.29171e-07
-2.96911e-07
1.06969e-07
-2.91733e-07
8.5269e-08
-2.86636e-07
6.40702e-08
-2.81594e-07
4.3374e-08
-2.7658e-07
2.31816e-08
-2.71575e-07
3.49427e-09
-2.66564e-07
-1.56877e-08
-2.61543e-07
-3.43642e-08
-2.56508e-07
-5.25336e-08
-2.51424e-07
-7.01959e-08
-2.46288e-07
-8.73531e-08
-2.41109e-07
-1.04009e-07
-2.359e-07
-1.2017e-07
-2.30672e-07
-1.35843e-07
-2.25442e-07
-1.51039e-07
-2.20224e-07
-1.6577e-07
-2.15034e-07
-1.80049e-07
-2.09888e-07
-1.93894e-07
-2.04803e-07
-2.07322e-07
-1.99794e-07
-2.20354e-07
-1.94876e-07
-2.33012e-07
-1.90065e-07
-2.45319e-07
-1.85372e-07
-2.57301e-07
-1.80812e-07
-2.68983e-07
-1.76396e-07
-2.80393e-07
-1.72138e-07
-2.9156e-07
-1.68048e-07
-3.02511e-07
-1.64142e-07
-3.13274e-07
-1.60435e-07
-3.23873e-07
-1.56946e-07
-3.3433e-07
-1.53741e-07
-3.44686e-07
-1.50758e-07
-3.54941e-07
-1.48089e-07
-3.65114e-07
-1.45781e-07
-3.75232e-07
-1.43949e-07
-3.85602e-07
-1.49599e-07
-3.96363e-07
-1.56075e-07
-4.0764e-07
-1.63434e-07
-4.19551e-07
-1.71755e-07
-4.32204e-07
-1.81143e-07
-4.45695e-07
-1.91737e-07
-4.60117e-07
-2.03721e-07
-4.75569e-07
-2.17327e-07
-4.92156e-07
-2.32842e-07
-5.09996e-07
-2.50614e-07
-5.29214e-07
-2.71136e-07
-5.50015e-07
-2.94869e-07
-5.72685e-07
-3.21891e-07
-5.97592e-07
-3.51642e-07
-6.25168e-07
-3.82472e-07
-6.55792e-07
-4.11327e-07
-6.89535e-07
-4.34257e-07
-7.25923e-07
-4.48001e-07
-7.63981e-07
-4.51596e-07
-8.02583e-07
-4.46418e-07
-8.40772e-07
-4.34851e-07
-8.77871e-07
-4.19047e-07
-9.13449e-07
-4.00511e-07
-9.47235e-07
-3.80148e-07
-9.79054e-07
-3.5845e-07
-1.00878e-06
-3.35689e-07
-1.03634e-06
-3.12022e-07
-1.06165e-06
-2.87555e-07
-1.08466e-06
-2.62369e-07
-1.10533e-06
-2.36536e-07
-1.12363e-06
-2.10122e-07
-1.13954e-06
-1.83191e-07
-1.15303e-06
-1.55809e-07
-1.16409e-06
-1.28045e-07
-1.17271e-06
-9.99629e-08
-1.17887e-06
-7.16108e-08
-1.18258e-06
-4.30394e-08
-1.43485e-08
6.57555e-07
-1.1405e-08
6.54629e-07
-3.41049e-08
6.49773e-07
-5.66177e-08
6.43008e-07
-7.88697e-08
6.34361e-07
-1.00794e-07
6.23863e-07
-1.22324e-07
6.11553e-07
-1.43388e-07
5.97476e-07
-1.63905e-07
5.81685e-07
-1.83786e-07
5.64244e-07
-2.02923e-07
5.45232e-07
-2.21179e-07
5.24744e-07
-2.38379e-07
5.02896e-07
-2.54301e-07
4.79833e-07
-2.68667e-07
4.55728e-07
-2.81159e-07
4.30787e-07
-2.91447e-07
4.05237e-07
-2.99255e-07
3.79315e-07
-3.04431e-07
3.53251e-07
-3.07014e-07
3.27246e-07
-3.07252e-07
3.01461e-07
-3.0556e-07
2.76014e-07
-3.02435e-07
2.50978e-07
-2.9836e-07
2.26398e-07
-2.93738e-07
2.02293e-07
-2.88865e-07
1.78668e-07
-2.83932e-07
1.55523e-07
-2.79044e-07
1.32855e-07
-2.74244e-07
1.10659e-07
-2.69539e-07
8.89324e-08
-2.64911e-07
6.76744e-08
-2.60337e-07
4.68848e-08
-2.55792e-07
2.65644e-08
-2.51255e-07
6.71383e-09
-2.46714e-07
-1.26666e-08
-2.42163e-07
-3.1577e-08
-2.37599e-07
-5.00153e-08
-2.32986e-07
-6.7981e-08
-2.28323e-07
-8.5475e-08
-2.23616e-07
-1.025e-07
-2.18875e-07
-1.19061e-07
-2.14113e-07
-1.35163e-07
-2.09341e-07
-1.50815e-07
-2.04573e-07
-1.66027e-07
-1.99822e-07
-1.80811e-07
-1.95105e-07
-1.95181e-07
-1.90434e-07
-2.09152e-07
-1.85824e-07
-2.22742e-07
-1.81287e-07
-2.35969e-07
-1.76838e-07
-2.48854e-07
-1.72488e-07
-2.61419e-07
-1.68249e-07
-2.73685e-07
-1.64132e-07
-2.85676e-07
-1.60148e-07
-2.97416e-07
-1.56309e-07
-3.08931e-07
-1.52629e-07
-3.20243e-07
-1.49123e-07
-3.31371e-07
-1.4582e-07
-3.42342e-07
-1.42771e-07
-3.53167e-07
-1.39934e-07
-3.63843e-07
-1.37414e-07
-3.74336e-07
-1.35288e-07
-3.8446e-07
-1.33825e-07
-3.95003e-07
-1.39055e-07
-4.06034e-07
-1.45043e-07
-4.17622e-07
-1.51843e-07
-4.29845e-07
-1.59529e-07
-4.42787e-07
-1.68199e-07
-4.56533e-07
-1.77989e-07
-4.71174e-07
-1.89078e-07
-4.86811e-07
-2.01688e-07
-5.03556e-07
-2.16095e-07
-5.21533e-07
-2.32632e-07
-5.40891e-07
-2.51771e-07
-5.61847e-07
-2.73899e-07
-5.84696e-07
-2.99022e-07
-6.09798e-07
-3.26518e-07
-6.37539e-07
-3.54707e-07
-6.68202e-07
-3.80642e-07
-7.01736e-07
-4.00705e-07
-7.37584e-07
-4.12141e-07
-7.74785e-07
-4.14386e-07
-8.12307e-07
-4.08891e-07
-8.4931e-07
-3.97846e-07
-8.85212e-07
-3.83143e-07
-9.19642e-07
-3.6608e-07
-9.52369e-07
-3.47421e-07
-9.83236e-07
-3.27583e-07
-1.01213e-06
-3.06794e-07
-1.03897e-06
-2.85187e-07
-1.06367e-06
-2.62852e-07
-1.08618e-06
-2.39858e-07
-1.10645e-06
-2.16269e-07
-1.12443e-06
-1.92142e-07
-1.14008e-06
-1.67535e-07
-1.15338e-06
-1.42508e-07
-1.1643e-06
-1.17124e-07
-1.17283e-06
-9.14424e-08
-1.17893e-06
-6.55084e-08
-1.1826e-06
-3.93704e-08
-1.31238e-08
6.57559e-07
-1.04299e-08
6.54644e-07
-3.11907e-08
6.49808e-07
-5.17813e-08
6.43072e-07
-7.21336e-08
6.34464e-07
-9.21865e-08
6.24018e-07
-1.11878e-07
6.11775e-07
-1.31144e-07
5.9778e-07
-1.4991e-07
5.82089e-07
-1.68096e-07
5.64768e-07
-1.85602e-07
5.45895e-07
-2.02306e-07
5.25565e-07
-2.1805e-07
5.03893e-07
-2.3263e-07
4.81021e-07
-2.45795e-07
4.57118e-07
-2.57256e-07
4.32382e-07
-2.66713e-07
4.07034e-07
-2.7391e-07
3.81307e-07
-2.78705e-07
3.55422e-07
-2.81131e-07
3.29579e-07
-2.81411e-07
3.03936e-07
-2.7992e-07
2.78611e-07
-2.77112e-07
2.53678e-07
-2.7343e-07
2.29181e-07
-2.69243e-07
2.05139e-07
-2.64825e-07
1.81557e-07
-2.60353e-07
1.58434e-07
-2.55923e-07
1.35765e-07
-2.51577e-07
1.13545e-07
-2.4732e-07
9.17686e-08
-2.43137e-07
7.0435e-08
-2.39005e-07
4.95428e-08
-2.34901e-07
2.90922e-08
-2.30806e-07
9.08346e-09
-2.26706e-07
-1.04832e-08
-2.22597e-07
-2.96079e-08
-2.18475e-07
-4.82883e-08
-2.14307e-07
-6.65232e-08
-2.10089e-07
-8.43128e-08
-2.05827e-07
-1.01658e-07
-2.01531e-07
-1.18563e-07
-1.97209e-07
-1.35031e-07
-1.92874e-07
-1.51069e-07
-1.88535e-07
-1.66685e-07
-1.84207e-07
-1.81889e-07
-1.79902e-07
-1.96692e-07
-1.75632e-07
-2.11108e-07
-1.71409e-07
-2.25149e-07
-1.67247e-07
-2.38833e-07
-1.63156e-07
-2.52176e-07
-1.59147e-07
-2.65195e-07
-1.55231e-07
-2.7791e-07
-1.51417e-07
-2.90342e-07
-1.47718e-07
-3.0251e-07
-1.44143e-07
-3.14435e-07
-1.40705e-07
-3.26139e-07
-1.37421e-07
-3.37641e-07
-1.3432e-07
-3.48971e-07
-1.31444e-07
-3.60143e-07
-1.28764e-07
-3.7117e-07
-1.26391e-07
-3.82043e-07
-1.2442e-07
-3.92269e-07
-1.23584e-07
-4.02981e-07
-1.2834e-07
-4.14218e-07
-1.338e-07
-4.2603e-07
-1.40022e-07
-4.38483e-07
-1.47064e-07
-4.51652e-07
-1.55016e-07
-4.65616e-07
-1.64007e-07
-4.80465e-07
-1.74207e-07
-4.96302e-07
-1.85828e-07
-5.13245e-07
-1.99127e-07
-5.31429e-07
-2.14422e-07
-5.51022e-07
-2.32154e-07
-5.72255e-07
-2.52644e-07
-5.95417e-07
-2.75839e-07
-6.20841e-07
-3.0107e-07
-6.48856e-07
-3.26669e-07
-6.7964e-07
-3.49837e-07
-7.13029e-07
-3.67298e-07
-7.4841e-07
-3.76747e-07
-7.84859e-07
-3.77929e-07
-8.21444e-07
-3.72301e-07
-8.57428e-07
-3.61859e-07
-8.92308e-07
-3.48262e-07
-9.2576e-07
-3.32627e-07
-9.57574e-07
-3.15606e-07
-9.87608e-07
-2.97549e-07
-1.01575e-06
-2.78649e-07
-1.04192e-06
-2.59018e-07
-1.06604e-06
-2.38733e-07
-1.08804e-06
-2.17854e-07
-1.10788e-06
-1.96435e-07
-1.12549e-06
-1.74527e-07
-1.14085e-06
-1.52181e-07
-1.1539e-06
-1.29451e-07
-1.16463e-06
-1.06395e-07
-1.17301e-06
-8.30671e-08
-1.17901e-06
-5.95078e-08
-1.18262e-06
-3.57621e-08
-1.19196e-08
6.57565e-07
-9.4607e-09
6.54667e-07
-2.82932e-08
6.49858e-07
-4.69723e-08
6.43161e-07
-6.54361e-08
6.34603e-07
-8.36288e-08
6.24219e-07
-1.01495e-07
6.12051e-07
-1.18975e-07
5.98145e-07
-1.36004e-07
5.82557e-07
-1.52508e-07
5.65352e-07
-1.68398e-07
5.46609e-07
-1.83563e-07
5.2642e-07
-1.97861e-07
5.04898e-07
-2.11109e-07
4.82183e-07
-2.2308e-07
4.58438e-07
-2.33513e-07
4.33859e-07
-2.42135e-07
4.0866e-07
-2.48713e-07
3.83069e-07
-2.53117e-07
3.57307e-07
-2.55372e-07
3.3157e-07
-2.55677e-07
3.06018e-07
-2.54371e-07
2.80766e-07
-2.51863e-07
2.55891e-07
-2.48557e-07
2.31436e-07
-2.44791e-07
2.07421e-07
-2.40813e-07
1.83851e-07
-2.36785e-07
1.60723e-07
-2.32797e-07
1.38031e-07
-2.28887e-07
1.15769e-07
-2.25059e-07
9.39313e-08
-2.21301e-07
7.25155e-08
-2.1759e-07
5.15198e-08
-2.13906e-07
3.09436e-08
-2.10231e-07
1.07872e-08
-2.06551e-07
-8.94931e-09
-2.02862e-07
-2.82658e-08
-1.99159e-07
-4.71599e-08
-1.95413e-07
-6.56295e-08
-1.9162e-07
-8.36738e-08
-1.87784e-07
-1.01293e-07
-1.83913e-07
-1.18489e-07
-1.80015e-07
-1.35264e-07
-1.76099e-07
-1.51624e-07
-1.72177e-07
-1.67575e-07
-1.68258e-07
-1.83123e-07
-1.64354e-07
-1.98279e-07
-1.60477e-07
-2.13053e-07
-1.56637e-07
-2.27455e-07
-1.52846e-07
-2.415e-07
-1.49113e-07
-2.552e-07
-1.45448e-07
-2.68571e-07
-1.41861e-07
-2.81629e-07
-1.38361e-07
-2.9439e-07
-1.34958e-07
-3.06872e-07
-1.31663e-07
-3.19093e-07
-1.28486e-07
-3.31072e-07
-1.25444e-07
-3.42829e-07
-1.22565e-07
-3.54389e-07
-1.19887e-07
-3.65773e-07
-1.17383e-07
-3.77014e-07
-1.15154e-07
-3.88169e-07
-1.1328e-07
-3.98625e-07
-1.13121e-07
-4.09547e-07
-1.17417e-07
-4.20989e-07
-1.22358e-07
-4.3301e-07
-1.28002e-07
-4.45673e-07
-1.34401e-07
-4.59049e-07
-1.4164e-07
-4.73219e-07
-1.49837e-07
-4.88275e-07
-1.5915e-07
-5.04322e-07
-1.69776e-07
-5.21488e-07
-1.81954e-07
-5.39917e-07
-1.95984e-07
-5.59787e-07
-2.12269e-07
-5.81341e-07
-2.3107e-07
-6.04867e-07
-2.52289e-07
-6.30674e-07
-2.75238e-07
-6.59027e-07
-2.98291e-07
-6.9001e-07
-3.18831e-07
-7.23359e-07
-3.33931e-07
-7.58411e-07
-3.41682e-07
-7.94277e-07
-3.42054e-07
-8.30105e-07
-3.36468e-07
-8.65243e-07
-3.26719e-07
-8.9925e-07
-3.14254e-07
-9.31844e-07
-3.00033e-07
-9.62839e-07
-2.8461e-07
-9.92106e-07
-2.68282e-07
-1.01954e-06
-2.51211e-07
-1.04507e-06
-2.33493e-07
-1.06861e-06
-2.15193e-07
-1.0901e-06
-1.96364e-07
-1.10948e-06
-1.77051e-07
-1.12671e-06
-1.57301e-07
-1.14173e-06
-1.37157e-07
-1.15451e-06
-1.16669e-07
-1.16502e-06
-9.5888e-08
-1.17323e-06
-7.4862e-08
-1.17911e-06
-5.36281e-08
-1.18264e-06
-3.22268e-08
-1.07403e-08
6.5757e-07
-8.49729e-09
6.5469e-07
-2.54129e-08
6.49909e-07
-4.21916e-08
6.43251e-07
-5.87777e-08
6.34743e-07
-7.51213e-08
6.24421e-07
-9.11728e-08
6.12325e-07
-1.06879e-07
5.98502e-07
-1.22181e-07
5.83007e-07
-1.37013e-07
5.65906e-07
-1.51297e-07
5.47275e-07
-1.64932e-07
5.27207e-07
-1.77793e-07
5.05811e-07
-1.89714e-07
4.83224e-07
-2.00494e-07
4.59607e-07
-2.09897e-07
4.3515e-07
-2.17679e-07
4.10065e-07
-2.2363e-07
3.84577e-07
-2.2763e-07
3.58903e-07
-2.297e-07
3.33239e-07
-2.30015e-07
3.07744e-07
-2.28879e-07
2.82536e-07
-2.26658e-07
2.57691e-07
-2.23715e-07
2.33253e-07
-2.20355e-07
2.09242e-07
-2.16804e-07
1.85663e-07
-2.13208e-07
1.62513e-07
-2.09649e-07
1.39785e-07
-2.06161e-07
1.17471e-07
-2.02748e-07
9.55667e-08
-1.99398e-07
7.40675e-08
-1.96093e-07
5.29714e-08
-1.92812e-07
3.22778e-08
-1.89538e-07
1.19866e-08
-1.86261e-07
-7.90195e-09
-1.82974e-07
-2.73876e-08
-1.79674e-07
-4.64675e-08
-1.76334e-07
-6.5139e-08
-1.72949e-07
-8.34003e-08
-1.69524e-07
-1.01251e-07
-1.66064e-07
-1.1869e-07
-1.62576e-07
-1.35721e-07
-1.59069e-07
-1.52347e-07
-1.55552e-07
-1.68571e-07
-1.52035e-07
-1.844e-07
-1.48527e-07
-1.9984e-07
-1.45038e-07
-2.149e-07
-1.41578e-07
-2.2959e-07
-1.38158e-07
-2.43919e-07
-1.34785e-07
-2.579e-07
-1.31468e-07
-2.71544e-07
-1.28217e-07
-2.84866e-07
-1.2504e-07
-2.9788e-07
-1.21946e-07
-3.106e-07
-1.18944e-07
-3.23043e-07
-1.16045e-07
-3.35227e-07
-1.13262e-07
-3.47172e-07
-1.10623e-07
-3.58902e-07
-1.0816e-07
-3.7044e-07
-1.05848e-07
-3.81822e-07
-1.03776e-07
-3.93096e-07
-1.02027e-07
-4.0378e-07
-1.02417e-07
-4.14926e-07
-1.06267e-07
-4.26576e-07
-1.10701e-07
-4.38794e-07
-1.15774e-07
-4.5165e-07
-1.21535e-07
-4.65218e-07
-1.2806e-07
-4.79581e-07
-1.35459e-07
-4.94835e-07
-1.43879e-07
-5.11093e-07
-1.535e-07
-5.2849e-07
-1.6454e-07
-5.47176e-07
-1.77279e-07
-5.67347e-07
-1.92078e-07
-5.8925e-07
-2.09145e-07
-6.13164e-07
-2.2835e-07
-6.3937e-07
-2.49006e-07
-6.68071e-07
-2.69565e-07
-6.99261e-07
-2.87618e-07
-7.32593e-07
-3.0058e-07
-7.67373e-07
-3.06889e-07
-8.02745e-07
-3.06673e-07
-8.37932e-07
-3.01276e-07
-8.72352e-07
-2.92297e-07
-9.05617e-07
-2.80988e-07
-9.37475e-07
-2.68174e-07
-9.67761e-07
-2.54323e-07
-9.96356e-07
-2.39687e-07
-1.02317e-06
-2.24401e-07
-1.04811e-06
-2.08549e-07
-1.07112e-06
-1.92185e-07
-1.09213e-06
-1.75354e-07
-1.11108e-06
-1.58096e-07
-1.12793e-06
-1.40451e-07
-1.14263e-06
-1.22459e-07
-1.15514e-06
-1.04162e-07
-1.16542e-06
-8.56046e-08
-1.17345e-06
-6.68308e-08
-1.17921e-06
-4.78729e-08
-1.18267e-06
-2.87667e-08
-9.58625e-09
6.57576e-07
-7.53955e-09
6.54712e-07
-2.25492e-08
6.49959e-07
-3.7438e-08
6.43338e-07
-5.21567e-08
6.34877e-07
-6.66612e-08
6.24612e-07
-8.09076e-08
6.12582e-07
-9.48487e-08
5.98834e-07
-1.08433e-07
5.83423e-07
-1.21603e-07
5.66413e-07
-1.34287e-07
5.47879e-07
-1.46399e-07
5.27912e-07
-1.57825e-07
5.0662e-07
-1.68423e-07
4.84137e-07
-1.78011e-07
4.60621e-07
-1.86382e-07
4.36259e-07
-1.93319e-07
4.1126e-07
-1.98633e-07
3.85846e-07
-2.02218e-07
3.60233e-07
-2.0409e-07
3.34617e-07
-2.04402e-07
3.09157e-07
-2.03421e-07
2.83971e-07
-2.01475e-07
2.59137e-07
-1.98884e-07
2.34699e-07
-1.95921e-07
2.10678e-07
-1.92786e-07
1.87079e-07
-1.89612e-07
1.63897e-07
-1.8647e-07
1.41126e-07
-1.83392e-07
1.18759e-07
-1.80381e-07
9.67872e-08
-1.77428e-07
7.52082e-08
-1.74515e-07
5.4019e-08
-1.71624e-07
3.32188e-08
-1.68739e-07
1.28075e-08
-1.6585e-07
-7.2144e-09
-1.62953e-07
-2.68465e-08
-1.60043e-07
-4.60856e-08
-1.57096e-07
-6.49283e-08
-1.54108e-07
-8.3372e-08
-1.51081e-07
-1.01415e-07
-1.48021e-07
-1.19057e-07
-1.44935e-07
-1.36298e-07
-1.41829e-07
-1.53141e-07
-1.38711e-07
-1.69587e-07
-1.3559e-07
-1.85642e-07
-1.32473e-07
-2.0131e-07
-1.29371e-07
-2.16598e-07
-1.26291e-07
-2.31514e-07
-1.23243e-07
-2.46067e-07
-1.20233e-07
-2.60266e-07
-1.1727e-07
-2.74123e-07
-1.14363e-07
-2.87648e-07
-1.11517e-07
-3.00854e-07
-1.08742e-07
-3.13754e-07
-1.06045e-07
-3.26364e-07
-1.03437e-07
-3.387e-07
-1.00929e-07
-3.5078e-07
-9.85457e-08
-3.62628e-07