/*--------------------------------*- C++ -*----------------------------------*\
  =========                 |
  \\      /  F ield         | OpenFOAM: The Open Source CFD Toolbox
   \\    /   O peration     | Website:  https://openfoam.org
    \\  /    A nd           | Version:  8
     \\/     M anipulation  |
\*---------------------------------------------------------------------------*/
FoamFile
{
    version     2.0;
    format      ascii;
    class       volScalarField;
    location    "860/fluid";
    object      Qdot;
}
// * * * * * * * * * * * * * * * * * * * * * * * * * * * * * * * * * * * * * //

dimensions      [1 -1 -3 0 0 0 0];

internalField   nonuniform List<scalar> 
4000
(
0
0
6.55313e-12
0
0
0
-3.37831e-07
0
0
1.17281e-10
2.93854e-10
0
-3.83884e-07
-9.98265e-10
-4.23216e-18
3.98729e-07
4.00614e-07
-3.14161e-15
2.82454e-08
8.88716e-08
4.16076e-06
5.73514e-05
0.000678708
0.00667638
0.0535924
0.350489
1.88452
8.4522
32.1444
105.349
301.945
766.465
1742.37
3582.99
6725.68
11651.4
18877.5
28993.4
42802.3
61486.9
86737.4
120803
166608
228015
310159
419958
566606
761933
1.02179e+06
1.36756e+06
1.8266e+06
2.43485e+06
3.23948e+06
4.30252e+06
5.70566e+06
7.55684e+06
9.99937e+06
1.31816e+07
1.73373e+07
2.29866e+07
3.04972e+07
7.24239e+07
3.75856e+08
2.95063e+07
2.12416e+07
1.51058e+07
1.05916e+07
7.30823e+06
4.95252e+06
3.29026e+06
2.14168e+06
1.37057e+06
876415
562367
149218
11157.6
307.093
4.34168
0.0412418
0.000422352
7.96834e-06
3.75755e-07
4.24543e-08
8.72053e-09
3.00288e-09
9.75606e-10
4.60183e-10
1.62624e-10
6.95793e-11
3.27358e-11
1.45613e-11
5.86114e-12
2.46195e-12
9.51721e-13
4.42126e-13
1.00928e-12
5.64617e-12
2.82835e-14
9.60419e-15
1.65614e-15
0
2.7871e-07
-2.91171e-07
6.09585e-12
2.81628e-11
2.90801e-11
0
0
0
0
0
0
0
0
-8.1924e-18
3.87573e-07
-5.85563e-14
-1.20881e-13
2.32348e-08
2.76569e-07
3.93788e-06
5.16241e-05
0.000611763
0.00607119
0.0493264
0.327118
1.78462
8.11925
31.2979
103.863
301.087
772.012
1769.6
3663.26
6912.06
12013.6
19492.7
29932.5
44117.6
63202.7
88847.6
123266
169374
231041
313432
423483
570181
765617
1.02659e+06
1.37362e+06
1.83437e+06
2.4452e+06
3.25391e+06
4.3235e+06
5.73721e+06
7.60544e+06
1.00753e+07
1.3299e+07
1.75203e+07
2.32785e+07
3.09598e+07
1.1309e+08
3.39978e+08
2.93675e+07
2.10647e+07
1.49294e+07
1.04322e+07
7.17175e+06
4.84025e+06
3.20128e+06
2.07406e+06
1.32215e+06
845446
517362
111964
6712.74
159.982
2.04216
0.0190267
0.000213981
4.81114e-06
2.71959e-07
3.55307e-08
8.35602e-09
2.63714e-09
9.94235e-10
4.13562e-10
1.62912e-10
7.35961e-11
3.3792e-11
1.95277e-11
5.73428e-12
3.3103e-12
9.86824e-13
4.37405e-13
1.65021e-13
6.92174e-14
2.51324e-14
8.84751e-15
1.47597e-15
0
0
8.49494e-17
-1.26486e-20
1.24694e-11
3.18904e-07
0
0
0
0
0
0
0
3.61779e-07
2.74451e-14
2.33203e-09
-4.27237e-09
-4.76468e-09
2.62443e-08
2.65821e-07
3.68054e-06
4.78883e-05
0.000566624
0.00564693
0.0462514
0.31006
1.71259
7.8939
30.8321
103.641
304.169
789.02
1826.98
3811.93
7240.99
12641.9
20558.2
31572.2
46450.6
66320.2
92814.4
128120
175170
237879
321495
432795
580912
779264
1.04336e+06
1.39458e+06
1.86106e+06
2.4799e+06
3.30008e+06
4.3864e+06
5.82487e+06
7.73005e+06
1.02553e+07
1.3558e+07
1.78977e+07
2.38355e+07
3.17691e+07
1.83238e+08
2.73681e+08
2.9447e+07
2.09774e+07
1.47652e+07
1.02456e+07
6.99316e+06
4.68497e+06
3.07533e+06
1.97826e+06
1.25478e+06
804195
441703
74414.3
3596.48
76.1267
0.919203
0.00890142
0.000114551
3.0811e-06
2.04905e-07
2.93551e-08
7.13259e-09
2.53893e-09
1.00329e-09
3.67804e-10
1.73381e-10
7.95262e-11
2.92459e-11
1.3728e-11
6.09212e-12
2.47019e-12
1.0305e-12
4.32103e-13
1.6354e-13
6.59841e-14
5.3977e-12
8.83851e-15
1.47766e-15
-2.64841e-07
-2.03092e-17
8.44077e-17
-1.33343e-11
0
-3.69778e-16
-3.21956e-07
-3.28409e-07
0
1.0907e-10
4.62584e-19
9.34196e-19
-5.52333e-10
-3.51547e-07
9.12254e-10
-1.83921e-09
-2.87892e-16
-2.86228e-15
1.69239e-08
2.57056e-07
3.24856e-06
4.45202e-05
0.000532198
0.00534121
0.0441685
0.299436
1.6741
7.81346
30.9011
105.151
312.267
819.168
1916.23
4030.21
7699.87
13500.2
21996.3
33771.2
49575
70514.1
98201.4
134829
183381
247862
333376
446989
599295
802150
1.07215e+06
1.43115e+06
1.90802e+06
2.5409e+06
3.38025e+06
4.49303e+06
5.96834e+06
7.92512e+06
1.05228e+07
1.39186e+07
1.8388e+07
2.4518e+07
3.27257e+07
2.67331e+08
1.92095e+08
2.9434e+07
2.08063e+07
1.45257e+07
9.99464e+06
6.76321e+06
4.49148e+06
2.92308e+06
1.86596e+06
1.17836e+06
758723
353171
45962.7
1837.77
34.8198
0.400102
0.0040431
5.94986e-05
1.91191e-06
1.49132e-07
2.43995e-08
6.09613e-09
2.25665e-09
8.16375e-10
3.59792e-10
1.46106e-10
7.79342e-11
3.06551e-11
1.78225e-11
5.52633e-12
2.24755e-12
6.50163e-15
3.76759e-13
1.88003e-13
6.23157e-14
2.33355e-14
8.84288e-15
1.48167e-15
0
0
8.38315e-17
2.94468e-07
-3.02744e-07
-1.53413e-11
0
-1.08737e-19
0
1.06556e-10
0
0
-4.36651e-10
0
8.83839e-10
-3.7306e-17
-2.78345e-16
-2.81856e-15
8.1712e-09
2.48145e-07
3.10197e-06
4.27302e-05
0.000511066
0.00516091
0.0430638
0.29502
1.66806
7.87577
31.5093
108.443
325.594
863.089
2038.48
4319.06
8287.35
14578.6
23776.7
36462.8
53368
75586.3
104722
143011
193508
260064
348252
466431
623747
833166
1.11179e+06
1.48219e+06
1.97418e+06
2.62721e+06
3.49355e+06
4.64263e+06
6.1669e+06
8.18988e+06
1.08715e+07
1.43662e+07
1.89876e+07
2.53377e+07
3.38272e+07
3.49418e+08
1.08922e+08
2.91741e+07
2.04278e+07
1.413e+07
9.63492e+06
6.46245e+06
4.25504e+06
2.74692e+06
1.7418e+06
1.09703e+06
709627
253938
27444.1
937.669
16.1828
0.180539
0.00193761
3.28101e-05
1.24894e-06
1.11809e-07
2.0497e-08
5.52651e-09
2.20334e-09
7.98318e-10
3.51657e-10
1.37118e-10
7.15922e-11
2.97471e-11
1.08067e-11
6.77258e-12
2.10503e-12
9.52297e-13
3.73951e-13
1.49115e-13
6.21245e-14
8.06605e-13
8.11252e-15
1.30679e-15
0
0
0
-1.23077e-20
0
0
-3.11687e-07
0
0
0
0
0
0
0
1.91273e-09
-3.97905e-17
-2.13611e-09
-2.77107e-15
7.89862e-09
2.39687e-07
3.20266e-06
4.1561e-05
0.000499418
0.00507867
0.0427668
0.295986
1.69151
8.07343
32.6488
113.551
344.4
921.727
2195.95
4682.04
9010.6
15883.8
25898.9
39627.3
57776.7
81434.2
112211
152379
204889
274147
366747
489815
653577
871515
1.16142e+06
1.5468e+06
2.05871e+06
2.73826e+06
3.63995e+06
4.83605e+06
6.42269e+06
8.52556e+06
1.13155e+07
1.49439e+07
1.97436e+07
2.62998e+07
3.50155e+07
4.20903e+08
3.99446e+07
2.79976e+07
1.94539e+07
1.33656e+07
9.05682e+06
6.03825e+06
3.95249e+06
2.53749e+06
1.60186e+06
1.00789e+06
646545
190906
16129.3
485.962
7.76778
0.0852741
0.000978007
1.89561e-05
8.44052e-07
8.57303e-08
1.68613e-08
5.01437e-09
1.9459e-09
6.77224e-10
2.76954e-10
1.40904e-10
6.74091e-11
2.86471e-11
1.15007e-11
4.73599e-12
2.08416e-12
8.41654e-13
4.22209e-13
1.60934e-13
5.45669e-12
-5.26605e-12
7.38783e-15
1.31197e-15
4.84269e-18
2.0055e-17
0
0
0
0
0
1.0491e-19
0
-1.25387e-10
0
0
5.08597e-10
-1.73976e-18
2.431e-14
-3.50553e-17
-3.30284e-07
-2.75732e-15
7.62912e-09
3.99162e-07
2.96547e-06
4.11143e-05
0.00049544
0.00508052
0.0431705
0.301725
1.74191
8.3993
34.3102
120.503
368.941
996.139
2391.75
5129.09
9891.37
17422.8
28359.4
43236.2
62730.9
87930.6
120420
162383
217325
290417
387254
515932
687143
915009
1.21819e+06
1.6214e+06
2.15733e+06
2.86933e+06
3.81485e+06
5.07003e+06
6.73574e+06
8.94789e+06
1.18893e+07
1.56791e+07
2.08488e+07
2.77044e+07
3.67585e+07
4.51519e+08
3.52866e+07
2.50844e+07
1.7588e+07
1.21507e+07
8.25932e+06
5.51511e+06
3.61272e+06
2.32132e+06
1.46915e+06
931538
583594
141754
9721.57
263.264
3.94613
0.0431146
0.000531083
1.17162e-05
5.97348e-07
7.01681e-08
1.46106e-08
4.51688e-09
1.70737e-09
7.17386e-10
3.00384e-10
1.32635e-10
6.06649e-11
2.73965e-11
1.62069e-11
-7.3993e-13
2.06383e-12
9.36309e-13
3.18996e-13
1.35403e-13
5.414e-12
2.11184e-14
7.39962e-15
1.22713e-15
2.63307e-07
0
-2.79576e-07
0
1.7187e-16
0
-3.01921e-07
0
0
9.98391e-11
0
-8.96469e-10
0
-8.06728e-10
9.93135e-10
-3.14566e-07
-2.86599e-16
-2.77452e-15
1.80316e-08
3.99742e-07
3.14831e-06
4.11502e-05
0.000499108
0.00515679
0.0442085
0.311919
1.81829
8.85267
36.5067
129.403
399.686
1087.95
2630.3
5667.05
10934.2
19204.3
31153.6
47254
68148.6
94859
128872
172905
230951
307392
408612
543072
721946
960023
1.27691e+06
1.69865e+06
2.2599e+06
3.00686e+06
4.00128e+06
5.32586e+06
7.09173e+06
9.44895e+06
1.25821e+07
1.66644e+07
2.22978e+07
2.98577e+07
4.00088e+07
4.39816e+08
3.24254e+07
2.30443e+07
1.61635e+07
1.11701e+07
7.5919e+06
5.06581e+06
3.31412e+06
2.12648e+06
1.34589e+06
858302
510889
104260
6065.76
150.426
2.13964
0.0234553
0.000310348
7.71818e-06
4.49368e-07
5.70956e-08
1.27991e-08
4.13395e-09
1.57636e-09
6.53908e-10
3.02251e-10
1.30553e-10
5.32722e-11
2.37662e-11
5.63758e-12
4.45003e-12
1.84225e-12
8.28363e-13
3.05957e-13
-6.58263e-13
5.55406e-14
2.04344e-14
5.94466e-15
1.23143e-15
0
0
2.79405e-12
1.19712e-20
0
0
0
4.82943e-11
0
0
0
0
0
3.05967e-07
-1.7468e-09
4.57862e-14
-2.83677e-16
-2.79792e-15
1.41999e-08
2.36245e-07
2.86466e-06
4.15848e-05
0.000508967
0.00530021
0.0458345
0.326356
1.92018
9.43536
39.2628
140.395
437.258
1199.26
2917.27
6306.67
12150.8
21236.2
34273.7
51641.9
73897.9
101930
137662
184127
244685
324330
429679
569479
755275
1.00235e+06
1.33099e+06
1.76816e+06
2.34976e+06
3.12375e+06
4.15424e+06
5.52718e+06
7.35814e+06
9.80298e+06
1.30568e+07
1.73194e+07
2.32214e+07
3.118e+07
6.46159e+07
4.14783e+08
3.06032e+07
2.17355e+07
1.52393e+07
1.05302e+07
7.15894e+06
4.78065e+06
3.13226e+06
2.01505e+06
1.28131e+06
824516
459008
78648.9
3979.56
91.3523
1.24417
0.0137546
0.00019503
5.40304e-06
3.51217e-07
4.81469e-08
1.17707e-08
3.66242e-09
1.50338e-09
5.92334e-10
2.85782e-10
1.21211e-10
5.24889e-11
2.5044e-11
9.03015e-12
4.40124e-12
6.4937e-12
7.22528e-13
3.15087e-13
1.21992e-13
5.53704e-14
4.46696e-12
6.68295e-15
-4.29313e-12
2.62542e-07
2.84273e-21
0
6.95504e-12
-2.56377e-11
0
-2.89337e-11
-4.74293e-11
-2.96009e-07
0
0
0
0
-2.96277e-07
-2.9575e-07
-4.45447e-17
4.40934e-14
3.74905e-09
1.674e-08
2.40217e-07
3.2468e-06
4.27055e-05
0.000524595
0.00550603
0.0480195
0.34495
2.04783
10.1524
42.6163
153.678
482.471
1332.77
3259.75
7061.58
13556
23523.2
37706.5
56328.7
79801
109293
146972
195348
258257
340840
449879
594303
785880
1.04016e+06
1.37776e+06
1.82602e+06
2.42131e+06
3.21206e+06
4.26286e+06
5.65996e+06
7.51882e+06
9.99434e+06
1.32688e+07
1.75444e+07
2.34327e+07
3.13074e+07
1.25848e+08
3.61861e+08
2.95572e+07
2.09514e+07
1.46608e+07
1.01105e+07
6.85965e+06
4.57157e+06
2.99004e+06
1.92205e+06
1.22452e+06
794517
405503
60701.7
2745.53
58.913
0.773305
0.00865749
0.00013104
4.00135e-06
2.86534e-07
4.28668e-08
1.04193e-08
3.50809e-09
1.42172e-09
6.30686e-10
2.58852e-10
1.20767e-10
4.82413e-11
2.15456e-11
9.71495e-12
4.17481e-12
1.6102e-12
7.65639e-13
3.02047e-13
1.33474e-13
4.32212e-14
1.74292e-14
6.68577e-15
-5.02828e-12
2.62163e-07
2.83081e-21
8.04901e-17
-1.63725e-16
-1.39724e-11
0
0
4.65682e-11
2.08166e-10
0
0
-5.43182e-15
-4.55409e-10
9.06995e-10
-9.03654e-10
-4.3047e-17
2.86067e-07
-2.91221e-15
1.60938e-08
3.88317e-07
3.20633e-06
4.3963e-05
0.000545577
0.00576984
0.0507384
0.367633
2.20157
11.0096
46.6103
169.48
536.271
1491.64
3666
7946.51
15160.3
26054.2
41398
61174.5
85956.4
117084
156307
206494
271602
356876
469203
617612
813976
1.07395e+06
1.41823e+06
1.87423e+06
2.47829e+06
3.27867e+06
4.33956e+06
5.74639e+06
7.61316e+06
1.00918e+07
1.33568e+07
1.76072e+07
2.34466e+07
3.12274e+07
1.80743e+08
3.0977e+08
2.8913e+07
2.04778e+07
1.43215e+07
9.87307e+06
6.69778e+06
4.46421e+06
2.92109e+06
1.87958e+06
1.20044e+06
783516
368805
48273.3
1988.61
40.2522
0.512579
0.00581619
9.35456e-05
3.11407e-06
2.41019e-07
3.88162e-08
9.83896e-09
3.25007e-09
1.30371e-09
5.70624e-10
2.43317e-10
1.07265e-10
4.91921e-11
2.27873e-11
9.2408e-12
3.91175e-12
2.37917e-12
6.62018e-13
2.86619e-13
1.20744e-13
-5.17288e-12
5.18377e-12
5.95997e-15
5.02562e-12
0
0
0
0
-1.64057e-16
-2.81533e-07
0
0
1.33559e-15
0
-1.81957e-10
-3.62044e-10
0
0
-2.76059e-07
-4.15492e-17
-3.07889e-16
3.47126e-09
-2.62033e-07
3.9451e-07
3.48454e-06
4.59599e-05
0.000571285
0.00608696
0.0539629
0.394302
2.38152
12.0117
51.2855
188.031
599.658
1679.3
4144.89
8975.33
16964.2
28794
45244.5
66237.9
92451.7
124891
165592
217522
284729
372528
487868
639825
840310
1.10499e+06
1.45453e+06
1.91623e+06
2.52621e+06
3.33231e+06
4.39802e+06
5.80746e+06
7.67183e+06
1.01403e+07
1.33872e+07
1.76065e+07
2.33863e+07
3.10699e+07
2.28676e+08
2.6435e+08
2.83415e+07
2.00773e+07
1.40428e+07
9.68188e+06
6.56882e+06
4.37925e+06
2.8671e+06
1.84755e+06
1.18409e+06
778082
332465
39557
1507.71
29.0187
0.360489
0.00415055
7.04686e-05
2.53031e-06
2.09474e-07
3.4757e-08
9.63245e-09
3.36341e-09
1.27648e-09
5.59255e-10
2.38752e-10
1.10019e-10
5.00646e-11
2.09234e-11
9.12356e-12
3.86494e-12
1.76948e-12
5.15084e-12
2.73769e-13
-4.33804e-12
4.58647e-14
1.73631e-14
5.95805e-15
1.06331e-15
0
0
7.9405e-17
-1.15338e-20
-2.75879e-07
2.49007e-11
0
-1.31002e-15
-1.10074e-10
-2.60489e-15
-7.43459e-19
0
-1.01969e-14
-2.90267e-18
1.53121e-09
-4.57703e-17
-3.13224e-16
-3.08538e-15
1.81276e-08
2.60234e-07
3.62808e-06
4.78895e-05
0.000600964
0.00645085
0.0576462
0.424711
2.58691
13.1591
56.6647
209.505
673.491
1898.85
4704.07
10155.4
18945.1
31650.4
49245.6
71492.3
98842.1
132529
174665
228307
297559
387788
505972
661211
865409
1.1342e+06
1.48815e+06
1.95439e+06
2.56873e+06
3.37846e+06
4.44581e+06
5.85326e+06
7.71167e+06
1.017e+07
1.33918e+07
1.75684e+07
2.3278e+07
3.08502e+07
2.69205e+08
2.2648e+08
2.7783e+07
1.9709e+07
1.38026e+07
9.52738e+06
6.47153e+06
4.31983e+06
2.83253e+06
1.82928e+06
1.17684e+06
777709
296291
33367.3
1191.81
21.9695
0.267504
0.0031255
5.57013e-05
2.13042e-06
1.8837e-07
3.28821e-08
9.05497e-09
3.10704e-09
1.33405e-09
5.46772e-10
2.34042e-10
1.14499e-10
4.62393e-11
2.05984e-11
1.41682e-11
3.81626e-12
-3.557e-12
-6.89841e-14
2.82245e-13
-5.06693e-12
-5.10946e-12
1.73172e-14
5.59267e-15
9.75381e-16
2.01767e-13
0
0
5.45117e-12
-5.48611e-12
0
0
0
2.72212e-07
0
5.04389e-15
0
-9.88472e-15
-2.80705e-18
-8.33433e-18
-4.40521e-17
-3.33575e-16
-7.90331e-14
2.68819e-07
2.71306e-07
3.42232e-06
5.02318e-05
0.000633633
0.00685239
0.0617107
0.458355
2.81522
14.4429
62.7305
233.929
758.154
2151.83
5345
11467.5
20986.2
34356.6
52951.8
76280.5
104734
139646
183206
238549
309816
402409
523318
681642
889259
1.16173e+06
1.51951e+06
1.98942e+06
2.60663e+06
3.41741e+06
4.48357e+06
5.88844e+06
7.74032e+06
1.01815e+07
1.33719e+07
1.74999e+07
2.31302e+07
3.05789e+07
3.02961e+08
1.95334e+08
2.72202e+07
1.93458e+07
1.35727e+07
9.38544e+06
6.38672e+06
4.27142e+06
2.80686e+06
1.8176e+06
1.17381e+06
778613
276870
28855.4
977.532
17.3843
0.208383
0.00246972
4.59194e-05
1.85389e-06
1.71686e-07
3.03914e-08
8.82535e-09
3.03056e-09
1.21406e-09
4.90311e-10
2.29189e-10
1.05923e-10
4.70312e-11
1.94515e-11
8.1131e-12
3.76619e-12
1.44835e-12
-4.51425e-12
2.79887e-13
1.06785e-13
4.25199e-14
7.66587e-13
5.58596e-15
5.01146e-12
0
-1.93919e-17
0
0
-6.66202e-12
0
9.08381e-20
0
2.66284e-07
0
0
0
0
2.51083e-07
1.86388e-14
2.45002e-07
-3.40682e-16
5.53484e-09
2.2035e-08
4.05136e-07
3.72879e-06
5.26453e-05
0.000668379
0.00727713
0.0660287
0.494311
3.06112
15.8385
69.3963
261.084
853.352
2438.39
6066.85
12885.8
22964
36875.1
56340.1
80459.5
109826
145839
190757
247741
320960
415816
539306
700518
911258
1.18694e+06
1.54764e+06
2.01976e+06
2.63829e+06
3.45039e+06
4.51684e+06
5.91682e+06
7.75645e+06
1.01762e+07
1.33301e+07
1.74031e+07
2.29457e+07
3.02608e+07
3.30431e+08
1.70519e+08
2.66576e+07
1.89892e+07
1.33525e+07
9.25406e+06
6.31183e+06
4.23153e+06
2.78799e+06
1.81091e+06
1.17401e+06
780457
264446
25618.7
831.224
14.3495
0.169897
0.00203997
3.93254e-05
1.66081e-06
1.61234e-07
2.92598e-08
8.25137e-09
2.95107e-09
1.27038e-09
5.22852e-10
2.34228e-10
1.00659e-10
4.74485e-11
2.13731e-11
4.42628e-12
3.71464e-12
1.52346e-12
6.83163e-13
2.87871e-13
1.11845e-13
4.51956e-14
5.09112e-12
5.57704e-15
9.76447e-16
0
1.47401e-12
0
-1.56173e-16
0
0
-2.61751e-11
0
1.22405e-15
0
-2.53935e-07
0
1.32914e-18
-2.42196e-07
-7.72326e-18
-2.36496e-07
1.46989e-09
-3.38582e-15
2.09619e-08
4.05203e-07
3.7939e-06
5.49969e-05
0.000703104
0.00770502
0.0704051
0.531047
3.31478
17.2944
76.4385
290.165
956.643
2751.67
6847.18
14320.6
24620.8
38512
58510.7
83212.5
113333
150331
196508
255029
330059
426984
552762
716371
929471
1.20739e+06
1.5702e+06
2.04481e+06
2.66577e+06
3.47774e+06
4.54037e+06
5.93212e+06
7.75653e+06
1.01505e+07
1.32629e+07
1.72738e+07
2.27188e+07
2.98872e+07
3.52342e+08
1.50981e+08
2.60942e+07
1.86363e+07
1.31385e+07
9.12968e+06
6.24382e+06
4.19777e+06
2.77416e+06
1.80806e+06
1.17678e+06
784061
255397
23363.4
732.057
12.3328
0.144587
0.00175534
3.48665e-05
1.52893e-06
1.51916e-07
2.83202e-08
8.33653e-09
2.86911e-09
1.15278e-09
5.10033e-10
2.19069e-10
1.01603e-10
4.6534e-11
2.02917e-11
7.86148e-12
7.5558e-12
1.50436e-12
6.29826e-13
2.51877e-13
5.17405e-12
5.10769e-12
1.71373e-14
5.56602e-15
7.36183e-13
2.59927e-07
0
-2.62863e-07
-1.18074e-11
1.54462e-16
0
0
0
2.54424e-07
3.38553e-19
1.58913e-10
0
2.38519e-07
0
-7.24833e-10
1.15911e-09
2.54439e-09
5.02381e-09
2.75982e-08
1.88388e-07
3.86596e-06
5.7237e-05
0.000735553
0.00810894
0.0745691
0.566313
3.56083
18.7234
83.4397
319.453
1061.71
3069.64
7606.73
15490.1
25258.8
38402.6
58438
83451
114121
151920
199130
258887
335322
433784
561184
726480
941642
1.22188e+06
1.58714e+06
2.06297e+06
2.68336e+06
3.49274e+06
4.54943e+06
5.93009e+06
7.73567e+06
1.00994e+07
1.31645e+07
1.71061e+07
2.24436e+07
2.94526e+07
3.69602e+08
1.36049e+08
2.55304e+07
1.82859e+07
1.29284e+07
9.00975e+06
6.18014e+06
4.16784e+06
2.76345e+06
1.80752e+06
1.18102e+06
788257
249484
21865.3
666.568
11.0122
0.128093
0.00156859
3.18841e-05
1.44054e-06
1.46968e-07
2.77531e-08
8.07934e-09
2.94598e-09
1.20321e-09
5.15768e-10
2.19741e-10
1.01818e-10
4.56009e-11
1.9213e-11
8.44012e-12
7.80562e-12
1.48475e-12
5.61605e-12
2.72287e-13
1.0443e-13
4.18075e-14
5.04722e-12
4.28664e-12
4.99812e-12
4.76679e-18
2.74878e-21
3.22821e-12
0
6.42047e-12
-3.02993e-16
0
1.70206e-19
-1.67702e-19
2.44253e-07
0
2.34614e-07
-2.95564e-10
-2.25077e-07
5.65315e-10
2.46839e-09
-1.33579e-09
2.13869e-09
2.82096e-08
4.14364e-07
4.13461e-06
5.907e-05
0.000763484
0.00845697
0.0781842
0.597224
3.77889
20.0059
89.8122
346.494
1159.67
3363.14
8249.09
16080.3
24207.8
35799.9
55556
80386.5
111124
149252
197018
257531
334896
434459
563146
729946
946274
1.2272e+06
1.59232e+06
2.0671e+06
2.68485e+06
3.4891e+06
4.53684e+06
5.90281e+06
7.6852e+06
1.00133e+07
1.30254e+07
1.68903e+07
2.21114e+07
2.89507e+07
3.82437e+08
1.25431e+08
2.4965e+07
1.79354e+07
1.27191e+07
8.89096e+06
6.11762e+06
4.13891e+06
2.75348e+06
1.80737e+06
1.18518e+06
792273
246254
20957.3
625.845
10.1854
0.117751
0.00145086
2.99938e-05
1.38226e-06
1.43509e-07
2.80035e-08
7.98439e-09
2.94152e-09
1.20448e-09
5.2453e-10
2.39897e-10
1.08442e-10
4.73617e-11
1.88475e-11
7.59729e-12
3.55251e-12
1.55378e-12
6.40184e-13
2.46976e-13
8.43035e-13
4.15443e-14
1.69895e-14
5.73498e-15
4.25983e-12
0
-1.45546e-12
0
1.51693e-16
0
2.27737e-11
0
0
3.90484e-11
-3.20814e-19
0
0
-2.21109e-07
-6.82004e-10
-5.40826e-10
-4.86714e-17
1.26845e-09
-3.61319e-15
2.65864e-08
3.15893e-07
4.25232e-06
6.06154e-05
0.000783881
0.00871326
0.0808696
0.620388
3.94399
20.9885
94.7572
367.72
1236.61
3582.43
8600.22
15538.7
23627.9
31268.9
48927.9
73316.7
103768
141745
189454
249943
327257
426667
554999
721080
936327
1.21556e+06
1.57804e+06
2.04881e+06
2.6605e+06
3.45568e+06
4.48993e+06
5.83598e+06
7.58911e+06
9.87447e+06
1.28257e+07
1.66044e+07
2.16982e+07
2.83595e+07
3.90512e+08
1.18771e+08
2.43961e+07
1.75788e+07
1.25024e+07
8.76462e+06
6.04804e+06
4.10381e+06
2.73835e+06
1.80297e+06
1.18572e+06
793930
244879
20500.4
603.636
9.72063
0.111879
0.00138375
2.8911e-05
1.35088e-06
1.42118e-07
2.81458e-08
8.1389e-09
2.91476e-09
1.21114e-09
5.27785e-10
2.29138e-10
1.05227e-10
4.63408e-11
1.90828e-11
8.14814e-12
3.5744e-12
1.57171e-12
6.07958e-13
2.56793e-13
1.08347e-13
4.12732e-14
1.54916e-14
5.5233e-15
-4.98745e-12
0
-1.89839e-17
5.77278e-12
0
0
-2.93709e-16
-1.98067e-11
-2.41602e-07
3.80891e-11
0
0
-4.11827e-15
0
-1.55327e-14
-8.65695e-18
1.94786e-07
-3.6867e-16
4.25217e-09
2.07992e-08
2.25081e-07
4.23659e-06
6.12967e-05
0.00079437
0.00884557
0.0822641
0.632514
4.03119
21.5121
97.4117
379.066
1275.48
3660.88
8399.52
15903
24616.4
32600.4
39252.3
61239.2
90561.4
127333
173703
232638
308089
405217
530716
693255
904055
1.17767e+06
1.53299e+06
1.99456e+06
2.59431e+06
3.3738e+06
4.38721e+06
5.70515e+06
7.41982e+06
9.65165e+06
1.25295e+07
1.62028e+07
2.11354e+07
2.75531e+07
4.00911e+08
1.12857e+08
2.38057e+07
1.71933e+07
1.22538e+07
8.60695e+06
5.9502e+06
4.0447e+06
2.70374e+06
1.78328e+06
1.17442e+06
787428
243727
20348.4
595.016
9.528
0.109394
0.00135525
2.8454e-05
1.33874e-06
1.40692e-07
2.76159e-08
7.97174e-09
2.96306e-09
1.21476e-09
5.1244e-10
2.2299e-10
1.0265e-10
4.79117e-11
1.94271e-11
7.99939e-12
4.3034e-12
1.59728e-12
6.44406e-13
-4.62679e-13
-4.80751e-12
4.09993e-14
1.54185e-14
5.86188e-15
-4.98312e-12
0
1.89839e-17
0
0
0
-2.24192e-11
0
-8.67032e-11
-2.36591e-07
3.11924e-19
0
2.19021e-07
0
-2.2294e-18
-2.01574e-07
-4.62739e-17
-2.89044e-14
4.25216e-09
2.26653e-08
3.15628e-07
4.3279e-06
6.13007e-05
0.00079437
0.00884574
0.0822648
0.63252
4.03123
21.5123
97.4125
379.069
1275.49
3660.9
8399.53
15903.1
24616.5
32600.6
39252.6
61239.2
90561.6
127333
173703
232639
308090
405217
530716
693255
904055
1.17767e+06
1.53299e+06
1.99456e+06
2.59431e+06
3.3738e+06
4.3872e+06
5.70514e+06
7.41981e+06
9.65164e+06
1.25295e+07
1.62027e+07
2.11354e+07
2.75531e+07
4.0091e+08
1.12858e+08
2.38058e+07
1.71934e+07
1.22539e+07
8.60708e+06
5.95032e+06
4.0448e+06
2.70382e+06
1.78333e+06
1.17445e+06
787443
243732
20348.8
595.031
9.52826
0.109397
0.00135529
2.84562e-05
1.33752e-06
1.40692e-07
2.76156e-08
7.8432e-09
2.96311e-09
1.20696e-09
5.33874e-10
2.17495e-10
1.02654e-10
4.64754e-11
1.94275e-11
7.99939e-12
3.61111e-12
8.0867e-13
6.44406e-13
2.64078e-13
1.01839e-13
4.10002e-14
1.61977e-14
5.50776e-15
9.73496e-16
-4.75933e-18
-2.59564e-07
0
1.1579e-11
0
0
5.89291e-16
0
-1.63691e-19
0
-1.83936e-10
4.26562e-15
-2.8478e-10
-2.3262e-18
-5.40808e-10
-4.86712e-17
-3.72075e-16
2.02328e-09
2.65863e-08
2.21418e-07
4.2523e-06
6.06234e-05
0.000783899
0.0087136
0.0808717
0.620403
3.94409
20.989
94.7596
367.729
1236.63
3582.48
8600.25
15538.6
23628.2
31269.4
48928.3
73318
103770
141748
189458
249947
327260
426670
555002
721082
936327
1.21556e+06
1.57803e+06
2.0488e+06
2.66049e+06
3.45567e+06
4.48992e+06
5.83597e+06
7.58909e+06
9.87445e+06
1.28257e+07
1.66044e+07
2.16982e+07
2.83595e+07
3.90511e+08
1.18773e+08
2.43962e+07
1.75789e+07
1.25025e+07
8.76462e+06
6.04802e+06
4.10378e+06
2.73832e+06
1.80294e+06
1.18569e+06
793920
244883
20501.4
603.677
9.7214
0.111889
0.00138386
2.89107e-05
1.35087e-06
1.42116e-07
2.7566e-08
8.13878e-09
3.06669e-09
1.2147e-09
5.23511e-10
2.33727e-10
1.05228e-10
4.63425e-11
1.84759e-11
8.14836e-12
3.5924e-12
1.53222e-12
6.32477e-13
2.44451e-13
1.08353e-13
4.1275e-14
1.54926e-14
-4.98687e-12
9.74431e-16
4.76679e-18
-2.74878e-21
0
0
0
-2.31279e-11
0
0
8.91727e-11
-2.44428e-07
-2.39588e-07
0
-2.29481e-07
2.24366e-07
-2.1946e-07
1.36101e-09
1.08683e-09
4.76717e-09
1.88063e-08
3.11171e-07
4.13459e-06
5.91772e-05
0.000763409
0.00845705
0.0781863
0.597237
3.77896
20.0062
89.8134
346.498
1159.69
3363.2
8249.24
16080.3
24207.4
35798.9
55553.9
80382.9
111119
149247
197013
257526
334891
434456
563144
729946
946276
1.22721e+06
1.59232e+06
2.0671e+06
2.68485e+06
3.4891e+06
4.53683e+06
5.90279e+06
7.68518e+06
1.00133e+07
1.30254e+07
1.68903e+07
2.21114e+07
2.89506e+07
3.82435e+08
1.25436e+08
2.49651e+07
1.79355e+07
1.27191e+07
8.89096e+06
6.11761e+06
4.1389e+06
2.75348e+06
1.80738e+06
1.18518e+06
792284
246266
20959.3
625.919
10.1868
0.117767
0.00145105
2.99921e-05
1.38461e-06
1.42977e-07
2.80034e-08
7.94952e-09
3.01174e-09
1.21271e-09
5.24515e-10
2.23668e-10
1.06052e-10
4.58677e-11
1.88475e-11
8.29563e-12
3.63184e-12
1.50471e-12
6.3558e-13
-4.83526e-13
1.09263e-13
4.15452e-14
1.55653e-14
5.73521e-15
4.99375e-12
0
2.61768e-07
-1.10878e-20
-2.63215e-07
0
0
-4.66415e-11
-2.57487e-07
-1.19616e-15
0
-1.58908e-10
6.54344e-19
3.06324e-10
2.33891e-07
5.89729e-10
1.15911e-09
-1.14146e-09
5.02379e-09
2.26267e-08
4.0515e-07
4.07869e-06
5.74527e-05
0.0007357
0.00810921
0.0745719
0.566332
3.56094
18.7239
83.4418
319.461
1061.73
3069.7
7606.86
15490.3
25258.5
38401.5
58435.6
83446.1
114116
151915
199124
258882
335317
433778
561179
726480
941644
1.22188e+06
1.58714e+06
2.06298e+06
2.68336e+06
3.49274e+06
4.54943e+06
5.93008e+06
7.73566e+06
1.00993e+07
1.31645e+07
1.7106e+07
2.24436e+07
2.94525e+07
3.69597e+08
1.36055e+08
2.55306e+07
1.8286e+07
1.29285e+07
9.00989e+06
6.18026e+06
4.16793e+06
2.76351e+06
1.80756e+06
1.18104e+06
788269
249500
21868.1
666.676
11.0142
0.128118
0.00156887
3.18897e-05
1.44052e-06
1.46967e-07
2.83687e-08
7.90533e-09
3.0348e-09
1.20321e-09
5.20082e-10
2.24549e-10
1.04823e-10
4.83666e-11
1.8584e-11
8.44011e-12
3.52738e-12
6.44645e-12
6.68151e-13
2.72294e-13
4.39525e-12
-6.9837e-13
1.56355e-14
5.55323e-15
1.01583e-15
3.64891e-13
-1.47401e-12
0
0
-2.661e-07
0
0
1.77344e-19
-1.22387e-15
0
0
0
0
1.82161e-14
2.39163e-07
-1.48804e-09
2.32139e-07
-2.9111e-09
1.57214e-08
2.88901e-07
3.91707e-06
5.49966e-05
0.000703035
0.00770538
0.0704089
0.531073
3.31492
17.2951
76.4415
290.176
956.675
2751.75
6847.32
14320.6
24620.9
38512.2
58510.6
83216.2
113338
150337
196516
255038
330070
426996
552773
716377
929473
1.20739e+06
1.57021e+06
2.04482e+06
2.66578e+06
3.47775e+06
4.54038e+06
5.93213e+06
7.75653e+06
1.01505e+07
1.32629e+07
1.72737e+07
2.27188e+07
2.98871e+07
3.52336e+08
1.5099e+08
2.60944e+07
1.86365e+07
1.31386e+07
9.12971e+06
6.24382e+06
4.19775e+06
2.77414e+06
1.80803e+06
1.17676e+06
784057
255416
23367.2
732.212
12.3358
0.144624
0.00175576
3.48698e-05
1.53145e-06
1.51914e-07
2.83196e-08
8.33639e-09
2.94339e-09
1.23718e-09
5.10031e-10
2.36055e-10
1.01603e-10
4.6534e-11
1.87846e-11
7.86147e-12
3.66188e-12
1.5548e-12
6.29825e-13
2.51877e-13
1.05251e-13
4.20597e-14
7.61399e-13
5.92375e-15
7.36183e-13
0
-1.48021e-12
0
1.57684e-16
-2.69351e-07
-3.16914e-16
0
0
0
-1.8943e-10
0
0
3.27786e-10
-2.51082e-07
1.86361e-14
-4.76208e-17
1.53668e-09
-3.28921e-15
1.95636e-08
2.80085e-07
3.60348e-06
5.25261e-05
0.000668436
0.00727769
0.0660329
0.494342
3.0613
15.8394
69.4002
261.098
853.403
2438.54
6067.31
12887
22965.8
36878.3
56346.2
80465.8
109833
145847
190766
247752
320972
415831
539323
700540
911283
1.18696e+06
1.54765e+06
2.01977e+06
2.63831e+06
3.45042e+06
4.51688e+06
5.91686e+06
7.7565e+06
1.01762e+07
1.33302e+07
1.74032e+07
2.29458e+07
3.02609e+07
3.30426e+08
1.70528e+08
2.66578e+07
1.89893e+07
1.33526e+07
9.25413e+06
6.3119e+06
4.23159e+06
2.78803e+06
1.81095e+06
1.17403e+06
780472
264471
25623.8
831.435
14.3537
0.169949
0.00204055
3.9338e-05
1.66487e-06
1.61097e-07
2.92597e-08
8.43557e-09
2.95112e-09
1.18379e-09
5.2285e-10
2.23487e-10
9.99433e-11
4.95074e-11
2.05727e-11
8.72015e-12
3.71463e-12
2.36372e-12
6.36716e-13
-4.7367e-13
1.11845e-13
4.51955e-14
1.72037e-14
5.05089e-12
1.02547e-15
-3.65926e-13
-2.6509e-07
0
0
5.4861e-12
3.21515e-16
-2.73822e-07
0
1.27979e-15
0
0
-7.17111e-19
0
-2.80704e-18
2.58749e-07
-4.4052e-17
-3.28105e-16
-3.18997e-15
1.73282e-08
1.39867e-07
3.54796e-06
5.02379e-05
0.000633813
0.00685305
0.0617156
0.458389
2.81542
14.4438
62.7347
233.944
758.203
2151.96
5345.31
11467.9
20987.2
34359.1
52955.9
76285.9
104741
139654
183216
238560
309831
402426
523339
681669
889291
1.16177e+06
1.51956e+06
1.98947e+06
2.60668e+06
3.41746e+06
4.48365e+06
5.88854e+06
7.74046e+06
1.01817e+07
1.33722e+07
1.75002e+07
2.31306e+07
3.05794e+07
3.0296e+08
1.95342e+08
2.72206e+07
1.93461e+07
1.35729e+07
9.38559e+06
6.38682e+06
4.2715e+06
2.80693e+06
1.81766e+06
1.17387e+06
778666
276912
28863
977.845
17.3905
0.208459
0.00247056
4.59318e-05
1.85807e-06
1.71686e-07
3.06953e-08
8.82531e-09
3.10876e-09
1.25381e-09
5.35342e-10
2.29909e-10
1.02732e-10
4.54201e-11
2.02644e-11
8.10592e-12
3.76606e-12
1.54206e-12
1.42748e-12
2.79894e-13
8.69775e-13
4.41275e-14
1.72632e-14
5.58596e-15
9.76116e-16
1.64399e-13
2.80716e-21
0
-2.73437e-07
-2.75878e-07
0
4.99648e-11
-2.78641e-07
-1.87717e-19
0
0
0
2.7111e-07
-2.90266e-18
-2.68204e-07
-4.57701e-17
3.02824e-09
-3.08537e-15
1.81275e-08
2.66285e-07
3.49604e-06
4.78893e-05
0.00060104
0.00645156
0.057652
0.424748
2.58712
13.1601
56.6691
209.521
673.545
1899.02
4704.51
10156.5
18947.6
31654.6
49250.3
71497.9
98849
132538
174676
228320
297576
387809
505999
661244
865451
1.13425e+06
1.48822e+06
1.95447e+06
2.56883e+06
3.37858e+06
4.44594e+06
5.85342e+06
7.7119e+06
1.01703e+07
1.33922e+07
1.75689e+07
2.32787e+07
3.08511e+07
2.69212e+08
2.26488e+08
2.77824e+07
1.97082e+07
1.38019e+07
9.52677e+06
6.47104e+06
4.31942e+06
2.83218e+06
1.82897e+06
1.17658e+06
777519
296291
33371.9
1192.14
21.9775
0.267611
0.0031267
5.5717e-05
2.12882e-06
1.88368e-07
3.25682e-08
9.05412e-09
3.2858e-09
1.33405e-09
5.93525e-10
2.34049e-10
1.07996e-10
4.62382e-11
2.05984e-11
8.9877e-12
3.81625e-12
-3.557e-12
6.97315e-13
-5.06489e-13
1.19289e-13
4.56591e-14
-7.35319e-13
5.95314e-15
9.75352e-16
-3.66979e-13
-2.81896e-21
-6.1022e-12
-1.62206e-16
1.64057e-16
-2.52567e-11
6.65403e-16
0
-1.33559e-15
0
-5.31356e-15
-5.28633e-15
0
0
2.77643e-07
-4.15491e-17
-2.7416e-07
-2.98358e-15
1.54459e-08
1.15401e-07
3.47181e-06
4.59725e-05
0.000571371
0.00608746
0.0539689
0.394341
2.38175
12.0128
51.2899
188.047
599.707
1679.44
4145.19
8975.85
16964.7
28793.6
45245.5
66241.6
92457.8
124899
165604
217537
284749
372553
487900
639867
840364
1.10506e+06
1.45462e+06
1.91634e+06
2.52636e+06
3.33251e+06
4.39828e+06
5.80778e+06
7.67221e+06
1.01408e+07
1.33878e+07
1.76073e+07
2.33872e+07
3.10709e+07
2.28703e+08
2.64343e+08
2.83416e+07
2.00786e+07
1.40447e+07
9.68383e+06
6.57063e+06
4.38088e+06
2.86853e+06
1.84869e+06
1.18495e+06
778648
332696
39578.8
1508.45
29.0327
0.360661
0.00415236
7.04901e-05
2.52736e-06
2.09471e-07
3.47564e-08
9.27055e-09
3.36412e-09
1.27149e-09
6.01228e-10
2.38752e-10
9.80025e-11
4.70349e-11
2.09234e-11
8.35067e-12
3.86494e-12
1.76944e-12
6.82518e-13
2.60591e-13
1.20038e-13
4.58637e-14
1.59007e-14
6.31964e-15
1.15252e-15
-2.02631e-13
6.75287e-13
-5.77719e-21
0
1.65992e-16
4.81714e-20
-6.76359e-16
0
2.90033e-07