/*--------------------------------*- C++ -*----------------------------------*\
  =========                 |
  \\      /  F ield         | OpenFOAM: The Open Source CFD Toolbox
   \\    /   O peration     | Website:  https://openfoam.org
    \\  /    A nd           | Version:  8
     \\/     M anipulation  |
\*---------------------------------------------------------------------------*/
FoamFile
{
    version     2.0;
    format      ascii;
    class       volScalarField;
    location    "860/fluid";
    object      rDeltaT;
}
// * * * * * * * * * * * * * * * * * * * * * * * * * * * * * * * * * * * * * //

dimensions      [0 0 -1 0 0 0 0];

internalField   nonuniform List<scalar> 
4000
(
513.505
539.565
564.429
588.242
610.944
632.437
652.588
671.258
688.313
703.651
717.236
729.121
739.487
748.664
757.149
765.441
773.929
782.793
791.932
800.956
809.26
816.15
820.972
823.203
822.525
818.752
811.773
801.562
788.155
771.639
752.136
741.774
764.198
808.802
852.581
895.425
937.25
977.984
1017.57
1055.98
1093.17
1129.12
1163.84
1197.32
1229.56
1260.57
1290.35
1318.93
1346.32
1372.52
1397.55
1421.43
1444.15
1465.73
1486.18
1505.48
1523.65
1540.54
1556.14
1570.71
1584.14
2863.69
15058.1
1573.6
1537.05
1495.62
1449.79
1400.06
1346.86
1290.56
1231.58
1170.4
1107.57
1043.63
979.317
916.064
855.881
801.183
754.931
719.764
696.665
684.19
679.085
677.831
677.607
676.648
673.97
669.219
662.426
653.777
643.505
631.846
619.018
605.214
590.597
575.304
559.44
543.074
526.233
508.869
513.029
538.429
562.5
585.174
606.424
626.175
644.334
660.809
675.535
688.496
699.752
709.464
717.918
725.545
732.826
740.235
748.154
756.769
765.991
775.432
784.467
792.353
798.358
801.884
802.478
799.835
793.798
784.326
771.469
755.338
736.083
713.88
715.65
752.237
797.226
841.478
884.887
927.365
968.839
1009.25
1048.57
1086.76
1123.81
1159.69
1194.42
1227.99
1260.42
1291.7
1321.86
1350.91
1378.86
1405.74
1431.55
1456.32
1480.07
1502.81
1524.54
1545.14
1564.64
1583.36
1601.2
4475.07
13638.1
1584.26
1543
1498.12
1449.49
1397.23
1341.51
1282.56
1220.65
1156.17
1089.58
1021.31
952.29
884.389
820.236
763.086
716.194
681.897
660.414
649.564
645.825
645.794
646.937
647.696
647.25
645.145
641.227
635.52
628.13
619.199
608.882
597.332
584.69
571.081
556.611
541.35
525.322
508.561
512.325
536.164
558.501
579.3
598.502
616.047
631.88
645.964
658.303
668.957
678.063
685.853
692.66
698.906
705.04
711.516
718.72
726.848
735.829
745.298
754.649
763.146
770.043
774.68
776.508
775.144
770.375
762.126
750.423
735.36
717.077
695.743
678.141
694.278
739.564
784.414
828.709
872.344
915.235
957.313
998.526
1038.83
1078.21
1116.62
1154.08
1190.56
1226.09
1260.65
1294.27
1326.96
1358.75
1389.66
1419.71
1448.93
1477.35
1504.99
1531.83
1557.68
1582.52
1606.49
1629.02
7260.09
11002
1603.31
1557.33
1507.62
1454.24
1397.28
1336.89
1273.25
1206.64
1137.43
1066.17
993.403
920.421
849.519
783.698
726.448
680.854
648.599
629.165
619.973
617.506
618.542
620.73
622.622
623.503
623.008
620.966
617.329
612.124
605.417
597.296
587.853
577.185
565.381
552.524
538.674
523.865
508.114
511.635
534.093
554.98
574.249
591.861
607.778
621.973
634.44
645.212
654.37
662.064
668.525
674.079
679.139
684.179
689.674
696.013
703.395
711.752
720.722
729.704
737.962
744.744
749.382
751.344
750.254
745.885
738.134
726.995
712.531
694.857
674.116
650.476
650.057
685.09
730.259
775.157
819.676
863.727
907.233
950.136
992.388
1033.95
1074.8
1114.93
1154.31
1192.94
1230.83
1267.99
1304.42
1340.14
1375.16
1409.5
1443.16
1476.14
1508.4
1539.88
1570.26
1599.4
1627.32
1653.22
10609.4
7742.44
1615.67
1565.84
1511.74
1453.66
1391.86
1326.62
1258.24
1187.11
1113.77
1038.9
963.248
888.477
817.096
752.125
696.76
653.649
623.945
606.671
599.062
597.7
599.587
602.568
605.305
607.079
607.545
606.562
604.096
600.163
594.809
588.089
580.065
570.796
560.345
548.769
536.109
522.39
507.634
510.898
531.854
551.191
568.871
584.86
599.132
611.678
622.513
631.688
639.306
645.538
650.632
654.927
658.841
662.848
667.419
672.932
679.583
687.303
695.739
704.299
712.253
718.85
723.413
725.401
724.423
720.239
712.731
701.877
687.726
670.373
649.95
626.607
612.659
633.554
678.901
724.244
769.475
814.503
859.25
903.652
947.657
991.224
1034.32
1076.93
1119.01
1160.57
1201.6
1242.08
1282.02
1321.41
1360.24
1398.49
1436.14
1473.11
1509.34
1544.64
1578.58
1611
1641.76
1669.84
13891.6
4401.5
1619.5
1566.75
1509.04
1446.96
1381.01
1311.65
1239.33
1164.6
1088.15
1010.72
933.249
857.633
786.453
722.685
669.313
628.596
601.202
585.771
579.428
578.888
581.378
584.941
588.357
590.955
592.389
592.499
591.222
588.548
584.497
579.102
572.403
564.442
555.265
544.916
533.428
520.821
507.121
510.16
529.641
547.495
563.685
578.185
590.981
602.075
611.494
619.301
625.609
630.595
634.51
637.689
640.546
643.546
647.153
651.739
657.5
664.375
672.024
679.869
687.195
693.259
697.39
699.041
697.82
693.474
685.873
674.98
660.83
643.504
623.118
599.807
575.283
585.196
630.635
676.312
722.119
767.966
813.773
859.474
905.013
950.346
995.431
1040.23
1084.73
1128.89
1172.69
1216.11
1259.13
1301.72
1343.83
1385.41
1426.39
1466.65
1506.03
1544.31
1580.91
1615.65
1648.24
1677.53
16763.1
1663.51
1615.41
1560.21
1499.42
1434.01
1364.68
1292.05
1216.73
1139.39
1060.83
981.834
903.534
827.97
757.761
695.8
644.844
606.78
581.848
568.374
563.397
563.743
566.827
570.86
574.738
577.857
579.903
580.725
580.258
578.483
575.402
571.033
565.4
558.528
550.449
541.195
530.791
519.25
506.599
509.414
527.407
543.777
558.49
571.527
582.88
592.559
600.6
607.074
612.101
615.862
618.613
620.688
622.498
624.502
627.153
630.818
635.69
641.707
648.536
655.61
662.222
667.637
671.187
672.327
670.661
665.93
657.998
646.82
632.42
614.87
594.273
570.754
544.45
546.037
584.733
630.661
676.936
723.467
770.173
816.985
863.846
910.7
957.499
1004.2
1050.77
1097.17
1143.36
1189.3
1234.94
1280.22
1325.08
1369.43
1413.14
1456.05
1497.95
1538.54
1577.03
1613.64
1647.23
1676.8
18015.4
1656.94
1605.19
1547
1483.46
1415.43
1343.65
1268.78
1191.5
1112.55
1032.82
953.128
874.744
799.811
730.937
670.924
622.317
586.683
563.912
552.101
548.264
549.359
552.973
557.458
561.803
565.448
568.099
569.609
569.906
568.963
566.773
563.343
558.685
552.817
545.761
537.541
528.178
517.681
506.075
508.67
525.188
540.095
553.365
564.982
574.945
583.269
589.994
595.199
599.007
601.6
603.234
604.238
605.018
606.022
607.696
610.401
614.322
619.404
625.319
631.51
637.28
641.903
644.715
645.173
642.881
637.577
629.12
617.458
602.609
584.636
563.635
539.719
513.018
508.305
540.732
586.828
633.461
680.54
727.983
775.719
823.681
871.811
920.055
968.363
1016.68
1064.96
1113.15
1161.19
1209
1256.52
1303.64
1350.24
1396.17
1441.23
1485.15
1527.5
1567.55
1605.28
1639.35
1668.35
17584.2
1642.94
1588.56
1528.1
1462.54
1392.68
1319.25
1242.95
1164.5
1084.71
1004.49
924.703
846.737
772.812
705.523
647.576
601.325
568.052
547.349
537.13
534.399
536.229
540.362
545.269
550.026
554.121
557.282
559.372
560.32
560.094
558.681
556.082
552.301
547.348
541.239
533.992
525.621
516.135
505.556
507.93
522.977
536.433
548.274
558.49
567.083
574.073
579.505
583.46
586.065
587.503
588.026
587.963
587.71
587.71
588.398
590.127
593.079
597.197
602.158
607.411
612.269
616.012
617.982
617.639
614.588
608.567
599.433
587.131
571.674
553.121
531.559
507.098
479.858
470.353
498.108
544.289
591.175
638.673
686.701
735.18
784.042
833.223
882.661
932.294
982.06
1031.89
1081.73
1131.49
1181.08
1230.4
1279.34
1327.75
1375.44
1422.17
1467.65
1511.38
1552.66
1591.38
1626.2
2556.56
16612.3
1623.61
1567.27
1505.18
1438.2
1367.13
1292.68
1215.56
1136.55
1056.48
976.287
896.838
819.646
746.969
681.376
625.482
581.468
550.37
531.536
522.743
521.01
523.527
528.166
533.503
538.683
543.233
546.902
549.556
551.128
551.583
550.906
549.09
546.137
542.052
536.845
530.53
523.119
514.618
505.047
507.193
520.78
532.798
543.224
552.055
559.295
564.969
569.126
571.848
573.264
573.557
572.976
571.847
570.558
569.544
569.23
569.961
571.915
575.032
578.993
583.254
587.134
589.919
590.959
589.718
585.802
578.952
569.023
555.961
539.775
520.521
498.284
473.166
445.283
432.161
456.475
502.658
549.694
597.489
645.956
695.016
744.596
794.623
845.028
895.742
946.691
997.798
1048.98
1100.15
1151.19
1202
1252.42
1302.3
1351.42
1399.53
1446.31
1491.24
1533.64
1573.45
1609.43
4981.97
14519
1599.21
1541.91
1478.96
1411.24
1339.55
1264.62
1187.21
1108.1
1028.17
948.351
869.544
793.354
722.065
658.214
604.337
562.454
533.386
516.279
508.807
508.017
511.199
516.345
522.118
527.726
532.73
536.895
540.095
542.265
543.371
543.394
542.326
540.164
536.909
532.569
527.155
520.676
513.134
504.548
506.461
518.597
529.184
538.205
545.659
551.556
555.922
558.809
560.303
560.533
559.68
557.993
555.792
553.459
551.42
550.091
549.809
550.745
552.837
555.767
558.996
561.849
563.619
563.662
561.448
556.586
548.82
538.007
524.092
507.085
487.04
464.039
438.183
409.582
393.726
415.512
461.618
508.708
556.686
605.464
654.96
705.094
755.789
806.968
858.553
910.463
962.61
1014.9
1067.22
1119.47
1171.5
1223.16
1274.26
1324.59
1373.88
1421.78
1467.76
1511.17
1551.94
1588.82
7161.27
12447.2
1571.34
1513.72
1450.45
1382.48
1310.62
1235.64
1158.32
1079.47
999.997
920.819
842.872
767.832
698.001
635.888
583.95
544.066
516.87
501.341
495.081
495.17
498.997
504.654
510.882
516.938
522.412
527.084
530.835
533.602
535.351
536.061
535.723
534.332
531.887
528.393
523.857
518.286
511.681
504.059
505.734
516.426
525.59
533.213
539.297
543.855
546.917
548.539
548.806
547.848
545.847
543.049
539.768
536.382
533.307
530.95
529.639
529.539
530.583
532.455
534.618
536.404
537.113
536.107
532.86
526.989
518.241
506.474
491.637
473.74
452.838
429.01
402.357
372.989
355.054
374.984
420.937
467.992
516.052
565.026
614.828
665.375
716.583
768.371
820.652
873.337
926.329
979.523
1032.8
1086.04
1139.09
1191.78
1243.92
1295.28
1345.56
1394.43
1441.33
1485.61
1527.2
1564.81
9067.32
10637.7
1541.19
1483.61
1420.39
1352.52
1280.82
1206.12
1129.19
1050.86
972.069
893.715
816.768
742.975
674.639
614.238
564.153
526.139
500.672
486.594
481.456
482.379
486.839
493.017
499.718
506.242
512.205
517.398
521.709
525.077
527.467
528.861
529.246
528.615
526.966
524.301
520.626
515.945
510.259
503.581
505.01
514.265
522.012
528.242
532.96
536.182
537.942
538.296
537.334
535.185
532.031
528.115
523.747
519.298
515.176
511.78
509.427
508.275
508.254
509.046
510.117
510.805
510.416
508.318
503.994
497.065
487.283
474.511
458.7
439.863
418.055
393.357
365.868
335.697
316.162
334.713
380.444
427.384
475.434
524.503
574.5
625.337
676.927
729.183
782.012
835.318
888.995
942.931
997.002
1051.07
1104.97
1158.54
1211.56
1263.78
1314.93
1364.65
1412.36
1457.42
1499.73
1538
10682.3
9124.54
1509.5
1452.17
1389.25
1321.73
1250.47
1176.28
1099.96
1022.36
944.421
867.032
791.195
718.713
651.881
593.146
544.822
508.552
484.677
471.933
467.836
469.552
474.637
481.346
488.541
495.558
502.032
507.766
512.652
516.632
519.672
521.752
522.858
522.983
522.123
520.278
517.451
513.647
508.864
503.113
504.289
512.114
518.449
523.289
526.642
528.529
528.985
528.071
525.876
522.531
518.218
513.176
507.713
502.192
497.014
492.568
489.162
486.946
485.844
485.538
485.496
485.06
483.545
480.323
474.887
466.863
456.008
442.193
425.371
405.557
382.81
357.212
328.862
297.869
277.07
294.572
340.018
386.771
434.733
483.806
533.901
584.924
636.785
689.391
742.644
796.442
850.673
905.217
959.942
1014.7
1069.33
1123.64
1177.41
1230.41
1282.32
1332.8
1381.24
1427
1470
1508.94
12029.1
7877.56
1476.75
1419.83
1357.4
1290.42
1219.78
1146.28
1070.74
994.023
917.07
840.755
766.11
694.975
629.639
572.516
525.859
491.213
468.806
457.288
454.162
456.638
462.343
469.597
477.308
484.842
491.85
498.146
503.625
508.231
511.931
514.703
516.534
517.415
517.341
516.311
514.325
511.386
507.492
502.652
503.572
509.97
514.896
518.348
520.338
520.889
520.041
517.855
514.423
509.878
504.398
498.224
491.658
485.057
478.814
473.309
468.84
465.549
463.355
461.937
460.765
459.186
456.521
452.151
445.575
436.427
424.473
409.586
391.725
370.911
347.202
320.685
291.46
259.636
237.805
254.474
299.577
346.08
393.882
442.884
492.992
544.112
596.15
649.006
702.58
756.763
811.439
866.481
921.75
977.093
1032.34
1087.29
1141.74
1195.41
1248.01
1299.17
1348.29
1394.73
1438.41
1478.03
13126.4
6882.15
1443.27
1386.88
1325.05
1258.77
1188.88
1116.22
1041.6
965.885
890.018
814.859
741.462
671.695
607.837
552.273
507.194
474.062
453.007
442.617
440.392
443.599
449.922
457.735
465.983
474.058
481.625
488.505
494.596
499.844
504.216
507.691
510.253
511.894
512.606
512.388
511.238
509.156
506.141
502.199
502.856
507.833
511.352
513.418
514.044
513.259
511.103
507.642
502.97
497.218
490.567
483.254
475.577
467.888
460.573
454.002
448.462
444.088
440.792
438.25
435.935
433.197
429.365
423.827
416.091
405.8
392.724
376.746
357.829
335.997
311.314
283.868
253.761
221.103
198.39
214.359
259.07
305.266
352.845
401.709
451.759
502.9
555.032
608.055
661.863
716.343
771.373
826.823
882.547
938.389
994.171
1049.69
1104.73
1159.01
1212.24
1264.04
1313.8
1360.9
1405.26
1445.58
14002.7
6097.34
1409.25
1353.49
1292.38
1226.9
1157.89
1086.18
1012.58
937.959
863.254
789.31
717.2
648.809
586.405
532.343
488.766
457.058
437.268
427.914
426.498
430.408
437.352
445.74
454.547
463.186
471.336
478.82
485.543
491.449
496.507
500.695
503.997
506.403
507.905
508.498
508.18
506.951
504.807
501.752
502.142
505.699
507.814
508.494
507.757
505.633
502.168
497.428
491.51
484.547
476.718
468.26
459.466
450.685
442.291
434.646
428.03
422.566
418.16
414.486
411.017
407.108
402.095
395.375
386.465
375.014
360.804
343.72
323.735
300.877
275.213
246.835
215.846
182.357
158.854
174.192
218.465
264.305
311.608
360.274
410.204
461.299
513.457
566.575
620.543
675.245
730.555
786.338
842.446
898.714
954.962
1010.99
1066.55
1121.4
1175.21
1227.61
1278
1325.75
1370.78
1411.82
14693.6
5496.82
1374.85
1319.79
1259.49
1194.91
1126.87
1056.21
983.712
910.251
836.764
764.079
693.279
626.258
565.27
512.644
470.479
440.107
421.533
413.201
412.517
417.096
424.651
433.618
442.998
452.22
460.969
469.077
476.448
483.029
488.787
493.7
497.751
500.928
503.224
504.63
505.145
504.765
503.486
501.31
501.429
503.569
504.28
503.574
501.472
498.008
493.231
487.209
480.041
471.862
462.851
453.241
443.325
433.444
423.967
415.244
407.546
400.986
395.464
390.651
386.02
380.931
374.727
366.815
356.719
344.099
328.744
310.548
289.488
265.599
238.953
209.643
177.777
143.467
119.222
133.956
177.751
223.189
270.168
318.586
368.341
419.332
471.457
524.608
578.673
633.532
689.058
745.109
801.536
858.17
914.826
971.297
1027.35
1082.71
1137.07
1190.04
1241.04
1289.44
1335.16
1376.93
15207.6
5069.64
1340.16
1285.88
1226.47
1162.86
1095.88
1026.33
955.005
882.766
810.543
739.151
669.675
604.013
544.402
493.139
452.287
423.133
405.68
398.368
398.427
403.662
411.818
421.366
431.327
441.144
450.51
459.258
467.294
474.565
481.037
486.687
491.498
495.456
498.551
500.776
502.124
502.592
502.174
500.871
500.717
501.441
500.748
498.655
495.188
490.381
484.289
476.981
468.56
459.159
448.96
438.195
427.152
416.167
405.6
395.796
387.011
379.351
372.709
366.75
360.951
354.676
347.274
338.161
326.872
313.076
296.57
277.257
255.121
230.202
202.575
172.34
139.605
104.485
100
100
136.929
181.927
228.539
276.662
326.194
377.031
429.068
482.197
536.302
591.262
646.944
703.208
759.898
816.844
873.858
930.73
987.221
1043.06
1097.93
1151.47
1203.06
1252.09
1298.5
1341.03
15531.5
4801.01
1305.23
1251.79
1193.35
1130.79
1064.93
996.564
926.472
855.504
784.582
714.511
646.373
582.057
523.782
473.815
434.18
406.128
389.663
383.29
384.164
390.058
398.814
408.947
419.502
429.93
439.931
449.337
458.057
466.036
473.238
479.64
485.223
489.972
493.875
496.923
499.109
500.425
500.868
500.435
500.006
499.313
497.217
493.736
488.9
482.749
475.338
466.741
457.061
446.435
435.044
423.118
410.943
398.849
387.19
376.299
366.425
357.661
349.895
342.788
335.816
328.348
319.742
309.423
296.936
281.959
264.3
243.87
220.658
194.711
166.11
134.958
101.365
100
100
100
100
140.535
186.741
234.528
283.792
334.428
386.329
439.385
493.479
548.486
604.273
660.697
717.599
774.808
832.133
889.362
946.255
1002.54
1057.9
1111.96
1164.13
1213.79
1260.91
1304.26
15945.7
4562.7
1270.01
1217.53
1160.14
1098.72
1034.05
966.918
898.106
828.448
758.861
690.135
623.346
560.368
503.396
454.669
416.179
389.142
373.524
367.892
369.597
376.171
385.551
396.295
407.469
418.535
429.195
439.284
448.71
457.417
465.368
472.538
478.908
484.461
489.183
493.062
496.091
498.261
499.565
500
500.006
499.313
497.217
493.736
488.9
482.749
475.337
466.741
457.061
446.435
435.043
423.117
410.942
398.848
387.19
376.298
366.424
357.66
349.894
342.787
335.815
328.347
319.741
309.422
296.934
281.958
264.299
243.868
220.656
194.709
166.109
134.956
101.363
100
100
100
100
140.533
186.74
234.527
283.791
334.427
386.328
439.384
493.478
548.485
604.273
660.696
717.598
774.807
832.133
889.361
946.255
1002.54
1057.9
1111.96
1164.13
1213.79
1260.91
1304.26
15945.6
4562.72
1270.01
1217.53
1160.14
1098.72
1034.05
966.918
898.105
828.448
758.861
690.135
623.346
560.367
503.395
454.669
416.178
389.141
373.524
367.891
369.596
376.171
385.55
396.295
407.469
418.535
429.195
439.284
448.71
457.416
465.368
472.538
478.908
484.461
489.183
493.062
496.091
498.261
499.565
500
500.717
501.44
500.748
498.655
495.187
490.381
484.288
476.981
468.559
459.158
448.959
438.194
427.151
416.165
405.599
395.794
387.009
379.349
372.707
366.748
360.949
354.674
347.271
338.158
326.869
313.073
296.567
277.254
255.118
230.198
202.572
172.336
139.601
104.482
100
100
136.926
181.925
228.537
276.66
326.192
377.029
429.067
482.196
536.301
591.26
646.943
703.207
759.897
816.843
873.858
930.729
987.221
1043.06
1097.93
1151.47
1203.06
1252.09
1298.5
1341.03
15531.5
4801.09
1305.23
1251.79
1193.35
1130.79
1064.93
996.563
926.472
855.503
784.582
714.51
646.372
582.057
523.782
473.814
434.179
406.127
389.662
383.288
384.163
390.056
398.812
408.946
419.501
429.929
439.93
449.336
458.057
466.035
473.238
479.64
485.223
489.972
493.875
496.923
499.108
500.425
500.868
500.435
501.429
503.569
504.28
503.573
501.472
498.008
493.23
487.209
480.041
471.861
462.849
453.24
443.324
433.443
423.965
415.243
407.544
400.984
395.462
390.649
386.018
380.929
374.725
366.812
356.716
344.096
328.74
310.544
289.485
265.596
238.949
209.639
177.773
143.463
119.219
133.954
177.748
223.187
270.166
318.584
368.339
419.331
471.456
524.607
578.672
633.532
689.057
745.109
801.536
858.17
914.826
971.297
1027.35
1082.71
1137.07
1190.04
1241.04
1289.43
1335.16
1376.93
15207.5
5069.77
1340.16
1285.87
1226.47
1162.86
1095.88
1026.33
955.005
882.766
810.543
739.151
669.676
604.013
544.402
493.138
452.287
423.132
405.679
398.366
398.426
403.66
411.817
421.365
431.326
441.143
450.509
459.257
467.293
474.564
481.037
486.687
491.498
495.456
498.551
500.775
502.124
502.592
502.174
500.871
502.142
505.699
507.814
508.493
507.756
505.632
502.167
497.428
491.509
484.546
476.717
468.259
459.465
450.683
442.289
434.645
428.028
422.564
418.158
414.484
411.014
407.106
402.092
395.372
386.462
375.011
360.8
343.717
323.731
300.873
275.209
246.83
215.841
182.353
158.851
174.19
218.463
264.303
311.606
360.273
410.203
461.298
513.457
566.575
620.543
675.244
730.555
786.338
842.446
898.715
954.963
1010.99
1066.55
1121.4
1175.21
1227.61
1278
1325.75
1370.78
1411.82
14693.4
5497.02
1374.85
1319.79
1259.49
1194.91
1126.87
1056.21
983.713
910.252
836.764
764.08
693.279
626.258
565.271
512.644
470.479
440.106
421.532
413.199
412.515
417.094
424.649
433.617
442.997
452.218
460.968
469.076
476.447
483.028
488.786
493.699
497.75
500.928
503.223
504.63
505.145
504.765
503.486
501.31
502.856
507.833
511.352
513.417
514.044
513.258
511.103
507.642
502.969
497.217
490.565
483.252
475.575
467.887
460.572
454
448.461
444.086
440.79
438.248
435.933
433.195
429.362
423.824
416.088
405.796
392.721
376.742
357.825
335.993
311.31
283.864
253.757
221.098
198.387
214.358
259.069
305.265
352.845
401.708
451.759
502.899
555.032
608.056
661.864
716.343
771.374
826.823
882.548
938.389
994.172
1049.69
1104.73
1159.01
1212.24
1264.04
1313.8
1360.9
1405.26
1445.58
14002.5
6097.64
1409.25
1353.49
1292.38
1226.9
1157.89
1086.18
1012.59
937.96
863.255
789.312
717.202
648.81
586.406
532.343
488.766
457.058
437.267
427.913
426.497
430.407
437.35
445.738
454.545
463.185
471.335
478.819
485.542
491.449
496.507
500.694
503.997
506.403
507.904
508.497
508.18
506.951
504.807
501.752
503.572
509.97
514.896
518.348
520.338
520.889
520.04
517.854
514.422
509.877
504.397
498.223
491.657
485.056
478.813
473.307
468.839
465.547
463.353
461.935
460.763
459.184
456.518
452.148
445.572
436.424
424.469
409.582
391.721
370.906
347.198
320.681
291.455
259.631
237.802
254.473
299.577
346.08
393.881
442.884
492.992
544.113
596.15
649.007
702.581
756.764
811.44
866.482
921.752
977.094
1032.34
1087.29
1141.74
1195.41
1248.01
1299.17
1348.29
1394.73
1438.41
1478.03
13126.1
6882.45
1443.27
1386.88
1325.05
1258.77
1188.88
1116.22
1041.6
965.886
890.019
814.861
741.464
671.697
607.839
552.274
507.195
474.062
453.007
442.616
440.39
443.597
449.92
457.733
465.981
474.057
481.624
488.503
494.595
499.844
504.216
507.69
510.253
511.894
512.606
512.387
511.238
509.156
506.141
502.199
504.289
512.114
518.449
523.288
526.642
528.528
528.985
528.07
525.875
522.53
518.217
513.175
507.712
502.191
497.013
492.566
489.16
486.944
485.842
485.536
485.494
485.058
483.542
480.32
474.884
466.859
456.005
442.189
425.366
405.553
382.805
357.207
328.857
297.864
277.068
294.572
340.018
386.771
434.733
483.807
533.901
584.925
636.787
689.393
742.646
796.444
850.675
905.219
959.944
1014.7
1069.33
1123.64
1177.41
1230.41
1282.33
1332.8
1381.24
1427
1470
1508.94
12028.8
7877.76
1476.75
1419.83
1357.4
1290.42
1219.78
1146.28
1070.74
994.024
917.071
840.758
766.113
694.978
629.641
572.518
525.861
491.214
468.805
457.287
454.161
456.637
462.342
469.596
477.306
484.84
491.849
498.145
503.624
508.231
511.93
514.702
516.534
517.415
517.341
516.31
514.325
511.386
507.492
502.652
505.01
514.265
522.012
528.242
532.96
536.181
537.941
538.295
537.333
535.184
532.03
528.114
523.746
519.296
515.175
511.778
509.425
508.273
508.252
509.044
510.115
510.802
510.413
508.315
503.991
497.062
487.279
474.507
458.696
439.859
418.05
393.352
365.863
335.692
316.159
334.713
380.444
427.384
475.435
524.504
574.501
625.338
676.929
729.185
782.015
835.32
888.998
942.934
997.005
1051.07
1104.98
1158.54
1211.56
1263.79
1314.94
1364.66
1412.37
1457.42
1499.73
1538.01
10682.2
9124.91
1509.49
1452.16
1389.25
1321.73
1250.47
1176.28
1099.96
1022.36
944.423
867.035
791.199
718.717
651.885
593.149
544.824
508.553
484.677
471.932
467.834
469.55
474.636
481.345
488.54
495.557
502.031
507.765
512.651
516.631
519.672
521.751
522.857
522.982
522.122
520.277
517.451
513.647
508.864
503.113
505.734
516.426
525.59
533.213
539.297
543.855
546.917
548.538
548.805
547.847
545.846
543.048
539.767
536.381
533.306
530.949
529.638
529.537
530.582
532.453
534.616
536.402
537.111
536.104
532.857
526.986
518.237
506.47
491.633
473.736
452.833
429.005
402.352
372.983
355.052
374.985
420.938
467.993
516.053
565.028
614.83
665.377
716.586
768.374
820.655
873.34
926.332
979.527
1032.81
1086.05
1139.1
1191.79
1243.93
1295.28
1345.57
1394.43
1441.34
1485.62
1527.21
1564.82
9068.31
10637.8
1541.18
1483.6
1420.39
1352.51
1280.82
1206.12
1129.19
1050.86
972.072
893.719
816.773
742.98
674.644
614.241
564.156
526.141
500.673
486.594
481.455
482.377
486.838
493.015
499.716
506.241
512.204
517.397
521.708
525.076
527.467
528.861
529.245
528.614
526.965
524.3
520.625
515.945
510.259
503.581
506.461
518.597
529.184
538.205
545.659
551.555
555.921
558.809
560.303
560.532
559.679
557.992
555.791
553.458
551.418
550.089
549.807
550.743
552.835
555.765
558.994
561.846
563.617
563.659
561.445
556.583
548.817
538.003
524.088
507.081
487.035
464.034
438.177
409.577
393.724
415.514
461.62
508.71
556.688
605.467
654.962
705.096
755.792
806.971
858.557
910.467
962.614
1014.9
1067.23
1119.47
1171.51
1223.16
1274.27
1324.6
1373.88
1421.79
1467.77
1511.18
1551.95
1588.83
7164.2
12446
1571.33
1513.71
1450.45
1382.48
1310.62
1235.65
1158.33
1079.48
1000
920.825
842.877
767.838
698.007
635.894
583.954
544.069
516.871
501.341
495.08
495.168
498.996
504.653
510.881
516.937
522.411
527.083
530.834
533.601
535.35
536.061
535.723
534.332
531.887
528.393
523.857
518.285
511.681
504.059
507.193
520.78
532.797
543.224
552.055
559.295
564.969
569.125
571.847
573.263
573.556
572.975
571.846
570.557
569.542
569.228
569.96
571.914
575.031
578.992
583.252
587.132
589.917
590.956
589.715
585.799
578.948
569.019
555.957
539.771
520.516
498.278
473.16
445.277
432.159
456.477
502.66
549.696
597.491
645.959
695.019
744.599
794.626
845.032
895.745
946.695
997.803
1048.99
1100.15
1151.2
1202.01
1252.43
1302.31
1351.43
1399.54
1446.32
1491.25
1533.65
1573.46
1609.43
4984.97
14516
1599.2
1541.9
1478.95
1411.23
1339.54
1264.62
1187.21
1108.1
1028.18
948.36
869.556
793.368
722.077
658.223
604.344
562.458
533.388
516.28
508.807
508.016
511.198
516.343
522.117
527.725
532.729
536.894
540.094
542.265
543.371
543.394
542.326
540.163
536.909
532.569
527.155
520.676
513.134
504.548
507.93
522.977
536.433
548.274
558.49
567.083
574.072
579.504
583.46
586.064
587.502
588.025
587.962
587.709
587.709
588.397
590.126
593.078
597.196
602.156
607.41
612.267
616.01
617.979
617.636
614.585
608.564
599.429
587.127
571.669
553.116
531.554
507.092
479.852
470.352
498.111
544.292
591.178
638.676
686.704
735.183
784.046
833.227
882.664
932.297
982.064
1031.9
1081.73
1131.49
1181.08
1230.41
1279.35
1327.75
1375.44
1422.18
1467.66
1511.39
1552.68
1591.4
1626.21
2559.96
16612
1623.61
1567.27
1505.18
1438.21
1367.14
1292.69
1215.58
1136.56
1056.49
976.297
896.845
819.65
746.974
681.381
625.487
581.472
550.372
531.537
522.742
521.01
523.526
528.165
533.502
538.682
543.232
546.901
549.556
551.128
551.583
550.906
549.09
546.137
542.052
536.845
530.53
523.119
514.618
505.047
508.67
525.188
540.095
553.365
564.982
574.945
583.268
589.994
595.199
599.006
601.6
603.233
604.237
605.017
606.021
607.695
610.399
614.321
619.403
625.318
631.508
637.278
641.901
644.712
645.171
642.878
637.574
629.116
617.454
602.604
584.631
563.629
539.714
513.012
508.304
540.735
586.831
633.464
680.543
727.986
775.722
823.684
871.814
920.059
968.366
1016.69
1064.97
1113.16
1161.19
1209.01
1256.52
1303.64
1350.24
1396.17
1441.23
1485.16
1527.51
1567.56
1605.29
1639.36
1668.36
17584.3
1642.94
1588.56
1528.11
1462.54
1392.68
1319.26
1242.96
1164.5
1084.72
1004.51
924.716
846.752
772.828
705.536
647.586
601.331
568.055
547.351
537.13
534.398
536.229
540.361
545.268
550.025
554.12
557.282
559.371
560.319
560.093
558.681
556.082
552.301
547.348
541.239
533.992
525.621
516.135
505.556
509.414
527.407
543.777
558.49
571.527
582.88
592.559
600.6
607.073
612.1
615.862
618.612
620.687
622.497
624.501
627.152
630.817
635.689
641.706
648.534
655.608
662.22
667.635
671.185
672.324
670.657
665.927
657.994
646.816
632.415
614.865
594.268
570.748
544.444
546.036
584.736
630.665
676.94
723.471
770.176
816.989
863.849
910.703
957.502
1004.21
1050.78
1097.18
1143.37
1189.3
1234.94
1280.23
1325.08
1369.43
1413.14
1456.05
1497.95
1538.54
1577.04
1613.64
1647.24
1676.81
18015.7
1656.95
1605.2
1547.01
1483.47
1415.44
1343.66
1268.79
1191.51
1112.57
1032.84
953.145
874.756
799.818
730.942
670.928
622.321
586.686
563.914
552.102
548.264
549.358
552.973
557.458
561.802
565.447
568.099
569.609
569.906
568.963
566.773
563.343
558.685
552.818
545.761
537.541
528.178
517.681
506.075
510.16
529.641
547.495
563.685
578.185
590.981
602.075
611.493
619.3
625.609
630.594
634.509
637.688
640.545
643.545
647.151
651.738
657.499
664.374
672.022
679.867
687.193
693.257
697.387
699.039
697.817
693.47
685.868
674.975
660.825
643.499
623.112
599.801
575.282
585.2
630.639
676.316
722.123
767.969
813.776
859.477
905.017
950.35
995.434
1040.24
1084.73
1128.89
1172.69
1216.11
1259.13
1301.72
1343.83
1385.41
1426.39
1466.65
1506.03
1544.3
1580.91
1615.64
1648.24
1677.53
16761.6
1663.53
1615.42
1560.23
1499.44
1434.02
1364.69
1292.07
1216.74
1139.4
1060.84
981.843
903.544
827.982
757.772
695.809
644.85
606.785
581.851
568.376
563.397
563.743
566.827
570.86
574.738
577.857
579.903
580.725
580.258
578.483
575.402
571.034
565.4
558.528
550.449
541.195
530.791
519.25
506.598
510.898
531.854
551.192
568.871
584.86
599.132
611.678
622.513
631.687
639.306
645.538
650.632
654.926
658.84
662.848
667.418
672.931
679.582
687.302
695.738
704.297
712.252
718.848
723.411
725.398
724.42
720.236
712.727
701.873
687.72
670.368
649.944
626.601
612.657
633.559
678.905
724.249
769.48
814.507
859.254
903.656
947.661
991.227
1034.33
1076.93
1119.02
1160.58
1201.6
1242.08
1282.02
1321.41
1360.24
1398.49
1436.13
1473.11
1509.34
1544.64
1578.57
1611
1641.76
1669.84
13889.2
4402.18
1619.52
1566.77
1509.06
1446.98
1381.03
1311.66
1239.34
1164.61
1088.16
1010.73
933.258
857.642
786.461
722.693
669.319
628.601
601.205
585.773
579.429
578.889
581.378
584.941
588.357
590.954
592.389
592.499
591.222
588.548
584.497
579.102
572.403
564.443
555.265
544.916
533.428
520.821
507.121
511.635
534.093
554.98
574.249
591.861
607.778
621.973
634.44
645.212
654.37
662.063
668.525
674.079
679.138
684.178
689.673
696.012
703.395
711.751
720.721
729.702
737.96
744.742
749.38
751.341
750.251
745.881
738.13
726.99
712.526
694.85
674.109
650.469
650.056
685.096
730.265
775.163
819.682
863.732
907.238
950.141
992.392
1033.96
1074.81
1114.93
1154.31
1192.94
1230.84
1267.99
1304.42
1340.14
1375.16
1409.5
1443.16
1476.14
1508.4
1539.88
1570.25
1599.39
1627.31
1653.21
10606.8
7743.87
1615.69
1565.86
1511.75
1453.67
1391.88
1326.64
1258.25
1187.12
1113.78
1038.91
963.258
888.486
817.104
752.133
696.766
653.654
623.948
606.673
599.064
597.701
599.587
602.569
605.305
607.079
607.545
606.562
604.096
600.164
594.809
588.09
580.065
570.797
560.346
548.769
536.109
522.39
507.634
512.325
536.165
558.502
579.3
598.502
616.047
631.88
645.964
658.303
668.957
678.063
685.852
692.66
698.906
705.039
711.516
718.719
726.847
735.829
745.297
754.648
763.144