/*--------------------------------*- C++ -*----------------------------------*\
  =========                 |
  \\      /  F ield         | OpenFOAM: The Open Source CFD Toolbox
   \\    /   O peration     | Website:  https://openfoam.org
    \\  /    A nd           | Version:  8
     \\/     M anipulation  |
\*---------------------------------------------------------------------------*/
FoamFile
{
    version     2.0;
    format      ascii;
    class       volScalarField;
    location    "860/fluid";
    object      rho;
}
// * * * * * * * * * * * * * * * * * * * * * * * * * * * * * * * * * * * * * //

dimensions      [1 -3 0 0 0 0 0];

internalField   nonuniform List<scalar> 
4000
(
0.658526
0.658499
0.658454
0.658379
0.658254
0.658046
0.657704
0.657146
0.656245
0.65481
0.652562
0.649112
0.643946
0.636443
0.625937
0.611849
0.593863
0.572103
0.547199
0.520193
0.492313
0.464711
0.438284
0.413604
0.39095
0.370379
0.351807
0.335076
0.319993
0.306366
0.294013
0.282772
0.272504
0.263094
0.254443
0.246454
0.239023
0.232088
0.2256
0.219514
0.213794
0.208409
0.203331
0.198539
0.194013
0.189737
0.185698
0.181886
0.17829
0.174905
0.171726
0.168751
0.165979
0.163414
0.161062
0.158937
0.157056
0.155469
0.154203
0.153265
0.152772
0.152839
0.154247
0.163131
0.173631
0.185964
0.200427
0.217411
0.237433
0.261163
0.289472
0.323483
0.364637
0.414887
0.476604
0.551956
0.642086
0.745385
0.8553
0.959913
1.0462
1.10713
1.14447
1.16476
1.17494
1.17979
1.18203
1.18304
1.18348
1.18368
1.18376
1.1838
1.18381
1.18382
1.18382
1.18382
1.18382
1.18382
1.18382
1.18382
0.658526
0.658499
0.658454
0.658379
0.658253
0.658045
0.657701
0.65714
0.656235
0.654798
0.652551
0.649113
0.643981
0.636549
0.626172
0.612282
0.594563
0.573113
0.548518
0.521771
0.494066
0.466542
0.440103
0.415344
0.392566
0.371849
0.353125
0.336245
0.321023
0.307269
0.294802
0.283459
0.273101
0.26361
0.254888
0.246837
0.239351
0.232368
0.225836
0.219711
0.213956
0.208539
0.203433
0.198615
0.194066
0.189769
0.185712
0.181883
0.178272
0.174874
0.171684
0.168698
0.165917
0.163344
0.160987
0.158856
0.156971
0.155381
0.154114
0.153176
0.152684
0.152758
0.15492
0.163968
0.174664
0.187238
0.202004
0.219376
0.239898
0.264278
0.293439
0.32857
0.371198
0.4234
0.487584
0.56581
0.65881
0.764092
0.873902
0.975681
1.05729
1.11361
1.14768
1.1662
1.17553
1.18002
1.18212
1.18307
1.1835
1.18368
1.18376
1.1838
1.18381
1.18382
1.18382
1.18382
1.18382
1.18382
1.18382
1.18382
0.658526
0.658499
0.658454
0.658378
0.658252
0.658043
0.657698
0.657135
0.656229
0.65479
0.652545
0.649116
0.64401
0.636634
0.626353
0.612611
0.595094
0.573888
0.54955
0.523042
0.495525
0.46812
0.441731
0.416958
0.394121
0.373314
0.354482
0.337486
0.322149
0.308283
0.295709
0.284268
0.273819
0.264243
0.255443
0.247322
0.239773
0.232732
0.226146
0.219972
0.214171
0.208712
0.203568
0.198714
0.194132
0.189806
0.185721
0.181866
0.178234
0.174815
0.171607
0.168605
0.165811
0.163227
0.160859
0.158721
0.15683
0.155239
0.153972
0.153038
0.152556
0.152646
0.156132
0.165403
0.176386
0.18932
0.204537
0.222476
0.243711
0.268993
0.299293
0.335859
0.380292
0.434744
0.501545
0.582478
0.677683
0.78373
0.892002
0.989989
1.06687
1.11912
1.15047
1.16751
1.17611
1.18027
1.18222
1.18311
1.18351
1.18369
1.18376
1.1838
1.18381
1.18382
1.18382
1.18382
1.18382
1.18382
1.18382
1.18382
0.658526
0.658499
0.658454
0.658379
0.658253
0.658044
0.6577
0.657139
0.656238
0.654809
0.652583
0.649187
0.644136
0.636844
0.626685
0.613106
0.595788
0.574799
0.550673
0.524344
0.496953
0.469615
0.443236
0.418429
0.395525
0.374631
0.355702
0.338606
0.323169
0.309208
0.296544
0.285018
0.274488
0.264838
0.255967
0.247783
0.240176
0.233079
0.226442
0.22022
0.214374
0.208873
0.203688
0.198798
0.194181
0.189822
0.185708
0.181828
0.17817
0.17473
0.171503
0.168484
0.165675
0.163079
0.160703
0.158558
0.156664
0.155077
0.153818
0.152895
0.152428
0.152543
0.157663
0.167183
0.178488
0.191831
0.207559
0.226133
0.248159
0.274425
0.305947
0.344023
0.390332
0.447078
0.516483
0.600043
0.697311
0.803959
0.910579
1.00476
1.07693
1.12507
1.15362
1.16904
1.17682
1.18059
1.18236
1.18317
1.18354
1.1837
1.18377
1.1838
1.18381
1.18382
1.18382
1.18382
1.18382
1.18382
1.18382
1.18382
0.658526
0.658499
0.658454
0.658379
0.658254
0.658046
0.657704
0.657147
0.656252
0.654834
0.652626
0.649261
0.644258
0.63704
0.626987
0.613548
0.596398
0.575594
0.551646
0.525467
0.498183
0.4709
0.444528
0.41969
0.396728
0.375758
0.356746
0.339564
0.324043
0.31
0.297259
0.28566
0.275062
0.265348
0.256416
0.248176
0.240518
0.233373
0.22669
0.220424
0.214537
0.208997
0.203776
0.198851
0.194202
0.189813
0.185672
0.181765
0.178086
0.174625
0.17138
0.168346
0.165526
0.162921
0.160538
0.158391
0.156501
0.154928
0.15368
0.152772
0.152334
0.152505
0.159301
0.169069
0.180707
0.194475
0.210732
0.229962
0.252795
0.280056
0.312802
0.352378
0.400543
0.459522
0.531395
0.617346
0.716316
0.82312
0.927724
1.01803
1.08578
1.13024
1.15633
1.17037
1.17744
1.18087
1.18248
1.18323
1.18356
1.18371
1.18377
1.1838
1.18381
1.18382
1.18382
1.18382
1.18382
1.18382
1.18382
1.18382
0.658526
0.658499
0.658455
0.65838
0.658256
0.658049
0.65771
0.657158
0.656271
0.654865
0.652679
0.649348
0.644398
0.637255
0.627304
0.613994
0.596994
0.576346
0.552544
0.526482
0.499273
0.472022
0.445644
0.420768
0.397748
0.376709
0.357622
0.340364
0.324769
0.310656
0.297848
0.286187
0.275531
0.265762
0.256779
0.248492
0.240789
0.233602
0.226879
0.220576
0.214653
0.209079
0.203825
0.19887
0.194193
0.189778
0.185612
0.181684
0.177984
0.174507
0.171247
0.168203
0.165375
0.162766
0.160384
0.158243
0.15636
0.154802
0.153569
0.152683
0.152273
0.152479
0.160734
0.170787
0.182792
0.197009
0.213809
0.233695
0.257326
0.285558
0.319491
0.360511
0.41046
0.471557
0.545738
0.63387
0.73429
0.841029
0.943554
1.03018
1.09386
1.13498
1.15886
1.17162
1.17803
1.18114
1.1826
1.18328
1.18358
1.18372
1.18378
1.1838
1.18381
1.18382
1.18382
1.18382
1.18382
1.18382
1.18382
1.18382
0.658526
0.6585
0.658456
0.658381
0.658258
0.658053
0.657717
0.657169
0.65629
0.654898
0.652732
0.649433
0.64453
0.637455
0.627594
0.614398
0.597528
0.577013
0.553334
0.527366
0.500216
0.472986
0.446595
0.421681
0.398606
0.377503
0.358348
0.341024
0.325364
0.311189
0.298325
0.28661
0.275905
0.266089
0.257062
0.248734
0.240993
0.233771
0.227015
0.220679
0.214726
0.209122
0.203841
0.19886
0.194159
0.189722
0.185536
0.181589
0.177874
0.174383
0.171114
0.168063
0.165232
0.162625
0.160251
0.158124
0.156263
0.154748
0.153522
0.152693
0.152345
0.152613
0.161501
0.172077
0.184572
0.199297
0.216661
0.237197
0.261599
0.290761
0.32582
0.368211
0.419847
0.482926
0.559237
0.64932
0.750927
0.857369
0.957747
1.04087
1.10087
1.13906
1.16102
1.17269
1.17854
1.18137
1.18271
1.18332
1.1836
1.18373
1.18378
1.1838
1.18381
1.18382
1.18382
1.18382
1.18382
1.18382
1.18382
1.18382
0.658526
0.6585
0.658456
0.658383
0.65826
0.658057
0.657723
0.657181
0.656309
0.654929
0.652783
0.649514
0.644655
0.637641
0.627862
0.614765
0.598006
0.577605
0.554026
0.528134
0.501027
0.473808
0.447399
0.422447
0.399321
0.37816
0.358945
0.341561
0.325845
0.311618
0.298704
0.286944
0.276196
0.26634
0.257276
0.248913
0.241141
0.233889
0.227104
0.220741
0.214761
0.209134
0.20383
0.198828
0.194107
0.189651
0.185448
0.181487
0.177759
0.174259
0.170982
0.167928
0.165097
0.162495
0.160133
0.158025
0.156205
0.154741
0.153592
0.152887
0.152737
0.153333
0.16253
0.17345
0.186328
0.201486
0.219351
0.240479
0.265591
0.295611
0.331714
0.375381
0.428586
0.49349
0.571733
0.663541
0.766104
0.872095
0.970359
1.05026
1.10697
1.14259
1.1629
1.17362
1.17899
1.18158
1.1828
1.18337
1.18362
1.18373
1.18378
1.18381
1.18381
1.18382
1.18382
1.18382
1.18382
1.18382
1.18382
1.18382
0.658526
0.6585
0.658457
0.658384
0.658262
0.658061
0.65773
0.657191
0.656327
0.654958
0.65283
0.649588
0.644768
0.637808
0.628099
0.615088
0.598425
0.578119
0.554623
0.528792
0.501718
0.474503
0.448075
0.423086
0.399912
0.378699
0.359431
0.341995
0.32623
0.311957
0.299002
0.287202
0.276418
0.266529
0.257433
0.249042
0.241243
0.233965
0.227156
0.22077
0.21477
0.209122
0.2038
0.19878
0.194042
0.189572
0.185356
0.181383
0.177646
0.174138
0.170856
0.1678
0.16497
0.162374
0.160022
0.157932
0.156142
0.154713
0.153616
0.152988
0.152957
0.154158
0.163621
0.174828
0.188031
0.203564
0.221871
0.243528
0.26928
0.30008
0.337135
0.381973
0.436619
0.503189
0.583173
0.676484
0.779793
0.885215
0.981435
1.05839
1.11219
1.1456
1.16449
1.17441
1.17936
1.18176
1.18288
1.1834
1.18364
1.18374
1.18379
1.18381
1.18382
1.18382
1.18382
1.18382
1.18382
1.18382
1.18382
1.18382
0.658526
0.6585
0.658457
0.658385
0.658264
0.658064
0.657735
0.657201
0.656343
0.654985
0.652872
0.649654
0.644868
0.637955
0.628308
0.61537
0.598788
0.578562
0.555134
0.529351
0.502301
0.475086
0.448637
0.423614
0.400398
0.379139
0.359824
0.342344
0.326536
0.312224
0.299233
0.2874
0.276586
0.266668
0.257546
0.249131
0.241309
0.234011
0.227181
0.220777
0.214759
0.209095
0.203757
0.198722
0.193972
0.18949
0.185263
0.181281
0.177536
0.174023
0.170737
0.167679
0.16485
0.162257
0.159911
0.157828
0.15605
0.154631
0.153541
0.152909
0.152849
0.155096
0.164752
0.176187
0.189658
0.205512
0.224204
0.24633
0.272653
0.304153
0.342066
0.387968
0.443917
0.51198
0.593513
0.688125
0.792005
0.896788
0.991082
1.06538
1.11664
1.14815
1.16584
1.17508
1.17969
1.18191
1.18295
1.18343
1.18365
1.18375
1.18379
1.18381
1.18382
1.18382
1.18382
1.18382
1.18382
1.18382
1.18382
1.18382
0.658526
0.658501
0.658458
0.658386
0.658266
0.658067
0.657741
0.65721
0.656357
0.655008
0.65291
0.649711
0.644955
0.638083
0.628487
0.615612
0.599097
0.578937
0.555565
0.529821
0.502788
0.47557
0.449102
0.424048
0.400794
0.379494
0.36014
0.342621
0.326777
0.312432
0.29941
0.28755
0.27671
0.266768
0.257625
0.249189
0.241349
0.234033
0.227188
0.220768
0.214736
0.209058
0.203708
0.198661
0.1939
0.189409
0.185174
0.181185
0.177435
0.173917
0.170629
0.16757
0.164742
0.16215
0.159807
0.157729
0.155957
0.154543
0.153456
0.152824
0.152759
0.156026
0.165838
0.177463
0.191163
0.207294
0.226324
0.248862
0.275692
0.307817
0.346497
0.393353
0.450471
0.51987
0.602766
0.698491
0.802796
0.906906
0.999414
1.07135
1.12041
1.1503
1.16697
1.17564
1.17995
1.18203
1.18301
1.18346
1.18366
1.18375
1.18379
1.18381
1.18382
1.18382
1.18382
1.18382
1.18382
1.18382
1.18382
1.18382
0.658526
0.658501
0.658458
0.658387
0.658267
0.65807
0.657745
0.657217
0.65637
0.655028
0.652942
0.649761
0.64503
0.638192
0.62864
0.615817
0.599359
0.579253
0.555926
0.530213
0.503192
0.47597
0.449483
0.424401
0.401114
0.37978
0.360391
0.342839
0.326966
0.312593
0.299545
0.287662
0.2768
0.266839
0.257678
0.249226
0.24137
0.23404
0.227181
0.220749
0.214705
0.209017
0.203657
0.198601
0.193832
0.189333
0.185092
0.181098
0.177344
0.173824
0.170534
0.167475
0.164648
0.162059
0.159719
0.157646
0.15588
0.15447
0.153386
0.152756
0.15269
0.156866
0.166821
0.178614
0.192516
0.208891
0.228217
0.251118
0.278394
0.311068
0.350425
0.39813
0.456289
0.526864
0.610949
0.707616
0.812229
0.915669
1.00655
1.07642
1.12359
1.1521
1.16792
1.17611
1.18018
1.18214
1.18306
1.18348
1.18367
1.18376
1.18379
1.18381
1.18382
1.18382
1.18382
1.18382
1.18382
1.18382
1.18382
1.18382
0.658526
0.658501
0.658459
0.658387
0.658269
0.658072
0.657749
0.657224
0.65638
0.655046
0.652969
0.649803
0.645093
0.638284
0.628769
0.615988
0.599577
0.579516
0.556225
0.530535
0.503524
0.476296
0.449792
0.424686
0.401371
0.380008
0.360589
0.34301
0.327111
0.312715
0.299647
0.287744
0.276865
0.266888
0.257712
0.249247
0.241379
0.234037
0.227168
0.220726
0.214673
0.208976
0.203607
0.198545
0.19377
0.189265
0.18502
0.181022
0.177266
0.173744
0.170454
0.167396
0.164571
0.161985
0.15965
0.15758
0.155819
0.154414
0.153335
0.152706
0.152638
0.157592
0.167678
0.179622
0.193701
0.210288
0.229872
0.253088
0.280753
0.313909
0.353861
0.402312
0.461383
0.532982
0.618092
0.715549
0.820378
0.923175
1.01261
1.08069
1.12624
1.1536
1.1687
1.1765
1.18037
1.18222
1.1831
1.1835
1.18368
1.18376
1.18379
1.18381
1.18382
1.18382
1.18382
1.18382
1.18382
1.18382
1.18382
1.18382
0.658526
0.658501
0.658459
0.658388
0.65827
0.658074
0.657752
0.657229
0.656389
0.65506
0.652992
0.649838
0.645146
0.63836
0.628875
0.61613
0.599756
0.579731
0.55647
0.530798
0.503793
0.476559
0.450041
0.424915
0.401576
0.380187
0.360745
0.343143
0.327224
0.312809
0.299723
0.287805
0.276912
0.266922
0.257734
0.249257
0.24138
0.234029
0.227151
0.220701
0.214641
0.208938
0.203563
0.198496
0.193716
0.189208
0.184959
0.18096
0.177202
0.17368
0.170391
0.167334
0.164512
0.16193
0.159597
0.157532
0.155777
0.154376
0.1533
0.152673
0.152602
0.158208
0.168411
0.180487
0.194719
0.21149
0.231296
0.254784
0.282785
0.316355
0.356821
0.405916
0.465772
0.538251
0.624232
0.722346
0.827321
0.929525
1.0177
1.08424
1.12844
1.15483
1.16935
1.17683
1.18052
1.1823
1.18313
1.18351
1.18368
1.18376
1.1838
1.18381
1.18382
1.18382
1.18382
1.18382
1.18382
1.18382
1.18382
1.18382
0.658526
0.658501
0.658459
0.658388
0.658271
0.658076
0.657755
0.657234
0.656397
0.655072
0.65301
0.649867
0.645189
0.638422
0.628961
0.616245
0.599901
0.579905
0.556667
0.531009
0.504008
0.476769
0.450239
0.425095
0.401737
0.380328
0.360866
0.343246
0.327309
0.312879
0.29978
0.287849
0.276945
0.266945
0.257747
0.249263
0.241377
0.234019
0.227135
0.220679
0.214613
0.208905
0.203526
0.198455
0.193672
0.189161
0.184911
0.18091
0.177152
0.173631
0.170344
0.167289
0.164469
0.16189
0.159562
0.157501
0.155752
0.154355
0.153281
0.152652
0.152578
0.158717
0.169024
0.181214
0.195579
0.212506
0.232501
0.256219
0.284503
0.318424
0.359323
0.408964
0.469483
0.542705
0.629415
0.728066
0.833137
0.934811
1.0219
1.08716
1.13024
1.15584
1.16988
1.17709
1.18065
1.18235
1.18315
1.18352
1.18369
1.18376
1.1838
1.18381
1.18382
1.18382
1.18382
1.18382
1.18382
1.18382
1.18382
1.18382
0.658526
0.658501
0.658459
0.658389
0.658271
0.658077
0.657757
0.657237
0.656403
0.655081
0.653025
0.64989
0.645223
0.638472
0.62903
0.616336
0.600016
0.580042
0.556822
0.531175
0.504177
0.476933
0.450392
0.425235
0.401861
0.380436
0.360958
0.343324
0.327374
0.312932
0.299822
0.287881
0.276968
0.266961
0.257756
0.249265
0.241374
0.23401
0.227121
0.220661
0.214591
0.208879
0.203498
0.198424
0.193639
0.189127
0.184876
0.180875
0.177118
0.173598
0.170312
0.167259
0.164443
0.161868
0.159544
0.157488
0.155743
0.154349
0.153276
0.152646
0.152566
0.159132
0.169528
0.181816
0.196291
0.213348
0.233498
0.257406
0.285923
0.320132
0.361389
0.41148
0.472545
0.546376
0.633681
0.732762
0.837895
0.939113
1.0253
1.08951
1.13168
1.15665
1.1703
1.17729
1.18075
1.1824
1.18318
1.18353
1.18369
1.18377
1.1838
1.18381
1.18382
1.18382
1.18382
1.18382
1.18382
1.18382
1.18382
1.18382
0.658526
0.658501
0.65846
0.658389
0.658272
0.658078
0.657759
0.65724
0.656407
0.655089
0.653037
0.649908
0.64525
0.63851
0.629083
0.616406
0.600104
0.580147
0.55694
0.531302
0.504305
0.477058
0.450509
0.42534
0.401954
0.380516
0.361027
0.343382
0.327422
0.312971
0.299852
0.287905
0.276986
0.266972
0.257763
0.249267
0.241372
0.234005
0.227112
0.220649
0.214576
0.208862
0.203478
0.198403
0.193617
0.189104
0.184853
0.180853
0.177096
0.173578
0.170294
0.167245
0.164432
0.16186
0.159541
0.157488
0.155747
0.154356
0.153283
0.152649
0.15256
0.159459
0.169931
0.182299
0.196864
0.214024
0.234298
0.258356
0.287058
0.321496
0.363035
0.413483
0.47498
0.549291
0.637062
0.736475
0.841642
0.942489
1.02796
1.09134
1.1328
1.15727
1.17062
1.17746
1.18082
1.18244
1.18319
1.18354
1.1837
1.18377
1.1838
1.18381
1.18382
1.18382
1.18382
1.18382
1.18382
1.18382
1.18382
1.18382
0.658526
0.658502
0.65846
0.658389
0.658272
0.658079
0.65776
0.657242
0.656411
0.655094
0.653045
0.649921
0.645269
0.638538
0.629121
0.616457
0.600168
0.580223
0.557026
0.531393
0.504397
0.477147
0.450592
0.425415
0.40202
0.380574
0.361076
0.343423
0.327456
0.312998
0.299874
0.287922
0.276998
0.266981
0.257768
0.24927
0.241372
0.234002
0.227107
0.220642
0.214568
0.208852
0.203467
0.198391
0.193604
0.189092
0.184841
0.180842
0.177087
0.17357
0.170289
0.167243
0.164433
0.161866
0.15955
0.157501
0.155763
0.154373
0.153299
0.152658
0.152558
0.159702
0.170236
0.182667
0.197302
0.214541
0.234908
0.259078
0.287918
0.322525
0.364275
0.414987
0.476806
0.551472
0.639585
0.739235
0.844417
0.944979
1.02992
1.09268
1.13363
1.15773
1.17086
1.17758
1.18088
1.18246
1.18321
1.18355
1.1837
1.18377
1.1838
1.18381
1.18382
1.18382
1.18382
1.18382
1.18382
1.18382
1.18382
1.18382
0.658526
0.658502
0.65846
0.65839
0.658273
0.658079
0.657761
0.657244
0.656413
0.655098
0.653051
0.649929
0.645281
0.638556
0.629146
0.61649
0.60021
0.580272
0.557081
0.531452
0.504457
0.477205
0.450646
0.425464
0.402063
0.380611
0.361108
0.343449
0.327477
0.313016
0.299888
0.287933
0.277007
0.266987
0.257773
0.249273
0.241373
0.234002
0.227107
0.22064
0.214565
0.208848
0.203463
0.198387
0.1936
0.189088
0.184838
0.18084
0.177087
0.173572
0.170294
0.16725
0.164444
0.16188
0.159567
0.157521
0.155784
0.154394
0.153316
0.152669
0.152558
0.159862
0.170445
0.182923
0.197607
0.2149
0.235329
0.259574
0.288504
0.323223
0.365112
0.416
0.478029
0.552928
0.641262
0.741062
0.846243
0.946607
1.03119
1.09356
1.13416
1.15804
1.17102
1.17765
1.18092
1.18248
1.18321
1.18355
1.1837
1.18377
1.1838
1.18381
1.18382
1.18382
1.18382
1.18382
1.18382
1.18382
1.18382
1.18382
0.658526
0.658502
0.65846
0.65839
0.658273
0.658079
0.657761
0.657244
0.656414
0.655099
0.653054
0.649933
0.645287
0.638564
0.629158
0.616505
0.600229
0.580295
0.557107
0.531479
0.504485
0.477232
0.450671
0.425487
0.402083
0.380629
0.361123
0.343462
0.327488
0.313024
0.299895
0.287938
0.277011
0.26699
0.257775
0.249275
0.241375
0.234004
0.227108
0.220641
0.214566
0.208849
0.203464
0.198387
0.193601
0.189089
0.18484
0.180843
0.177091
0.173578
0.170302
0.16726
0.164456
0.161894
0.159583
0.157538
0.155799
0.154406
0.153319
0.15265
0.152498
0.15994
0.170555
0.183061
0.197771
0.215091
0.235551
0.259832
0.288806
0.323579
0.365535
0.416506
0.478633
0.553641
0.642077
0.741942
0.847116
0.947377
1.03179
1.09396
1.13441
1.15817
1.17109
1.17769
1.18093
1.18249
1.18322
1.18355
1.1837
1.18377
1.1838
1.18381
1.18382
1.18382
1.18382
1.18382
1.18382
1.18382
1.18382
1.18382
0.658526
0.658502
0.65846
0.65839
0.658273
0.658079
0.657761
0.657244
0.656414
0.655099
0.653054
0.649933
0.645287
0.638564
0.629158
0.616505
0.600229
0.580295
0.557107
0.531479
0.504485
0.477232
0.450671
0.425487
0.402083
0.380628
0.361122
0.343461
0.327488
0.313024
0.299895
0.287938
0.277011
0.26699
0.257775
0.249275
0.241375
0.234004
0.227108
0.220641
0.214565
0.208849
0.203463
0.198387
0.193601
0.189089
0.18484
0.180843
0.177091
0.173578
0.170301
0.16726
0.164456
0.161894
0.159583
0.157538
0.155799
0.154406
0.153318
0.15265
0.152498
0.15994
0.170555
0.183061
0.197771
0.215091
0.235551
0.259832
0.288806
0.323579
0.365535
0.416506
0.478633
0.553641
0.642077
0.741941
0.847115
0.947377
1.03179
1.09396
1.13441
1.15817
1.17109
1.17769
1.18093
1.18249
1.18322
1.18355
1.1837
1.18377
1.1838
1.18381
1.18382
1.18382
1.18382
1.18382
1.18382
1.18382
1.18382
1.18382
0.658526
0.658502
0.65846
0.65839
0.658273
0.658079
0.657761
0.657244
0.656413
0.655098
0.653051
0.649929
0.645281
0.638556
0.629146
0.616489
0.600209
0.580272
0.557081
0.531451
0.504456
0.477204
0.450645
0.425464
0.402063
0.380611
0.361107
0.343449
0.327477
0.313016
0.299888
0.287933
0.277006
0.266987
0.257772
0.249272
0.241373
0.234002
0.227106
0.22064
0.214565
0.208848
0.203463
0.198387
0.1936
0.189088
0.184838
0.18084
0.177087
0.173572
0.170294
0.16725
0.164444
0.16188
0.159567
0.15752
0.155783
0.154394
0.153316
0.152669
0.152558
0.159862
0.170444
0.182923
0.197606
0.214899
0.235329
0.259574
0.288504
0.323223
0.365112
0.415999
0.478028
0.552927
0.641261
0.74106
0.846241
0.946605
1.03119
1.09356
1.13416
1.15803
1.17102
1.17765
1.18092
1.18248
1.18321
1.18355
1.1837
1.18377
1.1838
1.18381
1.18382
1.18382
1.18382
1.18382
1.18382
1.18382
1.18382
1.18382
0.658526
0.658502
0.65846
0.658389
0.658272
0.658079
0.65776
0.657242
0.656411
0.655094
0.653045
0.649921
0.645269
0.638538
0.629121
0.616456
0.600168
0.580223
0.557025
0.531392
0.504397
0.477147
0.450592
0.425415
0.40202
0.380574
0.361076
0.343422
0.327455
0.312998
0.299874
0.287922
0.276998
0.266981
0.257768
0.249269
0.241372
0.234002
0.227107
0.220642
0.214568
0.208852
0.203467
0.198391
0.193604
0.189092
0.184841
0.180842
0.177086
0.17357
0.170289
0.167243
0.164433
0.161866
0.15955
0.157501
0.155763
0.154373
0.153299
0.152658
0.152558
0.159702
0.170235
0.182667
0.197301
0.21454
0.234907
0.259078
0.287917
0.322523
0.364273
0.414986
0.476804
0.55147
0.639582
0.739232
0.844414
0.944976
1.02992
1.09268
1.13363
1.15773
1.17086
1.17758
1.18088
1.18246
1.18321
1.18355
1.1837
1.18377
1.1838
1.18381
1.18382
1.18382
1.18382
1.18382
1.18382
1.18382
1.18382
1.18382
0.658526
0.658501
0.65846
0.658389
0.658272
0.658078
0.657759
0.65724
0.656407
0.655089
0.653037
0.649908
0.64525
0.63851
0.629083
0.616406
0.600104
0.580146
0.556939
0.531301
0.504304
0.477057
0.450508
0.425339
0.401953
0.380516
0.361027
0.343381
0.327421
0.31297
0.299852
0.287905
0.276985
0.266972
0.257762
0.249267
0.241372
0.234004
0.227112
0.220648
0.214576
0.208861
0.203478
0.198402
0.193616
0.189104
0.184853
0.180852
0.177096
0.173577
0.170294
0.167244
0.164431
0.16186
0.159541
0.157488
0.155747
0.154356
0.153283
0.152648
0.15256
0.159459
0.16993
0.182298
0.196863
0.214023
0.234297
0.258355
0.287057
0.321494
0.363033
0.413481
0.474977
0.549288
0.637058
0.73647
0.841637
0.942485
1.02796
1.09134
1.1328
1.15727
1.17062
1.17746
1.18082
1.18244
1.18319
1.18354
1.1837
1.18377
1.1838
1.18381
1.18382
1.18382
1.18382
1.18382
1.18382
1.18382
1.18382
1.18382
0.658526
0.658501
0.658459
0.658389
0.658271
0.658077
0.657757
0.657237
0.656403
0.655081
0.653025
0.64989
0.645223
0.638472
0.62903
0.616335
0.600016
0.580041
0.556821
0.531174
0.504176
0.476932
0.450392
0.425234
0.40186
0.380435
0.360958
0.343323
0.327373
0.312931
0.299821
0.287881
0.276968
0.26696
0.257756
0.249265
0.241374
0.23401
0.227121
0.220661
0.214591
0.208879
0.203497
0.198423
0.193638
0.189126
0.184875
0.180875
0.177117
0.173597
0.170311
0.167259
0.164442
0.161867
0.159544
0.157487
0.155742
0.154349
0.153276
0.152645
0.152566
0.159132
0.169527
0.181815
0.19629
0.213347
0.233497
0.257405
0.285922
0.32013
0.361386
0.411477
0.472541
0.546371
0.633676
0.732757
0.837889
0.939108
1.0253
1.0895
1.13168
1.15664
1.1703
1.17729
1.18075
1.1824
1.18318
1.18353
1.18369
1.18377
1.1838
1.18381
1.18382
1.18382
1.18382
1.18382
1.18382
1.18382
1.18382
1.18382
0.658526
0.658501
0.658459
0.658388
0.658271
0.658076
0.657755
0.657234
0.656397
0.655072
0.65301
0.649867
0.645189
0.638422
0.628961
0.616244
0.599901
0.579904
0.556666
0.531008
0.504007
0.476768
0.450238
0.425094
0.401736
0.380327
0.360865
0.343245
0.327309
0.312878
0.299779
0.287848
0.276944
0.266944
0.257747
0.249262
0.241377
0.234019
0.227134
0.220679
0.214613
0.208904
0.203526
0.198454
0.193671
0.189161
0.18491
0.18091
0.177152
0.173631
0.170343
0.167289
0.164469
0.16189
0.159562
0.157501
0.155751
0.154355
0.15328
0.152652
0.152577
0.158716
0.169023
0.181213
0.195578
0.212505
0.232499
0.256218
0.284501
0.318422
0.35932
0.408961
0.469479
0.542699
0.629409
0.728059
0.83313
0.934804
1.02189
1.08715
1.13024
1.15584
1.16988
1.17709
1.18065
1.18235
1.18315
1.18352
1.18369
1.18376
1.1838
1.18381
1.18382
1.18382
1.18382
1.18382
1.18382
1.18382
1.18382
1.18382
0.658526
0.658501
0.658459
0.658388
0.65827
0.658074
0.657752
0.657229
0.656389
0.65506
0.652992
0.649838
0.645146
0.63836
0.628874
0.616129
0.599755
0.57973
0.556469
0.530797
0.503791
0.476558
0.45004
0.424913
0.401575
0.380186
0.360744
0.343142
0.327223
0.312808
0.299722
0.287804
0.276911
0.266921
0.257733
0.249257
0.241379
0.234028
0.22715
0.220701
0.21464
0.208937
0.203563
0.198495
0.193715
0.189207
0.184958
0.180959
0.177201
0.173679
0.17039
0.167333
0.164511
0.161929
0.159597
0.157531
0.155776
0.154376
0.153299
0.152672
0.152601
0.158207
0.16841
0.180485
0.194718
0.211488
0.231294
0.254782
0.282782
0.316352
0.356817
0.405912
0.465766
0.538245
0.624225
0.722338
0.827313
0.929517
1.01769
1.08423
1.12844
1.15483
1.16935
1.17683
1.18052
1.1823
1.18313
1.18351
1.18368
1.18376
1.1838
1.18381
1.18382
1.18382
1.18382
1.18382
1.18382
1.18382
1.18382
1.18382
0.658526
0.658501
0.658459
0.658387
0.658269
0.658072
0.657749
0.657224
0.65638
0.655046
0.652969
0.649803
0.645093
0.638283
0.628768
0.615988
0.599576
0.579514
0.556224
0.530534
0.503522
0.476294
0.449791
0.424685
0.40137
0.380006
0.360588
0.343009
0.32711
0.312714
0.299646
0.287743
0.276864
0.266888
0.257711
0.249246
0.241378
0.234036
0.227167
0.220725
0.214672
0.208975
0.203607
0.198544
0.193769
0.189265
0.185019
0.181022
0.177265
0.173743
0.170453
0.167395
0.16457
0.161984
0.159649
0.157579
0.155818
0.154413
0.153333
0.152705
0.152637
0.157591
0.167677
0.17962
0.193699
0.210286
0.229869
0.253085
0.28075
0.313905
0.353857
0.402307
0.461377
0.532975
0.618083
0.71554
0.820368
0.923167
1.01261
1.08068
1.12624
1.15359
1.1687
1.1765
1.18037
1.18222
1.1831
1.1835
1.18368
1.18376
1.18379
1.18381
1.18382
1.18382
1.18382
1.18382
1.18382
1.18382
1.18382
1.18382
0.658526
0.658501
0.658458
0.658387
0.658267
0.65807
0.657745
0.657217
0.65637
0.655028
0.652942
0.649761
0.64503
0.638192
0.62864
0.615816
0.599358
0.579252
0.555925
0.530211
0.503191
0.475968
0.449481
0.424399
0.401113
0.379778
0.360389
0.342838
0.326964
0.312591
0.299544
0.287661
0.276799
0.266838
0.257677
0.249225
0.241369
0.234039
0.22718
0.220748
0.214705
0.209016
0.203656
0.1986
0.193831
0.189332
0.185091
0.181097
0.177343
0.173822
0.170533
0.167473
0.164646
0.162058
0.159718
0.157645
0.155878
0.154468
0.153384
0.152754
0.152688
0.156864
0.166819
0.178613
0.192514
0.208889
0.228215
0.251115
0.27839
0.311063
0.35042
0.398124
0.456282
0.526855
0.610939
0.707605
0.812218
0.915659
1.00654
1.07642
1.12359
1.1521
1.16792
1.17611
1.18018
1.18214
1.18306
1.18348
1.18367
1.18376
1.18379
1.18381
1.18382
1.18382
1.18382
1.18382
1.18382
1.18382
1.18382
1.18382
0.658526
0.658501
0.658458
0.658386
0.658266
0.658067
0.657741
0.65721
0.656357
0.655008
0.652909
0.649711
0.644955
0.638082
0.628487
0.615611
0.599096
0.578936
0.555564
0.529819
0.502786
0.475568
0.4491
0.424046
0.400792
0.379493
0.360138
0.342619
0.326776
0.312431
0.299409
0.287549
0.276709
0.266767
0.257624
0.249188
0.241348
0.234032
0.227187
0.220767
0.214735
0.209057
0.203707
0.19866
0.193899
0.189408
0.185173
0.181184
0.177433
0.173916
0.170628
0.167568
0.16474
0.162149
0.159805
0.157727
0.155955
0.15454
0.153453
0.152821
0.152756
0.156024
0.165837
0.177461
0.191161
0.207292
0.226322
0.24886
0.275689
0.307813
0.346492
0.393347
0.450464
0.51986
0.602755
0.698479
0.802784
0.906894
0.999405
1.07135
1.12041
1.1503
1.16697
1.17564
1.17995
1.18203
1.18301
1.18346
1.18366
1.18375
1.18379
1.18381
1.18382
1.18382
1.18382
1.18382
1.18382
1.18382
1.18382
1.18382
0.658526
0.6585
0.658457
0.658385
0.658264
0.658064
0.657735
0.657201
0.656343
0.654985
0.652872
0.649654
0.644867
0.637955
0.628307
0.615369
0.598787
0.57856
0.555132
0.529349
0.502299
0.475084
0.448635
0.423612
0.400396
0.379137
0.359822
0.342342
0.326535
0.312223
0.299231
0.287399
0.276584
0.266667
0.257545
0.24913
0.241308
0.234009
0.22718
0.220776
0.214758
0.209094
0.203756
0.198721
0.193971
0.189488
0.185261
0.18128
0.177535
0.174021
0.170736
0.167678
0.164849
0.162256
0.159909
0.157826
0.156049
0.15463
0.153539
0.152907
0.152847
0.155095
0.16475
0.176185
0.189655
0.205508
0.2242
0.246325
0.272647
0.304147
0.342059
0.38796
0.443908
0.511971
0.593502
0.688113
0.791992
0.896776
0.991072
1.06537
1.11664
1.14815
1.16584
1.17508
1.17968
1.18191
1.18295
1.18343
1.18365
1.18375
1.18379
1.18381
1.18382
1.18382
1.18382
1.18382
1.18382
1.18382
1.18382
1.18382
0.658526
0.6585
0.658457
0.658384
0.658262
0.658061
0.65773
0.657191
0.656327
0.654958
0.65283
0.649588
0.644767
0.637807
0.628098
0.615087
0.598424
0.578118
0.554621
0.52879
0.501716
0.474501
0.448072
0.423084
0.39991
0.378697
0.359429
0.341994
0.326229
0.311956
0.299
0.287201
0.276417
0.266527
0.257432
0.249041
0.241242
0.233964
0.227155
0.220769
0.214769
0.209121
0.203799
0.198778
0.194041
0.189571
0.185354
0.181382
0.177644
0.174136
0.170855
0.167798
0.164969
0.162373
0.160021
0.15793
0.15614
0.15471
0.153614
0.152986
0.152954
0.154156
0.163619
0.174827
0.188029
0.203562
0.221869
0.243526
0.269277
0.300076
0.33713
0.381968
0.436611
0.503178
0.58316
0.676469
0.779778
0.885201
0.981423
1.05838
1.11218
1.1456
1.16449
1.17441
1.17936
1.18176
1.18288
1.1834
1.18364
1.18374
1.18379
1.18381
1.18382
1.18382
1.18382
1.18382
1.18382
1.18382
1.18382
1.18382
0.658526
0.6585
0.658456
0.658383
0.65826
0.658057
0.657723
0.657181
0.656309
0.654929
0.652783
0.649514
0.644654
0.63764
0.627861
0.614764
0.598005
0.577603
0.554024
0.528132
0.501025
0.473806
0.447397
0.422445
0.399318
0.378158
0.358943
0.341559
0.325843
0.311616
0.298702
0.286942
0.276194
0.266338
0.257274
0.248912
0.24114
0.233887
0.227102
0.220739
0.21476
0.209132
0.203829
0.198826
0.194105
0.18965
0.185447
0.181486
0.177758
0.174258
0.170981
0.167926
0.165095
0.162494
0.160131
0.158023
0.156203
0.154739
0.153591
0.152885
0.152735
0.153331
0.162528
0.173448
0.186325
0.201483
0.219348
0.240476
0.265587
0.295606
0.331707
0.375372
0.428575
0.493479
0.571722
0.663527
0.766089
0.872081
0.970347
1.05025
1.10696
1.14259
1.1629
1.17362
1.17899
1.18158
1.1828
1.18337
1.18362
1.18373
1.18378
1.18381
1.18381
1.18382
1.18382
1.18382
1.18382
1.18382
1.18382
1.18382
0.658526
0.6585
0.658456
0.658381
0.658258
0.658053
0.657717
0.657169
0.65629
0.654898
0.652732
0.649433
0.644529
0.637454
0.627593
0.614396
0.597526
0.577011
0.553331
0.527364
0.500213
0.472984
0.446592
0.421678
0.398603
0.377501
0.358346
0.341021
0.325362
0.311188
0.298323
0.286609
0.275903
0.266087
0.25706
0.248732
0.240992
0.23377
0.227013
0.220678
0.214724
0.209121
0.20384
0.198859
0.194158
0.189721
0.185534
0.181588
0.177873
0.174382
0.171112
0.168061
0.16523
0.162624
0.16025
0.158123
0.156262
0.154746
0.153521
0.152692
0.152344
0.152612
0.1615
0.172076
0.184571
0.199295
0.216658
0.237194
0.261596
0.290757
0.325815
0.368205
0.419839
0.482916
0.559224