/*--------------------------------*- C++ -*----------------------------------*\
  =========                 |
  \\      /  F ield         | OpenFOAM: The Open Source CFD Toolbox
   \\    /   O peration     | Website:  https://openfoam.org
    \\  /    A nd           | Version:  8
     \\/     M anipulation  |
\*---------------------------------------------------------------------------*/
FoamFile
{
    version     2.0;
    format      ascii;
    class       volScalarField;
    location    "860/fluid";
    object      T;
}
// * * * * * * * * * * * * * * * * * * * * * * * * * * * * * * * * * * * * * //

dimensions      [0 0 0 1 0 0 0];

internalField   nonuniform List<scalar> 
4000
(
293.004
293.017
293.039
293.076
293.138
293.241
293.411
293.688
294.136
294.852
295.982
297.733
300.395
304.348
310.064
318.082
328.954
343.168
361.067
382.784
408.239
437.168
469.2
503.924
540.954
579.954
620.656
662.851
706.381
751.127
796.987
843.87
891.681
940.317
989.653
1039.62
1090.26
1141.46
1193.13
1245.16
1297.46
1349.91
1402.39
1454.79
1506.99
1558.87
1610.28
1661.1
1711.17
1760.34
1808.44
1855.27
1900.61
1944.21
1985.75
2024.86
2061.07
2093.3
2120.96
2144.12
2160.63
2168.67
2157.13
2047.21
1930.24
1808.37
1683.36
1556.69
1429.65
1303.41
1179.07
1057.73
940.531
828.371
722.502
624.944
538.024
464.04
404.803
360.947
331.338
313.193
303.026
297.771
295.205
293.996
293.441
293.193
293.083
293.035
293.015
293.006
293.003
293.001
293
293
293
293
293
293
293.004
293.017
293.039
293.077
293.139
293.242
293.412
293.691
294.14
294.858
295.987
297.733
300.377
304.291
309.934
317.829
328.517
342.481
360.071
381.441
406.535
435.118
466.838
501.301
538.124
576.971
617.571
659.709
703.222
747.985
793.892
840.85
888.762
937.522
987.004
1037.13
1087.93
1139.32
1191.19
1243.43
1295.94
1348.61
1401.32
1453.95
1506.38
1558.49
1610.13
1661.16
1711.45
1760.83
1809.13
1856.14
1901.66
1945.43
1987.12
2026.37
2062.69
2095.01
2122.73
2145.94
2162.45
2170.39
2148.34
2037.34
1919.39
1796.6
1670.72
1543.23
1415.41
1288.46
1163.51
1041.69
924.198
811.965
706.435
609.803
524.487
452.764
396.242
355.147
327.88
311.38
302.183
297.407
295.057
293.939
293.42
293.185
293.08
293.034
293.015
293.006
293.003
293.001
293
293
293
293
293
293
293.004
293.017
293.039
293.077
293.139
293.243
293.414
293.693
294.144
294.862
295.991
297.731
300.361
304.246
309.834
317.637
328.186
341.956
359.295
380.367
405.129
433.366
464.747
498.892
535.43
574.033
614.43
656.409
699.806
744.492
790.363
837.324
885.278
934.117
983.717
1033.99
1084.96
1136.55
1188.65
1241.14
1293.93
1346.89
1399.91
1452.86
1505.62
1558.06
1610.05
1661.42
1712.04
1761.75
1810.36
1857.68
1903.48
1947.51
1989.44
2028.9
2065.4
2097.82
2125.6
2148.8
2165.17
2172.92
2132.62
2020.58
1901.54
1777.7
1650.83
1522.46
1393.93
1266.47
1141.27
1019.53
902.474
791.085
687.009
592.531
510.006
441.502
388.254
350.044
324.952
309.856
301.452
297.074
294.911
293.877
293.394
293.174
293.076
293.033
293.014
293.006
293.002
293.001
293
293
293
293
293
293
293.004
293.017
293.039
293.077
293.139
293.242
293.413
293.691
294.139
294.853
295.972
297.695
300.296
304.134
309.65
317.349
327.754
341.34
358.456
379.273
403.762
431.721
462.83
496.719
533.023
571.418
611.634
653.462
696.737
741.333
787.147
834.085
882.052
930.942
980.631
1031.02
1082.14
1133.92
1186.23
1238.98
1292.04
1345.3
1398.65
1451.95
1505.07
1557.89
1610.24
1662
1713
1763.07
1812.04
1859.7
1905.82
1950.13
1992.33
2032
2068.67
2101.1
2128.82
2151.92
2168.15
2175.52
2113.05
2000.17
1880.19
1755.41
1627.7
1498.66
1369.68
1242.05
1117.01
995.806
879.641
769.567
667.373
575.357
495.77
430.472
380.382
344.927
321.931
308.224
300.634
296.687
294.735
293.798
293.36
293.16
293.07
293.03
293.013
293.005
293.002
293.001
293
293
293
293
293
293
293.004
293.017
293.039
293.076
293.138
293.241
293.411
293.687
294.132
294.84
295.95
297.657
300.232
304.029
309.483
317.093
327.376
340.805
357.732
378.334
402.594
430.318
461.198
494.872
530.979
569.198
609.262
650.961
694.132
738.65
784.414
831.33
879.307
928.239
978.005
1028.5
1079.76
1131.7
1184.22
1237.2
1290.53
1344.09
1397.75
1451.39
1504.87
1558.04
1610.77
1662.91
1714.28
1764.71
1814.03
1862.01
1908.43
1953.01
1995.42
2035.26
2071.98
2104.28
2131.93
2154.88
2170.72
2177.25
2092.52
1979
1858.18
1732.54
1604.1
1474.53
1345.29
1217.71
1093.06
972.641
857.574
749.005
648.857
559.383
482.722
420.521
373.395
340.454
319.32
306.822
299.931
296.352
294.58
293.729
293.33
293.147
293.064
293.028
293.012
293.005
293.002
293.001
293
293
293
293
293
293
293.004
293.017
293.039
293.076
293.137
293.24
293.408
293.682
294.123
294.825
295.923
297.612
300.16
303.915
309.308
316.834
327.007
340.299
357.066
377.491
401.563
429.1
459.799
493.304
529.258
567.342
607.289
648.891
691.984
736.446
782.176
829.083
877.076
926.054
975.896
1026.49
1077.88
1129.98
1182.69
1235.89
1289.46
1343.29
1397.25
1451.21
1505.01
1558.53
1611.6
1664.08
1715.8
1766.56
1816.19
1864.45
1911.11
1955.87
1998.41
2038.28
2075.02
2107.17
2134.71
2157.4
2172.87
2178.8
2075.01
1960.18
1838
1711.19
1581.87
1451.73
1322.27
1194.82
1070.67
951.099
837.174
730.139
631.99
544.936
470.998
411.627
367.168
336.462
316.975
305.547
299.281
296.038
294.433
293.662
293.3
293.134
293.059
293.025
293.011
293.005
293.002
293.001
293
293
293
293
293
293
293.004
293.017
293.039
293.075
293.136
293.238
293.404
293.676
294.113
294.808
295.896
297.569
300.092
303.809
309.148
316.6
326.678
339.853
356.483
376.758
400.676
428.059
458.613
491.985
527.821
565.802
605.663
647.194
690.235
734.663
780.377
827.289
875.31
924.34
974.26
1024.96
1076.47
1128.72
1181.61
1235.01
1288.81
1342.89
1397.12
1451.35
1505.45
1559.28
1612.67
1665.45
1717.47
1768.52
1818.4
1866.88
1913.7
1958.56
2001.1
2040.9
2077.42
2108.95
2136.67
2158.53
2173.07
2178.07
2066.24
1946.5
1821.21
1692.4
1561.82
1430.99
1301.27
1173.95
1050.3
931.561
818.737
713.167
616.898
532.086
460.642
403.833
361.758
333.023
314.966
304.458
298.726
295.768
294.307
293.604
293.274
293.122
293.054
293.023
293.01
293.004
293.002
293.001
293
293
293
293
293
293
293.004
293.017
293.038
293.075
293.135
293.236
293.401
293.67
294.104
294.793
295.871
297.528
300.027
303.71
309.001
316.388
326.383
339.458
355.973
376.125
399.916
427.176
457.615
490.884
526.63
564.535
604.334
645.819
688.828
733.239
778.953
825.883
873.941
923.029
973.028
1023.83
1075.46
1127.85
1180.9
1234.49
1288.5
1342.8
1397.26
1451.75
1506.12
1560.22
1613.88
1666.93
1719.2
1770.49
1820.58
1869.24
1916.19
1961.11
2003.63
2043.26
2079.26
2110.13
2136.81
2156.91
2168.6
2168.92
2054.17
1932.02
1804.9
1674.79
1543.35
1412.06
1282.24
1155.14
1032
914.065
802.274
698.079
603.547
520.78
451.584
397.058
357.083
330.063
313.24
303.521
298.247
295.534
294.196
293.553
293.251
293.112
293.049
293.021
293.009
293.004
293.002
293.001
293
293
293
293
293
293
293.004
293.017
293.038
293.074
293.134
293.234
293.398
293.665
294.095
294.778
295.847
297.49
299.968
303.621
308.87
316.202
326.126
339.115
355.535
375.584
399.271
426.433
456.781
489.97
525.648
563.499
603.257
644.713
687.706
732.115
777.841
824.798
872.899
922.047
972.126
1023.02
1074.77
1127.29
1180.49
1234.25
1288.44
1342.94
1397.62
1452.33
1506.93
1561.26
1615.16
1668.44
1720.93
1772.42
1822.69
1871.49
1918.53
1963.48
2005.95
2045.42
2081.03
2111.46
2137.43
2156.43
2166.42
2158.24
2041.35
1917.61
1789.31
1658.38
1526.43
1394.92
1265.13
1138.32
1015.73
898.546
787.712
684.767
591.811
510.889
443.71
391.209
353.076
327.542
311.777
302.728
297.841
295.336
294.102
293.51
293.231
293.103
293.046
293.02
293.009
293.004
293.002
293.001
293
293
293
293
293
293
293.004
293.016
293.038
293.074
293.133
293.232
293.395
293.66
294.087
294.765
295.826
297.457
299.916
303.543
308.756
316.039
325.903
338.821
355.161
375.126
398.729
425.812
456.089
489.217
524.846
562.659
602.39
643.83
686.819
731.235
776.981
823.971
872.119
921.329
971.484
1022.47
1074.32
1126.97
1180.31
1234.21
1288.57
1343.25
1398.11
1453.02
1507.82
1562.35
1616.45
1669.93
1722.6
1774.26
1824.68
1873.59
1920.73
1965.74
2008.21
2047.65
2083.13
2113.44
2139.34
2158.4
2168.79
2146
2028.1
1903.53
1774.61
1643.24
1511.07
1379.51
1249.88
1123.41
1001.36
884.88
774.942
673.154
581.61
502.321
436.914
386.191
349.658
325.402
310.539
302.059
297.498
295.169
294.023
293.473
293.215
293.096
293.042
293.018
293.008
293.003
293.001
293.001
293
293
293
293
293
293
293.004
293.016
293.038
293.073
293.132
293.231
293.393
293.656
294.08
294.753
295.807
297.427
299.871
303.475
308.657
315.9
325.713
338.572
354.846
374.742
398.277
425.297
455.519
488.601
524.194
561.981
601.696
643.131
686.124
730.554
776.324
823.35
871.545
920.815
971.043
1022.11
1074.06
1126.82
1180.28
1234.32
1288.82
1343.65
1398.67
1453.75
1508.72
1563.42
1617.69
1671.33
1724.16
1775.96
1826.5
1875.52
1922.73
1967.79
2010.29
2049.74
2085.15
2115.41
2141.3
2160.36
2170.8
2133.94
2015.5
1890.48
1761.22
1629.64
1497.38
1365.87
1236.44
1110.33
988.791
872.967
763.827
663.06
572.772
494.931
431.085
381.908
346.759
323.597
309.499
301.498
297.211
295.028
293.956
293.442
293.201
293.09
293.04
293.017
293.007
293.003
293.001
293.001
293
293
293
293
293
293
293.004
293.016
293.037
293.073
293.132
293.23
293.39
293.652
294.074
294.743
295.791
297.402
299.832
303.417
308.573
315.782
325.553
338.362
354.582
374.422
397.904
424.874
455.053
488.101
523.669
561.439
601.146
642.581
685.583
730.031
775.827
822.889
871.13
920.456
970.751
1021.9
1073.93
1126.79
1180.35
1234.51
1289.13
1344.09
1399.26
1454.47
1509.59
1564.43
1618.84
1672.61
1725.57
1777.48
1828.11
1877.21
1924.48
1969.58
2012.08
2051.5
2086.87
2117.1
2142.95
2161.99
2172.43
2123.15
2004.21
1878.83
1749.33
1617.61
1485.34
1353.94
1224.73
1098.97
977.92
862.663
754.224
654.361
565.176
488.602
426.116
378.278
344.313
322.082
308.629
301.029
296.971
294.911
293.9
293.416
293.189
293.084
293.037
293.016
293.007
293.003
293.001
293.001
293
293
293
293
293
293
293.004
293.016
293.037
293.072
293.131
293.228
293.388
293.649
294.068
294.734
295.777
297.381
299.8
303.368
308.503
315.683
325.42
338.189
354.365
374.16
397.598
424.529
454.676
487.698
523.248
561.008
600.712
642.152
685.166
729.632
775.455
822.551
870.836
920.213
970.567
1021.78
1073.89
1126.83
1180.49
1234.74
1289.47
1344.55
1399.83
1455.16
1510.39
1565.35
1619.87
1673.75
1726.8
1778.79
1829.5
1878.65
1925.95
1971.06
2013.55
2052.97
2088.29
2118.46
2144.26
2163.26
2173.71
2113.9
1994.47
1868.76
1739.05
1607.26
1475
1343.71
1214.7
1089.25
968.606
853.84
746.009
646.935
558.708
483.23
421.914
375.221
342.265
320.817
307.905
300.64
296.772
294.814
293.854
293.394
293.179
293.08
293.035
293.015
293.007
293.003
293.001
293
293
293
293
293
293
293
293.004
293.016
293.037
293.072
293.131
293.227
293.387
293.646
294.064
294.727
295.765
297.363
299.772
303.328
308.444
315.602
325.31
338.047
354.187
373.946
397.35
424.25
454.373
487.377
522.914
560.668
600.374
641.82
684.846
729.331
775.18
822.307
870.63
920.052
970.458
1021.73
1073.91
1126.92
1180.65
1234.99
1289.81
1344.97
1400.35
1455.77
1511.1
1566.15
1620.76
1674.72
1727.84
1779.89
1830.64
1879.82
1927.13
1972.24
2014.73
2054.11
2089.37
2119.49
2145.24
2164.22
2174.7
2106.13
1986.23
1860.2
1730.32
1598.45
1466.2
1335.01
1206.19
1081.01
960.722
846.38
739.074
640.673
553.264
478.72
418.397
372.674
340.565
319.772
307.308
300.319
296.609
294.734
293.815
293.376
293.171
293.076
293.034
293.015
293.006
293.003
293.001
293
293
293
293
293
293
293
293.004
293.016
293.037
293.072
293.13
293.227
293.385
293.644
294.06
294.721
295.756
297.348
299.75
303.295
308.397
315.536
325.222
337.932
354.044
373.774
397.152
424.029
454.133
487.123
522.653
560.404
600.112
641.565
684.604
729.106
774.977
822.132
870.487
919.947
970.398
1021.72
1073.95
1127.02
1180.82
1235.22
1290.11
1345.35
1400.8
1456.3
1511.7
1566.82
1621.49
1675.51
1728.68
1780.76
1831.54
1880.73
1928.05
1973.15
2015.61
2054.95
2090.15
2120.21
2145.93
2164.92
2175.41
2099.75
1979.38
1853.06
1723.01
1591.07
1458.84
1327.74
1199.08
1074.13
954.153
840.169
733.308
635.474
548.751
474.989
415.497
370.58
339.172
318.919
306.822
300.059
296.476
294.669
293.784
293.362
293.164
293.073
293.032
293.014
293.006
293.003
293.001
293
293
293
293
293
293
293
293.004
293.016
293.037
293.072
293.13
293.226
293.384
293.642
294.057
294.717
295.749
297.336
299.732
303.269
308.359
315.484
325.151
337.841
353.931
373.64
396.997
423.857
453.946
486.927
522.451
560.202
599.912
641.373
684.422
728.94
774.829
822.007
870.389
919.88
970.366
1021.73
1074
1127.12
1180.96
1235.42
1290.37
1345.66
1401.16
1456.72
1512.17
1567.35
1622.06
1676.11
1729.31
1781.42
1832.21
1881.41
1928.72
1973.78
2016.21
2055.49
2090.63
2120.64
2146.34
2165.36
2175.88
2094.57
1973.77
1847.19
1717
1585.01
1452.8
1321.79
1193.27
1068.52
948.797
835.111
728.618
631.251
545.09
471.968
413.154
368.892
338.052
318.234
306.433
299.851
296.37
294.617
293.76
293.351
293.159
293.071
293.031
293.014
293.006
293.003
293.001
293
293
293
293
293
293
293
293.004
293.016
293.037
293.071
293.129
293.226
293.384
293.641
294.055
294.713
295.743
297.327
299.719
303.249
308.33
315.444
325.098
337.772
353.845
373.537
396.879
423.726
453.806
486.78
522.301
560.051
599.765
641.231
684.29
728.819
774.723
821.918
870.321
919.836
970.347
1021.74
1074.04
1127.19
1181.08
1235.57
1290.56
1345.89
1401.43
1457.03
1512.52
1567.72
1622.46
1676.54
1729.76
1781.88
1832.66
1881.85
1929.12
1974.15
2016.53
2055.77
2090.84
2120.82
2146.52
2165.58
2176.21
2090.52
1969.32
1842.5
1712.19
1580.17
1447.99
1317.05
1188.66
1064.08
944.571
831.127
724.93
627.936
542.224
469.608
411.327
367.579
337.182
317.703
306.131
299.689
296.288
294.576
293.741
293.342
293.155
293.069
293.031
293.013
293.006
293.002
293.001
293
293
293
293
293
293
293
293.004
293.016
293.037
293.071
293.129
293.225
293.383
293.64
294.053
294.71
295.738
297.321
299.709
303.234
308.309
315.414
325.059
337.722
353.783
373.464
396.794
423.632
453.705
486.674
522.193
559.944
599.66
641.131
684.196
728.734
774.649
821.857
870.274
919.805
970.334
1021.74
1074.07
1127.24
1181.15
1235.67
1290.68
1346.05
1401.61
1457.23
1512.74
1567.97
1622.72
1676.81
1730.03
1782.14
1832.91
1882.07
1929.31
1974.3
2016.63
2055.81
2090.85
2120.8
2146.5
2165.64
2176.42
2087.52
1965.95
1838.94
1708.53
1576.48
1444.34
1313.48
1185.2
1060.75
941.413
828.159
722.19
625.479
540.104
467.868
409.984
366.616
336.545
317.313
305.909
299.57
296.227
294.547
293.726
293.335
293.152
293.068
293.03
293.013
293.006
293.002
293.001
293
293
293
293
293
293
293
293.004
293.016
293.037
293.071
293.129
293.225
293.383
293.639
294.052
294.708
295.736
297.317
299.702
303.224
308.296
315.396
325.033
337.689
353.743
373.416
396.74
423.572
453.64
486.607
522.124
559.875
599.593
641.067
684.137
728.68
774.602
821.818
870.244
919.785
970.324
1021.75
1074.08
1127.27
1181.19
1235.73
1290.76
1346.13
1401.72
1457.35
1512.87
1568.1
1622.86
1676.94
1730.15
1782.24
1832.99
1882.12
1929.32
1974.27
2016.55
2055.7
2090.71
2120.65
2146.39
2165.62
2176.54
2085.54
1963.65
1836.46
1705.98
1573.93
1441.83
1311.03
1182.84
1058.51
939.289
826.172
720.365
623.85
538.704
466.723
409.105
365.989
336.132
317.061
305.765
299.493
296.187
294.527
293.717
293.331
293.15
293.067
293.03
293.013
293.006
293.002
293.001
293
293
293
293
293
293
293
293.004
293.016
293.037
293.071
293.129
293.225
293.382
293.639
294.052
294.708
295.734
297.315
299.699
303.22
308.289
315.387
325.022
337.674
353.724
373.393
396.714
423.543
453.609
486.575
522.091
559.842
599.561
641.037
684.108
728.654
774.579
821.799
870.229
919.774
970.318
1021.74
1074.09
1127.28
1181.21
1235.75
1290.78
1346.16
1401.75
1457.39
1512.91
1568.14
1622.89
1676.97
1730.16
1782.25
1832.97
1882.07
1929.25
1974.17
2016.42
2055.55
2090.57
2120.56
2146.43
2165.96
2177.44
2084.59
1962.44
1835.13
1704.61
1572.57
1440.5
1309.76
1181.63
1057.36
938.221
825.183
719.466
623.054
538.026
466.174
408.686
365.693
335.939
316.944
305.699
299.457
296.169
294.518
293.713
293.329
293.149
293.067
293.029
293.013
293.006
293.002
293.001
293
293
293
293
293
293
293
293.004
293.016
293.037
293.071
293.129
293.225
293.382
293.639
294.052
294.708
295.734
297.315
299.699
303.22
308.289
315.387
325.022
337.674
353.724
373.394
396.714
423.543
453.609
486.575
522.091
559.842
599.561
641.037
684.108
728.655
774.579
821.799
870.23
919.775
970.319
1021.74
1074.09
1127.28
1181.21
1235.75
1290.78
1346.16
1401.75
1457.39
1512.91
1568.14
1622.89
1676.97
1730.16
1782.25
1832.97
1882.08
1929.25
1974.17
2016.42
2055.55
2090.57
2120.56
2146.43
2165.96
2177.45
2084.59
1962.44
1835.13
1704.61
1572.57
1440.5
1309.76
1181.63
1057.36
938.222
825.184
719.466
623.055
538.027
466.174
408.687
365.694
335.939
316.944
305.699
299.457
296.169
294.518
293.713
293.329
293.149
293.067
293.029
293.013
293.006
293.002
293.001
293
293
293
293
293
293
293
293.004
293.016
293.037
293.071
293.129
293.225
293.383
293.639
294.052
294.708
295.736
297.317
299.702
303.224
308.296
315.396
325.034
337.689
353.743
373.416
396.74
423.572
453.64
486.607
522.124
559.875
599.593
641.068
684.137
728.681
774.602
821.818
870.245
919.785
970.325
1021.75
1074.08
1127.27
1181.19
1235.73
1290.76
1346.13
1401.72
1457.35
1512.87
1568.1
1622.86
1676.94
1730.15
1782.25
1832.99
1882.12
1929.33
1974.27
2016.55
2055.7
2090.71
2120.66
2146.39
2165.63
2176.54
2085.55
1963.65
1836.46
1705.98
1573.93
1441.83
1311.03
1182.84
1058.51
939.291
826.174
720.366
623.851
538.705
466.724
409.106
365.99
336.133
317.061
305.765
299.493
296.187
294.527
293.717
293.331
293.15
293.067
293.03
293.013
293.006
293.002
293.001
293
293
293
293
293
293
293
293.004
293.016
293.037
293.071
293.129
293.225
293.383
293.64
294.053
294.71
295.738
297.321
299.709
303.234
308.309
315.415
325.059
337.722
353.784
373.464
396.795
423.633
453.705
486.675
522.194
559.944
599.661
641.132
684.197
728.735
774.65
821.858
870.276
919.807
970.336
1021.75
1074.07
1127.24
1181.15
1235.68
1290.69
1346.05
1401.62
1457.24
1512.75
1567.97
1622.73
1676.82
1730.03
1782.14
1832.91
1882.07
1929.31
1974.3
2016.63
2055.82
2090.85
2120.8
2146.51
2165.65
2176.42
2087.52
1965.96
1838.94
1708.53
1576.49
1444.34
1313.48
1185.2
1060.76
941.416
828.162
722.193
625.482
540.107
467.87
409.985
366.617
336.546
317.314
305.91
299.57
296.227
294.547
293.726
293.335
293.152
293.068
293.03
293.013
293.006
293.002
293.001
293
293
293
293
293
293
293
293.004
293.016
293.037
293.071
293.129
293.226
293.384
293.641
294.055
294.713
295.743
297.327
299.719
303.249
308.33
315.444
325.098
337.772
353.846
373.538
396.88
423.727
453.806
486.781
522.302
560.052
599.766
641.232
684.291
728.82
774.724
821.92
870.323
919.838
970.349
1021.74
1074.04
1127.19
1181.08
1235.58
1290.56
1345.9
1401.44
1457.03
1512.52
1567.72
1622.46
1676.54
1729.76
1781.88
1832.67
1881.85
1929.13
1974.16
2016.53
2055.77
2090.85
2120.83
2146.52
2165.59
2176.22
2090.52
1969.32
1842.51
1712.2
1580.17
1447.99
1317.06
1188.67
1064.09
944.576
831.132
724.934
627.94
542.227
469.611
411.329
367.58
337.183
317.703
306.131
299.689
296.288
294.576
293.741
293.342
293.155
293.069
293.031
293.013
293.006
293.002
293.001
293
293
293
293
293
293
293
293.004
293.016
293.037
293.072
293.13
293.226
293.384
293.642
294.057
294.717
295.749
297.336
299.733
303.269
308.359
315.484
325.152
337.842
353.932
373.641
396.998
423.858
453.947
486.928
522.453
560.203
599.914
641.374
684.424
728.942
774.831
822.009
870.391
919.883
970.368
1021.73
1074
1127.12
1180.97
1235.42
1290.37
1345.66
1401.17
1456.72
1512.18
1567.35
1622.06
1676.12
1729.31
1781.42
1832.22
1881.41
1928.72
1973.79
2016.21
2055.5
2090.63
2120.65
2146.35
2165.36
2175.89
2094.58
1973.78
1847.2
1717
1585.02
1452.81
1321.79
1193.28
1068.53
948.803
835.117
728.623
631.256
545.095
471.972
413.157
368.894
338.054
318.235
306.434
299.851
296.37
294.617
293.76
293.351
293.159
293.071
293.031
293.014
293.006
293.003
293.001
293
293
293
293
293
293
293
293.004
293.016
293.037
293.072
293.13
293.227
293.385
293.644
294.06
294.721
295.756
297.348
299.75
303.295
308.397
315.536
325.222
337.932
354.045
373.775
397.153
424.03
454.134
487.125
522.654
560.406
600.114
641.567
684.606
729.109
774.979
822.134
870.49
919.95
970.4
1021.72
1073.95
1127.02
1180.82
1235.23
1290.12
1345.35
1400.8
1456.3
1511.7
1566.83
1621.49
1675.51
1728.68
1780.77
1831.54
1880.74
1928.06
1973.16
2015.62
2054.96
2090.15
2120.22
2145.94
2164.93
2175.42
2099.76
1979.39
1853.07
1723.02
1591.08
1458.85
1327.75
1199.09
1074.14
954.161
840.177
733.315
635.48
548.756
474.993
415.5
370.582
339.174
318.92
306.823
300.059
296.476
294.669
293.784
293.362
293.164
293.073
293.032
293.014
293.006
293.003
293.001
293
293
293
293
293
293
293
293.004
293.016
293.037
293.072
293.131
293.227
293.387
293.646
294.064
294.727
295.766
297.363
299.773
303.328
308.444
315.602
325.311
338.047
354.188
373.947
397.351
424.252
454.374
487.378
522.916
560.671
600.376
641.822
684.849
729.334
775.182
822.31
870.633
920.055
970.461
1021.74
1073.91
1126.92
1180.66
1234.99
1289.81
1344.98
1400.35
1455.78
1511.1
1566.16
1620.76
1674.73
1727.84
1779.9
1830.65
1879.83
1927.14
1972.25
2014.74
2054.12
2089.39
2119.5
2145.25
2164.24
2174.71
2106.14
1986.24
1860.21
1730.33
1598.46
1466.21
1335.02
1206.2
1081.02
960.732
846.389
739.082
640.681
553.27
478.725
418.402
372.677
340.567
319.774
307.309
300.32
296.609
294.734
293.815
293.376
293.171
293.076
293.034
293.015
293.006
293.003
293.001
293
293
293
293
293
293
293
293.004
293.016
293.037
293.072
293.131
293.228
293.388
293.649
294.068
294.734
295.777
297.381
299.8
303.369
308.503
315.684
325.42
338.19
354.365
374.161
397.599
424.53
454.677
487.7
523.25
561.01
600.715
642.154
685.168
729.635
775.459
822.555
870.839
920.216
970.571
1021.79
1073.9
1126.84
1180.49
1234.75
1289.48
1344.55
1399.83
1455.16
1510.4
1565.36
1619.88
1673.76
1726.81
1778.8
1829.51
1878.66
1925.97
1971.07
2013.57
2052.98
2088.31
2118.48
2144.27
2163.28
2173.73
2113.92
1994.49
1868.78
1739.07
1607.27
1475.01
1343.72
1214.72
1089.26
968.618
853.851
746.019
646.944
558.715
483.236
421.919
375.225
342.267
320.819
307.906
300.64
296.773
294.814
293.854
293.394
293.179
293.08
293.035
293.015
293.007
293.003
293.001
293
293
293
293
293
293
293
293.004
293.016
293.037
293.073
293.132
293.23
293.39
293.652
294.074
294.743
295.791
297.402
299.833
303.417
308.573
315.782
325.554
338.363
354.583
374.424
397.905
424.875
455.055
488.103
523.671
561.441
601.149
642.584
685.586
730.034
775.831
822.893
871.134
920.46
970.755
1021.9
1073.94
1126.79
1180.36
1234.51
1289.14
1344.1
1399.26
1454.48
1509.59
1564.44
1618.85
1672.62
1725.58
1777.49
1828.12
1877.22
1924.5
1969.59
2012.1
2051.51
2086.89
2117.13
2142.97
2162.01
2172.46
2123.17
2004.23
1878.85
1749.34
1617.63
1485.35
1353.95
1224.75
1098.99
977.934
862.675
754.235
654.371
565.185
488.61
426.122
378.282
344.316
322.083
308.63
301.029
296.971
294.911
293.9
293.416
293.189
293.084
293.037
293.016
293.007
293.003
293.001
293.001
293
293
293
293
293
293
293.004
293.016
293.038
293.073
293.132
293.231
293.393
293.656
294.08
294.753
295.807
297.428
299.871
303.475
308.657
315.9
325.714
338.573
354.847
374.743
398.279
425.299
455.521
488.604
524.197
561.984
601.7
643.134
686.128
730.558
776.328
823.354
871.55
920.819
971.047
1022.12
1074.07
1126.83
1180.28
1234.32
1288.82
1343.65
1398.68
1453.75
1508.73
1563.43
1617.7
1671.34
1724.17
1775.97
1826.51
1875.53
1922.75
1967.81
2010.32
2049.76
2085.19
2115.46
2141.34
2160.41
2170.84
2133.97
2015.52
1890.5
1761.23
1629.65
1497.39
1365.89
1236.45
1110.34
988.804
872.977
763.84
663.072
572.782
494.94
431.092
381.913
346.762
323.599
309.5
301.498
297.211
295.028
293.956
293.442
293.201
293.09
293.04
293.017
293.007
293.003
293.001
293.001
293
293
293
293
293
293
293.004
293.016
293.038
293.074
293.133
293.232
293.395
293.66
294.087
294.765
295.826
297.457
299.917
303.543
308.756
316.04
325.904
338.822
355.162
375.128
398.731
425.814
456.092
489.22
524.849
562.662
602.393
643.834
686.823
731.24
776.985
823.976
872.124
921.334
971.489
1022.48
1074.33
1126.98
1180.31
1234.22
1288.57
1343.25
1398.12
1453.03
1507.83
1562.36
1616.46
1669.94
1722.61
1774.27
1824.69
1873.61
1920.75
1965.75
2008.23
2047.67
2083.14
2113.44
2139.36
2158.43
2168.82
2146.03
2028.13
1903.57
1774.64
1643.28
1511.11
1379.55
1249.91
1123.44
1001.39
884.906
774.962
673.167
581.621
502.331
436.922
386.196
349.662
325.405
310.541
302.06
297.499
295.169
294.023
293.473
293.215
293.096
293.042
293.018
293.008
293.003
293.001
293.001
293
293
293
293
293
293
293.004
293.017
293.038
293.074
293.134
293.234
293.398
293.665
294.095
294.778
295.847
297.491
299.969
303.621
308.871
316.202
326.127
339.116
355.536
375.586
399.274
426.435
456.784
489.973
525.652
563.503
603.261
644.717
687.711
732.119
777.846
824.803
872.905
922.053
972.131
1023.03
1074.77
1127.3
1180.5
1234.26
1288.45
1342.95
1397.63
1452.34
1506.94
1561.27
1615.17
1668.46
1720.95
1772.44
1822.71
1871.5
1918.55
1963.5
2005.97
2045.45
2081.06
2111.48
2137.46
2156.47
2166.47
2158.28
2041.38
1917.63
1789.33
1658.39
1526.45
1394.93
1265.14
1138.33
1015.74
898.557
787.724
684.783
591.826
510.9
443.718
391.216
353.08
327.544
311.778
302.729
297.841
295.337
294.102
293.51
293.232
293.103
293.046
293.02
293.009
293.004
293.002
293.001
293
293
293
293
293
293
293.004
293.017
293.038
293.075
293.135
293.236
293.401
293.67
294.104
294.793
295.871
297.528
300.027
303.71
309.001
316.389
326.384
339.459
355.975
376.127
399.918
427.179
457.618
490.887
526.633
564.539
604.339
645.824
688.833
733.244
778.959
825.889
873.947
923.035
973.034
1023.83
1075.47
1127.86
1180.91
1234.5
1288.51
1342.81
1397.27
1451.76
1506.13
1560.23
1613.89
1666.95
1719.22
1770.51
1820.6
1869.26
1916.21
1961.13
2003.65
2043.29
2079.28
2110.15
2136.84
2156.94
2168.63
2168.95
2054.2
1932.05
1804.93
1674.81
1543.38
1412.09
1282.26
1155.16
1032.03
914.094
802.302
698.099
603.563
520.792
451.593
397.065
357.088
330.066
313.242
303.522
298.247
295.535
294.196
293.553
293.251
293.112
293.049
293.021
293.009
293.004
293.002
293.001
293
293
293
293
293
293
293.004
293.017
293.039
293.075
293.136
293.238
293.404
293.676
294.113
294.809
295.896
297.569
300.092
303.809
309.149
316.601
326.679
339.854
356.485
376.761
400.678
428.062
458.616
491.989
527.825
565.806
605.667
647.199
690.24
734.668
780.382
827.295
875.316
924.346
974.266
1024.97
1076.48
1128.73
1181.61
1235.02
1288.82
1342.9
1397.13
1451.36
1505.46
1559.29
1612.68
1665.47
1717.48
1768.53
1818.41
1866.89
1913.72
1958.58
2001.12
2040.91
2077.43
2108.97
2136.69
2158.55
2173.09
2178.09
2066.26
1946.52
1821.23
1692.42
1561.84
1431.01
1301.29
1173.97
1050.31
931.578
818.751
713.183
616.914
532.1
460.653
403.84
361.763
333.026
314.968
304.459
298.727
295.769
294.307
293.604
293.274
293.122
293.054
293.023
293.01
293.004
293.002
293.001
293
293
293
293
293
293
293.004
293.017
293.039
293.076
293.137
293.24
293.408
293.682
294.123
294.825
295.923
297.613
300.16
303.915
309.309
316.835
327.008
340.301
357.068
377.493
401.565
429.103
459.802
493.308
529.263
567.347
607.294
648.896
691.99
736.452
782.182
829.089
877.083
926.061
975.903
1026.5
1077.89
1129.99
1182.7
1235.9
1289.47
1343.3
1397.26
1451.22
1505.02
1558.54
1611.62
1664.1
1715.81
1766.58
1816.2
1864.46
1911.12
1955.88
1998.42
2038.3
2075.03
2107.18
2134.72
2157.41
2172.88
2178.81
2075.02
1960.19
1838.01
1711.21
1581.88
1451.75
1322.29
1194.83
1070.68
951.111
837.186
730.15
632.001
544.947
471.007
411.633
367.172
336.465
316.976
305.548
299.282
296.038
294.433
293.662
293.3
293.134
293.059
293.025
293.011
293.005
293.002
293.001
293
293
293
293
293
293
293.004
293.017
293.039
293.076
293.138
293.241
293.411
293.687
294.132
294.841
295.95
297.657
300.233
304.03
309.484
317.094
327.377
340.806
357.734
378.337
402.596
430.321
461.202
494.876
530.984
569.203
609.268
650.967
694.138
738.657
784.42
831.337
879.314
928.246
978.013
1028.51
1079.77
1131.71
1184.23
1237.21
1290.54
1344.1
1397.76
1451.4
1504.88
1558.05
1610.78
1662.92
1714.29
1764.72
1814.04
1862.02
1908.44
1953.02
1995.43
2035.27
2071.99
2104.28
2131.93
2154.88
2170.71
2177.24
2092.52
1979
1858.18
1732.55
1604.1
1474.54
1345.3
1217.72
1093.07
972.649
857.583
749.014
648.866
559.392
482.729
420.527
373.399
340.457
319.322
306.823
299.932
296.352
294.581
293.729
293.33
293.147
293.064
293.028
293.012
293.005
293.002
293.001
293
293
293
293
293
293
293.004
293.017
293.039
293.077
293.139
293.242
293.413
293.691
294.139
294.853
295.972
297.695
300.296
304.134
309.651
317.35
327.756
341.341
358.458
379.276
403.766
431.725
462.834
496.724
533.028
571.423
611.64
653.468
696.743
741.34
787.154
834.092
882.06
930.95
980.639
1031.03
1082.15
1133.93
1186.24
1238.99
1292.05
1345.31
1398.66
1451.96
1505.08
1557.9
1610.26
1662.01
1713.01
1763.08
1812.05
1859.71
1905.83
1950.14
1992.33
2032
2068.67
2101.1
2128.82
2151.91
2168.14
2175.51
2113.05
2000.17
1880.19
1755.41
1627.7
1498.67
1369.69
1242.06
1117.01
995.813
879.649
769.574
667.38
575.364
495.776
430.478
380.386
344.93
321.933
308.225
300.635
296.687
294.735
293.798
293.361
293.16
293.07
293.03
293.013
293.005
293.002
293.001
293
293
293
293
293
293
293.004
293.017
293.039
293.077
293.139
293.243
293.414
293.693
294.144
294.862
295.991
297.731
300.362
304.246
309.834
317.638
328.187
341.957
359.298
380.37
405.133
433.37
464.751
498.897
535.435
574.038
614.436
656.416
699.812
744.499
790.371
837.332
885.286
934.126
983.726
1034
1084.97
1136.56
1188.65
1241.15
1293.94
1346.9
1399.92
1452.87
1505.63
1558.08
1610.06
1661.43
1712.05
1761.76
1810.37
1857.68
1903.49
1947.51
1989.45
2028.9
2065.4
2097.82
2125.6
2148.79
2165.17
2172.91
2132.62
2020.58
1901.55
1777.7
1650.83
1522.47
1393.94
1266.48
1141.28
1019.54
902.481
791.092
687.016
592.538
510.013
441.508
388.258
350.047
324.954
309.857
301.453
297.075
294.912
293.877
293.394
293.174
293.076
293.033
293.014
293.006
293.002
293.001
293
293
293
293
293
293
293.004
293.017
293.039
293.077
293.139
293.242
293.412
293.691
294.14
294.858
295.988
297.733
300.377
304.291
309.935
317.83
328.518
342.483
360.074
381.444
406.539
435.122
466.843
501.306
538.129
576.977
617.577
659.716
703.23
747.992
793.9
840.858
888.771
937.53