/*--------------------------------*- C++ -*----------------------------------*\
  =========                 |
  \\      /  F ield         | OpenFOAM: The Open Source CFD Toolbox
   \\    /   O peration     | Website:  https://openfoam.org
    \\  /    A nd           | Version:  8
     \\/     M anipulation  |
\*---------------------------------------------------------------------------*/
FoamFile
{
    version     2.0;
    format      ascii;
    class       volVectorField;
    location    "860/fluid";
    object      U;
}
// * * * * * * * * * * * * * * * * * * * * * * * * * * * * * * * * * * * * * //

dimensions      [0 1 -1 0 0 0 0];

internalField   nonuniform List<vector> 
4000
(
(0.0999453 -0.00705893 0)
(0.0996479 -0.021011 0)
(0.0991678 -0.0348505 0)
(0.0985047 -0.0486128 0)
(0.0976503 -0.0623165 0)
(0.096587 -0.0759641 0)
(0.095294 -0.0895448 0)
(0.0937518 -0.103038 0)
(0.0919449 -0.116417 0)
(0.0898646 -0.129652 0)
(0.0875126 -0.142716 0)
(0.0849047 -0.15559 0)
(0.0820748 -0.168263 0)
(0.0790824 -0.180721 0)
(0.0760058 -0.193012 0)
(0.0729178 -0.205205 0)
(0.0698689 -0.217359 0)
(0.0668764 -0.229519 0)
(0.0639162 -0.241694 0)
(0.060924 -0.253858 0)
(0.0578075 -0.265948 0)
(0.0544656 -0.277872 0)
(0.0508088 -0.289523 0)
(0.0467807 -0.30077 0)
(0.0423565 -0.31152 0)
(0.0375289 -0.321709 0)
(0.0323041 -0.331273 0)
(0.0267 -0.340154 0)
(0.0207427 -0.348306 0)
(0.0144639 -0.355694 0)
(0.00789756 -0.362294 0)
(0.00107951 -0.368094 0)
(-0.00595294 -0.37309 0)
(-0.0131635 -0.377289 0)
(-0.020519 -0.380702 0)
(-0.0279896 -0.383351 0)
(-0.0355476 -0.385259 0)
(-0.0431672 -0.386459 0)
(-0.0508234 -0.386985 0)
(-0.0584929 -0.386877 0)
(-0.0661537 -0.386177 0)
(-0.0737848 -0.384928 0)
(-0.0813664 -0.383177 0)
(-0.0888794 -0.380973 0)
(-0.0963053 -0.378363 0)
(-0.103626 -0.375397 0)
(-0.110824 -0.372126 0)
(-0.117881 -0.368601 0)
(-0.124779 -0.364875 0)
(-0.1315 -0.360999 0)
(-0.138026 -0.357029 0)
(-0.144336 -0.353021 0)
(-0.150411 -0.349032 0)
(-0.156226 -0.345125 0)
(-0.161758 -0.341366 0)
(-0.166979 -0.337829 0)
(-0.171848 -0.334597 0)
(-0.176313 -0.331756 0)
(-0.180349 -0.329406 0)
(-0.183994 -0.327702 0)
(-0.187313 -0.326921 0)
(-0.189686 -0.327419 0)
(-0.189012 -0.329037 0)
(-0.184122 -0.330031 0)
(-0.177079 -0.329309 0)
(-0.169605 -0.326997 0)
(-0.161899 -0.323383 0)
(-0.153899 -0.318611 0)
(-0.145626 -0.31274 0)
(-0.137149 -0.305805 0)
(-0.128549 -0.297838 0)
(-0.11991 -0.28887 0)
(-0.111319 -0.278943 0)
(-0.102871 -0.268103 0)
(-0.0947128 -0.256409 0)
(-0.0870863 -0.243971 0)
(-0.0803195 -0.230989 0)
(-0.074781 -0.217741 0)
(-0.070847 -0.204791 0)
(-0.0688138 -0.19265 0)
(-0.0687162 -0.181562 0)
(-0.0702563 -0.171442 0)
(-0.0729203 -0.161981 0)
(-0.0761706 -0.152847 0)
(-0.0795791 -0.143797 0)
(-0.082864 -0.134687 0)
(-0.085853 -0.12542 0)
(-0.0884785 -0.11604 0)
(-0.0907383 -0.106595 0)
(-0.092657 -0.0971185 0)
(-0.0942684 -0.0876402 0)
(-0.0956077 -0.0781874 0)
(-0.0967089 -0.0687811 0)
(-0.0976036 -0.0594354 0)
(-0.0983204 -0.0501575 0)
(-0.0988846 -0.0409489 0)
(-0.0993181 -0.0318029 0)
(-0.0996379 -0.0227021 0)
(-0.0998559 -0.0136223 0)
(-0.0999821 -0.00454538 0)
(0.0999999 -0.00661954 0)
(0.0997934 -0.0198068 0)
(0.0993663 -0.0329102 0)
(0.0986945 -0.0459086 0)
(0.0977796 -0.0587839 0)
(0.0966172 -0.0715137 0)
(0.0951978 -0.0840697 0)
(0.0935135 -0.0964199 0)
(0.0915621 -0.108531 0)
(0.0893509 -0.120375 0)
(0.0868995 -0.13193 0)
(0.0842423 -0.143196 0)
(0.08143 -0.154203 0)
(0.0785294 -0.165035 0)
(0.0756137 -0.175753 0)
(0.0727495 -0.186414 0)
(0.0699828 -0.197095 0)
(0.0673256 -0.207863 0)
(0.064747 -0.218758 0)
(0.0621739 -0.229778 0)
(0.0595022 -0.240876 0)
(0.0566165 -0.251973 0)
(0.053411 -0.262974 0)
(0.0498035 -0.273799 0)
(0.0457464 -0.284328 0)
(0.0412215 -0.29443 0)
(0.0362316 -0.304001 0)
(0.030797 -0.312963 0)
(0.0249491 -0.321259 0)
(0.0187262 -0.328848 0)
(0.0121693 -0.335701 0)
(0.00532 -0.341805 0)
(-0.00178089 -0.347155 0)
(-0.0090939 -0.351754 0)
(-0.0165817 -0.355615 0)
(-0.0242096 -0.358756 0)
(-0.0319461 -0.361201 0)
(-0.0397626 -0.362979 0)
(-0.0476322 -0.36412 0)
(-0.0555299 -0.36466 0)
(-0.0634322 -0.364637 0)
(-0.0713172 -0.364092 0)
(-0.0791644 -0.363068 0)
(-0.0869543 -0.361608 0)
(-0.094668 -0.359757 0)
(-0.102288 -0.357562 0)
(-0.109796 -0.35507 0)
(-0.117176 -0.352329 0)
(-0.124411 -0.349389 0)
(-0.131484 -0.346297 0)
(-0.138378 -0.343105 0)
(-0.145076 -0.339863 0)
(-0.151562 -0.336625 0)
(-0.157817 -0.333443 0)
(-0.163823 -0.330371 0)
(-0.169562 -0.327468 0)
(-0.174997 -0.324788 0)
(-0.180089 -0.322385 0)
(-0.184838 -0.32031 0)
(-0.189344 -0.318616 0)
(-0.193717 -0.317354 0)
(-0.196989 -0.316512 0)
(-0.196525 -0.315593 0)
(-0.191196 -0.313999 0)
(-0.183645 -0.311525 0)
(-0.175795 -0.308062 0)
(-0.167805 -0.303563 0)
(-0.159544 -0.298003 0)
(-0.150999 -0.291366 0)
(-0.142221 -0.283645 0)
(-0.133269 -0.27484 0)
(-0.124209 -0.264964 0)
(-0.115103 -0.254059 0)
(-0.106024 -0.242203 0)
(-0.0971218 -0.229552 0)
(-0.0886732 -0.216387 0)
(-0.0810715 -0.20316 0)
(-0.0747785 -0.190504 0)
(-0.0702507 -0.178837 0)
(-0.0677805 -0.16843 0)
(-0.0673414 -0.159297 0)
(-0.0685774 -0.151166 0)
(-0.0709584 -0.143632 0)
(-0.0739678 -0.136331 0)
(-0.0772074 -0.129027 0)
(-0.0804179 -0.121614 0)
(-0.083457 -0.114084 0)
(-0.0862389 -0.106351 0)
(-0.0887282 -0.0983898 0)
(-0.090919 -0.0902297 0)
(-0.0928194 -0.0819107 0)
(-0.0944453 -0.073471 0)
(-0.0958172 -0.0649438 0)
(-0.0969571 -0.0563564 0)
(-0.0978871 -0.0477304 0)
(-0.0986281 -0.0390822 0)
(-0.0991977 -0.0304212 0)
(-0.0996079 -0.0217473 0)
(-0.0998665 -0.013056 0)
(-0.0999951 -0.00435186 0)
(0.0999787 -0.00633987 0)
(0.0997137 -0.0189577 0)
(0.0991946 -0.0314891 0)
(0.0984025 -0.0439105 0)
(0.0973413 -0.0561999 0)
(0.096012 -0.0683342 0)
(0.0944139 -0.0802884 0)
(0.0925501 -0.0920371 0)
(0.090431 -0.103557 0)
(0.0880766 -0.114829 0)
(0.0855193 -0.125843 0)
(0.0828053 -0.136599 0)
(0.0799931 -0.147113 0)
(0.0771474 -0.157419 0)
(0.0743338 -0.167569 0)
(0.0716142 -0.177639 0)
(0.0690337 -0.187708 0)
(0.0666046 -0.197848 0)
(0.0642966 -0.208102 0)
(0.0620366 -0.218478 0)
(0.0597195 -0.228939 0)
(0.0572273 -0.239416 0)
(0.0544467 -0.249815 0)
(0.051282 -0.260032 0)
(0.0476631 -0.269967 0)
(0.0435527 -0.27953 0)
(0.0389428 -0.288637 0)
(0.0338474 -0.297219 0)
(0.0282944 -0.305219 0)
(0.0223205 -0.312595 0)
(0.0159663 -0.319313 0)
(0.00927362 -0.325355 0)
(0.00228411 -0.33071 0)
(-0.00496154 -0.335376 0)
(-0.0124248 -0.339359 0)
(-0.0200697 -0.342674 0)
(-0.0278632 -0.34534 0)
(-0.0357751 -0.347379 0)
(-0.0437776 -0.348819 0)
(-0.0518447 -0.349692 0)
(-0.0599519 -0.350031 0)
(-0.0680767 -0.349873 0)
(-0.0761979 -0.349257 0)
(-0.0842957 -0.348222 0)
(-0.0923514 -0.34681 0)
(-0.100348 -0.345063 0)
(-0.108268 -0.343026 0)
(-0.116095 -0.340741 0)
(-0.123816 -0.338253 0)
(-0.131415 -0.335606 0)
(-0.138878 -0.332845 0)
(-0.146195 -0.330015 0)
(-0.153351 -0.327159 0)
(-0.160335 -0.324321 0)
(-0.167136 -0.321542 0)
(-0.173741 -0.318863 0)
(-0.180118 -0.316318 0)
(-0.186229 -0.313933 0)
(-0.192091 -0.311727 0)
(-0.197818 -0.309715 0)
(-0.203394 -0.307903 0)
(-0.207286 -0.306229 0)
(-0.206541 -0.304054 0)
(-0.200602 -0.301105 0)
(-0.19255 -0.297469 0)
(-0.184146 -0.293063 0)
(-0.175531 -0.287789 0)
(-0.166605 -0.281583 0)
(-0.157365 -0.274417 0)
(-0.147855 -0.266286 0)
(-0.13813 -0.257209 0)
(-0.128249 -0.247234 0)
(-0.11827 -0.236449 0)
(-0.108282 -0.224989 0)
(-0.0984767 -0.213054 0)
(-0.089195 -0.200934 0)
(-0.0809001 -0.188995 0)
(-0.0741201 -0.17764 0)
(-0.0693185 -0.16724 0)
(-0.0667174 -0.158002 0)
(-0.0661938 -0.149874 0)
(-0.0673305 -0.142571 0)
(-0.0695867 -0.135723 0)
(-0.0724634 -0.129012 0)
(-0.0755845 -0.122232 0)
(-0.0787091 -0.11528 0)
(-0.0817061 -0.108123 0)
(-0.0845093 -0.100772 0)
(-0.0870809 -0.0932458 0)
(-0.0894026 -0.085564 0)
(-0.0914695 -0.0777472 0)
(-0.0932849 -0.0698159 0)
(-0.094857 -0.0617901 0)
(-0.0961967 -0.0536876 0)
(-0.0973164 -0.0455247 0)
(-0.0982287 -0.0373158 0)
(-0.0989448 -0.0290711 0)
(-0.0994712 -0.0207947 0)
(-0.099812 -0.0124882 0)
(-0.0999872 -0.00416336 0)
(0.0999835 -0.00598495 0)
(0.0997143 -0.0178967 0)
(0.099178 -0.0297172 0)
(0.098355 -0.0414166 0)
(0.0972541 -0.0529681 0)
(0.0958821 -0.0643453 0)
(0.0942443 -0.0755211 0)
(0.0923494 -0.0864697 0)
(0.0902121 -0.0971688 0)
(0.0878554 -0.107602 0)
(0.0853123 -0.11776 0)
(0.0826273 -0.127651 0)
(0.0798568 -0.137296 0)
(0.077067 -0.146739 0)
(0.0743285 -0.156041 0)
(0.0717061 -0.165281 0)
(0.0692452 -0.17454 0)
(0.0669571 -0.183893 0)
(0.0648103 -0.193388 0)
(0.0627299 -0.203038 0)
(0.0606085 -0.212814 0)
(0.0583242 -0.222654 0)
(0.0557603 -0.232471 0)
(0.0528198 -0.24217 0)
(0.0494337 -0.251651 0)
(0.0455622 -0.260823 0)
(0.0411914 -0.269602 0)
(0.0363279 -0.277919 0)
(0.0309929 -0.285718 0)
(0.0252168 -0.292955 0)
(0.0190353 -0.299598 0)
(0.0124863 -0.305625 0)
(0.00560821 -0.311023 0)
(-0.00156076 -0.315789 0)
(-0.00898364 -0.319927 0)
(-0.0166256 -0.323446 0)
(-0.0244543 -0.326361 0)
(-0.0324403 -0.328693 0)
(-0.0405561 -0.330465 0)
(-0.0487762 -0.331703 0)
(-0.0570765 -0.332438 0)
(-0.0654348 -0.332701 0)
(-0.0738303 -0.332526 0)
(-0.0822438 -0.331949 0)
(-0.0906572 -0.331006 0)
(-0.0990534 -0.329735 0)
(-0.107416 -0.328173 0)
(-0.115731 -0.32636 0)
(-0.123983 -0.324332 0)
(-0.132161 -0.322127 0)
(-0.140251 -0.319784 0)
(-0.148242 -0.317337 0)
(-0.156124 -0.314821 0)
(-0.163883 -0.312267 0)
(-0.17151 -0.309703 0)
(-0.178987 -0.307153 0)
(-0.186273 -0.304633 0)
(-0.193321 -0.302149 0)
(-0.200153 -0.2997 0)
(-0.206889 -0.297288 0)
(-0.213354 -0.294906 0)
(-0.217368 -0.292497 0)
(-0.215902 -0.289331 0)
(-0.209255 -0.285358 0)
(-0.200759 -0.280774 0)
(-0.191826 -0.275533 0)
(-0.182545 -0.269542 0)
(-0.172866 -0.262742 0)
(-0.16282 -0.255108 0)
(-0.152474 -0.246641 0)
(-0.141899 -0.237373 0)
(-0.131175 -0.227365 0)
(-0.120384 -0.216716 0)
(-0.109653 -0.20557 0)
(-0.0992358 -0.194137 0)
(-0.0895247 -0.182699 0)
(-0.0810054 -0.171605 0)
(-0.0741768 -0.16123 0)
(-0.0694299 -0.151884 0)
(-0.0669027 -0.143702 0)
(-0.0664081 -0.136576 0)
(-0.0675056 -0.130205 0)
(-0.0696683 -0.124235 0)
(-0.0724271 -0.118374 0)
(-0.0754334 -0.112436 0)
(-0.0784607 -0.106323 0)
(-0.0813781 -0.0999965 0)
(-0.0841176 -0.0934478 0)
(-0.0866469 -0.0866872 0)
(-0.0889518 -0.0797333 0)
(-0.0910279 -0.072608 0)
(-0.0928757 -0.0653334 0)
(-0.0944985 -0.0579306 0)
(-0.0959011 -0.050419 0)
(-0.0970894 -0.0428168 0)
(-0.0980698 -0.0351408 0)
(-0.0988472 -0.0274051 0)
(-0.0994227 -0.0196183 0)
(-0.0997961 -0.0117874 0)
(-0.0999874 -0.0039304 0)
(0.0999805 -0.00562939 0)
(0.0996962 -0.0168322 0)
(0.0991347 -0.0279466 0)
(0.0982777 -0.0389426 0)
(0.0971364 -0.0497934 0)
(0.0957202 -0.0604735 0)
(0.0940377 -0.0709575 0)
(0.0921007 -0.0812222 0)
(0.0899276 -0.0912478 0)
(0.0875445 -0.101021 0)
(0.0849879 -0.110535 0)
(0.082305 -0.119797 0)
(0.0795548 -0.128827 0)
(0.0768052 -0.137665 0)
(0.0741273 -0.146365 0)
(0.0715856 -0.155 0)
(0.069225 -0.163646 0)
(0.0670566 -0.172371 0)
(0.0650488 -0.181224 0)
(0.0631265 -0.190221 0)
(0.0611817 -0.19934 0)
(0.0590904 -0.208531 0)
(0.0567323 -0.217717 0)
(0.0540058 -0.226812 0)
(0.0508372 -0.235728 0)
(0.0471814 -0.24438 0)
(0.0430199 -0.252694 0)
(0.038355 -0.260603 0)
(0.0332035 -0.268055 0)
(0.0275925 -0.275007 0)
(0.0215542 -0.281426 0)
(0.0151238 -0.287291 0)
(0.00833713 -0.292587 0)
(0.00122985 -0.297308 0)
(-0.00616287 -0.301455 0)
(-0.0138079 -0.305036 0)
(-0.0216744 -0.308061 0)
(-0.0297344 -0.310547 0)
(-0.0379615 -0.312513 0)
(-0.0463312 -0.313982 0)
(-0.0548205 -0.31498 0)
(-0.063408 -0.315534 0)
(-0.0720738 -0.315673 0)
(-0.0807993 -0.315427 0)
(-0.0895668 -0.314828 0)
(-0.0983594 -0.313907 0)
(-0.107162 -0.312698 0)
(-0.115959 -0.311233 0)
(-0.124738 -0.309543 0)
(-0.133484 -0.307659 0)
(-0.142185 -0.305611 0)
(-0.150827 -0.303428 0)
(-0.159398 -0.301133 0)
(-0.167881 -0.29875 0)
(-0.176259 -0.296296 0)
(-0.184506 -0.293785 0)
(-0.192567 -0.29122 0)
(-0.200381 -0.288599 0)
(-0.207983 -0.285911 0)
(-0.215491 -0.283155 0)
(-0.222544 -0.280317 0)
(-0.22632 -0.277354 0)
(-0.223925 -0.273518 0)
(-0.2166 -0.268927 0)
(-0.207723 -0.263777 0)
(-0.198312 -0.258038 0)
(-0.188409 -0.251638 0)
(-0.178019 -0.24454 0)
(-0.167222 -0.236736 0)
(-0.156109 -0.228243 0)
(-0.144778 -0.219108 0)
(-0.133325 -0.209402 0)
(-0.121856 -0.199234 0)
(-0.110535 -0.18875 0)
(-0.0996549 -0.178154 0)
(-0.0896377 -0.167707 0)
(-0.080972 -0.157713 0)
(-0.0741316 -0.148474 0)
(-0.069453 -0.140214 0)
(-0.0670051 -0.132987 0)
(-0.0665454 -0.126644 0)
(-0.0676131 -0.1209 0)
(-0.0696937 -0.11545 0)
(-0.0723449 -0.110055 0)
(-0.0752444 -0.104569 0)
(-0.0781836 -0.0989135 0)
(-0.0810401 -0.0930593 0)
(-0.0837464 -0.0870022 0)
(-0.0862665 -0.0807506 0)
(-0.0885821 -0.0743188 0)
(-0.0906842 -0.0677233 0)
(-0.0925695 -0.0609814 0)
(-0.0942376 -0.0541103 0)
(-0.0956896 -0.0471264 0)
(-0.0969282 -0.0400459 0)
(-0.0979562 -0.0328848 0)
(-0.0987758 -0.0256573 0)
(-0.0993852 -0.0183729 0)
(-0.0997821 -0.0110411 0)
(-0.0999862 -0.00368156 0)
(0.0999812 -0.00525899 0)
(0.0996945 -0.0157253 0)
(0.0991271 -0.0261071 0)
(0.0982611 -0.0363739 0)
(0.0971092 -0.0464988 0)
(0.095683 -0.0564567 0)
(0.0939929 -0.0662229 0)
(0.0920526 -0.0757753 0)
(0.0898821 -0.0850955 0)
(0.0875089 -0.0941711 0)
(0.0849701 -0.102998 0)
(0.0823131 -0.111582 0)
(0.0795966 -0.119946 0)
(0.0768881 -0.128128 0)
(0.0742582 -0.136182 0)
(0.0717715 -0.144177 0)
(0.0694732 -0.152188 0)
(0.0673756 -0.160282 0)
(0.0654488 -0.168508 0)
(0.0636197 -0.176881 0)
(0.0617813 -0.185385 0)
(0.0598099 -0.193973 0)
(0.0575841 -0.202576 0)
(0.0550001 -0.211114 0)
(0.0519806 -0.219505 0)
(0.0484771 -0.227671 0)
(0.0444665 -0.235541 0)
(0.039947 -0.243054 0)
(0.0349315 -0.25016 0)
(0.0294433 -0.256816 0)
(0.0235113 -0.262994 0)
(0.0171677 -0.268669 0)
(0.0104454 -0.273827 0)
(0.00337763 -0.278461 0)
(-0.00400229 -0.282571 0)
(-0.011663 -0.286161 0)
(-0.019576 -0.289239 0)
(-0.0277144 -0.291819 0)
(-0.0360533 -0.293917 0)
(-0.0445694 -0.295553 0)
(-0.0532409 -0.296747 0)
(-0.0620472 -0.297522 0)
(-0.0709691 -0.297904 0)
(-0.0799882 -0.297918 0)
(-0.089087 -0.297591 0)
(-0.0982492 -0.296949 0)
(-0.107459 -0.29602 0)
(-0.116701 -0.294831 0)
(-0.125961 -0.293407 0)
(-0.135222 -0.291774 0)
(-0.14447 -0.289955 0)
(-0.153688 -0.287972 0)
(-0.162857 -0.285843 0)
(-0.171956 -0.283585 0)
(-0.18096 -0.281208 0)
(-0.189829 -0.278719 0)
(-0.198493 -0.276117 0)
(-0.206882 -0.273392 0)
(-0.215034 -0.270534 0)
(-0.223064 -0.267531 0)
(-0.23044 -0.264356 0)
(-0.233793 -0.260993 0)
(-0.23048 -0.256791 0)
(-0.22256 -0.251905 0)
(-0.213301 -0.246453 0)
(-0.203417 -0.240434 0)
(-0.192933 -0.233821 0)
(-0.181908 -0.226604 0)
(-0.170455 -0.218794 0)
(-0.158692 -0.210422 0)
(-0.146733 -0.201537 0)
(-0.134695 -0.192218 0)
(-0.122704 -0.182567 0)
(-0.110956 -0.172724 0)
(-0.0997808 -0.162876 0)
(-0.0896176 -0.153259 0)
(-0.0809528 -0.14414 0)
(-0.0742303 -0.135777 0)
(-0.0697305 -0.128349 0)
(-0.0674546 -0.121876 0)
(-0.0671082 -0.116201 0)
(-0.0682119 -0.111051 0)
(-0.0702608 -0.10615 0)
(-0.0728354 -0.101284 0)
(-0.0756365 -0.0963215 0)
(-0.0784733 -0.0911942 0)
(-0.0812348 -0.0858742 0)
(-0.0838598 -0.0803565 0)
(-0.0863151 -0.0746479 0)
(-0.0885827 -0.0687606 0)
(-0.090653 -0.0627094 0)
(-0.0925203 -0.05651 0)
(-0.0941819 -0.0501782 0)
(-0.0956362 -0.0437298 0)
(-0.0968829 -0.0371805 0)
(-0.0979223 -0.0305462 0)
(-0.098754 -0.0238415 0)
(-0.0993741 -0.0170771 0)
(-0.0997783 -0.0102636 0)
(-0.0999862 -0.00342228 0)
(0.0999807 -0.00488786 0)
(0.0996917 -0.0146158 0)
(0.0991205 -0.0242649 0)
(0.0982497 -0.0338057 0)
(0.0970927 -0.0432129 0)
(0.095662 -0.0524625 0)
(0.093969 -0.0615318 0)
(0.0920285 -0.0704001 0)
(0.0898616 -0.0790509 0)
(0.0874968 -0.0874731 0)
(0.0849717 -0.0956631 0)
(0.0823346 -0.103628 0)
(0.0796444 -0.111388 0)
(0.0769686 -0.118977 0)
(0.0743782 -0.126448 0)
(0.0719377 -0.133863 0)
(0.0696925 -0.141291 0)
(0.0676557 -0.148796 0)
(0.0657981 -0.156424 0)
(0.0640474 -0.164192 0)
(0.0622972 -0.172087 0)
(0.0604234 -0.180069 0)
(0.0583035 -0.188076 0)
(0.0558316 -0.196037 0)
(0.0529278 -0.203876 0)
(0.0495404 -0.211522 0)
(0.0456433 -0.21891 0)
(0.0412315 -0.225982 0)
(0.0363151 -0.232692 0)
(0.0309142 -0.239 0)
(0.0250554 -0.244877 0)
(0.0187682 -0.250301 0)
(0.0120836 -0.255257 0)
(0.00503253 -0.259737 0)
(-0.00235373 -0.263738 0)
(-0.0100456 -0.267264 0)
(-0.0180157 -0.27032 0)
(-0.0262386 -0.272918 0)
(-0.0346908 -0.27507 0)
(-0.0433501 -0.276792 0)
(-0.0521955 -0.278101 0)
(-0.0612072 -0.279019 0)
(-0.0703662 -0.279564 0)
(-0.0796543 -0.279758 0)
(-0.0890544 -0.279625 0)
(-0.0985497 -0.279185 0)
(-0.108124 -0.278462 0)
(-0.117759 -0.277477 0)
(-0.12744 -0.276253 0)
(-0.137149 -0.274808 0)
(-0.146867 -0.273162 0)
(-0.156573 -0.271331 0)
(-0.166243 -0.26933 0)
(-0.17585 -0.267171 0)
(-0.185359 -0.264861 0)
(-0.19472 -0.262406 0)
(-0.203845 -0.259802 0)
(-0.212658 -0.257038 0)
(-0.22119 -0.254104 0)
(-0.22952 -0.250976 0)
(-0.236995 -0.24761 0)
(-0.239973 -0.243995 0)
(-0.235922 -0.239626 0)
(-0.227352 -0.234638 0)
(-0.217564 -0.229083 0)
(-0.207186 -0.222987 0)
(-0.1962 -0.216359 0)
(-0.184661 -0.209213 0)
(-0.172696 -0.201573 0)
(-0.160432 -0.193477 0)
(-0.148001 -0.18498 0)
(-0.135531 -0.17616 0)
(-0.123165 -0.167114 0)
(-0.111129 -0.157974 0)
(-0.0997774 -0.148913 0)
(-0.0895615 -0.14014 0)
(-0.0809574 -0.131892 0)
(-0.0743784 -0.124383 0)
(-0.0700536 -0.117744 0)
(-0.0679293 -0.111959 0)
(-0.0676736 -0.106861 0)
(-0.0687989 -0.102196 0)
(-0.0708143 -0.0977233 0)
(-0.0733217 -0.0932626 0)
(-0.0760413 -0.0887045 0)
(-0.0787957 -0.0839927 0)
(-0.0814816 -0.0791046 0)
(-0.0840413 -0.0740361 0)
(-0.0864427 -0.0687926 0)
(-0.0886676 -0.0633841 0)
(-0.0907054 -0.057823 0)
(-0.0925493 -0.0521225 0)
(-0.0941951 -0.0462964 0)
(-0.0956397 -0.0403585 0)
(-0.0968814 -0.034323 0)
(-0.0979191 -0.0282049 0)
(-0.098751 -0.022018 0)
(-0.0993722 -0.0157728 0)
(-0.0997776 -0.00948007 0)
(-0.0999861 -0.00316082 0)
(0.0999809 -0.00451532 0)
(0.0996926 -0.0135024 0)
(0.0991224 -0.0224166 0)
(0.0982533 -0.03123 0)
(0.0970991 -0.0399188 0)
(0.0956728 -0.0484604 0)
(0.0939863 -0.0568338 0)
(0.092055 -0.0650198 0)
(0.0899005 -0.073003 0)
(0.0875514 -0.0807736 0)
(0.0850457 -0.0883284 0)
(0.0824314 -0.0956743 0)
(0.0797673 -0.10283 0)
(0.0771205 -0.109829 0)
(0.0745617 -0.116718 0)
(0.0721555 -0.123556 0)
(0.0699476 -0.130409 0)
(0.0679522 -0.137336 0)
(0.0661413 -0.144379 0)
(0.0644441 -0.151558 0)
(0.0627548 -0.158862 0)
(0.0609497 -0.166254 0)
(0.0589052 -0.17368 0)
(0.056514 -0.181073 0)
(0.053694 -0.188365 0)
(0.0503909 -0.195491 0)
(0.0465759 -0.20239 0)
(0.0422413 -0.20901 0)
(0.0373945 -0.215306 0)
(0.0320535 -0.221242 0)
(0.0262425 -0.22679 0)
(0.0199889 -0.231928 0)
(0.0133219 -0.236643 0)
(0.00627073 -0.240925 0)
(-0.00113519 -0.244771 0)
(-0.00886761 -0.248183 0)
(-0.0169003 -0.251164 0)
(-0.0252091 -0.253724 0)
(-0.0337715 -0.255872 0)
(-0.0425661 -0.257622 0)
(-0.0515725 -0.258989 0)
(-0.0607711 -0.259987 0)
(-0.0701432 -0.260636 0)
(-0.0796708 -0.260951 0)
(-0.0893363 -0.260953 0)
(-0.0991222 -0.260659 0)
(-0.109011 -0.260088 0)
(-0.118984 -0.259257 0)
(-0.129023 -0.258185 0)
(-0.139107 -0.256886 0)
(-0.149215 -0.255377 0)
(-0.159323 -0.25367 0)
(-0.169402 -0.251776 0)
(-0.179418 -0.249704 0)
(-0.189331 -0.247461 0)
(-0.199078 -0.245048 0)
(-0.208557 -0.242463 0)
(-0.217686 -0.239698 0)
(-0.226473 -0.236746 0)
(-0.234945 -0.233589 0)
(-0.242311 -0.230193 0)
(-0.244853 -0.226486 0)
(-0.240158 -0.222047 0)
(-0.231032 -0.217051 0)
(-0.220768 -0.211546 0)
(-0.20995 -0.205554 0)
(-0.198537 -0.199092 0)
(-0.186578 -0.192181 0)
(-0.174204 -0.184854 0)
(-0.161552 -0.177152 0)
(-0.148762 -0.169133 0)
(-0.135971 -0.160869 0)
(-0.123338 -0.152454 0)
(-0.111111 -0.14401 0)
(-0.0996674 -0.135693 0)
(-0.0894633 -0.127694 0)
(-0.0809662 -0.120219 0)
(-0.0745606 -0.113451 0)
(-0.07043 -0.107488 0)
(-0.0684717 -0.102297 0)
(-0.0683219 -0.0977086 0)
(-0.0694859 -0.0934917 0)
(-0.0714844 -0.0894305 0)
(-0.073938 -0.0853688 0)
(-0.0765843 -0.0812122 0)
(-0.0792589 -0.0769127 0)
(-0.0818666 -0.0724506 0)
(-0.084354 -0.0678225 0)
(-0.0866914 -0.0630328 0)
(-0.0888612 -0.0580904 0)
(-0.0908527 -0.0530058 0)
(-0.0926587 -0.0477908 0)
(-0.094274 -0.0424578 0)
(-0.0956949 -0.0370194 0)
(-0.0969183 -0.0314885 0)
(-0.0979424 -0.0258793 0)
(-0.0987644 -0.0202047 0)
(-0.0993788 -0.0144747 0)
(-0.09978 -0.0086999 0)
(-0.0999863 -0.0029005 0)
(0.0999809 -0.00414438 0)
(0.0996937 -0.0123936 0)
(0.0991258 -0.0205762 0)
(0.0982603 -0.0286663 0)
(0.0971111 -0.0366419 0)
(0.0956914 -0.0444822 0)
(0.0940134 -0.0521678 0)
(0.0920929 -0.0596813 0)
(0.0899513 -0.0670087 0)
(0.0876176 -0.0741409 0)
(0.0851297 -0.0810754 0)
(0.0825355 -0.0878185 0)
(0.0798936 -0.0943875 0)
(0.077271 -0.100813 0)
(0.0747381 -0.107137 0)
(0.0723596 -0.113416 0)
(0.0701818 -0.119709 0)
(0.0682193 -0.12607 0)
(0.0664453 -0.132541 0)
(0.0647897 -0.139139 0)
(0.0631476 -0.145855 0)
(0.0613949 -0.152659 0)
(0.0594074 -0.159501 0)
(0.0570766 -0.166321 0)
(0.0543184 -0.173058 0)
(0.0510766 -0.17965 0)
(0.0473203 -0.186043 0)
(0.0430395 -0.192189 0)
(0.0382398 -0.198046 0)
(0.0329372 -0.203581 0)
(0.0271542 -0.208768 0)
(0.0209165 -0.213586 0)
(0.0142518 -0.218021 0)
(0.00718786 -0.222064 0)
(-0.000247133 -0.225712 0)
(-0.00802605 -0.228963 0)
(-0.0161237 -0.231822 0)
(-0.0245167 -0.234295 0)
(-0.0331833 -0.23639 0)
(-0.0421027 -0.238117 0)
(-0.0512547 -0.239489 0)
(-0.0606199 -0.240518 0)
(-0.0701798 -0.24122 0)
(-0.0799159 -0.241608 0)
(-0.0898101 -0.241698 0)
(-0.0998436 -0.241506 0)
(-0.109998 -0.241046 0)
(-0.120252 -0.240333 0)
(-0.130587 -0.23938 0)
(-0.140978 -0.238201 0)
(-0.151402 -0.236808 0)
(-0.161829 -0.23521 0)
(-0.172227 -0.233418 0)
(-0.182559 -0.231436 0)
(-0.192775 -0.229271 0)
(-0.202804 -0.226923 0)
(-0.21254 -0.22439 0)
(-0.221899 -0.221668 0)
(-0.23089 -0.218761 0)
(-0.23951 -0.215674 0)
(-0.246714 -0.212403 0)
(-0.248727 -0.208729 0)
(-0.243382 -0.204312 0)
(-0.233804 -0.199401 0)
(-0.223161 -0.194055 0)
(-0.21198 -0.188285 0)
(-0.200212 -0.182107 0)
(-0.187912 -0.175543 0)
(-0.175212 -0.168629 0)
(-0.162257 -0.161406 0)
(-0.149193 -0.15393 0)
(-0.136164 -0.146271 0)
(-0.12334 -0.138515 0)
(-0.110993 -0.130774 0)
(-0.099513 -0.123193 0)
(-0.0893596 -0.115941 0)
(-0.0809889 -0.1092 0)
(-0.0747583 -0.103125 0)
(-0.0708107 -0.0977886 0)
(-0.0690027 -0.0931387 0)
(-0.0689459 -0.0890122 0)
(-0.070143 -0.0851983 0)
(-0.0721266 -0.0815077 0)
(-0.0745343 -0.0778065 0)
(-0.0771182 -0.0740149 0)
(-0.0797244 -0.0700927 0)
(-0.0822641 -0.0660238 0)
(-0.0846875 -0.0618052 0)
(-0.0869663 -0.0574409 0)
(-0.0890839 -0.0529384 0)
(-0.0910297 -0.048307 0)
(-0.0927962 -0.0435568 0)
(-0.0943781 -0.0386986 0)
(-0.0957709 -0.0337437 0)
(-0.0969715 -0.0287038 0)
(-0.0979772 -0.0235917 0)
(-0.098785 -0.0184193 0)
(-0.0993891 -0.0131958 0)
(-0.0997836 -0.00793097 0)
(-0.0999865 -0.00264393 0)
(0.0999811 -0.00377525 0)
(0.0996955 -0.0112902 0)
(0.0991308 -0.0187447 0)
(0.0982702 -0.0261152 0)
(0.0971276 -0.0333814 0)
(0.0957162 -0.0405246 0)
(0.0940483 -0.047527 0)
(0.0921397 -0.0543727 0)
(0.0900119 -0.0610491 0)
(0.0876938 -0.0675479 0)
(0.085223 -0.073867 0)
(0.0826473 -0.0800121 0)
(0.0800249 -0.0859991 0)
(0.0774225 -0.0918555 0)
(0.0749105 -0.0976211 0)
(0.0725535 -0.103346 0)
(0.0703983 -0.109083 0)
(0.06846 -0.114885 0)
(0.0667129 -0.120789 0)
(0.0650876 -0.126812 0)
(0.0634798 -0.132947 0)
(0.0617653 -0.139166 0)
(0.0598196 -0.145425 0)
(0.0575327 -0.151671 0)
(0.0548192 -0.157847 0)
(0.0516211 -0.163899 0)
(0.0479058 -0.169775 0)
(0.0436617 -0.175433 0)
(0.0388925 -0.180834 0)
(0.0336129 -0.185948 0)
(0.0278438 -0.19075 0)
(0.0216099 -0.19522 0)
(0.0149373 -0.199346 0)
(0.00785297 -0.203119 0)
(0.000383986 -0.206533 0)
(-0.00744338 -0.209589 0)
(-0.0156046 -0.212288 0)
(-0.0240771 -0.214635 0)
(-0.0328394 -0.216637 0)
(-0.041871 -0.218301 0)
(-0.051152 -0.219639 0)
(-0.0606631 -0.220661 0)
(-0.0703854 -0.221378 0)
(-0.0802999 -0.221802 0)
(-0.0903878 -0.221947 0)
(-0.100629 -0.221825 0)
(-0.111004 -0.221448 0)
(-0.121491 -0.220828 0)
(-0.132067 -0.219976 0)
(-0.142706 -0.218904 0)
(-0.153381 -0.217621 0)
(-0.164061 -0.216134 0)
(-0.17471 -0.214453 0)
(-0.185284 -0.212581 0)
(-0.195733 -0.210524 0)
(-0.205977 -0.208283 0)
(-0.215907 -0.205859 0)
(-0.225454 -0.20325 0)
(-0.234653 -0.200465 0)
(-0.243455 -0.197525 0)
(-0.250384 -0.194441 0)
(-0.251658 -0.190816 0)
(-0.245626 -0.186514 0)
(-0.235739 -0.181781 0)
(-0.224852 -0.176681 0)
(-0.213408 -0.171219 0)
(-0.201369 -0.165406 0)
(-0.188805 -0.159264 0)
(-0.175855 -0.152828 0)
(-0.16267 -0.146137 0)
(-0.1494 -0.139244 0)
(-0.136195 -0.132213 0)
(-0.123238 -0.125125 0)
(-0.110816 -0.11808 0)
(-0.099333 -0.11121 0)
(-0.0892503 -0.104668 0)
(-0.0810137 -0.0986131 0)
(-0.0749551 -0.0931764 0)
(-0.0711813 -0.0884101 0)
(-0.0695141 -0.0842546 0)
(-0.0695451 -0.0805546 0)
(-0.0707756 -0.0771197 0)
(-0.0727495 -0.0737839 0)
(-0.0751187 -0.0704316 0)
(-0.0776482 -0.0669951 0)
(-0.0801932 -0.0634402 0)
(-0.0826707 -0.0597534 0)
(-0.0850342 -0.0559326 0)
(-0.0872571 -0.051981 0)
(-0.0893236 -0.0479054 0)
(-0.0912235 -0.0437138 0)
(-0.0929494 -0.0394151 0)
(-0.0944959 -0.035019 0)
(-0.0958584 -0.0305353 0)
(-0.0970335 -0.0259747 0)
(-0.0980183 -0.0213487 0)
(-0.0988096 -0.016668 0)
(-0.0994015 -0.0119409 0)
(-0.099788 -0.00717645 0)
(-0.0999868 -0.00239221 0)
(0.0999812 -0.00340841 0)
(0.0996973 -0.0101935 0)
(0.0991359 -0.0169243 0)
(0.0982803 -0.0235796 0)
(0.0971444 -0.0301411 0)
(0.0957413 -0.0365918 0)
(0.0940833 -0.0429159 0)
(0.0921861 -0.0490989 0)
(0.0900711 -0.0551297 0)
(0.0877669 -0.0610006 0)
(0.0853112 -0.0667099 0)
(0.0827514 -0.0722627 0)
(0.0801455 -0.0776734 0)
(0.0775599 -0.0829667 0)
(0.0750647 -0.0881786 0)
(0.0727247 -0.0933539 0)
(0.070587 -0.0985419 0)
(0.0686673 -0.103789 0)
(0.0669406 -0.109129 0)
(0.0653382 -0.114579 0)
(0.063756 -0.120134 0)
(0.0620701 -0.125769 0)
(0.0601552 -0.131443 0)
(0.0579004 -0.137111 0)
(0.055219 -0.142719 0)
(0.0520517 -0.148221 0)
(0.0483644 -0.153569 0)
(0.0441441 -0.158725 0)
(0.0393935 -0.163654 0)
(0.0341257 -0.168327 0)
(0.0283608 -0.172722 0)
(0.0221224 -0.176822 0)
(0.0154356 -0.180614 0)
(0.0083267 -0.184088 0)
(0.000821867 -0.187241 0)
(-0.00705319 -0.190071 0)
(-0.0152745 -0.19258 0)
(-0.0238198 -0.19477 0)
(-0.0326681 -0.196647 0)
(-0.0417989 -0.198218 0)
(-0.0511924 -0.19949 0)
(-0.0608292 -0.200473 0)
(-0.07069 -0.201176 0)
(-0.0807553 -0.20161 0)
(-0.0910054 -0.201784 0)
(-0.10142 -0.201709 0)
(-0.111977 -0.201396 0)
(-0.122653 -0.200853 0)
(-0.133425 -0.200091 0)
(-0.144264 -0.199119 0)
(-0.155141 -0.197944 0)
(-0.166022 -0.196574 0)
(-0.176868 -0.195015 0)
(-0.187634 -0.193271 0)
(-0.198265 -0.191347 0)
(-0.208677 -0.189246 0)
(-0.218759 -0.186967 0)
(-0.228456 -0.184511 0)
(-0.237823 -0.181887 0)
(-0.246744 -0.179112 0)
(-0.2533 -0.176211 0)
(-0.253792 -0.172736 0)
(-0.247177 -0.168655 0)
(-0.237088 -0.1642 0)
(-0.226041 -0.159432 0)
(-0.214403 -0.154351 0)
(-0.202157 -0.148968 0)
(-0.189389 -0.143306 0)
(-0.176247 -0.137395 0)
(-0.162885 -0.131275 0)
(-0.14946 -0.124993 0)
(-0.136126 -0.118609 0)
(-0.123075 -0.112193 0)
(-0.110611 -0.105839 0)
(-0.0991469 -0.0996651 0)
(-0.0891451 -0.0938075 0)
(-0.0810406 -0.0884062 0)
(-0.0751426 -0.0835713 0)
(-0.0715264 -0.0793389 0)
(-0.0699844 -0.0756451 0)
(-0.0700926 -0.0723451 0)
(-0.0713527 -0.0692687 0)
(-0.0733187 -0.0662714 0)
(-0.0756552 -0.0632543 0)
(-0.0781381 -0.0601599 0)
(-0.0806302 -0.0569596 0)
(-0.0830534 -0.0536423 0)
(-0.0853639 -0.0502062 0)
(-0.0875366 -0.0466544 0)
(-0.0895565 -0.0429927 0)
(-0.0914138 -0.039228 0)
(-0.0931015 -0.0353684 0)
(-0.094614 -0.031422 0)
(-0.0959468 -0.0273976 0)
(-0.0970966 -0.0233048 0)
(-0.0980603 -0.0191536 0)
(-0.0988349 -0.0149537 0)
(-0.0994142 -0.0107124 0)
(-0.0997926 -0.00643782 0)
(-0.0999871 -0.00214583 0)
(0.0999813 -0.00304377 0)
(0.0996991 -0.00910318 0)
(0.0991409 -0.0151145 0)
(0.0982901 -0.0210586 0)
(0.0971606 -0.0269193 0)
(0.0957653 -0.0326816 0)
(0.0941164 -0.0383311 0)
(0.0922296 -0.0438552 0)
(0.090126 -0.0492438 0)
(0.0878344 -0.0544903 0)
(0.0853918 -0.059593 0)
(0.0828456 -0.0645565 0)
(0.0802533 -0.0693936 0)
(0.0776813 -0.0741265 0)
(0.0751996 -0.0787871 0)
(0.0728728 -0.0834157 0)
(0.0707484 -0.0880563 0)
(0.0688427 -0.0927505 0)
(0.067131 -0.0975296 0)
(0.0655455 -0.102408 0)
(0.0639822 -0.107383 0)
(0.0623172 -0.112432 0)
(0.0604246 -0.11752 0)
(0.0581929 -0.122604 0)
(0.0555343 -0.127641 0)
(0.0523882 -0.132584 0)
(0.0487195 -0.137395 0)
(0.0445141 -0.142037 0)
(0.0397736 -0.146479 0)
(0.0345102 -0.150697 0)
(0.0287432 -0.154668 0)
(0.0224953 -0.158378 0)
(0.0157911 -0.161815 0)
(0.00865604 -0.16497 0)
(0.00111592 -0.167839 0)
(-0.00680407 -0.17042 0)
(-0.0150803 -0.172713 0)
(-0.0236908 -0.174721 0)
(-0.0326147 -0.176449 0)
(-0.0418317 -0.177901 0)
(-0.0513218 -0.179084 0)
(-0.0610654 -0.180005 0)
(-0.0710428 -0.180673 0)
(-0.0812341 -0.181095 0)
(-0.0916187 -0.18128 0)
(-0.102175 -0.181236 0)
(-0.112881 -0.180973 0)
(-0.123712 -0.180498 0)
(-0.134641 -0.179819 0)
(-0.145641 -0.178944 0)
(-0.156678 -0.177879 0)
(-0.167717 -0.17663 0)
(-0.178718 -0.175202 0)
(-0.189632 -0.173601 0)
(-0.200402 -0.171829 0)
(-0.210942 -0.169888 0)
(-0.221139 -0.16778 0)
(-0.230949 -0.165504 0)
(-0.24044 -0.16307 0)
(-0.249431 -0.160488 0)
(-0.255595 -0.15781 0)
(-0.255374 -0.154567 0)
(-0.248271 -0.150793 0)
(-0.238028 -0.146691 0)
(-0.226864 -0.142315 0)
(-0.215081 -0.137669 0)
(-0.202677 -0.132764 0)
(-0.189754 -0.127621 0)
(-0.176465 -0.12227 0)
(-0.162971 -0.116747 0)
(-0.149429 -0.111095 0)
(-0.135998 -0.105366 0)
(-0.122881 -0.0996241 0)
(-0.110396 -0.0939542 0)
(-0.0989632 -0.0884609 0)
(-0.0890445 -0.0832651 0)
(-0.0810651 -0.0784887 0)
(-0.075314 -0.0742238 0)
(-0.0718389 -0.0704945 0)
(-0.0704078 -0.0672363 0)
(-0.0705842 -0.0643167 0)
(-0.0718708 -0.0615856 0)
(-0.0738307 -0.0589178 0)
(-0.0761397 -0.0562289 0)
(-0.0785826 -0.0534703 0)
(-0.0810291 -0.0506181 0)
(-0.0834048 -0.0476631 0)
(-0.0856685 -0.0446039 0)
(-0.0877965 -0.0414434 0)
(-0.0897744 -0.0381866 0)
(-0.091593 -0.0348395 0)
(-0.0932454 -0.0314089 0)
(-0.0947263 -0.0279023 0)
(-0.0960313 -0.0243271 0)
(-0.0971571 -0.0206918 0)