/*--------------------------------*- C++ -*----------------------------------*\
  =========                 |
  \\      /  F ield         | OpenFOAM: The Open Source CFD Toolbox
   \\    /   O peration     | Website:  https://openfoam.org
    \\  /    A nd           | Version:  8
     \\/     M anipulation  |
\*---------------------------------------------------------------------------*/
FoamFile
{
    version     2.0;
    format      ascii;
    class       volScalarField;
    location    "820/fluid";
    object      CH4;
}
// * * * * * * * * * * * * * * * * * * * * * * * * * * * * * * * * * * * * * //

dimensions      [0 0 0 0 0 0 0];

internalField   nonuniform List<scalar> 
4000
(
0.999997
0.999986
0.999968
0.999938
0.999888
0.999804
0.999667
0.999442
0.999078
0.998496
0.997578
0.996155
0.993991
0.990776
0.98612
0.979577
0.970681
0.959002
0.944213
0.926138
0.904772
0.880269
0.852909
0.823057
0.791128
0.757553
0.722762
0.687165
0.651145
0.615051
0.579192
0.543838
0.509218
0.47552
0.442896
0.411465
0.381318
0.352517
0.325099
0.299081
0.274461
0.251223
0.22934
0.208773
0.18948
0.171409
0.15451
0.138724
0.123999
0.110277
0.0975038
0.0856269
0.0745954
0.0643618
0.0548821
0.0461167
0.0380309
0.0306974
0.0240624
0.0178528
0.0122563
0.00728448
0.00327429
0.00229671
0.00159043
0.00108531
0.000728415
0.00047981
0.000309496
0.000195091
0.000120057
7.23484e-05
4.33736e-05
2.73103e-05
1.9893e-05
1.52644e-05
1.13176e-05
7.95378e-06
5.24389e-06
3.21938e-06
1.83718e-06
9.79323e-07
4.92188e-07
2.36992e-07
1.10762e-07
5.05498e-08
2.26255e-08
9.96437e-09
4.32893e-09
1.85902e-09
7.90497e-10
3.3331e-10
1.39508e-10
5.79968e-11
2.39357e-11
9.77779e-12
3.91718e-12
1.4983e-12
5.01045e-13
8.78905e-14
0.999997
0.999986
0.999968
0.999938
0.999887
0.999803
0.999665
0.999439
0.999074
0.99849
0.997573
0.996155
0.994005
0.99082
0.986223
0.979779
0.971033
0.959559
0.945027
0.927247
0.906192
0.881995
0.854912
0.825294
0.793545
0.76009
0.72536
0.689768
0.653705
0.617525
0.581547
0.546048
0.511264
0.477392
0.444586
0.412971
0.382643
0.353666
0.32608
0.299904
0.275136
0.251762
0.229754
0.209075
0.18968
0.171519
0.154538
0.138684
0.123898
0.110124
0.0973061
0.0853913
0.074328
0.064068
0.0545668
0.0457842
0.0376852
0.0303458
0.0237074
0.0174931
0.0118951
0.00693147
0.0032242
0.0022592
0.00156194
0.00106361
0.000711999
0.000467566
0.00030055
0.000188733
0.00011571
6.95504e-05
4.17768e-05
2.66812e-05
1.97067e-05
1.50276e-05
1.10224e-05
7.65634e-06
4.99005e-06
3.03439e-06
1.72212e-06
9.17941e-07
4.63807e-07
2.25008e-07
1.06098e-07
4.88651e-08
2.20596e-08
9.78787e-09
4.27807e-09
1.84559e-09
7.87253e-10
3.32553e-10
1.39294e-10
5.78989e-11
2.38763e-11
9.74194e-12
3.89761e-12
1.48893e-12
4.97405e-13
8.7224e-14
0.999997
0.999986
0.999968
0.999938
0.999887
0.999803
0.999664
0.999437
0.999071
0.998487
0.99757
0.996155
0.994016
0.990855
0.986302
0.979932
0.971299
0.959984
0.94566
0.928131
0.907361
0.883464
0.856682
0.827344
0.79584
0.762586
0.728002
0.692501
0.656473
0.620276
0.584234
0.548631
0.51371
0.479673
0.446683
0.414872
0.384339
0.355156
0.327366
0.30099
0.276031
0.252476
0.230299
0.209464
0.189927
0.171634
0.154536
0.138577
0.123698
0.109844
0.0969564
0.0849819
0.0738682
0.0635663
0.054031
0.0452216
0.0371025
0.0297578
0.0231168
0.0169069
0.0113275
0.00637393
0.00318417
0.00221907
0.00152611
0.00103374
0.000688284
0.000449494
0.000287296
0.000179394
0.000109437
6.5622e-05
3.96348e-05
2.59309e-05
1.94165e-05
1.46929e-05
1.06615e-05
7.3267e-06
4.72947e-06
2.85507e-06
1.61391e-06
8.59801e-07
4.35468e-07
2.12016e-07
1.00425e-07
4.64849e-08
2.10937e-08
9.40629e-09
4.1304e-09
1.7892e-09
7.65837e-10
3.24395e-10
1.36151e-10
5.66682e-11
2.33857e-11
9.54392e-12
3.81788e-12
1.45797e-12
4.86839e-13
8.53417e-14
0.999997
0.999986
0.999968
0.999938
0.999887
0.999803
0.999665
0.999439
0.999074
0.998494
0.997585
0.996184
0.994068
0.990944
0.986449
0.980163
0.971646
0.960484
0.946345
0.929031
0.908496
0.884843
0.858302
0.829191
0.797889
0.764804
0.730352
0.694941
0.658959
0.622765
0.586685
0.551005
0.515975
0.481801
0.448654
0.416667
0.385947
0.35657
0.328583
0.302013
0.276864
0.253126
0.230775
0.209776
0.190085
0.171656
0.154435
0.138364
0.123386
0.109444
0.0964805
0.0844412
0.0732729
0.062926
0.0533547
0.0445177
0.036379
0.029041
0.0224142
0.0162123
0.0106312
0.00569621
0.00314489
0.00217751
0.00148747
0.0010007
0.000661725
0.000429197
0.000272475
0.000169052
0.000102586
6.14045e-05
3.73912e-05
2.51734e-05
1.90109e-05
1.42586e-05
1.02331e-05
6.95356e-06
4.44106e-06
2.65722e-06
1.49291e-06
7.93012e-07
4.01626e-07
1.95924e-07
9.30893e-08
4.32482e-08
1.97029e-08
8.82176e-09
3.88917e-09
1.69109e-09
7.2637e-10
3.08637e-10
1.29887e-10
5.41836e-11
2.24014e-11
9.15528e-12
3.66625e-12
1.40103e-12
4.67961e-13
8.20393e-14
0.999997
0.999986
0.999968
0.999938
0.999888
0.999804
0.999666
0.999442
0.99908
0.998504
0.997602
0.996214
0.994118
0.991027
0.986582
0.980369
0.971951
0.960917
0.946935
0.929803
0.909465
0.886018
0.859678
0.830758
0.799626
0.766684
0.732344
0.697009
0.661067
0.624877
0.588766
0.553024
0.517902
0.483612
0.450328
0.418188
0.387304
0.357754
0.329592
0.302846
0.277525
0.253621
0.23111
0.209956
0.190124
0.171565
0.154224
0.138047
0.122974
0.10895
0.0959154
0.0838159
0.0725981
0.0622115
0.0526094
0.0437493
0.0356062
0.0282969
0.0216692
0.0154591
0.00989357
0.00502056
0.00310452
0.00212846
0.00144088
0.00096131
0.000630775
0.000406169
0.000256122
0.000157953
9.54275e-05
5.71077e-05
3.51966e-05
2.4506e-05
1.85365e-05
1.377e-05
9.7817e-06
6.58196e-06
4.16726e-06
2.47661e-06
1.38568e-06
7.3495e-07
3.72472e-07
1.82074e-07
8.67425e-08
4.04185e-08
1.84681e-08
8.29211e-09
3.66512e-09
1.59737e-09
6.87513e-10
2.92641e-10
1.23339e-10
5.15148e-11
2.1319e-11
8.71947e-12
3.49361e-12
1.33548e-12
4.46088e-13
7.81988e-14
0.999997
0.999986
0.999968
0.999938
0.999888
0.999805
0.999669
0.999446
0.999087
0.998517
0.997624
0.996249
0.994176
0.991119
0.986722
0.980577
0.972248
0.961326
0.947478
0.930495
0.910319
0.887035
0.860856
0.832085
0.801085
0.768253
0.733997
0.698719
0.662803
0.62661
0.590468
0.554668
0.519465
0.485072
0.451669
0.419396
0.388368
0.358668
0.330351
0.30345
0.277975
0.25392
0.231265
0.209983
0.190029
0.171356
0.153912
0.137642
0.122487
0.108391
0.0952972
0.0831486
0.0718922
0.0614773
0.0518567
0.0429913
0.0348391
0.0275417
0.020903
0.0147038
0.0091584
0.00434501
0.00297543
0.00202192
0.00135938
0.000901798
0.000588775
0.000377375
0.000236923
0.000145522
8.76456e-05
5.2449e-05
3.26508e-05
2.33061e-05
1.77389e-05
1.31489e-05
9.29817e-06
6.22025e-06
3.91435e-06
2.31402e-06
1.28985e-06
6.82746e-07
3.4585e-07
1.69213e-07
8.07368e-08
3.769e-08
1.72565e-08
7.7644e-09
3.43902e-09
1.50182e-09
6.47599e-10
2.7612e-10
1.16551e-10
4.87434e-11
2.0194e-11
8.26645e-12
3.31418e-12
1.26737e-12
4.23372e-13
7.4211e-14
0.999997
0.999986
0.999969
0.999939
0.999889
0.999807
0.999671
0.99945
0.999095
0.998529
0.997645
0.996284
0.994231
0.991203
0.98685
0.980764
0.972513
0.961687
0.947952
0.931095
0.911052
0.887903
0.861852
0.833199
0.802302
0.769553
0.735358
0.700116
0.664214
0.62801
0.591833
0.555977
0.520698
0.486213
0.452704
0.420314
0.389161
0.359331
0.330882
0.303849
0.278243
0.254059
0.231285
0.209888
0.189827
0.171057
0.153525
0.137176
0.121953
0.107799
0.0946573
0.082471
0.0711874
0.0607564
0.051132
0.0422701
0.0341286
0.0269101
0.0201291
0.0139936
0.00850476
0.00375764
0.00262621
0.00180891
0.00122713
0.000818903
0.000536756
0.000344973
0.000217091
0.000133752
8.10135e-05
4.9062e-05
3.13404e-05
2.27992e-05
1.72885e-05
1.27143e-05
8.92872e-06
5.9356e-06
3.71394e-06
2.18512e-06
1.21386e-06
6.41242e-07
3.24557e-07
1.58837e-07
7.58376e-08
3.54349e-08
1.62407e-08
7.31518e-09
3.24357e-09
1.41799e-09
6.12075e-10
2.61225e-10
1.10362e-10
4.61909e-11
1.91493e-11
7.84297e-12
3.14557e-12
1.20312e-12
4.01883e-13
7.0433e-14
0.999997
0.999986
0.999969
0.999939
0.99989
0.999808
0.999674
0.999455
0.999102
0.998542
0.997665
0.996317
0.994283
0.991283
0.986968
0.980934
0.97275
0.962006
0.948366
0.931613
0.911679
0.888637
0.862689
0.834127
0.803307
0.770619
0.736465
0.701246
0.665345
0.629122
0.592908
0.556997
0.521648
0.48708
0.453476
0.420983
0.38972
0.359776
0.331212
0.304063
0.278345
0.254059
0.231185
0.209692
0.189544
0.170693
0.153088
0.136676
0.121399
0.107199
0.0940189
0.0818034
0.0704982
0.0600525
0.0504187
0.0415537
0.0334608
0.0262715
0.0195206
0.0134471
0.00805743
0.00346709
0.00241904
0.00166607
0.00113072
0.000754818
0.000494666
0.000317621
0.000199492
0.000122573
7.40954e-05
4.50429e-05
2.93059e-05
2.19352e-05
1.67796e-05
1.23543e-05
8.65527e-06
5.72921e-06
3.56665e-06
2.08828e-06
1.15546e-06
6.08639e-07
3.07472e-07
1.50362e-07
7.17697e-08
3.35348e-08
1.53735e-08
6.92742e-09
3.07324e-09
1.34432e-09
5.80648e-10
2.47973e-10
1.04829e-10
4.3901e-11
1.82093e-11
7.46106e-12
2.99323e-12
1.14498e-12
3.82423e-13
6.70093e-14
0.999997
0.999987
0.999969
0.99994
0.999891
0.99981
0.999676
0.999459
0.999109
0.998554
0.997684
0.996347
0.994329
0.991353
0.987073
0.981084
0.972957
0.962283
0.948722
0.932055
0.912209
0.889254
0.863386
0.834894
0.804132
0.771487
0.73736
0.702151
0.666242
0.629997
0.593743
0.55778
0.522366
0.487722
0.454034
0.421452
0.390095
0.360055
0.331393
0.304147
0.278338
0.253961
0.231001
0.20943
0.189208
0.170292
0.15263
0.136167
0.120847
0.106612
0.0934052
0.0811699
0.0698527
0.0594028
0.0497736
0.0409237
0.0328707
0.0257029
0.0189817
0.0129503
0.00761709
0.00329525
0.00229837
0.00158285
0.00107465
0.000718104
0.000471447
0.000303562
0.000191454
0.00011833
7.21168e-05
4.43416e-05
2.93301e-05
2.20203e-05
1.67358e-05
1.22506e-05
8.53071e-06
5.60917e-06
3.46989e-06
2.02036e-06
1.11278e-06
5.84113e-07
2.94325e-07
1.43725e-07
6.85342e-08
3.20025e-08
1.46655e-08
6.60723e-09
2.93116e-09
1.28233e-09
5.5399e-10
2.36655e-10
1.00076e-10
4.19244e-11
1.73947e-11
7.12906e-12
2.86047e-12
1.09423e-12
3.65417e-13
6.40124e-14
0.999997
0.999987
0.999969
0.99994
0.999892
0.999811
0.999679
0.999463
0.999116
0.998564
0.997701
0.996373
0.994371
0.991416
0.987164
0.981214
0.973136
0.962519
0.949024
0.932428
0.912654
0.889768
0.863962
0.835524
0.804804
0.772188
0.738077
0.702869
0.666948
0.630676
0.594384
0.55837
0.522896
0.488185
0.454422
0.42176
0.390321
0.360197
0.331453
0.30413
0.278243
0.253792
0.230762
0.209127
0.188847
0.169878
0.15217
0.135668
0.120316
0.106055
0.0928283
0.0805795
0.0692546
0.0588027
0.0491765
0.0403338
0.0323078
0.0251601
0.0184541
0.0124339
0.0071042
0.00321798
0.00223968
0.00153912
0.00104263
0.000695024
0.000455097
0.00029222
0.000183821
0.000113443
6.92591e-05
4.29972e-05
2.91297e-05
2.21419e-05
1.68126e-05
1.22554e-05
8.49129e-06
5.55189e-06
3.41216e-06
1.97507e-06
1.08247e-06
5.6596e-07
2.84303e-07
1.3856e-07
6.59751e-08
3.0774e-08
1.40914e-08
6.34511e-09
2.81391e-09
1.23081e-09
5.31709e-10
2.2715e-10
9.60693e-11
4.02524e-11
1.67039e-11
6.84691e-12
2.74747e-12
1.05097e-12
3.50901e-13
6.14672e-14
0.999997
0.999987
0.999969
0.99994
0.999892
0.999812
0.999681
0.999466
0.999121
0.998574
0.997716
0.996397
0.994407
0.99147
0.987243
0.981325
0.973288
0.96272
0.949279
0.932741
0.913024
0.890193
0.864436
0.836038
0.805348
0.772751
0.738647
0.703434
0.667497
0.631197
0.594868
0.558808
0.52328
0.488509
0.454682
0.421952
0.390443
0.360249
0.331437
0.304045
0.278093
0.253581
0.230494
0.208806
0.18848
0.16947
0.151726
0.135195
0.119818
0.105538
0.0922977
0.0800403
0.0687115
0.05826
0.0486379
0.0398033
0.0317965
0.0246674
0.0179738
0.0119699
0.00665924
0.003187
0.0022164
0.00152271
0.00103171
0.000688147
0.000451016
0.000289964
0.000182684
0.000112947
6.9163e-05
4.32193e-05
2.96924e-05
2.26257e-05
1.70997e-05
1.23936e-05
8.53231e-06
5.54238e-06
3.38582e-06
1.94778e-06
1.06208e-06
5.53001e-07
2.76876e-07
1.34642e-07
6.39979e-08
2.98111e-08
1.3636e-08
6.13516e-09
2.71922e-09
1.18892e-09
5.13488e-10
2.1934e-10
9.27637e-11
3.8869e-11
1.6131e-11
6.61251e-12
2.65347e-12
1.01493e-12
3.38815e-13
5.93642e-14
0.999997
0.999987
0.99997
0.999941
0.999893
0.999813
0.999682
0.999469
0.999126
0.998582
0.997729
0.996417
0.994437
0.991516
0.98731
0.981419
0.973416
0.962888
0.949491
0.933
0.913329
0.890541
0.864821
0.836453
0.805785
0.773199
0.739097
0.703875
0.66792
0.631593
0.595228
0.559126
0.523549
0.488725
0.454841
0.422053
0.390485
0.360233
0.331363
0.303915
0.27791
0.253348
0.230216
0.208487
0.188123
0.169081
0.151311
0.134756
0.119362
0.105069
0.0918197
0.0795578
0.0682285
0.0577804
0.0481675
0.0393468
0.0313534
0.0242341
0.0175554
0.011567
0.00627118
0.00316496
0.00220193
0.00151311
0.00102538
0.000684096
0.000448523
0.000288532
0.000181978
0.000112764
6.93603e-05
4.37314e-05
3.05284e-05
2.32951e-05
1.75223e-05
1.26259e-05
8.63651e-06
5.5722e-06
3.38181e-06
1.93466e-06
1.04946e-06
5.44173e-07
2.71552e-07
1.31746e-07
6.25048e-08
2.90721e-08
1.32822e-08
5.97041e-09
2.64432e-09
1.15557e-09
4.98901e-10
2.13059e-10
9.00954e-11
3.77489e-11
1.56661e-11
6.42203e-12
2.57704e-12
9.85705e-13
3.29049e-13
5.76595e-14
0.999997
0.999987
0.99997
0.999941
0.999893
0.999814
0.999684
0.999472
0.999131
0.998588
0.99774
0.996434
0.994463
0.991555
0.987366
0.981498
0.973522
0.963027
0.949666
0.933212
0.913578
0.890823
0.865132
0.836786
0.806132
0.773553
0.739448
0.704216
0.668242
0.631889
0.595493
0.559352
0.523734
0.488864
0.454932
0.422094
0.390477
0.360176
0.331257
0.303764
0.277715
0.253113
0.229944
0.208182
0.187789
0.168723
0.150931
0.13436
0.118953
0.104652
0.0913975
0.0791341
0.0678074
0.0573665
0.0477613
0.0389445
0.0309657
0.0238622
0.0171983
0.0112251
0.00594413
0.00314672
0.00219273
0.00150918
0.00102431
0.000684424
0.000449448
0.000289625
0.000183041
0.000113736
7.0271e-05
4.46694e-05
3.1618e-05
2.40977e-05
1.80306e-05
1.29163e-05
8.78047e-06
5.62912e-06
3.39531e-06
1.93176e-06
1.04321e-06
5.38755e-07
2.67974e-07
1.29716e-07
6.14282e-08
2.85281e-08
1.30176e-08
5.84566e-09
2.58702e-09
1.12984e-09
4.87571e-10
2.08152e-10
8.80014e-11
3.68665e-11
1.52987e-11
6.27118e-12
2.51644e-12
9.6251e-13
3.21291e-13
5.63046e-14
0.999997
0.999987
0.99997
0.999941
0.999894
0.999815
0.999685
0.999474
0.999134
0.998594
0.997749
0.996448
0.994485
0.991587
0.987412
0.981562
0.97361
0.96314
0.949809
0.933385
0.913779
0.89105
0.86538
0.83705
0.806405
0.773829
0.739719
0.704476
0.668485
0.632108
0.595683
0.55951
0.523854
0.488946
0.454973
0.422095
0.390436
0.360094
0.331136
0.303605
0.277521
0.252887
0.229689
0.207901
0.187487
0.168401
0.150595
0.134012
0.118596
0.104289
0.0910335
0.0787731
0.0674519
0.0570142
0.0474119
0.038604
0.0306401
0.0235495
0.0168978
0.0109367
0.00567347
0.00313135
0.00218637
0.00150781
0.00102547
0.000686645
0.00045191
0.000291913
0.00018499
0.000115329
7.15749e-05
4.57966e-05
3.26813e-05
2.48983e-05
1.8556e-05
1.32294e-05
8.94589e-06
5.70354e-06
3.42161e-06
1.93707e-06
1.04173e-06
5.36233e-07
2.65911e-07
1.28444e-07
6.07148e-08
2.81542e-08
1.28308e-08
5.75574e-09
2.54507e-09
1.11077e-09
4.79091e-10
2.04451e-10
8.64116e-11
3.61931e-11
1.50172e-11
6.1552e-12
2.4698e-12
9.446e-13
3.15307e-13
5.5259e-14
0.999997
0.999987
0.99997
0.999942
0.999894
0.999815
0.999686
0.999476
0.999137
0.998599
0.997756
0.99646
0.994503
0.991613
0.98745
0.981615
0.97368
0.963232
0.949923
0.933522
0.913939
0.89123
0.865576
0.837257
0.806618
0.774041
0.739927
0.704672
0.668665
0.632268
0.595818
0.559616
0.523931
0.488989
0.454984
0.422071
0.390378
0.360003
0.331013
0.303452
0.277341
0.252682
0.229461
0.207653
0.187222
0.168122
0.150304
0.133713
0.118293
0.103985
0.0907304
0.0784698
0.0671479
0.0567142
0.0471199
0.0383209
0.0303706
0.0232908
0.0166489
0.0106968
0.00545487
0.00311888
0.00218292
0.0015091
0.00102891
0.000690736
0.000455837
0.000295306
0.000187742
0.000117481
7.32468e-05
4.71426e-05
3.38385e-05
2.57525e-05
1.91222e-05
1.35742e-05
9.13564e-06
5.79572e-06
3.46008e-06
1.95014e-06
1.04465e-06
5.35963e-07
2.651e-07
1.27797e-07
6.03099e-08
2.79248e-08
1.27098e-08
5.69535e-09
2.51616e-09
1.09736e-09
4.73034e-10
2.01774e-10
8.52515e-11
3.56979e-11
1.48093e-11
6.069e-12
2.43536e-12
9.3118e-13
3.10896e-13
5.44863e-14
0.999997
0.999987
0.99997
0.999942
0.999894
0.999816
0.999687
0.999477
0.999139
0.998603
0.997762
0.996469
0.994517
0.991634
0.987479
0.981656
0.973736
0.963304
0.950013
0.93363
0.914064
0.891369
0.865727
0.837416
0.80678
0.774203
0.740082
0.704818
0.668797
0.632382
0.595911
0.559687
0.523976
0.489008
0.454975
0.422035
0.390315
0.359914
0.330899
0.303315
0.277182
0.252503
0.229265
0.207442
0.186998
0.167889
0.150064
0.133469
0.118046
0.103735
0.0904772
0.0782176
0.0669
0.056472
0.0468845
0.0380934
0.0301545
0.0230839
0.0164501
0.0105051
0.00528025
0.00310886
0.00218186
0.00151258
0.00103425
0.000696394
0.000461014
0.000299661
0.000191207
0.00012014
7.52614e-05
4.87008e-05
3.51044e-05
2.66724e-05
1.97348e-05
1.39524e-05
9.34901e-06
5.90421e-06
3.50929e-06
1.96988e-06
1.05148e-06
5.3781e-07
2.65309e-07
1.27631e-07
6.01256e-08
2.78018e-08
1.26399e-08
5.65813e-09
2.4976e-09
1.08846e-09
4.68938e-10
1.9993e-10
8.4445e-11
3.53494e-11
1.46642e-11
6.00697e-12
2.41199e-12
9.21716e-13
3.07847e-13
5.39507e-14
0.999997
0.999987
0.99997
0.999942
0.999895
0.999816
0.999688
0.999478
0.999141
0.998606
0.997767
0.996476
0.994528
0.99165
0.987502
0.981688
0.973778
0.963359
0.950081
0.933712
0.914158
0.891474
0.865841
0.837535
0.806901
0.774322
0.740196
0.704924
0.668891
0.632462
0.595975
0.559732
0.524001
0.489013
0.454959
0.421998
0.390258
0.359836
0.330802
0.3032
0.277051
0.252358
0.229107
0.207274
0.186822
0.167705
0.149875
0.133274
0.117847
0.103534
0.0902784
0.0780214
0.0667079
0.0562848
0.0467033
0.0379186
0.0299885
0.0229251
0.0162974
0.0103572
0.00514428
0.00310106
0.00218296
0.00151801
0.00104126
0.000703427
0.000467281
0.00030485
0.00019529
0.000123241
7.75744e-05
5.04429e-05
3.6458e-05
2.7642e-05
2.03804e-05
1.43532e-05
9.5783e-06
6.02377e-06
3.56586e-06
1.9942e-06
1.06098e-06
5.4113e-07
2.66292e-07
1.27853e-07
6.01306e-08
2.77644e-08
1.26076e-08
5.63857e-09
2.48703e-09
1.08314e-09
4.66412e-10
1.98767e-10
8.39351e-11
3.51219e-11
1.45755e-11
5.96755e-12
2.39768e-12
9.15671e-13
3.0597e-13
5.36069e-14
0.999997
0.999987
0.99997
0.999942
0.999895
0.999817
0.999688
0.999479
0.999143
0.998608
0.99777
0.996481
0.994535
0.991661
0.987519
0.981711
0.973809
0.963399
0.950131
0.933771
0.914226
0.89155
0.865921
0.837619
0.806986
0.774405
0.740276
0.704997
0.668955
0.632516
0.596016
0.55976
0.524015
0.489011
0.454942
0.421966
0.390211
0.359776
0.330729
0.303114
0.276953
0.25225
0.22899
0.207149
0.186689
0.167567
0.149731
0.133128
0.1177
0.103388
0.0901335
0.0778792
0.0665691
0.0561504
0.0465736
0.037794
0.0298688
0.0228106
0.0161871
0.01025
0.00504534
0.00309541
0.00218602
0.00152514
0.00104967
0.000711573
0.000474405
0.000310681
0.000199837
0.000126664
8.00944e-05
5.22948e-05
3.78393e-05
2.86135e-05
2.10221e-05
1.47506e-05
9.8063e-06
6.14398e-06
3.62391e-06
2.01994e-06
1.07151e-06
5.45109e-07
2.67665e-07
1.28293e-07
6.02542e-08
2.7786e-08
1.26054e-08
5.63249e-09
2.48299e-09
1.0807e-09
4.65261e-10
1.98168e-10
8.36936e-11
3.50035e-11
1.453e-11
5.94643e-12
2.39005e-12
9.12339e-13
3.04957e-13
5.34165e-14
0.999997
0.999987
0.99997
0.999942
0.999895
0.999817
0.999689
0.99948
0.999143
0.998609
0.997772
0.996485
0.994541
0.991669
0.98753
0.981726
0.973829
0.963424
0.950162
0.933808
0.914269
0.891598
0.865973
0.837673
0.80704
0.774458
0.740326
0.705042
0.668995
0.632548
0.59604
0.559775
0.524021
0.489007
0.454928
0.421942
0.390177
0.359732
0.330676
0.303054
0.276885
0.252175
0.228909
0.207063
0.186599
0.167474
0.149637
0.133033
0.117605
0.103293
0.0900406
0.0777885
0.0664813
0.0560659
0.0464929
0.0377171
0.0297906
0.0227347
0.0161103
0.0101677
0.004956
0.0030918
0.00219066
0.00153338
0.00105881
0.000720164
0.000481784
0.000316646
0.000204446
0.000130101
8.25924e-05
5.40832e-05
3.91135e-05
2.94833e-05
2.15853e-05
1.50943e-05
1.00019e-05
6.24685e-06
3.67379e-06
2.04227e-06
1.08078e-06
5.48703e-07
2.68976e-07
1.28722e-07
6.04373e-08
2.78318e-08
1.26249e-08
5.63485e-09
2.48401e-09
1.08021e-09
4.65091e-10
1.9797e-10
8.36204e-11
3.49562e-11
1.45129e-11
5.93721e-12
2.38692e-12
9.10793e-13
3.04516e-13
5.3329e-14
0.999997
0.999987
0.99997
0.999942
0.999895
0.999817
0.999689
0.99948
0.999144
0.99861
0.997773
0.996486
0.994543
0.991672
0.987535
0.981733
0.973838
0.963436
0.950177
0.933826
0.91429
0.891621
0.865998
0.837698
0.807066
0.774483
0.740349
0.705064
0.669013
0.632563
0.596052
0.559782
0.524023
0.489005
0.454921
0.42193
0.39016
0.359711
0.33065
0.303024
0.276852
0.252138
0.22887
0.207021
0.186556
0.167429
0.149591
0.132987
0.117559
0.103249
0.0899969
0.0777462
0.0664408
0.0560274
0.0464564
0.0376827
0.0297572
0.0227028
0.0160789
0.0101354
0.00492337
0.00308998
0.00219557
0.00154082
0.00106658
0.000727218
0.000487696
0.000321342
0.000208026
0.00013274
8.44823e-05
5.53948e-05
3.99848e-05
3.00451e-05
2.19344e-05
1.53006e-05
1.01165e-05
6.3061e-06
3.70225e-06
2.05498e-06
1.08607e-06
5.50771e-07
2.69747e-07
1.28978e-07
6.05527e-08
2.78643e-08
1.26391e-08
5.63798e-09
2.48541e-09
1.08034e-09
4.65159e-10
1.97931e-10
8.36085e-11
3.49425e-11
1.45081e-11
5.93413e-12
2.38592e-12
9.10234e-13
3.0436e-13
5.32977e-14
0.999997
0.999987
0.99997
0.999942
0.999895
0.999817
0.999689
0.99948
0.999144
0.99861
0.997773
0.996486
0.994543
0.991672
0.987535
0.981733
0.973838
0.963436
0.950177
0.933826
0.91429
0.891621
0.865998
0.837698
0.807066
0.774483
0.740349
0.705064
0.669013
0.632563
0.596051
0.559782
0.524023
0.489005
0.454921
0.42193
0.39016
0.35971
0.33065
0.303023
0.276852
0.252138
0.22887
0.207021
0.186556
0.167429
0.149591
0.132987
0.117559
0.103249
0.0899969
0.0777462
0.0664408
0.0560274
0.0464564
0.0376827
0.0297572
0.0227028
0.0160789
0.0101354
0.00492337
0.00308998
0.00219557
0.00154082
0.00106659
0.000727221
0.000487698
0.000321344
0.000208029
0.000132742
8.44838e-05
5.53957e-05
3.99852e-05
3.00453e-05
2.19345e-05
1.53007e-05
1.01165e-05
6.30612e-06
3.70226e-06
2.05498e-06
1.08607e-06
5.50772e-07
2.69751e-07
1.28979e-07
6.05513e-08
2.78645e-08
1.26387e-08
5.63792e-09
2.4853e-09
1.08031e-09
4.65136e-10
1.97926e-10
8.36041e-11
3.49413e-11
1.45073e-11
5.93389e-12
2.38576e-12
9.102e-13
3.04331e-13
5.32957e-14
0.999997
0.999987
0.99997
0.999942
0.999895
0.999817
0.999689
0.99948
0.999143
0.998609
0.997772
0.996485
0.994541
0.991669
0.98753
0.981726
0.973829
0.963424
0.950162
0.933808
0.914269
0.891598
0.865973
0.837672
0.80704
0.774458
0.740325
0.705042
0.668994
0.632548
0.59604
0.559775
0.52402
0.489007
0.454928
0.421942
0.390177
0.359732
0.330676
0.303054
0.276885
0.252175
0.228909
0.207063
0.186599
0.167474
0.149637
0.133033
0.117605
0.103293
0.0900406
0.0777885
0.0664813
0.0560659
0.0464929
0.0377171
0.0297906
0.0227347
0.0161103
0.0101677
0.00495601
0.0030918
0.00219067
0.00153338
0.00105881
0.000720164
0.000481784
0.000316646
0.000204446
0.0001301
8.25918e-05
5.40828e-05
3.91133e-05
2.94833e-05
2.15854e-05
1.50944e-05
1.00019e-05
6.24689e-06
3.67382e-06
2.04229e-06
1.08079e-06
5.48707e-07
2.68985e-07
1.28725e-07
6.04341e-08
2.78324e-08
1.26239e-08
5.63479e-09
2.48376e-09
1.08017e-09
4.65039e-10
1.97958e-10
8.36101e-11
3.49536e-11
1.45108e-11
5.93666e-12
2.38646e-12
9.10723e-13
3.04433e-13
5.33233e-14
0.999997
0.999987
0.99997
0.999942
0.999895
0.999817
0.999688
0.999479
0.999143
0.998608
0.99777
0.996481
0.994535
0.991661
0.987519
0.981711
0.973809
0.963398
0.95013
0.93377
0.914225
0.891549
0.865921
0.837618
0.806985
0.774405
0.740275
0.704996
0.668954
0.632515
0.596015
0.559759
0.524014
0.489011
0.454942
0.421965
0.390211
0.359775
0.330728
0.303113
0.276953
0.252249
0.22899
0.207149
0.186689
0.167567
0.149731
0.133128
0.1177
0.103388
0.0901335
0.0778792
0.0665691
0.0561504
0.0465736
0.037794
0.0298688
0.0228106
0.0161871
0.01025
0.00504535
0.00309542
0.00218603
0.00152514
0.00104967
0.000711576
0.000474408
0.000310683
0.000199839
0.000126665
8.00956e-05
5.22955e-05
3.78396e-05
2.86137e-05
2.10223e-05
1.47507e-05
9.80639e-06
6.14405e-06
3.62396e-06
2.01997e-06
1.07153e-06
5.45117e-07
2.67674e-07
1.28296e-07
6.02543e-08
2.77868e-08
1.26052e-08
5.63257e-09
2.48286e-09
1.08068e-09
4.65227e-10
1.98161e-10
8.36849e-11
3.50014e-11
1.45279e-11
5.9459e-12
2.38944e-12
9.12268e-13
3.04843e-13
5.34089e-14
0.999997
0.999987
0.99997
0.999942
0.999895
0.999816
0.999688
0.999478
0.999141
0.998606
0.997767
0.996476
0.994528
0.991649
0.987502
0.981688
0.973778
0.963358
0.950081
0.933711
0.914158
0.891474
0.86584
0.837534
0.8069
0.774321
0.740195
0.704923
0.66889
0.632461
0.595974
0.559731
0.524001
0.489012
0.454959
0.421998
0.390257
0.359836
0.330802
0.3032
0.277051
0.252357
0.229107
0.207274
0.186822
0.167705
0.149875
0.133274
0.117847
0.103534
0.0902784
0.0780214
0.0667078
0.0562848
0.0467033
0.0379186
0.0299885
0.0229251
0.0162974
0.0103572
0.00514427
0.00310107
0.00218296
0.00151802
0.00104126
0.00070343
0.000467284
0.000304852
0.000195291
0.000123242
7.75752e-05
5.04433e-05
3.64581e-05
2.76422e-05
2.03805e-05
1.43534e-05
9.57841e-06
6.02385e-06
3.56592e-06
1.99424e-06
1.061e-06
5.41143e-07
2.66299e-07
1.27856e-07
6.01323e-08
2.77653e-08
1.2608e-08
5.63865e-09
2.48708e-09
1.08315e-09
4.66415e-10
1.98768e-10
8.39335e-11
3.51218e-11
1.45741e-11
5.96739e-12
2.39703e-12
9.1565e-13
3.0585e-13
5.35995e-14
0.999997
0.999987
0.99997
0.999942
0.999894
0.999816
0.999687
0.999477
0.999139
0.998603
0.997762
0.996469
0.994517
0.991633
0.987479
0.981656
0.973735
0.963303
0.950012
0.933629
0.914063
0.891368
0.865726
0.837415
0.806779
0.774202
0.740081
0.704817
0.668795
0.632381
0.59591
0.559686
0.523975
0.489007
0.454974
0.422034
0.390314
0.359913
0.330899
0.303314
0.277181
0.252502
0.229265
0.207442
0.186998
0.167889
0.150064
0.133469
0.118046
0.103735
0.0904771
0.0782175
0.0669
0.056472
0.0468845
0.0380933
0.0301545
0.0230838
0.0164501
0.0105051
0.00528022
0.00310887
0.00218187
0.00151259
0.00103425
0.000696397
0.000461017
0.000299663
0.000191208
0.000120142
7.52623e-05
4.87015e-05
3.51048e-05
2.66727e-05
1.9735e-05
1.39526e-05
9.34916e-06
5.90432e-06
3.50936e-06
1.96993e-06
1.05151e-06
5.37826e-07
2.65318e-07
1.27635e-07
6.01278e-08
2.78031e-08
1.26403e-08
5.65839e-09
2.49769e-09
1.0885e-09
4.68953e-10
1.99938e-10
8.44476e-11
3.53507e-11
1.4664e-11
6.00751e-12
2.41151e-12
9.21759e-13
3.07768e-13
5.39476e-14
0.999997
0.999987
0.99997
0.999942
0.999894
0.999815
0.999686
0.999476
0.999137
0.998599
0.997756
0.99646
0.994503
0.991613
0.987449
0.981614
0.97368
0.963231
0.949923
0.933521
0.913938
0.891229
0.865575
0.837256
0.806617
0.77404
0.739925
0.704671
0.668663
0.632267
0.595816
0.559615
0.52393
0.488988
0.454983
0.42207
0.390377
0.360002
0.331013
0.303452
0.27734
0.252681
0.229461
0.207653
0.187221
0.168122
0.150304
0.133713
0.118293
0.103985
0.0907303
0.0784697
0.0671478
0.0567142
0.0471199
0.0383209
0.0303706
0.0232908
0.0166489
0.0106967
0.0054548
0.00311889
0.00218292
0.00150911
0.00102892
0.00069074
0.000455841
0.000295309
0.000187744
0.000117482
7.3247e-05
4.71422e-05
3.38379e-05
2.57522e-05
1.91221e-05
1.35743e-05
9.13576e-06
5.79583e-06
3.46016e-06
1.9502e-06
1.04469e-06
5.35983e-07
2.65111e-07
1.27802e-07
6.03127e-08
2.7926e-08
1.27104e-08
5.69564e-09
2.51628e-09
1.09741e-09
4.73058e-10
2.01785e-10
8.52559e-11
3.56998e-11
1.481e-11
6.06934e-12
2.43535e-12
9.31267e-13
3.10863e-13
5.44897e-14
0.999997
0.999987
0.99997
0.999941
0.999894
0.999815
0.999685
0.999474
0.999134
0.998594
0.997749
0.996448
0.994485
0.991587
0.987412
0.981562
0.973609
0.96314
0.949808
0.933384
0.913778
0.891049
0.865379
0.837049
0.806404
0.773827
0.739718
0.704474
0.668483
0.632107
0.595681
0.559508
0.523853
0.488944
0.454972
0.422093
0.390435
0.360093
0.331135
0.303604
0.277521
0.252887
0.229689
0.207901
0.187487
0.168401
0.150594
0.134012
0.118596
0.104289
0.0910334
0.078773
0.0674518
0.0570142
0.0474119
0.0386039
0.0306401
0.0235494
0.0168977
0.0109366
0.00567336
0.00313137
0.0021864
0.00150783
0.00102548
0.000686656
0.000451918
0.00029192
0.000184998
0.000115337
7.15828e-05
4.58032e-05
3.26854e-05
2.49005e-05
1.85571e-05
1.32298e-05
8.94614e-06
5.70369e-06
3.42171e-06
1.93713e-06
1.04177e-06
5.36253e-07
2.65922e-07
1.2845e-07
6.07179e-08
2.81557e-08
1.28315e-08
5.75608e-09
2.54523e-09
1.11084e-09
4.79121e-10
2.04464e-10
8.64173e-11
3.61955e-11
1.50182e-11
6.15562e-12
2.46996e-12
9.44674e-13
3.15314e-13
5.52666e-14
0.999997
0.999987
0.99997
0.999941
0.999893
0.999814
0.999684
0.999472
0.999131
0.998588
0.99774
0.996434
0.994463
0.991554
0.987365
0.981497
0.973522
0.963026
0.949665
0.933211
0.913577
0.890822
0.86513
0.836784
0.80613
0.773551
0.739446
0.704214
0.66824
0.631888
0.595491
0.559351
0.523732
0.488862
0.454931
0.422093
0.390476
0.360175
0.331256
0.303763
0.277714
0.253112
0.229943
0.208181
0.187789
0.168722
0.150931
0.13436
0.118953
0.104651
0.0913973
0.0791339
0.0678073
0.0573665
0.0477612
0.0389444
0.0309656
0.0238621
0.0171982
0.0112249
0.00594393
0.00314669
0.00219266
0.00150909
0.00102424
0.000684363
0.000449398
0.000289582
0.000183002
0.000113699
7.02387e-05
4.4645e-05
3.16037e-05
2.40913e-05
1.80283e-05
1.29156e-05
8.78038e-06
5.62918e-06
3.39539e-06
1.93182e-06
1.04324e-06
5.38777e-07
2.67987e-07
1.29723e-07
6.14316e-08
2.85299e-08
1.30184e-08
5.84604e-09
2.5872e-09
1.12992e-09
4.87607e-10
2.08168e-10
8.80081e-11
3.68694e-11
1.52999e-11
6.27169e-12
2.51665e-12
9.62592e-13
3.21311e-13
5.63118e-14
0.999997
0.999987
0.99997
0.999941
0.999893
0.999813
0.999682
0.999469
0.999126
0.998582
0.997729
0.996417
0.994437
0.991516
0.987309
0.981419
0.973415
0.962887
0.94949
0.932998
0.913328
0.890539
0.864819
0.836451
0.805783
0.773197
0.739095
0.703873
0.667918
0.631591
0.595226
0.559124
0.523548
0.488723
0.45484
0.422052
0.390484
0.360232
0.331362
0.303915
0.277909
0.253347
0.230215
0.208486
0.188123
0.169081
0.15131
0.134756
0.119361
0.105068
0.0918195
0.0795576
0.0682283
0.0577802
0.0481674
0.0393466
0.0313533
0.024234
0.0175552
0.0115668
0.00627092
0.00316501
0.00220212
0.00151341
0.00102572
0.000684412
0.000448801
0.000288771
0.000182181
0.000112919
6.94708e-05
4.38049e-05
3.05659e-05
2.33104e-05
1.75276e-05
1.26276e-05
8.63704e-06
5.5724e-06
3.38192e-06
1.93473e-06
1.0495e-06
5.44198e-07
2.71566e-07
1.31753e-07
6.25085e-08
2.90739e-08
1.32831e-08
5.97083e-09
2.64451e-09
1.15565e-09