/*--------------------------------*- C++ -*----------------------------------*\
  =========                 |
  \\      /  F ield         | OpenFOAM: The Open Source CFD Toolbox
   \\    /   O peration     | Website:  https://openfoam.org
    \\  /    A nd           | Version:  8
     \\/     M anipulation  |
\*---------------------------------------------------------------------------*/
FoamFile
{
    version     2.0;
    format      ascii;
    class       volScalarField;
    location    "820/fluid";
    object      CO2;
}
// * * * * * * * * * * * * * * * * * * * * * * * * * * * * * * * * * * * * * //

dimensions      [0 0 0 0 0 0 0];

internalField   nonuniform List<scalar> 
4000
(
4.74388e-07
2.07291e-06
4.76069e-06
9.26578e-06
1.67847e-05
2.92644e-05
4.98355e-05
8.34603e-05
0.000137871
0.000224871
0.000362026
0.000574692
0.000898069
0.00137873
0.00207461
0.00305253
0.00438227
0.00612796
0.00833852
0.0110403
0.014234
0.0178968
0.0219867
0.0264492
0.0312224
0.0362416
0.0414429
0.0467647
0.0521499
0.0575464
0.0629079
0.068194
0.0733706
0.0784093
0.0832875
0.0879873
0.092495
0.096801
0.100899
0.104788
0.108466
0.111935
0.115199
0.118263
0.121132
0.123812
0.126308
0.128627
0.130774
0.132752
0.134563
0.136207
0.137683
0.138982
0.140095
0.141004
0.141684
0.142092
0.142191
0.141912
0.14116
0.139809
0.137037
0.126498
0.115785
0.105079
0.0945167
0.0842083
0.0742404
0.0646841
0.055599
0.047038
0.0390507
0.0317233
0.0250281
0.019071
0.0139163
0.00962714
0.00625019
0.0037798
0.0021256
0.0011172
0.000554007
0.000263437
0.000121705
5.4955e-05
2.43579e-05
1.06317e-05
4.58124e-06
1.95276e-06
8.2476e-07
3.45639e-07
1.43879e-07
5.95236e-08
2.44617e-08
9.95649e-09
3.97697e-09
1.51775e-09
5.06799e-10
8.88419e-11
4.74943e-07
2.07583e-06
4.76958e-06
9.28896e-06
1.68386e-05
2.9378e-05
5.00531e-05
8.38383e-05
0.000138456
0.00022564
0.000362758
0.000574743
0.000896083
0.00137213
0.00205921
0.0030223
0.00432963
0.0060446
0.00821675
0.0108745
0.0140216
0.0176387
0.0216871
0.0261145
0.0308608
0.035862
0.0410541
0.0463751
0.0517668
0.057176
0.0625552
0.0678629
0.0730639
0.0781288
0.0830341
0.0877613
0.0922961
0.0966283
0.100752
0.104664
0.108363
0.111853
0.115135
0.118216
0.121099
0.123792
0.1263
0.128629
0.130784
0.132769
0.134585
0.136234
0.137713
0.139015
0.14013
0.141039
0.141719
0.142126
0.142222
0.14194
0.141182
0.139819
0.136193
0.125587
0.114821
0.10407
0.0934715
0.0831336
0.0731431
0.0635717
0.0544805
0.0459241
0.0379551
0.0306645
0.024028
0.0181581
0.0131206
0.00897706
0.0057635
0.00345329
0.00193216
0.00101618
0.000507103
0.000243228
0.000113507
5.17855e-05
2.3177e-05
1.02027e-05
4.42738e-06
1.89753e-06
8.04637e-07
3.38106e-07
1.40961e-07
5.8356e-08
2.39829e-08
9.75835e-09
3.89588e-09
1.48608e-09
4.96033e-10
8.696e-11
4.76145e-07
2.08135e-06
4.78345e-06
9.31881e-06
1.68975e-05
2.9486e-05
5.02377e-05
8.41299e-05
0.000138873
0.000226152
0.000363206
0.000574673
0.000894406
0.00136693
0.00204743
0.00299948
0.00428991
0.00598106
0.00812215
0.0107422
0.0138468
0.0174188
0.0214223
0.0258077
0.0305172
0.0354885
0.0406585
0.0459658
0.0513522
0.0567638
0.0621525
0.0674758
0.0726973
0.0777866
0.0827194
0.0874759
0.0920411
0.0964041
0.100558
0.1045
0.108228
0.111744
0.115051
0.118154
0.121058
0.12377
0.126295
0.128638
0.130805
0.1328
0.134626
0.136281
0.137765
0.139071
0.140187
0.141097
0.141775
0.142179
0.142269
0.141976
0.141203
0.139817
0.134708
0.124053
0.113242
0.102456
0.0918323
0.0814826
0.0714954
0.061944
0.0528919
0.0443961
0.0365114
0.0293181
0.0228218
0.0171194
0.0122715
0.00832908
0.00531009
0.0031664
0.00176858
0.000931408
0.000466568
0.000224793
0.000105432
4.83517e-05
2.17511e-05
9.62146e-06
4.19352e-06
1.80421e-06
7.67524e-07
3.23331e-07
1.35055e-07
5.59819e-08
2.30243e-08
9.37131e-09
3.74151e-09
1.42702e-09
4.76204e-10
8.34678e-11
4.7575e-07
2.0796e-06
4.7793e-06
9.30997e-06
1.68784e-05
2.94427e-05
5.01371e-05
8.38981e-05
0.000138356
0.000225047
0.000360967
0.000570381
0.000886655
0.00135359
0.00202546
0.00296491
0.00423791
0.00590636
0.00801962
0.0106075
0.013677
0.0172125
0.0211799
0.0255314
0.0302105
0.0351562
0.0403065
0.0456003
0.0509796
0.0563908
0.0617851
0.0671197
0.0723573
0.077467
0.0824234
0.0872061
0.0917991
0.096191
0.100374
0.104344
0.1081
0.111643
0.114976
0.118103
0.121029
0.12376
0.126302
0.12866
0.13084
0.132846
0.13468
0.136342
0.137831
0.139138
0.140254
0.141162
0.141835
0.142229
0.142306
0.141996
0.141199
0.139779
0.132863
0.122191
0.111362
0.100561
0.0899363
0.0796003
0.069645
0.060146
0.0511682
0.0427701
0.0350081
0.0279346
0.0216077
0.016091
0.0114399
0.00769648
0.00486457
0.00287948
0.00160022
0.000840796
0.000421278
0.000203377
9.567e-05
4.40284e-05
1.98808e-05
8.82804e-06
3.86236e-06
1.66779e-06
7.11886e-07
3.00805e-07
1.2598e-07
5.23376e-08
2.15654e-08
8.79048e-09
3.51357e-09
1.34112e-09
4.47716e-10
7.84871e-11
4.73983e-07
2.07178e-06
4.76091e-06
9.27284e-06
1.68076e-05
2.93111e-05
4.98948e-05
8.34547e-05
0.00013755
0.000223599
0.000358403
0.000565925
0.000879093
0.00134111
0.00200551
0.00293414
0.00419231
0.00584154
0.0079313
0.0104921
0.0135319
0.0170367
0.0209738
0.0252967
0.0299503
0.0348746
0.0400081
0.0452903
0.0506635
0.0560739
0.0614727
0.0668165
0.0720678
0.0771948
0.0821715
0.0869769
0.0915944
0.0960119
0.100221
0.104217
0.107999
0.111566
0.114922
0.118071
0.121017
0.123766
0.126324
0.128696
0.130888
0.132902
0.134743
0.13641
0.137899
0.139206
0.140318
0.141218
0.141879
0.142256
0.142314
0.141978
0.141143
0.139681
0.130922
0.120263
0.10943
0.0986279
0.0880124
0.077703
0.0677938
0.0583615
0.0494709
0.0411802
0.033559
0.0266312
0.0204733
0.0151407
0.0106814
0.0071279
0.00447033
0.00262928
0.00145504
0.000763111
0.000382425
0.000184897
8.71648e-05
4.02128e-05
1.82038e-05
8.10318e-06
3.55339e-06
1.5376e-06
6.57555e-07
2.78308e-07
1.16724e-07
4.85509e-08
2.00249e-08
8.16899e-09
3.26707e-09
1.24751e-09
4.16508e-10
7.30147e-11
4.71139e-07
2.05922e-06
4.73149e-06
9.21395e-06
1.66971e-05
2.91099e-05
4.95354e-05
8.28209e-05
0.000136446
0.000221702
0.000355193
0.000560598
0.000870451
0.00132745
0.00198457
0.00290307
0.00414787
0.00578032
0.00785013
0.0103884
0.0134041
0.0168843
0.0207973
0.0250978
0.0297316
0.0346393
0.03976
0.0450338
0.0504028
0.0558136
0.0612169
0.0665693
0.0718326
0.0769748
0.0819692
0.0867944
0.0914332
0.0958729
0.100105
0.104124
0.107928
0.111517
0.114894
0.118061
0.121024
0.123788
0.126359
0.128742
0.130943
0.132964
0.134809
0.136476
0.137963
0.139264
0.140366
0.141251
0.141894
0.142247
0.142277
0.141906
0.141034
0.139546
0.12929
0.118562
0.107671
0.0968355
0.0862136
0.0759246
0.066061
0.0566967
0.0478936
0.0397054
0.0322126
0.0254254
0.0194354
0.0142834
0.010003
0.00662216
0.00412051
0.00240686
0.00132505
0.000692661
0.000346581
0.000167572
7.90633e-05
3.65247e-05
1.6562e-05
7.3862e-06
3.2453e-06
1.40702e-06
6.02835e-07
2.55592e-07
1.07366e-07
4.47206e-08
1.84669e-08
7.54066e-09
3.01796e-09
1.15292e-09
3.84984e-10
6.7487e-11
4.67827e-07
2.04467e-06
4.69768e-06
9.14703e-06
1.65732e-05
2.88884e-05
4.91475e-05
8.21518e-05
0.000135307
0.000219789
0.000352029
0.000555459
0.000862274
0.00131475
0.00196539
0.00287502
0.0041082
0.00572626
0.00777914
0.0102986
0.0132943
0.0167543
0.020648
0.0249308
0.0295491
0.0344443
0.0395558
0.0448238
0.0501908
0.0556031
0.0610115
0.0663721
0.0716465
0.0768023
0.0818125
0.086655
0.0913124
0.0957714
0.100023
0.104061
0.107884
0.111492
0.114885
0.118068
0.121045
0.123822
0.126404
0.128796
0.131002
0.133027
0.134872
0.136537
0.138018
0.139307
0.140393
0.141254
0.141864
0.142173
0.142149
0.14171
0.140761
0.139209
0.128345
0.117274
0.106192
0.0952583
0.0846003
0.0743191
0.0644968
0.0552017
0.0464937
0.0384287
0.0310965
0.0244446
0.0185743
0.0135472
0.00941365
0.00618323
0.00381866
0.00221623
0.00121422
0.00063275
0.000316082
0.000152781
7.2108e-05
3.33355e-05
1.51304e-05
6.75516e-06
2.97154e-06
1.28988e-06
5.53303e-07
2.34859e-07
9.87623e-08
4.11764e-08
1.70176e-08
6.95361e-09
2.7844e-09
1.06399e-09
3.55294e-10
6.2276e-11
4.64375e-07
2.02953e-06
4.66262e-06
9.07793e-06
1.6446e-05
2.86624e-05
4.87546e-05
8.14798e-05
0.000134174
0.000217907
0.000348954
0.000550527
0.000854533
0.0013029
0.00194774
0.00284955
0.00407268
0.00567845
0.0077171
0.0102209
0.0132003
0.0166442
0.0205225
0.0247916
0.0293982
0.0342841
0.0393893
0.0446538
0.0500205
0.0554353
0.0608491
0.0662177
0.0715026
0.0766707
0.0816948
0.0865526
0.091226
0.0957016
0.0999698
0.104025
0.107864
0.111486
0.114894
0.11809
0.121078
0.123865
0.126455
0.128853
0.131063
0.13309
0.134933
0.136593
0.138065
0.13934
0.140403
0.141233
0.141794
0.142037
0.141914
0.141323
0.140138
0.138217
0.12716
0.115946
0.104773
0.093793
0.0831255
0.0728652
0.063089
0.053861
0.0452362
0.037265
0.0300169
0.0234903
0.0177609
0.0128803
0.00889259
0.00580165
0.00355892
0.00205293
0.00111932
0.000581308
0.000289753
0.000139939
6.60329e-05
3.05333e-05
1.38656e-05
6.19489e-06
2.7274e-06
1.18501e-06
5.08816e-07
2.16185e-07
9.0994e-08
3.79701e-08
1.57043e-08
6.42089e-09
2.5722e-09
9.83127e-10
3.28281e-10
5.75329e-11
4.61026e-07
2.01486e-06
4.62875e-06
9.01142e-06
1.63241e-05
2.8447e-05
4.83824e-05
8.08476e-05
0.000133117
0.000216164
0.000346131
0.000546039
0.00084755
0.0012923
0.00193209
0.00282715
0.00404168
0.00563705
0.00766379
0.0101547
0.0131208
0.0165516
0.0204178
0.0246762
0.0292741
0.0341535
0.0392544
0.0445173
0.0498848
0.055303
0.0607224
0.0660988
0.0713932
0.0765724
0.0816089
0.0864799
0.0911673
0.095657
0.0999395
0.104009
0.107861
0.111495
0.114914
0.11812
0.121118
0.123913
0.126508
0.128911
0.131124
0.13315
0.134991
0.136646
0.138109
0.139371
0.140417
0.141223
0.14175
0.141951
0.141766
0.14109
0.139781
0.137135
0.125951
0.114658
0.103445
0.092457
0.081809
0.0715918
0.0618787
0.0527307
0.0442003
0.0363356
0.029194
0.0227809
0.0171679
0.0123925
0.00848325
0.00548431
0.00333958
0.00191484
0.00103912
0.000537829
0.000267472
0.000129046
6.08634e-05
2.81402e-05
1.27811e-05
5.71251e-06
2.51635e-06
1.094e-06
4.7006e-07
1.99861e-07
8.41825e-08
3.51512e-08
1.4547e-08
5.95057e-09
2.38457e-09
9.11545e-10
3.04355e-10
5.33281e-11
4.5791e-07
2.00123e-06
4.5973e-06
8.9498e-06
1.62115e-05
2.82486e-05
4.80408e-05
8.02698e-05
0.000132154
0.000214588
0.000343591
0.000542026
0.000841347
0.00128295
0.00191838
0.00280766
0.0040149
0.00560154
0.00761839
0.0100986
0.013054
0.0164744
0.0203311
0.0245814
0.0291727
0.0340476
0.0391461
0.0444086
0.0497778
0.0551998
0.0606248
0.0660084
0.0713115
0.0765007
0.081548
0.0864306
0.0911299
0.0956318
0.0999262
0.104006
0.107869
0.111514
0.114942
0.118157
0.121162
0.123962
0.126562
0.128967
0.131181
0.133207
0.135046
0.136696
0.138153
0.139406
0.140442
0.141235
0.141748
0.141935
0.141742
0.141069
0.139791
0.135965
0.124738
0.113419
0.102196
0.0912154
0.0805896
0.070408
0.0607424
0.0516522
0.0431888
0.0354014
0.0283358
0.0220217
0.0165182
0.011871
0.00811281
0.00521496
0.003151
0.00179678
0.000970878
0.000500911
0.000248555
0.000119789
5.64635e-05
2.60994e-05
1.18543e-05
5.29936e-06
2.33518e-06
1.0157e-06
4.36649e-07
1.85762e-07
7.82893e-08
3.27086e-08
1.35428e-08
5.54202e-09
2.22143e-09
8.49262e-10
2.83529e-10
4.96738e-11
4.55099e-07
1.98893e-06
4.56898e-06
8.89439e-06
1.61104e-05
2.8071e-05
4.7736e-05
7.9756e-05
0.000131302
0.000213197
0.00034136
0.000538518
0.000835952
0.00127485
0.00190658
0.00279097
0.00399209
0.00557146
0.00758014
0.0100517
0.0129983
0.0164104
0.0202598
0.0245039
0.0290906
0.0339624
0.0390596
0.0443227
0.0496941
0.0551199
0.0605503
0.0659407
0.0712517
0.0764496
0.0815064
0.0863988
0.0911083
0.0956203
0.0999242
0.104014
0.107886
0.111539
0.114974
0.118195
0.121205
0.124009
0.126612
0.129019
0.131233
0.133258
0.135094
0.13674
0.138192
0.139439
0.140466
0.141251
0.141755
0.141936
0.141738
0.141065
0.139794
0.134831
0.123599
0.112288
0.101084
0.0901309
0.0795448
0.0694142
0.0598106
0.0507817
0.0423797
0.0346493
0.0276318
0.0213922
0.0159768
0.0114244
0.00776137
0.00497994
0.00299509
0.00169686
0.000913237
0.000469779
0.000232614
0.000111989
5.27539e-05
2.43768e-05
1.10708e-05
4.94956e-06
2.18152e-06
9.49177e-07
4.08214e-07
1.73743e-07
7.32578e-08
3.06204e-08
1.26835e-08
5.19206e-09
2.08161e-09
7.95843e-10
2.65671e-10
4.65495e-11
4.5262e-07
1.97809e-06
4.54404e-06
8.84567e-06
1.60217e-05
2.79153e-05
4.74695e-05
7.93079e-05
0.000130561
0.000211991
0.000339434
0.0005355
0.000831327
0.00126794
0.00189654
0.00277685
0.00397288
0.00554624
0.00754823
0.0100128
0.0129524
0.016358
0.0202016
0.0244411
0.0290245
0.0338944
0.0389911
0.0442552
0.0496292
0.0550588
0.0604942
0.0658906
0.0712085
0.0764141
0.0814789
0.0863798
0.0910978
0.0956179
0.0999299
0.104027
0.107906
0.111565
0.115006
0.118232
0.121246
0.124052
0.126657
0.129064
0.131278
0.133301
0.135134
0.136776
0.138222
0.139463
0.140484
0.141261
0.141757
0.141931
0.141728
0.141052
0.139784
0.133819
0.12258
0.111274
0.100089
0.0891706
0.0786238
0.0685266
0.0589488
0.0499601
0.0416092
0.0339433
0.0270056
0.0208459
0.0155126
0.011044
0.0074642
0.00476043
0.00285956
0.00161394
0.000864461
0.000443506
0.000219212
0.000105442
4.96422e-05
2.29319e-05
1.04135e-05
4.65582e-06
2.05237e-06
8.93199e-07
3.84258e-07
1.63604e-07
6.90086e-08
2.88549e-08
1.19562e-08
4.89574e-09
1.96319e-09
7.50648e-10
2.50588e-10
4.39085e-11
4.5048e-07
1.96874e-06
4.52253e-06
8.80367e-06
1.59453e-05
2.77816e-05
4.7241e-05
7.89244e-05
0.000129928
0.000210964
0.000337797
0.000532943
0.000827422
0.00126213
0.00188813
0.00276505
0.00395689
0.00552534
0.00752188
0.00998075
0.0129148
0.0163153
0.0201546
0.0243906
0.0289716
0.0338404
0.0389373
0.0442027
0.0495791
0.0550123
0.0604522
0.065854
0.0711779
0.07639
0.0814617
0.0863696
0.0910944
0.0956212
0.0999397
0.104043
0.107927
0.111591
0.115037
0.118265
0.121282
0.12409
0.126695
0.129102
0.131314
0.133335
0.135165
0.136802
0.138243
0.139477
0.140491
0.141261
0.141749
0.141917
0.141708
0.141031
0.139766
0.132949
0.1217
0.1104
0.0992322
0.0883277
0.0777951
0.0677281
0.0581954
0.049255
0.0409578
0.0333505
0.0264756
0.0203834
0.0151206
0.0107245
0.00721668
0.00458018
0.00273652
0.0015444
0.000825056
0.000421817
0.000208096
0.000100023
4.70679e-05
2.17363e-05
9.86909e-06
4.41231e-06
1.94516e-06
8.46666e-07
3.64315e-07
1.55152e-07
6.54614e-08
2.73793e-08
1.13477e-08
4.64759e-09
1.86397e-09
7.12776e-10
2.37948e-10
4.16952e-11
4.48667e-07
1.96082e-06
4.50432e-06
8.76816e-06
1.58808e-05
2.76688e-05
4.70484e-05
7.86019e-05
0.000129397
0.000210104
0.000336429
0.000530812
0.000824176
0.00125731
0.00188117
0.00275532
0.00394375
0.00550822
0.0075004
0.00995474
0.0128844
0.0162809
0.0201169
0.0243503
0.0289298
0.033798
0.0388953
0.0441621
0.0495409
0.0549773
0.0604211
0.0658275
0.0711565
0.0763739
0.0814513
0.0863648
0.0910951
0.0956274
0.099951
0.104059
0.107947
0.111615
0.115063
0.118294
0.121312
0.124121
0.126726
0.129131
0.131341
0.133359
0.135184
0.136817
0.138252
0.13948
0.140486
0.141249
0.14173
0.141892
0.141679
0.141001
0.139743
0.132212
0.120948
0.109648
0.0984827
0.0875945
0.0770906
0.0670566
0.0575616
0.0486632
0.040412
0.0328543
0.0260323
0.0199967
0.0147934
0.0104588
0.00701215
0.00443274
0.0026376
0.00148226
0.000792475
0.000404805
0.000199229
9.56322e-05
4.49733e-05
2.07611e-05
9.42397e-06
4.21275e-06
1.85712e-06
8.08387e-07
3.47884e-07
1.48179e-07
6.25312e-08
2.6159e-08
1.0844e-08
4.44202e-09
1.78176e-09
6.81379e-10
2.2747e-10
3.986e-11
4.47164e-07
1.95425e-06
4.48924e-06
8.73876e-06
1.58274e-05
2.75755e-05
4.68895e-05
7.83361e-05
0.00012896
0.000209398
0.000335308
0.000529069
0.000821526
0.00125338
0.00187552
0.00274744
0.00393313
0.00549443
0.00748313
0.00993392
0.0128602
0.0162536
0.020087
0.0243187
0.0288971
0.033765
0.0388629
0.0441311
0.0495119
0.054951
0.0603982
0.0658084
0.0711415
0.0763634
0.0814452
0.0863631
0.0910978
0.0956342
0.0999616
0.104073
0.107964
0.111635
0.115084
0.118317
0.121335
0.124144
0.126747
0.129151
0.131358
0.133372
0.135194
0.136821
0.13825
0.139472
0.140472
0.141227
0.141701
0.141857
0.141641
0.140964
0.139716
0.131602
0.120318
0.109013
0.0978568
0.0869858
0.0765052
0.0664993
0.0570362
0.0481732
0.0399606
0.0324443
0.0256663
0.0196777
0.014524
0.0102405
0.00684477
0.00431281
0.00255789
0.00143297
0.000763675
0.000390397
0.000192282
9.21889e-05
4.32955e-05
1.99722e-05
9.06267e-06
4.0505e-06
1.78544e-06
7.77178e-07
3.34473e-07
1.42481e-07
6.01356e-08
2.51608e-08
1.0432e-08
4.27379e-09
1.71457e-09
6.55697e-10
2.18925e-10
3.83628e-11
4.4595e-07
1.94895e-06
4.47706e-06
8.71504e-06
1.57844e-05
2.75005e-05
4.67617e-05
7.81225e-05
0.000128609
0.000208831
0.000334411
0.000527676
0.000819412
0.00125026
0.00187103
0.00274119
0.00392473
0.00548354
0.00746955
0.00991758
0.0128412
0.0162323
0.0200639
0.0242942
0.0288719
0.0337398
0.0388382
0.0441076
0.0494902
0.0549316
0.0603815
0.0657946
0.0711309
0.0763562
0.0814413
0.0863626
0.0911006
0.09564
0.0999702
0.104084
0.107977
0.111649
0.1151
0.118333
0.12135
0.124158
0.126761
0.129162
0.131366
0.133376
0.135193
0.136816
0.138239
0.139454
0.140447
0.141196
0.141664
0.141816
0.141598
0.140923
0.139688
0.131107
0.119807
0.108496
0.0973462
0.086489
0.0760278
0.0660453
0.056609
0.0477754
0.0395945
0.0321122
0.0253701
0.0194198
0.0143064
0.0100646
0.00671025
0.00421678
0.00249438
0.00139397
0.000741128
0.00037779
0.00018586
8.92581e-05
4.19586e-05
1.93442e-05
8.77264e-06
3.91953e-06
1.72754e-06
7.5197e-07
3.23657e-07
1.37889e-07
5.82074e-08
2.43579e-08
1.01015e-08
4.13872e-09
1.66118e-09
6.35236e-10
2.12136e-10
3.71731e-11
4.45007e-07
1.94483e-06
4.4676e-06
8.69662e-06
1.5751e-05
2.74422e-05
4.66625e-05
7.7957e-05
0.000128338
0.000208394
0.000333718
0.000526602
0.000817785
0.00124785
0.00186758
0.0027364
0.0039183
0.00547523
0.00745919
0.00990515
0.0128268
0.0162162
0.0200464
0.0242758
0.028853
0.0337209
0.0388199
0.0440902
0.0494742
0.0549173
0.0603693
0.0657846
0.0711234
0.0763511
0.0814386
0.0863622
0.0911023
0.0956437
0.0999757
0.104091
0.107985
0.111658
0.115109
0.118341
0.121359
0.124165
0.126766
0.129164
0.131366
0.133372
0.135184
0.136802
0.138219
0.139429
0.140415
0.141158
0.141622
0.14177
0.141552
0.140882
0.139661
0.130715
0.119396
0.108082
0.0969386
0.0860935
0.0756488
0.065686
0.0562716
0.047462
0.0393068
0.0318516
0.025138
0.0192181
0.0141366
0.00992756
0.00660573
0.00414239
0.00244537
0.00136407
0.00072408
0.000368579
0.000181087
8.68353e-05
4.08025e-05
1.88324e-05
8.54393e-06
3.81767e-06
1.68256e-06
7.32389e-07
3.15259e-07
1.34331e-07
5.67177e-08
2.37384e-08
9.84933e-09
4.03578e-09
1.62063e-09
6.19662e-10
2.06988e-10
3.62673e-11
4.44316e-07
1.94182e-06
4.46067e-06
8.68313e-06
1.57265e-05
2.73996e-05
4.659e-05
7.78361e-05
0.00012814
0.000208074
0.000333213
0.000525819
0.0008166
0.0012461
0.00186508
0.00273293
0.00391365
0.00546922
0.00745171
0.0098962
0.0128165
0.0162047
0.0200339
0.0242627
0.0288396
0.0337076
0.0388069
0.044078
0.049463
0.0549073
0.0603607
0.0657776
0.0711179
0.0763471
0.0814361
0.0863611
0.0911025
0.0956451
0.099978
0.104094
0.107989
0.111662
0.115113
0.118344
0.121361
0.124165
0.126764
0.12916
0.131358
0.13336
0.135169
0.136781
0.138194
0.139398
0.140379
0.141118
0.141578
0.141726
0.14151
0.140847
0.13964
0.130426
0.119088
0.107769
0.0966294
0.0857939
0.0753626
0.0654155
0.0560187
0.0472278
0.0390924
0.031658
0.0249661
0.019069
0.0140113
0.00982678
0.0065291
0.00408802
0.00240964
0.0013423
0.000711688
0.000361922
0.000177673
8.51519e-05
3.99934e-05
1.84483e-05
8.37353e-06
3.74331e-06
1.65046e-06
7.18593e-07
3.09387e-07
1.31839e-07
5.56828e-08
2.33062e-08
9.67283e-09
3.96349e-09
1.59203e-09
6.0866e-10
2.03346e-10
3.56257e-11
4.43864e-07
1.93984e-06
4.45614e-06
8.67432e-06
1.57106e-05
2.73717e-05
4.65427e-05
7.77573e-05
0.00012801
0.000207866
0.000332885
0.00052531
0.00081583
0.00124497
0.00186345
0.00273068
0.00391063
0.00546533
0.00744688
0.00989042
0.0128098
0.0161972
0.0200259
0.0242542
0.028831
0.033699
0.0387986
0.0440701
0.0494558
0.0549009
0.0603551
0.0657729
0.0711142
0.0763442
0.081434
0.0863596
0.0911015
0.0956446
0.0999779
0.104094
0.107989
0.111662
0.115112
0.118343
0.121358
0.124161
0.126757
0.129151
0.131346
0.133345
0.13515
0.136758
0.138166
0.139366
0.140344
0.14108
0.141541
0.141693
0.141489
0.140852
0.139696
0.130235
0.118878
0.107554
0.0964158
0.0855875
0.0751663
0.0652312
0.0558473
0.04707
0.0389487
0.0315288
0.0248518
0.0189703
0.0139287
0.00976059
0.00647902
0.00405267
0.00238651
0.00132822
0.000703663
0.000357608
0.000175464
8.40704e-05
3.94925e-05
1.82109e-05
8.265e-06
3.69374e-06
1.62924e-06
7.09406e-07
3.05566e-07
1.30222e-07
5.50167e-08
2.30282e-08
9.5598e-09
3.91719e-09
1.57376e-09
6.01624e-10
2.01023e-10
3.5216e-11
4.43644e-07
1.93889e-06
4.45395e-06
8.67005e-06
1.57029e-05
2.73583e-05
4.652e-05
7.77195e-05
0.000127949
0.000207767
0.000332728
0.000525069
0.000815465
0.00124443
0.00186269
0.00272961
0.00390921
0.00546349
0.0074446
0.00988768
0.0128067
0.0161937
0.020022
0.0242502
0.0288269
0.0336949
0.0387946
0.0440664
0.0494523
0.0548978
0.0603524
0.0657706
0.0711123
0.0763427
0.0814328
0.0863585
0.0911004
0.0956434
0.0999766
0.104093
0.107988
0.11166
0.11511
0.11834
0.121354
0.124156
0.126751
0.129143
0.131336
0.133333
0.135134
0.13674
0.138144
0.139341
0.140316
0.141049
0.141509
0.141661
0.141461
0.140831
0.139688
0.130141
0.118768
0.107438
0.0963016
0.085478
0.0750634
0.0651356
0.0557594
0.04699
0.0388765
0.0314645
0.0247956
0.0189221
0.0138887
0.00972883
0.00645517
0.00403598
0.00237569
0.00132169
0.000699954
0.000355614
0.000174442
8.35706e-05
3.92642e-05
1.81029e-05
8.21665e-06
3.67153e-06
1.61945e-06
7.05046e-07
3.03717e-07
1.2943e-07
5.46901e-08
2.28919e-08
9.50445e-09
3.89455e-09
1.56483e-09
5.98187e-10
1.99887e-10
3.50161e-11
4.43645e-07
1.93889e-06
4.45396e-06
8.67007e-06
1.57029e-05
2.73584e-05
4.65201e-05
7.77197e-05
0.000127949
0.000207768
0.000332729
0.00052507
0.000815467
0.00124444
0.00186269
0.00272962
0.00390921
0.0054635
0.00744461
0.00988769
0.0128067
0.0161937
0.0200221
0.0242502
0.0288269
0.0336949
0.0387947
0.0440664
0.0494523
0.0548978
0.0603524
0.0657707
0.0711123
0.0763427
0.0814328
0.0863585
0.0911004
0.0956434
0.0999766
0.104093
0.107988
0.11166
0.11511
0.11834
0.121354
0.124156
0.126751
0.129143
0.131336
0.133333
0.135134
0.13674
0.138144
0.139341
0.140316
0.141049
0.141509
0.141661
0.141461
0.140831
0.139688
0.130141
0.118768
0.107438
0.0963016
0.085478
0.0750634
0.0651356
0.0557594
0.04699
0.0388765
0.0314645
0.0247956
0.0189221
0.0138888
0.00972884
0.00645518
0.00403599
0.0023757
0.0013217
0.000699957
0.000355615
0.000174443
8.35712e-05
3.92639e-05
1.81028e-05
8.21647e-06
3.67146e-06
1.6194e-06
7.05024e-07
3.03705e-07
1.29425e-07
5.46878e-08
2.2891e-08
9.50401e-09
3.89438e-09
1.56475e-09
5.98158e-10
1.99872e-10
3.50142e-11
4.43867e-07
1.93986e-06
4.45618e-06
8.67438e-06
1.57107e-05
2.73719e-05
4.6543e-05
7.77578e-05
0.000128011
0.000207868
0.000332887
0.000525313
0.000815835
0.00124498
0.00186346
0.00273069
0.00391065
0.00546535
0.00744691
0.00989045
0.0128099
0.0161973
0.0200259
0.0242543
0.028831
0.033699
0.0387987
0.0440702
0.0494558
0.054901
0.0603552
0.065773
0.0711142
0.0763443
0.0814341
0.0863596
0.0911016
0.0956447
0.0999779
0.104094
0.107989
0.111662
0.115112
0.118343
0.121358
0.124161
0.126757
0.129151
0.131346
0.133345
0.13515
0.136758
0.138166
0.139366
0.140344
0.14108
0.141541
0.141693
0.141489
0.140852
0.139696
0.130235
0.118878
0.107554
0.0964158
0.0855875
0.0751663
0.0652312
0.0558473
0.0470701
0.0389487
0.0315288
0.0248518
0.0189703
0.0139288
0.00976063
0.00647905
0.00405269
0.00238652
0.00132823
0.00070367
0.000357612
0.000175467
8.40719e-05
3.9492e-05
1.82107e-05
8.26461e-06
3.69359e-06
1.62913e-06
7.0936e-07
3.0554e-07
1.30212e-07
5.50115e-08
2.30263e-08
9.55878e-09
3.9168e-09
1.57352e-09
6.01551e-10
2.00982e-10
3.52109e-11
4.44321e-07
1.94184e-06
4.46072e-06
8.68323e-06
1.57267e-05
2.73999e-05
4.65906e-05
7.7837e-05
0.000128141
0.000208077
0.000333217
0.000525824
0.000816608
0.00124612
0.00186509
0.00273295
0.00391368
0.00546926
0.00745176
0.00989626
0.0128166
0.0162048
0.020034
0.0242628
0.0288397
0.0337077
0.038807
0.0440781
0.0494631
0.0549074
0.0603608
0.0657776
0.071118
0.0763472
0.0814362
0.0863612
0.0911026
0.0956452
0.0999781
0.104094
0.107989
0.111662
0.115113
0.118344
0.121361
0.124165
0.126764
0.12916
0.131358
0.13336
0.135169
0.136781
0.138194
0.139398
0.140379
0.141118
0.141578
0.141726
0.14151
0.140847
0.13964
0.130426
0.119088
0.107769
0.0966294
0.0857939
0.0753626
0.0654155
0.0560187
0.0472279
0.0390925
0.031658
0.0249661
0.019069
0.0140114
0.00982684
0.00652915
0.00408806
0.00240967
0.00134232
0.0007117
0.000361929
0.000177677
8.51537e-05
3.99941e-05
1.84486e-05
8.37348e-06
3.74326e-06
1.65038e-06
7.18552e-07
3.09361e-07
1.31828e-07
5.56765e-08
2.33036e-08
9.67139e-09
3.9629e-09
1.59166e-09
6.08547e-10
2.03284e-10
3.56178e-11
4.45014e-07
1.94487e-06
4.46767e-06
8.69676e-06
1.57512e-05
2.74426e-05
4.66632e-05
7.79582e-05
0.00012834
0.000208397
0.000333723
0.000526609
0.000817795
0.00124787
0.00186761
0.00273643
0.00391834
0.00547528
0.00745926
0.00990523
0.0128269
0.0162163
0.0200465
0.0242759
0.0288532
0.0337211
0.03882
0.0440904
0.0494744
0.0549175
0.0603694
0.0657848
0.0711235
0.0763512
0.0814387
0.0863623
0.0911024
0.0956438
0.0999758
0.104091
0.107986
0.111658
0.115109
0.118342
0.121359
0.124165
0.126766
0.129164
0.131366
0.133372
0.135184
0.136802
0.138219
0.139429
0.140415
0.141158
0.141622
0.14177
0.141552
0.140882
0.139661
0.130715
0.119396
0.108082
0.0969385
0.0860935
0.0756488
0.065686
0.0562716
0.047462
0.0393068
0.0318516
0.0251381
0.0192182
0.0141367
0.00992764
0.00660581
0.00414244
0.00244541
0.0013641
0.000724096
0.000368589
0.000181091
8.68377e-05
4.08036e-05
1.88328e-05
8.54406e-06
3.81765e-06
1.68257e-06
7.32386e-07
3.15256e-07
1.34328e-07
5.67157e-08
2.37374e-08
9.84847e-09
4.03539e-09
1.62028e-09
6.19561e-10
2.06923e-10
3.62594e-11
4.45959e-07
1.94899e-06
4.47715e-06
8.71522e-06
1.57847e-05
2.7501e-05
4.67626e-05
7.8124e-05
0.000128612
0.000208835
0.000334417
0.000527685
0.000819426
0.00125028
0.00187106
0.00274123
0.00392478
0.00548361
0.00746963
0.00991768
0.0128413
0.0162325
0.020064
0.0242944
0.0288721
0.0337399
0.0388384
0.0441077
0.0494904
0.0549317
0.0603816
0.0657947
0.0711311
0.0763563
0.0814415
0.0863627
0.0911007
0.0956401
0.0999703
0.104084
0.107977
0.111649
0.1151
0.118333
0.121351
0.124158
0.126761
0.129162
0.131366
0.133376
0.135193
0.136816
0.138239
0.139454
0.140447
0.141196
0.141664
0.141816
0.141598
0.140923
0.139688
0.131106
0.119806
0.108496
0.097346
0.0864888
0.0760277
0.0660452
0.0566088
0.0477753
0.0395945
0.0321122
0.0253701
0.0194198
0.0143065
0.0100647
0.00671033
0.00421684
0.00249443
0.00139401
0.000741148
0.000377801
0.000185866
8.92612e-05
4.19601e-05
1.93449e-05
8.7729e-06
3.91973e-06
1.72762e-06
7.52011e-07
3.23672e-07
1.37896e-07
5.82097e-08
2.43589e-08
1.01016e-08
4.13883e-09
1.661e-09
6.35201e-10
2.12099e-10
3.71692e-11
4.47175e-07
1.9543e-06
4.48934e-06
8.73897e-06
1.58278e-05
2.75762e-05
4.68906e-05
7.83379e-05
0.000128963
0.000209402
0.000335315
0.00052908
0.000821542
0.00125341
0.00187555
0.00274749
0.00393319
0.00549451
0.00748323
0.00993404
0.0128603
0.0162538
0.0200872
0.0243189
0.0288973
0.0337652
0.0388631
0.0441313
0.0495121
0.0549512
0.0603984
0.0658085
0.0711417
0.0763635
0.0814453
0.0863633
0.0910979
0.0956343
0.0999617
0.104073
0.107964
0.111635
0.115085
0.118317
0.121335
0.124144
0.126747
0.129151
0.131359
0.133372
0.135194
0.136821
0.13825
0.139472
0.140472
0.141227
0.141701
0.141857
0.141641
0.140964
0.139716
0.131601
0.120318
0.109012
0.0978564
0.0869854
0.0765049
0.0664989
0.0570359
0.048173
0.0399604
0.0324442
0.0256662
0.0196777
0.014524
0.0102406
0.00684485
0.00431288
0.00255795
0.001433
0.000763698
0.00039041
0.000192289
9.21923e-05
4.32973e-05
1.99731e-05
9.06315e-06
4.05072e-06
1.78554e-06
7.77221e-07
3.34492e-07
1.42489e-07
6.01389e-08
2.51622e-08
1.04325e-08
4.27399e-09
1.7146e-09
6.5572e-10
2.18914e-10
3.83633e-11
4.48679e-07
1.96087e-06
4.50445e-06
8.7684e-06
1.58812e-05
2.76695e-05
4.70497e-05
7.8604e-05
0.0001294
0.000210109
0.000336438
0.000530825
0.000824195
0.00125734
0.00188121
0.00275538
0.00394382
0.00550831
0.00750051
0.00995488
0.0128846
0.0162811
0.020117
0.0243506
0.02893
0.0337982
0.0388955
0.0441624
0.0495411
0.0549775
0.0604214
0.0658277
0.0711567
0.0763741
0.0814515
0.086365
0.0910953
0.0956276
0.0999511
0.104059
0.107947
0.111615
0.115063
0.118294
0.121312
0.124121
0.126726
0.129131
0.131341
0.133359
0.135184
0.136817
0.138252
0.13948
0.140486
0.141249
0.14173
0.141892
0.141679
0.141001
0.139743
0.132212
0.120947
0.109647
0.0984816
0.0875933
0.0770897
0.067056
0.0575612
0.048663
0.0404118
0.0328542
0.0260322
0.0199966
0.0147934
0.0104588
0.00701221
0.00443281
0.00263766
0.0014823
0.0007925
0.000404819
0.000199236
9.56365e-05
4.49754e-05
2.07622e-05
9.42449e-06
4.21299e-06
1.85723e-06
8.08436e-07
3.47906e-07
1.48188e-07
6.25351e-08
2.61606e-08
1.08447e-08
4.44229e-09
1.78186e-09
6.81417e-10
2.27479e-10
3.98632e-11
4.50494e-07
1.9688e-06
4.52267e-06
8.80395e-06
1.59458e-05
2.77825e-05
4.72424e-05
7.89267e-05
0.000129932
0.00021097
0.000337806
0.000532957
0.000827444
0.00126216
0.00188817
0.00276511
0.00395697
0.00552544
0.00752201
0.00998091
0.012915
0.0163155
0.0201548
0.0243908
0.0289719
0.0338407
0.0389375
0.044203
0.0495794
0.0550126
0.0604525
0.0658542
0.0711782
0.0763902
0.0814619
0.0863698
0.0910946
0.0956214
0.0999399
0.104043
0.107927
0.111592
0.115037
0.118266
0.121282
0.12409
0.126695
0.129102
0.131314
0.133335
0.135165
0.136802
0.138243
0.139477
0.140491
0.141261
0.141749
0.141917
0.141708
0.141031
0.139766
0.132948
0.121699
0.110398
0.0992291
0.0883217
0.0777925
0.0677275
0.0581961
0.0492564
0.0409592
0.0333512
0.0264759
0.0203835
0.0151206
0.0107245
0.00721674
0.00458025
0.00273658
0.00154445
0.000825083
0.000421833
0.000208106
0.000100028
4.70705e-05
2.17376e-05
9.86969e-06
4.41259e-06
1.94529e-06
8.46723e-07
3.6434e-07
1.55163e-07
6.5466e-08
2.73812e-08
1.13485e-08
4.64791e-09
1.8641e-09
7.12825e-10
2.37962e-10
4.16987e-11
4.52636e-07
1.97816e-06
4.5442e-06
8.84597e-06
1.60222e-05
2.79163e-05
4.74711e-05
7.93105e-05
0.000130565
0.000211998
0.000339444
0.000535516
0.000831351
0.00126798
0.00189659
0.00277692
0.00397297
0.00554636