/*--------------------------------*- C++ -*----------------------------------*\
  =========                 |
  \\      /  F ield         | OpenFOAM: The Open Source CFD Toolbox
   \\    /   O peration     | Website:  https://openfoam.org
    \\  /    A nd           | Version:  8
     \\/     M anipulation  |
\*---------------------------------------------------------------------------*/
FoamFile
{
    version     2.0;
    format      ascii;
    class       volScalarField;
    location    "820/fluid";
    object      H2O;
}
// * * * * * * * * * * * * * * * * * * * * * * * * * * * * * * * * * * * * * //

dimensions      [0 0 0 0 0 0 0];

internalField   nonuniform List<scalar> 
4000
(
3.88377e-07
1.69707e-06
3.89753e-06
7.58581e-06
1.37415e-05
2.39585e-05
4.07998e-05
6.83282e-05
0.000112874
0.0001841
0.000296387
0.000470495
0.000735241
0.00112875
0.00169847
0.00249908
0.00358773
0.00501691
0.00682667
0.00903856
0.0116532
0.0146519
0.0180003
0.0216537
0.0255615
0.0296707
0.0339289
0.0382858
0.0426947
0.0471127
0.0515021
0.0558299
0.0600678
0.064193
0.0681867
0.0720344
0.0757248
0.0792501
0.0826055
0.0857888
0.0887998
0.0916401
0.0943125
0.0968208
0.0991695
0.101363
0.103407
0.105306
0.107064
0.108683
0.110165
0.111512
0.11272
0.113784
0.114695
0.115439
0.115995
0.11633
0.11641
0.116182
0.115567
0.11446
0.112191
0.103563
0.0947924
0.086027
0.07738
0.0689406
0.06078
0.0529563
0.0455184
0.0385096
0.0319704
0.0259716
0.0204902
0.0156133
0.0113932
0.00788166
0.00511697
0.00309449
0.00174021
0.000914643
0.00045356
0.000215673
9.96385e-05
4.49912e-05
1.99416e-05
8.70412e-06
3.75062e-06
1.59871e-06
6.75224e-07
2.82972e-07
1.17792e-07
4.87315e-08
2.00266e-08
8.15129e-09
3.25591e-09
1.24257e-09
4.14912e-10
7.27341e-11
3.88832e-07
1.69946e-06
3.90481e-06
7.60479e-06
1.37856e-05
2.40515e-05
4.0978e-05
6.86377e-05
0.000113353
0.000184729
0.000296987
0.000470537
0.000733615
0.00112335
0.00168586
0.00247433
0.00354463
0.00494866
0.00672698
0.00890283
0.0114794
0.0144407
0.017755
0.0213797
0.0252655
0.0293599
0.0336106
0.0379669
0.042381
0.0468095
0.0512134
0.0555588
0.0598168
0.0639633
0.0679793
0.0718494
0.075562
0.0791087
0.0824846
0.0856872
0.0887162
0.0915729
0.0942603
0.0967821
0.0991428
0.101347
0.103401
0.105307
0.107072
0.108696
0.110184
0.111534
0.112745
0.113811
0.114723
0.115468
0.116024
0.116358
0.116436
0.116205
0.115584
0.114468
0.1115
0.102817
0.0940026
0.0852011
0.0765243
0.0680607
0.0598816
0.0520456
0.0446027
0.0375977
0.0310735
0.0251048
0.0196715
0.0148659
0.0107417
0.00734944
0.00471853
0.00282718
0.00158184
0.000831937
0.000415161
0.000199128
9.2927e-05
4.23963e-05
1.89748e-05
8.35289e-06
3.62465e-06
1.55349e-06
6.58749e-07
2.76804e-07
1.15404e-07
4.77755e-08
1.96346e-08
7.98907e-09
3.18952e-09
1.21664e-09
4.06098e-10
7.11934e-11
3.89816e-07
1.70398e-06
3.91617e-06
7.62923e-06
1.38338e-05
2.41399e-05
4.11292e-05
6.88764e-05
0.000113694
0.000185149
0.000297354
0.00047048
0.000732242
0.00111909
0.00167621
0.00245565
0.00351211
0.00489664
0.00664953
0.00879456
0.0113363
0.0142607
0.0175383
0.0211286
0.0249841
0.0290541
0.0332868
0.0376318
0.0420416
0.046472
0.0508837
0.0552418
0.0595166
0.0636832
0.0677216
0.0716158
0.0753532
0.0789252
0.082326
0.0855529
0.088605
0.0914836
0.0941913
0.0967318
0.0991095
0.10133
0.103396
0.105315
0.107089
0.108722
0.110217
0.111572
0.112787
0.113856
0.11477
0.115515
0.11607
0.116401
0.116474
0.116235
0.115601
0.114467
0.110284
0.101561
0.0927106
0.0838796
0.0751823
0.0667091
0.0585326
0.050713
0.0433021
0.0363467
0.0298915
0.0240025
0.018684
0.0140155
0.0100466
0.00681894
0.00434733
0.0025923
0.00144792
0.000762536
0.000381975
0.000184036
8.63162e-05
3.95851e-05
1.78074e-05
7.877e-06
3.4332e-06
1.47709e-06
6.28365e-07
2.64708e-07
1.10569e-07
4.58319e-08
1.88498e-08
7.67221e-09
3.06314e-09
1.16828e-09
3.89864e-10
6.83344e-11
3.89492e-07
1.70255e-06
3.91277e-06
7.62199e-06
1.38182e-05
2.41044e-05
4.10468e-05
6.86866e-05
0.000113271
0.000184244
0.000295521
0.000466966
0.000725897
0.00110817
0.00165823
0.00242734
0.00346954
0.00483549
0.00656559
0.00868428
0.0111972
0.0140917
0.0173398
0.0209023
0.0247331
0.0287821
0.0329986
0.0373325
0.0417366
0.0461666
0.0505829
0.0549503
0.0592383
0.0634216
0.0674793
0.0713948
0.0751551
0.0787507
0.0821754
0.0854258
0.0885009
0.0914015
0.0941299
0.0966897
0.0990855
0.101321
0.103402
0.105333
0.107118
0.10876
0.110261
0.111622
0.112841
0.113911
0.114825
0.115568
0.116119
0.116441
0.116505
0.116251
0.115598
0.114436
0.108774
0.100037
0.0911708
0.0823288
0.0736301
0.0651681
0.0570178
0.049241
0.0418909
0.0350155
0.0286609
0.0228698
0.0176901
0.0131736
0.00936574
0.00630104
0.00398258
0.0023574
0.00131008
0.000688352
0.000344896
0.000166503
7.83242e-05
3.60457e-05
1.62763e-05
7.22744e-06
3.16208e-06
1.36541e-06
5.82815e-07
2.46266e-07
1.03138e-07
4.28483e-08
1.76554e-08
7.19669e-09
2.87652e-09
1.09797e-09
3.66541e-10
6.42567e-11
3.88046e-07
1.69615e-06
3.89771e-06
7.59159e-06
1.37603e-05
2.39967e-05
4.08484e-05
6.83236e-05
0.000112611
0.000183059
0.000293421
0.000463318
0.000719706
0.00109795
0.00164189
0.00240215
0.00343221
0.00478242
0.00649328
0.00858977
0.0110784
0.0139478
0.017171
0.0207102
0.0245201
0.0285515
0.0327542
0.0370787
0.0414777
0.0459072
0.0503272
0.0547021
0.0590013
0.0631987
0.0672731
0.0712072
0.0749876
0.0786041
0.0820501
0.0853218
0.0884177
0.0913383
0.0940859
0.096664
0.0990759
0.101326
0.10342
0.105362
0.107157
0.108806
0.110313
0.111677
0.112897
0.113967
0.114877
0.115614
0.116155
0.116464
0.116512
0.116236
0.115552
0.114355
0.107185
0.0984584
0.0895894
0.0807458
0.0720549
0.0636147
0.0555022
0.04778
0.0405014
0.0337139
0.0274745
0.0218027
0.0167613
0.0123956
0.00874473
0.00583555
0.00365982
0.00215257
0.00119123
0.000624752
0.000313088
0.000151374
7.13611e-05
3.29219e-05
1.49033e-05
6.634e-06
2.90913e-06
1.25882e-06
5.38335e-07
2.27848e-07
9.55611e-08
3.97482e-08
1.63942e-08
6.68788e-09
2.67472e-09
1.02132e-09
3.40991e-10
5.97765e-11
3.85717e-07
1.68587e-06
3.87363e-06
7.54338e-06
1.36697e-05
2.3832e-05
4.05542e-05
6.78048e-05
0.000111707
0.000181505
0.000290793
0.000458957
0.00071263
0.00108677
0.00162475
0.00237672
0.00339582
0.0047323
0.00642683
0.00850491
0.0109738
0.013823
0.0170266
0.0205474
0.024341
0.0283589
0.0325512
0.0368687
0.0412644
0.0456941
0.0501178
0.0544997
0.0588087
0.0630186
0.0671074
0.0710578
0.0748556
0.0784903
0.0819549
0.0852452
0.0883594
0.0912978
0.0940623
0.0966554
0.0990811
0.101344
0.103449
0.1054
0.107202
0.108857
0.110367
0.111732
0.112949
0.114014
0.114916
0.115641
0.116167
0.116456
0.116481
0.116177
0.115463
0.114245
0.105849
0.097066
0.0881496
0.0792784
0.0705823
0.0621588
0.0540835
0.0464171
0.03921
0.0325065
0.0263721
0.0208156
0.0159116
0.0116937
0.00818934
0.0054215
0.00337343
0.00197048
0.0010848
0.000567075
0.000283743
0.00013719
6.47284e-05
2.99024e-05
1.35592e-05
6.04701e-06
2.6569e-06
1.15191e-06
4.93535e-07
2.09251e-07
8.78999e-08
3.66123e-08
1.51187e-08
6.17348e-09
2.47078e-09
9.43885e-10
3.15183e-10
5.52511e-11
3.83006e-07
1.67395e-06
3.84595e-06
7.48859e-06
1.35683e-05
2.36507e-05
4.02366e-05
6.72569e-05
0.000110775
0.000179939
0.000288203
0.000454749
0.000705936
0.00107638
0.00160905
0.00235375
0.00336335
0.00468804
0.00636871
0.00843134
0.0108839
0.0137166
0.0169043
0.0204106
0.0241916
0.0281992
0.032384
0.0366968
0.0410908
0.0455218
0.0499495
0.0543382
0.0586564
0.0628774
0.0669791
0.0709437
0.0747567
0.0784072
0.0818878
0.085194
0.0883239
0.0912775
0.0940556
0.0966614
0.0990989
0.101372
0.103486
0.105444
0.107251
0.108908
0.110419
0.111782
0.112994
0.11405
0.114938
0.115644
0.116143
0.116396
0.116376
0.116017
0.11524
0.113969
0.105075
0.096011
0.0869383
0.0779871
0.0692615
0.0608444
0.052803
0.0451932
0.038064
0.0314612
0.0254585
0.0200126
0.0152066
0.011091
0.00770687
0.00506216
0.00312631
0.00181441
0.000994068
0.000518027
0.000258773
0.00012508
5.90342e-05
2.72915e-05
1.23871e-05
5.53039e-06
2.43277e-06
1.05601e-06
4.52984e-07
1.92277e-07
8.08558e-08
3.37108e-08
1.39322e-08
5.69286e-09
2.27956e-09
8.71081e-10
2.90876e-10
5.09848e-11
3.80179e-07
1.66156e-06
3.81725e-06
7.43202e-06
1.34642e-05
2.34657e-05
3.9915e-05
6.67068e-05
0.000109847
0.000178399
0.000285686
0.000450712
0.000699598
0.00106667
0.0015946
0.0023329
0.00333426
0.00464889
0.00631792
0.00836777
0.010807
0.0136264
0.0168016
0.0202966
0.024068
0.0280681
0.0322476
0.0365577
0.0409513
0.0453844
0.0498166
0.0542119
0.0585385
0.0627696
0.0668828
0.0708598
0.074686
0.0783501
0.0818444
0.0851643
0.0883074
0.0912729
0.0940625
0.0966789
0.0991258
0.101407
0.103527
0.105491
0.1073
0.108959
0.110469
0.111828
0.113032
0.114076
0.114947
0.115626
0.116086
0.116285
0.116184
0.1157
0.11473
0.113157
0.104105
0.0949243
0.0857768
0.0767875
0.0680541
0.0596541
0.0516505
0.0440955
0.0370345
0.0305085
0.0245746
0.0192313
0.0145407
0.010545
0.00728029
0.00474976
0.00291365
0.00168071
0.000916378
0.000475912
0.000237219
0.000114567
5.40606e-05
2.49974e-05
1.13516e-05
5.0717e-06
2.2329e-06
9.70161e-07
4.16563e-07
1.76989e-07
7.4496e-08
3.10858e-08
1.2857e-08
5.25672e-09
2.10584e-09
8.04877e-10
2.68761e-10
4.71017e-11
3.77438e-07
1.64955e-06
3.78952e-06
7.37757e-06
1.33644e-05
2.32893e-05
3.96103e-05
6.61892e-05
0.000108981
0.000176972
0.000283374
0.000447037
0.000693882
0.00105799
0.00158179
0.00231456
0.00330889
0.004615
0.00627428
0.00831354
0.0107419
0.0135506
0.0167159
0.0202022
0.0239664
0.0279611
0.0321372
0.036446
0.0408403
0.0452761
0.0497129
0.0541145
0.058449
0.0626892
0.0668125
0.0708004
0.0746379
0.0783135
0.0818196
0.0851509
0.0883045
0.0912802
0.0940792
0.0967042
0.0991585
0.101446
0.103571
0.105538
0.10735
0.109009
0.110516
0.111871
0.113069
0.114102
0.114959
0.115618
0.11605
0.116214
0.116062
0.115509
0.114437
0.112271
0.103115
0.0938698
0.0846895
0.0756937
0.0669763
0.0586116
0.0506595
0.0431701
0.0361864
0.0297476
0.0239009
0.0186505
0.0140552
0.0101456
0.00694516
0.00448995
0.00273408
0.00156767
0.000850718
0.000440316
0.000218977
0.000105649
4.98283e-05
2.30381e-05
1.04637e-05
4.67678e-06
2.06011e-06
8.95648e-07
3.84834e-07
1.63625e-07
6.89195e-08
2.8778e-08
1.19095e-08
4.87168e-09
1.95223e-09
7.46274e-10
2.49173e-10
4.36593e-11
3.74887e-07
1.63839e-06
3.76377e-06
7.32712e-06
1.32722e-05
2.31268e-05
3.93306e-05
6.57161e-05
0.000108194
0.000175681
0.000281295
0.000443752
0.000688803
0.00105034
0.00157056
0.00229861
0.00328696
0.00458594
0.00623711
0.00826767
0.0106872
0.0134874
0.0166449
0.0201245
0.0238835
0.0278745
0.0320485
0.0363569
0.0407527
0.0451916
0.049633
0.0540405
0.0583821
0.0626305
0.0667627
0.07076
0.0746073
0.0782929
0.0818087
0.0851491
0.0883115
0.0912956
0.0941022
0.0967339
0.0991939
0.101486
0.103615
0.105584
0.107397
0.109055
0.110561
0.111912
0.113104
0.114131
0.114978
0.115628
0.116048
0.116201
0.116043
0.115492
0.114446
0.111314
0.102122
0.0928552
0.0836672
0.0746772
0.065978
0.0576424
0.0497293
0.0422872
0.0353583
0.0289828
0.0231983
0.0180289
0.0135233
0.00971871
0.00664189
0.00426944
0.00257969
0.00147101
0.00079485
0.000410091
0.000203489
9.80701e-05
4.62262e-05
2.13673e-05
9.70498e-06
4.33854e-06
1.91179e-06
8.31545e-07
3.57481e-07
1.52082e-07
6.40948e-08
2.67782e-08
1.10874e-08
4.5372e-09
1.81867e-09
6.95283e-10
2.32122e-10
4.06675e-11
3.72585e-07
1.62832e-06
3.74058e-06
7.28176e-06
1.31894e-05
2.29814e-05
3.90811e-05
6.52955e-05
0.000107496
0.000174542
0.000279469
0.00044088
0.000684386
0.00104371
0.0015609
0.00228495
0.00326829
0.00456131
0.00620579
0.00822925
0.0106416
0.0134351
0.0165865
0.0200611
0.0238162
0.0278047
0.0319778
0.0362866
0.0406841
0.0451262
0.049572
0.0539851
0.0583331
0.0625886
0.0667285
0.070734
0.0745896
0.0782835
0.0818071
0.0851552
0.0883249
0.0913156
0.0941282
0.096765
0.0992294
0.101525
0.103656
0.105626
0.107439
0.109097
0.1106
0.111948
0.113136
0.114157
0.114999
0.115641
0.116054
0.116202
0.116039
0.115488
0.114448
0.110385
0.101189
0.091929
0.0827565
0.0737894
0.0651227
0.0568288
0.0489664
0.0415745
0.0346959
0.0283671
0.0226219
0.0175136
0.0130801
0.00935305
0.00635416
0.00407703
0.00245206
0.00138921
0.000747659
0.000384604
0.000190439
9.16845e-05
4.31891e-05
1.9957e-05
9.0636e-06
4.05216e-06
1.78599e-06
7.77083e-07
3.34201e-07
1.42242e-07
5.99755e-08
2.50687e-08
1.03838e-08
4.2507e-09
1.70419e-09
6.5155e-10
2.17502e-10
3.81097e-11
3.70556e-07
1.61945e-06
3.72017e-06
7.24187e-06
1.31168e-05
2.2854e-05
3.88629e-05
6.49287e-05
0.000106889
0.000173555
0.000277891
0.000438409
0.0006806
0.00103805
0.00155268
0.00227338
0.00325256
0.00454066
0.00617967
0.00819736
0.010604
0.0133921
0.0165389
0.0200097
0.0237621
0.027749
0.0319217
0.0362314
0.040631
0.0450761
0.0495261
0.0539441
0.0582978
0.0625595
0.0667061
0.0707184
0.074581
0.0782815
0.0818117
0.0851661
0.0883416
0.0913375
0.0941546
0.0967953
0.0992627
0.101561
0.103693
0.105664
0.107476
0.109132
0.110633
0.111978
0.113162
0.114177
0.115013
0.115649
0.116055
0.116198
0.116031
0.115478
0.11444
0.109557
0.100356
0.0910991
0.0819421
0.0730032
0.0643686
0.0561021
0.0482608
0.0409019
0.0340651
0.0277891
0.0221093
0.0170664
0.0127
0.00904164
0.00611087
0.00389732
0.0023411
0.00132132
0.000707726
0.000363095
0.000179467
8.63243e-05
4.06416e-05
1.87742e-05
8.52541e-06
3.81168e-06
1.68026e-06
7.31254e-07
3.14589e-07
1.33941e-07
5.64967e-08
2.36233e-08
9.78844e-09
4.0081e-09
1.60725e-09
6.14549e-10
2.05154e-10
3.59475e-11
3.68804e-07
1.61179e-06
3.70255e-06
7.20749e-06
1.30543e-05
2.27446e-05
3.86758e-05
6.46147e-05
0.000106371
0.000172714
0.000276551
0.000436316
0.000677403
0.00103329
0.00154579
0.00226372
0.00323947
0.00452355
0.0061581
0.00817115
0.0105732
0.0133572
0.0165004
0.0199684
0.0237188
0.0277049
0.0318776
0.0361884
0.04059
0.0450381
0.0494917
0.0539141
0.0582727
0.0625398
0.066692
0.0707101
0.0745782
0.0782843
0.0818198
0.0851791
0.0883591
0.0913589
0.0941795
0.0968228
0.0992923
0.101591
0.103724
0.105695
0.107506
0.10916
0.110658
0.111999
0.113178
0.114189
0.115018
0.115649
0.116049
0.116186
0.116015
0.115461
0.114425
0.108844
0.0996349
0.0903833
0.0812405
0.0723131
0.0636901
0.0554484
0.047644
0.0403247
0.0335318
0.0273037
0.0216754
0.0166877
0.0123791
0.00878004
0.00590824
0.00374976
0.00224037
0.00126439
0.000675466
0.000345338
0.000170367
8.18876e-05
3.85341e-05
1.77953e-05
8.07973e-06
3.61232e-06
1.59248e-06
6.93158e-07
2.98262e-07
1.27022e-07
5.35927e-08
2.24152e-08
9.29028e-09
3.80494e-09
1.52602e-09
5.83543e-10
1.94806e-10
3.41355e-11
3.67319e-07
1.60531e-06
3.68765e-06
7.17842e-06
1.30015e-05
2.26522e-05
3.85181e-05
6.43507e-05
0.000105936
0.00017201
0.000275432
0.000434571
0.000674746
0.00102935
0.0015401
0.00225576
0.00322871
0.00450953
0.00614051
0.00814986
0.0105484
0.0133291
0.0164695
0.0199354
0.0236846
0.0276701
0.0318432
0.0361551
0.0405587
0.0450094
0.0494663
0.0538924
0.0582552
0.0625267
0.0666835
0.0707061
0.0745788
0.0782893
0.081829
0.0851921
0.0883755
0.0913783
0.0942012
0.0968463
0.0993169
0.101616
0.103749
0.105718
0.107528
0.10918
0.110674
0.112011
0.113186
0.114191
0.115015
0.115639
0.116033
0.116165
0.115991
0.115436
0.114406
0.108241
0.0990192
0.0897681
0.0806269
0.0717128
0.0631134
0.0548987
0.0471252
0.0398401
0.0330849
0.0268975
0.0213124
0.0163711
0.0121112
0.00856253
0.00574079
0.00362905
0.00215938
0.00121351
0.000648792
0.00033141
0.000163107
7.82933e-05
3.68193e-05
1.69969e-05
7.71532e-06
3.44894e-06
1.52041e-06
6.61819e-07
2.8481e-07
1.21312e-07
5.11937e-08
2.14161e-08
8.87791e-09
3.63664e-09
1.45871e-09
5.57839e-10
1.86228e-10
3.26331e-11
3.66089e-07
1.59993e-06
3.6753e-06
7.15434e-06
1.29578e-05
2.25759e-05
3.8388e-05
6.41331e-05
0.000105578
0.000171432
0.000274514
0.000433144
0.000672576
0.00102613
0.00153547
0.00224931
0.00322002
0.00449824
0.00612637
0.00813281
0.0105285
0.0133067
0.0164451
0.0199095
0.0236578
0.0276431
0.0318167
0.0361297
0.040535
0.0449879
0.0494475
0.0538767
0.0582429
0.062518
0.0666785
0.0707047
0.074581
0.0782949
0.0818377
0.0852036
0.0883895
0.0913942
0.0942187
0.0968648
0.0993358
0.101635
0.103767
0.105735
0.107542
0.109191
0.110682
0.112014
0.113184
0.114185
0.115003
0.115621
0.11601
0.116137
0.11596
0.115406
0.114384
0.107741
0.0985035
0.0892477
0.0801145
0.0712145
0.0626342
0.0544424
0.046695
0.039439
0.0327154
0.0265619
0.0210128
0.0161099
0.0118906
0.0083838
0.00560375
0.00353086
0.00209413
0.00117316
0.000625214
0.000319615
0.00015742
7.54743e-05
3.54456e-05
1.63511e-05
7.41953e-06
3.31611e-06
1.46173e-06
6.36269e-07
2.7383e-07
1.16648e-07
4.92325e-08
2.05989e-08
8.54057e-09
3.49891e-09
1.4037e-09
5.36813e-10
1.79232e-10
3.14073e-11
3.65096e-07
1.59559e-06
3.66533e-06
7.13493e-06
1.29225e-05
2.25144e-05
3.82834e-05
6.39582e-05
0.000105291
0.000170968
0.000273779
0.000432004
0.000670846
0.00102357
0.0015318
0.00224419
0.00321314
0.00448933
0.00611525
0.00811944
0.010513
0.0132893
0.0164261
0.0198895
0.0236372
0.0276225
0.0317965
0.0361105
0.0405172
0.044972
0.0494338
0.0538654
0.0582343
0.0625121
0.0666753
0.0707043
0.0745832
0.0782996
0.0818447
0.0852126
0.0884001
0.0914061
0.0942313
0.0968778
0.0993486
0.101647
0.103778
0.105744
0.107548
0.109194
0.110682
0.11201
0.113175
0.11417
0.114983
0.115596
0.115979
0.116103
0.115925
0.115372
0.114361
0.107336
0.0980846
0.0888246
0.0796965
0.0708078
0.0622433
0.0540707
0.0463453
0.0391133
0.0324157
0.0262899
0.0207703
0.0158988
0.0117125
0.00823979
0.00549362
0.00345224
0.00204213
0.00114123
0.000606755
0.000309293
0.000152162
7.30748e-05
3.43511e-05
1.58369e-05
7.18208e-06
3.20888e-06
1.41432e-06
6.15631e-07
2.64975e-07
1.12888e-07
4.76539e-08
1.99416e-08
8.27005e-09
3.38833e-09
1.35999e-09
5.20062e-10
1.73674e-10
3.04333e-11
3.64323e-07
1.59222e-06
3.65758e-06
7.11984e-06
1.28952e-05
2.24667e-05
3.82022e-05
6.38227e-05
0.000105069
0.00017061
0.000273212
0.000431124
0.000669513
0.00102161
0.00152897
0.00224027
0.00320788
0.00448252
0.00610677
0.00810926
0.0105012
0.0132761
0.0164118
0.0198744
0.0236217
0.027607
0.0317815
0.0360963
0.0405041
0.0449603
0.0494238
0.0538573
0.0582281
0.0625079
0.066673
0.0707039
0.0745846
0.0783027
0.0818492
0.0852183
0.0884068
0.0914134
0.0942388
0.0968851
0.0993553
0.101653
0.103782
0.105746
0.107548
0.10919
0.110674
0.111998
0.113159
0.114149
0.114957
0.115565
0.115945
0.116066
0.115887
0.115339
0.114339
0.107015
0.0977484
0.088486
0.0793627
0.070484
0.061933
0.0537765
0.0460691
0.0388568
0.0321801
0.0260766
0.0205803
0.0157337
0.0115735
0.00812761
0.00540806
0.00339134
0.002002
0.00111675
0.000592798
0.000301753
0.000148254
7.10913e-05
3.34047e-05
1.54179e-05
6.99484e-06
3.12549e-06
1.3775e-06
5.99601e-07
2.581e-07
1.09975e-07
4.64342e-08
1.94344e-08
8.06356e-09
3.30406e-09
1.3268e-09
5.07312e-10
1.69459e-10
2.96917e-11
3.63757e-07
1.58975e-06
3.65191e-06
7.1088e-06
1.28752e-05
2.24318e-05
3.81428e-05
6.37237e-05
0.000104907
0.000170349
0.000272799
0.000430483
0.000668543
0.00102017
0.00152692
0.00223742
0.00320407
0.0044776
0.00610065
0.00810193
0.0104927
0.0132666
0.0164016
0.0198636
0.0236107
0.0275961
0.0317709
0.0360862
0.0404949
0.0449521
0.0494167
0.0538515
0.0582236
0.0625047
0.066671
0.0707031
0.0745848
0.0783038
0.0818511
0.0852209
0.0884097
0.0914164
0.0942417
0.0968875
0.0993568
0.101653
0.10378
0.105742
0.107542
0.109181
0.110661
0.111981
0.113138
0.114124
0.114927
0.115532
0.115909
0.11603
0.115853
0.11531
0.114322
0.106779
0.0974965
0.0882298
0.0791096
0.0702387
0.0616987
0.0535551
0.045862
0.038665
0.0320046
0.0259181
0.0204395
0.0156116
0.0114709
0.0080451
0.00534532
0.00334682
0.00197275
0.00109893
0.000582653
0.000296302
0.000145459
6.97131e-05
3.27422e-05
1.51035e-05
6.85534e-06
3.06462e-06
1.35122e-06
5.88305e-07
2.53292e-07
1.07935e-07
4.5587e-08
1.90806e-08
7.91906e-09
3.24488e-09
1.30338e-09
4.98305e-10
1.66478e-10
2.91664e-11
3.63388e-07
1.58813e-06
3.64821e-06
7.10159e-06
1.28621e-05
2.2409e-05
3.81041e-05
6.36592e-05
0.000104801
0.000170178
0.00027253
0.000430067
0.000667913
0.00101925
0.00152559
0.00223558
0.0032016
0.00447442
0.0060967
0.0080972
0.0104873
0.0132605
0.016395
0.0198567
0.0236037
0.0275891
0.0317641
0.0360798
0.040489
0.0449469
0.0494122
0.0538477
0.0582206
0.0625024
0.0666693
0.0707018
0.074584
0.0783034
0.081851
0.0852209
0.0884097
0.0914163
0.0942412
0.0968863
0.0993546
0.10165
0.103775
0.105735
0.107532
0.109169
0.110646
0.111963
0.113115
0.114098
0.114898
0.115501
0.115878
0.116003
0.115836
0.115314
0.114368
0.106622
0.0973247
0.0880532
0.0789348
0.0700698
0.061538
0.0534042
0.0457217
0.0385358
0.031887
0.0258123
0.020346
0.0155308
0.0114033
0.00799091
0.00530431
0.00331788
0.00195381
0.0010874
0.000576083
0.000292771
0.000143651
6.88277e-05
3.23322e-05
1.49091e-05
6.76648e-06
3.02403e-06
1.33385e-06
5.80785e-07
2.50165e-07
1.06611e-07
4.50417e-08
1.8853e-08
7.82653e-09
3.20697e-09
1.28842e-09
4.92544e-10
1.64576e-10
2.88311e-11
3.63208e-07
1.58735e-06
3.64641e-06
7.09809e-06
1.28558e-05
2.2398e-05
3.80855e-05
6.36283e-05
0.00010475
0.000170097
0.000272402
0.000429869
0.000667614
0.00101881
0.00152496
0.00223471
0.00320043
0.00447291
0.00609483
0.00809496
0.0104847
0.0132576
0.0163919
0.0198534
0.0236003
0.0275857
0.0317608
0.0360768
0.0404862
0.0449443
0.04941
0.0538458
0.058219
0.0625011
0.0666683
0.070701
0.0745831
0.0783024
0.08185
0.0852198
0.0884085
0.0914148
0.0942392
0.0968838
0.0993513
0.101645
0.10377
0.105728
0.107523
0.109158
0.110633
0.111947
0.113098
0.114077
0.114875
0.115476
0.115852
0.115976
0.115813
0.115297
0.114361
0.106545
0.0972342
0.0879585
0.0788412
0.0699801
0.0614537
0.0533259
0.0456497
0.0384703
0.0318278
0.0257597
0.0202999
0.0154914
0.0113706
0.0079649
0.00528479
0.00330422
0.00194496
0.00108206
0.000573046
0.000291138
0.000142814
6.84185e-05
3.21452e-05
1.48207e-05
6.7269e-06
3.00585e-06
1.32583e-06
5.77215e-07
2.48651e-07
1.05963e-07
4.47743e-08
1.87414e-08
7.78121e-09
3.18844e-09
1.28112e-09
4.8973e-10
1.63646e-10
2.86673e-11
3.63209e-07
1.58735e-06
3.64642e-06
7.09811e-06
1.28558e-05
2.23981e-05
3.80856e-05
6.36284e-05
0.000104751
0.000170098
0.000272402
0.00042987
0.000667616
0.00101881
0.00152497
0.00223471
0.00320044
0.00447292
0.00609483
0.00809497
0.0104847
0.0132577
0.0163919
0.0198534
0.0236003
0.0275857
0.0317608
0.0360768
0.0404862
0.0449444
0.04941
0.0538459
0.058219
0.0625011
0.0666683
0.070701
0.0745831
0.0783024
0.08185
0.0852198
0.0884085
0.0914148
0.0942392
0.0968838
0.0993513
0.101645
0.10377
0.105728
0.107523
0.109158
0.110633
0.111947
0.113098
0.114077
0.114875
0.115476
0.115852
0.115976
0.115813
0.115297
0.114361
0.106545
0.0972342
0.0879585
0.0788412
0.0699801
0.0614537
0.0533259
0.0456497
0.0384703
0.0318279
0.0257597
0.0202999
0.0154914
0.0113706
0.00796492
0.0052848
0.00330423
0.00194496
0.00108206
0.000573048
0.000291139
0.000142815
6.8419e-05
3.2145e-05
1.48206e-05
6.72675e-06
3.00579e-06
1.32579e-06
5.77197e-07
2.48641e-07
1.05959e-07
4.47724e-08
1.87406e-08
7.78085e-09
3.1883e-09
1.28104e-09
4.89706e-10
1.63634e-10
2.86658e-11
3.6339e-07
1.58815e-06
3.64823e-06
7.10164e-06
1.28622e-05
2.24092e-05
3.81044e-05
6.36596e-05
0.000104802
0.000170179
0.000272531
0.000430069
0.000667917
0.00101925
0.0015256
0.00223559
0.00320162
0.00447443
0.00609672
0.00809722
0.0104873
0.0132606
0.016395
0.0198568
0.0236037
0.0275891
0.0317641
0.0360799
0.0404891
0.0449469
0.0494122
0.0538478
0.0582206
0.0625024
0.0666693
0.0707019
0.0745841
0.0783034
0.081851
0.0852209
0.0884098
0.0914163
0.0942412
0.0968863
0.0993546
0.10165
0.103775
0.105735
0.107532
0.109169
0.110646
0.111963
0.113115
0.114098
0.114898
0.115501
0.115878
0.116003
0.115836
0.115314
0.114368
0.106622
0.0973247
0.0880532
0.0789348
0.0700698
0.061538
0.0534042
0.0457217
0.0385358
0.031887
0.0258124
0.020346
0.0155308
0.0114033
0.00799094
0.00530434
0.0033179
0.00195383
0.00108741
0.000576089
0.000292774
0.000143653
6.88289e-05
3.23317e-05
1.49089e-05
6.76616e-06
3.02391e-06
1.33375e-06
5.80747e-07
2.50143e-07
1.06603e-07
4.50374e-08
1.88514e-08
7.82569e-09
3.20665e-09
1.28823e-09
4.92485e-10
1.64542e-10
2.88269e-11
3.63762e-07
1.58977e-06
3.65196e-06
7.10888e-06
1.28753e-05
2.2432e-05
3.81433e-05
6.37245e-05
0.000104908
0.00017035
0.000272802
0.000430488
0.00066855
0.00102018
0.00152694
0.00223744
0.00320409
0.00447763
0.00610069
0.00810198
0.0104928
0.0132667
0.0164016
0.0198637
0.0236108
0.0275962
0.0317709
0.0360863
0.040495
0.0449522
0.0494168
0.0538516
0.0582237
0.0625048
0.0666711
0.0707031
0.0745849
0.0783039
0.0818512
0.0852209
0.0884097
0.0914164
0.0942417
0.0968875
0.0993568
0.101653
0.10378
0.105742
0.107542
0.109181
0.110661
0.111981
0.113138
0.114124
0.114927
0.115532
0.115909
0.11603
0.115853
0.11531
0.114322
0.106779
0.0974965
0.0882298
0.0791096
0.0702387
0.0616987
0.0535551
0.045862
0.038665
0.0320047
0.0259181
0.0204396
0.0156117
0.011471
0.00804515
0.00534536
0.00334686
0.00197277
0.00109894
0.000582663
0.000296308
0.000145462
6.97146e-05
3.27428e-05
1.51037e-05
6.85529e-06
3.06457e-06
1.35115e-06
5.88272e-07
2.53271e-07
1.07926e-07
4.55818e-08
1.90785e-08
7.91788e-09
3.24439e-09
1.30308e-09
4.98212e-10
1.66427e-10
2.916e-11
3.64329e-07
1.59224e-06
3.65764e-06
7.11996e-06
1.28954e-05
2.2467e-05
3.82028e-05
6.38237e-05
0.000105071
0.000170613
0.000273216
0.00043113
0.000669522
0.00102162
0.00152899
0.0022403
0.00320791
0.00448257
0.00610683
0.00810933
0.0105013
0.0132762
0.0164119
0.0198745
0.0236218
0.0276071
0.0317816
0.0360964
0.0405042
0.0449605
0.0494239
0.0538574
0.0582282
0.062508
0.0666731
0.070704
0.0745847
0.0783028
0.0818493
0.0852184
0.0884068
0.0914134
0.0942389
0.0968852
0.0993553
0.101653
0.103782
0.105746
0.107548
0.10919
0.110674
0.111998
0.113159
0.114149
0.114957
0.115565
0.115945
0.116066
0.115887
0.115339
0.114339
0.107015
0.0977483
0.088486
0.0793627
0.070484
0.061933
0.0537765
0.0460691
0.0388568
0.0321801
0.0260766
0.0205803
0.0157337
0.0115736
0.00812767
0.00540811
0.00339138
0.00200204
0.00111677
0.000592811
0.00030176
0.000148258
7.10933e-05
3.34056e-05
1.54183e-05
6.99495e-06
3.12548e-06
1.37751e-06
5.99598e-07
2.58097e-07
1.09973e-07
4.64327e-08
1.94336e-08
8.06285e-09
3.30374e-09
1.32651e-09
5.07229e-10
1.69406e-10
2.96852e-11
3.65103e-07
1.59562e-06
3.66541e-06
7.13508e-06
1.29228e-05
2.25148e-05
3.82841e-05
6.39595e-05
0.000105293
0.000170972
0.000273784
0.000432011
0.000670857
0.00102359
0.00153182
0.00224422
0.00321319
0.00448938
0.00611532
0.00811952
0.0105131
0.0132894
0.0164262
0.0198896
0.0236373
0.0276226
0.0317966
0.0361106
0.0405173
0.0449721
0.0494339
0.0538656
0.0582344
0.0625122
0.0666754
0.0707044
0.0745833
0.0782997
0.0818448
0.0852127
0.0884001
0.0914061
0.0942314
0.0968778
0.0993486
0.101647
0.103778
0.105744
0.107548
0.109194
0.110682
0.11201
0.113175
0.11417
0.114983
0.115596
0.115979
0.116103
0.115925
0.115372
0.114361
0.107336
0.0980845
0.0888245
0.0796963
0.0708077
0.0622432
0.0540706
0.0463452
0.0391132
0.0324157
0.0262899
0.0207703
0.0158989
0.0117126
0.00823986
0.00549368
0.00345229
0.00204217
0.00114126
0.000606771
0.000309303
0.000152167
7.30773e-05
3.43523e-05
1.58375e-05
7.18229e-06
3.20905e-06
1.41439e-06
6.15665e-07
2.64988e-07
1.12894e-07
4.76558e-08
1.99424e-08
8.27009e-09
3.38843e-09
1.35984e-09
5.20033e-10
1.73644e-10
3.04301e-11
3.66098e-07
1.59997e-06
3.67539e-06
7.15452e-06
1.29581e-05
2.25764e-05
3.83889e-05
6.41345e-05
0.000105581
0.000171436
0.00027452
0.000433153
0.000672589
0.00102615
0.0015355
0.00224935
0.00322007
0.0044983
0.00612645
0.00813291
0.0105286
0.0133068
0.0164452
0.0199096
0.0236579
0.0276433
0.0318169
0.0361299
0.0405351
0.0449881
0.0494477
0.0538769
0.0582431
0.0625181
0.0666786
0.0707048
0.0745811
0.078295
0.0818378
0.0852037
0.0883896
0.0913943
0.0942187
0.0968649
0.0993358
0.101635
0.103767
0.105735
0.107542
0.109191
0.110682
0.112014
0.113184
0.114185
0.115003
0.115621
0.11601
0.116137
0.11596
0.115406
0.114384
0.107741
0.0985032
0.0892474
0.0801142
0.0712142
0.0626339
0.0544421
0.0466948
0.0394388
0.0327153
0.0265618
0.0210127
0.01611
0.0118907
0.00838386
0.00560381
0.00353092
0.00209417
0.00117319
0.000625233
0.000319626
0.000157425
7.5477e-05
3.54471e-05
1.63518e-05
7.41992e-06
3.31629e-06
1.46181e-06
6.36304e-07
2.73846e-07
1.16655e-07
4.92352e-08
2.06e-08
8.54098e-09
3.49908e-09
1.40373e-09
5.36832e-10
1.79223e-10
3.14077e-11
3.6733e-07
1.60535e-06
3.68775e-06
7.17862e-06
1.30018e-05
2.26528e-05
3.85192e-05
6.43524e-05
0.000105939
0.000172015
0.000275439
0.000434582
0.000674761
0.00102937
0.00154013
0.0022558
0.00322877
0.00450961
0.0061406
0.00814997
0.0105485
0.0133292
0.0164697
0.0199356
0.0236848
0.0276703
0.0318434
0.0361553
0.0405589
0.0450096
0.0494664
0.0538925
0.0582553
0.0625268
0.0666836
0.0707063
0.0745789
0.0782894
0.0818291
0.0851922
0.0883756
0.0913784
0.0942012
0.0968464
0.0993169
0.101617
0.103749
0.105719
0.107528
0.10918
0.110674
0.112011
0.113186
0.114191
0.115015
0.115639
0.116033
0.116165
0.115991
0.115436
0.114406
0.108241
0.0990186
0.0897674
0.080626
0.0717118
0.0631127
0.0548981
0.0471248
0.03984
0.0330848
0.0268974
0.0213123
0.0163711
0.0121112
0.00856256
0.00574084
0.0036291
0.00215942
0.00121354
0.000648813
0.000331422
0.000163113
7.82968e-05
3.6821e-05
1.69978e-05
7.71575e-06
3.44914e-06
1.5205e-06
6.6186e-07
2.84827e-07
1.2132e-07
5.11969e-08
2.14175e-08
8.87845e-09
3.63686e-09
1.45879e-09
5.5787e-10
1.86235e-10
3.26356e-11
3.68816e-07
1.61184e-06
3.70267e-06
7.20771e-06
1.30547e-05
2.27453e-05
3.86769e-05
6.46166e-05
0.000106374
0.000172719
0.000276559
0.000436328
0.000677421
0.00103332
0.00154583
0.00226377
0.00323953
0.00452363
0.00615821
0.00817128
0.0105734
0.0133574
0.0165005
0.0199685
0.023719
0.0277051
0.0318778
0.0361886
0.0405902
0.0450383
0.0494919
0.0539143
0.0582729
0.06254
0.0666921
0.0707102
0.0745783
0.0782844
0.0818199
0.0851792
0.0883592
0.091359
0.0941795
0.0968229
0.0992923
0.101591
0.103724
0.105695
0.107506
0.10916
0.110658
0.111999
0.113178
0.114189
0.115018
0.115649
0.116049
0.116186
0.116015
0.115461
0.114425
0.108844
0.0996339
0.0903816
0.081238
0.0723082
0.0636881
0.0554479
0.0476446
0.0403258
0.0335329
0.0273043
0.0216756
0.0166878
0.0123791
0.00878008
0.00590828
0.00374981
0.00224041
0.00126442
0.000675488
0.000345351
0.000170375
8.18917e-05
3.85362e-05
1.77964e-05
8.08023e-06
3.61255e-06
1.59259e-06
6.93205e-07
2.98282e-07
1.2703e-07