/*--------------------------------*- C++ -*----------------------------------*\
  =========                 |
  \\      /  F ield         | OpenFOAM: The Open Source CFD Toolbox
   \\    /   O peration     | Website:  https://openfoam.org
    \\  /    A nd           | Version:  8
     \\/     M anipulation  |
\*---------------------------------------------------------------------------*/
FoamFile
{
    version     2.0;
    format      ascii;
    class       volScalarField;
    location    "820/fluid";
    object      N2;
}
// * * * * * * * * * * * * * * * * * * * * * * * * * * * * * * * * * * * * * //

dimensions      [0 0 0 0 0 0 0];

internalField   nonuniform List<scalar> 
4000
(
2.31061e-06
1.00966e-05
2.3188e-05
4.51313e-05
8.17542e-05
0.00014254
0.000242739
0.000406522
0.000671552
0.00109532
0.00176339
0.00279928
0.00437443
0.00671568
0.0101053
0.0148686
0.0213456
0.0298484
0.0406154
0.0537746
0.0693299
0.0871692
0.107089
0.128822
0.152068
0.176512
0.201841
0.227757
0.253981
0.280259
0.306365
0.332104
0.357309
0.381841
0.405593
0.428475
0.450423
0.471392
0.491353
0.510295
0.52822
0.54514
0.561074
0.57605
0.590101
0.603263
0.615575
0.627078
0.637814
0.647825
0.657152
0.665835
0.673915
0.68143
0.688417
0.694912
0.700947
0.706479
0.71156
0.71642
0.72094
0.725148
0.729013
0.732725
0.736275
0.739669
0.742909
0.745994
0.748923
0.751693
0.754301
0.756741
0.759005
0.761074
0.762959
0.764635
0.766085
0.767292
0.768242
0.768937
0.769402
0.769686
0.769844
0.769926
0.769966
0.769985
0.769993
0.769997
0.769999
0.769999
0.77
0.77
0.77
0.77
0.77
0.77
0.77
0.77
0.77
0.77
2.31329e-06
1.01107e-05
2.3231e-05
4.52436e-05
8.2016e-05
0.000143092
0.000243796
0.000408358
0.000674394
0.00109905
0.00176694
0.0027995
0.00436472
0.00668351
0.0100302
0.0147213
0.0210891
0.0294424
0.0400224
0.0529674
0.068296
0.085913
0.10563
0.127193
0.150308
0.174665
0.19995
0.225862
0.252117
0.278458
0.304651
0.330495
0.355819
0.380479
0.404363
0.427379
0.449459
0.470555
0.490639
0.509697
0.527729
0.544748
0.560772
0.575831
0.589956
0.603183
0.615555
0.627109
0.637889
0.647938
0.657298
0.666009
0.674113
0.681647
0.68865
0.695158
0.701203
0.70674
0.711825
0.716689
0.721212
0.725417
0.729289
0.733009
0.736568
0.739969
0.743215
0.746305
0.749238
0.75201
0.754619
0.757056
0.759314
0.761372
0.76324
0.764892
0.766309
0.767474
0.768378
0.769028
0.769456
0.769714
0.769857
0.769932
0.769968
0.769985
0.769993
0.769997
0.769999
0.769999
0.77
0.77
0.77
0.77
0.77
0.77
0.77
0.77
0.77
0.77
2.31911e-06
1.01374e-05
2.32983e-05
4.53884e-05
8.23018e-05
0.000143617
0.000244693
0.000409775
0.00067642
0.00110154
0.00176911
0.00279915
0.00435654
0.00665816
0.00997281
0.0146102
0.0208957
0.0291331
0.0395619
0.0523236
0.0674452
0.084843
0.104342
0.125701
0.148637
0.172848
0.198026
0.223872
0.250102
0.276455
0.302694
0.328615
0.354039
0.378819
0.402836
0.425995
0.448224
0.469471
0.489704
0.508907
0.527078
0.544228
0.560376
0.575548
0.589777
0.603101
0.615557
0.627189
0.638037
0.648145
0.657556
0.666311
0.674452
0.682018
0.689047
0.695575
0.701636
0.707178
0.712266
0.71713
0.721643
0.725846
0.729737
0.73347
0.737038
0.740445
0.743693
0.746782
0.74971
0.752475
0.755069
0.757488
0.759721
0.761751
0.763579
0.765183
0.766547
0.767656
0.768506
0.769109
0.769502
0.769738
0.769869
0.769937
0.76997
0.769986
0.769994
0.769997
0.769999
0.769999
0.77
0.77
0.77
0.77
0.77
0.77
0.77
0.77
0.77
0.77
2.31715e-06
1.01287e-05
2.32777e-05
4.53447e-05
8.22073e-05
0.000143404
0.0002442
0.000408641
0.000673893
0.00109615
0.0017582
0.00277823
0.00431877
0.00659317
0.00986585
0.0144418
0.0206425
0.0287694
0.0390628
0.051668
0.0666185
0.0838387
0.103162
0.124356
0.147145
0.171233
0.196315
0.222096
0.248292
0.274643
0.300911
0.326886
0.35239
0.377269
0.401402
0.424689
0.447054
0.468442
0.488817
0.508162
0.526473
0.543756
0.560032
0.575323
0.589664
0.603087
0.615634
0.627347
0.638267
0.64844
0.657907
0.66671
0.674892
0.682492
0.689549
0.696098
0.702176
0.707716
0.712797
0.717659
0.722181
0.726379
0.730285
0.734025
0.737596
0.741002
0.744246
0.747326
0.750241
0.752987
0.755558
0.757947
0.760145
0.762139
0.76392
0.765472
0.766781
0.767834
0.768631
0.76919
0.76955
0.769763
0.769881
0.769943
0.769973
0.769988
0.769994
0.769998
0.769999
0.77
0.77
0.77
0.77
0.77
0.77
0.77
0.77
0.77
0.77
0.77
2.30851e-06
1.00905e-05
2.31879e-05
4.51633e-05
8.1862e-05
0.000142762
0.000243018
0.000406478
0.000669966
0.00108909
0.0017457
0.00275653
0.00428195
0.00653239
0.00976869
0.014292
0.0204206
0.0284539
0.038633
0.0511063
0.0659128
0.0829838
0.10216
0.123216
0.145881
0.169864
0.194865
0.22059
0.246757
0.273105
0.299395
0.325417
0.350987
0.375951
0.400183
0.423582
0.446067
0.46758
0.488083
0.507556
0.525992
0.543396
0.559788
0.575192
0.589636
0.603155
0.61579
0.62758
0.638571
0.648804
0.658324
0.667173
0.675392
0.683023
0.690105
0.696674
0.702759
0.708281
0.713368
0.718244
0.722764
0.726927
0.730861
0.734604
0.738174
0.741576
0.74481
0.747876
0.750773
0.753497
0.75604
0.758397
0.760553
0.762506
0.764239
0.765739
0.766994
0.767994
0.768742
0.76926
0.769591
0.769785
0.769892
0.769948
0.769975
0.769989
0.769995
0.769998
0.769999
0.77
0.77
0.77
0.77
0.77
0.77
0.77
0.77
0.77
0.77
0.77
2.29464e-06
1.00293e-05
2.30444e-05
4.48762e-05
8.1323e-05
0.000141781
0.000241266
0.000403391
0.000664588
0.00107985
0.00173007
0.00273059
0.00423987
0.0064659
0.00966674
0.0141408
0.0202043
0.0281561
0.0382382
0.0506022
0.0652915
0.0822428
0.101302
0.122249
0.144819
0.168721
0.193661
0.219346
0.245494
0.271844
0.298157
0.32422
0.34985
0.374889
0.399208
0.422703
0.445293
0.466916
0.487532
0.507118
0.525666
0.543181
0.559677
0.575175
0.589708
0.60331
0.61602
0.627879
0.638931
0.649217
0.658782
0.667668
0.675918
0.683572
0.690671
0.697249
0.703345
0.708865
0.713969
0.718846
0.723361
0.727485
0.731418
0.735163
0.738731
0.742124
0.745347
0.748398
0.751275
0.753973
0.756489
0.758815
0.760933
0.762845
0.764531
0.765981
0.767185
0.768136
0.76884
0.769323
0.769627
0.769805
0.769902
0.769953
0.769978
0.76999
0.769995
0.769998
0.769999
0.77
0.77
0.77
0.77
0.77
0.77
0.77
0.77
0.77
0.77
0.77
2.2785e-06
9.95834e-06
2.28797e-05
4.45501e-05
8.07195e-05
0.000140702
0.000239377
0.000400132
0.000659041
0.00107054
0.00171467
0.00270557
0.00420007
0.00640412
0.00957346
0.0140044
0.0200114
0.0278931
0.037893
0.0501653
0.0647577
0.0816115
0.100577
0.121438
0.143933
0.167776
0.192671
0.218328
0.244467
0.270825
0.297164
0.323268
0.348953
0.374058
0.398455
0.422036
0.444716
0.466434
0.487146
0.506827
0.525471
0.54308
0.559664
0.575246
0.589857
0.603531
0.616306
0.628223
0.639325
0.649655
0.659257
0.668173
0.676445
0.684115
0.691221
0.697803
0.703901
0.709372
0.7146
0.719448
0.723941
0.728032
0.731952
0.735689
0.739248
0.742631
0.74584
0.748873
0.751729
0.754402
0.756887
0.759175
0.761247
0.763121
0.764773
0.766188
0.767351
0.76826
0.768925
0.769376
0.769658
0.769822
0.769911
0.769957
0.76998
0.769991
0.769996
0.769998
0.769999
0.77
0.77
0.77
0.77
0.77
0.77
0.77
0.77
0.77
0.77
0.77
2.26168e-06
9.88458e-06
2.27089e-05
4.42136e-05
8.01e-05
0.000139602
0.000237464
0.00039686
0.000653526
0.00106138
0.0016997
0.00268157
0.0041624
0.00634645
0.0094876
0.0138805
0.0198386
0.0276607
0.0375915
0.049788
0.0643014
0.0810767
0.0999685
0.120763
0.143201
0.167
0.191865
0.217507
0.243644
0.270016
0.296381
0.322526
0.348261
0.373428
0.397893
0.421549
0.44431
0.466111
0.486907
0.506674
0.525398
0.543082
0.559739
0.575391
0.590066
0.603799
0.616628
0.628592
0.639735
0.6501
0.659731
0.668671
0.676963
0.684648
0.691768
0.698361
0.704435
0.709902
0.715135
0.719977
0.72446
0.728534
0.732444
0.736172
0.73972
0.743092
0.746286
0.749303
0.752138
0.754787
0.757245
0.759505
0.761552
0.763389
0.765002
0.766375
0.767497
0.768367
0.768998
0.769422
0.769685
0.769836
0.769918
0.769961
0.769981
0.769991
0.769996
0.769998
0.769999
0.77
0.77
0.77
0.77
0.77
0.77
0.77
0.77
0.77
0.77
0.77
2.24538e-06
9.81318e-06
2.2544e-05
4.38898e-05
7.95067e-05
0.000138553
0.000235653
0.000393784
0.000648379
0.0010529
0.00168597
0.00265974
0.00412844
0.0062949
0.00941151
0.0137716
0.019688
0.0274596
0.0373325
0.0494664
0.0639153
0.0806277
0.099461
0.120204
0.142601
0.166368
0.191214
0.216848
0.242991
0.269379
0.295773
0.321956
0.347739
0.372961
0.397487
0.421209
0.444038
0.465908
0.486775
0.506613
0.525405
0.543155
0.559874
0.575584
0.590313
0.604094
0.616966
0.628968
0.640143
0.650535
0.660187
0.669144
0.677447
0.685139
0.69226
0.698848
0.704901
0.710364
0.715591
0.720425
0.724899
0.72897
0.732877
0.736597
0.740136
0.743495
0.746673
0.749671
0.752483
0.755107
0.757537
0.759767
0.761783
0.763588
0.765168
0.766512
0.767612
0.768456
0.76906
0.769461
0.769707
0.769849
0.769925
0.769964
0.769983
0.769992
0.769996
0.769998
0.769999
0.77
0.77
0.77
0.77
0.77
0.77
0.77
0.77
0.77
0.77
0.77
2.23021e-06
9.74681e-06
2.23909e-05
4.35899e-05
7.89586e-05
0.000137587
0.000233991
0.000390973
0.000643699
0.00104523
0.00167362
0.00264023
0.00409829
0.00624944
0.00934487
0.0136769
0.0195579
0.0272872
0.0371122
0.0491947
0.0635914
0.0802536
0.0990413
0.119746
0.142111
0.165857
0.190692
0.216325
0.242478
0.268886
0.295308
0.321527
0.347354
0.372625
0.397206
0.420985
0.443874
0.465806
0.486733
0.506627
0.525476
0.54328
0.56005
0.575808
0.590579
0.604399
0.617304
0.629336
0.640536
0.650948
0.660616
0.669585
0.677896
0.685592
0.692713
0.699299
0.705335
0.710787
0.716004
0.720829
0.725291
0.729358
0.733262
0.736979
0.740512
0.743861
0.747029
0.750012
0.752808
0.755414
0.757824
0.76003
0.762024
0.763802
0.76535
0.766658
0.767716
0.768532
0.769113
0.769494
0.769727
0.769859
0.76993
0.769966
0.769984
0.769993
0.769997
0.769999
0.769999
0.77
0.77
0.77
0.77
0.77
0.77
0.77
0.77
0.77
0.77
0.77
2.21653e-06
9.68699e-06
2.22531e-05
4.33203e-05
7.8467e-05
0.000136724
0.000232509
0.000388475
0.000639556
0.00103847
0.00166278
0.00262318
0.00407207
0.00621012
0.00928755
0.0135959
0.0194472
0.0271413
0.0369268
0.0489673
0.0633221
0.0799445
0.0986969
0.119372
0.141716
0.165448
0.190277
0.215914
0.242078
0.268506
0.294956
0.321209
0.347075
0.37239
0.397018
0.420846
0.443786
0.465769
0.486746
0.50669
0.525587
0.543436
0.560248
0.576044
0.59085
0.6047
0.617632
0.629686
0.640905
0.651332
0.661011
0.669987
0.678303
0.686001
0.693121
0.699703
0.705727
0.711166
0.716375
0.721187
0.725633
0.7297
0.7336
0.737309
0.740832
0.744171
0.747325
0.750292
0.753071
0.755659
0.758051
0.760241
0.762221
0.763978
0.765502
0.766784
0.767815
0.768598
0.769157
0.769522
0.769743
0.769868
0.769934
0.769968
0.769985
0.769993
0.769997
0.769999
0.769999
0.77
0.77
0.77
0.77
0.77
0.77
0.77
0.77
0.77
0.77
0.77
2.20448e-06
9.63431e-06
2.21319e-05
4.30835e-05
7.80357e-05
0.000135967
0.000231214
0.000386297
0.000635955
0.00103261
0.00165342
0.00260852
0.00404962
0.00617658
0.00923885
0.0135274
0.019354
0.027019
0.0367722
0.0487789
0.0631
0.0796913
0.0984165
0.11907
0.141398
0.165122
0.189951
0.215594
0.241771
0.268219
0.294694
0.320979
0.34688
0.372234
0.396903
0.420774
0.443757
0.465782
0.486802
0.506786
0.525722
0.543607
0.560453
0.576279
0.591113
0.604987
0.61794
0.630011
0.641243
0.651681
0.661368
0.670349
0.678666
0.686363
0.693478
0.700052
0.706068
0.711501
0.7167
0.721501
0.725935
0.730001
0.733897
0.737601
0.741116
0.744444
0.747585
0.750543
0.753313
0.75589
0.758267
0.760439
0.762396
0.764131
0.765632
0.76689
0.767898
0.768659
0.769195
0.769545
0.769757
0.769875
0.769938
0.76997
0.769986
0.769994
0.769997
0.769999
0.769999
0.77
0.77
0.77
0.77
0.77
0.77
0.77
0.77
0.77
0.77
0.77
2.19408e-06
9.58886e-06
2.20274e-05
4.28795e-05
7.76647e-05
0.000135318
0.000230103
0.000384435
0.000632882
0.00102763
0.00164547
0.00259611
0.00403067
0.00614838
0.00919806
0.0134702
0.0192766
0.0269179
0.0366448
0.0486242
0.0629188
0.0794857
0.0981903
0.118828
0.141146
0.164865
0.189695
0.215346
0.241537
0.268004
0.294503
0.320815
0.346747
0.372134
0.396837
0.420745
0.443764
0.465826
0.486881
0.506899
0.525866
0.543781
0.560654
0.576505
0.59136
0.605253
0.618221
0.630305
0.641548
0.651993
0.661685
0.670668
0.678985
0.686678
0.693789
0.700362
0.706368
0.711791
0.716981
0.72177
0.726192
0.730259
0.734151
0.737849
0.741357
0.74468
0.747817
0.750766
0.753524
0.756087
0.758449
0.760604
0.762544
0.76426
0.765742
0.76698
0.767968
0.76871
0.769229
0.769565
0.769768
0.769881
0.769941
0.769972
0.769987
0.769994
0.769997
0.769999
0.769999
0.77
0.77
0.77
0.77
0.77
0.77
0.77
0.77
0.77
0.77
0.77
2.18528e-06
9.5504e-06
2.1939e-05
4.27071e-05
7.73515e-05
0.00013477
0.000229169
0.00038287
0.000630305
0.00102346
0.00163884
0.00258578
0.00401494
0.00612503
0.00916437
0.0134231
0.019213
0.0268352
0.0365411
0.0484989
0.0627726
0.0793207
0.0980097
0.118636
0.140947
0.164665
0.189498
0.215157
0.241361
0.267845
0.294365
0.320701
0.34666
0.372075
0.396809
0.420746
0.443796
0.465887
0.486971
0.507017
0.52601
0.543948
0.560843
0.576713
0.591585
0.605492
0.618472
0.630565
0.641815
0.652265
0.661959
0.670942
0.679256
0.686948
0.694059
0.700627
0.706624
0.712039
0.71722
0.722001
0.726406
0.730478
0.734367
0.738061
0.741567
0.744884
0.748013
0.750953
0.7537
0.756252
0.758601
0.760743
0.762668
0.764368
0.765833
0.767054
0.768025
0.768751
0.769257
0.769582
0.769777
0.769886
0.769944
0.769973
0.769987
0.769994
0.769997
0.769999
0.769999
0.77
0.77
0.77
0.77
0.77
0.77
0.77
0.77
0.77
0.77
0.77
2.17798e-06
9.51855e-06
2.18658e-05
4.25645e-05
7.70927e-05
0.000134318
0.000228398
0.000381581
0.000628187
0.00102003
0.00163341
0.00257734
0.0040021
0.00610602
0.00913703
0.013385
0.0191618
0.0267686
0.0364579
0.0483988
0.0626563
0.0791901
0.0978675
0.118485
0.140793
0.16451
0.189348
0.215015
0.241231
0.26773
0.294268
0.320624
0.346605
0.372045
0.396803
0.420765
0.44384
0.465955
0.487062
0.50713
0.526144
0.544101
0.561013
0.576897
0.591782
0.605701
0.61869
0.63079
0.642044
0.652496
0.66219
0.671174
0.679491
0.687181
0.694288
0.700852
0.70684
0.712248
0.717423
0.722196
0.726582
0.730659
0.734547
0.738239
0.74174
0.745052
0.748174
0.751107
0.753846
0.756388
0.758727
0.760857
0.762769
0.764457
0.765908
0.767115
0.768072
0.768785
0.769279
0.769596
0.769785
0.76989
0.769946
0.769974
0.769988
0.769994
0.769997
0.769999
0.769999
0.77
0.77
0.77
0.77
0.77
0.77
0.77
0.77
0.77
0.77
0.77
2.1721e-06
9.49286e-06
2.18068e-05
4.24495e-05
7.68842e-05
0.000133954
0.000227779
0.000380547
0.000626488
0.00101729
0.00162907
0.0025706
0.00399188
0.00609092
0.00911534
0.0133549
0.0191213
0.0267162
0.0363926
0.0483204
0.0625656
0.0790887
0.0977577
0.11837
0.140675
0.164393
0.189235
0.214909
0.241135
0.267647
0.2942
0.320574
0.346574
0.372032
0.39681
0.420793
0.443888
0.466022
0.487148
0.507233
0.526263
0.544235
0.561159
0.577056
0.59195
0.605876
0.618871
0.630975
0.642232
0.652687
0.662385
0.67137
0.679685
0.687373
0.694477
0.701035
0.707017
0.712419
0.717588
0.722355
0.726725
0.730805
0.734691
0.738381
0.741879
0.745187
0.748304
0.751231
0.753963
0.756497
0.758828
0.760949
0.762852
0.764528
0.765969
0.767164
0.768109
0.768812
0.769297
0.769607
0.769791
0.769894
0.769948
0.769975
0.769988
0.769995
0.769998
0.769999
0.77
0.77
0.77
0.77
0.77
0.77
0.77
0.77
0.77
0.77
0.77
0.77
2.16753e-06
9.47291e-06
2.1761e-05
4.23603e-05
7.67226e-05
0.000133672
0.000227299
0.000379747
0.000625175
0.00101517
0.00162572
0.00256541
0.00398402
0.00607932
0.00909871
0.0133318
0.0190903
0.0266763
0.036343
0.048261
0.062497
0.0790123
0.0976753
0.118284
0.140587
0.164307
0.189152
0.214833
0.241068
0.26759
0.294155
0.320542
0.346556
0.37203
0.396824
0.420822
0.443931
0.466081
0.487221
0.50732
0.526361
0.544344
0.561278
0.577182
0.592084
0.606016
0.619015
0.631124
0.642385
0.652843
0.662541
0.671525
0.679838
0.687524
0.694625
0.701181
0.707157
0.712554
0.717718
0.72248
0.726837
0.730921
0.734805
0.738493
0.741988
0.745292
0.748406
0.751328
0.754054
0.756583
0.758907
0.761021
0.762916
0.764584
0.766016
0.767202
0.768138
0.768833
0.769311
0.769616
0.769796
0.769896
0.769949
0.769976
0.769989
0.769995
0.769998
0.769999
0.77
0.77
0.77
0.77
0.77
0.77
0.77
0.77
0.77
0.77
0.77
0.77
2.16419e-06
9.45832e-06
2.17275e-05
4.22951e-05
7.66044e-05
0.000133466
0.000226949
0.000379162
0.000624218
0.00101363
0.00162328
0.00256163
0.00397831
0.0060709
0.00908665
0.0133151
0.019068
0.0266474
0.0363072
0.0482183
0.0624479
0.0789577
0.0976166
0.118223
0.140525
0.164246
0.189095
0.214781
0.241021
0.267552
0.294126
0.320523
0.346548
0.372033
0.396837
0.420847
0.443967
0.466127
0.487277
0.507385
0.526436
0.544427
0.561368
0.577278
0.592185
0.606122
0.619126
0.631238
0.642501
0.652959
0.662657
0.67164
0.679952
0.687637
0.694735
0.701288
0.707261
0.712654
0.717815
0.722573
0.726919
0.731007
0.734889
0.738575
0.742068
0.74537
0.748481
0.751399
0.754122
0.756646
0.758965
0.761073
0.762963
0.764625
0.766051
0.76723
0.76816
0.768848
0.769321
0.769622
0.769799
0.769898
0.76995
0.769976
0.769989
0.769995
0.769998
0.769999
0.77
0.77
0.77
0.77
0.77
0.77
0.77
0.77
0.77
0.77
0.77
0.77
2.16201e-06
9.4488e-06
2.17056e-05
4.22526e-05
7.65274e-05
0.000133332
0.000226721
0.000378783
0.000623596
0.00101263
0.0016217
0.00255918
0.00397461
0.00606545
0.00907885
0.0133043
0.0190535
0.0266288
0.0362842
0.0481908
0.0624163
0.0789226
0.097579
0.118184
0.140486
0.164208
0.189059
0.214748
0.240993
0.267528
0.294109
0.320512
0.346544
0.372036
0.396849
0.420866
0.443994
0.466161
0.487318
0.507432
0.526488
0.544484
0.56143
0.577345
0.592255
0.606195
0.619201
0.631314
0.642577
0.653036
0.662734
0.671716
0.680027
0.68771
0.694807
0.701358
0.707332
0.712722
0.71788
0.722635
0.726972
0.731063
0.734945
0.73863
0.742121
0.745421
0.74853
0.751446
0.754166
0.756687
0.759004
0.761108
0.762994
0.764652
0.766074
0.767249
0.768174
0.768858
0.769327
0.769626
0.769802
0.769899
0.769951
0.769976
0.769989
0.769995
0.769998
0.769999
0.77
0.77
0.77
0.77
0.77
0.77
0.77
0.77
0.77
0.77
0.77
0.77
2.16095e-06
9.44419e-06
2.16951e-05
4.22321e-05
7.64903e-05
0.000133268
0.000226612
0.000378601
0.000623299
0.00101215
0.00162095
0.00255802
0.00397286
0.00606287
0.00907518
0.0132992
0.0190467
0.0266201
0.0362733
0.0481778
0.0624014
0.0789061
0.0975613
0.118165
0.140467
0.16419
0.189042
0.214732
0.240979
0.267518
0.294101
0.320508
0.346543
0.372039
0.396855
0.420875
0.444007
0.466178
0.487338
0.507455
0.526514
0.544513
0.561461
0.577378
0.59229
0.606231
0.619237
0.631351
0.642615
0.653074
0.662772
0.671754
0.680065
0.687747
0.694843
0.701393
0.707367
0.712756
0.717912
0.722665
0.726999
0.731091
0.734972
0.738656
0.742147
0.745447
0.748555
0.751469
0.754188
0.756708
0.759022
0.761125
0.763009
0.764665
0.766085
0.767257
0.76818
0.768862
0.76933
0.769627
0.769803
0.7699
0.769951
0.769976
0.769989
0.769995
0.769998
0.769999
0.77
0.77
0.77
0.77
0.77
0.77
0.77
0.77
0.77
0.77
0.77
0.77
2.16096e-06
9.44422e-06
2.16951e-05
4.22322e-05
7.64905e-05
0.000133268
0.000226613
0.000378602
0.000623301
0.00101216
0.00162095
0.00255803
0.00397287
0.00606289
0.0090752
0.0132992
0.0190468
0.0266201
0.0362734
0.0481779
0.0624015
0.0789062
0.0975614
0.118165
0.140468
0.16419
0.189042
0.214732
0.24098
0.267518
0.294101
0.320508
0.346543
0.372039
0.396855
0.420876
0.444007
0.466178
0.487338
0.507455
0.526514
0.544513
0.561461
0.577378
0.59229
0.606231
0.619238
0.631351
0.642615
0.653074
0.662772
0.671754
0.680065
0.687747
0.694843
0.701393
0.707367
0.712756
0.717912
0.722665
0.726999
0.731091
0.734972
0.738656
0.742147
0.745447
0.748555
0.751469
0.754188
0.756708
0.759022
0.761125
0.763009
0.764665
0.766085
0.767257
0.76818
0.768862
0.76933
0.769627
0.769803
0.7699
0.769951
0.769976
0.769989
0.769995
0.769998
0.769999
0.77
0.77
0.77
0.77
0.77
0.77
0.77
0.77
0.77
0.77
0.77
0.77
2.16204e-06
9.4489e-06
2.17059e-05
4.22531e-05
7.65282e-05
0.000133333
0.000226723
0.000378786
0.000623601
0.00101264
0.00162171
0.0025592
0.00397464
0.00606549
0.00907892
0.0133044
0.0190536
0.026629
0.0362844
0.048191
0.0624165
0.0789229
0.0975793
0.118184
0.140486
0.164208
0.189059
0.214748
0.240993
0.267529
0.294109
0.320513
0.346544
0.372037
0.396849
0.420866
0.443994
0.466161
0.487318
0.507432
0.526488
0.544484
0.56143
0.577345
0.592255
0.606195
0.619201
0.631314
0.642577
0.653036
0.662734
0.671716
0.680027
0.68771
0.694807
0.701358
0.707332
0.712722
0.71788
0.722635
0.726972
0.731063
0.734945
0.73863
0.742121
0.745421
0.74853
0.751446
0.754166
0.756687
0.759004
0.761108
0.762994
0.764652
0.766074
0.767249
0.768174
0.768858
0.769327
0.769626
0.769802
0.769899
0.769951
0.769976
0.769989
0.769995
0.769998
0.769999
0.77
0.77
0.77
0.77
0.77
0.77
0.77
0.77
0.77
0.77
0.77
0.77
2.16423e-06
9.45849e-06
2.17279e-05
4.22959e-05
7.66057e-05
0.000133468
0.000226953
0.000379168
0.000624228
0.00101365
0.0016233
0.00256167
0.00397836
0.00607097
0.00908675
0.0133152
0.0190682
0.0266477
0.0363075
0.0482186
0.0624483
0.0789581
0.097617
0.118223
0.140526
0.164247
0.189095
0.214781
0.241022
0.267552
0.294126
0.320523
0.346548
0.372033
0.396838
0.420847
0.443968
0.466128
0.487278
0.507386
0.526436
0.544427
0.561368
0.577278
0.592185
0.606122
0.619126
0.631238
0.642501
0.652959
0.662657
0.67164
0.679952
0.687637
0.694735
0.701288
0.707261
0.712654
0.717815
0.722573
0.726919
0.731007
0.734889
0.738575
0.742068
0.74537
0.748481
0.751399
0.754122
0.756646
0.758965
0.761073
0.762963
0.764625
0.766051
0.76723
0.76816
0.768848
0.769321
0.769622
0.769799
0.769898
0.76995
0.769976
0.769989
0.769995
0.769998
0.769999
0.77
0.77
0.77
0.77
0.77
0.77
0.77
0.77
0.77
0.77
0.77
0.77
2.16759e-06
9.47314e-06
2.17615e-05
4.23613e-05
7.67243e-05
0.000133675
0.000227304
0.000379755
0.000625189
0.0010152
0.00162575
0.00256545
0.00398409
0.00607942
0.00909885
0.013332
0.0190906
0.0266766
0.0363434
0.0482614
0.0624975
0.0790128
0.0976759
0.118284
0.140588
0.164308
0.189153
0.214834
0.241068
0.267591
0.294156
0.320543
0.346557
0.37203
0.396824
0.420822
0.443932
0.466081
0.487221
0.50732
0.526362
0.544344
0.561278
0.577183
0.592084
0.606016
0.619015
0.631124
0.642385
0.652843
0.662541
0.671525
0.679838
0.687524
0.694625
0.701181
0.707157
0.712554
0.717718
0.72248
0.726837
0.730921
0.734805
0.738493
0.741988
0.745292
0.748406
0.751328
0.754054
0.756583
0.758907
0.761021
0.762916
0.764584
0.766016
0.767202
0.768138
0.768833
0.769311
0.769616
0.769796
0.769896
0.769949
0.769976
0.769988
0.769995
0.769998
0.769999
0.77
0.77
0.77
0.77
0.77
0.77
0.77
0.77
0.77
0.77
0.77
0.77
2.17217e-06
9.49315e-06
2.18074e-05
4.24508e-05
7.68865e-05
0.000133958
0.000227785
0.000380557
0.000626505
0.00101732
0.00162911
0.00257066
0.00399197
0.00609104
0.00911551
0.0133551
0.0191216
0.0267166
0.0363931
0.0483209
0.0625662
0.0790894
0.0977585
0.118371
0.140675
0.164394
0.189236
0.21491
0.241136
0.267648
0.294201
0.320575
0.346575
0.372033
0.396811
0.420794
0.443888
0.466023
0.487148
0.507234
0.526263
0.544235
0.56116
0.577056
0.59195
0.605876
0.618871
0.630975
0.642232
0.652687
0.662385
0.67137
0.679685
0.687373
0.694476
0.701035
0.707017
0.712419
0.717588
0.722355
0.726725
0.730805
0.734691
0.738381
0.741879
0.745187
0.748304
0.751231
0.753963
0.756497
0.758828
0.760949
0.762852
0.764528
0.765969
0.767164
0.768109
0.768812
0.769297
0.769607
0.769791
0.769894
0.769948
0.769975
0.769988
0.769995
0.769998
0.769999
0.77
0.77
0.77
0.77
0.77
0.77
0.77
0.77
0.77
0.77
0.77
0.77
2.17806e-06
9.51889e-06
2.18666e-05
4.2566e-05
7.70953e-05
0.000134322
0.000228406
0.000381594
0.000628206
0.00102006
0.00163346
0.00257741
0.00400221
0.00610617
0.00913724
0.0133853
0.0191621
0.0267691
0.0364585
0.0483994
0.062657
0.0791909
0.0978685
0.118486
0.140794
0.164511
0.189349
0.215016
0.241232
0.267731
0.294268
0.320625
0.346606
0.372045
0.396803
0.420766
0.44384
0.465956
0.487063
0.507131
0.526144
0.544102
0.561013
0.576898
0.591783
0.605701
0.61869
0.63079
0.642044
0.652496
0.66219
0.671174
0.679491
0.687181
0.694288
0.700852
0.70684
0.712248
0.717423
0.722196
0.726582
0.730659
0.734547
0.738239
0.74174
0.745052
0.748174
0.751107
0.753846
0.756388
0.758727
0.760857
0.762769
0.764457
0.765908
0.767115
0.768072
0.768785
0.769279
0.769596
0.769785
0.76989
0.769946
0.769974
0.769988
0.769994
0.769997
0.769999
0.769999
0.77
0.77
0.77
0.77
0.77
0.77
0.77
0.77
0.77
0.77
0.77
2.18537e-06
9.5508e-06
2.19399e-05
4.27088e-05
7.73546e-05
0.000134775
0.000229178
0.000382884
0.000630328
0.00102349
0.00163889
0.00258586
0.00401506
0.0061252
0.00916461
0.0134234
0.0192135
0.0268357
0.0365418
0.0484997
0.0627735
0.0793217
0.0980108
0.118637
0.140948
0.164666
0.189499
0.215159
0.241362
0.267846
0.294366
0.320702
0.346661
0.372076
0.39681
0.420747
0.443797
0.465888
0.486971
0.507017
0.52601
0.543949
0.560843
0.576713
0.591585
0.605492
0.618472
0.630566
0.641815
0.652265
0.661959
0.670941
0.679256
0.686948
0.694059
0.700627
0.706624
0.712039
0.71722
0.722001
0.726407
0.730478
0.734367
0.738062
0.741567
0.744884
0.748013
0.750953
0.7537
0.756252
0.758601
0.760743
0.762668
0.764368
0.765833
0.767054
0.768025
0.768751
0.769257
0.769582
0.769777
0.769886
0.769944
0.769973
0.769987
0.769994
0.769997
0.769999
0.769999
0.77
0.77
0.77
0.77
0.77
0.77
0.77
0.77
0.77
0.77
0.77
2.19418e-06
9.58931e-06
2.20284e-05
4.28814e-05
7.76682e-05
0.000135324
0.000230113
0.000384451
0.000632908
0.00102767
0.00164553
0.00259621
0.00403081
0.00614858
0.00919833
0.0134706
0.0192771
0.0269185
0.0366456
0.0486251
0.0629198
0.0794868
0.0981915
0.118829
0.141147
0.164867
0.189697
0.215348
0.241538
0.268005
0.294504
0.320816
0.346748
0.372135
0.396838
0.420746
0.443765
0.465826
0.486881
0.5069
0.525867
0.543782
0.560655
0.576505
0.59136
0.605253
0.618221
0.630305
0.641548
0.651993
0.661685
0.670668
0.678985
0.686678
0.693789
0.700362
0.706368
0.711791
0.716981
0.72177
0.726192
0.730259
0.734151
0.73785
0.741358
0.744682
0.747818
0.750766
0.753524
0.756086
0.758449
0.760604
0.762544
0.76426
0.765742
0.76698
0.767968
0.76871
0.769229
0.769565
0.769768
0.769881
0.769941
0.769972
0.769987
0.769994
0.769997
0.769999
0.769999
0.77
0.77
0.77
0.77
0.77
0.77
0.77
0.77
0.77
0.77
0.77
2.20459e-06
9.63481e-06
2.2133e-05
4.30857e-05
7.80396e-05
0.000135974
0.000231225
0.000386315
0.000635984
0.00103266
0.00165349
0.00260862
0.00404977
0.0061768
0.00923915
0.0135278
0.0193546
0.0270197
0.036773
0.0487798
0.0631012
0.0796925
0.0984178
0.119071
0.1414
0.165124
0.189952
0.215595
0.241773
0.26822
0.294696
0.32098
0.346881
0.372235
0.396903
0.420775
0.443758
0.465783
0.486802
0.506787
0.525722
0.543608
0.560454
0.57628
0.591113
0.604988
0.61794
0.630011
0.641243
0.651681
0.661368
0.670349
0.678666
0.686363
0.693478
0.700052
0.706068
0.711501
0.7167
0.721501
0.725935
0.730001
0.733897
0.7376
0.741115
0.744442
0.747585
0.750542
0.75331
0.755886
0.758263
0.760437
0.762396
0.764131
0.765632
0.76689
0.767898
0.768659
0.769195
0.769545
0.769757
0.769875
0.769938
0.76997
0.769986
0.769994
0.769997
0.769999
0.769999
0.77
0.77
0.77
0.77
0.77
0.77
0.77
0.77
0.77
0.77
0.77
2.21666e-06
9.68754e-06
2.22544e-05
4.33227e-05
7.84713e-05
0.000136731
0.000232521
0.000388494
0.000639587
0.00103852
0.00166285
0.00262329
0.00407224
0.00621036
0.00928788
0.0135963
0.0194478
0.027142
0.0369277
0.0489684
0.0633233
0.0799459
0.0986983
0.119373
0.141717
0.165449
0.190279
0.215916
0.24208
0.268508
0.294957
0.321211
0.347077
0.372392
0.397019
0.420848
0.443788
0.465771
0.486748
0.506691
0.525588
0.543436
0.560249
0.576044
0.59085
0.604701
0.617632
0.629686
0.640905
0.651332
0.661011
0.669987
0.678303
0.686001
0.693121
0.699703
0.705727
0.711166
0.716376
0.721188
0.725634
0.7297
0.733601
0.737312
0.740836
0.744176
0.747331
0.7503
0.753081
0.755669
0.758058
0.760246
0.762223
0.763978
0.765502
0.766784
0.767815
0.768598
0.769157
0.769522
0.769743
0.769868
0.769934
0.769968
0.769985
0.769993
0.769997
0.769999
0.769999
0.77
0.77
0.77
0.77
0.77
0.77
0.77
0.77
0.77
0.77
0.77
2.23034e-06
9.7474e-06
2.23923e-05
4.35924e-05
7.89632e-05
0.000137595
0.000234004
0.000390994
0.000643733
0.00104528
0.0016737
0.00264035
0.00409847
0.0062497
0.00934524
0.0136774
0.0195585
0.027288
0.0371132
0.0491959
0.0635928
0.0802551
0.0990429
0.119747
0.142113
0.165859
0.190694
0.216327
0.242479
0.268887
0.295309
0.321529
0.347355
0.372627
0.397207
0.420986
0.443874
0.465806
0.486734
0.506627
0.525476
0.54328
0.560051
0.575808
0.59058
0.6044
0.617305
0.629336
0.640536
0.650948
0.660616
0.669585
0.677896
0.685592
0.692713
0.699299
0.705335
0.710786
0.716004
0.720829
0.725292
0.729358
0.733261
0.736976
0.740507
0.743855
0.747021
0.750002
0.752798
0.755404
0.757815
0.76002
0.762017
0.763799
0.76535
0.766658
0.767716
0.768532
0.769113
0.769494
0.769727
0.769859
0.76993
0.769966
0.769984
0.769993
0.769997
0.769999
0.769999
0.77
0.77
0.77
0.77
0.77
0.77
0.77
0.77
0.77
0.77
0.77
2.24552e-06
9.81381e-06
2.25454e-05
4.38925e-05
7.95116e-05
0.000138561
0.000235667
0.000393806
0.000648415
0.00105296
0.00168606
0.00265987
0.00412863
0.00629517
0.00941189
0.0137721
0.0196886
0.0274604
0.0373336
0.0494677
0.0639168
0.0806293
0.0994628
0.120206
0.142603
0.16637
0.191216
0.21685
0.242993
0.269381
0.295775
0.321958
0.347741
0.372963
0.397489
0.421211
0.44404
0.46591
0.486778
0.506614
0.525406
0.543156
0.559875
0.575585
0.590314
0.604095
0.616966
0.628968
0.640143
0.650535
0.660187
0.669144
0.677448
0.68514
0.69226
0.698849
0.704901
0.710364
0.715592
0.720426
0.724899
0.72897
0.732879
0.736601
0.740141
0.743501
0.746682
0.749681
0.752496
0.755123
0.757554
0.759783
0.761797
0.763592
0.765169
0.766512
0.767613
0.768457
0.76906
0.769461
0.769707
0.769849
0.769925
0.769964
0.769983
0.769992
0.769996
0.769998
0.769999
0.77
0.77
0.77
0.77
0.77
0.77
0.77
0.77
0.77
0.77
0.77
2.26183e-06
9.88525e-06
2.27104e-05
4.42165e-05
8.01052e-05
0.00013961
0.000237479
0.000396884
0.000653564
0.00106144
0.0016998
0.00268171
0.00416261
0.00634674
0.00948801
0.013881
0.0198393
0.0276616
0.0375926
0.0497894
0.064303
0.0810785
0.0999704
0.120765
0.143203
0.167002
0.191867
0.217509
0.243646
0.270018
0.296383
0.322528
0.348263
0.37343
0.397895
0.421551
0.444311
0.466111
0.486906
0.506673
0.525398
0.543082
0.559739
0.575391
0.590067
0.6038
0.616628
0.628592
0.639735
0.6501
0.659731
0.668671
0.676963
0.684648
0.691768
0.698361
0.704435
0.709902
0.715135
0.719977
0.72446
0.728533
0.732443
0.736171
0.739719
0.74309
0.746284
0.7493
0.752135
0.754783
0.75724
0.759499
0.761541
0.763383
0.764997
0.766373
0.767496