/*--------------------------------*- C++ -*----------------------------------*\
  =========                 |
  \\      /  F ield         | OpenFOAM: The Open Source CFD Toolbox
   \\    /   O peration     | Website:  https://openfoam.org
    \\  /    A nd           | Version:  8
     \\/     M anipulation  |
\*---------------------------------------------------------------------------*/
FoamFile
{
    version     2.0;
    format      ascii;
    class       volScalarField;
    location    "820/fluid";
    object      O2;
}
// * * * * * * * * * * * * * * * * * * * * * * * * * * * * * * * * * * * * * //

dimensions      [0 0 0 0 0 0 0];

internalField   nonuniform List<scalar> 
4000
(
4.58156e-10
2.00051e-09
4.5867e-09
8.90293e-09
1.60656e-08
2.787e-08
4.71627e-08
7.83838e-08
1.28323e-07
2.0712e-07
3.29516e-07
5.16265e-07
7.93451e-07
1.19711e-06
1.7678e-06
2.54856e-06
3.57895e-06
4.88766e-06
6.48561e-06
8.36213e-06
1.04853e-05
1.28061e-05
1.52645e-05
1.77955e-05
2.03341e-05
2.2819e-05
2.5195e-05
2.74144e-05
2.94379e-05
3.12351e-05
3.27868e-05
3.40879e-05
3.51538e-05
3.60301e-05
3.68062e-05
3.76289e-05
3.87145e-05
4.03597e-05
4.29512e-05
4.69828e-05
5.30846e-05
6.20673e-05
7.49825e-05
9.3199e-05
0.000118504
0.000153238
0.00020047
0.000264085
0.000349562
0.000463876
0.000616202
0.000818596
0.00108688
0.0014418
0.00191057
0.00252887
0.00334355
0.00440162
0.00577651
0.00763327
0.0100764
0.0132986
0.0184837
0.0349186
0.0515567
0.0681396
0.084466
0.100378
0.115747
0.130471
0.144461
0.157639
0.16993
0.181203
0.191502
0.200665
0.208594
0.215192
0.220386
0.224186
0.22673
0.228282
0.229148
0.229595
0.229813
0.229915
0.229963
0.229984
0.229993
0.229997
0.229999
0.229999
0.23
0.23
0.23
0.23
0.23
0.23
0.23
0.23
4.65292e-10
2.03308e-09
4.6671e-09
9.07365e-09
1.64038e-08
2.85106e-08
4.83326e-08
8.04466e-08
1.31826e-07
2.12813e-07
3.38212e-07
5.2821e-07
8.13096e-07
1.22647e-06
1.80933e-06
2.60522e-06
3.65439e-06
4.98653e-06
6.6139e-06
8.52725e-06
1.06958e-05
1.30713e-05
1.55933e-05
1.81959e-05
2.08126e-05
2.338e-05
2.58407e-05
2.81444e-05
3.02498e-05
3.21245e-05
3.37478e-05
3.51133e-05
3.62362e-05
3.71631e-05
3.79864e-05
3.88587e-05
4.00053e-05
4.17352e-05
4.44498e-05
4.8659e-05
5.50091e-05
6.43261e-05
7.76751e-05
9.6437e-05
0.00012241
0.000157943
0.000206021
0.000270737
0.000357478
0.000473226
0.000627164
0.000831356
0.00110163
0.00145876
0.00192997
0.00255102
0.0033689
0.00443029
0.00580941
0.00767335
0.010127
0.0133646
0.019793
0.0363283
0.053047
0.0696961
0.0860773
0.102033
0.117437
0.132184
0.146183
0.159353
0.171616
0.182832
0.193041
0.20207
0.209818
0.216192
0.221135
0.224688
0.227028
0.228437
0.22922
0.229626
0.229825
0.22992
0.229964
0.229984
0.229993
0.229997
0.229999
0.229999
0.23
0.23
0.23
0.23
0.23
0.23
0.23
0.23
4.74754e-10
2.07445e-09
4.76267e-09
9.26145e-09
1.67475e-08
2.91148e-08
4.93658e-08
8.21795e-08
1.347e-07
2.1759e-07
3.46345e-07
5.42866e-07
8.34717e-07
1.25759e-06
1.85329e-06
2.66635e-06
3.73827e-06
5.10029e-06
6.76643e-06
8.72921e-06
1.09594e-05
1.34093e-05
1.60189e-05
1.87213e-05
2.14484e-05
2.41347e-05
2.672e-05
2.91512e-05
3.13838e-05
3.33827e-05
3.51244e-05
3.66009e-05
3.78261e-05
3.88479e-05
3.97625e-05
4.07309e-05
4.19922e-05
4.38741e-05
4.68011e-05
5.13085e-05
5.80686e-05
6.79331e-05
8.19907e-05
0.000101645
0.000128719
0.000165449
0.000214941
0.000281623
0.000370584
0.000488863
0.000645691
0.000853177
0.0011272
0.00148861
0.00196473
0.0025915
0.00341623
0.00448483
0.00587368
0.00775195
0.0102251
0.0134956
0.0220866
0.0386961
0.0554823
0.0721856
0.0886038
0.104577
0.119974
0.134689
0.148627
0.161704
0.173837
0.184903
0.194896
0.203667
0.211124
0.217188
0.221832
0.225129
0.22728
0.228567
0.229282
0.229654
0.229838
0.229926
0.229967
0.229985
0.229994
0.229997
0.229999
0.23
0.23
0.23
0.23
0.23
0.23
0.23
0.23
0.23
4.86008e-10
2.12423e-09
4.87932e-09
9.49375e-09
1.71775e-08
2.98764e-08
5.06722e-08
8.43573e-08
1.38228e-07
2.23117e-07
3.5464e-07
5.54509e-07
8.51611e-07
1.28237e-06
1.88961e-06
2.71925e-06
3.8146e-06
5.20902e-06
6.91884e-06
8.9387e-06
1.1241e-05
1.37789e-05
1.64921e-05
1.9313e-05
2.21714e-05
2.49994e-05
2.77341e-05
3.03193e-05
3.27071e-05
3.48596e-05
3.67502e-05
3.83686e-05
3.97278e-05
4.08769e-05
4.19173e-05
4.30205e-05
4.44428e-05
4.65357e-05
4.97526e-05
5.46608e-05
6.19657e-05
7.25513e-05
8.75355e-05
0.000108354
0.000136735
0.000175117
0.000226993
0.000296225
0.000388237
0.00051014
0.000671257
0.000883814
0.00116384
0.00153237
0.00201701
0.00265409
0.00349145
0.00457298
0.00597814
0.00788123
0.0103914
0.0137096
0.0249335
0.0415692
0.058384
0.0751065
0.091526
0.107476
0.122823
0.137457
0.15128
0.164206
0.176149
0.187031
0.196763
0.205249
0.212403
0.218161
0.222517
0.225571
0.227539
0.228707
0.229352
0.229687
0.229853
0.229932
0.229969
0.229986
0.229994
0.229997
0.229999
0.23
0.23
0.23
0.23
0.23
0.23
0.23
0.23
0.23
4.95976e-10
2.16778e-09
4.97934e-09
9.68831e-09
1.7529e-08
3.04859e-08
5.17006e-08
8.60568e-08
1.40988e-07
2.27534e-07
3.6161e-07
5.65372e-07
8.68358e-07
1.30789e-06
1.92801e-06
2.77622e-06
3.89784e-06
5.32855e-06
7.08714e-06
9.1705e-06
1.15527e-05
1.4188e-05
1.70159e-05
1.99679e-05
2.29721e-05
2.59582e-05
2.88602e-05
3.16189e-05
3.4183e-05
3.65111e-05
3.85738e-05
4.0358e-05
4.18761e-05
4.31791e-05
4.43748e-05
4.56477e-05
4.7275e-05
4.96366e-05
5.32203e-05
5.86323e-05
6.662e-05
7.81125e-05
9.42449e-05
0.000116363
0.000146443
0.000187299
0.00024189
0.000314451
0.000410525
0.000537376
0.000704516
0.00092441
0.00121339
0.00159287
0.00209098
0.00274473
0.00360095
0.0047014
0.00613661
0.0080831
0.010647
0.0140166
0.027928
0.044546
0.0613655
0.0780894
0.0944922
0.1104
0.125674
0.140204
0.153892
0.166652
0.178378
0.189036
0.198508
0.206711
0.21357
0.219036
0.223124
0.225956
0.227762
0.228826
0.229412
0.229716
0.229866
0.229938
0.229972
0.229988
0.229995
0.229998
0.229999
0.23
0.23
0.23
0.23
0.23
0.23
0.23
0.23
0.23
5.04622e-10
2.20545e-09
5.06545e-09
9.85496e-09
1.7829e-08
3.10056e-08
5.25795e-08
8.75192e-08
1.43391e-07
2.31438e-07
3.6789e-07
5.75377e-07
8.84136e-07
1.3325e-06
1.96591e-06
2.83374e-06
3.98362e-06
5.45387e-06
7.26597e-06
9.41925e-06
1.18896e-05
1.4632e-05
1.75862e-05
2.06823e-05
2.38468e-05
2.70068e-05
3.00934e-05
3.3044e-05
3.58039e-05
3.8328e-05
4.05838e-05
4.25559e-05
4.42558e-05
4.57372e-05
4.71163e-05
4.85929e-05
5.04685e-05
5.31552e-05
5.71794e-05
6.31886e-05
7.19722e-05
8.44801e-05
0.00010181
0.000125605
0.000158109
0.000201645
0.000259572
0.00033628
0.00043751
0.000570779
0.000745921
0.000975803
0.00127726
0.00167234
0.00218993
0.00286731
0.00375411
0.00488993
0.00637121
0.00836766
0.0109843
0.0143795
0.0304674
0.0471863
0.064089
0.0808598
0.0972684
0.113141
0.128344
0.142767
0.15632
0.168921
0.18045
0.19089
0.200104
0.208029
0.214613
0.219814
0.223662
0.226298
0.227962
0.228935
0.229467
0.229742
0.229878
0.229944
0.229975
0.229989
0.229995
0.229998
0.229999
0.23
0.23
0.23
0.23
0.23
0.23
0.23
0.23
0.23
5.12589e-10
2.2402e-09
5.1451e-09
1.00097e-08
1.81092e-08
3.14945e-08
5.34145e-08
8.89244e-08
1.45729e-07
2.3529e-07
3.74176e-07
5.85532e-07
9.00362e-07
1.3581e-06
2.00574e-06
2.89468e-06
4.07507e-06
5.58809e-06
7.45816e-06
9.68722e-06
1.22531e-05
1.51119e-05
1.82031e-05
2.14561e-05
2.47954e-05
2.81455e-05
3.14345e-05
3.45962e-05
3.75721e-05
4.03137e-05
4.27848e-05
4.49675e-05
4.68728e-05
4.8558e-05
5.01495e-05
5.18654e-05
5.40347e-05
5.71066e-05
6.16509e-05
6.83635e-05
7.80365e-05
9.15987e-05
0.000110449
0.000136423
0.000171364
0.000217969
0.000279753
0.000361315
0.000468678
0.000609726
0.000794783
0.00103736
0.00135515
0.00177125
0.00231584
0.00302892
0.00396359
0.0051486
0.00674478
0.00883108
0.0115531
0.0150325
0.0320016
0.0492172
0.0663951
0.0833047
0.0997616
0.115618
0.130754
0.145069
0.158474
0.170886
0.182167
0.192399
0.201429
0.209162
0.21552
0.220489
0.224126
0.226591
0.228132
0.229027
0.229514
0.229765
0.229889
0.229949
0.229977
0.22999
0.229995
0.229998
0.229999
0.23
0.23
0.23
0.23
0.23
0.23
0.23
0.23
0.23
5.20208e-10
2.27347e-09
5.22146e-09
1.01585e-08
1.83794e-08
3.19679e-08
5.4227e-08
9.03001e-08
1.48034e-07
2.39118e-07
3.80478e-07
5.95806e-07
9.16933e-07
1.3845e-06
2.04716e-06
2.95855e-06
4.17154e-06
5.73043e-06
7.66281e-06
9.97348e-06
1.26424e-05
1.56268e-05
1.88665e-05
2.22896e-05
2.5819e-05
2.93766e-05
3.28871e-05
3.62808e-05
3.94954e-05
4.24782e-05
4.51894e-05
4.76084e-05
4.97458e-05
5.16633e-05
5.34992e-05
5.54924e-05
5.80018e-05
6.15147e-05
6.66427e-05
7.40896e-05
8.46715e-05
9.95663e-05
0.000120305
0.000148369
0.000185938
0.000235838
0.000301759
0.000388538
0.000502518
0.000652033
0.000848037
0.00110495
0.00144177
0.00188361
0.00246376
0.00322651
0.00422492
0.00550421
0.00724716
0.00955251
0.0126147
0.0166244
0.0338711
0.0512915
0.0685991
0.0855728
0.102039
0.11786
0.132923
0.147134
0.16041
0.172676
0.183827
0.193867
0.20268
0.210187
0.216321
0.221076
0.224526
0.226842
0.228278
0.229106
0.229554
0.229785
0.229898
0.229953
0.229979
0.22999
0.229996
0.229998
0.229999
0.23
0.23
0.23
0.23
0.23
0.23
0.23
0.23
0.23
5.27686e-10
2.30615e-09
5.29661e-09
1.03052e-08
1.86467e-08
3.24382e-08
5.5038e-08
9.16804e-08
1.50361e-07
2.43007e-07
3.86919e-07
6.06375e-07
9.34083e-07
1.41197e-06
2.09047e-06
3.0256e-06
4.27317e-06
5.88082e-06
7.87957e-06
1.02773e-05
1.30565e-05
1.61758e-05
1.95752e-05
2.31822e-05
2.69179e-05
3.07016e-05
3.44549e-05
3.81042e-05
4.15831e-05
4.48346e-05
4.7815e-05
5.05006e-05
5.29019e-05
5.50859e-05
5.72048e-05
5.95216e-05
6.24282e-05
6.64553e-05
7.22071e-05
8.04118e-05
9.21079e-05
0.000108595
0.000131074
0.000161307
0.00020156
0.000254773
0.000324788
0.000416634
0.000536911
0.000694284
0.000900147
0.0011695
0.00152212
0.00198414
0.00259017
0.00338619
0.00442788
0.00576849
0.00759858
0.0100261
0.0132656
0.0183287
0.0357593
0.0532918
0.070655
0.0876365
0.10407
0.119823
0.134787
0.148873
0.162004
0.174106
0.185093
0.194958
0.203592
0.210938
0.216951
0.221564
0.224863
0.227055
0.228402
0.229173
0.229589
0.229801
0.229906
0.229957
0.22998
0.229991
0.229996
0.229998
0.229999
0.23
0.23
0.23
0.23
0.23
0.23
0.23
0.23
0.23
5.35093e-10
2.33853e-09
5.37116e-09
1.0451e-08
1.89129e-08
3.29079e-08
5.58505e-08
9.30685e-08
1.5271e-07
2.4695e-07
3.93482e-07
6.17192e-07
9.51715e-07
1.44032e-06
2.13536e-06
3.09535e-06
4.37923e-06
6.03821e-06
8.10702e-06
1.0597e-05
1.34934e-05
1.67565e-05
2.0327e-05
2.41321e-05
2.80911e-05
3.21211e-05
3.61405e-05
4.00719e-05
4.38446e-05
4.73971e-05
5.06813e-05
5.36705e-05
5.63749e-05
5.88675e-05
6.13159e-05
6.40077e-05
6.73665e-05
7.19269e-05
7.83353e-05
8.75029e-05
0.000100568
0.000118521
0.000142807
0.000175246
0.000218175
0.000274625
0.000348545
0.0004451
0.000571045
0.000735234
0.000949274
0.0012284
0.00159263
0.00206829
0.00269013
0.003504
0.00456147
0.00591696
0.00775702
0.010177
0.0133677
0.0201454
0.0376374
0.0552076
0.0725824
0.0895509
0.105949
0.121645
0.136536
0.150533
0.16356
0.175543
0.186413
0.196126
0.204591
0.21174
0.217521
0.221978
0.225153
0.227236
0.228507
0.229229
0.229618
0.229816
0.229913
0.22996
0.229982
0.229992
0.229996
0.229998
0.229999
0.23
0.23
0.23
0.23
0.23
0.23
0.23
0.23
0.23
5.42425e-10
2.3706e-09
5.44505e-09
1.05957e-08
1.91777e-08
3.3376e-08
5.66624e-08
9.44598e-08
1.55073e-07
2.50929e-07
4.00128e-07
6.28186e-07
9.69696e-07
1.46934e-06
2.18144e-06
3.16715e-06
4.48869e-06
6.2011e-06
8.34309e-06
1.09298e-05
1.39496e-05
1.73649e-05
2.11176e-05
2.51348e-05
2.93347e-05
3.36324e-05
3.79432e-05
4.21863e-05
4.62865e-05
5.01778e-05
5.38075e-05
5.71457e-05
6.02029e-05
6.30596e-05
6.59024e-05
6.9048e-05
7.2917e-05
7.80543e-05
8.53007e-05
9.56719e-05
0.000110008
0.000129517
0.000155681
0.000190371
0.000235985
0.000295622
0.000373315
0.000474314
0.000605476
0.000775752
0.00099684
0.00128404
0.0016574
0.00214319
0.00277593
0.00360088
0.00466742
0.00602961
0.00787384
0.0102899
0.0134657
0.0218971
0.0393955
0.0569516
0.0742961
0.0912208
0.107557
0.123175
0.13797
0.151872
0.164804
0.1767
0.187496
0.197094
0.205424
0.212427
0.218061
0.22234
0.225393
0.22739
0.228595
0.229277
0.229642
0.229828
0.229919
0.229963
0.229983
0.229992
0.229997
0.229999
0.229999
0.23
0.23
0.23
0.23
0.23
0.23
0.23
0.23
0.23
5.49617e-10
2.40207e-09
5.5176e-09
1.07379e-08
1.94383e-08
3.38377e-08
5.7465e-08
9.58387e-08
1.57421e-07
2.54895e-07
4.0677e-07
6.39206e-07
9.87773e-07
1.49859e-06
2.22803e-06
3.23995e-06
4.60004e-06
6.3673e-06
8.58474e-06
1.12716e-05
1.44199e-05
1.79948e-05
2.19397e-05
2.61824e-05
3.06406e-05
3.52278e-05
3.9857e-05
4.44439e-05
4.89095e-05
5.31832e-05
5.72075e-05
6.09492e-05
6.44192e-05
6.77064e-05
7.10175e-05
7.46842e-05
7.91077e-05
8.5035e-05
9.33884e-05
0.000104906
0.00012063
0.0001418
0.000169939
0.000206964
0.000255325
0.000318184
0.000399638
0.000505012
0.000641232
0.000817314
0.00104501
0.00133964
0.00172121
0.00221585
0.00285748
0.00369097
0.00476621
0.00613629
0.00798515
0.0104013
0.0135702
0.0234582
0.0409651
0.0585127
0.0758273
0.0926986
0.108974
0.12454
0.139295
0.153136
0.165989
0.177785
0.188458
0.197934
0.206138
0.213011
0.218518
0.222677
0.225601
0.227517
0.22867
0.229318
0.229663
0.229838
0.229924
0.229965
0.229984
0.229993
0.229997
0.229999
0.229999
0.23
0.23
0.23
0.23
0.23
0.23
0.23
0.23
0.23
5.56564e-10
2.43247e-09
5.58774e-09
1.08756e-08
1.96909e-08
3.42858e-08
5.82455e-08
9.71824e-08
1.59714e-07
2.58779e-07
4.13293e-07
6.50056e-07
1.00562e-06
1.52756e-06
2.27428e-06
3.31246e-06
4.71127e-06
6.53389e-06
8.82784e-06
1.16169e-05
1.4897e-05
1.86368e-05
2.27821e-05
2.72617e-05
3.1994e-05
3.68917e-05
4.18663e-05
4.68309e-05
5.17031e-05
5.64081e-05
6.08844e-05
6.50955e-05
6.90533e-05
7.28566e-05
7.67331e-05
8.09818e-05
8.61838e-05
9.31673e-05
0.000102594
0.000115393
0.000132634
0.000155592
0.000185828
0.000225305
0.000276526
0.000342711
0.000428021
0.000537846
0.000679176
0.000861086
0.00109537
0.00139736
0.00178689
0.00228979
0.00294039
0.00378421
0.00486779
0.00624427
0.0080975
0.0105131
0.0136732
0.024801
0.042321
0.0598584
0.0771457
0.0939949
0.110248
0.125768
0.140454
0.15422
0.166991
0.178697
0.189273
0.198645
0.206741
0.213503
0.218899
0.222954
0.22579
0.227624
0.228731
0.229351
0.22968
0.229846
0.229928
0.229967
0.229985
0.229993
0.229997
0.229999
0.229999
0.23
0.23
0.23
0.23
0.23
0.23
0.23
0.23
0.23
5.63132e-10
2.46122e-09
5.6541e-09
1.10059e-08
1.99303e-08
3.47112e-08
5.89879e-08
9.8463e-08
1.61904e-07
2.62496e-07
4.19551e-07
6.60493e-07
1.02283e-06
1.55557e-06
2.31916e-06
3.38303e-06
4.81989e-06
6.69718e-06
9.06711e-06
1.19583e-05
1.53711e-05
1.92781e-05
2.36283e-05
2.83529e-05
3.33716e-05
3.85976e-05
4.3942e-05
4.93169e-05
5.46376e-05
5.98267e-05
6.48196e-05
6.95783e-05
7.41181e-05
7.85522e-05
8.31109e-05
8.81727e-05
9.4396e-05
0.000102415
0.000113061
0.000127284
0.000146182
0.000171064
0.000203533
0.000245599
0.000299818
0.00036947
0.000458778
0.000573194
0.000719775
0.000907625
0.00114848
0.00145747
0.00185462
0.00236657
0.00302722
0.00388026
0.00497172
0.00635464
0.00821176
0.0106258
0.0137715
0.0259374
0.0434791
0.0610144
0.0782981
0.095122
0.111331
0.1268
0.141428
0.15513
0.16783
0.17946
0.189955
0.199239
0.207244
0.213911
0.219213
0.223181
0.225943
0.22772
0.228781
0.229377
0.229694
0.229853
0.229931
0.229968
0.229986
0.229994
0.229997
0.229999
0.229999
0.23
0.23
0.23
0.23
0.23
0.23
0.23
0.23
0.23
5.69168e-10
2.48765e-09
5.71513e-09
1.11259e-08
2.01509e-08
3.51037e-08
5.96738e-08
9.96484e-08
1.63936e-07
2.65952e-07
4.25381e-07
6.70241e-07
1.03895e-06
1.58188e-06
2.36143e-06
3.44971e-06
4.92292e-06
6.85268e-06
9.29596e-06
1.22863e-05
1.58291e-05
1.99014e-05
2.4456e-05
2.94276e-05
3.47383e-05
4.03035e-05
4.60355e-05
5.18468e-05
5.76528e-05
6.33749e-05
6.89473e-05
7.43316e-05
7.95472e-05
8.47196e-05
9.00758e-05
9.61858e-05
0.000103533
0.000112792
0.000124831
0.000140633
0.000161331
0.000188273
0.000223107
0.000267895
0.000325251
0.000398517
0.000491969
0.000611095
0.000762928
0.00095653
0.00120378
0.00152055
0.00192674
0.00244776
0.00311729
0.00397919
0.00507814
0.00646693
0.00832701
0.0107382
0.0138629
0.0268795
0.0444488
0.0619918
0.0792599
0.0960573
0.11223
0.127656
0.142235
0.155883
0.168524
0.18009
0.190518
0.19973
0.207658
0.214247
0.219471
0.223366
0.226065
0.227796
0.228825
0.229399
0.229704
0.229858
0.229933
0.229969
0.229986
0.229994
0.229997
0.229999
0.229999
0.23
0.23
0.23
0.23
0.23
0.23
0.23
0.23
0.23
5.74514e-10
2.51106e-09
5.76921e-09
1.12323e-08
2.03466e-08
3.54525e-08
6.02841e-08
1.00705e-07
1.6575e-07
2.69043e-07
4.30609e-07
6.79002e-07
1.05348e-06
1.60565e-06
2.39974e-06
3.51036e-06
5.01697e-06
6.9952e-06
9.50666e-06
1.25899e-05
1.62553e-05
2.04849e-05
2.52361e-05
3.04478e-05
3.60461e-05
4.19499e-05
4.8075e-05
5.43367e-05
6.06531e-05
6.69482e-05
7.31597e-05
7.92555e-05
8.52697e-05
9.13549e-05
9.78108e-05
0.000105074
0.000113679
0.000124294
0.000137846
0.000155344
0.000177954
0.000207063
0.000244367
0.000291977
0.000352553
0.000429462
0.000526984
0.000650692
0.000807751
0.00100771
0.00126245
0.00158699
0.00200119
0.00253072
0.00320892
0.00407916
0.00518486
0.00657833
0.00843949
0.0108451
0.0139465
0.0276435
0.045236
0.0627858
0.080044
0.09682
0.112963
0.128354
0.142892
0.156494
0.169087
0.1806
0.190973
0.200126
0.207992
0.214518
0.219678
0.223513
0.226163
0.227856
0.22886
0.229419
0.229714
0.229863
0.229935
0.22997
0.229987
0.229994
0.229997
0.229999
0.23
0.23
0.23
0.23
0.23
0.23
0.23
0.23
0.23
0.23
5.79011e-10
2.53076e-09
5.81472e-09
1.13219e-08
2.05116e-08
3.57467e-08
6.07997e-08
1.01599e-07
1.67287e-07
2.71668e-07
4.35057e-07
6.86472e-07
1.06589e-06
1.62602e-06
2.43267e-06
3.56265e-06
5.09835e-06
7.11904e-06
9.69057e-06
1.28562e-05
1.66312e-05
2.10027e-05
2.5933e-05
3.13659e-05
3.72326e-05
4.3457e-05
4.99597e-05
5.66616e-05
6.3486e-05
7.03626e-05
7.72347e-05
8.40784e-05
9.09401e-05
9.79885e-05
0.000105641
0.000114198
0.00012417
0.000136337
0.000151554
0.000170849
0.000195424
0.000226712
0.000266457
0.000316824
0.000380534
0.000461041
0.000562775
0.000691512
0.000854476
0.00106069
0.00132207
0.00165389
0.00207585
0.00261342
0.00329959
0.0041772
0.00528849
0.00668499
0.00854504
0.0109423
0.0140184
0.028248
0.0458674
0.0634207
0.0806693
0.0974267
0.113545
0.128905
0.14341
0.156975
0.169529
0.181001
0.191329
0.200436
0.208253
0.214728
0.219838
0.223628
0.226238
0.227902
0.228886
0.229433
0.229721
0.229866
0.229937
0.229971
0.229987
0.229994
0.229997
0.229999
0.23
0.23
0.23
0.23
0.23
0.23
0.23
0.23
0.23
0.23
5.82517e-10
2.54611e-09
5.85022e-09
1.13917e-08
2.06404e-08
3.59766e-08
6.1203e-08
1.02299e-07
1.68492e-07
2.73729e-07
4.38556e-07
6.92362e-07
1.0757e-06
1.64216e-06
2.45883e-06
3.60432e-06
5.16342e-06
7.21841e-06
9.83875e-06
1.30717e-05
1.69371e-05
2.14264e-05
2.65069e-05
3.21274e-05
3.82245e-05
4.47278e-05
5.15648e-05
5.86636e-05
6.59562e-05
7.33826e-05
8.08992e-05
8.84997e-05
9.62576e-05
0.000104388
0.000113237
0.000123115
0.000134446
0.000148062
0.000164863
0.000185913
0.000212397
0.000245792
0.000287964
0.000341133
0.000408092
0.000492375
0.000598477
0.000731946
0.000900042
0.00111201
0.0013797
0.0017183
0.00214736
0.00269205
0.00338492
0.00426811
0.00538287
0.00677937
0.00863457
0.0110203
0.014074
0.028693
0.0463398
0.0639003
0.0811429
0.0978856
0.113984
0.12932
0.143798
0.157335
0.169858
0.181298
0.191594
0.200665
0.208446
0.214883
0.219956
0.223711
0.226293
0.227935
0.228905
0.229443
0.229727
0.229869
0.229938
0.229972
0.229987
0.229994
0.229997
0.229999
0.23
0.23
0.23
0.23
0.23
0.23
0.23
0.23
0.23
0.23
5.84911e-10
2.5566e-09
5.87446e-09
1.14395e-08
2.07284e-08
3.61337e-08
6.14787e-08
1.02777e-07
1.69317e-07
2.75141e-07
4.40956e-07
6.96405e-07
1.08245e-06
1.65327e-06
2.47688e-06
3.63315e-06
5.20857e-06
7.2876e-06
9.94231e-06
1.3223e-05
1.71527e-05
2.17266e-05
2.69159e-05
3.26734e-05
3.89406e-05
4.56524e-05
5.27427e-05
6.01472e-05
6.78072e-05
7.56743e-05
8.37204e-05
9.19615e-05
0.000100505
0.000109611
0.000119608
0.000130865
0.00014368
0.000158758
0.000177035
0.000199605
0.000227811
0.000263191
0.000307542
0.000363158
0.000432885
0.000520294
0.000629889
0.000767369
0.000939992
0.001157
0.00143021
0.00177469
0.00220979
0.00276028
0.00345805
0.00434416
0.00545869
0.00684785
0.00868418
0.0110314
0.0140089
0.0289877
0.0466616
0.0642303
0.0814693
0.0982011
0.114284
0.129602
0.14406
0.157577
0.170078
0.181496
0.191769
0.200817
0.208573
0.214985
0.220033
0.223766
0.226329
0.227957
0.228918
0.22945
0.22973
0.229871
0.229939
0.229972
0.229987
0.229994
0.229997
0.229999
0.23
0.23
0.23
0.23
0.23
0.23
0.23
0.23
0.23
0.23
5.86108e-10
2.56183e-09
5.88654e-09
1.14632e-08
2.0772e-08
3.62113e-08
6.16144e-08
1.03012e-07
1.69721e-07
2.75831e-07
4.42127e-07
6.98376e-07
1.08573e-06
1.65869e-06
2.48569e-06
3.64724e-06
5.23069e-06
7.32161e-06
9.99341e-06
1.3298e-05
1.72601e-05
2.1877e-05
2.71219e-05
3.29503e-05
3.9306e-05
4.61278e-05
5.3353e-05
6.09225e-05
6.87836e-05
7.68958e-05
8.52416e-05
9.38516e-05
0.000102852
0.0001125
0.000123189
0.000135356
0.00014938
0.00016558
0.000184929
0.0002086
0.000237941
0.000274531
0.000320265
0.000377461
0.000449001
0.000538488
0.000650465
0.000790673
0.000966401
0.00118691
0.001464
0.00181273
0.00225232
0.00280738
0.00350949
0.00439919
0.00551588
0.0069044
0.00873586
0.0110718
0.0140282
0.0291326
0.0468304
0.0644063
0.0816432
0.0983678
0.114441
0.129748
0.144194
0.157699
0.170189
0.181595
0.191855
0.200891
0.208634
0.215034
0.22007
0.223791
0.226345
0.227967
0.228923
0.229453
0.229732
0.229871
0.22994
0.229972
0.229987
0.229994
0.229998
0.229999
0.23
0.23
0.23
0.23
0.23
0.23
0.23
0.23
0.23
0.23
5.86109e-10
2.56184e-09
5.88654e-09
1.14632e-08
2.0772e-08
3.62113e-08
6.16145e-08
1.03012e-07
1.69722e-07
2.75832e-07
4.42127e-07
6.98377e-07
1.08573e-06
1.65869e-06
2.48569e-06
3.64725e-06
5.2307e-06
7.32162e-06
9.99342e-06
1.3298e-05
1.72602e-05
2.18771e-05
2.7122e-05
3.29503e-05
3.93061e-05
4.61279e-05
5.33532e-05
6.09227e-05
6.87838e-05
7.68961e-05
8.5242e-05
9.38521e-05
0.000102852
0.0001125
0.000123189
0.000135355
0.00014938
0.000165579
0.000184929
0.0002086
0.000237941
0.000274531
0.000320265
0.000377461
0.000449001
0.000538489
0.000650465
0.000790674
0.000966402
0.00118691
0.00146401
0.00181273
0.00225232
0.00280739
0.00350949
0.00439919
0.00551589
0.0069044
0.00873586
0.0110718
0.0140282
0.0291326
0.0468304
0.0644063
0.0816432
0.0983678
0.114441
0.129748
0.144194
0.157699
0.170189
0.181595
0.191855
0.200891
0.208634
0.215034
0.22007
0.223791
0.226345
0.227967
0.228923
0.229453
0.229732
0.229871
0.22994
0.229972
0.229987
0.229994
0.229998
0.229999
0.23
0.23
0.23
0.23
0.23
0.23
0.23
0.23
0.23
0.23
5.84913e-10
2.55661e-09
5.87448e-09
1.14395e-08
2.07285e-08
3.61339e-08
6.14789e-08
1.02778e-07
1.69318e-07
2.75142e-07
4.40957e-07
6.96407e-07
1.08245e-06
1.65328e-06
2.47689e-06
3.63316e-06
5.20859e-06
7.28762e-06
9.94234e-06
1.3223e-05
1.71528e-05
2.17267e-05
2.6916e-05
3.26736e-05
3.89407e-05
4.56527e-05
5.2743e-05
6.01477e-05
6.78078e-05
7.56751e-05
8.37216e-05
9.19633e-05
0.000100507
0.000109611
0.000119608
0.000130864
0.000143678
0.000158756
0.000177033
0.000199603
0.00022781
0.000263189
0.000307541
0.000363158
0.000432886
0.000520296
0.000629891
0.000767372
0.000939996
0.00115701
0.00143021
0.0017747
0.0022098
0.00276029
0.00345806
0.00434417
0.00545871
0.00684786
0.00868419
0.0110314
0.0140089
0.0289877
0.0466616
0.0642303
0.0814693
0.0982011
0.114284
0.129602
0.14406
0.157577
0.170078
0.181496
0.191769
0.200817
0.208573
0.214985
0.220033
0.223766
0.226329
0.227957
0.228918
0.22945
0.22973
0.229871
0.229939
0.229972
0.229987
0.229994
0.229997
0.229999
0.23
0.23
0.23
0.23
0.23
0.23
0.23
0.23
0.23
0.23
5.82519e-10
2.54612e-09
5.85024e-09
1.13918e-08
2.06405e-08
3.59767e-08
6.12032e-08
1.02299e-07
1.68493e-07
2.7373e-07
4.38557e-07
6.92363e-07
1.0757e-06
1.64216e-06
2.45883e-06
3.60432e-06
5.16342e-06
7.21841e-06
9.83874e-06
1.30717e-05
1.69371e-05
2.14264e-05
2.65069e-05
3.21274e-05
3.82244e-05
4.47277e-05
5.15646e-05
5.86633e-05
6.59557e-05
7.33817e-05
8.08975e-05
8.84969e-05
9.62531e-05
0.000104385
0.000113235
0.000123114
0.000134445
0.00014806
0.00016486
0.000185908
0.000212392
0.000245791
0.000287964
0.000341134
0.000408094
0.000492378
0.000598482
0.000731952
0.000900049
0.00111202
0.00137971
0.00171831
0.00214737
0.00269207
0.00338494
0.00426814
0.0053829
0.00677939
0.0086346
0.0110204
0.014074
0.028693
0.0463399
0.0639003
0.081143
0.0978857
0.113984
0.12932
0.143798
0.157335
0.169858
0.181298
0.191594
0.200665
0.208446
0.214883
0.219956
0.223711
0.226293
0.227935
0.228905
0.229443
0.229727
0.229869
0.229938
0.229972
0.229987
0.229994
0.229997
0.229999
0.23
0.23
0.23
0.23
0.23
0.23
0.23
0.23
0.23
0.23
5.79014e-10
2.53077e-09
5.81475e-09
1.13219e-08
2.05117e-08
3.57469e-08
6.08e-08
1.01599e-07
1.67288e-07
2.71669e-07
4.35058e-07
6.86474e-07
1.06589e-06
1.62602e-06
2.43267e-06
3.56266e-06
5.09836e-06
7.11904e-06
9.69056e-06
1.28562e-05
1.66312e-05
2.10027e-05
2.5933e-05
3.13659e-05
3.72326e-05
4.34569e-05
4.99596e-05
5.66615e-05
6.34859e-05
7.03624e-05
7.72348e-05
8.4079e-05
9.09423e-05
9.79886e-05
0.00010564
0.000114196
0.000124165
0.000136334
0.000151553
0.000170852
0.000195427
0.000226713
0.000266457
0.000316824
0.000380533
0.00046104
0.000562778
0.000691518
0.000854485
0.00106071
0.00132209
0.00165391
0.00207587
0.00261345
0.00329962
0.00417723
0.00528853
0.00668503
0.00854508
0.0109424
0.0140185
0.0282481
0.0458675
0.0634208
0.0806695
0.0974268
0.113545
0.128905
0.14341
0.156975
0.169528
0.181001
0.191329
0.200436
0.208253
0.214728
0.219838
0.223628
0.226238
0.227902
0.228886
0.229433
0.229721
0.229866
0.229937
0.229971
0.229987
0.229994
0.229997
0.229999
0.23
0.23
0.23
0.23
0.23
0.23
0.23
0.23
0.23
0.23
5.74518e-10
2.51108e-09
5.76925e-09
1.12324e-08
2.03467e-08
3.54527e-08
6.02845e-08
1.00705e-07
1.65751e-07
2.69044e-07
4.30611e-07
6.79005e-07
1.05348e-06
1.60565e-06
2.39975e-06
3.51036e-06
5.01697e-06
6.9952e-06
9.50666e-06
1.25899e-05
1.62553e-05
2.04849e-05
2.52361e-05
3.04478e-05
3.60461e-05
4.19499e-05
4.8075e-05
5.43368e-05
6.06532e-05
6.69483e-05
7.31595e-05
7.92548e-05
8.52677e-05
9.13526e-05
9.78126e-05
0.000105079
0.000113689
0.000124304
0.000137855
0.000155352
0.000177962
0.000207071
0.000244376
0.000291986
0.000352562
0.000429471
0.000526991
0.000650699
0.000807762
0.00100772
0.00126247
0.00158701
0.00200122
0.00253075
0.00320895
0.0040792
0.00518491
0.00657839
0.00843955
0.0108451
0.0139465
0.0276438
0.0452363
0.0627861
0.0800443
0.0968203
0.112964
0.128354
0.142892
0.156494
0.169087
0.1806
0.190973
0.200126
0.207992
0.214517
0.219677
0.223513
0.226163
0.227856
0.22886
0.229419
0.229714
0.229863
0.229935
0.22997
0.229987
0.229994
0.229997
0.229999
0.23
0.23
0.23
0.23
0.23
0.23
0.23
0.23
0.23
0.23
5.69173e-10
2.48768e-09
5.71518e-09
1.1126e-08
2.0151e-08
3.5104e-08
5.96743e-08
9.96491e-08
1.63937e-07
2.65953e-07
4.25384e-07
6.70245e-07
1.03896e-06
1.58188e-06
2.36144e-06
3.44972e-06
4.92293e-06
6.85269e-06
9.29596e-06
1.22863e-05
1.58291e-05
1.99014e-05
2.4456e-05
2.94276e-05
3.47383e-05
4.03036e-05
4.60357e-05
5.18472e-05
5.76535e-05
6.3376e-05
6.89492e-05
7.43348e-05
7.95531e-05
8.47306e-05
9.00838e-05
9.61945e-05
0.00010354
0.000112799
0.000124837
0.000140639
0.000161337
0.00018828
0.000223115
0.000267904
0.000325261
0.00039853
0.000491983
0.00061111
0.000762943
0.000956546
0.0012038
0.00152058
0.00192677
0.0024478
0.00311734
0.00397925
0.0050782
0.00646701
0.00832709
0.0107383
0.013863
0.02688
0.0444493
0.0619924
0.0792605
0.096058
0.112231
0.127657
0.142236
0.155883
0.168524
0.18009
0.190518
0.19973
0.207658
0.214247
0.219471
0.223365
0.226065
0.227796
0.228825
0.229399
0.229704
0.229858
0.229933
0.229969
0.229986
0.229994
0.229997
0.229999
0.229999
0.23
0.23
0.23
0.23
0.23
0.23
0.23
0.23
0.23
5.63138e-10
2.46125e-09
5.65416e-09
1.10061e-08
1.99305e-08
3.47116e-08
5.89884e-08
9.84639e-08
1.61906e-07
2.62498e-07
4.19554e-07
6.60498e-07
1.02284e-06
1.55558e-06
2.31917e-06
3.38303e-06
4.8199e-06
6.69719e-06
9.06711e-06
1.19582e-05
1.5371e-05
1.92781e-05
2.36283e-05
2.83529e-05
3.33716e-05
3.85977e-05
4.39422e-05
4.93172e-05
5.46382e-05
5.98275e-05
6.48205e-05
6.95791e-05
7.41182e-05
7.85501e-05
8.31092e-05
8.81712e-05
9.43965e-05
0.000102417
0.000113064
0.000127287
0.000146187
0.00017107
0.00020354
0.000245607
0.000299828
0.000369482
0.000458793
0.000573212
0.000719797
0.00090765
0.00114851
0.0014575
0.00185466
0.00236663
0.00302728
0.00388034
0.00497182
0.00635476
0.0082119
0.010626
0.0137716
0.0259383
0.0434803
0.0610159
0.0782998
0.095124
0.111332
0.126801
0.141429
0.15513
0.16783
0.17946
0.189955
0.19924
0.207244
0.213911
0.219213
0.223181
0.225943
0.22772
0.228781
0.229377
0.229694
0.229853
0.229931
0.229968
0.229986
0.229994
0.229997
0.229999
0.229999
0.23
0.23
0.23
0.23
0.23
0.23
0.23
0.23
0.23
5.56571e-10
2.4325e-09
5.58781e-09
1.08757e-08
1.96911e-08
3.42862e-08
5.82462e-08
9.71835e-08
1.59716e-07
2.58781e-07
4.13297e-07
6.50062e-07
1.00563e-06
1.52757e-06
2.2743e-06
3.31247e-06
4.71128e-06
6.5339e-06
8.82784e-06
1.16169e-05
1.4897e-05
1.86368e-05
2.27821e-05
2.72617e-05
3.1994e-05
3.68918e-05
4.18664e-05
4.68311e-05
5.17035e-05
5.64087e-05
6.08853e-05
6.50967e-05
6.90549e-05
7.28588e-05
7.67366e-05
8.09837e-05
8.61847e-05
9.31684e-05
0.000102596
0.000115395
0.000132638
0.000155596
0.000185834
0.000225313
0.000276536
0.000342723
0.000428036
0.000537865
0.0006792
0.000861116
0.00109541
0.00139741
0.00178694
0.00228985
0.00294047
0.0037843
0.0048679
0.00624441
0.00809766
0.0105133
0.0136735
0.0248023
0.0423231
0.0598617
0.0771505
0.0940042
0.110252
0.125769
0.140453
0.154218
0.166989
0.178696
0.189273
0.198645
0.20674
0.213503
0.218899
0.222954
0.22579
0.227624
0.228731
0.229351
0.22968
0.229846
0.229928
0.229967
0.229985
0.229993
0.229997
0.229999
0.229999
0.23
0.23
0.23
0.23
0.23
0.23
0.23
0.23
0.23
5.49625e-10
2.40211e-09
5.51768e-09
1.07381e-08
1.94386e-08
3.38382e-08
5.74658e-08
9.584e-08
1.57423e-07
2.54898e-07
4.06775e-07
6.39213e-07
9.87782e-07
1.4986e-06
2.22804e-06
3.23997e-06
4.60005e-06
6.36731e-06
8.58474e-06
1.12716e-05
1.44199e-05
1.79947e-05
2.19397e-05
2.61823e-05
3.06405e-05
3.52278e-05
3.98571e-05
4.44441e-05
4.89099e-05
5.31837e-05
5.72083e-05
6.09503e-05
6.44205e-05
6.77079e-05
7.10193e-05
7.46875e-05
7.91097e-05
8.50365e-05
9.33902e-05
0.000104909
0.000120633
0.000141804
0.000169945
0.000206971