/*--------------------------------*- C++ -*----------------------------------*\
  =========                 |
  \\      /  F ield         | OpenFOAM: The Open Source CFD Toolbox
   \\    /   O peration     | Website:  https://openfoam.org
    \\  /    A nd           | Version:  8
     \\/     M anipulation  |
\*---------------------------------------------------------------------------*/
FoamFile
{
    version     2.0;
    format      ascii;
    class       surfaceScalarField;
    location    "820/fluid";
    object      phi;
}
// * * * * * * * * * * * * * * * * * * * * * * * * * * * * * * * * * * * * * //

dimensions      [1 0 -1 0 0 0 0];

internalField   nonuniform List<scalar> 
7860
(
6.5726e-07
-1.77786e-08
6.5457e-07
-5.33361e-08
6.50741e-07
-8.87163e-08
6.45663e-07
-1.23817e-07
6.39201e-07
-1.58638e-07
6.31192e-07
-1.93135e-07
6.21449e-07
-2.27223e-07
6.09773e-07
-2.60781e-07
5.95959e-07
-2.9364e-07
5.79812e-07
-3.25578e-07
5.61158e-07
-3.56306e-07
5.39879e-07
-3.85457e-07
5.15949e-07
-4.12573e-07
4.89545e-07
-4.37111e-07
4.60949e-07
-4.58429e-07
4.30527e-07
-4.75863e-07
3.9875e-07
-4.88859e-07
3.66167e-07
-4.97124e-07
3.33338e-07
-5.00746e-07
3.00773e-07
-5.00215e-07
2.68879e-07
-4.96318e-07
2.37939e-07
-4.89965e-07
2.08134e-07
-4.82013e-07
1.79595e-07
-4.73159e-07
1.5237e-07
-4.63884e-07
1.26419e-07
-4.54487e-07
1.01676e-07
-4.45129e-07
7.8063e-08
-4.35876e-07
5.55103e-08
-4.2674e-07
3.39556e-08
-4.17701e-07
1.33464e-08
-4.08732e-07
-6.3578e-09
-3.99804e-07
-2.51853e-08
-3.90898e-07
-4.31651e-08
-3.82006e-07
-6.03281e-08
-3.73131e-07
-7.66976e-08
-3.6426e-07
-9.2293e-08
-3.55356e-07
-1.07133e-07
-3.46433e-07
-1.21237e-07
-3.37509e-07
-1.34623e-07
-3.28607e-07
-1.4731e-07
-3.19753e-07
-1.59316e-07
-3.10972e-07
-1.70661e-07
-3.02291e-07
-1.81365e-07
-2.93737e-07
-1.91448e-07
-2.85339e-07
-2.0093e-07
-2.77122e-07
-2.09831e-07
-2.69115e-07
-2.18173e-07
-2.61343e-07
-2.25976e-07
-2.53833e-07
-2.33262e-07
-2.4661e-07
-2.40053e-07
-2.39702e-07
-2.46372e-07
-2.33135e-07
-2.52241e-07
-2.26939e-07
-2.57688e-07
-2.21148e-07
-2.62741e-07
-2.15797e-07
-2.67435e-07
-2.10933e-07
-2.71812e-07
-2.06607e-07
-2.75927e-07
-2.02913e-07
-2.79838e-07
-1.99921e-07
-2.83618e-07
-1.97692e-07
-2.87404e-07
-1.96467e-07
-2.91634e-07
-1.96416e-07
-2.96556e-07
-1.9873e-07
-3.03421e-07
-2.09862e-07
-3.11333e-07
-2.22309e-07
-3.20102e-07
-2.36047e-07
-3.2978e-07
-2.51258e-07
-3.40486e-07
-2.68181e-07
-3.5238e-07
-2.87089e-07
-3.6568e-07
-3.08309e-07
-3.80681e-07
-3.32235e-07
-3.97777e-07
-3.59334e-07
-4.17497e-07
-3.90139e-07
-4.40527e-07
-4.25374e-07
-4.67729e-07
-4.65696e-07
-5.00076e-07
-5.11125e-07
-5.38462e-07
-5.60594e-07
-5.83165e-07
-6.11177e-07
-6.33942e-07
-6.57397e-07
-6.89599e-07
-6.92154e-07
-7.47781e-07
-7.09816e-07
-8.05564e-07
-7.09288e-07
-8.60442e-07
-6.93796e-07
-9.10864e-07
-6.68015e-07
-9.56173e-07
-6.35973e-07
-9.96188e-07
-6.00283e-07
-1.03079e-06
-5.62387e-07
-1.06032e-06
-5.22977e-07
-1.08533e-06
-4.8249e-07
-1.10634e-06
-4.41257e-07
-1.12386e-06
-3.99532e-07
-1.13833e-06
-3.57509e-07
-1.15015e-06
-3.15339e-07
-1.15969e-06
-2.73131e-07
-1.16727e-06
-2.30958e-07
-1.17318e-06
-1.88861e-07
-1.17763e-06
-1.46848e-07
-1.18083e-06
-1.04897e-07
-1.18292e-06
-6.29506e-08
-2.09928e-08
6.57906e-07
-1.71512e-08
6.55765e-07
-5.11947e-08
6.52031e-07
-8.49827e-08
6.46704e-07
-1.18489e-07
6.39714e-07
-1.51649e-07
6.30963e-07
-1.84383e-07
6.20336e-07
-2.16596e-07
6.07716e-07
-2.48161e-07
5.93e-07
-2.78924e-07
5.76106e-07
-3.08684e-07
5.56989e-07
-3.37189e-07
5.35651e-07
-3.6412e-07
5.12161e-07
-3.89083e-07
4.86682e-07
-4.11632e-07
4.59446e-07
-4.31192e-07
4.30748e-07
-4.47166e-07
4.00958e-07
-4.59069e-07
3.70496e-07
-4.66661e-07
3.39786e-07
-4.70036e-07
3.09214e-07
-4.69643e-07
2.79091e-07
-4.66194e-07
2.49636e-07
-4.60509e-07
2.20992e-07
-4.53369e-07
1.93257e-07
-4.45422e-07
1.6648e-07
-4.37107e-07
1.40674e-07
-4.28681e-07
1.15828e-07
-4.20282e-07
9.19231e-08
-4.1197e-07
6.89376e-08
-4.03754e-07
4.68505e-08
-3.95613e-07
2.56415e-08
-3.87522e-07
5.2914e-09
-3.79453e-07
-1.42184e-08
-3.71388e-07
-3.29047e-08
-3.63319e-07
-5.07851e-08
-3.5525e-07
-6.78735e-08
-3.47171e-07
-8.41837e-08
-3.39046e-07
-9.97308e-08
-3.30885e-07
-1.14531e-07
-3.22708e-07
-1.28601e-07
-3.14537e-07
-1.41959e-07
-3.06395e-07
-1.54623e-07
-2.98307e-07
-1.66615e-07
-2.90299e-07
-1.77953e-07
-2.82399e-07
-1.8866e-07
-2.74631e-07
-1.98757e-07
-2.67024e-07
-2.08269e-07
-2.59603e-07
-2.17217e-07
-2.52394e-07
-2.25627e-07
-2.45422e-07
-2.33525e-07
-2.38712e-07
-2.40936e-07
-2.3229e-07
-2.47891e-07
-2.2618e-07
-2.5442e-07
-2.2041e-07
-2.60559e-07
-2.15008e-07
-2.6635e-07
-2.10006e-07
-2.71842e-07
-2.0544e-07
-2.77097e-07
-2.01352e-07
-2.82191e-07
-1.97819e-07
-2.87226e-07
-1.94885e-07
-2.92348e-07
-1.9257e-07
-2.97786e-07
-1.91028e-07
-3.0382e-07
-1.90381e-07
-3.09573e-07
-1.92967e-07
-3.16606e-07
-2.02828e-07
-3.24867e-07
-2.14045e-07
-3.34258e-07
-2.26654e-07
-3.44769e-07
-2.40744e-07
-3.56477e-07
-2.5647e-07
-3.69513e-07
-2.74049e-07
-3.84062e-07
-2.93757e-07
-4.00357e-07
-3.15935e-07
-4.18693e-07
-3.40992e-07
-4.39413e-07
-3.69412e-07
-4.629e-07
-4.01878e-07
-4.89629e-07
-4.38957e-07
-5.20133e-07
-4.8061e-07
-5.54922e-07
-5.25792e-07
-5.94316e-07
-5.7177e-07
-6.38389e-07
-6.13312e-07
-6.8656e-07
-6.43972e-07
-7.37289e-07
-6.5908e-07
-7.8844e-07
-6.58132e-07
-8.38067e-07
-6.44167e-07
-8.84855e-07
-6.21225e-07
-9.28161e-07
-5.92666e-07
-9.67728e-07
-5.60716e-07
-1.0034e-06
-5.26717e-07
-1.03516e-06
-4.91212e-07
-1.06313e-06
-4.54527e-07
-1.08746e-06
-4.16923e-07
-1.10839e-06
-3.78607e-07
-1.12615e-06
-3.39741e-07
-1.14103e-06
-3.0046e-07
-1.15329e-06
-2.60874e-07
-1.16318e-06
-2.21069e-07
-1.17093e-06
-1.81108e-07
-1.17674e-06
-1.41035e-07
-1.18077e-06
-1.00872e-07
-1.18309e-06
-6.06292e-08
-2.02629e-08
6.57607e-07
-1.62245e-08
6.54926e-07
-4.8514e-08
6.50503e-07
-8.05592e-08
6.44302e-07
-1.12288e-07
6.36281e-07
-1.43628e-07
6.26392e-07
-1.74494e-07
6.14588e-07
-2.04791e-07
6.00831e-07
-2.34405e-07
5.85104e-07
-2.63197e-07
5.67415e-07
-2.90995e-07
5.47805e-07
-3.17579e-07
5.26354e-07
-3.42668e-07
5.03172e-07
-3.65901e-07
4.78376e-07
-3.86836e-07
4.52147e-07
-4.04964e-07
4.2475e-07
-4.19769e-07
3.9651e-07
-4.3083e-07
3.67782e-07
-4.37933e-07
3.38916e-07
-4.4117e-07
3.10219e-07
-4.40945e-07
2.81931e-07
-4.37906e-07
2.54222e-07
-4.328e-07
2.27189e-07
-4.26336e-07
2.00862e-07
-4.19095e-07
1.75245e-07
-4.1149e-07
1.50348e-07
-4.03783e-07
1.2618e-07
-3.96113e-07
1.02747e-07
-3.88537e-07
8.00534e-08
-3.8106e-07
5.81029e-08
-3.73663e-07
3.68967e-08
-3.66315e-07
1.64344e-08
-3.5899e-07
-3.28578e-09
-3.51667e-07
-2.22682e-08
-3.44336e-07
-4.05194e-08
-3.36998e-07
-5.80436e-08
-3.29647e-07
-7.48462e-08
-3.22243e-07
-9.09356e-08
-3.14795e-07
-1.06322e-07
-3.07322e-07
-1.21017e-07
-2.99842e-07
-1.35034e-07
-2.92377e-07
-1.4839e-07
-2.84951e-07
-1.61101e-07
-2.77588e-07
-1.73187e-07
-2.70313e-07
-1.84669e-07
-2.6315e-07
-1.95568e-07
-2.56125e-07
-2.05908e-07
-2.49263e-07
-2.15716e-07
-2.42586e-07
-2.25018e-07
-2.36119e-07
-2.33846e-07
-2.29885e-07
-2.42231e-07
-2.23904e-07
-2.50211e-07
-2.182e-07
-2.57825e-07
-2.12796e-07
-2.6512e-07
-2.07713e-07
-2.72149e-07
-2.02977e-07
-2.78974e-07
-1.98616e-07
-2.85666e-07
-1.94659e-07
-2.92309e-07
-1.91175e-07
-2.99009e-07
-1.88185e-07
-3.05886e-07
-1.85693e-07
-3.13079e-07
-1.83835e-07
-3.20748e-07
-1.82711e-07
-3.27484e-07
-1.86219e-07
-3.35265e-07
-1.95045e-07
-3.44123e-07
-2.05185e-07
-3.54082e-07
-2.16692e-07
-3.65189e-07
-2.29633e-07
-3.7752e-07
-2.44135e-07
-3.91178e-07
-2.60387e-07
-4.06288e-07
-2.78642e-07
-4.22995e-07
-2.99222e-07
-4.4146e-07
-3.22519e-07
-4.61839e-07
-3.49025e-07
-4.84283e-07
-3.79424e-07
-5.09022e-07
-4.14207e-07
-5.36385e-07
-4.53234e-07
-5.66877e-07
-4.95285e-07
-6.01281e-07
-5.37352e-07
-6.4015e-07
-5.74429e-07
-6.83265e-07
-6.00846e-07
-7.29358e-07
-6.12979e-07
-7.76513e-07
-6.10971e-07
-8.22914e-07
-5.97763e-07
-8.6727e-07
-5.76868e-07
-9.08861e-07
-5.51074e-07
-9.47381e-07
-5.22195e-07
-9.82834e-07
-4.91264e-07
-1.01519e-06
-4.58859e-07
-1.0444e-06
-4.25311e-07
-1.07049e-06
-3.90832e-07
-1.09353e-06
-3.55575e-07
-1.1136e-06
-3.19666e-07
-1.13085e-06
-2.83213e-07
-1.14541e-06
-2.46312e-07
-1.15744e-06
-2.09042e-07
-1.16707e-06
-1.71475e-07
-1.17444e-06
-1.33667e-07
-1.17964e-06
-9.56653e-08
-1.18277e-06
-5.75066e-08
-1.92066e-08
6.57627e-07
-1.53174e-08
6.54881e-07
-4.57686e-08
6.50292e-07
-7.59701e-08
6.43856e-07
-1.05852e-07
6.35564e-07
-1.35336e-07
6.25404e-07
-1.64335e-07
6.13368e-07
-1.92755e-07
5.99454e-07
-2.2049e-07
5.83667e-07
-2.47411e-07
5.66032e-07
-2.73359e-07
5.4659e-07
-2.98137e-07
5.25409e-07
-3.21488e-07
5.02593e-07
-3.43086e-07
4.78288e-07
-3.62532e-07
4.52694e-07
-3.7937e-07
4.26061e-07
-3.93137e-07
3.9868e-07
-4.03449e-07
3.70859e-07
-4.10113e-07
3.42898e-07
-4.1321e-07
3.1506e-07
-4.13108e-07
2.87554e-07
-4.10401e-07
2.60529e-07
-4.05776e-07
2.34081e-07
-3.99888e-07
2.08262e-07
-3.93277e-07
1.83099e-07
-3.86327e-07
1.58599e-07
-3.79284e-07
1.34765e-07
-3.7228e-07
1.11596e-07
-3.65368e-07
8.90905e-08
-3.58555e-07
6.72491e-08
-3.51821e-07
4.60721e-08
-3.45139e-07
2.55603e-08
-3.38479e-07
5.71388e-09
-3.31821e-07
-1.3468e-08
-3.25154e-07
-3.19879e-08
-3.18478e-07
-4.9847e-08
-3.11788e-07
-6.70464e-08
-3.05043e-07
-8.35908e-08
-2.98251e-07
-9.94866e-08
-2.91426e-07
-1.14743e-07
-2.84586e-07
-1.2937e-07
-2.7775e-07
-1.43381e-07
-2.70939e-07
-1.56792e-07
-2.64177e-07
-1.69619e-07
-2.57484e-07
-1.81884e-07
-2.50885e-07
-1.93607e-07
-2.44402e-07
-2.04812e-07
-2.38057e-07
-2.15526e-07
-2.31872e-07
-2.25777e-07
-2.25868e-07
-2.35598e-07
-2.20064e-07
-2.45023e-07
-2.1448e-07
-2.5409e-07
-2.09134e-07
-2.62841e-07
-2.04044e-07
-2.71325e-07
-1.99229e-07
-2.79594e-07
-1.94708e-07
-2.87708e-07
-1.90502e-07
-2.95734e-07
-1.86634e-07
-3.03742e-07
-1.83167e-07
-3.11822e-07
-1.80105e-07
-3.20063e-07
-1.77452e-07
-3.28562e-07
-1.75336e-07
-3.37405e-07
-1.73865e-07
-3.45138e-07
-1.78475e-07
-3.53741e-07
-1.86439e-07
-3.63264e-07
-1.95659e-07
-3.73769e-07
-2.06184e-07
-3.85324e-07
-2.18074e-07
-3.9801e-07
-2.31444e-07
-4.11914e-07
-2.46477e-07
-4.27136e-07
-2.63413e-07
-4.43786e-07
-2.82564e-07
-4.61989e-07
-3.04308e-07
-4.81861e-07
-3.29142e-07
-5.03559e-07
-3.57714e-07
-5.27355e-07
-3.90396e-07
-5.53646e-07
-4.26928e-07
-5.82968e-07
-4.65946e-07
-6.15928e-07
-5.04376e-07
-6.52898e-07
-5.37445e-07
-6.93584e-07
-5.60148e-07
-7.36855e-07
-5.697e-07
-7.81108e-07
-5.66713e-07
-8.2485e-07
-5.54019e-07
-8.66998e-07
-5.34717e-07
-9.0689e-07
-5.11181e-07
-9.44169e-07
-4.84917e-07
-9.7867e-07
-4.56763e-07
-1.01034e-06
-4.27189e-07
-1.03918e-06
-3.96471e-07
-1.06521e-06
-3.64796e-07
-1.08849e-06
-3.32302e-07
-1.10905e-06
-2.99102e-07
-1.12697e-06
-2.65295e-07
-1.14231e-06
-2.3097e-07
-1.15515e-06
-1.96207e-07
-1.16555e-06
-1.61076e-07
-1.17357e-06
-1.25642e-07
-1.17927e-06
-8.9964e-08
-1.18268e-06
-5.40946e-08
-1.80698e-08
6.57564e-07
-1.43474e-08
6.5468e-07
-4.28848e-08
6.49895e-07
-7.11852e-08
6.43214e-07
-9.91717e-08
6.34644e-07
-1.26765e-07
6.24193e-07
-1.53883e-07
6.11873e-07
-1.80436e-07
5.97707e-07
-2.06324e-07
5.81726e-07
-2.31429e-07
5.63975e-07
-2.55609e-07
5.44522e-07
-2.78684e-07
5.23456e-07
-3.00422e-07
5.00896e-07
-3.20526e-07
4.76995e-07
-3.38632e-07
4.51948e-07
-3.54323e-07
4.25985e-07
-3.67175e-07
3.99368e-07
-3.76833e-07
3.72368e-07
-3.83115e-07
3.45249e-07
-3.86092e-07
3.18238e-07
-3.86098e-07
2.91514e-07
-3.83679e-07
2.65207e-07
-3.7947e-07
2.39399e-07
-3.74082e-07
2.14138e-07
-3.68016e-07
1.89447e-07
-3.61638e-07
1.65339e-07
-3.55177e-07
1.41817e-07
-3.48759e-07
1.18885e-07
-3.42436e-07
9.65424e-08
-3.36213e-07
7.47927e-08
-3.30072e-07
5.36381e-08
-3.23984e-07
3.30812e-08
-3.17922e-07
1.3124e-08
-3.11864e-07
-6.23231e-09
-3.05799e-07
-2.4988e-08
-2.99723e-07
-4.31432e-08
-2.93633e-07
-6.06974e-08
-2.8749e-07
-7.76527e-08
-2.81296e-07
-9.40137e-08
-2.75065e-07
-1.09787e-07
-2.68813e-07
-1.24981e-07
-2.62556e-07
-1.39608e-07
-2.56313e-07
-1.53682e-07
-2.50105e-07
-1.67217e-07
-2.4395e-07
-1.80232e-07
-2.37871e-07
-1.92747e-07
-2.31887e-07
-2.04786e-07
-2.26019e-07
-2.16374e-07
-2.20285e-07
-2.27538e-07
-2.14704e-07
-2.38309e-07
-2.09293e-07
-2.48721e-07
-2.04069e-07
-2.58808e-07
-1.99047e-07
-2.6861e-07
-1.94242e-07
-2.7817e-07
-1.89669e-07
-2.87534e-07
-1.85345e-07
-2.96752e-07
-1.81284e-07
-3.05879e-07
-1.77507e-07
-3.14972e-07
-1.74075e-07
-3.24103e-07
-1.70974e-07
-3.33341e-07
-1.68215e-07
-3.42761e-07
-1.65915e-07
-3.5243e-07
-1.64194e-07
-3.61159e-07
-1.69737e-07
-3.70575e-07
-1.7702e-07
-3.80746e-07
-1.85484e-07
-3.91762e-07
-1.95164e-07
-4.0371e-07
-2.0612e-07
-4.16676e-07
-2.18472e-07
-4.30748e-07
-2.32398e-07
-4.46015e-07
-2.48138e-07
-4.62576e-07
-2.65994e-07
-4.80539e-07
-2.86334e-07
-5.00001e-07
-3.09667e-07
-5.21112e-07
-3.36589e-07
-5.44129e-07
-3.67363e-07
-5.6942e-07
-4.01619e-07
-5.97482e-07
-4.37867e-07
-6.28857e-07
-4.72983e-07
-6.63867e-07
-5.0242e-07
-7.02227e-07
-5.21777e-07
-7.42931e-07
-5.28988e-07
-7.84603e-07
-5.25036e-07
-8.25978e-07
-5.12641e-07
-8.66134e-07
-4.9456e-07
-9.04487e-07
-4.72828e-07
-9.40691e-07
-4.48711e-07
-9.74544e-07
-4.2291e-07
-1.00592e-06
-3.9581e-07
-1.03475e-06
-3.67641e-07
-1.061e-06
-3.38552e-07
-1.08464e-06
-3.08656e-07
-1.1057e-06
-2.78048e-07
-1.12418e-06
-2.46816e-07
-1.14011e-06
-2.15039e-07
-1.15352e-06
-1.82792e-07
-1.16445e-06
-1.50146e-07
-1.17293e-06
-1.17166e-07
-1.17897e-06
-8.39181e-08
-1.18261e-06
-5.04627e-08
-1.68534e-08
6.57561e-07
-1.33748e-08
6.54651e-07
-3.99744e-08
6.49815e-07
-6.63497e-08
6.4307e-07
-9.24264e-08
6.34432e-07
-1.18128e-07
6.23924e-07
-1.43375e-07
6.11571e-07
-1.68083e-07
5.97407e-07
-1.9216e-07
5.81474e-07
-2.15497e-07
5.63828e-07
-2.37963e-07
5.44538e-07
-2.59394e-07
5.23695e-07
-2.79579e-07
5.01418e-07
-2.98248e-07
4.77854e-07
-3.15069e-07
4.53189e-07
-3.2966e-07
4.27644e-07
-3.4163e-07
4.01467e-07
-3.50657e-07
3.74917e-07
-3.56567e-07
3.48243e-07
-3.5942e-07
3.21664e-07
-3.59521e-07
2.9535e-07
-3.57368e-07
2.69426e-07
-3.53548e-07
2.43969e-07
-3.48627e-07
2.19024e-07
-3.43073e-07
1.94612e-07
-3.37228e-07
1.70742e-07
-3.31308e-07
1.47416e-07
-3.25434e-07
1.24632e-07
-3.19653e-07
1.02389e-07
-3.13972e-07
8.06883e-08
-3.08372e-07
5.95305e-08
-3.02827e-07
3.89173e-08
-2.9731e-07
1.88509e-08
-2.91798e-07
-6.67582e-10
-2.86281e-07
-1.96386e-08
-2.80753e-07
-3.80614e-08
-2.75211e-07
-5.59344e-08
-2.69617e-07
-7.32589e-08
-2.63972e-07
-9.00379e-08
-2.58287e-07
-1.06277e-07
-2.52575e-07
-1.21982e-07
-2.46851e-07
-1.37164e-07
-2.41131e-07
-1.51835e-07
-2.35434e-07
-1.66007e-07
-2.29778e-07
-1.79699e-07
-2.2418e-07
-1.92927e-07
-2.18659e-07
-2.05714e-07
-2.13233e-07
-2.18082e-07
-2.07918e-07
-2.30056e-07
-2.02731e-07
-2.41663e-07
-1.97686e-07
-2.52933e-07
-1.928e-07
-2.63897e-07
-1.88084e-07
-2.74587e-07
-1.83552e-07
-2.85038e-07
-1.79218e-07
-2.95287e-07
-1.75096e-07
-3.05371e-07
-1.712e-07
-3.15331e-07
-1.67547e-07
-3.25205e-07
-1.64201e-07
-3.3506e-07
-1.61119e-07
-3.44925e-07
-1.5835e-07
-3.54878e-07
-1.55962e-07
-3.64997e-07
-1.54072e-07
-3.74742e-07
-1.59989e-07
-3.84895e-07
-1.66864e-07
-3.95633e-07
-1.74743e-07
-4.0709e-07
-1.83702e-07
-4.19371e-07
-1.93833e-07
-4.32568e-07
-2.05268e-07
-4.46771e-07
-2.18187e-07
-4.62071e-07
-2.32827e-07
-4.78569e-07
-2.49485e-07
-4.96371e-07
-2.68517e-07
-5.15586e-07
-2.90432e-07
-5.36396e-07
-3.15759e-07
-5.59081e-07
-3.4466e-07
-5.84023e-07
-3.76658e-07
-6.11713e-07
-4.10157e-07
-6.42634e-07
-4.42043e-07
-6.76984e-07
-4.68054e-07
-7.14358e-07
-4.84391e-07
-7.53728e-07
-4.8961e-07
-7.93816e-07
-4.84943e-07
-8.33508e-07
-4.72946e-07
-8.72018e-07
-4.56049e-07
-9.08852e-07
-4.35993e-07
-9.43719e-07
-4.13843e-07
-9.76445e-07
-3.90184e-07
-1.00692e-06
-3.65339e-07
-1.03506e-06
-3.39498e-07
-1.06082e-06
-3.12789e-07
-1.08417e-06
-2.85309e-07
-1.10508e-06
-2.57141e-07
-1.12353e-06
-2.28363e-07
-1.13952e-06
-1.99047e-07
-1.15305e-06
-1.69263e-07
-1.16412e-06
-1.39077e-07
-1.17273e-06
-1.08555e-07
-1.17889e-06
-7.7763e-08
-1.18259e-06
-4.67641e-08
-1.56175e-08
6.57552e-07
-1.23929e-08
6.54621e-07
-3.70432e-08
6.49756e-07
-6.14856e-08
6.42978e-07
-8.56483e-08
6.34309e-07
-1.09459e-07
6.23778e-07
-1.32843e-07
6.11417e-07
-1.55723e-07
5.97268e-07
-1.78011e-07
5.81382e-07
-1.9961e-07
5.6382e-07
-2.20401e-07
5.44659e-07
-2.40233e-07
5.23993e-07
-2.58914e-07
5.01943e-07
-2.76199e-07
4.78656e-07
-2.91782e-07
4.54312e-07
-3.05316e-07
4.29121e-07
-3.16441e-07
4.0332e-07
-3.24857e-07
3.77153e-07
-3.30402e-07
3.50855e-07
-3.33124e-07
3.24631e-07
-3.333e-07
2.98647e-07
-3.31386e-07
2.7302e-07
-3.27923e-07
2.47826e-07
-3.23435e-07
2.23109e-07
-3.18358e-07
1.9889e-07
-3.13011e-07
1.75177e-07
-3.07597e-07
1.5197e-07
-3.02229e-07
1.29268e-07
-2.96953e-07
1.07068e-07
-2.91774e-07
8.53698e-08
-2.86675e-07
6.41725e-08
-2.81631e-07
4.34776e-08
-2.76616e-07
2.32863e-08
-2.71608e-07
3.59967e-09
-2.66595e-07
-1.55818e-08
-2.61572e-07
-3.42583e-08
-2.56535e-07
-5.2428e-08
-2.51448e-07
-7.00911e-08
-2.4631e-07
-8.72497e-08
-2.41129e-07
-1.03908e-07
-2.35918e-07
-1.20071e-07
-2.30688e-07
-1.35748e-07
-2.25456e-07
-1.50947e-07
-2.20236e-07
-1.65681e-07
-2.15044e-07
-1.79965e-07
-2.09897e-07
-1.93815e-07
-2.0481e-07
-2.07249e-07
-1.998e-07
-2.20286e-07
-1.94881e-07
-2.3295e-07
-1.90068e-07
-2.45264e-07
-1.85374e-07
-2.57252e-07
-1.80812e-07
-2.68941e-07
-1.76395e-07
-2.80358e-07
-1.72136e-07
-2.91532e-07
-1.68045e-07
-3.0249e-07
-1.64138e-07
-3.13261e-07
-1.6043e-07
-3.23867e-07
-1.56942e-07
-3.34332e-07
-1.53737e-07
-3.44694e-07
-1.50757e-07
-3.54952e-07
-1.48091e-07
-3.65124e-07
-1.4579e-07
-3.75211e-07
-1.43965e-07
-3.85576e-07
-1.49622e-07
-3.96335e-07
-1.56101e-07
-4.07611e-07
-1.63461e-07
-4.19523e-07
-1.71784e-07
-4.32175e-07
-1.81174e-07
-4.45665e-07
-1.91772e-07
-4.60087e-07
-2.03759e-07
-4.75538e-07
-2.1737e-07
-4.92126e-07
-2.32892e-07
-5.09967e-07
-2.50673e-07
-5.29191e-07
-2.71206e-07
-5.49991e-07
-2.9495e-07
-5.72653e-07
-3.21981e-07
-5.97552e-07
-3.51738e-07
-6.25125e-07
-3.82562e-07
-6.55751e-07
-4.11396e-07
-6.89501e-07
-4.34287e-07
-7.25897e-07
-4.47984e-07
-7.63962e-07
-4.51537e-07
-8.02569e-07
-4.46332e-07
-8.4076e-07
-4.34753e-07
-8.77861e-07
-4.18946e-07
-9.1344e-07
-4.00414e-07
-9.47227e-07
-3.80056e-07
-9.79047e-07
-3.58364e-07
-1.00878e-06
-3.35607e-07
-1.03633e-06
-3.11943e-07
-1.06164e-06
-2.87479e-07
-1.08466e-06
-2.62297e-07
-1.10533e-06
-2.36469e-07
-1.12363e-06
-2.10062e-07
-1.13953e-06
-1.83142e-07
-1.15302e-06
-1.55773e-07
-1.16408e-06
-1.28017e-07
-1.1727e-06
-9.99364e-08
-1.17887e-06
-7.15946e-08
-1.18258e-06
-4.30545e-08
-1.43771e-08
6.57555e-07
-1.1414e-08
6.5463e-07
-3.4118e-08
6.49775e-07
-5.66306e-08
6.43011e-07
-7.88851e-08
6.34366e-07
-1.00814e-07
6.23871e-07
-1.22348e-07
6.11564e-07
-1.43416e-07
5.97491e-07
-1.63937e-07
5.81703e-07
-1.83823e-07
5.64267e-07
-2.02965e-07
5.45259e-07
-2.21226e-07
5.24775e-07
-2.3843e-07
5.02931e-07
-2.54355e-07
4.79872e-07
-2.68724e-07
4.55772e-07
-2.81217e-07
4.30834e-07
-2.91505e-07
4.05287e-07
-2.99311e-07
3.79367e-07
-3.04484e-07
3.53305e-07
-3.07064e-07
3.27301e-07
-3.07299e-07
3.01517e-07
-3.05605e-07
2.7607e-07
-3.02479e-07
2.51035e-07
-2.98403e-07
2.26454e-07
-2.93781e-07
2.02349e-07
-2.88908e-07
1.78724e-07
-2.83975e-07
1.5558e-07
-2.79087e-07
1.32912e-07
-2.74286e-07
1.10716e-07
-2.6958e-07
8.899e-08
-2.64951e-07
6.77323e-08
-2.60375e-07
4.69429e-08
-2.55828e-07
2.66225e-08
-2.51289e-07
6.77195e-09
-2.46745e-07
-1.26088e-08
-2.42192e-07
-3.15197e-08
-2.37625e-07
-4.99588e-08
-2.3301e-07
-6.79257e-08
-2.28344e-07
-8.54212e-08
-2.23634e-07
-1.02448e-07
-2.18891e-07
-1.19011e-07
-2.14126e-07
-1.35116e-07
-2.09352e-07
-1.50771e-07
-2.04582e-07
-1.65986e-07
-1.9983e-07
-1.80774e-07
-1.9511e-07
-1.95148e-07
-1.90437e-07
-2.09124e-07
-1.85825e-07
-2.22718e-07
-1.81287e-07
-2.3595e-07
-1.76836e-07
-2.4884e-07
-1.72485e-07
-2.6141e-07
-1.68244e-07
-2.73681e-07
-1.64125e-07
-2.85678e-07
-1.6014e-07
-2.97424e-07
-1.563e-07
-3.08944e-07
-1.52619e-07
-3.20263e-07
-1.49112e-07
-3.31396e-07
-1.45809e-07
-3.42374e-07
-1.42759e-07
-3.53208e-07
-1.39923e-07
-3.63893e-07
-1.37406e-07
-3.74395e-07
-1.35286e-07
-3.84473e-07
-1.33853e-07
-3.95007e-07
-1.39083e-07
-4.06033e-07
-1.45068e-07
-4.17618e-07
-1.51867e-07
-4.29839e-07
-1.59552e-07
-4.42779e-07
-1.68221e-07
-4.56523e-07
-1.78011e-07
-4.71162e-07
-1.891e-07
-4.86795e-07
-2.01713e-07
-5.03534e-07
-2.16125e-07
-5.21507e-07
-2.32671e-07
-5.40862e-07
-2.51822e-07
-5.61819e-07
-2.73966e-07
-5.84671e-07
-2.99106e-07
-6.09775e-07
-3.26611e-07
-6.3752e-07
-3.54796e-07
-6.68189e-07
-3.80708e-07
-7.0173e-07
-4.0073e-07
-7.37583e-07
-4.12118e-07
-7.74788e-07
-4.14324e-07
-8.12313e-07
-4.08803e-07
-8.49315e-07
-3.97748e-07
-8.85217e-07
-3.83043e-07
-9.19647e-07
-3.65983e-07
-9.52373e-07
-3.4733e-07
-9.83239e-07
-3.27497e-07
-1.01213e-06
-3.06712e-07
-1.03897e-06
-2.85108e-07
-1.06367e-06
-2.62776e-07
-1.08618e-06
-2.39787e-07
-1.10645e-06
-2.16203e-07
-1.12443e-06
-1.92083e-07
-1.14008e-06
-1.67487e-07
-1.15338e-06
-1.42472e-07
-1.1643e-06
-1.17096e-07
-1.17282e-06
-9.14163e-08
-1.17892e-06
-6.54925e-08
-1.1826e-06
-3.93843e-08
-1.31507e-08
6.57558e-07
-1.04386e-08
6.54644e-07
-3.12039e-08
6.49809e-07
-5.17949e-08
6.43074e-07
-7.21502e-08
6.34467e-07
-9.22077e-08
6.24023e-07
-1.11904e-07
6.11781e-07
-1.31174e-07
5.97789e-07
-1.49945e-07
5.821e-07
-1.68135e-07
5.64782e-07
-1.85647e-07
5.45911e-07
-2.02356e-07
5.25584e-07
-2.18103e-07
5.03914e-07
-2.32687e-07
4.81044e-07
-2.45855e-07
4.57142e-07
-2.57317e-07
4.32408e-07
-2.66772e-07
4.07061e-07
-2.73967e-07
3.81334e-07
-2.7876e-07
3.55449e-07
-2.81182e-07
3.29606e-07
-2.81459e-07
3.03963e-07
-2.79966e-07
2.78637e-07
-2.77156e-07
2.53703e-07
-2.73472e-07
2.29205e-07
-2.69285e-07
2.05161e-07
-2.64868e-07
1.81579e-07
-2.60395e-07
1.58455e-07
-2.55965e-07
1.35785e-07
-2.51618e-07
1.13564e-07
-2.4736e-07
9.17869e-08
-2.43176e-07
7.04526e-08
-2.39042e-07
4.95597e-08
-2.34936e-07
2.91083e-08
-2.30838e-07
9.09884e-09
-2.26737e-07
-1.04687e-08
-2.22625e-07
-2.95944e-08
-2.185e-07
-4.8276e-08
-2.14329e-07
-6.65125e-08
-2.10108e-07
-8.43037e-08
-2.05844e-07
-1.01651e-07
-2.01545e-07
-1.18558e-07
-1.97221e-07
-1.35028e-07
-1.92883e-07
-1.51069e-07
-1.88542e-07
-1.66688e-07
-1.84212e-07
-1.81895e-07
-1.79904e-07
-1.96701e-07
-1.75632e-07
-2.1112e-07
-1.71408e-07
-2.25165e-07
-1.67243e-07
-2.38853e-07
-1.6315e-07
-2.52199e-07
-1.5914e-07
-2.65222e-07
-1.55222e-07
-2.77942e-07
-1.51407e-07
-2.90377e-07
-1.47706e-07
-3.02548e-07
-1.4413e-07
-3.14477e-07
-1.40691e-07
-3.26184e-07
-1.37406e-07
-3.37689e-07
-1.34305e-07
-3.49021e-07
-1.31428e-07
-3.60197e-07
-1.28749e-07
-3.71227e-07
-1.26377e-07
-3.82109e-07
-1.24407e-07
-3.92302e-07
-1.23619e-07
-4.03005e-07
-1.28376e-07
-4.14236e-07
-1.33835e-07
-4.26047e-07
-1.40057e-07
-4.385e-07
-1.471e-07
-4.51669e-07
-1.55053e-07
-4.65634e-07
-1.64048e-07
-4.80485e-07
-1.74251e-07
-4.96324e-07
-1.85876e-07
-5.13269e-07
-1.9918e-07
-5.31453e-07
-2.14482e-07
-5.5104e-07
-2.32223e-07
-5.72265e-07
-2.52723e-07
-5.95421e-07
-2.75927e-07
-6.20844e-07
-3.01163e-07
-6.48861e-07
-3.26755e-07
-6.79651e-07
-3.49897e-07
-7.13047e-07
-3.67317e-07
-7.48432e-07
-3.76721e-07
-7.84883e-07
-3.77865e-07
-8.21468e-07
-3.72214e-07
-8.57451e-07
-3.61763e-07
-8.92328e-07
-3.48164e-07
-9.25777e-07
-3.32533e-07
-9.57589e-07
-3.15517e-07
-9.87621e-07
-2.97465e-07
-1.01576e-06
-2.78569e-07
-1.04193e-06
-2.58942e-07
-1.06605e-06
-2.3866e-07
-1.08805e-06
-2.17785e-07
-1.10788e-06
-1.9637e-07
-1.12549e-06
-1.7447e-07
-1.14085e-06
-1.52134e-07
-1.1539e-06
-1.29417e-07
-1.16463e-06
-1.06368e-07
-1.17301e-06
-8.30418e-08
-1.17901e-06
-5.94924e-08
-1.18262e-06
-3.57749e-08
-1.19447e-08
6.57564e-07
-9.46904e-09
6.54666e-07
-2.83062e-08
6.49858e-07
-4.69862e-08
6.43161e-07
-6.54531e-08
6.34604e-07
-8.36506e-08
6.24221e-07
-1.01522e-07
6.12053e-07
-1.19006e-07
5.98148e-07
-1.3604e-07
5.82561e-07
-1.52548e-07
5.65357e-07
-1.68443e-07
5.46614e-07
-1.83613e-07
5.26426e-07
-1.97915e-07
5.04905e-07
-2.11166e-07
4.8219e-07
-2.2314e-07
4.58445e-07
-2.33573e-07
4.33865e-07
-2.42194e-07
4.08666e-07
-2.4877e-07
3.83074e-07
-2.53171e-07
3.57311e-07
-2.55422e-07
3.31572e-07
-2.55724e-07
3.06018e-07
-2.54415e-07
2.80764e-07
-2.51906e-07
2.55887e-07
-2.48599e-07
2.3143e-07
-2.44832e-07
2.07413e-07
-2.40854e-07
1.83841e-07
-2.36826e-07
1.60711e-07
-2.32838e-07
1.38017e-07
-2.28927e-07
1.15753e-07
-2.25098e-07
9.39143e-08
-2.21338e-07
7.2497e-08
-2.17626e-07
5.14998e-08
-2.1394e-07
3.09221e-08
-2.10262e-07
1.07643e-08
-2.0658e-07
-8.97362e-09
-2.02888e-07
-2.82916e-08
-1.99183e-07
-4.71872e-08
-1.95434e-07
-6.56585e-08
-1.91638e-07
-8.37045e-08
-1.87799e-07
-1.01326e-07
-1.83925e-07
-1.18523e-07
-1.80024e-07
-1.35301e-07
-1.76106e-07
-1.51663e-07
-1.72181e-07
-1.67616e-07
-1.6826e-07
-1.83167e-07
-1.64354e-07
-1.98326e-07
-1.60475e-07
-2.13102e-07
-1.56633e-07
-2.27507e-07
-1.52839e-07
-2.41554e-07
-1.49104e-07
-2.55258e-07
-1.45438e-07
-2.68632e-07
-1.41849e-07
-2.81693e-07
-1.38348e-07
-2.94457e-07
-1.34943e-07
-3.06941e-07
-1.31647e-07
-3.19165e-07
-1.28469e-07
-3.31146e-07
-1.25426e-07
-3.42905e-07
-1.22547e-07
-3.54468e-07
-1.19867e-07
-3.65856e-07
-1.17362e-07
-3.77102e-07
-1.15132e-07
-3.88255e-07
-1.13256e-07
-3.98661e-07
-1.13151e-07
-4.09583e-07
-1.17444e-07
-4.21023e-07
-1.22382e-07
-4.3304e-07
-1.28024e-07
-4.45699e-07
-1.34421e-07
-4.59072e-07
-1.41659e-07
-4.73239e-07
-1.49857e-07
-4.88292e-07
-1.59173e-07
-5.04339e-07
-1.69804e-07
-5.21505e-07
-1.81989e-07
-5.39932e-07
-1.9603e-07
-5.59803e-07
-2.12328e-07
-5.8136e-07
-2.31143e-07
-6.04889e-07
-2.52374e-07
-6.307e-07
-2.75328e-07
-6.59057e-07
-2.98373e-07
-6.90046e-07
-3.18887e-07
-7.234e-07
-3.33946e-07
-7.58456e-07
-3.41653e-07
-7.94322e-07
-3.41991e-07
-8.30148e-07
-3.36384e-07
-8.65281e-07
-3.26627e-07
-8.99284e-07
-3.14161e-07
-9.31873e-07
-2.99944e-07
-9.62865e-07
-2.84525e-07
-9.92128e-07
-2.68202e-07
-1.01956e-06
-2.51135e-07
-1.04508e-06
-2.3342e-07
-1.06862e-06
-2.15123e-07
-1.09011e-06
-1.96297e-07
-1.10949e-06
-1.7699e-07
-1.12671e-06
-1.57246e-07
-1.14173e-06
-1.37113e-07
-1.15451e-06
-1.16636e-07
-1.16502e-06
-9.58618e-08
-1.17322e-06
-7.48379e-08
-1.1791e-06
-5.36134e-08
-1.18264e-06
-3.22385e-08
-1.07633e-08
6.5757e-07
-8.50513e-09
6.54689e-07
-2.54254e-08
6.49908e-07
-4.22053e-08
6.4325e-07
-5.87947e-08
6.34742e-07
-7.51431e-08
6.2442e-07
-9.11992e-08
6.12323e-07
-1.0691e-07
5.985e-07
-1.22216e-07
5.83005e-07
-1.37054e-07
5.65904e-07
-1.51342e-07
5.47272e-07
-1.64982e-07
5.27202e-07
-1.77846e-07
5.05805e-07
-1.8977e-07
4.83216e-07
-2.00552e-07
4.59598e-07
-2.09956e-07
4.35139e-07
-2.17737e-07
4.10052e-07
-2.23686e-07
3.84561e-07
-2.27683e-07
3.58885e-07
-2.29749e-07
3.33218e-07
-2.3006e-07
3.07721e-07
-2.28921e-07
2.82509e-07
-2.26698e-07
2.57661e-07
-2.23754e-07
2.3322e-07
-2.20394e-07
2.09207e-07
-2.16843e-07
1.85625e-07
-2.13247e-07
1.62472e-07
-2.09687e-07
1.39741e-07
-2.06198e-07
1.17425e-07
-2.02785e-07
9.55184e-08
-1.99434e-07
7.40169e-08
-1.96127e-07
5.29187e-08
-1.92844e-07
3.2223e-08
-1.89568e-07
1.19299e-08
-1.86288e-07
-7.96052e-09
-1.82999e-07
-2.7448e-08
-1.79697e-07
-4.65298e-08
-1.76354e-07
-6.52031e-08
-1.72966e-07
-8.34661e-08
-1.69537e-07
-1.01318e-07
-1.66074e-07
-1.1876e-07
-1.62584e-07
-1.35793e-07
-1.59074e-07
-1.5242e-07
-1.55555e-07
-1.68647e-07
-1.52035e-07
-1.84477e-07
-1.48525e-07
-1.9992e-07
-1.45034e-07
-2.14982e-07
-1.41572e-07
-2.29673e-07
-1.38149e-07
-2.44005e-07
-1.34774e-07
-2.57987e-07
-1.31456e-07
-2.71634e-07
-1.28204e-07
-2.84958e-07
-1.25025e-07
-2.97973e-07
-1.21929e-07
-3.10695e-07
-1.18926e-07
-3.2314e-07
-1.16026e-07
-3.35325e-07
-1.13242e-07
-3.47271e-07
-1.10602e-07
-3.59002e-07
-1.08137e-07
-3.7054e-07
-1.05825e-07
-3.81922e-07
-1.03752e-07
-3.93181e-07
-1.02002e-07
-4.03836e-07
-1.02447e-07
-4.14978e-07
-1.06296e-07
-4.26626e-07
-1.10729e-07
-4.38844e-07
-1.15801e-07
-4.51699e-07
-1.21561e-07
-4.65266e-07
-1.28087e-07
-4.79628e-07
-1.35488e-07
-4.94883e-07
-1.43911e-07
-5.11141e-07
-1.53536e-07
-5.28533e-07
-1.64581e-07
-5.47217e-07
-1.77328e-07
-5.67386e-07
-1.92138e-07
-5.89288e-07
-2.09217e-07
-6.13205e-07
-2.28433e-07
-6.39415e-07
-2.49092e-07
-6.68122e-07
-2.69642e-07
-6.99319e-07
-2.87669e-07
-7.32656e-07
-3.00592e-07
-7.67437e-07
-3.0686e-07
-8.02809e-07
-3.06613e-07
-8.37991e-07
-3.01197e-07
-8.72405e-07
-2.9221e-07
-9.05664e-07
-2.80901e-07
-9.37516e-07
-2.68091e-07
-9.67797e-07
-2.54244e-07
-9.96387e-07
-2.39612e-07
-1.02319e-06
-2.2433e-07
-1.04813e-06
-2.0848e-07
-1.07113e-06
-1.92119e-07
-1.09214e-06
-1.75291e-07
-1.11109e-06
-1.58039e-07
-1.12794e-06
-1.404e-07
-1.14263e-06
-1.22417e-07
-1.15514e-06
-1.0413e-07
-1.16542e-06
-8.55799e-08
-1.17345e-06
-6.68083e-08
-1.1792e-06
-4.78593e-08
-1.18267e-06
-2.87773e-08
-9.60732e-09
6.57575e-07
-7.54676e-09
6.54711e-07
-2.25609e-08
6.49957e-07
-3.74512e-08
6.43335e-07
-5.21731e-08
6.34874e-07
-6.66822e-08
6.24608e-07
-8.09331e-08
6.12577e-07
-9.48785e-08
5.98828e-07
-1.08467e-07
5.83415e-07
-1.21641e-07
5.66403e-07
-1.3433e-07
5.47867e-07
-1.46446e-07
5.27897e-07
-1.57876e-07
5.06603e-07
-1.68477e-07
4.84116e-07
-1.78067e-07
4.60597e-07
-1.86438e-07
4.36232e-07
-1.93373e-07
4.11229e-07
-1.98686e-07
3.85812e-07
-2.02268e-07
3.60195e-07
-2.04136e-07
3.34575e-07
-2.04444e-07
3.09111e-07
-2.03461e-07
2.83922e-07
-2.01513e-07
2.59084e-07
-1.98921e-07
2.34643e-07
-1.95957e-07
2.10618e-07
-1.92822e-07
1.87016e-07
-1.89647e-07
1.63831e-07
-1.86505e-07
1.41057e-07
-1.83427e-07
1.18686e-07
-1.80416e-07
9.67114e-08
-1.77461e-07
7.51295e-08
-1.74546e-07
5.39377e-08
-1.71653e-07
3.31349e-08
-1.68766e-07
1.27213e-08
-1.65875e-07
-7.30286e-09
-1.62976e-07
-2.69371e-08
-1.60063e-07
-4.61782e-08
-1.57114e-07
-6.50228e-08
-1.54122e-07
-8.34684e-08
-1.51093e-07
-1.01513e-07
-1.4803e-07
-1.19157e-07
-1.44941e-07
-1.364e-07
-1.41833e-07
-1.53244e-07
-1.38712e-07
-1.69692e-07
-1.35588e-07
-1.85748e-07
-1.3247e-07
-2.01418e-07
-1.29365e-07
-2.16707e-07
-1.26284e-07
-2.31625e-07
-1.23233e-07
-2.46179e-07
-1.20221e-07
-2.6038e-07
-1.17257e-07
-2.74237e-07
-1.14348e-07
-2.87763e-07
-1.11501e-07
-3.0097e-07
-1.08724e-07
-3.13871e-07
-1.06026e-07
-3.26482e-07
-1.03416e-07
-3.38818e-07
-1.00907e-07
-3.50898e-07
-9.85236e-08