/*--------------------------------*- C++ -*----------------------------------*\
  =========                 |
  \\      /  F ield         | OpenFOAM: The Open Source CFD Toolbox
   \\    /   O peration     | Website:  https://openfoam.org
    \\  /    A nd           | Version:  8
     \\/     M anipulation  |
\*---------------------------------------------------------------------------*/
FoamFile
{
    version     2.0;
    format      ascii;
    class       volScalarField;
    location    "820/fluid";
    object      Qdot;
}
// * * * * * * * * * * * * * * * * * * * * * * * * * * * * * * * * * * * * * //

dimensions      [1 -1 -3 0 0 0 0];

internalField   nonuniform List<scalar> 
4000
(
0
0
-8.58429e-17
-1.28436e-20
0
-1.61939e-11
0
0
0
0
-3.71576e-07
0
3.83914e-07
1.22702e-09
-4.23269e-18
5.95847e-14
-2.94218e-16
-3.13352e-15
1.88348e-08
5.12162e-07
4.38023e-06
5.70052e-05
0.000677066
0.00666242
0.0534888
0.349876
1.88163
8.44124
32.1108
105.267
301.793
766.294
1742.45
3584.14
6729.58
11660.9
18896.5
29026.9
42855.7
61565.7
86846.9
120948
166790
228237
310420
420247
566892
762042
1.02214e+06
1.36808e+06
1.82724e+06
2.43559e+06
3.24029e+06
4.30337e+06
5.7065e+06
7.55757e+06
9.99988e+06
1.31817e+07
1.73368e+07
2.29851e+07
3.04943e+07
7.30557e+07
3.75374e+08
2.94897e+07
2.1231e+07
1.50992e+07
1.05874e+07
7.30563e+06
4.9509e+06
3.28926e+06
2.14109e+06
1.37024e+06
876294
562034
148740
11087.6
304.567
4.29929
0.0408102
0.000418192
7.90585e-06
3.75882e-07
4.24626e-08
8.72156e-09
2.51212e-09
1.03309e-09
4.32124e-10
1.69302e-10
6.95813e-11
3.27381e-11
1.4457e-11
6.27323e-12
-2.80098e-12
1.0503e-12
4.42159e-13
1.66314e-13
7.94152e-14
2.52062e-14
8.85894e-15
-7.43974e-13
-4.87705e-18
2.04708e-17
-6.53052e-12
1.35877e-11
0
-1.30455e-11
0
0
0
0
2.33274e-10
0
-1.39786e-14
-3.75614e-07
-2.85432e-14
-3.31067e-17
-5.85599e-14
-3.00403e-15
2.73274e-08
4.77408e-07
3.93919e-06
5.13646e-05
0.000611665
0.00606678
0.0492877
0.326876
1.78344
8.11482
31.2854
103.839
301.074
772.144
1770.28
3665.4
6917.57
12025.5
19515.3
29971.1
44178.4
63292.5
88973.5
123436
169598
231334
313822
424020
570776
766495
1.02738e+06
1.37444e+06
1.83528e+06
2.44621e+06
3.25503e+06
4.32473e+06
5.73851e+06
7.60672e+06
1.00764e+07
1.32999e+07
1.75206e+07
2.32779e+07
3.09575e+07
1.14018e+08
3.39152e+08
2.93557e+07
2.10567e+07
1.4924e+07
1.04286e+07
7.16926e+06
4.83857e+06
3.20016e+06
2.07335e+06
1.32174e+06
845295
516659
111460
6659.71
158.359
2.01797
0.0187904
0.000211547
4.76874e-06
2.68195e-07
3.46771e-08
8.357e-09
2.74518e-09
1.1091e-09
3.81375e-10
1.62922e-10
6.72083e-11
3.01051e-11
1.32674e-11
6.6331e-12
2.4183e-12
9.86894e-13
4.37446e-13
1.79317e-13
6.92237e-14
-5.36771e-12
8.84857e-15
1.47617e-15
6.99142e-22
-1.39631e-12
3.57526e-12
0
3.09806e-07
-2.86095e-11
3.27089e-07
0
0
0
4.73798e-19
-3.55056e-07
-4.61836e-10
3.62977e-07
-9.40258e-10
-3.5801e-17
2.35624e-09
1.1028e-13
2.14271e-08
4.58866e-07
3.4784e-06
4.7923e-05
0.00056708
0.00565037
0.0462752
0.310194
1.71325
7.89688
30.8446
103.69
304.339
789.558
1828.47
3815.52
7248.88
12657.5
20586.2
31618.5
46522.1
66424.6
92959.8
128315
175421
238187
321861
433173
581460
779979
1.04424e+06
1.39564e+06
1.86234e+06
2.48142e+06
3.30188e+06
4.3885e+06
5.82726e+06
7.73271e+06
1.02581e+07
1.35609e+07
1.79005e+07
2.38374e+07
3.17697e+07
1.84496e+08
2.72503e+08
2.94381e+07
2.09705e+07
1.47598e+07
1.02415e+07
6.99004e+06
4.68265e+06
3.07365e+06
1.9771e+06
1.25405e+06
803855
440347
73928.2
3560.18
75.173
0.906142
0.00877289
0.000113067
3.05133e-06
2.03966e-07
2.93622e-08
7.38697e-09
2.53905e-09
9.51466e-10
3.67823e-10
1.86367e-10
8.57178e-11
3.28326e-11
1.47088e-11
1.16425e-11
2.49254e-12
1.93974e-12
4.32135e-13
1.63556e-13
6.88007e-14
2.81032e-14
8.09665e-15
1.65795e-15
4.86381e-18
0
0
2.97264e-07
0
2.82257e-11
0
0
-2.25416e-19
-3.38857e-07
-2.20717e-10
0
-1.00187e-09
3.51601e-07
-9.12447e-10
-3.47023e-17
-1.85652e-09
-3.68815e-07
3.93934e-07
2.57142e-07
3.2671e-06
4.48243e-05
0.000533685
0.00535214
0.0442475
0.299913
1.67649
7.82369
30.9391
105.276
312.635
820.158
1918.67
4035.61
7710.48
13519.9
22030.2
33825.9
49658.2
70635.8
98373.7
135070
183720
248294
333821
447542
600008
803068
1.07332e+06
1.43264e+06
1.9099e+06
2.54324e+06
3.38315e+06
4.4966e+06
5.97267e+06
7.93028e+06
1.05289e+07
1.39253e+07
1.83952e+07
2.45256e+07
3.2733e+07
2.68897e+08
1.90571e+08
2.94244e+07
2.07974e+07
1.45179e+07
9.98821e+06
6.75818e+06
4.48774e+06
2.92045e+06
1.86422e+06
1.17735e+06
758268
351732
45569.4
1815.46
34.3059
0.393539
0.00397733
5.86719e-05
1.88991e-06
1.48214e-07
2.4007e-08
6.09213e-09
2.15641e-09
8.79307e-10
4.162e-10
1.47837e-10
7.0897e-11
2.87247e-11
1.44624e-11
5.52658e-12
2.3435e-12
8.56569e-13
3.25015e-13
1.74006e-13
6.23223e-14
2.19747e-14
8.10312e-15
1.48187e-15
0
2.0224e-17
0
0
2.55403e-20
3.64525e-16
7.44324e-16
0
0
3.11147e-15
4.51079e-19
0
-5.36713e-10
0
1.08649e-09
-3.73142e-17
3.52423e-07
-2.82695e-15
1.63475e-08
2.39105e-07
3.30221e-06
4.29071e-05
0.000512879
0.00517794
0.0431933
0.295817
1.67212
7.8931
31.5727
108.646
326.17
864.563
2041.91
4326.25
8300.82
14602.5
23816.3
36524.6
53459.7
75716.3
104897
143233
193774
260364
348719
467086
624632
834343
1.11335e+06
1.48423e+06
1.97683e+06
2.63065e+06
3.49799e+06
4.64832e+06
6.17414e+06
8.199e+06
1.08828e+07
1.43796e+07
1.90036e+07
2.53564e+07
3.38482e+07
3.51258e+08
1.06801e+08
2.9156e+07
2.04089e+07
1.41137e+07
9.62197e+06
6.45264e+06
4.24782e+06
2.74167e+06
1.73798e+06
1.09421e+06
707355
251951
27074.3
922.412
15.8883
0.177091
0.00190249
3.23108e-05
1.23241e-06
1.1109e-07
2.05025e-08
5.52729e-09
2.10604e-09
7.49381e-10
3.51676e-10
1.57048e-10
6.26034e-11
3.41024e-11
1.25164e-11
5.4488e-12
2.10521e-12
9.52399e-13
4.02213e-13
1.61722e-13
6.2127e-14
2.49866e-14
8.11313e-15
1.30693e-15
0
-2.01399e-17
0
2.91791e-07
1.48055e-11
5.1616e-20
2.50877e-11
6.26358e-11
0
-2.32448e-10
0
5.19983e-10
-4.25205e-10
8.54216e-10
1.05483e-09
-3.35064e-07
-2.76935e-16
-2.79392e-15
1.14458e-08
6.57776e-08
3.02781e-06
4.16118e-05
0.000501355
0.00510169
0.0429438
0.297092
1.6972
8.0979
32.7385
113.835
345.196
923.719
2200.45
4691.12
9026.96
15911.7
25943.6
39695.7
57878.9
81585.7
112439
152671
205189
274555
367311
490589
654630
872940
1.16334e+06
1.54938e+06
2.06218e+06
2.74291e+06
3.64616e+06
4.8443e+06
6.43357e+06
8.54028e+06
1.13349e+07
1.49683e+07
1.97747e+07
2.63382e+07
3.50598e+07
4.21894e+08
3.97977e+07
2.79056e+07
1.93952e+07
1.33281e+07
9.03321e+06
6.024e+06
3.94469e+06
2.53423e+06
1.60189e+06
1.01032e+06
650262
190816
15969.5
478.33
7.61726
0.0834997
0.000958871
1.86545e-05
8.34543e-07
8.74406e-08
1.6866e-08
5.01523e-09
1.62194e-09
7.84045e-10
2.91776e-10
1.48333e-10
5.85994e-11
2.59407e-11
7.3365e-12
4.549e-12
1.99134e-12
8.4173e-13
3.94292e-13
1.54067e-13
5.45025e-12
2.49656e-14
7.38848e-15
1.40186e-15
0
2.0055e-17
8.27097e-17
-1.69884e-16
2.9586e-07
-2.7817e-12
-1.03509e-19
-5.00533e-11
0
-3.16973e-07
5.99487e-15
8.64551e-19
-9.47987e-11
-3.2228e-07
3.2435e-07
-4.88862e-14
-3.75079e-09
-2.77942e-15
1.94709e-08
2.31388e-07
2.99074e-06
4.15764e-05
0.000498383
0.0051092
0.043394
0.303139
1.74926
8.43114
34.4273
120.875
369.976
998.696
2397.41
5140.34
9911.22
17454.3
28407.1
43304.1
62822
88045.3
120549
162538
217605
290838
387852
516763
688285
916574
1.22034e+06
1.62433e+06
2.16136e+06
2.8749e+06
3.82257e+06
5.0808e+06
6.7509e+06
8.96889e+06
1.19181e+07
1.5719e+07
2.09055e+07
2.77854e+07
3.68736e+07
4.51526e+08
3.51561e+07
2.49934e+07
1.75241e+07
1.21048e+07
8.2251e+06
5.48811e+06
3.58982e+06
2.30076e+06
1.45068e+06
915833
570528
138580
9498.45
257.098
3.85055
0.0420847
0.000519719
1.15183e-05
5.93064e-07
6.78413e-08
1.41647e-08
4.51682e-09
1.8005e-09
6.94029e-10
3.01238e-10
1.25369e-10
5.77021e-11
2.55747e-11
9.33215e-12
5.09443e-12
2.06395e-12
8.35036e-13
3.41529e-13
1.35417e-13
-5.29959e-12
2.19451e-14
7.39979e-15
1.22727e-15
-3.69106e-13
3.04875e-12
-6.27063e-12
-1.68338e-16
2.92461e-07
0
0
0
-9.92108e-11
0
0
0
-3.12818e-07
-1.79853e-09
-8.08217e-10
1.62095e-09
1.62826e-09
-2.78903e-15
2.20987e-08
2.29776e-07
3.0227e-06
4.11455e-05
0.000502504
0.0051913
0.0444792
0.313648
1.82736
8.89227
36.6531
129.869
400.981
1091.13
2637.26
5680.6
10957.5
19240.4
31207.5
47331.9
68259.5
94974.9
129011
173114
231255
307821
409209
543893
723069
961556
1.279e+06
1.7015e+06
2.2638e+06
3.01221e+06
4.00865e+06
5.33604e+06
7.10591e+06
9.46883e+06
1.26107e+07
1.67062e+07
2.23605e+07
2.99545e+07
4.01627e+07
4.39378e+08
3.23248e+07
2.29808e+07
1.61272e+07
1.11537e+07
7.58994e+06
5.07383e+06
3.32857e+06
2.14405e+06
1.36318e+06
872268
517634
103829
5971.25
147.242
2.08757
0.0228742
0.000303482
7.58234e-06
4.42469e-07
5.71198e-08
1.23637e-08
4.12941e-09
1.5766e-09
6.53165e-10
2.86781e-10
1.37699e-10
5.32759e-11
2.29478e-11
1.04925e-11
4.45039e-12
1.84245e-12
8.28443e-13
3.3082e-13
1.34821e-13
5.22107e-14
1.96158e-14
5.1514e-12
1.19143e-15
2.62924e-07
0
-2.79398e-12
-1.19714e-20
0
2.93566e-07
0
4.82967e-11
1.41982e-15
-9.76866e-11
0
1.14496e-14
4.81844e-10
0
3.06021e-07
-1.92895e-09
-2.90343e-16
3.10245e-07
1.81201e-08
2.32372e-07
3.0518e-06
4.19768e-05
0.000513324
0.00534039
0.0461539
0.328416
1.93108
9.48329
39.441
140.964
438.842
1203.14
2925.68
6322.71
12177.5
21276.1
34328.7
51710.6
73967.3
102038
137817
184346
244988
324747
430249
570251
756318
1.00376e+06
1.33288e+06
1.77068e+06
2.35313e+06
3.12823e+06
4.16018e+06
5.53504e+06
7.36845e+06
9.8164e+06
1.30736e+07
1.73406e+07
2.3247e+07
3.12079e+07
6.85522e+07
4.11419e+08
3.05329e+07
2.16717e+07
1.51808e+07
1.04763e+07
7.10985e+06
4.73709e+06
3.09524e+06
1.98551e+06
1.25982e+06
811042
451600
77239.7
3891.84
89.0718
1.21076
0.0133921
0.000190558
5.30856e-06
3.45293e-07
4.81725e-08
1.15609e-08
3.96845e-09
1.44901e-09
6.42438e-10
2.76523e-10
1.20427e-10
5.24952e-11
2.11294e-11
1.02807e-11
4.18135e-12
1.82506e-12
8.21686e-13
-5.07683e-12
1.22011e-13
4.93618e-14
2.04154e-14
6.68342e-15
5.03552e-12
-3.6804e-13
0
8.10402e-17
0
1.67941e-16
-4.88489e-20
0
-4.74303e-11
0
0
2.35003e-10
0
-3.81284e-10
-1.59482e-18
-6.3681e-18
-4.1371e-17
-2.99537e-16
-2.87143e-15
2.05152e-08
9.10982e-08
2.97359e-06
4.3139e-05
0.000529447
0.00555236
0.0483898
0.347361
2.06068
10.2093
42.8289
154.36
484.369
1337.41
3269.73
7080.35
13586.9
23570.2
37775.6
56399.7
79889.4
109410
147131
195565
258553
341242
450423
595034
786858
1.04147e+06
1.37948e+06
1.8283e+06
2.4243e+06
3.21598e+06
4.26795e+06
5.66655e+06
7.5273e+06
1.00051e+07
1.32821e+07
1.75608e+07
2.34528e+07
3.13314e+07
1.30184e+08
3.57647e+08
2.95441e+07
2.09493e+07
1.46683e+07
1.01243e+07
6.8764e+06
4.58821e+06
3.00433e+06
1.9326e+06
1.23121e+06
798085
404104
59791.6
2685.3
57.3854
0.751619
0.0084213
0.000127968
3.92968e-06
2.82244e-07
4.13804e-08
1.00432e-08
3.50814e-09
1.42195e-09
5.77282e-10
2.60658e-10
1.20786e-10
5.24969e-11
2.15487e-11
9.36276e-12
3.95797e-12
1.80723e-12
7.16736e-13
-4.27641e-12
-6.58917e-13
4.92068e-14
1.95701e-14
-7.45898e-13
-7.3824e-13
4.81464e-18
-1.50526e-12
0
5.60664e-12
-1.39727e-11
2.85528e-07
-9.71092e-20
-5.72378e-11
-9.33934e-11
-1.14834e-10
0
-4.57267e-10
0
1.54701e-18
9.03814e-10
-3.69041e-17
-3.07385e-16
-2.94369e-15
1.9723e-08
2.44545e-07
3.23391e-06
4.46109e-05
0.000550959
0.00582259
0.0511632
0.37042
2.21654
11.0763
46.8608
170.285
538.51
1497.08
3677.51
7967.44
15193.1
26101.2
41446.7
61236.8
86038.7
117196
156461
206706
271893
357273
469740
618333
814939
1.07523e+06
1.41993e+06
1.87646e+06
2.48121e+06
3.2825e+06
4.34454e+06
5.75285e+06
7.62151e+06
1.01025e+07
1.33703e+07
1.76245e+07
2.34692e+07
3.12568e+07
1.85528e+08
3.05077e+08
2.88915e+07
2.04519e+07
1.42941e+07
9.84757e+06
6.67599e+06
4.44697e+06
2.90856e+06
1.87164e+06
1.19604e+06
781459
365385
47420.6
1941.43
39.1456
0.49753
0.00565207
9.13093e-05
3.05854e-06
2.37481e-07
3.7698e-08
9.8478e-09
3.25095e-09
1.29894e-09
5.70731e-10
2.67625e-10
9.97607e-11
4.95171e-11
2.2791e-11
9.67057e-12
3.12703e-12
1.78879e-12
6.62117e-13
3.10792e-13
1.20768e-13
4.90274e-14
5.18354e-12
4.3566e-12
-7.37523e-13
-4.80772e-18
-2.67322e-07
-5.73799e-21
0
1.6406e-16
0
-9.5536e-20
0
-9.14764e-11
-2.66668e-15
-2.23651e-10
-4.4501e-10
0
0
-8.94416e-18
-4.15561e-17
-3.13871e-16
-3.01386e-15
1.89287e-08
2.56119e-07
3.37256e-06
4.62188e-05
0.000577379
0.00614623
0.0544457
0.397494
2.39881
12.0893
51.5784
188.975
602.277
1685.59
4157.84
8997.75
16998.3
28835.7
45273.7
66280.5
92518.7
124992
165740
217732
285022
372930
488414
640563
841301
1.10631e+06
1.45629e+06
1.91856e+06
2.52929e+06
3.33638e+06
4.40335e+06
5.81447e+06
7.68104e+06
1.01523e+07
1.34024e+07
1.76263e+07
2.34122e+07
3.11035e+07
2.33634e+08
2.5945e+08
2.83348e+07
2.00721e+07
1.40387e+07
9.67819e+06
6.56538e+06
4.37613e+06
2.86443e+06
1.8454e+06
1.18265e+06
777314
328479
38816.3
1470.14
28.1834
0.349488
0.00403004
6.87577e-05
2.48168e-06
2.07451e-07
3.43834e-08
8.91302e-09
3.18129e-09
1.27184e-09
5.59386e-10
2.38811e-10
1.10039e-10
4.4873e-11
2.09274e-11
9.1179e-12
3.65398e-12
1.71682e-12
6.82652e-13
2.84544e-13
1.20062e-13
4.29215e-14
1.73673e-14
-5.07988e-12
-5.01879e-12
0
0
-5.69894e-21
5.50285e-12
0
1.37301e-11
2.24153e-11
-5.51375e-11
2.78155e-07
3.73953e-19
7.43504e-19
2.73391e-07
0
-2.90296e-18
-8.63995e-18
-4.00549e-17
-3.24671e-16
-3.11442e-15
1.81317e-08
1.28516e-07
3.4013e-06
4.84855e-05
0.000607642
0.0065172
0.0581897
0.428336
2.60672
13.2489
57.0069
210.617
676.593
1906.22
4718.41
10175.5
18958.3
31611.6
49181.6
71493
98893.9
132627
174814
228520
297857
388198
506533
661973
866441
1.13559e+06
1.49002e+06
1.95688e+06
2.57205e+06
3.38289e+06
4.45174e+06
5.86112e+06
7.72201e+06
1.01836e+07
1.34091e+07
1.75911e+07
2.3308e+07
3.08895e+07
2.74272e+08
2.21428e+08
2.77719e+07
1.96972e+07
1.37917e+07
9.5181e+06
6.46407e+06
4.31412e+06
2.82838e+06
1.82644e+06
1.17514e+06
776767
291243
32698.2
1160.57
21.3085
0.259037
0.00303227
5.43146e-05
2.09133e-06
1.85772e-07
3.18928e-08
8.70578e-09
3.28703e-09
1.28441e-09
5.9368e-10
2.57426e-10
1.14664e-10
4.62506e-11
1.91035e-11
8.98977e-12
3.81716e-12
1.65527e-12
-1.16276e-13
2.823e-13
8.81641e-13
4.86028e-14
1.7321e-14
5.59384e-15
1.01566e-15
0
-1.48644e-12
-5.66003e-21
0
-5.48604e-12
-3.21569e-16
0
-2.73357e-07
-2.72222e-07
2.54305e-15
0
-2.65654e-07
0
8.23072e-10
-8.33521e-18
-4.40578e-17
-2.53247e-07
-5.7902e-09
-2.3421e-07
2.77141e-07
3.46932e-06
5.07642e-05
0.000641042
0.00692577
0.0623161
0.462427
2.83767
14.5457
63.1287
235.254
762.001
2161.68
5367.22
11510.9
21056.9
34514.7
53155.6
76442
104877
139793
183380
238772
310117
402820
523881
682413
890311
1.16316e+06
1.52145e+06
1.99205e+06
2.61023e+06
3.42225e+06
4.49004e+06
5.89707e+06
7.75183e+06
1.01969e+07
1.33917e+07
1.7526e+07
2.31651e+07
3.06251e+07
3.08033e+08
1.90289e+08
2.72114e+07
1.93365e+07
1.35638e+07
9.37759e+06
6.38016e+06
4.26619e+06
2.80291e+06
1.81479e+06
1.17201e+06
777357
274069
28226.9
950.455
16.8379
0.20156
0.00239422
4.47636e-05
1.82274e-06
1.69164e-07
3.1092e-08
8.48632e-09
3.11004e-09
1.2145e-09
5.35534e-10
2.52095e-10
1.05951e-10
4.5432e-11
1.9525e-11
8.85817e-12
3.767e-12
1.54243e-12
5.96655e-13
2.79951e-13
1.0681e-13
4.54461e-14
7.66569e-13
5.58739e-15
1.06552e-15
-2.60668e-07
-1.9392e-17
0
1.20364e-11
1.20826e-11
0
0
-9.62006e-11
2.66291e-07
0
-3.74809e-10
0
2.54514e-07
-7.94955e-10
2.47873e-07
-1.5515e-09
-2.43972e-07
-3.32098e-15
1.95673e-08
4.05216e-07
3.66508e-06
5.33551e-05
0.000676399
0.00735736
0.0666946
0.498812
3.08603
15.9528
69.8382
262.544
857.521
2448.67
6088.3
12921.3
23002.4
36917.9
56406.7
80540.4
109922
145956
190908
247945
321240
416204
539841
701250
912268
1.18833e+06
1.5496e+06
2.02244e+06
2.64192e+06
3.4553e+06
4.5235e+06
5.92582e+06
7.76861e+06
1.01926e+07
1.33515e+07
1.74317e+07
2.29843e+07
3.03123e+07
3.35512e+08
1.65415e+08
2.66488e+07
1.89797e+07
1.33436e+07
9.24618e+06
6.30529e+06
4.22635e+06
2.78407e+06
1.80813e+06
1.17221e+06
779150
261517
25033.9
807.375
13.885
0.164206
0.0019766
3.83303e-05
1.63054e-06
1.58066e-07
2.9282e-08
8.44043e-09
2.95248e-09
1.1843e-09
5.23033e-10
2.46636e-10
1.00559e-10
4.61736e-11
1.99273e-11
1.01934e-11
3.71559e-12
-3.56234e-12
-1.13164e-13
2.77514e-13
1.11872e-13
-7.09682e-13
5.09245e-12
-5.03928e-12
1.06577e-15
0
2.62875e-07
5.93684e-12
0
2.24479e-20
0
-6.21929e-16
-2.62873e-07
0
0
0
0
-3.17078e-10
-6.23912e-10
-7.72378e-18
2.36516e-07
-1.47006e-09
-3.426e-15
2.38552e-08
2.94699e-07
3.84069e-06
5.57481e-05
0.0007116
0.00779182
0.0711303
0.535969
3.34209
17.4198
76.9212
291.74
961.002
2761.71
6864.98
14338.9
24643.7
38557.1
58557.2
83265
113401
150422
196634
255203
330304
427332
553255
717076
930448
1.20872e+06
1.57198e+06
2.04722e+06
2.66906e+06
3.48225e+06
4.54657e+06
5.94064e+06
7.76826e+06
1.01667e+07
1.32843e+07
1.73031e+07
2.27593e+07
2.99423e+07
3.57443e+08
1.45821e+08
2.60859e+07
1.86272e+07
1.31297e+07
9.12187e+06
6.23726e+06
4.19252e+06
2.77016e+06
1.80519e+06
1.17492e+06
782500
252387
22812.8
710.548
11.9257
0.139671
0.00170031
3.39716e-05
1.50327e-06
1.49548e-07
2.84125e-08
8.01634e-09
2.87055e-09
1.23768e-09
5.33956e-10
2.30106e-10
1.07198e-10
4.52841e-11
1.81512e-11
8.58456e-12
3.48121e-12
1.50481e-12
6.75954e-13
2.51959e-13
1.11046e-13
4.20735e-14
4.32474e-12
-7.34105e-13
9.76787e-16
2.59928e-07
0
0
0
0
2.61736e-07
2.59942e-07
-1.2104e-15
1.71711e-19
8.07623e-11
0
4.55837e-15
3.7649e-10
-7.38612e-10
-1.72278e-14
1.15922e-09
2.22725e-07
5.02429e-09
2.48603e-08
3.00635e-07
4.04133e-06
5.79332e-05
0.000744724
0.0082021
0.0753516
0.571657
3.59067
18.8613
83.9739
321.207
1066.58
3080.81
7625.73
15502.2
25282.1
38476.9
58560
83575.3
114249
152060
199292
259087
335583
434141
561691
727222
942462
1.2229e+06
1.58848e+06
2.06478e+06
2.68583e+06
3.49614e+06
4.55414e+06
5.93666e+06
7.74491e+06
1.01125e+07
1.31825e+07
1.7132e+07
2.24817e+07
2.9508e+07
3.7467e+08
1.30846e+08
2.55224e+07
1.82771e+07
1.29199e+07
9.00224e+06
6.17383e+06
4.16278e+06
2.75959e+06
1.80475e+06
1.17923e+06
786480
246428
21339
646.663
10.6438
0.123695
0.00151914
3.10712e-05
1.41574e-06
1.44682e-07
2.7776e-08
7.76874e-09
3.10857e-09
1.20375e-09
5.39149e-10
2.35348e-10
1.10309e-10
4.28517e-11
1.84471e-11
7.73378e-12
3.78824e-12
1.5756e-12
-4.37044e-12
9.86934e-13
1.04462e-13
4.4688e-14
1.56391e-14
5.02434e-12
9.76398e-16
-2.59559e-07
0
5.8548e-12
-2.6068e-07
-2.59581e-07
0
6.00174e-16
0
1.16808e-15
-1.75309e-10
0
-4.4121e-15
0
-2.24947e-07
-4.73972e-18
1.10738e-09
-3.64505e-16
4.76764e-09
2.82124e-08
4.14886e-07
4.29006e-06
6.00257e-05
0.000773036
0.00855547
0.0790177
0.602953
3.81114
20.1563
90.4025
348.467
1165.31
3376.6
8273.37
16105.6
24224.3
35856.2
55600.8
80453.9
111219
149394
197181
257674
335041
434615
563310
730093
946614
1.22773e+06
1.59305e+06
2.06808e+06
2.68614e+06
3.49077e+06
4.53901e+06
5.90564e+06
7.68895e+06
1.00184e+07
1.30323e+07
1.69012e+07
2.21306e+07
2.89877e+07
3.86774e+08
1.20265e+08
2.49579e+07
1.79271e+07
1.27109e+07
8.88354e+06
6.11134e+06
4.13386e+06
2.74962e+06
1.80461e+06
1.18341e+06
790313
243163
20445.8
606.951
9.84158
0.113683
0.001405
2.92226e-05
1.35837e-06
1.41956e-07
2.7427e-08
7.82086e-09
2.92704e-09
1.1691e-09
5.24756e-10
2.29535e-10
1.07814e-10
4.3173e-11
1.88557e-11
9.00408e-12
3.55402e-12
1.55455e-12
6.60607e-13
2.47113e-13
1.06168e-13
4.1565e-14
-4.99432e-12
5.18524e-15
9.75751e-16
0
-2.73716e-21
0
0
2.16242e-20
-2.27736e-11
0
-4.88537e-11
0
-2.37768e-07
0
0
2.21106e-07
-2.32619e-18
-9.06859e-18
2.04882e-07
-3.76416e-16
4.51028e-09
2.46002e-08
4.1761e-07
4.31271e-06
6.13993e-05
0.000793799
0.0088159
0.08174
0.626396
3.97796
21.1476
95.3843
369.818
1242.54
3595.92
8620.19
15539.5
23627.8
31245.1
48996.8
73378.6
103814
141761
189465
249989
327329
426763
555120
721232
936530
1.21582e+06
1.57835e+06
2.04915e+06
2.66083e+06
3.45589e+06
4.48981e+06
5.83508e+06
7.58657e+06
9.8686e+06
1.2814e+07
1.65804e+07
2.16493e+07
2.8261e+07
4.01227e+08
1.1061e+08
2.43874e+07
1.757e+07
1.24942e+07
8.75729e+06
6.04185e+06
4.09881e+06
2.73451e+06
1.8002e+06
1.18392e+06
791912
241757
19995
585.271
9.39055
0.107999
0.00133994
2.81712e-05
1.32568e-06
1.4e-07
2.75903e-08
8.14437e-09
2.91629e-09
1.21183e-09
5.101e-10
2.23626e-10
1.00055e-10
4.37061e-11
1.84847e-11
8.15288e-12
3.59405e-12
1.53309e-12
-8.51897e-14
2.67002e-13
-4.84507e-12
4.41282e-14
-4.97141e-12
5.1713e-15
7.34291e-13
-2.58821e-07
0
-2.57377e-07
0
0
-2.49897e-07
2.46049e-07
1.63053e-19
2.36587e-07
0
0
2.19014e-07
3.36711e-10
-2.06453e-07
1.15079e-09
-5.04803e-17
1.20101e-09
-3.67858e-15
2.26662e-08
3.24212e-07
4.38753e-06
6.20138e-05
0.000804466
0.00895018
0.083153
0.638662
4.06601
21.6756
98.0565
381.22
1281.51
3673.91
8413.64
15918.9
24614.2
32574.2
39205.1
61325.8
90639.4
127402
173769
232710
308171
405314
530833
693395
904225
1.17787e+06
1.53322e+06
1.99482e+06
2.5946e+06
3.37411e+06
4.38756e+06
5.70561e+06
7.42058e+06
9.65321e+06
1.25325e+07
1.62099e+07
2.11518e+07
2.75895e+07
4.05231e+08
1.07652e+08
2.37989e+07
1.71855e+07
1.22461e+07
8.60001e+06
5.9443e+06
4.03993e+06
2.70007e+06
1.78063e+06
1.1727e+06
785614
240618
19844.5
576.838
9.20338
0.105591
0.00131228
2.77267e-05
1.31245e-06
1.3976e-07
2.70807e-08
7.85282e-09
2.96468e-09
1.24945e-09
5.34125e-10
2.276e-10
1.02702e-10
4.53343e-11
1.94374e-11
8.37679e-12
3.53586e-12
1.51142e-12
1.37435e-12
2.4206e-13
1.07481e-13
4.10278e-14
1.54256e-14
5.51082e-15
9.74114e-16
2.58821e-07
0
0
-2.55575e-07
0
-1.00577e-11
8.30286e-20
2.41598e-07
1.59671e-19
2.31085e-07
0
-2.19014e-07
-2.73965e-10
1.55278e-14
2.00419e-07
-1.95788e-07
2.81591e-14
4.25226e-09
2.2666e-08
4.10686e-07
4.30059e-06
6.21063e-05
0.000804478
0.00895022
0.0831537
0.638668
4.06605
21.6758
98.0573
381.223
1281.52
3673.92
8413.63
15918.9
24614.2
32574.1
39205
61325.1
90638.6
127401
173769
232709
308171
405314
530833
693395
904225
1.17787e+06
1.53322e+06
1.99482e+06
2.5946e+06
3.37412e+06
4.38756e+06
5.70561e+06
7.42058e+06
9.65322e+06
1.25325e+07
1.62099e+07
2.11518e+07
2.75895e+07
4.05231e+08
1.07652e+08
2.37988e+07
1.71854e+07
1.22461e+07
8.59998e+06
5.94426e+06
4.03989e+06
2.70004e+06
1.7806e+06
1.17268e+06
785602
240618
19844.7
576.848
9.20358
0.105593
0.00131231
2.77289e-05
1.31245e-06
1.3976e-07
2.73358e-08
7.84896e-09
2.96404e-09
1.17375e-09
5.16683e-10
2.276e-10
1.027e-10
4.41647e-11
1.94369e-11
8.67979e-12
3.61289e-12
8.09626e-13
-6.51456e-14
-4.74738e-13
1.07481e-13
4.38402e-14
1.54256e-14
7.3716e-13
9.74113e-16
-2.59189e-07
0
1.09335e-20
1.1579e-11
0
2.53838e-07
4.49812e-11
1.16079e-15
-2.4254e-07
0
2.32727e-07
-2.26821e-07
2.21105e-07
-2.32618e-18
6.64703e-10
-4.8672e-17
-3.76414e-16
2.02339e-09
2.65881e-08
3.18319e-07
4.21925e-06
6.14034e-05
0.000793822
0.00881623
0.0817425
0.626414
3.97807
21.1482
95.3869
369.828
1242.57
3596
8620.31
15539.4
23627.8
31245
48995.7
73377.1
103813
141759
189462
249987
327328
426762
555120
721233
936532
1.21582e+06
1.57836e+06
2.04916e+06
2.66084e+06
3.4559e+06
4.48982e+06
5.83509e+06
7.58659e+06
9.86862e+06
1.28141e+07
1.65804e+07
2.16493e+07
2.8261e+07
4.01227e+08
1.1061e+08
2.43874e+07
1.75701e+07
1.24942e+07
8.75732e+06
6.04189e+06
4.09885e+06
2.73454e+06
1.80022e+06
1.18394e+06
791927
241765
19996
585.308
9.39119
0.108007
0.00134002
2.8172e-05
1.32567e-06
1.39999e-07
2.70095e-08
8.14434e-09
2.9845e-09
1.21182e-09
5.14398e-10
2.28209e-10
1.05274e-10
4.10459e-11
1.84847e-11
7.46604e-12
4.20092e-12
1.53311e-12
6.5271e-13
2.44611e-13
1.08397e-13
4.12996e-14
-7.17763e-13
5.52635e-15
-4.98736e-12
-2.59558e-07
0
-7.67023e-17
0
0
0
2.55314e-07
-2.52197e-07
-1.67702e-19
-7.86447e-11
0
4.41209e-15
-2.29845e-07
-5.77957e-10
-1.6516e-14
-5.10649e-17
-2.42276e-09
4.76761e-09
2.35102e-08
3.11205e-07
4.09019e-06
6.00253e-05
0.000773172
0.00855574
0.0790205
0.602972
3.81125
20.1569
90.405
348.477
1165.35
3376.75
8273.89
16105.8
24223.9
35855.3
55599.1
80451.3
111215
149388
197175
257670
335037
434613
563309
730093
946617
1.22773e+06
1.59305e+06
2.06809e+06
2.68615e+06
3.49079e+06
4.53904e+06
5.90567e+06
7.68899e+06
1.00185e+07
1.30324e+07
1.69013e+07
2.21306e+07
2.89877e+07
3.86775e+08
1.20265e+08
2.49579e+07
1.79271e+07
1.27109e+07
8.88355e+06
6.11134e+06
4.13386e+06
2.74962e+06
1.80461e+06
1.18341e+06
790314
243172
20447.4
607.011
9.84269
0.113697
0.00140515
2.92258e-05
1.35836e-06
1.42488e-07
2.74266e-08
8.12676e-09
3.01755e-09
1.24923e-09
5.24755e-10
2.23763e-10
1.0248e-10
4.19559e-11
2.02332e-11
8.29895e-12
3.55402e-12
1.55455e-12
-6.53839e-14
2.4712e-13
-6.30155e-13
4.44125e-14
1.55709e-14
7.41361e-13
-4.99179e-12
2.59927e-07
2.61769e-07
-2.62864e-07
0
1.17902e-11
-3.07634e-16
2.59942e-07
-9.24045e-11
0
-1.80023e-10
2.47123e-07
6.54354e-19
-1.28414e-18
-6.00957e-10
2.28955e-07
-4.37336e-17
2.24127e-07
2.77031e-09
2.70907e-08
4.12852e-07
4.03153e-06
5.80479e-05
0.000744771
0.0082025
0.0753556
0.571684
3.59083
18.862
83.9768
321.215
1066.59
3080.76
7625.17
15501.9
25281.7
38475.8
58556.9
83572.7
114248
152062
199294
259087
335582
434138
561688
727219
942466
1.22291e+06
1.58849e+06
2.0648e+06
2.68586e+06
3.49617e+06
4.55418e+06
5.93671e+06
7.74497e+06
1.01125e+07
1.31825e+07
1.71321e+07
2.24818e+07
2.95081e+07
3.74673e+08
1.30846e+08
2.55224e+07
1.82771e+07
1.29199e+07
9.00226e+06
6.17385e+06
4.1628e+06
2.75961e+06
1.80477e+06
1.17924e+06
786492
246443
21341.4
646.754
10.6454
0.123715
0.00151937
3.10746e-05
1.41572e-06
1.44679e-07
2.77723e-08
8.08489e-09
2.94745e-09
1.20372e-09
5.15973e-10
2.30541e-10
1.04863e-10
4.28516e-11
1.92197e-11
7.73377e-12
3.60911e-12
1.53512e-12
6.6835e-13
2.49571e-13
1.04466e-13
7.84862e-13
-5.01524e-12
5.55519e-15
-4.99616e-12
2.60297e-07
1.47399e-12
-7.7767e-17
-2.65765e-07
0
-2.38364e-11
0
0
1.75715e-19
2.57567e-07
2.54305e-07
0
-7.06773e-10
6.23909e-10
-1.79402e-14
1.21083e-09
2.32165e-07
-3.42598e-15
2.3855e-08
1.73167e-07
3.95351e-06
5.57684e-05
0.000711662
0.00779243
0.0711351
0.536003
3.3423
17.4209
76.926
291.76
961.085
2762.04
6866.27
14342.2
24647.1
38561.4
58564.3
83272.5
113409
150430
196643
255213
330315
427344
553269
717090
930459
1.20873e+06
1.572e+06
2.04724e+06
2.66909e+06
3.48229e+06
4.54662e+06
5.94071e+06
7.76834e+06
1.01668e+07
1.32844e+07
1.73033e+07
2.27594e+07
2.99424e+07
3.5745e+08
1.45818e+08
2.60859e+07
1.86272e+07
1.31297e+07
9.1219e+06
6.23729e+06
4.19255e+06
2.77019e+06
1.80521e+06
1.17493e+06
782511
252405
22815.9
710.671
11.928
0.139699
0.00170062
3.39788e-05
1.50325e-06
1.49546e-07
2.84079e-08
8.0161e-09
2.9618e-09
1.23771e-09
5.53256e-10
2.19152e-10
1.072e-10
4.65485e-11
1.74306e-11
7.85702e-12
3.66286e-12
1.50484e-12
6.30005e-13
2.51951e-13
1.05281e-13
4.20725e-14
1.57048e-14
5.92544e-15
9.76787e-16
0
-8.16162e-13
-2.6653e-07
0
-6.66195e-12
0
0
0
1.25195e-15
-2.48143e-15
0
4.8502e-15
-3.27804e-10
-2.71145e-18
7.84735e-10
1.55149e-09
-3.45968e-16
2.48342e-09
1.65292e-08
2.85633e-07
3.78433e-06
5.33607e-05
0.00067647
0.00735781
0.0667001
0.49885
3.08625
15.9539
69.8426
262.559
857.561
2448.73
6088.13
12919.7
23002.7
36920.8
56411
80545.9
109928
145963
190916
247955
321251
416218
539858
701272
912293
1.18836e+06
1.54962e+06
2.02247e+06
2.64196e+06
3.45536e+06
4.52357e+06
5.92591e+06
7.76871e+06
1.01927e+07
1.33516e+07
1.74319e+07
2.29845e+07
3.03125e+07
3.35524e+08
1.65408e+08
2.66488e+07
1.89798e+07
1.33436e+07
9.2462e+06
6.30531e+06
4.22637e+06
2.7841e+06
1.80815e+06
1.17224e+06
779175
261545
25038.6
807.555
13.8884
0.164247
0.00197707
3.8335e-05
1.63169e-06
1.59373e-07
2.89175e-08
8.25595e-09
2.95247e-09
1.1843e-09
5.23032e-10
2.46635e-10
9.81473e-11
4.74616e-11
2.49098e-11
8.72283e-12
3.71559e-12
1.5239e-12
6.36877e-13
2.77506e-13
1.17681e-13
4.23081e-14
5.09245e-12
5.05079e-12
9.768e-16
2.61039e-07
0
0
1.21511e-11
1.2229e-11
1.3534e-11
0
1.84487e-19
0
1.94142e-10
0
0
4.16052e-10
-2.61467e-07
-8.33518e-18
-3.84083e-14
-1.60353e-09
-2.52105e-07
2.71465e-07
2.74549e-07
3.59498e-06
5.06383e-05
0.000641118
0.00692639
0.0623218
0.462466
2.83789
14.5468
63.133
235.269
762.052
2161.84
5367.73
11512.5
21059.6
34517.3
53158.9
76446.2
104882
139799
183387
238781
310129
402834
523899
682435
890338
1.1632e+06
1.52149e+06
1.9921e+06
2.61028e+06
3.42231e+06
4.49012e+06
5.89717e+06
7.75196e+06
1.0197e+07
1.33918e+07
1.75262e+07
2.31652e+07
3.06253e+07
3.08054e+08
1.90275e+08
2.72111e+07
1.93362e+07
1.35636e+07
9.37751e+06
6.38011e+06
4.26615e+06
2.80285e+06
1.81471e+06
1.17191e+06
777270
274062
28230.1
950.642
16.8421
0.201615
0.00239484
4.47765e-05
1.82121e-06
1.70513e-07
3.10871e-08
8.14263e-09
3.03181e-09
1.2138e-09
5.35518e-10
2.29252e-10
1.06679e-10
4.54319e-11
2.02697e-11
8.11522e-12
3.76712e-12
1.5424e-12
-1.61502e-13
5.41332e-12
1.0681e-13
4.54461e-14
1.72675e-14
5.58727e-15
9.76468e-16
0
-2.66203e-07
0
0
-2.32741e-20
-2.49013e-11
-9.39676e-20
0
0
1.98842e-10
0
7.84888e-10
3.4921e-10
-5.80591e-18
-8.63992e-18
-4.00548e-17
-1.67e-09
-3.11441e-15
1.81317e-08
2.60297e-07
3.53335e-06
4.83408e-05
0.000607723
0.00651798
0.0581956
0.428376
2.60694
13.2499
57.0111
210.632
676.634
1906.32
4718.58
10175.6
18957.6
31611.3
49182.7
71495.6
98897.8
132632
174821
228528
297868
388212
506551
661996
866470
1.13563e+06
1.49006e+06
1.95695e+06
2.57213e+06
3.38299e+06
4.45185e+06
5.86126e+06
7.72221e+06
1.01839e+07
1.34094e+07
1.75915e+07
2.33084e+07
3.08899e+07
2.74304e+08
2.21407e+08
2.77726e+07
1.96981e+07
1.37926e+07
9.51889e+06
6.46477e+06
4.31474e+06
2.82897e+06
1.82702e+06
1.17567e+06
777187
291422
32713.2
1161.03
21.3162
0.259125
0.00303319
5.43274e-05
2.09409e-06
1.85771e-07
3.18917e-08
9.0583e-09
3.18835e-09
1.33441e-09
5.47635e-10
2.29098e-10
1.08025e-10
4.62495e-11
2.0603e-11
3.80969e-12
3.43844e-12
1.56039e-12
6.97468e-13
2.82308e-13
1.1931e-13
5.20356e-12
5.13581e-12
5.59384e-15
1.06483e-15
0
-1.49896e-12
0
0
0
-2.52577e-11
0
4.57142e-11
0
-1.12234e-10
-4.05621e-10
0
0
0
-1.5853e-09
-1.74054e-09
2.75949e-07
-3.01977e-15
1.89287e-08
2.53928e-07
3.37955e-06
4.63759e-05
0.000577319
0.00614707
0.0544517
0.397535
2.39903
12.0903
51.5824
188.988
602.314
1685.68
4158.01
8997.96
16998.2
28835.2
45274.8
66282.9
92522.3
124997
165747
217740
285032
372943
488432
640587
841332
1.10635e+06
1.45634e+06
1.91863e+06
2.52938e+06
3.3365e+06
4.40352e+06
5.81467e+06
7.68128e+06
1.01526e+07
1.34028e+07
1.76268e+07
2.34129e+07
3.11044e+07
2.33679e+08
2.5942e+08
2.83316e+07
2.00676e+07
1.40338e+07
9.67365e+06
6.56131e+06
4.37254e+06
2.86125e+06
1.84289e+06
1.18073e+06
776045