/*--------------------------------*- C++ -*----------------------------------*\
  =========                 |
  \\      /  F ield         | OpenFOAM: The Open Source CFD Toolbox
   \\    /   O peration     | Website:  https://openfoam.org
    \\  /    A nd           | Version:  8
     \\/     M anipulation  |
\*---------------------------------------------------------------------------*/
FoamFile
{
    version     2.0;
    format      ascii;
    class       volScalarField;
    location    "820/fluid";
    object      rDeltaT;
}
// * * * * * * * * * * * * * * * * * * * * * * * * * * * * * * * * * * * * * //

dimensions      [0 0 -1 0 0 0 0];

internalField   nonuniform List<scalar> 
4000
(
513.504
539.556
564.416
588.23
610.934
632.429
652.584
671.259
688.321
703.669
717.265
729.164
739.545
748.741
757.244
765.558
774.069
782.958
792.125
801.178
809.515
816.441
821.301
823.573
822.937
819.207
812.274
802.107
788.746
772.275
752.818
741.74
763.383
807.96
851.717
894.543
936.354
977.079
1016.66
1055.07
1092.26
1128.23
1162.96
1196.45
1228.71
1259.73
1289.54
1318.15
1345.55
1371.78
1396.84
1420.74
1443.49
1465.1
1485.56
1504.89
1523.08
1539.99
1555.61
1570.19
1583.65
2888.38
15039.2
1573.08
1536.54
1495.12
1449.29
1399.58
1346.38
1290.1
1231.13
1169.96
1107.15
1043.23
978.926
915.696
855.541
800.877
754.666
719.544
696.49
684.052
678.976
677.742
677.531
676.581
673.909
669.162
662.372
653.724
643.453
631.795
618.969
605.169
590.558
575.27
559.405
543.037
526.207
508.865
513.028
538.421
562.489
585.164
606.417
626.171
644.334
660.816
675.551
688.523
699.791
709.517
717.989
725.633
732.934
740.365
748.307
756.948
766.196
775.664
784.728
792.645
798.683
802.243
802.873
800.268
794.269
784.838
772.022
755.932
736.718
714.556
715.645
751.492
796.455
840.684
884.075
926.538
968.003
1008.41
1047.73
1085.92
1122.97
1158.87
1193.61
1227.2
1259.65
1290.95
1321.14
1350.21
1378.18
1405.08
1430.92
1455.72
1479.49
1502.25
1524.01
1544.63
1564.15
1582.89
1600.75
4511.66
13605.1
1583.76
1542.51
1497.63
1449.01
1396.75
1341.04
1282.09
1220.19
1155.71
1089.13
1020.87
951.866
883.984
819.857
762.745
715.899
681.654
660.221
649.413
645.706
645.697
646.855
647.625
647.187
645.087
641.171
635.466
628.077
619.148
608.834
597.288
584.651
571.048
556.577
541.313
525.297
508.557
512.324
536.159
558.493
579.295
598.501
616.05
631.889
645.981
658.33
668.995
678.114
685.919
692.743
699.007
705.161
711.659
718.885
727.038
736.045
745.539
754.916
763.439
770.364
775.028
776.886
775.552
770.814
762.598
750.927
735.897
717.647
696.347
678.165
693.67
738.93
783.757
828.032
871.651
914.53
956.6
997.808
1038.11
1077.49
1115.91
1153.38
1189.88
1225.41
1260
1293.63
1326.35
1358.16
1389.09
1419.16
1448.41
1476.86
1504.51
1531.37
1557.25
1582.11
1606.09
1628.64
7310.17
10954.6
1602.83
1556.85
1507.14
1453.76
1396.8
1336.4
1272.77
1206.15
1136.95
1065.69
992.93
919.96
849.078
783.289
726.083
680.544
648.348
628.968
619.82
617.385
618.444
620.647
622.549
623.438
622.948
620.909
617.274
612.071
605.366
597.247
587.809
577.146
565.347
552.49
538.638
523.84
508.111
511.636
534.089
554.974
574.247
591.864
607.786
621.987
634.462
645.244
654.413
662.12
668.596
674.166
679.244
684.304
689.82
696.182
703.588
711.968
720.962
729.968
738.25
745.056
749.718
751.704
750.638
746.293
738.566
727.452
713.014
695.364
674.649
651.033
650.11
684.597
729.745
774.625
819.129
863.167
906.665
949.562
991.81
1033.38
1074.23
1114.36
1153.75
1192.4
1230.31
1267.48
1303.93
1339.67
1374.71
1409.07
1442.75
1475.75
1508.03
1539.53
1569.92
1599.08
1627.01
1652.93
10672.1
7680.71
1615.21
1565.37
1511.26
1453.17
1391.37
1326.12
1257.73
1186.59
1113.25
1038.38
962.736
887.979
816.624
751.692
696.38
653.332
623.691
606.475
598.911
597.582
599.49
602.487
605.234
607.015
607.486
606.506
604.042
600.111
594.759
588.042
580.021
570.758
560.312
548.736
536.074
522.365
507.631
510.899
531.851
551.188
568.871
584.865
599.144
611.696
622.539
631.724
639.354
645.598
650.707
655.017
658.948
662.975
667.566
673.101
679.775
687.518
695.976
704.558
712.533
719.15
723.733
725.738
724.779
720.613
713.123
702.287
688.153
670.818
650.412
627.086
612.735
633.197
678.527
723.855
769.074
814.091
858.83
903.227
947.229
990.796
1033.9
1076.51
1118.6
1160.17
1201.21
1241.71
1281.66
1321.07
1359.91
1398.18
1435.84
1472.84
1509.08
1544.4
1578.35
1610.78
1641.54
1669.62
13965.4
4315.4
1619.05
1566.3
1508.58
1446.48
1380.51
1311.13
1238.79
1164.05
1087.59
1010.16
932.698
857.101
785.954
722.234
668.923
628.276
600.951
585.58
579.283
578.775
581.286
584.863
588.289
590.893
592.332
592.445
591.17
588.498
584.448
579.056
572.361
564.405
555.233
544.884
533.394
520.797
507.117
510.161
529.64
547.494
563.687
578.193
590.995
602.096
611.522
619.339
625.658
630.656
634.584
637.777
640.651
643.67
647.296
651.904
657.687
664.584
672.254
680.119
687.463
693.545
697.69
699.356
698.147
693.813
686.224
675.342
661.203
643.888
623.511
600.21
575.379
584.964
630.391
676.056
721.854
767.692
813.493
859.19
904.728
950.062
995.149
1039.96
1084.46
1128.62
1172.44
1215.87
1258.91
1301.51
1343.63
1385.23
1426.22
1466.5
1505.89
1544.18
1580.79
1615.53
1648.11
1677.38
16803.1
1663.21
1615.02
1559.77
1498.94
1433.49
1364.13
1291.48
1216.14
1138.79
1060.22
981.233
902.947
827.411
757.241
695.336
644.449
606.462
581.604
568.192
563.26
563.638
566.743
570.789
574.676
577.8
579.85
580.674
580.209
578.434
575.356
570.989
565.359
558.493
550.418
541.164
530.758
519.227
506.595
509.415
527.407
543.777
558.494
571.537
582.896
592.582
600.63
607.113
612.15
615.922
618.685
620.775
622.6
624.621
627.291
630.977
635.869
641.907
648.755
655.847
662.476
667.905
671.466
672.616
670.957
666.234
658.308
647.135
632.74
615.193
594.6
571.083
544.781
546.145
584.605
630.527
676.796
723.322
770.025
816.836
863.696
910.55
957.352
1004.06
1050.64
1097.05
1143.24
1189.19
1234.84
1280.14
1325.01
1369.37
1413.09
1456.02
1497.93
1538.53
1577.03
1613.62
1647.2
1676.72
18016.1
1656.61
1604.77
1546.52
1482.93
1414.87
1343.06
1268.17
1190.87
1111.91
1032.18
952.491
874.116
799.213
730.391
670.447
621.921
586.372
563.679
551.931
548.139
549.264
552.898
557.395
561.747
565.397
568.052
569.563
569.861
568.919
566.73
563.302
558.647
552.784
545.732
537.512
528.146
517.659
506.071
508.672
525.188
540.097
553.371
564.994
574.962
583.292
590.024
595.237
599.054
601.658
603.303
604.32
605.114
606.134
607.826
610.55
614.492
619.593
625.526
631.733
637.517
642.151
644.971
645.435
643.147
637.845
629.388
617.726
602.876
584.902
563.898
539.979
513.274
508.423
540.707
586.8
633.431
680.509
727.951
775.688
823.651
871.784
920.032
968.345
1016.67
1064.96
1113.16
1161.2
1209.02
1256.55
1303.68
1350.29
1396.23
1441.3
1485.23
1527.58
1567.63
1605.35
1639.4
1668.34
17566.5
1642.6
1588.11
1527.58
1461.97
1392.07
1318.61
1242.28
1163.82
1084.02
1003.82
924.037
846.097
772.214
704.98
647.106
600.939
567.753
547.13
536.974
534.287
536.147
540.297
545.215
549.978
554.077
557.241
559.331
560.279
560.053
558.642
556.044
552.266
547.317
541.212
533.964
525.592
516.114
505.553
507.931
522.977
536.435
548.281
558.502
567.1
574.095
579.534
583.497
586.11
587.557
588.091
588.039
587.799
587.814
588.519
590.266
593.237
597.373
602.351
607.619
612.488
616.239
618.213
617.873
614.822
608.799
599.661
587.354
571.891
553.33
531.761
507.291
480.042
470.476
498.174
544.356
591.244
638.744
686.774
735.256
784.121
833.307
882.749
932.388
982.16
1032
1081.84
1131.61
1181.21
1230.54
1279.49
1327.9
1375.6
1422.34
1467.82
1511.55
1552.84
1591.57
1626.41
2712.37
16477.7
1623.16
1566.75
1504.61
1437.59
1366.48
1292
1214.87
1135.84
1055.77
975.578
896.142
818.981
746.353
680.826
625.014
581.092
550.087
531.334
522.603
520.914
523.458
528.113
533.459
538.644
543.198
546.868
549.522
551.093
551.548
550.871
549.056
546.105
542.023
536.82
530.504
523.092
514.599
505.044
507.195
520.782
532.8
543.232
552.067
559.312
564.991
569.153
571.882
573.305
573.606
573.035
571.916
570.639
569.639
569.34
570.089
572.06
575.195
579.171
583.444
587.333
590.124
591.165
589.923
586.003
579.147
569.211
556.139
539.943
520.677
498.427
473.296
445.4
432.286
456.617
502.806
549.846
597.646
646.119
695.184
744.769
794.803
845.215
895.935
946.891
998.006
1049.2
1100.37
1151.42
1202.24
1252.67
1302.55
1351.67
1399.79
1446.58
1491.5
1533.91
1573.72
1609.69
5153.81
14347.4
1598.7
1541.34
1478.34
1410.58
1338.86
1263.91
1186.49
1107.37
1027.44
947.633
868.847
792.691
721.452
657.671
603.88
562.093
533.12
516.096
508.686
507.936
511.144
516.304
522.086
527.698
532.703
536.868
540.067
542.237
543.341
543.364
542.296
540.135
536.884
532.547
527.132
520.65
513.116
504.545
506.463
518.598
529.187
538.213
545.671
551.572
555.942
558.835
560.334
560.57
559.724
558.046
555.853
553.531
551.505
550.19
549.924
550.876
552.984
555.928
559.168
562.027
563.801
563.843
561.624
556.755
548.98
538.155
524.227
507.206
487.145
464.128
438.254
409.637
393.849
415.72
461.834
508.932
556.918
605.704
655.208
705.35
756.052
807.24
858.833
910.751
962.906
1015.2
1067.54
1119.79
1171.82
1223.49
1274.6
1324.93
1374.22
1422.12
1468.1
1511.51
1552.27
1589.14
7350.68
12258.7
1570.79
1513.13
1449.83
1381.82
1309.93
1234.93
1157.59
1078.73
999.256
920.089
842.162
767.161
697.387
635.351
583.505
543.721
516.622
501.176
494.976
495.105
498.956
504.626
510.861
516.92
522.394
527.065
530.815
533.58
535.327
536.036
535.698
534.308
531.865
528.373
523.836
518.262
511.665
504.057
505.736
516.427
525.593
533.22
539.308
543.87
546.936
548.561
548.833
547.88
545.885
543.094
539.822
536.445
533.382
531.038
529.742
529.656
530.715
532.599
534.771
536.562
537.272
536.261
533.008
527.127
518.365
506.584
491.731
473.816
452.895
429.048
402.374
372.985
355.172
375.245
421.21
468.276
516.347
565.331
615.144
665.7
716.918
768.715
821.006
873.699
926.7
979.902
1033.19
1086.43
1139.49
1192.19
1244.33
1295.68
1345.97
1394.83
1441.73
1486
1527.57
1565.16
9264.19
10439
1540.62
1482.99
1419.74
1351.83
1280.11
1205.38
1128.44
1050.11
971.32
892.978
816.055
742.304
674.03
613.71
563.722
525.812
500.444
486.448
481.368
482.329
486.812
493.001
499.707
506.233
512.196
517.387
521.696
525.061
527.45
528.841
529.225
528.594
526.947
524.284
520.607
515.924
510.244
503.579
505.012
514.267
522.016
528.249
532.97
536.195
537.958
538.315
537.357
535.212
532.063
528.153
523.792
519.351
515.24
511.856
509.516
508.378
508.37
509.172
510.251
510.941
510.551
508.447
504.114
497.172
487.374
474.584
458.754
439.897
418.067
393.346
365.835
335.64
316.272
335.017
380.763
427.716
475.781
524.862
574.871
625.72
677.322
729.589
782.428
835.743
889.429
943.373
997.451
1051.52
1105.43
1159
1212.02
1264.25
1315.39
1365.11
1412.81
1457.85
1500.14
1538.38
10883.4
8919.72
1508.91
1451.55
1388.6
1321.05
1249.75
1175.54
1099.21
1021.6
943.67
866.295
790.484
718.048
651.281
592.631
544.406
508.242
484.467
471.804
467.764
469.517
474.623
481.342
488.541
495.559
502.032
507.763
512.646
516.623
519.661
521.738
522.842
522.967
522.108
520.264
517.436
513.629
508.85
503.111
504.291
512.116
518.452
523.295
526.651
528.54
528.999
528.087
525.895
522.553
518.243
513.207
507.749
502.236
497.067
492.632
489.238
487.034
485.944
485.647
485.611
485.176
483.656
480.427
474.979
466.939
456.067
442.231
425.387
405.551
382.779
357.157
328.782
297.763
277.172
294.91
340.373
387.143
435.12
484.209
534.317
585.354
637.229
689.847
743.111
796.919
851.159
905.712
960.444
1015.21
1069.84
1124.15
1177.93
1230.92
1282.83
1333.29
1381.72
1427.47
1470.44
1509.35
12230.7
7672.69
1476.16
1419.21
1356.74
1289.73
1219.06
1145.54
1069.99
993.266
916.32
840.021
765.405
694.319
629.051
572.016
525.461
490.921
468.613
457.176
454.106
456.617
462.341
469.604
477.318
484.851
491.858
498.151
503.627
508.229
511.925
514.695
516.524
517.404
517.33
516.3
514.312
511.371
507.481
502.651
503.573
509.972
514.899
518.353
520.345
520.898
520.051
517.867
514.437
509.894
504.417
498.247
491.685
485.091
478.856
473.361
468.903
465.623
463.439
462.029
460.861
459.281
456.61
452.23
445.64
436.475
424.5
409.591
391.706
370.867
347.132
320.589
291.337
259.485
237.895
254.837
299.96
346.481
394.3
443.32
493.444
544.58
596.631
649.501
703.088
757.282
811.968
867.019
922.296
977.644
1032.89
1087.85
1142.3
1195.97
1248.56
1299.71
1348.81
1395.23
1438.88
1478.47
13328.8
6674.85
1442.68
1386.25
1324.39
1258.07
1188.16
1115.48
1040.85
965.132
889.273
814.132
740.766
671.049
607.262
551.787
506.812
473.787
452.831
442.52
440.35
443.59
449.931
457.752
466.002
474.076
481.641
488.517
494.605
499.849
504.217
507.688
510.248
511.887
512.599
512.38
511.228
509.144
506.132
502.198
502.857
507.834
511.354
513.421
514.05
513.265
511.111
507.651
502.979
497.228
490.579
483.268
475.595
467.912
460.604
454.041
448.512
444.148
440.861
438.325
436.012
433.272
429.432
423.882
416.131
405.82
392.722
376.719
357.777
335.918
311.208
283.734
253.599
220.912
198.468
214.739
259.471
305.688
353.287
402.169
452.237
503.395
555.543
608.581
662.403
716.895
771.936
827.395
883.128
938.975
994.762
1050.29
1105.32
1159.6
1212.83
1264.61
1314.36
1361.44
1405.77
1446.05
14206.3
5887.66
1408.66
1352.86
1291.72
1226.2
1157.17
1085.44
1011.84
937.213
862.517
788.592
716.515
648.176
585.844
531.873
488.4
456.8
437.108
427.831
426.469
430.411
437.372
445.766
454.575
463.213
471.359
478.839
485.558
491.46
496.514
500.698
503.997
506.4
507.901
508.493
508.174
506.942
504.799
501.751
502.143
505.7
507.815
508.496
507.76
505.637
502.172
497.433
491.515
484.552
476.724
468.267
459.476
450.699
442.311
434.674
428.067
422.611
418.213
414.544
411.076
407.163
402.141
395.408
386.48
375.008
360.774
343.665
323.653
300.767
275.074
246.667
215.649
182.131
158.917
174.582
218.878
264.739
312.064
360.751
410.7
461.813
513.989
567.124
621.106
675.821
731.143
786.936
843.053
899.328
955.581
1011.61
1067.17
1122.02
1175.82
1228.21
1278.59
1326.32
1371.33
1412.33
14896.1
5285.4
1374.26
1319.16
1258.83
1194.21
1126.16
1055.47
982.973
909.514
836.037
763.372
692.605
625.638
564.724
512.189
470.128
439.864
421.387
413.131
412.499
417.109
424.68
433.654
443.034
452.254
461
469.103
476.47
483.046
488.799
493.708
497.755
500.93
503.224
504.629
505.141
504.758
503.48
501.309
501.43
503.57
504.281
503.575
501.474
498.01
493.232
487.21
480.041
471.861
462.85
453.241
443.327
433.45
423.977
415.261
407.571
401.018
395.503
390.693
386.062
380.968
374.753
366.826
356.711
344.069
328.689
310.466
289.379
265.461
238.785
209.446
177.55
143.21
119.271
134.348
178.167
223.63
270.632
319.071
368.847
419.859
472.002
525.171
579.251
634.125
689.663
745.726
802.162
858.803
915.464
971.938
1027.99
1083.35
1137.7
1190.67
1241.65
1290.03
1335.73
1377.47
15381.3
4859.43
1339.57
1285.25
1225.81
1162.17
1095.17
1025.6
954.276
882.04
809.829
738.457
669.016
603.408
543.87
492.699
451.951
422.904
405.547
398.31
398.42
403.685
411.856
421.41
431.371
441.185
450.547
459.29
467.322
474.588
481.055
486.701
491.508
495.463
498.555
500.778
502.123
502.588
502.17
500.871
500.717
501.441
500.748
498.656
495.187
490.38
484.286
476.978
468.555
459.153
448.953
438.188
427.146
416.163
405.601
395.802
387.024
379.371
372.734
366.778
360.977
354.695
347.281
338.152
326.843
313.023
296.492
277.152
254.987
230.038
202.382
172.116
139.351
104.202
100
100
137.343
182.366
229.003
277.149
326.703
377.562
429.619
482.766
536.889
591.864
647.56
703.836
760.535
817.489
874.508
931.381
987.872
1043.71
1098.57
1152.1
1203.68
1252.71
1299.13
1341.71
15958.1
4470.06
1304.58
1251.12
1192.66
1130.09
1064.22
995.843
925.75
854.787
783.881
713.831
645.729
581.468
523.267
473.391
433.859
405.912
389.542
383.242
384.167
390.089
398.86
408.999
419.553
429.979
439.975
449.376
458.091
466.065
473.262
479.659
485.238
489.983
493.883
496.928
499.111
500.425
500.867
500.435
500.006
499.313
497.216
493.735
488.898
482.746
475.332
466.734
457.052
446.424
435.031
423.105
410.93
398.838
387.183
376.296
366.428
357.67
349.907
342.801
335.826
328.351
319.732
309.396
296.887
281.887
264.201
243.743
220.502
194.525
165.895
134.712
101.09
100
100
100
100
140.966
187.199
235.01
284.298
334.956
386.879
439.955
494.067
549.091
604.894
661.331
718.245
775.464
832.797
890.032
946.929
1003.22
1058.57
1112.63
1164.8
1214.45
1261.55
1304.86
16118.8
4350.93
1269.42
1216.91
1159.49
1098.04
1033.36
966.22
897.405
827.753
758.18
689.475
622.721
559.797
502.898
454.261
415.873
388.939
373.415
367.855
369.608
376.212
385.605
396.354
407.527
418.59
429.245
439.33
448.75
457.451
465.397
472.563
478.928
484.476
489.194
493.071
496.096
498.263
499.565
500
500.006
499.313
497.216
493.735
488.898
482.746
475.332
466.733
457.051
446.424
435.031
423.104
410.929
398.837
387.182
376.296
366.427
357.669
349.906
342.8
335.825
328.35
319.73
309.394
296.886
281.885
264.2
243.741
220.5
194.523
165.892
134.71
101.088
100
100
100
100
140.965
187.197
235.009
284.296
334.955
386.878
439.954
494.066
549.091
604.893
661.331
718.245
775.464
832.797
890.031
946.929
1003.22
1058.57
1112.63
1164.8
1214.45
1261.55
1304.86
16118.8
4350.94
1269.42
1216.91
1159.49
1098.04
1033.36
966.22
897.405
827.752
758.179
689.475
622.721
559.796
502.897
454.261
415.872
388.938
373.414
367.854
369.608
376.211
385.604
396.353
407.527
418.589
429.245
439.329
448.749
457.451
465.397
472.562
478.927
484.476
489.194
493.071
496.096
498.263
499.565
500
500.717
501.441
500.748
498.655
495.187
490.38
484.286
476.977
468.554
459.152
448.952
438.187
427.145
416.162
405.6
395.8
387.022
379.369
372.732
366.776
360.975
354.692
347.278
338.149
326.839
313.02
296.488
277.148
254.983
230.034
202.377
172.112
139.347
104.198
100
100
137.34
182.363
229
277.147
326.701
377.559
429.617
482.765
536.887
591.862
647.559
703.835
760.535
817.488
874.507
931.381
987.872
1043.71
1098.57
1152.1
1203.68
1252.71
1299.13
1341.71
15958.1
4470.06
1304.58
1251.12
1192.66
1130.09
1064.22
995.843
925.75
854.787
783.881
713.831
645.729
581.468
523.266
473.39
433.858
405.911
389.541
383.24
384.165
390.088
398.858
408.997
419.552
429.977
439.974
449.376
458.09
466.064
473.261
479.658
485.237
489.982
493.883
496.928
499.11
500.425
500.866
500.435
501.43
503.569
504.28
503.575
501.473
498.009
493.231
487.209
480.04
471.86
462.849
453.24
443.326
433.448
423.975
415.259
407.569
401.016
395.501
390.691
386.059
380.965
374.75
366.823
356.707
344.065
328.685
310.462
289.374
265.456
238.78
209.441
177.545
143.205
119.267
134.345
178.164
223.627
270.629
319.069
368.845
419.857
472.001
525.169
579.25
634.124
689.663
745.726
802.162
858.803
915.464
971.938
1027.99
1083.35
1137.7
1190.67
1241.65
1290.03
1335.73
1377.47
15381.3
4859.44
1339.57
1285.25
1225.81
1162.17
1095.17
1025.6
954.276
882.04
809.829
738.457
669.016
603.408
543.87
492.698
451.951
422.903
405.546
398.308
398.419
403.683
411.855
421.408
431.37
441.184
450.546
459.289
467.321
474.587
481.055
486.7
491.507
495.462
498.555
500.777
502.123
502.588
502.17
500.871
502.143
505.7
507.815
508.496
507.76
505.636
502.171
497.432
491.514
484.551
476.723
468.266
459.475
450.697
442.31
434.673
428.065
422.609
418.211
414.541
411.073
407.16
402.138
395.404
386.476
375.004
360.77
343.661
323.649
300.762
275.07
246.662
215.644
182.126
158.914
174.579
218.875
264.737
312.062
360.749
410.699
461.812
513.988
567.123
621.106
675.821
731.143
786.936
843.053
899.328
955.581
1011.61
1067.17
1122.02
1175.82
1228.21
1278.59
1326.32
1371.33
1412.33
14896.2
5285.38
1374.26
1319.16
1258.83
1194.21
1126.16
1055.48
982.974
909.514
836.038
763.373
692.606
625.638
564.724
512.189
470.128
439.863
421.386
413.129
412.497
417.108
424.678
433.652
443.033
452.252
460.999
469.102
476.469
483.045
488.799
493.707
497.755
500.93
503.223
504.629
505.141
504.758
503.48
501.309
502.857
507.834
511.354
513.421
514.049
513.265
511.11
507.65
502.978
497.227
490.578
483.267
475.594
467.911
460.602
454.039
448.51
444.145
440.858
438.322
436.009
433.269
429.429
423.879
416.127
405.816
392.718
376.715
357.772
335.914
311.203
283.729
253.594
220.907
198.464
214.737
259.469
305.686
353.285
402.168
452.237
503.394
555.543
608.581
662.403
716.895
771.937
827.396
883.128
938.976
994.763
1050.29
1105.32
1159.61
1212.83
1264.61
1314.36
1361.44
1405.77
1446.05
14206.6
5887.53
1408.66
1352.86
1291.72
1226.2
1157.17
1085.45
1011.84
937.214
862.518
788.593
716.516
648.177
585.844
531.873
488.399
456.799
437.107
427.83
426.467
430.409
437.37
445.765
454.573
463.212
471.358
478.838
485.557
491.459
496.513
500.697
503.996
506.4
507.901
508.493
508.173
506.941
504.799
501.751
503.573
509.972
514.899
518.353
520.345
520.898
520.051
517.866
514.436
509.893
504.416
498.246
491.684
485.089
478.854
473.359
468.901
465.621
463.437
462.026
460.858
459.278
456.607
452.227
445.636
436.471
424.496
409.586
391.701
370.862
347.127
320.583
291.331
259.479
237.891
254.836
299.959
346.48
394.3
443.319
493.444
544.579
596.631
649.502
703.088
757.283
811.969
867.02
922.297
977.646
1032.89
1087.85
1142.3
1195.97
1248.56
1299.71
1348.81
1395.23
1438.89
1478.48
13329.4
6674.55
1442.68
1386.25
1324.39
1258.07
1188.16
1115.48
1040.85
965.134
889.275
814.133
740.768
671.051
607.263
551.788
506.812
473.787
452.83
442.518
440.348
443.588
449.929
457.75
466.001
474.075
481.64
488.516
494.603
499.848
504.216
507.687
510.247
511.886
512.599
512.379
511.228
509.144
506.132
502.198
504.291
512.116
518.452
523.294
526.65
528.539
528.998
528.086
525.894
522.552
518.242
513.205
507.748
502.234
497.065
492.63
489.236
487.032
485.942
485.645
485.608
485.173
483.653
480.424
474.975
466.935
456.062
442.226
425.382
405.545
382.774
357.151
328.776
297.757
277.168
294.91
340.372
387.142
435.12
484.209
534.317
585.355
637.229
689.847
743.112
796.92
851.161
905.713
960.446
1015.21
1069.84
1124.15
1177.93
1230.92
1282.83
1333.3
1381.72
1427.47
1470.44
1509.35
12231.6
7672.18
1476.16
1419.21
1356.74
1289.73
1219.06
1145.54
1069.99
993.269
916.323
840.024
765.408
694.321
629.052
572.017
525.461
490.921
468.612
457.174
454.104
456.615
462.339
469.603
477.316
484.85
491.857
498.15
503.626
508.228
511.925
514.694
516.523
517.403
517.33
516.299
514.312
511.371
507.481
502.651
505.012
514.267
522.015
528.249
532.97
536.195
537.957
538.315
537.356
535.211
532.062
528.151
523.79
519.35
515.238
511.854
509.514
508.376
508.368
509.17
510.248
510.938
510.548
508.444
504.11
497.168
487.369
474.58
458.749
439.891
418.061
393.34
365.828
335.634
316.269
335.017
380.763
427.717
475.781
524.863
574.872
625.721
677.323
729.59
782.43
835.745
889.431
943.375
997.453
1051.53
1105.43
1159
1212.02
1264.25
1315.4
1365.11
1412.81
1457.85
1500.14
1538.39
10884.7
8918.88
1508.91
1451.55
1388.6
1321.05
1249.76
1175.54
1099.21
1021.61
943.672
866.297
790.487
718.05
651.284
592.632
544.407
508.242
484.466
471.802
467.763
469.515
474.621
481.341
488.54
495.558
502.031
507.762
512.645
516.623
519.66
521.737
522.842
522.966
522.107
520.263
517.436
513.629
508.85
503.111
505.736
516.427
525.593
533.22
539.308
543.87
546.935
548.561
548.832
547.879
545.884
543.093
539.82
536.444
533.38
531.036
529.74
529.654
530.713
532.597
534.769
536.559
537.269
536.258
533.004
527.123
518.361
506.579
491.725
473.811
452.889
429.041
402.368
372.978
355.169
375.245
421.21
468.277
516.348
565.333
615.145
665.702
716.92
768.717
821.008
873.701
926.702
979.904
1033.19
1086.44
1139.49
1192.19
1244.33
1295.69
1345.97
1394.83
1441.73
1486.01
1527.57
1565.16
9265.76
10438.2
1540.62
1482.99
1419.74
1351.83
1280.12
1205.39
1128.45
1050.11
971.324
892.982
816.058
742.308
674.033
613.712
563.723
525.812
500.443
486.446
481.367
482.328
486.81
492.999
499.706
506.232
512.195
517.386
521.695
525.06
527.449
528.841
529.225
528.594
526.947
524.283
520.607
515.924
510.244
503.579
506.463
518.598
529.187
538.212
545.671
551.572
555.942
558.834
560.334
560.569
559.723
558.044
555.852
553.53
551.503
550.189
549.922
550.874
552.982
555.926
559.165
562.025
563.798
563.84
561.621
556.751
548.976
538.15
524.222
507.2
487.139
464.122
438.248
409.63
393.846
415.721
461.835
508.933
556.92
605.706
655.21
705.352
756.055
807.242
858.836
910.754
962.908
1015.2
1067.54
1119.79
1171.83
1223.49
1274.6
1324.93
1374.22
1422.13
1468.11
1511.51
1552.28
1589.15
7352.16
12257.4
1570.79
1513.12
1449.82
1381.81
1309.92
1234.92
1157.59
1078.73
999.261
920.092
842.165
767.163
697.39
635.353
583.506
543.722
516.622
501.175
494.975
495.104
498.955
504.625
510.859
516.918
522.393
527.064
530.814
533.579
535.326
536.036
535.698
534.308
531.865
528.373
523.836
518.262
511.665
504.057
507.195
520.782
532.8
543.232
552.067
559.312
564.991
569.153
571.882
573.304
573.605
573.034
571.914
570.638
569.637
569.339
570.087
572.058
575.193
579.169
583.442
587.33
590.121
591.162
589.919
585.999
579.143
569.206
556.134
539.937
520.671
498.421
473.289
445.393
432.283
456.619
502.808
549.849
597.649
646.121
695.187
744.772
794.806
845.218
895.938
946.894
998.009
1049.2
1100.37
1151.43
1202.24
1252.67
1302.55
1351.68
1399.8
1446.58
1491.51
1533.92
1573.73
1609.71
5154.49
14346.5
1598.7
1541.35
1478.36
1410.6
1338.87
1263.92
1186.49
1107.37
1027.44
947.634
868.846
792.69
721.454
657.673
603.882
562.094
533.121
516.095
508.685
507.935
511.143
516.303
522.084
527.697
532.702
536.867
540.067
542.236
543.341
543.363
542.296
540.135
536.884
532.547
527.132
520.65
513.116
504.545
507.931
522.977
536.435
548.281
558.502
567.1
574.095
579.534
583.496
586.109
587.556
588.089
588.038
587.798
587.813
588.518
590.264
593.235
597.371
602.349
607.617
612.486
616.236
618.21
617.869
614.817
608.794
599.656
587.348
571.885
553.324
531.754
507.284
480.034
470.474
498.176
544.359
591.246
638.747
686.777
735.259
784.125
833.31
882.752
932.391
982.164
1032.01
1081.85
1131.61
1181.21
1230.55
1279.49
1327.91
1375.6
1422.34
1467.82
1511.56
1552.84
1591.57
1626.41
2713.01
16477.9
1623.17
1566.75
1504.6
1437.59
1366.48
1292
1214.88
1135.85
1055.78
975.593
896.158
818.993
746.36
680.83
625.017
581.094
550.088
531.334
522.603
520.913
523.457
528.112
533.458
538.644
543.197
546.867
549.521
551.093
551.548
550.871
549.056
546.105
542.023
536.82
530.504
523.092
514.599
505.044
508.672
525.188
540.097
553.371
564.994
574.962
583.291
590.024
595.237
599.053
601.657
603.302
604.319
605.112
606.133
607.825
610.548
614.49
619.591
625.524
631.731
637.515
642.148
644.968
645.432
643.142
637.84
629.383
617.721
602.87
584.895
563.89
539.971
513.265
508.42
540.711
586.804
633.436
680.513
727.956
775.692
823.656
871.788
920.036
968.349
1016.68
1064.96
1113.16
1161.2
1209.03
1256.55
1303.68
1350.29
1396.23
1441.3
1485.23
1527.59
1567.64
1605.35
1639.41
1668.35
17567.4
1642.59
1588.11
1527.59
1461.97
1392.07
1318.61
1242.29
1163.82
1084.03
1003.82
924.04
846.098
772.214
704.982
647.109
600.942
567.755
547.131
536.974
534.287
536.146
540.297
545.215
549.978
554.077
557.241
559.331
560.279
560.053
558.642
556.044
552.266
547.317
541.212
533.964
525.592
516.114
505.553
509.415
527.407
543.777
558.494
571.537
582.896
592.582
600.63
607.112
612.149
615.921
618.684
620.773
622.599
624.619
627.289
630.975
635.867
641.905
648.754
655.845
662.473
667.902
671.463
672.612
670.953
666.229
658.302
647.129
632.733
615.186
594.592
571.075
544.772
546.143
584.61
630.531
676.801
723.327
770.029
816.84
863.701
910.555
957.357
1004.07
1050.64
1097.05
1143.25
1189.2
1234.85
1280.14
1325.01
1369.37
1413.1
1456.02
1497.93
1538.53
1577.03
1613.63
1647.2
1676.73
18016
1656.62
1604.78
1546.52
1482.93
1414.87
1343.06
1268.17
1190.87
1111.91
1032.19
952.501
874.133
799.23
730.404
670.455
621.926
586.375
563.681
551.932
548.139
549.264
552.898
557.395
561.747
565.397
568.052
569.563
569.861
568.919
566.73
563.302
558.647
552.784
545.732
537.512
528.146
517.659
506.071
510.161
529.64
547.494
563.687
578.193
590.995
602.096
611.522
619.339
625.658
630.655
634.583
637.776
640.65
643.669
647.295
651.902
657.686
664.582
672.252
680.117
687.461
693.542
697.687
699.352
698.143
693.808
686.218
675.336
661.195
643.88
623.503
600.201
575.377
584.97
630.397
676.062
721.86
767.698
813.499
859.196
904.734
950.068
995.155
1039.96
1084.46
1128.63
1172.44
1215.88
1258.91
1301.51
1343.63
1385.23
1426.22
1466.5
1505.89
1544.18
1580.79
1615.53
1648.12
1677.39
16802.5
1663.21
1615.03
1559.78
1498.94
1433.49
1364.14
1291.49
1216.15
1138.79
1060.23
981.238
902.952
827.416
757.248
695.342
644.454
606.466
581.607
568.194
563.261
563.638
566.743
570.789
574.676
577.8
579.85
580.675
580.209
578.435
575.356
570.989
565.359
558.493
550.419
541.164
530.758
519.227
506.595
510.899
531.852
551.188
568.872
584.866
599.144
611.696
622.539
631.724
639.353
645.598
650.706
655.016
658.947
662.973
667.564
673.1
679.773
687.516
695.974
704.556
712.531
719.148
723.73
725.735
724.775
720.608
713.117
702.28
688.145
670.81
650.403
627.076
612.734
633.204
678.535
723.863
769.081
814.098
858.837
903.233
947.235
990.802
1033.9
1076.51
1118.61
1160.18
1201.21
1241.71
1281.66
1321.07
1359.92
1398.19
1435.85
1472.84
1509.08
1544.4
1578.35
1610.78
1641.54
1669.62
13964.2
4316.15
1619.06
1566.31
1508.58
1446.48
1380.52
1311.13
1238.8
1164.05
1087.6
1010.16
932.704
857.107
785.96
722.239
668.928
628.28
600.953
585.582
579.284
578.776
581.286
584.863
588.289
590.894
592.333
592.445
591.17
588.498
584.449
579.056
572.361
564.406
555.233
544.884
533.394
520.798
507.117
511.636
534.089
554.975
574.247
591.864
607.786
621.987
634.462
645.244
654.413
662.12
668.595
674.166
679.243
684.303
689.819
696.18
703.587
711.967
720.961
729.967
738.248
745.054
749.715
751.699
750.633
746.287
738.56
727.445
713.005
695.355
674.639
651.023
650.109
684.606
729.754
774.634
819.138
863.176
906.673
949.57
991.819
1033.38
1074.24
1114.37
1153.76
1192.41
1230.31
1267.48
1303.93
1339.67
1374.71
1409.07
1442.75
1475.75
1508.03
1539.53
1569.92
1599.08
1627.01
1652.93
10670.6
7681.75
1615.21
1565.38
1511.26
1453.18
1391.38
1326.13
1257.74
1186.6
1113.26
1038.38
962.741
887.984
816.629
751.698
696.384
653.335
623.694
606.476
598.913
597.583
599.491
602.488
605.235
607.016
607.486
606.506
604.042
600.111
594.759
588.042
580.021
570.759
560.313
548.736
536.074
522.365
507.631
512.324
536.159
558.494
579.295
598.501
616.051
631.889
645.981
658.33
668.995
678.114
685.918
692.742
699.006
705.16
711.658
718.884
727.037
736.043
745.538