/*--------------------------------*- C++ -*----------------------------------*\
  =========                 |
  \\      /  F ield         | OpenFOAM: The Open Source CFD Toolbox
   \\    /   O peration     | Website:  https://openfoam.org
    \\  /    A nd           | Version:  8
     \\/     M anipulation  |
\*---------------------------------------------------------------------------*/
FoamFile
{
    version     2.0;
    format      ascii;
    class       volScalarField;
    location    "820/fluid";
    object      rho;
}
// * * * * * * * * * * * * * * * * * * * * * * * * * * * * * * * * * * * * * //

dimensions      [1 -3 0 0 0 0 0];

internalField   nonuniform List<scalar> 
4000
(
0.658526
0.658499
0.658454
0.658379
0.658254
0.658046
0.657704
0.657146
0.656244
0.654809
0.652561
0.649111
0.643945
0.636443
0.625938
0.611851
0.593868
0.572112
0.547211
0.520208
0.492331
0.464731
0.438305
0.413626
0.390971
0.370399
0.351827
0.335094
0.320011
0.306382
0.294028
0.282786
0.272517
0.263106
0.254454
0.246464
0.239032
0.232097
0.225607
0.219521
0.2138
0.208414
0.203336
0.198543
0.194016
0.18974
0.185701
0.181887
0.178291
0.174906
0.171726
0.16875
0.165978
0.163413
0.161061
0.158936
0.157055
0.155467
0.154201
0.153263
0.15277
0.152838
0.154257
0.163145
0.173649
0.185987
0.200454
0.217445
0.237475
0.261214
0.289534
0.323561
0.364734
0.415009
0.476756
0.552145
0.642312
0.745641
0.855565
0.960153
1.04638
1.10726
1.14454
1.1648
1.17496
1.1798
1.18204
1.18304
1.18349
1.18368
1.18376
1.1838
1.18381
1.18382
1.18382
1.18382
1.18382
1.18382
1.18382
1.18382
0.658526
0.658499
0.658454
0.658379
0.658253
0.658044
0.6577
0.657139
0.656235
0.654796
0.652549
0.64911
0.643977
0.636545
0.626166
0.612276
0.594556
0.573107
0.548513
0.521769
0.494066
0.466544
0.440108
0.41535
0.392573
0.371857
0.353133
0.336253
0.321032
0.307277
0.29481
0.283467
0.273109
0.263617
0.254894
0.246843
0.239356
0.232373
0.22584
0.219715
0.213959
0.208542
0.203435
0.198617
0.194067
0.18977
0.185712
0.181882
0.178272
0.174873
0.171682
0.168696
0.165915
0.163342
0.160985
0.158854
0.156969
0.155379
0.154112
0.153173
0.152681
0.152756
0.154935
0.163986
0.174686
0.187266
0.202038
0.219417
0.239948
0.264339
0.293514
0.328663
0.371314
0.423546
0.487768
0.566037
0.659082
0.764395
0.874209
0.975952
1.05749
1.11375
1.14775
1.16624
1.17555
1.18003
1.18212
1.18307
1.1835
1.18368
1.18376
1.1838
1.18381
1.18382
1.18382
1.18382
1.18382
1.18382
1.18382
1.18382
0.658526
0.658499
0.658454
0.658378
0.658252
0.658042
0.657697
0.657134
0.656228
0.654788
0.652542
0.649111
0.644004
0.636625
0.626341
0.612597
0.595077
0.573869
0.549531
0.523023
0.495507
0.468104
0.441717
0.416947
0.394112
0.373306
0.354476
0.337482
0.322146
0.30828
0.295708
0.284267
0.273818
0.264243
0.255442
0.247322
0.239773
0.232731
0.226146
0.219971
0.21417
0.208711
0.203566
0.198712
0.19413
0.189803
0.185718
0.181864
0.178231
0.174812
0.171604
0.168602
0.165808
0.163223
0.160856
0.158718
0.156827
0.155236
0.153969
0.153035
0.152554
0.152643
0.156153
0.165429
0.176416
0.189356
0.20458
0.222527
0.243774
0.269069
0.299387
0.335975
0.380437
0.434926
0.501773
0.582756
0.678009
0.784086
0.892351
0.990288
1.06709
1.11926
1.15055
1.16755
1.17613
1.18028
1.18223
1.18312
1.18351
1.18369
1.18377
1.1838
1.18381
1.18382
1.18382
1.18382
1.18382
1.18382
1.18382
1.18382
0.658526
0.658499
0.658454
0.658379
0.658252
0.658043
0.657699
0.657138
0.656236
0.654806
0.652578
0.649181
0.644126
0.636831
0.626667
0.613084
0.59576
0.574767
0.550638
0.524308
0.496917
0.469581
0.443204
0.4184
0.3955
0.374608
0.355682
0.338589
0.323154
0.309195
0.296532
0.285007
0.274479
0.264829
0.255959
0.247776
0.240169
0.233073
0.226436
0.220214
0.214368
0.208867
0.203682
0.198792
0.194175
0.189817
0.185703
0.181822
0.178165
0.174725
0.171497
0.168479
0.16567
0.163074
0.160698
0.158553
0.15666
0.155073
0.153815
0.152892
0.152425
0.152541
0.157692
0.167216
0.178527
0.191876
0.207613
0.226198
0.248238
0.27452
0.306063
0.344167
0.390511
0.447302
0.516761
0.600378
0.697696
0.804371
0.910971
1.00508
1.07716
1.12522
1.1537
1.16908
1.17684
1.1806
1.18236
1.18317
1.18354
1.1837
1.18377
1.1838
1.18381
1.18382
1.18382
1.18382
1.18382
1.18382
1.18382
1.18382
0.658526
0.658499
0.658454
0.658379
0.658254
0.658045
0.657703
0.657146
0.65625
0.65483
0.65262
0.649253
0.644246
0.637023
0.626964
0.613518
0.596361
0.57555
0.551597
0.525416
0.49813
0.470849
0.44448
0.419645
0.396687
0.375722
0.356713
0.339535
0.324017
0.309976
0.297237
0.28564
0.275044
0.265331
0.256401
0.248162
0.240504
0.23336
0.226678
0.220412
0.214526
0.208986
0.203766
0.19884
0.194192
0.189804
0.185662
0.181756
0.178077
0.174616
0.171371
0.168338
0.165518
0.162913
0.160532
0.158385
0.156496
0.154923
0.153676
0.152769
0.152332
0.152503
0.159338
0.169109
0.180753
0.194529
0.210797
0.23004
0.25289
0.280172
0.312944
0.352553
0.40076
0.459792
0.531726
0.617741
0.716762
0.823586
0.928157
1.01838
1.08603
1.13039
1.15642
1.17041
1.17746
1.18088
1.18249
1.18323
1.18356
1.18371
1.18377
1.1838
1.18381
1.18382
1.18382
1.18382
1.18382
1.18382
1.18382
1.18382
0.658526
0.658499
0.658455
0.65838
0.658255
0.658049
0.657709
0.657156
0.656268
0.654861
0.652673
0.649339
0.644383
0.637234
0.627276
0.613957
0.596948
0.576291
0.552482
0.526416
0.499205
0.471955
0.44558
0.420708
0.397693
0.376659
0.357576
0.340323
0.324732
0.310622
0.297817
0.286159
0.275505
0.265738
0.256756
0.248471
0.240769
0.233583
0.226862
0.220559
0.214637
0.209063
0.20381
0.198855
0.194179
0.189765
0.185599
0.181671
0.177972
0.174495
0.171236
0.168193
0.165365
0.162757
0.160376
0.158235
0.156354
0.154798
0.153565
0.152682
0.152272
0.15248
0.160753
0.170821
0.182839
0.197069
0.213885
0.233787
0.257439
0.285696
0.31966
0.360718
0.410715
0.471873
0.546124
0.634325
0.734797
0.841547
0.944023
1.03055
1.09411
1.13513
1.15894
1.17166
1.17805
1.18115
1.18261
1.18328
1.18358
1.18372
1.18378
1.1838
1.18381
1.18382
1.18382
1.18382
1.18382
1.18382
1.18382
1.18382
0.658526
0.6585
0.658455
0.658381
0.658258
0.658053
0.657716
0.657167
0.656287
0.654893
0.652725
0.649422
0.644513
0.637431
0.627561
0.614354
0.597473
0.576948
0.553259
0.527286
0.500134
0.472905
0.446516
0.421607
0.398537
0.37744
0.358291
0.340971
0.325316
0.311146
0.298285
0.286574
0.275871
0.266057
0.257032
0.248706
0.240968
0.233747
0.226991
0.220657
0.214704
0.209102
0.203822
0.198841
0.194141
0.189705
0.185519
0.181573
0.177859
0.174369
0.1711
0.168049
0.165219
0.162614
0.160241
0.158115
0.156256
0.154743
0.153521
0.152697
0.152355
0.152632
0.161533
0.172122
0.184631
0.199371
0.216751
0.237307
0.261734
0.290925
0.326021
0.368458
0.420152
0.483299
0.559682
0.649837
0.751493
0.857936
0.958248
1.04126
1.10113
1.13921
1.1611
1.17273
1.17856
1.18138
1.18271
1.18333
1.1836
1.18373
1.18378
1.1838
1.18381
1.18382
1.18382
1.18382
1.18382
1.18382
1.18382
1.18382
0.658526
0.6585
0.658456
0.658382
0.65826
0.658056
0.657722
0.657179
0.656306
0.654924
0.652775
0.649501
0.644636
0.637614
0.627824
0.614715
0.597944
0.57753
0.553941
0.528042
0.500932
0.473713
0.447307
0.42236
0.39924
0.378085
0.358877
0.341499
0.325788
0.311565
0.298656
0.286899
0.276155
0.266302
0.25724
0.24888
0.24111
0.233859
0.227075
0.220714
0.214735
0.209109
0.203807
0.198805
0.194085
0.18963
0.185428
0.181468
0.177741
0.174242
0.170966
0.167912
0.165082
0.162482
0.16012
0.158014
0.156196
0.154734
0.15359
0.152891
0.152751
0.153365
0.162575
0.173508
0.1864
0.201574
0.219457
0.240607
0.265745
0.295797
0.33194
0.375658
0.428927
0.493908
0.572236
0.664119
0.766728
0.872707
0.970889
1.05066
1.10723
1.14275
1.16298
1.17366
1.17901
1.18159
1.18281
1.18337
1.18362
1.18373
1.18378
1.18381
1.18381
1.18382
1.18382
1.18382
1.18382
1.18382
1.18382
1.18382
0.658526
0.6585
0.658457
0.658384
0.658262
0.65806
0.657728
0.657189
0.656323
0.654953
0.652821
0.649574
0.644747
0.637778
0.628058
0.615033
0.598356
0.578036
0.554528
0.528689
0.50161
0.474396
0.44797
0.422987
0.39982
0.378614
0.359353
0.341924
0.326165
0.311897
0.298946
0.287151
0.276371
0.266485
0.257392
0.249003
0.241207
0.233931
0.227123
0.220739
0.21474
0.209094
0.203773
0.198754
0.194017
0.189548
0.185333
0.181361
0.177624
0.174118
0.170837
0.167781
0.164953
0.162358
0.160007
0.157918
0.156129
0.154701
0.153605
0.152977
0.152945
0.154212
0.163685
0.174905
0.188122
0.203672
0.221999
0.243681
0.269463
0.3003
0.3374
0.382295
0.437009
0.503658
0.583729
0.677118
0.780468
0.885866
0.981988
1.05879
1.11245
1.14575
1.16457
1.17445
1.17938
1.18177
1.18289
1.1834
1.18364
1.18374
1.18379
1.18381
1.18382
1.18382
1.18382
1.18382
1.18382
1.18382
1.18382
1.18382
0.658526
0.6585
0.658457
0.658385
0.658264
0.658063
0.657734
0.657199
0.656339
0.654979
0.652863
0.649639
0.644845
0.637923
0.628263
0.61531
0.598712
0.57847
0.555029
0.529237
0.502182
0.474967
0.448521
0.423505
0.400296
0.379044
0.359737
0.342264
0.326463
0.312157
0.299171
0.287343
0.276532
0.266618
0.2575
0.249087
0.241268
0.233972
0.227144
0.220742
0.214726
0.209063
0.203726
0.198693
0.193944
0.189463
0.185237
0.181256
0.177513
0.174
0.170716
0.167659
0.164831
0.162239
0.159894
0.157812
0.156035
0.154616
0.153527
0.152896
0.152837
0.155166
0.16483
0.176276
0.18976
0.205631
0.224344
0.246495
0.27285
0.30439
0.342352
0.388316
0.444342
0.512495
0.59412
0.688811
0.792726
0.897473
0.991653
1.06579
1.11691
1.1483
1.16592
1.17512
1.1797
1.18191
1.18295
1.18343
1.18365
1.18375
1.18379
1.18381
1.18382
1.18382
1.18382
1.18382
1.18382
1.18382
1.18382
1.18382
0.658526
0.658501
0.658458
0.658386
0.658265
0.658066
0.657739
0.657207
0.656353
0.655001
0.652899
0.649695
0.644931
0.638048
0.628439
0.615548
0.599016
0.578839
0.555453
0.529698
0.50266
0.475441
0.448976
0.423929
0.400682
0.379391
0.360045
0.342533
0.326697
0.312359
0.299342
0.287487
0.276651
0.266714
0.257574
0.249142
0.241304
0.23399
0.227147
0.22073
0.214699
0.209023
0.203674
0.198629
0.19387
0.189379
0.185146
0.181158
0.177409
0.173893
0.170606
0.167548
0.164721
0.162131
0.159788
0.157711
0.155941
0.154528
0.153442
0.152811
0.152747
0.156105
0.165927
0.177565
0.19128
0.207429
0.226482
0.249048
0.275913
0.30808
0.346812
0.393734
0.450934
0.520426
0.603418
0.699221
0.803556
0.907617
0.999999
1.07177
1.12068
1.15045
1.16705
1.17568
1.17997
1.18204
1.18301
1.18346
1.18366
1.18375
1.18379
1.18381
1.18382
1.18382
1.18382
1.18382
1.18382
1.18382
1.18382
1.18382
0.658526
0.658501
0.658458
0.658386
0.658267
0.658069
0.657743
0.657215
0.656365
0.655021
0.652931
0.649744
0.645005
0.638156
0.62859
0.615749
0.599273
0.579149
0.555806
0.530082
0.503055
0.475832
0.449349
0.424273
0.400995
0.379669
0.360289
0.342745
0.326879
0.312513
0.299472
0.287594
0.276737
0.266781
0.257623
0.249174
0.241322
0.233994
0.227138
0.220708
0.214666
0.208979
0.20362
0.198567
0.193799
0.189301
0.185062
0.181069
0.177316
0.173797
0.170509
0.167451
0.164625
0.162038
0.1597
0.157628
0.155863
0.154454
0.153372
0.152743
0.152679
0.156952
0.166917
0.178723
0.19264
0.209035
0.228386
0.251316
0.278628
0.311347
0.350761
0.398537
0.456782
0.527455
0.611639
0.708384
0.81302
0.916401
1.00715
1.07684
1.12385
1.15225
1.16799
1.17615
1.1802
1.18215
1.18306
1.18348
1.18367
1.18376
1.18379
1.18381
1.18382
1.18382
1.18382
1.18382
1.18382
1.18382
1.18382
1.18382
0.658526
0.658501
0.658458
0.658387
0.658268
0.658071
0.657747
0.657221
0.656376
0.655038
0.652957
0.649786
0.645067
0.638246
0.628716
0.615917
0.599486
0.579406
0.556099
0.530397
0.503379
0.47615
0.44965
0.424551
0.401245
0.37989
0.360481
0.342911
0.32702
0.312631
0.299569
0.287672
0.276798
0.266826
0.257654
0.249192
0.241327
0.233988
0.227121
0.220682
0.21463
0.208935
0.203569
0.198508
0.193735
0.189232
0.184988
0.180992
0.177237
0.173716
0.170428
0.167371
0.164547
0.161963
0.159629
0.157561
0.155802
0.154399
0.153321
0.152695
0.15263
0.157683
0.16778
0.179737
0.193833
0.210441
0.23005
0.253297
0.281001
0.314204
0.354216
0.402741
0.461903
0.533604
0.618814
0.716348
0.821194
0.923923
1.01321
1.08111
1.1265
1.15374
1.16878
1.17654
1.18039
1.18223
1.1831
1.1835
1.18368
1.18376
1.18379
1.18381
1.18382
1.18382
1.18382
1.18382
1.18382
1.18382
1.18382
1.18382
0.658526
0.658501
0.658459
0.658388
0.658269
0.658073
0.657751
0.657226
0.656385
0.655052
0.65298
0.64982
0.645119
0.638321
0.62882
0.616056
0.599662
0.579617
0.556338
0.530654
0.503642
0.476407
0.449893
0.424773
0.401443
0.380064
0.360632
0.343039
0.327128
0.31272
0.299641
0.287729
0.276841
0.266856
0.257673
0.2492
0.241326
0.233977
0.227102
0.220655
0.214597
0.208895
0.203523
0.198457
0.193679
0.189173
0.184926
0.180928
0.177171
0.173651
0.170363
0.167308
0.164488
0.161907
0.159576
0.157512
0.155759
0.154361
0.153287
0.152662
0.152594
0.158302
0.168516
0.180607
0.194857
0.211649
0.231482
0.255003
0.283043
0.316664
0.35719
0.406363
0.466312
0.538896
0.62498
0.723169
0.828156
0.930283
1.0183
1.08466
1.1287
1.15498
1.16943
1.17686
1.18054
1.1823
1.18313
1.18351
1.18369
1.18376
1.1838
1.18381
1.18382
1.18382
1.18382
1.18382
1.18382
1.18382
1.18382
1.18382
0.658526
0.658501
0.658459
0.658388
0.65827
0.658074
0.657753
0.657231
0.656392
0.655064
0.652998
0.649848
0.645161
0.638382
0.628905
0.616169
0.599804
0.579787
0.55653
0.53086
0.503851
0.476612
0.450085
0.424948
0.401599
0.3802
0.360748
0.343138
0.32721
0.312787
0.299695
0.28777
0.276872
0.266877
0.257684
0.249203
0.241321
0.233966
0.227084
0.220631
0.214567
0.208861
0.203484
0.198415
0.193633
0.189125
0.184876
0.180877
0.177121
0.173601
0.170315
0.167262
0.164444
0.161867
0.159541
0.157482
0.155734
0.15434
0.153268
0.152642
0.152572
0.158814
0.169133
0.181338
0.195721
0.21267
0.232693
0.256445
0.28477
0.318742
0.359705
0.409426
0.470041
0.543369
0.630182
0.728907
0.833986
0.935577
1.0225
1.08757
1.13049
1.15598
1.16995
1.17712
1.18066
1.18236
1.18316
1.18353
1.18369
1.18376
1.1838
1.18381
1.18382
1.18382
1.18382
1.18382
1.18382
1.18382
1.18382
1.18382
0.658526
0.658501
0.658459
0.658389
0.658271
0.658076
0.657755
0.657234
0.656398
0.655073
0.653013
0.649871
0.645194
0.63843
0.628972
0.616258
0.599917
0.579921
0.556682
0.531022
0.504016
0.476771
0.450234
0.425084
0.401719
0.380304
0.360837
0.343212
0.327271
0.312837
0.299734
0.2878
0.276893
0.26689
0.25769
0.249203
0.241316
0.233955
0.227069
0.220611
0.214544
0.208834
0.203454
0.198382
0.193599
0.189089
0.18484
0.180841
0.177085
0.173567
0.170282
0.167232
0.164417
0.161844
0.159522
0.157467
0.155725
0.154334
0.153264
0.152636
0.152561
0.159232
0.16964
0.181943
0.196437
0.213516
0.233695
0.257637
0.286197
0.320458
0.36178
0.411953
0.473116
0.547055
0.634464
0.733618
0.838754
0.939884
1.02591
1.08992
1.13193
1.15679
1.17037
1.17733
1.18076
1.18241
1.18318
1.18353
1.1837
1.18377
1.1838
1.18381
1.18382
1.18382
1.18382
1.18382
1.18382
1.18382
1.18382
1.18382
0.658526
0.658501
0.658459
0.658389
0.658271
0.658077
0.657757
0.657237
0.656402
0.655081
0.653024
0.649888
0.64522
0.638468
0.629024
0.616326
0.600003
0.580023
0.556797
0.531145
0.504141
0.476892
0.450347
0.425185
0.401809
0.380382
0.360903
0.343267
0.327317
0.312874
0.299763
0.287822
0.276908
0.2669
0.257695
0.249204
0.241312
0.233948
0.227058
0.220598
0.214527
0.208815
0.203434
0.19836
0.193576
0.189066
0.184816
0.180818
0.177063
0.173546
0.170264
0.167216
0.164405
0.161835
0.159518
0.157467
0.155728
0.15434
0.15327
0.152639
0.152556
0.159561
0.170045
0.182428
0.197012
0.214196
0.234498
0.258591
0.287336
0.321827
0.363433
0.413964
0.475561
0.549981
0.637856
0.73734
0.842508
0.943262
1.02857
1.09175
1.13305
1.15741
1.1707
1.17749
1.18084
1.18244
1.1832
1.18354
1.1837
1.18377
1.1838
1.18381
1.18382
1.18382
1.18382
1.18382
1.18382
1.18382
1.18382
1.18382
0.658526
0.658501
0.658459
0.658389
0.658272
0.658077
0.657758
0.657239
0.656406
0.655086
0.653033
0.649901
0.645239
0.638495
0.629061
0.616376
0.600065
0.580098
0.556881
0.531234
0.50423
0.476979
0.450428
0.425258
0.401873
0.380437
0.36095
0.343306
0.327349
0.3129
0.299783
0.287837
0.27692
0.266908
0.2577
0.249205
0.241311
0.233945
0.227053
0.22059
0.214518
0.208805
0.203422
0.198348
0.193563
0.189053
0.184804
0.180806
0.177053
0.173538
0.170258
0.167214
0.164406
0.16184
0.159525
0.157478
0.155741
0.154353
0.153281
0.152645
0.152555
0.159804
0.17035
0.182798
0.197451
0.214714
0.23511
0.259316
0.288199
0.32286
0.364677
0.415474
0.477393
0.55217
0.640387
0.740107
0.845287
0.945753
1.03052
1.09309
1.13388
1.15787
1.17094
1.17761
1.1809
1.18247
1.18321
1.18355
1.1837
1.18377
1.1838
1.18381
1.18382
1.18382
1.18382
1.18382
1.18382
1.18382
1.18382
1.18382
0.658526
0.658501
0.65846
0.658389
0.658272
0.658078
0.657759
0.65724
0.656408
0.655089
0.653038
0.649909
0.645252
0.638512
0.629086
0.616408
0.600106
0.580146
0.556935
0.531291
0.504288
0.477035
0.45048
0.425305
0.401914
0.380473
0.36098
0.343332
0.327369
0.312916
0.299796
0.287848
0.276927
0.266913
0.257703
0.249208
0.241312
0.233944
0.227051
0.220588
0.214515
0.208801
0.203418
0.198343
0.193559
0.189048
0.1848
0.180804
0.177052
0.17354
0.170263
0.167221
0.164415
0.161852
0.159541
0.157495
0.155757
0.154366
0.153284
0.152626
0.152495
0.159964
0.170559
0.183054
0.197757
0.215074
0.235532
0.259813
0.288787
0.323561
0.365518
0.41649
0.47862
0.55363
0.642069
0.741937
0.847116
0.947381
1.03179
1.09397
1.13441
1.15817
1.17109
1.17769
1.18093
1.18249
1.18322
1.18355
1.1837
1.18377
1.1838
1.18381
1.18382
1.18382
1.18382
1.18382
1.18382
1.18382
1.18382
1.18382
0.658526
0.658501
0.65846
0.658389
0.658272
0.658078
0.657759
0.657241
0.656409
0.655091
0.65304
0.649913
0.645257
0.638521
0.629097
0.616424
0.600125
0.580168
0.55696
0.531318
0.504316
0.477061
0.450504
0.425328
0.401934
0.38049
0.360994
0.343344
0.327379
0.312924
0.299803
0.287853
0.276931
0.266916
0.257706
0.249209
0.241314
0.233945
0.227052
0.220588
0.214515
0.208801
0.203418
0.198343
0.193559
0.18905
0.184802
0.180807
0.177056
0.173545
0.17027
0.16723
0.164427
0.161866
0.159557
0.157513
0.155776
0.154385
0.1533
0.152637
0.152495
0.160043
0.170671
0.183193
0.197922
0.215266
0.235755
0.260072
0.289091
0.323918
0.365942
0.416998
0.479227
0.554346
0.642886
0.74282
0.847989
0.948152
1.03239
1.09437
1.13466
1.15831
1.17117
1.17772
1.18095
1.1825
1.18322
1.18355
1.1837
1.18377
1.1838
1.18381
1.18382
1.18382
1.18382
1.18382
1.18382
1.18382
1.18382
1.18382
0.658526
0.658501
0.65846
0.658389
0.658272
0.658078
0.657759
0.657241
0.656409
0.655091
0.65304
0.649913
0.645257
0.638521
0.629097
0.616423
0.600125
0.580168
0.55696
0.531318
0.504316
0.477061
0.450504
0.425328
0.401934
0.38049
0.360994
0.343343
0.327379
0.312924
0.299803
0.287853
0.276931
0.266916
0.257705
0.249209
0.241313
0.233945
0.227052
0.220588
0.214515
0.208801
0.203418
0.198343
0.193559
0.189049
0.184802
0.180807
0.177056
0.173545
0.17027
0.16723
0.164427
0.161866
0.159557
0.157513
0.155776
0.154385
0.1533
0.152637
0.152495
0.160043
0.170671
0.183193
0.197922
0.215266
0.235755
0.260072
0.289091
0.323918
0.365942
0.416997
0.479226
0.554345
0.642885
0.742819
0.847989
0.948152
1.03239
1.09437
1.13466
1.15831
1.17117
1.17772
1.18095
1.1825
1.18322
1.18355
1.1837
1.18377
1.1838
1.18381
1.18382
1.18382
1.18382
1.18382
1.18382
1.18382
1.18382
1.18382
0.658526
0.658501
0.65846
0.658389
0.658272
0.658078
0.657759
0.65724
0.656408
0.655089
0.653038
0.649909
0.645251
0.638512
0.629086
0.616408
0.600105
0.580145
0.556935
0.531291
0.504288
0.477035
0.450479
0.425305
0.401914
0.380472
0.36098
0.343331
0.327369
0.312916
0.299796
0.287847
0.276927
0.266913
0.257703
0.249207
0.241312
0.233944
0.227051
0.220588
0.214515
0.208801
0.203418
0.198343
0.193559
0.189048
0.1848
0.180804
0.177052
0.173539
0.170262
0.16722
0.164415
0.161852
0.15954
0.157495
0.155757
0.154365
0.153283
0.152626
0.152495
0.159963
0.170559
0.183054
0.197757
0.215073
0.235532
0.259813
0.288787
0.323561
0.365517
0.416489
0.478619
0.553629
0.642067
0.741936
0.847114
0.94738
1.03179
1.09397
1.13441
1.15817
1.17109
1.17769
1.18093
1.18249
1.18322
1.18355
1.1837
1.18377
1.1838
1.18381
1.18382
1.18382
1.18382
1.18382
1.18382
1.18382
1.18382
1.18382
0.658526
0.658501
0.658459
0.658389
0.658272
0.658077
0.657758
0.657239
0.656406
0.655086
0.653032
0.649901
0.645239
0.638495
0.629061
0.616376
0.600065
0.580097
0.55688
0.531233
0.50423
0.476978
0.450427
0.425258
0.401872
0.380437
0.360949
0.343306
0.327348
0.312899
0.299783
0.287837
0.276919
0.266907
0.257699
0.249205
0.241311
0.233944
0.227053
0.22059
0.214518
0.208805
0.203422
0.198348
0.193563
0.189052
0.184803
0.180806
0.177052
0.173538
0.170258
0.167213
0.164405
0.161839
0.159525
0.157478
0.155741
0.154353
0.153281
0.152645
0.152554
0.159804
0.17035
0.182797
0.197451
0.214714
0.235109
0.259315
0.288198
0.322859
0.364676
0.415473
0.477391
0.552167
0.640384
0.740104
0.845284
0.94575
1.03052
1.09309
1.13388
1.15787
1.17094
1.17761
1.1809
1.18247
1.18321
1.18355
1.1837
1.18377
1.1838
1.18381
1.18382
1.18382
1.18382
1.18382
1.18382
1.18382
1.18382
1.18382
0.658526
0.658501
0.658459
0.658389
0.658271
0.658077
0.657757
0.657237
0.656402
0.655081
0.653024
0.649888
0.64522
0.638467
0.629023
0.616326
0.600002
0.580023
0.556797
0.531144
0.50414
0.476891
0.450346
0.425185
0.401808
0.380381
0.360902
0.343267
0.327316
0.312873
0.299762
0.287822
0.276908
0.2669
0.257695
0.249204
0.241312
0.233948
0.227058
0.220597
0.214527
0.208815
0.203434
0.19836
0.193576
0.189065
0.184816
0.180817
0.177062
0.173546
0.170264
0.167216
0.164405
0.161835
0.159517
0.157467
0.155728
0.15434
0.15327
0.152639
0.152556
0.159561
0.170044
0.182428
0.197011
0.214195
0.234497
0.25859
0.287335
0.321826
0.363431
0.413962
0.475558
0.549978
0.637853
0.737336
0.842504
0.943259
1.02856
1.09175
1.13305
1.15741
1.1707
1.17749
1.18084
1.18244
1.1832
1.18354
1.1837
1.18377
1.1838
1.18381
1.18382
1.18382
1.18382
1.18382
1.18382
1.18382
1.18382
1.18382
0.658526
0.658501
0.658459
0.658389
0.658271
0.658076
0.657755
0.657234
0.656398
0.655073
0.653013
0.649871
0.645194
0.63843
0.628972
0.616257
0.599916
0.57992
0.556681
0.531021
0.504015
0.47677
0.450233
0.425083
0.401718
0.380303
0.360836
0.343211
0.327271
0.312837
0.299734
0.2878
0.276893
0.26689
0.25769
0.249203
0.241315
0.233955
0.227068
0.220611
0.214543
0.208834
0.203454
0.198382
0.193599
0.189089
0.184839
0.18084
0.177085
0.173566
0.170282
0.167231
0.164417
0.161843
0.159521
0.157467
0.155724
0.154333
0.153263
0.152636
0.152561
0.159232
0.16964
0.181942
0.196436
0.213515
0.233694
0.257636
0.286195
0.320457
0.361778
0.41195
0.473113
0.547051
0.634459
0.733613
0.838749
0.939879
1.0259
1.08992
1.13193
1.15679
1.17037
1.17733
1.18076
1.18241
1.18318
1.18353
1.1837
1.18377
1.1838
1.18381
1.18382
1.18382
1.18382
1.18382
1.18382
1.18382
1.18382
1.18382
0.658526
0.658501
0.658459
0.658388
0.65827
0.658074
0.657753
0.657231
0.656392
0.655064
0.652998
0.649848
0.645161
0.638381
0.628904
0.616168
0.599803
0.579786
0.556529
0.530859
0.50385
0.47661
0.450084
0.424947
0.401598
0.380199
0.360747
0.343137
0.327209
0.312787
0.299694
0.28777
0.276871
0.266876
0.257683
0.249202
0.24132
0.233965
0.227084
0.22063
0.214567
0.20886
0.203484
0.198414
0.193633
0.189124
0.184875
0.180877
0.17712
0.173601
0.170315
0.167262
0.164444
0.161866
0.15954
0.157481
0.155733
0.154339
0.153267
0.152642
0.152571
0.158814
0.169132
0.181337
0.19572
0.212669
0.232691
0.256443
0.284769
0.31874
0.359702
0.409423
0.470037
0.543364
0.630177
0.728901
0.83398
0.935571
1.0225
1.08757
1.13049
1.15598
1.16995
1.17712
1.18066
1.18236
1.18316
1.18353
1.18369
1.18376
1.1838
1.18381
1.18382
1.18382
1.18382
1.18382
1.18382
1.18382
1.18382
1.18382
0.658526
0.658501
0.658459
0.658388
0.658269
0.658073
0.65775
0.657226
0.656385
0.655052
0.65298
0.64982
0.645118
0.63832
0.628819
0.616055
0.599661
0.579616
0.556337
0.530653
0.50364
0.476406
0.449891
0.424772
0.401442
0.380063
0.360631
0.343038
0.327127
0.31272
0.299641
0.287728
0.276841
0.266856
0.257672
0.249199
0.241325
0.233977
0.227102
0.220654
0.214596
0.208895
0.203522
0.198457
0.193678
0.189172
0.184925
0.180927
0.177171
0.17365
0.170363
0.167308
0.164487
0.161906
0.159575
0.157512
0.155759
0.15436
0.153286
0.152661
0.152593
0.158301
0.168516
0.180606
0.194856
0.211648
0.23148
0.255001
0.283042
0.316661
0.357187
0.406359
0.466308
0.538891
0.624973
0.723162
0.828149
0.930277
1.01829
1.08465
1.1287
1.15498
1.16942
1.17686
1.18054
1.1823
1.18313
1.18351
1.18369
1.18376
1.1838
1.18381
1.18382
1.18382
1.18382
1.18382
1.18382
1.18382
1.18382
1.18382
0.658526
0.658501
0.658458
0.658387
0.658268
0.658071
0.657747
0.657221
0.656376
0.655038
0.652957
0.649785
0.645067
0.638245
0.628715
0.615917
0.599485
0.579405
0.556098
0.530396
0.503378
0.476149
0.449649
0.42455
0.401243
0.379889
0.36048
0.34291
0.327019
0.31263
0.299568
0.287671
0.276798
0.266825
0.257653
0.249191
0.241326
0.233987
0.227121
0.220681
0.21463
0.208935
0.203568
0.198508
0.193734
0.189231
0.184987
0.180991
0.177236
0.173716
0.170427
0.16737
0.164546
0.161962
0.159628
0.15756
0.155801
0.154398
0.15332
0.152694
0.152628
0.157683
0.167779
0.179736
0.193832
0.210439
0.230048
0.253295
0.280999
0.314202
0.354213
0.402737
0.461898
0.533598
0.618807
0.71634
0.821186
0.923916
1.01321
1.0811
1.1265
1.15374
1.16878
1.17654
1.18039
1.18223
1.1831
1.1835
1.18368
1.18376
1.18379
1.18381
1.18382
1.18382
1.18382
1.18382
1.18382
1.18382
1.18382
1.18382
0.658526
0.658501
0.658458
0.658386
0.658267
0.658069
0.657743
0.657215
0.656365
0.655021
0.652931
0.649744
0.645004
0.638155
0.628589
0.615748
0.599272
0.579147
0.555805
0.53008
0.503053
0.47583
0.449347
0.424272
0.400993
0.379668
0.360287
0.342744
0.326878
0.312512
0.299471
0.287593
0.276736
0.26678
0.257622
0.249173
0.241321
0.233993
0.227137
0.220707
0.214665
0.208978
0.20362
0.198566
0.193798
0.189301
0.185061
0.181068
0.177316
0.173797
0.170508
0.16745
0.164624
0.162037
0.159699
0.157627
0.155862
0.154453
0.153371
0.152742
0.152678
0.156951
0.166916
0.178722
0.19264
0.209034
0.228384
0.251314
0.278626
0.311346
0.350759
0.398533
0.456777
0.527449
0.611632
0.708375
0.813012
0.916394
1.00714
1.07684
1.12385
1.15225
1.16799
1.17615
1.1802
1.18215
1.18306
1.18348
1.18367
1.18376
1.18379
1.18381
1.18382
1.18382
1.18382
1.18382
1.18382
1.18382
1.18382
1.18382
0.658526
0.658501
0.658458
0.658386
0.658265
0.658066
0.657739
0.657207
0.656353
0.655001
0.652899
0.649695
0.644931
0.638048
0.628439
0.615547
0.599015
0.578838
0.555451
0.529696
0.502658
0.475439
0.448974
0.423927
0.400681
0.379389
0.360043
0.342532
0.326696
0.312357
0.299341
0.287486
0.27665
0.266713
0.257573
0.249141
0.241303
0.233989
0.227146
0.220729
0.214698
0.209022
0.203673
0.198629
0.193869
0.189379
0.185145
0.181157
0.177408
0.173892
0.170605
0.167547
0.16472
0.16213
0.159787
0.15771
0.15594
0.154527
0.15344
0.152809
0.152746
0.156104
0.165926
0.177563
0.191277
0.207426
0.226478
0.249043
0.275907
0.308073
0.346806
0.393728
0.450928
0.520419
0.60341
0.699212
0.803547
0.907609
0.999992
1.07177
1.12068
1.15045
1.16705
1.17568
1.17997
1.18204
1.18301
1.18346
1.18366
1.18375
1.18379
1.18381
1.18382
1.18382
1.18382
1.18382
1.18382
1.18382
1.18382
1.18382
0.658526
0.6585
0.658457
0.658385
0.658264
0.658063
0.657734
0.657199
0.656339
0.654978
0.652862
0.649638
0.644845
0.637922
0.628262
0.615309
0.598711
0.578469
0.555027
0.529235
0.50218
0.474965
0.448519
0.423503
0.400294
0.379042
0.359735
0.342262
0.326462
0.312156
0.299169
0.287342
0.276531
0.266617
0.257499
0.249086
0.241267
0.233971
0.227144
0.220741
0.214725
0.209062
0.203726
0.198692
0.193943
0.189462
0.185236
0.181256
0.177512
0.173999
0.170715
0.167658
0.16483
0.162238
0.159893
0.157811
0.156034
0.154615
0.153526
0.152895
0.152836
0.155165
0.16483
0.176276
0.189761
0.205632
0.224346
0.246498
0.272853
0.304392
0.342353
0.388315
0.444339
0.512489
0.594112
0.688802
0.792717
0.897464
0.991646
1.06579
1.1169
1.1483
1.16592
1.17512
1.1797
1.18191
1.18295
1.18343
1.18365
1.18375
1.18379
1.18381
1.18382
1.18382
1.18382
1.18382
1.18382
1.18382
1.18382
1.18382
0.658526
0.6585
0.658457
0.658384
0.658262
0.65806
0.657728
0.657189
0.656323
0.654952
0.652821
0.649574
0.644746
0.637778
0.628057
0.615032
0.598354
0.578034
0.554526
0.528686
0.501608
0.474393
0.447968
0.422985
0.399818
0.378612
0.359351
0.341922
0.326163
0.311896
0.298945
0.28715
0.27637
0.266484
0.257391
0.249002
0.241206
0.23393
0.227122
0.220738
0.214739
0.209093
0.203772
0.198753
0.194016
0.189547
0.185332
0.18136
0.177624
0.174117
0.170836
0.16778
0.164952
0.162357
0.160006
0.157917
0.156128
0.1547
0.153604
0.152976
0.152944
0.15421
0.163683
0.174903
0.188119
0.203668
0.221994
0.243674
0.269455
0.30029
0.337389
0.382284
0.436999
0.503651
0.583722
0.677109
0.780459
0.885857
0.98198
1.05879
1.11245
1.14575
1.16457
1.17445
1.17938
1.18177
1.18289
1.1834
1.18364
1.18374
1.18379
1.18381
1.18382
1.18382
1.18382
1.18382
1.18382
1.18382
1.18382
1.18382
0.658526
0.6585
0.658456
0.658382
0.65826
0.658056
0.657722
0.657178
0.656305
0.654924
0.652775
0.649501
0.644636
0.637613
0.627824
0.614714
0.597942
0.577528
0.553938
0.528039
0.500929
0.47371
0.447305
0.422358
0.399238
0.378083
0.358875
0.341497
0.325786
0.311564
0.298655
0.286898
0.276153
0.266301
0.257239
0.248879
0.241109
0.233858
0.227074
0.220713
0.214735
0.209108
0.203806
0.198804
0.194084
0.18963
0.185428
0.181467
0.17774
0.174241
0.170965
0.167911
0.165081
0.162481
0.16012
0.158013
0.156195
0.154734
0.153589
0.15289
0.15275
0.153364
0.162574
0.173508
0.1864
0.201574
0.219457
0.240607
0.265745
0.295798
0.331941
0.375658
0.428926
0.493904
0.572228
0.66411
0.766718
0.872698
0.970881
1.05065
1.10722
1.14274
1.16298
1.17366
1.17901
1.18159
1.18281
1.18337
1.18362
1.18373
1.18378
1.18381
1.18381
1.18382
1.18382
1.18382
1.18382
1.18382
1.18382
1.18382
0.658526
0.6585
0.658455
0.658381
0.658258
0.658052
0.657715
0.657167
0.656287
0.654893
0.652724
0.649421
0.644513
0.63743
0.62756
0.614353
0.597471
0.576946
0.553257
0.527284
0.500131
0.472902
0.446513
0.421604
0.398535
0.377438
0.358289
0.340969
0.325314
0.311144
0.298284
0.286572
0.27587
0.266056
0.257031
0.248705
0.240966
0.233746
0.22699
0.220656
0.214703
0.209101
0.203821
0.19884
0.19414
0.189704
0.185518
0.181573
0.177858
0.174368
0.171099
0.168049
0.165219
0.162613
0.16024
0.158115
0.156255
0.154743
0.15352
0.152696
0.152354
0.152631
0.161532
0.172121
0.18463
0.199369
0.216749
0.237305
0.261731
0.290921
0.326015
0.36845
0.420141
0.483287
0.559672