/*--------------------------------*- C++ -*----------------------------------*\
  =========                 |
  \\      /  F ield         | OpenFOAM: The Open Source CFD Toolbox
   \\    /   O peration     | Website:  https://openfoam.org
    \\  /    A nd           | Version:  8
     \\/     M anipulation  |
\*---------------------------------------------------------------------------*/
FoamFile
{
    version     2.0;
    format      ascii;
    class       volScalarField;
    location    "820/fluid";
    object      T;
}
// * * * * * * * * * * * * * * * * * * * * * * * * * * * * * * * * * * * * * //

dimensions      [0 0 0 1 0 0 0];

internalField   nonuniform List<scalar> 
4000
(
293.004
293.017
293.039
293.076
293.138
293.241
293.411
293.688
294.136
294.853
295.983
297.734
300.395
304.348
310.064
318.08
328.951
343.163
361.058
382.771
408.221
437.146
469.172
503.892
540.917
579.913
620.61
662.801
706.328
751.07
796.926
843.807
891.616
940.25
989.585
1039.56
1090.19
1141.39
1193.06
1245.1
1297.4
1349.85
1402.34
1454.74
1506.95
1558.83
1610.25
1661.07
1711.15
1760.33
1808.43
1855.27
1900.62
1944.22
1985.77
2024.88
2061.09
2093.33
2121
2144.15
2160.67
2168.7
2157
2047.04
1930.05
1808.16
1683.13
1556.45
1429.41
1303.16
1178.82
1057.48
940.285
828.132
722.274
624.732
537.836
463.882
404.679
360.857
331.28
313.158
303.007
297.761
295.2
293.994
293.44
293.192
293.083
293.035
293.015
293.006
293.003
293.001
293
293
293
293
293
293
293.004
293.017
293.039
293.077
293.139
293.242
293.412
293.691
294.141
294.859
295.989
297.734
300.379
304.294
309.937
317.833
328.521
342.485
360.074
381.443
406.535
435.116
466.833
501.292
538.112
576.956
617.552
659.687
703.197
747.956
793.86
840.816
888.726
937.483
986.964
1037.09
1087.89
1139.28
1191.15
1243.39
1295.91
1348.58
1401.29
1453.93
1506.36
1558.47
1610.12
1661.16
1711.46
1760.84
1809.14
1856.16
1901.69
1945.45
1987.15
2026.41
2062.73
2095.05
2122.77
2145.98
2162.5
2170.44
2148.15
2037.12
1919.15
1796.35
1670.46
1542.95
1415.13
1288.17
1163.22
1041.4
923.913
811.688
706.171
609.56
524.273
452.586
396.104
355.049
327.817
311.343
302.162
297.397
295.052
293.936
293.419
293.184
293.08
293.034
293.015
293.006
293.003
293.001
293
293
293
293
293
293
293.004
293.017
293.039
293.077
293.139
293.243
293.414
293.693
294.144
294.863
295.992
297.733
300.365
304.251
309.84
317.646
328.196
341.969
359.31
380.383
405.147
433.385
464.765
498.909
535.446
574.047
614.443
656.42
699.814
744.499
790.368
837.328
885.281
934.119
983.718
1033.99
1084.96
1136.55
1188.65
1241.15
1293.93
1346.9
1399.92
1452.87
1505.64
1558.09
1610.07
1661.45
1712.08
1761.79
1810.4
1857.72
1903.53
1947.56
1989.5
2028.96
2065.46
2097.88
2125.66
2148.85
2165.23
2172.97
2132.34
2020.28
1901.23
1777.37
1650.49
1522.12
1393.59
1266.12
1140.92
1019.19
902.135
790.758
686.701
592.251
509.763
441.303
388.102
349.939
324.885
309.818
301.431
297.064
294.906
293.874
293.393
293.174
293.076
293.033
293.014
293.006
293.002
293.001
293
293
293
293
293
293
293.004
293.017
293.039
293.077
293.139
293.243
293.413
293.691
294.14
294.854
295.974
297.698
300.301
304.141
309.66
317.362
327.772
341.361
358.482
379.303
403.797
431.759
462.87
496.761
533.066
571.461
611.678
653.506
696.781
741.377
787.191
834.129
882.096
930.986
980.675
1031.06
1082.19
1133.96
1186.28
1239.03
1292.09
1345.36
1398.71
1452.01
1505.14
1557.96
1610.32
1662.07
1713.08
1763.15
1812.12
1859.78
1905.9
1950.22
1992.41
2032.09
2068.75
2101.18
2128.9
2151.98
2168.2
2175.57
2112.69
1999.79
1879.8
1755.01
1627.29
1498.24
1369.26
1241.63
1116.59
995.396
879.243
769.186
667.019
575.039
495.498
430.253
380.219
344.816
321.862
308.184
300.613
296.676
294.729
293.796
293.359
293.16
293.07
293.03
293.013
293.005
293.002
293.001
293
293
293
293
293
293
293.004
293.017
293.039
293.076
293.139
293.242
293.411
293.688
294.133
294.842
295.953
297.661
300.239
304.038
309.496
317.11
327.399
340.834
357.768
378.377
402.643
430.374
461.259
494.937
531.048
569.27
609.337
651.037
694.21
738.73
784.495
831.413
879.391
928.325
978.093
1028.59
1079.85
1131.8
1184.32
1237.3
1290.63
1344.18
1397.85
1451.49
1504.98
1558.16
1610.89
1663.02
1714.4
1764.84
1814.15
1862.14
1908.55
1953.13
1995.53
2035.37
2072.09
2104.37
2132.01
2154.95
2170.78
2177.29
2092.06
1978.56
1857.73
1732.07
1603.62
1474.04
1344.8
1217.22
1092.58
972.168
857.118
748.573
648.459
559.03
482.424
420.284
373.222
340.338
319.249
306.781
299.91
296.341
294.575
293.727
293.329
293.146
293.064
293.028
293.012
293.005
293.002
293.001
293
293
293
293
293
293
293.004
293.017
293.039
293.076
293.138
293.24
293.408
293.682
294.124
294.827
295.926
297.617
300.168
303.926
309.324
316.856
327.036
340.336
357.112
377.546
401.627
429.172
459.879
493.391
529.351
567.44
607.392
648.997
692.094
736.56
782.293
829.203
877.199
926.18
976.025
1026.63
1078.02
1130.12
1182.83
1236.04
1289.61
1343.45
1397.41
1451.36
1505.17
1558.69
1611.77
1664.25
1715.96
1766.73
1816.35
1864.61
1911.27
1956.03
1998.56
2038.43
2075.14
2107.28
2134.8
2157.46
2172.91
2178.83
2074.8
1959.83
1837.56
1710.69
1581.33
1451.18
1321.71
1194.26
1070.11
950.567
836.668
729.662
631.552
544.549
470.676
411.375
366.987
336.343
316.902
305.506
299.26
296.027
294.428
293.66
293.299
293.133
293.059
293.025
293.011
293.005
293.002
293.001
293
293
293
293
293
293
293.004
293.017
293.039
293.075
293.137
293.238
293.405
293.677
294.115
294.811
295.9
297.575
300.1
303.822
309.166
316.626
326.712
339.896
356.538
376.825
400.753
428.147
458.711
492.092
527.935
565.923
605.791
647.328
690.375
734.807
780.526
827.444
875.47
924.504
974.428
1025.13
1076.65
1128.9
1181.79
1235.2
1289
1343.09
1397.32
1451.55
1505.66
1559.49
1612.88
1665.67
1717.68
1768.73
1818.61
1867.09
1913.91
1958.76
2001.29
2041.07
2077.56
2109.06
2136.74
2158.53
2172.98
2177.84
2065.87
1946.03
1820.67
1691.81
1561.2
1430.35
1300.62
1173.31
1049.66
930.944
818.139
712.614
616.407
531.665
460.298
403.568
361.57
332.9
314.893
304.417
298.705
295.758
294.301
293.602
293.273
293.122
293.054
293.023
293.01
293.004
293.002
293.001
293
293
293
293
293
293
293.004
293.017
293.038
293.075
293.136
293.236
293.402
293.671
294.106
294.795
295.875
297.534
300.037
303.724
309.021
316.417
326.422
339.507
356.036
376.201
400.005
427.278
457.729
491.009
526.764
564.678
604.486
645.978
688.995
733.413
779.133
826.07
874.134
923.228
973.232
1024.04
1075.67
1128.07
1181.13
1234.72
1288.74
1343.04
1397.51
1452
1506.37
1560.47
1614.13
1667.19
1719.46
1770.75
1820.84
1869.49
1916.43
1961.35
2003.85
2043.47
2079.43
2110.27
2136.9
2156.91
2168.46
2168.52
2053.64
1931.42
1804.24
1674.09
1542.64
1411.34
1281.52
1154.43
1031.32
913.41
801.654
697.499
603.026
520.331
451.22
396.781
356.89
329.938
313.167
303.48
298.225
295.524
294.191
293.551
293.25
293.112
293.049
293.021
293.009
293.004
293.002
293.001
293
293
293
293
293
293
293.004
293.017
293.038
293.074
293.135
293.234
293.399
293.666
294.097
294.781
295.851
297.498
299.979
303.637
308.893
316.233
326.168
339.171
355.605
375.669
399.372
426.548
456.91
490.111
525.801
563.663
603.43
644.895
687.897
732.314
778.048
825.013
873.122
922.278
972.363
1023.26
1075.02
1127.55
1180.75
1234.52
1288.72
1343.22
1397.9
1452.62
1507.22
1561.55
1615.45
1668.74
1721.23
1772.72
1822.98
1871.77
1918.81
1963.76
2006.21
2045.67
2081.27
2111.68
2137.64
2156.64
2166.65
2157.54
2040.59
1916.8
1788.48
1657.52
1525.57
1394.06
1264.29
1137.5
1014.94
897.793
787.014
684.137
591.254
510.415
443.329
390.924
352.878
327.416
311.703
302.688
297.82
295.326
294.097
293.507
293.23
293.103
293.045
293.02
293.008
293.004
293.002
293.001
293
293
293
293
293
293
293.004
293.016
293.038
293.074
293.134
293.233
293.396
293.661
294.089
294.768
295.831
297.464
299.928
303.56
308.78
316.073
325.949
338.882
355.238
375.219
398.84
425.938
456.231
489.374
525.015
562.84
602.582
644.033
687.032
731.458
777.213
824.212
872.369
921.588
971.751
1022.75
1074.61
1127.26
1180.6
1234.52
1288.88
1343.56
1398.43
1453.34
1508.14
1562.68
1616.78
1670.26
1722.93
1774.59
1825
1873.92
1921.04
1966.04
2008.51
2047.95
2083.4
2113.7
2139.6
2158.64
2169.01
2145.11
2027.2
1902.63
1773.7
1642.34
1510.17
1378.62
1249
1122.56
1000.55
884.111
774.218
672.488
581.023
501.826
436.52
385.898
349.458
325.276
310.466
302.019
297.478
295.159
294.018
293.47
293.214
293.096
293.042
293.018
293.008
293.003
293.001
293.001
293
293
293
293
293
293
293.004
293.016
293.038
293.073
293.133
293.231
293.393
293.657
294.082
294.757
295.812
297.436
299.884
303.493
308.683
315.937
325.763
338.637
354.928
374.842
398.397
425.434
455.673
488.771
524.378
562.178
601.906
643.352
686.357
730.797
776.578
823.614
871.819
921.098
971.335
1022.41
1074.37
1127.14
1180.6
1234.65
1289.16
1343.99
1399.02
1454.1
1509.08
1563.78
1618.05
1671.69
1724.52
1776.32
1826.85
1875.87
1923.07
1968.13
2010.62
2050.05
2085.45
2115.7
2141.57
2160.62
2171.03
2132.92
2014.47
1889.44
1760.18
1628.61
1496.36
1364.88
1235.47
1109.4
987.909
872.133
763.055
662.361
572.159
494.419
430.681
381.611
346.557
323.472
309.426
301.458
297.191
295.018
293.951
293.439
293.2
293.089
293.039
293.017
293.007
293.003
293.001
293.001
293
293
293
293
293
293
293.004
293.016
293.037
293.073
293.132
293.23
293.391
293.653
294.076
294.747
295.796
297.411
299.845
303.436
308.601
315.821
325.606
338.432
354.67
374.529
398.031
425.02
455.218
488.283
523.866
561.65
601.371
642.819
685.833
730.292
776.101
823.174
871.426
920.762
971.067
1022.23
1074.27
1127.13
1180.71
1234.87
1289.5
1344.47
1399.64
1454.86
1509.97
1564.82
1619.23
1673
1725.95
1777.86
1828.49
1877.59
1924.85
1969.93
2012.43
2051.83
2087.19
2117.4
2143.22
2162.23
2172.64
2122.05
2003.12
1877.75
1748.25
1616.55
1484.28
1352.91
1223.73
1098.01
977.003
861.797
753.42
653.636
564.545
488.077
425.704
377.977
344.111
321.957
308.557
300.99
296.951
294.901
293.895
293.414
293.188
293.084
293.037
293.016
293.007
293.003
293.001
293.001
293
293
293
293
293
293
293.004
293.016
293.037
293.073
293.131
293.229
293.389
293.65
294.071
294.738
295.783
297.39
299.813
303.389
308.532
315.724
325.475
338.261
354.457
374.272
397.731
424.683
454.849
487.89
523.456
561.232
600.951
642.404
685.431
729.91
775.746
822.854
871.15
920.538
970.903
1022.13
1074.25
1127.2
1180.86
1235.13
1289.87
1344.95
1400.23
1455.57
1510.8
1565.77
1620.28
1674.16
1727.21
1779.2
1829.9
1879.05
1926.34
1971.43
2013.92
2053.31
2088.61
2118.76
2144.53
2163.5
2173.91
2112.75
1993.32
1867.61
1737.91
1606.13
1473.89
1342.63
1213.66
1088.25
967.655
852.945
745.181
646.19
558.062
482.696
421.497
374.92
342.063
320.693
307.834
300.602
296.753
294.804
293.849
293.392
293.178
293.08
293.035
293.015
293.007
293.003
293.001
293
293
293
293
293
293
293
293.004
293.016
293.037
293.072
293.131
293.228
293.388
293.648
294.066
294.731
295.771
297.372
299.787
303.349
308.474
315.644
325.368
338.122
354.283
374.063
397.489
424.411
454.554
487.577
523.132
560.903
600.623
642.084
685.124
729.623
775.484
822.625
870.96
920.394
970.812
1022.1
1074.28
1127.31
1181.05
1235.4
1290.22
1345.39
1400.77
1456.2
1511.53
1566.59
1621.19
1675.15
1728.27
1780.32
1831.07
1880.24
1927.53
1972.63
2015.11
2054.47
2089.7
2119.79
2145.51
2164.46
2174.87
2104.95
1985.04
1859.02
1729.14
1597.29
1465.06
1333.9
1205.12
1079.98
959.746
845.464
738.229
639.915
552.609
478.18
417.979
372.372
340.364
319.649
307.238
300.282
296.59
294.724
293.811
293.374
293.17
293.076
293.033
293.015
293.006
293.003
293.001
293
293
293
293
293
293
293
293.004
293.016
293.037
293.072
293.13
293.227
293.386
293.645
294.063
294.725
295.762
297.358
299.765
303.317
308.428
315.58
325.281
338.01
354.143
373.896
397.296
424.196
454.321
487.331
522.879
560.647
600.371
641.839
684.893
729.409
775.294
822.462
870.831
920.304
970.766
1022.1
1074.34
1127.42
1181.23
1235.64
1290.54
1345.79
1401.24
1456.75
1512.15
1567.27
1621.94
1675.96
1729.13
1781.21
1831.97
1881.16
1928.47
1973.56
2016
2055.32
2090.48
2120.52
2146.2
2165.15
2175.57
2098.54
1978.16
1851.85
1721.81
1589.88
1457.68
1326.61
1197.99
1073.08
953.159
839.238
732.45
634.706
548.089
474.445
415.077
370.278
338.973
318.797
306.753
300.022
296.457
294.659
293.78
293.36
293.163
293.073
293.032
293.014
293.006
293.003
293.001
293
293
293
293
293
293
293
293.004
293.016
293.037
293.072
293.13
293.227
293.385
293.644
294.06
294.721
295.755
297.346
299.747
303.291
308.391
315.528
325.212
337.921
354.033
373.765
397.145
424.028
454.14
487.141
522.684
560.452
600.179
641.655
684.72
729.252
775.156
822.348
870.744
920.248
970.745
1022.12
1074.4
1127.53
1181.39
1235.86
1290.81
1346.11
1401.62
1457.18
1512.64
1567.81
1622.53
1676.58
1729.77
1781.88
1832.66
1881.85
1929.15
1974.2
2016.6
2055.87
2090.97
2120.95
2146.61
2165.58
2176.03
2093.33
1972.53
1845.96
1715.77
1583.8
1451.62
1320.63
1192.16
1067.46
947.791
834.168
727.75
630.476
544.424
471.423
412.733
368.592
337.854
318.114
306.365
299.815
296.352
294.608
293.755
293.349
293.158
293.071
293.031
293.014
293.006
293.002
293.001
293
293
293
293
293
293
293
293.004
293.016
293.037
293.072
293.13
293.226
293.384
293.642
294.057
294.717
295.749
297.337
299.734
303.271
308.363
315.489
325.16
337.854
353.949
373.665
397.031
423.901
454.003
486.998
522.538
560.307
600.037
641.52
684.594
729.139
775.057
822.267
870.684
920.212
970.736
1022.14
1074.46
1127.62
1181.51
1236.02
1291.01
1346.36
1401.9
1457.51
1513
1568.2
1622.94
1677.02
1730.23
1782.35
1833.13
1882.3
1929.57
1974.58
2016.94
2056.16
2091.2
2121.15
2146.8
2165.81
2176.34
2089.26
1968.06
1841.26
1710.96
1578.95
1446.79
1315.89
1187.54
1063.01
943.556
830.177
724.057
627.157
541.555
469.061
410.907
367.279
336.986
317.583
306.064
299.653
296.269
294.568
293.736
293.34
293.154
293.069
293.03
293.013
293.006
293.002
293.001
293
293
293
293
293
293
293
293.004
293.016
293.037
293.072
293.13
293.226
293.384
293.641
294.056
294.714
295.745
297.331
299.724
303.257
308.342
315.461
325.122
337.805
353.889
373.593
396.948
423.81
453.905
486.896
522.435
560.204
599.937
641.425
684.506
729.059
774.989
822.212
870.644
920.188
970.73
1022.15
1074.49
1127.68
1181.6
1236.13
1291.15
1346.52
1402.09
1457.72
1513.23
1568.46
1623.21
1677.3
1730.51
1782.62
1833.38
1882.53
1929.77
1974.74
2017.06
2056.23
2091.24
2121.17
2146.84
2165.91
2176.54
2086.26
1964.7
1837.69
1707.29
1575.26
1443.14
1312.31
1184.07
1059.68
940.393
827.204
721.313
624.698
539.434
467.321
409.565
366.318
336.35
317.195
305.843
299.535
296.209
294.538
293.722
293.333
293.151
293.068
293.03
293.013
293.006
293.002
293.001
293
293
293
293
293
293
293
293.004
293.016
293.037
293.071
293.129
293.226
293.384
293.641
294.055
294.713
295.742
297.327
299.718
303.247
308.329
315.442
325.097
337.773
353.849
373.546
396.895
423.751
453.842
486.831
522.368
560.138
599.873
641.364
684.45
729.009
774.946
822.177
870.617
920.172
970.724
1022.16
1074.51
1127.71
1181.64
1236.19
1291.22
1346.61
1402.2
1457.84
1513.36
1568.59
1623.35
1677.44
1730.64
1782.73
1833.47
1882.59
1929.79
1974.73
2017.01
2056.15
2091.17
2121.15
2146.95
2166.32
2177.5
2084.3
1962.4
1835.21
1704.74
1572.71
1440.62
1309.86
1181.71
1057.43
938.267
825.216
719.486
623.067
538.034
466.177
408.686
365.692
335.938
316.943
305.699
299.458
296.17
294.519
293.713
293.329
293.149
293.067
293.029
293.013
293.006
293.002
293.001
293
293
293
293
293
293
293
293.004
293.016
293.037
293.071
293.129
293.225
293.383
293.64
294.054
294.712
295.741
297.325
299.715
303.243
308.323
315.433
325.085
337.758
353.831
373.524
396.87
423.723
453.813
486.8
522.337
560.106
599.843
641.335
684.423
728.985
774.925
822.16
870.604
920.164
970.721
1022.16
1074.51
1127.72
1181.66
1236.21
1291.25
1346.64
1402.23
1457.88
1513.4
1568.63
1623.39
1677.47
1730.66
1782.74
1833.46
1882.55
1929.72
1974.63
2016.87
2055.98
2090.99
2120.95
2146.78
2166.24
2177.56
2083.32
1961.17
1833.87
1703.36
1571.34
1439.3
1308.59
1180.5
1056.28
937.198
824.226
718.587
622.272
537.356
465.627
408.268
365.396
335.745
316.826
305.633
299.422
296.151
294.51
293.709
293.327
293.148
293.066
293.029
293.013
293.005
293.002
293.001
293
293
293
293
293
293
293
293.004
293.016
293.037
293.071
293.129
293.225
293.383
293.64
294.054
294.712
295.741
297.325
299.715
303.243
308.323
315.433
325.085
337.758
353.831
373.525
396.87
423.723
453.813
486.8
522.337
560.106
599.843
641.335
684.423
728.985
774.925
822.16
870.605
920.164
970.721
1022.16
1074.51
1127.72
1181.66
1236.21
1291.25
1346.64
1402.23
1457.88
1513.4
1568.63
1623.39
1677.47
1730.66
1782.74
1833.46
1882.55
1929.72
1974.63
2016.87
2055.98
2090.99
2120.95
2146.78
2166.24
2177.56
2083.32
1961.17
1833.87
1703.37
1571.34
1439.3
1308.59
1180.5
1056.28
937.198
824.226
718.587
622.272
537.357
465.628
408.269
365.397
335.745
316.827
305.633
299.422
296.151
294.51
293.709
293.327
293.148
293.066
293.029
293.013
293.005
293.002
293.001
293
293
293
293
293
293
293
293.004
293.016
293.037
293.071
293.129
293.226
293.384
293.641
294.055
294.713
295.742
297.327
299.718
303.247
308.329
315.442
325.097
337.773
353.85
373.547
396.895
423.751
453.843
486.831
522.369
560.138
599.874
641.364
684.45
729.009
774.946
822.177
870.618
920.172
970.725
1022.16
1074.51
1127.71
1181.64
1236.19
1291.22
1346.61
1402.2
1457.84
1513.36
1568.59
1623.35
1677.44
1730.64
1782.73
1833.47
1882.59
1929.79
1974.73
2017.01
2056.15
2091.18
2121.15
2146.95
2166.32
2177.51
2084.3
1962.4
1835.21
1704.74
1572.71
1440.63
1309.86
1181.71
1057.43
938.269
825.217
719.488
623.069
538.035
466.178
408.687
365.693
335.938
316.944
305.699
299.458
296.17
294.519
293.713
293.329
293.149
293.067
293.029
293.013
293.006
293.002
293.001
293
293
293
293
293
293
293
293.004
293.016
293.037
293.072
293.13
293.226
293.384
293.641
294.056
294.714
295.745
297.331
299.724
303.257
308.342
315.461
325.122
337.805
353.889
373.593
396.949
423.81
453.906
486.897
522.435
560.204
599.938
641.426
684.507
729.06
774.99
822.213
870.645
920.189
970.731
1022.15
1074.49
1127.68
1181.6
1236.13
1291.15
1346.52
1402.09
1457.72
1513.23
1568.46
1623.21
1677.3
1730.51
1782.62
1833.39
1882.54
1929.77
1974.75
2017.06
2056.24
2091.25
2121.18
2146.84
2165.92
2176.55
2086.27
1964.7
1837.69
1707.29
1575.26
1443.14
1312.31
1184.07
1059.68
940.396
827.207
721.316
624.701
539.437
467.323
409.566
366.319
336.35
317.195
305.843
299.535
296.209
294.538
293.722
293.333
293.151
293.068
293.03
293.013
293.006
293.002
293.001
293
293
293
293
293
293
293
293.004
293.016
293.037
293.072
293.13
293.226
293.384
293.642
294.057
294.717
295.749
297.337
299.734
303.271
308.363
315.489
325.16
337.854
353.95
373.665
397.031
423.902
454.004
486.999
522.539
560.308
600.039
641.521
684.595
729.14
775.059
822.269
870.686
920.214
970.738
1022.14
1074.46
1127.62
1181.52
1236.02
1291.02
1346.36
1401.91
1457.51
1513
1568.2
1622.94
1677.02
1730.23
1782.35
1833.13
1882.3
1929.57
1974.59
2016.95
2056.17
2091.21
2121.15
2146.8
2165.81
2176.35
2089.26
1968.07
1841.26
1710.96
1578.95
1446.8
1315.9
1187.54
1063.01
943.56
830.181
724.061
627.161
541.558
469.064
410.909
367.281
336.986
317.584
306.064
299.654
296.27
294.568
293.736
293.34
293.154
293.069
293.03
293.013
293.006
293.002
293.001
293
293
293
293
293
293
293
293.004
293.016
293.037
293.072
293.13
293.227
293.385
293.644
294.06
294.721
295.755
297.346
299.747
303.291
308.391
315.529
325.213
337.922
354.034
373.765
397.146
424.029
454.141
487.142
522.685
560.454
600.181
641.657
684.722
729.254
775.158
822.35
870.746
920.25
970.747
1022.12
1074.41
1127.53
1181.39
1235.86
1290.81
1346.12
1401.62
1457.19
1512.64
1567.82
1622.53
1676.58
1729.77
1781.88
1832.67
1881.86
1929.15
1974.2
2016.61
2055.88
2090.97
2120.96
2146.62
2165.58
2176.03
2093.34
1972.54
1845.97
1715.78
1583.81
1451.63
1320.64
1192.16
1067.46
947.796
834.174
727.755
630.48
544.428
471.426
412.736
368.593
337.856
318.115
306.366
299.815
296.352
294.608
293.755
293.349
293.158
293.071
293.031
293.014
293.006
293.002
293.001
293
293
293
293
293
293
293
293.004
293.016
293.037
293.072
293.13
293.227
293.386
293.645
294.063
294.725
295.762
297.358
299.765
303.317
308.428
315.58
325.281
338.01
354.144
373.897
397.297
424.197
454.322
487.333
522.881
560.649
600.373
641.841
684.895
729.412
775.296
822.465
870.833
920.306
970.768
1022.1
1074.34
1127.43
1181.23
1235.65
1290.55
1345.79
1401.24
1456.75
1512.15
1567.28
1621.95
1675.97
1729.13
1781.21
1831.98
1881.17
1928.48
1973.56
2016.01
2055.33
2090.49
2120.53
2146.21
2165.16
2175.58
2098.54
1978.17
1851.86
1721.82
1589.89
1457.69
1326.62
1197.99
1073.09
953.166
839.244
732.455
634.712
548.093
474.449
415.08
370.28
338.974
318.798
306.754
300.022
296.457
294.66
293.78
293.36
293.163
293.073
293.032
293.014
293.006
293.003
293.001
293
293
293
293
293
293
293
293.004
293.016
293.037
293.072
293.131
293.228
293.388
293.648
294.066
294.731
295.772
297.372
299.787
303.349
308.475
315.645
325.368
338.123
354.283
374.064
397.491
424.413
454.556
487.579
523.134
560.905
600.625
642.086
685.126
729.625
775.487
822.628
870.963
920.397
970.815
1022.1
1074.29
1127.31
1181.05
1235.4
1290.23
1345.4
1400.78
1456.21
1511.54
1566.59
1621.2
1675.16
1728.28
1780.33
1831.07
1880.24
1927.54
1972.64
2015.12
2054.48
2089.71
2119.8
2145.53
2164.47
2174.89
2104.96
1985.05
1859.03
1729.16
1597.3
1465.07
1333.91
1205.13
1079.99
959.754
845.471
738.236
639.922
552.614
478.184
417.982
372.375
340.366
319.65
307.239
300.282
296.59
294.724
293.811
293.374
293.17
293.076
293.033
293.015
293.006
293.003
293.001
293
293
293
293
293
293
293
293.004
293.016
293.037
293.073
293.131
293.229
293.389
293.65
294.071
294.738
295.783
297.39
299.813
303.389
308.532
315.725
325.476
338.262
354.458
374.273
397.733
424.684
454.851
487.892
523.458
561.234
600.953
642.406
685.433
729.913
775.749
822.857
871.153
920.541
970.906
1022.13
1074.26
1127.2
1180.87
1235.13
1289.87
1344.95
1400.23
1455.57
1510.81
1565.77
1620.29
1674.17
1727.22
1779.21
1829.91
1879.06
1926.35
1971.44
2013.93
2053.33
2088.63
2118.78
2144.55
2163.51
2173.92
2112.76
1993.34
1867.63
1737.92
1606.14
1473.9
1342.64
1213.67
1088.26
967.663
852.953
745.188
646.197
558.068
482.701
421.501
374.922
342.065
320.695
307.835
300.602
296.753
294.804
293.849
293.392
293.178
293.08
293.035
293.015
293.007
293.003
293.001
293
293
293
293
293
293
293
293.004
293.016
293.037
293.073
293.132
293.23
293.391
293.653
294.076
294.747
295.796
297.411
299.846
303.437
308.601
315.821
325.607
338.433
354.671
374.531
398.032
425.022
455.22
488.285
523.868
561.653
601.374
642.822
685.836
730.296
776.104
823.177
871.43
920.766
971.071
1022.23
1074.27
1127.14
1180.71
1234.87
1289.5
1344.47
1399.64
1454.86
1509.98
1564.83
1619.23
1673.01
1725.96
1777.87
1828.5
1877.6
1924.86
1969.95
2012.44
2051.84
2087.2
2117.41
2143.24
2162.25
2172.66
2122.07
2003.13
1877.75
1748.25
1616.55
1484.29
1352.91
1223.74
1098.01
977.005
861.804
753.428
653.644
564.551
488.083
425.709
377.98
344.113
321.958
308.557
300.99
296.951
294.901
293.895
293.414
293.188
293.084
293.037
293.016
293.007
293.003
293.001
293.001
293
293
293
293
293
293
293.004
293.016
293.038
293.073
293.133
293.231
293.393
293.657
294.082
294.757
295.812
297.436
299.884
303.494
308.684
315.937
325.764
338.638
354.929
374.844
398.398
425.436
455.675
488.774
524.381
562.181
601.909
643.356
686.36
730.801
776.582
823.618
871.823
921.103
971.339
1022.42
1074.38
1127.14
1180.61
1234.65
1289.16
1344
1399.03
1454.11
1509.08
1563.79
1618.06
1671.7
1724.53
1776.32
1826.86
1875.88
1923.08
1968.14
2010.63
2050.07
2085.47
2115.71
2141.59
2160.64
2171.05
2132.94
2014.49
1889.47
1760.21
1628.64
1496.4
1364.92
1235.51
1109.43
987.933
872.151
763.066
662.369
572.167
494.425
430.686
381.614
346.56
323.473
309.427
301.459
297.191
295.018
293.951
293.439
293.2
293.089
293.039
293.017
293.007
293.003
293.001
293.001
293
293
293
293
293
293
293.004
293.016
293.038
293.074
293.134
293.233
293.396
293.661
294.089
294.768
295.831
297.465
299.928
303.56
308.781
316.074
325.95
338.883
355.239
375.221
398.842
425.941
456.234
489.376
525.019
562.843
602.586
644.037
687.036
731.462
777.217
824.216
872.374
921.592
971.755
1022.75
1074.61
1127.27
1180.61
1234.52
1288.88
1343.57
1398.43
1453.35
1508.15
1562.69
1616.78
1670.27
1722.94
1774.6
1825.01
1873.93
1921.05
1966.06
2008.52
2047.96
2083.42
2113.72
2139.61
2158.66
2169.03
2145.11
2027.2
1902.62
1773.68
1642.32
1510.14
1378.6
1248.98
1122.54
1000.54
884.103
774.218
672.495
581.03
501.832
436.525
385.902
349.461
325.278
310.467
302.02
297.478
295.159
294.018
293.47
293.214
293.096
293.042
293.018
293.008
293.003
293.001
293.001
293
293
293
293
293
293
293.004
293.017
293.038
293.074
293.135
293.234
293.399
293.666
294.097
294.781
295.852
297.498
299.979
303.637
308.893
316.234
326.169
339.172
355.606
375.671
399.374
426.55
456.913
490.115
525.805
563.666
603.434
644.899
687.901
732.318
778.053
825.018
873.127
922.283
972.368
1023.27
1075.02
1127.56
1180.76
1234.53
1288.72
1343.23
1397.91
1452.63
1507.23
1561.56
1615.46
1668.75
1721.24
1772.72
1822.99
1871.78
1918.82
1963.77
2006.22
2045.69
2081.28
2111.7
2137.66
2156.66
2166.67
2157.56
2040.62
1916.84
1788.52
1657.57
1525.62
1394.11
1264.34
1137.55
1014.98
897.834
787.043
684.15
591.262
510.422
443.334
390.928
352.881
327.418
311.704
302.688
297.82
295.326
294.097
293.507
293.23
293.103
293.045
293.02
293.008
293.004
293.002
293.001
293
293
293
293
293
293
293.004
293.017
293.038
293.075
293.136
293.236
293.402
293.671
294.106
294.795
295.875
297.535
300.037
303.724
309.022
316.418
326.423
339.509
356.038
376.203
400.008
427.281
457.732
491.012
526.768
564.682
604.49
645.983
688.999
733.417
779.138
826.075
874.139
923.233
973.238
1024.04
1075.68
1128.08
1181.13
1234.73
1288.74
1343.05
1397.51
1452.01
1506.38
1560.47
1614.14
1667.2
1719.47
1770.75
1820.84
1869.5
1916.44
1961.35
2003.86
2043.48
2079.44
2110.28
2136.91
2156.92
2168.47
2168.53
2053.65
1931.42
1804.24
1674.09
1542.64
1411.34
1281.52
1154.43
1031.31
913.403
801.646
697.5
603.031
520.338
451.225
396.786
356.893
329.94
313.168
303.481
298.226
295.524
294.191
293.551
293.25
293.112
293.049
293.021
293.009
293.004
293.002
293.001
293
293
293
293
293
293
293.004
293.017
293.039
293.075
293.137
293.238
293.405
293.677
294.115
294.811
295.9
297.575
300.101
303.822
309.167
316.626
326.713
339.898
356.54
376.827
400.756
428.15
458.714
492.095
527.939
565.927
605.795
647.333
690.38
734.812
780.532
827.449
875.475
924.51
974.434
1025.14
1076.65
1128.91
1181.8
1235.2
1289.01
1343.1
1397.32
1451.56
1505.67
1559.49
1612.88
1665.67
1717.69
1768.74
1818.61
1867.09
1913.91
1958.77
2001.3
2041.07
2077.57
2109.07
2136.75
2158.54
2172.99
2177.85
2065.88
1946.04
1820.68
1691.82
1561.21
1430.36
1300.64
1173.32
1049.68
930.972
818.177
712.646
616.427
531.676
460.305
403.573
361.573
332.902
314.894
304.418
298.705
295.758
294.301
293.602
293.273
293.122
293.054
293.023
293.01
293.004
293.002
293.001
293
293
293
293
293
293
293.004
293.017
293.039
293.076
293.138
293.24
293.408
293.682
294.124
294.827
295.926
297.618
300.168
303.926
309.324
316.856
327.037
340.338
357.114
377.548
401.63
429.175
459.883
493.395
529.355
567.444
607.396
649.002
692.1
736.565
782.298
829.209
877.205
926.187
976.032
1026.63
1078.02
1130.13
1182.84
1236.04
1289.62
1343.45
1397.42
1451.37
1505.18
1558.7
1611.78
1664.26
1715.97
1766.74
1816.36
1864.62
1911.27
1956.03
1998.56
2038.43
2075.15
2107.28
2134.8
2157.47
2172.91
2178.83
2074.8
1959.83
1837.56
1710.7
1581.34
1451.19
1321.72
1194.26
1070.12
950.566
836.663
729.659
631.554
544.555
470.681
411.379
366.989
336.344
316.903
305.506
299.26
296.027
294.428
293.66
293.299
293.133
293.059
293.025
293.011
293.005
293.002
293.001
293
293
293
293
293
293
293.004
293.017
293.039
293.076
293.139
293.242
293.411
293.688
294.133
294.842
295.953
297.662
300.239
304.039
309.496
317.111
327.4
340.836
357.77
378.38
402.646
430.377
461.263
494.941
531.052
569.275
609.342
651.043
694.216
738.736
784.501
831.419
879.398
928.332
978.1
1028.6
1079.86
1131.8
1184.32
1237.31
1290.64
1344.2
1397.86
1451.5
1504.99
1558.17
1610.9
1663.03
1714.4
1764.84
1814.16
1862.14
1908.56
1953.13
1995.54
2035.37
2072.09
2104.38
2132.01
2154.95
2170.77
2177.29
2092.06
1978.56
1857.73
1732.08
1603.62
1474.05
1344.8
1217.22
1092.58
972.17
857.12
748.576
648.462
559.034
482.428
420.288
373.224
340.34
319.25
306.782
299.91
296.341
294.575
293.727
293.329
293.146
293.064
293.028
293.012
293.005
293.002
293.001
293
293
293
293
293
293
293.004
293.017
293.039
293.077
293.139
293.243
293.413
293.691
294.14
294.854
295.974
297.698
300.301
304.141
309.66
317.363
327.773
341.363
358.484
379.306
403.8
431.763
462.874
496.766
533.071
571.467
611.684
653.512
696.787
741.383
787.197
834.136
882.103
930.993
980.682
1031.07
1082.2
1133.97
1186.29
1239.03
1292.1
1345.37
1398.71
1452.02
1505.15
1557.96
1610.32
1662.08
1713.08
1763.16
1812.13
1859.79
1905.91
1950.22
1992.41
2032.09
2068.75
2101.18
2128.89
2151.98
2168.2
2175.57
2112.69
1999.79
1879.81
1755.01
1627.29
1498.25
1369.27
1241.63
1116.59
995.399
879.247
769.19
667.023
575.043
495.502
430.257
380.222
344.818
321.863
308.185
300.613
296.676
294.73
293.796
293.359
293.16
293.07
293.03
293.013
293.005
293.002
293.001
293
293
293
293
293
293
293.004
293.017
293.039
293.077
293.139
293.243
293.414
293.693
294.144
294.863
295.992
297.734
300.365
304.251
309.841
317.647
328.198
341.971
359.313
380.386
405.15
433.389
464.769
498.914
535.451
574.053
614.449
656.426
699.821
744.506
790.376
837.335
885.288
934.126
983.726
1034
1084.97
1136.56
1188.66
1241.15
1293.94
1346.91
1399.93
1452.88
1505.65
1558.1
1610.08
1661.46
1712.09
1761.79
1810.41
1857.73
1903.54
1947.56
1989.5
2028.96
2065.46
2097.88
2125.66
2148.85
2165.22
2172.96
2132.34
2020.28
1901.24
1777.38
1650.5
1522.12
1393.59
1266.13
1140.92
1019.19
902.138
790.762
686.705
592.255
509.767
441.306
388.105
349.94
324.886
309.818
301.432
297.064
294.906
293.874
293.393
293.174
293.076
293.033
293.014
293.006
293.002
293.001
293
293
293
293
293
293
293.004
293.017
293.039
293.077
293.139
293.242
293.412
293.691
294.141
294.859
295.989
297.734
300.379
304.294
309.938
317.834
328.522
342.487
360.077
381.447
406.539
435.12
466.838
501.298
538.117
576.962
617.558
659.693
703.204
747.963
793.868