/*--------------------------------*- C++ -*----------------------------------*\
  =========                 |
  \\      /  F ield         | OpenFOAM: The Open Source CFD Toolbox
   \\    /   O peration     | Website:  https://openfoam.org
    \\  /    A nd           | Version:  8
     \\/     M anipulation  |
\*---------------------------------------------------------------------------*/
FoamFile
{
    version     2.0;
    format      ascii;
    class       volScalarField;
    location    "320/fluid";
    object      CH4;
}
// * * * * * * * * * * * * * * * * * * * * * * * * * * * * * * * * * * * * * //

dimensions      [0 0 0 0 0 0 0];

internalField   nonuniform List<scalar> 
4000
(
0.999997
0.999988
0.999972
0.999945
0.999901
0.999827
0.999706
0.99951
0.999192
0.998686
0.99789
0.996657
0.994783
0.991995
0.987948
0.982234
0.974414
0.964063
0.950833
0.9345
0.914996
0.892412
0.866961
0.838953
0.808762
0.776794
0.743455
0.709142
0.674227
0.639053
0.603926
0.569118
0.534862
0.50136
0.468775
0.437234
0.406839
0.377663
0.349758
0.323153
0.297861
0.273879
0.251192
0.229776
0.209597
0.190617
0.172793
0.156078
0.140425
0.125783
0.112104
0.0993391
0.087441
0.0763645
0.0660665
0.0565073
0.0476503
0.0394631
0.0319567
0.0251956
0.0188685
0.0131366
0.00800162
0.00353365
0.00247056
0.00170613
0.00116141
0.000777642
0.000510974
0.000328711
0.000206573
0.000126679
7.60298e-05
4.537e-05
2.84328e-05
2.06347e-05
1.57195e-05
1.15355e-05
8.00124e-06
5.18976e-06
3.12463e-06
1.74438e-06
9.08417e-07
4.45832e-07
2.10709e-07
9.67728e-08
4.34516e-08
1.91579e-08
8.32188e-09
3.5707e-09
1.5165e-09
6.38579e-10
2.66945e-10
1.10857e-10
4.57147e-11
1.86642e-11
7.47438e-12
2.85791e-12
9.55257e-13
1.67569e-13
0.999997
0.999988
0.999971
0.999944
0.999899
0.999824
0.999701
0.999499
0.999175
0.998658
0.997846
0.996591
0.994689
0.991869
0.987789
0.98205
0.97422
0.963884
0.950694
0.934428
0.915006
0.892506
0.867139
0.839219
0.809106
0.777191
0.743877
0.709559
0.67461
0.63938
0.604183
0.569299
0.534969
0.501388
0.468719
0.437094
0.406615
0.377361
0.349385
0.322716
0.297368
0.273337
0.250609
0.229158
0.208952
0.189951
0.172111
0.155386
0.139726
0.125083
0.111405
0.098645
0.0867542
0.0756875
0.0654017
0.055857
0.0470174
0.0388515
0.031409
0.0246658
0.0183709
0.0126981
0.00765698
0.00333394
0.00234051
0.00161989
0.00110344
0.000738352
0.000484301
0.000310701
0.000194576
0.000118882
7.11847e-05
4.26325e-05
2.726e-05
2.0125e-05
1.51909e-05
1.09809e-05
7.48911e-06
4.77363e-06
2.82945e-06
1.56237e-06
8.10141e-07
3.98566e-07
1.89523e-07
8.77531e-08
3.97514e-08
1.76775e-08
7.73826e-09
3.34198e-09
1.42681e-09
6.03237e-10
2.5292e-10
1.05255e-10
4.34694e-11
1.77667e-11
7.12095e-12
2.72483e-12
9.11574e-13
1.60114e-13
0.999997
0.999987
0.999971
0.999943
0.999897
0.99982
0.999694
0.999488
0.999156
0.998629
0.997801
0.996526
0.994597
0.991744
0.987628
0.981853
0.973992
0.963637
0.950449
0.934207
0.914835
0.892406
0.867117
0.839262
0.809199
0.777321
0.744026
0.709709
0.674745
0.639481
0.604231
0.569274
0.53485
0.501167
0.468391
0.436659
0.406077
0.376724
0.348655
0.321901
0.296476
0.272378
0.249591
0.228092
0.207845
0.188813
0.17095
0.154209
0.13854
0.123894
0.110219
0.0974663
0.0855877
0.074537
0.0642707
0.0547488
0.0459351
0.0377988
0.0304386
0.0237617
0.0175239
0.0119244
0.00699919
0.00315421
0.00220765
0.00152231
0.00103253
0.00068756
0.000448564
0.0002861
0.000178098
0.000108242
6.46959e-05
3.91084e-05
2.58925e-05
1.9409e-05
1.44955e-05
1.03315e-05
6.946e-06
4.36996e-06
2.56428e-06
1.40776e-06
7.28852e-07
3.59234e-07
1.71358e-07
7.96599e-08
3.62422e-08
1.61871e-08
7.11466e-09
3.08377e-09
1.32058e-09
5.59679e-10
2.35081e-10
9.79516e-11
4.04834e-11
1.65524e-11
6.63509e-12
2.53913e-12
8.49789e-13
1.49418e-13
0.999997
0.999987
0.99997
0.999942
0.999895
0.999817
0.999689
0.99948
0.999144
0.99861
0.997774
0.996486
0.994541
0.991669
0.987531
0.981732
0.97385
0.963477
0.950278
0.934034
0.914669
0.892255
0.866985
0.839152
0.809106
0.777233
0.74393
0.709588
0.674582
0.639259
0.603936
0.568894
0.534379
0.500597
0.467721
0.435886
0.405203
0.375753
0.347592
0.320753
0.295251
0.271085
0.248239
0.22669
0.206404
0.18734
0.169455
0.1527
0.137026
0.12238
0.108713
0.0959748
0.0841156
0.0730889
0.0628506
0.0533596
0.0445784
0.0364738
0.0291549
0.0225223
0.016329
0.0107604
0.00582451
0.00305337
0.00211221
0.00144092
0.000967593
0.000638269
0.000412672
0.000260946
0.000161145
9.73238e-05
5.81009e-05
3.56284e-05
2.46584e-05
1.85667e-05
1.36887e-05
9.61391e-06
6.36662e-06
3.94807e-06
2.28862e-06
1.24555e-06
6.41777e-07
3.15871e-07
1.50843e-07
7.02886e-08
3.2077e-08
1.43763e-08
6.34175e-09
2.75875e-09
1.18552e-09
5.0406e-10
2.12331e-10
8.86928e-11
3.67331e-11
1.50441e-11
6.03818e-12
2.31305e-12
7.7499e-13
1.36482e-13
0.999997
0.999987
0.99997
0.999941
0.999894
0.999815
0.999685
0.999474
0.999134
0.998594
0.997749
0.996449
0.994489
0.991596
0.987433
0.981605
0.973691
0.963288
0.950061
0.933794
0.91441
0.891981
0.866699
0.838852
0.808788
0.776891
0.743555
0.70917
0.674109
0.638721
0.603324
0.5682
0.533596
0.499722
0.46675
0.434821
0.404044
0.374505
0.34626
0.319344
0.293772
0.269544
0.246647
0.225055
0.204735
0.185647
0.167746
0.150984
0.13531
0.120674
0.107023
0.0943066
0.0824764
0.0714849
0.0612877
0.0518438
0.0431158
0.0350713
0.0278573
0.0212745
0.0151217
0.00959259
0.00473073
0.00292463
0.00199477
0.00134502
0.00089412
0.000584459
0.000374702
0.000235072
0.000144146
8.66296e-05
5.17749e-05
3.2335e-05
2.31765e-05
1.74965e-05
1.27839e-05
8.87878e-06
5.80984e-06
3.5619e-06
2.04558e-06
1.10634e-06
5.68261e-07
2.79529e-07
1.33631e-07
6.23801e-08
2.8528e-08
1.28137e-08
5.66452e-09
2.46907e-09
1.06297e-09
4.52685e-10
1.90958e-10
7.98605e-11
3.31075e-11
1.35694e-11
5.44919e-12
2.08837e-12
7.00295e-13
1.23529e-13
0.999997
0.999987
0.99997
0.999941
0.999893
0.999813
0.999682
0.999469
0.999126
0.998581
0.99773
0.996421
0.994447
0.991537
0.987351
0.981496
0.97355
0.963111
0.949845
0.933538
0.914114
0.891644
0.86632
0.83843
0.808321
0.776373
0.742982
0.708535
0.673407
0.637945
0.602468
0.56726
0.53257
0.498607
0.465548
0.433531
0.40267
0.373052
0.344733
0.31775
0.29212
0.267841
0.244902
0.223277
0.202933
0.183829
0.165922
0.149161
0.133497
0.118877
0.10525
0.0925655
0.0807731
0.069826
0.05968
0.0502945
0.0416331
0.0336706
0.0265626
0.0198974
0.0138556
0.00843524
0.00371656
0.00258374
0.00177307
0.00119912
0.000797729
0.000520984
0.000333314
0.000208533
0.000127552
7.66524e-05
4.61885e-05
2.97037e-05
2.19133e-05
1.65126e-05
1.19615e-05
8.22081e-06
5.31802e-06
3.22413e-06
1.83398e-06
9.84871e-07
5.03563e-07
2.47245e-07
1.18146e-07
5.51768e-08
2.52601e-08
1.1362e-08
5.03103e-09
2.19678e-09
9.47405e-10
4.04153e-10
1.70753e-10
7.15106e-11
2.96812e-11
1.21765e-11
4.89311e-12
1.87631e-12
6.2982e-13
1.11314e-13
0.999997
0.999987
0.999969
0.99994
0.999892
0.999811
0.999679
0.999464
0.999119
0.99857
0.997712
0.996394
0.994408
0.99148
0.987272
0.981387
0.973406
0.962925
0.949613
0.933255
0.913778
0.891253
0.865871
0.837921
0.807748
0.775734
0.742272
0.707752
0.672546
0.637004
0.601444
0.566152
0.531377
0.497331
0.464189
0.432093
0.401158
0.371471
0.343089
0.316051
0.290372
0.266054
0.243084
0.221436
0.201078
0.181969
0.164063
0.147313
0.131666
0.117071
0.103475
0.0908274
0.0790783
0.0681803
0.0580896
0.0487658
0.040174
0.0323572
0.0253375
0.0187602
0.012858
0.00765153
0.0032826
0.00229786
0.00158387
0.00107385
0.000715081
0.000466877
0.000298345
0.000186357
0.000113879
6.86041e-05
4.18811e-05
2.79224e-05
2.09776e-05
1.57229e-05
1.12832e-05
7.67102e-06
4.90573e-06
2.94188e-06
1.65818e-06
8.84454e-07
4.50203e-07
2.20603e-07
1.05323e-07
4.91805e-08
2.25221e-08
1.01368e-08
4.49222e-09
1.96336e-09
8.47591e-10
3.6194e-10
1.53068e-10
6.41619e-11
2.66517e-11
1.09402e-11
4.39802e-12
1.6871e-12
5.66868e-13
1.00405e-13
0.999997
0.999987
0.999969
0.99994
0.999891
0.99981
0.999677
0.99946
0.999112
0.99856
0.997697
0.99637
0.994372
0.991428
0.987196
0.981282
0.973264
0.962738
0.949374
0.932958
0.913419
0.890826
0.865375
0.837352
0.807104
0.775013
0.741472
0.706871
0.671582
0.635957
0.600314
0.56494
0.530084
0.495959
0.462742
0.430576
0.399576
0.369829
0.341395
0.314312
0.288597
0.26425
0.241258
0.219598
0.199235
0.180129
0.162234
0.145501
0.129879
0.115314
0.101754
0.0891476
0.0774443
0.0665966
0.0565598
0.0472934
0.0387619
0.0310471
0.0241164
0.0176166
0.0117889
0.00665207
0.00311946
0.00216669
0.00148409
0.00100079
0.0006632
0.00043105
0.000274285
0.000170692
0.000104071
6.28217e-05
3.88778e-05
2.6905e-05
2.0344e-05
1.51194e-05
1.07363e-05
7.21613e-06
4.56125e-06
2.70573e-06
1.51127e-06
8.00573e-07
4.05552e-07
1.98236e-07
9.45126e-08
4.41036e-08
2.01944e-08
9.09124e-09
4.03084e-09
1.76289e-09
7.6164e-10
3.25508e-10
1.37775e-10
5.77968e-11
2.4024e-11
9.86659e-12
3.96769e-12
1.52252e-12
5.12119e-13
9.0929e-14
0.999997
0.999986
0.999969
0.999939
0.99989
0.999809
0.999675
0.999457
0.999107
0.998551
0.997682
0.996348
0.994338
0.991377
0.987123
0.981179
0.973122
0.962549
0.94913
0.932652
0.913044
0.890379
0.864851
0.836749
0.80642
0.774247
0.740622
0.705936
0.670564
0.634856
0.599131
0.563678
0.528746
0.494549
0.461265
0.429036
0.39798
0.368184
0.339708
0.31259
0.286847
0.262481
0.239478
0.217814
0.197454
0.178358
0.160481
0.143771
0.128178
0.113648
0.100129
0.0875663
0.0759111
0.0651144
0.055131
0.0459197
0.0374437
0.0297959
0.0229302
0.0164972
0.0107265
0.00561778
0.00305676
0.00210394
0.00142951
0.000957018
0.000630047
0.000407066
0.000257631
0.000159594
9.70199e-05
5.86378e-05
3.67606e-05
2.61449e-05
1.97967e-05
1.45928e-05
1.02612e-05
6.82368e-06
4.26692e-06
2.50616e-06
1.38836e-06
7.30923e-07
3.68646e-07
1.79777e-07
8.55897e-08
3.99075e-08
1.82663e-08
8.22283e-09
3.64649e-09
1.59537e-09
6.89597e-10
2.94881e-10
1.24884e-10
5.24182e-11
2.17989e-11
8.95579e-12
3.60208e-12
1.38255e-12
4.65564e-13
8.28795e-14
0.999997
0.999986
0.999969
0.999939
0.999889
0.999807
0.999673
0.999454
0.999101
0.998542
0.997669
0.996327
0.994305
0.991328
0.987052
0.981077
0.972982
0.962362
0.948886
0.932344
0.912666
0.889925
0.864318
0.836134
0.805722
0.773464
0.739755
0.704986
0.669531
0.633742
0.597941
0.562413
0.527411
0.493149
0.459805
0.427523
0.396419
0.366582
0.338073
0.310928
0.285167
0.260789
0.237782
0.216121
0.195771
0.176691
0.158836
0.142155
0.126595
0.112104
0.0986262
0.0861105
0.0745052
0.0637613
0.0538327
0.0446786
0.0362727
0.0287137
0.0219018
0.0155114
0.00978067
0.00477739
0.0029612
0.0020274
0.0013708
0.000913559
0.00059889
0.000385407
0.000243048
0.000150123
9.11496e-05
5.52631e-05
3.51427e-05
2.55055e-05
1.92897e-05
1.41168e-05
9.84158e-06
6.48348e-06
4.01597e-06
2.33845e-06
1.28624e-06
6.73491e-07
3.38347e-07
1.6465e-07
7.82784e-08
3.64666e-08
1.6683e-08
7.50847e-09
3.32971e-09
1.45701e-09
6.29969e-10
2.69479e-10
1.14171e-10
4.79403e-11
1.99432e-11
8.19509e-12
3.29633e-12
1.26538e-12
4.26611e-13
7.6155e-14
0.999997
0.999986
0.999968
0.999939
0.999889
0.999806
0.999671
0.999451
0.999096
0.998534
0.997656
0.996306
0.994274
0.991282
0.986983
0.980979
0.972846
0.962178
0.948647
0.932041
0.912293
0.889476
0.863791
0.835526
0.805031
0.772691
0.738899
0.704049
0.668516
0.632652
0.596778
0.561182
0.526117
0.491797
0.4584
0.426072
0.394929
0.365059
0.336524
0.309361
0.283588
0.259205
0.2362
0.214546
0.194211
0.175152
0.157322
0.140671
0.125147
0.110695
0.0972622
0.0847945
0.0732411
0.0625534
0.0526857
0.043598
0.0352396
0.0277486
0.0209678
0.0146224
0.00893942
0.00400344
0.00277265
0.00189972
0.00128519
0.000856768
0.000561698
0.000361431
0.000227901
0.000140816
8.5673e-05
5.23015e-05
3.38653e-05
2.49724e-05
1.88454e-05
1.37084e-05
9.48735e-06
6.19999e-06
3.80925e-06
2.20169e-06
1.20363e-06
6.27277e-07
3.14033e-07
1.52519e-07
7.24119e-08
3.37016e-08
1.54082e-08
6.93197e-09
3.07341e-09
1.34479e-09
5.81477e-10
2.48769e-10
1.05416e-10
4.42725e-11
1.84202e-11
7.56961e-12
3.04452e-12
1.16877e-12
3.94494e-13
7.06288e-14
0.999997
0.999986
0.999968
0.999938
0.999888
0.999805
0.999669
0.999448
0.999092
0.998527
0.997644
0.996288
0.994245
0.991237
0.986918
0.980886
0.972716
0.962003
0.948418
0.93175
0.911934
0.889045
0.863283
0.83494
0.804366
0.771947
0.738078
0.703152
0.667546
0.631612
0.595672
0.560015
0.524894
0.490523
0.457081
0.424714
0.393538
0.363642
0.335088
0.307912
0.282132
0.25775
0.23475
0.213109
0.19279
0.173754
0.155951
0.139332
0.123843
0.109431
0.0960402
0.0836185
0.0721141
0.0614784
0.0516662
0.0426334
0.0343545
0.0270254
0.0201383
0.0139171
0.00836526
0.00359305
0.00251764
0.00174007
0.00118497
0.000793983
0.00052261
0.000337363
0.00021333
0.000132225
8.08354e-05
4.98367e-05
3.29277e-05
2.45964e-05
1.85216e-05
1.3402e-05
9.21708e-06
5.98164e-06
3.64913e-06
2.09553e-06
1.13942e-06
5.91311e-07
2.95071e-07
1.43035e-07
6.78117e-08
3.15263e-08
1.44019e-08
6.47533e-09
2.86973e-09
1.25531e-09
5.42696e-10
2.32158e-10
9.83743e-11
4.1315e-11
1.71891e-11
7.06298e-12
2.84018e-12
1.09025e-12
3.68389e-13
6.6157e-14
0.999997
0.999986
0.999968
0.999938
0.999888
0.999805
0.999668
0.999445
0.999088
0.99852
0.997633
0.99627
0.994218
0.991196
0.986857
0.980799
0.972594
0.961839
0.948203
0.931478
0.911597
0.88864
0.862807
0.834391
0.803744
0.771251
0.737311
0.702316
0.666643
0.630645
0.594646
0.558935
0.523765
0.48935
0.45587
0.423471
0.392268
0.362352
0.333784
0.3066
0.280818
0.256439
0.233448
0.21182
0.19152
0.172507
0.154731
0.138143
0.122688
0.108312
0.0949616
0.082582
0.0711219
0.0605323
0.0507673
0.0417855
0.0336046
0.026337
0.0195107
0.0133796
0.00794976
0.00334803
0.00235059
0.00162878
0.00111225
0.000747311
0.000493205
0.000319214
0.000202411
0.000125888
7.73859e-05
4.82327e-05
3.25476e-05
2.45035e-05
1.83998e-05
1.32499e-05
9.05622e-06
5.83669e-06
3.53701e-06
2.01904e-06
1.09233e-06
5.64604e-07
2.80853e-07
1.35868e-07
6.43113e-08
2.98607e-08
1.3627e-08
6.12188e-09
2.71132e-09
1.18541e-09
5.12278e-10
2.19081e-10
9.28114e-11
3.89712e-11
1.62109e-11
6.65931e-12
2.67699e-12
1.02745e-12
3.47515e-13
6.25962e-14
0.999997
0.999986
0.999968
0.999938
0.999887
0.999804
0.999666
0.999443
0.999084
0.998514
0.997623
0.996254
0.994193
0.991159
0.986802
0.980719
0.972483
0.961689
0.948007
0.931228
0.911289
0.888269
0.862372
0.833889
0.803176
0.770618
0.736613
0.701555
0.665823
0.62977
0.59372
0.557962
0.522749
0.488297
0.454785
0.422359
0.391135
0.361204
0.332625
0.305437
0.279655
0.255282
0.232301
0.210688
0.190407
0.171415
0.153666
0.137106
0.121683
0.107341
0.0940269
0.0816857
0.070266
0.0597191
0.0499997
0.0410678
0.0329629
0.0257413
0.0189607
0.012879
0.00750641
0.00321692
0.00225904
0.00156633
0.00107065
0.000720259
0.000476068
0.000308677
0.000196173
0.000122396
7.56259e-05
4.75703e-05
3.26219e-05
2.46745e-05
1.84643e-05
1.32327e-05
8.9969e-06
5.7643e-06
3.47074e-06
1.96958e-06
1.06042e-06
5.45954e-07
2.70708e-07
1.30677e-07
6.17442e-08
2.86265e-08
1.30476e-08
5.85555e-09
2.59114e-09
1.13207e-09
4.8894e-10
2.09e-10
8.85049e-11
3.715e-11
1.54482e-11
6.34365e-12
2.54906e-12
9.78124e-13
3.31135e-13
5.98141e-14
0.999997
0.999986
0.999968
0.999938
0.999887
0.999803
0.999665
0.999441
0.99908
0.998508
0.997614
0.99624
0.994172
0.991126
0.986753
0.980649
0.972385
0.961556
0.947833
0.931007
0.911016
0.887941
0.861986
0.833445
0.802673
0.770057
0.735996
0.700885
0.665102
0.629001
0.592906
0.557108
0.521859
0.487376
0.453838
0.42139
0.390151
0.360208
0.331622
0.304431
0.278652
0.254285
0.231315
0.209716
0.189453
0.170482
0.152756
0.136223
0.120828
0.106516
0.0932334
0.0809249
0.0695389
0.0590259
0.04934
0.04044
0.0323674
0.025179
0.0184255
0.0123611
0.00698402
0.00315841
0.00221819
0.00153858
0.00105236
0.000708629
0.000468963
0.000304551
0.000193941
0.000121344
7.53162e-05
4.7768e-05
3.32319e-05
2.51673e-05
1.87493e-05
1.33636e-05
9.03104e-06
5.75127e-06
3.44371e-06
1.94364e-06
1.04138e-06
5.34035e-07
2.63944e-07
1.27119e-07
5.99474e-08
2.77481e-08
1.26297e-08
5.66128e-09
2.50266e-09
1.09248e-09
4.71505e-10
2.01425e-10
8.52536e-11
3.57691e-11
1.48678e-11
6.10265e-12
2.45113e-12
9.40292e-13
3.18588e-13
5.76953e-14
0.999997
0.999986
0.999968
0.999937
0.999887
0.999802
0.999664
0.999439
0.999077
0.998503
0.997606
0.996228
0.994153
0.991098
0.986711
0.980589
0.972301
0.961442
0.947684
0.930818
0.910783
0.887661
0.861657
0.833066
0.802245
0.76958
0.735471
0.700314
0.664488
0.628347
0.592216
0.556385
0.521107
0.486598
0.453039
0.420574
0.389322
0.35937
0.33078
0.303589
0.277813
0.253453
0.230493
0.208907
0.18866
0.169708
0.152002
0.135491
0.120121
0.105835
0.0925795
0.0802989
0.0689413
0.0584575
0.0488021
0.0399328
0.0318837
0.0247219
0.0179891
0.0119401
0.00657239
0.0031367
0.00220403
0.00152999
0.0010476
0.000706332
0.000468162
0.000304594
0.000194422
0.000122032
7.61047e-05
4.86474e-05
3.42562e-05
2.59147e-05
1.92097e-05
1.36148e-05
9.14578e-06
5.78841e-06
3.44537e-06
1.935e-06
1.03233e-06
5.27397e-07
2.5983e-07
1.24848e-07
5.87609e-08
2.71531e-08
1.23411e-08
5.52516e-09
2.43993e-09
1.06415e-09
4.58937e-10
1.95935e-10
8.28871e-11
3.47608e-11
1.44432e-11
5.92548e-12
2.37888e-12
9.12294e-13
3.09312e-13
5.61416e-14
0.999997
0.999986
0.999968
0.999937
0.999886
0.999802
0.999663
0.999438
0.999075
0.998499
0.9976
0.996218
0.994138
0.991075
0.986677
0.98054
0.972233
0.96135
0.947563
0.930664
0.910593
0.887433
0.861389
0.832758
0.801896
0.769192
0.735045
0.699851
0.66399
0.627817
0.591657
0.555799
0.520498
0.48597
0.452394
0.419917
0.388655
0.358697
0.330104
0.302913
0.277141
0.252787
0.229836
0.208261
0.188028
0.169091
0.151403
0.134911
0.119561
0.105297
0.0920635
0.0798067
0.0684744
0.0580163
0.0483853
0.0395384
0.0315093
0.0243685
0.0176545
0.011622
0.00626842
0.00311952
0.00219686
0.00152835
0.0010488
0.00070878
0.000470942
0.000307227
0.0001967
0.000123911
7.7643e-05
4.99567e-05
3.54674e-05
2.67807e-05
1.97591e-05
1.39321e-05
9.30815e-06
5.85867e-06
3.46862e-06
1.93856e-06
1.03007e-06
5.24488e-07
2.57646e-07
1.23528e-07
5.80313e-08
2.67747e-08
1.21535e-08
5.4353e-09
2.39809e-09
1.04511e-09
4.50434e-10
1.92196e-10
8.12639e-11
3.40645e-11
1.41479e-11
5.8019e-12
2.32811e-12
8.92522e-13
3.02766e-13
5.50566e-14
0.999997
0.999986
0.999968
0.999937
0.999886
0.999802
0.999663
0.999437
0.999073
0.998497
0.997595
0.996211
0.994126
0.991057
0.986651
0.980503
0.972181
0.96128
0.947471
0.930547
0.910449
0.88726
0.861186
0.832525
0.801632
0.768898
0.734722
0.699501
0.663614
0.627416
0.591234
0.555357
0.520039
0.485496
0.451908
0.419421
0.388152
0.35819
0.329596
0.302405
0.276636
0.252287
0.229344
0.207778
0.187555
0.168631
0.150957
0.13448
0.119146
0.104899
0.0916836
0.0794452
0.0681305
0.0576887
0.0480734
0.0392431
0.031231
0.0241068
0.0174079
0.0113887
0.00604592
0.0031056
0.0021935
0.00153046
0.00105332
0.000713948
0.000475835
0.000311424
0.000200084
0.000126533
7.96365e-05
5.14877e-05
3.66909e-05
2.76489e-05
2.03177e-05
1.42628e-05
9.48512e-06
5.94223e-06
3.50233e-06
1.94938e-06
1.03207e-06
5.23923e-07
2.56728e-07
1.22876e-07
5.76428e-08
2.65625e-08
1.20443e-08
5.3815e-09
2.37246e-09
1.03323e-09
4.45049e-10
1.89799e-10
8.02137e-11
3.36105e-11
1.39541e-11
5.72035e-12
2.2944e-12
8.79337e-13
2.98407e-13
5.43428e-14
0.999997
0.999986
0.999968
0.999937
0.999886
0.999801
0.999662
0.999436
0.999072
0.998495
0.997592
0.996206
0.994119
0.991046
0.986634
0.980478
0.972146
0.961233
0.94741
0.93047
0.910353
0.887145
0.861051
0.832369
0.801456
0.768702
0.734506
0.699266
0.663362
0.627148
0.590951
0.555061
0.519731
0.485179
0.451583
0.41909
0.387817
0.357852
0.329257
0.302068
0.276301
0.251956
0.229017
0.207458
0.187243
0.168327
0.150662
0.134196
0.118873
0.104637
0.0914333
0.079206
0.0679024
0.0574729
0.0478705
0.0390527
0.0310529
0.0239399
0.0172506
0.0112386
0.00589949
0.00309612
0.00219372
0.00153537
0.00105996
0.000720675
0.000481835
0.000316384
0.000203974
0.00012947
8.18e-05
5.307e-05
3.78595e-05
2.84464e-05
2.08227e-05
1.45604e-05
9.64571e-06
6.02024e-06
3.53587e-06
1.96179e-06
1.03575e-06
5.24534e-07
2.56547e-07
1.22633e-07
5.74672e-08
2.64575e-08
1.19872e-08
5.35235e-09
2.35822e-09
1.02651e-09
4.41956e-10
1.88407e-10
7.95979e-11
3.33422e-11
1.38388e-11
5.6716e-12
2.27414e-12
8.71382e-13
2.95781e-13
5.39174e-14
0.999997
0.999986
0.999968
0.999937
0.999886
0.999801
0.999662
0.999436
0.999072
0.998494
0.997591
0.996204
0.994115
0.99104
0.986626
0.980466
0.97213
0.961211
0.947381
0.930433
0.910308
0.88709
0.860986
0.832294
0.801371
0.768606
0.734401
0.699152
0.663238
0.627017
0.590812
0.554915
0.51958
0.485022
0.451423
0.418926
0.387651
0.357685
0.329089
0.3019
0.276134
0.251791
0.228855
0.2073
0.187088
0.168176
0.150516
0.134055
0.118737
0.104507
0.0913091
0.0790882
0.0677916
0.0573689
0.0477734
0.0389622
0.0309691
0.0238619
0.017177
0.0111674
0.00582692
0.00309139
0.00219649
0.00154124
0.00106658
0.00072687
0.000487112
0.000320615
0.000207218
0.000131873
8.35315e-05
5.42879e-05
3.86843e-05
2.89746e-05
2.11439e-05
1.47444e-05
9.74333e-06
6.06743e-06
3.55638e-06
1.96966e-06
1.03831e-06
5.25142e-07
2.5662e-07
1.22579e-07
5.74077e-08
2.64168e-08
1.19637e-08
5.33994e-09
2.35203e-09
1.02354e-09
4.40575e-10
1.8778e-10
7.93188e-11
3.32199e-11
1.3786e-11
5.64916e-12
2.26478e-12
8.67694e-13
2.94564e-13
5.37213e-14
0.999997
0.999986
0.999968
0.999937
0.999886
0.999801
0.999662
0.999436
0.999072
0.998494
0.997591
0.996204
0.994115
0.99104
0.986626
0.980466
0.97213
0.961211
0.94738
0.930432
0.910306
0.887088
0.860984
0.832292
0.801369
0.768604
0.734399
0.69915
0.663236
0.627015
0.59081
0.554913
0.519578
0.48502
0.451421
0.418924
0.387649
0.357683
0.329088
0.301899
0.276133
0.25179
0.228854
0.207298
0.187086
0.168175
0.150515
0.134054
0.118736
0.104506
0.0913082
0.0790874
0.0677908
0.0573682
0.0477727
0.0389616
0.0309685
0.0238614
0.0171766
0.011167
0.00582657
0.00309137
0.00219648
0.00154123
0.00106657
0.000726864
0.000487108
0.000320612
0.000207216
0.000131871
8.35302e-05
5.42871e-05
3.86838e-05
2.89743e-05
2.11436e-05
1.47442e-05
9.7432e-06
6.06733e-06
3.55632e-06
1.96963e-06
1.03829e-06
5.25133e-07
2.56615e-07
1.22577e-07
5.74067e-08
2.64164e-08
1.19635e-08
5.33984e-09
2.35198e-09
1.02352e-09
4.40567e-10
1.87776e-10
7.93173e-11
3.32192e-11
1.37857e-11
5.64905e-12
2.26473e-12
8.67673e-13
2.94557e-13
5.37206e-14
0.999997
0.999986
0.999968
0.999937
0.999886
0.999801
0.999662
0.999436
0.999072
0.998495
0.997592
0.996206
0.994118
0.991045
0.986634
0.980477
0.972145
0.961232
0.947408
0.930467
0.91035
0.887141
0.861047
0.832365
0.801451
0.768696
0.734501
0.69926
0.663356
0.627142
0.590945
0.555055
0.519725
0.485173
0.451577
0.419084
0.387811
0.357847
0.329252
0.302063
0.276296
0.251951
0.229013
0.207454
0.187239
0.168323
0.150659
0.134193
0.11887
0.104634
0.0914305
0.0792034
0.0679
0.0574706
0.0478684
0.0390508
0.0310512
0.0239384
0.0172492
0.0112374
0.00589842
0.00309606
0.00219366
0.00153534
0.00105993
0.000720658
0.000481823
0.000316376
0.000203967
0.000129465
8.17967e-05
5.3068e-05
3.78588e-05
2.84459e-05
2.08222e-05
1.456e-05
9.6454e-06
6.02001e-06
3.53571e-06
1.9617e-06
1.03569e-06
5.24506e-07
2.56533e-07
1.22626e-07
5.7464e-08
2.6456e-08
1.19865e-08
5.35204e-09
2.35808e-09
1.02645e-09
4.41928e-10
1.88394e-10
7.95926e-11
3.33399e-11
1.38379e-11
5.67121e-12
2.27397e-12
8.71308e-13
2.95756e-13
5.39149e-14
0.999997
0.999986
0.999968
0.999937
0.999886
0.999802
0.999663
0.999437
0.999073
0.998496
0.997595
0.996211
0.994126
0.991056
0.98665
0.980501
0.972179
0.961277
0.947467
0.930543
0.910444
0.887254
0.861179
0.832517
0.801624
0.768889
0.734713
0.699491
0.663603
0.627406
0.591223
0.555346
0.520028
0.485486
0.451898
0.419411
0.388143
0.358181
0.329587
0.302397
0.276628
0.252279
0.229336
0.207771
0.187548
0.168624
0.150951
0.134474
0.11914
0.104894
0.091679
0.0794409
0.0681264
0.057685
0.04807
0.0392399
0.0312282
0.0241042
0.0174055
0.0113866
0.00604407
0.00310548
0.00219339
0.00153038
0.00105327
0.000713914
0.000475813
0.00031141
0.000200075
0.000126527
7.96328e-05
5.14859e-05
3.66909e-05
2.76491e-05
2.03177e-05
1.42626e-05
9.48484e-06
5.94196e-06
3.50212e-06
1.94924e-06
1.03199e-06
5.23877e-07
2.56704e-07
1.22864e-07
5.76372e-08
2.65599e-08
1.2043e-08
5.38092e-09
2.3722e-09
1.03312e-09
4.44998e-10
1.89777e-10
8.0204e-11
3.36063e-11
1.39524e-11
5.71963e-12
2.2941e-12
8.79205e-13
2.98362e-13
5.43377e-14
0.999997
0.999986
0.999968
0.999937
0.999886
0.999802
0.999663
0.999438
0.999075
0.998499
0.9976
0.996218
0.994137
0.991074
0.986676
0.980538
0.97223
0.961346
0.947558
0.930658
0.910586
0.887424
0.861379
0.832747
0.801884
0.769179
0.735032
0.699837
0.663976
0.627803
0.591642
0.555784
0.520484
0.485956
0.45238
0.419903
0.388641
0.358684
0.330091
0.302901
0.277129
0.252775
0.229825
0.208251
0.188018
0.169082
0.151394
0.134903
0.119553
0.10529
0.0920569
0.0798006
0.0684687
0.058011
0.0483804
0.0395339
0.0315052
0.0243647
0.0176511
0.0116189
0.00626582
0.00311935
0.0021967
0.00152822
0.0010487
0.000708711
0.000470899
0.000307201
0.000196684
0.000123903
7.76388e-05
4.99555e-05
3.54683e-05
2.67813e-05
1.97591e-05
1.39318e-05
9.30775e-06
5.85828e-06
3.46832e-06
1.93835e-06
1.02994e-06
5.2442e-07
2.5761e-07
1.23509e-07
5.80225e-08
2.67705e-08
1.21515e-08
5.4344e-09
2.39768e-09
1.04493e-09
4.50354e-10
1.92161e-10
8.12487e-11
3.4058e-11
1.41452e-11
5.80075e-12
2.32763e-12
8.92318e-13
3.02695e-13
5.5048e-14
0.999997
0.999986
0.999968
0.999937
0.999887
0.999802
0.999664
0.999439
0.999077
0.998503
0.997606
0.996227
0.994152
0.991096
0.986709
0.980586
0.972297
0.961438
0.947678
0.93081
0.910773
0.88765
0.861644
0.833052
0.802229
0.769564
0.735454
0.700296
0.664469
0.628328
0.592197
0.556365
0.521088
0.48658
0.453021
0.420556
0.389304
0.359353
0.330764
0.303573
0.277798
0.253438
0.230479
0.208894
0.188647
0.169696
0.151991
0.135481
0.120111
0.105826
0.0925708
0.0802907
0.0689337
0.0584504
0.0487955
0.0399266
0.0318779
0.0247167
0.0179845
0.0119361
0.00656893
0.00313656
0.00220389
0.00152984
0.00104746
0.000706223
0.000468086
0.000304546
0.000194395
0.000122017
7.60979e-05
4.86459e-05
3.42587e-05
2.59162e-05
1.92101e-05
1.36145e-05
9.14527e-06
5.78789e-06
3.44495e-06
1.9347e-06
1.03216e-06
5.273e-07
2.59778e-07
1.24822e-07
5.87483e-08
2.71471e-08
1.23383e-08
5.52383e-09
2.43933e-09
1.06388e-09
4.58817e-10
1.95883e-10
8.28645e-11
3.47512e-11
1.44391e-11
5.92379e-12
2.37817e-12
9.11996e-13
3.09209e-13
5.6128e-14
0.999997
0.999986
0.999968
0.999938
0.999887
0.999803
0.999665
0.999441
0.99908
0.998508
0.997613
0.996239
0.99417
0.991124
0.986751
0.980646
0.972381
0.96155
0.947825
0.930997
0.911005
0.887928
0.861971
0.833428
0.802655
0.770037
0.735975
0.700863
0.665079
0.628977
0.592883
0.557084
0.521836
0.487353
0.453815
0.421368
0.390129
0.360186
0.331602
0.304412
0.278633
0.254267
0.231298
0.2097
0.189438
0.170468
0.152742
0.13621
0.120816
0.106505
0.0932227
0.0809149
0.0695295
0.0590172
0.0493319
0.0404325
0.0323603
0.0251725
0.0184195
0.0123556
0.00697861
0.00315819
0.00221805
0.00153842
0.0010522
0.000708478
0.000468848
0.000304473
0.000193893
0.000121318
7.53038e-05
4.77639e-05
3.32333e-05
2.51685e-05
1.87493e-05
1.33628e-05
9.0301e-06
5.75038e-06
3.44305e-06
1.94321e-06
1.04113e-06
5.33897e-07
2.63872e-07
1.27083e-07
5.99298e-08
2.77395e-08
1.26256e-08
5.65941e-09
2.5018e-09
1.0921e-09
4.71335e-10
2.01351e-10
8.52212e-11
3.57552e-11
1.48619e-11
6.10021e-12
2.45013e-12
9.39874e-13
3.18444e-13
5.76749e-14
0.999997
0.999986
0.999968
0.999938
0.999887
0.999804
0.999666
0.999443
0.999083
0.998513
0.997622
0.996253
0.994192
0.991157
0.986799
0.980716
0.972478
0.961682
0.947998
0.931217
0.911276
0.888254
0.862354
0.833869
0.803154
0.770594
0.736588
0.701529
0.665796
0.629743
0.593692
0.557934
0.522721
0.488269
0.454758
0.422332
0.391109
0.361179
0.332601
0.305413
0.279633
0.25526
0.232281
0.210669
0.190388
0.171398
0.153649
0.137091
0.121668
0.107328
0.0940143
0.0816739
0.0702551
0.0597089
0.0499905
0.0410593
0.0329551
0.0257343
0.0189545
0.0128733
0.00750045
0.00321598
0.00225847
0.00156587
0.00107024
0.000719922
0.000475814
0.000308502
0.000196061
0.000122329
7.55884e-05
4.75511e-05
3.26146e-05
2.46705e-05
1.8461e-05
1.32299e-05
8.99469e-06
5.76273e-06
3.46969e-06
1.96893e-06
1.06004e-06
5.45754e-07
2.70606e-07
1.30626e-07
6.17193e-08
2.86146e-08
1.3042e-08
5.85297e-09
2.58996e-09
1.13154e-09
4.88707e-10
2.08898e-10
8.84608e-11
3.71311e-11
1.54402e-11
6.34034e-12
2.54769e-12
9.77565e-13
3.30943e-13
5.97857e-14
0.999997
0.999986
0.999968
0.999938
0.999888
0.999804
0.999668
0.999445
0.999087
0.998519
0.997632
0.996269
0.994217
0.991194
0.986854
0.980794
0.972588
0.961831
0.948193
0.931465
0.911581
0.888621
0.862786
0.834367
0.803718
0.771224
0.737282
0.702285
0.666611
0.630613
0.594614
0.558903
0.523732
0.489318
0.455839
0.42344
0.392238
0.362323
0.333755
0.306572
0.280792
0.256414
0.233424
0.211797
0.191499
0.172486
0.154712
0.138125
0.122671
0.108297
0.0949468
0.0825682
0.0711091
0.0605204
0.0507565
0.0417758
0.0335962
0.0263295
0.0195045
0.0133746
0.00794558
0.00334622
0.00234944
0.00162792
0.00111157
0.000746795
0.000492835
0.000318965
0.000202253
0.000125793
7.73316e-05
4.8204e-05
3.25335e-05
2.44949e-05
1.83933e-05
1.32452e-05
9.05282e-06
5.8343e-06
3.53546e-06
2.01812e-06
1.09182e-06
5.64329e-07
2.80712e-07
1.35798e-07
6.42771e-08
2.98445e-08
1.36194e-08
6.11839e-09
2.70974e-09
1.18471e-09
5.11967e-10
2.18945e-10
9.2753e-11
3.89463e-11
1.62003e-11
6.65494e-12
2.6752e-12
1.02672e-12
3.47266e-13
6.25581e-14
0.999997
0.999986
0.999968
0.999938
0.999888
0.999805
0.999669
0.999448
0.999092
0.998526
0.997643
0.996286
0.994244
0.991235
0.986914
0.980881
0.972709
0.961994
0.948406
0.931736
0.911916
0.889024
0.863259
0.834913
0.804337
0.771916
0.738045
0.703118
0.66751
0.631575
0.595635
0.559978
0.524856
0.490486
0.457045
0.424678
0.393504
0.363609
0.335055
0.307881
0.282102
0.257721
0.234723
0.213083
0.192766
0.17373
0.155929
0.139311
0.123824
0.109413
0.0960234
0.0836027
0.0720995
0.0614648
0.0516535
0.0426216
0.0343443
0.0270165
0.0201306
0.0139105
0.00836007
0.00358992
0.00251566
0.00173874
0.00118409
0.000793403
0.000522235
0.000337123
0.00021318
0.000132133
8.07812e-05
4.98061e-05
3.29128e-05
2.45873e-05
1.85143e-05
1.33962e-05
9.21279e-06
5.97869e-06
3.64723e-06
2.09437e-06
1.13876e-06
5.90953e-07
2.94887e-07
1.42943e-07
6.77668e-08
3.15049e-08
1.43919e-08
6.47076e-09
2.86766e-09
1.25439e-09
5.42292e-10
2.31983e-10