/*--------------------------------*- C++ -*----------------------------------*\
  =========                 |
  \\      /  F ield         | OpenFOAM: The Open Source CFD Toolbox
   \\    /   O peration     | Website:  https://openfoam.org
    \\  /    A nd           | Version:  8
     \\/     M anipulation  |
\*---------------------------------------------------------------------------*/
FoamFile
{
    version     2.0;
    format      ascii;
    class       volScalarField;
    location    "320/fluid";
    object      CO2;
}
// * * * * * * * * * * * * * * * * * * * * * * * * * * * * * * * * * * * * * //

dimensions      [0 0 0 0 0 0 0];

internalField   nonuniform List<scalar> 
4000
(
4.2098e-07
1.83872e-06
4.21874e-06
8.19885e-06
1.48232e-05
2.57847e-05
4.37955e-05
7.31413e-05
0.000120484
0.000195977
0.000314734
0.000498613
0.000778129
0.00119403
0.00179783
0.00265023
0.00381684
0.00536092
0.00733464
0.00977132
0.0126809
0.01605
0.0198467
0.0240248
0.0285287
0.0332978
0.0382716
0.0433911
0.0486008
0.0538496
0.0590917
0.0642869
0.0694002
0.0744017
0.0792669
0.0839767
0.088516
0.0928734
0.0970411
0.101014
0.104791
0.108371
0.111756
0.114949
0.117954
0.120775
0.123417
0.125886
0.128186
0.13032
0.132292
0.134104
0.135754
0.13724
0.138556
0.139691
0.140629
0.141349
0.141818
0.141994
0.141833
0.141259
0.140181
0.138509
0.127951
0.117161
0.106335
0.0956264
0.0851527
0.0750096
0.0652747
0.0560139
0.0472852
0.0391432
0.0316797
0.024871
0.0188293
0.0136231
0.00931928
0.00596424
0.00354455
0.00195409
0.00100546
0.00048786
0.000228144
0.000103765
4.61777e-05
2.01951e-05
8.70797e-06
3.71152e-06
1.56687e-06
6.56248e-07
2.73021e-07
1.12903e-07
4.63882e-08
1.88804e-08
7.54177e-09
2.87811e-09
9.60767e-10
1.68428e-10
4.26391e-07
1.86327e-06
4.27892e-06
8.32595e-06
1.50741e-05
2.62583e-05
4.46575e-05
7.46571e-05
0.000123056
0.000200179
0.00032132
0.000508472
0.000792145
0.00121283
0.00182139
0.00267755
0.00384563
0.00538771
0.00735534
0.00978213
0.0126795
0.0160363
0.0198205
0.0239859
0.0284783
0.0332397
0.03821
0.0433305
0.0485452
0.0538024
0.0590552
0.0642616
0.0693861
0.0743994
0.0792771
0.0839995
0.0885511
0.0929199
0.0970981
0.101081
0.104866
0.108453
0.111843
0.115041
0.118049
0.120873
0.123517
0.125986
0.128285
0.130419
0.132389
0.134197
0.135842
0.137322
0.13863
0.139753
0.140675
0.14137
0.141798
0.141916
0.141658
0.140933
0.139618
0.137589
0.126841
0.115924
0.105012
0.0942426
0.0837268
0.0735561
0.0638065
0.0545439
0.0458279
0.0377159
0.0303017
0.0235731
0.0176463
0.0125927
0.00847777
0.0053345
0.00312199
0.00170294
0.000872924
0.000424909
0.000200114
9.18582e-05
4.12889e-05
1.82337e-05
7.93198e-06
3.40658e-06
1.4472e-06
6.09187e-07
2.54444e-07
1.05544e-07
4.34696e-08
1.77276e-08
7.09332e-09
2.71111e-09
9.06381e-10
1.59162e-10
4.34512e-07
1.89936e-06
4.36433e-06
8.49828e-06
1.53974e-05
2.68384e-05
4.56627e-05
7.63446e-05
0.000125803
0.00020451
0.000327922
0.00051818
0.000805866
0.00123141
0.00184539
0.00270697
0.00387964
0.00542445
0.00739196
0.00981512
0.0127052
0.0160514
0.0198242
0.0239799
0.028465
0.0332212
0.0381888
0.0433092
0.0485265
0.053789
0.0590499
0.0642676
0.0694062
0.0744348
0.0793282
0.0840664
0.0886333
0.0930168
0.0972086
0.101204
0.105
0.108596
0.111995
0.115199
0.118213
0.12104
0.123686
0.126156
0.128455
0.130586
0.132553
0.134356
0.135996
0.137467
0.138764
0.139873
0.140776
0.141445
0.141834
0.141897
0.14155
0.14067
0.139076
0.135721
0.124834
0.11382
0.102845
0.0920403
0.0815143
0.0713571
0.061645
0.0524455
0.0438205
0.0358308
0.028546
0.0220083
0.0163047
0.0115016
0.00765118
0.00476224
0.00276477
0.00150209
0.00076998
0.000375944
0.000177765
8.19724e-05
3.70184e-05
1.6422e-05
7.17368e-06
3.09219e-06
1.31768e-06
5.56037e-07
2.32679e-07
9.66448e-08
3.98404e-08
1.62569e-08
6.50728e-09
2.48799e-09
8.32311e-10
1.46334e-10
4.41567e-07
1.93021e-06
4.43532e-06
8.63647e-06
1.56466e-05
2.72675e-05
4.63769e-05
7.74991e-05
0.000127618
0.000207284
0.000332044
0.000524122
0.000814162
0.00124259
0.00185989
0.00272496
0.00390093
0.0054484
0.00741754
0.00984104
0.0127301
0.0160743
0.0198444
0.0239972
0.0284802
0.0332358
0.0382051
0.0433295
0.0485535
0.053825
0.0590969
0.0643273
0.0694796
0.0745228
0.0794314
0.0841849
0.0887668
0.0931647
0.0973701
0.101378
0.105185
0.108791
0.112198
0.115409
0.118427
0.121258
0.123905
0.126376
0.128673
0.130801
0.132763
0.13456
0.13619
0.137652
0.138937
0.140033
0.140922
0.141578
0.141956
0.142017
0.14169
0.140876
0.139447
0.133098
0.122218
0.111198
0.100221
0.0894301
0.0789393
0.0688419
0.0592158
0.0501295
0.0416457
0.0338377
0.0267371
0.0204257
0.014971
0.0104322
0.00684839
0.00420726
0.00241533
0.0013018
0.000664421
0.000324058
0.000153444
7.09415e-05
3.21429e-05
1.43118e-05
6.27606e-06
2.71574e-06
1.16157e-06
4.91848e-07
2.06455e-07
8.5983e-08
3.55256e-08
1.4523e-08
5.82164e-09
2.22844e-09
7.46407e-10
1.31453e-10
4.47474e-07
1.95597e-06
4.49433e-06
8.75084e-06
1.58523e-05
2.76222e-05
4.69705e-05
7.84687e-05
0.000129166
0.000209701
0.000335724
0.000529577
0.000822013
0.00125352
0.00187458
0.00274397
0.00392454
0.00547658
0.00744989
0.00987695
0.0127689
0.0161154
0.0198876
0.0240426
0.0285284
0.0332879
0.0382624
0.0433936
0.0486259
0.0539073
0.0591906
0.0644334
0.0695991
0.0746563
0.0795792
0.0843469
0.0889428
0.093354
0.0975718
0.101591
0.105408
0.109022
0.112437
0.115653
0.118675
0.121508
0.124156
0.126625
0.128919
0.131042
0.132996
0.134784
0.136403
0.13785
0.139117
0.140192
0.141056
0.141684
0.14203
0.142064
0.141714
0.140888
0.139472
0.130351
0.11948
0.108454
0.0974838
0.0867219
0.0762874
0.0662743
0.0567605
0.0478133
0.0394944
0.0318951
0.0250057
0.0189306
0.0137301
0.00945514
0.00613027
0.00372205
0.00211643
0.00113342
0.000576654
0.000281105
0.000133262
6.17304e-05
2.80332e-05
1.25116e-05
5.49934e-06
2.38484e-06
1.02207e-06
4.33553e-07
1.8227e-07
7.60124e-08
3.14409e-08
1.28644e-08
5.16005e-09
1.97626e-09
6.62532e-10
1.16881e-10
4.52252e-07
1.97676e-06
4.54171e-06
8.8421e-06
1.60154e-05
2.79016e-05
4.74356e-05
7.92253e-05
0.000130371
0.000211581
0.000338593
0.000533856
0.00082824
0.00126235
0.00188674
0.00276022
0.00394561
0.00550304
0.00748215
0.00991521
0.0128133
0.0161659
0.0199444
0.0241059
0.0285988
0.033366
0.038349
0.0434896
0.0487323
0.054025
0.0593203
0.0645759
0.0697547
0.0748253
0.0797615
0.0845424
0.0891508
0.0935738
0.0978024
0.101831
0.105656
0.109278
0.112698
0.115917
0.118942
0.121775
0.124422
0.126888
0.129177
0.131293
0.133238
0.135013
0.136616
0.138043
0.139285
0.140326
0.141148
0.141719
0.141993
0.141936
0.141472
0.140518
0.139012
0.128138
0.117019
0.105868
0.0948516
0.0841021
0.0737243
0.0638043
0.0544143
0.045618
0.0374741
0.0300705
0.023398
0.0175577
0.0126039
0.0085792
0.00549445
0.00329705
0.00185632
0.000986982
0.000499884
0.000243272
0.000115306
5.34526e-05
2.4307e-05
1.08673e-05
4.78595e-06
2.0797e-06
8.93107e-07
3.79582e-07
1.59865e-07
6.67747e-08
2.76572e-08
1.13283e-08
4.54741e-09
1.74273e-09
5.84853e-10
1.03385e-10
4.56277e-07
1.99428e-06
4.58168e-06
8.91926e-06
1.61538e-05
2.81397e-05
4.78346e-05
7.988e-05
0.000131426
0.000213247
0.000341176
0.000537777
0.000834056
0.00127076
0.00189858
0.00277642
0.00396711
0.00553073
0.00751678
0.00995739
0.0128634
0.0162245
0.0200117
0.0241824
0.0286848
0.0334622
0.0384558
0.0436076
0.0488621
0.054167
0.0594749
0.0647432
0.0699349
0.0750182
0.0799668
0.0847595
0.0893791
0.0938123
0.0980501
0.102087
0.105919
0.109546
0.112969
0.116191
0.119216
0.122048
0.124692
0.127154
0.129436
0.131544
0.133478
0.135239
0.136824
0.138229
0.139441
0.140444
0.141213
0.141705
0.141871
0.14164
0.140893
0.139464
0.137116
0.125918
0.114612
0.103372
0.0923351
0.0816167
0.0713101
0.0614938
0.0522353
0.0435946
0.0356282
0.0283942
0.0219371
0.0163229
0.0116021
0.00781019
0.00494451
0.00293514
0.00163793
0.000865324
0.000436515
0.000212116
0.000100501
4.66047e-05
2.12092e-05
9.49225e-06
4.18538e-06
1.82106e-06
7.83053e-07
3.3323e-07
1.40512e-07
5.87544e-08
2.43576e-08
9.98382e-09
4.0096e-09
1.53727e-09
5.1642e-10
9.14918e-11
4.59761e-07
2.00945e-06
4.61632e-06
8.98616e-06
1.62739e-05
2.83468e-05
4.81826e-05
8.04535e-05
0.000132354
0.000214725
0.000343487
0.000541323
0.000839386
0.00127859
0.0019098
0.00279207
0.00398833
0.00555865
0.00755247
0.0100018
0.0129172
0.0162883
0.020086
0.0242677
0.0287814
0.0335704
0.038576
0.0437402
0.0490071
0.0543246
0.0596451
0.064926
0.0701299
0.075225
0.0801849
0.0849882
0.0896175
0.0940594
0.0983047
0.102347
0.106184
0.109815
0.11324
0.116463
0.119487
0.122317
0.124957
0.127413
0.129688
0.131786
0.133709
0.135456
0.137026
0.138411
0.1396
0.140576
0.141311
0.141761
0.14188
0.141594
0.140788
0.139307
0.134696
0.123473
0.112157
0.100931
0.0899358
0.079285
0.0690702
0.0593679
0.0502434
0.0417552
0.0339583
0.026901
0.020641
0.0152341
0.0107261
0.00714482
0.00447442
0.00262945
0.00145519
0.000764095
0.000383877
0.000186204
8.81543e-05
4.08747e-05
1.86081e-05
8.33361e-06
3.67772e-06
1.60178e-06
6.89503e-07
2.93737e-07
1.23988e-07
5.18943e-08
2.15311e-08
8.83055e-09
3.54777e-09
1.36069e-09
4.57587e-10
8.12715e-11
4.62875e-07
2.02302e-06
4.64735e-06
9.04624e-06
1.6382e-05
2.8534e-05
4.84988e-05
8.09774e-05
0.000133208
0.000216096
0.000345651
0.000544676
0.000844479
0.00128616
0.00192077
0.00280755
0.00400954
0.00558688
0.00758894
0.0100476
0.0129732
0.0163552
0.0201644
0.024358
0.0288839
0.0336854
0.0387036
0.0438805
0.0491601
0.0544901
0.0598229
0.0651157
0.070331
0.075437
0.080407
0.0852196
0.0898572
0.0943063
0.0985576
0.102605
0.106445
0.110078
0.113504
0.116726
0.119748
0.122574
0.125209
0.127658
0.129925
0.132013
0.133924
0.135658
0.137213
0.138582
0.139753
0.14071
0.141427
0.14186
0.14197
0.141689
0.140918
0.13953
0.13222
0.121066
0.109808
0.0986416
0.0877161
0.0771489
0.0670331
0.057445
0.0484492
0.040103
0.0324775
0.0255845
0.0195026
0.014283
0.00996693
0.00657416
0.00407612
0.00237357
0.00130382
0.000680859
0.00034078
0.000165013
7.80522e-05
3.61787e-05
1.64712e-05
7.37908e-06
3.25821e-06
1.42002e-06
6.11716e-07
2.60803e-07
1.10171e-07
4.61445e-08
1.9157e-08
7.86021e-09
3.15866e-09
1.21176e-09
4.07956e-10
7.26514e-11
4.6571e-07
2.03538e-06
4.67564e-06
9.1011e-06
1.6481e-05
2.87059e-05
4.87899e-05
8.14618e-05
0.000134002
0.000217376
0.000347684
0.000547849
0.000849334
0.00129343
0.0019314
0.00282267
0.00403044
0.0056149
0.00762539
0.0100936
0.0130299
0.0164232
0.0202443
0.0244501
0.0289886
0.0338027
0.0388336
0.0440231
0.049315
0.0546572
0.0600017
0.0653056
0.0705314
0.0756471
0.0806261
0.0854466
0.0900911
0.0945461
0.098802
0.102853
0.106695
0.110328
0.113754
0.116974
0.119992
0.122813
0.125442
0.127883
0.130141
0.132218
0.134117
0.135837
0.137375
0.138725
0.139876
0.140811
0.141504
0.141913
0.142001
0.1417
0.140907
0.139499
0.13009
0.118959
0.10773
0.0966065
0.0857399
0.0752478
0.0652227
0.0557395
0.0468616
0.0386452
0.0311687
0.024426
0.0185061
0.0134562
0.00931281
0.00608766
0.00374048
0.00216035
0.00117881
0.00061254
0.000305524
0.000147692
6.97914e-05
3.23342e-05
1.4719e-05
6.59498e-06
2.91293e-06
1.27012e-06
5.47445e-07
2.3354e-07
9.87141e-08
4.13691e-08
1.71825e-08
7.05223e-09
2.83433e-09
1.08753e-09
3.66562e-10
6.5465e-11
4.68315e-07
2.04675e-06
4.70169e-06
9.15169e-06
1.65725e-05
2.8865e-05
4.90603e-05
8.19134e-05
0.000134745
0.00021858
0.000349604
0.00055086
0.000853967
0.0013004
0.00194164
0.00283731
0.00405076
0.00564227
0.00766112
0.0101389
0.0130857
0.0164903
0.0203232
0.0245412
0.029092
0.0339186
0.0389618
0.0441634
0.0494671
0.0548207
0.0601759
0.06549
0.0707252
0.0758496
0.0808363
0.0856636
0.0903137
0.0947732
0.0990325
0.103085
0.106929
0.110562
0.113985
0.117202
0.120216
0.123032
0.125653
0.128086
0.130333
0.132398
0.134282
0.135986
0.137504
0.138832
0.139957
0.140861
0.141521
0.141892
0.141944
0.141611
0.140809
0.139459
0.128501
0.117262
0.105987
0.0948612
0.0840259
0.0735902
0.0636412
0.0542498
0.0454761
0.0373741
0.0300161
0.0234058
0.0176348
0.0127409
0.00875259
0.00567556
0.00345938
0.00198365
0.00107609
0.000556725
0.00027682
0.000133607
6.30742e-05
2.92059e-05
1.32916e-05
5.95529e-06
2.63079e-06
1.14742e-06
4.94743e-07
2.11148e-07
8.92885e-08
3.74347e-08
1.55536e-08
6.38495e-09
2.56623e-09
9.84774e-10
3.32315e-10
5.95289e-11
4.70709e-07
2.05719e-06
4.72566e-06
9.19828e-06
1.66568e-05
2.90121e-05
4.93108e-05
8.23326e-05
0.000135436
0.000219704
0.000351403
0.000553691
0.000858336
0.001307
0.00195136
0.00285125
0.00407017
0.00566847
0.00769539
0.0101824
0.0131393
0.0165548
0.0203991
0.0246288
0.0291915
0.0340299
0.0390847
0.0442976
0.0496123
0.0549762
0.0603413
0.0656645
0.070908
0.0760399
0.0810331
0.085866
0.0905207
0.0949836
0.0992451
0.103299
0.107142
0.110774
0.114195
0.117408
0.120418
0.123227
0.125841
0.128264
0.1305
0.132552
0.134421
0.136106
0.137602
0.138902
0.139992
0.140853
0.141456
0.14175
0.141702
0.141226
0.14022
0.138578
0.127294
0.115876
0.104515
0.0933647
0.0825453
0.0721547
0.0622721
0.0529633
0.0442851
0.0362883
0.0290321
0.022551
0.0169006
0.0121322
0.00827841
0.00533035
0.00322611
0.00183825
0.000992127
0.00051131
0.000253525
0.000122186
5.76273e-05
2.66677e-05
1.21324e-05
5.43519e-06
2.40109e-06
1.0474e-06
4.51723e-07
1.92844e-07
8.15743e-08
3.42108e-08
1.42175e-08
5.83711e-09
2.34598e-09
9.00306e-10
3.04152e-10
5.46572e-11
4.72892e-07
2.06672e-06
4.74752e-06
9.24082e-06
1.67339e-05
2.91467e-05
4.95405e-05
8.27179e-05
0.000136073
0.000220741
0.000353067
0.000556315
0.000862395
0.00131314
0.00196043
0.00286428
0.00408833
0.00569301
0.00772753
0.0102232
0.0131897
0.0166154
0.0204704
0.024711
0.0292847
0.0341339
0.0391994
0.0444227
0.0497472
0.0551205
0.0604943
0.0658254
0.0710762
0.0762144
0.0812132
0.0860506
0.0907088
0.0951741
0.0994371
0.103491
0.107334
0.110964
0.114382
0.117591
0.120595
0.123398
0.126004
0.128418
0.130643
0.132682
0.134536
0.136203
0.137677
0.13895
0.140007
0.140823
0.141363
0.141579
0.141417
0.140776
0.139525
0.137513
0.12609
0.114591
0.103194
0.0920429
0.08125
0.0709068
0.0610882
0.0518577
0.0432716
0.0353843
0.0282481
0.0218806
0.0163379
0.0116614
0.00789889
0.00504734
0.00303473
0.00171963
0.000923943
0.000474544
0.0002347
0.00011296
5.32265e-05
2.46159e-05
1.11946e-05
5.01401e-06
2.21489e-06
9.66223e-07
4.16771e-07
1.77957e-07
7.52932e-08
3.15833e-08
1.31277e-08
5.38993e-09
2.16608e-09
8.31287e-10
2.81141e-10
5.06808e-11
4.7485e-07
2.07527e-06
4.76715e-06
9.27905e-06
1.68033e-05
2.9268e-05
4.97476e-05
8.30657e-05
0.000136648
0.00022168
0.000354576
0.000558698
0.000866087
0.00131874
0.0019687
0.00287616
0.00410492
0.00571544
0.0077569
0.0102605
0.0132358
0.0166708
0.0205355
0.024786
0.0293696
0.0342286
0.0393037
0.0445361
0.0498694
0.0552509
0.0606322
0.0659702
0.0712271
0.0763706
0.0813738
0.0862147
0.0908755
0.0953425
0.0996062
0.10366
0.107501
0.111129
0.114544
0.117749
0.120748
0.123544
0.126143
0.128549
0.130764
0.132792
0.134633
0.136285
0.137742
0.138995
0.140028
0.140817
0.141322
0.141498
0.141287
0.140583
0.139248
0.136421
0.124937
0.11341
0.102014
0.0908831
0.080128
0.0698364
0.0600819
0.050925
0.0424191
0.0346127
0.027535
0.0212507
0.0158106
0.011256
0.00759699
0.00482514
0.00288115
0.00162359
0.000868845
0.000444905
0.000219546
0.000105535
4.96847e-05
2.29639e-05
1.04391e-05
4.67449e-06
2.06468e-06
9.00685e-07
3.88529e-07
1.65918e-07
7.02102e-08
2.94555e-08
1.22446e-08
5.02741e-09
2.0202e-09
7.75307e-10
2.62483e-10
4.74581e-11
4.76569e-07
2.08278e-06
4.78438e-06
9.31263e-06
1.68643e-05
2.93746e-05
4.99299e-05
8.33722e-05
0.000137156
0.000222509
0.00035591
0.000560807
0.000869356
0.00132369
0.00197603
0.00288671
0.00411964
0.00573534
0.00778297
0.0102936
0.0132766
0.0167199
0.0205931
0.0248523
0.0294446
0.0343122
0.0393956
0.044636
0.0499768
0.0553653
0.060753
0.0660967
0.0713586
0.0765063
0.081513
0.0863566
0.0910193
0.0954873
0.099751
0.103804
0.107644
0.111269
0.114681
0.117882
0.120876
0.123666
0.126259
0.128657
0.130864
0.132882
0.134713
0.136354
0.137799
0.13904
0.140061
0.14084
0.141339
0.141517
0.141322
0.140664
0.139427
0.135365
0.123879
0.112363
0.10099
0.0898953
0.079186
0.0689476
0.0592506
0.0501491
0.0416959
0.0339381
0.02693
0.0207203
0.0153584
0.0108822
0.00731336
0.0046355
0.00276033
0.00154753
0.000824692
0.00042112
0.000207406
9.95936e-05
4.68513e-05
2.16425e-05
9.83469e-06
4.40281e-06
1.94444e-06
8.4821e-07
3.65909e-07
1.56273e-07
6.61371e-08
2.77503e-08
1.15369e-08
4.73685e-09
1.90329e-09
7.30445e-10
2.47536e-10
4.48777e-11
4.78029e-07
2.08915e-06
4.79903e-06
9.34117e-06
1.69161e-05
2.94654e-05
5.00852e-05
8.36333e-05
0.000137589
0.000223217
0.000357049
0.000562609
0.000872151
0.00132793
0.0019823
0.00289574
0.00413224
0.00575238
0.00780528
0.0103219
0.0133115
0.0167618
0.0206423
0.0249089
0.0295086
0.0343834
0.0394738
0.0447208
0.0500679
0.0554621
0.060855
0.0662033
0.0714692
0.0766203
0.0816296
0.086475
0.0911389
0.0956073
0.0998708
0.103923
0.107761
0.111384
0.114792
0.117989
0.120979
0.123764
0.12635
0.128742
0.130942
0.132952
0.134774
0.136406
0.137843
0.139075
0.140089
0.140863
0.141361
0.141544
0.141365
0.140736
0.13955
0.134428
0.122955
0.111463
0.100122
0.0890624
0.0783889
0.0681871
0.0585257
0.0494697
0.0410702
0.0333753
0.0264302
0.0202861
0.0149917
0.0105843
0.00708375
0.00446832
0.00265207
0.00148604
0.000789925
0.000402353
0.0001978
9.48944e-05
4.46114e-05
2.05983e-05
9.35733e-06
4.18836e-06
1.8496e-06
8.06841e-07
3.48091e-07
1.48684e-07
6.29361e-08
2.64119e-08
1.09823e-08
4.50912e-09
1.81168e-09
6.95282e-10
2.35821e-10
4.2857e-11
4.79214e-07
2.09433e-06
4.81092e-06
9.36434e-06
1.69582e-05
2.95391e-05
5.02113e-05
8.38457e-05
0.000137941
0.000223793
0.000357976
0.000564076
0.000874428
0.00133139
0.00198742
0.00290309
0.00414251
0.00576627
0.00782347
0.010345
0.01334
0.016796
0.0206824
0.024955
0.0295606
0.0344413
0.0395373
0.0447896
0.0501416
0.0555403
0.0609373
0.0662891
0.071558
0.0767115
0.0817225
0.0865692
0.0912336
0.0957021
0.099965
0.104016
0.107852
0.111473
0.114878
0.118072
0.121057
0.123838
0.126419
0.128804
0.130997
0.133001
0.134816
0.13644
0.137869
0.139094
0.1401
0.140868
0.141363
0.141546
0.14137
0.140751
0.13958
0.133681
0.122206
0.110725
0.0994008
0.0883659
0.0777242
0.0675597
0.057942
0.0489304
0.0405773
0.0329311
0.0260361
0.0199447
0.0147045
0.0103523
0.00690594
0.00434067
0.00256707
0.00143374
0.000761864
0.000387605
0.0001903
9.12306e-05
4.28703e-05
1.97902e-05
8.98953e-06
4.02382e-06
1.77712e-06
7.75346e-07
3.34564e-07
1.42933e-07
6.05127e-08
2.5399e-08
1.05625e-08
4.33697e-09
1.74234e-09
6.68646e-10
2.26946e-10
4.13275e-11
4.80111e-07
2.09825e-06
4.81991e-06
9.38188e-06
1.69901e-05
2.95949e-05
5.03068e-05
8.40065e-05
0.000138208
0.000224229
0.000358679
0.000565188
0.000876155
0.00133401
0.0019913
0.00290868
0.0041503
0.0057768
0.00783727
0.0103625
0.0133616
0.0168219
0.0207128
0.0249899
0.0296
0.034485
0.0395853
0.0448415
0.0501972
0.0555993
0.0609992
0.0663536
0.0716245
0.0767795
0.0817917
0.0866389
0.0913035
0.0957716
0.100034
0.104084
0.107918
0.111536
0.11494
0.11813
0.121111
0.123888
0.126464
0.128845
0.131032
0.13303
0.134838
0.136455
0.137877
0.139095
0.140095
0.140857
0.141347
0.141528
0.141354
0.140742
0.139588
0.133125
0.121641
0.110163
0.0988538
0.0878406
0.0772252
0.0670904
0.0575049
0.0485274
0.0402099
0.0326006
0.0257437
0.0196918
0.0144926
0.0101818
0.00677614
0.00424833
0.00250613
0.00139641
0.000740346
0.000376528
0.000184753
8.85546e-05
4.16073e-05
1.92053e-05
8.72376e-06
3.90508e-06
1.72485e-06
7.52642e-07
3.24817e-07
1.38791e-07
5.87683e-08
2.46703e-08
1.02606e-08
4.21329e-09
1.69252e-09
6.49513e-10
2.20571e-10
4.02301e-11
4.80711e-07
2.10087e-06
4.82593e-06
9.3936e-06
1.70114e-05
2.96321e-05
5.03705e-05
8.41136e-05
0.000138386
0.00022452
0.000359146
0.000565928
0.000877303
0.00133575
0.00199388
0.00291239
0.00415549
0.00578382
0.00784646
0.0103742
0.013376
0.0168392
0.0207331
0.0250132
0.0296264
0.0345143
0.0396173
0.0448763
0.0502344
0.0556386
0.0610404
0.0663964
0.0716686
0.0768245
0.0818371
0.0866845
0.0913488
0.0958165
0.100078
0.104127
0.10796
0.111576
0.114977
0.118165
0.121144
0.123917
0.12649
0.128866
0.131049
0.133042
0.134844
0.136456
0.137872
0.139083
0.140077
0.140834
0.14132
0.141499
0.141327
0.140724
0.139588
0.132754
0.121256
0.10978
0.0984808
0.0874833
0.076887
0.0667736
0.0572109
0.0482573
0.0399643
0.0323803
0.0255493
0.0195243
0.0143525
0.0100696
0.00669109
0.00418816
0.00246668
0.00137236
0.000726587
0.000369034
0.000181042
8.67839e-05
4.07782e-05
1.88241e-05
8.55129e-06
3.8282e-06
1.69105e-06
7.37973e-07
3.18522e-07
1.36117e-07
5.76425e-08
2.42001e-08
1.00659e-08
4.13353e-09
1.6604e-09
6.37174e-10
2.16461e-10
3.95226e-11
4.8101e-07
2.10217e-06
4.82891e-06
9.39939e-06
1.70218e-05
2.96504e-05
5.04016e-05
8.41656e-05
0.000138472
0.00022466
0.000359371
0.000566283
0.000877852
0.00133659
0.00199511
0.00291416
0.00415797
0.00578718
0.00785087
0.0103798
0.0133829
0.0168475
0.0207429
0.0250246
0.0296392
0.0345286
0.039633
0.0448932
0.0502526
0.0556579
0.0610607
0.0664174
0.0716902
0.0768465
0.0818593
0.0867065
0.0913705
0.0958377
0.100099
0.104147
0.107979
0.111594
0.114994
0.11818
0.121157
0.123929
0.126499
0.128873
0.131053
0.133042
0.134842
0.136449
0.137861
0.139068
0.140058
0.14081
0.141293
0.14147
0.1413
0.140704
0.139587
0.13257
0.121058
0.109581
0.0982869
0.0872984
0.0767133
0.066612
0.0570621
0.0481215
0.0398417
0.0322711
0.0254536
0.0194424
0.0142845
0.0100155
0.00665037
0.00415956
0.00244806
0.00136108
0.000720158
0.000365549
0.000179264
8.59224e-05
4.03739e-05
1.86385e-05
8.46752e-06
3.79097e-06
1.67473e-06
7.309e-07
3.1549e-07
1.3483e-07
5.71003e-08
2.39736e-08
9.97193e-09
4.095e-09
1.64487e-09
6.31203e-10
2.14467e-10
3.91788e-11
4.81019e-07
2.10221e-06
4.82901e-06
9.39958e-06
1.70222e-05
2.9651e-05
5.04026e-05
8.41673e-05
0.000138475
0.000224664
0.000359378
0.000566294
0.000877869
0.00133661
0.00199514
0.00291421
0.00415804
0.00578727
0.00785098
0.0103799
0.013383
0.0168477
0.0207431
0.0250248
0.0296394
0.0345288
0.0396332
0.0448935
0.0502528
0.0556582
0.0610609
0.0664177
0.0716904
0.0768467
0.0818595
0.0867068
0.0913707
0.0958379
0.100099
0.104147
0.107979
0.111595
0.114994
0.118181
0.121158
0.123929
0.126499
0.128873
0.131053
0.133043
0.134842
0.136449
0.137861
0.139068
0.140058
0.14081
0.141293
0.141471
0.1413
0.140704
0.139587
0.132569
0.121058
0.10958
0.0982862
0.0872977
0.0767126
0.0666114
0.0570616
0.048121
0.0398413
0.0322707
0.0254533
0.019442
0.0142842
0.0100152
0.00665019
0.00415943
0.00244797
0.00136102
0.000720127
0.000365532
0.000179256
8.59183e-05
4.0372e-05
1.86376e-05
8.46715e-06
3.7908e-06
1.67465e-06
7.30868e-07
3.15477e-07
1.34824e-07
5.70979e-08
2.39725e-08
9.9715e-09
4.09483e-09
1.6448e-09
6.31176e-10
2.14458e-10
3.91773e-11
4.80739e-07
2.10099e-06
4.82621e-06
9.39416e-06
1.70124e-05
2.96339e-05
5.03735e-05
8.41185e-05
0.000138394
0.000224533
0.000359167
0.00056596
0.000877351
0.00133582
0.00199398
0.00291253
0.00415569
0.00578408
0.00784678
0.0103746
0.0133764
0.0168397
0.0207337
0.0250139
0.029627
0.034515
0.0396181
0.044877
0.0502352
0.0556394
0.0610412
0.0663972
0.0716694
0.0768252
0.0818379
0.0866852
0.0913495
0.0958172
0.100078
0.104127
0.10796
0.111577
0.114978
0.118166
0.121144
0.123918
0.12649
0.128866
0.131049
0.133042
0.134845
0.136456
0.137872
0.139084
0.140078
0.140834
0.14132
0.141499
0.141327
0.140724
0.139588
0.132751
0.121254
0.109777
0.0984786
0.0874811
0.076885
0.0667717
0.0572092
0.0482557
0.0399629
0.032379
0.0255482
0.0195233
0.0143516
0.0100689
0.00669055
0.00418778
0.00246643
0.00137221
0.000726504
0.000368991
0.000181022
8.67741e-05
4.07737e-05
1.88221e-05
8.55036e-06
3.82778e-06
1.69087e-06
7.37893e-07
3.18488e-07
1.36103e-07
5.76362e-08
2.41975e-08
1.00647e-08
4.13307e-09
1.66022e-09
6.37103e-10
2.16433e-10
3.95181e-11
4.80158e-07
2.09845e-06
4.82039e-06
9.38281e-06
1.69918e-05
2.95978e-05
5.03118e-05
8.40147e-05
0.000138222
0.000224251
0.000358713
0.000565242
0.000876236
0.00133413
0.00199147
0.00290892
0.00415064
0.00577724
0.00783781
0.0103632
0.0133623
0.0168228
0.0207138
0.024991
0.0296012
0.0344863
0.0395865
0.0448429
0.0501986
0.0556006
0.0610005
0.0663549
0.0716258
0.0767808
0.0817929
0.0866402
0.0913047
0.0957728
0.100035
0.104085
0.107919
0.111537
0.11494
0.118131
0.121112
0.123889
0.126465
0.128845
0.131033
0.133031
0.134839
0.136456
0.137878
0.139095
0.140096
0.140857
0.141348
0.141528
0.141354
0.140742
0.139588
0.13312
0.121636
0.110159
0.0988499
0.0878369
0.0772217
0.0670872
0.057502
0.0485247
0.0402074
0.0325984
0.0257417
0.0196901
0.0144911
0.0101806
0.0067752
0.00424765
0.00250569
0.00139614
0.000740201
0.000376453
0.000184717
8.85371e-05
4.15991e-05
1.92015e-05
8.72205e-06
3.90432e-06
1.72451e-06
7.52497e-07
3.24755e-07
1.38765e-07
5.87572e-08
2.46657e-08
1.02587e-08
4.2125e-09
1.69221e-09
6.49391e-10
2.20524e-10
4.02224e-11
4.79279e-07
2.09462e-06
4.81157e-06
9.36562e-06
1.69605e-05
2.95431e-05
5.02182e-05
8.3857e-05
0.00013796
0.000223823
0.000358024
0.00056415
0.000874541
0.00133156
0.00198766
0.00290343
0.00414297
0.00576686
0.00782422
0.0103459
0.0133411
0.0167972
0.0206838
0.0249565
0.0295623
0.034443
0.0395391
0.0447915
0.0501435
0.0555422
0.0609392
0.0662911
0.0715599
0.0767133
0.0817244
0.086571
0.0912354
0.0957038
0.0999666
0.104018
0.107854
0.111474
0.11488
0.118073
0.121058
0.123839
0.12642
0.128805
0.130998
0.133002
0.134817
0.136441
0.13787
0.139094
0.140101
0.140869
0.141364
0.141546
0.141371
0.140751
0.13958
0.133675
0.122199
0.110719
0.0993951
0.0883606
0.0777193
0.0675552
0.0579378
0.0489266
0.0405738
0.0329279
0.0260333
0.0199422
0.0147024
0.0103506
0.00690464
0.00433974
0.00256644
0.00143336
0.000761654
0.000387498
0.000190247
9.12054e-05
4.28585e-05
1.97847e-05
8.9871e-06
4.02275e-06
1.77665e-06
7.75144e-07
3.34478e-07
1.42897e-07
6.04974e-08
2.53926e-08
1.05598e-08
4.33587e-09
1.7419e-09
6.68477e-10
2.2688e-10
4.13168e-11
4.78112e-07
2.08952e-06
4.79986e-06
9.34279e-06
1.6919e-05
2.94705e-05
5.00938e-05
8.36477e-05
0.000137613
0.000223255
0.000357109
0.000562702
0.000872293
0.00132815
0.00198261
0.00289616
0.00413282
0.00575314
0.00780624
0.0103231
0.0133129
0.0167634
0.0206441
0.0249109
0.0295107
0.0343857
0.0394762
0.0447232
0.0500704
0.0554646
0.0608575
0.0662058
0.0714717
0.0766227
0.0816319
0.0864774
0.0911411
0.0956095
0.0998729
0.103925
0.107763
0.111386
0.114794
0.117991
0.12098
0.123766
0.126352
0.128743
0.130943
0.132953
0.134775
0.136407
0.137844
0.139076
0.14009
0.140863
0.141361
0.141544
0.141365
0.140736
0.139551
0.13442
0.122947
0.111455
0.100115
0.0890553
0.0783824
0.0681811
0.0585203
0.0494647
0.0410657
0.0333713
0.0264266
0.0202829
0.0149889
0.0105821
0.00708197
0.00446704
0.00265126
0.00148557
0.000789669
0.000402218
0.000197732
9.48613e-05
4.45959e-05
2.05911e-05
9.35413e-06
4.18695e-06
1.84898e-06
8.06576e-07
3.47978e-07
1.48637e-07
6.29163e-08
2.64036e-08
1.09789e-08
4.50772e-09
1.81113e-09
6.95065e-10
2.35737e-10
4.28432e-11
4.76669e-07
2.08321e-06
4.78539e-06
9.31458e-06
1.68678e-05
2.93808e-05
4.99403e-05
8.33895e-05
0.000137185
0.000222555
0.000355982
0.00056092
0.000869528
0.00132395
0.0019764
0.00288723
0.00412034
0.00573626
0.00778414
0.010295
0.0132783
0.0167218
0.0205953
0.0248547
0.0294472
0.0343149
0.0393985
0.0446389
0.0499798
0.0553683
0.060756
0.0660997
0.0713616
0.0765093
0.0815159
0.0863595
0.0910221
0.09549
0.0997537
0.103807
0.107646
0.111272
0.114683
0.117884
0.120878
0.123668
0.12626
0.128658
0.130865
0.132884
0.134714
0.136355
0.1378
0.139041
0.140062
0.14084
0.141339
0.141518
0.141323
0.140665
0.13943
0.135354
0.123869
0.112353
0.100981
0.0898869
0.0791781
0.0689404
0.0592439
0.050143
0.0416905
0.0339333
0.0269255
0.0207163
0.0153549
0.0108793
0.00731116
0.00463397
0.00275937
0.00154699
0.000824386
0.000420955
0.000207322
9.95525e-05
4.68319e-05
2.16336e-05
9.83068e-06
4.40104e-06
1.94367e-06
8.47879e-07
3.65768e-07
1.56214e-07
6.61123e-08
2.774e-08
1.15326e-08
4.73513e-09
1.90262e-09
7.30181e-10
2.47434e-10
4.48608e-11
4.74967e-07
2.07578e-06
4.76832e-06
9.28133e-06
1.68074e-05
2.92752e-05
4.97598e-05
8.30859e-05
0.000136682
0.000221734
0.000354661
0.00055883
0.000866287
0.00131903
0.00196913
0.00287677
0.00410574
0.00571651
0.00775827
0.0102622
0.0132377
0.0166731
0.020538
0.0247888
0.0293726
0.0342318
0.0393071
0.0445396
0.049873
0.0552545
0.0606359
0.0659739
0.0712307
0.0763742
0.0813773
0.0862181
0.0908789
0.0953458
0.0996093
0.103663
0.107504
0.111132
0.114547
0.117751
0.12075
0.123546
0.126145
0.128551
0.130766
0.132794
0.134634
0.136286
0.137743
0.138996
0.140029
0.140818
0.141323
0.141499
0.141288
0.140584
0.139248
0.136406
0.124925
0.113399
0.102003
0.0908731
0.0801185
0.0698275
0.0600736
0.0509174
0.0424123
0.0346066
0.0275297
0.0212462
0.0158068
0.011253
0.00759479
0.00482364
0.00288009
0.00162287
0.000868437
0.000444691
0.00021944
0.000105485
4.96614e-05
2.29533e-05
1.04343e-05
4.6724e-06
2.06377e-06
9.00294e-07
3.88362e-07
1.65848e-07
7.01809e-08
2.94434e-08
1.22396e-08
5.02539e-09
2.01941e-09
7.74997e-10
2.62363e-10
4.74383e-11
4.73025e-07
2.0673e-06
4.74885e-06
9.24342e-06
1.67386e-05
2.91549e-05
4.95544e-05
8.2741e-05
0.000136111
0.000220802
0.000353164
0.000556465
0.000862624
0.00131348
0.00196092
0.00286497
0.00408927
0.00569424
0.00772909
0.0102251
0.013192
0.0166181
0.0204734
0.0247143
0.0292882
0.0341376
0.0392034
0.0444267
0.0497514
0.0551247
0.0604986
0.0658297
0.0710805
0.0762186
0.0812173
0.0860546
0.0907127
0.0951779
0.0994407
0.103495
0.107337
0.110967
0.114385
0.117594
0.120598
0.1234
0.126006
0.12842
0.130645
0.132684
0.134538
0.136204
0.137679
0.138951
0.140007
0.140824
0.141363
0.141578
0.141416
0.140773
0.139518
0.1375
0.126078
0.114579
0.103183
0.0920316
0.0812392
0.0708965
0.0610786
0.0518489
0.0432636
0.0353773
0.0282418
0.0218753
0.0163336
0.0116581
0.00789622
0.00504522
0.00303328
0.00171876
0.000923458
0.000474294
0.000234578
0.000112902
5.31994e-05
2.46035e-05
1.1189e-05
5.01157e-06
2.21383e-06
9.65768e-07
4.16578e-07
1.77876e-07
7.52594e-08
3.15693e-08
1.31219e-08
5.38761e-09
2.16518e-09
8.30933e-10
2.81005e-10
5.06581e-11
4.70859e-07
2.05785e-06
4.72716e-06
9.2012e-06
1.66621e-05
2.90213e-05
4.93264e-05
8.23586e-05
0.000135479
0.000219772
0.000351512
0.00055386
0.000858593
0.00130738
0.00195192
0.00285203
0.00407123
0.00566985
0.00769715
0.0101845