/*--------------------------------*- C++ -*----------------------------------*\
  =========                 |
  \\      /  F ield         | OpenFOAM: The Open Source CFD Toolbox
   \\    /   O peration     | Website:  https://openfoam.org
    \\  /    A nd           | Version:  8
     \\/     M anipulation  |
\*---------------------------------------------------------------------------*/
FoamFile
{
    version     2.0;
    format      ascii;
    class       volScalarField;
    location    "320/fluid";
    object      H2O;
}
// * * * * * * * * * * * * * * * * * * * * * * * * * * * * * * * * * * * * * //

dimensions      [0 0 0 0 0 0 0];

internalField   nonuniform List<scalar> 
4000
(
3.44653e-07
1.50535e-06
3.45384e-06
6.71232e-06
1.21357e-05
2.11097e-05
3.5855e-05
5.98801e-05
9.86392e-05
0.000160445
0.00025767
0.00040821
0.000637047
0.000977545
0.00147186
0.00216972
0.00312482
0.00438894
0.00600481
0.00799969
0.0103817
0.01314
0.0162483
0.0196689
0.0233562
0.0272607
0.0313327
0.035524
0.0397891
0.0440862
0.0483779
0.0526312
0.0568174
0.060912
0.0648951
0.068751
0.0724673
0.0760346
0.0794467
0.0826995
0.0857915
0.0887224
0.0914936
0.0941076
0.0965675
0.0988772
0.101041
0.103062
0.104944
0.106692
0.108307
0.10979
0.111141
0.112357
0.113434
0.114364
0.115132
0.115722
0.116105
0.11625
0.116118
0.115647
0.114765
0.113396
0.104752
0.0959186
0.0870559
0.0782885
0.0697138
0.0614097
0.0534399
0.0458581
0.038712
0.0320462
0.0259359
0.0203617
0.0154154
0.0111531
0.00762961
0.00488287
0.00290189
0.00159979
0.00082316
0.000399407
0.000186779
8.49513e-05
3.78053e-05
1.65335e-05
7.12914e-06
3.03859e-06
1.28278e-06
5.37265e-07
2.2352e-07
9.24326e-08
3.79776e-08
1.54572e-08
6.17438e-09
2.35628e-09
7.86571e-10
1.37891e-10
3.49082e-07
1.52544e-06
3.50312e-06
6.81638e-06
1.2341e-05
2.14974e-05
3.65607e-05
6.11211e-05
0.000100745
0.000163884
0.000263061
0.000416282
0.000648522
0.00099293
0.00149116
0.00219208
0.00314838
0.00441087
0.00602175
0.00800854
0.0103806
0.0131288
0.0162269
0.019637
0.023315
0.027213
0.0312822
0.0354743
0.0397435
0.0440476
0.0483479
0.0526104
0.0568058
0.0609101
0.0649035
0.0687697
0.072496
0.0760727
0.0794934
0.0827539
0.0858525
0.0887892
0.0915651
0.0941829
0.0966457
0.0989574
0.101122
0.103144
0.105026
0.106773
0.108385
0.109866
0.111213
0.112425
0.113495
0.114415
0.115169
0.115738
0.116089
0.116185
0.115975
0.11538
0.114304
0.112643
0.103844
0.0949062
0.0859725
0.0771556
0.0685464
0.0602197
0.0522378
0.0446546
0.0375189
0.0308777
0.0248077
0.0192991
0.0144469
0.0103095
0.00694068
0.00436731
0.00255595
0.00139418
0.000714655
0.000347869
0.000163832
7.52035e-05
3.38028e-05
1.49277e-05
6.49384e-06
2.78894e-06
1.18481e-06
4.98736e-07
2.08311e-07
8.64076e-08
3.55882e-08
1.45134e-08
5.80724e-09
2.21956e-09
7.42046e-10
1.30305e-10
3.55732e-07
1.55499e-06
3.57304e-06
6.95747e-06
1.26057e-05
2.19723e-05
3.73836e-05
6.25027e-05
0.000102994
0.000167431
0.000268467
0.000424229
0.000659756
0.00100814
0.0015108
0.00221618
0.00317623
0.00444095
0.00605173
0.00803555
0.0104016
0.0131411
0.0162299
0.0196321
0.023304
0.0271979
0.0312649
0.0354569
0.0397282
0.0440366
0.0483436
0.0526154
0.0568222
0.0609391
0.0649453
0.0688244
0.0725633
0.076152
0.0795838
0.0828546
0.0859623
0.0889068
0.0916894
0.0943126
0.0967796
0.0990943
0.101261
0.103283
0.105165
0.10691
0.10852
0.109996
0.111338
0.112543
0.113605
0.114513
0.115252
0.1158
0.116118
0.11617
0.115886
0.115165
0.11386
0.111113
0.1022
0.0931838
0.0841985
0.0753526
0.066735
0.0584194
0.0504683
0.0429367
0.0358755
0.0293344
0.0233704
0.018018
0.0133485
0.00941625
0.00626395
0.0038988
0.00226349
0.00122975
0.000630375
0.000307782
0.000145534
6.71101e-05
3.03067e-05
1.34446e-05
5.87303e-06
2.53155e-06
1.07878e-06
4.55222e-07
1.90492e-07
7.91222e-08
3.2617e-08
1.33094e-08
5.32745e-09
2.03689e-09
6.81406e-10
1.19802e-10
3.61507e-07
1.58025e-06
3.63116e-06
7.07061e-06
1.28097e-05
2.23237e-05
3.79684e-05
6.34478e-05
0.000104479
0.000169702
0.000271841
0.000429094
0.000666547
0.0010173
0.00152267
0.0022309
0.00319366
0.00446056
0.00607267
0.00805678
0.010422
0.0131599
0.0162465
0.0196463
0.0233165
0.0272099
0.0312781
0.0354735
0.0397503
0.044066
0.0483821
0.0526642
0.0568823
0.0610112
0.0650298
0.0689214
0.0726726
0.0762731
0.079716
0.0829969
0.0861137
0.0890661
0.0918554
0.094484
0.0969551
0.0992725
0.10144
0.103463
0.105343
0.107086
0.108692
0.110163
0.111498
0.112694
0.113746
0.114644
0.115372
0.115909
0.116218
0.116268
0.116
0.115334
0.114164
0.108966
0.100059
0.091037
0.0820501
0.0732156
0.0646269
0.0563602
0.0484794
0.0410405
0.034095
0.0277026
0.0218894
0.0167224
0.0122567
0.00854075
0.00560672
0.00344445
0.00197741
0.00106577
0.000543956
0.000265303
0.000125623
5.80792e-05
2.63151e-05
1.1717e-05
5.13815e-06
2.22336e-06
9.50966e-07
4.02672e-07
1.69023e-07
7.03935e-08
2.90845e-08
1.18899e-08
4.76613e-09
1.8244e-09
6.11077e-10
1.07619e-10
3.66343e-07
1.60134e-06
3.67947e-06
7.16423e-06
1.29782e-05
2.2614e-05
3.84543e-05
6.42417e-05
0.000105747
0.00017168
0.000274854
0.00043356
0.000672975
0.00102625
0.0015347
0.00224646
0.00321299
0.00448362
0.00609916
0.00808617
0.0104538
0.0131935
0.0162818
0.0196835
0.0233559
0.0272525
0.0313251
0.0355259
0.0398096
0.0441334
0.0484588
0.0527511
0.0569801
0.0611205
0.0651508
0.0690541
0.0728167
0.0764281
0.0798812
0.0831713
0.0862963
0.0892557
0.0920508
0.0946838
0.097158
0.0994771
0.101645
0.103667
0.105545
0.107283
0.108883
0.110346
0.111672
0.112856
0.113894
0.114774
0.115481
0.115995
0.116279
0.116306
0.11602
0.115344
0.114185
0.106717
0.0978169
0.0887907
0.0798091
0.0709985
0.0624558
0.0542582
0.0464693
0.0391443
0.0323338
0.0261123
0.020472
0.0154983
0.0112407
0.00774084
0.0050188
0.00304721
0.0017327
0.000927923
0.000472101
0.000230138
0.000109101
5.05382e-05
2.29506e-05
1.02431e-05
4.50226e-06
1.95244e-06
8.3676e-07
3.54946e-07
1.49223e-07
6.22307e-08
2.57404e-08
1.05319e-08
4.22448e-09
1.61794e-09
5.42409e-10
9.56894e-11
3.70255e-07
1.61835e-06
3.71825e-06
7.23895e-06
1.31117e-05
2.28428e-05
3.88351e-05
6.48611e-05
0.000106734
0.000173219
0.000277203
0.000437063
0.000678073
0.00103347
0.00154466
0.00225977
0.00323023
0.00450529
0.00612557
0.0081175
0.0104901
0.0132349
0.0163283
0.0197353
0.0234136
0.0273165
0.031396
0.0356046
0.0398967
0.0442298
0.048565
0.0528677
0.0571075
0.0612588
0.0653
0.0692141
0.072987
0.076608
0.0800699
0.083368
0.0864998
0.089465
0.0922645
0.0949006
0.0973766
0.0996962
0.101863
0.103882
0.105756
0.107488
0.109081
0.110534
0.111847
0.113015
0.114031
0.114884
0.115557
0.116024
0.116249
0.116202
0.115822
0.115041
0.113808
0.104906
0.0958026
0.0866731
0.0776542
0.0688536
0.0603575
0.052236
0.0445485
0.0373471
0.0306797
0.0246185
0.0191558
0.0143744
0.0103187
0.00702372
0.00449825
0.00269927
0.00151976
0.000808034
0.000409251
0.000199165
9.44e-05
4.37611e-05
1.98999e-05
8.89699e-06
3.91822e-06
1.70264e-06
7.31179e-07
3.1076e-07
1.3088e-07
5.46679e-08
2.26427e-08
9.27435e-09
3.72292e-09
1.42676e-09
4.78814e-10
8.46402e-11
3.7355e-07
1.6327e-06
3.75098e-06
7.30212e-06
1.32249e-05
2.30377e-05
3.91617e-05
6.53971e-05
0.000107597
0.000174584
0.000279318
0.000440273
0.000682834
0.00104036
0.00155435
0.00227303
0.00324784
0.00452796
0.00615392
0.00815203
0.0105312
0.0132828
0.0163834
0.0197979
0.023484
0.0273952
0.0314834
0.0357012
0.0400029
0.0443461
0.0486916
0.0530047
0.0572551
0.0614167
0.0654681
0.0693919
0.0731739
0.0768033
0.0802727
0.0835773
0.0867146
0.089684
0.0924865
0.0951245
0.097601
0.0999197
0.102085
0.1041
0.105968
0.107694
0.109277
0.110719
0.112017
0.113167
0.114159
0.114981
0.11561
0.116012
0.116148
0.115959
0.115348
0.114178
0.112256
0.103088
0.0938322
0.0846295
0.075594
0.0668188
0.0583809
0.0503444
0.0427646
0.0356905
0.0291685
0.0232461
0.0179597
0.0133634
0.00949853
0.00639414
0.00404803
0.00240298
0.00134096
0.000708433
0.000357371
0.000173657
8.22792e-05
3.81548e-05
1.73638e-05
7.77122e-06
3.42654e-06
1.49089e-06
6.41078e-07
2.72813e-07
1.15036e-07
4.81017e-08
1.99414e-08
8.17367e-09
3.28263e-09
1.25855e-09
4.22788e-10
7.49035e-11
3.76402e-07
1.64512e-06
3.77934e-06
7.35689e-06
1.33233e-05
2.32073e-05
3.94467e-05
6.58666e-05
0.000108357
0.000175794
0.00028121
0.000443177
0.000687198
0.00104677
0.00156354
0.00228585
0.00326521
0.00455082
0.00618314
0.00818836
0.0105752
0.0133351
0.0164443
0.0198677
0.0235631
0.0274838
0.0315819
0.0358097
0.0401217
0.0444751
0.048831
0.0531543
0.0574147
0.061586
0.0656467
0.0695791
0.073369
0.0770056
0.0804812
0.0837909
0.0869322
0.0899045
0.0927088
0.0953473
0.097823
0.10014
0.102301
0.104312
0.106174
0.107892
0.109466
0.110897
0.112182
0.113316
0.11429
0.115088
0.11569
0.116058
0.116156
0.115922
0.115262
0.114049
0.110274
0.101086
0.0918221
0.0826313
0.0736297
0.0649099
0.0565472
0.048604
0.0411338
0.0341846
0.0278013
0.0220236
0.0168986
0.012472
0.00878135
0.0058494
0.00366317
0.00215271
0.00119135
0.000625558
0.000314276
0.000152443
7.21712e-05
3.34638e-05
1.52343e-05
6.82265e-06
3.01092e-06
1.31137e-06
5.6449e-07
2.4048e-07
1.01508e-07
4.24854e-08
1.76273e-08
7.22949e-09
2.90453e-09
1.11398e-09
3.74623e-10
6.65363e-11
3.78952e-07
1.65623e-06
3.80474e-06
7.40608e-06
1.34118e-05
2.33606e-05
3.97055e-05
6.62955e-05
0.000109056
0.000176916
0.000282981
0.000445921
0.000691367
0.00105297
0.00157252
0.00229852
0.00328258
0.00457393
0.006213
0.00822584
0.0106211
0.0133899
0.0165084
0.0199417
0.023647
0.0275779
0.0316863
0.0359246
0.0402469
0.0446106
0.0489765
0.0533096
0.0575794
0.0617596
0.0658285
0.0697685
0.0735653
0.0772077
0.0806882
0.0840018
0.087146
0.0901199
0.0929247
0.0955625
0.0980364
0.10035
0.102507
0.104512
0.106368
0.108078
0.109643
0.111062
0.112335
0.113456
0.114415
0.115198
0.115785
0.11614
0.116229
0.115999
0.115369
0.114232
0.108247
0.0991158
0.0898991
0.080757
0.0718124
0.0631611
0.0548794
0.0470297
0.039665
0.032832
0.0265891
0.0209458
0.0159666
0.0116934
0.00815984
0.00538221
0.00333708
0.00194322
0.00106743
0.000557414
0.000278993
0.000135095
6.39006e-05
2.96192e-05
1.34848e-05
6.04119e-06
2.66747e-06
1.16255e-06
5.00807e-07
2.13517e-07
9.01962e-08
3.77781e-08
1.56837e-08
6.43509e-09
2.58596e-09
9.92053e-10
3.3399e-10
5.9479e-11
3.81272e-07
1.66635e-06
3.82791e-06
7.45099e-06
1.34929e-05
2.35012e-05
3.99439e-05
6.66921e-05
0.000109706
0.000177964
0.000284646
0.000448519
0.000695343
0.00105892
0.00158122
0.00231089
0.00329968
0.00459687
0.00624284
0.00826354
0.0106674
0.0134455
0.0165738
0.0200171
0.0237327
0.027674
0.0317928
0.0360413
0.0403738
0.0447474
0.0491228
0.0534651
0.0577434
0.0619316
0.0660079
0.0699544
0.0737568
0.077404
0.0808883
0.0842046
0.0873504
0.0903249
0.0931292
0.0957653
0.0982365
0.100546
0.102698
0.104697
0.106545
0.108246
0.1098
0.111208
0.112468
0.113573
0.114515
0.115281
0.115848
0.116183
0.116255
0.116008
0.11536
0.114207
0.106504
0.0973906
0.0881979
0.0790909
0.0701945
0.0616047
0.0533972
0.0456335
0.0383652
0.0316385
0.0255176
0.0199974
0.0151508
0.0110165
0.00762432
0.00498392
0.0030623
0.00176866
0.000965085
0.000501481
0.00025013
0.000120914
5.71376e-05
2.64717e-05
1.20503e-05
5.39925e-06
2.38479e-06
1.03984e-06
4.48188e-07
1.91198e-07
8.08164e-08
3.38685e-08
1.40672e-08
5.7736e-09
2.32044e-09
8.90352e-10
3.00101e-10
5.35956e-11
3.83405e-07
1.67565e-06
3.84923e-06
7.49241e-06
1.35677e-05
2.36315e-05
4.01653e-05
6.70618e-05
0.000110314
0.000178949
0.000286218
0.000450984
0.000699135
0.00106463
0.0015896
0.00232288
0.00331632
0.00461927
0.00627209
0.00830061
0.0107131
0.0135004
0.0166384
0.0200916
0.0238174
0.0277689
0.0318977
0.0361562
0.0404983
0.0448812
0.0492655
0.0536161
0.0579021
0.0620974
0.06618
0.070132
0.0739391
0.07759
0.081077
0.0843951
0.0875416
0.0905158
0.0933186
0.0959523
0.0984199
0.100725
0.102871
0.104863
0.106703
0.108393
0.109936
0.11133
0.112574
0.113661
0.114581
0.115322
0.115862
0.116166
0.116208
0.115936
0.115279
0.114174
0.105203
0.096001
0.0867705
0.0776621
0.0687913
0.0602477
0.0521025
0.0444138
0.0372309
0.0305978
0.0245739
0.0191621
0.0144374
0.0104309
0.00716566
0.00464653
0.00283217
0.00162399
0.000880984
0.000455786
0.00022663
0.000109383
5.16383e-05
2.39106e-05
1.08817e-05
4.87554e-06
2.1538e-06
9.39382e-07
4.05042e-07
1.72865e-07
7.30997e-08
3.06474e-08
1.27336e-08
5.2273e-09
2.10095e-09
8.06226e-10
2.72063e-10
4.87358e-11
3.85366e-07
1.68421e-06
3.86885e-06
7.53055e-06
1.36368e-05
2.37519e-05
4.03703e-05
6.7405e-05
0.00011088
0.000179869
0.000287691
0.000453302
0.000702712
0.00107003
0.00159756
0.00233429
0.00333221
0.00464072
0.00630015
0.00833622
0.0107571
0.0135533
0.0167006
0.0201634
0.0238988
0.0278599
0.0319983
0.036266
0.0406171
0.0450085
0.0494009
0.0537589
0.0580518
0.0622532
0.0663411
0.0702977
0.0741085
0.0777622
0.0812511
0.0845701
0.0877165
0.0906897
0.0934906
0.0961212
0.0985847
0.100885
0.103025
0.105009
0.106839
0.108519
0.110049
0.111428
0.112653
0.113718
0.114611
0.115315
0.115808
0.116049
0.11601
0.115621
0.114797
0.113453
0.104215
0.0948666
0.0855658
0.0764368
0.0675791
0.0590724
0.0509816
0.0433606
0.0362558
0.0297089
0.0237683
0.0184623
0.0138364
0.00993251
0.00677746
0.00436391
0.00264119
0.00150496
0.000812245
0.000418605
0.000207559
0.000100032
4.7179e-05
2.18326e-05
9.9327e-06
4.44974e-06
1.96575e-06
8.57494e-07
3.69822e-07
1.5788e-07
6.67841e-08
2.80081e-08
1.16397e-08
4.77879e-09
1.92063e-09
7.37072e-10
2.49007e-10
4.47474e-11
3.87152e-07
1.69201e-06
3.88675e-06
7.56538e-06
1.36999e-05
2.38622e-05
4.05584e-05
6.77204e-05
0.000111402
0.000180719
0.000289053
0.00045545
0.000706035
0.00107506
0.00160499
0.00234496
0.00334708
0.00466082
0.00632646
0.00836963
0.0107983
0.0136029
0.0167589
0.0202307
0.0239751
0.0279451
0.0320922
0.0363684
0.0407276
0.0451267
0.0495261
0.0538907
0.0581895
0.0623961
0.0664885
0.0704488
0.0742625
0.0779182
0.0814082
0.0847275
0.0878733
0.090845
0.0936434
0.0962707
0.09873
0.101025
0.103158
0.105135
0.106957
0.108626
0.110144
0.111508
0.112715
0.113757
0.114622
0.115291
0.115733
0.115909
0.115777
0.115252
0.114228
0.112581
0.103229
0.0938143
0.0844841
0.0753547
0.0665187
0.0580507
0.0500124
0.0424555
0.0354261
0.0289688
0.0231265
0.0179134
0.0133757
0.00954708
0.00646675
0.00413221
0.00248451
0.00140785
0.000756424
0.000388505
0.000192147
9.24794e-05
4.35761e-05
2.01528e-05
9.1649e-06
4.10493e-06
1.81331e-06
7.91038e-07
3.41207e-07
1.45692e-07
6.16419e-08
2.5857e-08
1.07475e-08
4.41269e-09
1.77335e-09
6.80567e-10
2.30167e-10
4.14919e-11
3.88756e-07
1.69901e-06
3.90282e-06
7.59668e-06
1.37567e-05
2.39614e-05
4.07279e-05
6.80052e-05
0.000111873
0.000181488
0.000290288
0.000457402
0.000709058
0.00107964
0.00161176
0.00235469
0.00336066
0.00467918
0.00635051
0.00840018
0.010836
0.0136482
0.0168122
0.0202921
0.0240446
0.0280226
0.0321776
0.0364613
0.0408277
0.0452334
0.0496391
0.0540092
0.058313
0.0625239
0.06662
0.0705832
0.074399
0.0780561
0.0815467
0.0848657
0.0880105
0.0909803
0.0937762
0.0964001
0.098855
0.101145
0.103272
0.105242
0.107056
0.108716
0.110223
0.111575
0.112768
0.113794
0.11464
0.115285
0.115699
0.115843
0.11567
0.115094
0.114001
0.111686
0.102285
0.0928481
0.0835176
0.0744052
0.0656001
0.0571745
0.0491885
0.0416918
0.0347282
0.0283371
0.0225427
0.0173978
0.012944
0.00921516
0.00621959
0.0039503
0.00235877
0.00132922
0.000711315
0.00036424
0.00017974
8.6401e-05
4.06764e-05
1.88004e-05
8.54639e-06
3.82697e-06
1.69034e-06
7.37383e-07
3.18085e-07
1.35836e-07
5.74805e-08
2.4115e-08
1.00246e-08
4.1159e-09
1.65392e-09
6.34737e-10
2.14892e-10
3.88535e-11
3.90162e-07
1.70515e-06
3.91693e-06
7.62417e-06
1.38066e-05
2.40487e-05
4.08772e-05
6.82561e-05
0.000112289
0.000182167
0.00029138
0.000459128
0.000711734
0.0010837
0.00161776
0.00236332
0.00337271
0.00469547
0.00637185
0.00842728
0.0108694
0.0136884
0.0168594
0.0203464
0.024106
0.0280911
0.0322529
0.0365431
0.0409156
0.045327
0.0497379
0.0541128
0.0584206
0.0626351
0.066734
0.0706994
0.0745167
0.0781746
0.0816653
0.0849837
0.0881272
0.0910951
0.0938883
0.0965088
0.0989598
0.101245
0.103367
0.10533
0.107137
0.10879
0.110288
0.111631
0.112815
0.113831
0.114667
0.115304
0.115713
0.115859
0.115699
0.11516
0.114148
0.110822
0.101419
0.0919904
0.0826794
0.0735965
0.0648289
0.0564468
0.048508
0.0410566
0.0341361
0.0277849
0.0220473
0.0169636
0.0125738
0.00890913
0.00598738
0.00379505
0.00225986
0.00126695
0.000675168
0.000344767
0.000169801
8.15364e-05
3.83568e-05
1.77185e-05
8.05157e-06
3.60454e-06
1.5919e-06
6.94422e-07
2.99566e-07
1.2794e-07
5.41458e-08
2.27189e-08
9.44514e-09
3.87801e-09
1.55821e-09
5.98009e-10
2.02656e-10
3.6741e-11
3.91358e-07
1.71037e-06
3.92892e-06
7.64753e-06
1.38491e-05
2.4123e-05
4.10043e-05
6.84699e-05
0.000112643
0.000182746
0.000292313
0.000460603
0.000714022
0.00108717
0.0016229
0.00237071
0.00338303
0.00470942
0.00639012
0.00845047
0.010898
0.0137228
0.0168997
0.0203927
0.0241584
0.0281494
0.0323169
0.0366126
0.0409902
0.0454063
0.0498215
0.0542001
0.0585112
0.0627283
0.0668294
0.0707964
0.0746146
0.0782729
0.0817633
0.0850809
0.088223
0.0911889
0.0939795
0.0965969
0.0990441
0.101325
0.103442
0.1054
0.107201
0.108847
0.110339
0.111675
0.112851
0.11386
0.11469
0.115323
0.115731
0.115881
0.115734
0.115219
0.114248
0.110055
0.100662
0.0912537
0.0819694
0.0729146
0.0641763
0.0558242
0.0479145
0.0405004
0.0336238
0.0273241
0.0216382
0.0166081
0.0122736
0.00866531
0.0057994
0.00365817
0.00217122
0.0012166
0.000646705
0.000329403
0.000161937
7.76892e-05
3.6523e-05
1.68636e-05
7.66076e-06
3.42897e-06
1.51425e-06
6.60553e-07
2.84979e-07
1.21727e-07
5.15252e-08
2.16232e-08
8.99111e-09
3.69157e-09
1.4832e-09
5.69221e-10
1.93065e-10
3.50867e-11
3.92328e-07
1.71461e-06
3.93865e-06
7.66651e-06
1.38835e-05
2.41834e-05
4.11076e-05
6.86437e-05
0.000112931
0.000183217
0.000293072
0.000461804
0.000715887
0.00109
0.00162708
0.00237674
0.00339144
0.00472079
0.00640501
0.00846936
0.0109213
0.0137507
0.0169325
0.0204304
0.024201
0.0281968
0.0323688
0.0366688
0.0410505
0.0454704
0.0498888
0.0542703
0.0585839
0.062803
0.0669055
0.0708735
0.0746922
0.0783505
0.0818405
0.0851571
0.0882978
0.0912617
0.0940499
0.0966644
0.0991082
0.101385
0.103498
0.105451
0.107246
0.108887
0.110373
0.111702
0.112872
0.113875
0.114699
0.115328
0.115733
0.115882
0.115739
0.115231
0.114273
0.109444
0.100049
0.0906499
0.0813786
0.0723444
0.0636321
0.0553106
0.0474366
0.0400589
0.0332203
0.0269604
0.0213155
0.0163285
0.0120385
0.00847534
0.00565383
0.00355367
0.00210164
0.00117379
0.000623731
0.000317329
0.000155797
7.46897e-05
3.50976e-05
1.6202e-05
7.35965e-06
3.29427e-06
1.45491e-06
6.34769e-07
2.73905e-07
1.17018e-07
4.95412e-08
2.07939e-08
8.6474e-09
3.55064e-09
1.42644e-09
5.47415e-10
1.85798e-10
3.38345e-11
3.93062e-07
1.71782e-06
3.94602e-06
7.68086e-06
1.39096e-05
2.42291e-05
4.11858e-05
6.87753e-05
0.00011315
0.000183575
0.000293647
0.000462715
0.0007173
0.00109214
0.00163026
0.00238131
0.00339782
0.00472942
0.0064163
0.0084837
0.010939
0.0137719
0.0169574
0.020459
0.0242333
0.0282326
0.0324081
0.0367114
0.041096
0.0455186
0.0499395
0.0543231
0.0586383
0.0628587
0.0669621
0.0709305
0.0747494
0.0784074
0.0818968
0.0852124
0.0883517
0.0913139
0.0941
0.0967119
0.0991528
0.101426
0.103535
0.105484
0.107275
0.10891
0.110391
0.111715
0.112879
0.113876
0.114695
0.115318
0.11572
0.115868
0.115725
0.115224
0.114279
0.108988
0.0995862
0.0901895
0.0809308
0.0719143
0.0632236
0.0549263
0.0470788
0.039729
0.0329195
0.0266898
0.0210761
0.0161215
0.0118649
0.00833576
0.00554757
0.00347807
0.00205175
0.00114323
0.000606115
0.00030826
0.000151256
7.24989e-05
3.40635e-05
1.57232e-05
7.14207e-06
3.19706e-06
1.41212e-06
6.16181e-07
2.65925e-07
1.13627e-07
4.81131e-08
2.01974e-08
8.40027e-09
3.44939e-09
1.38566e-09
5.31751e-10
1.8058e-10
3.2936e-11
3.93554e-07
1.71996e-06
3.95095e-06
7.69046e-06
1.39271e-05
2.42596e-05
4.12379e-05
6.88631e-05
0.000113295
0.000183812
0.00029403
0.000463321
0.00071824
0.00109357
0.00163237
0.00238435
0.00340206
0.00473516
0.00642383
0.00849326
0.0109508
0.0137861
0.016974
0.0204781
0.0242548
0.0282566
0.0324344
0.0367398
0.0411265
0.0455509
0.0499733
0.0543582
0.0586744
0.0628955
0.0669993
0.0709678
0.0747865
0.0784441
0.0819328
0.0852476
0.0883857
0.0913465
0.0941308
0.0967408
0.0991793
0.10145
0.103556
0.105501
0.107289
0.10892
0.110396
0.111715
0.112874
0.113866
0.11468
0.115299
0.115697
0.115844
0.115703
0.115209
0.114279
0.108684
0.0992713
0.0898758
0.0806254
0.0716218
0.0629467
0.0546669
0.0468381
0.0395078
0.0327184
0.0265095
0.020917
0.0159844
0.0117503
0.00824388
0.00547794
0.00342881
0.00201945
0.00112354
0.00059485
0.000302125
0.000148218
7.10492e-05
3.33848e-05
1.54111e-05
7.00087e-06
3.13411e-06
1.38445e-06
6.04172e-07
2.60771e-07
1.11438e-07
4.71914e-08
1.98124e-08
8.24082e-09
3.38408e-09
1.35935e-09
5.21649e-10
1.77215e-10
3.23568e-11
3.93798e-07
1.72103e-06
3.95339e-06
7.69519e-06
1.39356e-05
2.42745e-05
4.12633e-05
6.89056e-05
0.000113366
0.000183927
0.000294214
0.000463611
0.00071869
0.00109425
0.00163338
0.0023858
0.00340409
0.00473791
0.00642743
0.00849784
0.0109564
0.0137929
0.016982
0.0204874
0.0242653
0.0282682
0.0324472
0.0367537
0.0411413
0.0455666
0.0499898
0.0543754
0.0586921
0.0629135
0.0670175
0.0709859
0.0748042
0.0784615
0.0819498
0.085264
0.0884014
0.0913613
0.0941446
0.0967533
0.0991904
0.101459
0.103564
0.105507
0.107292
0.108921
0.110394
0.11171
0.112865
0.113854
0.114664
0.11528
0.115675
0.115821
0.115681
0.115193
0.114278
0.108534
0.0991095
0.0897127
0.0804666
0.0714704
0.0628045
0.0545347
0.0467163
0.0393966
0.0326181
0.0264201
0.0208387
0.0159173
0.0116946
0.00819957
0.0054446
0.0034054
0.0020042
0.0011143
0.000589587
0.000299272
0.000146762
7.03439e-05
3.30538e-05
1.52591e-05
6.93229e-06
3.10363e-06
1.37108e-06
5.98381e-07
2.58289e-07
1.10384e-07
4.67476e-08
1.96269e-08
8.16393e-09
3.35254e-09
1.34664e-09
5.1676e-10
1.75583e-10
3.20754e-11
3.93806e-07
1.72106e-06
3.95347e-06
7.69535e-06
1.39359e-05
2.4275e-05
4.12642e-05
6.8907e-05
0.000113368
0.000183931
0.00029422
0.00046362
0.000718704
0.00109427
0.00163341
0.00238584
0.00340415
0.00473798
0.00642752
0.00849795
0.0109566
0.0137931
0.0169822
0.0204876
0.0242655
0.0282684
0.0324474
0.0367539
0.0411416
0.0455668
0.04999
0.0543756
0.0586923
0.0629137
0.0670177
0.0709861
0.0748044
0.0784617
0.0819499
0.0852641
0.0884016
0.0913615
0.0941447
0.0967535
0.0991906
0.10146
0.103564
0.105507
0.107292
0.108921
0.110394
0.11171
0.112866
0.113854
0.114664
0.11528
0.115675
0.115821
0.115681
0.115193
0.114278
0.108533
0.0991088
0.089712
0.080466
0.0714699
0.0628039
0.0545342
0.0467158
0.0393962
0.0326177
0.0264197
0.0208384
0.015917
0.0116944
0.00819938
0.00544445
0.00340529
0.00200413
0.00111426
0.000589561
0.000299258
0.000146755
7.03406e-05
3.30522e-05
1.52585e-05
6.93198e-06
3.1035e-06
1.37102e-06
5.98355e-07
2.58278e-07
1.10379e-07
4.67455e-08
1.96261e-08
8.16358e-09
3.3524e-09
1.34658e-09
5.16738e-10
1.75575e-10
3.20741e-11
3.93577e-07
1.72006e-06
3.95118e-06
7.69091e-06
1.39279e-05
2.4261e-05
4.12403e-05
6.88671e-05
0.000113302
0.000183823
0.000294047
0.000463346
0.000718279
0.00109363
0.00163245
0.00238447
0.00340222
0.00473537
0.00642409
0.00849357
0.0109512
0.0137865
0.0169745
0.0204786
0.0242554
0.0282572
0.032435
0.0367404
0.0411271
0.0455515
0.0499739
0.0543588
0.0586751
0.0628961
0.0669999
0.0709684
0.0747871
0.0784447
0.0819334
0.0852481
0.0883862
0.091347
0.0941313
0.0967412
0.0991797
0.10145
0.103556
0.105502
0.107289
0.10892
0.110396
0.111716
0.112875
0.113866
0.11468
0.1153
0.115697
0.115844
0.115703
0.115209
0.114279
0.108682
0.0992692
0.0898738
0.0806235
0.07162
0.0629451
0.0546654
0.0468367
0.0395065
0.0327173
0.0265084
0.0209161
0.0159835
0.0117496
0.00824331
0.0054775
0.0034285
0.00201924
0.00112342
0.000594783
0.00030209
0.000148201
7.10412e-05
3.33811e-05
1.54095e-05
7.0001e-06
3.13377e-06
1.3843e-06
6.04106e-07
2.60743e-07
1.11426e-07
4.71862e-08
1.98102e-08
8.23992e-09
3.38371e-09
1.35921e-09
5.21591e-10
1.77191e-10
3.23531e-11
3.93101e-07
1.71799e-06
3.94641e-06
7.68163e-06
1.3911e-05
2.42315e-05
4.11898e-05
6.87821e-05
0.000113161
0.000183593
0.000293675
0.000462759
0.000717367
0.00109224
0.0016304
0.00238151
0.00339809
0.00472977
0.00641675
0.00848424
0.0109396
0.0137727
0.0169582
0.0204599
0.0242342
0.0282336
0.0324092
0.0367125
0.0410971
0.0455198
0.0499406
0.0543242
0.0586394
0.0628598
0.0669632
0.0709316
0.0747504
0.0784084
0.0818977
0.0852133
0.0883526
0.0913147
0.0941007
0.0967127
0.0991535
0.101427
0.103536
0.105485
0.107276
0.108911
0.110391
0.111715
0.112879
0.113876
0.114695
0.115319
0.11572
0.115868
0.115726
0.115224
0.114279
0.108984
0.0995825
0.090186
0.0809275
0.0719113
0.0632207
0.0549237
0.0470764
0.0397268
0.0329175
0.026688
0.0210745
0.0161201
0.0118637
0.00833476
0.0055468
0.00347752
0.00205139
0.00114301
0.000605996
0.000308199
0.000151226
7.24846e-05
3.40568e-05
1.57201e-05
7.14067e-06
3.19643e-06
1.41184e-06
6.16063e-07
2.65874e-07
1.13606e-07
4.8104e-08
2.01936e-08
8.39869e-09
3.44874e-09
1.3854e-09
5.3165e-10
1.80541e-10
3.29297e-11
3.92382e-07
1.71484e-06
3.93919e-06
7.66755e-06
1.38854e-05
2.41867e-05
4.11132e-05
6.8653e-05
0.000112947
0.000183242
0.000293111
0.000461865
0.000715979
0.00109013
0.00162728
0.00237701
0.00339181
0.00472128
0.00640562
0.00847012
0.0109222
0.0137518
0.0169337
0.0204317
0.0242024
0.0281982
0.0323703
0.0366704
0.041052
0.0454719
0.0498904
0.0542719
0.0585855
0.0628045
0.066907
0.0708749
0.0746936
0.0783518
0.0818418
0.0851584
0.088299
0.0912629
0.094051
0.0966654
0.0991092
0.101386
0.103499
0.105452
0.107247
0.108888
0.110373
0.111703
0.112873
0.113875
0.1147
0.115328
0.115733
0.115883
0.115739
0.115231
0.114273
0.109438
0.100044
0.0906449
0.0813739
0.07234
0.0636281
0.0553068
0.0474332
0.0400557
0.0332174
0.0269578
0.0213132
0.0163265
0.0120368
0.00847394
0.00565276
0.00355291
0.00210112
0.00117348
0.00062356
0.000317241
0.000155754
7.46691e-05
3.50879e-05
1.61976e-05
7.35766e-06
3.29339e-06
1.45453e-06
6.34604e-07
2.73834e-07
1.16988e-07
4.95286e-08
2.07887e-08
8.64522e-09
3.54974e-09
1.42608e-09
5.47276e-10
1.85745e-10
3.38257e-11
3.91426e-07
1.71067e-06
3.9296e-06
7.64886e-06
1.38515e-05
2.41272e-05
4.10114e-05
6.84817e-05
0.000112662
0.000182777
0.000292362
0.000460679
0.000714139
0.00108734
0.00162314
0.00237106
0.0033835
0.00471004
0.0063909
0.00845143
0.0108992
0.0137241
0.0169012
0.0203943
0.0241602
0.0281512
0.0323188
0.0366145
0.0409922
0.0454084
0.0498235
0.0542021
0.0585132
0.0627303
0.0668313
0.0707982
0.0746164
0.0782746
0.0817651
0.0850826
0.0882246
0.0911904
0.0939809
0.0965983
0.0990454
0.101326
0.103443
0.105401
0.107202
0.108848
0.110339
0.111675
0.112851
0.11386
0.11469
0.115323
0.115731
0.115881
0.115734
0.11522
0.114249
0.110049
0.100656
0.0912473
0.0819632
0.0729088
0.064171
0.0558193
0.0479101
0.0404964
0.0336201
0.0273208
0.0216352
0.0166054
0.0122713
0.00866344
0.00579794
0.00365712
0.00217056
0.00121623
0.000646495
0.000329292
0.000161881
7.76622e-05
3.65103e-05
1.68578e-05
7.65814e-06
3.42782e-06
1.51375e-06
6.60336e-07
2.84887e-07
1.21688e-07
5.1509e-08
2.16164e-08
8.9883e-09
3.69043e-09
1.48275e-09
5.69044e-10
1.92996e-10
3.50754e-11
3.90244e-07
1.70551e-06
3.91775e-06
7.62577e-06
1.38095e-05
2.40538e-05
4.08857e-05
6.82703e-05
0.000112312
0.000182204
0.00029144
0.00045922
0.000711875
0.00108391
0.00161806
0.00236375
0.00337329
0.00469623
0.0063728
0.00842845
0.0108708
0.01369
0.0168612
0.0203483
0.0241082
0.0280933
0.0322552
0.0365455
0.040918
0.0453295
0.0497404
0.0541153
0.0584231
0.0626375
0.0667364
0.0707018
0.074519
0.0781768
0.0816674
0.0849858
0.0881292
0.091097
0.0938901
0.0965105
0.0989614
0.101246
0.103368
0.105331
0.107138
0.108791
0.110289
0.111632
0.112816
0.113831
0.114667
0.115305
0.115713
0.115859
0.1157
0.115161
0.11415
0.110813
0.10141
0.0919826
0.082672
0.0735896
0.0648224
0.0564409
0.0485025
0.0410517
0.0341316
0.0277809
0.0220437
0.0169603
0.0125709
0.00890679
0.00598559
0.00379379
0.00225908
0.0012665
0.000674918
0.000344632
0.000169732
8.15028e-05
3.83409e-05
1.77112e-05
8.04829e-06
3.60309e-06
1.59127e-06
6.94151e-07
2.99451e-07
1.27891e-07
5.41256e-08
2.27105e-08
9.44165e-09
3.87661e-09
1.55766e-09
5.97792e-10
2.02572e-10
3.67271e-11
3.88851e-07
1.69943e-06
3.90378e-06
7.59855e-06
1.37601e-05
2.39673e-05
4.07379e-05
6.80217e-05
0.0001119
0.000181531
0.000290358
0.000457509
0.000709222
0.00107988
0.00161211
0.00235518
0.00336133
0.00468006
0.00635163
0.00840155
0.0108376
0.0136501
0.0168143
0.0202944
0.0240471
0.0280253
0.0321804
0.0364642
0.0408306
0.0452364
0.049642
0.0540122
0.058316
0.0625268
0.0666229
0.070586
0.0744017
0.0780588
0.0815493
0.0848682
0.0880129
0.0909826
0.0937783
0.0964021
0.098857
0.101146
0.103274
0.105243
0.107057
0.108717
0.110224
0.111576
0.112769
0.113795
0.11464
0.115286
0.1157
0.115844
0.115671
0.115095
0.114001
0.111675
0.102275
0.092839
0.083509
0.074397
0.0655923
0.0571671
0.0491817
0.0416856
0.0347225
0.0283321
0.0225383
0.017394
0.0129409
0.00921273
0.00621779
0.00394907
0.0023579
0.00132863
0.000710982
0.000364065
0.000179654
8.63599e-05
4.06574e-05
1.87917e-05
8.54251e-06
3.82525e-06
1.68959e-06
7.37063e-07
3.17949e-07
1.35778e-07
5.74565e-08
2.4105e-08
1.00205e-08
4.11425e-09
1.65328e-09
6.34483e-10
2.14795e-10
3.88373e-11
3.87261e-07
1.69248e-06
3.88784e-06
7.56751e-06
1.37038e-05
2.38689e-05
4.05697e-05
6.77393e-05
0.000111433
0.000180769
0.000289132
0.000455573
0.000706223
0.00107534
0.00160539
0.00234552
0.00334785
0.00466182
0.00632774
0.0083712
0.0108002
0.0136051
0.0167614
0.0202334
0.023978
0.0279482
0.0320954
0.0363718
0.040731
0.0451301
0.0495296
0.0538942
0.0581929
0.0623995
0.0664919
0.0704521
0.0742657
0.0779213
0.0814113
0.0847304
0.0878761
0.0908476
0.0936459
0.0962731
0.0987322
0.101027
0.10316
0.105137
0.106958
0.108628
0.110145
0.111509
0.112716
0.113758
0.114623
0.115291
0.115733
0.115909
0.115776
0.11525
0.114222
0.11257
0.103219
0.0938047
0.0844746
0.0753455
0.0665098
0.0580424
0.0500045
0.0424482
0.0354195
0.0289631
0.0231213
0.0179091
0.0133722
0.00954436
0.00646457
0.00413048
0.00248332
0.00140713
0.000756027
0.0003883
0.000192047
9.24316e-05
4.35539e-05
2.01427e-05
9.16037e-06
4.10293e-06
1.81245e-06
7.90666e-07
3.41049e-07
1.45625e-07
6.16142e-08
2.58455e-08
1.07428e-08
4.41079e-09
1.77261e-09