/*--------------------------------*- C++ -*----------------------------------*\
  =========                 |
  \\      /  F ield         | OpenFOAM: The Open Source CFD Toolbox
   \\    /   O peration     | Website:  https://openfoam.org
    \\  /    A nd           | Version:  8
     \\/     M anipulation  |
\*---------------------------------------------------------------------------*/
FoamFile
{
    version     2.0;
    format      ascii;
    class       volScalarField;
    location    "320/fluid";
    object      N2;
}
// * * * * * * * * * * * * * * * * * * * * * * * * * * * * * * * * * * * * * //

dimensions      [0 0 0 0 0 0 0];

internalField   nonuniform List<scalar> 
4000
(
2.0572e-06
8.98518e-06
2.06151e-05
4.00631e-05
7.24306e-05
0.000125987
0.000213981
0.000357347
0.000588623
0.0009574
0.00153749
0.00243564
0.00380087
0.00583218
0.00878107
0.0129441
0.0186415
0.0261824
0.0358215
0.0477218
0.0619318
0.0783864
0.09693
0.117337
0.139334
0.162626
0.186916
0.211916
0.237354
0.26298
0.288571
0.313929
0.338884
0.363289
0.387025
0.409998
0.432137
0.453387
0.47371
0.493085
0.511503
0.528967
0.545487
0.561081
0.575774
0.589595
0.602574
0.614748
0.626151
0.63682
0.646794
0.656107
0.664798
0.672902
0.680454
0.687488
0.694036
0.700129
0.705768
0.710916
0.715824
0.72039
0.724637
0.728539
0.73231
0.735917
0.739364
0.742656
0.745791
0.748769
0.751586
0.754239
0.756719
0.75902
0.761121
0.763031
0.764724
0.766183
0.767389
0.768329
0.769007
0.769453
0.769718
0.769863
0.769936
0.769971
0.769987
0.769994
0.769998
0.769999
0.77
0.77
0.77
0.77
0.77
0.77
0.77
0.77
0.77
0.77
2.0835e-06
9.10463e-06
2.09083e-05
4.06828e-05
7.36543e-05
0.000128299
0.000218191
0.000364752
0.000601191
0.000977935
0.00156968
0.00248385
0.00386941
0.00592409
0.00889631
0.0130777
0.0187823
0.0263132
0.0359223
0.0477738
0.0619235
0.0783171
0.0967985
0.117141
0.139081
0.162333
0.186605
0.211609
0.237071
0.262738
0.28838
0.313793
0.338802
0.363264
0.387061
0.410097
0.432296
0.453603
0.473978
0.4934
0.511859
0.529359
0.545909
0.561528
0.576242
0.590078
0.603069
0.615251
0.626658
0.63733
0.647302
0.656614
0.6653
0.673399
0.680944
0.687969
0.694508
0.700592
0.706194
0.711344
0.716254
0.720816
0.725058
0.728948
0.732719
0.736328
0.739778
0.743073
0.74621
0.749189
0.752006
0.754655
0.75713
0.759421
0.761507
0.763394
0.765055
0.766472
0.767625
0.768506
0.769125
0.769523
0.769756
0.769881
0.769944
0.769974
0.769988
0.769995
0.769998
0.769999
0.77
0.77
0.77
0.77
0.77
0.77
0.77
0.77
0.77
0.77
2.12333e-06
9.28151e-06
2.13268e-05
4.15269e-05
7.52377e-05
0.000131138
0.00022311
0.000373009
0.00061463
0.000999121
0.00160197
0.00253131
0.00393649
0.00601491
0.00901361
0.0132214
0.0189484
0.0264925
0.0361008
0.0479342
0.0620476
0.0783888
0.0968133
0.117108
0.139011
0.162237
0.186494
0.211496
0.236969
0.26266
0.28834
0.313806
0.338883
0.36342
0.387294
0.410408
0.432683
0.454062
0.474505
0.493989
0.512504
0.530053
0.546646
0.562301
0.577044
0.590904
0.603913
0.616106
0.627521
0.638196
0.648167
0.657474
0.666153
0.674241
0.681774
0.688787
0.695311
0.701379
0.706929
0.712043
0.716935
0.721484
0.725714
0.729608
0.733382
0.736991
0.740439
0.743727
0.746856
0.749823
0.752623
0.75525
0.757696
0.759951
0.761998
0.763832
0.765431
0.766777
0.767856
0.768666
0.769225
0.769579
0.769784
0.769895
0.76995
0.769977
0.76999
0.769995
0.769998
0.769999
0.77
0.77
0.77
0.77
0.77
0.77
0.77
0.77
0.77
0.77
2.1579e-06
9.43271e-06
2.16746e-05
4.2204e-05
7.64583e-05
0.00013324
0.000226607
0.000378661
0.000623512
0.0010127
0.00162214
0.00256038
0.00397706
0.00606958
0.00908446
0.0133093
0.0190523
0.0266093
0.0362253
0.0480599
0.0621678
0.078498
0.0969077
0.117186
0.139076
0.162297
0.186559
0.211578
0.237082
0.262815
0.288548
0.314076
0.339219
0.363827
0.387775
0.410963
0.433312
0.454761
0.475271
0.494817
0.513389
0.530988
0.547624
0.563316
0.578088
0.591971
0.604996
0.617201
0.628621
0.639295
0.649262
0.65856
0.667227
0.6753
0.682814
0.689807
0.69631
0.702358
0.707878
0.712959
0.717811
0.722318
0.726511
0.730418
0.734186
0.737786
0.741222
0.744494
0.747603
0.750545
0.753315
0.755906
0.758309
0.76051
0.762505
0.764275
0.765804
0.767076
0.768081
0.768821
0.769323
0.769635
0.769814
0.769909
0.769957
0.76998
0.769991
0.769996
0.769998
0.769999
0.77
0.77
0.77
0.77
0.77
0.77
0.77
0.77
0.77
0.77
2.18686e-06
9.55902e-06
2.19639e-05
4.27645e-05
7.74664e-05
0.000134977
0.000229514
0.000383408
0.000631092
0.00102452
0.00164014
0.00258706
0.00401545
0.00612304
0.00915628
0.0134022
0.0191676
0.0267467
0.0363829
0.0482345
0.0623558
0.0786963
0.0971151
0.117403
0.139305
0.162543
0.186829
0.211879
0.237421
0.263201
0.288988
0.314575
0.339782
0.364457
0.388474
0.411731
0.434148
0.455662
0.476233
0.495836
0.514458
0.532101
0.548776
0.564499
0.579297
0.593198
0.606235
0.618446
0.629866
0.640535
0.650492
0.659776
0.668423
0.676473
0.683962
0.690924
0.697394
0.703403
0.708852
0.713903
0.71873
0.72321
0.727343
0.731284
0.735041
0.738626
0.742042
0.745292
0.748373
0.751282
0.754014
0.756561
0.758915
0.761056
0.76299
0.764693
0.766151
0.76735
0.768282
0.768957
0.769407
0.769682
0.769838
0.769921
0.769963
0.769983
0.769992
0.769996
0.769998
0.769999
0.77
0.77
0.77
0.77
0.77
0.77
0.77
0.77
0.77
0.77
2.2103e-06
9.66096e-06
2.21962e-05
4.32119e-05
7.82658e-05
0.000136347
0.000231793
0.000387114
0.000636992
0.00103372
0.00165418
0.00260799
0.0040459
0.00616617
0.00921567
0.0134815
0.0192704
0.0268758
0.03654
0.0484206
0.0625712
0.0789411
0.0973896
0.117708
0.139643
0.162917
0.187243
0.212338
0.237929
0.263762
0.289606
0.315253
0.340523
0.365262
0.389343
0.412663
0.43514
0.456712
0.477337
0.496988
0.515653
0.533334
0.550039
0.565787
0.580602
0.594515
0.607558
0.619768
0.631183
0.641841
0.651782
0.661045
0.669669
0.67769
0.685147
0.692073
0.698504
0.704466
0.709854
0.714994
0.719768
0.724201
0.728249
0.732163
0.735898
0.73946
0.742852
0.746073
0.749121
0.751992
0.754682
0.757182
0.759484
0.761568
0.76344
0.765078
0.766467
0.767595
0.76846
0.769076
0.76948
0.769723
0.76986
0.769932
0.769968
0.769985
0.769993
0.769997
0.769999
0.769999
0.77
0.77
0.77
0.77
0.77
0.77
0.77
0.77
0.77
0.77
2.23004e-06
9.74688e-06
2.23922e-05
4.35902e-05
7.89438e-05
0.000137513
0.000233747
0.000390319
0.000642152
0.00104188
0.00166682
0.00262716
0.00407432
0.00620727
0.00927351
0.0135606
0.0193752
0.0270107
0.0367086
0.0486257
0.0628149
0.0792252
0.0977156
0.118078
0.140059
0.163381
0.187757
0.212905
0.238551
0.264443
0.290346
0.316054
0.341386
0.366185
0.390325
0.413703
0.436234
0.457856
0.478526
0.498218
0.516918
0.534627
0.551355
0.56712
0.581946
0.595864
0.608906
0.62111
0.632513
0.643155
0.653076
0.662314
0.670909
0.678899
0.686321
0.693211
0.699603
0.705476
0.710826
0.715947
0.720693
0.725094
0.72911
0.733001
0.736715
0.740253
0.743618
0.746808
0.749822
0.752655
0.755301
0.757754
0.760003
0.762038
0.763849
0.765424
0.766747
0.76781
0.768614
0.769177
0.769541
0.769757
0.769878
0.769941
0.769972
0.769987
0.769994
0.769997
0.769999
0.769999
0.77
0.77
0.77
0.77
0.77
0.77
0.77
0.77
0.77
0.77
2.24712e-06
9.82125e-06
2.2562e-05
4.39181e-05
7.95322e-05
0.000138528
0.000235451
0.000393125
0.000646694
0.0010491
0.00167811
0.00264449
0.00410035
0.0062455
0.00932826
0.0136369
0.0194786
0.0271467
0.0368824
0.0488415
0.0630764
0.079535
0.0980759
0.118491
0.140526
0.163903
0.188337
0.213543
0.239249
0.265201
0.291165
0.316932
0.342322
0.367178
0.391373
0.414801
0.43738
0.459045
0.479753
0.499476
0.518204
0.535934
0.552678
0.568452
0.583282
0.597198
0.610234
0.622425
0.633812
0.644434
0.654329
0.66354
0.672105
0.680062
0.687449
0.694303
0.700658
0.706465
0.71176
0.716837
0.721542
0.725905
0.729911
0.733785
0.737477
0.740991
0.744328
0.747487
0.750466
0.753261
0.755865
0.758272
0.760472
0.762456
0.764212
0.765728
0.766992
0.767997
0.768746
0.769263
0.769592
0.769786
0.769892
0.769948
0.769975
0.769989
0.769995
0.769998
0.769999
0.77
0.77
0.77
0.77
0.77
0.77
0.77
0.77
0.77
0.77
0.77
2.26238e-06
9.88774e-06
2.2714e-05
4.42123e-05
8.00617e-05
0.000139444
0.000236998
0.000395688
0.00065087
0.0010558
0.00168868
0.00266086
0.00412521
0.00628242
0.00938175
0.0137124
0.019582
0.0272842
0.0370598
0.0490642
0.0633484
0.0798598
0.0984561
0.118928
0.141022
0.164459
0.188953
0.21422
0.239987
0.265999
0.292021
0.317846
0.343291
0.368199
0.392442
0.415916
0.438535
0.460236
0.480974
0.500724
0.519471
0.537216
0.553968
0.569746
0.584574
0.598483
0.611506
0.623682
0.635048
0.645646
0.655514
0.664695
0.673227
0.681149
0.688501
0.695317
0.701635
0.707394
0.712642
0.717667
0.722318
0.726634
0.73065
0.734505
0.738175
0.741664
0.744973
0.748102
0.751048
0.753807
0.756372
0.758737
0.760887
0.762824
0.76453
0.765994
0.767205
0.768157
0.768857
0.769335
0.769634
0.769809
0.769904
0.769954
0.769978
0.76999
0.769995
0.769998
0.769999
0.77
0.77
0.77
0.77
0.77
0.77
0.77
0.77
0.77
0.77
0.77
2.27626e-06
9.94824e-06
2.28525e-05
4.44807e-05
8.05459e-05
0.000140284
0.000238421
0.000398054
0.000654746
0.00106205
0.0016986
0.00267634
0.00414889
0.00631787
0.00943354
0.013786
0.0196838
0.0274206
0.0372371
0.049288
0.0636235
0.0801897
0.0988434
0.119374
0.141529
0.165027
0.189582
0.21491
0.240736
0.266806
0.292884
0.318762
0.344258
0.369213
0.3935
0.417012
0.439666
0.461396
0.482159
0.501928
0.520689
0.538442
0.555197
0.570973
0.585795
0.599693
0.612701
0.624857
0.636201
0.646772
0.656611
0.66576
0.674258
0.682146
0.689461
0.69624
0.702511
0.708209
0.713422
0.718419
0.723046
0.727287
0.731317
0.735151
0.738799
0.742265
0.745549
0.748649
0.751565
0.75429
0.75682
0.759147
0.761254
0.763148
0.764809
0.766226
0.767388
0.768293
0.768951
0.769394
0.769669
0.769828
0.769914
0.769959
0.76998
0.769991
0.769996
0.769998
0.769999
0.77
0.77
0.77
0.77
0.77
0.77
0.77
0.77
0.77
0.77
0.77
2.289e-06
1.00038e-05
2.29798e-05
4.47279e-05
8.09927e-05
0.000141061
0.000239741
0.000400258
0.000658369
0.00106792
0.00170797
0.00269102
0.00417147
0.00635183
0.00948341
0.0138573
0.0197827
0.0275537
0.0374109
0.0495081
0.0638946
0.0805154
0.0992263
0.119816
0.14203
0.165588
0.190203
0.215589
0.241472
0.267596
0.293727
0.319655
0.345195
0.370193
0.394517
0.418063
0.440745
0.4625
0.483281
0.503064
0.521834
0.539591
0.556345
0.572116
0.586928
0.600811
0.613802
0.625937
0.637256
0.6478
0.65761
0.666727
0.67519
0.683041
0.690317
0.697053
0.703297
0.708953
0.714152
0.719124
0.723718
0.727891
0.731905
0.735723
0.739352
0.742796
0.746056
0.749131
0.752018
0.754713
0.757211
0.759504
0.761577
0.763434
0.765053
0.766426
0.767545
0.768408
0.76903
0.769444
0.769698
0.769844
0.769922
0.769963
0.769982
0.769992
0.769996
0.769998
0.769999
0.77
0.77
0.77
0.77
0.77
0.77
0.77
0.77
0.77
0.77
0.77
2.30069e-06
1.00548e-05
2.30968e-05
4.49553e-05
8.14043e-05
0.000141779
0.000240962
0.000402302
0.000661739
0.0010734
0.00171673
0.0027048
0.00419274
0.00638396
0.00953074
0.0139251
0.0198771
0.0276811
0.0375775
0.0497195
0.0641553
0.0808289
0.099595
0.120241
0.142512
0.166128
0.190799
0.216239
0.242176
0.26835
0.294529
0.320501
0.346082
0.371116
0.395473
0.419047
0.441753
0.463526
0.484323
0.504114
0.522889
0.540647
0.557397
0.57316
0.58796
0.601828
0.6148
0.626914
0.638209
0.648726
0.658507
0.667594
0.676026
0.683845
0.691088
0.697794
0.703993
0.709547
0.714856
0.719772
0.724322
0.728451
0.732437
0.736232
0.739839
0.743262
0.746499
0.74955
0.752412
0.755079
0.757548
0.759809
0.761853
0.763673
0.765258
0.766596
0.767678
0.768505
0.769095
0.769484
0.769722
0.769857
0.769929
0.769966
0.769984
0.769993
0.769997
0.769998
0.769999
0.77
0.77
0.77
0.77
0.77
0.77
0.77
0.77
0.77
0.77
0.77
2.31133e-06
1.01013e-05
2.32033e-05
4.51626e-05
8.178e-05
0.000142435
0.000242081
0.000404178
0.000664838
0.00107845
0.00172483
0.00271757
0.00421249
0.00641383
0.00957484
0.0139885
0.0199654
0.0278004
0.0377336
0.0499177
0.0643999
0.0811231
0.0999409
0.12064
0.142964
0.166632
0.191355
0.216846
0.242831
0.269051
0.295272
0.321283
0.3469
0.371966
0.396351
0.419949
0.442674
0.464462
0.485268
0.505066
0.523843
0.541598
0.558343
0.574096
0.588883
0.602736
0.615689
0.627782
0.639054
0.649546
0.659301
0.66836
0.676765
0.684556
0.691772
0.698452
0.704593
0.710121
0.715416
0.720309
0.724834
0.728935
0.732901
0.736676
0.740264
0.743666
0.746883
0.749912
0.75275
0.755393
0.757833
0.760063
0.762072
0.76386
0.765416
0.766728
0.767784
0.768584
0.769149
0.769518
0.769741
0.769867
0.769934
0.769968
0.769985
0.769993
0.769997
0.769999
0.769999
0.77
0.77
0.77
0.77
0.77
0.77
0.77
0.77
0.77
0.77
0.77
2.32086e-06
1.01429e-05
2.32989e-05
4.53486e-05
8.21174e-05
0.000143024
0.000243088
0.000405869
0.000667636
0.00108301
0.00173216
0.00272915
0.00423043
0.00644101
0.00961501
0.0140462
0.020046
0.0279093
0.0378763
0.0500988
0.0646234
0.0813918
0.100257
0.121004
0.143376
0.167092
0.191862
0.217398
0.243425
0.269686
0.295944
0.321989
0.347637
0.37273
0.397138
0.420755
0.443496
0.465295
0.486109
0.50591
0.524687
0.542439
0.559176
0.574919
0.589694
0.603531
0.616466
0.628539
0.63979
0.650259
0.65999
0.669024
0.677403
0.685166
0.692354
0.699003
0.705095
0.7106
0.715873
0.720746
0.725251
0.72934
0.733293
0.737053
0.740625
0.744011
0.747209
0.750219
0.753036
0.755656
0.758073
0.760279
0.762271
0.764036
0.765563
0.766841
0.767868
0.768646
0.769192
0.769544
0.769756
0.769875
0.769938
0.76997
0.769986
0.769994
0.769997
0.769999
0.769999
0.77
0.77
0.77
0.77
0.77
0.77
0.77
0.77
0.77
0.77
0.77
2.3292e-06
1.01793e-05
2.33825e-05
4.55116e-05
8.24132e-05
0.000143542
0.000243972
0.000407356
0.0006701
0.00108704
0.00173863
0.00273938
0.00424629
0.00646506
0.00965058
0.0140974
0.0201174
0.0280059
0.0380028
0.0502594
0.0648216
0.08163
0.100536
0.121326
0.143741
0.167499
0.192309
0.217884
0.243948
0.270244
0.296534
0.322608
0.348282
0.373398
0.397825
0.421458
0.44421
0.466018
0.486837
0.50664
0.525416
0.543163
0.559894
0.575627
0.590389
0.604211
0.617131
0.629186
0.640417
0.650866
0.660575
0.669587
0.677943
0.685684
0.692849
0.699477
0.705546
0.711025
0.716272
0.72112
0.725601
0.72968
0.733619
0.737366
0.740925
0.744295
0.747478
0.75047
0.75327
0.755873
0.758275
0.760467
0.76244
0.764184
0.765689
0.766946
0.767947
0.768699
0.769225
0.769566
0.769769
0.769882
0.769942
0.769972
0.769987
0.769994
0.769997
0.769999
0.769999
0.77
0.77
0.77
0.77
0.77
0.77
0.77
0.77
0.77
0.77
0.77
2.33627e-06
1.02102e-05
2.34535e-05
4.56498e-05
8.26642e-05
0.000143981
0.000244724
0.00040862
0.000672196
0.00109046
0.00174414
0.00274811
0.00425982
0.0064856
0.00968097
0.0141411
0.0201784
0.0280884
0.0381109
0.0503967
0.0649909
0.0818334
0.100775
0.121601
0.144052
0.167845
0.192689
0.218298
0.244393
0.270718
0.297035
0.323133
0.348828
0.373962
0.398405
0.42205
0.444812
0.466626
0.487449
0.507253
0.526026
0.543769
0.560492
0.576216
0.590967
0.604777
0.617683
0.629722
0.640936
0.651368
0.661059
0.670052
0.678389
0.686109
0.693253
0.699859
0.705911
0.711367
0.716595
0.721422
0.725881
0.729957
0.733887
0.737624
0.74117
0.744529
0.747701
0.750683
0.753472
0.756063
0.758449
0.760624
0.762579
0.764304
0.765791
0.767029
0.768011
0.768746
0.769256
0.769583
0.769778
0.769887
0.769945
0.769973
0.769987
0.769994
0.769997
0.769999
0.769999
0.77
0.77
0.77
0.77
0.77
0.77
0.77
0.77
0.77
0.77
0.77
2.342e-06
1.02352e-05
2.35109e-05
4.57616e-05
8.28675e-05
0.000144337
0.000245333
0.000409645
0.000673897
0.00109324
0.00174862
0.00275519
0.00427083
0.0065023
0.00970569
0.0141767
0.0202281
0.0281556
0.0381988
0.0505084
0.0651286
0.0819988
0.100969
0.121824
0.144304
0.168126
0.192999
0.218633
0.244754
0.271102
0.29744
0.323558
0.34927
0.374418
0.398873
0.422528
0.445297
0.467116
0.487941
0.507745
0.526516
0.544254
0.560972
0.576688
0.59143
0.605229
0.618123
0.630149
0.64135
0.651767
0.661443
0.670419
0.678739
0.686442
0.693569
0.700159
0.706197
0.711637
0.716849
0.721661
0.726106
0.730179
0.734102
0.737831
0.741371
0.744722
0.747884
0.750856
0.753633
0.756212
0.758585
0.760747
0.762688
0.764399
0.765871
0.767093
0.768061
0.768781
0.769279
0.769598
0.769786
0.769891
0.769947
0.769974
0.769988
0.769994
0.769997
0.769999
0.77
0.77
0.77
0.77
0.77
0.77
0.77
0.77
0.77
0.77
0.77
0.77
2.34631e-06
1.0254e-05
2.35541e-05
4.5846e-05
8.30207e-05
0.000144605
0.000245792
0.000410418
0.00067518
0.00109534
0.001752
0.00276055
0.00427914
0.00651492
0.00972437
0.0142036
0.0202656
0.0282064
0.0382654
0.0505929
0.0652328
0.082124
0.101116
0.121994
0.144496
0.168339
0.193233
0.218887
0.245027
0.271392
0.297747
0.323879
0.349603
0.374762
0.399226
0.422888
0.445662
0.467484
0.488311
0.508114
0.526884
0.544619
0.561332
0.577042
0.591776
0.605568
0.618452
0.630468
0.641658
0.652063
0.661727
0.670692
0.679
0.686692
0.693809
0.700389
0.706414
0.711842
0.717042
0.721842
0.726274
0.730345
0.734262
0.737986
0.74152
0.744864
0.74802
0.750983
0.753753
0.756322
0.758686
0.760838
0.762768
0.764469
0.76593
0.767141
0.768097
0.768807
0.769296
0.769608
0.769792
0.769894
0.769948
0.769975
0.769988
0.769995
0.769998
0.769999
0.77
0.77
0.77
0.77
0.77
0.77
0.77
0.77
0.77
0.77
0.77
0.77
2.34918e-06
1.02666e-05
2.35829e-05
4.59021e-05
8.31225e-05
0.000144783
0.000246097
0.000410931
0.00067603
0.00109673
0.00175424
0.00276409
0.00428464
0.00652328
0.00973676
0.0142214
0.0202906
0.0282401
0.0383096
0.0506491
0.0653021
0.0822074
0.101214
0.122106
0.144623
0.168481
0.193389
0.219057
0.24521
0.271587
0.297952
0.324093
0.349826
0.374993
0.399462
0.423129
0.445906
0.467731
0.488558
0.508361
0.527129
0.544862
0.561571
0.577277
0.592007
0.605792
0.61867
0.63068
0.641862
0.65226
0.661917
0.670875
0.679176
0.686861
0.69397
0.700541
0.706558
0.711978
0.71717
0.721962
0.726386
0.730455
0.734369
0.738089
0.741619
0.744959
0.748109
0.751068
0.753832
0.756395
0.758753
0.760898
0.762822
0.764515
0.765968
0.767172
0.768121
0.768824
0.769307
0.769615
0.769796
0.769896
0.769949
0.769976
0.769989
0.769995
0.769998
0.769999
0.77
0.77
0.77
0.77
0.77
0.77
0.77
0.77
0.77
0.77
0.77
0.77
2.3506e-06
1.02728e-05
2.3597e-05
4.59295e-05
8.31721e-05
0.00014487
0.000246244
0.000411177
0.000676438
0.0010974
0.00175531
0.00276578
0.00428726
0.00652725
0.00974262
0.0142299
0.0203024
0.0282562
0.0383307
0.0506759
0.0653353
0.0822475
0.101262
0.122161
0.144685
0.168551
0.193465
0.21914
0.245299
0.271682
0.298053
0.324199
0.349936
0.375107
0.399579
0.423248
0.446027
0.467853
0.48868
0.508484
0.527251
0.544983
0.561691
0.577394
0.592122
0.605904
0.618779
0.630786
0.641965
0.65236
0.662013
0.670967
0.679264
0.686945
0.694049
0.700617
0.706629
0.712046
0.717234
0.722022
0.726441
0.73051
0.734422
0.73814
0.741668
0.745006
0.748154
0.75111
0.753871
0.756431
0.758786
0.760928
0.762848
0.764538
0.765987
0.767187
0.768132
0.768832
0.769313
0.769618
0.769798
0.769897
0.76995
0.769976
0.769989
0.769995
0.769998
0.769999
0.77
0.77
0.77
0.77
0.77
0.77
0.77
0.77
0.77
0.77
0.77
0.77
2.35063e-06
1.02729e-05
2.35973e-05
4.59301e-05
8.31731e-05
0.000144872
0.000246247
0.000411183
0.000676447
0.00109741
0.00175534
0.00276582
0.00428732
0.00652734
0.00974276
0.0142301
0.0203027
0.0282566
0.0383312
0.0506765
0.0653361
0.0822484
0.101263
0.122162
0.144686
0.168552
0.193467
0.219142
0.245301
0.271684
0.298054
0.324201
0.349938
0.375108
0.399581
0.423249
0.446029
0.467854
0.488682
0.508485
0.527252
0.544984
0.561692
0.577396
0.592123
0.605905
0.61878
0.630786
0.641966
0.652361
0.662014
0.670967
0.679264
0.686945
0.69405
0.700617
0.70663
0.712046
0.717234
0.722022
0.726442
0.73051
0.734422
0.73814
0.741668
0.745006
0.748154
0.75111
0.753871
0.756432
0.758786
0.760928
0.762848
0.764538
0.765987
0.767187
0.768132
0.768832
0.769313
0.769618
0.769798
0.769897
0.76995
0.769976
0.769989
0.769995
0.769998
0.769999
0.77
0.77
0.77
0.77
0.77
0.77
0.77
0.77
0.77
0.77
0.77
0.77
2.34928e-06
1.0267e-05
2.35838e-05
4.59039e-05
8.31258e-05
0.000144789
0.000246107
0.000410948
0.000676058
0.00109678
0.00175432
0.00276421
0.00428483
0.00652356
0.00973717
0.014222
0.0202914
0.0282413
0.038311
0.0506509
0.0653043
0.08221
0.101217
0.12211
0.144627
0.168485
0.193393
0.219062
0.245214
0.271591
0.297957
0.324098
0.349831
0.374997
0.399467
0.423133
0.445911
0.467735
0.488562
0.508365
0.527133
0.544866
0.561575
0.57728
0.59201
0.605795
0.618673
0.630682
0.641865
0.652263
0.661919
0.670877
0.679178
0.686863
0.693971
0.700542
0.706559
0.711979
0.717171
0.721963
0.726386
0.730456
0.73437
0.73809
0.741619
0.744959
0.74811
0.751069
0.753832
0.756396
0.758754
0.760899
0.762822
0.764516
0.765969
0.767172
0.768121
0.768824
0.769307
0.769615
0.769796
0.769896
0.769949
0.769976
0.769989
0.769995
0.769998
0.769999
0.77
0.77
0.77
0.77
0.77
0.77
0.77
0.77
0.77
0.77
0.77
0.77
2.34647e-06
1.02548e-05
2.35558e-05
4.58492e-05
8.30265e-05
0.000144616
0.00024581
0.000410448
0.00067523
0.00109542
0.00175214
0.00276076
0.00427946
0.00651542
0.0097251
0.0142046
0.0202671
0.0282084
0.0382679
0.050596
0.0652366
0.0821285
0.101122
0.121999
0.144502
0.168346
0.19324
0.218895
0.245035
0.2714
0.297755
0.323887
0.349611
0.37477
0.399234
0.422895
0.445669
0.467491
0.488318
0.508121
0.52689
0.544625
0.561338
0.577047
0.591782
0.605572
0.618456
0.630472
0.641662
0.652067
0.661731
0.670695
0.679003
0.686695
0.693812
0.700391
0.706416
0.711844
0.717044
0.721844
0.726275
0.730346
0.734263
0.737987
0.741521
0.744865
0.748021
0.750984
0.753753
0.756323
0.758687
0.760839
0.762769
0.76447
0.76593
0.767141
0.768097
0.768807
0.769296
0.769608
0.769792
0.769894
0.769948
0.769975
0.769988
0.769995
0.769998
0.769999
0.77
0.77
0.77
0.77
0.77
0.77
0.77
0.77
0.77
0.77
0.77
0.77
2.34223e-06
1.02362e-05
2.35132e-05
4.57663e-05
8.28759e-05
0.000144352
0.000245359
0.000409688
0.000673969
0.00109336
0.00174881
0.0027555
0.00427129
0.00650301
0.00970672
0.0141782
0.0202301
0.0281583
0.0382024
0.0505128
0.0651339
0.0820051
0.100977
0.121833
0.144313
0.168136
0.193009
0.218644
0.244765
0.271113
0.297452
0.323569
0.349281
0.374429
0.398884
0.422538
0.445307
0.467126
0.48795
0.507754
0.526525
0.544263
0.56098
0.576696
0.591437
0.605236
0.618129
0.630155
0.641355
0.651772
0.661448
0.670424
0.678743
0.686446
0.693573
0.700163
0.7062
0.71164
0.716852
0.721664
0.726108
0.730181
0.734104
0.737833
0.741372
0.744723
0.747886
0.750857
0.753634
0.756213
0.758586
0.760748
0.762689
0.7644
0.765872
0.767094
0.768061
0.768782
0.76928
0.769598
0.769786
0.769891
0.769947
0.769974
0.769988
0.769994
0.769997
0.769999
0.77
0.77
0.77
0.77
0.77
0.77
0.77
0.77
0.77
0.77
0.77
0.77
2.33658e-06
1.02116e-05
2.34565e-05
4.56558e-05
8.26753e-05
0.000144001
0.000244757
0.000408676
0.00067229
0.00109062
0.00174439
0.0027485
0.00426043
0.00648651
0.00968231
0.014143
0.0201811
0.028092
0.0381154
0.0504024
0.0649977
0.0818415
0.100785
0.121611
0.144063
0.167857
0.192703
0.218311
0.244407
0.270732
0.297049
0.323148
0.348843
0.373976
0.398419
0.422064
0.444825
0.466639
0.487461
0.507265
0.526038
0.54378
0.560503
0.576226
0.590977
0.604787
0.617691
0.62973
0.640944
0.651375
0.661066
0.670058
0.678394
0.686115
0.693258
0.699864
0.705915
0.711371
0.716598
0.721425
0.725884
0.72996
0.73389
0.737626
0.741172
0.744531
0.747703
0.750684
0.753474
0.756064
0.75845
0.760625
0.76258
0.764305
0.765792
0.767029
0.768012
0.768746
0.769256
0.769583
0.769778
0.769887
0.769945
0.769973
0.769987
0.769994
0.769997
0.769999
0.769999
0.77
0.77
0.77
0.77
0.77
0.77
0.77
0.77
0.77
0.77
0.77
2.32958e-06
1.0181e-05
2.33864e-05
4.55191e-05
8.2427e-05
0.000143566
0.000244014
0.000407426
0.000670217
0.00108723
0.00173894
0.00273986
0.00424703
0.00646619
0.00965223
0.0140997
0.0201206
0.0280102
0.0380083
0.0502664
0.06483
0.0816399
0.100548
0.121339
0.143755
0.167514
0.192325
0.217901
0.243966
0.270261
0.296552
0.322626
0.3483
0.373416
0.397842
0.421475
0.444227
0.466034
0.486853
0.506655
0.52543
0.543177
0.559907
0.575639
0.5904
0.604223
0.617141
0.629196
0.640426
0.650875
0.660584
0.669595
0.677951
0.685691
0.692856
0.699483
0.705552
0.71103
0.716277
0.721124
0.725604
0.729683
0.733622
0.737369
0.740927
0.744298
0.74748
0.750473
0.753272
0.755875
0.758276
0.760469
0.762441
0.764185
0.76569
0.766946
0.767948
0.7687
0.769226
0.769566
0.769769
0.769882
0.769942
0.769972
0.769987
0.769994
0.769997
0.769999
0.769999
0.77
0.77
0.77
0.77
0.77
0.77
0.77
0.77
0.77
0.77
0.77
2.32132e-06
1.01449e-05
2.33035e-05
4.53577e-05
8.21339e-05
0.000143053
0.000243138
0.000405953
0.000667776
0.00108324
0.00173253
0.00272973
0.00423132
0.00644235
0.00961697
0.014049
0.0200498
0.0279144
0.0378829
0.0501071
0.0646334
0.0814035
0.10027
0.121019
0.143393
0.16711
0.191881
0.217418
0.243445
0.269707
0.295965
0.322011
0.347658
0.372751
0.397159
0.420776
0.443515
0.465314
0.486127
0.505928
0.524704
0.542455
0.559192
0.574934
0.589708
0.603544
0.616479
0.628551
0.639801
0.65027
0.66
0.669033
0.677411
0.685174
0.692361
0.69901
0.705101
0.710605
0.715877
0.72075
0.725256
0.729345
0.733297
0.737056
0.740628
0.744014
0.747212
0.750222
0.753039
0.755658
0.758075
0.760281
0.762273
0.764037
0.765564
0.766842
0.767869
0.768647
0.769192
0.769545
0.769756
0.769875
0.769938
0.76997
0.769986
0.769994
0.769997
0.769999
0.769999
0.77
0.77
0.77
0.77
0.77
0.77
0.77
0.77
0.77
0.77
0.77
2.31187e-06
1.01036e-05
2.32088e-05
4.51733e-05
8.17995e-05
0.000142469
0.00024214
0.000404277
0.000665002
0.00107872
0.00172525
0.00271824
0.00421353
0.00641539
0.00957712
0.0139917
0.0199699
0.0278063
0.0377413
0.0499273
0.0644115
0.0811367
0.0999564
0.120658
0.142984
0.166653
0.191377
0.216869
0.242855
0.269075
0.295297
0.321308
0.346925
0.371991
0.396375
0.419972
0.442697
0.464484
0.48529
0.505087
0.523863
0.541617
0.558361
0.574113
0.588899
0.602751
0.615704
0.627795
0.639066
0.649558
0.659312
0.668371
0.676775
0.684565
0.69178
0.698459
0.704599
0.710127
0.715421
0.720314
0.724839
0.728941
0.732905
0.73668
0.740267
0.74367
0.746886
0.749915
0.752753
0.755395
0.757836
0.760065
0.762074
0.763862
0.765417
0.766729
0.767785
0.768585
0.769149
0.769518
0.769741
0.769867
0.769934
0.769968
0.769985
0.769993
0.769997
0.769999
0.769999
0.77
0.77
0.77
0.77
0.77
0.77
0.77
0.77
0.77
0.77
0.77
2.30131e-06
1.00576e-05
2.31031e-05
4.49677e-05
8.14268e-05
0.000141818
0.00024103
0.000402416
0.000661928
0.00107371
0.00171722
0.00270558
0.00419393
0.00638574
0.00953335
0.0139288
0.0198822
0.0276879
0.0375862
0.0497304
0.0641685
0.0808444
0.0996127
0.120261
0.142534
0.166151
0.190824
0.216266
0.242203
0.268378
0.294557
0.320529
0.34611
0.371144
0.395501
0.419074
0.44178
0.463552
0.484347
0.504138
0.522912
0.540668
0.557418
0.573179
0.587978
0.601846
0.614817
0.626929
0.638223
0.64874
0.65852
0.667606
0.676037
0.683855
0.691097
0.697803
0.704001
0.709554
0.714862
0.719778
0.724328
0.728455
0.732441
0.736236
0.739843
0.743265
0.746502
0.749553
0.752414
0.755082
0.75755
0.759812
0.761855
0.763675
0.76526
0.766598
0.767679
0.768506
0.769096
0.769485
0.769722
0.769857
0.769929
0.769966
0.769984
0.769993
0.769997
0.769998
0.769999
0.77
0.77
0.77
0.77
0.77
0.77
0.77
0.77
0.77
0.77
0.77
2.28971e-06
1.0007e-05
2.2987e-05
4.4742e-05
8.10183e-05
0.000141106
0.000239818
0.000400388
0.000658583
0.00106827
0.00170852
0.00269189
0.00417281
0.00635385
0.00948636
0.0138615
0.0197884
0.0275614
0.0374207
0.0495204
0.0639094
0.0805328
0.0992463
0.119839
0.142054
0.165615
0.190231
0.215618
0.241503
0.267628
0.293759
0.319686
0.345227
0.370224
0.394548
0.418094
0.440775
0.462528
0.483309
0.503091
0.521859
0.539615
0.556369
0.572138
0.586949
0.600831
0.613821
0.625955
0.637273
0.647815
0.657624
0.666739
0.675202
0.683052
0.690327
0.697063
0.703306
0.708961
0.71416
0.719131
0.723724
0.727895
0.731909
0.735728
0.739356
0.7428
0.74606
0.749134
0.752021
0.754717
0.757214
0.759507
0.76158
0.763436
0.765055
0.766428
0.767546
0.768409
0.76903
0.769444
0.769698
0.769844
0.769922
0.769963
0.769982
0.769992
0.769996
0.769998
0.769999
0.77
0.77
0.77
0.77
0.77
0.77
0.77
0.77
0.77
0.77
0.77
2.27706e-06
9.95178e-06
2.28606e-05
4.44966e-05
8.05748e-05
0.000140335
0.000238507
0.0003982
0.000654985
0.00106244
0.00169922
0.00267731
0.00415039
0.00632012
0.00943683
0.0137907
0.0196902
0.0274291
0.0372481
0.0493017
0.06364
0.0802091
0.0988656
0.119399
0.141556
0.165056
0.189614
0.214942
0.24077
0.26684
0.292919
0.318798
0.344293
0.369248
0.393534
0.417046
0.439699
0.461428
0.48219
0.501957
0.520717
0.538469
0.555223
0.570998
0.585818
0.599715
0.612722
0.624877
0.636219
0.646789
0.656627
0.665775
0.674272
0.682158
0.689472
0.69625
0.702519
0.708216
0.713429
0.718426
0.723053
0.727292
0.731323
0.735157
0.738805
0.74227
0.745553
0.748654
0.751568
0.754294
0.756823
0.75915
0.761257
0.763151
0.764811
0.766228
0.767389
0.768294
0.768952
0.769395
0.76967
0.769828
0.769914
0.769959
0.76998
0.769991
0.769996
0.769998
0.769999
0.77
0.77
0.77
0.77
0.77
0.77
0.77
0.77
0.77
0.77
0.77
2.26328e-06
9.89169e-06
2.27231e-05
4.423e-05
8.00939e-05
0.0001395
0.000237094
0.000395849
0.000651136
0.00105623
0.00168937
0.00266194
0.00412687
0.00628491
0.00938539
0.0137175
0.0195891
0.0272937
0.037072
0.0490793
0.0633667
0.0798813
0.0984807
0.118955
0.141052
0.164492
0.188988
0.214257
0.240025
0.266037
0.29206
0.317885
0.34333
0.368238
0.392481
0.415953
0.438571
0.460271
0.481009
0.500757
0.519503
0.537246
0.553997
0.569773
0.584599
0.598507
0.611529
0.623703
0.635068
0.645664
0.655532
0.664711
0.673241
0.681163
0.688513
0.695329
0.701646
0.707404
0.712651
0.717674
0.722325
0.726639
0.730654
0.734509
0.738179
0.741668
0.744977
0.748106
0.751052
0.75381
0.756376
0.75874
0.76089
0.762827
0.764533
0.765996
0.767207
0.768158
0.768858
0.769335
0.769635
0.769809
0.769905
0.769954
0.769978
0.76999
0.769995
0.769998
0.769999
0.77
0.77
0.77
0.77
0.77
0.77
0.77
0.77
0.77
0.77
0.77
2.24812e-06
9.82563e-06
2.25721e-05
4.39377e-05
7.95678e-05
0.00013859
0.000235557
0.000393304
0.000646987
0.00104958
0.00167887
0.00264568
0.00410218
0.00624824
0.00933227
0.0136426
0.0194865
0.0271571
0.0368958
0.0488582
0.0630965
0.0795586
0.0981029
0.118521
0.140559
0.163939
0.188375
0.213583
0.23929
0.265243
0.291207
0.316975
0.342365
0.367221
0.391415
0.414842
0.43742
0.459084
0.47979
0.499513
0.518239
0.535967
0.552709
0.568482
0.58331
0.597224
0.610258
0.622449
0.633834
0.644454
0.654348
0.663557
0.67212
0.680076
0.687463
0.694315
0.700669
0.706474
0.711768
0.716844
0.721548
0.725912
0.729918
0.733791
0.737483
0.740996
0.744333
0.747492
0.750471
0.753265
0.755869
0.758276
0.760475
0.762459
0.764214