/*--------------------------------*- C++ -*----------------------------------*\
  =========                 |
  \\      /  F ield         | OpenFOAM: The Open Source CFD Toolbox
   \\    /   O peration     | Website:  https://openfoam.org
    \\  /    A nd           | Version:  8
     \\/     M anipulation  |
\*---------------------------------------------------------------------------*/
FoamFile
{
    version     2.0;
    format      ascii;
    class       volScalarField;
    location    "320/fluid";
    object      O2;
}
// * * * * * * * * * * * * * * * * * * * * * * * * * * * * * * * * * * * * * //

dimensions      [0 0 0 0 0 0 0];

internalField   nonuniform List<scalar> 
4000
(
4.09506e-10
1.78766e-09
4.09654e-09
7.94527e-09
1.4323e-08
2.48176e-08
4.19438e-08
6.96207e-08
1.13841e-07
1.83564e-07
2.91824e-07
4.56961e-07
7.03739e-07
1.0639e-06
1.5755e-06
2.28036e-06
3.2193e-06
4.42572e-06
5.91935e-06
7.70264e-06
9.76223e-06
1.20406e-05
1.44901e-05
1.70488e-05
1.96513e-05
2.2241e-05
2.47639e-05
2.71721e-05
2.94243e-05
3.14871e-05
3.3334e-05
3.4943e-05
3.63195e-05
3.74897e-05
3.8505e-05
3.95118e-05
4.06727e-05
4.22317e-05
4.45222e-05
4.79763e-05
5.31397e-05
6.0698e-05
7.15168e-05
8.66942e-05
0.000107634
0.00013614
0.000174551
0.000225905
0.000294163
0.000384495
0.000503646
0.000660412
0.000866244
0.00113603
0.0014891
0.00195049
0.00255257
0.00333707
0.00435237
0.00564429
0.00735654
0.00956735
0.0124145
0.0160231
0.0325162
0.0492978
0.0660829
0.0826518
0.0988314
0.114483
0.129492
0.143763
0.157208
0.169745
0.181235
0.191716
0.201015
0.209029
0.215654
0.220818
0.224543
0.226992
0.228452
0.229249
0.229649
0.22984
0.229929
0.229969
0.229987
0.229994
0.229998
0.229999
0.23
0.23
0.23
0.23
0.23
0.23
0.23
0.23
4.20758e-10
1.8383e-09
4.21889e-09
8.19893e-09
1.48143e-08
2.5731e-08
4.35896e-08
7.2505e-08
1.18762e-07
1.91734e-07
3.05006e-07
4.77608e-07
7.35089e-07
1.10999e-06
1.64107e-06
2.37052e-06
3.339e-06
4.57865e-06
6.10593e-06
7.91614e-06
9.98131e-06
1.22869e-05
1.47836e-05
1.74258e-05
2.0108e-05
2.27733e-05
2.53666e-05
2.78372e-05
3.01402e-05
3.22376e-05
3.4099e-05
3.57052e-05
3.7121e-05
3.83605e-05
3.94885e-05
4.05774e-05
4.1816e-05
4.34701e-05
4.58927e-05
4.95349e-05
5.49609e-05
6.28749e-05
7.41609e-05
8.99372e-05
0.000111631
0.000141078
0.000180657
0.000233464
0.00030354
0.000396173
0.000518277
0.000678906
0.000889911
0.00116681
0.00152996
0.00200603
0.00263012
0.00344838
0.00451097
0.00588985
0.00774254
0.0101725
0.0133626
0.0174859
0.0342555
0.0512216
0.0681334
0.084791
0.101032
0.116724
0.131755
0.146027
0.159452
0.171943
0.183357
0.193714
0.202836
0.210615
0.216949
0.221788
0.225194
0.227378
0.228656
0.229346
0.229692
0.229859
0.229936
0.229972
0.229988
0.229995
0.229998
0.229999
0.23
0.23
0.23
0.23
0.23
0.23
0.23
0.23
4.3742e-10
1.91201e-09
4.39193e-09
8.54464e-09
1.5457e-08
2.68763e-08
4.55693e-08
7.58413e-08
1.24254e-07
2.00568e-07
3.18897e-07
4.98952e-07
7.67133e-07
1.15701e-06
1.70851e-06
2.46519e-06
3.46918e-06
4.75432e-06
6.33908e-06
8.22143e-06
1.03772e-05
1.27622e-05
1.53162e-05
1.79665e-05
2.06936e-05
2.34254e-05
2.60989e-05
2.86601e-05
3.10651e-05
3.32812e-05
3.52901e-05
3.70943e-05
3.86349e-05
3.99546e-05
4.11295e-05
4.22863e-05
4.36224e-05
4.54198e-05
4.80535e-05
5.19994e-05
5.78488e-05
6.63339e-05
7.83683e-05
9.5103e-05
0.000118004
0.000148954
0.000190396
0.000245504
0.000318427
0.000414592
0.000541104
0.000707275
0.000925329
0.00121133
0.00158647
0.00207878
0.00272551
0.00357654
0.00468083
0.00612876
0.00810595
0.0107562
0.0143502
0.0204038
0.0373764
0.0544824
0.0714852
0.0881925
0.104446
0.120115
0.135086
0.149259
0.162543
0.174845
0.186059
0.196122
0.204902
0.212295
0.218222
0.222669
0.225744
0.227688
0.228815
0.229421
0.229726
0.229874
0.229943
0.229975
0.229989
0.229995
0.229998
0.229999
0.23
0.23
0.23
0.23
0.23
0.23
0.23
0.23
4.54255e-10
1.98573e-09
4.56188e-09
8.87671e-09
1.60598e-08
2.7926e-08
4.73467e-08
7.87854e-08
1.29039e-07
2.0821e-07
3.30893e-07
5.17464e-07
7.95209e-07
1.19883e-06
1.76963e-06
2.55279e-06
3.59222e-06
4.92368e-06
6.56769e-06
8.52428e-06
1.07715e-05
1.32679e-05
1.59575e-05
1.87761e-05
2.16578e-05
2.45373e-05
2.73536e-05
3.00519e-05
3.25853e-05
3.49157e-05
3.70153e-05
3.88686e-05
4.04761e-05
4.18697e-05
4.31258e-05
4.43821e-05
4.58528e-05
4.78422e-05
5.07536e-05
5.50941e-05
6.14883e-05
7.07037e-05
8.36915e-05
0.000101646
0.000126084
0.000158954
0.000202778
0.000260835
0.0003374
0.000438054
0.000570081
0.000742999
0.000969238
0.00126505
0.00165171
0.00215707
0.00281775
0.00368191
0.00479269
0.00623291
0.00817043
0.0107123
0.0140535
0.0244644
0.0414246
0.0585379
0.0755396
0.0922218
0.108418
0.123992
0.138829
0.152827
0.165892
0.177914
0.188844
0.198559
0.206955
0.213941
0.219458
0.223523
0.226282
0.227996
0.228977
0.229501
0.229764
0.229891
0.229951
0.229978
0.22999
0.229996
0.229998
0.229999
0.23
0.23
0.23
0.23
0.23
0.23
0.23
0.23
4.70566e-10
2.05701e-09
4.72568e-09
9.19571e-09
1.66377e-08
2.89321e-08
4.90543e-08
8.16286e-08
1.33695e-07
2.15716e-07
3.42803e-07
5.36049e-07
8.23702e-07
1.24169e-06
1.83283e-06
2.644e-06
3.72098e-06
5.10138e-06
6.80736e-06
8.84031e-06
1.11792e-05
1.37827e-05
1.65943e-05
1.95484e-05
2.25757e-05
2.56074e-05
2.85792e-05
3.14326e-05
3.41173e-05
3.65916e-05
3.88249e-05
4.08004e-05
4.2522e-05
4.40255e-05
4.53958e-05
4.67853e-05
4.84296e-05
5.06605e-05
5.39143e-05
5.87346e-05
6.57842e-05
7.58715e-05
8.99932e-05
0.000109397
0.000135667
0.00017084
0.00021755
0.000279224
0.000360329
0.000466688
0.000605896
0.000787851
0.00102545
0.00133547
0.00173976
0.0022667
0.00295314
0.00384695
0.00498163
0.00645251
0.00841538
0.0109663
0.0142695
0.0287233
0.045668
0.0627841
0.0797706
0.0964032
0.112509
0.12795
0.142612
0.156395
0.169205
0.180904
0.191509
0.20086
0.208865
0.215445
0.220563
0.22427
0.226742
0.228255
0.229112
0.229567
0.229795
0.229905
0.229957
0.229981
0.229992
0.229996
0.229998
0.229999
0.23
0.23
0.23
0.23
0.23
0.23
0.23
0.23
4.86105e-10
2.12485e-09
4.88129e-09
9.49815e-09
1.71846e-08
2.98834e-08
5.06688e-08
8.43197e-08
1.38113e-07
2.22866e-07
3.54211e-07
5.53978e-07
8.5143e-07
1.28383e-06
1.89566e-06
2.73576e-06
3.85204e-06
5.28421e-06
7.05628e-06
9.17096e-06
1.16079e-05
1.43257e-05
1.72671e-05
2.03647e-05
2.3547e-05
2.67427e-05
2.98839e-05
3.29091e-05
3.57643e-05
3.84047e-05
4.07969e-05
4.29223e-05
4.47854e-05
4.64262e-05
4.79393e-05
4.94945e-05
5.1352e-05
5.38752e-05
5.75375e-05
6.29222e-05
7.0734e-05
8.18262e-05
9.72468e-05
0.000118307
0.000146672
0.000184488
0.000234536
0.000300443
0.000386947
0.00050024
0.000648427
0.00084211
0.00109516
0.00142574
0.00185757
0.00242167
0.00315851
0.00411996
0.00534089
0.0069703
0.00908343
0.0118057
0.0152142
0.0322094
0.049507
0.0667997
0.0838448
0.100451
0.116464
0.131759
0.146228
0.159776
0.172316
0.183714
0.193984
0.202974
0.210599
0.216794
0.221542
0.224925
0.227142
0.228481
0.22923
0.229625
0.229822
0.229918
0.229963
0.229983
0.229993
0.229997
0.229999
0.229999
0.23
0.23
0.23
0.23
0.23
0.23
0.23
0.23
5.01112e-10
2.19038e-09
5.03167e-09
9.7907e-09
1.77145e-08
3.08073e-08
5.2242e-08
8.69531e-08
1.42459e-07
2.29942e-07
3.65573e-07
5.71962e-07
8.79444e-07
1.32671e-06
1.96005e-06
2.83043e-06
3.98811e-06
5.47512e-06
7.31755e-06
9.51965e-06
1.20619e-05
1.49029e-05
1.79846e-05
2.12381e-05
2.45896e-05
2.79651e-05
3.12936e-05
3.45102e-05
3.75572e-05
4.03866e-05
4.29617e-05
4.52622e-05
4.72929e-05
4.90983e-05
5.07846e-05
5.25414e-05
5.46562e-05
5.75279e-05
6.16696e-05
6.77061e-05
7.63853e-05
8.86066e-05
0.000105471
0.000128355
0.000159012
0.000199703
0.000253364
0.000323836
0.000416146
0.000536895
0.000694759
0.000901166
0.0011712
0.00152482
0.00198855
0.00259776
0.00339988
0.00444936
0.00581686
0.00769392
0.0102083
0.0136115
0.018236
0.0356952
0.0532566
0.0706718
0.0877381
0.104289
0.120189
0.13532
0.149585
0.162893
0.175158
0.186294
0.196233
0.204874
0.212141
0.217978
0.222389
0.225482
0.227479
0.228668
0.229328
0.229673
0.229845
0.229928
0.229967
0.229985
0.229994
0.229997
0.229999
0.229999
0.23
0.23
0.23
0.23
0.23
0.23
0.23
0.23
5.15687e-10
2.25403e-09
5.1778e-09
1.00752e-08
1.82302e-08
3.17079e-08
5.37787e-08
8.95325e-08
1.4673e-07
2.36924e-07
3.76841e-07
5.89892e-07
9.07541e-07
1.36999e-06
2.02548e-06
2.92728e-06
4.12824e-06
5.67299e-06
7.58996e-06
9.88523e-06
1.25403e-05
1.5514e-05
1.87475e-05
2.21706e-05
2.57073e-05
2.92808e-05
3.2817e-05
3.62475e-05
3.95109e-05
4.25555e-05
4.53413e-05
4.7846e-05
5.00747e-05
5.20776e-05
5.39742e-05
5.59764e-05
5.84023e-05
6.16892e-05
6.63921e-05
7.31784e-05
8.28385e-05
9.63168e-05
0.000114766
0.000139627
0.000172733
0.00021645
0.00027385
0.000348946
0.000446992
0.000574875
0.000741648
0.000959226
0.00124333
0.00161478
0.00210117
0.00273932
0.0035785
0.00466936
0.00608816
0.00803113
0.0106192
0.0140874
0.0219994
0.0394894
0.0570595
0.0744461
0.0914436
0.107887
0.123642
0.138597
0.152653
0.165725
0.17773
0.188593
0.198228
0.20655
0.213489
0.219002
0.223112
0.225952
0.22776
0.228824
0.229409
0.229713
0.229864
0.229937
0.229971
0.229987
0.229994
0.229998
0.229999
0.23
0.23
0.23
0.23
0.23
0.23
0.23
0.23
0.23
5.29899e-10
2.31611e-09
5.32041e-09
1.0353e-08
1.87347e-08
3.25904e-08
5.52882e-08
9.20736e-08
1.50952e-07
2.43853e-07
3.8807e-07
6.07845e-07
9.35813e-07
1.41377e-06
2.09199e-06
3.02626e-06
4.27218e-06
5.87728e-06
7.87262e-06
1.02664e-05
1.30414e-05
1.61571e-05
1.95541e-05
2.3161e-05
2.68998e-05
3.06911e-05
3.44577e-05
3.81275e-05
4.16354e-05
4.49257e-05
4.7955e-05
5.06988e-05
5.31629e-05
5.54044e-05
5.75583e-05
5.9862e-05
6.26665e-05
6.64514e-05
7.18153e-05
7.94688e-05
9.02453e-05
0.000105134
0.000125341
0.000152371
0.000188136
0.000235099
0.000296454
0.000376358
0.00048023
0.000615149
0.000790368
0.001018
0.00131392
0.00169898
0.00220058
0.00285487
0.00370958
0.00481021
0.00622843
0.0081481
0.0106683
0.0139853
0.0258269
0.0432096
0.0606886
0.0779808
0.0948684
0.111181
0.126782
0.141559
0.155417
0.168269
0.180009
0.190619
0.199981
0.208015
0.214658
0.21988
0.223725
0.226346
0.227993
0.228952
0.229475
0.229746
0.22988
0.229944
0.229975
0.229989
0.229995
0.229998
0.229999
0.23
0.23
0.23
0.23
0.23
0.23
0.23
0.23
0.23
5.43727e-10
2.37653e-09
5.45926e-09
1.06238e-08
1.92268e-08
3.34526e-08
5.67658e-08
9.45669e-08
1.55106e-07
2.50693e-07
3.99197e-07
6.25706e-07
9.64063e-07
1.45772e-06
2.15909e-06
3.12659e-06
4.41882e-06
6.08644e-06
8.16347e-06
1.06606e-05
1.35623e-05
1.68288e-05
2.04008e-05
2.42059e-05
2.81644e-05
3.21945e-05
3.62159e-05
4.01531e-05
4.3937e-05
4.7508e-05
5.08192e-05
5.38437e-05
5.65888e-05
5.91196e-05
6.15898e-05
6.42651e-05
6.75319e-05
7.19156e-05
7.80602e-05
8.6721e-05
9.87759e-05
0.000115264
0.000137449
0.000166909
0.000205648
0.000256242
0.000322022
0.000407313
0.000517731
0.000660577
0.000845354
0.00108443
0.00139394
0.00179491
0.00231485
0.0029896
0.00386456
0.00498193
0.00642029
0.00836152
0.0109058
0.0142297
0.0291282
0.046472
0.0639015
0.0811241
0.0979182
0.114113
0.129572
0.144187
0.157862
0.170514
0.182024
0.192403
0.201515
0.209287
0.215665
0.220629
0.224242
0.226674
0.228185
0.229057
0.22953
0.229773
0.229893
0.22995
0.229977
0.22999
0.229996
0.229998
0.229999
0.23
0.23
0.23
0.23
0.23
0.23
0.23
0.23
0.23
5.57097e-10
2.43496e-09
5.59359e-09
1.08859e-08
1.97038e-08
3.42896e-08
5.82028e-08
9.69971e-08
1.59166e-07
2.57399e-07
4.10141e-07
6.43337e-07
9.9206e-07
1.50145e-06
2.22615e-06
3.22733e-06
4.56676e-06
6.29848e-06
8.45978e-06
1.10642e-05
1.40983e-05
1.75238e-05
2.12817e-05
2.52991e-05
2.94949e-05
3.37853e-05
3.80875e-05
4.23223e-05
4.64172e-05
5.03084e-05
5.39454e-05
5.72992e-05
6.03792e-05
6.32604e-05
6.61179e-05
6.92488e-05
7.30775e-05
7.81765e-05
8.52363e-05
9.50578e-05
0.000108567
0.000126858
0.000151265
0.000183451
0.000225534
0.000280234
0.000351063
0.000442572
0.000560662
0.000712986
0.000909475
0.00116302
0.00149033
0.00191311
0.00245945
0.00316545
0.00408058
0.00524028
0.0067271
0.00870631
0.0112543
0.0144735
0.0316189
0.0491149
0.0666059
0.0838243
0.100566
0.11667
0.13201
0.146482
0.159996
0.172472
0.183799
0.193973
0.202856
0.210389
0.216527
0.221264
0.224675
0.226946
0.228343
0.229143
0.229574
0.229794
0.229903
0.229955
0.22998
0.229991
0.229996
0.229998
0.229999
0.23
0.23
0.23
0.23
0.23
0.23
0.23
0.23
0.23
5.69886e-10
2.49085e-09
5.72215e-09
1.1137e-08
2.0161e-08
3.5093e-08
5.95846e-08
9.93389e-08
1.63088e-07
2.63894e-07
4.20775e-07
6.60528e-07
1.01946e-06
1.54442e-06
2.29233e-06
3.32719e-06
4.7141e-06
6.5107e-06
8.75788e-06
1.14724e-05
1.46435e-05
1.82347e-05
2.21879e-05
2.64304e-05
3.08805e-05
3.54528e-05
4.00621e-05
4.46266e-05
4.90701e-05
5.3325e-05
5.73373e-05
6.10764e-05
6.45542e-05
6.78579e-05
7.11868e-05
7.48711e-05
7.93739e-05
8.53137e-05
9.34266e-05
0.000104559
0.000119686
0.000139964
0.000166802
0.000201966
0.000247706
0.000306911
0.00038332
0.000481777
0.000608571
0.000771875
0.00098232
0.00125375
0.00160419
0.00205719
0.00264347
0.00340371
0.00438865
0.00562874
0.0072937
0.0094641
0.0122964
0.015925
0.0335368
0.0512857
0.0688947
0.086143
0.102854
0.118886
0.134121
0.148465
0.161831
0.174144
0.185314
0.195289
0.203986
0.211326
0.217257
0.221795
0.225034
0.22717
0.228473
0.229213
0.22961
0.229812
0.229911
0.229959
0.229981
0.229992
0.229996
0.229998
0.229999
0.23
0.23
0.23
0.23
0.23
0.23
0.23
0.23
0.23
5.81938e-10
2.54353e-09
5.84336e-09
1.13738e-08
2.05929e-08
3.58527e-08
6.08933e-08
1.01561e-07
1.66818e-07
2.70089e-07
4.30947e-07
6.77027e-07
1.04585e-06
1.58597e-06
2.35659e-06
3.42458e-06
4.85848e-06
6.71971e-06
9.05302e-06
1.18788e-05
1.51895e-05
1.89509e-05
2.31069e-05
2.75853e-05
3.23046e-05
3.71787e-05
4.2121e-05
4.70473e-05
5.18786e-05
5.65441e-05
6.09865e-05
6.51739e-05
6.91225e-05
7.2933e-05
7.68317e-05
8.1181e-05
8.64795e-05
9.3388e-05
0.000102684
0.000115256
0.000132128
0.000154514
0.000183903
0.000222162
0.000271667
0.000335481
0.000417561
0.00052304
0.000658592
0.000832913
0.00105735
0.00134674
0.00172057
0.00220445
0.00283224
0.0036489
0.00470715
0.00605406
0.00788001
0.0102829
0.0134634
0.0176232
0.0354295
0.0532908
0.0709459
0.0881889
0.104855
0.120811
0.135947
0.150168
0.163392
0.175536
0.186521
0.196321
0.204852
0.21205
0.217842
0.222231
0.225329
0.227353
0.228578
0.229269
0.229639
0.229826
0.229918
0.229962
0.229983
0.229992
0.229997
0.229999
0.229999
0.23
0.23
0.23
0.23
0.23
0.23
0.23
0.23
0.23
5.93073e-10
2.59221e-09
5.9554e-09
1.15929e-08
2.09926e-08
3.65568e-08
6.21082e-08
1.03628e-07
1.70295e-07
2.75877e-07
4.40478e-07
6.92535e-07
1.07074e-06
1.62532e-06
2.41768e-06
3.5176e-06
4.99704e-06
6.92133e-06
9.33931e-06
1.22753e-05
1.57255e-05
1.96587e-05
2.40211e-05
2.87425e-05
3.37424e-05
3.89348e-05
4.42328e-05
4.95513e-05
5.48092e-05
5.99335e-05
6.48646e-05
6.95705e-05
7.40726e-05
7.84882e-05
8.30715e-05
8.82118e-05
9.44365e-05
0.000102442
0.000113041
0.000127157
0.000145858
0.000170412
0.000202377
0.000243704
0.000296879
0.000365094
0.000452469
0.000564338
0.000707622
0.000891324
0.00112717
0.00143049
0.00182133
0.00232604
0.00297933
0.00382711
0.00492115
0.00631731
0.00820949
0.0106984
0.0139934
0.0193359
0.0372264
0.0551224
0.0727733
0.0899808
0.106586
0.122461
0.137497
0.151605
0.164704
0.176723
0.187618
0.197291
0.205664
0.212674
0.218306
0.222573
0.225565
0.227501
0.228663
0.229315
0.229662
0.229838
0.229924
0.229965
0.229984
0.229993
0.229997
0.229999
0.229999
0.23
0.23
0.23
0.23
0.23
0.23
0.23
0.23
0.23
6.03098e-10
2.63604e-09
6.05632e-09
1.17903e-08
2.13531e-08
3.71926e-08
6.32067e-08
1.055e-07
1.73451e-07
2.81144e-07
4.49174e-07
7.06727e-07
1.0936e-06
1.66157e-06
2.47422e-06
3.60405e-06
5.12645e-06
7.11064e-06
9.60963e-06
1.2652e-05
1.6238e-05
2.034e-05
2.49076e-05
2.98732e-05
3.51584e-05
4.06791e-05
4.63494e-05
5.20845e-05
5.78035e-05
6.34323e-05
6.89112e-05
7.42097e-05
7.93572e-05
8.449e-05
8.98896e-05
9.59617e-05
0.000103251
0.000112482
0.000124493
0.000140239
0.000160825
0.000187567
0.00022208
0.000266384
0.000323041
0.00039533
0.000487467
0.000604884
0.0007546
0.0009457
0.00118996
0.00150266
0.0019037
0.002419
0.00308244
0.00393834
0.00503431
0.0064202
0.00827999
0.0106953
0.0138408
0.0209753
0.0388652
0.0567421
0.074354
0.0915044
0.108038
0.123831
0.138778
0.152799
0.165818
0.177762
0.18855
0.198107
0.20636
0.21325
0.218743
0.222865
0.225751
0.227618
0.22873
0.229352
0.229681
0.229847
0.229928
0.229967
0.229985
0.229993
0.229997
0.229999
0.229999
0.23
0.23
0.23
0.23
0.23
0.23
0.23
0.23
0.23
6.11818e-10
2.67417e-09
6.14412e-09
1.19622e-08
2.16672e-08
3.77471e-08
6.4166e-08
1.07138e-07
1.76217e-07
2.85769e-07
4.5683e-07
7.19257e-07
1.11384e-06
1.6938e-06
2.52467e-06
3.68154e-06
5.243e-06
7.282e-06
9.8557e-06
1.2997e-05
1.67104e-05
2.09725e-05
2.57367e-05
3.09391e-05
3.65048e-05
4.23529e-05
4.84002e-05
5.45646e-05
6.07673e-05
6.69365e-05
7.30149e-05
7.89771e-05
8.48641e-05
9.0835e-05
9.71944e-05
0.000104346
0.00011284
0.000123416
0.000136935
0.00015438
0.00017689
0.000205827
0.000242853
0.000290045
0.000350026
0.000426134
0.00052264
0.000645022
0.000800324
0.000997614
0.00124858
0.00156834
0.0019764
0.002498
0.00316584
0.00402262
0.00511443
0.00648622
0.00831745
0.0106827
0.0137482
0.0224225
0.0402912
0.0581296
0.0756904
0.0927874
0.109266
0.125001
0.139893
0.153845
0.166781
0.178628
0.189319
0.198775
0.206924
0.213708
0.219096
0.223122
0.225918
0.227712
0.228784
0.229381
0.229696
0.229854
0.229931
0.229968
0.229986
0.229994
0.229997
0.229999
0.229999
0.23
0.23
0.23
0.23
0.23
0.23
0.23
0.23
0.23
6.19045e-10
2.70578e-09
6.21693e-09
1.21047e-08
2.19279e-08
3.82076e-08
6.49637e-08
1.08501e-07
1.78524e-07
2.89635e-07
4.63244e-07
7.29782e-07
1.1309e-06
1.72104e-06
2.56746e-06
3.74754e-06
5.34271e-06
7.42934e-06
1.00684e-05
1.3297e-05
1.71238e-05
2.15298e-05
2.64726e-05
3.18929e-05
3.77201e-05
4.38778e-05
5.02878e-05
5.68727e-05
6.35592e-05
7.02811e-05
7.69881e-05
8.36652e-05
9.03712e-05
9.72927e-05
0.000104749
0.000113115
0.000122929
0.000134942
0.000150034
0.000169214
0.000193659
0.000224772
0.000264266
0.00031427
0.000377457
0.000457218
0.000557868
0.000684917
0.000845424
0.00104843
0.00130553
0.00163164
0.00204592
0.00257328
0.003246
0.00410616
0.00519857
0.00656625
0.00838733
0.0107345
0.0137728
0.0235769
0.041447
0.0592656
0.0768012
0.0938592
0.110289
0.125967
0.140792
0.154675
0.167539
0.179312
0.189925
0.199301
0.207366
0.214065
0.21937
0.223318
0.226048
0.227793
0.228827
0.229403
0.229707
0.22986
0.229934
0.22997
0.229986
0.229994
0.229997
0.229999
0.229999
0.23
0.23
0.23
0.23
0.23
0.23
0.23
0.23
0.23
6.24614e-10
2.73013e-09
6.27304e-09
1.22146e-08
2.2129e-08
3.85631e-08
6.558e-08
1.09556e-07
1.80311e-07
2.92633e-07
4.68229e-07
7.3798e-07
1.14422e-06
1.74238e-06
2.6011e-06
3.7996e-06
5.42167e-06
7.54654e-06
1.02384e-05
1.3538e-05
1.74579e-05
2.1983e-05
2.70754e-05
3.268e-05
3.87313e-05
4.51582e-05
5.18887e-05
5.88522e-05
6.59834e-05
7.32256e-05
8.0541e-05
8.79318e-05
9.54833e-05
0.000103416
0.000112053
0.000121712
0.000132899
0.000146373
0.000163028
0.000183904
0.000210217
0.000243416
0.000285264
0.000337943
0.000404179
0.000487412
0.000592002
0.000723494
0.000888954
0.00109741
0.00136041
0.00169281
0.00211376
0.00264802
0.00332738
0.00419278
0.00528811
0.00665507
0.00847013
0.0108028
0.0138137
0.0244373
0.0423176
0.0601311
0.0776425
0.0946669
0.111056
0.126688
0.141464
0.155295
0.168104
0.17982
0.190375
0.19969
0.207692
0.214328
0.21957
0.223461
0.226142
0.22785
0.22886
0.22942
0.229716
0.229864
0.229936
0.22997
0.229987
0.229994
0.229997
0.229999
0.229999
0.23
0.23
0.23
0.23
0.23
0.23
0.23
0.23
0.23
6.2839e-10
2.74664e-09
6.31107e-09
1.22891e-08
2.22653e-08
3.88041e-08
6.59977e-08
1.10271e-07
1.81523e-07
2.94669e-07
4.71617e-07
7.43559e-07
1.1533e-06
1.75696e-06
2.62414e-06
3.83537e-06
5.47613e-06
7.62768e-06
1.03567e-05
1.37065e-05
1.76926e-05
2.23032e-05
2.75038e-05
3.32432e-05
3.94601e-05
4.60886e-05
5.30623e-05
6.03179e-05
6.77986e-05
7.54589e-05
8.32753e-05
9.1271e-05
9.9562e-05
0.0001084
0.000118112
0.000129059
0.000141565
0.00015639
0.000174451
0.000196823
0.000224764
0.000259771
0.000303656
0.000358652
0.000427536
0.000513801
0.000621856
0.000757293
0.000927226
0.00114072
0.0014094
0.00174808
0.00217577
0.00271676
0.00340243
0.00427333
0.0053722
0.00673924
0.00854878
0.0108665
0.0138474
0.0250105
0.0429099
0.06072
0.0782153
0.0952155
0.111575
0.127175
0.141915
0.15571
0.168482
0.180159
0.190674
0.199948
0.207908
0.2145
0.219701
0.223553
0.226203
0.227887
0.228882
0.229432
0.229721
0.229866
0.229937
0.229971
0.229987
0.229994
0.229997
0.229999
0.23
0.23
0.23
0.23
0.23
0.23
0.23
0.23
0.23
0.23
6.30274e-10
2.75487e-09
6.32998e-09
1.2326e-08
2.23326e-08
3.89227e-08
6.62026e-08
1.10621e-07
1.82114e-07
2.9566e-07
4.73262e-07
7.46265e-07
1.1577e-06
1.76402e-06
2.63531e-06
3.85275e-06
5.50265e-06
7.66733e-06
1.04147e-05
1.37895e-05
1.78089e-05
2.24628e-05
2.77186e-05
3.35273e-05
3.98303e-05
4.65645e-05
5.36672e-05
6.10797e-05
6.87505e-05
7.66415e-05
8.4739e-05
9.30795e-05
0.000101796
0.00011115
0.000121528
0.000133348
0.00014697
0.000162802
0.000181841
0.000205217
0.000234235
0.000270432
0.000315663
0.0003722
0.000442862
0.000531185
0.000641624
0.000779817
0.00095292
0.00117004
0.00144277
0.00178592
0.00221843
0.00276453
0.00345536
0.00433101
0.00543335
0.00680133
0.00860722
0.0109128
0.0138666
0.0252948
0.0432136
0.0610254
0.0785123
0.0954987
0.111841
0.127423
0.142144
0.155919
0.16867
0.180327
0.190821
0.200074
0.208013
0.214584
0.219763
0.223597
0.226232
0.227905
0.228891
0.229437
0.229724
0.229868
0.229938
0.229971
0.229987
0.229994
0.229997
0.229999
0.23
0.23
0.23
0.23
0.23
0.23
0.23
0.23
0.23
0.23
6.30291e-10
2.75495e-09
6.33016e-09
1.23264e-08
2.23333e-08
3.89238e-08
6.62046e-08
1.10624e-07
1.82119e-07
2.95669e-07
4.73276e-07
7.46288e-07
1.15773e-06
1.76407e-06
2.63539e-06
3.85286e-06
5.5028e-06
7.66753e-06
1.0415e-05
1.37898e-05
1.78093e-05
2.24632e-05
2.7719e-05
3.35278e-05
3.98308e-05
4.6565e-05
5.36678e-05
6.10802e-05
6.8751e-05
7.66421e-05
8.47395e-05
9.30802e-05
0.000101796
0.00011115
0.000121529
0.000133349
0.000146972
0.000162804
0.000181843
0.00020522
0.000234237
0.000270435
0.000315666
0.000372203
0.000442865
0.000531187
0.000641625
0.000779817
0.00095292
0.00117004
0.00144277
0.00178592
0.00221843
0.00276453
0.00345537
0.00433103
0.00543339
0.00680138
0.0086073
0.0109129
0.0138667
0.0252962
0.0432149
0.0610267
0.0785135
0.0954997
0.111842
0.127424
0.142145
0.155919
0.168671
0.180327
0.190822
0.200074
0.208013
0.214584
0.219763
0.223597
0.226232
0.227905
0.228891
0.229437
0.229724
0.229868
0.229938
0.229971
0.229987
0.229994
0.229997
0.229999
0.23
0.23
0.23
0.23
0.23
0.23
0.23
0.23
0.23
0.23
6.2844e-10
2.74687e-09
6.31159e-09
1.22901e-08
2.22672e-08
3.88074e-08
6.60035e-08
1.10281e-07
1.81539e-07
2.94696e-07
4.71659e-07
7.43626e-07
1.1534e-06
1.75711e-06
2.62436e-06
3.83568e-06
5.47655e-06
7.62824e-06
1.03574e-05
1.37074e-05
1.76936e-05
2.23044e-05
2.75051e-05
3.32446e-05
3.94616e-05
4.60901e-05
5.30639e-05
6.03195e-05
6.78002e-05
7.54606e-05
8.32771e-05
9.1273e-05
9.95642e-05
0.000108403
0.000118115
0.000129063
0.000141569
0.000156395
0.000174457
0.000196829
0.000224771
0.000259779
0.000303665
0.00035866
0.000427544
0.000513808
0.000621861
0.000757295
0.000927225
0.00114072
0.00140939
0.00174808
0.00217577
0.00271676
0.00340245
0.00427338
0.00537227
0.00673936
0.00854898
0.0108668
0.0138477
0.0250146
0.0429138
0.0607237
0.0782187
0.0952187
0.111578
0.127178
0.141918
0.155713
0.168484
0.180161
0.190676
0.199949
0.207909
0.214501
0.219701
0.223554
0.226203
0.227888
0.228882
0.229432
0.229721
0.229866
0.229937
0.229971
0.229987
0.229994
0.229997
0.229999
0.23
0.23
0.23
0.23
0.23
0.23
0.23
0.23
0.23
0.23
6.24698e-10
2.73051e-09
6.27391e-09
1.22163e-08
2.21322e-08
3.85689e-08
6.559e-08
1.09573e-07
1.80339e-07
2.92681e-07
4.68306e-07
7.38101e-07
1.1444e-06
1.74266e-06
2.60151e-06
3.80019e-06
5.42249e-06
7.54762e-06
1.02399e-05
1.35398e-05
1.746e-05
2.19855e-05
2.70782e-05
3.26831e-05
3.87347e-05
4.51619e-05
5.18925e-05
5.88563e-05
6.59877e-05
7.32302e-05
8.0546e-05
8.79372e-05
9.54894e-05
0.000103423
0.000112061
0.000121721
0.00013291
0.000146385
0.000163042
0.00018392
0.000210234
0.000243436
0.000285287
0.000337967
0.000404205
0.00048744
0.000592031
0.000723522
0.00088898
0.00109743
0.00136042
0.00169281
0.00211376
0.00264802
0.00332738
0.0041928
0.00528816
0.00665519
0.00847039
0.0108032
0.0138141
0.0244444
0.0423245
0.0601376
0.0776485
0.0946725
0.111061
0.126693
0.141468
0.155299
0.168108
0.179824
0.190378
0.199693
0.207695
0.214329
0.219571
0.223462
0.226143
0.227851
0.228861
0.22942
0.229716
0.229864
0.229936
0.22997
0.229987
0.229994
0.229997
0.229999
0.229999
0.23
0.23
0.23
0.23
0.23
0.23
0.23
0.23
0.23
6.19157e-10
2.70627e-09
6.21808e-09
1.2107e-08
2.19322e-08
3.82153e-08
6.4977e-08
1.08524e-07
1.78562e-07
2.89697e-07
4.63345e-07
7.29942e-07
1.13115e-06
1.72142e-06
2.56801e-06
3.74832e-06
5.34378e-06
7.43076e-06
1.00703e-05
1.32993e-05
1.71265e-05
2.1533e-05
2.64763e-05
3.18969e-05
3.77245e-05
4.38825e-05
5.02928e-05
5.6878e-05
6.35647e-05
7.0287e-05
7.69944e-05
8.36721e-05
9.0379e-05
9.73016e-05
0.000104759
0.000113127
0.000122943
0.000134959
0.000150054
0.000169237
0.000193686
0.000224803
0.000264303
0.000314311
0.000377504
0.00045727
0.000557923
0.000684975
0.000845481
0.00104848
0.00130557
0.00163166
0.00204591
0.00257324
0.00324594
0.00410609
0.00519853
0.00656633
0.00838764
0.0107351
0.0137734
0.0235868
0.0414565
0.0592749
0.07681
0.0938674
0.110296
0.125974
0.140798
0.154681
0.167545
0.179317
0.189929
0.199305
0.20737
0.214068
0.219372
0.22332
0.226049
0.227794
0.228828
0.229403
0.229707
0.22986
0.229934
0.22997
0.229986
0.229994
0.229997
0.229999
0.229999
0.23
0.23
0.23
0.23
0.23
0.23
0.23
0.23
0.23
6.11953e-10
2.67477e-09
6.14552e-09
1.19649e-08
2.16724e-08
3.77563e-08
6.41821e-08
1.07165e-07
1.76263e-07
2.85845e-07
4.56953e-07
7.19452e-07
1.11414e-06
1.69426e-06
2.52533e-06
3.68248e-06
5.2443e-06
7.28373e-06
9.85792e-06
1.29998e-05
1.67137e-05
2.09764e-05
2.57411e-05
3.0944e-05
3.65101e-05
4.23585e-05
4.84061e-05
5.45709e-05
6.07739e-05
6.69436e-05
7.30226e-05
7.89855e-05
8.48734e-05
9.08457e-05
9.72069e-05
0.000104361
0.000112857
0.000123437
0.000136961
0.000154411
0.000176928
0.000205872
0.000242907
0.00029011
0.000350102
0.000426223
0.000522742
0.00064514
0.000800457
0.000997763
0.00124875
0.00156852
0.0019766
0.00249824
0.00316611
0.00402295
0.00511483
0.00648669
0.00831792
0.0106829
0.0137477
0.0224346
0.0403034
0.0581416
0.0757019
0.0927982
0.109276
0.125011
0.139902
0.153853
0.166788
0.178634
0.189324
0.19878
0.206929
0.213712
0.219099
0.223124
0.225919
0.227713
0.228784
0.229381
0.229696
0.229854
0.229931
0.229968
0.229986
0.229994
0.229997
0.229999
0.229999
0.23
0.23
0.23
0.23
0.23
0.23
0.23
0.23
0.23
6.03251e-10
2.63672e-09
6.0579e-09
1.17935e-08
2.1359e-08
3.72032e-08
6.32252e-08
1.05532e-07
1.73505e-07
2.81231e-07
4.49316e-07
7.06951e-07
1.09395e-06
1.6621e-06
2.47498e-06
3.60514e-06
5.12795e-06
7.11263e-06
9.61218e-06
1.26552e-05
1.62418e-05
2.03445e-05
2.49126e-05
2.98787e-05
3.51644e-05
4.06855e-05
4.63562e-05
5.20916e-05
5.78109e-05
6.34402e-05
6.89197e-05
7.4219e-05
7.93675e-05
8.45018e-05
8.99034e-05
9.59782e-05
0.000103271
0.000112507
0.000124524
0.000140277
0.000160872
0.000187626
0.000222154
0.000266474
0.000323153
0.000395468
0.000487637
0.000605094
0.00075486
0.00094602
0.00119035
0.00150314
0.00190427
0.00241968
0.00308322
0.00393916
0.00503508
0.00642068
0.00827983
0.010694
0.0138378
0.0209921
0.0388806
0.0567565
0.0743677
0.0915173
0.108051
0.123842
0.138788
0.152809
0.165826
0.177769
0.188556
0.198113
0.206365
0.213254
0.218746
0.222867
0.225752
0.227619
0.228731
0.229352
0.229681
0.229847
0.229928
0.229967
0.229985
0.229993
0.229997
0.229999
0.229999
0.23
0.23
0.23
0.23
0.23
0.23
0.23
0.23
0.23
5.93239e-10
2.59295e-09
5.95712e-09
1.15963e-08
2.0999e-08
3.65684e-08
6.21285e-08
1.03663e-07
1.70354e-07
2.75974e-07
4.40635e-07
6.92784e-07
1.07113e-06
1.6259e-06
2.41853e-06
3.5188e-06
4.9987e-06
6.92354e-06
9.34214e-06
1.22788e-05
1.57297e-05
1.96636e-05
2.40266e-05
2.87486e-05
3.37489e-05
3.89417e-05
4.42401e-05
4.95588e-05
5.4817e-05
5.99416e-05
6.48732e-05
6.95798e-05
7.40828e-05
7.84998e-05
8.30851e-05
8.82281e-05
9.44564e-05
0.000102467
0.000113073
0.000127197
0.000145908
0.000170476
0.000202458
0.000243806
0.000297007
0.000365255
0.000452669
0.000564585
0.000707926
0.000891694
0.00112761
0.001431
0.0018219
0.00232664
0.0029799
0.00382754
0.00492132
0.00631703
0.00820873
0.0106976
0.0139946
0.0193574
0.037245
0.0551395
0.0727895
0.0899962
0.106601
0.122475
0.13751
0.151616
0.164715
0.176733
0.187627
0.197298
0.20567
0.212679
0.21831
0.222575
0.225567
0.227502
0.228663
0.229315
0.229662
0.229838
0.229924
0.229965
0.229984
0.229993
0.229997
0.229999
0.229999
0.23
0.23
0.23
0.23
0.23
0.23
0.23
0.23
0.23
5.82112e-10
2.5443e-09
5.84517e-09
1.13775e-08
2.05997e-08
3.5865e-08
6.0915e-08
1.01599e-07
1.66881e-07
2.70193e-07
4.31116e-07
6.77295e-07
1.04626e-06
1.5866e-06
2.3575e-06
3.42588e-06
4.86026e-06
6.72208e-06
9.05605e-06
1.18825e-05
1.5194e-05
1.89561e-05
2.31127e-05
2.75917e-05
3.23114e-05
3.71858e-05
4.21283e-05
4.70547e-05
5.18861e-05
5.65517e-05
6.09943e-05
6.51821e-05
6.91311e-05
7.29426e-05
7.68428e-05
8.11941e-05
8.64956e-05
9.34084e-05
0.00010271
0.00011529
0.000132171
0.000154569
0.000183974
0.000222252
0.000271782
0.000335627
0.000417745
0.000523272
0.000658886
0.000833282
0.00105781
0.00134732
0.00172127
0.00220531
0.00283328
0.00365014
0.00470869
0.00605612
0.00788311
0.0102885
0.0134753
0.0176435
0.0354481
0.0533089
0.0709638
0.0882063
0.104872
0.120827
0.135961
0.150182
0.163404
0.175546
0.18653
0.19633
0.204859
0.212055
0.217846
0.222234
0.225331
0.227354
0.228578
0.22927
0.229639
0.229826
0.229918
0.229962
0.229983
0.229992
0.229997
0.229999
0.229999
0.23
0.23
0.23
0.23
0.23
0.23
0.23
0.23
0.23
5.70062e-10
2.49163e-09
5.72399e-09
1.11407e-08
2.01681e-08
3.51057e-08
5.9607e-08
9.93777e-08
1.63154e-07
2.64003e-07
4.20952e-07
6.6081e-07
1.0199e-06
1.54508e-06
2.2933e-06
3.32856e-06
4.71597e-06
6.51318e-06
8.76104e-06
1.14763e-05
1.46481e-05
1.824e-05
2.21939e-05
2.64369e-05
3.08873e-05
3.54598e-05
4.00691e-05
4.46335e-05
4.90767e-05
5.33314e-05
5.73434e-05
6.10821e-05
6.45599e-05
6.78636e-05
7.1193e-05
7.48782e-05