/*--------------------------------*- C++ -*----------------------------------*\
  =========                 |
  \\      /  F ield         | OpenFOAM: The Open Source CFD Toolbox
   \\    /   O peration     | Website:  https://openfoam.org
    \\  /    A nd           | Version:  8
     \\/     M anipulation  |
\*---------------------------------------------------------------------------*/
FoamFile
{
    version     2.0;
    format      ascii;
    class       surfaceScalarField;
    location    "320/fluid";
    object      phi;
}
// * * * * * * * * * * * * * * * * * * * * * * * * * * * * * * * * * * * * * //

dimensions      [1 0 -1 0 0 0 0];

internalField   nonuniform List<scalar> 
7860
(
6.57406e-07
-1.72224e-08
6.55024e-07
-5.16125e-08
6.51634e-07
-8.5864e-08
6.47141e-07
-1.19899e-07
6.41427e-07
-1.5369e-07
6.34349e-07
-1.8719e-07
6.25744e-07
-2.20333e-07
6.15436e-07
-2.53021e-07
6.03242e-07
-2.8511e-07
5.88981e-07
-3.16411e-07
5.72488e-07
-3.4667e-07
5.53629e-07
-3.75562e-07
5.32332e-07
-4.0267e-07
5.08639e-07
-4.27488e-07
4.82799e-07
-4.49432e-07
4.55097e-07
-4.67843e-07
4.25912e-07
-4.82119e-07
3.95712e-07
-4.91845e-07
3.65009e-07
-4.96928e-07
3.34307e-07
-4.97662e-07
3.04041e-07
-4.94674e-07
2.7454e-07
-4.88785e-07
2.46034e-07
-4.80842e-07
2.18668e-07
-4.71591e-07
1.92559e-07
-4.61604e-07
1.67713e-07
-4.51264e-07
1.44079e-07
-4.40812e-07
1.21586e-07
-4.30385e-07
1.00156e-07
-4.20052e-07
7.97192e-08
-4.09844e-07
6.02092e-08
-3.99772e-07
4.15706e-08
-3.89841e-07
2.37535e-08
-3.80057e-07
6.71212e-09
-3.70433e-07
-9.59042e-09
-3.60988e-07
-2.51845e-08
-3.51746e-07
-4.01025e-08
-3.42701e-07
-5.43749e-08
-3.33843e-07
-6.80299e-08
-3.25196e-07
-8.1094e-08
-3.16782e-07
-9.35922e-08
-3.08622e-07
-1.05549e-07
-3.00732e-07
-1.16986e-07
-2.93128e-07
-1.27925e-07
-2.85821e-07
-1.38387e-07
-2.7882e-07
-1.48392e-07
-2.72132e-07
-1.57956e-07
-2.6576e-07
-1.67099e-07
-2.59705e-07
-1.75834e-07
-2.53967e-07
-1.84178e-07
-2.48546e-07
-1.92144e-07
-2.43438e-07
-1.99746e-07
-2.38643e-07
-2.06995e-07
-2.3416e-07
-2.13905e-07
-2.29991e-07
-2.20487e-07
-2.26143e-07
-2.26757e-07
-2.22627e-07
-2.32731e-07
-2.19465e-07
-2.38431e-07
-2.16688e-07
-2.43884e-07
-2.14356e-07
-2.49127e-07
-2.1254e-07
-2.5419e-07
-2.11268e-07
-2.59145e-07
-2.10733e-07
-2.64274e-07
-2.11097e-07
-2.71986e-07
-2.12348e-07
-2.79833e-07
-2.24577e-07
-2.88826e-07
-2.38155e-07
-2.98746e-07
-2.52956e-07
-3.09644e-07
-2.69132e-07
-3.21648e-07
-2.86892e-07
-3.34924e-07
-3.06475e-07
-3.49694e-07
-3.28171e-07
-3.66257e-07
-3.52337e-07
-3.85011e-07
-3.79405e-07
-4.06493e-07
-4.09877e-07
-4.31396e-07
-4.44459e-07
-4.60603e-07
-4.83777e-07
-4.95118e-07
-5.27764e-07
-5.35856e-07
-5.75193e-07
-5.83071e-07
-6.22891e-07
-6.3643e-07
-6.65104e-07
-6.94616e-07
-6.9472e-07
-7.5508e-07
-7.06687e-07
-8.14715e-07
-7.00818e-07
-8.70939e-07
-6.80918e-07
-9.22218e-07
-6.51652e-07
-9.6795e-07
-6.16869e-07
-1.00799e-06
-5.78858e-07
-1.04222e-06
-5.38864e-07
-1.07114e-06
-4.97461e-07
-1.09539e-06
-4.55084e-07
-1.11554e-06
-4.12065e-07
-1.13212e-06
-3.68658e-07
-1.14564e-06
-3.25051e-07
-1.15651e-06
-2.81381e-07
-1.16513e-06
-2.37744e-07
-1.17181e-06
-1.94187e-07
-1.17684e-06
-1.50714e-07
-1.18044e-06
-1.07376e-07
-1.18281e-06
-6.43305e-08
-2.1526e-08
6.57969e-07
-1.66582e-08
6.56052e-07
-4.96952e-08
6.52715e-07
-8.2527e-08
6.47957e-07
-1.1514e-07
6.41716e-07
-1.47449e-07
6.33904e-07
-1.79378e-07
6.24418e-07
-2.10847e-07
6.1315e-07
-2.41751e-07
5.99999e-07
-2.71958e-07
5.84881e-07
-3.0129e-07
5.6774e-07
-3.29525e-07
5.48555e-07
-3.56369e-07
5.27353e-07
-3.81457e-07
5.04226e-07
-4.04344e-07
4.79357e-07
-4.24537e-07
4.5297e-07
-4.41421e-07
4.25357e-07
-4.54459e-07
3.96876e-07
-4.63302e-07
3.6792e-07
-4.67896e-07
3.3888e-07
-4.68534e-07
3.10104e-07
-4.65797e-07
2.81862e-07
-4.60437e-07
2.54351e-07
-4.53224e-07
2.277e-07
-4.44834e-07
2.01999e-07
-4.35799e-07
1.77284e-07
-4.26449e-07
1.53556e-07
-4.16988e-07
1.30796e-07
-4.07533e-07
1.08975e-07
-3.98145e-07
8.80628e-08
-3.88849e-07
6.80243e-08
-3.79655e-07
4.88269e-08
-3.70568e-07
3.0437e-08
-3.61597e-07
1.28222e-08
-3.52752e-07
-4.04939e-09
-3.44054e-07
-2.0206e-08
-3.35527e-07
-3.56751e-08
-3.27167e-07
-5.04846e-08
-3.18967e-07
-6.46618e-08
-3.10951e-07
-7.82333e-08
-3.03142e-07
-9.12251e-08
-2.95559e-07
-1.03663e-07
-2.88222e-07
-1.15571e-07
-2.81146e-07
-1.26974e-07
-2.74343e-07
-1.37895e-07
-2.67823e-07
-1.48357e-07
-2.61593e-07
-1.5838e-07
-2.55658e-07
-1.67987e-07
-2.50021e-07
-1.77195e-07
-2.44681e-07
-1.86026e-07
-2.39638e-07
-1.94497e-07
-2.3489e-07
-2.02627e-07
-2.30437e-07
-2.10436e-07
-2.26278e-07
-2.17943e-07
-2.22413e-07
-2.2517e-07
-2.18848e-07
-2.32144e-07
-2.15592e-07
-2.38895e-07
-2.12659e-07
-2.45463e-07
-2.10076e-07
-2.51886e-07
-2.07905e-07
-2.58235e-07
-2.06182e-07
-2.6459e-07
-2.04935e-07
-2.71065e-07
-2.04328e-07
-2.77832e-07
-2.0448e-07
-2.87274e-07
-2.05918e-07
-2.95217e-07
-2.16978e-07
-3.0448e-07
-2.29294e-07
-3.14981e-07
-2.42919e-07
-3.26711e-07
-2.57932e-07
-3.39749e-07
-2.74458e-07
-3.5423e-07
-2.92679e-07
-3.7034e-07
-3.12842e-07
-3.8831e-07
-3.35254e-07
-4.08429e-07
-3.60294e-07
-4.3103e-07
-3.88425e-07
-4.56477e-07
-4.20321e-07
-4.85238e-07
-4.56494e-07
-5.1785e-07
-4.96781e-07
-5.54841e-07
-5.39926e-07
-5.96544e-07
-5.8289e-07
-6.43024e-07
-6.20144e-07
-6.93606e-07
-6.45329e-07
-7.46552e-07
-6.54549e-07
-7.99549e-07
-6.48303e-07
-8.50577e-07
-6.30149e-07
-8.98334e-07
-6.04023e-07
-9.42224e-07
-5.7304e-07
-9.82016e-07
-5.39094e-07
-1.01755e-06
-5.03339e-07
-1.04889e-06
-4.66132e-07
-1.07618e-06
-4.27797e-07
-1.09964e-06
-3.88599e-07
-1.11956e-06
-3.48744e-07
-1.13621e-06
-3.08396e-07
-1.14991e-06
-2.67684e-07
-1.16094e-06
-2.26715e-07
-1.16957e-06
-1.85563e-07
-1.17601e-06
-1.44268e-07
-1.18046e-06
-1.02929e-07
-1.18302e-06
-6.17715e-08
-2.07217e-08
6.57701e-07
-1.58257e-08
6.5529e-07
-4.72844e-08
6.5131e-07
-7.85467e-08
6.45728e-07
-1.09558e-07
6.38505e-07
-1.40226e-07
6.29595e-07
-1.70468e-07
6.18951e-07
-2.00202e-07
6.06532e-07
-2.29331e-07
5.92309e-07
-2.57734e-07
5.76277e-07
-2.85256e-07
5.58455e-07
-3.11699e-07
5.38893e-07
-3.36801e-07
5.17673e-07
-3.60228e-07
4.94901e-07
-3.81559e-07
4.70685e-07
-4.003e-07
4.45218e-07
-4.15925e-07
4.18764e-07
-4.27966e-07
3.91632e-07
-4.36119e-07
3.64154e-07
-4.40356e-07
3.36647e-07
-4.40955e-07
3.09389e-07
-4.3846e-07
2.82602e-07
-4.33563e-07
2.56436e-07
-4.26969e-07
2.30981e-07
-4.19287e-07
2.06261e-07
-4.10989e-07
1.82296e-07
-4.02395e-07
1.59099e-07
-3.93706e-07
1.36677e-07
-3.85029e-07
1.15028e-07
-3.76418e-07
9.41466e-08
-3.67893e-07
7.40227e-08
-3.59461e-07
5.46427e-08
-3.51122e-07
3.59907e-08
-3.42882e-07
1.80496e-08
-3.34752e-07
8.00344e-10
-3.2675e-07
-1.57756e-08
-3.18897e-07
-3.16976e-08
-3.11189e-07
-4.69872e-08
-3.0362e-07
-6.16666e-08
-2.96212e-07
-7.5759e-08
-2.88987e-07
-8.92882e-08
-2.81966e-07
-1.02278e-07
-2.75167e-07
-1.14753e-07
-2.68604e-07
-1.26738e-07
-2.6229e-07
-1.38256e-07
-2.56235e-07
-1.49332e-07
-2.50446e-07
-1.59989e-07
-2.44928e-07
-1.70253e-07
-2.39684e-07
-1.80145e-07
-2.34715e-07
-1.89692e-07
-2.30018e-07
-1.98916e-07
-2.25593e-07
-2.07845e-07
-2.21437e-07
-2.16504e-07
-2.17547e-07
-2.24925e-07
-2.13924e-07
-2.3314e-07
-2.10567e-07
-2.41189e-07
-2.0748e-07
-2.49117e-07
-2.04672e-07
-2.56981e-07
-2.02159e-07
-2.64842e-07
-1.99998e-07
-2.72784e-07
-1.98201e-07
-2.80904e-07
-1.96786e-07
-2.89288e-07
-1.95926e-07
-2.97985e-07
-1.95772e-07
-3.08307e-07
-1.98968e-07
-3.1685e-07
-2.0884e-07
-3.26628e-07
-2.19964e-07
-3.37631e-07
-2.32413e-07
-3.49904e-07
-2.46216e-07
-3.63525e-07
-2.61463e-07
-3.78594e-07
-2.78316e-07
-3.95232e-07
-2.97001e-07
-4.13572e-07
-3.17815e-07
-4.3376e-07
-3.41126e-07
-4.55914e-07
-3.67424e-07
-4.80148e-07
-3.97391e-07
-5.06674e-07
-4.31421e-07
-5.35816e-07
-4.69213e-07
-5.68123e-07
-5.09244e-07
-6.0449e-07
-5.48081e-07
-6.45552e-07
-5.80427e-07
-6.90971e-07
-6.00931e-07
-7.39208e-07
-6.06989e-07
-7.8813e-07
-5.9978e-07
-8.35855e-07
-5.82636e-07
-8.8113e-07
-5.58855e-07
-9.23303e-07
-5.30917e-07
-9.62132e-07
-5.00289e-07
-9.97676e-07
-4.67805e-07
-1.02987e-06
-4.33943e-07
-1.05868e-06
-3.98987e-07
-1.08415e-06
-3.63136e-07
-1.10635e-06
-3.26539e-07
-1.12543e-06
-2.89321e-07
-1.14152e-06
-2.51588e-07
-1.1548e-06
-2.13436e-07
-1.16542e-06
-1.74943e-07
-1.17353e-06
-1.36162e-07
-1.17924e-06
-9.72149e-08
-1.18266e-06
-5.83502e-08
-1.9562e-08
6.57707e-07
-1.49986e-08
6.55207e-07
-4.47849e-08
6.5103e-07
-7.43693e-08
6.4517e-07
-1.03698e-07
6.37616e-07
-1.32672e-07
6.28355e-07
-1.61207e-07
6.17376e-07
-1.89222e-07
6.04668e-07
-2.16623e-07
5.90231e-07
-2.43296e-07
5.74075e-07
-2.69098e-07
5.56223e-07
-2.93844e-07
5.3672e-07
-3.17294e-07
5.15638e-07
-3.39138e-07
4.93081e-07
-3.5899e-07
4.69197e-07
-3.764e-07
4.44186e-07
-3.90891e-07
4.18289e-07
-4.02038e-07
3.91783e-07
-4.09574e-07
3.64957e-07
-4.13481e-07
3.38087e-07
-4.14027e-07
3.11413e-07
-4.11722e-07
2.8513e-07
-4.07211e-07
2.59377e-07
-4.01143e-07
2.34247e-07
-3.94084e-07
2.09794e-07
-3.86462e-07
1.86043e-07
-3.78573e-07
1.63007e-07
-3.70599e-07
1.40685e-07
-3.62639e-07
1.19072e-07
-3.54741e-07
9.81623e-08
-3.46921e-07
7.79452e-08
-3.39185e-07
5.84109e-08
-3.31532e-07
3.95476e-08
-3.23966e-07
2.1342e-08
-3.16497e-07
3.77952e-09
-3.0914e-07
-1.31551e-08
-3.01916e-07
-2.9477e-08
-2.9482e-07
-4.52034e-08
-2.87843e-07
-6.03536e-08
-2.81009e-07
-7.49477e-08
-2.74338e-07
-8.90075e-08
-2.6785e-07
-1.02555e-07
-2.6156e-07
-1.15614e-07
-2.55484e-07
-1.28209e-07
-2.49633e-07
-1.40364e-07
-2.44016e-07
-1.52103e-07
-2.38641e-07
-1.63453e-07
-2.33512e-07
-1.74439e-07
-2.28631e-07
-1.85087e-07
-2.23998e-07
-1.95425e-07
-2.19612e-07
-2.0548e-07
-2.1547e-07
-2.15281e-07
-2.11568e-07
-2.24859e-07
-2.07902e-07
-2.34247e-07
-2.0447e-07
-2.4348e-07
-2.01269e-07
-2.526e-07
-1.98299e-07
-2.61651e-07
-1.95563e-07
-2.70687e-07
-1.93068e-07
-2.79771e-07
-1.90867e-07
-2.88987e-07
-1.88944e-07
-2.98424e-07
-1.87309e-07
-3.08222e-07
-1.86084e-07
-3.18286e-07
-1.85345e-07
-3.28683e-07
-1.90788e-07
-3.38196e-07
-1.9975e-07
-3.48716e-07
-2.09905e-07
-3.60321e-07
-2.21318e-07
-3.73087e-07
-2.34017e-07
-3.87097e-07
-2.48087e-07
-4.02438e-07
-2.63687e-07
-4.19202e-07
-2.81038e-07
-4.37486e-07
-3.00433e-07
-4.57394e-07
-3.22233e-07
-4.79003e-07
-3.46959e-07
-5.02443e-07
-3.75234e-07
-5.27981e-07
-4.07297e-07
-5.56033e-07
-4.42668e-07
-5.87207e-07
-4.79596e-07
-6.22189e-07
-5.14521e-07
-6.6135e-07
-5.42455e-07
-7.04224e-07
-5.5893e-07
-7.49425e-07
-5.62351e-07
-7.95197e-07
-5.54334e-07
-8.40031e-07
-5.37974e-07
-8.82895e-07
-5.16076e-07
-9.23193e-07
-4.9066e-07
-9.60615e-07
-4.62885e-07
-9.9503e-07
-4.33399e-07
-1.0264e-06
-4.02572e-07
-1.05475e-06
-3.70644e-07
-1.0801e-06
-3.37786e-07
-1.1025e-06
-3.04133e-07
-1.12203e-06
-2.69798e-07
-1.13874e-06
-2.34878e-07
-1.15271e-06
-1.99464e-07
-1.16402e-06
-1.63635e-07
-1.17273e-06
-1.2745e-07
-1.1789e-06
-9.10402e-08
-1.18259e-06
-5.46632e-08
-1.83325e-08
6.57642e-07
-1.41072e-08
6.54993e-07
-4.21357e-08
6.50596e-07
-6.9972e-08
6.44453e-07
-9.75551e-08
6.36567e-07
-1.24787e-07
6.26943e-07
-1.51583e-07
6.15588e-07
-1.77866e-07
6.02514e-07
-2.03548e-07
5.87741e-07
-2.28523e-07
5.71301e-07
-2.52657e-07
5.53242e-07
-2.75782e-07
5.33628e-07
-2.97676e-07
5.12548e-07
-3.18053e-07
4.90122e-07
-3.36556e-07
4.66501e-07
-3.52767e-07
4.41873e-07
-3.66245e-07
4.16461e-07
-3.76603e-07
3.90513e-07
-3.83596e-07
3.64286e-07
-3.87215e-07
3.3802e-07
-3.87717e-07
3.11928e-07
-3.8558e-07
2.86177e-07
-3.81406e-07
2.60891e-07
-3.758e-07
2.36151e-07
-3.69285e-07
2.12007e-07
-3.6226e-07
1.88489e-07
-3.54997e-07
1.65609e-07
-3.47662e-07
1.43372e-07
-3.40347e-07
1.21778e-07
-3.33094e-07
1.00824e-07
-3.25916e-07
8.05044e-08
-3.18816e-07
6.08124e-08
-3.11793e-07
4.17397e-08
-3.04849e-07
2.32766e-08
-2.97991e-07
5.41133e-09
-2.91234e-07
-1.18686e-08
-2.84597e-07
-2.8576e-08
-2.78072e-07
-4.47253e-08
-2.71651e-07
-6.03331e-08
-2.65356e-07
-7.54177e-08
-2.59206e-07
-8.99989e-08
-2.53219e-07
-1.04098e-07
-2.47409e-07
-1.17737e-07
-2.41791e-07
-1.3094e-07
-2.36374e-07
-1.4373e-07
-2.31168e-07
-1.56134e-07
-2.26179e-07
-1.68176e-07
-2.21409e-07
-1.79884e-07
-2.16862e-07
-1.91284e-07
-2.12535e-07
-2.02404e-07
-2.08428e-07
-2.13274e-07
-2.04536e-07
-2.23922e-07
-2.00856e-07
-2.3438e-07
-1.97382e-07
-2.44679e-07
-1.9411e-07
-2.54853e-07
-1.91036e-07
-2.64937e-07
-1.8816e-07
-2.74967e-07
-1.85481e-07
-2.84985e-07
-1.83004e-07
-2.95032e-07
-1.80783e-07
-3.05182e-07
-1.78767e-07
-3.15483e-07
-1.76989e-07
-3.26074e-07
-1.75487e-07
-3.37144e-07
-1.74303e-07
-3.47589e-07
-1.81255e-07
-3.58085e-07
-1.89652e-07
-3.69358e-07
-1.99074e-07
-3.81552e-07
-2.09619e-07
-3.94774e-07
-2.21351e-07
-4.09114e-07
-2.34372e-07
-4.24657e-07
-2.48847e-07
-4.41484e-07
-2.65001e-07
-4.59677e-07
-2.83129e-07
-4.79315e-07
-3.03595e-07
-5.00454e-07
-3.26943e-07
-5.23224e-07
-3.53713e-07
-5.4788e-07
-3.84004e-07
-5.74819e-07
-4.17158e-07
-6.04618e-07
-4.51212e-07
-6.37904e-07
-4.82521e-07
-6.7497e-07
-5.06431e-07
-7.15336e-07
-5.19308e-07
-7.57755e-07
-5.20401e-07
-8.00728e-07
-5.11628e-07
-8.43002e-07
-4.95839e-07
-8.83715e-07
-4.75433e-07
-9.22347e-07
-4.52061e-07
-9.58593e-07
-4.26654e-07
-9.92273e-07
-3.99727e-07
-1.02327e-06
-3.71576e-07
-1.05153e-06
-3.4239e-07
-1.07701e-06
-3.12307e-07
-1.09971e-06
-2.81436e-07
-1.11963e-06
-2.49872e-07
-1.13681e-06
-2.17702e-07
-1.15126e-06
-1.85009e-07
-1.16303e-06
-1.51866e-07
-1.17214e-06
-1.18338e-07
-1.17863e-06
-8.45558e-08
-1.18252e-06
-5.07749e-08
-1.70276e-08
6.5763e-07
-1.32034e-08
6.54927e-07
-3.94331e-08
6.50436e-07
-6.54805e-08
6.44166e-07
-9.12857e-08
6.36132e-07
-1.16753e-07
6.2635e-07
-1.41801e-07
6.14839e-07
-1.66355e-07
6.01624e-07
-1.90333e-07
5.86736e-07
-2.13634e-07
5.70215e-07
-2.36136e-07
5.52115e-07
-2.57681e-07
5.32506e-07
-2.78064e-07
5.11477e-07
-2.9702e-07
4.89147e-07
-3.1422e-07
4.65665e-07
-3.29276e-07
4.41216e-07
-3.41783e-07
4.16015e-07
-3.51385e-07
3.90303e-07
-3.57861e-07
3.64324e-07
-3.61209e-07
3.38311e-07
-3.61671e-07
3.12463e-07
-3.59696e-07
2.8694e-07
-3.55842e-07
2.61857e-07
-3.50673e-07
2.37289e-07
-3.44673e-07
2.13283e-07
-3.38209e-07
1.89864e-07
-3.31532e-07
1.67042e-07
-3.24796e-07
1.44821e-07
-3.18082e-07
1.23199e-07
-3.11429e-07
1.02172e-07
-3.04848e-07
8.17359e-08
-2.9834e-07
6.1884e-08
-2.91902e-07
4.26091e-08
-2.85537e-07
2.39028e-08
-2.79249e-07
5.75486e-09
-2.73053e-07
-1.18453e-08
-2.66964e-07
-2.89099e-08
-2.60973e-07
-4.54512e-08
-2.55073e-07
-6.14839e-08
-2.49285e-07
-7.70245e-08
-2.43625e-07
-9.20915e-08
-2.38109e-07
-1.06705e-07
-2.32751e-07
-1.20885e-07
-2.27563e-07
-1.34655e-07
-2.22555e-07
-1.48038e-07
-2.17734e-07
-1.61058e-07
-2.13105e-07
-1.7374e-07
-2.08672e-07
-1.86111e-07
-2.04435e-07
-1.98197e-07
-2.00392e-07
-2.10024e-07
-1.96542e-07
-2.21622e-07
-1.9288e-07
-2.33017e-07
-1.89402e-07
-2.44239e-07
-1.86102e-07
-2.55316e-07
-1.82976e-07
-2.66276e-07
-1.8002e-07
-2.77149e-07
-1.77235e-07
-2.87961e-07
-1.74623e-07
-2.98729e-07
-1.72199e-07
-3.09479e-07
-1.70008e-07
-3.20237e-07
-1.68004e-07
-3.30976e-07
-1.66277e-07
-3.41708e-07
-1.64831e-07
-3.53845e-07
-1.63757e-07
-3.6448e-07
-1.70868e-07
-3.7567e-07
-1.78789e-07
-3.87543e-07
-1.87598e-07
-4.0023e-07
-1.97395e-07
-4.1384e-07
-2.08273e-07
-4.28461e-07
-2.20356e-07
-4.44174e-07
-2.33818e-07
-4.61058e-07
-2.48889e-07
-4.79193e-07
-2.65862e-07
-4.98653e-07
-2.85107e-07
-5.19514e-07
-3.07171e-07
-5.41947e-07
-3.32486e-07
-5.6624e-07
-3.61012e-07
-5.92825e-07
-3.9192e-07
-6.22274e-07
-4.2307e-07
-6.5512e-07
-4.50832e-07
-6.91469e-07
-4.70994e-07
-7.30673e-07
-4.80737e-07
-7.71483e-07
-4.79983e-07
-8.12554e-07
-4.70776e-07
-8.5283e-07
-4.55676e-07
-8.91604e-07
-4.36715e-07
-9.28456e-07
-4.15236e-07
-9.63136e-07
-3.91986e-07
-9.95488e-07
-3.6738e-07
-1.02541e-06
-3.41656e-07
-1.05283e-06
-3.14971e-07
-1.0777e-06
-2.87439e-07
-1.09998e-06
-2.59155e-07
-1.11965e-06
-2.30201e-07
-1.1367e-06
-2.00653e-07
-1.15112e-06
-1.7059e-07
-1.16291e-06
-1.40078e-07
-1.17206e-06
-1.09181e-07
-1.17859e-06
-7.80258e-08
-1.18251e-06
-4.68587e-08
-1.57159e-08
6.57612e-07
-1.22817e-08
6.54862e-07
-3.66835e-08
6.50298e-07
-6.0916e-08
6.43933e-07
-8.49205e-08
6.35786e-07
-1.08606e-07
6.25879e-07
-1.31894e-07
6.14239e-07
-1.54715e-07
6.00899e-07
-1.76992e-07
5.85898e-07
-1.98632e-07
5.69284e-07
-2.19521e-07
5.51117e-07
-2.39514e-07
5.31474e-07
-2.5842e-07
5.10451e-07
-2.75995e-07
4.88167e-07
-2.91933e-07
4.64775e-07
-3.05878e-07
4.40453e-07
-3.17454e-07
4.15414e-07
-3.26335e-07
3.89886e-07
-3.32319e-07
3.64102e-07
-3.35407e-07
3.38283e-07
-3.3583e-07
3.12619e-07
-3.34006e-07
2.8726e-07
-3.30454e-07
2.62313e-07
-3.25696e-07
2.37853e-07
-3.2018e-07
2.13921e-07
-3.14244e-07
1.90542e-07
-3.08119e-07
1.67726e-07
-3.01945e-07
1.45474e-07
-2.95796e-07
1.23786e-07
-2.89707e-07
1.02658e-07
-2.83686e-07
8.20843e-08
-2.77734e-07
6.20598e-08
-2.71847e-07
4.25779e-08
-2.66025e-07
2.36309e-08
-2.60274e-07
5.20967e-09
-2.54605e-07
-1.26956e-08
-2.49032e-07
-3.0096e-08
-2.43544e-07
-4.70025e-08
-2.38136e-07
-6.34284e-08
-2.32826e-07
-7.93889e-08
-2.27629e-07
-9.49008e-08
-2.22559e-07
-1.09982e-07
-2.1763e-07
-1.24654e-07
-2.1285e-07
-1.38935e-07
-2.08229e-07
-1.5285e-07
-2.03774e-07
-1.66419e-07
-1.99488e-07
-1.79668e-07
-1.95374e-07
-1.92621e-07
-1.91431e-07
-2.05302e-07
-1.87659e-07
-2.17737e-07
-1.84054e-07
-2.29952e-07
-1.80611e-07
-2.41973e-07
-1.77326e-07
-2.53826e-07
-1.74194e-07
-2.65539e-07
-1.71209e-07
-2.77137e-07
-1.6837e-07
-2.88646e-07
-1.65675e-07
-3.00092e-07
-1.6313e-07
-3.11487e-07
-1.60765e-07
-3.22863e-07
-1.58603e-07
-3.34224e-07
-1.56629e-07
-3.4553e-07
-1.54984e-07
-3.5667e-07
-1.53762e-07
-3.68889e-07
-1.53848e-07
-3.79698e-07
-1.60344e-07
-3.91217e-07
-1.67611e-07
-4.0347e-07
-1.75745e-07
-4.1652e-07
-1.84804e-07
-4.30447e-07
-1.94869e-07
-4.45326e-07
-2.06069e-07
-4.61233e-07
-2.18578e-07
-4.78243e-07
-2.32628e-07
-4.96442e-07
-2.48505e-07
-5.15907e-07
-2.66586e-07
-5.36739e-07
-2.87392e-07
-5.59138e-07
-3.11245e-07
-5.83403e-07
-3.37985e-07
-6.09949e-07
-3.66636e-07
-6.39276e-07
-3.94945e-07
-6.71769e-07
-4.19377e-07
-7.07359e-07
-4.36201e-07
-7.45327e-07
-4.4331e-07
-7.84521e-07
-4.41116e-07
-8.23795e-07
-4.31683e-07
-8.62275e-07
-4.1729e-07
-8.99372e-07
-3.99664e-07
-9.34725e-07
-3.79904e-07
-9.68102e-07
-3.58619e-07
-9.99346e-07
-3.36141e-07
-1.02834e-06
-3.12661e-07
-1.05501e-06
-2.88308e-07
-1.07927e-06
-2.63177e-07
-1.10108e-06
-2.37346e-07
-1.12039e-06
-2.10887e-07
-1.13718e-06
-1.83867e-07
-1.15141e-06
-1.56356e-07
-1.16307e-06
-1.28416e-07
-1.17215e-06
-1.00106e-07
-1.17863e-06
-7.15469e-08
-1.18252e-06
-4.29695e-08
-1.44117e-08
6.57605e-07
-1.13533e-08
6.54833e-07
-3.39112e-08
6.5023e-07
-5.63131e-08
6.43813e-07
-7.85034e-08
6.35604e-07
-1.00396e-07
6.25629e-07
-1.21919e-07
6.1392e-07
-1.43006e-07
6.00513e-07
-1.63586e-07
5.85452e-07
-1.83571e-07
5.68789e-07
-2.02858e-07
5.50588e-07
-2.21312e-07
5.30926e-07
-2.38758e-07
5.09902e-07
-2.54969e-07
4.87636e-07
-2.69665e-07
4.64278e-07
-2.82517e-07
4.40007e-07
-2.9318e-07
4.15032e-07
-3.01354e-07
3.89577e-07
-3.06856e-07
3.63872e-07
-3.09693e-07
3.38133e-07
-3.10078e-07
3.12543e-07
-3.084e-07
2.87249e-07
-3.05141e-07
2.62355e-07
-3.00781e-07
2.37929e-07
-2.95731e-07
2.14011e-07
-2.90302e-07
1.90623e-07
-2.84706e-07
1.67772e-07
-2.79069e-07
1.4546e-07
-2.73459e-07
1.23685e-07
-2.67906e-07
1.02441e-07
-2.62417e-07
8.17241e-08
-2.56992e-07
6.1528e-08
-2.51626e-07
4.18466e-08
-2.4632e-07
2.26724e-08
-2.41077e-07
3.99709e-09
-2.35907e-07
-1.41886e-08
-2.30825e-07
-3.18947e-08
-2.25814e-07
-4.91312e-08
-2.20874e-07
-6.59101e-08
-2.16019e-07
-8.22452e-08
-2.11264e-07
-9.81521e-08
-2.0662e-07
-1.13647e-07
-2.021e-07
-1.2875e-07
-1.97711e-07
-1.43478e-07
-1.93462e-07
-1.57852e-07
-1.89359e-07
-1.71894e-07
-1.85403e-07
-1.85625e-07
-1.81598e-07
-1.99067e-07
-1.77943e-07
-2.12243e-07
-1.74435e-07
-2.25175e-07
-1.71072e-07
-2.37887e-07
-1.67849e-07
-2.50402e-07
-1.64761e-07
-2.62741e-07
-1.61803e-07
-2.7493e-07
-1.5897e-07
-2.86989e-07
-1.56259e-07
-2.98944e-07
-1.53669e-07
-3.10817e-07
-1.51205e-07
-3.22627e-07
-1.48901e-07
-3.34399e-07
-1.46773e-07
-3.46149e-07
-1.44813e-07
-3.57898e-07
-1.43151e-07
-3.69334e-07
-1.41871e-07
-3.81717e-07
-1.43737e-07
-3.92819e-07
-1.49564e-07
-4.04641e-07
-1.5615e-07
-4.17202e-07
-1.63589e-07
-4.30551e-07
-1.71911e-07
-4.44751e-07
-1.81184e-07
-4.59867e-07
-1.9153e-07
-4.75973e-07
-2.03121e-07
-4.93148e-07
-2.16181e-07
-5.11482e-07
-2.30985e-07
-5.31064e-07
-2.47915e-07
-5.52027e-07
-2.67443e-07
-5.74592e-07
-2.89786e-07
-5.99068e-07
-3.1468e-07
-6.2585e-07
-3.41032e-07
-6.55362e-07
-3.66535e-07
-6.87839e-07
-3.87829e-07
-7.23048e-07
-4.01689e-07
-7.60193e-07
-4.06627e-07
-7.9819e-07
-4.03395e-07
-8.36038e-07
-3.93986e-07
-8.73003e-07
-3.80402e-07
-9.08603e-07
-3.64102e-07
-9.42537e-07
-3.45989e-07
-9.74608e-07
-3.26557e-07
-1.00468e-06
-3.06075e-07
-1.03264e-06
-2.84703e-07
-1.0584e-06
-2.62544e-07
-1.0819e-06
-2.3968e-07
-1.10307e-06
-2.16179e-07
-1.12185e-06
-1.92102e-07
-1.13821e-06
-1.67508e-07
-1.1521e-06
-1.42461e-07
-1.16351e-06
-1.17015e-07
-1.17239e-06
-9.12237e-08
-1.17873e-06
-6.52015e-08
-1.18254e-06
-3.91598e-08
-1.31343e-08
6.576e-07
-1.04191e-08
6.5481e-07
-3.11221e-08
6.5018e-07
-5.16829e-08
6.43727e-07
-7.20496e-08
6.35473e-07
-9.21423e-08
6.25447e-07
-1.11894e-07
6.13685e-07
-1.31243e-07
6.00224e-07
-1.50125e-07
5.85111e-07
-1.68459e-07
5.68401e-07
-1.86149e-07
5.5016e-07
-2.03071e-07
5.30468e-07
-2.19066e-07
5.09425e-07
-2.33926e-07
4.87152e-07
-2.47393e-07
4.638e-07
-2.59165e-07
4.39546e-07
-2.68927e-07
4.14598e-07
-2.76405e-07
3.89178e-07
-2.81434e-07
3.63511e-07
-2.84022e-07
3.37808e-07
-2.8437e-07
3.12251e-07
-2.82835e-07
2.86979e-07
-2.79861e-07
2.62096e-07
-2.75886e-07
2.37665e-07
-2.71287e-07
2.13727e-07
-2.66349e-07
1.90299e-07
-2.61262e-07
1.6739e-07
-2.56141e-07
1.44998e-07
-2.51049e-07
1.23121e-07
-2.4601e-07
1.01754e-07
-2.41031e-07
8.08907e-08
-2.3611e-07
6.05264e-08
-2.31243e-07
4.06545e-08
-2.26429e-07
2.12679e-08
-2.21672e-07
2.35867e-09
-2.16981e-07
-1.60818e-08
-2.12367e-07
-3.40628e-08
-2.07814e-07
-5.15932e-08
-2.03322e-07
-6.86842e-08
-1.98905e-07
-8.53481e-08
-1.94574e-07
-1.01599e-07
-1.90341e-07
-1.17453e-07
-1.86216e-07
-1.32925e-07
-1.82207e-07
-1.48034e-07
-1.78319e-07
-1.62798e-07
-1.74558e-07
-1.77237e-07
-1.70927e-07
-1.91368e-07
-1.67427e-07
-2.05213e-07
-1.64057e-07
-2.18791e-07
-1.60814e-07
-2.32122e-07
-1.57697e-07
-2.45226e-07
-1.547e-07
-2.58122e-07
-1.51819e-07
-2.7083e-07
-1.49049e-07
-2.83369e-07
-1.46384e-07
-2.95757e-07
-1.43823e-07
-3.08016e-07
-1.41363e-07
-3.20165e-07
-1.39009e-07
-3.32226e-07
-1.36794e-07
-3.44229e-07
-1.34725e-07
-3.562e-07
-1.32796e-07
-3.68195e-07
-1.31109e-07
-3.80001e-07
-1.29733e-07
-3.92122e-07
-1.32964e-07
-4.0373e-07
-1.38267e-07
-4.15953e-07
-1.44276e-07
-4.28861e-07
-1.51074e-07
-4.4252e-07
-1.58695e-07
-4.56995e-07
-1.67207e-07
-4.72358e-07
-1.76726e-07
-4.88687e-07
-1.87419e-07
-5.06071e-07
-1.99499e-07
-5.24611e-07
-2.1323e-07
-5.44413e-07
-2.28989e-07
-5.65637e-07
-2.47189e-07
-5.88519e-07
-2.67957e-07
-6.13361e-07
-2.90944e-07
-6.40516e-07
-3.14974e-07
-6.70305e-07
-3.37753e-07
-7.0281e-07
-3.56157e-07
-7.3766e-07
-3.67449e-07
-7.74033e-07
-3.70652e-07
-8.10939e-07
-3.66721e-07
-8.47519e-07
-3.57532e-07
-8.8316e-07
-3.44825e-07
-9.17457e-07
-3.29836e-07
-9.50154e-07
-3.13306e-07
-9.81077e-07
-2.95641e-07
-1.0101e-06
-2.77059e-07
-1.03711e-06
-2.57691e-07
-1.06203e-06
-2.37625e-07
-1.08478e-06
-2.16928e-07
-1.1053e-06
-1.95659e-07
-1.12353e-06
-1.7387e-07
-1.13943e-06
-1.51615e-07
-1.15294e-06
-1.28948e-07
-1.16404e-06
-1.05919e-07
-1.17268e-06
-8.25748e-08
-1.17887e-06
-5.90208e-08
-1.18258e-06
-3.54483e-08
-1.18893e-08
6.57596e-07
-9.48162e-09
6.54797e-07
-2.83226e-08
6.50149e-07
-4.7035e-08
6.4367e-07
-6.55712e-08
6.35386e-07
-8.38579e-08
6.25325e-07
-1.01833e-07
6.13524e-07
-1.19442e-07
6.00023e-07
-1.36624e-07
5.84869e-07
-1.53306e-07
5.6812e-07
-1.694e-07
5.49842e-07
-1.84794e-07
5.30117e-07
-1.99342e-07
5.09044e-07
-2.12855e-07
4.86747e-07
-2.25098e-07
4.63376e-07
-2.35796e-07
4.3911e-07
-2.44664e-07
4.14153e-07
-2.51452e-07
3.88728e-07
-2.56012e-07
3.63058e-07
-2.58356e-07
3.37353e-07
-2.58666e-07
3.11789e-07
-2.57272e-07
2.86506e-07
-2.54576e-07
2.61602e-07
-2.50978e-07
2.37141e-07
-2.46821e-07
2.1316e-07
-2.42359e-07
1.89676e-07
-2.37767e-07
1.66694e-07
-2.33148e-07
1.44214e-07
-2.28556e-07
1.22231e-07
-2.24014e-07
1.00741e-07
-2.19527e-07
7.97377e-08
-2.15092e-07
5.92152e-08
-2.10706e-07
3.91675e-08
-2.06367e-07
1.95879e-08
-2.02079e-07
4.68806e-10
-1.97848e-07
-1.81984e-08
-1.93685e-07
-3.64215e-08
-1.89575e-07
-5.42089e-08
-1.85517e-07
-7.15704e-08
-1.81523e-07
-8.85176e-08
-1.77605e-07
-1.05063e-07
-1.73772e-07
-1.21221e-07
-1.70033e-07
-1.37006e-07
-1.66394e-07
-1.52434e-07
-1.62861e-07
-1.67523e-07
-1.59438e-07
-1.82288e-07
-1.56128e-07
-1.96748e-07
-1.52932e-07
-2.10919e-07
-1.49848e-07
-2.2482e-07
-1.46875e-07
-2.38468e-07
-1.4401e-07
-2.51879e-07
-1.41248e-07
-2.65071e-07
-1.38586e-07
-2.78059e-07
-1.36019e-07
-2.90859e-07
-1.33542e-07
-3.03488e-07
-1.31152e-07
-3.15961e-07
-1.28849e-07
-3.28297e-07
-1.26633e-07
-3.40517e-07
-1.24537e-07
-3.52653e-07
-1.22551e-07
-3.64749e-07
-1.20662e-07
-3.76862e-07
-1.18955e-07
-3.88723e-07
-1.17527e-07
-4.00741e-07
-1.21553e-07
-4.12831e-07
-1.26449e-07
-4.25446e-07
-1.31974e-07
-4.38686e-07
-1.38194e-07
-4.52637e-07
-1.45156e-07
-4.67378e-07
-1.52934e-07
-4.82987e-07
-1.61646e-07
-4.99552e-07
-1.71449e-07
-5.17172e-07
-1.82548e-07
-5.3596e-07
-1.95191e-07
-5.56042e-07
-2.09743e-07
-5.77602e-07
-2.26553e-07
-6.00882e-07
-2.45673e-07
-6.26171e-07
-2.66691e-07
-6.53773e-07
-2.8839e-07
-6.83902e-07
-3.08542e-07
-7.165e-07
-3.24303e-07
-7.51086e-07
-3.33399e-07
-7.86829e-07
-3.35251e-07
-8.22827e-07
-3.30922e-07
-8.58337e-07
-3.22129e-07
-8.9284e-07
-3.10376e-07
-9.25999e-07
-2.96704e-07
-9.57594e-07
-2.81724e-07
-9.87473e-07
-2.65767e-07
-1.01552e-06
-2.49014e-07
-1.04164e-06
-2.31574e-07
-1.06575e-06
-2.13518e-07
-1.08777e-06
-1.94904e-07
-1.10765e-06
-1.75783e-07
-1.12532e-06
-1.56201e-07
-1.14073e-06
-1.36203e-07
-1.15384e-06
-1.15838e-07
-1.16461e-06
-9.51481e-08
-1.17301e-06
-7.41775e-08
-1.17901e-06
-5.30192e-08
-1.18261e-06
-3.18441e-08
-1.06802e-08
6.57594e-07
-8.54138e-09
6.54786e-07
-2.55148e-08
6.50124e-07
-4.2373e-08
6.43626e-07
-5.9073e-08
6.35316e-07
-7.55485e-08
6.25226e-07
-9.17434e-08
6.13391e-07
-1.07608e-07
5.99853e-07
-1.23086e-07
5.84662e-07
-1.38114e-07
5.67872e-07
-1.52612e-07
5.49555e-07
-1.66477e-07
5.2979e-07
-1.79579e-07
5.0868e-07
-1.91748e-07
4.86347e-07
-2.02769e-07
4.62943e-07
-2.12397e-07
4.38647e-07
-2.20373e-07
4.13663e-07
-2.26475e-07
3.88214e-07
-2.30571e-07
3.62522e-07
-2.32671e-07
3.36793e-07
-2.32945e-07
3.11204e-07
-2.31689e-07
2.85892e-07
-2.29268e-07
2.60953e-07
-2.26041e-07
2.36448e-07
-2.22316e-07
2.12413e-07
-2.18322e-07
1.88863e-07
-2.14214e-07
1.65803e-07
-2.10083e-07
1.43233e-07
-2.05979e-07
1.21147e-07
-2.0192e-07
9.95388e-08
-1.9791e-07
7.8404e-08
-1.93947e-07
5.77361e-08
-1.90028e-07
3.75293e-08
-1.8615e-07
1.77771e-08
-1.82316e-07
-1.52778e-09
-1.78533e-07
-2.03931e-08
-1.74809e-07
-3.88261e-08
-1.71129e-07
-5.68345e-08
-1.67494e-07
-7.44272e-08
-1.63914e-07
-9.16145e-08
-1.604e-07
-1.08408e-07
-1.56958e-07
-1.24821e-07
-1.53598e-07
-1.40866e-07
-1.50324e-07
-1.56558e-07
-1.47142e-07
-1.71912e-07
-1.44056e-07
-1.86944e-07
-1.41066e-07
-2.01668e-07
-1.38175e-07
-2.16102e-07
-1.35381e-07
-2.30259e-07
-1.32683e-07
-2.44156e-07
-1.30077e-07
-2.57807e-07
-1.27561e-07
-2.71225e-07
-1.2513e-07
-2.84425e-07
-1.22782e-07
-2.97418e-07
-1.20512e-07
-3.10216e-07
-1.18318e-07
-3.22829e-07
-1.16201e-07
-3.35267e-07
-1.14162e-07
-3.47546e-07
-1.12232e-07
-3.59702e-07
-1.10374e-07
-3.71744e-07
-1.08607e-07
-3.83734e-07
-1.0696e-07
-3.95819e-07
-1.05534e-07
-4.07881e-07
-1.09606e-07
-4.20332e-07
-1.14192e-07
-4.3327e-07
-1.19298e-07
-4.46806e-07
-1.24979e-07
-4.61033e-07
-1.31307e-07
-4.76036e-07
-1.38368e-07
-4.91899e-07
-1.4628e-07
-5.08719e-07
-1.55192e-07
-5.26603e-07
-1.65296e-07
-5.45676e-07
-1.76826e-07
-5.66085e-07
-1.90125e-07
-5.8803e-07
-2.05478e-07
-6.11756e-07
-2.22883e-07
-6.37531e-07
-2.41881e-07
-6.65599e-07
-2.61258e-07
-6.96069e-07
-2.78904e-07
-7.28758e-07
-2.92279e-07
-7.63104e-07
-2.99523e-07
-7.9829e-07
-3.00361e-07
-8.33498e-07
-2.95883e-07
-8.68086e-07
-2.87632e-07
-9.01611e-07
-2.76896e-07
-9.33789e-07
-2.64549e-07
-9.64428e-07
-2.51095e-07
-9.93394e-07
-2.36805e-07
-1.02058e-06
-2.21829e-07
-1.0459e-06
-2.06256e-07
-1.06927e-06
-1.90146e-07
-1.09063e-06
-1.73549e-07
-1.1099e-06
-1.56508e-07
-1.12704e-06
-1.39061e-07
-1.142e-06
-1.2125e-07
-1.15472e-06
-1.03115e-07
-1.16517e-06
-8.46946e-08
-1.17332e-06
-6.60265e-08
-1.17915e-06
-4.71935e-08
-1.18265e-06
-2.83455e-08
-9.50625e-09
6.57591e-07
-7.59894e-09
6.54777e-07
-2.27001e-08
6.50103e-07
-3.76994e-08
6.43588e-07
-5.25583e-08
6.35257e-07
-6.72177e-08
6.25141e-07
-8.16275e-08
6.13276e-07
-9.5743e-08
5.99705e-07
-1.09515e-07
5.84476e-07
-1.22886e-07
5.67648e-07
-1.35784e-07
5.49289e-07
-1.4812e-07
5.29482e-07
-1.59775e-07
5.08329e-07
-1.70597e-07
4.85953e-07
-1.80398e-07
4.62506e-07
-1.88957e-07
4.38169e-07
-1.96044e-07
4.13147e-07
-2.01462e-07
3.8766e-07
-2.05095e-07
3.61932e-07
-2.06955e-07
3.36168e-07
-2.07193e-07
3.10543e-07
-2.06075e-07
2.85191e-07
-2.03926e-07
2.60208e-07
-2.01066e-07
2.35653e-07
-1.97766e-07
2.11559e-07
-1.94231e-07
1.87942e-07
-1.90597e-07
1.64806e-07
-1.86946e-07
1.42149e-07
-1.83318e-07
1.19965e-07
-1.79731e-07
9.82484e-08
-1.76188e-07
7.69942e-08
-1.72687e-07
5.61961e-08
-1.69223e-07
3.58485e-08
-1.65795e-07
1.59452e-08
-1.62405e-07
-3.52061e-09
-1.5906e-07
-2.25564e-08
-1.55765e-07
-4.11688e-08
-1.52507e-07
-5.93644e-08
-1.49287e-07
-7.71516e-08
-1.46114e-07
-9.45395e-08
-1.42996e-07
-1.11539e-07
-1.39942e-07
-1.28161e-07
-1.36956e-07
-1.44419e-07
-1.34045e-07
-1.60325e-07
-1.31213e-07
-1.75894e-07
-1.28462e-07
-1.91138e-07
-1.25795e-07
-2.06073e-07
-1.23212e-07
-2.20712e-07
-1.20712e-07
-2.3507e-07
-1.18294e-07
-2.49159e-07
-1.15955e-07
-2.62994e-07
-1.13693e-07
-2.76586e-07
-1.11504e-07
-2.89949e-07
-1.09385e-07
-3.03093e-07
-1.07335e-07
-3.16028e-07
-1.05351e-07
-3.28765e-07
-1.03436e-07
-3.4131e-07
-1.01595e-07
-3.53668e-07