/*--------------------------------*- C++ -*----------------------------------*\
  =========                 |
  \\      /  F ield         | OpenFOAM: The Open Source CFD Toolbox
   \\    /   O peration     | Website:  https://openfoam.org
    \\  /    A nd           | Version:  8
     \\/     M anipulation  |
\*---------------------------------------------------------------------------*/
FoamFile
{
    version     2.0;
    format      ascii;
    class       volScalarField;
    location    "320/fluid";
    object      rDeltaT;
}
// * * * * * * * * * * * * * * * * * * * * * * * * * * * * * * * * * * * * * //

dimensions      [0 0 -1 0 0 0 0];

internalField   nonuniform List<scalar> 
4000
(
513.037
538.299
562.551
585.889
608.238
629.514
649.613
668.415
685.805
701.692
716.037
728.872
740.335
750.682
760.308
769.713
779.295
789.288
799.678
810.174
820.246
829.223
836.442
841.328
843.461
842.624
838.686
831.607
821.423
808.234
792.183
773.449
752.232
728.736
720.994
743.352
778.557
813.312
847.654
881.627
915.273
948.636
981.754
1014.66
1047.37
1079.91
1112.27
1144.44
1176.39
1208.09
1239.49
1270.51
1301.08
1331.09
1360.45
1389.03
1416.71
1443.35
1468.77
1492.69
1515.26
1536.24
1556.11
16938.2
1557.63
1529.55
1495.33
1455.35
1410.11
1360.04
1305.55
1247.09
1185.24
1120.72
1054.25
986.782
920.096
856.579
799.068
750.886
714.859
691.798
679.794
675.125
674.031
673.582
672.07
668.568
662.834
654.977
645.234
633.873
621.151
607.294
592.498
576.926
560.691
543.875
526.608
508.968
512.61
537.274
560.801
583.101
604.125
623.811
642.084
658.867
674.099
687.763
699.903
710.651
720.243
729.031
737.476
746.015
755.023
764.709
775.044
785.719
796.184
805.745
813.663
819.293
822.173
821.981
818.537
811.788
801.781
788.633
772.512
753.616
732.166
708.391
689.773
701.653
738.132
774.24
810.001
845.449
880.622
915.559
950.295
984.863
1019.29
1053.59
1087.77
1121.82
1155.73
1189.48
1223.01
1256.28
1289.22
1321.75
1353.78
1385.21
1415.91
1445.77
1474.51
1501.94
1528.11
1552.58
1574.96
16750.5
1571.9
1537.59
1498.69
1454.97
1406.41
1353.15
1295.39
1233.45
1167.77
1098.97
1027.66
955.041
883.409
815.906
756.338
708.357
674.305
653.948
644.437
641.747
642.303
643.544
644.028
643.032
640.151
635.314
628.598
620.147
610.13
598.718
586.071
572.335
557.62
542.008
525.621
508.631
511.979
535.243
557.205
577.8
596.955
614.617
630.741
645.295
658.28
669.742
679.795
688.639
696.566
703.957
711.244
718.834
727.093
736.231
746.22
756.751
767.274
777.09
785.468
791.744
795.372
795.938
793.207
787.096
777.637
764.94
749.175
730.541
709.256
685.549
659.653
662.476
697.936
735.244
772.357
809.296
846.087
882.763
919.353
955.886
992.387
1028.87
1065.36
1101.84
1138.31
1174.75
1211.13
1247.41
1283.55
1319.48
1355.12
1390.4
1425.19
1459.36
1492.55
1524.59
1555.35
1583.95
3035.69
14724.4
1595.61
1554.45
1509.02
1459.08
1404.53
1345.46
1282.01
1214.48
1143.35
1069.29
993.068
916.37
841.992
773.493
714.876
669.462
638.666
621.287
614.028
612.957
614.791
617.236
619.01
619.527
618.477
615.733
611.284
605.182
597.512
588.371
577.865
566.096
553.144
539.08
524.03
508.144
511.353
533.352
553.973
573.142
590.801
606.916
621.468
634.453
645.899
655.876
664.515
672.023
678.69
684.889
691.054
697.628
704.984
713.33
722.626
732.555
742.557
751.921
759.906
765.838
769.176
769.532
766.675
760.506
751.033
738.343
722.58
703.926
682.584
658.77
632.705
630.165
660.709
699.14
737.552
775.956
814.371
852.82
891.329
929.924
968.625
1007.45
1046.41
1085.51
1124.74
1164.08
1203.52
1243.01
1282.51
1321.95
1361.25
1400.3
1438.98
1477.1
1514.26
1550.24
1584.95
1617.74
9360.69
9229.16
1608.78
1562.86
1511.98
1456.27
1395.86
1330.98
1261.93
1189.18
1113.39
1035.36
956.165
877.954
803.765
737.161
681.731
640.133
613.013
598.57
593.341
593.603
596.399
599.701
602.359
603.789
603.728
602.088
598.864
594.093
587.83
580.138
571.082
560.728
549.129
536.332
522.448
507.629
510.678
531.295
550.475
568.152
584.274
598.817
611.777
623.167
633.035
641.471
648.628
654.732
660.088
665.084
670.159
675.753
682.231
689.788
698.373
707.659
717.083
725.931
733.46
738.989
741.971
742.013
738.876
732.453
722.743
709.823
693.827
674.924
653.304
629.173
602.74
597.285
625.512
665.02
704.685
744.512
784.513
824.705
865.109
905.743
946.625
987.77
1029.18
1070.87
1112.81
1154.99
1197.39
1239.96
1282.62
1325.32
1367.93
1410.32
1452.31
1493.64
1533.75
1572.47
1609.57
1644.13
14624.1
4139.77
1612.15
1562.54
1507.08
1446.38
1380.89
1311.05
1237.35
1160.44
1081.16
1000.4
919.496
840.901
767.74
703.485
651.367
613.429
589.609
577.637
574.004
575.242
578.715
582.647
586.029
588.329
589.284
588.783
586.793
583.323
578.402
572.068
564.365
555.341
545.033
533.478
520.779
507.084
509.994
529.237
547.018
563.274
577.959
591.062
602.587
612.56
621.039
628.127
633.986
638.847
643.021
646.893
650.899
655.474
660.977
667.594
675.269
683.674
692.248
700.283
707.041
711.848
714.158
713.58
709.871
702.919
692.713
679.322
662.866
643.502
621.41
596.78
569.811
563.785
592.163
632.663
673.49
714.64
756.12
797.941
840.116
882.658
925.577
968.882
1012.57
1056.64
1101.07
1145.83
1190.88
1236.15
1281.57
1327.03
1372.39
1417.45
1461.96
1505.57
1547.57
1587.99
1625.76
1659.84
18225.9
1655.34
1608.39
1554.44
1494.56
1429.47
1359.75
1285.95
1208.72
1128.84
1047.26
964.945
883.541
805.676
734.491
673.299
624.937
590.846
570.349
560.82
558.757
560.933
564.981
569.349
573.165
575.968
577.53
577.747
576.582
574.031
570.105
564.825
558.217
550.312
541.134
530.709
519.129
506.536
509.296
527.139
543.506
558.339
571.599
583.278
593.39
601.968
609.079
614.834
619.404
623.026
626.015
628.759
631.691
635.242
639.759
645.421
652.162
659.649
667.318
674.464
680.353
684.318
685.817
684.462
680.012
672.351
661.466
647.418
630.32
610.319
587.586
562.299
534.646
529.649
559.863
601.266
643.15
685.505
728.332
771.633
815.415
859.682
904.438
949.68
995.399
1041.58
1088.19
1135.18
1182.5
1230.08
1277.79
1325.52
1373.08
1420.25
1466.7
1511.89
1555.2
1596.28
1633.65
1717.59
17086.4
1649.8
1597.69
1539.47
1475.74
1407.1
1334.12
1257.44
1177.77
1096.01
1013.16
930.266
849.221
772.751
703.956
645.952
601.184
570.557
552.905
545.384
544.576
547.505
552.041
556.816
561.059
564.36
566.509
567.404
567.002
565.289
562.266
557.942
552.333
545.46
537.339
527.99
517.497
505.992
508.594
525.033
539.992
553.418
565.277
575.567
584.307
591.536
597.328
601.799
605.123
607.542
609.372
610.998
612.849
615.349
618.837
623.482
629.211
635.686
642.344
648.484
653.379
656.369
656.919
654.646
649.31
640.797
629.091
614.247
596.374
575.61
552.116
526.062
497.627
494.852
528.135
570.331
613.145
656.563
700.576
745.182
790.376
836.157
882.516
929.442
976.914
1024.9
1073.36
1122.23
1171.44
1220.88
1270.44
1319.95
1369.2
1417.94
1465.82
1512.21
1556.55
1598.5
1636.72
5840.92
13038.1
1634.31
1579.05
1517.93
1451.51
1380.37
1305.15
1226.56
1145.4
1062.63
979.291
896.539
816.467
741.841
675.698
620.949
579.669
552.286
537.237
531.535
531.868
535.485
540.461
545.584
550.178
553.881
556.505
557.958
558.193
557.194
554.953
551.472
546.761
540.831
533.692
525.359
515.908
505.46
507.887
522.914
536.462
548.482
558.946
567.856
575.234
581.126
585.609
588.805
590.89
592.108
592.776
593.277
594.037
595.471
597.909
601.51
606.193
611.615
617.211
622.285
626.115
628.048
627.559
624.271
617.948
608.478
595.845
580.103
561.354
539.732
515.39
488.492
459.206
459.405
496.51
539.382
582.994
627.326
672.362
718.09
764.5
811.579
859.309
907.669
956.624
1006.13
1056.13
1106.56
1157.31
1208.27
1259.29
1310.19
1360.75
1410.68
1459.62
1506.95
1552.12
1594.92
1634.21
11421.1
7923.57
1610.84
1554.27
1491.54
1423.47
1350.75
1274.15
1194.45
1112.53
1029.45
946.209
864.121
785.423
712.889
649.472
597.876
559.827
535.345
522.563
518.42
519.737
523.967
529.359
534.833
539.785
543.891
546.981
548.967
549.807
549.477
547.969
545.279
541.411
536.371
530.167
522.808
514.363
504.942
507.178
520.789
532.925
543.541
552.614
560.15
566.176
570.741
573.925
575.854
576.706
576.727
576.233
575.604
575.26
575.609
576.973
579.498
583.097
587.422
591.906
595.856
598.558
599.369
597.771
593.394
586.01
575.509
561.876
545.164
525.473
502.932
477.689
449.9
419.727
423.331
464.665
508.092
552.368
597.465
643.361
690.035
737.469
785.641
834.524
884.085
934.281
985.054
1036.33
1088.03
1140.04
1192.22
1244.42
1296.42
1347.98
1398.81
1448.49
1496.37
1541.99
1585.09
1624.44
15144.9
4164.72
1583.52
1526.11
1462.32
1393.15
1319.44
1242.04
1161.8
1079.67
996.754
914.044
832.984
755.916
685.598
624.895
576.307
541.246
519.382
508.616
505.86
508.067
512.873
518.676
524.504
529.815
534.318
537.86
540.359
541.773
542.079
541.265
539.324
536.258
532.068
526.759
520.338
512.865
504.44
506.467
518.659
529.379
538.59
546.271
552.435
557.11
560.348
562.234
562.896
562.514
561.335
559.672
557.905
556.446
555.697
555.967
557.396
559.885
563.082
566.419
569.207
570.74
570.382
567.626
562.11
553.613
542.03
527.348
509.62
488.945
465.449
439.274
410.572
382.21
389.474
432.353
476.218
521.027
566.747
613.347
660.801
709.081
758.157
807.994
858.548
909.766
961.581
1013.91
1066.65
1119.68
1172.86
1225.99
1278.85
1331.18
1382.64
1432.83
1481
1526.74
1569.73
1608.73
18502.5
1604.41
1554.01
1495.72
1431.06
1361.14
1286.9
1209.18
1128.89
1047.02
964.656
882.817
803.059
727.787
659.735
601.673
555.911
523.579
504.056
495.072
493.547
496.565
501.922
508.144
514.347
520.04
524.96
528.965
531.98
533.965
534.896
534.76
533.549
531.26
527.895
523.453
517.941
511.412
503.953
505.754
516.524
525.826
533.629
539.918
544.707
548.03
549.942
550.53
549.924
548.305
545.922
543.086
540.172
537.588
535.727
534.888
535.201
536.558
538.602
540.765
542.362
542.693
541.134
537.186
530.498
520.854
508.157
492.396
473.626
451.945
427.476
400.359
370.741
345.37
356.295
399.408
443.597
488.816
535.025
582.186
630.266
679.229
729.039
779.65
831.01
883.058
935.715
988.891
1042.47
1096.32
1150.29
1204.16
1257.71
1310.64
1362.6
1413.13
1461.28
1507.13
1549.32
1586.58
18433.2
1576.94
1524.2
1464.52
1398.95
1328.47
1253.94
1176.21
1096.19
1014.87
933.328
852.581
774.29
700.894
635.091
579.557
536.425
506.576
489.152
481.757
481.342
485.116
491.015
497.671
504.274
510.375
515.732
520.217
523.759
526.319
527.874
528.409
527.916
526.39
523.831
520.236
515.611
509.999
503.479
505.04
514.384
522.265
528.657
533.551
536.965
538.934
539.517
538.804
536.927
534.069
530.477
526.462
522.395
518.678
515.694
513.734
512.916
513.126
513.999
514.969
515.353
514.462
511.679
506.518
498.636
487.828
473.999
457.145
437.323
414.629
389.186
361.131
330.607
308.086
322.472
365.721
410.129
455.644
502.219
549.812
598.38
647.883
698.275
749.504
801.512
854.228
907.566
961.428
1015.69
1070.21
1124.82
1179.31
1233.43
1286.86
1339.23
1389.96
1438.22
1483.85
1525.32
1576.33
17991.8
1547.32
1492.79
1432.01
1365.83
1295.1
1220.62
1143.22
1063.76
983.261
902.759
823.28
746.575
675.091
611.488
558.349
517.645
490.047
474.501
468.528
469.124
473.614
480.052
487.161
494.192
500.731
506.554
511.542
515.628
518.775
520.961
522.169
522.391
521.621
519.856
517.094
513.337
508.623
503.018
504.324
512.239
518.697
523.675
527.172
529.207
529.82
529.073
527.057
523.906
519.807
515.003
509.805
504.58
499.723
495.609
492.517
490.558
489.607
489.296
489.058
488.217
486.089
482.071
475.685
466.6
454.619
439.654
421.704
400.83
377.128
350.721
321.743
290.335
270.407
287.936
331.23
375.759
421.466
468.296
516.202
565.136
615.05
665.891
717.601
770.115
823.354
877.228
931.629
986.428
1041.47
1096.59
1151.55
1206.11
1259.94
1312.65
1363.61
1412.09
1457.87
1499.44
2851.28
16674
1515.02
1459.7
1398.48
1332.16
1261.55
1187.42
1110.58
1031.91
952.397
873.069
794.962
719.889
650.297
588.804
537.907
499.431
473.861
459.994
455.297
456.822
461.997
468.978
476.563
484.052
491.06
497.378
502.893
507.544
511.294
514.121
516.009
516.947
516.93
515.954
514.014
511.111
507.277
502.568
503.607
510.091
515.122
518.684
520.781
521.436
520.692
518.611
515.291
510.866
505.522
499.504
493.121
486.734
480.733
475.482
471.253
468.145
466.025
464.521
463.067
460.992
457.621
452.362
444.748
434.459
421.305
405.207
386.169
364.252
339.557
312.204
282.327
250.062
232.389
252.651
295.906
340.468
386.271
433.257
481.373
530.563
580.775
631.95
684.024
736.925
790.57
844.862
899.686
954.91
1010.38
1065.9
1121.26
1176.2
1230.39
1283.45
1334.77
1383.62
1429.89
1472.25
5520.8
14431.2
1480.12
1424.87
1363.84
1297.88
1227.77
1154.3
1078.29
1000.61
922.258
844.223
767.563
694.145
626.407
566.925
518.114
481.671
457.928
445.56
442.001
444.385
450.223
457.755
465.839
473.816
481.323
488.164
494.234
499.471
503.842
507.324
509.901
511.562
512.3
512.108
510.983
508.925
505.957
502.127
502.888
507.939
511.541
513.686
514.381
513.654
511.55
508.137
503.511
497.811
491.222
483.99
476.42
468.87
461.721
455.332
449.961
445.698
442.403
439.702
437.028
433.716
429.101
422.602
413.763
402.274
387.956
370.735
350.622
327.681
302.013
273.739
242.991
209.903
194.083
216.608
259.747
304.259
350.073
397.126
445.358
494.709
545.121
596.531
648.868
702.057
756.009
810.622
865.779
921.343
977.154
1033.02
1088.73
1144.01
1198.55
1251.97
1303.68
1352.96
1399.77
1442.82
7700.6
12441.6
1443.76
1389.05
1328.62
1263.33
1194.01
1121.44
1046.46
969.925
892.847
816.186
741.02
669.258
603.319
545.74
498.864
464.277
442.185
431.165
428.6
431.781
438.267
446.36
454.966
463.459
471.495
478.888
485.537
491.384
496.395
500.547
503.824
506.215
507.711
508.305
507.992
506.77
504.658
501.693
502.169
505.784
507.955
508.681
507.974
505.864
502.401
497.654
491.724
484.749
476.916
468.47
459.714
451
442.704
435.174
428.659
423.239
418.768
414.867
410.972
406.425
400.569
392.835
382.779
370.102
354.632
336.306
315.136
291.193
264.578
235.412
203.826
169.953
155.541
179.815
222.768
267.154
312.901
359.94
408.204
457.631
508.156
559.712
612.225
665.615
719.789
774.643
830.056
885.889
941.98
998.14
1054.15
1109.74
1164.6
1218.37
1270.46
1320.16
1367.43
1410.99
9205.9
11027.6
1406.91
1352.89
1293.22
1228.79
1160.43
1088.94
1015.11
939.849
864.135
788.909
715.266
645.141
580.932
525.136
480.035
447.131
426.543
416.782
415.104
419.026
426.139
434.794
443.938
452.97
461.56
469.53
476.782
483.259
488.929
493.767
497.758
500.889
503.149
504.531
505.029
504.64
503.376
501.265
501.449
503.626
504.366
503.672
501.562
498.07
493.249
487.17
479.936
471.688
462.613
452.955
443.015
433.139
423.696
415.026
407.367
400.79
395.142
390.043
384.93
379.151
372.062
363.102
351.841
337.99
321.387
301.975
279.773
254.854
227.321
197.296
164.91
130.292
116.815
142.294
184.994
229.187
274.794
321.743
369.964
419.388
469.947
521.569
574.179
627.69
682.01
737.03
792.629
848.666
904.977
961.374
1017.64
1073.51
1128.67
1182.76
1235.2
1285.3
1333
1377.05
10308.9
10022.6
1369.86
1316.62
1257.84
1194.41
1127.14
1056.83
984.287
910.38
836.097
762.353
690.25
621.732
559.174
505.036
461.546
430.139
410.893
402.297
401.475
406.101
413.823
423.043
432.737
442.328
451.495
460.066
467.944
475.074
481.423
486.965
491.684
495.565
498.598
500.774
502.085
502.526
502.105
500.841
500.728
501.467
500.774
498.661
495.149
490.276
484.097
476.689
468.154
458.636
448.322
437.456
426.334
415.299
404.712
394.903
386.102
378.37
371.548
365.253
358.926
351.924
343.611
333.438
320.988
305.981
288.265
267.791
244.584
218.718
190.3
159.453
126.305
100
100
104.08
146.463
190.397
235.798
282.587
330.692
380.04
430.559
482.174
534.805
588.365
642.758
697.877
753.596
809.775
866.253
922.84
979.317
1035.43
1090.86
1145.25
1198.03
1248.5
1296.65
1341.21
11049.7
9377.98
1332.75
1280.36
1222.58
1160.25
1094.19
1025.17
953.985
881.505
808.704
736.474
665.916
598.969
537.985
485.383
443.345
413.252
395.167
387.599
387.645
392.956
401.278
411.067
421.329
431.5
441.269
450.467
458.996
466.803
473.851
480.116
485.579
490.226
494.042
497.019
499.148
500.421
500.841
500.42
500.007
499.307
497.183
493.65
488.737
482.486
474.953
466.217
456.385
445.601
434.052
421.982
409.682
397.492
385.765
374.82
364.88
355.995
348.002
340.517
332.985
324.768
315.242
303.872
290.25
274.108
255.303
233.794
209.61
182.83
153.563
121.931
100
100
100
100
107.22
150.832
195.961
242.525
290.446
339.649
390.056
441.592
494.173
547.712
602.111
657.26
713.038
769.302
825.892
882.62
939.27
995.586
1051.26
1105.93
1159.05
1209.9
1258.49
1303.57
11428.9
9073.76
1295.61
1244.18
1187.49
1126.38
1061.61
993.954
924.201
853.205
781.925
711.235
642.222
576.811
517.322
466.143
425.412
396.475
379.359
372.61
373.512
379.503
388.433
398.811
409.666
420.448
430.849
440.702
449.911
458.419
466.192
473.201
479.427
484.855
489.468
493.257
496.21
498.318
499.58
500
500.006
499.305
497.18
493.647
488.733
482.481
474.947
466.21
456.377
445.591
434.042
421.97
409.67
397.479
385.751
374.805
364.864
355.978
347.984
340.498
332.965
324.748
315.221
303.85
290.227
274.085
255.28
233.771
209.587
182.807
153.54
121.909
100
100
100
100
107.21
150.823
195.953
242.518
290.44
339.643
390.051
441.587
494.169
547.708
602.107
657.257
713.034
769.298
825.888
882.617
939.267
995.583
1051.26
1105.93
1159.04
1209.9
1258.49
1303.57
11430.5
9072.11
1295.61
1244.18
1187.49
1126.38
1061.61
993.955
924.203
853.208
781.93
711.24
642.228
576.817
517.329
466.15
425.419
396.483
379.368
372.619
373.521
379.511
388.441
398.818
409.673
420.454
430.855
440.707
449.916
458.424
466.196
473.204
479.431
484.857
489.471
493.259
496.211
498.319
499.58
500
500.727
501.464
500.769
498.654
495.14
490.266
484.085
476.674
468.137
458.617
448.301
437.433
426.309
415.272
404.683
394.872
386.069
378.335
371.511
365.214
358.886
351.882
343.567
333.393
320.942
305.934
288.217
267.743
244.535
218.669
190.251
159.404
126.255
100
100
104.065
146.451
190.386
235.789
282.58
330.687
380.036
430.556
482.171
534.803
588.364
642.758
697.877
753.597
809.777
866.254
922.841
979.319
1035.43
1090.86
1145.25
1198.03
1248.51
1296.65
1341.22
11054.5
9372.95
1332.73
1280.34
1222.56
1160.24
1094.19
1025.17
953.983
881.506
808.707
736.479
665.922
598.977
537.994
485.394
443.358
413.267
395.183
387.616
387.663
392.973
401.294
411.082
421.344
431.514
441.282
450.478
459.007
466.812
473.859
480.123
485.586
490.231
494.047
497.023
499.15
500.422
500.841
500.419
501.448
503.623
504.361
503.665
501.553
498.06
493.236
487.155
479.919
471.668
462.591
452.931
442.989
433.111
423.666
414.993
407.333
400.754
395.104
390.002
384.887
379.107
372.016
363.054
351.792
337.939
321.334
301.921
279.718
254.798
227.264
197.239
164.852
130.233
116.784
142.292
184.994
229.189
274.799
321.75
369.973
419.398
469.959
521.583
574.193
627.705
682.026
737.047
792.646
848.683
904.994
961.392
1017.65
1073.52
1128.69
1182.78
1235.22
1285.31
1333.01
1377.06
10317.3
10013.8
1369.84
1316.59
1257.81
1194.39
1127.13
1056.82
984.274
910.369
836.089
762.347
690.245
621.729
559.174
505.039
461.553
430.149
410.907
402.313
401.491
406.118
413.84
423.059
432.752
442.342
451.508
460.077
467.955
475.084
481.431
486.972
491.69
495.57
498.602
500.777
502.087
502.527
502.105
500.84
502.168
505.781
507.95
508.674
507.965
505.854
502.388
497.639
491.707
484.729
476.894
468.446
459.687
450.971
442.673
435.14
428.624
423.202
418.729
414.825
410.928
406.379
400.521
392.784
382.726
370.047
354.575
336.247
315.076
291.13
264.514
235.347
203.76
169.886
155.511
179.825
222.781
267.171
312.92
359.961
408.228
457.657
508.184
559.741
612.256
665.646
719.821
774.676
830.089
885.922
942.013
998.173
1054.18
1109.77
1164.63
1218.4
1270.48
1320.18
1367.45
1411.01
9216.95
11015.3
1406.87
1352.85
1293.18
1228.76
1160.41
1088.91
1015.09
939.826
864.114
788.891
715.25
645.128
580.923
525.131
480.035
447.136
426.554
416.796
415.12
419.043
426.155
434.811
443.953
452.984
461.573
469.541
476.792
483.269
488.937
493.775
497.764
500.894
503.153
504.535
505.032
504.641
503.376
501.264
502.887
507.936
511.536
513.679
514.373
513.644
511.538
508.122
503.494
497.791
491.2
483.965
476.393
468.84
461.69
455.298
449.925
445.66
442.363
439.659
436.983
433.668
429.051
422.548
413.707
402.216
387.894
370.672
350.556
327.612
301.942
273.666
242.916
209.827
194.054
216.631
259.774
304.289
350.106
397.162
445.397
494.751
545.165
596.576
648.915
702.105
756.058
810.672
865.829
921.393
977.204
1033.07
1088.78
1144.06
1198.59
1252.01
1303.71
1353
1399.8
1442.85
7716.67
12425.1
1443.71
1389.01
1328.57
1263.29
1193.96
1121.4
1046.42
969.889
892.813
816.154
740.99
669.232
603.299
545.725
498.856
464.278
442.192
431.177
428.615
431.798
438.284
446.376
454.982
463.473
471.508
478.9
485.548
491.393
496.403
500.554
503.83
506.22
507.715
508.308
507.994
506.771
504.658
501.692
503.606
510.088
515.117
518.678
520.773
521.426
520.679
518.597
515.274
510.846
505.499
499.479
493.094
486.704
480.701
475.448
471.217
468.106
465.984
464.478
463.021
460.943
457.57
452.307
444.69
434.397
421.24
405.139
386.097
364.178
339.48
312.125
282.245
249.977
232.362
252.688
295.947
340.512
386.319
433.309
481.427
530.621
580.835
632.012
684.088
736.991
790.637
844.929
899.754
954.977
1010.44
1065.97
1121.33
1176.26
1230.45
1283.5
1334.82
1383.67
1429.93
1472.3
5550.91
14403.8
1480.06
1424.81
1363.79
1297.82
1227.71
1154.25
1078.24
1000.56
922.209
844.176
767.52
694.106
626.374
566.9
518.098
481.665
457.931
445.57
442.016
444.401
450.24
457.772
465.855
473.83
481.336
488.177
494.245
499.481
503.851
507.331
509.907
511.567
512.304
512.111
510.985
508.926
505.958
502.126
504.323
512.237
518.693
523.67
527.165
529.198
529.809
529.058
527.04
523.887
519.784
514.978
509.778
504.55
499.691
495.574
492.481
490.519
489.566
489.253
489.012
488.167
486.036
482.014
475.625
466.536
454.55
439.581
421.628
400.75
377.045
350.635
321.653
290.242
270.383
287.987
331.285
375.819
421.53
468.364
516.274
565.211
615.127
665.97
717.683
770.199
823.439
877.314
931.715
986.513
1041.56
1096.67
1151.63
1206.19
1260.01
1312.71
1363.68
1412.15
1457.92
1499.49
2877.98
16647.8
1514.97
1459.64
1398.41
1332.1
1261.48
1187.35
1110.51
1031.84
952.331
873.006
794.903
719.835
650.251
588.768
537.882
499.418
473.86
460.001
455.311
456.839
462.014
468.995
476.58
484.067
491.074
497.39
502.904
507.554
511.302
514.128
516.015
516.952
516.934
515.957
514.016
511.112
507.277
502.568
505.039
514.382
522.262
528.652
533.544
536.956
538.923
539.503
538.788
536.908
534.047
530.453
526.435
522.366
518.646
515.66
513.698
512.878
513.085
513.956
514.922
515.303
514.408
511.621
506.456
498.57
487.756
473.923
457.065
437.238
414.54
389.093
361.034
330.506
308.064
322.538
365.792
410.204
455.724
502.303
549.899
598.471
647.977
698.372
749.604
801.614
854.331
907.67
961.532
1015.8
1070.32
1124.92
1179.41
1233.52
1286.95
1339.31
1390.04
1438.28
1483.9
1525.35
1579.25
17981.7
1547.28
1492.73
1431.93
1365.74
1295
1220.53
1143.12
1063.67
983.174
902.677
823.203
746.505
675.031
611.439
558.314
517.626
490.041
474.506
468.54
469.14
473.631
480.07
487.178
494.208
500.745
506.567
511.553
515.638
518.784
520.968
522.175
522.396
521.625
519.859
517.096
513.338
508.623
503.018
505.754
516.522
525.823
533.624
539.912
544.699
548.02
549.929
550.515
549.905
548.284
545.898
543.059
540.143
537.557
535.693
534.852
535.163
536.518
538.559
540.719
542.312
542.639
541.075
537.122
530.429
520.78
508.078
492.312
473.537
451.851
427.377
400.256
370.632
345.352
356.376
399.494
443.688
488.912
535.125
582.291
630.374
679.341
729.153
779.767
831.13
883.179
935.838
989.015
1042.6
1096.45
1150.41
1204.28
1257.82
1310.75
1362.7
1413.23
1461.38
1507.21
1549.38
1586.6
18430.8
1576.87
1524.11
1464.4
1398.82
1328.34
1253.81
1176.09
1096.08
1014.76
933.226
852.487
774.205
700.82
635.031
579.514
536.399
506.566
489.155
481.768
481.358
485.135
491.034
497.689
504.29
510.389
515.745
520.229
523.769
526.327
527.881
528.415
527.921
526.394
523.833
520.238
515.612
510
503.479
506.466
518.658
529.377
538.586
546.266
552.427
557.1
560.336
562.22
562.879
562.494
561.312
559.647
557.877
556.416
555.664
555.932
557.359
559.846
563.039
566.373
569.158
570.686
570.323
567.561
562.04
553.537
541.948
527.26
509.527
488.846
465.344
439.163
410.456
382.195
389.57
432.455
476.325
521.14
566.864
613.468
660.926
709.209
758.289
808.129
858.685
909.905
961.721
1014.05
1066.79
1119.83
1173
1226.13
1278.99
1331.32
1382.77
1432.96
1481.13
1526.86
1569.84
1608.84
18512.2
1604.31
1553.86
1495.57
1430.91
1361
1286.75
1209.04
1128.76
1046.89
964.538
882.707
802.96
727.701
659.665
601.621
555.878
523.565
504.057
495.083
493.563
496.584
501.942
508.163
514.364
520.056
524.974
528.977
531.991
533.974
534.903
534.766
533.554
531.264
527.897
523.455
517.942
511.412
503.953
507.178
520.789
532.923
543.538
552.609
560.144
566.168
570.73
573.912
575.838
576.687
576.705
576.208
575.577
575.231
575.578
576.939
579.463
583.059
587.381
591.861
595.807
598.505
599.31
597.706
593.323
585.932
575.424
561.785
545.066
525.369
502.822
477.572
449.777
419.598
423.321
464.783
508.216
552.497
597.599
643.499
690.177
737.614
785.789
834.675
884.238
934.435
985.21
1036.49
1088.19
1140.2
1192.38
1244.57
1296.57
1348.14
1398.96
1448.65
1496.53
1542.15
1585.24
1624.58
15174.5
4135
1583.38
1525.96
1462.17
1393
1319.29
1241.89
1161.65
1079.54
996.622
913.921
832.872
755.817
685.517
624.834
576.267
541.228
519.381
508.627
505.877
508.088
512.894
518.696
524.522
529.831
534.333
537.872
540.37
541.782
542.086
541.27
539.329
536.261
532.071
526.761
520.339
512.866
504.44
507.887
522.914
536.461
548.48
558.942
567.85
575.227
581.117
585.597
588.79
590.872
592.088
592.753
593.252
594.009
595.441
597.877
601.476
606.157
611.576
617.168
622.237
626.062
627.989
627.494
624.199
617.869
608.392
595.751
580.002
561.245
539.616
515.268
488.362
459.069
459.398
496.645
539.522
583.14
627.476
672.517
718.249
764.662
811.743
859.476
907.837
956.794
1006.3
1056.31
1106.73
1157.48
1208.44
1259.45
1310.35
1360.91
1410.84
1459.78
1507.09
1552.25
1595.04
1634.3
11449.9
7890.32
1610.75
1554.16
1491.42
1423.33
1350.61
1274
1194.3
1112.39
1029.31
946.076
863.998
785.313
712.797
649.401
597.829
559.804
535.341
522.573
518.438
519.759
523.989
529.38
534.852
539.802
543.906
546.993
548.978
549.816
549.484
547.975
545.283
541.414
536.373
530.168
522.809
514.364
504.943
508.594
525.033
539.992
553.417
565.275
575.563
584.301
591.528
597.318
601.786
605.108
607.524
609.351
610.974
612.823
615.321
618.807
623.45
629.176
635.648
642.302
648.438
653.328
656.311
656.854
654.573
649.23
640.709
628.994
614.142
596.26
575.488
551.986
525.925
497.482
494.85
528.287
570.488
613.308
656.731
700.748
745.357
790.555
836.337
882.699
929.626
977.098
1025.08
1073.54
1122.41
1171.62
1221.06
1270.61
1320.12
1369.37
1418.1
1465.97
1512.36
1556.68
1598.63
1636.85
5908.87
12978.9
1634.2
1578.93
1517.8
1451.36
1380.21
1304.99
1226.4
1145.24
1062.48
979.143
896.401
816.342
741.735
675.615
620.892
579.639
552.278
537.246
531.553
531.891
535.509
540.483
545.604
550.196
553.897
556.519
557.969
558.202
557.201
554.958
551.476
546.763
540.832
533.693
525.36
515.908
505.46
509.297
527.14
543.507
558.339
571.598
583.276
593.386
601.961
609.07
614.823
619.39
623.009
625.996
628.737
631.667
635.216
639.731
645.391
652.13
659.614
667.278
674.419
680.303
684.26
685.752
684.389
679.93
672.26
661.366
647.309
630.202
610.193
587.45
562.155
534.494
529.651
560.033
601.442
643.331
685.691
728.521
771.825
815.609
859.879
904.635
949.878
995.597
1041.77
1088.38
1135.37
1182.69
1230.26
1277.98
1325.7
1373.26
1420.41
1466.86
1512.05
1555.35
1596.43
1633.77
1725.98
17068.6
1649.71
1597.57
1539.34
1475.6
1406.94
1333.96
1257.27
1177.61
1095.84
1012.99
930.114
849.081
772.63
703.858
645.882
601.144
570.543
552.911
545.402
544.6
547.531
552.065
556.837
561.078
564.376
566.522
567.415
567.011
565.295
562.271
557.945
552.335
545.461
537.34
527.991
517.498
505.992
509.995
529.238
547.02
563.275
577.96
591.061
602.585
612.556
621.032
628.118
633.975
638.833
643.004
646.873
650.877
655.451
660.951
667.566
675.239
683.641
692.211
700.241
706.993
711.792
714.094
713.507
709.788
702.826
692.611
679.209
662.744
643.37
621.268
596.629
569.65
563.792
592.352
632.858
673.689
714.843
756.327
798.151
840.327
882.87
925.791
969.095
1012.78
1056.85
1101.28
1146.03
1191.08
1236.35
1281.76
1327.22
1372.57
1417.62
1462.12
1505.73
1547.71
1588.12
1625.87
1659.91
18225.1
1655.29
1608.29
1554.31
1494.42
1429.32
1359.58
1285.78
1208.55
1128.66
1047.08
964.779
883.386
805.538
734.377
673.215
624.886
590.825
570.352
560.838
558.782
560.96
565.006
569.372
573.185
575.985
577.544
577.758
576.591
574.037
570.109
564.828
558.218
550.312
541.134
530.709
519.129
506.536
510.679
531.297
550.478
568.155
584.276
598.818
611.776
623.165
633.031
641.465
648.62
654.72
660.074
665.068
670.14
675.732
682.209
689.764
698.346
707.63
717.049
725.892
733.413
738.934
741.907
741.94
738.792
732.359
722.638
709.707
693.7
674.786
653.155
629.013
602.57
597.297
625.721
665.234
704.904
744.734
784.738
824.933
865.337
905.972
946.854
987.997
1029.41
1071.09
1113.03
1155.21
1197.6
1240.16
1282.83
1325.51
1368.12
1410.5
1452.48
1493.8
1533.9
1572.61
1609.69
1644.23
14656
4103.78
1612.02
1562.4
1506.93
1446.22
1380.72
1310.87
1237.18
1160.26
1080.98
1000.22
919.328
840.748
767.61
703.385
651.302
613.399
589.607
577.654
574.03
575.27
578.742
582.671
586.05
588.346
589.297
588.793
586.801
583.329
578.406
572.07
564.366
555.341
545.033
533.478
520.779
507.084
511.354
533.355
553.977
573.146
590.804
606.919
621.47
634.454
645.898
655.872
664.51
672.015
678.679
684.876
691.039
697.611
704.965
713.309
722.603
732.529
742.526
751.884
759.862
765.785
769.113
769.459
766.59
760.409
750.924
738.222
722.448
703.782
682.428
658.602
632.526
630.182
660.937
699.374
737.79
776.197
814.614
853.065
891.575
930.169
968.869
1007.69
1046.65
1085.74
1124.97
1164.31
1203.74
1243.23
1282.72
1322.15
1361.43
1400.48
1439.14
1477.25
1514.41
1550.39
1585.09
1617.88
9431.41
9164.44
1608.64
1562.73
1511.85
1456.12
1395.7
1330.81
1261.76
1189
1113.2
1035.18
955.987
877.787
803.619
737.044
681.651
640.092
613.004
598.584
593.367
593.632
596.426
599.725
602.379
603.805
603.74
602.097
598.87
594.097
587.832
580.138
571.081
560.726
549.127
536.331
522.447
507.63
511.981
535.246
557.209
577.805
596.96
614.622
630.745
645.299
658.282
669.741
679.793
688.635
696.559
703.947
711.233
718.821
727.078
736.215