/*--------------------------------*- C++ -*----------------------------------*\
  =========                 |
  \\      /  F ield         | OpenFOAM: The Open Source CFD Toolbox
   \\    /   O peration     | Website:  https://openfoam.org
    \\  /    A nd           | Version:  8
     \\/     M anipulation  |
\*---------------------------------------------------------------------------*/
FoamFile
{
    version     2.0;
    format      ascii;
    class       volScalarField;
    location    "320/fluid";
    object      rho;
}
// * * * * * * * * * * * * * * * * * * * * * * * * * * * * * * * * * * * * * //

dimensions      [1 -3 0 0 0 0 0];

internalField   nonuniform List<scalar> 
4000
(
0.658527
0.658503
0.658463
0.658397
0.658287
0.658104
0.657804
0.657316
0.656531
0.655284
0.653332
0.650338
0.645846
0.639296
0.630059
0.617544
0.601344
0.581411
0.558159
0.532439
0.50537
0.478102
0.451596
0.426536
0.403314
0.382086
0.362835
0.345443
0.329743
0.315551
0.302687
0.290985
0.280301
0.270511
0.261512
0.253216
0.245526
0.238354
0.231643
0.225348
0.219429
0.213851
0.208587
0.203612
0.198905
0.19445
0.190231
0.186236
0.182456
0.178884
0.175513
0.172339
0.169361
0.16658
0.163999
0.161625
0.159469
0.157547
0.155892
0.154551
0.153509
0.152861
0.152689
0.15312
0.16184
0.172203
0.184426
0.198808
0.215751
0.235786
0.259605
0.288114
0.322488
0.364238
0.415422
0.478541
0.555873
0.648534
0.75457
0.866586
0.971627
1.05633
1.1145
1.14912
1.16733
1.17626
1.18044
1.18234
1.18318
1.18355
1.18371
1.18377
1.1838
1.18381
1.18382
1.18382
1.18382
1.18382
1.18382
1.18382
0.658527
0.658503
0.658462
0.658395
0.658282
0.658096
0.65779
0.657291
0.656489
0.655214
0.653225
0.650178
0.645623
0.639004
0.629706
0.617153
0.600958
0.58108
0.557928
0.532332
0.505383
0.478205
0.451766
0.426753
0.403556
0.382328
0.363059
0.345637
0.329902
0.315673
0.302773
0.29104
0.28033
0.270516
0.261494
0.253177
0.245468
0.238279
0.231553
0.225244
0.219313
0.213725
0.208452
0.203469
0.198755
0.194294
0.19007
0.186072
0.182289
0.178715
0.175343
0.172169
0.169193
0.166415
0.163839
0.161473
0.159329
0.157427
0.15581
0.154514
0.153549
0.153026
0.153058
0.153815
0.162828
0.173499
0.18607
0.200869
0.21833
0.239024
0.263696
0.293322
0.329168
0.372869
0.426653
0.493094
0.574333
0.670939
0.779715
0.891579
0.992723
1.0711
1.12316
1.15347
1.16933
1.17712
1.1808
1.18249
1.18324
1.18357
1.18372
1.18378
1.1838
1.18381
1.18382
1.18382
1.18382
1.18382
1.18382
1.18382
0.658526
0.658502
0.658461
0.658392
0.658277
0.658086
0.657773
0.657263
0.656443
0.655143
0.653117
0.650021
0.645405
0.638715
0.629346
0.616732
0.600502
0.580626
0.557519
0.532005
0.50516
0.478092
0.451743
0.426786
0.40362
0.382404
0.363135
0.345705
0.329955
0.315707
0.302785
0.291027
0.28029
0.270449
0.261402
0.253063
0.245332
0.238122
0.231377
0.225051
0.219104
0.213502
0.208216
0.203221
0.198498
0.194028
0.189796
0.185792
0.182005
0.178427
0.175053
0.17188
0.168905
0.166131
0.16356
0.161203
0.159072
0.157188
0.15561
0.154362
0.15347
0.153076
0.153347
0.1553
0.164676
0.175768
0.188843
0.204256
0.222478
0.244123
0.269996
0.301143
0.338915
0.385059
0.441916
0.511951
0.596918
0.696519
0.806181
0.915626
1.01131
1.08323
1.12997
1.15689
1.17093
1.17784
1.18111
1.18262
1.1833
1.18359
1.18372
1.18378
1.1838
1.18381
1.18382
1.18382
1.18382
1.18382
1.18382
1.18382
0.658526
0.658502
0.65846
0.65839
0.658273
0.658079
0.657761
0.657244
0.656413
0.655097
0.653049
0.649925
0.645273
0.638542
0.629129
0.616476
0.600217
0.580331
0.557234
0.531748
0.504944
0.47792
0.451612
0.42669
0.403547
0.382344
0.363077
0.34564
0.329878
0.315615
0.302675
0.290899
0.280142
0.270283
0.261217
0.25286
0.245111
0.237883
0.231121
0.224779
0.218816
0.2132
0.207901
0.202895
0.198161
0.193681
0.189443
0.185432
0.18164
0.17806
0.174685
0.171512
0.16854
0.16577
0.163206
0.160856
0.158734
0.156858
0.155288
0.154041
0.153135
0.152686
0.152813
0.157469
0.167172
0.178702
0.192334
0.208446
0.227537
0.250265
0.27749
0.310325
0.350196
0.398979
0.45908
0.532785
0.621406
0.723712
0.83377
0.940279
1.03021
1.09562
1.13705
1.16053
1.17267
1.17864
1.18147
1.18277
1.18336
1.18362
1.18374
1.18379
1.18381
1.18382
1.18382
1.18382
1.18382
1.18382
1.18382
1.18382
0.658526
0.658501
0.658459
0.658388
0.658269
0.658073
0.657751
0.657228
0.656388
0.655058
0.652989
0.649837
0.645148
0.638372
0.628909
0.616205
0.599901
0.579984
0.556874
0.531393
0.504608
0.477611
0.451333
0.426438
0.403316
0.382128
0.362869
0.345436
0.329672
0.315403
0.302456
0.290669
0.279902
0.27003
0.260952
0.252581
0.244819
0.237576
0.230801
0.224445
0.21847
0.212841
0.207531
0.202514
0.197771
0.193283
0.189038
0.185022
0.181227
0.177646
0.174272
0.171102
0.168136
0.165375
0.162823
0.160489
0.158387
0.156536
0.155001
0.153778
0.15289
0.152454
0.152594
0.159789
0.169866
0.181888
0.196137
0.213008
0.233032
0.25691
0.285556
0.320149
0.362189
0.413681
0.477029
0.554287
0.646229
0.750598
0.860171
0.962983
1.04695
1.10625
1.14301
1.16356
1.17413
1.17931
1.18177
1.1829
1.18342
1.18365
1.18375
1.18379
1.18381
1.18382
1.18382
1.18382
1.18382
1.18382
1.18382
1.18382
0.658526
0.658501
0.658458
0.658386
0.658267
0.658069
0.657744
0.657215
0.656368
0.655027
0.652942
0.649768
0.645049
0.638236
0.628727
0.615973
0.59962
0.579659
0.556515
0.531015
0.504224
0.477233
0.450967
0.426087
0.40298
0.381805
0.362556
0.34513
0.32937
0.315102
0.302153
0.290362
0.279589
0.269711
0.260626
0.252247
0.244474
0.237221
0.230435
0.224069
0.218083
0.212445
0.207126
0.202101
0.19735
0.192857
0.188606
0.184588
0.180792
0.177211
0.17384
0.170677
0.167721
0.164974
0.162442
0.160135
0.158069
0.156266
0.154796
0.153619
0.152832
0.152509
0.152755
0.16169
0.172366
0.185015
0.199965
0.217651
0.238648
0.263704
0.29379
0.33015
0.374367
0.42856
0.495076
0.5757
0.67061
0.77651
0.885013
0.983805
1.06198
1.11567
1.14827
1.16624
1.17542
1.17991
1.18204
1.18302
1.18347
1.18367
1.18376
1.18379
1.18381
1.18382
1.18382
1.18382
1.18382
1.18382
1.18382
1.18382
0.658526
0.6585
0.658457
0.658385
0.658264
0.658065
0.657737
0.657205
0.65635
0.654999
0.6529
0.649704
0.644957
0.638105
0.62855
0.615743
0.599333
0.579319
0.556131
0.530599
0.503791
0.476795
0.450533
0.425664
0.40257
0.381408
0.362171
0.344755
0.329002
0.314739
0.301792
0.290002
0.279228
0.269347
0.260258
0.251875
0.244096
0.236836
0.230042
0.223668
0.217676
0.21203
0.206704
0.201673
0.196917
0.19242
0.188167
0.184148
0.180353
0.176775
0.17341
0.170255
0.167311
0.164581
0.162071
0.159796
0.157773
0.156048
0.15467
0.153635
0.153085
0.153174
0.154192
0.163681
0.174915
0.188169
0.203802
0.222287
0.244237
0.270448
0.301947
0.340038
0.386393
0.443217
0.512756
0.596493
0.693961
0.80083
0.90772
1.00228
1.07495
1.12362
1.15265
1.16846
1.17649
1.18041
1.18227
1.18313
1.18351
1.18369
1.18376
1.1838
1.18381
1.18382
1.18382
1.18382
1.18382
1.18382
1.18382
1.18382
0.658526
0.6585
0.658457
0.658384
0.658262
0.658061
0.657731
0.657195
0.656335
0.654975
0.652862
0.649647
0.644872
0.637984
0.628382
0.61552
0.599051
0.578977
0.555735
0.530162
0.503327
0.476319
0.450056
0.425193
0.402111
0.380963
0.361739
0.344335
0.328592
0.314337
0.301396
0.28961
0.278838
0.268958
0.259869
0.251485
0.243702
0.236437
0.229639
0.22326
0.217262
0.211612
0.206282
0.201247
0.196488
0.191989
0.187736
0.183717
0.179924
0.176351
0.172992
0.169846
0.166913
0.164198
0.161707
0.159454
0.157458
0.155775
0.154441
0.153454
0.152957
0.153094
0.15616
0.165983
0.177632
0.191389
0.207629
0.22685
0.249696
0.277005
0.309852
0.349598
0.398012
0.457346
0.529707
0.616258
0.715863
0.823209
0.928116
1.01845
1.08605
1.13033
1.15631
1.17031
1.17739
1.18083
1.18246
1.18321
1.18355
1.1837
1.18377
1.1838
1.18381
1.18382
1.18382
1.18382
1.18382
1.18382
1.18382
1.18382
0.658526
0.6585
0.658456
0.658383
0.658261
0.658058
0.657726
0.657186
0.656321
0.654953
0.652827
0.649593
0.644792
0.637867
0.628219
0.6153
0.598768
0.578631
0.555332
0.529713
0.502846
0.475821
0.449554
0.424697
0.401626
0.380491
0.361282
0.343891
0.328161
0.313916
0.300984
0.289204
0.278437
0.26856
0.259474
0.251091
0.243306
0.236039
0.229238
0.222857
0.216856
0.211204
0.205871
0.200835
0.196075
0.191576
0.187324
0.183308
0.179519
0.175951
0.172599
0.169463
0.166541
0.163839
0.161362
0.159125
0.157146
0.155479
0.154157
0.153171
0.15265
0.152711
0.158229
0.168317
0.18032
0.194523
0.211317
0.231218
0.254901
0.283241
0.317359
0.358666
0.409029
0.470712
0.545668
0.634718
0.736056
0.843461
0.946149
1.0324
1.09542
1.1359
1.15933
1.17183
1.17812
1.18117
1.18261
1.18328
1.18358
1.18372
1.18378
1.1838
1.18381
1.18382
1.18382
1.18382
1.18382
1.18382
1.18382
1.18382
0.658526
0.6585
0.658456
0.658382
0.658259
0.658055
0.657721
0.657178
0.656308
0.654931
0.652794
0.649542
0.644715
0.637755
0.62806
0.615086
0.598491
0.578288
0.55493
0.529261
0.502361
0.475317
0.449045
0.424192
0.401132
0.380011
0.360818
0.343442
0.327726
0.313493
0.300571
0.288799
0.278038
0.268167
0.259084
0.250705
0.24292
0.235653
0.228851
0.222469
0.216468
0.210814
0.205481
0.200445
0.195686
0.191189
0.186939
0.182927
0.179144
0.175584
0.172241
0.169116
0.166208
0.16352
0.161061
0.158843
0.156887
0.155249
0.153947
0.152981
0.152482
0.15259
0.160034
0.170411
0.182769
0.197406
0.214727
0.23527
0.259739
0.289044
0.324348
0.367116
0.419299
0.483147
0.560453
0.651686
0.754388
0.861528
0.961898
1.04432
1.10329
1.14052
1.16181
1.17308
1.17872
1.18145
1.18274
1.18334
1.18361
1.18373
1.18378
1.1838
1.18381
1.18382
1.18382
1.18382
1.18382
1.18382
1.18382
1.18382
0.658526
0.6585
0.658455
0.658381
0.658258
0.658053
0.657717
0.657171
0.656295
0.654912
0.652763
0.649493
0.644641
0.637647
0.627908
0.614878
0.598221
0.577954
0.554536
0.528819
0.501884
0.47482
0.448542
0.423694
0.400645
0.379539
0.360362
0.343002
0.3273
0.31308
0.300169
0.288407
0.277653
0.267789
0.258712
0.250336
0.242553
0.235288
0.228487
0.222105
0.216104
0.210451
0.205119
0.200084
0.195328
0.190834
0.186589
0.182582
0.178806
0.175255
0.171924
0.168812
0.16592
0.163252
0.160817
0.158627
0.156698
0.155094
0.15382
0.15288
0.152392
0.152472
0.161411
0.172143
0.184889
0.199964
0.217795
0.238946
0.264149
0.29435
0.330752
0.374871
0.428732
0.494547
0.573953
0.667067
0.770812
0.877452
0.97551
1.05443
1.10985
1.14433
1.16385
1.17409
1.17921
1.18168
1.18285
1.18338
1.18363
1.18374
1.18379
1.18381
1.18382
1.18382
1.18382
1.18382
1.18382
1.18382
1.18382
1.18382
0.658526
0.658499
0.658455
0.65838
0.658256
0.65805
0.657713
0.657164
0.656284
0.654893
0.652733
0.649448
0.644572
0.637545
0.627763
0.614681
0.597963
0.577635
0.554159
0.528394
0.501426
0.474344
0.44806
0.423216
0.400178
0.379087
0.359926
0.342582
0.326895
0.312688
0.299789
0.288036
0.277291
0.267434
0.258363
0.249993
0.242213
0.234949
0.22815
0.22177
0.215771
0.21012
0.20479
0.199757
0.195004
0.190514
0.186274
0.182275
0.178507
0.174965
0.171647
0.16855
0.165677
0.163033
0.160627
0.158474
0.156596
0.155075
0.153852
0.153041
0.152735
0.153088
0.162457
0.173584
0.186724
0.202224
0.220536
0.24225
0.268128
0.299147
0.336547
0.3819
0.437283
0.504865
0.586121
0.680831
0.785349
0.891336
0.98717
1.06294
1.11529
1.14746
1.16551
1.17492
1.17961
1.18187
1.18293
1.18342
1.18365
1.18374
1.18379
1.18381
1.18382
1.18382
1.18382
1.18382
1.18382
1.18382
1.18382
1.18382
0.658526
0.658499
0.658455
0.65838
0.658255
0.658048
0.657709
0.657158
0.656273
0.654876
0.652706
0.649405
0.644507
0.63745
0.627628
0.614496
0.597723
0.577336
0.553806
0.527997
0.500997
0.473898
0.447609
0.42277
0.399743
0.378666
0.35952
0.342192
0.326519
0.312326
0.299438
0.287696
0.276959
0.267109
0.258045
0.24968
0.241904
0.234643
0.227846
0.221469
0.215472
0.209823
0.204496
0.199467
0.194717
0.190232
0.185998
0.182005
0.178245
0.174714
0.171408
0.168326
0.165472
0.16285
0.160473
0.158357
0.156539
0.155084
0.153956
0.153286
0.153195
0.153895
0.163539
0.174957
0.188417
0.204277
0.223007
0.245217
0.271693
0.303441
0.341733
0.388193
0.444938
0.514079
0.596944
0.692989
0.798056
0.903305
0.997065
1.07005
1.11979
1.15003
1.16686
1.1756
1.17993
1.18202
1.183
1.18345
1.18366
1.18375
1.18379
1.18381
1.18382
1.18382
1.18382
1.18382
1.18382
1.18382
1.18382
1.18382
0.658526
0.658499
0.658454
0.658379
0.658254
0.658046
0.657705
0.657152
0.656264
0.654861
0.652681
0.649367
0.644449
0.637364
0.627505
0.614328
0.597503
0.577063
0.553483
0.527634
0.500606
0.473491
0.447199
0.422364
0.399347
0.378284
0.359153
0.341839
0.32618
0.311999
0.299122
0.28739
0.276662
0.266819
0.257762
0.249402
0.241629
0.234372
0.227579
0.221204
0.215209
0.209564
0.204239
0.199214
0.194468
0.189988
0.185759
0.181773
0.178021
0.174499
0.171203
0.168134
0.165294
0.16269
0.160334
0.158243
0.15646
0.155039
0.153954
0.15334
0.153324
0.154763
0.164614
0.176259
0.189977
0.206136
0.225221
0.247858
0.274852
0.307237
0.34631
0.393741
0.451675
0.522172
0.606414
0.703563
0.809003
0.913489
1.00537
1.07594
1.12347
1.15211
1.16796
1.17614
1.18019
1.18214
1.18306
1.18348
1.18367
1.18376
1.18379
1.18381
1.18382
1.18382
1.18382
1.18382
1.18382
1.18382
1.18382
1.18382
0.658526
0.658499
0.658454
0.658379
0.658253
0.658044
0.657702
0.657147
0.656256
0.654847
0.65266
0.649333
0.644397
0.637287
0.627395
0.614179
0.597308
0.576821
0.553198
0.527313
0.50026
0.473132
0.446836
0.422006
0.398998
0.377947
0.358829
0.341529
0.325883
0.311714
0.298847
0.287123
0.276403
0.266568
0.257517
0.249162
0.241393
0.234139
0.227349
0.220977
0.214986
0.209343
0.204022
0.199
0.194258
0.189782
0.185558
0.181578
0.177833
0.174318
0.171031
0.167971
0.165142
0.162548
0.160202
0.15812
0.156344
0.154924
0.153827
0.153178
0.153082
0.155638
0.165638
0.177457
0.19138
0.207786
0.227167
0.250164
0.2776
0.310528
0.350269
0.398535
0.457493
0.529143
0.614542
0.712586
0.818268
0.922015
1.01224
1.08076
1.12646
1.15379
1.16884
1.17658
1.1804
1.18224
1.1831
1.1835
1.18368
1.18376
1.18379
1.18381
1.18382
1.18382
1.18382
1.18382
1.18382
1.18382
1.18382
1.18382
0.658526
0.658499
0.658454
0.658378
0.658252
0.658043
0.6577
0.657142
0.656248
0.654835
0.652641
0.649304
0.644353
0.637222
0.627302
0.614051
0.597142
0.576614
0.552954
0.527038
0.499964
0.472825
0.446527
0.4217
0.398701
0.377661
0.358555
0.341267
0.325632
0.311472
0.298614
0.286899
0.276186
0.266357
0.257312
0.248962
0.241197
0.233946
0.227159
0.22079
0.214801
0.209161
0.203843
0.198824
0.194087
0.189614
0.185396
0.18142
0.177681
0.174173
0.170893
0.16784
0.165018
0.162433
0.160094
0.158017
0.156243
0.154821
0.153714
0.153042
0.152905
0.156423
0.166541
0.1785
0.192591
0.209197
0.228822
0.252116
0.279918
0.313298
0.353597
0.402564
0.462377
0.534984
0.621331
0.720085
0.825913
0.928988
1.0178
1.08462
1.12884
1.15513
1.16953
1.17692
1.18057
1.18232
1.18314
1.18352
1.18369
1.18376
1.1838
1.18381
1.18382
1.18382
1.18382
1.18382
1.18382
1.18382
1.18382
1.18382
0.658526
0.658499
0.658454
0.658378
0.658251
0.658042
0.657698
0.657139
0.656243
0.654826
0.652626
0.64928
0.644317
0.637168
0.627226
0.613947
0.597006
0.576446
0.552755
0.526815
0.499724
0.472575
0.446275
0.421452
0.39846
0.377429
0.358333
0.341054
0.325429
0.311278
0.298427
0.286719
0.276012
0.266188
0.257148
0.248803
0.241041
0.233793
0.227009
0.220642
0.214656
0.209019
0.203704
0.198688
0.193954
0.189485
0.185271
0.1813
0.177566
0.174063
0.170789
0.167744
0.164929
0.16235
0.160018
0.157947
0.156176
0.154756
0.153647
0.152969
0.152821
0.15705
0.167274
0.179352
0.193579
0.210347
0.230168
0.253701
0.281797
0.315539
0.356286
0.405817
0.466315
0.539686
0.62678
0.726077
0.831985
0.934486
1.02215
1.08763
1.13068
1.15616
1.17007
1.17719
1.18069
1.18238
1.18316
1.18353
1.18369
1.18376
1.1838
1.18381
1.18382
1.18382
1.18382
1.18382
1.18382
1.18382
1.18382
1.18382
0.658526
0.658499
0.658453
0.658377
0.658251
0.658041
0.657696
0.657136
0.656238
0.654819
0.652614
0.649262
0.644289
0.637128
0.627168
0.613868
0.596903
0.576318
0.552604
0.526645
0.499542
0.472387
0.446085
0.421265
0.398278
0.377254
0.358165
0.340894
0.325276
0.311131
0.298287
0.286584
0.275882
0.266063
0.257027
0.248685
0.240926
0.233681
0.226899
0.220534
0.214551
0.208916
0.203603
0.19859
0.193859
0.189393
0.185182
0.181216
0.177486
0.173989
0.170721
0.167681
0.164872
0.162299
0.159972
0.157906
0.15614
0.154723
0.153613
0.152931
0.15277
0.157519
0.16783
0.180002
0.194336
0.211228
0.231197
0.25491
0.283228
0.317243
0.358327
0.408282
0.469295
0.543236
0.630884
0.730575
0.836521
0.938569
1.02537
1.08984
1.13204
1.15691
1.17046
1.17738
1.18079
1.18242
1.18318
1.18354
1.1837
1.18377
1.1838
1.18381
1.18382
1.18382
1.18382
1.18382
1.18382
1.18382
1.18382
1.18382
0.658526
0.658499
0.658453
0.658377
0.65825
0.65804
0.657695
0.657134
0.656235
0.654814
0.652607
0.64925
0.644271
0.637101
0.62713
0.613816
0.596835
0.576233
0.552504
0.526532
0.49942
0.47226
0.445958
0.421139
0.398157
0.377137
0.358053
0.340787
0.325174
0.311034
0.298194
0.286494
0.275796
0.26598
0.256947
0.248608
0.240851
0.233608
0.226828
0.220465
0.214483
0.20885
0.203539
0.198528
0.193799
0.189337
0.185129
0.181165
0.17744
0.173946
0.170682
0.167647
0.164843
0.162275
0.159953
0.157892
0.15613
0.154715
0.153604
0.152915
0.15274
0.15783
0.168208
0.180448
0.194856
0.211834
0.231903
0.255737
0.284203
0.3184
0.359711
0.409948
0.471303
0.545624
0.633637
0.73358
0.839538
0.94127
1.02748
1.09129
1.13292
1.1574
1.17072
1.17751
1.18085
1.18245
1.1832
1.18354
1.1837
1.18377
1.1838
1.18381
1.18382
1.18382
1.18382
1.18382
1.18382
1.18382
1.18382
1.18382
0.658526
0.658499
0.658453
0.658377
0.65825
0.65804
0.657694
0.657134
0.656234
0.654812
0.652603
0.649245
0.644263
0.637088
0.627112
0.61379
0.596802
0.576192
0.552456
0.526478
0.499362
0.4722
0.445896
0.421079
0.398097
0.37708
0.357999
0.340735
0.325124
0.310986
0.298148
0.28645
0.275753
0.265939
0.256908
0.248571
0.240815
0.233574
0.226794
0.220433
0.214452
0.20882
0.20351
0.1985
0.193772
0.189311
0.185105
0.181144
0.17742
0.173929
0.170668
0.167636
0.164835
0.162271
0.159953
0.157895
0.156136
0.154722
0.153611
0.152916
0.152726
0.157985
0.168404
0.180682
0.195129
0.21215
0.232268
0.256162
0.2847
0.318987
0.360406
0.410781
0.4723
0.546802
0.634985
0.735041
0.840994
0.942563
1.02849
1.09198
1.13334
1.15764
1.17084
1.17757
1.18088
1.18246
1.1832
1.18355
1.1837
1.18377
1.1838
1.18381
1.18382
1.18382
1.18382
1.18382
1.18382
1.18382
1.18382
1.18382
0.658526
0.658499
0.658453
0.658377
0.65825
0.65804
0.657694
0.657134
0.656234
0.654812
0.652603
0.649244
0.644262
0.637088
0.627111
0.61379
0.596801
0.576191
0.552455
0.526477
0.49936
0.472198
0.445895
0.421078
0.398096
0.377079
0.357998
0.340734
0.325123
0.310985
0.298147
0.286449
0.275753
0.265939
0.256908
0.24857
0.240815
0.233573
0.226794
0.220432
0.214451
0.208819
0.20351
0.1985
0.193772
0.189311
0.185105
0.181144
0.17742
0.173929
0.170668
0.167636
0.164835
0.162271
0.159953
0.157895
0.156136
0.154722
0.153611
0.152916
0.152726
0.157986
0.168405
0.180683
0.19513
0.212151
0.23227
0.256164
0.284702
0.318989
0.360409
0.410784
0.472304
0.546806
0.634991
0.735048
0.841
0.942569
1.02849
1.09198
1.13334
1.15764
1.17084
1.17757
1.18088
1.18246
1.1832
1.18355
1.1837
1.18377
1.1838
1.18381
1.18382
1.18382
1.18382
1.18382
1.18382
1.18382
1.18382
1.18382
0.658526
0.658499
0.658453
0.658377
0.65825
0.65804
0.657695
0.657134
0.656235
0.654814
0.652606
0.64925
0.64427
0.6371
0.627128
0.613813
0.596832
0.57623
0.5525
0.526528
0.499416
0.472257
0.445954
0.421136
0.398153
0.377134
0.358051
0.340785
0.325171
0.311032
0.298192
0.286492
0.275794
0.265978
0.256946
0.248607
0.24085
0.233607
0.226827
0.220464
0.214482
0.208849
0.203538
0.198528
0.193798
0.189336
0.185128
0.181165
0.177439
0.173946
0.170681
0.167646
0.164842
0.162274
0.159953
0.157892
0.156129
0.154714
0.153604
0.152915
0.15274
0.157833
0.168211
0.180451
0.19486
0.211838
0.231907
0.255743
0.284209
0.318407
0.359719
0.409958
0.471316
0.545639
0.633655
0.733599
0.839558
0.941288
1.02749
1.0913
1.13293
1.15741
1.17072
1.17751
1.18085
1.18245
1.1832
1.18354
1.1837
1.18377
1.1838
1.18381
1.18382
1.18382
1.18382
1.18382
1.18382
1.18382
1.18382
1.18382
0.658526
0.658499
0.658453
0.658377
0.658251
0.658041
0.657696
0.657136
0.656238
0.654818
0.652614
0.649261
0.644288
0.637126
0.627166
0.613865
0.596899
0.576313
0.552598
0.526639
0.499535
0.47238
0.446078
0.421259
0.398273
0.377249
0.358161
0.34089
0.325272
0.311128
0.298284
0.286581
0.275879
0.26606
0.257025
0.248683
0.240924
0.233679
0.226897
0.220533
0.214549
0.208914
0.203601
0.198588
0.193857
0.189392
0.185181
0.181214
0.177485
0.173988
0.170719
0.16768
0.164871
0.162298
0.159971
0.157905
0.156139
0.154722
0.153613
0.15293
0.15277
0.157523
0.167834
0.180007
0.194341
0.211235
0.231204
0.254919
0.283238
0.317255
0.358342
0.408299
0.469316
0.543262
0.630914
0.730608
0.836555
0.9386
1.02539
1.08986
1.13205
1.15691
1.17046
1.17738
1.18079
1.18242
1.18318
1.18354
1.1837
1.18377
1.1838
1.18381
1.18382
1.18382
1.18382
1.18382
1.18382
1.18382
1.18382
1.18382
0.658526
0.658499
0.658454
0.658378
0.658251
0.658042
0.657698
0.657139
0.656242
0.654825
0.652625
0.649279
0.644315
0.637166
0.627222
0.613942
0.597
0.576439
0.552747
0.526806
0.499714
0.472566
0.446266
0.421444
0.398453
0.377422
0.358327
0.341049
0.325423
0.311273
0.298423
0.286715
0.276008
0.266185
0.257145
0.2488
0.241038
0.233791
0.227006
0.22064
0.214654
0.209017
0.203701
0.198686
0.193952
0.189483
0.185269
0.181298
0.177564
0.174062
0.170788
0.167742
0.164927
0.162349
0.160016
0.157946
0.156175
0.154755
0.153646
0.152969
0.15282
0.157055
0.16728
0.179359
0.193587
0.210356
0.230178
0.253713
0.281811
0.315556
0.356306
0.405841
0.466345
0.539721
0.626821
0.726123
0.832033
0.934529
1.02218
1.08765
1.1307
1.15616
1.17007
1.17719
1.18069
1.18238
1.18316
1.18353
1.18369
1.18376
1.1838
1.18381
1.18382
1.18382
1.18382
1.18382
1.18382
1.18382
1.18382
1.18382
0.658526
0.658499
0.658454
0.658378
0.658252
0.658043
0.6577
0.657142
0.656248
0.654835
0.65264
0.649302
0.644351
0.637218
0.627297
0.614045
0.597134
0.576605
0.552943
0.527027
0.499952
0.472813
0.446515
0.42169
0.398691
0.377652
0.358547
0.341259
0.325625
0.311466
0.298609
0.286894
0.276181
0.266352
0.257308
0.248958
0.241193
0.233943
0.227155
0.220786
0.214798
0.209158
0.20384
0.198822
0.194084
0.189612
0.185393
0.181418
0.177679
0.174171
0.170891
0.167838
0.165017
0.162431
0.160092
0.158016
0.156242
0.15482
0.153713
0.153041
0.152903
0.156429
0.166548
0.178509
0.192601
0.209209
0.228836
0.252132
0.279937
0.313319
0.353623
0.402596
0.462415
0.53503
0.621385
0.720144
0.825974
0.929043
1.01784
1.08465
1.12886
1.15514
1.16954
1.17692
1.18057
1.18232
1.18314
1.18352
1.18369
1.18376
1.1838
1.18381
1.18382
1.18382
1.18382
1.18382
1.18382
1.18382
1.18382
1.18382
0.658526
0.658499
0.658454
0.658378
0.658253
0.658044
0.657702
0.657146
0.656255
0.654846
0.652658
0.649331
0.644394
0.637283
0.62739
0.614171
0.597299
0.57681
0.553185
0.527299
0.500245
0.473117
0.446822
0.421993
0.398986
0.377936
0.358819
0.34152
0.325875
0.311706
0.29884
0.287117
0.276397
0.266562
0.257512
0.249157
0.241389
0.234135
0.227345
0.220973
0.214982
0.209339
0.204018
0.198996
0.194255
0.189779
0.185555
0.181575
0.17783
0.174315
0.171028
0.167969
0.165139
0.162546
0.1602
0.158118
0.156342
0.154923
0.153825
0.153176
0.153079
0.155647
0.165647
0.177468
0.191393
0.2078
0.227184
0.250183
0.277623
0.310554
0.350301
0.398573
0.457539
0.529198
0.614607
0.712658
0.818343
0.922083
1.01229
1.0808
1.12648
1.15381
1.16884
1.17658
1.1804
1.18224
1.1831
1.1835
1.18368
1.18376
1.18379
1.18381
1.18382
1.18382
1.18382
1.18382
1.18382
1.18382
1.18382
1.18382
0.658526
0.658499
0.658454
0.658379
0.658254
0.658046
0.657705
0.657151
0.656263
0.65486
0.65268
0.649365
0.644446
0.637359
0.627498
0.614319
0.597492
0.57705
0.553468
0.527618
0.500589
0.473474
0.447183
0.422349
0.399333
0.378271
0.359141
0.341828
0.326171
0.31199
0.299114
0.287382
0.276655
0.266812
0.257756
0.249396
0.241624
0.234367
0.227573
0.221199
0.215205
0.209559
0.204235
0.19921
0.194464
0.189984
0.185755
0.181769
0.178018
0.174496
0.1712
0.168131
0.165292
0.162688
0.160332
0.15824
0.156458
0.155037
0.153952
0.153338
0.153323
0.154775
0.164626
0.176272
0.189991
0.206153
0.225241
0.24788
0.274879
0.307268
0.346347
0.393785
0.451729
0.522236
0.60649
0.703648
0.809091
0.91357
1.00543
1.07599
1.1235
1.15213
1.16796
1.17614
1.18019
1.18214
1.18306
1.18348
1.18367
1.18376
1.18379
1.18381
1.18382
1.18382
1.18382
1.18382
1.18382
1.18382
1.18382
1.18382
0.658526
0.658499
0.658455
0.65838
0.658255
0.658048
0.657709
0.657157
0.656273
0.654875
0.652704
0.649403
0.644504
0.637445
0.62762
0.614486
0.59771
0.577321
0.553788
0.527978
0.500978
0.473878
0.447591
0.422752
0.399726
0.378651
0.359506
0.342179
0.326508
0.312315
0.299428
0.287686
0.276951
0.267101
0.258038
0.249673
0.241897
0.234637
0.22784
0.221463
0.215466
0.209818
0.204491
0.199462
0.194713
0.190227
0.185993
0.182001
0.178241
0.17471
0.171404
0.168323
0.165469
0.162848
0.160471
0.158355
0.156537
0.155083
0.153955
0.153287
0.1532
0.153905
0.16355
0.17497
0.188432
0.204295
0.223028
0.245241
0.271721
0.303475
0.341774
0.388242
0.444997
0.514151
0.597029
0.693086
0.798157
0.903399
0.997141
1.0701
1.11982
1.15005
1.16687
1.1756
1.17993
1.18202
1.183
1.18345
1.18366
1.18375
1.18379
1.18381
1.18382
1.18382
1.18382
1.18382
1.18382
1.18382
1.18382
1.18382
0.658526
0.658499
0.658455
0.65838
0.658256
0.65805
0.657712
0.657164
0.656283
0.654892
0.652731
0.649445
0.644568
0.637539
0.627754
0.614669
0.597949
0.577618
0.554139
0.528373
0.501404
0.474322
0.448039
0.423196
0.40016
0.37907
0.35991
0.342567
0.326882
0.312676
0.299777
0.288026
0.277282
0.267425
0.258355
0.249985
0.242205
0.234942
0.228143
0.221763
0.215764
0.210114
0.204784
0.199752
0.194999
0.190509
0.186269
0.18227
0.178502
0.174961
0.171643
0.168546
0.165674
0.16303
0.160624
0.158471
0.156595
0.155074
0.153853
0.153043
0.152739
0.153094
0.162466
0.173594
0.186738
0.202241
0.220557
0.242275
0.268157
0.299183
0.336591
0.381953
0.437348
0.504944
0.586215
0.680939
0.785463
0.891443
0.987258
1.063
1.11533
1.14748
1.16552
1.17493
1.17961
1.18187
1.18293
1.18342
1.18365
1.18374
1.18379
1.18381
1.18382
1.18382
1.18382
1.18382
1.18382
1.18382
1.18382
1.18382
0.658526
0.6585
0.658455
0.658381
0.658257
0.658053
0.657716
0.65717
0.656295
0.65491
0.652761
0.64949
0.644637
0.63764
0.627898
0.614866
0.598205
0.577935
0.554514
0.528795
0.501859
0.474796
0.448519
0.423672
0.400624
0.37952
0.360344
0.342986
0.327285
0.313066
0.300156
0.288395
0.277642
0.267778
0.258702
0.250327
0.242545
0.235279
0.228479
0.222097
0.216097
0.210444
0.205112
0.200078
0.195322
0.190828
0.186583
0.182577
0.178801
0.17525
0.171919
0.168807
0.165915
0.163248
0.160813
0.158623
0.156695
0.155092
0.153819
0.15288
0.152393
0.152474
0.161418
0.172155
0.184905
0.199983
0.217818
0.238973
0.264182
0.294389
0.330799
0.374928
0.428802
0.494633
0.574056
0.667185
0.770938
0.877573
0.975611
1.0545
1.10989
1.14436
1.16386
1.1741
1.17921
1.18168
1.18285
1.18338
1.18363
1.18374
1.18379
1.18381
1.18382
1.18382
1.18382
1.18382
1.18382
1.18382
1.18382
1.18382
0.658526
0.6585
0.658456
0.658382
0.658259
0.658055
0.657721
0.657178
0.656307
0.65493
0.652792
0.649539
0.64471
0.637747
0.62805
0.615072
0.598473
0.578267
0.554906
0.529235
0.502334
0.47529
0.449018
0.424167
0.401109
0.37999
0.360798
0.343424
0.327709
0.313478
0.300556
0.288786
0.278026
0.268155
0.259074
0.250694
0.24291
0.235644
0.228842
0.22246
0.216459
0.210806
0.205473
0.200438
0.195679
0.191182
0.186933
0.182921
0.179138
0.175578
0.172236
0.169111
0.166203
0.163516
0.161057
0.158839
0.156884
0.155246
0.153945
0.152979
0.152481
0.152589
0.160048
0.170428
0.182789
0.197429
0.214753
0.2353
0.259774
0.289086
0.324398
0.367178
0.419375
0.483239
0.560564
0.651815
0.754528
0.861664
0.962013
1.04441
1.10334
1.14055
1.16183
1.17308
1.17872
1.18145
1.18274
1.18334
1.18361
1.18373
1.18378
1.1838
1.18381
1.18382
1.18382
1.18382
1.18382
1.18382
1.18382
1.18382
0.658526
0.6585
0.658456
0.658383
0.658261
0.658058
0.657726
0.657186
0.65632
0.654951
0.652825
0.649589
0.644786
0.637859
0.628208
0.615286
0.59875
0.578608
0.555306
0.529684
0.502817
0.475791
0.449525
0.42467
0.4016
0.380467
0.36126
0.343871
0.328143
0.313899
0.300968
0.28919
0.278423
0.268547
0.259462
0.251079
0.243295
0.236029
0.229228
0.222847
0.216847
0.211195
0.205862
0.200826
0.196067
0.191568
0.187317
0.183301
0.179512
0.175944
0.172593
0.169457
0.166536
0.163834
0.161358
0.159121
0.157142
0.155476
0.154154
0.153169
0.152649
0.152709
0.158243
0.168334
0.18034
0.194546
0.211343
0.231249
0.254938
0.283286
0.317412
0.358732
0.40911
0.470811
0.545788
0.634858
0.73621
0.843613
0.946281
1.0325
1.09548
1.13594
1.15935
1.17184
1.17812
1.18117
1.18261
1.18328
1.18358
1.18372
1.18378
1.1838
1.18381
1.18382
1.18382
1.18382
1.18382
1.18382
1.18382
1.18382
0.658526
0.6585
0.658457
0.658384
0.658262
0.658061
0.657731
0.657194
0.656334
0.654973
0.65286
0.649643
0.644866
0.637976
0.62837
0.615504
0.59903
0.578952
0.555707
0.530131
0.503295
0.476287
0.450025
0.425164
0.402083
0.380937
0.361715
0.344313
0.328572
0.314318
0.301379
0.289594
0.278823
0.268944
0.259856
0.251472
0.24369
0.236426
0.229628
0.223249
0.217252
0.211602
0.206272
0.201238
0.19648
0.191981
0.187728
0.18371
0.179917
0.176344
0.172985
0.16984
0.166908
0.164192
0.161702
0.159449
0.157454
0.155771
0.154437
0.15345
0.152952
0.153087
0.15618
0.166003
0.177654
0.191414
0.207658
0.226884
0.249736
0.277053
0.30991
0.349668
0.398097
0.457452
0.529835
0.616409
0.716031
0.823378
0.928266
1.01856
1.08612
1.13037
1.15633
1.17032
1.17739
1.18083
1.18246
1.18321
1.18355
1.1837
1.18377
1.1838
1.18381
1.18382
1.18382
1.18382
1.18382
1.18382
1.18382
1.18382
0.658526
0.6585
0.658457
0.658385
0.658264
0.658065
0.657737
0.657204
0.656349
0.654998
0.652897
0.6497
0.644951
0.638096
0.628537
0.615725
0.599311
0.579292
0.5561
0.530566
0.503756
0.47676
0.450499
0.425632
0.40254
0.38138
0.362145
0.344731
0.32898
0.314718
0.301773
0.289985
0.279211
0.269332
0.260244
0.251861
0.244083
0.236823
0.23003
0.223657
0.217664
0.212019
0.206694
0.201663
0.196908
0.192411
0.188159
0.184139
0.180345
0.176767
0.173402
0.170248
0.167304
0.164575
0.162066
0.159791
0.157768
0.156044
0.154666
0.153632
0.153085
0.15318
0.154209
0.163699
0.174936
0.188193
0.203831
0.222321
0.244278
0.270498
0.302007
0.340111
0.386483
0.443328
0.512891
0.596654
0.694143