/*--------------------------------*- C++ -*----------------------------------*\
  =========                 |
  \\      /  F ield         | OpenFOAM: The Open Source CFD Toolbox
   \\    /   O peration     | Website:  https://openfoam.org
    \\  /    A nd           | Version:  8
     \\/     M anipulation  |
\*---------------------------------------------------------------------------*/
FoamFile
{
    version     2.0;
    format      ascii;
    class       volScalarField;
    location    "320/fluid";
    object      T;
}
// * * * * * * * * * * * * * * * * * * * * * * * * * * * * * * * * * * * * * //

dimensions      [0 0 0 1 0 0 0];

internalField   nonuniform List<scalar> 
4000
(
293.003
293.015
293.035
293.068
293.122
293.213
293.361
293.603
293.993
294.616
295.594
297.109
299.411
302.834
307.798
314.795
324.347
336.946
352.972
372.63
395.92
422.654
452.522
485.147
520.146
557.17
595.928
636.195
677.795
720.598
764.501
809.421
855.278
901.983
949.436
997.527
1046.23
1095.57
1145.46
1195.81
1246.55
1297.56
1348.77
1400.08
1451.36
1502.53
1553.45
1604.01
1654.07
1703.5
1752.14
1799.81
1846.33
1891.49
1935.03
1976.65
2015.99
2052.6
2085.78
2114.47
2139.08
2157.83
2169.36
2171.66
2062.4
1945.3
1822.68
1696.45
1568.2
1439.3
1311
1184.48
1060.92
941.532
827.315
719.609
620.584
532.72
458.433
399.565
356.62
328.177
311.132
301.806
297.12
294.874
293.834
293.365
293.157
293.067
293.028
293.012
293.005
293.002
293.001
293
293
293
293
293
293.004
293.015
293.035
293.069
293.124
293.217
293.368
293.616
294.015
294.65
295.649
297.191
299.527
302.989
307.992
315.018
324.582
337.164
353.139
372.717
395.909
422.546
452.316
484.843
519.754
556.715
595.443
635.711
677.343
720.203
764.185
809.192
855.143
901.953
949.529
997.757
1046.61
1096.1
1146.15
1196.67
1247.57
1298.76
1350.13
1401.6
1453.05
1504.37
1555.45
1606.15
1656.35
1705.91
1754.66
1802.43
1849.04
1894.25
1937.82
1979.42
2018.67
2055.09
2087.74
2115.86
2139.44
2156.42
2165.05
2162.73
2050.72
1931.57
1807.34
1679.76
1550.33
1420.41
1291.21
1163.94
1039.82
920.12
805.856
698.633
600.843
515.085
443.758
388.435
349.085
323.673
308.747
300.672
296.615
294.659
293.746
293.329
293.143
293.062
293.026
293.011
293.005
293.002
293.001
293
293
293
293
293
293.004
293.016
293.036
293.07
293.127
293.221
293.376
293.629
294.037
294.686
295.703
297.27
299.64
303.141
308.189
315.26
324.86
337.463
353.435
372.981
396.113
422.664
452.344
484.795
519.649
556.57
595.276
635.54
677.189
720.089
764.134
809.239
855.318
902.282
950.03
998.447
1047.51
1097.22
1147.51
1198.27
1249.42
1300.87
1352.51
1404.24
1455.95
1507.53
1558.86
1609.8
1660.24
1710.01
1758.96
1806.91
1853.67
1899.01
1942.66
1984.29
2023.5
2059.78
2091.92
2119.39
2141.97
2157.15
2162.38
2143.46
2029.06
1907.9
1781.99
1653
1522.43
1391.64
1261.88
1134.4
1010.51
891.477
778.419
673.204
578.334
496.326
429.292
378.297
342.704
320.067
306.894
299.789
296.211
294.481
293.669
293.297
293.13
293.056
293.024
293.01
293.004
293.002
293.001
293
293
293
293
293
293.004
293.016
293.037
293.071
293.129
293.225
293.382
293.639
294.052
294.709
295.737
297.319
299.708
303.233
308.308
315.407
325.034
337.658
353.642
373.189
396.311
422.845
452.501
484.928
519.765
556.681
595.399
635.697
677.4
720.379
764.526
809.754
855.979
903.11
951.048
999.673
1048.97
1098.93
1149.48
1200.53
1251.98
1303.73
1355.68
1407.72
1459.75
1511.64
1563.27
1614.52
1665.23
1715.27
1764.46
1812.63
1859.57
1905.05
1948.81
1990.51
2029.77
2066.08
2098.21
2125.72
2148.52
2164.44
2171.64
2115.66
2000.38
1878.09
1751.02
1621.03
1489.71
1358.48
1228.67
1101.58
978.572
860.869
749.708
647.176
555.758
477.825
415.184
368.438
336.452
316.468
304.992
298.853
295.772
294.282
293.581
293.259
293.113
293.049
293.021
293.009
293.004
293.002
293.001
293
293
293
293
293
293.004
293.016
293.037
293.072
293.131
293.228
293.387
293.647
294.065
294.729
295.767
297.364
299.772
303.323
308.428
315.563
325.227
337.887
353.904
373.478
396.62
423.169
452.839
485.28
520.137
557.084
595.845
636.2
677.98
721.053
765.316
810.681
857.064
904.375
952.513
1001.36
1050.9
1101.13
1151.97
1203.31
1255.07
1307.14
1359.42
1411.8
1464.16
1516.39
1568.35
1619.91
1670.92
1721.22
1770.66
1819.03
1866.14
1911.73
1955.53
1997.21
2036.35
2072.45
2104.1
2131.34
2153.91
2169.65
2176.57
2086.74
1970.35
1846.76
1718.5
1587.6
1455.72
1324.34
1194.82
1068.5
946.76
830.742
721.861
622.34
534.604
460.84
402.525
359.802
331.099
313.441
303.411
298.078
295.408
294.116
293.507
293.226
293.099
293.043
293.018
293.008
293.003
293.001
293.001
293
293
293
293
293
293.004
293.016
293.037
293.073
293.132
293.23
293.391
293.653
294.075
294.744
295.791
297.399
299.824
303.396
308.528
315.696
325.399
338.102
354.164
373.785
396.973
423.567
453.283
485.773
520.682
557.689
596.52
636.958
678.834
722.02
766.414
811.929
858.481
905.981
954.327
1003.4
1053.19
1103.69
1154.81
1206.46
1258.53
1310.93
1363.54
1416.26
1468.96
1521.51
1573.79
1625.65
1676.95
1727.52
1777.17
1825.73
1872.95
1918.59
1962.34
2003.84
2042.65
2078.18
2108.95
2135.83
2156.94
2171.01
2176.24
2064.02
1943.45
1817.07
1686.98
1554.96
1422.55
1291.16
1162.13
1036.79
916.499
802.324
695.871
599.431
515.336
445.576
391.299
352.231
326.439
310.808
302.028
297.396
295.084
293.966
293.439
293.196
293.087
293.038
293.016
293.007
293.003
293.001
293
293
293
293
293
293
293.004
293.016
293.038
293.074
293.133
293.232
293.394
293.659
294.083
294.758
295.812
297.432
299.871
303.465
308.625
315.828
325.574
338.327
354.444
374.123
397.372
424.029
453.809
486.367
521.349
558.434
597.353
637.89
679.878
723.19
767.726
813.399
860.127
907.821
956.376
1005.68
1055.71
1106.48
1157.89
1209.83
1262.21
1314.92
1367.85
1420.89
1473.91
1526.78
1579.36
1631.51
1683.07
1733.88
1783.73
1832.43
1879.74
1925.39
1969.05
2010.3
2048.66
2083.13
2112.69
2137.63
2155.35
2163.51
2157.82
2040.64
1916.69
1788.05
1656.51
1523.67
1390.99
1259.81
1131.45
1007.23
888.448
776.167
672.161
578.743
498.14
432.141
381.572
345.776
322.523
308.62
300.886
296.834
294.817
293.843
293.383
293.172
293.076
293.033
293.014
293.006
293.003
293.001
293
293
293
293
293
293
293.004
293.017
293.038
293.074
293.134
293.234
293.397
293.663
294.091
294.77
295.831
297.461
299.915
303.529
308.717
315.957
325.748
338.554
354.733
374.479
397.8
424.532
454.391
487.03
522.097
559.274
598.292
638.937
681.045
724.49
769.172
815.007
861.912
909.798
958.559
1008.08
1058.36
1109.39
1161.06
1213.28
1265.95
1318.96
1372.19
1425.53
1478.85
1532.01
1584.87
1637.28
1689.08
1740.09
1790.12
1838.96
1886.35
1932.02
1975.62
2016.74
2054.86
2088.8
2117.76
2142.02
2158.97
2166.38
2132.33
2013.92
1888.83
1759.28
1627.14
1494.06
1361.48
1230.76
1103.22
980.211
862.93
752.514
650.895
560.358
483.022
420.474
373.237
340.316
319.243
306.798
299.937
296.366
294.594
293.739
293.336
293.151
293.066
293.029
293.012
293.005
293.002
293.001
293
293
293
293
293
293
293.004
293.017
293.038
293.075
293.135
293.235
293.4
293.668
294.098
294.781
295.849
297.489
299.957
303.591
308.807
316.083
325.921
338.784
355.028
374.847
398.246
425.06
455.004
487.732
522.892
560.167
599.289
640.047
682.277
725.856
770.686
816.68
863.759
911.83
960.79
1010.52
1061.03
1112.3
1164.23
1216.71
1269.65
1322.93
1376.44
1430.05
1483.64
1537.06
1590.17
1642.8
1694.81
1746
1796.17
1845.11
1892.57
1938.26
1981.84
2022.89
2060.91
2094.68
2123.51
2147.74
2164.98
2173.4
2106.01
1987.43
1861.98
1732.11
1599.8
1466.75
1334.47
1204.33
1077.69
955.886
840.046
731.424
632.065
544.211
469.874
410.447
366.166
335.742
316.525
305.299
299.16
295.984
294.411
293.654
293.298
293.133
293.059
293.026
293.011
293.005
293.002
293.001
293
293
293
293
293
293
293.004
293.017
293.039
293.075
293.136
293.237
293.402
293.672
294.105
294.792
295.866
297.515
299.997
303.651
308.895
316.207
326.092
339.011
355.322
375.216
398.696
425.596
455.629
488.448
523.703
561.077
600.305
641.176
683.528
727.238
772.209
818.358
865.601
913.849
962.995
1012.92
1063.65
1115.14
1167.3
1220.03
1273.21
1326.74
1380.5
1434.35
1488.17
1541.82
1595.14
1647.97
1700.14
1751.47
1801.75
1850.75
1898.23
1943.88
1987.38
2028.29
2066.06
2099.46
2128.03
2152.01
2168.94
2176.54
2083.65
1964.29
1838.19
1707.85
1575.31
1442.29
1310.3
1180.74
1054.95
934.279
819.781
712.838
615.569
530.169
458.544
401.896
360.206
331.929
314.28
304.069
298.524
295.671
294.262
293.585
293.266
293.119
293.053
293.023
293.01
293.004
293.002
293.001
293
293
293
293
293
293
293.004
293.017
293.039
293.075
293.137
293.238
293.404
293.675
294.111
294.802
295.881
297.539
300.035
303.708
308.979
316.327
326.258
339.234
355.611
375.58
399.14
426.125
456.246
489.156
524.505
561.977
601.307
642.287
684.755
728.591
773.697
819.99
867.388
915.8
965.119
1015.23
1066.15
1117.85
1170.22
1223.16
1276.57
1330.32
1384.29
1438.36
1492.38
1546.22
1599.72
1652.7
1705
1756.43
1806.76
1855.77
1903.2
1948.74
1992.04
2032.66
2070.14
2103.09
2131.33
2154.93
2171.67
2179.53
2067.09
1945.64
1818.13
1686.91
1553.92
1420.8
1289.02
1159.96
1034.94
915.288
802.013
696.612
601.241
518.052
448.846
394.65
355.209
328.765
312.432
303.062
298.005
295.416
294.141
293.528
293.24
293.108
293.048
293.021
293.009
293.004
293.002
293.001
293
293
293
293
293
293
293.004
293.017
293.039
293.076
293.137
293.239
293.407
293.679
294.117
294.811
295.896
297.563
300.071
303.763
309.058
316.441
326.416
339.447
355.888
375.929
399.567
426.634
456.84
489.837
525.276
562.841
602.268
643.351
685.928
729.881
775.111
821.538
869.077
917.639
967.113
1017.39
1068.49
1120.37
1172.93
1226.06
1279.66
1333.6
1387.76
1442.01
1496.21
1550.21
1603.85
1656.96
1709.36
1760.84
1811.19
1860.17
1907.5
1952.86
1995.87
2036.08
2072.89
2104.57
2132.35
2154.05
2168.09
2171.98
2054.87
1930.48
1801.15
1668.85
1535.3
1402.02
1270.41
1141.79
1017.47
898.724
786.553
682.544
588.885
507.668
440.599
388.542
351.037
326.147
310.914
302.239
297.582
295.209
294.042
293.482
293.219
293.098
293.043
293.019
293.008
293.003
293.001
293.001
293
293
293
293
293
293
293.004
293.017
293.039
293.076
293.138
293.24
293.408
293.682
294.122
294.82
295.91
297.584
300.105
303.813
309.133
316.548
326.564
339.646
356.148
376.256
399.968
427.112
457.397
490.476
525.998
563.649
603.166
644.343
687.02
731.078
776.422
822.969
870.635
919.33
968.943
1019.36
1070.62
1122.66
1175.39
1228.68
1282.45
1336.55
1390.88
1445.28
1499.63
1553.76
1607.52
1660.72
1713.19
1764.71
1815.06
1863.99
1911.21
1956.38
1999.11
2038.89
2074.86
2105.64
2132.1
2151.76
2162.69
2161.64
2042.23
1916.18
1785.73
1652.75
1518.88
1385.57
1254.17
1125.99
1002.32
884.388
773.196
670.44
578.303
498.83
433.631
383.425
347.573
323.99
309.671
301.568
297.239
295.04
293.961
293.445
293.202
293.091
293.04
293.017
293.008
293.003
293.001
293.001
293
293
293
293
293
293
293.004
293.017
293.039
293.077
293.139
293.241
293.41
293.685
294.126
294.827
295.922
297.604
300.135
303.859
309.201
316.645
326.7
339.829
356.385
376.555
400.334
427.548
457.906
491.058
526.656
564.385
603.982
645.243
688.009
732.162
777.605
824.258
872.036
920.847
970.581
1021.13
1072.52
1124.7
1177.56
1231.01
1284.91
1339.16
1393.62
1448.15
1502.62
1556.86
1610.71
1663.99
1716.51
1768.06
1818.4
1867.29
1914.42
1959.45
2001.96
2041.45
2076.93
2107.23
2133.08
2151.93
2161.77
2150.38
2029.7
1902.75
1771.72
1638.42
1504.45
1371.24
1240.12
1112.38
989.32
872.119
761.819
660.17
569.358
491.39
427.801
379.175
344.718
322.225
308.66
301.025
296.961
294.904
293.897
293.414
293.188
293.084
293.037
293.016
293.007
293.003
293.001
293.001
293
293
293
293
293
293
293.004
293.017
293.039
293.077
293.139
293.242
293.412
293.687
294.131
294.834
295.933
297.621
300.162
303.9
309.261
316.732
326.82
339.99
356.596
376.821
400.659
427.935
458.356
491.574
527.238
565.034
604.702
646.036
688.88
733.113
778.643
825.386
873.26
922.171
972.007
1022.66
1074.17
1126.46
1179.45
1233.01
1287.03
1341.39
1395.96
1450.6
1505.16
1559.49
1613.41
1666.75
1719.31
1770.88
1821.23
1870.09
1917.18
1962.14
2004.57
2043.98
2079.39
2109.68
2135.68
2155
2165.94
2139.02
2017.81
1890.51
1759.26
1625.88
1491.97
1358.95
1228.14
1100.84
978.343
861.796
752.263
651.573
561.901
485.221
422.992
375.689
342.391
320.796
307.846
300.588
296.739
294.796
293.845
293.39
293.177
293.079
293.035
293.015
293.007
293.003
293.001
293.001
293
293
293
293
293
293
293.004
293.017
293.04
293.077
293.139
293.243
293.413
293.689
294.134
294.84
295.943
297.636
300.185
303.935
309.312
316.806
326.923
340.129
356.776
377.048
400.936
428.266
458.741
492.014
527.734
565.588
605.315
646.71
689.618
733.92
779.521
826.34
874.293
923.285
973.205
1023.95
1075.54
1127.94
1181.01
1234.67
1288.79
1343.24
1397.9
1452.62
1507.26
1561.65
1615.63
1669.02
1721.6
1773.19
1823.53
1872.37
1919.42
1964.34
2006.71
2046.06
2081.47
2111.79
2137.94
2157.57
2169.06
2128.88
2007.41
1879.94
1748.63
1615.3
1481.52
1348.71
1218.22
1091.32
969.309
853.309
744.423
644.538
555.82
480.209
419.105
372.887
340.531
319.659
307.2
300.243
296.563
294.71
293.804
293.371
293.169
293.075
293.033
293.015
293.006
293.003
293.001
293
293
293
293
293
293
293
293.004
293.017
293.04
293.077
293.14
293.244
293.414
293.691
294.137
294.845
295.95
297.648
300.203
303.963
309.354
316.866
327.006
340.242
356.923
377.233
401.163
428.535
459.054
492.372
528.137
566.037
605.812
647.257
690.217
734.573
780.231
827.109
875.124
924.181
974.167
1024.98
1076.65
1129.11
1182.26
1235.99
1290.18
1344.7
1399.43
1454.21
1508.91
1563.35
1617.36
1670.77
1723.37
1774.96
1825.29
1874.1
1921.11
1965.96
2008.27
2047.57
2082.95
2113.24
2139.4
2159.1
2170.73
2120.85
1999.05
1871.41
1740.06
1606.78
1473.13
1340.53
1210.3
1083.73
962.127
846.577
738.219
638.986
551.034
476.278
416.067
370.707
339.089
318.78
306.702
299.977
296.428
294.644
293.773
293.357
293.162
293.072
293.032
293.014
293.006
293.003
293.001
293
293
293
293
293
293
293
293.004
293.017
293.04
293.077
293.14
293.244
293.415
293.693
294.139
294.848
295.956
297.657
300.218
303.985
309.386
316.911
327.07
340.327
357.034
377.373
401.334
428.739
459.292
492.643
528.443
566.378
606.188
647.67
690.669
735.065
780.766
827.688
875.749
924.853
974.886
1025.74
1077.47
1129.98
1183.19
1236.97
1291.21
1345.78
1400.55
1455.38
1510.11
1564.58
1618.61
1672.03
1724.64
1776.21
1826.51
1875.29
1922.25
1967.06
2009.32
2048.56
2083.88
2114.13
2140.28
2160.03
2171.81
2114.89
1992.74
1864.94
1733.55
1600.31
1466.77
1334.34
1204.33
1078.03
956.746
841.545
733.594
634.856
547.482
473.369
413.827
369.104
338.032
318.136
306.337
299.783
296.329
294.596
293.75
293.346
293.157
293.07
293.031
293.014
293.006
293.002
293.001
293
293
293
293
293
293
293
293.004
293.017
293.04
293.077
293.14
293.244
293.415
293.693
294.141
294.851
295.96
297.663
300.227
303.999
309.407
316.942
327.112
340.384
357.109
377.467
401.448
428.875
459.45
492.824
528.647
566.605
606.44
647.947
690.971
735.394
781.123
828.074
876.165
925.299
975.362
1026.25
1078.01
1130.56
1183.8
1237.61
1291.88
1346.48
1401.28
1456.13
1510.87
1565.36
1619.4
1672.82
1725.41
1776.97
1827.25
1875.99
1922.91
1967.66
2009.86
2049.04
2084.3
2114.52
2140.68
2160.51
2172.49
2110.95
1988.48
1860.52
1729.09
1595.89
1462.44
1330.14
1200.3
1074.19
953.133
838.176
730.508
632.107
545.126
471.445
412.35
368.052
337.34
317.715
306.099
299.656
296.265
294.564
293.735
293.339
293.154
293.069
293.03
293.013
293.006
293.002
293.001
293
293
293
293
293
293
293
293.004
293.017
293.04
293.077
293.14
293.244
293.416
293.694
294.141
294.852
295.962
297.666
300.232
304.006
309.417
316.956
327.133
340.412
357.144
377.512
401.504
428.941
459.527
492.912
528.746
566.716
606.563
648.082
691.118
735.555
781.298
828.264
876.369
925.518
975.595
1026.5
1078.27
1130.83
1184.09
1237.92
1292.2
1346.82
1401.62
1456.48
1511.24
1565.72
1619.77
1673.18
1725.76
1777.3
1827.56
1876.28
1923.16
1967.87
2010.02
2049.15
2084.37
2114.56
2140.73
2160.63
2172.81
2108.99
1986.27
1858.21
1726.75
1593.59
1460.21
1327.99
1198.25
1072.26
951.325
836.502
728.986
630.761
543.979
470.515
411.641
367.55
337.012
317.517
305.986
299.596
296.234
294.549
293.727
293.336
293.152
293.068
293.03
293.013
293.006
293.002
293.001
293
293
293
293
293
293
293
293.004
293.017
293.04
293.077
293.14
293.244
293.416
293.694
294.142
294.852
295.962
297.666
300.232
304.006
309.418
316.957
327.133
340.412
357.145
377.513
401.505
428.942
459.529
492.914
528.748
566.718
606.565
648.084
691.121
735.557
781.3
828.266
876.372
925.52
975.598
1026.5
1078.27
1130.84
1184.09
1237.92
1292.2
1346.82
1401.63
1456.49
1511.24
1565.73
1619.77
1673.18
1725.77
1777.31
1827.56
1876.28
1923.16
1967.87
2010.02
2049.15
2084.37
2114.56
2140.73
2160.63
2172.81
2108.98
1986.26
1858.2
1726.75
1593.58
1460.2
1327.98
1198.24
1072.25
951.318
836.496
728.98
630.756
543.974
470.511
411.638
367.547
337.01
317.516
305.986
299.595
296.234
294.549
293.727
293.336
293.152
293.068
293.03
293.013
293.006
293.002
293.001
293
293
293
293
293
293
293
293.004
293.017
293.04
293.077
293.14
293.244
293.415
293.693
294.141
294.851
295.96
297.664
300.228
304
309.408
316.943
327.114
340.386
357.111
377.47
401.452
428.879
459.455
492.829
528.652
566.611
606.446
647.953
690.977
735.401
781.13
828.082
876.173
925.307
975.37
1026.26
1078.02
1130.57
1183.8
1237.62
1291.89
1346.49
1401.29
1456.14
1510.88
1565.37
1619.41
1672.83
1725.42
1776.98
1827.26
1876
1922.92
1967.67
2009.87
2049.05
2084.31
2114.53
2140.69
2160.51
2172.5
2110.92
1988.45
1860.5
1729.06
1595.86
1462.42
1330.12
1200.27
1074.17
953.111
838.156
730.489
632.09
545.111
471.433
412.34
368.045
337.335
317.713
306.097
299.655
296.264
294.564
293.734
293.339
293.154
293.069
293.03
293.013
293.006
293.002
293.001
293
293
293
293
293
293
293
293.004
293.017
293.04
293.077
293.14
293.244
293.415
293.693
294.139
294.848
295.956
297.658
300.218
303.986
309.387
316.914
327.073
340.331
357.039
377.378
401.34
428.746
459.3
492.652
528.452
566.388
606.199
647.681
690.68
735.077
780.778
827.701
875.762
924.866
974.9
1025.76
1077.48
1130
1183.21
1236.99
1291.23
1345.8
1400.57
1455.4
1510.12
1564.59
1618.63
1672.05
1724.65
1776.23
1826.53
1875.31
1922.27
1967.07
2009.34
2048.57
2083.89
2114.14
2140.29
2160.04
2171.82
2114.84
1992.69
1864.89
1733.5
1600.26
1466.73
1334.3
1204.29
1077.99
956.709
841.51
733.562
634.826
547.457
473.348
413.81
369.092
338.024
318.131
306.335
299.781
296.329
294.595
293.749
293.346
293.157
293.07
293.031
293.014
293.006
293.002
293.001
293
293
293
293
293
293
293
293.004
293.017
293.04
293.077
293.14
293.244
293.414
293.691
294.137
294.845
295.951
297.649
300.204
303.964
309.356
316.869
327.01
340.247
356.929
377.24
401.171
428.545
459.065
492.384
528.15
566.051
605.827
647.272
690.233
734.589
780.248
827.127
875.143
924.2
974.186
1025
1076.67
1129.13
1182.29
1236.02
1290.2
1344.73
1399.45
1454.24
1508.93
1563.37
1617.39
1670.8
1723.4
1774.98
1825.31
1874.13
1921.13
1965.99
2008.3
2047.59
2082.97
2113.26
2139.42
2159.12
2170.74
2120.78
1998.98
1871.34
1739.99
1606.71
1473.06
1340.47
1210.24
1083.67
962.074
846.527
738.173
638.945
550.998
476.248
416.044
370.69
339.078
318.773
306.698
299.975
296.427
294.643
293.772
293.356
293.162
293.072
293.032
293.014
293.006
293.003
293.001
293
293
293
293
293
293
293
293.004
293.017
293.04
293.077
293.139
293.243
293.413
293.69
294.134
294.84
295.943
297.637
300.186
303.936
309.315
316.809
326.927
340.135
356.784
377.057
400.948
428.278
458.755
492.029
527.751
565.606
605.334
646.73
689.639
733.942
779.544
826.363
874.317
923.31
973.231
1023.97
1075.57
1127.96
1181.04
1234.7
1288.82
1343.27
1397.93
1452.65
1507.29
1561.69
1615.67
1669.05
1721.64
1773.22
1823.56
1872.41
1919.45
1964.37
2006.74
2046.09
2081.5
2111.82
2137.96
2157.59
2169.08
2128.8
2007.32
1879.85
1748.54
1615.21
1481.43
1348.63
1218.14
1091.24
969.238
853.243
744.362
644.484
555.773
480.17
419.074
372.865
340.516
319.65
307.195
300.241
296.562
294.709
293.804
293.371
293.169
293.075
293.033
293.015
293.006
293.003
293.001
293
293
293
293
293
293
293
293.004
293.017
293.039
293.077
293.139
293.242
293.412
293.687
294.131
294.835
295.934
297.622
300.163
303.902
309.264
316.736
326.826
339.998
356.605
376.832
400.672
427.951
458.374
491.593
527.258
565.056
604.725
646.06
688.905
733.14
778.671
825.415
873.29
922.202
972.039
1022.69
1074.2
1126.5
1179.48
1233.04
1287.07
1341.43
1396
1450.64
1505.2
1559.53
1613.46
1666.8
1719.36
1770.92
1821.27
1870.13
1917.22
1962.18
2004.61
2044.01
2079.42
2109.71
2135.72
2155.04
2165.99
2138.9
2017.7
1890.4
1759.15
1625.77
1491.86
1358.84
1228.04
1100.74
978.256
861.715
752.188
651.505
561.842
485.172
422.954
375.662
342.373
320.785
307.84
300.585
296.737
294.795
293.844
293.39
293.177
293.079
293.035
293.015
293.007
293.003
293.001
293.001
293
293
293
293
293
293
293.004
293.017
293.039
293.077
293.139
293.241
293.41
293.685
294.127
294.828
295.923
297.605
300.137
303.862
309.204
316.65
326.706
339.837
356.396
376.569
400.35
427.567
457.926
491.08
526.68
564.41
604.01
645.272
688.039
732.193
777.638
824.292
872.072
920.884
970.619
1021.17
1072.56
1124.74
1177.61
1231.05
1284.96
1339.2
1393.66
1448.2
1502.67
1556.91
1610.76
1664.04
1716.56
1768.1
1818.45
1867.34
1914.47
1959.49
2002.01
2041.49
2076.97
2107.27
2133.12
2151.97
2161.79
2150.23
2029.56
1902.62
1771.59
1638.29
1504.32
1371.12
1240
1112.27
989.218
872.023
761.73
660.09
569.288
491.332
427.755
379.141
344.696
322.212
308.653
301.021
296.959
294.904
293.896
293.414
293.188
293.084
293.037
293.016
293.007
293.003
293.001
293.001
293
293
293
293
293
293
293.004
293.017
293.039
293.076
293.138
293.24
293.409
293.682
294.122
294.82
295.911
297.586
300.106
303.816
309.137
316.554
326.572
339.656
356.161
376.271
399.986
427.133
457.421
490.501
526.026
563.679
603.198
644.376
687.055
731.115
776.46
823.008
870.677
919.373
968.987
1019.41
1070.67
1122.71
1175.44
1228.74
1282.5
1336.61
1390.93
1445.34
1499.69
1553.82
1607.58
1660.78
1713.25
1764.77
1815.12
1864.04
1911.26
1956.43
1999.15
2038.93
2074.9
2105.66
2132.11
2151.75
2162.63
2161.51
2042.1
1916.05
1785.6
1652.62
1518.74
1385.44
1254.05
1125.87
1002.21
884.278
773.094
670.347
578.221
498.761
433.577
383.385
347.547
323.974
309.663
301.564
297.237
295.039
293.961
293.444
293.202
293.091
293.04
293.017
293.008
293.003
293.001
293.001
293
293
293
293
293
293
293.004
293.017
293.039
293.076
293.137
293.239
293.407
293.679
294.117
294.812
295.897
297.564
300.073
303.766
309.063
316.448
326.425
339.458
355.903
375.946
399.588
426.658
456.866
489.866
525.307
562.874
602.304
643.389
685.968
729.922
775.155
821.583
869.125
917.688
967.164
1017.44
1068.54
1120.42
1172.99
1226.12
1279.72
1333.66
1387.82
1442.08
1496.28
1550.28
1603.92
1657.03
1709.42
1760.9
1811.26
1860.23
1907.56
1952.92
1995.92
2036.13
2072.92
2104.6
2132.36
2154.03
2168.05
2171.9
2054.77
1930.37
1801.02
1668.71
1535.16
1401.88
1270.27
1141.65
1017.34
898.602
786.438
682.439
588.791
507.588
440.536
388.495
351.006
326.128
310.903
302.233
297.58
295.207
294.041
293.482
293.219
293.098
293.043
293.019
293.008
293.003
293.001
293.001
293
293
293
293
293
293
293.004
293.017
293.039
293.075
293.137
293.238
293.405
293.676
294.111
294.802
295.882
297.541
300.038
303.712
308.984
316.334
326.267
339.246
355.627
375.599
399.163
426.152
456.275
489.188
524.54
562.015
601.347
642.329
684.8
728.638
773.746
820.042
867.442
915.856
965.176
1015.29
1066.21
1117.91
1170.29
1223.23
1276.64
1330.39
1384.36
1438.43
1492.46
1546.3
1599.79
1652.78
1705.08
1756.5
1806.83
1855.85
1903.27
1948.81
1992.1
2032.72
2070.2
2103.13
2131.36
2154.95
2171.66
2179.51
2067.01
1945.51
1817.98
1686.75
1553.76
1420.64
1288.87
1159.81
1034.8
915.151
801.884
696.492
601.135
517.961
448.773
394.596
355.173
328.742
312.419
303.055
298.002
295.415
294.14
293.528
293.24
293.108
293.048
293.021
293.009
293.004
293.002
293.001
293
293
293
293
293
293
293.004
293.017
293.039
293.075
293.136
293.237
293.402
293.672
294.105
294.793
295.867
297.516
300
303.655
308.9
316.215
326.102
339.025
355.34
375.238
398.722
425.625
455.661
488.484
523.742
561.119
600.35
641.223
683.577
727.29
772.264
818.415
865.661
913.911
963.06
1012.99
1063.72
1115.22
1167.38
1220.11
1273.29
1326.82
1380.58
1434.44
1488.26
1541.9
1595.22
1648.06
1700.23
1751.55
1801.83
1850.83
1898.31
1943.96
1987.45
2028.36
2066.12
2099.51
2128.08
2152.05
2168.97
2176.57
2083.48
1964.1
1838
1707.66
1575.13
1442.11
1310.13
1180.57
1054.79
934.126
819.636
712.704
615.448
530.065
458.459
401.833
360.163
331.903
314.265
304.061
298.52
295.669
294.261
293.584
293.266
293.119
293.053
293.023
293.01
293.004
293.002
293.001
293
293
293
293
293
293
293.004
293.017
293.038
293.075
293.135
293.235
293.4
293.668
294.099
294.782
295.85
297.49
299.96
303.596
308.813
316.092
325.933
338.799
355.047
374.87
398.274
425.092
455.04
487.771
522.935
560.213
599.338
640.099
682.332
725.914
770.746
816.744
863.824
911.899
960.861
1010.59
1061.11
1112.38
1164.31
1216.8
1269.74
1323.02
1376.53
1430.15
1483.73
1537.15
1590.26
1642.9
1694.9
1746.09
1796.26
1845.2
1892.66
1938.34
1981.92
2022.97
2060.98
2094.74
2123.56
2147.78
2165.02
2173.44
2105.83
1987.24
1861.79
1731.91
1599.6
1466.56
1334.28
1204.15
1077.51
955.715
839.884
731.273
631.928
544.092
469.777
410.373
366.116
335.71
316.508
305.29
299.155
295.982
294.411
293.654
293.298
293.133
293.059
293.026
293.011
293.005
293.002
293.001
293
293
293
293
293
293
293.004
293.017
293.038
293.074
293.134
293.234
293.397
293.664
294.092
294.771
295.832
297.463
299.918
303.534
308.724
315.966
325.76
338.57
354.754
374.505
397.83
424.567
454.43
487.073
522.144
559.325
598.346
638.994
681.105
724.553
769.238
815.077
861.985
909.873
958.638
1008.16
1058.45
1109.47
1161.15
1213.38
1266.05
1319.06
1372.29
1425.63
1478.95
1532.11
1584.97
1637.38
1689.18
1740.19
1790.22
1839.05
1886.44
1932.11
1975.71
2016.82
2054.94
2088.87
2117.84
2142.1
2159.06
2166.5
2132.07
2013.69
1888.61
1759.06
1626.93
1493.84
1361.26
1230.55
1103.02
980.019
862.747
752.342
650.74
560.222
482.91
420.389
373.178
340.278
319.222
306.787
299.932
296.364
294.593
293.739
293.336
293.151
293.066
293.029
293.012
293.005
293.002
293.001
293
293
293
293
293
293
293.004
293.016
293.038
293.074
293.133
293.232
293.395
293.659
294.084
294.759
295.814
297.434
299.875
303.47
308.632
315.838
325.588
338.345
354.467
374.151
397.404
424.066
453.851
486.413
521.399
558.489
597.411
637.951
679.943
723.258
767.798
813.474
860.206
907.903
956.461
1005.76
1055.81
1106.58
1157.98
1209.93
1262.31
1315.03
1367.96
1421
1474.02
1526.89
1579.47
1631.62
1683.18
1733.98
1783.84
1832.54
1879.85
1925.49
1969.14
2010.39
2048.74
2083.21
2112.76
2137.68
2155.37
2163.44
2157.59
2040.42
1916.47
1787.82
1656.28
1523.45
1390.77
1259.59
1131.23
1007.02
888.246
775.976
671.986
578.589
498.011
432.041
381.501
345.731
322.497
308.606
300.88
296.831
294.815
293.842
293.383
293.172
293.076
293.033
293.014
293.006
293.003
293.001
293
293
293
293
293
293
293.004
293.016
293.037
293.073
293.132
293.23
293.391
293.654
294.075
294.745
295.792
297.402
299.827
303.401
308.536
315.706
325.413
338.121
354.189
373.814
397.008
423.607
453.328
485.823
520.737
557.748
596.583
637.024
678.904
722.094
766.492
812.011
858.567
906.071
954.42
1003.5
1053.29
1103.79
1154.92
1206.57
1258.65
1311.05
1363.66
1416.38
1469.08
1521.63
1573.91
1625.78
1677.07
1727.64
1777.29
1825.84
1873.06
1918.7
1962.44
2003.93
2042.73
2078.24
2109
2135.85
2156.93
2170.94
2176.12
2063.86
1943.24
1816.84
1686.74
1554.71
1422.31
1290.92
1161.89
1036.56
916.275
802.112
695.674
599.256
515.187
445.459
391.215
352.176
326.407
310.792
302.02
297.392
295.082
293.966
293.439
293.196
293.086
293.038
293.016
293.007
293.003
293.001
293
293
293
293
293
293
293.004
293.016
293.037
293.072
293.131
293.228
293.387
293.647
294.065
294.73
295.769
297.367
299.776
303.329
308.436
315.574
325.242
337.907
353.93
373.509
396.657
423.212
452.887
485.334
520.196
557.147
595.912
636.272
678.056
721.133
765.4
810.769
857.156
904.471
952.613
1001.47
1051.01
1101.24
1152.08
1203.43
1255.19
1307.27
1359.55
1411.93
1464.29
1516.52
1568.48
1620.04
1671.05
1721.35
1770.79
1819.16
1866.26
1911.85
1955.65
1997.31
2036.44
2072.53
2104.17
2131.39
2153.94
2169.67
2176.59
2086.52
1970.1
1846.49
1718.23
1587.33
1455.45
1324.07
1194.55
1068.24
946.512
830.506
721.64
622.141
534.432
460.703
402.425
359.736
331.06
313.421
303.401
298.074
295.406
294.115
293.506
293.226
293.099
293.043
293.018
293.008
293.003
293.001
293.001
293
293
293
293
293
293.004
293.016
293.037
293.071
293.129
293.225
293.383
293.639
294.053
294.71
295.739
297.322
299.712
303.239
308.316
315.419
325.051
337.679
353.67
373.223
396.351
422.891
452.554
484.986
519.828
556.749
595.472
635.774
677.482
720.464
764.616
809.849
856.078
903.214
951.155
999.784
1049.08
1099.05
1149.61
1200.66
1252.11
1303.86
1355.81
1407.86
1459.89
1511.78
1563.41
1614.66
1665.37
1715.41
1764.6
1812.76
1859.7
1905.18
1948.94
1990.63
2029.88
2066.19
2098.31
2125.8
2148.59
2164.52
2171.75
2115.36
2000.08
1877.79
1750.73
1620.74
1489.42
1358.19
1228.38
1101.3
978.298
860.607
749.46
646.95
555.562
477.665
415.065
368.358
336.405
316.443
304.98
298.848
295.77
294.281
293.581
293.259
293.113
293.049
293.021
293.009
293.004
293.002
293.001
293
293
293
293
293
293.004
293.016
293.036
293.07
293.127
293.221
293.377
293.63
294.038
294.687
295.705
297.273
299.644
303.148
308.198
315.273
324.878
337.486
353.465
373.017
396.156
422.714
452.4
484.857
519.717
556.644
595.354
635.624
677.277
720.181
764.231
809.34
855.423
902.392
950.145
998.566
1047.63
1097.35
1147.64
1198.41
1249.56
1301.01
1352.65
1404.38
1456.1
1507.68
1559.01
1609.96
1660.39
1710.16
1759.11
1807.06
1853.82
1899.15
1942.79
1984.42
2023.62
2059.9
2092.03
2119.5
2142.07
2157.24
2162.44
2143.1
2028.73
1907.59
1781.67
1652.68
1522.11
1391.32
1261.56
1134.09
1010.2
891.183
778.141
672.948
578.108
496.138
429.15
378.2
342.645
320.036
306.879
299.782
296.209
294.48
293.669
293.297
293.13
293.056
293.024
293.01
293.004
293.002
293.001
293
293
293
293
293
293.004
293.015
293.035
293.069
293.124
293.217
293.368
293.616
294.015
294.651
295.65
297.193
299.531
302.995
308.001
315.032
324.601
337.189
353.17
372.755
395.954
422.598
452.375
484.907
519.824
556.791
595.524
635.797