/*--------------------------------*- C++ -*----------------------------------*\
  =========                 |
  \\      /  F ield         | OpenFOAM: The Open Source CFD Toolbox
   \\    /   O peration     | Website:  https://openfoam.org
    \\  /    A nd           | Version:  8
     \\/     M anipulation  |
\*---------------------------------------------------------------------------*/
FoamFile
{
    version     2.0;
    format      ascii;
    class       volVectorField;
    location    "320/fluid";
    object      U;
}
// * * * * * * * * * * * * * * * * * * * * * * * * * * * * * * * * * * * * * //

dimensions      [0 1 -1 0 0 0 0];

internalField   nonuniform List<vector> 
4000
(
(0.0999517 -0.00681483 0)
(0.0996884 -0.0202707 0)
(0.0992638 -0.0336311 0)
(0.0986774 -0.0469356 0)
(0.0979224 -0.0601894 0)
(0.0969833 -0.0733907 0)
(0.095842 -0.0865328 0)
(0.0944816 -0.0996009 0)
(0.0928882 -0.112573 0)
(0.0910539 -0.125424 0)
(0.0889794 -0.13813 0)
(0.0866773 -0.150672 0)
(0.0841755 -0.16304 0)
(0.0815199 -0.175231 0)
(0.0787794 -0.187237 0)
(0.0760322 -0.199124 0)
(0.0733372 -0.21094 0)
(0.0707262 -0.222714 0)
(0.0681952 -0.234447 0)
(0.0657012 -0.246102 0)
(0.0631694 -0.257607 0)
(0.0605082 -0.268863 0)
(0.0576281 -0.27976 0)
(0.0544584 -0.290183 0)
(0.0509628 -0.300004 0)
(0.0471271 -0.309163 0)
(0.0429493 -0.317612 0)
(0.0384378 -0.325313 0)
(0.0336102 -0.332241 0)
(0.0284897 -0.338389 0)
(0.0231028 -0.343765 0)
(0.0174773 -0.348387 0)
(0.0116405 -0.352287 0)
(0.00561833 -0.355506 0)
(-0.000563751 -0.358091 0)
(-0.00688054 -0.360095 0)
(-0.0133099 -0.361575 0)
(-0.0198338 -0.362589 0)
(-0.0264364 -0.363196 0)
(-0.0331032 -0.363454 0)
(-0.0398208 -0.363418 0)
(-0.0465768 -0.36314 0)
(-0.0533597 -0.362669 0)
(-0.0601582 -0.362049 0)
(-0.0669615 -0.361317 0)
(-0.0737585 -0.360508 0)
(-0.0805379 -0.35965 0)
(-0.0872878 -0.358767 0)
(-0.0939954 -0.357878 0)
(-0.100647 -0.356997 0)
(-0.107227 -0.356137 0)
(-0.113719 -0.355306 0)
(-0.120103 -0.35451 0)
(-0.126359 -0.353756 0)
(-0.132462 -0.353052 0)
(-0.138385 -0.352408 0)
(-0.144097 -0.351841 0)
(-0.149556 -0.351377 0)
(-0.154708 -0.351049 0)
(-0.159509 -0.350896 0)
(-0.163962 -0.351005 0)
(-0.168116 -0.351553 0)
(-0.171752 -0.352839 0)
(-0.173169 -0.354871 0)
(-0.170633 -0.356509 0)
(-0.165157 -0.356132 0)
(-0.159076 -0.353696 0)
(-0.152721 -0.349502 0)
(-0.145999 -0.343713 0)
(-0.138904 -0.336405 0)
(-0.131495 -0.327646 0)
(-0.123846 -0.317509 0)
(-0.116037 -0.306089 0)
(-0.108153 -0.293503 0)
(-0.100291 -0.279886 0)
(-0.0926069 -0.265401 0)
(-0.0853627 -0.250273 0)
(-0.0789186 -0.234822 0)
(-0.0736816 -0.21944 0)
(-0.0700642 -0.204782 0)
(-0.0683816 -0.191391 0)
(-0.0686536 -0.179438 0)
(-0.0705401 -0.168697 0)
(-0.0734886 -0.158734 0)
(-0.0769439 -0.149137 0)
(-0.0804786 -0.139631 0)
(-0.0838232 -0.13006 0)
(-0.0868163 -0.120321 0)
(-0.0894108 -0.110498 0)
(-0.0916174 -0.100634 0)
(-0.0934691 -0.0907644 0)
(-0.0950051 -0.080922 0)
(-0.0962649 -0.071132 0)
(-0.0972857 -0.0614118 0)
(-0.0981011 -0.0517707 0)
(-0.098741 -0.0422084 0)
(-0.099231 -0.0327147 0)
(-0.0995916 -0.0232908 0)
(-0.099837 -0.0139609 0)
(-0.0999796 -0.00468171 0)
(0.0999996 -0.00642455 0)
(0.0998146 -0.0192027 0)
(0.0994329 -0.031913 0)
(0.0988333 -0.0445435 0)
(0.098017 -0.0570674 0)
(0.0969803 -0.0694613 0)
(0.0957148 -0.0817032 0)
(0.094213 -0.0937673 0)
(0.0924724 -0.105626 0)
(0.0904987 -0.117253 0)
(0.088308 -0.128629 0)
(0.0859302 -0.139746 0)
(0.0834094 -0.150618 0)
(0.0808039 -0.161293 0)
(0.0781838 -0.171865 0)
(0.0756154 -0.182368 0)
(0.0731501 -0.192854 0)
(0.0708113 -0.203374 0)
(0.0685849 -0.213951 0)
(0.0664176 -0.224575 0)
(0.0642238 -0.235189 0)
(0.0619005 -0.245706 0)
(0.0593458 -0.256018 0)
(0.0564759 -0.266018 0)
(0.0532342 -0.27563 0)
(0.0495962 -0.284727 0)
(0.0455572 -0.293212 0)
(0.0411287 -0.301018 0)
(0.0363337 -0.308103 0)
(0.0312025 -0.314451 0)
(0.0257684 -0.32006 0)
(0.0200657 -0.324947 0)
(0.0141273 -0.32914 0)
(0.00798393 -0.332675 0)
(0.0016644 -0.335597 0)
(-0.00480408 -0.337955 0)
(-0.0113973 -0.339805 0)
(-0.018095 -0.341203 0)
(-0.0248798 -0.342206 0)
(-0.0317361 -0.34287 0)
(-0.0386502 -0.343248 0)
(-0.0456095 -0.343391 0)
(-0.0526026 -0.343346 0)
(-0.0596189 -0.343155 0)
(-0.0666483 -0.342856 0)
(-0.0736808 -0.342483 0)
(-0.0807066 -0.342063 0)
(-0.0877152 -0.341621 0)
(-0.0946956 -0.341176 0)
(-0.101636 -0.340743 0)
(-0.108524 -0.340333 0)
(-0.115345 -0.339956 0)
(-0.122084 -0.339617 0)
(-0.128723 -0.339322 0)
(-0.135243 -0.339074 0)
(-0.141622 -0.338877 0)
(-0.147834 -0.338737 0)
(-0.153843 -0.33866 0)
(-0.159595 -0.33865 0)
(-0.165057 -0.338711 0)
(-0.170244 -0.338851 0)
(-0.175223 -0.339075 0)
(-0.179705 -0.339318 0)
(-0.18173 -0.339241 0)
(-0.179066 -0.338178 0)
(-0.172893 -0.335853 0)
(-0.166204 -0.332122 0)
(-0.159398 -0.326939 0)
(-0.15229 -0.32028 0)
(-0.144814 -0.312145 0)
(-0.136999 -0.302555 0)
(-0.128898 -0.291555 0)
(-0.120565 -0.279224 0)
(-0.112059 -0.265677 0)
(-0.103452 -0.25109 0)
(-0.0949112 -0.235728 0)
(-0.0867482 -0.220007 0)
(-0.0794069 -0.204528 0)
(-0.073407 -0.190067 0)
(-0.0692467 -0.177111 0)
(-0.067218 -0.165874 0)
(-0.0672461 -0.156235 0)
(-0.0689082 -0.147763 0)
(-0.0716299 -0.139937 0)
(-0.074882 -0.13234 0)
(-0.0782751 -0.124723 0)
(-0.0815686 -0.116986 0)
(-0.0846389 -0.10913 0)
(-0.0874089 -0.101037 0)
(-0.0898572 -0.0927112 0)
(-0.091985 -0.0841935 0)
(-0.0938066 -0.075529 0)
(-0.0953428 -0.066758 0)
(-0.0966176 -0.0579136 0)
(-0.0976558 -0.0490224 0)
(-0.0984812 -0.0401024 0)
(-0.0991138 -0.0311625 0)
(-0.0995676 -0.022222 0)
(-0.0998528 -0.013326 0)
(-0.0999947 -0.00446377 0)
(0.0999809 -0.00617318 0)
(0.0997429 -0.01844 0)
(0.0992764 -0.0306364 0)
(0.0985643 -0.0427479 0)
(0.0976098 -0.054744 0)
(0.0964139 -0.0666004 0)
(0.0949754 -0.0782968 0)
(0.0932964 -0.0898127 0)
(0.0913851 -0.101128 0)
(0.0892585 -0.112227 0)
(0.086944 -0.123098 0)
(0.0844824 -0.133741 0)
(0.0819269 -0.144166 0)
(0.0793404 -0.1544 0)
(0.0767863 -0.164482 0)
(0.0743237 -0.17447 0)
(0.0720003 -0.184427 0)
(0.0698377 -0.194406 0)
(0.0678196 -0.204437 0)
(0.0658895 -0.214513 0)
(0.0639579 -0.22459 0)
(0.0619183 -0.234587 0)
(0.0596647 -0.244404 0)
(0.057105 -0.253931 0)
(0.0541678 -0.263065 0)
(0.0508084 -0.271716 0)
(0.0470111 -0.279811 0)
(0.0427828 -0.287295 0)
(0.0381455 -0.29413 0)
(0.0331298 -0.300295 0)
(0.0277705 -0.305787 0)
(0.0221035 -0.310614 0)
(0.0161639 -0.314799 0)
(0.00998478 -0.318371 0)
(0.00359737 -0.321371 0)
(-0.00296838 -0.323841 0)
(-0.00968599 -0.325832 0)
(-0.0165336 -0.327393 0)
(-0.0234921 -0.32858 0)
(-0.0305448 -0.329443 0)
(-0.0376771 -0.330032 0)
(-0.0448759 -0.330395 0)
(-0.0521299 -0.330576 0)
(-0.0594284 -0.330616 0)
(-0.0667621 -0.33055 0)
(-0.0741218 -0.330409 0)
(-0.0814989 -0.330221 0)
(-0.0888847 -0.330008 0)
(-0.0962704 -0.329787 0)
(-0.103647 -0.329572 0)
(-0.111005 -0.329372 0)
(-0.118334 -0.329194 0)
(-0.125623 -0.32904 0)
(-0.132859 -0.32891 0)
(-0.14003 -0.3288 0)
(-0.147121 -0.328707 0)
(-0.154111 -0.328622 0)
(-0.160967 -0.328534 0)
(-0.16764 -0.328427 0)
(-0.174107 -0.328282 0)
(-0.1804 -0.328091 0)
(-0.186514 -0.327857 0)
(-0.19169 -0.327469 0)
(-0.19351 -0.326315 0)
(-0.19004 -0.323659 0)
(-0.183098 -0.319904 0)
(-0.175598 -0.31502 0)
(-0.167947 -0.308897 0)
(-0.159975 -0.301466 0)
(-0.151617 -0.292714 0)
(-0.142895 -0.282667 0)
(-0.133851 -0.271394 0)
(-0.124536 -0.259013 0)
(-0.115005 -0.245692 0)
(-0.105355 -0.231665 0)
(-0.0958102 -0.217251 0)
(-0.0867637 -0.202867 0)
(-0.0787401 -0.189007 0)
(-0.0723253 -0.176173 0)
(-0.0680076 -0.164761 0)
(-0.065973 -0.154911 0)
(-0.0660153 -0.14643 0)
(-0.0676386 -0.138887 0)
(-0.0702647 -0.131815 0)
(-0.0733956 -0.124858 0)
(-0.0766756 -0.117804 0)
(-0.0798905 -0.110557 0)
(-0.0829324 -0.103095 0)
(-0.085747 -0.0954354 0)
(-0.0883017 -0.0876 0)
(-0.0905829 -0.0796126 0)
(-0.0925896 -0.0714963 0)
(-0.0943282 -0.063273 0)
(-0.0958095 -0.0549629 0)
(-0.0970464 -0.0465843 0)
(-0.098053 -0.0381515 0)
(-0.0988417 -0.0296738 0)
(-0.0994202 -0.0211741 0)
(-0.0997937 -0.0127029 0)
(-0.0999857 -0.00425677 0)
(0.0999849 -0.00585248 0)
(0.0997399 -0.0174819 0)
(0.0992521 -0.0290366 0)
(0.0985037 -0.040496 0)
(0.0975021 -0.0518255 0)
(0.0962534 -0.0629974 0)
(0.094762 -0.0739895 0)
(0.0930353 -0.0847806 0)
(0.0910861 -0.0953511 0)
(0.0889345 -0.105686 0)
(0.08661 -0.115778 0)
(0.0841528 -0.125628 0)
(0.0816144 -0.135256 0)
(0.0790564 -0.144695 0)
(0.0765455 -0.153996 0)
(0.0741455 -0.163224 0)
(0.0719046 -0.172444 0)
(0.069842 -0.181716 0)
(0.0679379 -0.191072 0)
(0.0661316 -0.200511 0)
(0.0643289 -0.209991 0)
(0.0624183 -0.21944 0)
(0.0602891 -0.228762 0)
(0.0578468 -0.237854 0)
(0.0550214 -0.246616 0)
(0.0517701 -0.254956 0)
(0.0480751 -0.2628 0)
(0.043939 -0.270089 0)
(0.0393788 -0.276784 0)
(0.0344208 -0.282862 0)
(0.0290967 -0.288317 0)
(0.0234402 -0.293154 0)
(0.0174849 -0.297393 0)
(0.0112632 -0.301058 0)
(0.00480577 -0.304186 0)
(-0.00185818 -0.306815 0)
(-0.00870214 -0.308991 0)
(-0.0157036 -0.31076 0)
(-0.0228433 -0.312171 0)
(-0.0301044 -0.313273 0)
(-0.0374721 -0.314111 0)
(-0.0449336 -0.31473 0)
(-0.0524774 -0.315171 0)
(-0.0600935 -0.31547 0)
(-0.0677731 -0.315662 0)
(-0.0755079 -0.315774 0)
(-0.0832904 -0.315831 0)
(-0.0911132 -0.315854 0)
(-0.0989691 -0.315856 0)
(-0.106851 -0.315849 0)
(-0.114751 -0.315839 0)
(-0.12266 -0.315828 0)
(-0.13057 -0.315813 0)
(-0.13847 -0.315789 0)
(-0.146348 -0.315745 0)
(-0.154189 -0.315666 0)
(-0.161972 -0.315534 0)
(-0.169656 -0.315323 0)
(-0.177188 -0.315 0)
(-0.184577 -0.314529 0)
(-0.191922 -0.313897 0)
(-0.199113 -0.313093 0)
(-0.204257 -0.311991 0)
(-0.204652 -0.309705 0)
(-0.199682 -0.305761 0)
(-0.192137 -0.300812 0)
(-0.18402 -0.294899 0)
(-0.175563 -0.287907 0)
(-0.166673 -0.27977 0)
(-0.157343 -0.27048 0)
(-0.147622 -0.260078 0)
(-0.137574 -0.248647 0)
(-0.127273 -0.236318 0)
(-0.116803 -0.223274 0)
(-0.106317 -0.209757 0)
(-0.0961162 -0.196093 0)
(-0.0866583 -0.182689 0)
(-0.0784915 -0.17001 0)
(-0.0721572 -0.158504 0)
(-0.0680373 -0.148475 0)
(-0.0661973 -0.139953 0)
(-0.0663477 -0.132674 0)
(-0.067971 -0.126201 0)
(-0.0705159 -0.120105 0)
(-0.0735267 -0.114076 0)
(-0.0766833 -0.10793 0)
(-0.0797896 -0.101583 0)
(-0.0827384 -0.0950034 0)
(-0.0854764 -0.0881919 0)
(-0.0879795 -0.0811644 0)
(-0.0902381 -0.0739443 0)
(-0.0922502 -0.0665561 0)
(-0.094018 -0.0590234 0)
(-0.095546 -0.0513678 0)
(-0.0968401 -0.0436098 0)
(-0.0979069 -0.0357663 0)
(-0.0987517 -0.0278507 0)
(-0.0993758 -0.0198902 0)
(-0.0997795 -0.0119397 0)
(-0.0999862 -0.00400264 0)
(0.0999821 -0.00552699 0)
(0.0997211 -0.0165083 0)
(0.0992057 -0.027417 0)
(0.0984188 -0.0382319 0)
(0.0973701 -0.0489183 0)
(0.0960682 -0.0594492 0)
(0.0945204 -0.0698033 0)
(0.0927371 -0.0799613 0)
(0.0907345 -0.0899061 0)
(0.088536 -0.0996253 0)
(0.0861744 -0.109113 0)
(0.0836931 -0.118374 0)
(0.0811467 -0.127426 0)
(0.0785988 -0.136299 0)
(0.0761177 -0.145042 0)
(0.0737667 -0.153713 0)
(0.0715928 -0.162375 0)
(0.069613 -0.171082 0)
(0.0678049 -0.179867 0)
(0.0661048 -0.18873 0)
(0.0644157 -0.197637 0)
(0.0626228 -0.206523 0)
(0.0606117 -0.215301 0)
(0.058284 -0.223879 0)
(0.0555661 -0.232162 0)
(0.0524121 -0.240069 0)
(0.0488015 -0.247529 0)
(0.0447342 -0.254487 0)
(0.0402252 -0.260906 0)
(0.0352989 -0.266764 0)
(0.0299853 -0.272051 0)
(0.0243166 -0.276771 0)
(0.0183252 -0.28094 0)
(0.0120427 -0.284581 0)
(0.00549896 -0.287724 0)
(-0.00127749 -0.290403 0)
(-0.00826071 -0.29266 0)
(-0.0154285 -0.294538 0)
(-0.0227618 -0.296079 0)
(-0.0302441 -0.297328 0)
(-0.0378608 -0.298326 0)
(-0.0455993 -0.299115 0)
(-0.0534486 -0.29973 0)
(-0.0613992 -0.300206 0)
(-0.0694425 -0.300572 0)
(-0.0775711 -0.300854 0)
(-0.0857778 -0.301071 0)
(-0.0940562 -0.301242 0)
(-0.1024 -0.301378 0)
(-0.110801 -0.301485 0)
(-0.119254 -0.301567 0)
(-0.127749 -0.301622 0)
(-0.136277 -0.301642 0)
(-0.144826 -0.301617 0)
(-0.153382 -0.301531 0)
(-0.161923 -0.301363 0)
(-0.170422 -0.301086 0)
(-0.178818 -0.300665 0)
(-0.18705 -0.300058 0)
(-0.195146 -0.299222 0)
(-0.203225 -0.298113 0)
(-0.210991 -0.29666 0)
(-0.215574 -0.294737 0)
(-0.21426 -0.291529 0)
(-0.207908 -0.28689 0)
(-0.199804 -0.281282 0)
(-0.1911 -0.274764 0)
(-0.181871 -0.267275 0)
(-0.172103 -0.258786 0)
(-0.161856 -0.249317 0)
(-0.151212 -0.238928 0)
(-0.140263 -0.22772 0)
(-0.129104 -0.215839 0)
(-0.11785 -0.203473 0)
(-0.106705 -0.190867 0)
(-0.0960283 -0.178336 0)
(-0.0863109 -0.166252 0)
(-0.0781002 -0.155012 0)
(-0.0718927 -0.144958 0)
(-0.0679827 -0.13627 0)
(-0.0663348 -0.128881 0)
(-0.0665897 -0.122491 0)
(-0.0682155 -0.116706 0)
(-0.0706863 -0.111173 0)
(-0.0735858 -0.105648 0)
(-0.0766281 -0.0999921 0)
(-0.0796386 -0.0941416 0)
(-0.0825193 -0.0880763 0)
(-0.0852172 -0.0817991 0)
(-0.0877045 -0.0753235 0)
(-0.089967 -0.0686674 0)
(-0.0919984 -0.06185 0)
(-0.0937967 -0.0548898 0)
(-0.0953624 -0.0478044 0)
(-0.0966975 -0.0406117 0)
(-0.097805 -0.0333271 0)
(-0.0986869 -0.0259634 0)
(-0.0993414 -0.0185486 0)
(-0.0997664 -0.0111369 0)
(-0.0999849 -0.00373436 0)
(0.0999824 -0.00518485 0)
(0.0997164 -0.0154868 0)
(0.09919 -0.0257191 0)
(0.0983861 -0.0358596 0)
(0.0973164 -0.0458739 0)
(0.095991 -0.055735 0)
(0.0944193 -0.065422 0)
(0.0926136 -0.0749162 0)
(0.0905918 -0.0842017 0)
(0.0883792 -0.0932671 0)
(0.0860096 -0.102108 0)
(0.0835274 -0.110731 0)
(0.0809874 -0.119152 0)
(0.0784537 -0.127405 0)
(0.075994 -0.135538 0)
(0.0736716 -0.143608 0)
(0.0715328 -0.151678 0)
(0.0695939 -0.159802 0)
(0.0678318 -0.168013 0)
(0.0661819 -0.176311 0)
(0.064546 -0.184667 0)
(0.0628083 -0.193018 0)
(0.0608529 -0.201284 0)
(0.0585797 -0.209378 0)
(0.0559132 -0.217213 0)
(0.0528052 -0.224709 0)
(0.049233 -0.231801 0)
(0.045194 -0.238437 0)
(0.0407006 -0.244581 0)
(0.0357753 -0.25021 0)
(0.0304459 -0.255316 0)
(0.0247428 -0.259901 0)
(0.018697 -0.263977 0)
(0.0123386 -0.267565 0)
(0.00569643 -0.270691 0)
(-0.00120178 -0.273387 0)
(-0.00833111 -0.27569 0)
(-0.0156701 -0.277637 0)
(-0.0232002 -0.279269 0)
(-0.0309052 -0.280625 0)
(-0.038771 -0.281743 0)
(-0.0467852 -0.282658 0)
(-0.0549371 -0.283405 0)
(-0.0632174 -0.284012 0)
(-0.0716177 -0.284506 0)
(-0.0801306 -0.284908 0)
(-0.088749 -0.285237 0)
(-0.0974661 -0.285505 0)
(-0.106275 -0.28572 0)
(-0.115168 -0.285887 0)
(-0.124137 -0.286004 0)
(-0.133172 -0.286067 0)
(-0.14226 -0.286065 0)
(-0.151386 -0.285983 0)
(-0.160529 -0.285802 0)
(-0.169662 -0.285498 0)
(-0.178739 -0.285041 0)
(-0.187683 -0.284391 0)
(-0.196423 -0.283504 0)
(-0.204968 -0.282335 0)
(-0.213385 -0.280816 0)
(-0.221203 -0.27881 0)
(-0.225173 -0.276174 0)
(-0.222495 -0.272282 0)
(-0.214896 -0.267251 0)
(-0.206031 -0.261282 0)
(-0.196632 -0.254436 0)
(-0.186645 -0.246707 0)
(-0.176081 -0.238106 0)
(-0.165028 -0.228678 0)
(-0.153596 -0.218497 0)
(-0.141898 -0.207675 0)
(-0.130049 -0.196356 0)
(-0.118197 -0.184725 0)
(-0.106595 -0.173015 0)
(-0.0956499 -0.161518 0)
(-0.0858736 -0.150566 0)
(-0.0777997 -0.1405 0)
(-0.0718693 -0.131593 0)
(-0.0682845 -0.123956 0)
(-0.0669135 -0.117476 0)
(-0.0673376 -0.111854 0)
(-0.069016 -0.106729 0)
(-0.0714485 -0.101791 0)
(-0.0742539 -0.0968332 0)
(-0.0771773 -0.0917388 0)
(-0.0800656 -0.0864534 0)
(-0.0828334 -0.0809594 0)
(-0.0854344 -0.0752588 0)
(-0.0878432 -0.0693633 0)
(-0.090046 -0.0632888 0)
(-0.0920351 -0.0570523 0)
(-0.093806 -0.0506707 0)
(-0.0953564 -0.0441608 0)
(-0.0966854 -0.0375395 0)
(-0.0977929 -0.0308219 0)
(-0.098678 -0.0240214 0)
(-0.0993367 -0.017166 0)
(-0.0997649 -0.0103088 0)
(-0.099985 -0.00345736 0)
(0.0999819 -0.0048382 0)
(0.099711 -0.0144515 0)
(0.0991756 -0.0239996 0)
(0.098359 -0.033461 0)
(0.0972732 -0.0428026 0)
(0.0959297 -0.0519986 0)
(0.0943388 -0.0610293 0)
(0.0925141 -0.0698774 0)
(0.0904747 -0.0785281 0)
(0.088247 -0.0869715 0)
(0.0858664 -0.0952043 0)
(0.0833781 -0.103232 0)
(0.080838 -0.111073 0)
(0.0783109 -0.118758 0)
(0.0758649 -0.126331 0)
(0.0735633 -0.133848 0)
(0.0714518 -0.141368 0)
(0.0695457 -0.14894 0)
(0.0678204 -0.156595 0)
(0.0662098 -0.164337 0)
(0.0646143 -0.172138 0)
(0.0629162 -0.179941 0)
(0.0609982 -0.187675 0)
(0.0587588 -0.195257 0)
(0.0561208 -0.202608 0)
(0.0530345 -0.209656 0)
(0.0494754 -0.216337 0)
(0.0454394 -0.222606 0)
(0.0409374 -0.228426 0)
(0.03599 -0.233777 0)
(0.0306236 -0.23865 0)
(0.0248673 -0.243045 0)
(0.0187506 -0.246973 0)
(0.0123027 -0.250452 0)
(0.00555144 -0.253505 0)
(-0.00147648 -0.256162 0)
(-0.00875693 -0.258453 0)
(-0.0162692 -0.260414 0)
(-0.0239953 -0.262081 0)
(-0.0319193 -0.263488 0)
(-0.0400275 -0.264669 0)
(-0.0483077 -0.265657 0)
(-0.0567492 -0.26648 0)
(-0.0653426 -0.267165 0)
(-0.0740794 -0.267734 0)
(-0.0829517 -0.268204 0)
(-0.0919518 -0.268592 0)
(-0.101072 -0.268905 0)
(-0.110305 -0.269151 0)
(-0.11964 -0.269329 0)
(-0.129068 -0.269435 0)
(-0.138576 -0.269463 0)
(-0.148149 -0.269398 0)
(-0.157765 -0.269225 0)
(-0.1674 -0.268922 0)
(-0.177018 -0.268463 0)
(-0.186558 -0.267818 0)
(-0.195927 -0.266948 0)
(-0.205045 -0.265815 0)
(-0.213879 -0.264388 0)
(-0.222384 -0.262631 0)
(-0.229819 -0.260407 0)
(-0.232873 -0.257343 0)
(-0.229029 -0.252898 0)
(-0.220522 -0.247532 0)
(-0.21091 -0.241362 0)
(-0.20081 -0.234405 0)
(-0.19013 -0.226671 0)
(-0.178878 -0.218189 0)
(-0.167156 -0.209018 0)
(-0.155086 -0.199241 0)
(-0.142798 -0.188971 0)
(-0.130424 -0.178352 0)
(-0.11814 -0.167558 0)
(-0.106244 -0.15681 0)
(-0.0951754 -0.146376 0)
(-0.0854526 -0.136551 0)
(-0.0775848 -0.127623 0)
(-0.0719534 -0.119795 0)
(-0.0686758 -0.113114 0)
(-0.0675427 -0.107427 0)
(-0.0680976 -0.10244 0)
(-0.0698051 -0.0978325 0)
(-0.0721934 -0.0933488 0)
(-0.0749131 -0.0888215 0)
(-0.0777347 -0.0841589 0)
(-0.0805211 -0.0793191 0)
(-0.0831953 -0.0742891 0)
(-0.0857145 -0.0690712 0)
(-0.0880544 -0.0636752 0)
(-0.0902009 -0.0581143 0)
(-0.0921452 -0.0524029 0)
(-0.0938816 -0.0465553 0)
(-0.0954062 -0.0405861 0)
(-0.0967167 -0.0345102 0)
(-0.0978113 -0.0283414 0)
(-0.0986879 -0.0220922 0)
(-0.0993412 -0.0157893 0)
(-0.0997662 -0.00948303 0)
(-0.099985 -0.00318083 0)
(0.0999818 -0.00448668 0)
(0.0997087 -0.0134019 0)
(0.0991688 -0.0222568 0)
(0.0983453 -0.0310306 0)
(0.0972509 -0.039692 0)
(0.0958976 -0.0482164 0)
(0.0942964 -0.0565853 0)
(0.0924616 -0.0647824 0)
(0.0904131 -0.0727941 0)
(0.0881781 -0.0806114 0)
(0.0857923 -0.0882315 0)
(0.0833019 -0.0956607 0)
(0.0807629 -0.102916 0)
(0.0782404 -0.110027 0)
(0.0758026 -0.117036 0)
(0.0735126 -0.123996 0)
(0.0714156 -0.130962 0)
(0.0695264 -0.137982 0)
(0.0678196 -0.145085 0)
(0.0662281 -0.152275 0)
(0.0646511 -0.159526 0)
(0.0629701 -0.166787 0)
(0.0610668 -0.17399 0)
(0.0588383 -0.181062 0)
(0.0562063 -0.187926 0)
(0.05312 -0.194517 0)
(0.0495536 -0.200778 0)
(0.0455014 -0.206663 0)
(0.0409731 -0.21214 0)
(0.0359878 -0.217189 0)
(0.0305708 -0.221802 0)
(0.0247498 -0.225977 0)
(0.0185534 -0.229724 0)
(0.0120096 -0.23306 0)
(0.00514542 -0.236003 0)
(-0.00201316 -0.238581 0)
(-0.00944279 -0.240822 0)
(-0.0171234 -0.242756 0)
(-0.0250374 -0.244416 0)
(-0.0331694 -0.245833 0)
(-0.0415055 -0.247036 0)
(-0.0500336 -0.248055 0)
(-0.0587429 -0.248914 0)
(-0.0676236 -0.249636 0)
(-0.0766665 -0.25024 0)
(-0.0858631 -0.250741 0)
(-0.0952046 -0.251151 0)
(-0.104682 -0.251476 0)
(-0.114285 -0.25172 0)
(-0.124002 -0.251881 0)
(-0.133822 -0.251954 0)
(-0.143726 -0.251927 0)
(-0.153696 -0.251787 0)
(-0.163708 -0.251516 0)
(-0.17373 -0.251092 0)
(-0.183719 -0.250489 0)
(-0.193604 -0.249677 0)
(-0.203286 -0.248623 0)
(-0.212703 -0.247297 0)
(-0.221868 -0.245693 0)
(-0.230636 -0.243822 0)
(-0.237363 -0.241603 0)
(-0.238888 -0.238259 0)
(-0.233637 -0.233474 0)
(-0.224526 -0.227889 0)
(-0.21442 -0.221654 0)
(-0.203777 -0.214756 0)
(-0.192531 -0.207192 0)
(-0.180719 -0.198995 0)
(-0.168457 -0.190228 0)
(-0.155884 -0.180976 0)
(-0.143139 -0.171348 0)
(-0.130372 -0.161481 0)
(-0.117786 -0.151539 0)
(-0.105719 -0.141726 0)
(-0.0946332 -0.132284 0)
(-0.0850456 -0.123475 0)
(-0.0774376 -0.115539 0)
(-0.0721316 -0.108631 0)
(-0.0691681 -0.102752 0)
(-0.0682728 -0.0977324 0)
(-0.0689607 -0.0932965 0)
(-0.0707046 -0.0891617 0)
(-0.0730586 -0.0851099 0)
(-0.0757014 -0.0810026 0)
(-0.0784261 -0.0767648 0)
(-0.0811107 -0.0723628 0)
(-0.0836866 -0.0677861 0)
(-0.0861155 -0.0630372 0)
(-0.0883752 -0.0581246 0)
(-0.0904521 -0.0530599 0)
(-0.0923374 -0.0478556 0)
(-0.0940247 -0.0425245 0)
(-0.0955093 -0.0370795 0)
(-0.0967876 -0.0315344 0)
(-0.0978572 -0.0259014 0)
(-0.0987149 -0.0201926 0)
(-0.0993546 -0.0144328 0)
(-0.099771 -0.00866893 0)
(-0.0999853 -0.00290803 0)
(0.0999817 -0.00413304 0)
(0.0997069 -0.0123459 0)
(0.0991638 -0.0205035 0)
(0.0983355 -0.0285864 0)
(0.0972349 -0.0365653 0)
(0.0958744 -0.0444172 0)
(0.0942655 -0.0521251 0)
(0.0924229 -0.0596738 0)
(0.0903669 -0.067051 0)
(0.0881252 -0.0742483 0)
(0.0857342 -0.0812638 0)
(0.0832403 -0.0881032 0)
(0.0807001 -0.0947828 0)
(0.0781789 -0.101331 0)
(0.0757452 -0.107786 0)
(0.073462 -0.114199 0)
(0.0713741 -0.120619 0)
(0.0694955 -0.127092 0)
(0.0678 -0.133645 0)
(0.0662194 -0.140281 0)
(0.0646516 -0.146978 0)
(0.0629771 -0.153689 0)
(0.0610766 -0.160353 0)
(0.0588463 -0.166899 0)
(0.0562071 -0.173262 0)
(0.0531072 -0.179378 0)
(0.04952 -0.185196 0)
(0.0454388 -0.190674 0)
(0.0408723 -0.195782 0)
(0.0358387 -0.200502 0)
(0.0303622 -0.204824 0)
(0.0244697 -0.208748 0)
(0.0181888 -0.212281 0)
(0.0115467 -0.215438 0)
(0.00456972 -0.218236 0)
(-0.00271666 -0.220699 0)
(-0.0102897 -0.222852 0)
(-0.01813 -0.224722 0)
(-0.0262201 -0.226338 0)
(-0.0345449 -0.227726 0)
(-0.0430903 -0.228915 0)
(-0.0518443 -0.229928 0)
(-0.0607955 -0.230788 0)
(-0.0699336 -0.231514 0)
(-0.0792489 -0.232121 0)
(-0.0887313 -0.232624 0)
(-0.098371 -0.23303 0)
(-0.108157 -0.233344 0)
(-0.118077 -0.233568 0)
(-0.128119 -0.233698 0)
(-0.138264 -0.233728 0)
(-0.148495 -0.233646 0)
(-0.158787 -0.233437 0)
(-0.169113 -0.233085 0)
(-0.179436 -0.232567 0)
(-0.189708 -0.231858 0)
(-0.199849 -0.230931 0)
(-0.209759 -0.229755 0)
(-0.219412 -0.228309 0)
(-0.228884 -0.22659 0)
(-0.237911 -0.2246 0)
(-0.243757 -0.222282 0)
(-0.243356 -0.218752 0)
(-0.236695 -0.213888 0)
(-0.227217 -0.208338 0)
(-0.216836 -0.202239 0)
(-0.205802 -0.195571 0)
(-0.194115 -0.188331 0)
(-0.181859 -0.180555 0)
(-0.169173 -0.172306 0)
(-0.156209 -0.163669 0)
(-0.143118 -0.15475 0)
(-0.130063 -0.145675 0)
(-0.117277 -0.136597 0)
(-0.105129 -0.127704 0)
(-0.0940951 -0.119215 0)
(-0.0846871 -0.111358 0)
(-0.0773548 -0.104333 0)
(-0.072364 -0.0982523 0)
(-0.069687 -0.0930835 0)
(-0.0689984 -0.0886497 0)
(-0.0697962 -0.0846951 0)
(-0.0715654 -0.0809743 0)
(-0.0738853 -0.0773044 0)
(-0.0764591 -0.0735724 0)
(-0.0790985 -0.0697179 0)
(-0.0816934 -0.0657144 0)
(-0.0841818 -0.0615541 0)
(-0.086529 -0.0572395 0)
(-0.0887142 -0.052778 0)
(-0.0907246 -0.0481798 0)
(-0.0925515 -0.0434555 0)
(-0.0941883 -0.0386163 0)
(-0.0956299 -0.0336736 0)
(-0.0968726 -0.0286394 0)
(-0.0979132 -0.0235247 0)
(-0.0987482 -0.0183404 0)
(-0.0993712 -0.0131094 0)
(-0.0997768 -0.00787436 0)
(-0.0999857 -0.00264162 0)
(0.0999816 -0.00377768 0)
(0.0997059 -0.0112848 0)
(0.0991607 -0.0187416 0)
(0.0983292 -0.0261303 0)
(0.0972245 -0.0334237 0)
(0.0958591 -0.0406008 0)
(0.0942448 -0.0476457 0)
(0.0923965 -0.0545446 0)
(0.090335 -0.0612861 0)
(0.0880881 -0.0678629 0)
(0.0856926 -0.0742732 0)
(0.0831951 -0.0805226 0)
(0.0806528 -0.0866264 0)
(0.0781309 -0.0926104 0)
(0.0756982 -0.0985118 0)
(0.0734174 -0.104375 0)
(0.0713332 -0.110249 0)
(0.069459 -0.116173 0)
(0.0677677 -0.122175 0)
(0.0661899 -0.128256 0)
(0.0646228 -0.134396 0)
(0.0629458 -0.140552 0)
(0.0610386 -0.146669 0)
(0.058797 -0.152683 0)
(0.0561412 -0.158534 0)
(0.0530187 -0.164163 0)
(0.049402 -0.169524 0)
(0.0452842 -0.174579 0)
(0.0406728 -0.179299 0)
(0.0355855 -0.183668 0)
(0.0300456 -0.187677 0)
(0.0240794 -0.191325 0)
(0.0177138 -0.194619 0)
(0.0109754 -0.19757 0)
(0.00388976 -0.200195 0)
(-0.00351771 -0.202514 0)
(-0.0112248 -0.204549 0)
(-0.0192126 -0.206325 0)
(-0.027464 -0.207867 0)
(-0.0359636 -0.209198 0)
(-0.0446974 -0.210343 0)
(-0.0536529 -0.211323 0)
(-0.0628185 -0.212157 0)
(-0.0721831 -0.212862 0)
(-0.0817359 -0.21345 0)
(-0.0914661 -0.213934 0)
(-0.101362 -0.214318 0)
(-0.111411 -0.214607 0)
(-0.121599 -0.214801 0)
(-0.13191 -0.214895 0)
(-0.142326 -0.214883 0)
(-0.152822 -0.214752 0)
(-0.163373 -0.214488 0)
(-0.173946 -0.214075 0)
(-0.1845 -0.213491 0)
(-0.194983 -0.212711 0)
(-0.205301 -0.21171 0)
(-0.215363 -0.210458 0)
(-0.225153 -0.208933 0)
(-0.234813 -0.207125 0)
(-0.243904 -0.205015 0)
(-0.248782 -0.202593 0)
(-0.246659 -0.19898 0)
(-0.238941 -0.194305 0)
(-0.229164 -0.189013 0)
(-0.218534 -0.183212 0)
(-0.20717 -0.176901 0)
(-0.195114 -0.170091 0)
(-0.182496 -0.162826 0)
(-0.169472 -0.155168 0)
(-0.156204 -0.147199 0)
(-0.142851 -0.13902 0)
(-0.129589 -0.130747 0)
(-0.116677 -0.122521 0)
(-0.104509 -0.114514 0)
(-0.0935723 -0.106919 0)
(-0.0843673 -0.0999377 0)
(-0.0773128 -0.0937339 0)
(-0.0726217 -0.0883863 0)
(-0.0702077 -0.083842 0)
(-0.0697041 -0.0799253 0)
(-0.0705987 -0.0764046 0)
(-0.0723898 -0.0730669 0)
(-0.0746794 -0.0697588 0)
(-0.0771918 -0.0663868 0)
(-0.0797546 -0.0629021 0)
(-0.0822678 -0.0592832 0)
(-0.0846755 -0.0555244 0)
(-0.0869458 -0.0516282 0)
(-0.0890599 -0.0476012 0)
(-0.0910057 -0.0434521 0)
(-0.0927748 -0.0391903 0)
(-0.0943608 -0.0348256 0)
(-0.0957585 -0.030368 0)
(-0.0969639 -0.025828 0)
(-0.0979738 -0.0212156 0)
(-0.0987844 -0.0165402 0)
(-0.0993894 -0.0118229 0)
(-0.0997832 -0.0071018 0)
(-0.0999861 -0.00238246 0)
(0.0999816 -0.00342122 0)
(0.099705 -0.0102202 0)
(0.0991582 -0.016974 0)
(0.0983242 -0.0236663 0)
(0.0972162 -0.0302724 0)
(0.0958468 -0.0367731 0)
(0.094228 -0.0431538 0)
(0.0923747 -0.0494022 0)
(0.0903081 -0.055508 0)
(0.0880561 -0.0614644 0)
(0.0856558 -0.0672701 0)
(0.0831541 -0.0729304 0)
(0.0806083 -0.0784592 0)
(0.0780841 -0.0838805 0)
(0.0756501 -0.0892281 0)
(0.0733692 -0.0945432 0)
(0.0712856 -0.0998691 0)
(0.0694121 -0.105244 0)
(0.0677209 -0.11069 0)
(0.0661416 -0.116211 0)
(0.0645703 -0.121789 0)
(0.0628856 -0.127384 0)
(0.0609666 -0.132946 0)
(0.0587082 -0.138418 0)
(0.0560303 -0.143744 0)
(0.0528799 -0.148874 0)
(0.0492293 -0.153764 0)
(0.0450707 -0.158378 0)
(0.0404115 -0.162694 0)
(0.0352686 -0.166693 0)
(0.029665 -0.170369 0)
(0.0236262 -0.17372 0)
(0.0171787 -0.176751 0)
(0.0103487 -0.179473 0)
(0.00316164 -0.181901 0)
(-0.00435785 -0.184052 0)
(-0.0121878 -0.185945 0)
(-0.0203094 -0.187602 0)
(-0.0287056 -0.189046 0)
(-0.0373609 -0.190296 0)
(-0.0462612 -0.191375 0)
(-0.0553937 -0.192299 0)
(-0.064746 -0.193087 0)
(-0.0743065 -0.193751 0)
(-0.0840636 -0.194304 0)
(-0.094005 -0.194753 0)
(-0.104118 -0.195105 0)
(-0.114388 -0.19536 0)
(-0.124799 -0.195519 0)
(-0.135333 -0.195576 0)
(-0.145968 -0.195524 0)
(-0.156678 -0.195353 0)
(-0.167432 -0.195048 0)
(-0.178193 -0.194593 0)
(-0.188917 -0.193968 0)
(-0.199539 -0.193152 0)
(-0.20997 -0.192118 0)
(-0.220094 -0.190833 0)
(-0.229936 -0.18927 0)
(-0.239649 -0.187394 0)
(-0.248653 -0.18517 0)
(-0.252801 -0.182623 0)
(-0.24936 -0.179087 0)
(-0.240762 -0.174792 0)
(-0.230619 -0.169919 0)
(-0.219703 -0.164539 0)
(-0.20803 -0.158684 0)
(-0.195667 -0.15239 0)
(-0.182756 -0.145707 0)
(-0.169468 -0.138696 0)
(-0.155968 -0.131437 0)
(-0.142422 -0.124022 0)
(-0.129018 -0.116557 0)
(-0.116038 -0.109172 0)
(-0.103895 -0.102021 0)
(-0.0930807 -0.0952768 0)
(-0.0840859 -0.089112 0)
(-0.077298 -0.0836625 0)
(-0.0728819 -0.0789799 0)
(-0.0707011 -0.0749979 0)
(-0.0703572 -0.0715487 0)
(-0.071333 -0.0684251 0)
(-0.0731408 -0.0654443 0)
(-0.0754026 -0.0624779 0)
(-0.077861 -0.059449 0)
(-0.0803568 -0.0563181 0)
(-0.0827985 -0.0530681 0)
(-0.0851349 -0.0496948 0)
(-0.0873367 -0.0462007 0)
(-0.0893867 -0.0425915 0)
(-0.0912735 -0.0388748 0)
(-0.0929891 -0.0350589 0)
(-0.0945274 -0.0311521 0)
(-0.0958834 -0.0271632 0)
(-0.097053 -0.0231014 0)
(-0.0980332 -0.0189753 0)
(-0.09882 -0.0147934 0)
(-0.0994072 -0.0105744 0)
(-0.0997895 -0.00635198 0)
(-0.0999864 -0.00213086 0)
(0.0999815 -0.00306384 0)
(0.0997043 -0.00915285 0)
(0.0991562 -0.0152016 0)
(0.0983201 -0.0211955 0)
(0.0972093 -0.0271123 0)
(0.0958364 -0.0329347 0)
(0.0942135 -0.0386497 0)
(0.0923558 -0.0442461 0)
(0.0902843 -0.0497147 0)
(0.0880274 -0.0550497 0)
(0.0856222 -0.0602497 0)
(0.0831159 -0.0653197 0)
(0.0805659 -0.0702725 0)
(0.0780381 -0.0751297 0)
(0.0756013 -0.0799219 0)
(0.0733182 -0.0846863 0)
(0.0712329 -0.0894622 0)
(0.0693576 -0.0942833 0)
(0.0676636 -0.0991709 0)
(0.0660797 -0.104128 0)
(0.064501 -0.109137 0)
(0.0628054 -0.114164 0)
(0.0608712 -0.119164 0)
(0.058593 -0.124085 0)
(0.0558902 -0.128878 0)
(0.0527097 -0.133497 0)
(0.0490233 -0.137903 0)
(0.0448231 -0.142065 0)
(0.040116 -0.14596 0)
(0.0349186 -0.149574 0)
(0.0292535 -0.1529 0)
(0.0231458 -0.155936 0)
(0.0166218 -0.158687 0)
(0.00970717 -0.161162 0)
(0.00242735 -0.163374 0)
(-0.00519345 -0.165336 0)
(-0.0131335 -0.167068 0)
(-0.021374 -0.168588 0)
(-0.0298979 -0.169914 0)
(-0.0386895 -0.171065 0)
(-0.0477346 -0.17206 0)
(-0.0570197 -0.172913 0)
(-0.0665322 -0.173639 0)
(-0.0762596 -0.17425 0)
(-0.0861892 -0.174755 0)
(-0.0963079 -0.175162 0)
(-0.106601 -0.175474 0)
(-0.117054 -0.175692 0)
(-0.127648 -0.175816 0)
(-0.138362 -0.175839 0)
(-0.149172 -0.175756 0)
(-0.160051 -0.175556 0)
(-0.170963 -0.175225 0)
(-0.181869 -0.17475 0)
(-0.192718 -0.174113 0)
(-0.203441 -0.173293 0)
(-0.213925 -0.172266 0)
(-0.224073 -0.170999 0)
(-0.233876 -0.169455 0)
(-0.243424 -0.16759 0)
(-0.252051 -0.165361 0)
(-0.255758 -0.162806 0)
(-0.25172 -0.159429 0)
(-0.242495 -0.155519 0)
(-0.231884 -0.151101 0)
(-0.220604 -0.146204 0)
(-0.208617 -0.140871 0)
(-0.195968 -0.135154 0)
(-0.182806 -0.129103 0)
(-0.169298 -0.122781 0)
(-0.155614 -0.116258 0)
(-0.141921 -0.10962 0)
(-0.128417 -0.102964 0)
(-0.115404 -0.0964051 0)
(-0.10331 -0.0900822 0)
(-0.0926298 -0.0841472 0)
(-0.08384 -0.0787479 0)
(-0.0772996 -0.0739951 0)
(-0.0731308 -0.0699203 0)
(-0.0711547 -0.0664512 0)
(-0.0709483 -0.0634319 0)
(-0.0719927 -0.0606798 0)
(-0.0738135 -0.0580393 0)
(-0.0760507 -0.0554033 0)
(-0.0784621 -0.0527084 0)
(-0.0808997 -0.0499227 0)
(-0.0832789 -0.0470325 0)
(-0.0855526 -0.0440347 0)
(-0.0876939 -0.0409317 0)
(-0.0896866 -0.0377285 0)
(-0.0915203 -0.0344318 0)
(-0.0931875 -0.0310486 0)
(-0.0946822 -0.0275861 0)
(-0.0959998 -0.024052 0)
(-0.0971364 -0.0204542 0)
(-0.0980888 -0.0168001 0)