/*--------------------------------*- C++ -*----------------------------------*\
  =========                 |
  \\      /  F ield         | OpenFOAM: The Open Source CFD Toolbox
   \\    /   O peration     | Website:  https://openfoam.org
    \\  /    A nd           | Version:  8
     \\/     M anipulation  |
\*---------------------------------------------------------------------------*/
FoamFile
{
    version     2.0;
    format      ascii;
    class       volScalarField;
    location    "0.3/fluid";
    object      CH4;
}
// * * * * * * * * * * * * * * * * * * * * * * * * * * * * * * * * * * * * * //

dimensions      [0 0 0 0 0 0 0];

internalField   nonuniform List<scalar> 
4000
(
0.999997
0.999986
0.999969
0.999939
0.99989
0.999808
0.999672
0.99945
0.999091
0.998517
0.99761
0.996205
0.994066
0.990884
0.986276
0.979799
0.970986
0.959409
0.944738
0.926791
0.905559
0.881189
0.853957
0.824225
0.792408
0.758941
0.724259
0.688782
0.652785
0.616594
0.580677
0.545283
0.510627
0.476895
0.444233
0.41276
0.382567
0.353718
0.32625
0.300179
0.275506
0.252215
0.230278
0.209658
0.190312
0.172189
0.155237
0.139399
0.124619
0.110841
0.0980088
0.0860681
0.0749676
0.0646592
0.0550997
0.0462519
0.0380876
0.030683
0.0240231
0.0178654
0.0124699
0.00797361
0.00462725
0.00264553
0.00147991
0.000805195
0.00042366
0.000214273
0.000103466
4.73885e-05
2.04425e-05
8.28662e-06
3.28659e-06
1.62663e-06
1.13734e-06
8.75979e-07
6.53327e-07
4.61929e-07
3.0651e-07
1.89458e-07
1.08853e-07
5.83897e-08
2.95046e-08
1.42486e-08
6.6726e-09
3.04883e-09
1.36522e-09
6.01113e-10
2.60952e-10
1.11941e-10
4.75385e-11
2.00169e-11
8.36663e-12
3.47361e-12
1.43185e-12
5.84281e-13
2.33859e-13
8.93813e-14
2.98709e-14
5.23827e-15
0.999997
0.999986
0.999969
0.999939
0.99989
0.999808
0.999672
0.99945
0.999091
0.998517
0.997614
0.996216
0.994096
0.990954
0.986417
0.980049
0.971396
0.96003
0.945618
0.927964
0.907038
0.882965
0.855999
0.826489
0.794834
0.761463
0.726807
0.691201
0.655047
0.618929
0.582982
0.547493
0.512702
0.478808
0.445972
0.414319
0.383945
0.354919
0.327281
0.30105
0.276226
0.252796
0.230732
0.209997
0.190547
0.172332
0.155297
0.139387
0.124544
0.110712
0.0978325
0.0858522
0.0747184
0.0643824
0.0548005
0.0459352
0.0377583
0.0303695
0.023712
0.017564
0.0121947
0.00774801
0.00448819
0.0025599
0.00142771
0.00077394
0.000405395
0.000203921
9.78126e-05
4.44469e-05
1.89974e-05
7.63486e-06
3.05046e-06
1.60534e-06
1.14638e-06
8.73438e-07
6.4208e-07
4.47506e-07
2.92861e-07
1.78851e-07
1.01896e-07
5.44749e-08
2.75798e-08
1.33838e-08
6.30941e-09
2.90426e-09
1.3101e-09
5.8077e-10
2.53591e-10
1.09288e-10
4.65702e-11
1.96533e-11
8.22487e-12
3.41628e-12
1.40803e-12
5.74286e-13
2.29718e-13
8.77472e-14
2.93107e-14
5.13997e-15
0.999997
0.999986
0.999969
0.999939
0.99989
0.999807
0.999671
0.999449
0.999089
0.998516
0.997615
0.996223
0.994118
0.991004
0.986513
0.980223
0.971687
0.960486
0.946286
0.928889
0.90825
0.88448
0.857815
0.828582
0.797168
0.763988
0.729429
0.693839
0.6579
0.621762
0.585753
0.550162
0.515235
0.481179
0.448159
0.416308
0.385728
0.356492
0.328646
0.302212
0.277194
0.253578
0.231341
0.210445
0.190848
0.172498
0.155341
0.139323
0.124385
0.110469
0.0975183
0.0854763
0.0742906
0.063912
0.0542958
0.0454042
0.0372078
0.0298484
0.0231842
0.0170532
0.0117313
0.00737124
0.00425815
0.0024196
0.00134314
0.000723951
0.000376621
0.000187898
8.92518e-05
4.01008e-05
1.69231e-05
6.73104e-06
2.73363e-06
1.53396e-06
1.12673e-06
8.53132e-07
6.20726e-07
4.28115e-07
2.77512e-07
1.68234e-07
9.54436e-08
5.09785e-08
2.58566e-08
1.25827e-08
5.95271e-09
2.75063e-09
1.24566e-09
5.54301e-10
2.42884e-10
1.04995e-10
4.4854e-11
1.89657e-11
7.94783e-12
3.30382e-12
1.36211e-12
5.55531e-13
2.22152e-13
8.48235e-14
2.83216e-14
4.96475e-15
0.999997
0.999986
0.999969
0.999939
0.99989
0.999808
0.999672
0.999451
0.999095
0.998526
0.997634
0.996258
0.994177
0.991102
0.986672
0.980471
0.972057
0.961013
0.947007
0.929833
0.909437
0.885919
0.859501
0.8305
0.799291
0.766279
0.731769
0.696452
0.660536
0.624385
0.588328
0.552653
0.517613
0.483416
0.450234
0.418205
0.387435
0.358002
0.329956
0.303323
0.278111
0.254309
0.231894
0.210831
0.191077
0.172583
0.155298
0.139163
0.124122
0.110115
0.0970853
0.0849766
0.0737359
0.0633139
0.0536664
0.0447565
0.0365574
0.0292668
0.0224646
0.0163953
0.0111526
0.00690949
0.00398
0.00225223
0.00124362
0.000665964
0.000343754
0.000169901
7.98335e-05
3.54225e-05
1.47475e-05
5.81851e-06
2.44536e-06
1.46796e-06
1.09836e-06
8.25911e-07
5.94967e-07
4.05976e-07
2.60369e-07
1.56347e-07
8.80571e-08
4.68245e-08
2.37093e-08
1.15426e-08
5.46971e-09
2.53353e-09
1.15058e-09
5.13534e-10
2.25711e-10
9.78664e-11
4.19292e-11
1.77762e-11
7.46704e-12
3.11033e-12
1.28453e-12
5.24617e-13
2.10013e-13
8.02478e-14
2.68034e-14
4.69931e-15
0.999997
0.999987
0.999969
0.99994
0.99989
0.999809
0.999674
0.999455
0.999101
0.998537
0.997653
0.996291
0.994233
0.991193
0.986816
0.980691
0.97238
0.961471
0.947628
0.930641
0.910451
0.887145
0.860938
0.832137
0.801109
0.768228
0.733955
0.698681
0.662786
0.626628
0.590532
0.55479
0.519655
0.485339
0.452017
0.419832
0.388894
0.359286
0.33106
0.304248
0.278858
0.254883
0.232303
0.211082
0.19118
0.172554
0.155146
0.138901
0.12376
0.109667
0.0965617
0.0843897
0.0730972
0.0626347
0.052958
0.0440304
0.0358255
0.0285466
0.0217546
0.0157249
0.0105549
0.00643112
0.00369293
0.00208065
0.00114251
0.000607686
0.000311137
0.000152299
7.07751e-05
3.10078e-05
1.27408e-05
5.00635e-06
2.21702e-06
1.41388e-06
1.06791e-06
7.97274e-07
5.69153e-07
3.84661e-07
2.44412e-07
1.45592e-07
8.1519e-08
4.31985e-08
2.18448e-08
1.0637e-08
5.0458e-09
2.3407e-09
1.06484e-09
4.76117e-10
2.0963e-10
9.10427e-11
3.90638e-11
1.65833e-11
6.97397e-12
2.90778e-12
1.20185e-12
4.91163e-13
1.96715e-13
7.51892e-14
2.51151e-14
4.40309e-15
0.999997
0.999987
0.999969
0.99994
0.999891
0.99981
0.999677
0.99946
0.999109
0.998551
0.997676
0.996329
0.994295
0.99129
0.986965
0.980911
0.972694
0.961902
0.948198
0.931368
0.911345
0.88821
0.86217
0.833523
0.802633
0.76982
0.735675
0.700479
0.664622
0.628466
0.592342
0.556543
0.521325
0.486905
0.453463
0.421143
0.390059
0.360297
0.331914
0.304944
0.279397
0.255271
0.232542
0.211183
0.191155
0.172408
0.154891
0.138548
0.12332
0.10915
0.0959791
0.0837523
0.0724154
0.061919
0.0522188
0.0432784
0.0350825
0.0278193
0.0210516
0.0150675
0.00997278
0.00596876
0.00341754
0.00191756
0.00104739
0.000553483
0.000281182
0.000136359
6.26981e-05
2.71393e-05
1.10179e-05
4.32875e-06
2.03409e-06
1.36563e-06
1.03672e-06
7.69056e-07
5.44465e-07
3.64613e-07
2.29536e-07
1.35588e-07
7.54095e-08
3.97737e-08
2.00563e-08
9.75611e-09
4.62766e-09
2.14804e-09
9.78235e-10
4.37986e-10
1.93135e-10
8.40125e-11
3.61045e-11
1.53503e-11
6.46448e-12
2.69873e-12
1.11665e-12
4.5675e-13
1.83056e-13
6.99989e-14
2.33842e-14
4.09955e-15
0.999997
0.999987
0.999969
0.999941
0.999892
0.999812
0.99968
0.999464
0.999117
0.998565
0.997699
0.996366
0.994353
0.99138
0.9871
0.981108
0.972973
0.962282
0.948697
0.931999
0.912116
0.889122
0.863215
0.83469
0.803895
0.771253
0.73715
0.701984
0.666136
0.629967
0.593808
0.557952
0.522659
0.488146
0.454596
0.422157
0.390946
0.361051
0.332532
0.305425
0.279744
0.255484
0.23263
0.211155
0.191016
0.172167
0.154557
0.13813
0.122828
0.108594
0.0953694
0.0830979
0.0717259
0.0612035
0.0514867
0.0425392
0.034369
0.0271254
0.0203867
0.0144511
0.0094321
0.00554438
0.00316785
0.00177133
0.000963004
0.00050591
0.000255179
0.000122686
5.58591e-05
2.39123e-05
9.60995e-06
3.8021e-06
1.92191e-06
1.33726e-06
1.01242e-06
7.44617e-07
5.22355e-07
3.46553e-07
2.16215e-07
1.26718e-07
7.00455e-08
3.6788e-08
1.85027e-08
8.99086e-09
4.26345e-09
1.97941e-09
9.01934e-10
4.04131e-10
1.78366e-10
7.7663e-11
3.34088e-11
1.4218e-11
5.99319e-12
2.50411e-12
1.0369e-12
4.24391e-13
1.70165e-13
6.50859e-14
2.17427e-14
3.81148e-15
0.999997
0.999987
0.99997
0.999941
0.999893
0.999814
0.999683
0.999469
0.999125
0.998578
0.997721
0.9964
0.994407
0.991464
0.987224
0.981287
0.973223
0.962618
0.949133
0.932546
0.912779
0.8899
0.864103
0.835677
0.804941
0.772385
0.738336
0.703198
0.667355
0.631171
0.594975
0.559065
0.523701
0.489104
0.45546
0.422916
0.391593
0.361583
0.332947
0.305723
0.279926
0.255556
0.232598
0.211023
0.190791
0.171857
0.15417
0.137674
0.122312
0.108027
0.0947597
0.0824539
0.0710559
0.0605157
0.0507895
0.0418413
0.0337067
0.026487
0.0197819
0.0138998
0.00896321
0.00520281
0.00296492
0.00165178
0.000893829
0.000466903
0.000233906
0.00011155
5.03276e-05
2.13266e-05
8.49726e-06
3.39572e-06
1.81727e-06
1.3014e-06
9.83695e-07
7.19024e-07
5.00758e-07
3.29647e-07
2.04086e-07
1.18788e-07
6.52999e-08
3.41582e-08
1.71341e-08
8.31549e-09
3.94097e-09
1.82953e-09
8.33848e-10
3.73807e-10
1.6509e-10
7.19373e-11
3.09712e-11
1.31918e-11
5.56518e-12
2.32707e-12
9.64251e-13
3.94879e-13
1.58396e-13
6.05971e-14
2.02419e-14
3.54815e-15
0.999997
0.999987
0.99997
0.999941
0.999894
0.999815
0.999685
0.999474
0.999133
0.99859
0.99774
0.996432
0.994456
0.991538
0.987334
0.981445
0.973441
0.96291
0.949509
0.933014
0.913341
0.890557
0.864849
0.836506
0.805874
0.773345
0.739316
0.704185
0.668336
0.632128
0.595894
0.559931
0.524502
0.48983
0.4561
0.423465
0.392046
0.361937
0.333201
0.305877
0.279983
0.255522
0.232476
0.210817
0.190509
0.171505
0.153756
0.137205
0.121796
0.107471
0.0941709
0.0818399
0.0704239
0.059873
0.0501435
0.0411999
0.0331096
0.025915
0.0192459
0.0134202
0.00857063
0.00494667
0.00280956
0.0015589
0.000839537
0.000436092
0.000217042
0.000102742
4.59626e-05
1.92979e-05
7.63553e-06
3.09413e-06
1.73405e-06
1.26726e-06
9.56068e-07
6.95263e-07
4.8125e-07
3.14686e-07
1.93522e-07
1.11961e-07
6.12473e-08
3.19223e-08
1.59721e-08
7.74163e-09
3.66633e-09
1.70147e-09
7.75446e-10
3.47684e-10
1.53604e-10
6.69626e-11
2.88448e-11
1.22932e-11
5.1892e-12
2.17111e-12
9.00097e-13
3.68764e-13
1.47965e-13
5.66139e-14
1.89098e-14
3.31422e-15
0.999997
0.999987
0.99997
0.999942
0.999895
0.999816
0.999688
0.999478
0.999139
0.998601
0.997758
0.99646
0.994499
0.991603
0.98743
0.981581
0.973629
0.963159
0.949829
0.933409
0.913814
0.891103
0.86546
0.837157
0.806589
0.774102
0.740096
0.704971
0.669111
0.632879
0.596607
0.560596
0.525107
0.490367
0.456563
0.423847
0.392346
0.362152
0.333331
0.305923
0.27995
0.255411
0.232292
0.210566
0.190195
0.171136
0.153337
0.136743
0.121297
0.106941
0.0936176
0.0812688
0.0698412
0.059285
0.0495566
0.0406213
0.03258
0.0254094
0.0187752
0.0130035
0.0082367
0.00474197
0.00268514
0.00148438
0.000795937
0.000411351
0.000203519
9.56997e-05
4.24888e-05
1.76946e-05
6.96399e-06
2.8706e-06
1.67508e-06
1.2404e-06
9.33266e-07
6.7536e-07
4.64807e-07
3.02054e-07
1.84609e-07
1.06211e-07
5.7836e-08
3.00389e-08
1.49913e-08
7.256e-09
3.43322e-09
1.59242e-09
7.2556e-10
3.25304e-10
1.43735e-10
6.2677e-11
2.70085e-11
1.15155e-11
4.86319e-12
2.03566e-12
8.44302e-13
3.46027e-13
1.38874e-13
5.31396e-14
1.77506e-14
3.11065e-15
0.999997
0.999987
0.99997
0.999942
0.999895
0.999818
0.99969
0.999481
0.999145
0.998611
0.997774
0.996484
0.994537
0.99166
0.987513
0.981698
0.973789
0.963371
0.9501
0.933743
0.914213
0.891566
0.865988
0.837745
0.807197
0.774725
0.740725
0.705596
0.669721
0.633463
0.597156
0.561098
0.525556
0.490756
0.456886
0.424102
0.392529
0.362263
0.333371
0.305895
0.279855
0.255252
0.232073
0.210292
0.189872
0.170768
0.15293
0.136302
0.120829
0.10645
0.0931093
0.0807484
0.0693138
0.0587557
0.0490307
0.0401046
0.0321121
0.0249646
0.0183628
0.0126401
0.00794742
0.00456737
0.00257993
0.00142184
0.000759589
0.000390854
0.000192384
8.994e-05
3.96683e-05
1.64051e-05
6.43476e-06
2.7098e-06
1.63553e-06
1.22077e-06
9.15439e-07
6.59262e-07
4.51253e-07
2.9154e-07
1.77161e-07
1.014e-07
5.49808e-08
2.84616e-08
1.41688e-08
6.84804e-09
3.23698e-09
1.50042e-09
6.83368e-10
3.0633e-10
1.3535e-10
5.90272e-11
2.54414e-11
1.08506e-11
4.58395e-12
1.91946e-12
7.96386e-13
3.26486e-13
1.31058e-13
5.01551e-14
1.67545e-14
2.93604e-15
0.999997
0.999987
0.999971
0.999943
0.999896
0.999819
0.999692
0.999484
0.99915
0.998619
0.997787
0.996505
0.994569
0.991708
0.987583
0.981797
0.973924
0.963548
0.950324
0.934016
0.914534
0.891931
0.866388
0.838188
0.807669
0.775214
0.74122
0.706086
0.670196
0.633912
0.597571
0.561472
0.525883
0.491029
0.457103
0.424261
0.392627
0.362301
0.33335
0.305816
0.279721
0.255066
0.231839
0.210014
0.189554
0.170416
0.152547
0.135894
0.1204
0.106005
0.0926522
0.0802835
0.0688451
0.0582872
0.0485668
0.0396501
0.0317048
0.0245767
0.0180033
0.0123237
0.00769616
0.00441647
0.00248953
0.00136843
0.000728746
0.000373578
0.000183066
8.51552e-05
3.73439e-05
1.53525e-05
6.00945e-06
2.58683e-06
1.6065e-06
1.20535e-06
9.00973e-07
6.45961e-07
4.39928e-07
2.82709e-07
1.70896e-07
9.73549e-08
5.25825e-08
2.71372e-08
1.34781e-08
6.50522e-09
3.07191e-09
1.42293e-09
6.4779e-10
2.90309e-10
1.28259e-10
5.59372e-11
2.4113e-11
1.02862e-11
4.34667e-12
1.82063e-12
7.55594e-13
3.09841e-13
1.244e-13
4.7613e-14
1.59061e-14
2.78736e-15
0.999997
0.999987
0.999971
0.999943
0.999897
0.99982
0.999693
0.999487
0.999155
0.998626
0.997798
0.996523
0.994597
0.991749
0.987642
0.98188
0.974036
0.963695
0.950509
0.934242
0.9148
0.892232
0.866716
0.838545
0.808047
0.775602
0.74161
0.706467
0.670561
0.634254
0.597882
0.561746
0.526115
0.491216
0.457242
0.424349
0.392665
0.36229
0.333289
0.305708
0.279568
0.254871
0.231606
0.209746
0.189255
0.17009
0.152198
0.135527
0.120017
0.105611
0.0922504
0.0798772
0.0684373
0.0578809
0.0481644
0.0392541
0.0313485
0.0242376
0.0176889
0.0120473
0.00747716
0.00428534
0.00241131
0.00132246
0.000702359
0.000358894
0.000175202
8.11474e-05
3.54131e-05
1.44877e-05
5.66968e-06
2.5049e-06
1.58906e-06
1.1944e-06
8.89399e-07
6.34848e-07
4.30322e-07
2.75194e-07
1.65577e-07
9.3933e-08
5.05607e-08
2.60237e-08
1.28984e-08
6.21774e-09
2.93352e-09
1.35796e-09
6.17948e-10
2.76864e-10
1.22304e-10
5.334e-11
2.29954e-11
9.81105e-12
4.14674e-12
1.73729e-12
7.21176e-13
2.9579e-13
1.18778e-13
4.54657e-14
1.51894e-14
2.66177e-15
0.999997
0.999987
0.999971
0.999943
0.999897
0.99982
0.999695
0.999489
0.999158
0.998632
0.997808
0.996538
0.994619
0.991782
0.98769
0.981948
0.974128
0.963816
0.950662
0.934428
0.915019
0.892485
0.867
0.838842
0.808352
0.77591
0.741915
0.706763
0.67084
0.634511
0.598111
0.561944
0.526276
0.491339
0.457324
0.42439
0.392665
0.362247
0.333207
0.305587
0.279411
0.254681
0.231385
0.209498
0.188983
0.169797
0.151889
0.135204
0.119684
0.105271
0.0919067
0.0795326
0.0680946
0.0575421
0.0478313
0.0389272
0.0310529
0.02394
0.0174094
0.011802
0.00728388
0.00417016
0.00234303
0.00128263
0.000679664
0.000346364
0.000168545
7.77821e-05
3.38047e-05
1.37721e-05
5.38673e-06
2.42567e-06
1.56797e-06
1.18115e-06
8.77424e-07
6.24291e-07
4.21617e-07
2.68578e-07
1.60981e-07
9.10153e-08
4.88524e-08
2.50886e-08
1.24135e-08
5.97783e-09
2.8182e-09
1.30387e-09
5.93109e-10
2.65672e-10
1.17347e-10
5.11768e-11
2.20642e-11
9.41488e-12
3.97995e-12
1.66773e-12
6.92434e-13
2.84051e-13
1.1408e-13
4.3671e-14
1.45903e-14
2.55681e-15
0.999997
0.999987
0.999971
0.999943
0.999897
0.999821
0.999696
0.999491
0.999161
0.998637
0.997816
0.99655
0.994637
0.99181
0.98773
0.982003
0.974202
0.963913
0.950783
0.934575
0.915191
0.892678
0.867213
0.839068
0.808587
0.776147
0.742148
0.706987
0.67105
0.634701
0.598277
0.562083
0.526385
0.491416
0.457367
0.424399
0.392639
0.362188
0.333116
0.305465
0.27926
0.254504
0.231185
0.209277
0.188744
0.169543
0.151622
0.134928
0.119402
0.104985
0.0916203
0.0792491
0.0678175
0.0572761
0.0475825
0.0387049
0.0308887
0.0235987
0.0171278
0.0115718
0.00710937
0.00406815
0.0022835
0.00124833
0.000660334
0.000335794
0.000162979
7.4991e-05
3.24813e-05
1.31877e-05
5.15719e-06
2.36036e-06
1.54865e-06
1.1684e-06
8.66339e-07
6.14848e-07
4.14022e-07
2.62909e-07
1.57096e-07
8.85736e-08
4.74331e-08
2.43156e-08
1.20139e-08
5.78055e-09
2.72348e-09
1.25946e-09
5.72723e-10
2.56487e-10
1.13277e-10
4.94002e-11
2.1299e-11
9.08922e-12
3.84278e-12
1.61049e-12
6.68773e-13
2.74383e-13
1.1021e-13
4.21923e-14
1.40967e-14
2.47033e-15
0.999997
0.999987
0.999971
0.999944
0.999898
0.999822
0.999696
0.999493
0.999164
0.998641
0.997822
0.99656
0.994652
0.991831
0.987761
0.982046
0.974261
0.963989
0.950878
0.934689
0.915322
0.892824
0.867374
0.839241
0.808765
0.776327
0.742324
0.707154
0.671204
0.634839
0.598395
0.562178
0.526456
0.49146
0.457385
0.424389
0.392602
0.362125
0.333026
0.305352
0.279125
0.254348
0.231011
0.209087
0.18854
0.169328
0.151398
0.134697
0.119167
0.104749
0.0913835
0.0790142
0.0675865
0.0570506
0.0473637
0.0384932
0.0306831
0.0233887
0.0169309
0.0113998
0.00697462
0.00398824
0.00223642
0.00122106
0.000644929
0.000327364
0.000158544
7.27719e-05
3.14323e-05
1.27267e-05
4.97813e-06
2.31182e-06
1.53396e-06
1.15822e-06
8.57346e-07
6.0715e-07
4.0783e-07
2.58298e-07
1.53946e-07
8.66003e-08
4.62896e-08
2.36939e-08
1.1693e-08
5.62214e-09
2.64743e-09
1.2238e-09
5.56349e-10
2.49106e-10
1.10005e-10
4.79715e-11
2.06834e-11
8.82706e-12
3.7323e-12
1.56437e-12
6.497e-13
2.66588e-13
1.07088e-13
4.09998e-14
1.36986e-14
2.40058e-15
0.999997
0.999987
0.999971
0.999944
0.999898
0.999822
0.999697
0.999494
0.999166
0.998644
0.997827
0.996567
0.994663
0.991848
0.987785
0.98208
0.974306
0.964047
0.950951
0.934777
0.915425
0.892941
0.867499
0.839372
0.808899
0.77646
0.742453
0.707275
0.671315
0.634936
0.598476
0.562241
0.5265
0.491484
0.457387
0.42437
0.392563
0.362065
0.332947
0.305255
0.27901
0.254219
0.230867
0.208932
0.188375
0.169154
0.151219
0.134513
0.118979
0.104559
0.0911941
0.0788259
0.0674004
0.0568677
0.0471849
0.038319
0.0305149
0.0232285
0.0167831
0.0112706
0.00687295
0.00392782
0.00220075
0.00120036
0.000633213
0.000320948
0.000155168
7.10835e-05
3.06355e-05
1.23778e-05
4.84447e-06
2.2778e-06
1.5239e-06
1.15094e-06
8.50704e-07
6.01352e-07
4.03112e-07
2.5476e-07
1.51519e-07
8.50759e-08
4.54043e-08
2.32119e-08
1.14438e-08
5.49908e-09
2.58833e-09
1.19608e-09
5.43616e-10
2.43365e-10
1.07459e-10
4.68594e-11
2.0204e-11
8.62285e-12
3.64622e-12
1.52843e-12
6.34831e-13
2.6051e-13
1.04654e-13
4.00696e-14
1.33881e-14
2.34618e-15
0.999997
0.999987
0.999971
0.999944
0.999898
0.999822
0.999698
0.999494
0.999167
0.998646
0.99783
0.996572
0.994671
0.99186
0.987802
0.982104
0.974338
0.964089
0.951003
0.93484
0.915498
0.893023
0.867588
0.839464
0.808993
0.776553
0.742543
0.70736
0.671391
0.635002
0.59853
0.562282
0.526526
0.491495
0.457383
0.42435
0.392527
0.362015
0.332883
0.305177
0.278921
0.254118
0.230758
0.208813
0.18825
0.169023
0.151083
0.134374
0.118839
0.104418
0.091052
0.0786846
0.0672607
0.0567304
0.0470508
0.038189
0.0303906
0.0231113
0.0166757
0.011177
0.00679941
0.00388418
0.00217501
0.00118543
0.00062477
0.000316326
0.000152738
6.98694e-05
3.00633e-05
1.21278e-05
4.74935e-06
2.25498e-06
1.51769e-06
1.14626e-06
8.46223e-07
5.97329e-07
3.99782e-07
2.52237e-07
1.49776e-07
8.39735e-08
4.47598e-08
2.28593e-08
1.1261e-08
5.40874e-09
2.54492e-09
1.17572e-09
5.34262e-10
2.39147e-10
1.05589e-10
4.60421e-11
1.98516e-11
8.47269e-12
3.58291e-12
1.50198e-12
6.23892e-13
2.56038e-13
1.02863e-13
3.93854e-14
1.31597e-14
2.30617e-15
0.999997
0.999987
0.999971
0.999944
0.999898
0.999823
0.999698
0.999495
0.999168
0.998648
0.997832
0.996576
0.994677
0.991868
0.987813
0.982119
0.974359
0.964116
0.951037
0.93488
0.915544
0.893075
0.867644
0.839523
0.809053
0.776612
0.742599
0.707412
0.671438
0.635042
0.598563
0.562305
0.52654
0.491499
0.457377
0.424334
0.392501
0.361979
0.332838
0.305124
0.27886
0.25405
0.230683
0.208734
0.188166
0.168936
0.150993
0.134281
0.118745
0.104323
0.0909574
0.0785906
0.0671678
0.0566392
0.0469618
0.038103
0.0303086
0.0230343
0.0166054
0.0111159
0.00675145
0.00385576
0.00215828
0.00117573
0.000619291
0.000313331
0.000151164
6.90841e-05
2.96936e-05
1.19668e-05
4.68864e-06
2.24113e-06
1.5144e-06
1.14364e-06
8.4357e-07
5.94867e-07
3.97707e-07
2.5065e-07
1.48672e-07
8.32702e-08
4.43451e-08
2.2631e-08
1.11422e-08
5.3499e-09
2.51662e-09
1.16244e-09
5.28158e-10
2.36394e-10
1.04368e-10
4.55085e-11
1.96215e-11
8.37459e-12
3.54152e-12
1.48469e-12
6.16734e-13
2.53111e-13
1.0169e-13
3.89372e-14
1.30101e-14
2.27995e-15
0.999997
0.999987
0.999971
0.999944
0.999898
0.999823
0.999698
0.999495
0.999168
0.998648
0.997833
0.996578
0.994679
0.991871
0.987819
0.982127
0.974369
0.964129
0.951053
0.934899
0.915566
0.893099
0.86767
0.839551
0.809081
0.77664
0.742626
0.707437
0.67146
0.635061
0.598577
0.562316
0.526546
0.4915
0.457373
0.424325
0.392488
0.361961
0.332815
0.305097
0.278829
0.254016
0.230646
0.208694
0.188124
0.168892
0.150948
0.134236
0.118698
0.104276
0.0909106
0.0785441
0.0671219
0.0565941
0.0469179
0.0380605
0.0302682
0.0229964
0.0165708
0.0110859
0.00672792
0.00384183
0.00215008
0.00117099
0.000616614
0.000311869
0.000150397
6.87019e-05
2.95141e-05
1.18887e-05
4.65945e-06
2.23468e-06
1.51294e-06
1.14247e-06
8.4236e-07
5.93732e-07
3.96746e-07
2.49915e-07
1.48162e-07
8.29459e-08
4.41537e-08
2.25253e-08
1.10869e-08
5.32247e-09
2.50339e-09
1.15622e-09
5.25291e-10
2.35098e-10
1.03791e-10
4.52561e-11
1.95124e-11
8.32796e-12
3.52179e-12
1.47642e-12
6.13302e-13
2.51702e-13
1.01124e-13
3.87203e-14
1.29376e-14
2.26722e-15
0.999997
0.999987
0.999971
0.999944
0.999898
0.999823
0.999698
0.999495
0.999168
0.998648
0.997833
0.996578
0.994679
0.991871
0.987819
0.982127
0.974369
0.964129
0.951053
0.934899
0.915566
0.893099
0.86767
0.839551
0.809081
0.77664
0.742626
0.707437
0.67146
0.635061
0.598577
0.562316
0.526546
0.4915
0.457373
0.424325
0.392488
0.361961
0.332815
0.305097
0.278829
0.254016
0.230646
0.208694
0.188124
0.168892
0.150948
0.134235
0.118698
0.104276
0.0909106
0.078544
0.0671218
0.0565941
0.0469179
0.0380605
0.0302682
0.0229964
0.0165708
0.0110859
0.00672791
0.00384182
0.00215007
0.00117099
0.000616613
0.000311868
0.000150397
6.87019e-05
2.95141e-05
1.18887e-05
4.65944e-06
2.23468e-06
1.51294e-06
1.14247e-06
8.42361e-07
5.93733e-07
3.96747e-07
2.49915e-07
1.48162e-07
8.29459e-08
4.41536e-08
2.25253e-08
1.10869e-08
5.32246e-09
2.50339e-09
1.15621e-09
5.2529e-10
2.35098e-10
1.03791e-10
4.5256e-11
1.95123e-11
8.32793e-12
3.52178e-12
1.47642e-12
6.13299e-13
2.51701e-13
1.01124e-13
3.87201e-14
1.29375e-14
2.26721e-15
0.999997
0.999987
0.999971
0.999944
0.999898
0.999823
0.999698
0.999495
0.999168
0.998648
0.997832
0.996576
0.994677
0.991868
0.987813
0.982119
0.974359
0.964116
0.951037
0.93488
0.915544
0.893075
0.867644
0.839523
0.809053
0.776612
0.742599
0.707412
0.671438
0.635042
0.598563
0.562305
0.52654
0.491499
0.457377
0.424334
0.392501
0.361979
0.332838
0.305124
0.27886
0.25405
0.230683
0.208734
0.188166
0.168936
0.150992
0.134281
0.118745
0.104323
0.0909574
0.0785905
0.0671678
0.0566392
0.0469618
0.0381029
0.0303086
0.0230343
0.0166053
0.0111159
0.00675143
0.00385575
0.00215827
0.00117573
0.000619289
0.00031333
0.000151164
6.90839e-05
2.96935e-05
1.19667e-05
4.68862e-06
2.24112e-06
1.5144e-06
1.14364e-06
8.43573e-07
5.9487e-07
3.97709e-07
2.50651e-07
1.48672e-07
8.32701e-08
4.4345e-08
2.2631e-08
1.11421e-08
5.34987e-09
2.5166e-09
1.16243e-09
5.28154e-10
2.36392e-10
1.04367e-10
4.55081e-11
1.96213e-11
8.37449e-12
3.54148e-12
1.48467e-12
6.16726e-13
2.53107e-13
1.01689e-13
3.89366e-14
1.30099e-14
2.27991e-15
0.999997
0.999987
0.999971
0.999944
0.999898
0.999822
0.999698
0.999494
0.999167
0.998646
0.99783
0.996572
0.994672
0.99186
0.987802
0.982104
0.974338
0.964089
0.951003
0.93484
0.915498
0.893023
0.867588
0.839464
0.808993
0.776553
0.742543
0.70736
0.671391
0.635002
0.59853
0.562282
0.526526
0.491495
0.457383
0.42435
0.392527
0.362015
0.332883
0.305177
0.278921
0.254118
0.230757
0.208813
0.18825
0.169023
0.151083
0.134374
0.118838
0.104417
0.091052
0.0786846
0.0672606
0.0567303
0.0470507
0.0381889
0.0303905
0.0231112
0.0166756
0.011177
0.00679938
0.00388416
0.002175
0.00118542
0.000624766
0.000316325
0.000152737
6.9869e-05
3.00631e-05
1.21278e-05
4.74933e-06
2.25497e-06
1.51768e-06
1.14626e-06
8.46227e-07
5.97333e-07
3.99784e-07
2.52238e-07
1.49776e-07
8.39734e-08
4.47597e-08
2.28592e-08
1.12609e-08
5.40868e-09
2.54489e-09
1.17571e-09
5.34255e-10
2.39144e-10
1.05587e-10
4.60413e-11
1.98513e-11
8.47253e-12
3.58283e-12
1.50195e-12
6.23877e-13
2.56031e-13
1.0286e-13
3.93843e-14
1.31594e-14
2.3061e-15
0.999997
0.999987
0.999971
0.999944
0.999898
0.999822
0.999697
0.999494
0.999166
0.998644
0.997827
0.996567
0.994663
0.991848
0.987785
0.98208
0.974306
0.964047
0.950951
0.934777
0.915425
0.892941
0.867499
0.839372
0.808899
0.77646
0.742453
0.707276
0.671315
0.634936
0.598476
0.562241
0.5265
0.491484
0.457387
0.42437
0.392562
0.362065
0.332947
0.305254
0.27901
0.254219
0.230867
0.208931
0.188375
0.169154
0.151219
0.134513
0.118979
0.104559
0.091194
0.0788258
0.0674003
0.0568676
0.0471848
0.0383189
0.0305148
0.0232285
0.016783
0.0112706
0.00687291
0.0039278
0.00220074
0.00120035
0.000633209
0.000320945
0.000155167
7.1083e-05
3.06353e-05
1.23777e-05
4.84442e-06
2.27778e-06
1.52389e-06
1.15094e-06
8.50707e-07
6.01355e-07
4.03114e-07
2.5476e-07
1.51519e-07
8.50755e-08
4.54039e-08
2.32116e-08
1.14437e-08
5.499e-09
2.58828e-09
1.19606e-09
5.43605e-10
2.43359e-10
1.07457e-10
4.68582e-11
2.02035e-11
8.6226e-12
3.64611e-12
1.52838e-12
6.34809e-13
2.605e-13
1.0465e-13
4.00681e-14
1.33876e-14
2.34608e-15
0.999997
0.999987
0.999971
0.999944
0.999898
0.999822
0.999696
0.999493
0.999164
0.998641
0.997822
0.99656
0.994652
0.991831
0.987761
0.982046
0.974261
0.963989
0.950878
0.934689
0.915322
0.892824
0.867374
0.839241
0.808765
0.776327
0.742324
0.707154
0.671204
0.634839
0.598395
0.562178
0.526456
0.49146
0.457385
0.424389
0.392602
0.362125
0.333026
0.305352
0.279125
0.254348
0.231011
0.209087
0.18854
0.169328
0.151398
0.134697
0.119167
0.104749
0.0913834
0.0790141
0.0675864
0.0570505
0.0473636
0.0384931
0.030683
0.0233886
0.0169308
0.0113998
0.00697457
0.00398821
0.00223641
0.00122105
0.000644923
0.000327361
0.000158543
7.27711e-05
3.1432e-05
1.27265e-05
4.97806e-06
2.3118e-06
1.53395e-06
1.15821e-06
8.57344e-07
6.0715e-07
4.0783e-07
2.58297e-07
1.53945e-07
8.65994e-08
4.62889e-08
2.36935e-08
1.16928e-08
5.62202e-09
2.64736e-09
1.22377e-09
5.56333e-10
2.49099e-10
1.10001e-10
4.79699e-11
2.06827e-11
8.82672e-12
3.73215e-12
1.5643e-12
6.4967e-13
2.66575e-13
1.07083e-13
4.09976e-14
1.36979e-14
2.40045e-15
0.999997
0.999987
0.999971
0.999943
0.999897
0.999821
0.999696
0.999491
0.999161
0.998637
0.997816
0.99655
0.994638
0.99181
0.98773
0.982003
0.974203
0.963913
0.950783
0.934575
0.915191
0.892679
0.867213
0.839069
0.808587
0.776147
0.742148
0.706987
0.67105
0.634701
0.598277
0.562082
0.526385
0.491415
0.457367
0.424399
0.392639
0.362188
0.333115
0.305465
0.27926
0.254504
0.231185
0.209276
0.188744
0.169542
0.151622
0.134927
0.119402
0.104985
0.0916202
0.0792489
0.0678174
0.057276
0.0475824
0.0387049
0.0308886
0.0235986
0.0171277
0.0115717
0.00710932
0.00406812
0.00228348
0.00124832
0.000660328
0.00033579
0.000162977
7.499e-05
3.24808e-05
1.31874e-05
5.1571e-06
2.36032e-06
1.54863e-06
1.16839e-06
8.66328e-07
6.14839e-07
4.14015e-07
2.62905e-07
1.57093e-07
8.85718e-08
4.7432e-08
2.43149e-08
1.20136e-08
5.78038e-09
2.72339e-09
1.25942e-09
5.72702e-10
2.56477e-10
1.13272e-10
4.93981e-11
2.12981e-11
9.08877e-12
3.84258e-12
1.6104e-12
6.68734e-13
2.74367e-13
1.10203e-13
4.21896e-14
1.40958e-14
2.47016e-15
0.999997
0.999987
0.999971
0.999943
0.999897
0.99982
0.999695
0.999489
0.999158
0.998632
0.997808
0.996538
0.994619
0.991782
0.98769
0.981948
0.974128
0.963816
0.950662
0.934428
0.91502
0.892485
0.867
0.838842
0.808352
0.77591
0.741915
0.706763
0.67084
0.634511
0.598111
0.561944
0.526276
0.491339
0.457324
0.42439
0.392664
0.362247
0.333206
0.305587
0.279411
0.254681
0.231385
0.209498
0.188983
0.169797
0.151889
0.135204
0.119684
0.105271
0.0919066
0.0795325
0.0680945
0.057542
0.0478313
0.0389271
0.0310528
0.0239399
0.0174094
0.011802
0.00728384
0.00417013
0.00234302
0.00128261
0.000679657
0.00034636
0.000168543
7.77809e-05
3.38041e-05
1.37718e-05
5.38661e-06
2.42563e-06
1.56794e-06
1.18113e-06
8.77402e-07
6.24273e-07
4.21604e-07
2.6857e-07
1.60976e-07
9.10124e-08
4.88508e-08
2.50877e-08
1.2413e-08
5.9776e-09
2.81809e-09
1.30381e-09
5.93082e-10
2.65659e-10
1.17341e-10
5.1174e-11
2.20629e-11
9.41432e-12
3.9797e-12
1.66762e-12
6.92386e-13
2.8403e-13
1.14071e-13
4.36676e-14
1.45891e-14
2.5566e-15
0.999997
0.999987
0.999971
0.999943
0.999897
0.99982
0.999693
0.999487
0.999155
0.998626
0.997798
0.996523
0.994597
0.991749
0.987642
0.98188
0.974036
0.963696
0.95051
0.934243
0.9148
0.892233
0.866717
0.838546
0.808047
0.775602
0.74161
0.706468
0.670561
0.634254
0.597882
0.561746
0.526115
0.491216
0.457242
0.424349
0.392665
0.362289
0.333289
0.305708
0.279568
0.254871
0.231606
0.209746
0.189255
0.170089
0.152198
0.135526
0.120017
0.105611
0.0922502
0.0798771
0.0684372
0.0578808
0.0481643
0.0392541
0.0313484
0.0242375
0.0176889
0.0120473
0.00747711
0.00428531
0.00241129
0.00132245
0.000702351
0.00035889
0.000175199
8.11459e-05
3.54123e-05
1.44873e-05
5.66954e-06
2.50485e-06
1.58903e-06
1.19437e-06
8.89373e-07
6.34825e-07
4.30305e-07
2.75183e-07
1.6557e-07
9.39293e-08
5.05587e-08
2.60226e-08
1.28978e-08
6.21745e-09
2.93338e-09
1.35789e-09
6.17915e-10
2.76848e-10
1.22297e-10
5.33366e-11
2.29939e-11
9.81036e-12
4.14643e-12
1.73716e-12
7.21118e-13
2.95765e-13
1.18768e-13
4.54617e-14
1.5188e-14
2.66153e-15
0.999997
0.999987
0.999971
0.999943
0.999896
0.999819
0.999692
0.999484
0.99915
0.998619
0.997787
0.996505
0.994569
0.991708
0.987583
0.981798
0.973924
0.963549
0.950324
0.934017
0.914535
0.891932
0.866388
0.838188
0.807669
0.775214
0.741221
0.706086
0.670196
0.633912
0.597571
0.561472
0.525883
0.491029
0.457103
0.42426
0.392627
0.362301
0.33335
0.305816
0.279721
0.255066
0.231839
0.210014
0.189554
0.170415
0.152547
0.135894
0.1204
0.106005
0.092652
0.0802833
0.0688449
0.0582871
0.0485667
0.03965
0.0317047
0.0245767
0.0180032
0.0123236
0.00769611
0.00441643
0.0024895
0.00136842
0.000728737
0.000373573
0.000183063
8.51536e-05
3.73431e-05
1.53521e-05
6.00928e-06
2.58677e-06
1.60647e-06
1.20532e-06
9.00948e-07
6.45939e-07
4.39911e-07
2.82697e-07
1.70889e-07
9.73508e-08
5.25802e-08
2.71359e-08
1.34774e-08
6.50489e-09
3.07174e-09
1.42285e-09
6.4775e-10
2.9029e-10
1.2825e-10
5.59332e-11
2.41111e-11