/*--------------------------------*- C++ -*----------------------------------*\
  =========                 |
  \\      /  F ield         | OpenFOAM: The Open Source CFD Toolbox
   \\    /   O peration     | Website:  https://openfoam.org
    \\  /    A nd           | Version:  8
     \\/     M anipulation  |
\*---------------------------------------------------------------------------*/
FoamFile
{
    version     2.0;
    format      ascii;
    class       volScalarField;
    location    "0.3/fluid";
    object      CO2;
}
// * * * * * * * * * * * * * * * * * * * * * * * * * * * * * * * * * * * * * //

dimensions      [0 0 0 0 0 0 0];

internalField   nonuniform List<scalar> 
4000
(
4.6232e-07
2.02079e-06
4.64392e-06
9.0466e-06
1.64054e-05
2.86372e-05
4.88282e-05
8.18746e-05
0.000135411
0.000221092
0.000356264
0.000565967
0.000885125
0.00135997
0.00204781
0.00301488
0.00433078
0.00605973
0.00825107
0.0109319
0.0141039
0.0177451
0.0218143
0.0262573
0.0310123
0.0360144
0.0411984
0.0465017
0.0518829
0.0572934
0.0626633
0.0679555
0.0731374
0.0781815
0.0830658
0.0877725
0.092288
0.0966028
0.100711
0.10461
0.108301
0.111785
0.115066
0.11815
0.121043
0.123752
0.126286
0.128651
0.130855
0.132905
0.134806
0.136561
0.138172
0.139632
0.140928
0.142037
0.142914
0.14348
0.143631
0.143182
0.141829
0.139076
0.134106
0.126179
0.11668
0.106434
0.0959491
0.0855425
0.0754137
0.0657065
0.0565123
0.0478977
0.0399417
0.0326375
0.025788
0.0197329
0.0144679
0.0100652
0.00657826
0.0040085
0.00227245
0.00120392
0.000601486
0.000287534
0.00013345
6.05e-05
2.69072e-05
1.17778e-05
5.08703e-06
2.17271e-06
9.19272e-07
3.85855e-07
1.6085e-07
6.6633e-08
2.74167e-08
1.11715e-08
4.46645e-09
1.70574e-09
5.69779e-10
9.98982e-11
4.6186e-07
2.01909e-06
4.64132e-06
9.04519e-06
1.64104e-05
2.86581e-05
4.88765e-05
8.19541e-05
0.00013549
0.000221048
0.000355773
0.000564311
0.000880682
0.00134949
0.00202679
0.00297743
0.00426959
0.00596692
0.00811953
0.0107566
0.0138829
0.0174797
0.021509
0.025919
0.0306497
0.0356374
0.0408175
0.04614
0.0515447
0.0569444
0.0623187
0.067625
0.0728272
0.0778954
0.0828057
0.0875394
0.0920819
0.0964231
0.100557
0.10448
0.108193
0.111698
0.114998
0.118099
0.121007
0.123731
0.126276
0.128652
0.130865
0.132923
0.13483
0.136591
0.138204
0.139665
0.140959
0.142062
0.142927
0.14347
0.143585
0.143079
0.14163
0.138723
0.133496
0.125402
0.11579
0.105467
0.094928
0.0844844
0.0743314
0.064615
0.0554253
0.0468337
0.0389311
0.0316704
0.0249222
0.0188897
0.0137046
0.00942444
0.00608674
0.00367016
0.00206621
0.00109275
0.000547991
0.000263746
0.000123468
5.64974e-05
2.53582e-05
1.11938e-05
4.87023e-06
2.09256e-06
8.89443e-07
3.74575e-07
1.56494e-07
6.49139e-08
2.67271e-08
1.08931e-08
4.35526e-09
1.6632e-09
5.55524e-10
9.74189e-11
4.6235e-07
2.02149e-06
4.64804e-06
9.06106e-06
1.64438e-05
2.87214e-05
4.89846e-05
8.21171e-05
0.000135692
0.000221198
0.000355603
0.000563177
0.000877274
0.0013421
0.0020124
0.00295148
0.00422609
0.00589888
0.00801969
0.0106185
0.0137017
0.0172532
0.0212376
0.025606
0.0303008
0.0352601
0.0404255
0.0457457
0.0511182
0.0565208
0.0619044
0.0672259
0.0724484
0.0775409
0.0824787
0.0872419
0.0918153
0.0961878
0.100353
0.104306
0.108048
0.111581
0.114907
0.118032
0.120962
0.123705
0.126269
0.128661
0.130888
0.132957
0.134874
0.136642
0.13826
0.139722
0.141012
0.142104
0.142949
0.143453
0.143511
0.142908
0.141303
0.138142
0.132497
0.124139
0.114358
0.103929
0.0933287
0.0828547
0.0726981
0.0630036
0.0538577
0.0453345
0.0375245
0.0303321
0.023685
0.0178354
0.0128444
0.00876624
0.0056237
0.00337532
0.00189714
0.00100477
0.000505799
0.000244514
0.000115013
5.28813e-05
2.38455e-05
1.0572e-05
4.61791e-06
1.99097e-06
8.48661e-07
3.5819e-07
1.49887e-07
6.22372e-08
2.56389e-08
1.04514e-08
4.17835e-09
1.59531e-09
5.32692e-10
9.33896e-11
4.61155e-07
2.0162e-06
4.63556e-06
9.03554e-06
1.63936e-05
2.8623e-05
4.87897e-05
8.1729e-05
0.000134924
0.000219706
0.00035279
0.000558081
0.000868512
0.00132741
0.00198861
0.00291444
0.00417084
0.00582001
0.00791195
0.0104774
0.0135244
0.0170382
0.0209857
0.0253195
0.0299836
0.0349176
0.0400758
0.045355
0.050724
0.0561286
0.0615195
0.0668534
0.0720928
0.0772064
0.0821683
0.0869582
0.09156
0.095962
0.100157
0.10414
0.107911
0.111471
0.114824
0.117974
0.120928
0.123692
0.126275
0.128684
0.130926
0.133008
0.134936
0.136711
0.138333
0.139795
0.14108
0.142157
0.142975
0.143434
0.143423
0.142703
0.140911
0.137447
0.131304
0.122641
0.112674
0.102138
0.0914856
0.0810001
0.0708686
0.061228
0.0521626
0.0437498
0.0360679
0.0289673
0.0224755
0.0168025
0.0120023
0.00811961
0.00516326
0.0030751
0.00171871
0.000907579
0.000456704
0.000221134
0.000104296
4.81135e-05
2.17743e-05
9.68956e-06
4.24803e-06
1.838e-06
7.86066e-07
3.3278e-07
1.39629e-07
5.81119e-08
2.39857e-08
9.79276e-09
3.91975e-09
1.49785e-09
5.00363e-10
8.77376e-11
4.58836e-07
2.00598e-06
4.61166e-06
8.98776e-06
1.63038e-05
2.84585e-05
4.84924e-05
8.11957e-05
0.000133975
0.000218033
0.000349879
0.000553105
0.000860184
0.00131383
0.00196712
0.00288158
0.00412248
0.00575164
0.00781922
0.0103566
0.0133729
0.016855
0.0207709
0.0250748
0.0297118
0.0346262
0.039749
0.0450218
0.0503877
0.0557933
0.0611899
0.0665339
0.0717875
0.0769189
0.0819017
0.0867149
0.0913417
0.0957699
0.0999915
0.104002
0.107799
0.111385
0.114763
0.117936
0.120912
0.123696
0.126297
0.128722
0.130979
0.133073
0.13501
0.136792
0.138417
0.139878
0.141155
0.142217
0.143006
0.143417
0.143329
0.142486
0.140496
0.136715
0.130056
0.121081
0.110932
0.100298
0.0896061
0.0791252
0.0690377
0.0594704
0.0505051
0.0422237
0.034676
0.0276618
0.021337
0.0158442
0.0112326
0.00753817
0.0047565
0.00281453
0.00156616
0.000825294
0.000415261
0.000201321
9.5136e-05
4.39874e-05
1.99542e-05
8.90028e-06
3.91058e-06
1.6954e-06
7.26391e-07
3.08005e-07
1.29411e-07
5.39216e-08
2.22774e-08
9.10219e-09
3.6454e-09
1.39352e-09
4.65549e-10
8.16297e-11
4.556e-07
1.99172e-06
4.57835e-06
8.92134e-06
1.61796e-05
2.82339e-05
4.80935e-05
8.04971e-05
0.000132766
0.00021597
0.000346411
0.000547384
0.000850952
0.0012993
0.00194494
0.00284878
0.00407568
0.00568731
0.00773408
0.0102481
0.0132393
0.0166958
0.0205868
0.0248676
0.0294841
0.0343883
0.0394919
0.0447529
0.0501132
0.0555185
0.0609194
0.0662719
0.0715378
0.0766846
0.0816855
0.0865189
0.0911676
0.0956187
0.0998637
0.103898
0.107719
0.111327
0.114727
0.117921
0.120916
0.123718
0.126335
0.128774
0.131043
0.133148
0.135093
0.13688
0.138508
0.139965
0.141235
0.142279
0.143037
0.143399
0.143233
0.142267
0.140083
0.13599
0.128832
0.119562
0.109244
0.098526
0.0878083
0.0773433
0.0673096
0.0578236
0.0489648
0.0408194
0.0334004
0.0264622
0.0203021
0.0149801
0.0105428
0.00701938
0.0043942
0.00258189
0.00142891
0.000750308
0.00037685
0.00018267
8.63813e-05
3.99889e-05
1.81691e-05
8.11865e-06
3.57391e-06
1.5524e-06
6.66354e-07
2.83039e-07
1.1911e-07
4.96992e-08
2.05576e-08
8.40777e-09
3.36979e-09
1.28877e-09
4.30616e-10
7.55032e-11
4.52011e-07
1.97596e-06
4.54178e-06
8.84906e-06
1.60461e-05
2.79955e-05
4.76769e-05
7.97799e-05
0.000131548
0.000213929
0.000343046
0.00054193
0.000842296
0.00128589
0.00192472
0.00281925
0.00403397
0.00563052
0.00765955
0.0101538
0.0131241
0.0165596
0.0204305
0.0246932
0.0292955
0.0341741
0.0392714
0.0445281
0.0498869
0.0552941
0.0607002
0.0660611
0.0713384
0.0764991
0.081516
0.0863672
0.091035
0.095506
0.0997713
0.103826
0.107667
0.111295
0.114713
0.117925
0.120936
0.123754
0.126384
0.128836
0.131115
0.133228
0.13518
0.136971
0.138599
0.140053
0.141312
0.142338
0.143063
0.143377
0.143133
0.142046
0.139674
0.135285
0.127667
0.118132
0.107668
0.0968816
0.0861487
0.0757066
0.0657298
0.0563245
0.0475682
0.0395526
0.0322314
0.0254109
0.0193923
0.0142207
0.00993848
0.00656734
0.00408075
0.00238212
0.00131179
0.000686551
0.00034421
0.000166784
7.88895e-05
3.65453e-05
1.662e-05
7.43452e-06
3.27658e-06
1.42495e-06
6.12377e-07
2.6041e-07
1.09704e-07
4.58189e-08
1.89685e-08
7.7632e-09
3.11302e-09
1.19091e-09
3.97915e-10
6.97643e-11
4.48355e-07
1.95992e-06
4.50467e-06
8.77595e-06
1.59116e-05
2.77566e-05
4.72619e-05
7.90706e-05
0.000130354
0.000211946
0.000339808
0.000536742
0.000834159
0.00127344
0.00190619
0.0027925
0.00399666
0.00558028
0.00759431
0.010072
0.0130251
0.0164433
0.0202979
0.0245456
0.029139
0.0340049
0.0390941
0.0443466
0.0497047
0.0551142
0.0605257
0.0658948
0.0711825
0.0763558
0.081387
0.0862538
0.0909381
0.0954263
0.0997092
0.103781
0.107639
0.111284
0.114718
0.117945
0.12097
0.1238
0.126442
0.128903
0.131191
0.133311
0.135267
0.13706
0.138687
0.140136
0.141384
0.14239
0.14308
0.143343
0.143018
0.141804
0.139229
0.134515
0.126539
0.116796
0.106221
0.0953859
0.0846493
0.0742355
0.0643159
0.0549877
0.0463272
0.0384267
0.0311941
0.0244891
0.018596
0.0135577
0.00941282
0.00617592
0.0038106
0.00221052
0.00121127
0.000631727
0.000316018
0.000152995
7.23519e-05
3.35244e-05
1.52542e-05
6.82858e-06
3.01216e-06
1.31121e-06
5.64057e-07
2.40099e-07
1.01244e-07
4.23223e-08
1.75344e-08
7.18074e-09
2.88075e-09
1.10231e-09
3.68293e-10
6.45658e-11
4.44852e-07
1.94458e-06
4.46924e-06
8.70637e-06
1.5784e-05
2.75312e-05
4.68724e-05
7.84089e-05
0.000129247
0.000210123
0.000336854
0.000532045
0.000826849
0.00126234
0.00188979
0.00276901
0.00396412
0.00553676
0.00753818
0.0100022
0.012941
0.0163451
0.0201864
0.0244218
0.0289997
0.0338614
0.0389476
0.044199
0.0495581
0.0549711
0.0603883
0.0657652
0.0710627
0.0762473
0.0812912
0.0861717
0.0908704
0.0953734
0.0996712
0.103758
0.107631
0.11129
0.114736
0.117975
0.121012
0.123852
0.126503
0.128972
0.131266
0.133391
0.13535
0.137145
0.138769
0.140212
0.141448
0.142434
0.143087
0.143299
0.14289
0.141542
0.138753
0.133688
0.125455
0.115563
0.10491
0.0940455
0.0833139
0.072934
0.0630693
0.0538126
0.04524
0.0374397
0.0302833
0.0236821
0.017901
0.0129813
0.00895783
0.00583906
0.00357957
0.00206464
0.0011262
0.000585433
0.00029222
0.000141339
6.6812e-05
3.0956e-05
1.40886e-05
6.3094e-06
2.78467e-06
1.21296e-06
5.22155e-07
2.22424e-07
9.38579e-08
3.92615e-08
1.62761e-08
6.66867e-09
2.67622e-09
1.0242e-09
3.42169e-10
5.9978e-11
4.41617e-07
1.93043e-06
4.43658e-06
8.64235e-06
1.5667e-05
2.73249e-05
4.6517e-05
7.78075e-05
0.000128245
0.00020848
0.000334206
0.000527858
0.000820373
0.00125256
0.00187544
0.0027486
0.00393602
0.00549943
0.00749035
0.00994302
0.0128703
0.0162635
0.0200951
0.0243245
0.0288927
0.0337483
0.0388311
0.0440816
0.0494422
0.0548588
0.0602817
0.0656659
0.0709723
0.076167
0.0812221
0.0861145
0.0908256
0.0953413
0.0996519
0.103751
0.107636
0.111306
0.114764
0.118013
0.121058
0.123907
0.126565
0.129041
0.13134
0.133468
0.135429
0.137223
0.138845
0.140281
0.141505
0.14247
0.143089
0.143252
0.142762
0.141288
0.138296
0.132898
0.124464
0.114457
0.103745
0.0928626
0.0821407
0.0717953
0.0619818
0.0527903
0.0442971
0.036584
0.0294874
0.0229792
0.0172977
0.0124827
0.00856617
0.00555065
0.00338289
0.00194106
0.00105437
0.000546394
0.000272142
0.000131492
6.21225e-05
2.87768e-05
1.30972e-05
5.86665e-06
2.59018e-06
1.12877e-06
4.86169e-07
2.07213e-07
8.749e-08
3.66183e-08
1.51879e-08
6.22533e-09
2.49897e-09
9.56446e-10
3.19557e-10
5.60069e-11
4.38712e-07
1.91772e-06
4.4073e-06
8.58505e-06
1.55624e-05
2.7141e-05
4.62012e-05
7.72747e-05
0.00012736
0.000207035
0.000331887
0.000524208
0.000814751
0.00124412
0.00186311
0.00273113
0.00391209
0.00546779
0.00744996
0.00989322
0.0128108
0.0161943
0.0200162
0.0242366
0.0288019
0.0336552
0.038737
0.0439881
0.049351
0.0547715
0.0601997
0.0655908
0.0709052
0.0761089
0.0811737
0.0860764
0.0907981
0.0953247
0.0996459
0.103755
0.10765
0.11133
0.114796
0.118053
0.121106
0.123962
0.126626
0.129106
0.131408
0.133539
0.135501
0.137295
0.138913
0.140343
0.141556
0.142502
0.143089
0.143207
0.142646
0.141059
0.137887
0.132194
0.123589
0.113486
0.102727
0.0918316
0.0811212
0.0708082
0.0610412
0.051908
0.043486
0.0358462
0.0287962
0.0223705
0.0167769
0.0120539
0.00823081
0.00530501
0.00321631
0.00183692
0.000994062
0.000513693
0.000255337
0.000123246
5.81911e-05
2.6947e-05
1.22631e-05
5.49342e-06
2.42589e-06
1.05749e-06
4.55645e-07
1.94286e-07
8.20688e-08
3.43645e-08
1.42589e-08
5.84652e-09
2.34742e-09
8.98565e-10
3.00233e-10
5.26186e-11
4.36161e-07
1.90656e-06
4.38162e-06
8.53484e-06
1.54709e-05
2.69804e-05
4.59259e-05
7.68114e-05
0.000126593
0.000205785
0.000329888
0.000521072
0.00080994
0.00123692
0.00185264
0.00271637
0.00389198
0.00544136
0.0074165
0.00985238
0.0127628
0.0161398
0.0199564
0.0241705
0.0287314
0.0335821
0.038663
0.0439149
0.0492801
0.0547044
0.0601377
0.0655349
0.0708564
0.076068
0.0811412
0.0860527
0.0907835
0.095319
0.099649
0.103767
0.10767
0.111358
0.114831
0.118095
0.121154
0.124014
0.126682
0.129166
0.131471
0.133604
0.135566
0.137359
0.138974
0.140398
0.1416
0.14253
0.143089
0.143168
0.142544
0.140858
0.137529
0.131581
0.122828
0.112643
0.101846
0.0909414
0.0802427
0.0699594
0.0602338
0.051152
0.0427928
0.0352147
0.0282001
0.021847
0.0163303
0.0116875
0.00794545
0.00509701
0.00307598
0.00174959
0.000943656
0.000486412
0.000241327
0.000116371
5.49106e-05
2.54184e-05
1.15655e-05
5.1808e-06
2.28807e-06
9.97618e-07
4.29964e-07
1.83396e-07
7.74954e-08
3.24609e-08
1.34735e-08
5.52597e-09
2.21917e-09
8.49567e-10
2.83872e-10
4.97505e-11
4.33963e-07
1.89696e-06
4.35952e-06
8.49167e-06
1.53923e-05
2.68427e-05
4.56903e-05
7.64157e-05
0.000125939
0.000204723
0.000328193
0.00051842
0.000805884
0.00123087
0.00184386
0.00270403
0.00387522
0.0054194
0.00738876
0.00981861
0.0127231
0.0160948
0.0199074
0.0241171
0.028675
0.0335241
0.0386049
0.0438579
0.0492255
0.0546533
0.0600912
0.0654939
0.0708217
0.0760401
0.0811205
0.0860394
0.0907778
0.0953208
0.0996581
0.103783
0.107693
0.111387
0.114866
0.118135
0.121198
0.124063
0.126734
0.12922
0.131528
0.133661
0.135624
0.137414
0.139027
0.140445
0.141639
0.142554
0.143088
0.143133
0.142455
0.140684
0.137219
0.13105
0.122171
0.111917
0.101089
0.0901788
0.0794918
0.0692352
0.0595463
0.0505097
0.0422063
0.0346766
0.0276903
0.0214006
0.0159505
0.0113769
0.00770446
0.00492214
0.00295854
0.00167681
0.000901784
0.000463796
0.000229723
0.000110677
5.21927e-05
2.41511e-05
1.09865e-05
4.92106e-06
2.17344e-06
9.47751e-07
4.0855e-07
1.74304e-07
7.36733e-08
3.08683e-08
1.28157e-08
5.25736e-09
2.11163e-09
8.08469e-10
2.70146e-10
4.73444e-11
4.32106e-07
1.88884e-06
4.34085e-06
8.45525e-06
1.53261e-05
2.67268e-05
4.54923e-05
7.60837e-05
0.000125392
0.000203836
0.000326779
0.000516214
0.000802517
0.00122586
0.00183661
0.00269387
0.00386144
0.00540137
0.00736599
0.00979084
0.0126903
0.016057
0.019865
0.0240728
0.0286294
0.033478
0.0385593
0.0438138
0.0491838
0.0546149
0.0600569
0.0654645
0.0707975
0.0760217
0.0811082
0.0860334
0.090778
0.0953271
0.0996705
0.103801
0.107716
0.111415
0.114899
0.118172
0.121239
0.124106
0.12678
0.129268
0.131577
0.13371
0.135673
0.137462
0.139072
0.140485
0.14167
0.142573
0.143088
0.143104
0.14238
0.140536
0.136954
0.130595
0.121609
0.111298
0.100445
0.0895319
0.0788564
0.0686237
0.0589667
0.0499688
0.0417124
0.0342256
0.0272604
0.0210246
0.0156312
0.0111165
0.00750309
0.00477656
0.00286117
0.00161669
0.000867292
0.0004452
0.000220192
0.000106001
4.99598e-05
2.31093e-05
1.05102e-05
4.70722e-06
2.07897e-06
9.06619e-07
3.9087e-07
1.6679e-07
7.05118e-08
2.955e-08
1.22709e-08
5.03469e-09
2.02244e-09
7.74372e-10
2.58756e-10
4.53479e-11
4.30569e-07
1.88213e-06
4.32542e-06
8.42516e-06
1.52714e-05
2.66312e-05
4.53292e-05
7.58106e-05
0.000124942
0.000203108
0.000325622
0.000514412
0.000799774
0.00122179
0.00183074
0.00268566
0.00385036
0.00538693
0.00734787
0.00976892
0.0126647
0.0160281
0.0198332
0.0240389
0.0285943
0.0334426
0.0385244
0.0437802
0.0491525
0.0545865
0.0600321
0.0654437
0.0707813
0.0760103
0.0811018
0.0860321
0.0907818
0.0953359
0.0996841
0.10382
0.107739
0.111442
0.114929
0.118205
0.121275
0.124144
0.12682
0.129309
0.131618
0.133752
0.135713
0.137501
0.139108
0.140517
0.141695
0.142587
0.143085
0.143081
0.142318
0.140412
0.136731
0.130211
0.121135
0.110778
0.099907
0.0889923
0.0783275
0.0681156
0.0584859
0.0495207
0.0413038
0.0338525
0.0269035
0.020713
0.0153671
0.0109015
0.00733727
0.00465707
0.00278152
0.00156766
0.000839236
0.000430098
0.000212457
0.000102207
4.81478e-05
2.22635e-05
1.01233e-05
4.53337e-06
2.00211e-06
8.73129e-07
3.76464e-07
1.60663e-07
6.7932e-08
2.84734e-08
1.18257e-08
4.85267e-09
1.94951e-09
7.46482e-10
2.49439e-10
4.37147e-11
4.29331e-07
1.87672e-06
4.313e-06
8.40093e-06
1.52275e-05
2.65543e-05
4.51983e-05
7.55915e-05
0.000124582
0.000202526
0.000324699
0.000512976
0.000797591
0.00121856
0.00182609
0.00267917
0.00384162
0.00537559
0.0073337
0.00975191
0.0126451
0.0160064
0.0198091
0.0240131
0.0285676
0.0334158
0.0384981
0.0437553
0.0491294
0.0545659
0.0600145
0.0654295
0.0707707
0.0760037
0.0810992
0.0860336
0.0907873
0.0953454
0.0996974
0.103837
0.107759
0.111465
0.114955
0.118233
0.121305
0.124176
0.126853
0.129343
0.131653
0.133786
0.135747
0.137534
0.139138
0.140543
0.141716
0.1426
0.143085
0.143061
0.142266
0.14031
0.13655
0.129899
0.120751
0.110357
0.0994705
0.088555
0.0778991
0.0677044
0.058097
0.0491586
0.0409741
0.0335505
0.0266143
0.0204609
0.0151538
0.0107281
0.00720379
0.00456108
0.00271768
0.00152846
0.00081685
0.000418062
0.000206296
9.91842e-05
4.67038e-05
2.15892e-05
9.81464e-06
4.39462e-06
1.94074e-06
8.46371e-07
3.64947e-07
1.55762e-07
6.58674e-08
2.76115e-08
1.14691e-08
4.70684e-09
1.89107e-09
7.24132e-10
2.41972e-10
4.24058e-11
4.2837e-07
1.87252e-06
4.30335e-06
8.38214e-06
1.51934e-05
2.64948e-05
4.50969e-05
7.54221e-05
0.000124304
0.000202076
0.000323986
0.00051187
0.000795912
0.00121607
0.00182252
0.0026742
0.00383492
0.00536689
0.00732282
0.00973876
0.0126297
0.0159889
0.0197904
0.0239936
0.0285476
0.0333959
0.0384789
0.0437371
0.0491128
0.0545514
0.0600023
0.06542
0.0707642
0.0760001
0.0810988
0.0860364
0.0907933
0.0953544
0.0997093
0.103851
0.107776
0.111484
0.114977
0.118257
0.12133
0.124202
0.12688
0.129371
0.13168
0.133814
0.135774
0.13756
0.139162
0.140565
0.141733
0.14261
0.143086
0.143046
0.142226
0.140231
0.136409
0.129657
0.120453
0.11003
0.0991308
0.0882144
0.0775654
0.067384
0.057794
0.0488767
0.0407178
0.033315
0.0263887
0.0202646
0.0149879
0.0105935
0.00710032
0.00448678
0.0026683
0.00149814
0.000799528
0.000408745
0.000201524
9.6843e-05
4.55853e-05
2.10668e-05
9.57553e-06
4.28711e-06
1.89317e-06
8.2563e-07
3.56018e-07
1.51962e-07
6.42661e-08
2.69429e-08
1.11925e-08
4.5937e-09
1.84572e-09
7.06792e-10
2.3618e-10
4.13906e-11
4.27667e-07
1.86945e-06
4.2963e-06
8.36841e-06
1.51685e-05
2.64513e-05
4.50229e-05
7.52986e-05
0.000124101
0.000201749
0.000323468
0.000511066
0.000794692
0.00121427
0.00181993
0.00267059
0.00383008
0.00536062
0.00731499
0.00972936
0.0126188
0.0159767
0.0197772
0.0239797
0.0285335
0.0333819
0.0384654
0.0437245
0.0491015
0.0545416
0.0599943
0.0654139
0.0707603
0.0759985
0.0810995
0.0860394
0.0907985
0.0953619
0.0997189
0.103863
0.10779
0.111499
0.114993
0.118274
0.121348
0.124221
0.1269
0.129391
0.131701
0.133835
0.135795
0.137579
0.139181
0.140581
0.141746
0.142618
0.143086
0.143034
0.142197
0.140173
0.136305
0.129481
0.120235
0.10979
0.098882
0.0879648
0.0773205
0.0671487
0.0575714
0.0486694
0.0405292
0.0331409
0.0262254
0.020122
0.0148672
0.0104955
0.00702502
0.00443273
0.00263237
0.00147604
0.000786861
0.000401913
0.000198019
9.51238e-05
4.47642e-05
2.06835e-05
9.40016e-06
4.20829e-06
1.8583e-06
8.10426e-07
3.49473e-07
1.49176e-07
6.30923e-08
2.64528e-08
1.09897e-08
4.51077e-09
1.81249e-09
6.94087e-10
2.31937e-10
4.06469e-11
4.27208e-07
1.86745e-06
4.2917e-06
8.35945e-06
1.51522e-05
2.6423e-05
4.49747e-05
7.52181e-05
0.000123969
0.000201537
0.000323132
0.000510545
0.000793903
0.0012131
0.00181825
0.00266827
0.00382696
0.00535659
0.00730998
0.00972334
0.0126118
0.0159689
0.0197688
0.0239709
0.0285246
0.0333731
0.0384569
0.0437167
0.0490944
0.0545355
0.0599894
0.0654104
0.0707582
0.0759979
0.0811004
0.0860418
0.0908024
0.0953673
0.0997256
0.103871
0.107799
0.111509
0.115004
0.118286
0.121361
0.124235
0.126914
0.129405
0.131715
0.133848
0.135808
0.137592
0.139193
0.140591
0.141754
0.142623
0.143087
0.143027
0.142177
0.140135
0.136238
0.129365
0.120092
0.109633
0.098719
0.0878012
0.07716
0.0669944
0.0574253
0.0485331
0.040405
0.0330256
0.0261213
0.0200305
0.0147894
0.0104323
0.00697648
0.00439795
0.00260927
0.00146179
0.000778656
0.000397472
0.000195736
9.40028e-05
4.42286e-05
2.04335e-05
9.28575e-06
4.15688e-06
1.83557e-06
8.00512e-07
3.45205e-07
1.47359e-07
6.23264e-08
2.6133e-08
1.08573e-08
4.45662e-09
1.79079e-09
6.85788e-10
2.29165e-10
4.01611e-11
4.26984e-07
1.86647e-06
4.28946e-06
8.3551e-06
1.51444e-05
2.64094e-05
4.49515e-05
7.51796e-05
0.000123906
0.000201435
0.000322972
0.000510298
0.000793529
0.00121255
0.00181747
0.00266718
0.0038255
0.00535469
0.00730761
0.0097205
0.0126086
0.0159652
0.0197648
0.0239668
0.0285204
0.0333689
0.038453
0.043713
0.0490912
0.0545328
0.0599872
0.0654089
0.0707573
0.0759977
0.081101
0.0860431
0.0908045
0.09537
0.099729
0.103875
0.107803
0.111515
0.11501
0.118292
0.121367
0.124241
0.12692
0.129412
0.131722
0.133855
0.135815
0.137599
0.139199
0.140597
0.141759
0.142626
0.143087
0.143023
0.142168
0.140117
0.136205
0.129309
0.120022
0.109556
0.0986391
0.087721
0.0770814
0.0669189
0.0573538
0.0484666
0.0403446
0.0329695
0.026071
0.0199865
0.0147522
0.0104022
0.00695349
0.00438158
0.00259847
0.00145517
0.000774847
0.000395407
0.000194672
9.34795e-05
4.39781e-05
2.03163e-05
9.23203e-06
4.13268e-06
1.82484e-06
7.95827e-07
3.43184e-07
1.46497e-07
6.19618e-08
2.59803e-08
1.07939e-08
4.43061e-09
1.78033e-09
6.81778e-10
2.27823e-10
3.99256e-11
4.26983e-07
1.86647e-06
4.28945e-06
8.35508e-06
1.51443e-05
2.64093e-05
4.49515e-05
7.51795e-05
0.000123906
0.000201435
0.000322972
0.000510297
0.000793528
0.00121255
0.00181746
0.00266717
0.00382549
0.00535469
0.00730761
0.0097205
0.0126086
0.0159652
0.0197648
0.0239668
0.0285204
0.0333689
0.038453
0.043713
0.0490912
0.0545328
0.0599872
0.0654089
0.0707573
0.0759977
0.081101
0.0860431
0.0908045
0.09537
0.099729
0.103875
0.107803
0.111515
0.11501
0.118292
0.121367
0.124241
0.12692
0.129412
0.131722
0.133855
0.135815
0.137599
0.139199
0.140597
0.141759
0.142626
0.143087
0.143023
0.142168
0.140117
0.136205
0.129309
0.120022
0.109556
0.0986391
0.087721
0.0770814
0.0669189
0.0573538
0.0484666
0.0403446
0.0329695
0.026071
0.0199865
0.0147522
0.0104022
0.00695349
0.00438157
0.00259847
0.00145517
0.000774846
0.000395407
0.000194671
9.34793e-05
4.3978e-05
2.03163e-05
9.23201e-06
4.13268e-06
1.82484e-06
7.95825e-07
3.43183e-07
1.46496e-07
6.19617e-08
2.59802e-08
1.07939e-08
4.4306e-09
1.78033e-09
6.81776e-10
2.27822e-10
3.99254e-11
4.27205e-07
1.86744e-06
4.29167e-06
8.35939e-06
1.51521e-05
2.64229e-05
4.49744e-05
7.52178e-05
0.000123968
0.000201536
0.000323131
0.000510543
0.0007939
0.0012131
0.00181825
0.00266827
0.00382696
0.00535658
0.00730997
0.00972333
0.0126118
0.0159689
0.0197688
0.0239709
0.0285246
0.0333731
0.0384569
0.0437167
0.0490944
0.0545355
0.0599894
0.0654104
0.0707582
0.0759979
0.0811004
0.0860418
0.0908024
0.0953673
0.0997256
0.103871
0.107799
0.111509
0.115004
0.118286
0.121361
0.124235
0.126914
0.129405
0.131715
0.133848
0.135808
0.137592
0.139193
0.140591
0.141754
0.142623
0.143087
0.143027
0.142177
0.140135
0.136238
0.129365
0.120092
0.109633
0.098719
0.0878012
0.07716
0.0669944
0.0574253
0.0485331
0.0404051
0.0330256
0.0261213
0.0200305
0.0147894
0.0104323
0.00697647
0.00439794
0.00260926
0.00146179
0.000778653
0.00039747
0.000195735
9.40023e-05
4.42284e-05
2.04334e-05
9.28569e-06
4.15685e-06
1.83555e-06
8.00506e-07
3.45202e-07
1.47358e-07
6.23259e-08
2.61327e-08
1.08572e-08
4.45658e-09
1.79077e-09
6.85782e-10
2.29163e-10
4.01607e-11
4.27662e-07
1.86943e-06
4.29625e-06
8.36832e-06
1.51683e-05
2.64511e-05
4.50225e-05
7.52979e-05
0.0001241
0.000201748
0.000323466
0.000511063
0.000794688
0.00121426
0.00181992
0.00267058
0.00383007
0.0053606
0.00731498
0.00972934
0.0126188
0.0159767
0.0197772
0.0239797
0.0285335
0.0333819
0.0384654
0.0437245
0.0491015
0.0545416
0.0599943
0.0654139
0.0707603
0.0759985
0.0810995
0.0860394
0.0907985
0.0953619
0.0997189
0.103863
0.10779
0.111499
0.114993
0.118274
0.121348
0.124221
0.1269
0.129391
0.131701
0.133835
0.135795
0.137579
0.139181
0.140581
0.141746
0.142618
0.143086
0.143034
0.142197
0.140173
0.136305
0.129481
0.120235
0.10979
0.098882
0.0879647
0.0773205
0.0671487
0.0575715
0.0486694
0.0405292
0.0331409
0.0262254
0.020122
0.0148672
0.0104955
0.00702501
0.00443272
0.00263237
0.00147603
0.000786856
0.00040191
0.000198018
9.5123e-05
4.47638e-05
2.06833e-05
9.40005e-06
4.20824e-06
1.85828e-06
8.10415e-07
3.49468e-07
1.49174e-07
6.30913e-08
2.64524e-08
1.09895e-08
4.5107e-09
1.81246e-09
6.94076e-10
2.31933e-10
4.06462e-11
4.28363e-07
1.87249e-06
4.30329e-06
8.38202e-06
1.51932e-05
2.64945e-05
4.50963e-05
7.54212e-05
0.000124302
0.000202074
0.000323983
0.000511866
0.000795906
0.00121606
0.0018225
0.00267418
0.0038349
0.00536687
0.00732279
0.00973874
0.0126297
0.0159889
0.0197904
0.0239935
0.0285476
0.0333958
0.0384788
0.0437371
0.0491128
0.0545514
0.0600023
0.06542
0.0707642
0.0760001
0.0810989
0.0860364
0.0907933
0.0953544
0.0997093
0.103851
0.107776
0.111484
0.114977
0.118257
0.12133
0.124202
0.12688
0.129371
0.13168
0.133814
0.135774
0.13756
0.139162
0.140565
0.141733
0.14261
0.143086
0.143046
0.142226
0.140231
0.136409
0.129657
0.120453
0.11003
0.0991308
0.0882144
0.0775654
0.067384
0.057794
0.0488767
0.0407178
0.033315
0.0263887
0.0202646
0.0149879
0.0105935
0.0071003
0.00448676
0.00266828
0.00149813
0.000799521
0.000408741
0.000201522
9.68418e-05
4.55846e-05
2.10665e-05
9.57538e-06
4.28704e-06
1.89314e-06
8.25614e-07
3.56011e-07
1.51959e-07
6.42648e-08
2.69424e-08
1.11922e-08
4.5936e-09
1.84568e-09
7.06776e-10
2.36175e-10
4.13896e-11
4.29323e-07
1.87668e-06
4.31291e-06
8.40078e-06
1.52272e-05
2.65539e-05
4.51975e-05
7.55904e-05
0.00012458
0.000202523
0.000324695
0.00051297
0.000797583
0.00121855
0.00182607
0.00267915
0.0038416
0.00537556
0.00733367
0.00975188
0.012645
0.0160063
0.019809
0.0240131
0.0285676
0.0334157
0.0384981
0.0437552
0.0491294
0.0545659
0.0600145
0.0654295
0.0707707
0.0760037
0.0810992
0.0860336
0.0907873
0.0953455
0.0996974
0.103837
0.107759
0.111465
0.114955
0.118234
0.121305
0.124176
0.126853
0.129343
0.131653
0.133787
0.135747
0.137534
0.139138
0.140543
0.141716
0.1426
0.143085
0.143061
0.142266
0.14031
0.13655
0.129899
0.120751
0.110357
0.0994704
0.0885549
0.0778991
0.0677043
0.058097
0.0491586
0.0409741
0.0335505
0.0266142
0.0204608
0.0151537
0.0107281
0.00720376
0.00456106
0.00271766
0.00152844
0.000816841
0.000418056
0.000206293
9.91825e-05
4.67029e-05
2.15888e-05
9.81444e-06
4.39453e-06
1.94069e-06
8.4635e-07
3.64938e-07
1.55758e-07
6.58656e-08
2.76108e-08
1.14688e-08
4.70671e-09
1.89101e-09
7.24111e-10
2.41965e-10
4.24046e-11
4.30559e-07
1.88208e-06
4.32532e-06
8.42497e-06
1.52711e-05
2.66306e-05
4.53283e-05
7.58092e-05
0.00012494
0.000203104
0.000325617
0.000514405
0.000799764
0.00122178
0.00183072
0.00268564
0.00385033
0.00538689
0.00734782
0.00976888
0.0126647
0.0160281
0.0198332
0.0240389
0.0285942
0.0334425
0.0385243
0.0437802
0.0491524
0.0545865
0.0600321
0.0654437
0.0707813
0.0760103
0.0811018
0.0860321
0.0907818
0.0953359
0.0996841
0.10382
0.107739
0.111442
0.114929
0.118205
0.121275
0.124144
0.12682
0.129309
0.131618
0.133752
0.135713
0.137501
0.139108
0.140517
0.141695
0.142587
0.143086
0.143081
0.142318
0.140412
0.136731
0.13021
0.121135
0.110778
0.0999069
0.0889922
0.0783274
0.0681155
0.0584858
0.0495206
0.0413037
0.0338524
0.0269034
0.020713
0.0153671
0.0109014
0.00733722
0.00465703
0.00278149
0.00156764
0.000839223
0.00043009
0.000212453
0.000102205
4.81467e-05
2.2263e-05
1.0123e-05
4.53325e-06
2.00205e-06
8.73103e-07
3.76452e-07
1.60658e-07
6.79297e-08
2.84725e-08
1.18252e-08
4.8525e-09
1.94944e-09
7.46455e-10
2.4943e-10
4.37131e-11
4.32093e-07
1.88879e-06
4.34074e-06
8.45503e-06
1.53257e-05
2.67261e-05
4.54912e-05
7.6082e-05
0.000125389
0.000203832
0.000326773
0.000516205
0.000802504
0.00122584
0.00183659
0.00269384
0.0038614
0.00540132
0.00736593
0.00979077
0.0126902
0.016057
0.019865
0.0240727
0.0286293
0.033478
0.0385592
0.0438137
0.0491837
0.0546149
0.0600569
0.0654645
0.0707975
0.0760217
0.0811082
0.0860334
0.090778
0.0953271
0.0996705
0.103801
0.107717
0.111415
0.114899
0.118172
0.121239
0.124106
0.12678
0.129268
0.131577
0.13371
0.135673
0.137462
0.139072
0.140485
0.14167
0.142573
0.143088
0.143104
0.14238
0.140536
0.136954
0.130595
0.121609
0.111298
0.100445
0.0895318
0.0788563
0.0686235
0.0589666
0.0499687
0.0417123
0.0342255
0.0272603
0.0210245
0.0156312
0.0111164
0.00750302
0.00477651
0.00286113
0.00161666
0.000867276
0.00044519
0.000220187
0.000105998
4.99584e-05
2.31086e-05
1.05099e-05
4.70706e-06
2.07889e-06
9.06586e-07
3.90856e-07
1.66784e-07
7.0509e-08
2.95488e-08
1.22703e-08
5.03448e-09
2.02236e-09
7.74338e-10
2.58745e-10
4.53459e-11
4.33949e-07
1.8969e-06
4.35938e-06
8.49141e-06
1.53919e-05
2.68419e-05
4.56891e-05
7.64137e-05
0.000125936
0.000204719
0.000328186
0.00051841
0.000805869
0.00123085
0.00184383
0.00270399
0.00387517
0.00541934
0.00738868
0.00981853
0.012723
0.0160947
0.0199073
0.024117
0.0286749
0.033524
0.0386048
0.0438578
0.0492254
0.0546533
0.0600912
0.0654939
0.0708217
0.0760401
0.0811205
0.0860395
0.0907778
0.0953208
0.0996581
0.103783
0.107693
0.111387
0.114866
0.118135
0.121198
0.124063
0.126734
0.129221
0.131528
0.133661
0.135624
0.137414
0.139027
0.140445
0.141639
0.142554
0.143089
0.143133
0.142455
0.140684
0.137219
0.13105
0.122171
0.111917
0.101089
0.0901787
0.0794917
0.069235
0.0595462
0.0505095
0.0422062
0.0346764
0.0276902
0.0214004
0.0159504
0.0113768
0.00770438
0.00492207
0.00295849
0.00167678
0.000901764
0.000463784
0.000229717
0.000110674
5.2191e-05
2.41502e-05
1.09861e-05
4.92087e-06
2.17335e-06
9.47711e-07
4.08532e-07
1.74296e-07
7.36698e-08
3.08668e-08
1.28151e-08
5.2571e-09
2.11152e-09
8.08428e-10
2.70132e-10
4.7342e-11
4.36144e-07
1.90649e-06
4.38146e-06
8.53454e-06
1.54704e-05
2.69795e-05
4.59245e-05
7.68092e-05
0.000126589
0.00020578
0.00032988
0.00052106
0.000809924
0.0012369
0.00185261
0.00271633
0.00389193
0.0054413
0.00741642
0.0098523