/*--------------------------------*- C++ -*----------------------------------*\
  =========                 |
  \\      /  F ield         | OpenFOAM: The Open Source CFD Toolbox
   \\    /   O peration     | Website:  https://openfoam.org
    \\  /    A nd           | Version:  8
     \\/     M anipulation  |
\*---------------------------------------------------------------------------*/
FoamFile
{
    version     2.0;
    format      ascii;
    class       volScalarField;
    location    "0.3/fluid";
    object      H2O;
}
// * * * * * * * * * * * * * * * * * * * * * * * * * * * * * * * * * * * * * //

dimensions      [0 0 0 0 0 0 0];

internalField   nonuniform List<scalar> 
4000
(
3.78498e-07
1.6544e-06
3.80194e-06
7.40637e-06
1.34309e-05
2.3445e-05
3.99752e-05
6.703e-05
0.00011086
0.000181006
0.00029167
0.000463352
0.000724644
0.0011134
0.00167652
0.00246825
0.00354557
0.00496105
0.00675508
0.00894986
0.0115468
0.0145278
0.0178592
0.0214966
0.0253895
0.0294846
0.0337288
0.0380705
0.0424761
0.0469056
0.0513019
0.0556346
0.0598769
0.0640065
0.0680053
0.0718586
0.0755554
0.0790878
0.0824513
0.0856437
0.088665
0.0915171
0.0942033
0.0967281
0.0990966
0.101315
0.103389
0.105325
0.10713
0.108808
0.110364
0.111802
0.11312
0.114315
0.115377
0.116284
0.117002
0.117466
0.117589
0.117222
0.116114
0.113861
0.109791
0.103302
0.0955248
0.0871365
0.0785527
0.0700329
0.0617405
0.0537933
0.0462661
0.0392135
0.0326999
0.0267201
0.0211124
0.0161552
0.0118447
0.00824025
0.00538557
0.00328173
0.00186043
0.000985639
0.000492431
0.000235401
0.000109255
4.95308e-05
2.20287e-05
9.64238e-06
4.16471e-06
1.77878e-06
7.526e-07
3.15896e-07
1.31687e-07
5.45518e-08
2.24458e-08
9.146e-09
3.65664e-09
1.39648e-09
4.66473e-10
8.17858e-11
3.7812e-07
1.65301e-06
3.79981e-06
7.40522e-06
1.34351e-05
2.34622e-05
4.00148e-05
6.70951e-05
0.000110925
0.00018097
0.000291268
0.000461996
0.000721006
0.00110481
0.00165931
0.0024376
0.00349548
0.00488507
0.00664739
0.00880635
0.0113658
0.0143105
0.0176092
0.0212196
0.0250927
0.029176
0.033417
0.0377744
0.0421992
0.0466199
0.0510198
0.055364
0.059623
0.0637723
0.0677923
0.0716677
0.0753866
0.0789407
0.082325
0.085537
0.0885768
0.0914459
0.0941476
0.0966864
0.0990676
0.101297
0.103381
0.105326
0.107138
0.108823
0.110384
0.111826
0.113146
0.114342
0.115402
0.116305
0.117013
0.117458
0.117552
0.117137
0.115951
0.113571
0.109292
0.102665
0.0947961
0.0863445
0.0777168
0.0691666
0.0608544
0.0528997
0.0453762
0.0383424
0.0318726
0.0259283
0.0204036
0.0154648
0.0112198
0.0077157
0.00498316
0.00300473
0.00169158
0.000894622
0.000448635
0.000215926
0.000101082
4.62539e-05
2.07606e-05
9.16423e-06
3.98722e-06
1.71316e-06
7.28179e-07
3.06661e-07
1.2812e-07
5.31444e-08
2.18812e-08
8.91808e-09
3.56561e-09
1.36165e-09
4.54802e-10
7.9756e-11
3.78522e-07
1.65498e-06
3.80531e-06
7.41821e-06
1.34624e-05
2.35139e-05
4.01032e-05
6.72285e-05
0.00011109
0.000181093
0.000291129
0.000461068
0.000718217
0.00109876
0.00164754
0.00241635
0.00345987
0.00482936
0.00656565
0.00869324
0.0112175
0.014125
0.017387
0.0209634
0.024807
0.0288671
0.033096
0.0374516
0.04185
0.0462731
0.0506806
0.0550373
0.0593128
0.0634821
0.0675246
0.0714242
0.0751683
0.0787481
0.0821578
0.0853947
0.0884583
0.09135
0.094073
0.0966314
0.0990306
0.101276
0.103375
0.105333
0.107157
0.108851
0.110421
0.111868
0.113192
0.114389
0.115446
0.11634
0.117031
0.117444
0.117491
0.116997
0.115683
0.113096
0.108474
0.101631
0.0936242
0.085086
0.0764074
0.0678324
0.0595173
0.0515805
0.0440928
0.0371149
0.030721
0.0248327
0.0193907
0.0146017
0.0105156
0.00717684
0.00460407
0.00276335
0.00155317
0.000822594
0.000414094
0.000200181
9.41598e-05
4.32934e-05
1.95221e-05
8.65518e-06
3.78065e-06
1.62999e-06
6.94792e-07
2.93247e-07
1.22711e-07
5.0953e-08
2.09903e-08
8.55645e-09
3.42077e-09
1.30607e-09
4.3611e-10
7.64573e-11
3.77543e-07
1.65065e-06
3.79509e-06
7.39732e-06
1.34213e-05
2.34334e-05
3.99437e-05
6.69108e-05
0.000110461
0.000179872
0.000288826
0.000456896
0.000711043
0.00108674
0.00162806
0.00238603
0.00341463
0.00476479
0.00647745
0.00857779
0.0110723
0.0139491
0.0171808
0.0207288
0.0245473
0.0285867
0.0328097
0.0371317
0.0415273
0.045952
0.0503655
0.0547323
0.0590218
0.0632082
0.0672705
0.0711919
0.0749594
0.0785632
0.0819974
0.0852586
0.0883459
0.0912605
0.0940052
0.0965841
0.0990024
0.101266
0.10338
0.105352
0.107188
0.108893
0.110471
0.111924
0.113252
0.114449
0.115501
0.116383
0.117053
0.117428
0.117419
0.11683
0.115362
0.112526
0.107498
0.100405
0.0922456
0.0836198
0.0748985
0.066314
0.0580195
0.0501268
0.0427051
0.0358176
0.0295284
0.0237153
0.0184005
0.013756
0.00982618
0.00664746
0.00422712
0.00251756
0.00140709
0.000743027
0.000373899
0.00018104
8.53863e-05
3.93901e-05
1.78264e-05
7.93276e-06
3.47783e-06
1.50475e-06
6.43545e-07
2.72444e-07
1.14313e-07
4.75757e-08
1.96369e-08
8.01724e-09
3.20907e-09
1.22628e-09
4.09643e-10
7.183e-11
3.75645e-07
1.64228e-06
3.77552e-06
7.3582e-06
1.33478e-05
2.32987e-05
3.97003e-05
6.64742e-05
0.000109684
0.000178502
0.000286443
0.000452822
0.000704225
0.00107562
0.00161046
0.00235912
0.00337504
0.00470882
0.00640152
0.00847888
0.0109483
0.013799
0.0170049
0.0205285
0.0243248
0.0283482
0.0325422
0.036859
0.041252
0.0456775
0.0500956
0.0544707
0.0587718
0.0629728
0.0670522
0.0709927
0.0747807
0.078406
0.0818621
0.0851454
0.0882544
0.0911902
0.0939551
0.0965533
0.0989896
0.101269
0.103399
0.105384
0.107231
0.108946
0.110531
0.11199
0.113321
0.114517
0.115563
0.116432
0.117078
0.117414
0.117342
0.116652
0.115023
0.111928
0.106475
0.099128
0.0908188
0.0821128
0.0733597
0.0647791
0.0565205
0.0486879
0.0413481
0.0345682
0.0283889
0.0226464
0.0174684
0.0129715
0.00919603
0.00617143
0.0038941
0.00230423
0.0012822
0.000675661
0.00033997
0.00016482
7.7887e-05
3.60121e-05
1.63363e-05
7.28658e-06
3.20156e-06
1.38801e-06
5.9469e-07
2.52161e-07
1.05947e-07
4.41452e-08
1.82383e-08
7.45189e-09
2.98446e-09
1.14086e-09
3.81141e-10
6.68295e-11
3.72996e-07
1.6306e-06
3.74826e-06
7.30382e-06
1.32461e-05
2.31148e-05
3.93738e-05
6.59023e-05
0.000108695
0.000176812
0.000283604
0.000448138
0.000696667
0.00106373
0.0015923
0.00233227
0.00333672
0.00465615
0.00633182
0.00839
0.0108389
0.0136687
0.0168542
0.0203589
0.0241384
0.0281534
0.0323317
0.0366388
0.0410272
0.0454525
0.0498741
0.0542562
0.0585674
0.062781
0.0668752
0.0708323
0.0746381
0.0782822
0.0817576
0.0850601
0.0881883
0.0911426
0.0939256
0.0965408
0.0989925
0.101287
0.103429
0.105426
0.107284
0.109007
0.110599
0.112063
0.113395
0.114589
0.115627
0.116482
0.117103
0.1174
0.117264
0.116473
0.114685
0.111334
0.105473
0.0978842
0.0894374
0.0806624
0.0718878
0.0633203
0.0551058
0.0473397
0.040087
0.0334185
0.0273446
0.0216644
0.0166212
0.0122641
0.0086313
0.00574671
0.00359749
0.00211377
0.00116984
0.00061427
0.000308524
0.000149551
7.07196e-05
3.27386e-05
1.48749e-05
6.64667e-06
2.92593e-06
1.27093e-06
5.45538e-07
2.31722e-07
9.75141e-08
4.06883e-08
1.68304e-08
6.88337e-09
2.75882e-09
1.0551e-09
3.52541e-10
6.18138e-11
3.70058e-07
1.6177e-06
3.71832e-06
7.24465e-06
1.31368e-05
2.29197e-05
3.90327e-05
6.53151e-05
0.000107698
0.000175142
0.000280849
0.000443674
0.00068958
0.00105275
0.00157575
0.00230809
0.00330258
0.00460966
0.0062708
0.00831281
0.0107446
0.0135572
0.0167263
0.0202161
0.0239839
0.027978
0.0321511
0.0364548
0.040842
0.0452688
0.0496947
0.0540837
0.0584041
0.0626291
0.0667365
0.0707081
0.0745295
0.0781899
0.0816819
0.0850012
0.0881459
0.0911164
0.0939148
0.0965441
0.0990094
0.101316
0.10347
0.105477
0.107343
0.109073
0.110671
0.112137
0.11347
0.11466
0.115691
0.116531
0.117124
0.117382
0.117182
0.116292
0.11435
0.110756
0.10452
0.0967135
0.0881471
0.0793161
0.0705292
0.0619803
0.0538124
0.0461124
0.0389437
0.0323814
0.0263875
0.0208037
0.0158763
0.0116424
0.00813655
0.00537662
0.00334088
0.00195022
0.00107395
0.000562073
0.000281801
0.000136544
6.45861e-05
2.99193e-05
1.36067e-05
6.08657e-06
2.68251e-06
1.1666e-06
5.01348e-07
2.13195e-07
8.98135e-08
3.75115e-08
1.55294e-08
6.35566e-09
2.5486e-09
9.74984e-10
3.25769e-10
5.71154e-11
3.67064e-07
1.60457e-06
3.68793e-06
7.18479e-06
1.30267e-05
2.27241e-05
3.86929e-05
6.47344e-05
0.000106719
0.000173519
0.000278198
0.000439426
0.000682918
0.00104255
0.00156058
0.0022862
0.00327203
0.00456852
0.00621739
0.00824588
0.0106635
0.013462
0.0166177
0.0200953
0.0238559
0.0278395
0.032006
0.0363062
0.0406928
0.0451215
0.0495519
0.0539475
0.0582765
0.0625118
0.0666308
0.0706152
0.0744502
0.0781247
0.081631
0.0849646
0.0881235
0.0911076
0.0939186
0.0965602
0.0990368
0.101354
0.103517
0.105532
0.107405
0.10914
0.110742
0.11221
0.113542
0.114728
0.11575
0.116573
0.117138
0.117354
0.117088
0.116093
0.113986
0.110126
0.103596
0.0956196
0.0869618
0.0780916
0.0693016
0.0607759
0.0526549
0.0450179
0.0379277
0.0314596
0.0255383
0.020049
0.0152244
0.0110996
0.00770619
0.00505617
0.00311971
0.00180973
0.000991659
0.000517189
0.000258722
0.000125255
5.92339e-05
2.74461e-05
1.24885e-05
5.5905e-06
2.46603e-06
1.07348e-06
4.61788e-07
1.96567e-07
8.28872e-08
3.46489e-08
1.43553e-08
5.87881e-09
2.35844e-09
9.02448e-10
3.01518e-10
5.28595e-11
3.64197e-07
1.59201e-06
3.65893e-06
7.12783e-06
1.29222e-05
2.25396e-05
3.8374e-05
6.41927e-05
0.000105813
0.000172025
0.000275779
0.00043558
0.000676934
0.00103347
0.00154715
0.00226697
0.00324539
0.0045329
0.00617144
0.00818868
0.0105947
0.0133816
0.0165264
0.0199939
0.0237418
0.0277221
0.0318861
0.0361853
0.0405728
0.0450044
0.0494394
0.0538414
0.0581784
0.062423
0.0665524
0.070548
0.0743948
0.0780814
0.0816
0.0849458
0.0881165
0.0911117
0.0939336
0.0965852
0.0990711
0.101396
0.103567
0.105589
0.107467
0.109206
0.11081
0.112279
0.113609
0.11479
0.115802
0.116609
0.117144
0.117318
0.116983
0.115879
0.113596
0.109449
0.102709
0.0946108
0.0858887
0.0769943
0.0682083
0.0597104
0.0516343
0.0440559
0.0370376
0.0306516
0.0247926
0.0193883
0.0146554
0.0106277
0.00733369
0.00478038
0.00293056
0.0016903
0.000922011
0.000479289
0.000239238
0.000115713
5.46984e-05
2.53434e-05
1.15342e-05
5.16545e-06
2.27978e-06
9.93041e-07
4.27484e-07
1.82097e-07
7.68407e-08
3.21431e-08
1.33251e-08
5.45958e-09
2.191e-09
8.38501e-10
2.80131e-10
4.91035e-11
3.61548e-07
1.58042e-06
3.63219e-06
7.07542e-06
1.28264e-05
2.23706e-05
3.80831e-05
6.37003e-05
0.000104993
0.000170681
0.000273611
0.000432153
0.000671632
0.00102546
0.00153541
0.00225025
0.00322238
0.00450234
0.00613228
0.00814026
0.0105368
0.0133148
0.0164517
0.0199143
0.0236542
0.0276294
0.0317907
0.0360892
0.0404779
0.0449125
0.0493521
0.0537601
0.0581044
0.0623573
0.0664958
0.0705011
0.0743581
0.0780551
0.0815841
0.0849401
0.0881205
0.0911252
0.093956
0.0966159
0.0991093
0.101441
0.103618
0.105644
0.107527
0.109269
0.110875
0.112343
0.113671
0.114847
0.115849
0.116639
0.117146
0.117279
0.116878
0.115671
0.113222
0.108802
0.101898
0.0937051
0.0849355
0.0760258
0.0672479
0.0587782
0.050744
0.0432189
0.0362656
0.029951
0.0241411
0.0188129
0.0141615
0.0102195
0.00701305
0.00454427
0.00276954
0.00158913
0.000863199
0.000447328
0.0002228
0.000107651
5.08591e-05
2.35593e-05
1.07226e-05
4.80297e-06
2.12056e-06
9.24111e-07
3.98022e-07
1.69644e-07
7.16273e-08
2.99791e-08
1.24342e-08
5.09662e-09
2.04588e-09
7.83034e-10
2.61619e-10
4.58524e-11
3.5917e-07
1.57002e-06
3.60822e-06
7.02851e-06
1.27408e-05
2.22201e-05
3.78245e-05
6.32642e-05
0.000104269
0.000169498
0.000271713
0.000429164
0.00066703
0.00101855
0.00152531
0.00223595
0.00320279
0.00447643
0.00609922
0.00809949
0.0104881
0.0132581
0.0163871
0.0198423
0.0235799
0.0275532
0.0317136
0.0360127
0.0404032
0.0448409
0.049285
0.0536986
0.0580495
0.0623097
0.0664562
0.07047
0.0743356
0.0780415
0.0815792
0.0849436
0.0881322
0.0911447
0.0939827
0.0966493
0.0991488
0.101486
0.103667
0.105698
0.107583
0.109327
0.110934
0.112402
0.113727
0.114898
0.11589
0.116665
0.117146
0.117242
0.116783
0.115483
0.112887
0.108226
0.101181
0.0929097
0.0841018
0.0751817
0.0664132
0.05797
0.0499739
0.0424966
0.0356016
0.029347
0.0235752
0.0183145
0.0137351
0.00986845
0.00673849
0.00434317
0.00263317
0.00150387
0.00081383
0.000420556
0.000209042
0.000100901
4.76405e-05
2.20613e-05
1.00397e-05
4.49742e-06
1.98606e-06
8.65761e-07
3.73032e-07
1.59061e-07
6.7189e-08
2.81339e-08
1.16737e-08
4.78649e-09
1.92181e-09
7.35647e-10
2.45798e-10
4.30784e-11
3.57081e-07
1.56089e-06
3.58719e-06
6.9874e-06
1.26659e-05
2.20886e-05
3.75992e-05
6.28848e-05
0.000103641
0.000168475
0.000270076
0.000426597
0.000663091
0.00101266
0.00151674
0.00222387
0.00318633
0.00445479
0.00607182
0.00806606
0.0104488
0.0132135
0.0163382
0.0197882
0.0235221
0.0274933
0.0316531
0.0359527
0.0403452
0.044786
0.0492342
0.0536528
0.0580095
0.0622762
0.0664296
0.0704506
0.0743236
0.0780368
0.0815818
0.0849532
0.0881486
0.0911674
0.0940113
0.0966833
0.0991876
0.101529
0.103714
0.105747
0.107634
0.10938
0.110987
0.112454
0.113777
0.114943
0.115927
0.116688
0.117146
0.11721
0.116699
0.115319
0.112594
0.107724
0.100558
0.0922196
0.0833803
0.0744529
0.065694
0.0572751
0.0493129
0.0418777
0.0350341
0.02883
0.0230872
0.017886
0.0133695
0.00956847
0.00650487
0.00417288
0.00251827
0.00143237
0.000772563
0.000398221
0.000197572
9.5272e-05
4.49548e-05
2.08098e-05
9.46855e-06
4.24147e-06
1.87323e-06
8.16741e-07
3.52008e-07
1.50144e-07
6.34448e-08
2.65754e-08
1.10306e-08
4.52406e-09
1.81681e-09
6.95533e-10
2.32404e-10
4.07303e-11
3.55282e-07
1.55302e-06
3.5691e-06
6.95206e-06
1.26016e-05
2.19759e-05
3.74063e-05
6.25609e-05
0.000103105
0.000167605
0.000268688
0.000424426
0.00065977
0.0010077
0.00150955
0.00221377
0.00317261
0.00443681
0.00604911
0.00803841
0.0104163
0.0131767
0.016298
0.0197444
0.023476
0.0274459
0.0316055
0.0359061
0.0403005
0.0447442
0.0491961
0.0536193
0.0579811
0.0622533
0.0664126
0.0704397
0.074319
0.0780383
0.0815892
0.0849664
0.0881673
0.0911913
0.0940399
0.0967161
0.0992241
0.101569
0.103756
0.105792
0.107681
0.109427
0.111034
0.1125
0.11382
0.114981
0.115958
0.116708
0.117145
0.117182
0.116627
0.115177
0.11234
0.10729
0.10002
0.0916256
0.0827608
0.0738286
0.0650793
0.0566822
0.0487501
0.0413518
0.034554
0.0283894
0.0226698
0.0175205
0.0130585
0.00931416
0.00630758
0.00402971
0.00242213
0.00137279
0.000738282
0.000379706
0.000188073
9.06106e-05
4.27297e-05
1.97723e-05
8.99454e-06
4.02883e-06
1.77937e-06
7.75916e-07
3.34476e-07
1.42701e-07
6.03157e-08
2.52716e-08
1.04921e-08
4.30415e-09
1.72877e-09
6.61887e-10
2.21166e-10
3.87604e-11
3.53761e-07
1.54638e-06
3.55382e-06
6.92224e-06
1.25474e-05
2.1881e-05
3.72442e-05
6.2289e-05
0.000102657
0.000166878
0.000267531
0.00042262
0.000657013
0.0010036
0.00150362
0.00220545
0.00316133
0.00442205
0.00603047
0.00801567
0.0103894
0.0131457
0.0162633
0.0197082
0.0234386
0.0274082
0.0315682
0.0358699
0.0402663
0.0447128
0.0491681
0.0535952
0.0579613
0.0622383
0.0664026
0.0704348
0.0743191
0.0780435
0.0815993
0.0849813
0.0881865
0.0912146
0.0940669
0.0967464
0.0992573
0.101605
0.103794
0.105831
0.107721
0.109468
0.111074
0.112539
0.113857
0.115014
0.115984
0.116723
0.117145
0.117158
0.116565
0.115055
0.112123
0.106917
0.0995599
0.0911187
0.0822338
0.073299
0.064559
0.0561816
0.0482755
0.040909
0.0341496
0.0280202
0.0223178
0.0172127
0.0127972
0.00910097
0.00614271
0.00391053
0.00234241
0.00132357
0.000710044
0.000364481
0.000180269
8.6782e-05
4.09017e-05
1.89194e-05
8.60461e-06
3.85376e-06
1.70203e-06
7.42241e-07
3.20002e-07
1.3655e-07
5.77274e-08
2.41923e-08
1.0046e-08
4.12186e-09
1.65576e-09
6.33971e-10
2.11841e-10
3.71259e-11
3.52503e-07
1.54088e-06
3.54119e-06
6.8976e-06
1.25026e-05
2.18027e-05
3.71106e-05
6.20654e-05
0.000102289
0.000166283
0.000266584
0.000421145
0.000654768
0.00100027
0.00149881
0.00219873
0.00315225
0.00441023
0.00601563
0.00799773
0.0103685
0.0131221
0.0162373
0.0196805
0.0234099
0.0273791
0.0315396
0.0358425
0.0402407
0.0446895
0.0491477
0.0535782
0.057948
0.062229
0.0663973
0.0704337
0.0743222
0.0780507
0.0816105
0.0849962
0.0882049
0.0912362
0.0940914
0.0967735
0.0992866
0.101636
0.103826
0.105864
0.107755
0.109502
0.111107
0.112571
0.113887
0.11504
0.116004
0.116735
0.117143
0.117139
0.116514
0.114954
0.111941
0.106602
0.099172
0.0906933
0.081793
0.0728572
0.064126
0.0557656
0.0478819
0.0405421
0.033815
0.0277147
0.0220257
0.0169576
0.0125809
0.00892495
0.00600696
0.0038127
0.0022772
0.00128343
0.000687075
0.000352117
0.000173937
8.36759e-05
3.94182e-05
1.82269e-05
8.28784e-06
3.71143e-06
1.63911e-06
7.14823e-07
3.08208e-07
1.31533e-07
5.56153e-08
2.33109e-08
9.68156e-09
3.97284e-09
1.59605e-09
6.11138e-10
2.04213e-10
3.57888e-11
3.5149e-07
1.53645e-06
3.53101e-06
6.87777e-06
1.24666e-05
2.17398e-05
3.70034e-05
6.18861e-05
0.000101994
0.000165806
0.000265828
0.000419969
0.000652981
0.000997622
0.001495
0.00219341
0.0031451
0.00440094
0.00600404
0.0079838
0.0103524
0.0131043
0.0162175
0.0196593
0.0233881
0.0273572
0.0315181
0.0358221
0.0402218
0.0446727
0.0491333
0.0535665
0.0579394
0.0622235
0.0663952
0.0704349
0.0743268
0.0780585
0.0816214
0.08501
0.0882215
0.0912553
0.0941127
0.0967967
0.0993114
0.101662
0.103854
0.105892
0.107783
0.10953
0.111135
0.112598
0.113911
0.115061
0.116022
0.116745
0.117143
0.117123
0.116472
0.114871
0.111792
0.106347
0.0988578
0.0903484
0.0814356
0.0724992
0.0637753
0.055429
0.0475635
0.0402457
0.0335452
0.0274675
0.0217889
0.0167511
0.0124062
0.00878299
0.00589768
0.00373412
0.00222494
0.00125134
0.000668748
0.000342263
0.000168893
8.12012e-05
3.8236e-05
1.76749e-05
8.03516e-06
3.59784e-06
1.58886e-06
6.92916e-07
2.98779e-07
1.27521e-07
5.3925e-08
2.26053e-08
9.38964e-09
3.85345e-09
1.5482e-09
5.9284e-10
1.981e-10
3.47173e-11
3.50703e-07
1.53302e-06
3.52312e-06
6.86239e-06
1.24387e-05
2.16911e-05
3.69204e-05
6.17474e-05
0.000101766
0.000165438
0.000265245
0.000419064
0.000651606
0.000995588
0.00149208
0.00218934
0.00313962
0.00439383
0.00599513
0.00797304
0.0103398
0.01309
0.0162022
0.0196433
0.0233717
0.0273409
0.0315023
0.0358072
0.0402082
0.0446607
0.0491234
0.0535588
0.057934
0.0622206
0.0663949
0.0704372
0.0743316
0.0780658
0.0816311
0.085022
0.0882356
0.0912712
0.0941303
0.0968157
0.0993316
0.101683
0.103875
0.105915
0.107806
0.109552
0.111157
0.112619
0.113931
0.115079
0.116035
0.116754
0.117143
0.11711
0.116439
0.114806
0.111677
0.106149
0.0986138
0.0900803
0.0811575
0.0722204
0.0635021
0.0551667
0.0473155
0.0400149
0.0333353
0.0272747
0.0216042
0.0165905
0.0122705
0.00867279
0.00581297
0.00367328
0.00218451
0.00122651
0.000654567
0.000334636
0.000164986
7.92845e-05
3.73202e-05
1.72472e-05
7.8394e-06
3.50982e-06
1.54992e-06
6.75936e-07
2.91469e-07
1.2441e-07
5.26141e-08
2.2058e-08
9.16317e-09
3.76082e-09
1.51108e-09
5.78645e-10
1.93359e-10
3.38861e-11
3.50127e-07
1.5305e-06
3.51734e-06
6.85114e-06
1.24183e-05
2.16555e-05
3.68598e-05
6.16463e-05
0.0001016
0.00016517
0.000264821
0.000418405
0.000650608
0.000994112
0.00148996
0.00218639
0.00313565
0.00438869
0.00598872
0.00796534
0.0103309
0.01308
0.0161914
0.019632
0.0233602
0.0273295
0.0314913
0.0357969
0.040199
0.0446527
0.0491168
0.0535538
0.0579308
0.0622193
0.0663955
0.0704397
0.074336
0.078072
0.081639
0.0850315
0.0882465
0.0912835
0.0941437
0.0968301
0.0993469
0.101699
0.103892
0.105931
0.107822
0.109569
0.111174
0.112635
0.113946
0.115092
0.116046
0.11676
0.117143
0.117101
0.116415
0.114759
0.111592
0.106005
0.0984353
0.0898841
0.0809538
0.072016
0.0633016
0.0549741
0.0471332
0.0398452
0.0331809
0.0271321
0.0214705
0.0164737
0.0121716
0.00859256
0.00575132
0.00362904
0.0021551
0.00120842
0.000644196
0.000329042
0.000162117
7.78771e-05
3.66481e-05
1.69334e-05
7.69583e-06
3.44529e-06
1.52138e-06
6.63488e-07
2.8611e-07
1.22129e-07
5.16531e-08
2.16567e-08
8.99716e-09
3.69293e-09
1.48387e-09
5.68243e-10
1.89885e-10
3.32772e-11
3.49752e-07
1.52886e-06
3.51358e-06
6.8438e-06
1.2405e-05
2.16323e-05
3.68204e-05
6.15804e-05
0.000101492
0.000164996
0.000264545
0.000417978
0.000649961
0.000993158
0.00148859
0.00218449
0.0031331
0.00438539
0.00598461
0.00796041
0.0103252
0.0130736
0.0161845
0.0196248
0.0233528
0.0273222
0.0314844
0.0357905
0.0401932
0.0446478
0.0491128
0.0535509
0.0579291
0.0622188
0.0663962
0.0704417
0.0743392
0.0780763
0.0816445
0.085038
0.088254
0.0912918
0.0941528
0.0968399
0.0993572
0.10171
0.103903
0.105943
0.107834
0.109581
0.111185
0.112645
0.113956
0.115101
0.116053
0.116764
0.117144
0.117095
0.116399
0.114728
0.111537
0.10591
0.0983186
0.0897556
0.0808204
0.071882
0.0631702
0.0548477
0.0470136
0.0397336
0.0330793
0.0270378
0.0213852
0.0163988
0.012108
0.00854082
0.00571158
0.00360056
0.00213619
0.00119675
0.000637479
0.000325406
0.000160247
7.69593e-05
3.62096e-05
1.67287e-05
7.60216e-06
3.4032e-06
1.50276e-06
6.55372e-07
2.82616e-07
1.20642e-07
5.10261e-08
2.13948e-08
8.88879e-09
3.6486e-09
1.4661e-09
5.61449e-10
1.87616e-10
3.28795e-11
3.49568e-07
1.52806e-06
3.51174e-06
6.84025e-06
1.23986e-05
2.16211e-05
3.68014e-05
6.15489e-05
0.000101441
0.000164913
0.000264414
0.000417776
0.000649655
0.000992707
0.00148794
0.00218359
0.0031319
0.00438384
0.00598268
0.00795809
0.0103225
0.0130706
0.0161813
0.0196214
0.0233494
0.0273188
0.0314811
0.0357874
0.0401905
0.0446455
0.049111
0.0535497
0.0579284
0.0622187
0.0663967
0.0704427
0.0743408
0.0780786
0.0816473
0.0850413
0.0882577
0.0912959
0.0941573
0.0968447
0.0993623
0.101715
0.103908
0.105948
0.107839
0.109586
0.11119
0.112651
0.113961
0.115105
0.116056
0.116767
0.117144
0.117092
0.116392
0.114712
0.111509
0.105864
0.0982613
0.0896926
0.080755
0.0718164
0.0631058
0.0547859
0.0469551
0.0396792
0.0330297
0.0269919
0.0213441
0.0163628
0.0120775
0.00851618
0.00569276
0.00358716
0.00212735
0.00119133
0.00063436
0.000323716
0.000159376
7.65308e-05
3.60045e-05
1.66328e-05
7.55818e-06
3.38339e-06
1.49398e-06
6.51537e-07
2.80961e-07
1.19935e-07
5.07276e-08
2.12698e-08
8.83689e-09
3.6273e-09
1.45754e-09
5.58166e-10
1.86517e-10
3.26867e-11
3.49568e-07
1.52806e-06
3.51174e-06
6.84023e-06
1.23985e-05
2.16211e-05
3.68014e-05
6.15488e-05
0.000101441
0.000164913
0.000264414
0.000417776
0.000649655
0.000992706
0.00148794
0.00218359
0.0031319
0.00438383
0.00598267
0.00795809
0.0103225
0.0130706
0.0161813
0.0196214
0.0233494
0.0273188
0.0314811
0.0357874
0.0401905
0.0446455
0.049111
0.0535497
0.0579284
0.0622187
0.0663967
0.0704427
0.0743408
0.0780786
0.0816473
0.0850413
0.0882577
0.091296
0.0941573
0.0968447
0.0993623
0.101715
0.103908
0.105948
0.107839
0.109586
0.11119
0.112651
0.113961
0.115105
0.116056
0.116767
0.117144
0.117092
0.116392
0.114712
0.111509
0.105864
0.0982613
0.0896926
0.080755
0.0718164
0.0631058
0.0547859
0.0469551
0.0396792
0.0330297
0.0269919
0.0213441
0.0163628
0.0120775
0.00851618
0.00569276
0.00358716
0.00212735
0.00119133
0.00063436
0.000323716
0.000159376
7.65307e-05
3.60044e-05
1.66327e-05
7.55817e-06
3.38339e-06
1.49398e-06
6.51535e-07
2.80961e-07
1.19935e-07
5.07275e-08
2.12698e-08
8.83686e-09
3.62729e-09
1.45754e-09
5.58164e-10
1.86516e-10
3.26866e-11
3.49749e-07
1.52885e-06
3.51355e-06
6.84376e-06
1.24049e-05
2.16322e-05
3.68202e-05
6.15801e-05
0.000101492
0.000164996
0.000264544
0.000417977
0.000649959
0.000993155
0.00148859
0.00218449
0.0031331
0.00438539
0.00598461
0.00796041
0.0103252
0.0130736
0.0161845
0.0196248
0.0233528
0.0273222
0.0314844
0.0357905
0.0401932
0.0446478
0.0491128
0.0535509
0.0579291
0.0622188
0.0663962
0.0704417
0.0743392
0.0780763
0.0816445
0.085038
0.088254
0.0912918
0.0941528
0.0968399
0.0993572
0.10171
0.103903
0.105943
0.107834
0.109581
0.111185
0.112646
0.113956
0.115101
0.116053
0.116764
0.117144
0.117095
0.116399
0.114728
0.111537
0.10591
0.0983186
0.0897556
0.0808204
0.071882
0.0631702
0.0548477
0.0470136
0.0397336
0.0330793
0.0270378
0.0213852
0.0163988
0.012108
0.00854082
0.00571158
0.00360055
0.00213618
0.00119675
0.000637477
0.000325405
0.000160246
7.69589e-05
3.62094e-05
1.67286e-05
7.60211e-06
3.40318e-06
1.50275e-06
6.55367e-07
2.82614e-07
1.20641e-07
5.10257e-08
2.13946e-08
8.88871e-09
3.64856e-09
1.46609e-09
5.61443e-10
1.87614e-10
3.28792e-11
3.50123e-07
1.53049e-06
3.51731e-06
6.85107e-06
1.24182e-05
2.16553e-05
3.68595e-05
6.16457e-05
0.000101599
0.000165169
0.000264819
0.000418403
0.000650604
0.000994107
0.00148995
0.00218638
0.00313564
0.00438868
0.00598871
0.00796532
0.0103309
0.0130799
0.0161914
0.019632
0.0233601
0.0273295
0.0314913
0.0357969
0.0401989
0.0446527
0.0491168
0.0535538
0.0579308
0.0622193
0.0663955
0.0704397
0.074336
0.078072
0.081639
0.0850315
0.0882465
0.0912835
0.0941437
0.0968302
0.0993469
0.101699
0.103892
0.105931
0.107823
0.109569
0.111174
0.112635
0.113946
0.115092
0.116046
0.11676
0.117143
0.117101
0.116415
0.114759
0.111592
0.106005
0.0984353
0.0898841
0.0809538
0.072016
0.0633016
0.0549741
0.0471332
0.0398452
0.0331809
0.0271321
0.0214705
0.0164737
0.0121716
0.00859255
0.00575131
0.00362903
0.00215509
0.00120841
0.000644192
0.00032904
0.000162115
7.78764e-05
3.66477e-05
1.69332e-05
7.69574e-06
3.44525e-06
1.52136e-06
6.6348e-07
2.86106e-07
1.22127e-07
5.16523e-08
2.16564e-08
8.99702e-09
3.69287e-09
1.48385e-09
5.68234e-10
1.89882e-10
3.32767e-11
3.50697e-07
1.53299e-06
3.52306e-06
6.86229e-06
1.24385e-05
2.16908e-05
3.692e-05
6.17467e-05
0.000101765
0.000165436
0.000265242
0.00041906
0.000651601
0.000995581
0.00149207
0.00218933
0.0031396
0.00439381
0.00599511
0.00797302
0.0103398
0.0130899
0.0162022
0.0196433
0.0233717
0.0273409
0.0315023
0.0358072
0.0402082
0.0446607
0.0491234
0.0535588
0.057934
0.0622207
0.0663949
0.0704372
0.0743316
0.0780658
0.0816312
0.085022
0.0882356
0.0912712
0.0941303
0.0968157
0.0993316
0.101683
0.103876
0.105915
0.107806
0.109552
0.111157
0.112619
0.113931
0.115079
0.116035
0.116754
0.117143
0.11711
0.116439
0.114806
0.111676
0.106149
0.0986137
0.0900803
0.0811575
0.0722203
0.0635021
0.0551667
0.0473155
0.0400149
0.0333353
0.0272747
0.0216042
0.0165904
0.0122704
0.00867277
0.00581295
0.00367327
0.0021845
0.0012265
0.000654561
0.000334632
0.000164984
7.92835e-05
3.73197e-05
1.7247e-05
7.83928e-06
3.50976e-06
1.54989e-06
6.75923e-07
2.91463e-07
1.24407e-07
5.2613e-08
2.20575e-08
9.16297e-09
3.76074e-09
1.51104e-09
5.78632e-10
1.93354e-10
3.38853e-11
3.51483e-07
1.53642e-06
3.53095e-06
6.87765e-06
1.24664e-05
2.17394e-05
3.70028e-05
6.18852e-05
0.000101993
0.000165804
0.000265825
0.000419964
0.000652974
0.000997613
0.00149499
0.0021934
0.00314508
0.00440092
0.00600401
0.00798377
0.0103524
0.0131042
0.0162175
0.0196593
0.023388
0.0273572
0.0315181
0.035822
0.0402218
0.0446726
0.0491333
0.0535665
0.0579394
0.0622235
0.0663952
0.0704349
0.0743268
0.0780585
0.0816214
0.0850101
0.0882216
0.0912553
0.0941127
0.0967967
0.0993114
0.101662
0.103854
0.105892
0.107783
0.10953
0.111135
0.112598
0.113911
0.115061
0.116022
0.116745
0.117143
0.117123
0.116472
0.114871
0.111792
0.106347
0.0988577
0.0903483
0.0814356
0.0724991
0.0637753
0.0554289
0.0475635
0.0402457
0.0335451
0.0274675
0.0217888
0.0167511
0.0124062
0.00878296
0.00589765
0.0037341
0.00222492
0.00125132
0.00066874
0.000342259
0.00016889
8.11999e-05
3.82353e-05
1.76745e-05
8.035e-06
3.59776e-06
1.58883e-06
6.92899e-07
2.98771e-07
1.27518e-07
5.39236e-08
2.26047e-08
9.38937e-09
3.85334e-09
1.54816e-09
5.92823e-10
1.98095e-10
3.47163e-11
3.52495e-07
1.54085e-06
3.5411e-06
6.89745e-06
1.25023e-05
2.18023e-05
3.71099e-05
6.20643e-05
0.000102287
0.00016628
0.00026658
0.000421139
0.00065476
0.00100026
0.0014988
0.00219871
0.00315223
0.0044102
0.0060156
0.00799769
0.0103685
0.0131221
0.0162373
0.0196804
0.0234099
0.0273791
0.0315395
0.0358425
0.0402407
0.0446895
0.0491477
0.0535782
0.057948
0.062229
0.0663974
0.0704337
0.0743222
0.0780507
0.0816105
0.0849962
0.088205
0.0912363
0.0940915
0.0967735
0.0992866
0.101636
0.103826
0.105864
0.107755
0.109502
0.111107
0.112571
0.113887
0.11504
0.116004
0.116735
0.117143
0.117139
0.116514
0.114954
0.111941
0.106602
0.099172
0.0906932
0.0817929
0.0728571
0.064126
0.0557656
0.0478818
0.0405421
0.033815
0.0277147
0.0220256
0.0169575
0.0125809
0.00892491
0.00600692
0.00381267
0.00227718
0.00128341
0.000687065
0.000352111
0.000173934
8.36741e-05
3.94173e-05
1.82265e-05
8.28763e-06
3.71133e-06
1.63906e-06
7.14802e-07
3.08198e-07
1.31529e-07
5.56134e-08
2.33101e-08
9.68122e-09
3.9727e-09
1.59599e-09
6.11116e-10
2.04206e-10
3.57875e-11
3.53751e-07
1.54633e-06
3.55372e-06
6.92206e-06
1.2547e-05
2.18804e-05
3.72433e-05
6.22876e-05
0.000102655
0.000166875
0.000267526
0.000422613
0.000657003
0.00100359
0.0015036
0.00220542
0.0031613
0.00442201
0.00603042
0.00801562
0.0103894
0.0131457
0.0162633
0.0197081
0.0234386
0.0274081
0.0315681
0.0358699
0.0402663
0.0447127
0.0491681
0.0535952
0.0579613
0.0622383
0.0664026
0.0704348
0.0743191
0.0780435
0.0815993
0.0849813
0.0881866
0.0912146
0.0940669
0.0967465
0.0992573
0.101605
0.103794
0.105831
0.107721
0.109468
0.111074
0.112539
0.113857
0.115014
0.115984
0.116724
0.117145
0.117158
0.116565
0.115055
0.112123
0.106917
0.0995598
0.0911186
0.0822337
0.0732989
0.0645589
0.0561815
0.0482754
0.0409089
0.0341495
0.0280201
0.0223177
0.0172126
0.0127971
0.0091009
0.00614266
0.00391048
0.00234238
0.00132355
0.000710031
0.000364473
0.000180265
8.67798e-05
4.09005e-05
1.89188e-05
8.60434e-06
3.85363e-06
1.70197e-06
7.42214e-07
3.1999e-07
1.36544e-07
5.77251e-08
2.41913e-08
1.00456e-08
4.12168e-09
1.65569e-09
6.33944e-10
2.11832e-10
3.71243e-11
3.5527e-07
1.55297e-06
3.56898e-06
6.95184e-06
1.26012e-05
2.19752e-05
3.74053e-05
6.25593e-05
0.000103103
0.000167601
0.000268683
0.000424418
0.000659758
0.00100769
0.00150953
0.00221374
0.00317257
0.00443676
0.00604905
0.00803835
0.0104162
0.0131766
0.016298
0.0197444
0.0234759
0.0274458
0.0316054
0.035906
0.0403004
0.0447442
0.0491961
0.0536193
0.0579811
0.0622533
0.0664127
0.0704398
0.074319
0.0780383
0.0815892
0.0849665
0.0881673
0.0911913
0.0940399
0.0967161
0.0992241
0.101569
0.103756
0.105792
0.107681
0.109427
0.111034
0.1125
0.11382
0.114981
0.115958
0.116708
0.117145
0.117182
0.116627
0.115177
0.11234
0.10729
0.10002
0.0916255
0.0827607
0.0738285
0.0650791
0.0566821
0.0487499
0.0413517
0.0345538
0.0283893
0.0226697
0.0175204
0.0130584
0.00931408
0.00630751
0.00402966
0.00242209
0.00137276
0.000738266
0.000379696
0.000188067
9.06078e-05
4.27283e-05
1.97716e-05
8.9942e-06
4.02867e-06
1.7793e-06
7.75883e-07
3.34462e-07
1.42694e-07
6.03128e-08