/*--------------------------------*- C++ -*----------------------------------*\
  =========                 |
  \\      /  F ield         | OpenFOAM: The Open Source CFD Toolbox
   \\    /   O peration     | Website:  https://openfoam.org
    \\  /    A nd           | Version:  8
     \\/     M anipulation  |
\*---------------------------------------------------------------------------*/
FoamFile
{
    version     2.0;
    format      ascii;
    class       volScalarField;
    location    "0.3/fluid";
    object      N2;
}
// * * * * * * * * * * * * * * * * * * * * * * * * * * * * * * * * * * * * * //

dimensions      [0 0 0 0 0 0 0];

internalField   nonuniform List<scalar> 
4000
(
2.26638e-06
9.90552e-06
2.27599e-05
4.43274e-05
8.03619e-05
0.000140235
0.000239027
0.000400656
0.000662405
0.00108117
0.0017416
0.00276586
0.00432428
0.00664229
0.0099992
0.0147178
0.0211371
0.0295696
0.0402554
0.0533261
0.0687892
0.0865368
0.106368
0.128018
0.151187
0.175556
0.20081
0.226642
0.252852
0.279202
0.305352
0.331121
0.356352
0.380911
0.404689
0.427601
0.449581
0.470583
0.49058
0.509558
0.527519
0.544473
0.560442
0.575451
0.589534
0.602726
0.615066
0.626596
0.637355
0.647387
0.656732
0.665432
0.673525
0.681051
0.688046
0.694546
0.700585
0.706126
0.71121
0.716076
0.720609
0.724842
0.728813
0.732562
0.736125
0.739519
0.742755
0.745836
0.748763
0.75153
0.75413
0.756556
0.758792
0.760843
0.762765
0.764464
0.765941
0.767176
0.768154
0.768875
0.769362
0.769662
0.769831
0.769919
0.769963
0.769983
0.769992
0.769997
0.769999
0.769999
0.77
0.77
0.77
0.77
0.77
0.77
0.77
0.77
0.77
0.77
2.26417e-06
9.89736e-06
2.27476e-05
4.43214e-05
8.03882e-05
0.00014034
0.000239268
0.000401053
0.000662806
0.00108097
0.00173923
0.00275781
0.00430265
0.00659122
0.00989678
0.0145353
0.0208388
0.0291173
0.0396144
0.0524718
0.0677122
0.0852437
0.104881
0.12637
0.149421
0.17372
0.198955
0.224881
0.251205
0.277502
0.303674
0.329513
0.354842
0.379518
0.403423
0.426467
0.448578
0.469709
0.489829
0.508924
0.526994
0.54405
0.560111
0.575205
0.589363
0.602622
0.615022
0.626604
0.63741
0.647481
0.656861
0.66559
0.673708
0.681255
0.688268
0.694783
0.700835
0.70637
0.711462
0.716337
0.720877
0.725115
0.729091
0.732846
0.736415
0.739815
0.743055
0.746141
0.749071
0.751838
0.754436
0.756855
0.759076
0.761114
0.763008
0.7647
0.766155
0.767356
0.768292
0.76897
0.76942
0.769693
0.769846
0.769926
0.769965
0.769984
0.769993
0.769997
0.769999
0.769999
0.77
0.77
0.77
0.77
0.77
0.77
0.77
0.77
0.77
0.77
2.26662e-06
9.90936e-06
2.2781e-05
4.43999e-05
8.05528e-05
0.000140652
0.0002398
0.000401856
0.000663803
0.00108172
0.00173842
0.00275232
0.00428608
0.00655523
0.00982668
0.0144088
0.0206268
0.0287857
0.0391278
0.0517986
0.0668291
0.0841398
0.103558
0.124846
0.147721
0.171882
0.197045
0.22296
0.249128
0.275439
0.301656
0.327569
0.352997
0.377792
0.401831
0.425019
0.447281
0.468564
0.488835
0.508078
0.52629
0.543481
0.559668
0.574878
0.589144
0.602501
0.61499
0.626651
0.637526
0.647658
0.65709
0.665865
0.674022
0.681601
0.688641
0.69518
0.701252
0.706776
0.71189
0.716778
0.721325
0.725568
0.729548
0.733309
0.736882
0.740284
0.743526
0.74661
0.749536
0.752294
0.754877
0.757277
0.759471
0.76149
0.763355
0.764996
0.766396
0.767541
0.768422
0.769053
0.769468
0.769718
0.769858
0.769931
0.769968
0.769985
0.769993
0.769997
0.769999
0.769999
0.77
0.77
0.77
0.77
0.77
0.77
0.77
0.77
0.77
0.77
2.26082e-06
9.88367e-06
2.27204e-05
4.4276e-05
8.03094e-05
0.000140174
0.000238853
0.000399967
0.000660062
0.00107445
0.00172471
0.00272747
0.00424335
0.00648361
0.00971068
0.0142282
0.0203575
0.0284012
0.0386026
0.0511113
0.065965
0.0830925
0.102331
0.12345
0.146176
0.170214
0.195342
0.221057
0.247208
0.273529
0.299782
0.325755
0.351266
0.376163
0.40032
0.423637
0.446038
0.467464
0.487881
0.507269
0.525622
0.542949
0.559265
0.574597
0.588977
0.60244
0.615022
0.626767
0.637718
0.647916
0.657406
0.66623
0.674428
0.682041
0.689107
0.695663
0.701745
0.707229
0.712468
0.717342
0.72188
0.726119
0.730097
0.733858
0.737431
0.740831
0.744068
0.747144
0.750056
0.752795
0.755355
0.757722
0.75988
0.761872
0.763694
0.765286
0.766633
0.767722
0.768551
0.769137
0.769518
0.769745
0.769872
0.769938
0.769971
0.769986
0.769994
0.769997
0.769999
0.769999
0.77
0.77
0.77
0.77
0.77
0.77
0.77
0.77
0.77
0.77
2.24951e-06
9.83381e-06
2.26039e-05
4.4043e-05
7.98711e-05
0.000139371
0.000237402
0.000397366
0.000655432
0.00106629
0.00171051
0.0027032
0.00420273
0.00641737
0.00960587
0.014068
0.0201217
0.0280679
0.0381506
0.0505224
0.0652268
0.0821994
0.101284
0.122258
0.144851
0.168794
0.19375
0.219434
0.24557
0.271896
0.298177
0.324199
0.34978
0.374763
0.399021
0.422453
0.444975
0.46653
0.487077
0.506596
0.525078
0.542531
0.558968
0.574415
0.588902
0.602461
0.615133
0.626959
0.637981
0.648244
0.657789
0.666659
0.674896
0.68254
0.689631
0.696205
0.7023
0.707788
0.713041
0.717919
0.722457
0.726692
0.730668
0.734427
0.737997
0.741393
0.744621
0.747684
0.750577
0.753292
0.755821
0.758151
0.76027
0.762239
0.764013
0.765555
0.766848
0.767885
0.768665
0.76921
0.769561
0.769768
0.769883
0.769943
0.769973
0.769988
0.769994
0.769997
0.769999
0.77
0.77
0.77
0.77
0.77
0.77
0.77
0.77
0.77
0.77
0.77
2.2337e-06
9.76416e-06
2.24412e-05
4.37186e-05
7.92649e-05
0.000138274
0.000235455
0.000393955
0.000649531
0.00105622
0.00169359
0.00267528
0.00415769
0.00634653
0.00949767
0.0139081
0.0198935
0.0277543
0.0377356
0.0499933
0.0645756
0.0814236
0.100387
0.121248
0.143742
0.167635
0.192498
0.218125
0.244233
0.270558
0.296859
0.322923
0.348564
0.373622
0.397969
0.421498
0.444127
0.465793
0.486455
0.506089
0.524685
0.542248
0.558793
0.574341
0.58892
0.602566
0.615318
0.627216
0.638302
0.64862
0.658214
0.667125
0.675395
0.683067
0.690178
0.696767
0.702863
0.708353
0.713609
0.718486
0.723021
0.727251
0.731224
0.734979
0.738544
0.741932
0.745148
0.748196
0.751068
0.753757
0.756255
0.758545
0.760628
0.762575
0.764304
0.765797
0.767042
0.768031
0.768767
0.769276
0.769599
0.769789
0.769894
0.769949
0.769976
0.769989
0.769995
0.769998
0.769999
0.77
0.77
0.77
0.77
0.77
0.77
0.77
0.77
0.77
0.77
0.77
2.21616e-06
9.68713e-06
2.22625e-05
4.33654e-05
7.86123e-05
0.00013711
0.00023342
0.000390452
0.000643584
0.00104626
0.00167716
0.00264867
0.00411546
0.0062811
0.00939907
0.013764
0.0196901
0.0274774
0.0373723
0.0495337
0.0640142
0.08076
0.0996259
0.120398
0.142823
0.166592
0.191424
0.217029
0.243131
0.269465
0.295792
0.321897
0.347592
0.372719
0.397144
0.42076
0.443482
0.465245
0.486006
0.505739
0.524433
0.542093
0.558729
0.574362
0.589021
0.602742
0.615561
0.62752
0.63866
0.649025
0.658659
0.667603
0.6759
0.683593
0.690719
0.697319
0.703405
0.708893
0.714149
0.719023
0.723552
0.727776
0.731742
0.735493
0.739051
0.742429
0.745634
0.748666
0.751516
0.75418
0.756648
0.758901
0.760956
0.76287
0.764559
0.76601
0.767212
0.768157
0.768855
0.769332
0.769632
0.769807
0.769903
0.769953
0.769978
0.76999
0.769995
0.769998
0.769999
0.77
0.77
0.77
0.77
0.77
0.77
0.77
0.77
0.77
0.77
0.77
2.19828e-06
9.60873e-06
2.2081e-05
4.30079e-05
7.79547e-05
0.000135942
0.000231392
0.000386987
0.000637748
0.00103658
0.00166136
0.00262335
0.00407575
0.00622034
0.00930866
0.0136336
0.0195082
0.0272324
0.0370542
0.0491353
0.0635316
0.0801934
0.0989794
0.119679
0.142061
0.165768
0.19056
0.216145
0.242243
0.268589
0.294942
0.321087
0.346833
0.372021
0.396515
0.420207
0.44301
0.464857
0.485703
0.505521
0.5243
0.54204
0.558752
0.574458
0.589185
0.602968
0.615843
0.627852
0.639036
0.649439
0.659103
0.668074
0.676391
0.684099
0.691236
0.697842
0.70391
0.709394
0.714646
0.719515
0.724037
0.728255
0.732215
0.73596
0.739511
0.742879
0.746071
0.749087
0.751917
0.754557
0.756997
0.759217
0.761247
0.763129
0.764782
0.766196
0.767359
0.768267
0.768931
0.76938
0.76966
0.769823
0.769911
0.769957
0.76998
0.769991
0.769996
0.769998
0.769999
0.77
0.77
0.77
0.77
0.77
0.77
0.77
0.77
0.77
0.77
0.77
2.18115e-06
9.5337e-06
2.19077e-05
4.26677e-05
7.73313e-05
0.000134841
0.000229489
0.000383755
0.000632342
0.00102767
0.00164693
0.00260042
0.00404008
0.00616618
0.00922867
0.013519
0.0193495
0.0270203
0.0367806
0.0487947
0.0631217
0.079715
0.098436
0.119076
0.141382
0.165069
0.189846
0.215426
0.241529
0.267892
0.294273
0.320456
0.34625
0.371493
0.396049
0.419808
0.44268
0.464599
0.485518
0.505409
0.524258
0.542065
0.558841
0.574607
0.58939
0.603224
0.616144
0.628193
0.639412
0.649844
0.659533
0.668522
0.676855
0.684572
0.691715
0.698323
0.704368
0.709846
0.715095
0.719958
0.724473
0.728684
0.732639
0.736377
0.73992
0.743279
0.746459
0.749459
0.75227
0.754888
0.757302
0.759494
0.761503
0.763355
0.764977
0.766358
0.767487
0.768362
0.768996
0.769421
0.769684
0.769836
0.769918
0.76996
0.769981
0.769991
0.769996
0.769998
0.769999
0.77
0.77
0.77
0.77
0.77
0.77
0.77
0.77
0.77
0.77
0.77
2.16532e-06
9.46444e-06
2.1748e-05
4.23546e-05
7.67589e-05
0.000133832
0.000227752
0.000380816
0.000627447
0.00101965
0.001634
0.00257998
0.00400847
0.00611849
0.00915869
0.0134194
0.0192125
0.0268382
0.0365474
0.0485064
0.0627773
0.0793172
0.0979913
0.118602
0.140861
0.164517
0.189279
0.214854
0.240964
0.267345
0.293753
0.319972
0.345809
0.371102
0.395712
0.419529
0.442462
0.464443
0.485424
0.505375
0.524282
0.542145
0.558975
0.57479
0.589618
0.603492
0.61645
0.62853
0.639776
0.65023
0.659937
0.66894
0.677282
0.685005
0.692151
0.698758
0.704775
0.710249
0.715493
0.72035
0.724858
0.729063
0.733013
0.736745
0.74028
0.74363
0.746798
0.749784
0.752578
0.755176
0.757567
0.759734
0.761726
0.763553
0.765147
0.766498
0.767597
0.768443
0.769051
0.769455
0.769704
0.769847
0.769924
0.769963
0.769983
0.769992
0.769996
0.769998
0.769999
0.77
0.77
0.77
0.77
0.77
0.77
0.77
0.77
0.77
0.77
0.77
2.15111e-06
9.40228e-06
2.16048e-05
4.20744e-05
7.62476e-05
0.000132933
0.000226208
0.000378213
0.000623126
0.00101259
0.00162268
0.00256216
0.00398103
0.00607729
0.00909851
0.0133342
0.0190957
0.0266839
0.0363505
0.0482636
0.0624873
0.0789798
0.0976066
0.118173
0.140418
0.164064
0.18882
0.214399
0.24052
0.266919
0.293354
0.319606
0.345482
0.370819
0.395476
0.419343
0.442328
0.464361
0.485394
0.505396
0.524352
0.542261
0.559134
0.574989
0.589854
0.60376
0.616746
0.628851
0.640117
0.650588
0.660308
0.66932
0.677669
0.685395
0.692541
0.699147
0.705135
0.710604
0.715843
0.720694
0.725196
0.729395
0.733339
0.737065
0.740594
0.743935
0.747093
0.750065
0.752844
0.755425
0.757795
0.759942
0.76192
0.763723
0.765293
0.766618
0.767691
0.768512
0.769098
0.769485
0.769721
0.769856
0.769928
0.769965
0.769984
0.769992
0.769997
0.769998
0.769999
0.77
0.77
0.77
0.77
0.77
0.77
0.77
0.77
0.77
0.77
0.77
2.13863e-06
9.34769e-06
2.14791e-05
4.18288e-05
7.58001e-05
0.000132148
0.000224863
0.000375949
0.000619378
0.00100649
0.00161292
0.00254685
0.00395755
0.00604217
0.00904743
0.0132622
0.0189977
0.026555
0.0361873
0.0480645
0.0622531
0.0787139
0.0973154
0.117851
0.140075
0.163707
0.18846
0.214042
0.240174
0.266592
0.293052
0.319334
0.345245
0.370619
0.395318
0.419228
0.442257
0.464334
0.485409
0.505453
0.524449
0.542396
0.559304
0.575191
0.590085
0.604017
0.617024
0.629148
0.640429
0.650912
0.660641
0.66966
0.678012
0.68574
0.692886
0.699489
0.705448
0.710913
0.716148
0.720993
0.72549
0.729683
0.733622
0.737343
0.740865
0.744198
0.747346
0.750307
0.753073
0.755638
0.75799
0.760119
0.762088
0.76387
0.765418
0.766721
0.767771
0.76857
0.769137
0.769509
0.769735
0.769863
0.769932
0.769967
0.769985
0.769993
0.769997
0.769999
0.769999
0.77
0.77
0.77
0.77
0.77
0.77
0.77
0.77
0.77
0.77
0.77
2.12787e-06
9.30069e-06
2.1371e-05
4.16176e-05
7.54158e-05
0.000131474
0.000223711
0.000374015
0.000616184
0.0010013
0.00160464
0.0025339
0.00393775
0.00601263
0.00900461
0.013202
0.0189159
0.0264479
0.036052
0.0478998
0.0620598
0.0784949
0.0970765
0.117591
0.1398
0.163425
0.188176
0.213764
0.239908
0.266343
0.292825
0.319134
0.345075
0.370483
0.395217
0.419163
0.442229
0.464342
0.485454
0.505532
0.52456
0.542538
0.559474
0.575386
0.590302
0.604254
0.617278
0.629415
0.640708
0.6512
0.660935
0.669957
0.678311
0.68604
0.693185
0.699787
0.705723
0.711184
0.716415
0.721255
0.725745
0.729933
0.733867
0.737582
0.741097
0.744423
0.747563
0.750513
0.753267
0.755818
0.758155
0.76027
0.762231
0.763995
0.765525
0.766808
0.767838
0.768619
0.76917
0.769529
0.769747
0.76987
0.769936
0.769969
0.769985
0.769993
0.769997
0.769999
0.769999
0.77
0.77
0.77
0.77
0.77
0.77
0.77
0.77
0.77
0.77
0.77
2.11878e-06
9.26098e-06
2.12797e-05
4.14395e-05
7.5092e-05
0.000130908
0.000222743
0.000372392
0.000613509
0.000996962
0.00159774
0.00252313
0.00392132
0.00598818
0.00896925
0.0131525
0.0188487
0.02636
0.035941
0.0477644
0.0618997
0.0783106
0.09687
0.117375
0.139578
0.1632
0.187954
0.213549
0.239705
0.266156
0.292658
0.31899
0.344958
0.370394
0.395157
0.419134
0.44223
0.464373
0.485514
0.50562
0.524675
0.542677
0.559635
0.575567
0.5905
0.604467
0.617503
0.62965
0.64095
0.651447
0.661185
0.670209
0.678563
0.686289
0.693432
0.700033
0.70595
0.711421
0.716651
0.721485
0.725968
0.730149
0.734077
0.737786
0.741295
0.744614
0.747746
0.750687
0.753431
0.755971
0.758294
0.760396
0.762351
0.764101
0.765614
0.766881
0.767895
0.76866
0.769197
0.769546
0.769757
0.769875
0.769938
0.76997
0.769986
0.769994
0.769997
0.769999
0.769999
0.77
0.77
0.77
0.77
0.77
0.77
0.77
0.77
0.77
0.77
0.77
2.11126e-06
9.22813e-06
2.12042e-05
4.12923e-05
7.48246e-05
0.00013044
0.000221946
0.000371057
0.000611312
0.000993408
0.00159209
0.00251434
0.00390793
0.00596832
0.0089406
0.0131124
0.0187947
0.0262896
0.0358527
0.0476576
0.0617751
0.0781699
0.096715
0.11721
0.139407
0.163028
0.187784
0.213386
0.239553
0.266018
0.292537
0.318889
0.344879
0.370338
0.395126
0.419127
0.442248
0.464416
0.48558
0.505708
0.524784
0.542805
0.55978
0.575728
0.590675
0.604652
0.617698
0.629851
0.641156
0.651656
0.661394
0.670416
0.678766
0.686485
0.693617
0.7002
0.706077
0.71169
0.716886
0.721697
0.726165
0.730335
0.734256
0.737958
0.741461
0.744774
0.747899
0.750832
0.753567
0.756097
0.758408
0.760501
0.762451
0.764188
0.765688
0.766941
0.767941
0.768693
0.76922
0.76956
0.769764
0.769879
0.76994
0.769971
0.769986
0.769994
0.769997
0.769999
0.769999
0.77
0.77
0.77
0.77
0.77
0.77
0.77
0.77
0.77
0.77
0.77
2.1052e-06
9.20166e-06
2.11434e-05
4.11737e-05
7.46095e-05
0.000130065
0.000221306
0.000369987
0.000609553
0.000990565
0.00158758
0.00250733
0.00389728
0.00595254
0.00891789
0.0130808
0.018752
0.0262343
0.0357836
0.0475747
0.0616793
0.0780638
0.0965973
0.117084
0.139277
0.162897
0.187656
0.213264
0.23944
0.265918
0.292451
0.31882
0.344827
0.370305
0.395113
0.419134
0.442275
0.464462
0.485645
0.505791
0.524883
0.542919
0.559907
0.575866
0.590823
0.604808
0.61786
0.630019
0.641327
0.651828
0.661567
0.670588
0.678935
0.686651
0.693779
0.70036
0.706236
0.711858
0.717052
0.721858
0.72632
0.730484
0.7344
0.738098
0.741596
0.744903
0.748023
0.750949
0.753677
0.756199
0.758501
0.760586
0.762532
0.764259
0.765748
0.76699
0.767979
0.76872
0.769237
0.769571
0.769771
0.769883
0.769942
0.769972
0.769987
0.769994
0.769997
0.769999
0.769999
0.77
0.77
0.77
0.77
0.77
0.77
0.77
0.77
0.77
0.77
0.77
2.1005e-06
9.18112e-06
2.10962e-05
4.10818e-05
7.44427e-05
0.000129774
0.00022081
0.000369159
0.000608193
0.00098837
0.0015841
0.00250193
0.00388908
0.00594042
0.00890046
0.0130565
0.0187194
0.0261919
0.0357306
0.0475106
0.0616044
0.0779785
0.0965062
0.116989
0.139179
0.1628
0.187562
0.213176
0.239359
0.265847
0.292392
0.318774
0.344795
0.370288
0.395111
0.419148
0.442304
0.464506
0.485703
0.505862
0.524966
0.543013
0.560011
0.575979
0.590943
0.604934
0.617991
0.630153
0.641464
0.651966
0.661705
0.670726
0.679071
0.686786
0.693912
0.700491
0.706365
0.711985
0.717177
0.72198
0.726437
0.730599
0.734511
0.738205
0.7417
0.745003
0.748119
0.75104
0.753762
0.756278
0.758573
0.760652
0.762596
0.764314
0.765795
0.767028
0.768008
0.768741
0.769251
0.76958
0.769776
0.769885
0.769943
0.769973
0.769987
0.769994
0.769997
0.769999
0.769999
0.77
0.77
0.77
0.77
0.77
0.77
0.77
0.77
0.77
0.77
0.77
2.09706e-06
9.1661e-06
2.10617e-05
4.10146e-05
7.43209e-05
0.000129561
0.000220448
0.000368555
0.000607203
0.000986772
0.00158157
0.002498
0.00388313
0.00593162
0.00888783
0.0130389
0.0186958
0.0261613
0.0356924
0.0474647
0.0615512
0.077919
0.0964419
0.116922
0.13911
0.162732
0.187497
0.213115
0.239304
0.265799
0.292353
0.318744
0.344776
0.37028
0.395114
0.419162
0.442329
0.464542
0.485749
0.505918
0.525031
0.543086
0.560091
0.576065
0.591034
0.60503
0.61809
0.630255
0.641566
0.65207
0.661809
0.670829
0.679174
0.686887
0.694012
0.700589
0.706461
0.712079
0.717268
0.722068
0.726523
0.730682
0.734592
0.738284
0.741776
0.745077
0.748189
0.751107
0.753825
0.756336
0.758626
0.760701
0.762642
0.764354
0.765829
0.767055
0.768029
0.768756
0.769261
0.769586
0.769779
0.769887
0.769944
0.769973
0.769987
0.769994
0.769997
0.769999
0.769999
0.77
0.77
0.77
0.77
0.77
0.77
0.77
0.77
0.77
0.77
0.77
2.09482e-06
9.1563e-06
2.10392e-05
4.09708e-05
7.42415e-05
0.000129423
0.000220213
0.000368163
0.000606559
0.000985734
0.00157993
0.00249546
0.00387928
0.00592593
0.00887968
0.0130276
0.0186806
0.0261417
0.035668
0.0474354
0.0615173
0.0778812
0.096401
0.116879
0.139067
0.162689
0.187456
0.213076
0.23927
0.26577
0.292329
0.318727
0.344766
0.370277
0.395119
0.419174
0.442348
0.464568
0.485782
0.505957
0.525075
0.543136
0.560145
0.576123
0.591095
0.605094
0.618156
0.630322
0.641635
0.652139
0.661878
0.670898
0.679242
0.686955
0.694078
0.700654
0.706524
0.71214
0.717327
0.722126
0.726579
0.730736
0.734645
0.738336
0.741826
0.745125
0.748236
0.751151
0.753866
0.756375
0.758661
0.760733
0.762671
0.76438
0.76585
0.767073
0.768043
0.768766
0.769268
0.76959
0.769781
0.769888
0.769945
0.769974
0.769988
0.769994
0.769997
0.769999
0.769999
0.77
0.77
0.77
0.77
0.77
0.77
0.77
0.77
0.77
0.77
0.77
2.09372e-06
9.15152e-06
2.10282e-05
4.09496e-05
7.42031e-05
0.000129356
0.0002201
0.000367975
0.000606251
0.00098524
0.00157915
0.00249425
0.00387745
0.00592325
0.00887583
0.0130223
0.0186734
0.0261324
0.0356564
0.0474216
0.0615013
0.0778633
0.0963817
0.116859
0.139046
0.162669
0.187436
0.213058
0.239254
0.265756
0.292319
0.318719
0.344762
0.370276
0.395121
0.41918
0.442358
0.464581
0.485798
0.505976
0.525098
0.54316
0.560172
0.576152
0.591125
0.605125
0.618188
0.630355
0.641669
0.652173
0.661912
0.670932
0.679276
0.686988
0.694111
0.700685
0.706555
0.71217
0.717356
0.722154
0.726606
0.730763
0.734671
0.738361
0.741851
0.745149
0.748258
0.751173
0.753887
0.756394
0.758678
0.760749
0.762685
0.764392
0.765861
0.767081
0.768049
0.768771
0.769271
0.769592
0.769783
0.769889
0.769945
0.769974
0.769988
0.769994
0.769997
0.769999
0.769999
0.77
0.77
0.77
0.77
0.77
0.77
0.77
0.77
0.77
0.77
0.77
2.09372e-06
9.15151e-06
2.10282e-05
4.09495e-05
7.4203e-05
0.000129356
0.000220099
0.000367974
0.000606251
0.000985239
0.00157915
0.00249425
0.00387745
0.00592324
0.00887583
0.0130223
0.0186734
0.0261324
0.0356564
0.0474216
0.0615013
0.0778633
0.0963817
0.116859
0.139046
0.162669
0.187436
0.213058
0.239254
0.265756
0.292319
0.318719
0.344762
0.370276
0.395121
0.41918
0.442358
0.464581
0.485798
0.505976
0.525098
0.54316
0.560172
0.576152
0.591125
0.605125
0.618189
0.630355
0.641669
0.652173
0.661912
0.670932
0.679276
0.686988
0.694111
0.700685
0.706555
0.71217
0.717356
0.722154
0.726606
0.730763
0.734671
0.738361
0.741851
0.745149
0.748258
0.751173
0.753887
0.756394
0.758678
0.760749
0.762685
0.764392
0.765861
0.767081
0.768049
0.768771
0.769271
0.769592
0.769783
0.769889
0.769945
0.769974
0.769988
0.769994
0.769997
0.769999
0.769999
0.77
0.77
0.77
0.77
0.77
0.77
0.77
0.77
0.77
0.77
0.77
2.09481e-06
9.15625e-06
2.10391e-05
4.09706e-05
7.42412e-05
0.000129422
0.000220212
0.000368161
0.000606556
0.000985731
0.00157992
0.00249545
0.00387927
0.00592592
0.00887966
0.0130276
0.0186806
0.0261417
0.0356679
0.0474354
0.0615173
0.0778811
0.096401
0.116879
0.139067
0.162689
0.187456
0.213076
0.23927
0.26577
0.292329
0.318727
0.344766
0.370277
0.395119
0.419174
0.442348
0.464568
0.485782
0.505957
0.525076
0.543136
0.560145
0.576123
0.591095
0.605094
0.618156
0.630322
0.641635
0.652139
0.661878
0.670898
0.679242
0.686955
0.694078
0.700654
0.706524
0.71214
0.717327
0.722126
0.726579
0.730736
0.734645
0.738336
0.741826
0.745125
0.748236
0.751151
0.753866
0.756375
0.758661
0.760733
0.762671
0.76438
0.76585
0.767073
0.768043
0.768766
0.769268
0.76959
0.769781
0.769888
0.769945
0.769974
0.769988
0.769994
0.769997
0.769999
0.769999
0.77
0.77
0.77
0.77
0.77
0.77
0.77
0.77
0.77
0.77
0.77
2.09704e-06
9.16602e-06
2.10615e-05
4.10143e-05
7.43204e-05
0.00012956
0.000220447
0.000368553
0.000607199
0.000986767
0.00158156
0.00249799
0.00388311
0.0059316
0.00888781
0.0130389
0.0186957
0.0261613
0.0356924
0.0474647
0.0615511
0.077919
0.0964418
0.116922
0.13911
0.162732
0.187497
0.213115
0.239304
0.265799
0.292353
0.318744
0.344776
0.37028
0.395114
0.419162
0.442329
0.464542
0.485749
0.505918
0.525031
0.543086
0.560091
0.576065
0.591034
0.60503
0.61809
0.630255
0.641566
0.65207
0.661809
0.670829
0.679174
0.686887
0.694012
0.700589
0.706461
0.712079
0.717268
0.722068
0.726523
0.730682
0.734592
0.738284
0.741776
0.745077
0.748189
0.751107
0.753825
0.756336
0.758626
0.760701
0.762642
0.764354
0.765829
0.767055
0.768029
0.768756
0.769261
0.769586
0.769779
0.769887
0.769944
0.769973
0.769987
0.769994
0.769997
0.769999
0.769999
0.77
0.77
0.77
0.77
0.77
0.77
0.77
0.77
0.77
0.77
0.77
2.10048e-06
9.18101e-06
2.10959e-05
4.10814e-05
7.4442e-05
0.000129772
0.000220808
0.000369156
0.000608188
0.000988363
0.00158409
0.00250191
0.00388906
0.00594039
0.00890042
0.0130565
0.0187193
0.0261918
0.0357305
0.0475105
0.0616043
0.0779784
0.0965061
0.116989
0.139179
0.1628
0.187562
0.213176
0.239359
0.265847
0.292392
0.318774
0.344795
0.370288
0.395111
0.419148
0.442304
0.464506
0.485703
0.505862
0.524966
0.543013
0.560011
0.575979
0.590943
0.604935
0.617991
0.630154
0.641464
0.651966
0.661705
0.670726
0.679072
0.686786
0.693912
0.700491
0.706365
0.711985
0.717177
0.72198
0.726437
0.730599
0.734511
0.738205
0.7417
0.745003
0.748119
0.75104
0.753762
0.756278
0.758573
0.760652
0.762596
0.764314
0.765795
0.767028
0.768008
0.768741
0.769251
0.76958
0.769776
0.769885
0.769943
0.769973
0.769987
0.769994
0.769997
0.769999
0.769999
0.77
0.77
0.77
0.77
0.77
0.77
0.77
0.77
0.77
0.77
0.77
2.10517e-06
9.20152e-06
2.11431e-05
4.11732e-05
7.46085e-05
0.000130063
0.000221303
0.000369983
0.000609546
0.000990555
0.00158756
0.00250731
0.00389725
0.0059525
0.00891784
0.0130807
0.018752
0.0262342
0.0357835
0.0475746
0.0616792
0.0780637
0.0965972
0.117084
0.139276
0.162897
0.187656
0.213264
0.23944
0.265918
0.292451
0.31882
0.344827
0.370305
0.395113
0.419134
0.442275
0.464462
0.485645
0.505791
0.524883
0.542919
0.559907
0.575866
0.590823
0.604808
0.61786
0.630019
0.641327
0.651828
0.661567
0.670588
0.678935
0.686652
0.693779
0.70036
0.706236
0.711858
0.717052
0.721858
0.72632
0.730484
0.7344
0.738098
0.741596
0.744903
0.748023
0.750949
0.753677
0.756199
0.758501
0.760586
0.762532
0.764259
0.765748
0.76699
0.767979
0.76872
0.769237
0.769571
0.769771
0.769883
0.769942
0.769972
0.769987
0.769994
0.769997
0.769999
0.769999
0.77
0.77
0.77
0.77
0.77
0.77
0.77
0.77
0.77
0.77
0.77
2.11122e-06
9.22796e-06
2.12038e-05
4.12915e-05
7.48233e-05
0.000130438
0.000221942
0.000371052
0.000611304
0.000993396
0.00159207
0.00251431
0.00390789
0.00596827
0.00894053
0.0131123
0.0187946
0.0262895
0.0358525
0.0476575
0.0617749
0.0781698
0.0967149
0.11721
0.139406
0.163028
0.187784
0.213386
0.239553
0.266018
0.292537
0.318889
0.344879
0.370338
0.395126
0.419127
0.442248
0.464416
0.48558
0.505708
0.524784
0.542805
0.559781
0.575728
0.590675
0.604652
0.617698
0.629852
0.641156
0.651656
0.661394
0.670416
0.678766
0.686485
0.693617
0.7002
0.706077
0.71169
0.716886
0.721697
0.726165
0.730336
0.734256
0.737959
0.741461
0.744774
0.747899
0.750832
0.753567
0.756097
0.758408
0.760501
0.762451
0.764188
0.765688
0.766941
0.767941
0.768693
0.76922
0.76956
0.769764
0.769879
0.76994
0.769971
0.769986
0.769994
0.769997
0.769999
0.769999
0.77
0.77
0.77
0.77
0.77
0.77
0.77
0.77
0.77
0.77
0.77
2.11874e-06
9.26077e-06
2.12792e-05
4.14386e-05
7.50905e-05
0.000130905
0.000222739
0.000372386
0.000613499
0.000996948
0.00159771
0.0025231
0.00392127
0.00598812
0.00896916
0.0131524
0.0188486
0.0263598
0.0359408
0.0477642
0.0618995
0.0783104
0.0968698
0.117375
0.139577
0.1632
0.187954
0.213549
0.239705
0.266156
0.292658
0.31899
0.344958
0.370394
0.395157
0.419134
0.44223
0.464373
0.485514
0.50562
0.524675
0.542677
0.559635
0.575567
0.5905
0.604467
0.617503
0.629651
0.640951
0.651447
0.661185
0.670209
0.678563
0.68629
0.693432
0.700033
0.70595
0.711421
0.716652
0.721485
0.725968
0.730149
0.734077
0.737786
0.741296
0.744614
0.747746
0.750687
0.753431
0.755971
0.758294
0.760396
0.762351
0.764101
0.765614
0.766881
0.767895
0.76866
0.769197
0.769546
0.769757
0.769875
0.769938
0.76997
0.769986
0.769994
0.769997
0.769999
0.769999
0.77
0.77
0.77
0.77
0.77
0.77
0.77
0.77
0.77
0.77
0.77
2.12782e-06
9.30045e-06
2.13705e-05
4.16166e-05
7.54141e-05
0.000131472
0.000223706
0.000374007
0.000616173
0.00100128
0.00160461
0.00253387
0.0039377
0.00601256
0.00900451
0.0132019
0.0189157
0.0264477
0.0360518
0.0478995
0.0620595
0.0784945
0.0970763
0.117591
0.139799
0.163425
0.188176
0.213764
0.239908
0.266343
0.292825
0.319134
0.345076
0.370483
0.395217
0.419163
0.442229
0.464342
0.485454
0.505532
0.524561
0.542538
0.559474
0.575387
0.590302
0.604254
0.617278
0.629416
0.640708
0.6512
0.660935
0.669957
0.678311
0.68604
0.693185
0.699787
0.705723
0.711184
0.716415
0.721255
0.725745
0.729933
0.733867
0.737582
0.741097
0.744423
0.747563
0.750513
0.753267
0.755818
0.758155
0.76027
0.762231
0.763995
0.765525
0.766808
0.767838
0.768619
0.76917
0.769529
0.769747
0.76987
0.769936
0.769969
0.769985
0.769993
0.769997
0.769999
0.769999
0.77
0.77
0.77
0.77
0.77
0.77
0.77
0.77
0.77
0.77
0.77
2.13856e-06
9.34742e-06
2.14785e-05
4.18276e-05
7.57981e-05
0.000132144
0.000224857
0.00037594
0.000619365
0.00100647
0.00161289
0.00254681
0.00395749
0.00604208
0.00904731
0.0132621
0.0189975
0.0265548
0.036187
0.0480642
0.0622528
0.0787137
0.0973153
0.117851
0.140074
0.163707
0.18846
0.214042
0.240174
0.266592
0.293052
0.319334
0.345245
0.370619
0.395318
0.419228
0.442257
0.464334
0.48541
0.505453
0.524449
0.542397
0.559304
0.575191
0.590085
0.604017
0.617024
0.629148
0.640429
0.650912
0.660641
0.66966
0.678012
0.68574
0.692886
0.699489
0.705448
0.710913
0.716148
0.720993
0.72549
0.729683
0.733622
0.737343
0.740865
0.744198
0.747346
0.750307
0.753073
0.755638
0.75799
0.760119
0.762088
0.76387
0.765418
0.766721
0.767771
0.76857
0.769137
0.769509
0.769735
0.769863
0.769932
0.769967
0.769985
0.769993
0.769997
0.769999
0.769999
0.77
0.77
0.77
0.77
0.77
0.77
0.77
0.77
0.77
0.77
0.77
2.15104e-06
9.40197e-06
2.16041e-05
4.20731e-05
7.62453e-05
0.000132929
0.000226202
0.000378203
0.000623111
0.00101257
0.00162265
0.00256211
0.00398097
0.0060772
0.00909839
0.0133341
0.0190956
0.0266837
0.0363502
0.0482633
0.062487
0.0789795
0.0976063
0.118173
0.140418
0.164063
0.18882
0.214399
0.24052
0.266919
0.293354
0.319606
0.345483
0.370819
0.395477
0.419344
0.442328
0.464362
0.485395
0.505396
0.524352
0.542261
0.559134
0.574989
0.589854
0.60376
0.616746
0.628851
0.640117
0.650588
0.660308
0.66932
0.677669
0.685395
0.692541
0.699147
0.705135
0.710604
0.715843
0.720694
0.725196
0.729395
0.733339
0.737065
0.740594
0.743935
0.747093
0.750065
0.752844
0.755425
0.757795
0.759942
0.76192
0.763723
0.765293
0.766618
0.767691
0.768512
0.769098
0.769485
0.769721
0.769856
0.769928
0.769965
0.769984
0.769992
0.769997
0.769998
0.769999
0.77
0.77
0.77
0.77
0.77
0.77
0.77
0.77
0.77
0.77
0.77
2.16524e-06
9.46409e-06
2.17472e-05
4.23531e-05
7.67563e-05
0.000133828
0.000227745
0.000380805
0.00062743
0.00101962
0.00163396
0.00257993
0.0040084
0.00611839
0.00915855
0.0134193
0.0192122
0.026838
0.0365472
0.0485061
0.0627771
0.0793169
0.097991
0.118602
0.140861
0.164517
0.189278
0.214854
0.240964
0.267345
0.293753
0.319972
0.345809
0.371102
0.395712
0.419529
0.442462
0.464443
0.485424
0.505375
0.524283
0.542146
0.558975
0.57479
0.589618
0.603493
0.61645
0.62853
0.639776
0.65023
0.659937
0.66894
0.677282
0.685005
0.692151
0.698758
0.704775
0.710249
0.715493
0.72035
0.724858
0.729063
0.733013
0.736745
0.74028
0.74363
0.746798
0.749784
0.752578
0.755176
0.757567
0.759734
0.761726
0.763553
0.765147
0.766498
0.767597
0.768443
0.769051
0.769455
0.769704
0.769847
0.769924
0.769963
0.769983
0.769992
0.769996
0.769998
0.769999
0.77
0.77
0.77
0.77
0.77
0.77
0.77
0.77
0.77
0.77
0.77
2.18106e-06
9.53331e-06
2.19068e-05
4.2666e-05
7.73283e-05
0.000134836
0.000229481
0.000383742
0.000632322
0.00102764
0.00164689
0.00260035
0.00403999
0.00616606
0.00922851
0.0135188
0.0193492
0.02702
0.0367803
0.0487943
0.0631214
0.0797147
0.0984358
0.119076
0.141382
0.165069
0.189846
0.215426
0.241529
0.267892
0.294273
0.320456
0.34625
0.371493
0.396049
0.419808
0.44268
0.464599
0.485518
0.50541
0.524259
0.542065
0.558841
0.574607
0.58939
0.603224
0.616145
0.628193
0.639412
0.649844
0.659533
0.668522
0.676855
0.684572
0.691715
0.698323
0.704368
0.709847
0.715095
0.719958
0.724473
0.728684
0.732639
0.736377
0.73992
0.743279
0.746459
0.749459
0.75227
0.754888
0.757302
0.759494
0.761503
0.763355
0.764977
0.766358
0.767487
0.768362
0.768996
0.769421
0.769684
0.769836
0.769918
0.76996
0.769981
0.769991
0.769996
0.769998
0.769999
0.77
0.77
0.77
0.77
0.77
0.77
0.77
0.77
0.77
0.77
0.77
2.19818e-06
9.60829e-06
2.208e-05
4.3006e-05
7.79514e-05
0.000135937
0.000231383
0.000386973
0.000637726
0.00103654
0.00166131
0.00262327
0.00407565
0.0062202
0.00930847
0.0136333
0.0195079
0.0272321
0.0370538
0.0491348
0.0635312
0.080193
0.098979
0.119679
0.142061
0.165767
0.19056
0.216145
0.242243
0.268589
0.294942
0.321087
0.346833
0.372021
0.396515
0.420208
0.44301
0.464857
0.485703
0.505521
0.524301
0.542041
0.558752
0.574458
0.589185
0.602968
0.615843
0.627852
0.639036
0.649439
0.659104
0.668074
0.676392
0.684099
0.691236
0.697842
0.70391
0.709394
0.714646
0.719515
0.724037
0.728255
0.732215
0.73596
0.739511
0.742879
0.746071
0.749087
0.751917
0.754557
0.756997
0.759217
0.761247