/*--------------------------------*- C++ -*----------------------------------*\
  =========                 |
  \\      /  F ield         | OpenFOAM: The Open Source CFD Toolbox
   \\    /   O peration     | Website:  https://openfoam.org
    \\  /    A nd           | Version:  8
     \\/     M anipulation  |
\*---------------------------------------------------------------------------*/
FoamFile
{
    version     2.0;
    format      ascii;
    class       volScalarField;
    location    "0.3/fluid";
    object      O2;
}
// * * * * * * * * * * * * * * * * * * * * * * * * * * * * * * * * * * * * * //

dimensions      [0 0 0 0 0 0 0];

internalField   nonuniform List<scalar> 
4000
(
4.40371e-11
1.9246e-10
4.42155e-10
8.60935e-10
1.56022e-09
2.72139e-09
4.63589e-09
7.76523e-09
1.28276e-08
2.09171e-08
3.36515e-08
5.33631e-08
8.32767e-08
1.27646e-07
1.91716e-07
2.81478e-07
4.03128e-07
5.62237e-07
7.62878e-07
1.00695e-06
1.29393e-06
1.62107e-06
1.98384e-06
2.37657e-06
2.79291e-06
3.22628e-06
3.67019e-06
4.11844e-06
4.56555e-06
5.00606e-06
5.43542e-06
5.8499e-06
6.2468e-06
6.6249e-06
6.98517e-06
7.33178e-06
7.67353e-06
8.02564e-06
8.41188e-06
8.86723e-06
9.44146e-06
1.02047e-05
1.1257e-05
1.27448e-05
1.48904e-05
1.8044e-05
2.27749e-05
3.00305e-05
4.1408e-05
5.9592e-05
8.90457e-05
0.000137071
0.000215437
0.000342893
0.000549107
0.000880793
0.00141128
0.00224507
0.00354707
0.00565397
0.00897872
0.0142471
0.0226625
0.0353111
0.0501906
0.0661054
0.08232
0.0983747
0.113979
0.128923
0.143071
0.156324
0.168563
0.179798
0.190334
0.199647
0.207746
0.214518
0.219881
0.223834
0.226505
0.228148
0.229075
0.229558
0.229795
0.229907
0.229959
0.229982
0.229992
0.229997
0.229999
0.229999
0.23
0.23
0.23
0.23
0.23
0.23
0.23
0.23
4.40522e-11
1.92563e-10
4.42552e-10
8.62171e-10
1.5635e-09
2.7287e-09
4.65015e-09
7.78981e-09
1.2864e-08
2.09592e-08
3.36869e-08
5.33471e-08
8.31075e-08
1.27119e-07
1.90525e-07
2.7922e-07
3.99319e-07
5.56402e-07
7.54659e-07
9.96223e-07
1.28087e-06
1.60617e-06
1.96785e-06
2.36044e-06
2.77772e-06
3.21316e-06
3.66026e-06
4.11295e-06
4.56499e-06
5.01128e-06
5.44718e-06
5.8688e-06
6.27332e-06
6.65937e-06
7.02781e-06
7.38274e-06
7.73291e-06
8.09364e-06
8.48899e-06
8.95453e-06
9.54108e-06
1.03205e-05
1.13955e-05
1.29171e-05
1.5115e-05
1.83519e-05
2.32198e-05
3.06883e-05
4.24347e-05
6.1251e-05
9.17827e-05
0.00014163
0.000223042
0.000355539
0.00057002
0.000915158
0.00146739
0.00233305
0.00368833
0.0058829
0.0093477
0.0148429
0.0236328
0.0365266
0.0515716
0.0676005
0.0838947
0.100005
0.115646
0.130603
0.144744
0.157961
0.170117
0.181286
0.191665
0.200944
0.20892
0.215504
0.220638
0.224355
0.226822
0.228319
0.229157
0.229594
0.22981
0.229913
0.229961
0.229983
0.229993
0.229997
0.229999
0.229999
0.23
0.23
0.23
0.23
0.23
0.23
0.23
0.23
4.41805e-11
1.93148e-10
4.44012e-10
8.65278e-10
1.56955e-09
2.73979e-09
4.66932e-09
7.82091e-09
1.29109e-08
2.1024e-08
3.37592e-08
5.33991e-08
8.30762e-08
1.26888e-07
1.899e-07
2.77913e-07
3.96974e-07
5.52631e-07
7.49128e-07
9.88741e-07
1.27148e-06
1.59516e-06
1.95584e-06
2.34828e-06
2.76646e-06
3.20403e-06
3.65465e-06
4.11196e-06
4.57009e-06
5.02373e-06
5.46814e-06
5.89933e-06
6.31433e-06
6.71165e-06
7.09202e-06
7.45941e-06
7.82257e-06
8.19694e-06
8.60703e-06
9.08932e-06
9.69625e-06
1.05024e-05
1.16148e-05
1.31916e-05
1.5474e-05
1.88436e-05
2.39123e-05
3.17579e-05
4.41289e-05
6.40039e-05
9.63344e-05
0.000149217
0.000235694
0.00037656
0.000604752
0.000972211
0.00156064
0.00247867
0.0039242
0.00626329
0.00995734
0.0158228
0.0252223
0.0385015
0.0537928
0.0699763
0.0863613
0.102515
0.11816
0.133082
0.147155
0.160267
0.172281
0.183344
0.193568
0.202566
0.210243
0.216516
0.22135
0.224808
0.227082
0.228455
0.229222
0.229624
0.229823
0.229919
0.229963
0.229984
0.229993
0.229997
0.229999
0.229999
0.23
0.23
0.23
0.23
0.23
0.23
0.23
0.23
4.41734e-11
1.93118e-10
4.43939e-10
8.65094e-10
1.56901e-09
2.73813e-09
4.66454e-09
7.80814e-09
1.28796e-08
2.09528e-08
3.36084e-08
5.31006e-08
8.25239e-08
1.25932e-07
1.88334e-07
2.75484e-07
3.93403e-07
5.47667e-07
7.42609e-07
9.8066e-07
1.26203e-06
1.58477e-06
1.94516e-06
2.33816e-06
2.75794e-06
3.19825e-06
3.65287e-06
4.11539e-06
4.58013e-06
5.04171e-06
5.49533e-06
5.93692e-06
6.36346e-06
6.77335e-06
7.16719e-06
7.54892e-06
7.92727e-06
8.31789e-06
8.74585e-06
9.24877e-06
9.88107e-06
1.07206e-05
1.18799e-05
1.35257e-05
1.59122e-05
1.94378e-05
2.47973e-05
3.3098e-05
4.62408e-05
6.74288e-05
0.000101982
0.000158588
0.00025122
0.000402133
0.000646527
0.00103983
0.00166907
0.00264262
0.00422529
0.00672923
0.0106936
0.0169987
0.0271212
0.0408442
0.0564058
0.0727444
0.0892038
0.105372
0.120976
0.135814
0.149763
0.162705
0.174522
0.185443
0.195429
0.204155
0.211538
0.217511
0.222058
0.22527
0.227356
0.228604
0.229298
0.22966
0.22984
0.229926
0.229967
0.229985
0.229993
0.229997
0.229999
0.229999
0.23
0.23
0.23
0.23
0.23
0.23
0.23
0.23
4.40502e-11
1.92571e-10
4.4265e-10
8.62482e-10
1.564e-09
2.72876e-09
4.64714e-09
7.77607e-09
1.28209e-08
2.08469e-08
3.34202e-08
5.2774e-08
8.19726e-08
1.25031e-07
1.86917e-07
2.73347e-07
3.90329e-07
5.43467e-07
7.37177e-07
9.74027e-07
1.25441e-06
1.57658e-06
1.93701e-06
2.33087e-06
2.75248e-06
3.19579e-06
3.65438e-06
4.12229e-06
4.5937e-06
5.06325e-06
5.52612e-06
5.97823e-06
6.41646e-06
6.83916e-06
7.24688e-06
7.64348e-06
8.03779e-06
8.44571e-06
8.89297e-06
9.41843e-06
1.00787e-05
1.09554e-05
1.21669e-05
1.38875e-05
1.63844e-05
2.01122e-05
2.57769e-05
3.45885e-05
4.85968e-05
7.12554e-05
0.000108294
0.000169055
0.000268544
0.000430637
0.000693077
0.00111528
0.00179052
0.00283423
0.00453339
0.00721815
0.0114687
0.0182341
0.0291077
0.0432829
0.0591096
0.0755891
0.0921022
0.10826
0.123794
0.138519
0.152313
0.165053
0.176663
0.187452
0.19718
0.205629
0.212722
0.218405
0.222684
0.225671
0.227591
0.228731
0.229361
0.22969
0.229854
0.229932
0.229969
0.229986
0.229994
0.229997
0.229999
0.23
0.23
0.23
0.23
0.23
0.23
0.23
0.23
0.23
4.38281e-11
1.91589e-10
4.40344e-10
8.5785e-10
1.55528e-09
2.71285e-09
4.61869e-09
7.72591e-09
1.27338e-08
2.06976e-08
3.31694e-08
5.23616e-08
8.13118e-08
1.24004e-07
1.85375e-07
2.71122e-07
3.87259e-07
5.39434e-07
7.32147e-07
9.68099e-07
1.24784e-06
1.56981e-06
1.93064e-06
2.32565e-06
2.74929e-06
3.1956e-06
3.65839e-06
4.13164e-06
4.6096e-06
5.08691e-06
5.55876e-06
6.02105e-06
6.47065e-06
6.90584e-06
7.32713e-06
7.73839e-06
8.14855e-06
8.57385e-06
9.04069e-06
9.5893e-06
1.02786e-05
1.1194e-05
1.24581e-05
1.42546e-05
1.68875e-05
2.08125e-05
2.68008e-05
3.61538e-05
5.10787e-05
7.52925e-05
0.000114952
0.000180076
0.000286733
0.000460454
0.000741556
0.00119344
0.00191461
0.00302878
0.00484251
0.00770617
0.0122388
0.0194565
0.0310538
0.0456572
0.061727
0.0783266
0.0948744
0.111004
0.126454
0.141053
0.154683
0.167213
0.178625
0.189297
0.198772
0.206958
0.213783
0.219203
0.223241
0.226029
0.227802
0.228846
0.22942
0.229719
0.229867
0.229939
0.229972
0.229988
0.229995
0.229998
0.229999
0.23
0.23
0.23
0.23
0.23
0.23
0.23
0.23
0.23
4.35627e-11
1.90422e-10
4.3763e-10
8.52473e-10
1.54532e-09
2.69504e-09
4.58753e-09
7.67228e-09
1.26428e-08
2.05458e-08
3.29204e-08
5.19613e-08
8.06839e-08
1.23047e-07
1.83963e-07
2.69118e-07
3.84536e-07
5.35908e-07
7.27822e-07
9.63099e-07
1.24244e-06
1.56442e-06
1.92586e-06
2.32219e-06
2.74802e-06
3.19734e-06
3.66419e-06
4.14257e-06
4.62677e-06
5.11145e-06
5.59182e-06
6.06375e-06
6.52409e-06
6.97111e-06
7.4053e-06
7.83057e-06
8.25596e-06
8.69808e-06
9.18411e-06
9.75561e-06
1.04739e-05
1.14264e-05
1.27426e-05
1.46303e-05
1.73894e-05
2.15168e-05
2.78376e-05
3.77473e-05
5.36153e-05
7.94282e-05
0.000121778
0.000191369
0.000305344
0.000490899
0.000790927
0.00127279
0.00203891
0.00322302
0.00514948
0.00818762
0.0129921
0.0206387
0.0329023
0.0478903
0.0641706
0.0808669
0.0974331
0.113525
0.128886
0.143359
0.156831
0.169161
0.180423
0.190914
0.200171
0.208126
0.214713
0.219898
0.223723
0.226336
0.227982
0.228944
0.229471
0.229743
0.229879
0.229944
0.229974
0.229989
0.229995
0.229998
0.229999
0.23
0.23
0.23
0.23
0.23
0.23
0.23
0.23
0.23
4.32827e-11
1.89193e-10
4.34782e-10
8.46855e-10
1.53497e-09
2.67666e-09
4.55562e-09
7.61784e-09
1.25514e-08
2.03949e-08
3.2676e-08
5.15739e-08
8.00849e-08
1.22147e-07
1.82657e-07
2.67295e-07
3.82101e-07
5.32812e-07
7.24097e-07
9.58888e-07
1.23801e-06
1.56019e-06
1.92235e-06
2.32005e-06
2.748e-06
3.20035e-06
3.67111e-06
4.15437e-06
4.64443e-06
5.136e-06
5.62428e-06
6.10515e-06
6.57546e-06
7.03346e-06
7.47964e-06
7.91796e-06
8.35765e-06
8.81567e-06
9.31998e-06
9.91355e-06
1.06585e-05
1.16472e-05
1.30248e-05
1.49936e-05
1.78793e-05
2.22096e-05
2.88647e-05
3.93358e-05
5.61569e-05
8.35879e-05
0.000128661
0.00020278
0.000324177
0.000521759
0.000841074
0.00135361
0.00216534
0.00342177
0.00546579
0.00868817
0.0137845
0.0219016
0.0346852
0.049973
0.0664133
0.0831764
0.0997442
0.11579
0.131062
0.145416
0.15874
0.170893
0.182018
0.192332
0.201396
0.209146
0.215521
0.2205
0.224139
0.2266
0.228137
0.229028
0.229514
0.229765
0.229889
0.229948
0.229977
0.229989
0.229995
0.229998
0.229999
0.23
0.23
0.23
0.23
0.23
0.23
0.23
0.23
0.23
4.30099e-11
1.87998e-10
4.3202e-10
8.41429e-10
1.52503e-09
2.6591e-09
4.52532e-09
7.56654e-09
1.2466e-08
2.02552e-08
3.24516e-08
5.12216e-08
7.95455e-08
1.21345e-07
1.81505e-07
2.65703e-07
3.79998e-07
5.30172e-07
7.2097e-07
9.55423e-07
1.23448e-06
1.55697e-06
1.91995e-06
2.31908e-06
2.7491e-06
3.20428e-06
3.67871e-06
4.16648e-06
4.66195e-06
5.15984e-06
5.65536e-06
6.1444e-06
6.6238e-06
7.0918e-06
7.54892e-06
7.99918e-06
8.45198e-06
8.9247e-06
9.44605e-06
1.00592e-05
1.08297e-05
1.18601e-05
1.329e-05
1.53377e-05
1.83466e-05
2.28753e-05
2.98583e-05
4.08818e-05
5.86428e-05
8.7672e-05
0.000135439
0.000214039
0.000342799
0.00055234
0.000890905
0.00143421
0.00229125
0.00362158
0.00578664
0.00920107
0.0146067
0.0232327
0.0363869
0.0518898
0.0684419
0.0852452
0.101802
0.117794
0.13298
0.147224
0.160412
0.172411
0.183419
0.193573
0.202465
0.210033
0.216221
0.221019
0.224494
0.226824
0.228268
0.2291
0.229551
0.229783
0.229897
0.229952
0.229978
0.22999
0.229996
0.229998
0.229999
0.23
0.23
0.23
0.23
0.23
0.23
0.23
0.23
0.23
4.27558e-11
1.86886e-10
4.29454e-10
8.36399e-10
1.51583e-09
2.64292e-09
4.49752e-09
7.51967e-09
1.23884e-08
2.01288e-08
3.22501e-08
5.09072e-08
7.90678e-08
1.20641e-07
1.80501e-07
2.6433e-07
3.78203e-07
5.27948e-07
7.18376e-07
9.52609e-07
1.23169e-06
1.55457e-06
1.91838e-06
2.31889e-06
2.7509e-06
3.20875e-06
3.68655e-06
4.17846e-06
4.67885e-06
5.18245e-06
5.68449e-06
6.18087e-06
6.66842e-06
7.14539e-06
7.6123e-06
8.07327e-06
8.53787e-06
9.02388e-06
9.55998e-06
1.01913e-05
1.09904e-05
1.20547e-05
1.35337e-05
1.56558e-05
1.87812e-05
2.34981e-05
3.07928e-05
4.23426e-05
6.10001e-05
9.15538e-05
0.000141889
0.000224758
0.000360526
0.000581441
0.000938303
0.00151082
0.00241009
0.00381097
0.00609111
0.00968787
0.0153869
0.0244953
0.03794
0.0536086
0.0702429
0.0870705
0.10361
0.119547
0.134654
0.148797
0.161863
0.173728
0.184643
0.194654
0.203393
0.210799
0.216824
0.221462
0.224797
0.227014
0.228378
0.22916
0.229581
0.229798
0.229904
0.229956
0.22998
0.229991
0.229996
0.229998
0.229999
0.23
0.23
0.23
0.23
0.23
0.23
0.23
0.23
0.23
4.25269e-11
1.85885e-10
4.27147e-10
8.31886e-10
1.50761e-09
2.62847e-09
4.47279e-09
7.47813e-09
1.23198e-08
2.00178e-08
3.20739e-08
5.06339e-08
7.86549e-08
1.20036e-07
1.79646e-07
2.63169e-07
3.76701e-07
5.26108e-07
7.16263e-07
9.50368e-07
1.22956e-06
1.55286e-06
1.91751e-06
2.31932e-06
2.75318e-06
3.21347e-06
3.69434e-06
4.18997e-06
4.69475e-06
5.20345e-06
5.71128e-06
6.21415e-06
6.70888e-06
7.19374e-06
7.66927e-06
8.13966e-06
8.61466e-06
9.11201e-06
9.66123e-06
1.03125e-05
1.11337e-05
1.22286e-05
1.37524e-05
1.59426e-05
1.91749e-05
2.40649e-05
3.16468e-05
4.36822e-05
6.3167e-05
9.51263e-05
0.000147825
0.000234617
0.000376811
0.000608133
0.000981696
0.00158082
0.00251775
0.00398199
0.00636513
0.0101243
0.0160834
0.0256176
0.0393105
0.0551174
0.0718175
0.088661
0.10518
0.121067
0.136101
0.150154
0.163111
0.174863
0.185707
0.19559
0.204194
0.211459
0.21734
0.22184
0.225053
0.227175
0.228471
0.22921
0.229607
0.22981
0.229911
0.229959
0.229981
0.229992
0.229996
0.229998
0.229999
0.23
0.23
0.23
0.23
0.23
0.23
0.23
0.23
0.23
4.23259e-11
1.85006e-10
4.25124e-10
8.27933e-10
1.50041e-09
2.61587e-09
4.45126e-09
7.44207e-09
1.22605e-08
1.99221e-08
3.19226e-08
5.04004e-08
7.83039e-08
1.19524e-07
1.78927e-07
2.62201e-07
3.75459e-07
5.24605e-07
7.14565e-07
9.48611e-07
1.22795e-06
1.55171e-06
1.91716e-06
2.32017e-06
2.75572e-06
3.2182e-06
3.70181e-06
4.20074e-06
4.7094e-06
5.22256e-06
5.73546e-06
6.24398e-06
6.74495e-06
7.23663e-06
7.7196e-06
8.1981e-06
8.68194e-06
9.18886e-06
9.75214e-06
1.0418e-05
1.12586e-05
1.23806e-05
1.39442e-05
1.61948e-05
1.95224e-05
2.4567e-05
3.2406e-05
4.48763e-05
6.51024e-05
9.83205e-05
0.000153133
0.000243428
0.000391345
0.000631918
0.00102028
0.0016429
0.00261224
0.00413228
0.00660551
0.0105063
0.0166918
0.0265958
0.0405024
0.0564262
0.0731802
0.0900342
0.106534
0.122373
0.137343
0.151317
0.164177
0.175834
0.186624
0.196396
0.204881
0.212023
0.217779
0.22216
0.225269
0.227309
0.228549
0.229252
0.229629
0.229821
0.229916
0.229961
0.229982
0.229992
0.229996
0.229998
0.229999
0.23
0.23
0.23
0.23
0.23
0.23
0.23
0.23
0.23
4.21531e-11
1.84251e-10
4.23387e-10
8.24543e-10
1.49425e-09
2.6051e-09
4.43289e-09
7.41139e-09
1.22102e-08
1.98412e-08
3.17952e-08
5.02043e-08
7.80105e-08
1.19099e-07
1.78333e-07
2.61406e-07
3.74449e-07
5.23396e-07
7.13221e-07
9.47256e-07
1.22678e-06
1.55096e-06
1.91714e-06
2.32127e-06
2.75833e-06
3.22276e-06
3.70876e-06
4.21058e-06
4.72261e-06
5.23964e-06
5.75689e-06
6.27025e-06
6.77655e-06
7.27404e-06
7.76329e-06
8.24859e-06
8.73955e-06
9.25654e-06
9.82975e-06
1.05081e-05
1.13652e-05
1.25104e-05
1.41081e-05
1.64108e-05
1.98207e-05
2.49991e-05
3.30611e-05
4.59093e-05
6.67798e-05
0.000101093
0.000157745
0.000251088
0.000404
0.000652666
0.00105403
0.00169739
0.00269502
0.00426315
0.00681415
0.0108371
0.0172181
0.0274416
0.0415307
0.0575528
0.0743502
0.0912106
0.107691
0.123488
0.138401
0.152306
0.165079
0.176662
0.187408
0.197082
0.205465
0.2125
0.218149
0.222429
0.225449
0.227421
0.228613
0.229287
0.229647
0.22983
0.22992
0.229963
0.229983
0.229992
0.229997
0.229999
0.229999
0.23
0.23
0.23
0.23
0.23
0.23
0.23
0.23
0.23
4.20076e-11
1.83615e-10
4.21926e-10
8.21693e-10
1.48908e-09
2.59607e-09
4.41753e-09
7.38577e-09
1.21683e-08
1.97739e-08
3.16896e-08
5.00425e-08
7.77693e-08
1.18751e-07
1.7785e-07
2.60764e-07
3.7364e-07
5.22439e-07
7.12177e-07
9.46234e-07
1.22594e-06
1.55053e-06
1.91739e-06
2.3225e-06
2.76087e-06
3.22699e-06
3.71507e-06
4.21935e-06
4.73426e-06
5.25457e-06
5.77551e-06
6.29298e-06
6.80378e-06
7.30618e-06
7.80081e-06
8.29192e-06
8.78977e-06
9.3135e-06
9.89483e-06
1.05834e-05
1.14542e-05
1.26187e-05
1.42447e-05
1.65909e-05
2.00693e-05
2.53592e-05
3.36068e-05
4.67692e-05
6.81742e-05
0.000103392
0.000161561
0.000257414
0.000414434
0.000669774
0.00108194
0.0017428
0.00276457
0.00437664
0.00699453
0.011122
0.0176705
0.0281682
0.0424114
0.0585144
0.0753456
0.0922085
0.10867
0.12443
0.139293
0.153138
0.165839
0.177355
0.188069
0.197661
0.205956
0.212901
0.218459
0.222653
0.225599
0.227513
0.228666
0.229315
0.229661
0.229837
0.229923
0.229964
0.229984
0.229993
0.229997
0.229999
0.229999
0.23
0.23
0.23
0.23
0.23
0.23
0.23
0.23
0.23
4.18877e-11
1.83092e-10
4.20723e-10
8.1935e-10
1.48483e-09
2.58866e-09
4.40494e-09
7.36482e-09
1.21341e-08
1.97192e-08
3.16039e-08
4.99116e-08
7.75748e-08
1.18472e-07
1.77464e-07
2.60254e-07
3.73003e-07
5.21695e-07
7.1138e-07
9.4548e-07
1.22537e-06
1.55033e-06
1.91777e-06
2.32373e-06
2.76324e-06
3.23079e-06
3.72061e-06
4.22697e-06
4.74428e-06
5.26732e-06
5.79131e-06
6.31213e-06
6.82659e-06
7.33294e-06
7.83177e-06
8.32728e-06
8.83052e-06
9.36009e-06
9.94819e-06
1.06452e-05
1.15271e-05
1.27073e-05
1.43564e-05
1.67379e-05
2.0272e-05
2.56521e-05
3.40494e-05
4.74633e-05
6.92921e-05
0.000105218
0.000164552
0.000262284
0.000422275
0.000682215
0.00110133
0.00177235
0.00280559
0.00449098
0.00715466
0.0113657
0.0180541
0.0287836
0.0431539
0.0593216
0.0761783
0.093041
0.109484
0.125212
0.140033
0.153827
0.166468
0.177929
0.188618
0.19814
0.206363
0.213232
0.218714
0.222837
0.225722
0.227589
0.228709
0.229338
0.229673
0.229843
0.229926
0.229966
0.229984
0.229993
0.229997
0.229999
0.229999
0.23
0.23
0.23
0.23
0.23
0.23
0.23
0.23
0.23
4.17916e-11
1.82672e-10
4.19758e-10
8.17472e-10
1.48142e-09
2.58273e-09
4.39489e-09
7.34813e-09
1.21069e-08
1.96758e-08
3.1536e-08
4.98081e-08
7.74217e-08
1.18253e-07
1.77162e-07
2.59859e-07
3.72513e-07
5.21129e-07
7.10785e-07
9.44936e-07
1.22499e-06
1.55027e-06
1.91822e-06
2.32489e-06
2.76533e-06
3.23406e-06
3.72532e-06
4.23337e-06
4.75264e-06
5.27789e-06
5.80436e-06
6.3279e-06
6.84533e-06
7.35489e-06
7.85718e-06
8.35671e-06
8.86382e-06
9.39786e-06
9.9913e-06
1.0695e-05
1.15859e-05
1.27789e-05
1.44468e-05
1.68571e-05
2.0437e-05
2.58915e-05
3.44128e-05
4.80362e-05
7.02206e-05
0.000106747
0.000167081
0.000266462
0.00042914
0.000693432
0.00111958
0.00180198
0.0028531
0.00456985
0.00727896
0.0115612
0.0183642
0.0292811
0.0437551
0.0599758
0.0768532
0.0937156
0.110144
0.125845
0.140632
0.154384
0.166975
0.178394
0.189063
0.198528
0.206691
0.213498
0.218919
0.222984
0.22582
0.227649
0.228744
0.229357
0.229683
0.229847
0.229928
0.229967
0.229985
0.229993
0.229997
0.229999
0.229999
0.23
0.23
0.23
0.23
0.23
0.23
0.23
0.23
0.23
4.17173e-11
1.82347e-10
4.19013e-10
8.16023e-10
1.4788e-09
2.57817e-09
4.38716e-09
7.33529e-09
1.2086e-08
1.96425e-08
3.14841e-08
4.97292e-08
7.73052e-08
1.18086e-07
1.76935e-07
2.59562e-07
3.72148e-07
5.20712e-07
7.10355e-07
9.44556e-07
1.22476e-06
1.5503e-06
1.91865e-06
2.32589e-06
2.76709e-06
3.23675e-06
3.72915e-06
4.23853e-06
4.75934e-06
5.28633e-06
5.81472e-06
6.34038e-06
6.86009e-06
7.37211e-06
7.87701e-06
8.3795e-06
8.88977e-06
9.42736e-06
1.0025e-05
1.0734e-05
1.16321e-05
1.28351e-05
1.45181e-05
1.69515e-05
2.05682e-05
2.60828e-05
3.47045e-05
4.84982e-05
7.09728e-05
0.00010799
0.000169147
0.000269886
0.000434782
0.000702661
0.00113456
0.00182615
0.00289123
0.00463053
0.00737481
0.0117126
0.0186046
0.0296667
0.0442218
0.0604842
0.0773784
0.0942409
0.110658
0.126338
0.141098
0.154818
0.167369
0.178756
0.18941
0.19883
0.206946
0.213705
0.219079
0.223099
0.225896
0.227696
0.22877
0.229371
0.22969
0.229851
0.22993
0.229968
0.229985
0.229993
0.229997
0.229999
0.229999
0.23
0.23
0.23
0.23
0.23
0.23
0.23
0.23
0.23
4.16632e-11
1.82111e-10
4.18471e-10
8.14968e-10
1.47689e-09
2.57485e-09
4.38154e-09
7.32598e-09
1.20709e-08
1.96184e-08
3.14466e-08
4.96723e-08
7.72214e-08
1.17967e-07
1.76772e-07
2.5935e-07
3.71889e-07
5.2042e-07
7.10058e-07
9.44304e-07
1.22462e-06
1.55036e-06
1.91903e-06
2.32669e-06
2.76845e-06
3.23881e-06
3.73205e-06
4.24243e-06
4.76437e-06
5.29264e-06
5.82247e-06
6.3497e-06
6.87113e-06
7.38501e-06
7.89196e-06
8.39647e-06
8.90901e-06
9.44919e-06
1.00499e-05
1.07629e-05
1.16663e-05
1.28769e-05
1.45711e-05
1.7022e-05
2.06663e-05
2.62263e-05
3.49237e-05
4.88459e-05
7.1539e-05
0.000108926
0.0001707
0.000272456
0.000439006
0.000709543
0.00114568
0.00184396
0.00291916
0.00467488
0.00744485
0.0118232
0.0187803
0.0299484
0.0445629
0.0608563
0.077763
0.0946259
0.111036
0.1267
0.14144
0.155137
0.167659
0.179024
0.189661
0.199049
0.207132
0.213856
0.219194
0.223182
0.225951
0.22773
0.22879
0.229382
0.229695
0.229854
0.229931
0.229968
0.229986
0.229994
0.229997
0.229999
0.229999
0.23
0.23
0.23
0.23
0.23
0.23
0.23
0.23
0.23
4.1628e-11
1.81957e-10
4.18118e-10
8.14282e-10
1.47565e-09
2.57269e-09
4.37789e-09
7.31994e-09
1.20611e-08
1.96028e-08
3.14223e-08
4.96356e-08
7.71674e-08
1.1789e-07
1.76667e-07
2.59215e-07
3.71725e-07
5.20235e-07
7.09873e-07
9.44151e-07
1.22454e-06
1.55042e-06
1.91929e-06
2.32724e-06
2.76937e-06
3.2402e-06
3.734e-06
4.24502e-06
4.76772e-06
5.29683e-06
5.82759e-06
6.35586e-06
6.8784e-06
7.39348e-06
7.90173e-06
8.40763e-06
8.92168e-06
9.46358e-06
1.00664e-05
1.0782e-05
1.16889e-05
1.29045e-05
1.46063e-05
1.70688e-05
2.07316e-05
2.63217e-05
3.50695e-05
4.9077e-05
7.19152e-05
0.000109547
0.00017173
0.000274157
0.000441795
0.000714078
0.00115299
0.00185565
0.00293745
0.00470391
0.00749069
0.0118956
0.0188954
0.0301327
0.0447861
0.0610999
0.0780149
0.0948782
0.111283
0.126938
0.141665
0.155346
0.16785
0.179201
0.189821
0.19919
0.207251
0.213953
0.219269
0.223235
0.225987
0.227752
0.228802
0.229389
0.229699
0.229855
0.229932
0.229969
0.229986
0.229994
0.229997
0.229999
0.229999
0.23
0.23
0.23
0.23
0.23
0.23
0.23
0.23
0.23
4.16108e-11
1.81882e-10
4.17947e-10
8.1395e-10
1.47505e-09
2.57166e-09
4.37614e-09
7.31705e-09
1.20564e-08
1.95954e-08
3.14108e-08
4.96182e-08
7.71419e-08
1.17854e-07
1.76618e-07
2.59152e-07
3.71648e-07
5.20149e-07
7.09787e-07
9.4408e-07
1.22451e-06
1.55045e-06
1.91943e-06
2.32751e-06
2.76982e-06
3.24087e-06
3.73494e-06
4.24629e-06
4.76935e-06
5.29888e-06
5.8301e-06
6.35887e-06
6.88197e-06
7.39764e-06
7.90651e-06
8.41307e-06
8.92787e-06
9.47061e-06
1.00744e-05
1.07913e-05
1.17e-05
1.29181e-05
1.46236e-05
1.70918e-05
2.07637e-05
2.63687e-05
3.51414e-05
4.91911e-05
7.21009e-05
0.000109854
0.000172237
0.000274995
0.000443168
0.000716309
0.00115659
0.0018614
0.00294644
0.00471817
0.00751321
0.0119311
0.0189518
0.0302231
0.0448957
0.0612193
0.0781385
0.0950019
0.111404
0.127054
0.141775
0.155449
0.167943
0.179287
0.189899
0.199257
0.207309
0.214
0.219304
0.22326
0.226003
0.227762
0.228808
0.229392
0.229701
0.229856
0.229932
0.229969
0.229986
0.229994
0.229997
0.229999
0.229999
0.23
0.23
0.23
0.23
0.23
0.23
0.23
0.23
0.23
4.16108e-11
1.81882e-10
4.17946e-10
8.13948e-10
1.47505e-09
2.57165e-09
4.37613e-09
7.31704e-09
1.20564e-08
1.95953e-08
3.14108e-08
4.96181e-08
7.71418e-08
1.17854e-07
1.76618e-07
2.59151e-07
3.71647e-07
5.20149e-07
7.09786e-07
9.4408e-07
1.22451e-06
1.55045e-06
1.91942e-06
2.32751e-06
2.76982e-06
3.24087e-06
3.73494e-06
4.24629e-06
4.76935e-06
5.29888e-06
5.8301e-06
6.35886e-06
6.88196e-06
7.39763e-06
7.9065e-06
8.41307e-06
8.92786e-06
9.47061e-06
1.00744e-05
1.07913e-05
1.17e-05
1.29181e-05
1.46236e-05
1.70918e-05
2.07637e-05
2.63687e-05
3.51414e-05
4.91911e-05
7.21009e-05
0.000109854
0.000172237
0.000274995
0.000443168
0.00071631
0.00115659
0.0018614
0.00294644
0.00471817
0.00751321
0.0119312
0.0189519
0.0302231
0.0448957
0.0612193
0.0781385
0.0950019
0.111404
0.127054
0.141775
0.155449
0.167943
0.179287
0.189899
0.199257
0.207309
0.214
0.219304
0.22326
0.226003
0.227762
0.228808
0.229392
0.229701
0.229856
0.229932
0.229969
0.229986
0.229994
0.229997
0.229999
0.229999
0.23
0.23
0.23
0.23
0.23
0.23
0.23
0.23
0.23
4.16277e-11
1.81956e-10
4.18116e-10
8.14277e-10
1.47564e-09
2.57268e-09
4.37787e-09
7.3199e-09
1.2061e-08
1.96027e-08
3.14222e-08
4.96354e-08
7.71671e-08
1.1789e-07
1.76667e-07
2.59214e-07
3.71724e-07
5.20234e-07
7.09871e-07
9.44149e-07
1.22454e-06
1.55042e-06
1.91929e-06
2.32724e-06
2.76937e-06
3.24019e-06
3.73399e-06
4.24502e-06
4.76771e-06
5.29682e-06
5.82758e-06
6.35584e-06
6.87839e-06
7.39347e-06
7.90172e-06
8.40761e-06
8.92166e-06
9.46357e-06
1.00664e-05
1.0782e-05
1.16889e-05
1.29045e-05
1.46063e-05
1.70688e-05
2.07316e-05
2.63217e-05
3.50695e-05
4.9077e-05
7.19153e-05
0.000109547
0.00017173
0.000274157
0.000441795
0.000714079
0.00115299
0.00185565
0.00293746
0.00470392
0.0074907
0.0118956
0.0188954
0.0301327
0.0447862
0.0610999
0.078015
0.0948782
0.111283
0.126938
0.141665
0.155346
0.16785
0.179201
0.189821
0.19919
0.207251
0.213953
0.219269
0.223235
0.225987
0.227752
0.228802
0.229389
0.229699
0.229855
0.229932
0.229969
0.229986
0.229994
0.229997
0.229999
0.229999
0.23
0.23
0.23
0.23
0.23
0.23
0.23
0.23
0.23
4.16628e-11
1.82109e-10
4.18467e-10
8.1496e-10
1.47688e-09
2.57483e-09
4.3815e-09
7.32592e-09
1.20708e-08
1.96182e-08
3.14464e-08
4.9672e-08
7.72209e-08
1.17966e-07
1.76771e-07
2.59349e-07
3.71888e-07
5.20418e-07
7.10055e-07
9.44301e-07
1.22461e-06
1.55035e-06
1.91902e-06
2.32669e-06
2.76844e-06
3.2388e-06
3.73204e-06
4.24242e-06
4.76436e-06
5.29263e-06
5.82245e-06
6.34968e-06
6.87111e-06
7.38498e-06
7.89194e-06
8.39645e-06
8.90898e-06
9.44917e-06
1.00499e-05
1.07629e-05
1.16662e-05
1.28769e-05
1.45711e-05
1.7022e-05
2.06663e-05
2.62263e-05
3.49237e-05
4.88459e-05
7.1539e-05
0.000108926
0.0001707
0.000272456
0.000439007
0.000709545
0.00114568
0.00184396
0.00291916
0.00467489
0.00744487
0.0118232
0.0187804
0.0299485
0.044563
0.0608564
0.0777631
0.094626
0.111036
0.1267
0.14144
0.155137
0.167659
0.179024
0.189661
0.199049
0.207132
0.213856
0.219194
0.223182
0.225951
0.22773
0.22879
0.229382
0.229695
0.229854
0.229931
0.229968
0.229986
0.229994
0.229997
0.229999
0.229999
0.23
0.23
0.23
0.23
0.23
0.23
0.23
0.23
0.23
4.17167e-11
1.82345e-10
4.19008e-10
8.16012e-10
1.47878e-09
2.57814e-09
4.38711e-09
7.33521e-09
1.20859e-08
1.96423e-08
3.14838e-08
4.97288e-08
7.73046e-08
1.18085e-07
1.76933e-07
2.5956e-07
3.72145e-07
5.2071e-07
7.10351e-07
9.44553e-07
1.22475e-06
1.55029e-06
1.91865e-06
2.32588e-06
2.76708e-06
3.23674e-06
3.72914e-06
4.23852e-06
4.75932e-06
5.28631e-06
5.8147e-06
6.34035e-06
6.86007e-06
7.37208e-06
7.87698e-06
8.37947e-06
8.88974e-06
9.42733e-06
1.0025e-05
1.0734e-05
1.1632e-05
1.28351e-05
1.45181e-05
1.69515e-05
2.05681e-05
2.60828e-05
3.47045e-05
4.84982e-05
7.09728e-05
0.00010799
0.000169147
0.000269886
0.000434783
0.000702662
0.00113456
0.00182615
0.00289124
0.00463054
0.00737483
0.0117126
0.0186046
0.0296668
0.0442218
0.0604843
0.0773784
0.0942409
0.110658
0.126338
0.141098
0.154818
0.167369
0.178756
0.18941
0.19883
0.206946
0.213705
0.219079
0.223099
0.225896
0.227696
0.22877
0.229371
0.22969
0.229851
0.22993
0.229968
0.229985
0.229993
0.229997
0.229999
0.229999
0.23
0.23
0.23
0.23
0.23
0.23
0.23
0.23
0.23
4.17909e-11
1.82668e-10
4.19751e-10
8.17459e-10
1.4814e-09
2.58269e-09
4.39483e-09
7.34802e-09
1.21067e-08
1.96755e-08
3.15356e-08
4.98076e-08
7.74209e-08
1.18251e-07
1.77161e-07
2.59857e-07
3.7251e-07
5.21126e-07
7.10781e-07
9.44931e-07
1.22499e-06
1.55026e-06
1.91821e-06
2.32488e-06
2.76532e-06
3.23405e-06
3.72531e-06
4.23336e-06
4.75262e-06
5.27787e-06
5.80433e-06
6.32788e-06
6.8453e-06
7.35486e-06
7.85714e-06
8.35667e-06
8.86378e-06
9.39782e-06
9.99126e-06
1.0695e-05
1.15859e-05
1.27788e-05
1.44468e-05
1.68571e-05
2.04369e-05
2.58915e-05
3.44127e-05
4.80361e-05
7.02205e-05
0.000106747
0.000167081
0.000266462
0.00042914
0.000693432
0.00111958
0.00180199
0.0028531
0.00456986
0.00727897
0.0115613
0.0183642
0.0292812
0.0437552
0.0599759
0.0768533
0.0937157
0.110144
0.125845
0.140632
0.154384
0.166975
0.178394
0.189063
0.198528
0.206691
0.213498
0.218919
0.222984
0.22582
0.227649
0.228744
0.229357
0.229683
0.229847
0.229928
0.229967
0.229985
0.229993
0.229997
0.229999
0.229999
0.23
0.23
0.23
0.23
0.23
0.23
0.23
0.23
0.23
4.18868e-11
1.83088e-10
4.20714e-10
8.19333e-10
1.4848e-09
2.58861e-09
4.40486e-09
7.3647e-09
1.21339e-08
1.97189e-08
3.16034e-08
4.99109e-08
7.75739e-08
1.1847e-07
1.77462e-07
2.60252e-07
3.73e-07
5.21691e-07
7.11375e-07
9.45474e-07
1.22536e-06
1.55032e-06
1.91776e-06
2.32372e-06
2.76323e-06
3.23077e-06
3.7206e-06
4.22695e-06
4.74426e-06
5.26729e-06
5.79128e-06
6.3121e-06
6.82656e-06
7.33291e-06
7.83173e-06
8.32724e-06
8.83048e-06
9.36005e-06
9.94814e-06
1.06451e-05
1.1527e-05
1.27072e-05
1.43564e-05
1.67378e-05
2.02719e-05
2.5652e-05
3.40493e-05
4.74631e-05
6.92918e-05
0.000105218
0.000164551
0.000262284
0.000422275
0.000682214
0.00110133
0.00177235
0.00280559
0.00449099
0.00715467
0.0113658
0.0180541
0.0287837
0.043154
0.0593217
0.0761784
0.0930411
0.109485
0.125212
0.140033
0.153827
0.166468
0.177929
0.188618
0.19814
0.206363
0.213232
0.218714
0.222837
0.225722
0.227589
0.228709
0.229338
0.229673
0.229843
0.229926
0.229966
0.229984
0.229993
0.229997
0.229999
0.229999
0.23
0.23
0.23
0.23
0.23
0.23
0.23
0.23
0.23
4.20065e-11
1.8361e-10
4.21915e-10
8.21673e-10
1.48904e-09
2.59601e-09
4.41743e-09
7.38562e-09
1.21681e-08
1.97736e-08
3.1689e-08
5.00417e-08
7.77681e-08
1.18749e-07
1.77847e-07
2.60761e-07
3.73636e-07
5.22434e-07
7.12171e-07
9.46227e-07
1.22593e-06
1.55052e-06
1.91737e-06
2.32248e-06
2.76086e-06
3.22697e-06
3.71505e-06
4.21933e-06
4.73424e-06
5.25455e-06
5.77549e-06
6.29295e-06
6.80375e-06
7.30615e-06
7.80077e-06
8.29187e-06
8.78972e-06
9.31345e-06
9.89477e-06
1.05833e-05
1.14541e-05
1.26186e-05
1.42446e-05
1.65907e-05
2.00692e-05
2.5359e-05
3.36066e-05
4.67689e-05
6.81738e-05
0.000103392
0.00016156
0.000257413
0.000414432
0.000669772
0.00108194
0.0017428
0.00276457
0.00437665
0.00699454
0.011122
0.0176705
0.0281683
0.0424116
0.0585145
0.0753457
0.0922087
0.10867
0.12443
0.139293
0.153138
0.165839
0.177356
0.188069
0.197661
0.205957
0.212901
0.218459
0.222653
0.225599
0.227513
0.228666
0.229315
0.229661
0.229837
0.229923
0.229964
0.229984
0.229993
0.229997
0.229999
0.229999
0.23
0.23
0.23
0.23
0.23
0.23
0.23
0.23
0.23
4.21518e-11
1.84245e-10
4.23374e-10
8.24519e-10
1.49421e-09
2.60503e-09
4.43278e-09
7.41121e-09
1.22099e-08
1.98407e-08
3.17945e-08
5.02034e-08
7.80091e-08
1.19097e-07
1.7833e-07
2.61403e-07
3.74444e-07
5.2339e-07
7.13214e-07
9.47247e-07
1.22676e-06
1.55094e-06
1.91713e-06
2.32126e-06
2.75831e-06
3.22274e-06
3.70874e-06
4.21055e-06
4.72259e-06
5.23961e-06
5.75686e-06
6.27022e-06
6.77652e-06
7.274e-06
7.76325e-06
8.24854e-06
8.73949e-06
9.25648e-06
9.82967e-06
1.0508e-05
1.13651e-05
1.25103e-05
1.4108e-05
1.64107e-05
1.98205e-05
2.49989e-05
3.30608e-05
4.59089e-05
6.67792e-05
0.000101092
0.000157743
0.000251086
0.000403997
0.000652663
0.00105403
0.00169739
0.00269502
0.00426315
0.00681416
0.0108372
0.0172182
0.0274417
0.0415309
0.057553
0.0743504
0.0912109
0.107691
0.123488
0.138402
0.152306
0.165079
0.176662
0.187408
0.197083
0.205466
0.212501
0.218149
0.222429
0.225449
0.227421
0.228613
0.229287
0.229647
0.22983
0.22992
0.229963
0.229983
0.229992
0.229997
0.229999
0.229999
0.23
0.23
0.23
0.23
0.23
0.23
0.23
0.23
0.23
4.23244e-11
1.85e-10
4.2511e-10
8.27906e-10
1.50036e-09
2.61579e-09
4.45113e-09
7.44186e-09
1.22602e-08
1.99216e-08
3.19219e-08
5.03993e-08
7.83023e-08
1.19522e-07
1.78924e-07
2.62197e-07
3.75454e-07
5.24598e-07
7.14557e-07
9.48601e-07
1.22794e-06
1.55169e-06
1.91714e-06
2.32016e-06
2.7557e-06
3.21818e-06
3.70178e-06