/*--------------------------------*- C++ -*----------------------------------*\
  =========                 |
  \\      /  F ield         | OpenFOAM: The Open Source CFD Toolbox
   \\    /   O peration     | Website:  https://openfoam.org
    \\  /    A nd           | Version:  8
     \\/     M anipulation  |
\*---------------------------------------------------------------------------*/
FoamFile
{
    version     2.0;
    format      ascii;
    class       surfaceScalarField;
    location    "0.3/fluid";
    object      phi;
}
// * * * * * * * * * * * * * * * * * * * * * * * * * * * * * * * * * * * * * //

dimensions      [1 0 -1 0 0 0 0];

internalField   nonuniform List<scalar> 
7860
(
6.57191e-07
-1.77708e-08
6.5435e-07
-5.34508e-08
6.5026e-07
-8.89832e-08
6.44854e-07
-1.24203e-07
6.38016e-07
-1.5911e-07
6.29593e-07
-1.93659e-07
6.19404e-07
-2.27765e-07
6.07252e-07
-2.61306e-07
5.92936e-07
-2.94116e-07
5.76273e-07
-3.25978e-07
5.5714e-07
-3.56621e-07
5.35551e-07
-3.85703e-07
5.11552e-07
-4.12769e-07
4.85263e-07
-4.37258e-07
4.56908e-07
-4.58527e-07
4.26831e-07
-4.75921e-07
3.9548e-07
-4.8889e-07
3.63372e-07
-4.97147e-07
3.31036e-07
-5.00774e-07
2.9895e-07
-5.00253e-07
2.67497e-07
-4.96362e-07
2.36944e-07
-4.90003e-07
2.07452e-07
-4.8203e-07
1.79099e-07
-4.7314e-07
1.51917e-07
-4.63833e-07
1.25942e-07
-4.54422e-07
1.01158e-07
-4.45068e-07
7.75084e-08
-4.35836e-07
5.49265e-08
-4.26735e-07
3.33443e-08
-4.17737e-07
1.27119e-08
-4.08811e-07
-7.01426e-09
-3.9993e-07
-2.58706e-08
-3.91073e-07
-4.38883e-08
-3.82229e-07
-6.10954e-08
-3.73401e-07
-7.75135e-08
-3.64577e-07
-9.31606e-08
-3.55717e-07
-1.08054e-07
-3.46832e-07
-1.22212e-07
-3.37942e-07
-1.35651e-07
-3.29069e-07
-1.4839e-07
-3.20237e-07
-1.60447e-07
-3.1147e-07
-1.71839e-07
-3.02796e-07
-1.82587e-07
-2.9424e-07
-1.92708e-07
-2.8583e-07
-2.02222e-07
-2.77591e-07
-2.11148e-07
-2.69549e-07
-2.19506e-07
-2.61729e-07
-2.27316e-07
-2.54156e-07
-2.34596e-07
-2.46855e-07
-2.41366e-07
-2.39851e-07
-2.47649e-07
-2.33172e-07
-2.53467e-07
-2.26848e-07
-2.58845e-07
-2.20916e-07
-2.63817e-07
-2.15419e-07
-2.68421e-07
-2.10416e-07
-2.72715e-07
-2.05981e-07
-2.76767e-07
-2.02249e-07
-2.80674e-07
-1.99346e-07
-2.84569e-07
-1.97426e-07
-2.88661e-07
-1.96876e-07
-2.93267e-07
-1.98213e-07
-2.98743e-07
-2.02343e-07
-3.05299e-07
-2.10315e-07
-3.129e-07
-2.2102e-07
-3.21506e-07
-2.33919e-07
-3.31138e-07
-2.48802e-07
-3.41875e-07
-2.65655e-07
-3.53857e-07
-2.84601e-07
-3.67287e-07
-3.05873e-07
-3.8245e-07
-3.29804e-07
-3.99731e-07
-3.5682e-07
-4.19642e-07
-3.87426e-07
-4.42831e-07
-4.22295e-07
-4.70082e-07
-4.62065e-07
-5.0221e-07
-5.06893e-07
-5.39767e-07
-5.55872e-07
-5.82934e-07
-6.06224e-07
-6.31574e-07
-6.52653e-07
-6.84822e-07
-6.88143e-07
-7.40823e-07
-7.06903e-07
-7.97009e-07
-7.07529e-07
-8.50942e-07
-6.93003e-07
-9.00965e-07
-6.67928e-07
-9.463e-07
-6.36327e-07
-9.86738e-07
-6.0089e-07
-1.02234e-06
-5.63141e-07
-1.05323e-06
-5.23907e-07
-1.07947e-06
-4.8365e-07
-1.10155e-06
-4.42583e-07
-1.11999e-06
-4.00943e-07
-1.13525e-06
-3.58931e-07
-1.14776e-06
-3.1671e-07
-1.15789e-06
-2.744e-07
-1.16599e-06
-2.32083e-07
-1.17233e-06
-1.89808e-07
-1.17714e-06
-1.47588e-07
-1.18061e-06
-1.05404e-07
-1.18287e-06
-6.31999e-08
-2.10334e-08
6.57967e-07
-1.72037e-08
6.55839e-07
-5.13226e-08
6.52032e-07
-8.51771e-08
6.46574e-07
-1.18745e-07
6.39415e-07
-1.5195e-07
6.30468e-07
-1.84712e-07
6.19632e-07
-2.16928e-07
6.068e-07
-2.48472e-07
5.91876e-07
-2.79189e-07
5.74787e-07
-3.08886e-07
5.55504e-07
-3.37333e-07
5.34066e-07
-3.64256e-07
5.10547e-07
-3.89238e-07
4.85085e-07
-4.11778e-07
4.5789e-07
-4.31309e-07
4.29256e-07
-4.47257e-07
3.99554e-07
-4.59151e-07
3.69197e-07
-4.66746e-07
3.38605e-07
-4.70133e-07
3.08155e-07
-4.69752e-07
2.78155e-07
-4.66309e-07
2.48822e-07
-4.60619e-07
2.20296e-07
-4.53455e-07
1.92651e-07
-4.4545e-07
1.65922e-07
-4.37062e-07
1.40134e-07
-4.28597e-07
1.15294e-07
-4.20194e-07
9.13897e-08
-4.11902e-07
6.83935e-08
-4.03711e-07
4.62837e-08
-3.95602e-07
2.50433e-08
-3.87548e-07
4.65562e-09
-3.79521e-07
-1.48974e-08
-3.71501e-07
-3.36306e-08
-3.63478e-07
-5.15613e-08
-3.55454e-07
-6.87024e-08
-3.47421e-07
-8.50662e-08
-3.39339e-07
-1.00667e-07
-3.31218e-07
-1.1552e-07
-3.23077e-07
-1.29641e-07
-3.14936e-07
-1.43048e-07
-3.06819e-07
-1.55759e-07
-2.98749e-07
-1.67793e-07
-2.90752e-07
-1.7917e-07
-2.82854e-07
-1.8991e-07
-2.75081e-07
-2.00035e-07
-2.67458e-07
-2.09566e-07
-2.60009e-07
-2.18527e-07
-2.52761e-07
-2.2694e-07
-2.45736e-07
-2.3483e-07
-2.38959e-07
-2.42223e-07
-2.32453e-07
-2.49146e-07
-2.26243e-07
-2.55633e-07
-2.20356e-07
-2.61719e-07
-2.14824e-07
-2.6745e-07
-2.09683e-07
-2.72881e-07
-2.0498e-07
-2.78082e-07
-2.00777e-07
-2.83133e-07
-1.97196e-07
-2.88154e-07
-1.94322e-07
-2.93282e-07
-1.92298e-07
-2.98687e-07
-1.91473e-07
-3.04518e-07
-1.92387e-07
-3.10869e-07
-1.96003e-07
-3.18055e-07
-2.03145e-07
-3.2623e-07
-2.12864e-07
-3.35475e-07
-2.24699e-07
-3.45861e-07
-2.38446e-07
-3.57483e-07
-2.54069e-07
-3.70473e-07
-2.71654e-07
-3.85007e-07
-2.91389e-07
-4.01314e-07
-3.13558e-07
-4.1968e-07
-3.38528e-07
-4.40447e-07
-3.66749e-07
-4.63999e-07
-3.98855e-07
-4.9079e-07
-4.35411e-07
-5.21317e-07
-4.76532e-07
-5.56007e-07
-5.21378e-07
-5.95165e-07
-5.67282e-07
-6.38869e-07
-6.09166e-07
-6.86552e-07
-6.40651e-07
-7.36742e-07
-6.56858e-07
-7.87395e-07
-6.56969e-07
-8.36617e-07
-6.43835e-07
-8.8309e-07
-6.21483e-07
-9.2613e-07
-5.93302e-07
-9.65468e-07
-5.61559e-07
-1.00106e-06
-5.27552e-07
-1.03294e-06
-4.92031e-07
-1.06111e-06
-4.55482e-07
-1.0857e-06
-4.17986e-07
-1.10692e-06
-3.79721e-07
-1.125e-06
-3.40856e-07
-1.14018e-06
-3.01533e-07
-1.15271e-06
-2.61867e-07
-1.16284e-06
-2.21952e-07
-1.17079e-06
-1.81858e-07
-1.17675e-06
-1.41633e-07
-1.18084e-06
-1.01306e-07
-1.18315e-06
-6.08967e-08
-2.03589e-08
6.57573e-07
-1.62434e-08
6.5483e-07
-4.85792e-08
6.50322e-07
-8.06688e-08
6.44012e-07
-1.12435e-07
6.35866e-07
-1.43803e-07
6.25842e-07
-1.74687e-07
6.13905e-07
-2.0499e-07
6.00032e-07
-2.34598e-07
5.84219e-07
-2.63374e-07
5.66486e-07
-2.91149e-07
5.46866e-07
-3.17708e-07
5.2539e-07
-3.42771e-07
5.02143e-07
-3.6598e-07
4.77276e-07
-3.86894e-07
4.51e-07
-4.05009e-07
4.23588e-07
-4.19816e-07
3.95364e-07
-4.3089e-07
3.66676e-07
-4.38015e-07
3.37862e-07
-4.41271e-07
3.09219e-07
-4.41058e-07
2.80978e-07
-4.38017e-07
2.53305e-07
-4.32895e-07
2.26302e-07
-4.26405e-07
2.00025e-07
-4.19129e-07
1.74493e-07
-4.1149e-07
1.49688e-07
-4.03755e-07
1.25602e-07
-3.96074e-07
1.02225e-07
-3.88495e-07
7.95632e-08
-3.81022e-07
5.76258e-08
-3.73639e-07
3.6417e-08
-3.66317e-07
1.59394e-08
-3.59023e-07
-3.80595e-09
-3.51736e-07
-2.28224e-08
-3.44444e-07
-4.11134e-08
-3.37147e-07
-5.86816e-08
-3.29838e-07
-7.55306e-08
-3.22476e-07
-9.16676e-08
-3.15068e-07
-1.07102e-07
-3.07631e-07
-1.21844e-07
-3.00183e-07
-1.35907e-07
-2.92745e-07
-1.49305e-07
-2.8534e-07
-1.62057e-07
-2.77992e-07
-1.74179e-07
-2.70723e-07
-1.85692e-07
-2.63559e-07
-1.96619e-07
-2.56523e-07
-2.06981e-07
-2.49639e-07
-2.16805e-07
-2.4293e-07
-2.26118e-07
-2.36416e-07
-2.3495e-07
-2.3012e-07
-2.43333e-07
-2.24063e-07
-2.51304e-07
-2.18266e-07
-2.58904e-07
-2.12751e-07
-2.6618e-07
-2.07544e-07
-2.73184e-07
-2.02675e-07
-2.79978e-07
-1.98182e-07
-2.86633e-07
-1.94118e-07
-2.93218e-07
-1.90608e-07
-2.99852e-07
-1.87686e-07
-3.06602e-07
-1.85548e-07
-3.13555e-07
-1.84521e-07
-3.20787e-07
-1.8516e-07
-3.28281e-07
-1.8852e-07
-3.36381e-07
-1.95062e-07
-3.45305e-07
-2.03962e-07
-3.55204e-07
-2.14826e-07
-3.66201e-07
-2.27479e-07
-3.78416e-07
-2.41891e-07
-3.91968e-07
-2.58145e-07
-4.06991e-07
-2.76419e-07
-4.23628e-07
-2.96984e-07
-4.42035e-07
-3.20198e-07
-4.62358e-07
-3.46519e-07
-4.84739e-07
-3.76589e-07
-5.09373e-07
-4.10918e-07
-5.36565e-07
-4.49511e-07
-5.66851e-07
-4.9129e-07
-6.0094e-07
-5.33409e-07
-6.39339e-07
-5.70979e-07
-6.81904e-07
-5.98268e-07
-7.27508e-07
-6.11389e-07
-7.74332e-07
-6.10231e-07
-8.2058e-07
-5.97636e-07
-8.64938e-07
-5.77151e-07
-9.06633e-07
-5.51619e-07
-9.45291e-07
-5.22907e-07
-9.80774e-07
-4.92072e-07
-1.01309e-06
-4.59714e-07
-1.04239e-06
-4.26188e-07
-1.06866e-06
-3.91716e-07
-1.09193e-06
-3.56451e-07
-1.11227e-06
-3.20517e-07
-1.12978e-06
-2.84018e-07
-1.1446e-06
-2.47051e-07
-1.15685e-06
-2.09697e-07
-1.16668e-06
-1.72029e-07
-1.17421e-06
-1.34108e-07
-1.17953e-06
-9.59838e-08
-1.18273e-06
-5.76961e-08
-1.92681e-08
6.57623e-07
-1.53331e-08
6.54856e-07
-4.58121e-08
6.50226e-07
-7.60382e-08
6.43731e-07
-1.0594e-07
6.35366e-07
-1.35438e-07
6.25123e-07
-1.64444e-07
6.12997e-07
-1.92863e-07
5.98989e-07
-2.20589e-07
5.83111e-07
-2.47494e-07
5.65388e-07
-2.73423e-07
5.45864e-07
-2.98179e-07
5.24611e-07
-3.2151e-07
5.01737e-07
-3.43095e-07
4.77396e-07
-3.62536e-07
4.51789e-07
-3.7938e-07
4.25165e-07
-3.93163e-07
3.97812e-07
-4.03502e-07
3.70034e-07
-4.10196e-07
3.42127e-07
-4.13317e-07
3.14347e-07
-4.13228e-07
2.86898e-07
-4.10518e-07
2.59927e-07
-4.05874e-07
2.33526e-07
-3.99957e-07
2.07751e-07
-3.93309e-07
1.82626e-07
-3.86325e-07
1.58163e-07
-3.79254e-07
1.34357e-07
-3.72235e-07
1.11205e-07
-3.65312e-07
8.87112e-08
-3.585e-07
6.68736e-08
-3.51777e-07
4.56929e-08
-3.45113e-07
2.51702e-08
-3.38479e-07
5.30659e-09
-3.31853e-07
-1.38981e-08
-3.25222e-07
-3.24453e-08
-3.18583e-07
-5.03353e-08
-3.11932e-07
-6.75684e-08
-3.05229e-07
-8.41482e-08
-2.98475e-07
-1.0008e-07
-2.91686e-07
-1.15373e-07
-2.84879e-07
-1.30035e-07
-2.78072e-07
-1.44081e-07
-2.71284e-07
-1.57524e-07
-2.64539e-07
-1.70382e-07
-2.57856e-07
-1.82675e-07
-2.51258e-07
-1.94422e-07
-2.44768e-07
-2.05648e-07
-2.38405e-07
-2.1638e-07
-2.32191e-07
-2.26646e-07
-2.26143e-07
-2.36478e-07
-2.20282e-07
-2.45911e-07
-2.14624e-07
-2.54983e-07
-2.09188e-07
-2.63736e-07
-2.03992e-07
-2.72218e-07
-1.99057e-07
-2.80478e-07
-1.9441e-07
-2.88572e-07
-1.90083e-07
-2.96561e-07
-1.86126e-07
-3.04499e-07
-1.82667e-07
-3.12478e-07
-1.79705e-07
-3.20539e-07
-1.77485e-07
-3.28733e-07
-1.76329e-07
-3.3709e-07
-1.76809e-07
-3.45559e-07
-1.80063e-07
-3.54486e-07
-1.86151e-07
-3.64101e-07
-1.94369e-07
-3.7457e-07
-2.04383e-07
-3.8603e-07
-2.1605e-07
-3.98601e-07
-2.29359e-07
-4.12394e-07
-2.44397e-07
-4.27522e-07
-2.61346e-07
-4.44099e-07
-2.80472e-07
-4.62253e-07
-3.02124e-07
-4.82105e-07
-3.26764e-07
-5.03814e-07
-3.54999e-07
-5.27624e-07
-3.87254e-07
-5.53911e-07
-4.23399e-07
-5.83191e-07
-4.6221e-07
-6.16041e-07
-5.00773e-07
-6.52818e-07
-5.34407e-07
-6.9325e-07
-5.58008e-07
-7.36244e-07
-5.68518e-07
-7.80242e-07
-5.66312e-07
-8.23781e-07
-5.54142e-07
-8.65798e-07
-5.35157e-07
-9.05638e-07
-5.11791e-07
-9.42936e-07
-4.85614e-07
-9.77505e-07
-4.57507e-07
-1.00926e-06
-4.27957e-07
-1.0382e-06
-3.97251e-07
-1.06434e-06
-3.65573e-07
-1.08773e-06
-3.33061e-07
-1.10842e-06
-2.99828e-07
-1.12647e-06
-2.65974e-07
-1.14193e-06
-2.31587e-07
-1.15488e-06
-1.96749e-07
-1.16537e-06
-1.61532e-07
-1.17348e-06
-1.26005e-07
-1.17923e-06
-9.0227e-08
-1.18268e-06
-5.42532e-08
-1.81234e-08
6.57555e-07
-1.43542e-08
6.54648e-07
-4.29054e-08
6.49828e-07
-7.12178e-08
6.431e-07
-9.92128e-08
6.34474e-07
-1.26811e-07
6.2396e-07
-1.53929e-07
6.11575e-07
-1.80477e-07
5.97342e-07
-2.06355e-07
5.81297e-07
-2.31447e-07
5.63489e-07
-2.55611e-07
5.43985e-07
-2.78669e-07
5.22874e-07
-3.00392e-07
5.00278e-07
-3.20487e-07
4.76351e-07
-3.38593e-07
4.51287e-07
-3.54295e-07
4.2532e-07
-3.67168e-07
3.98712e-07
-3.76858e-07
3.71733e-07
-3.83176e-07
3.44644e-07
-3.86182e-07
3.1767e-07
-3.86205e-07
2.90989e-07
-3.83786e-07
2.64727e-07
-3.79562e-07
2.38963e-07
-3.74146e-07
2.13745e-07
-3.68047e-07
1.89096e-07
-3.61635e-07
1.65028e-07
-3.55149e-07
1.41535e-07
-3.48709e-07
1.18626e-07
-3.42373e-07
9.63008e-08
-3.36147e-07
7.45611e-08
-3.30012e-07
5.34097e-08
-3.23939e-07
3.28496e-08
-3.17898e-07
1.28831e-08
-3.11868e-07
-6.48794e-09
-3.05833e-07
-2.52606e-08
-2.99794e-07
-4.34373e-08
-2.93741e-07
-6.10159e-08
-2.87636e-07
-7.79977e-08
-2.8148e-07
-9.43864e-08
-2.75285e-07
-1.10188e-07
-2.69066e-07
-1.25411e-07
-2.62838e-07
-1.40066e-07
-2.56619e-07
-1.54166e-07
-2.50429e-07
-1.67726e-07
-2.44286e-07
-1.80766e-07
-2.38211e-07
-1.93303e-07
-2.32222e-07
-2.05363e-07
-2.26338e-07
-2.16969e-07
-2.20577e-07
-2.2815e-07
-2.14955e-07
-2.38937e-07
-2.09489e-07
-2.49362e-07
-2.04193e-07
-2.59461e-07
-1.99083e-07
-2.69274e-07
-1.94174e-07
-2.7884e-07
-1.89486e-07
-2.88206e-07
-1.8504e-07
-2.97415e-07
-1.80869e-07
-3.06515e-07
-1.77022e-07
-3.15558e-07
-1.73621e-07
-3.24593e-07
-1.70669e-07
-3.3366e-07
-1.68417e-07
-3.42796e-07
-1.67195e-07
-3.52015e-07
-1.67595e-07
-3.61285e-07
-1.70805e-07
-3.70928e-07
-1.76525e-07
-3.81165e-07
-1.84155e-07
-3.92157e-07
-1.93417e-07
-4.04039e-07
-2.04201e-07
-4.16925e-07
-2.16511e-07
-4.30921e-07
-2.30448e-07
-4.46129e-07
-2.46195e-07
-4.6265e-07
-2.64018e-07
-4.80596e-07
-2.84261e-07
-5.00069e-07
-3.07391e-07
-5.21219e-07
-3.33972e-07
-5.44276e-07
-3.64348e-07
-5.69586e-07
-3.98267e-07
-5.97619e-07
-4.34379e-07
-6.28894e-07
-4.6971e-07
-6.63729e-07
-4.9977e-07
-7.0188e-07
-5.2002e-07
-7.42391e-07
-5.28123e-07
-7.83915e-07
-5.2486e-07
-8.25188e-07
-5.1291e-07
-8.65281e-07
-4.95085e-07
-9.036e-07
-4.73483e-07
-9.39794e-07
-4.49425e-07
-9.73658e-07
-4.23645e-07
-1.00507e-06
-3.96545e-07
-1.03396e-06
-3.68363e-07
-1.06028e-06
-3.3925e-07
-1.08402e-06
-3.09323e-07
-1.10518e-06
-2.78675e-07
-1.12376e-06
-2.47393e-07
-1.13978e-06
-2.15557e-07
-1.15329e-06
-1.83244e-07
-1.1643e-06
-1.50523e-07
-1.17284e-06
-1.17465e-07
-1.17893e-06
-8.41337e-08
-1.18259e-06
-5.05917e-08
-1.68963e-08
6.57557e-07
-1.33775e-08
6.54633e-07
-3.99815e-08
6.49775e-07
-6.63596e-08
6.42999e-07
-9.24368e-08
6.34324e-07
-1.18136e-07
6.23773e-07
-1.43377e-07
6.11374e-07
-1.68077e-07
5.97162e-07
-1.92142e-07
5.81182e-07
-2.15464e-07
5.63489e-07
-2.37915e-07
5.44157e-07
-2.59331e-07
5.23277e-07
-2.79504e-07
5.00969e-07
-2.98168e-07
4.77384e-07
-3.14991e-07
4.52708e-07
-3.29597e-07
4.27162e-07
-3.41595e-07
4.00995e-07
-3.50656e-07
3.74465e-07
-3.56605e-07
3.4782e-07
-3.59491e-07
3.21275e-07
-3.59612e-07
2.95e-07
-3.57462e-07
2.69116e-07
-3.53629e-07
2.43699e-07
-3.48682e-07
2.18793e-07
-3.43097e-07
1.94418e-07
-3.3722e-07
1.7058e-07
-3.31274e-07
1.47281e-07
-3.25376e-07
1.24518e-07
-3.1958e-07
1.02293e-07
-3.13894e-07
8.06048e-08
-3.08298e-07
5.94543e-08
-3.02765e-07
3.88438e-08
-2.97267e-07
1.87761e-08
-2.91781e-07
-7.46719e-10
-2.86293e-07
-1.97303e-08
-2.80795e-07
-3.81677e-08
-2.75288e-07
-5.60574e-08
-2.69732e-07
-7.34004e-08
-2.64124e-07
-9.01994e-08
-2.58474e-07
-1.06459e-07
-2.52795e-07
-1.22186e-07
-2.471e-07
-1.3739e-07
-2.41405e-07
-1.52083e-07
-2.35727e-07
-1.66276e-07
-2.30083e-07
-1.79988e-07
-2.2449e-07
-1.93236e-07
-2.18966e-07
-2.06041e-07
-2.13525e-07
-2.18426e-07
-2.08185e-07
-2.30415e-07
-2.02959e-07
-2.42037e-07
-1.9786e-07
-2.53321e-07
-1.92904e-07
-2.64297e-07
-1.88101e-07
-2.74999e-07
-1.83467e-07
-2.85461e-07
-1.79018e-07
-2.95719e-07
-1.74777e-07
-3.05811e-07
-1.70774e-07
-3.15768e-07
-1.67061e-07
-3.25637e-07
-1.63749e-07
-3.35451e-07
-1.60853e-07
-3.45245e-07
-1.58623e-07
-3.55053e-07
-1.57389e-07
-3.64896e-07
-1.57758e-07
-3.74776e-07
-1.60937e-07
-3.8499e-07
-1.66329e-07
-3.95736e-07
-1.73433e-07
-4.07164e-07
-1.82018e-07
-4.19398e-07
-1.92001e-07
-4.32546e-07
-2.03404e-07
-4.46708e-07
-2.16334e-07
-4.61983e-07
-2.30978e-07
-4.78473e-07
-2.47599e-07
-4.96289e-07
-2.6653e-07
-5.15546e-07
-2.88238e-07
-5.36416e-07
-3.1323e-07
-5.59158e-07
-3.4176e-07
-5.84142e-07
-3.73466e-07
-6.11836e-07
-4.06888e-07
-6.42706e-07
-4.39048e-07
-6.76953e-07
-4.65715e-07
-7.14198e-07
-4.8293e-07
-7.53443e-07
-4.88984e-07
-7.93431e-07
-4.84938e-07
-8.33052e-07
-4.73326e-07
-8.71517e-07
-4.56639e-07
-9.08331e-07
-4.36679e-07
-9.43196e-07
-4.14564e-07
-9.75935e-07
-3.90908e-07
-1.00643e-06
-3.66049e-07
-1.03461e-06
-3.40184e-07
-1.06042e-06
-3.13443e-07
-1.08382e-06
-2.85925e-07
-1.10478e-06
-2.57713e-07
-1.12329e-06
-2.28883e-07
-1.13934e-06
-1.99509e-07
-1.15292e-06
-1.69662e-07
-1.16403e-06
-1.39408e-07
-1.17268e-06
-1.08816e-07
-1.17886e-06
-7.79506e-08
-1.18258e-06
-4.68764e-08
-1.5655e-08
6.57548e-07
-1.23919e-08
6.54607e-07
-3.70399e-08
6.49726e-07
-6.14787e-08
6.42925e-07
-8.56361e-08
6.34229e-07
-1.0944e-07
6.23667e-07
-1.32814e-07
6.11272e-07
-1.55682e-07
5.97089e-07
-1.77957e-07
5.81169e-07
-1.99541e-07
5.63574e-07
-2.20317e-07
5.44383e-07
-2.40135e-07
5.23692e-07
-2.58806e-07
5.01623e-07
-2.76087e-07
4.78323e-07
-2.91676e-07
4.53973e-07
-3.05227e-07
4.28787e-07
-3.16381e-07
4.02998e-07
-3.24833e-07
3.76851e-07
-3.30418e-07
3.5058e-07
-3.33175e-07
3.2439e-07
-3.33373e-07
2.98442e-07
-3.31465e-07
2.72854e-07
-3.27992e-07
2.47699e-07
-3.23481e-07
2.23019e-07
-3.18374e-07
1.98837e-07
-3.12998e-07
1.75155e-07
-3.07555e-07
1.51976e-07
-3.02164e-07
1.29299e-07
-2.96872e-07
1.07119e-07
-2.91687e-07
8.54362e-08
-2.86591e-07
6.42505e-08
-2.81557e-07
4.35629e-08
-2.76559e-07
2.33746e-08
-2.71574e-07
3.68659e-09
-2.66587e-07
-1.54981e-08
-2.61594e-07
-3.41815e-08
-2.5659e-07
-5.23611e-08
-2.51539e-07
-7.00364e-08
-2.46436e-07
-8.72091e-08
-2.41289e-07
-1.03882e-07
-2.3611e-07
-1.20062e-07
-2.30909e-07
-1.35756e-07
-2.25701e-07
-1.50973e-07
-2.20501e-07
-1.65725e-07
-2.15322e-07
-1.80026e-07
-2.10181e-07
-1.93892e-07
-2.05091e-07
-2.07341e-07
-2.00069e-07
-2.20393e-07
-1.95126e-07
-2.3307e-07
-1.90275e-07
-2.45394e-07
-1.8553e-07
-2.5739e-07
-1.80901e-07
-2.69085e-07
-1.764e-07
-2.80506e-07
-1.72041e-07
-2.9168e-07
-1.67839e-07
-3.02637e-07
-1.63815e-07
-3.13406e-07
-1.60001e-07
-3.24011e-07
-1.56453e-07
-3.34489e-07
-1.53268e-07
-3.44867e-07
-1.50473e-07
-3.55175e-07
-1.48315e-07
-3.65445e-07
-1.47122e-07
-3.75711e-07
-1.47498e-07
-3.86058e-07
-1.50604e-07
-3.96733e-07
-1.55673e-07
-4.07908e-07
-1.62282e-07
-4.19718e-07
-1.70237e-07
-4.32277e-07
-1.79477e-07
-4.4569e-07
-1.90033e-07
-4.60053e-07
-2.0202e-07
-4.75468e-07
-2.15624e-07
-4.92041e-07
-2.31098e-07
-5.09891e-07
-2.48767e-07
-5.29149e-07
-2.69088e-07
-5.50003e-07
-2.92506e-07
-5.72725e-07
-3.19197e-07
-5.97668e-07
-3.48708e-07
-6.2525e-07
-3.7951e-07
-6.55835e-07
-4.08671e-07
-6.89498e-07
-4.32239e-07
-7.25787e-07
-4.46787e-07
-7.63756e-07
-4.51116e-07
-8.02289e-07
-4.46467e-07
-8.40428e-07
-4.35221e-07
-8.77498e-07
-4.19586e-07
-9.13061e-07
-4.01125e-07
-9.46845e-07
-3.80785e-07
-9.78674e-07
-3.59082e-07
-1.00842e-06
-3.36299e-07
-1.03601e-06
-3.12603e-07
-1.06135e-06
-2.881e-07
-1.0844e-06
-2.62875e-07
-1.10511e-06
-2.36999e-07
-1.12346e-06
-2.10541e-07
-1.1394e-06
-1.83564e-07
-1.15293e-06
-1.56134e-07
-1.16402e-06
-1.28315e-07
-1.17267e-06
-1.0017e-07
-1.17886e-06
-7.17622e-08
-1.18258e-06
-4.31546e-08
-1.44104e-08
6.57553e-07
-1.14108e-08
6.54621e-07
-3.41078e-08
6.49754e-07
-5.66124e-08
6.42976e-07
-7.88576e-08
6.34313e-07
-1.00776e-07
6.23797e-07
-1.22298e-07
6.11467e-07
-1.43352e-07
5.9737e-07
-1.63858e-07
5.8156e-07
-1.83729e-07
5.64101e-07
-2.02855e-07
5.45074e-07
-2.21103e-07
5.24574e-07
-2.38299e-07
5.02719e-07
-2.54221e-07
4.79655e-07
-2.68596e-07
4.55556e-07
-2.81107e-07
4.30626e-07
-2.91424e-07
4.05094e-07
-2.99268e-07
3.79198e-07
-3.04481e-07
3.53164e-07
-3.07096e-07
3.27193e-07
-3.07355e-07
3.01446e-07
-3.05669e-07
2.76037e-07
-3.02534e-07
2.51041e-07
-2.98438e-07
2.26498e-07
-2.93788e-07
2.02428e-07
-2.88887e-07
1.78836e-07
-2.83926e-07
1.55721e-07
-2.79016e-07
1.33079e-07
-2.74201e-07
1.10906e-07
-2.69487e-07
8.91997e-08
-2.64859e-07
6.79574e-08
-2.60292e-07
4.71797e-08
-2.5576e-07
2.68671e-08
-2.51242e-07
7.02081e-09
-2.46723e-07
-1.23588e-08
-2.42198e-07
-3.12715e-08
-2.37662e-07
-4.97155e-08
-2.33081e-07
-6.76897e-08
-2.28449e-07
-8.51948e-08
-2.23772e-07
-1.02233e-07
-2.1906e-07
-1.18809e-07
-2.14323e-07
-1.34928e-07
-2.09572e-07
-1.50598e-07
-2.04821e-07
-1.65828e-07
-2.00083e-07
-1.80631e-07
-1.95369e-07
-1.95019e-07
-1.90695e-07
-2.09008e-07
-1.86072e-07
-2.22615e-07
-1.81512e-07
-2.35856e-07
-1.77027e-07
-2.48752e-07
-1.72627e-07
-2.61324e-07
-1.68324e-07
-2.73592e-07
-1.64126e-07
-2.85579e-07
-1.60049e-07
-2.97307e-07
-1.56105e-07
-3.08801e-07
-1.52317e-07
-3.20083e-07
-1.48715e-07
-3.31172e-07
-1.4536e-07
-3.42102e-07
-1.42335e-07
-3.52894e-07
-1.3968e-07
-3.63574e-07
-1.37635e-07
-3.74174e-07
-1.36526e-07
-3.84722e-07
-1.36959e-07
-3.95413e-07
-1.39928e-07
-4.06446e-07
-1.44661e-07
-4.17967e-07
-1.50786e-07
-4.30097e-07
-1.58137e-07
-4.42942e-07
-1.66668e-07
-4.56602e-07
-1.76417e-07
-4.71174e-07
-1.875e-07
-4.86762e-07
-2.00098e-07
-5.0348e-07
-2.14456e-07
-5.21456e-07
-2.30883e-07
-5.40838e-07
-2.49817e-07
-5.61836e-07
-2.71644e-07
-5.84728e-07
-2.96468e-07
-6.09862e-07
-3.23762e-07
-6.3761e-07
-3.51968e-07
-6.68246e-07
-3.78241e-07
-7.01723e-07
-3.98944e-07
-7.37503e-07
-4.11147e-07
-7.74643e-07
-4.1407e-07
-8.1212e-07
-4.09048e-07
-8.4909e-07
-3.98282e-07
-8.84973e-07
-3.8372e-07
-9.19394e-07
-3.66712e-07
-9.5212e-07
-3.48063e-07
-9.82993e-07
-3.2821e-07
-1.0119e-06
-3.07393e-07
-1.03875e-06
-2.85751e-07
-1.06348e-06
-2.63376e-07
-1.08601e-06
-2.4034e-07
-1.1063e-06
-2.16707e-07
-1.12431e-06
-1.92534e-07
-1.13999e-06
-1.67883e-07
-1.15332e-06
-1.42809e-07
-1.16426e-06
-1.17373e-07
-1.1728e-06
-9.16322e-08
-1.17891e-06
-6.56469e-08
-1.18259e-06
-3.94763e-08
-1.31813e-08
6.57557e-07
-1.04338e-08
6.54638e-07
-3.1189e-08
6.49795e-07
-5.17692e-08
6.4305e-07
-7.21125e-08
6.34431e-07
-9.2157e-08
6.23974e-07
-1.1184e-07
6.11717e-07
-1.31094e-07
5.9771e-07
-1.4985e-07
5.82007e-07
-1.68024e-07
5.64676e-07
-1.85521e-07
5.45795e-07
-2.02217e-07
5.2546e-07
-2.17956e-07
5.03788e-07
-2.32538e-07
4.80919e-07
-2.45713e-07
4.57026e-07
-2.57193e-07
4.32305e-07
-2.66677e-07
4.06979e-07
-2.73909e-07
3.81277e-07
-2.78741e-07
3.55424e-07
-2.81199e-07
3.29615e-07
-2.81499e-07
3.0401e-07
-2.80015e-07
2.78723e-07
-2.77199e-07
2.53828e-07
-2.73497e-07
2.29369e-07
-2.69286e-07
2.05362e-07
-2.6484e-07
1.81813e-07
-2.60342e-07
1.58721e-07
-2.55891e-07
1.36081e-07
-2.5153e-07
1.13885e-07
-2.47264e-07
9.21312e-08
-2.4308e-07
7.0816e-08
-2.38954e-07
4.99386e-08
-2.34862e-07
2.9499e-08
-2.30784e-07
9.49787e-09
-2.26705e-07
-1.00647e-08
-2.22619e-07
-2.91885e-08
-2.18524e-07
-4.78714e-08
-2.14384e-07
-6.61117e-08
-2.10195e-07
-8.39094e-08
-2.05962e-07
-1.01266e-07
-2.01692e-07
-1.18183e-07
-1.97395e-07
-1.34666e-07
-1.93079e-07
-1.5072e-07
-1.88757e-07
-1.66354e-07
-1.8444e-07
-1.81576e-07
-1.80139e-07
-1.96397e-07
-1.75866e-07
-2.1083e-07
-1.71632e-07
-2.24887e-07
-1.67447e-07
-2.38585e-07
-1.63323e-07
-2.51939e-07
-1.59267e-07
-2.64965e-07
-1.55291e-07
-2.77682e-07
-1.51404e-07
-2.90107e-07
-1.47618e-07
-3.0226e-07
-1.43947e-07
-3.1416e-07
-1.40413e-07
-3.25826e-07
-1.37045e-07
-3.37275e-07
-1.33908e-07
-3.48539e-07
-1.31069e-07
-3.59637e-07
-1.28581e-07
-3.70598e-07
-1.26676e-07
-3.81451e-07
-1.25679e-07
-3.92228e-07
-1.26194e-07
-4.03182e-07
-1.28991e-07
-4.14492e-07
-1.33373e-07
-4.26289e-07
-1.39015e-07
-4.38685e-07
-1.45773e-07
-4.5178e-07
-1.5361e-07
-4.65672e-07
-1.6257e-07
-4.8046e-07
-1.72766e-07
-4.96251e-07
-1.84372e-07
-5.13167e-07
-1.97617e-07
-5.31346e-07
-2.12799e-07
-5.50954e-07
-2.30324e-07
-5.72214e-07
-2.50525e-07
-5.95405e-07
-2.73443e-07
-6.20854e-07
-2.98506e-07
-6.48874e-07
-3.24157e-07
-6.79636e-07
-3.47683e-07
-7.12982e-07
-3.65777e-07
-7.48312e-07
-3.75952e-07
-7.84718e-07
-3.77753e-07
-8.21272e-07
-3.72548e-07
-8.57237e-07
-3.62347e-07
-8.92107e-07
-3.48865e-07
-9.25556e-07
-3.3327e-07
-9.57374e-07
-3.16248e-07
-9.87416e-07
-2.9817e-07
-1.01557e-06
-2.79237e-07
-1.04176e-06
-2.59567e-07
-1.06589e-06
-2.3924e-07
-1.08792e-06
-2.18317e-07
-1.10777e-06
-1.96852e-07
-1.12541e-06
-1.74899e-07
-1.14078e-06
-1.52509e-07
-1.15386e-06
-1.29734e-07
-1.1646e-06
-1.06628e-07
-1.17299e-06
-8.32442e-08
-1.179e-06
-5.96369e-08
-1.18261e-06
-3.58609e-08
-1.19733e-08
6.57563e-07
-9.46329e-09
6.54663e-07
-2.82885e-08
6.4985e-07
-4.69559e-08
6.43147e-07
-6.54094e-08
6.34583e-07
-8.35927e-08
6.24192e-07
-1.01449e-07
6.12017e-07
-1.18918e-07
5.98104e-07
-1.35936e-07
5.8251e-07
-1.52428e-07
5.65301e-07
-1.68309e-07
5.46556e-07
-1.83467e-07
5.26368e-07
-1.97761e-07
5.04851e-07
-2.11011e-07
4.82144e-07
-2.22991e-07
4.58414e-07
-2.33442e-07
4.33853e-07
-2.4209e-07
4.08678e-07
-2.48701e-07
3.83116e-07
-2.5314e-07
3.57387e-07
-2.55425e-07
3.31685e-07
-2.55751e-07
3.0617e-07
-2.54452e-07
2.80957e-07
-2.51938e-07
2.5612e-07
-2.48615e-07
2.31703e-07
-2.44825e-07
2.07724e-07
-2.40821e-07
1.84188e-07
-2.3677e-07
1.61092e-07
-2.32762e-07
1.3843e-07
-2.28838e-07
1.16195e-07
-2.25002e-07
9.43815e-08
-2.21242e-07
7.29864e-08
-2.17537e-07
5.20078e-08
-2.13863e-07
3.14454e-08
-2.10202e-07
1.12992e-08
-2.06541e-07
-8.43058e-09
-2.02874e-07
-2.77438e-08
-1.99196e-07
-4.66378e-08
-1.95476e-07
-6.51107e-08
-1.9171e-07
-8.31612e-08
-1.879e-07
-1.00789e-07
-1.84053e-07
-1.17997e-07
-1.80177e-07
-1.34786e-07
-1.7628e-07
-1.51161e-07
-1.72372e-07
-1.67129e-07
-1.68464e-07
-1.82695e-07
-1.64564e-07
-1.9787e-07
-1.60684e-07
-2.12661e-07
-1.56833e-07
-2.27081e-07
-1.5302e-07
-2.41142e-07
-1.49255e-07
-2.54856e-07
-1.45547e-07
-2.68237e-07
-1.41904e-07
-2.813e-07
-1.38335e-07
-2.9406e-07
-1.34853e-07
-3.06533e-07
-1.3147e-07
-3.18735e-07
-1.28206e-07
-3.30684e-07
-1.25091e-07
-3.42396e-07
-1.22193e-07
-3.53901e-07
-1.19563e-07
-3.6522e-07
-1.17262e-07
-3.76385e-07
-1.15512e-07
-3.87429e-07
-1.1464e-07
-3.98409e-07
-1.15226e-07
-4.09582e-07
-1.17835e-07
-4.21118e-07
-1.2186e-07
-4.33143e-07
-1.27018e-07
-4.45763e-07
-1.33186e-07
-4.59078e-07
-1.40335e-07
-4.73184e-07
-1.48512e-07
-4.88182e-07
-1.57824e-07
-5.04186e-07
-1.68435e-07
-5.21324e-07
-1.80561e-07
-5.39743e-07
-1.94478e-07
-5.59624e-07
-2.10561e-07
-5.81201e-07
-2.29093e-07
-6.04752e-07
-2.50064e-07
-6.30579e-07
-2.72874e-07
-6.58938e-07
-2.96007e-07
-6.89908e-07
-3.16917e-07
-7.23229e-07
-3.32629e-07
-7.58253e-07
-3.41059e-07
-7.94097e-07
-3.41995e-07
-8.29912e-07
-3.36783e-07
-8.65045e-07
-3.27242e-07
-8.99053e-07
-3.14871e-07
-9.31652e-07
-3.00678e-07
-9.62657e-07
-2.85247e-07
-9.91936e-07
-2.68892e-07
-1.01939e-06
-2.51785e-07
-1.04493e-06
-2.34026e-07
-1.06849e-06
-2.15683e-07
-1.08999e-06
-1.96809e-07
-1.10939e-06
-1.77451e-07
-1.12664e-06
-1.57656e-07
-1.14168e-06
-1.37469e-07
-1.15447e-06
-1.16937e-07
-1.165e-06
-9.61079e-08
-1.17321e-06
-7.5029e-08
-1.1791e-06
-5.37497e-08
-1.18264e-06
-3.23196e-08
-1.07904e-08
6.57569e-07
-8.4989e-09
6.54687e-07
-2.54064e-08
6.49904e-07
-4.21729e-08
6.43243e-07
-5.87481e-08
6.34733e-07
-7.50818e-08
6.24407e-07
-9.11228e-08
6.12308e-07
-1.06818e-07
5.98483e-07
-1.22109e-07
5.82988e-07
-1.36931e-07
5.65888e-07
-1.51206e-07
5.4726e-07
-1.64834e-07
5.27197e-07
-1.77691e-07
5.05811e-07
-1.89614e-07
4.83236e-07
-2.00402e-07
4.59637e-07
-2.09822e-07
4.35202e-07
-2.17629e-07
4.10145e-07
-2.23611e-07
3.84687e-07
-2.27644e-07
3.59048e-07
-2.29742e-07
3.3342e-07
-2.30077e-07
3.07964e-07
-2.28947e-07
2.82795e-07
-2.26721e-07
2.57989e-07
-2.23763e-07
2.33589e-07
-2.20383e-07
2.09615e-07
-2.16808e-07
1.86072e-07
-2.1319e-07
1.62955e-07
-2.09613e-07
1.40259e-07
-2.06111e-07
1.17974e-07
-2.02691e-07
9.60954e-08
-1.99339e-07
7.4619e-08
-1.96038e-07
5.35423e-08
-1.92766e-07
3.28646e-08
-1.89506e-07
1.25858e-08
-1.86245e-07
-7.29391e-09
-1.82978e-07
-2.67742e-08
-1.797e-07
-4.58523e-08
-1.76385e-07
-6.45253e-08
-1.73024e-07
-8.27912e-08
-1.69622e-07
-1.00649e-07
-1.66184e-07
-1.18099e-07
-1.62716e-07
-1.35143e-07
-1.59226e-07
-1.51784e-07
-1.55723e-07
-1.68025e-07
-1.52214e-07
-1.83872e-07
-1.48709e-07
-1.99331e-07
-1.45217e-07
-2.1441e-07
-1.41746e-07
-2.29117e-07
-1.38306e-07
-2.43463e-07
-1.34903e-07
-2.57458e-07
-1.31546e-07
-2.71113e-07
-1.28243e-07
-2.8444e-07
-1.25002e-07
-2.97453e-07
-1.21835e-07
-3.10165e-07
-1.18753e-07
-3.22591e-07
-1.15776e-07
-3.34746e-07
-1.12932e-07
-3.46647e-07
-1.10289e-07
-3.58323e-07
-1.07885e-07
-3.69797e-07
-1.05787e-07
-3.81108e-07
-1.04204e-07
-3.92295e-07
-1.03458e-07
-4.03447e-07
-1.04088e-07
-4.14805e-07
-1.06494e-07
-4.26533e-07
-1.10155e-07
-4.38754e-07
-1.14827e-07
-4.51572e-07
-1.20402e-07
-4.65085e-07
-1.26863e-07
-4.79391e-07
-1.34255e-07
-4.94596e-07
-1.42679e-07
-5.10815e-07
-1.52286e-07
-5.28186e-07
-1.63275e-07
-5.46863e-07
-1.75903e-07
-5.67041e-07
-1.90507e-07
-5.88959e-07
-2.07325e-07
-6.12893e-07
-2.26307e-07
-6.39116e-07
-2.46852e-07
-6.67825e-07
-2.6751e-07
-6.99013e-07
-2.85934e-07
-7.32335e-07
-2.99479e-07
-7.67106e-07
-3.06414e-07
-8.02477e-07
-3.06706e-07
-8.3767e-07
-3.01639e-07
-8.721e-07
-2.92838e-07
-9.05378e-07
-2.81606e-07
-9.37253e-07
-2.6881e-07
-9.67558e-07
-2.54946e-07
-9.96172e-07
-2.40279e-07
-1.023e-06
-2.24957e-07
-1.04797e-06
-2.09063e-07
-1.07099e-06
-1.92655e-07
-1.09202e-06
-1.7578e-07
-1.111e-06
-1.58478e-07
-1.12786e-06
-1.40789e-07
-1.14258e-06
-1.22755e-07
-1.1551e-06
-1.04415e-07
-1.1654e-06
-8.58122e-08
-1.17344e-06
-6.69885e-08
-1.1792e-06
-4.79876e-08
-1.18266e-06
-2.88537e-08
-9.63277e-09
6.57575e-07
-7.54045e-09
6.54711e-07
-2.25416e-08
6.49956e-07
-3.74184e-08
6.43335e-07
-5.21263e-08
6.34874e-07
-6.6621e-08
6.24609e-07
-8.08571e-08
6.1258e-07
-9.47877e-08
5.98833e-07
-1.08362e-07
5.83426e-07
-1.21521e-07
5.6642e-07
-1.34197e-07
5.47894e-07
-1.46303e-07
5.27936e-07
-1.57726e-07
5.06658e-07
-1.68325e-07
4.84191e-07
-1.77921e-07
4.60696e-07
-1.86308e-07
4.3636e-07
-1.93267e-07
4.1139e-07
-1.98609e-07
3.86009e-07
-2.02224e-07
3.60433e-07
-2.04122e-07
3.34855e-07
-2.04452e-07
3.09434e-07
-2.03479e-07
2.84288e-07
-2.01528e-07
2.59494e-07
-1.98924e-07
2.35096e-07
-1.95942e-07
2.11113e-07
-1.92786e-07
1.87551e-07
-1.89592e-07
1.64404e-07
-1.86433e-07
1.41666e-07
-1.83343e-07
1.19329e-07
-1.80326e-07
9.73849e-08
-1.77371e-07
7.58304e-08
-1.74461e-07
5.46625e-08
-1.71578e-07
3.38801e-08
-1.68705e-07
1.34831e-08
-1.65831e-07
-6.52823e-09
-1.62951e-07
-2.61533e-08
-1.60061e-07
-4.5389e-08
-1.57135e-07
-6.42318e-08
-1.54168e-07
-8.2679e-08
-1.51163e-07
-1.00729e-07
-1.48123e-07
-1.1838e-07
-1.45054e-07
-1.35634e-07
-1.41963e-07
-1.52491e-07
-1.38857e-07
-1.68953e-07
-1.35742e-07
-1.85025e-07
-1.32629e-07
-2.00712e-07
-1.29523e-07
-2.16018e-07
-1.26432e-07
-2.30952e-07
-1.23365e-07
-2.45521e-07
-1.20328e-07
-2.59733e-07
-1.17328e-07
-2.73598e-07
-1.14372e-07
-2.87127e-07
-1.11468e-07
-3.0033e-07
-1.08626e-07
-3.13219e-07
-1.05859e-07
-3.25809e-07
-1.03182e-07
-3.38114e-07
-1.00623e-07
-3.50151e-07
-9.82482e-08