/*--------------------------------*- C++ -*----------------------------------*\
  =========                 |
  \\      /  F ield         | OpenFOAM: The Open Source CFD Toolbox
   \\    /   O peration     | Website:  https://openfoam.org
    \\  /    A nd           | Version:  8
     \\/     M anipulation  |
\*---------------------------------------------------------------------------*/
FoamFile
{
    version     2.0;
    format      ascii;
    class       volScalarField;
    location    "0.3/fluid";
    object      rho;
}
// * * * * * * * * * * * * * * * * * * * * * * * * * * * * * * * * * * * * * //

dimensions      [1 -3 0 0 0 0 0];

internalField   nonuniform List<scalar> 
4000
(
0.658526
0.6585
0.658456
0.658382
0.658259
0.658055
0.657718
0.657167
0.656278
0.65486
0.652638
0.649224
0.64411
0.636679
0.626268
0.612292
0.594431
0.572792
0.54799
0.521054
0.493204
0.465597
0.439135
0.4144
0.391679
0.371039
0.352399
0.335603
0.320468
0.306797
0.294403
0.283126
0.272826
0.263386
0.254708
0.246697
0.239245
0.232293
0.225787
0.219684
0.213948
0.208545
0.203448
0.198635
0.194085
0.189781
0.185708
0.181855
0.178209
0.174763
0.171508
0.168441
0.16556
0.162867
0.160372
0.158091
0.156058
0.15435
0.153047
0.152249
0.15225
0.153502
0.15686
0.163424
0.172576
0.184129
0.198144
0.214865
0.234708
0.258273
0.286378
0.320101
0.360839
0.410469
0.471285
0.545539
0.634512
0.736864
0.846475
0.951815
1.03979
1.10277
1.14186
1.16338
1.17424
1.17946
1.18188
1.18297
1.18345
1.18366
1.18375
1.18379
1.18381
1.18382
1.18382
1.18382
1.18382
1.18382
1.18382
1.18382
0.658526
0.6585
0.658456
0.658382
0.658259
0.658055
0.657717
0.657166
0.656277
0.654862
0.652649
0.649259
0.644195
0.636852
0.626586
0.612822
0.595235
0.573907
0.549406
0.522718
0.495029
0.467485
0.441
0.416177
0.393328
0.372539
0.353745
0.336805
0.321532
0.307724
0.295211
0.283828
0.273435
0.263913
0.255163
0.247088
0.239582
0.232579
0.226029
0.219887
0.214114
0.208679
0.203554
0.198714
0.19414
0.189815
0.185723
0.181852
0.178191
0.17473
0.171464
0.168387
0.165498
0.162799
0.1603
0.158019
0.155992
0.154302
0.153024
0.15227
0.152348
0.153736
0.157342
0.164129
0.17351
0.185322
0.199647
0.216752
0.237083
0.261277
0.2902
0.324996
0.36714
0.418627
0.481802
0.558833
0.650654
0.755118
0.864946
0.967858
1.05142
1.1098
1.14548
1.16505
1.17496
1.17975
1.18199
1.18301
1.18347
1.18367
1.18376
1.18379
1.18381
1.18382
1.18382
1.18382
1.18382
1.18382
1.18382
1.18382
0.658526
0.6585
0.658456
0.658382
0.658259
0.658053
0.657715
0.657163
0.656273
0.654859
0.652651
0.649275
0.644241
0.636959
0.626794
0.613185
0.595805
0.574725
0.550485
0.524036
0.496534
0.469107
0.442668
0.417829
0.394918
0.374036
0.355135
0.338081
0.322681
0.30876
0.296138
0.284655
0.274169
0.264561
0.255732
0.247587
0.240016
0.232955
0.22635
0.220157
0.214338
0.20886
0.203695
0.198819
0.194211
0.189854
0.185734
0.181836
0.178152
0.17467
0.171385
0.168292
0.16539
0.162682
0.160178
0.157899
0.155881
0.154222
0.152983
0.152302
0.152507
0.154119
0.15814
0.165289
0.175038
0.187256
0.202054
0.219732
0.240766
0.26584
0.295866
0.332045
0.375922
0.42956
0.495253
0.574928
0.668957
0.774299
0.8828
0.982134
1.06108
1.1154
1.14834
1.16639
1.17556
1.18001
1.1821
1.18306
1.18349
1.18368
1.18376
1.1838
1.18381
1.18382
1.18382
1.18382
1.18382
1.18382
1.18382
1.18382
0.658526
0.6585
0.658456
0.658382
0.658259
0.658055
0.657718
0.65717
0.656286
0.654883
0.652695
0.649354
0.644378
0.637185
0.627147
0.613707
0.596533
0.575677
0.551655
0.525388
0.498015
0.470655
0.444224
0.419347
0.396365
0.375392
0.356396
0.339227
0.323725
0.309707
0.296993
0.285424
0.274856
0.265172
0.256272
0.248062
0.240432
0.233314
0.226657
0.220416
0.214551
0.209029
0.203823
0.198908
0.194265
0.189874
0.185723
0.181797
0.178086
0.174582
0.171276
0.168166
0.16525
0.162532
0.160025
0.15775
0.155748
0.154133
0.152917
0.152331
0.152695
0.154581
0.159106
0.166692
0.176877
0.18957
0.204915
0.223241
0.245062
0.2711
0.302315
0.339958
0.385645
0.441492
0.509726
0.592016
0.688181
0.794314
0.901434
0.997193
1.07152
1.12167
1.15169
1.16804
1.17633
1.18035
1.18225
1.18312
1.18351
1.18369
1.18376
1.1838
1.18381
1.18382
1.18382
1.18382
1.18382
1.18382
1.18382
1.18382
0.658526
0.6585
0.658457
0.658383
0.658261
0.658058
0.657723
0.657178
0.656301
0.65491
0.652743
0.649435
0.64451
0.637395
0.627467
0.614172
0.597172
0.576505
0.552666
0.526553
0.499288
0.471984
0.445559
0.420649
0.397606
0.376556
0.357465
0.34021
0.324623
0.310521
0.297729
0.286085
0.275448
0.265698
0.256736
0.248469
0.240787
0.23362
0.226917
0.22063
0.214723
0.209161
0.203917
0.198966
0.194289
0.189867
0.185686
0.181733
0.177997
0.174469
0.171144
0.168017
0.165088
0.162362
0.159853
0.157584
0.155598
0.154016
0.152856
0.152368
0.152897
0.155072
0.160134
0.168185
0.17883
0.192022
0.207934
0.226928
0.249551
0.276563
0.308971
0.348069
0.395545
0.45354
0.524189
0.608866
0.706804
0.813263
0.918593
1.01066
1.08061
1.12704
1.15454
1.16944
1.17698
1.18065
1.18238
1.18318
1.18354
1.1837
1.18377
1.1838
1.18381
1.18382
1.18382
1.18382
1.18382
1.18382
1.18382
1.18382
0.658526
0.6585
0.658457
0.658384
0.658263
0.658062
0.65773
0.65719
0.656321
0.654944
0.652799
0.649527
0.644657
0.637619
0.627798
0.614637
0.597792
0.577287
0.553599
0.527606
0.500419
0.473148
0.446715
0.421766
0.398662
0.377544
0.358372
0.341037
0.325373
0.311199
0.298339
0.286631
0.275934
0.266129
0.257113
0.248798
0.241071
0.233861
0.227117
0.220792
0.214848
0.209251
0.203972
0.19899
0.194282
0.189832
0.185624
0.181646
0.177888
0.17434
0.170997
0.167855
0.164915
0.162183
0.159672
0.157411
0.155446
0.153899
0.152797
0.152407
0.153102
0.155567
0.161161
0.169673
0.180773
0.194454
0.210922
0.230566
0.253969
0.281924
0.315479
0.355973
0.405168
0.465203
0.538114
0.624972
0.724441
0.831006
0.934474
1.02301
1.08894
1.13198
1.15719
1.17076
1.17761
1.18094
1.18251
1.18323
1.18356
1.18371
1.18377
1.1838
1.18381
1.18382
1.18382
1.18382
1.18382
1.18382
1.18382
1.18382
0.658526
0.658501
0.658458
0.658386
0.658265
0.658066
0.657737
0.657202
0.656342
0.654978
0.652854
0.649615
0.644794
0.637827
0.628099
0.615055
0.598345
0.577979
0.554417
0.528524
0.501398
0.474148
0.447703
0.422714
0.399555
0.378363
0.359124
0.34172
0.32599
0.311753
0.298834
0.287071
0.276323
0.26647
0.25741
0.249053
0.241287
0.234041
0.227262
0.220903
0.214927
0.2093
0.203992
0.198982
0.194249
0.189774
0.185543
0.181544
0.177766
0.1742
0.170842
0.167688
0.16474
0.162003
0.159494
0.157241
0.155302
0.153791
0.152749
0.152456
0.153313
0.156058
0.162156
0.171104
0.182635
0.196778
0.21377
0.234028
0.258164
0.287008
0.321644
0.363454
0.414266
0.476211
0.551208
0.640021
0.740756
0.84719
0.948707
1.03388
1.09615
1.13622
1.15946
1.17189
1.17815
1.18119
1.18262
1.18328
1.18358
1.18372
1.18378
1.1838
1.18381
1.18382
1.18382
1.18382
1.18382
1.18382
1.18382
1.18382
0.658526
0.658501
0.658458
0.658387
0.658268
0.65807
0.657744
0.657214
0.656361
0.655011
0.652907
0.649699
0.644923
0.638019
0.628376
0.615435
0.59884
0.578592
0.555135
0.529321
0.502241
0.475002
0.448539
0.423511
0.4003
0.379047
0.359744
0.342279
0.326491
0.312199
0.299229
0.28742
0.276628
0.266734
0.257636
0.249243
0.241445
0.234168
0.227359
0.220972
0.214969
0.209316
0.203984
0.198951
0.194195
0.189699
0.185449
0.181432
0.177638
0.174058
0.170688
0.167525
0.16457
0.161831
0.159326
0.157084
0.155174
0.153701
0.152722
0.152535
0.153568
0.156624
0.163144
0.172472
0.184387
0.19895
0.216421
0.237244
0.262057
0.291721
0.327355
0.370384
0.422694
0.486396
0.563286
0.653827
0.7556
0.861744
0.961335
1.04341
1.10241
1.13988
1.16142
1.17287
1.17861
1.1814
1.18272
1.18333
1.1836
1.18373
1.18378
1.1838
1.18381
1.18382
1.18382
1.18382
1.18382
1.18382
1.18382
1.18382
0.658526
0.658501
0.658459
0.658388
0.65827
0.658073
0.65775
0.657225
0.65638
0.655041
0.652956
0.649775
0.64504
0.638191
0.628621
0.615769
0.599273
0.579124
0.555754
0.530004
0.502958
0.475725
0.449242
0.424175
0.400912
0.379607
0.36025
0.342732
0.326893
0.312555
0.299541
0.287691
0.276863
0.266934
0.257803
0.249381
0.241555
0.234252
0.227418
0.221008
0.214982
0.209307
0.203956
0.198903
0.194128
0.189615
0.185349
0.181317
0.17751
0.173919
0.170539
0.167369
0.16441
0.161671
0.159171
0.156943
0.155064
0.15363
0.152718
0.152641
0.153863
0.157261
0.164115
0.173761
0.18601
0.200945
0.218847
0.240179
0.265607
0.296017
0.332561
0.376707
0.430385
0.495685
0.574274
0.666328
0.768932
0.874666
0.972393
1.05164
1.10776
1.143
1.16308
1.17369
1.17901
1.18159
1.1828
1.18337
1.18362
1.18373
1.18378
1.18381
1.18381
1.18382
1.18382
1.18382
1.18382
1.18382
1.18382
1.18382
0.658526
0.658501
0.658459
0.658389
0.658272
0.658077
0.657756
0.657235
0.656396
0.655068
0.652999
0.649843
0.645142
0.638343
0.628835
0.616059
0.599648
0.579582
0.556283
0.530584
0.503564
0.476332
0.449829
0.424729
0.40142
0.380066
0.360661
0.343097
0.327214
0.312835
0.299784
0.2879
0.27704
0.267082
0.257924
0.249477
0.241628
0.234303
0.227448
0.221018
0.214974
0.209281
0.203913
0.198844
0.194054
0.189527
0.185248
0.181204
0.177386
0.173786
0.170399
0.167224
0.164263
0.161525
0.159032
0.156817
0.154969
0.153574
0.152726
0.152755
0.154158
0.157886
0.165021
0.174941
0.187483
0.202747
0.221031
0.24282
0.268799
0.299881
0.337246
0.382402
0.437316
0.504049
0.584148
0.677511
0.780771
0.886024
0.981996
1.0587
1.11232
1.14563
1.16448
1.17439
1.17935
1.18175
1.18288
1.1834
1.18363
1.18374
1.18379
1.18381
1.18382
1.18382
1.18382
1.18382
1.18382
1.18382
1.18382
1.18382
0.658526
0.658502
0.65846
0.65839
0.658273
0.65808
0.657762
0.657244
0.656411
0.655092
0.653037
0.649902
0.645232
0.638474
0.62902
0.616308
0.599967
0.57997
0.55673
0.531071
0.50407
0.476835
0.450311
0.425178
0.401832
0.380438
0.360991
0.343387
0.327467
0.313053
0.299971
0.288058
0.277172
0.26719
0.258009
0.249541
0.241673
0.234329
0.227457
0.221011
0.214951
0.209244
0.203861
0.198779
0.193977
0.189439
0.185149
0.181096
0.17727
0.173663
0.170271
0.167092
0.164129
0.161394
0.158907
0.156705
0.154887
0.153527
0.152737
0.152861
0.154426
0.158449
0.165832
0.175994
0.188794
0.204349
0.222973
0.245167
0.271637
0.303317
0.341414
0.387474
0.443491
0.511498
0.592924
0.687411
0.791181
0.895915
0.990265
1.06472
1.11617
1.14784
1.16565
1.17498
1.17963
1.18188
1.18294
1.18342
1.18365
1.18375
1.18379
1.18381
1.18382
1.18382
1.18382
1.18382
1.18382
1.18382
1.18382
1.18382
0.658526
0.658502
0.65846
0.658391
0.658275
0.658083
0.657766
0.657251
0.656424
0.655112
0.65307
0.649952
0.645308
0.638585
0.629177
0.616519
0.600236
0.580296
0.557104
0.531477
0.504491
0.477252
0.45071
0.425547
0.402167
0.380736
0.361254
0.343616
0.327664
0.313222
0.300113
0.288176
0.277268
0.267265
0.258066
0.249581
0.241696
0.234338
0.227452
0.220993
0.21492
0.209201
0.203807
0.198714
0.193902
0.189355
0.185056
0.180996
0.177163
0.173551
0.170155
0.166974
0.164011
0.161278
0.158798
0.156607
0.154816
0.153486
0.152747
0.152954
0.154662
0.158945
0.166546
0.176921
0.189947
0.205758
0.22468
0.24723
0.274131
0.306339
0.345082
0.391942
0.448933
0.518059
0.60064
0.696082
0.800242
0.904452
0.997332
1.06981
1.1194
1.14969
1.16663
1.17547
1.17987
1.18199
1.18299
1.18345
1.18366
1.18375
1.18379
1.18381
1.18382
1.18382
1.18382
1.18382
1.18382
1.18382
1.18382
1.18382
0.658527
0.658502
0.658461
0.658392
0.658276
0.658085
0.65777
0.657258
0.656435
0.65513
0.653097
0.649995
0.645373
0.638679
0.629308
0.616695
0.60046
0.580566
0.557413
0.531812
0.504835
0.477591
0.451033
0.425845
0.402436
0.380974
0.361461
0.343795
0.327816
0.31335
0.30022
0.288263
0.277336
0.267317
0.258102
0.249603
0.241705
0.234335
0.227438
0.220967
0.214884
0.209155
0.203752
0.198651
0.193832
0.189277
0.184972
0.180906
0.177068
0.173452
0.170053
0.16687
0.163908
0.161178
0.158702
0.156522
0.154754
0.153451
0.152755
0.153035
0.154867
0.159377
0.167169
0.177729
0.190952
0.206984
0.226165
0.249024
0.2763
0.308967
0.348273
0.395833
0.453672
0.52377
0.607345
0.703591
0.808045
0.911745
1.00332
1.07409
1.1221
1.15123
1.16745
1.17587
1.18006
1.18208
1.18303
1.18347
1.18366
1.18375
1.18379
1.18381
1.18382
1.18382
1.18382
1.18382
1.18382
1.18382
1.18382
1.18382
0.658527
0.658502
0.658461
0.658392
0.658277
0.658087
0.657773
0.657264
0.656444
0.655144
0.653121
0.650031
0.645427
0.638757
0.629417
0.61684
0.600644
0.580788
0.557665
0.532083
0.505113
0.477864
0.45129
0.426082
0.402648
0.381161
0.361623
0.343933
0.327933
0.313447
0.300298
0.288325
0.277384
0.267351
0.258124
0.249613
0.241705
0.234325
0.227418
0.220939
0.214848
0.209111
0.203701
0.198593
0.193767
0.189207
0.184897
0.180827
0.176986
0.173367
0.169966
0.166783
0.163822
0.161094
0.158624
0.156452
0.154702
0.153419
0.15276
0.153102
0.155042
0.15975
0.167707
0.178425
0.191817
0.208038
0.22744
0.250564
0.278161
0.311221
0.35101
0.399173
0.45774
0.52867
0.613089
0.710004
0.814675
0.917902
1.00833
1.07764
1.12433
1.1525
1.16811
1.17621
1.18022
1.18215
1.18306
1.18348
1.18367
1.18376
1.18379
1.18381
1.18382
1.18382
1.18382
1.18382
1.18382
1.18382
1.18382
1.18382
0.658527
0.658502
0.658461
0.658393
0.658278
0.658088
0.657776
0.657268
0.656451
0.655157
0.65314
0.65006
0.64547
0.63882
0.629505
0.616957
0.600793
0.580966
0.557867
0.532301
0.505335
0.478081
0.451494
0.426268
0.402814
0.381306
0.361747
0.344038
0.32802
0.313518
0.300355
0.288369
0.277415
0.267372
0.258135
0.249615
0.241699
0.23431
0.227396
0.22091
0.214813
0.20907
0.203654
0.198541
0.193711
0.189146
0.184833
0.180759
0.176915
0.173295
0.169893
0.166711
0.163751
0.161028
0.158564
0.156403
0.154675
0.153374
0.152754
0.153154
0.155188
0.160066
0.168163
0.179015
0.192548
0.208928
0.228515
0.25186
0.279727
0.313119
0.353315
0.401986
0.461167
0.532797
0.617919
0.715383
0.820214
0.923015
1.01246
1.08056
1.12615
1.15353
1.16866
1.17648
1.18035
1.18221
1.18309
1.18349
1.18368
1.18376
1.18379
1.18381
1.18382
1.18382
1.18382
1.18382
1.18382
1.18382
1.18382
1.18382
0.658527
0.658502
0.658462
0.658393
0.658279
0.65809
0.657778
0.657272
0.656457
0.655166
0.653155
0.650084
0.645505
0.638871
0.629575
0.61705
0.600911
0.581107
0.558026
0.532471
0.505509
0.47825
0.451653
0.426412
0.402941
0.381416
0.361841
0.344116
0.328085
0.31357
0.300396
0.288399
0.277436
0.267384
0.258139
0.249612
0.241689
0.234295
0.227375
0.220884
0.214781
0.209034
0.203614
0.198497
0.193663
0.189095
0.184779
0.180702
0.176857
0.173235
0.169833
0.166651
0.163693
0.160972
0.158512
0.156358
0.154639
0.153351
0.152756
0.153199
0.155308
0.160324
0.168535
0.179497
0.193146
0.209655
0.229394
0.252922
0.28101
0.314673
0.355204
0.404292
0.463977
0.536179
0.621874
0.719779
0.824725
0.927162
1.0158
1.0829
1.1276
1.15435
1.16909
1.17669
1.18045
1.18226
1.18311
1.1835
1.18368
1.18376
1.1838
1.18381
1.18382
1.18382
1.18382
1.18382
1.18382
1.18382
1.18382
1.18382
0.658527
0.658502
0.658462
0.658393
0.65828
0.658091
0.65778
0.657275
0.656462
0.655174
0.653166
0.650101
0.645532
0.638909
0.629628
0.617121
0.601
0.581214
0.558147
0.5326
0.50564
0.478377
0.451771
0.426519
0.403036
0.381497
0.36191
0.344174
0.328131
0.313607
0.300423
0.288419
0.277449
0.267391
0.25814
0.249608
0.24168
0.234281
0.227356
0.220861
0.214755
0.209004
0.20358
0.19846
0.193624
0.189053
0.184735
0.180657
0.176811
0.173188
0.169785
0.166603
0.163646
0.160926
0.15847
0.156321
0.15461
0.153334
0.152759
0.153235
0.155402
0.160525
0.168826
0.179874
0.193614
0.210226
0.230084
0.253756
0.282019
0.315897
0.356691
0.406109
0.466192
0.538843
0.624986
0.723231
0.828259
0.930401
1.0184
1.08472
1.12873
1.15499
1.16942
1.17686
1.18053
1.1823
1.18313
1.18351
1.18368
1.18376
1.1838
1.18381
1.18382
1.18382
1.18382
1.18382
1.18382
1.18382
1.18382
1.18382
0.658527
0.658503
0.658462
0.658394
0.65828
0.658091
0.657781
0.657277
0.656465
0.655179
0.653175
0.650114
0.645551
0.638937
0.629667
0.617173
0.601065
0.581291
0.558234
0.532693
0.505734
0.478468
0.451856
0.426595
0.403102
0.381555
0.361958
0.344213
0.328163
0.313631
0.300442
0.288432
0.277457
0.267394
0.258139
0.249603
0.241671
0.234268
0.227341
0.220843
0.214734
0.208981
0.203555
0.198433
0.193594
0.189022
0.184702
0.180623
0.176776
0.173152
0.169749
0.166567
0.16361
0.160892
0.158438
0.156293
0.154587
0.153321
0.152761
0.153262
0.155472
0.160673
0.169039
0.180151
0.193959
0.210647
0.230594
0.254372
0.282764
0.316801
0.357791
0.407453
0.46783
0.540813
0.627285
0.725777
0.830858
0.932775
1.0203
1.08606
1.12956
1.15546
1.16967
1.17698
1.18059
1.18233
1.18314
1.18352
1.18369
1.18376
1.1838
1.18381
1.18382
1.18382
1.18382
1.18382
1.18382
1.18382
1.18382
1.18382
0.658527
0.658503
0.658462
0.658394
0.65828
0.658092
0.657782
0.657278
0.656467
0.655182
0.65318
0.650123
0.645564
0.638955
0.629692
0.617206
0.601107
0.581341
0.55829
0.532753
0.505794
0.478526
0.45191
0.426644
0.403145
0.381591
0.361989
0.344238
0.328183
0.313646
0.300453
0.288439
0.277461
0.267395
0.258137
0.249598
0.241664
0.23426
0.227331
0.22083
0.21472
0.208965
0.203537
0.198414
0.193574
0.189001
0.18468
0.180601
0.176752
0.173128
0.169725
0.166543
0.163587
0.16087
0.158417
0.156274
0.154573
0.153313
0.152763
0.15328
0.155517
0.16077
0.169179
0.180333
0.194185
0.210923
0.230929
0.254777
0.283255
0.317396
0.358516
0.408338
0.468909
0.542109
0.628795
0.727444
0.832554
0.934318
1.02154
1.08692
1.1301
1.15576
1.16983
1.17706
1.18063
1.18235
1.18315
1.18352
1.18369
1.18376
1.1838
1.18381
1.18382
1.18382
1.18382
1.18382
1.18382
1.18382
1.18382
1.18382
0.658527
0.658503
0.658462
0.658394
0.65828
0.658092
0.657782
0.657279
0.656468
0.655184
0.653183
0.650127
0.64557
0.638964
0.629704
0.617221
0.601126
0.581364
0.558317
0.532781
0.505823
0.478554
0.451935
0.426667
0.403165
0.381608
0.362003
0.344249
0.328192
0.313654
0.300458
0.288442
0.277463
0.267395
0.258136
0.249596
0.241661
0.234256
0.227325
0.220824
0.214713
0.208957
0.203529
0.198405
0.193564
0.188991
0.184669
0.180589
0.176741
0.173117
0.169714
0.166531
0.163575
0.160859
0.158407
0.156265
0.154565
0.153308
0.152763
0.153289
0.155539
0.160817
0.169248
0.180422
0.194296
0.211059
0.231093
0.254975
0.283495
0.317687
0.358869
0.408769
0.469432
0.542735
0.629521
0.728241
0.83336
0.935046
1.02211
1.08732
1.13035
1.1559
1.16991
1.1771
1.18065
1.18235
1.18315
1.18352
1.18369
1.18376
1.1838
1.18381
1.18382
1.18382
1.18382
1.18382
1.18382
1.18382
1.18382
1.18382
0.658527
0.658503
0.658462
0.658394
0.65828
0.658092
0.657782
0.657279
0.656468
0.655184
0.653183
0.650127
0.64557
0.638964
0.629704
0.617222
0.601126
0.581364
0.558317
0.532781
0.505823
0.478554
0.451935
0.426667
0.403165
0.381608
0.362003
0.344249
0.328192
0.313654
0.300458
0.288442
0.277463
0.267395
0.258136
0.249596
0.241661
0.234256
0.227325
0.220824
0.214713
0.208957
0.203529
0.198405
0.193564
0.188991
0.184669
0.180589
0.176741
0.173117
0.169714
0.166531
0.163575
0.160859
0.158407
0.156265
0.154565
0.153308
0.152763
0.153289
0.155539
0.160817
0.169248
0.180422
0.194296
0.211059
0.231093
0.254975
0.283495
0.317687
0.358869
0.408769
0.469432
0.542735
0.629521
0.728241
0.83336
0.935046
1.02211
1.08732
1.13035
1.1559
1.16991
1.1771
1.18065
1.18235
1.18315
1.18352
1.18369
1.18376
1.1838
1.18381
1.18382
1.18382
1.18382
1.18382
1.18382
1.18382
1.18382
1.18382
0.658527
0.658503
0.658462
0.658394
0.65828
0.658092
0.657782
0.657278
0.656467
0.655182
0.65318
0.650123
0.645564
0.638955
0.629692
0.617206
0.601107
0.581341
0.55829
0.532753
0.505794
0.478526
0.45191
0.426644
0.403145
0.381591
0.361989
0.344238
0.328183
0.313646
0.300453
0.288439
0.277461
0.267395
0.258137
0.249598
0.241664
0.23426
0.227331
0.22083
0.21472
0.208965
0.203537
0.198414
0.193574
0.189001
0.18468
0.180601
0.176752
0.173128
0.169725
0.166543
0.163587
0.16087
0.158417
0.156274
0.154573
0.153313
0.152763
0.15328
0.155517
0.16077
0.169179
0.180333
0.194185
0.210923
0.230929
0.254777
0.283255
0.317396
0.358516
0.408338
0.468909
0.542109
0.628795
0.727444
0.832554
0.934318
1.02154
1.08692
1.1301
1.15576
1.16983
1.17706
1.18063
1.18235
1.18315
1.18352
1.18369
1.18376
1.1838
1.18381
1.18382
1.18382
1.18382
1.18382
1.18382
1.18382
1.18382
1.18382
0.658527
0.658503
0.658462
0.658394
0.65828
0.658091
0.657781
0.657277
0.656465
0.655179
0.653175
0.650115
0.645551
0.638937
0.629667
0.617173
0.601065
0.581291
0.558234
0.532693
0.505734
0.478468
0.451856
0.426595
0.403102
0.381555
0.361958
0.344213
0.328163
0.313631
0.300442
0.288432
0.277457
0.267394
0.258139
0.249603
0.241671
0.234268
0.227341
0.220843
0.214734
0.208981
0.203555
0.198433
0.193594
0.189022
0.184702
0.180623
0.176776
0.173152
0.169749
0.166567
0.16361
0.160892
0.158438
0.156293
0.154587
0.153321
0.152761
0.153262
0.155472
0.160673
0.16904
0.180151
0.193959
0.210647
0.230594
0.254372
0.282764
0.316801
0.357791
0.407453
0.46783
0.540813
0.627285
0.725777
0.830859
0.932776
1.0203
1.08606
1.12956
1.15546
1.16967
1.17698
1.18059
1.18233
1.18314
1.18352
1.18369
1.18376
1.1838
1.18381
1.18382
1.18382
1.18382
1.18382
1.18382
1.18382
1.18382
1.18382
0.658527
0.658502
0.658462
0.658393
0.65828
0.658091
0.65778
0.657275
0.656462
0.655174
0.653166
0.650102
0.645532
0.638909
0.629629
0.617121
0.601
0.581214
0.558147
0.532601
0.50564
0.478377
0.451771
0.426519
0.403036
0.381497
0.36191
0.344174
0.328131
0.313607
0.300423
0.288419
0.277449
0.267391
0.25814
0.249608
0.24168
0.234281
0.227356
0.220861
0.214755
0.209004
0.20358
0.19846
0.193624
0.189053
0.184735
0.180657
0.17681
0.173188
0.169785
0.166603
0.163646
0.160926
0.15847
0.156321
0.15461
0.153334
0.152759
0.153235
0.155402
0.160525
0.168826
0.179874
0.193614
0.210226
0.230085
0.253756
0.282019
0.315897
0.356691
0.406109
0.466192
0.538843
0.624987
0.723232
0.82826
0.930402
1.0184
1.08473
1.12873
1.15499
1.16942
1.17686
1.18053
1.1823
1.18313
1.18351
1.18368
1.18376
1.1838
1.18381
1.18382
1.18382
1.18382
1.18382
1.18382
1.18382
1.18382
1.18382
0.658527
0.658502
0.658462
0.658393
0.658279
0.65809
0.657778
0.657272
0.656457
0.655166
0.653155
0.650084
0.645505
0.638871
0.629575
0.61705
0.600911
0.581107
0.558027
0.532472
0.505509
0.478251
0.451653
0.426412
0.402941
0.381416
0.361841
0.344116
0.328085
0.31357
0.300396
0.288399
0.277436
0.267384
0.258139
0.249612
0.241689
0.234295
0.227375
0.220884
0.214781
0.209034
0.203614
0.198497
0.193663
0.189095
0.184778
0.180702
0.176857
0.173235
0.169833
0.166651
0.163693
0.160972
0.158512
0.156358
0.154639
0.153351
0.152756
0.153199
0.155308
0.160324
0.168535
0.179497
0.193146
0.209655
0.229394
0.252922
0.28101
0.314673
0.355204
0.404292
0.463978
0.536179
0.621875
0.71978
0.824726
0.927164
1.0158
1.08291
1.1276
1.15435
1.16909
1.17669
1.18045
1.18226
1.18311
1.1835
1.18368
1.18376
1.1838
1.18381
1.18382
1.18382
1.18382
1.18382
1.18382
1.18382
1.18382
1.18382
0.658527
0.658502
0.658461
0.658393
0.658278
0.658088
0.657776
0.657268
0.656451
0.655157
0.65314
0.65006
0.64547
0.638821
0.629505
0.616958
0.600793
0.580967
0.557867
0.532301
0.505336
0.478081
0.451494
0.426268
0.402814
0.381306
0.361747
0.344038
0.32802
0.313518
0.300355
0.288369
0.277415
0.267372
0.258135
0.249615
0.241699
0.23431
0.227396
0.22091
0.214813
0.20907
0.203654
0.198541
0.193711
0.189146
0.184833
0.180759
0.176915
0.173295
0.169893
0.166711
0.163751
0.161028
0.158564
0.156403
0.154675
0.153374
0.152754
0.153154
0.155188
0.160066
0.168163
0.179015
0.192548
0.208928
0.228515
0.251861
0.279728
0.313119
0.353316
0.401986
0.461168
0.532797
0.61792
0.715384
0.820215
0.923017
1.01247
1.08056
1.12615
1.15353
1.16866
1.17648
1.18035
1.18221
1.18309
1.18349
1.18368
1.18376
1.18379
1.18381
1.18382
1.18382
1.18382
1.18382
1.18382
1.18382
1.18382
1.18382
0.658527
0.658502
0.658461
0.658392
0.658277
0.658087
0.657773
0.657264
0.656444
0.655145
0.653121
0.650031
0.645427
0.638757
0.629417
0.61684
0.600645
0.580788
0.557665
0.532084
0.505113
0.477864
0.45129
0.426082
0.402648
0.381161
0.361623
0.343933
0.327933
0.313447
0.300298
0.288325
0.277383
0.267351
0.258124
0.249613
0.241705
0.234325
0.227418
0.220939
0.214848
0.209111
0.203701
0.198593
0.193767
0.189207
0.184897
0.180827
0.176985
0.173367
0.169966
0.166783
0.163822
0.161094
0.158624
0.156452
0.154702
0.153419
0.15276
0.153102
0.155042
0.15975
0.167707
0.178426
0.191817
0.208038
0.22744
0.250564
0.278161
0.311222
0.351011
0.399174
0.457741
0.528672
0.61309
0.710006
0.814678
0.917904
1.00833
1.07765
1.12433
1.1525
1.16811
1.17621
1.18022
1.18215
1.18306
1.18348
1.18367
1.18376
1.18379
1.18381
1.18382
1.18382
1.18382
1.18382
1.18382
1.18382
1.18382
1.18382
0.658527
0.658502
0.658461
0.658392
0.658276
0.658085
0.65777
0.657258
0.656435
0.65513
0.653098
0.649996
0.645373
0.63868
0.629309
0.616695
0.600461
0.580567
0.557413
0.531812
0.504835
0.477592
0.451034
0.425846
0.402436
0.380974
0.361461
0.343795
0.327817
0.31335
0.30022
0.288263
0.277336
0.267317
0.258102
0.249603
0.241705
0.234335
0.227438
0.220967
0.214884
0.209155
0.203752
0.198651
0.193832
0.189277
0.184972
0.180906
0.177068
0.173452
0.170053
0.16687
0.163908
0.161178
0.158702
0.156522
0.154754
0.153451
0.152755
0.153035
0.154867
0.159377
0.167169
0.177729
0.190952
0.206984
0.226165
0.249025
0.276301
0.308968
0.348274
0.395834
0.453673
0.523772
0.607347
0.703594
0.808047
0.911748
1.00332
1.07409
1.1221
1.15123
1.16745
1.17587
1.18006
1.18208
1.18303
1.18347
1.18366
1.18375
1.18379
1.18381
1.18382
1.18382
1.18382
1.18382
1.18382
1.18382
1.18382
1.18382
0.658526
0.658502
0.65846
0.658391
0.658275
0.658083
0.657766
0.657251
0.656424
0.655112
0.65307
0.649953
0.645309
0.638586
0.629177
0.616519
0.600237
0.580296
0.557104
0.531478
0.504491
0.477252
0.45071
0.425548
0.402168
0.380736
0.361254
0.343616
0.327664
0.313222
0.300113
0.288176
0.277268
0.267265
0.258066
0.249581
0.241696
0.234338
0.227452
0.220993
0.21492
0.209201
0.203807
0.198714
0.193902
0.189355
0.185056
0.180996
0.177163
0.173551
0.170155
0.166974
0.164011
0.161278
0.158797
0.156607
0.154816
0.153486
0.152747
0.152954
0.154662
0.158945
0.166546
0.176921
0.189948
0.205758
0.22468
0.247231
0.274132
0.30634
0.345083
0.391944
0.448934
0.518061
0.600642
0.696085
0.800245
0.904455
0.997335
1.06981
1.1194
1.14969
1.16663
1.17547
1.17987
1.18199
1.18299
1.18345
1.18366
1.18375
1.18379
1.18381
1.18382
1.18382
1.18382
1.18382
1.18382
1.18382
1.18382
1.18382
0.658526
0.658502
0.65846
0.65839
0.658273
0.65808
0.657762
0.657244
0.656411
0.655092
0.653037
0.649902
0.645232
0.638474
0.62902
0.616309
0.599968
0.57997
0.55673
0.531072
0.504071
0.476836
0.450311
0.425178
0.401833
0.380438
0.360991
0.343387
0.327467
0.313053
0.299971
0.288058
0.277172
0.26719
0.258009
0.249541
0.241673
0.234329
0.227457
0.221011
0.214951
0.209244
0.203861
0.198779
0.193977
0.189439
0.185149
0.181096
0.17727
0.173663
0.17027
0.167092
0.164129
0.161394
0.158907
0.156705
0.154887
0.153527
0.152737
0.152861
0.154426
0.158449
0.165832
0.175994
0.188794
0.204349
0.222974
0.245168
0.271637
0.303318
0.341415
0.387476
0.443493
0.5115
0.592927
0.687414
0.791184
0.895919
0.990269
1.06472
1.11617
1.14784
1.16565
1.17498
1.17963
1.18188
1.18294
1.18342
1.18365
1.18375
1.18379
1.18381
1.18382
1.18382
1.18382
1.18382
1.18382
1.18382
1.18382
1.18382
0.658526
0.658501
0.658459
0.658389
0.658272
0.658077
0.657756
0.657235
0.656396
0.655068
0.652999
0.649843
0.645143
0.638343
0.628836
0.61606
0.599648
0.579582
0.556284
0.530584
0.503565
0.476332
0.449829
0.424729
0.401421
0.380067
0.360661
0.343097
0.327214
0.312835
0.299784
0.2879
0.27704
0.267082
0.257924
0.249477
0.241628
0.234303
0.227448
0.221018
0.214974
0.209281
0.203912
0.198843
0.194054
0.189527
0.185247
0.181204
0.177386
0.173786
0.170399
0.167224
0.164263
0.161525
0.159032
0.156817
0.154969
0.153574
0.152726
0.152755
0.154158
0.157886
0.165021
0.174941
0.187483
0.202747
0.221032
0.242821
0.2688
0.299882
0.337248
0.382403
0.437318
0.504051
0.584151
0.677515
0.780775
0.886028
0.982
1.0587
1.11232
1.14563
1.16448
1.17439
1.17935
1.18175
1.18288
1.1834
1.18363
1.18374
1.18379
1.18381
1.18382
1.18382
1.18382
1.18382
1.18382
1.18382
1.18382
1.18382
0.658526
0.658501
0.658459
0.658388
0.65827
0.658073
0.65775
0.657225
0.65638
0.655041
0.652956
0.649775
0.64504
0.638192
0.628621
0.61577
0.599274
0.579125
0.555755
0.530004
0.502959
0.475726
0.449242
0.424176
0.400913
0.379607
0.36025
0.342733
0.326893
0.312555
0.299541
0.287691
0.276863
0.266934
0.257803
0.249381
0.241555
0.234252
0.227418
0.221008
0.214982
0.209307
0.203955
0.198903
0.194128
0.189615
0.185349
0.181317
0.17751
0.173919
0.170539
0.167369
0.16441
0.161671
0.159171
0.156943
0.155063
0.15363
0.152718
0.152641
0.153864
0.157261
0.164115
0.173761
0.186011
0.200946
0.218847
0.24018
0.265607
0.296018
0.332563
0.376708
0.430387
0.495687
0.574277
0.666332
0.768936
0.874671
0.972397
1.05164
1.10777
1.143
1.16308
1.17369
1.17901
1.18159
1.1828
1.18337
1.18362
1.18373
1.18378
1.18381
1.18381
1.18382
1.18382
1.18382
1.18382
1.18382
1.18382
1.18382
0.658526
0.658501
0.658458
0.658387
0.658268
0.65807
0.657744
0.657214
0.656361
0.655011
0.652908
0.649699
0.644924
0.63802
0.628377
0.615436
0.598841
0.578593
0.555136
0.529322
0.502241
0.475003
0.44854
0.423511
0.400301
0.379047
0.359744
0.34228
0.326491
0.312199
0.299229
0.28742
0.276628
0.266734
0.257636
0.249243
0.241445
0.234168
0.227359
0.220972
0.214969
0.209316
0.203984
0.198951
0.194195
0.189699
0.185449
0.181432
0.177638
0.174058
0.170688
0.167525
0.16457
0.161831
0.159326
0.157084
0.155174
0.153701
0.152722
0.152535
0.153568
0.156624
0.163144
0.172472
0.184388
0.198951
0.216422
0.237244
0.262058
0.291722
0.327356
0.370385
0.422696
0.486399
0.563289
0.653832
0.755604
0.861749
0.96134
1.04341
1.10242
1.13989
1.16142
1.17287
1.17862
1.1814
1.18272
1.18333
1.1836
1.18373
1.18378
1.1838
1.18381
1.18382
1.18382
1.18382
1.18382
1.18382
1.18382
1.18382
0.658526
0.658501
0.658458
0.658386
0.658265
0.658066
0.657737
0.657202
0.656342
0.654978
0.652855
0.649615
0.644795
0.637827
0.6281
0.615056
0.598346
0.57798
0.554418
0.528525
0.501399
0.474149
0.447704
0.422715
0.399555
0.378364
0.359124
0.34172
0.32599
0.311753
0.298834
0.287071
0.276323
0.26647
0.25741
0.249053
0.241287
0.234041
0.227262
0.220903
0.214927
0.209299
0.203992
0.198982
0.194249
0.189774
0.185543
0.181544
0.177766
0.1742
0.170842
0.167688
0.16474
0.162003
0.159494
0.157241
0.155302
0.153791
0.152749
0.152456
0.153313
0.156058
0.162156
0.171104
0.182635
0.196779
0.21377
0.234029
0.258165
0.287009
0.321645
0.363455