/*--------------------------------*- C++ -*----------------------------------*\
  =========                 |
  \\      /  F ield         | OpenFOAM: The Open Source CFD Toolbox
   \\    /   O peration     | Website:  https://openfoam.org
    \\  /    A nd           | Version:  8
     \\/     M anipulation  |
\*---------------------------------------------------------------------------*/
FoamFile
{
    version     2.0;
    format      ascii;
    class       volScalarField;
    location    "0.3/fluid";
    object      T;
}
// * * * * * * * * * * * * * * * * * * * * * * * * * * * * * * * * * * * * * //

dimensions      [0 0 0 1 0 0 0];

internalField   nonuniform List<scalar> 
4000
(
293.004
293.017
293.038
293.075
293.136
293.237
293.404
293.677
294.119
294.827
295.944
297.675
300.309
304.221
309.88
317.822
328.597
342.695
360.463
382.042
407.358
436.156
468.066
502.684
539.621
578.538
619.162
661.278
704.752
749.474
795.307
842.161
889.945
938.556
987.873
1037.83
1088.44
1139.64
1191.31
1243.36
1295.69
1348.18
1400.74
1453.25
1505.6
1557.68
1609.38
1660.57
1711.15
1760.99
1809.96
1857.9
1904.64
1949.96
1993.54
2034.93
2073.47
2107.71
2136.2
2157.65
2167.29
2158.61
2120.75
2043.17
1941.72
1826.1
1702.47
1574.87
1446.01
1317.77
1191.59
1068.7
950.221
837.087
730.509
632.183
544.365
469.35
408.987
363.995
333.367
314.424
303.714
298.124
295.379
294.078
293.48
293.21
293.091
293.039
293.016
293.007
293.003
293.001
293
293
293
293
293
293
293.004
293.017
293.038
293.075
293.136
293.237
293.404
293.677
294.12
294.826
295.938
297.658
300.266
304.129
309.704
317.513
328.096
341.939
359.398
380.633
405.595
434.054
465.662
500.025
536.76
575.531
616.06
658.151
701.64
746.345
792.203
839.117
886.991
935.719
985.177
1035.28
1086.07
1137.44
1189.31
1241.57
1294.11
1346.83
1399.62
1452.36
1504.94
1557.26
1609.19
1660.61
1711.41
1761.47
1810.64
1858.77
1905.69
1951.16
1994.85
2036.31
2074.85
2108.86
2137.05
2157.91
2166.47
2155.92
2114.83
2034.97
1931.83
1814.88
1690.16
1561.64
1431.97
1303.03
1176.27
1052.93
934.183
821.003
714.741
617.295
530.978
458.09
400.31
357.996
329.698
312.442
302.759
297.699
295.2
294.007
293.452
293.199
293.087
293.037
293.016
293.007
293.003
293.001
293
293
293
293
293
293
293.004
293.017
293.038
293.075
293.136
293.238
293.405
293.679
294.122
294.828
295.937
297.65
300.241
304.072
309.589
317.302
327.741
341.386
358.591
379.524
404.152
432.264
463.532
497.577
534.027
572.553
612.887
654.834
698.165
742.792
788.61
835.523
883.435
932.239
981.811
1032.06
1083.01
1134.59
1186.68
1239.19
1292.01
1345.02
1398.12
1451.19
1504.11
1556.77
1609.05
1660.82
1711.97
1762.36
1811.86
1860.3
1907.5
1953.2
1997.08
2038.65
2077.17
2110.79
2138.52
2158.39
2165.16
2151.52
2105.12
2021.62
1915.87
1796.99
1670.82
1541.2
1410.73
1281.26
1154.26
1031.02
912.729
800.416
695.578
600.197
516.579
446.827
392.267
352.823
326.712
310.882
302.009
297.357
295.05
293.942
293.425
293.188
293.082
293.035
293.015
293.006
293.003
293.001
293
293
293
293
293
293
293.004
293.017
293.038
293.075
293.136
293.237
293.403
293.676
294.115
294.816
295.915
297.609
300.17
303.952
309.394
316.999
327.29
340.745
357.72
378.392
402.741
430.569
461.561
495.346
531.56
569.876
610.045
651.802
695.014
739.552
785.313
832.202
880.124
928.976
978.634
1029
1080.1
1131.85
1184.17
1236.92
1290.02
1343.34
1396.76
1450.18
1503.47
1556.52
1609.19
1661.36
1712.9
1763.68
1813.54
1862.34
1909.85
1955.82
1999.88
2041.51
2079.93
2112.94
2140.66
2159.18
2163.68
2146.26
2093.48
2005.71
1896.99
1776.03
1648.4
1517.79
1386.73
1257.04
1130.19
1007.48
890.09
779.091
676.064
583.047
502.271
435.65
384.209
347.525
323.547
309.152
301.134
296.94
294.858
293.857
293.388
293.173
293.076
293.033
293.014
293.006
293.002
293.001
293
293
293
293
293
293
293.004
293.017
293.038
293.074
293.135
293.235
293.401
293.671
294.108
294.802
295.891
297.568
300.101
303.84
309.217
316.729
326.895
340.189
356.97
377.423
401.537
429.125
459.883
493.449
529.461
567.6
607.591
649.223
692.331
736.79
782.497
829.362
877.292
926.183
975.915
1026.38
1077.61
1129.54
1182.05
1235.04
1288.4
1342.02
1395.76
1449.53
1503.19
1556.61
1609.67
1662.23
1714.17
1765.34
1815.59
1864.73
1912.56
1958.79
2003.04
2044.74
2083.05
2115.69
2142.71
2159.89
2162.06
2140.68
2081.22
1989.03
1877.33
1754.34
1625.37
1493.95
1362.51
1232.83
1106.37
984.436
868.16
758.68
657.626
567.069
489.146
425.571
377.077
342.921
320.838
307.687
300.395
296.586
294.695
293.784
293.355
293.159
293.07
293.03
293.013
293.005
293.002
293.001
293
293
293
293
293
293
293.004
293.016
293.038
293.074
293.134
293.234
293.398
293.666
294.098
294.785
295.862
297.521
300.025
303.721
309.035
316.46
326.513
339.666
356.282
376.552
400.473
427.869
458.441
491.834
527.689
565.697
605.562
647.089
690.115
734.514
780.184
827.035
874.978
923.911
973.715
1024.28
1075.64
1127.72
1180.42
1233.63
1287.24
1341.13
1395.18
1449.27
1503.27
1557.04
1610.47
1663.41
1715.73
1767.27
1817.87
1867.35
1915.47
1961.94
2006.35
2048.1
2086.23
2118.47
2144.72
2160.53
2160.36
2135.05
2069.1
1972.69
1858.18
1733.34
1603.2
1471.14
1339.47
1209.96
1084.03
962.966
847.853
739.916
640.8
552.593
477.333
416.547
370.708
338.803
318.398
306.351
299.709
296.253
294.538
293.712
293.324
293.145
293.064
293.028
293.012
293.005
293.002
293.001
293
293
293
293
293
293
293.004
293.016
293.038
293.073
293.133
293.232
293.394
293.66
294.088
294.768
295.834
297.476
299.954
303.61
308.869
316.219
326.172
339.204
355.68
375.796
399.557
426.795
457.217
490.472
526.207
564.096
603.875
645.33
688.301
732.662
778.314
825.167
873.135
922.116
971.995
1022.66
1074.14
1126.37
1179.25
1232.66
1286.49
1340.64
1394.97
1449.35
1503.66
1557.76
1611.53
1664.81
1717.46
1769.34
1820.26
1870.04
1918.42
1965.1
2009.64
2051.39
2089.26
2121.08
2146.54
2160.98
2158.52
2129.45
2057.47
1957.19
1840.17
1713.72
1582.62
1450.06
1318.31
1189.04
1063.68
943.49
829.511
723.03
625.743
539.719
466.901
408.643
365.18
335.26
316.314
305.215
299.127
295.97
294.405
293.651
293.296
293.132
293.058
293.025
293.011
293.005
293.002
293.001
293
293
293
293
293
293
293.004
293.016
293.037
293.073
293.132
293.23
293.391
293.654
294.078
294.752
295.808
297.433
299.887
303.508
308.717
316
325.868
338.796
355.153
375.141
398.772
425.882
456.184
489.332
524.976
562.784
602.496
643.901
686.837
731.178
776.827
823.695
871.696
920.732
970.687
1021.45
1073.04
1125.42
1178.46
1232.05
1286.1
1340.48
1395.05
1449.7
1504.29
1558.68
1612.75
1666.33
1719.29
1771.46
1822.66
1872.69
1921.29
1968.14
2012.75
2054.48
2092.01
2123.36
2147.96
2160.91
2155.98
2122.77
2045.97
1942.58
1823.53
1695.78
1563.92
1431.02
1299.25
1170.28
1045.49
926.136
813.216
708.079
612.467
528.423
457.799
401.788
360.411
332.216
314.526
304.238
298.625
295.724
294.288
293.597
293.272
293.122
293.054
293.023
293.01
293.004
293.002
293.001
293
293
293
293
293
293
293.004
293.016
293.037
293.072
293.131
293.228
293.388
293.648
294.069
294.737
295.783
297.395
299.827
303.417
308.582
315.807
325.602
338.443
354.7
374.582
398.105
425.112
455.32
488.383
523.951
561.703
601.372
642.746
685.663
730
775.657
822.55
870.592
919.686
969.718
1020.57
1072.28
1124.78
1177.97
1231.75
1285.98
1340.56
1395.35
1450.24
1505.07
1559.73
1614.05
1667.9
1721.12
1773.54
1824.98
1875.23
1924
1970.97
2015.63
2057.28
2094.43
2125.27
2148.96
2160.34
2152.76
2115.06
2034.73
1928.97
1808.36
1679.62
1547.19
1414.07
1282.35
1153.69
1029.45
910.85
798.892
694.973
600.869
518.596
449.921
395.89
356.336
329.631
313.014
303.414
298.201
295.516
294.19
293.551
293.251
293.112
293.05
293.022
293.009
293.004
293.002
293.001
293
293
293
293
293
293
293.004
293.016
293.037
293.072
293.13
293.226
293.385
293.643
294.06
294.723
295.762
297.36
299.774
303.336
308.464
315.64
325.373
338.14
354.315
374.109
397.544
424.468
454.602
487.604
523.117
560.827
600.466
641.822
684.732
729.074
774.749
821.673
869.758
918.912
969.019
1019.96
1071.78
1124.4
1177.73
1231.65
1286.06
1340.81
1395.81
1450.9
1505.95
1560.83
1615.38
1669.45
1722.9
1775.53
1827.17
1877.59
1926.51
1973.56
2018.24
2059.8
2096.53
2126.88
2149.69
2159.57
2149.46
2107.49
2024.32
1916.67
1794.81
1665.29
1532.43
1399.15
1267.52
1139.15
1015.42
897.505
786.412
683.579
590.816
510.11
443.149
390.848
352.872
327.444
311.739
302.72
297.844
295.341
294.106
293.512
293.233
293.104
293.046
293.02
293.009
293.004
293.002
293.001
293
293
293
293
293
293
293.004
293.016
293.036
293.071
293.129
293.225
293.382
293.639
294.053
294.711
295.742
297.33
299.727
303.267
308.363
315.497
325.178
337.883
353.989
373.712
397.076
423.934
454.009
486.96
522.436
560.118
599.74
641.088
684.001
728.354
774.052
821.009
869.141
918.352
968.53
1019.56
1071.47
1124.2
1177.66
1231.71
1286.26
1341.18
1396.35
1451.61
1506.85
1561.92
1616.67
1670.93
1724.56
1777.38
1829.18
1879.74
1928.78
1975.9
2020.58
2062.04
2098.38
2128.27
2150.28
2158.81
2146.45
2100.7
2015.07
1905.81
1782.9
1652.74
1519.54
1386.15
1254.62
1126.54
1003.26
885.945
775.617
673.742
582.158
502.826
437.361
386.56
349.942
325.603
310.67
302.139
297.545
295.194
294.036
293.48
293.218
293.098
293.043
293.019
293.008
293.003
293.001
293.001
293
293
293
293
293
293
293.004
293.016
293.036
293.071
293.128
293.223
293.38
293.635
294.047
294.701
295.726
297.304
299.688
303.208
308.277
315.376
325.013
337.668
353.718
373.382
396.69
423.496
453.526
486.44
521.888
559.552
599.164
640.511
683.431
727.801
773.524
820.515
868.692
917.958
968.202
1019.31
1071.3
1124.14
1177.7
1231.88
1286.56
1341.61
1396.92
1452.34
1507.74
1562.97
1617.88
1672.31
1726.09
1779.05
1830.99
1881.67
1930.8
1977.97
2022.65
2064.01
2099.98
2129.47
2150.78
2158.13
2143.8
2094.74
2007
1896.35
1772.56
1641.86
1508.38
1374.92
1243.49
1115.67
992.793
876.004
766.347
665.31
574.754
496.615
432.444
382.935
347.477
324.061
309.778
301.655
297.296
295.072
293.978
293.453
293.206
293.092
293.041
293.018
293.008
293.003
293.001
293.001
293
293
293
293
293
293
293.004
293.016
293.036
293.07
293.127
293.222
293.378
293.632
294.041
294.692
295.712
297.283
299.654
303.158
308.205
315.275
324.876
337.489
353.493
373.111
396.374
423.139
453.135
486.022
521.45
559.103
598.71
640.06
682.991
727.379
773.128
820.154
868.372
917.689
967.993
1019.17
1071.24
1124.16
1177.81
1232.1
1286.89
1342.06
1397.5
1453.05
1508.58
1563.94
1618.98
1673.54
1727.46
1780.54
1832.59
1883.36
1932.56
1979.77
2024.44
2065.73
2101.39
2130.53
2151.23
2157.55
2141.51
2089.58
2000.01
1888.19
1763.65
1632.5
1498.81
1365.3
1233.97
1106.38
983.863
867.528
758.453
658.141
568.472
491.359
428.299
379.891
345.416
322.777
309.037
301.254
297.09
294.971
293.93
293.43
293.196
293.088
293.039
293.017
293.007
293.003
293.001
293.001
293
293
293
293
293
293
293.004
293.016
293.036
293.07
293.127
293.221
293.376
293.629
294.037
294.685
295.7
297.264
299.627
303.117
308.146
315.192
324.764
337.343
353.311
372.89
396.118
422.851
452.82
485.687
521.103
558.749
598.357
639.713
682.656
727.063
772.837
819.893
868.15
917.513
967.869
1019.1
1071.24
1124.23
1177.97
1232.34
1287.23
1342.5
1398.04
1453.7
1509.34
1564.81
1619.97
1674.63
1728.65
1781.82
1833.95
1884.79
1934.04
1981.27
2025.93
2067.15
2102.55
2131.47
2151.66
2157.09
2139.56
2085.15
1994.01
1881.2
1756.04
1624.55
1490.68
1357.15
1225.92
1098.54
976.329
860.382
751.805
652.111
563.198
486.958
424.837
377.359
343.709
321.717
308.427
300.925
296.921
294.888
293.89
293.412
293.187
293.084
293.037
293.016
293.007
293.003
293.001
293.001
293
293
293
293
293
293
293.004
293.016
293.036
293.07
293.126
293.22
293.375
293.627
294.033
294.679
295.691
297.25
299.604
303.083
308.097
315.125
324.674
337.226
353.164
372.714
395.914
422.623
452.573
485.425
520.833
558.475
598.085
639.449
682.405
726.829
772.625
819.71
868.001
917.403
967.805
1019.09
1071.29
1124.34
1178.15
1232.59
1287.55
1342.91
1398.54
1454.28
1510.01
1565.57
1620.81
1675.56
1729.66
1782.91
1835.1
1885.98
1935.24
1982.46
2027.05
2068.13
2103.18
2132.65
2152.24
2156.81
2137.97
2081.42
1988.96
1875.32
1749.67
1617.89
1483.9
1350.36
1219.23
1092.02
970.074
854.453
746.295
647.119
558.838
483.326
421.989
375.282
342.313
320.853
307.93
300.657
296.784
294.821
293.858
293.397
293.18
293.081
293.036
293.016
293.007
293.003
293.001
293.001
293
293
293
293
293
293
293.004
293.016
293.036
293.07
293.126
293.22
293.374
293.625
294.03
294.674
295.683
297.238
299.586
303.057
308.059
315.071
324.602
337.133
353.049
372.577
395.755
422.446
452.381
485.224
520.626
558.267
597.88
639.252
682.219
726.659
772.475
819.584
867.904
917.339
967.779
1019.11
1071.35
1124.46
1178.32
1232.82
1287.85
1343.27
1398.96
1454.78
1510.58
1566.22
1621.52
1676.34
1730.5
1783.8
1836.04
1886.96
1936.24
1983.46
2028.02
2069.04
2103.99
2133.32
2152.56
2156.52
2136.64
2078.37
1984.85
1870.55
1744.49
1612.49
1478.4
1344.86
1213.8
1086.74
965.007
849.653
741.837
643.084
555.318
480.399
419.697
373.613
341.194
320.163
307.535
300.444
296.675
294.767
293.832
293.385
293.175
293.078
293.035
293.015
293.007
293.003
293.001
293
293
293
293
293
293
293
293.004
293.016
293.036
293.069
293.126
293.219
293.373
293.624
294.028
294.67
295.677
297.229
299.572
303.036
308.03
315.031
324.547
337.063
352.962
372.472
395.635
422.312
452.237
485.073
520.472
558.114
597.73
639.109
682.086
726.539
772.372
819.501
867.843
917.306
967.775
1019.14
1071.42
1124.56
1178.47
1233.02
1288.1
1343.57
1399.32
1455.19
1511.05
1566.73
1622.1
1676.97
1731.17
1784.52
1836.8
1887.75
1937.05
1984.28
2028.82
2069.8
2104.66
2133.83
2152.78
2156.26
2135.6
2076.01
1981.65
1866.83
1740.45
1608.27
1474.1
1340.56
1209.56
1082.62
961.054
845.909
738.361
639.941
552.579
478.124
417.919
372.321
340.328
319.628
307.229
300.279
296.59
294.725
293.812
293.375
293.171
293.076
293.034
293.015
293.006
293.003
293.001
293
293
293
293
293
293
293
293.004
293.015
293.036
293.069
293.126
293.219
293.372
293.623
294.026
294.668
295.673
297.222
299.562
303.021
308.009
315.001
324.508
337.012
352.899
372.397
395.549
422.217
452.135
484.967
520.363
558.006
597.626
639.009
681.994
726.458
772.303
819.447
867.807
917.29
967.783
1019.17
1071.48
1124.65
1178.59
1233.18
1288.29
1343.8
1399.59
1455.5
1511.4
1567.13
1622.53
1677.44
1731.68
1785.06
1837.36
1888.34
1937.66
1984.89
2029.42
2070.37
2105.16
2134.2
2152.94
2156.07
2134.82
2074.27
1979.31
1864.11
1737.49
1605.18
1470.95
1337.41
1206.45
1079.59
958.152
843.16
735.81
637.636
550.573
476.461
416.62
371.379
339.697
319.238
307.004
300.158
296.528
294.695
293.798
293.369
293.167
293.075
293.033
293.014
293.006
293.003
293.001
293
293
293
293
293
293
293
293.004
293.015
293.036
293.069
293.125
293.219
293.372
293.622
294.025
294.666
295.67
297.218
299.556
303.012
307.995
314.982
324.483
336.979
352.858
372.349
395.494
422.156
452.07
484.898
520.294
557.938
597.56
638.947
681.938
726.408
772.262
819.416
867.788
917.284
967.792
1019.19
1071.52
1124.72
1178.68
1233.29
1288.42
1343.96
1399.77
1455.71
1511.63
1567.39
1622.81
1677.75
1732.01
1785.42
1837.74
1888.73
1938.06
1985.29
2029.82
2070.74
2105.48
2134.45
2153.05
2155.95
2134.32
2073.13
1977.78
1862.32
1735.56
1603.15
1468.89
1335.34
1204.41
1077.61
956.25
841.36
734.139
636.128
549.264
475.378
415.778
370.769
339.29
318.986
306.859
300.079
296.487
294.675
293.788
293.364
293.165
293.074
293.033
293.014
293.006
293.003
293.001
293
293
293
293
293
293
293
293.004
293.015
293.036
293.069
293.125
293.218
293.372
293.622
294.024
294.665
295.669
297.216
299.553
303.007
307.988
314.973
324.471
336.964
352.839
372.326
395.468
422.127
452.039
484.866
520.262
557.905
597.529
638.918
681.911
726.385
772.243
819.403
867.78
917.283
967.798
1019.21
1071.54
1124.75
1178.72
1233.34
1288.49
1344.04
1399.86
1455.82
1511.75
1567.52
1622.96
1677.9
1732.18
1785.59
1837.93
1888.92
1938.26
1985.5
2030.02
2070.93
2105.65
2134.57
2153.1
2155.89
2134.07
2072.58
1977.02
1861.45
1734.61
1602.16
1467.87
1334.33
1203.41
1076.64
955.325
840.487
733.331
635.402
548.636
474.861
415.378
370.483
339.1
318.869
306.791
300.042
296.468
294.666
293.784
293.362
293.164
293.074
293.033
293.014
293.006
293.003
293.001
293
293
293
293
293
293
293
293.004
293.015
293.036
293.069
293.125
293.218
293.372
293.622
294.024
294.665
295.669
297.216
299.553
303.007
307.988
314.973
324.471
336.964
352.839
372.326
395.468
422.127
452.039
484.866
520.262
557.905
597.529
638.918
681.911
726.385
772.243
819.403
867.78
917.283
967.798
1019.21
1071.54
1124.75
1178.72
1233.34
1288.49
1344.04
1399.86
1455.82
1511.75
1567.52
1622.96
1677.9
1732.18
1785.59
1837.93
1888.92
1938.26
1985.5
2030.02
2070.93
2105.65
2134.57
2153.1
2155.89
2134.07
2072.58
1977.02
1861.45
1734.61
1602.16
1467.87
1334.33
1203.41
1076.64
955.325
840.487
733.331
635.402
548.636
474.861
415.378
370.483
339.1
318.869
306.791
300.042
296.468
294.666
293.784
293.362
293.164
293.074
293.033
293.014
293.006
293.003
293.001
293
293
293
293
293
293
293
293.004
293.015
293.036
293.069
293.125
293.219
293.372
293.622
294.025
294.666
295.67
297.218
299.556
303.012
307.995
314.982
324.483
336.979
352.858
372.349
395.494
422.156
452.07
484.898
520.294
557.938
597.56
638.947
681.938
726.408
772.262
819.417
867.788
917.284
967.792
1019.19
1071.52
1124.72
1178.68
1233.29
1288.42
1343.96
1399.77
1455.71
1511.63
1567.39
1622.82
1677.75
1732.01
1785.42
1837.74
1888.73
1938.06
1985.29
2029.82
2070.74
2105.48
2134.45
2153.05
2155.95
2134.32
2073.13
1977.78
1862.32
1735.56
1603.15
1468.89
1335.34
1204.41
1077.61
956.25
841.36
734.139
636.128
549.264
475.378
415.778
370.769
339.29
318.986
306.859
300.079
296.487
294.675
293.788
293.364
293.165
293.074
293.033
293.014
293.006
293.003
293.001
293
293
293
293
293
293
293
293.004
293.015
293.036
293.069
293.126
293.219
293.372
293.623
294.026
294.668
295.673
297.222
299.562
303.021
308.009
315.001
324.508
337.012
352.898
372.397
395.549
422.217
452.135
484.966
520.363
558.006
597.626
639.009
681.994
726.458
772.303
819.447
867.808
917.29
967.783
1019.17
1071.48
1124.65
1178.59
1233.18
1288.29
1343.8
1399.59
1455.5
1511.4
1567.13
1622.53
1677.44
1731.68
1785.06
1837.36
1888.34
1937.66
1984.89
2029.42
2070.37
2105.16
2134.2
2152.94
2156.07
2134.82
2074.27
1979.31
1864.11
1737.49
1605.18
1470.95
1337.41
1206.45
1079.59
958.152
843.16
735.81
637.636
550.573
476.461
416.62
371.379
339.697
319.238
307.004
300.158
296.528
294.695
293.798
293.369
293.167
293.075
293.033
293.014
293.006
293.003
293.001
293
293
293
293
293
293
293
293.004
293.016
293.036
293.069
293.126
293.219
293.373
293.624
294.028
294.67
295.677
297.229
299.572
303.036
308.03
315.031
324.547
337.062
352.961
372.472
395.635
422.312
452.237
485.073
520.472
558.114
597.73
639.109
682.086
726.539
772.372
819.501
867.843
917.306
967.776
1019.14
1071.42
1124.56
1178.47
1233.02
1288.1
1343.57
1399.32
1455.19
1511.05
1566.73
1622.1
1676.97
1731.17
1784.52
1836.8
1887.75
1937.05
1984.28
2028.82
2069.8
2104.66
2133.83
2152.78
2156.26
2135.6
2076
1981.65
1866.83
1740.45
1608.27
1474.1
1340.56
1209.56
1082.62
961.054
845.909
738.361
639.941
552.579
478.124
417.918
372.321
340.328
319.628
307.228
300.279
296.59
294.725
293.812
293.375
293.171
293.076
293.034
293.015
293.006
293.003
293.001
293
293
293
293
293
293
293
293.004
293.016
293.036
293.07
293.126
293.22
293.374
293.625
294.03
294.674
295.683
297.238
299.586
303.057
308.059
315.071
324.602
337.133
353.049
372.576
395.755
422.446
452.381
485.224
520.626
558.267
597.88
639.252
682.219
726.659
772.475
819.585
867.904
917.339
967.779
1019.11
1071.35
1124.46
1178.32
1232.82
1287.85
1343.27
1398.96
1454.78
1510.58
1566.22
1621.52
1676.34
1730.5
1783.8
1836.04
1886.96
1936.24
1983.46
2028.02
2069.04
2103.99
2133.32
2152.56
2156.52
2136.64
2078.37
1984.85
1870.55
1744.49
1612.48
1478.39
1344.86
1213.8
1086.74
965.007
849.652
741.836
643.083
555.317
480.398
419.696
373.613
341.193
320.162
307.535
300.444
296.675
294.767
293.832
293.385
293.175
293.078
293.035
293.015
293.006
293.003
293.001
293
293
293
293
293
293
293
293.004
293.016
293.036
293.07
293.126
293.22
293.375
293.627
294.033
294.679
295.691
297.249
299.604
303.083
308.097
315.124
324.673
337.225
353.164
372.714
395.913
422.623
452.572
485.425
520.832
558.475
598.085
639.449
682.404
726.829
772.625
819.71
868.001
917.403
967.805
1019.09
1071.29
1124.34
1178.15
1232.59
1287.55
1342.91
1398.54
1454.28
1510.01
1565.57
1620.81
1675.57
1729.66
1782.91
1835.1
1885.98
1935.24
1982.46
2027.05
2068.13
2103.18
2132.65
2152.24
2156.81
2137.97
2081.42
1988.96
1875.32
1749.67
1617.89
1483.9
1350.36
1219.22
1092.02
970.072
854.452
746.294
647.118
558.837
483.326
421.988
375.281
342.312
320.853
307.93
300.657
296.784
294.821
293.858
293.397
293.18
293.081
293.036
293.016
293.007
293.003
293.001
293.001
293
293
293
293
293
293
293.004
293.016
293.036
293.07
293.127
293.221
293.376
293.629
294.037
294.685
295.7
297.264
299.627
303.117
308.146
315.192
324.764
337.343
353.31
372.89
396.117
422.851
452.82
485.687
521.103
558.749
598.356
639.713
682.656
727.063
772.837
819.893
868.15
917.513
967.87
1019.1
1071.24
1124.23
1177.97
1232.34
1287.23
1342.5
1398.04
1453.7
1509.34
1564.81
1619.97
1674.63
1728.65
1781.82
1833.96
1884.8
1934.04
1981.27
2025.93
2067.15
2102.55
2131.47
2151.66
2157.09
2139.56
2085.15
1994.01
1881.2
1756.04
1624.54
1490.68
1357.15
1225.92
1098.54
976.327
860.38
751.803
652.109
563.196
486.956
424.836
377.358
343.708
321.717
308.426
300.925
296.921
294.888
293.89
293.412
293.187
293.084
293.037
293.016
293.007
293.003
293.001
293.001
293
293
293
293
293
293
293.004
293.016
293.036
293.07
293.127
293.222
293.378
293.632
294.041
294.692
295.712
297.282
299.654
303.158
308.205
315.275
324.876
337.489
353.493
373.11
396.373
423.139
453.135
486.021
521.45
559.102
598.71
640.06
682.991
727.379
773.128
820.154
868.372
917.689
967.993
1019.17
1071.24
1124.16
1177.81
1232.1
1286.89
1342.06
1397.5
1453.05
1508.58
1563.94
1618.98
1673.54
1727.46
1780.54
1832.59
1883.36
1932.56
1979.77
2024.44
2065.73
2101.39
2130.53
2151.23
2157.55
2141.51
2089.58
2000.01
1888.18
1763.64
1632.5
1498.8
1365.3
1233.97
1106.38
983.861
867.526
758.451
658.138
568.47
491.357
428.297
379.89
345.415
322.777
309.036
301.254
297.09
294.971
293.929
293.43
293.196
293.088
293.039
293.017
293.007
293.003
293.001
293.001
293
293
293
293
293
293
293.004
293.016
293.036
293.071
293.128
293.223
293.38
293.635
294.047
294.701
295.726
297.304
299.688
303.208
308.277
315.376
325.013
337.667
353.717
373.381
396.689
423.495
453.526
486.44
521.888
559.552
599.163
640.51
683.43
727.801
773.524
820.515
868.692
917.958
968.202
1019.31
1071.3
1124.14
1177.7
1231.88
1286.56
1341.61
1396.92
1452.35
1507.74
1562.97
1617.88
1672.31
1726.09
1779.05
1830.99
1881.67
1930.8
1977.97
2022.65
2064.02
2099.98
2129.47
2150.78
2158.13
2143.8
2094.74
2006.99
1896.35
1772.56
1641.86
1508.38
1374.92
1243.49
1115.66
992.79
876.001
766.344
665.308
574.752
496.613
432.443
382.934
347.476
324.06
309.777
301.655
297.296
295.072
293.978
293.453
293.206
293.092
293.041
293.018
293.008
293.003
293.001
293.001
293
293
293
293
293
293
293.004
293.016
293.036
293.071
293.129
293.225
293.382
293.639
294.053
294.711
295.742
297.33
299.727
303.267
308.363
315.497
325.177
337.882
353.989
373.711
397.076
423.934
454.008
486.959
522.435
560.118
599.74
641.088
684
728.354
774.052
821.009
869.141
918.352
968.53
1019.56
1071.47
1124.2
1177.66
1231.71
1286.26
1341.18
1396.35
1451.62
1506.86
1561.92
1616.67
1670.93
1724.56
1777.38
1829.18
1879.74
1928.78
1975.9
2020.58
2062.04
2098.38
2128.27
2150.28
2158.81
2146.45
2100.69
2015.07
1905.81
1782.9
1652.74
1519.53
1386.14
1254.61
1126.53
1003.26
885.942
775.614
673.739
582.156
502.823
437.359
386.559
349.941
325.602
310.67
302.139
297.545
295.194
294.036
293.48
293.218
293.098
293.043
293.019
293.008
293.003
293.001
293.001
293
293
293
293
293
293
293.004
293.016
293.037
293.072
293.13
293.226
293.385
293.643
294.06
294.723
295.762
297.36
299.773
303.336
308.464
315.64
325.372
338.139
354.314
374.108
397.544
424.468
454.602
487.603
523.117
560.827
600.466
641.822
684.732
729.074
774.749
821.673
869.759
918.912
969.019
1019.96
1071.78
1124.4
1177.73
1231.66
1286.06
1340.82
1395.81
1450.9
1505.95
1560.83
1615.38
1669.45
1722.9
1775.53
1827.17
1877.59
1926.51
1973.56
2018.24
2059.8
2096.53
2126.88
2149.69
2159.57
2149.46
2107.49
2024.32
1916.67
1794.8
1665.29
1532.43
1399.14
1267.51
1139.15
1015.42
897.502
786.409
683.576
590.813
510.107
443.146
390.846
352.871
327.443
311.739
302.72
297.843
295.341
294.106
293.512
293.233
293.104
293.046
293.02
293.009
293.004
293.002
293.001
293
293
293
293
293
293
293.004
293.016
293.037
293.072
293.131
293.228
293.388
293.648
294.069
294.737
295.783
297.395
299.827
303.416
308.582
315.807
325.602
338.442
354.7
374.581
398.104
425.111
455.319
488.383
523.95
561.702
601.371
642.745
685.663
729.999
775.657
822.55
870.592
919.686
969.718
1020.57
1072.28
1124.78
1177.97
1231.75
1285.98
1340.56
1395.35
1450.24
1505.08
1559.73
1614.05
1667.9
1721.12
1773.54
1824.98
1875.23
1924.01
1970.97
2015.63
2057.29
2094.43
2125.27
2148.96
2160.34
2152.76
2115.06
2034.72
1928.97
1808.35
1679.62
1547.19
1414.06
1282.35
1153.68
1029.44
910.846
798.889
694.969
600.865
518.593
449.918
395.888
356.335
329.63
313.014
303.414
298.201
295.516
294.189
293.551
293.251
293.112
293.05
293.022
293.009
293.004
293.002
293.001
293
293
293
293
293
293
293.004
293.016
293.037
293.073
293.132
293.23
293.391
293.654
294.078
294.752
295.808
297.433
299.887
303.508
308.716
315.999
325.867
338.795
355.152
375.14
398.771
425.881
456.184
489.331
524.975
562.783
602.496
643.901
686.836
731.178
776.826
823.695
871.696
920.732
970.687
1021.45
1073.04
1125.42
1178.46
1232.06
1286.1
1340.48
1395.05
1449.7
1504.29
1558.68
1612.75
1666.33
1719.29
1771.46
1822.66
1872.69
1921.3
1968.14
2012.76
2054.48
2092.01
2123.36
2147.96
2160.91
2155.98
2122.77
2045.97
1942.57
1823.52
1695.78
1563.92
1431.02
1299.25
1170.28
1045.49
926.132
813.212
708.075
612.463
528.42
457.796
401.785
360.409
332.215
314.525
304.237
298.624
295.724
294.288
293.597
293.272
293.122
293.054
293.023
293.01
293.004
293.002
293.001
293
293
293
293
293
293
293.004
293.016
293.038
293.073
293.133
293.232
293.394
293.66
294.087
294.768
295.834
297.476
299.954
303.61
308.869
316.218
326.171
339.203
355.679
375.795
399.556
426.794
457.216
490.471
526.206
564.096
603.874
645.33
688.301
732.662
778.314
825.167
873.135
922.116
971.995
1022.66
1074.14
1126.37
1179.25
1232.66
1286.49
1340.64
1394.97
1449.35
1503.66
1557.76
1611.53
1664.81
1717.47
1769.34
1820.26
1870.04
1918.42
1965.1
2009.64
2051.39
2089.26
2121.08
2146.54
2160.98
2158.52
2129.45
2057.47
1957.19
1840.17
1713.72
1582.61
1450.06
1318.3
1189.03
1063.67
943.485
829.507
723.026
625.739
539.715
466.898
408.64
365.177
335.258
316.313
305.214
299.127
295.969
294.405
293.651
293.296
293.132
293.058
293.025
293.011
293.005
293.002
293.001
293
293
293
293
293
293
293.004
293.016
293.038
293.074
293.134
293.234
293.398
293.666
294.098
294.785
295.862
297.521
300.025
303.72
309.034
316.46
326.512
339.665
356.281
376.551
400.472
427.868
458.44
491.833
527.688
565.696
605.562
647.089
690.115
734.513
780.183
827.035
874.978
923.911
973.715
1024.28
1075.64
1127.72
1180.42
1233.63
1287.24
1341.13
1395.18
1449.27
1503.27
1557.05
1610.47
1663.41
1715.73
1767.27
1817.87
1867.35
1915.47
1961.95
2006.35
2048.1
2086.23
2118.47
2144.72
2160.53
2160.36
2135.05
2069.1
1972.68
1858.17
1733.33
1603.2
1471.13
1339.47
1209.96
1084.02
962.961
847.848
739.911
640.795
552.588
477.329
416.544
370.705
338.801
318.397
306.35
299.709
296.253
294.538
293.712
293.324
293.145
293.064
293.028
293.012
293.005
293.002
293.001
293
293
293
293
293
293
293.004
293.017
293.038
293.074
293.135
293.235
293.401
293.671
294.107
294.802
295.891
297.568
300.101
303.84
309.217
316.729
326.894
340.188
356.969
377.422
401.536
429.124
459.882
493.448
529.46
567.6
607.591
649.222
692.33
736.789
782.497
829.362
877.292
926.183
975.915
1026.38
1077.61
1129.54
1182.05
1235.04
1288.4
1342.02
1395.77
1449.53
1503.19
1556.61
1609.67
1662.24
1714.17
1765.34
1815.59
1864.74
1912.57
1958.8
2003.04
2044.74
2083.05
2115.69
2142.71
2159.89
2162.06
2140.68
2081.21
1989.03
1877.33
1754.34
1625.37
1493.94
1362.5
1232.82
1106.36
984.43
868.154
758.674
657.621
567.064
489.141
425.567
377.074
342.919
320.837
307.686
300.394
296.586
294.695
293.784
293.355
293.159
293.07
293.03
293.013
293.005
293.002
293.001
293
293
293
293
293
293
293.004
293.017
293.038
293.075
293.136
293.237
293.403
293.676
294.115
294.816
295.915
297.609
300.17
303.951
309.393
316.998
327.289
340.744
357.719
378.391
402.74
430.568
461.56
495.345
531.559
569.875
610.044
651.802
695.014
739.552
785.312
832.202
880.125
928.976
978.634
1029
1080.1
1131.85
1184.17
1236.92
1290.02
1343.34
1396.77
1450.18
1503.48
1556.52
1609.19
1661.36
1712.9
1763.68
1813.55
1862.34
1909.85
1955.82
1999.88
2041.51
2079.93
2112.94
2140.66
2159.18
2163.69
2146.26
2093.48
2005.7
1896.99
1776.02
1648.39
1517.78
1386.72
1257.03
1130.18
1007.47
890.083
779.084
676.058
583.041
502.266
435.645
384.206
347.523
323.545
309.151
301.133
296.939
294.858
293.857
293.388
293.173
293.076
293.033
293.014
293.006
293.002
293.001
293
293
293
293
293
293
293.004
293.017
293.038
293.075
293.136
293.238
293.405
293.679
294.121
294.828
295.937
297.65
300.241
304.072
309.588
317.301
327.74
341.385
358.59
379.522
404.15
432.263
463.531
497.576
534.026
572.552
612.887
654.833
698.164
742.792
788.61
835.523
883.435
932.239
981.811
1032.06
1083.01
1134.59
1186.68
1239.19
1292.01
1345.02
1398.12
1451.19
1504.11
1556.77
1609.05
1660.83
1711.97
1762.37
1811.86
1860.3
1907.5
1953.21
1997.08
2038.65
2077.17
2110.79
2138.52
2158.39
2165.16
2151.51
2105.11
2021.62
1915.86
1796.98
1670.81
1541.19
1410.72
1281.25
1154.25
1031.01
912.721
800.408
695.57
600.19
516.572
446.821
392.263
352.82
326.71
310.881
302.008
297.356
295.049
293.942
293.425
293.188
293.082
293.035
293.015
293.006
293.003
293.001
293
293
293
293
293
293
293.004
293.017
293.038
293.075
293.136
293.237
293.404
293.677
294.12
294.826
295.938
297.658
300.265
304.129
309.704
317.512
328.095
341.938
359.397
380.632
405.594
434.053
465.661
500.024
536.759
575.53
616.06