/*--------------------------------*- C++ -*----------------------------------*\
  =========                 |
  \\      /  F ield         | OpenFOAM: The Open Source CFD Toolbox
   \\    /   O peration     | Website:  https://openfoam.org
    \\  /    A nd           | Version:  8
     \\/     M anipulation  |
\*---------------------------------------------------------------------------*/
FoamFile
{
    version     2.0;
    format      ascii;
    class       volVectorField;
    location    "0.3/fluid";
    object      U;
}
// * * * * * * * * * * * * * * * * * * * * * * * * * * * * * * * * * * * * * //

dimensions      [0 1 -1 0 0 0 0];

internalField   nonuniform List<vector> 
4000
(
(0.099946 -0.0071506 0)
(0.0996298 -0.0212443 0)
(0.0991177 -0.0351958 0)
(0.0984099 -0.0490514 0)
(0.0975021 -0.0628344 0)
(0.0963789 -0.076549 0)
(0.0950209 -0.0901857 0)
(0.093409 -0.103725 0)
(0.0915278 -0.11714 0)
(0.0893691 -0.130399 0)
(0.0869386 -0.143468 0)
(0.0842658 -0.1563 0)
(0.0814017 -0.16891 0)
(0.0784074 -0.181323 0)
(0.0753503 -0.193577 0)
(0.0722953 -0.205726 0)
(0.0692904 -0.217829 0)
(0.0663518 -0.229929 0)
(0.0634544 -0.242042 0)
(0.0605324 -0.254145 0)
(0.0574919 -0.266176 0)
(0.0542298 -0.278046 0)
(0.0506528 -0.289656 0)
(0.0466903 -0.300903 0)
(0.0423023 -0.311684 0)
(0.0374865 -0.321886 0)
(0.0322623 -0.331451 0)
(0.026656 -0.340338 0)
(0.0206971 -0.348505 0)
(0.0144167 -0.355917 0)
(0.00784826 -0.362549 0)
(0.00102735 -0.368387 0)
(-0.00600985 -0.373427 0)
(-0.0132296 -0.377672 0)
(-0.0205997 -0.381134 0)
(-0.0280893 -0.383833 0)
(-0.03567 -0.385792 0)
(-0.0433155 -0.387042 0)
(-0.0510007 -0.387617 0)
(-0.058702 -0.387555 0)
(-0.0663969 -0.386897 0)
(-0.0740647 -0.385688 0)
(-0.0816852 -0.383973 0)
(-0.0892397 -0.381798 0)
(-0.0967096 -0.379213 0)
(-0.104077 -0.376266 0)
(-0.111326 -0.373008 0)
(-0.118439 -0.369491 0)
(-0.125399 -0.365767 0)
(-0.132189 -0.361891 0)
(-0.138795 -0.357919 0)
(-0.145197 -0.353911 0)
(-0.151378 -0.349931 0)
(-0.157318 -0.346049 0)
(-0.162992 -0.342342 0)
(-0.168371 -0.338897 0)
(-0.173404 -0.33581 0)
(-0.178022 -0.33318 0)
(-0.182148 -0.331113 0)
(-0.185663 -0.329732 0)
(-0.188273 -0.329142 0)
(-0.189391 -0.329305 0)
(-0.18828 -0.32987 0)
(-0.184591 -0.330099 0)
(-0.178909 -0.329358 0)
(-0.172016 -0.327391 0)
(-0.164382 -0.324158 0)
(-0.156263 -0.319691 0)
(-0.147818 -0.314037 0)
(-0.139166 -0.307244 0)
(-0.130403 -0.299362 0)
(-0.12162 -0.29044 0)
(-0.112903 -0.280533 0)
(-0.104338 -0.269696 0)
(-0.0960512 -0.257991 0)
(-0.0882557 -0.24551 0)
(-0.081256 -0.232399 0)
(-0.0754354 -0.219022 0)
(-0.0712208 -0.205953 0)
(-0.0689296 -0.193702 0)
(-0.0685833 -0.182534 0)
(-0.0698827 -0.172363 0)
(-0.0723432 -0.162871 0)
(-0.0754546 -0.153713 0)
(-0.0787913 -0.144642 0)
(-0.0820625 -0.135523 0)
(-0.0851028 -0.1263 0)
(-0.087829 -0.116952 0)
(-0.0901952 -0.107464 0)
(-0.0922098 -0.0979316 0)
(-0.0939043 -0.0883929 0)
(-0.0953154 -0.0788758 0)
(-0.0964788 -0.0694019 0)
(-0.0974277 -0.0599861 0)
(-0.0981914 -0.0506358 0)
(-0.098796 -0.0413511 0)
(-0.0992632 -0.0321246 0)
(-0.09961 -0.022942 0)
(-0.0998469 -0.0137802 0)
(-0.0999828 -0.00460813 0)
(0.100007 -0.00661894 0)
(0.0998052 -0.0198144 0)
(0.0993739 -0.0329293 0)
(0.0986871 -0.0459381 0)
(0.0977493 -0.0588173 0)
(0.096559 -0.0715404 0)
(0.095109 -0.0840768 0)
(0.0933927 -0.0963934 0)
(0.0914093 -0.108458 0)
(0.0891671 -0.120247 0)
(0.0866873 -0.131758 0)
(0.0840087 -0.143026 0)
(0.0811846 -0.154056 0)
(0.0782792 -0.164878 0)
(0.0753619 -0.17555 0)
(0.0724971 -0.186149 0)
(0.0697307 -0.19676 0)
(0.0670758 -0.207457 0)
(0.0645028 -0.218284 0)
(0.06194 -0.229243 0)
(0.0592847 -0.240288 0)
(0.0564219 -0.251339 0)
(0.0532444 -0.26229 0)
(0.0496677 -0.273033 0)
(0.0456379 -0.283469 0)
(0.0411313 -0.293529 0)
(0.0361543 -0.303109 0)
(0.0307303 -0.312108 0)
(0.0248905 -0.320458 0)
(0.0186713 -0.328112 0)
(0.0121131 -0.335039 0)
(0.00525738 -0.341222 0)
(-0.00185308 -0.346655 0)
(-0.00917851 -0.351341 0)
(-0.0166829 -0.35529 0)
(-0.0243311 -0.358519 0)
(-0.0320909 -0.361052 0)
(-0.0399332 -0.362915 0)
(-0.0478311 -0.364139 0)
(-0.0557592 -0.36476 0)
(-0.063694 -0.364814 0)
(-0.0716135 -0.364341 0)
(-0.0794972 -0.363384 0)
(-0.0873257 -0.361986 0)
(-0.0950806 -0.360192 0)
(-0.102745 -0.35805 0)
(-0.110301 -0.355605 0)
(-0.117734 -0.352908 0)
(-0.125029 -0.350008 0)
(-0.13217 -0.346955 0)
(-0.139144 -0.343803 0)
(-0.145937 -0.340605 0)
(-0.152535 -0.337417 0)
(-0.158923 -0.334296 0)
(-0.165085 -0.331301 0)
(-0.170996 -0.328489 0)
(-0.176611 -0.325916 0)
(-0.181864 -0.323626 0)
(-0.186687 -0.321654 0)
(-0.190948 -0.320009 0)
(-0.194321 -0.31865 0)
(-0.196019 -0.317483 0)
(-0.195169 -0.316159 0)
(-0.191401 -0.31439 0)
(-0.185461 -0.31191 0)
(-0.178256 -0.308539 0)
(-0.170306 -0.304162 0)
(-0.161873 -0.298716 0)
(-0.153107 -0.292163 0)
(-0.144111 -0.284487 0)
(-0.134964 -0.275688 0)
(-0.125736 -0.265783 0)
(-0.116489 -0.254819 0)
(-0.107289 -0.242885 0)
(-0.0982653 -0.230149 0)
(-0.0896731 -0.216911 0)
(-0.0819026 -0.203664 0)
(-0.0754505 -0.190931 0)
(-0.0708039 -0.179132 0)
(-0.0682433 -0.168593 0)
(-0.0676988 -0.15936 0)
(-0.0687974 -0.151174 0)
(-0.0710374 -0.143625 0)
(-0.0739341 -0.136335 0)
(-0.077098 -0.129047 0)
(-0.0802627 -0.121628 0)
(-0.0832719 -0.114032 0)
(-0.0860446 -0.106267 0)
(-0.0885476 -0.0983726 0)
(-0.0907581 -0.0902783 0)
(-0.0926824 -0.082007 0)
(-0.0943342 -0.0735967 0)
(-0.095732 -0.0650838 0)
(-0.0968965 -0.0564986 0)
(-0.0978488 -0.0478649 0)
(-0.0986086 -0.0391997 0)
(-0.0991928 -0.0305141 0)
(-0.099612 -0.0218139 0)
(-0.0998736 -0.0131 0)
(-0.0999991 -0.00437099 0)
(0.099977 -0.00635838 0)
(0.0997056 -0.0190047 0)
(0.0991749 -0.0315612 0)
(0.0983681 -0.0440062 0)
(0.0972893 -0.0563161 0)
(0.0959404 -0.0684659 0)
(0.0943221 -0.0804298 0)
(0.0924394 -0.0921822 0)
(0.0903047 -0.103699 0)
(0.0879403 -0.114961 0)
(0.0853789 -0.125956 0)
(0.0826617 -0.136682 0)
(0.0798405 -0.147156 0)
(0.0769798 -0.157412 0)
(0.0741496 -0.167511 0)
(0.0714151 -0.177525 0)
(0.0688219 -0.187536 0)
(0.0663829 -0.197617 0)
(0.0640682 -0.207816 0)
(0.0618053 -0.218141 0)
(0.0594891 -0.228558 0)
(0.0570005 -0.239 0)
(0.0542256 -0.249373 0)
(0.0510719 -0.259574 0)
(0.0474746 -0.269501 0)
(0.0433945 -0.27906 0)
(0.038817 -0.288171 0)
(0.0337507 -0.296766 0)
(0.0282208 -0.304789 0)
(0.0222635 -0.312196 0)
(0.0159198 -0.318955 0)
(0.00923166 -0.325045 0)
(0.00224079 -0.330453 0)
(-0.00501014 -0.335177 0)
(-0.0124824 -0.339224 0)
(-0.020141 -0.342604 0)
(-0.0279517 -0.345336 0)
(-0.0358838 -0.347442 0)
(-0.0439092 -0.348949 0)
(-0.0520014 -0.349887 0)
(-0.0601361 -0.350289 0)
(-0.0682905 -0.350193 0)
(-0.0764437 -0.349634 0)
(-0.0845758 -0.348654 0)
(-0.092669 -0.347293 0)
(-0.100706 -0.345595 0)
(-0.108672 -0.343602 0)
(-0.116552 -0.34136 0)
(-0.124334 -0.338913 0)
(-0.132005 -0.336306 0)
(-0.139556 -0.333587 0)
(-0.146978 -0.3308 0)
(-0.154262 -0.327993 0)
(-0.161399 -0.32521 0)
(-0.168377 -0.322493 0)
(-0.175174 -0.319881 0)
(-0.181738 -0.317404 0)
(-0.187994 -0.315079 0)
(-0.193858 -0.312912 0)
(-0.199137 -0.310883 0)
(-0.203369 -0.308921 0)
(-0.205621 -0.306903 0)
(-0.204881 -0.304547 0)
(-0.200895 -0.301673 0)
(-0.194531 -0.298138 0)
(-0.186767 -0.293824 0)
(-0.178173 -0.288639 0)
(-0.169044 -0.282516 0)
(-0.159546 -0.275418 0)
(-0.149784 -0.267335 0)
(-0.139834 -0.258285 0)
(-0.129759 -0.248318 0)
(-0.119616 -0.237522 0)
(-0.109479 -0.226033 0)
(-0.0995165 -0.214052 0)
(-0.0900507 -0.201859 0)
(-0.0815626 -0.189815 0)
(-0.0746201 -0.178329 0)
(-0.0697068 -0.167786 0)
(-0.0670233 -0.158411 0)
(-0.0664049 -0.150171 0)
(-0.0674228 -0.142794 0)
(-0.0695648 -0.135912 0)
(-0.0723604 -0.1292 0)
(-0.0754397 -0.12244 0)
(-0.0785497 -0.115517 0)
(-0.0815403 -0.108388 0)
(-0.084336 -0.101049 0)
(-0.0869065 -0.0935201 0)
(-0.0892385 -0.0858291 0)
(-0.0913232 -0.0779998 0)
(-0.0931603 -0.070053 0)
(-0.0947553 -0.0620087 0)
(-0.0961173 -0.053885 0)
(-0.0972576 -0.0456979 0)
(-0.098188 -0.0374607 0)
(-0.098919 -0.0291841 0)
(-0.0994577 -0.0208762 0)
(-0.0998082 -0.0125429 0)
(-0.0999873 -0.00418759 0)
(0.0999843 -0.00599413 0)
(0.0997134 -0.0179175 0)
(0.0991718 -0.0297463 0)
(0.0983413 -0.0414528 0)
(0.0972307 -0.053009 0)
(0.0958471 -0.0643869 0)
(0.0941964 -0.0755592 0)
(0.0922876 -0.0865002 0)
(0.0901361 -0.0971876 0)
(0.0877653 -0.107605 0)
(0.0852081 -0.117747 0)
(0.0825094 -0.127618 0)
(0.0797256 -0.137241 0)
(0.0769235 -0.146656 0)
(0.0741736 -0.155924 0)
(0.0715406 -0.165122 0)
(0.0690693 -0.174335 0)
(0.0667721 -0.183636 0)
(0.0646187 -0.193078 0)
(0.0625362 -0.202675 0)
(0.0604183 -0.2124 0)
(0.058143 -0.222194 0)
(0.0555924 -0.231971 0)
(0.0526683 -0.241636 0)
(0.0493007 -0.251092 0)
(0.0454487 -0.260249 0)
(0.0410972 -0.269025 0)
(0.0362516 -0.277352 0)
(0.030932 -0.285172 0)
(0.0251688 -0.292439 0)
(0.0189972 -0.29912 0)
(0.0124545 -0.305193 0)
(0.00557879 -0.310644 0)
(-0.00159077 -0.315467 0)
(-0.00901689 -0.319667 0)
(-0.0166656 -0.323251 0)
(-0.0245044 -0.326234 0)
(-0.0325031 -0.328633 0)
(-0.0406342 -0.330474 0)
(-0.0488719 -0.33178 0)
(-0.0571924 -0.332581 0)
(-0.0655732 -0.332909 0)
(-0.0739939 -0.332797 0)
(-0.0824356 -0.33228 0)
(-0.090881 -0.331395 0)
(-0.0993138 -0.330178 0)
(-0.107719 -0.328668 0)
(-0.116085 -0.326904 0)
(-0.124398 -0.324924 0)
(-0.132651 -0.322766 0)
(-0.140833 -0.320469 0)
(-0.148938 -0.318069 0)
(-0.156957 -0.315601 0)
(-0.16488 -0.313097 0)
(-0.172693 -0.310585 0)
(-0.180365 -0.308087 0)
(-0.187828 -0.305616 0)
(-0.194997 -0.303172 0)
(-0.201758 -0.300747 0)
(-0.207842 -0.298305 0)
(-0.21266 -0.295772 0)
(-0.215152 -0.293017 0)
(-0.214236 -0.289821 0)
(-0.209838 -0.286039 0)
(-0.20294 -0.281602 0)
(-0.194544 -0.276445 0)
(-0.185235 -0.270509 0)
(-0.175328 -0.263751 0)
(-0.165008 -0.256146 0)
(-0.154399 -0.247695 0)
(-0.143594 -0.238429 0)
(-0.132675 -0.228408 0)
(-0.121721 -0.217732 0)
(-0.110847 -0.206546 0)
(-0.100278 -0.195055 0)
(-0.0903905 -0.183539 0)
(-0.0816889 -0.172345 0)
(-0.0747133 -0.16185 0)
(-0.0698746 -0.152373 0)
(-0.067283 -0.144066 0)
(-0.0667051 -0.136834 0)
(-0.067691 -0.130388 0)
(-0.0697422 -0.124373 0)
(-0.0724164 -0.118489 0)
(-0.0753715 -0.112543 0)
(-0.0783743 -0.106429 0)
(-0.0812843 -0.100104 0)
(-0.0840255 -0.0935615 0)
(-0.0865604 -0.0868089 0)
(-0.088873 -0.0798619 0)
(-0.0909583 -0.0727403 0)
(-0.0928163 -0.0654657 0)
(-0.0944498 -0.058059 0)
(-0.0958631 -0.05054 0)
(-0.0970616 -0.0429267 0)
(-0.0980509 -0.0352354 0)
(-0.0988357 -0.0274803 0)
(-0.0994176 -0.0196739 0)
(-0.0997963 -0.0118272 0)
(-0.0999886 -0.00394956 0)
(0.0999807 -0.00563709 0)
(0.0996943 -0.0168485 0)
(0.0991277 -0.0279688 0)
(0.0982645 -0.0389704 0)
(0.0971156 -0.0498258 0)
(0.0956906 -0.0605083 0)
(0.0939984 -0.0709921 0)
(0.0920513 -0.0812538 0)
(0.0898679 -0.0912736 0)
(0.0874748 -0.101037 0)
(0.0849084 -0.110539 0)
(0.0822159 -0.119784 0)
(0.0794558 -0.128792 0)
(0.0766958 -0.137603 0)
(0.0740064 -0.146271 0)
(0.0714521 -0.154867 0)
(0.0690778 -0.163469 0)
(0.066896 -0.172147 0)
(0.064877 -0.180952 0)
(0.0629482 -0.189899 0)
(0.0610032 -0.198973 0)
(0.0589184 -0.208121 0)
(0.0565726 -0.217271 0)
(0.053863 -0.226337 0)
(0.0507141 -0.235232 0)
(0.0470797 -0.243872 0)
(0.0429396 -0.252181 0)
(0.0382945 -0.260095 0)
(0.0331613 -0.26756 0)
(0.0275663 -0.274534 0)
(0.0215415 -0.280983 0)
(0.0151217 -0.286884 0)
(0.00834219 -0.292223 0)
(0.00123864 -0.296992 0)
(-0.0061523 -0.301194 0)
(-0.0137977 -0.304831 0)
(-0.021668 -0.307916 0)
(-0.0297344 -0.310463 0)
(-0.0379703 -0.312493 0)
(-0.0463512 -0.314025 0)
(-0.0548542 -0.315087 0)
(-0.0634581 -0.315703 0)
(-0.0721432 -0.315903 0)
(-0.0808916 -0.315716 0)
(-0.0896862 -0.315175 0)
(-0.0985115 -0.31431 0)
(-0.107354 -0.313154 0)
(-0.1162 -0.311739 0)
(-0.12504 -0.310098 0)
(-0.133863 -0.308261 0)
(-0.142659 -0.306259 0)
(-0.151421 -0.304121 0)
(-0.160136 -0.301872 0)
(-0.168791 -0.299534 0)
(-0.177364 -0.297127 0)
(-0.185811 -0.294662 0)
(-0.194049 -0.292142 0)
(-0.201973 -0.289563 0)
(-0.209433 -0.286905 0)
(-0.216097 -0.284132 0)
(-0.22127 -0.281175 0)
(-0.223758 -0.277907 0)
(-0.222476 -0.274142 0)
(-0.217551 -0.269763 0)
(-0.210084 -0.264747 0)
(-0.20107 -0.259069 0)
(-0.191089 -0.252702 0)
(-0.180463 -0.245623 0)
(-0.169396 -0.23783 0)
(-0.158029 -0.22934 0)
(-0.146473 -0.220197 0)
(-0.134832 -0.210473 0)
(-0.123205 -0.200275 0)
(-0.111738 -0.189748 0)
(-0.100697 -0.179093 0)
(-0.0904917 -0.168566 0)
(-0.0816383 -0.15847 0)
(-0.0746524 -0.149114 0)
(-0.0698845 -0.140731 0)
(-0.0673716 -0.13339 0)
(-0.0668293 -0.126954 0)
(-0.0677933 -0.121144 0)
(-0.0697757 -0.115654 0)
(-0.0723547 -0.110239 0)
(-0.0752101 -0.104743 0)
(-0.078126 -0.0990838 0)
(-0.080972 -0.0932266 0)
(-0.0836753 -0.0871657 0)
(-0.0861974 -0.080909 0)
(-0.088518 -0.0744706 0)
(-0.0906271 -0.0678671 0)
(-0.0925206 -0.0611159 0)
(-0.0941972 -0.054234 0)
(-0.0956579 -0.0472383 0)
(-0.0969045 -0.0401445 0)
(-0.0979397 -0.0329676 0)
(-0.0987653 -0.0257217 0)
(-0.0993802 -0.0184201 0)
(-0.0997822 -0.0110752 0)
(-0.0999872 -0.00369858 0)
(0.0999816 -0.00526409 0)
(0.0996938 -0.0157343 0)
(0.099123 -0.0261175 0)
(0.0982529 -0.0363856 0)
(0.0970961 -0.0465112 0)
(0.0956639 -0.056468 0)
(0.093967 -0.0662311 0)
(0.0920193 -0.0757784 0)
(0.0898408 -0.0850913 0)
(0.0874594 -0.0941571 0)
(0.0849118 -0.102971 0)
(0.0822459 -0.11154 0)
(0.07952 -0.119885 0)
(0.0768013 -0.128042 0)
(0.0741601 -0.136067 0)
(0.0716608 -0.144028 0)
(0.0693487 -0.152 0)
(0.0672373 -0.160051 0)
(0.0652988 -0.16823 0)
(0.0634627 -0.176557 0)
(0.0616237 -0.185017 0)
(0.0596587 -0.193564 0)
(0.0574453 -0.202132 0)
(0.0548784 -0.210641 0)
(0.0518788 -0.219011 0)
(0.0483965 -0.227163 0)
(0.0444075 -0.235027 0)
(0.0399089 -0.242543 0)
(0.0349131 -0.249658 0)
(0.0294428 -0.256334 0)
(0.0235269 -0.262537 0)
(0.0171973 -0.268244 0)
(0.0104858 -0.273442 0)
(0.00342295 -0.27812 0)
(-0.00395045 -0.282279 0)
(-0.0116034 -0.285922 0)
(-0.0195145 -0.289056 0)
(-0.0276539 -0.291695 0)
(-0.0359959 -0.293854 0)
(-0.0445174 -0.295551 0)
(-0.0531967 -0.296806 0)
(-0.0620137 -0.297644 0)
(-0.0709496 -0.298086 0)
(-0.0799866 -0.29816 0)
(-0.0891082 -0.297891 0)
(-0.0982993 -0.297306 0)
(-0.107546 -0.296431 0)
(-0.116835 -0.295294 0)
(-0.126155 -0.29392 0)
(-0.135494 -0.292335 0)
(-0.14484 -0.290563 0)
(-0.154181 -0.288624 0)
(-0.163502 -0.286539 0)
(-0.172781 -0.284323 0)
(-0.181989 -0.281989 0)
(-0.191069 -0.279542 0)
(-0.19992 -0.276982 0)
(-0.208417 -0.274298 0)
(-0.216381 -0.271471 0)
(-0.223424 -0.268466 0)
(-0.228757 -0.265218 0)
(-0.231058 -0.26161 0)
(-0.229282 -0.257472 0)
(-0.223771 -0.252719 0)
(-0.215735 -0.247359 0)
(-0.206145 -0.241394 0)
(-0.195563 -0.234816 0)
(-0.184312 -0.227625 0)
(-0.172606 -0.219832 0)
(-0.160603 -0.211465 0)
(-0.148433 -0.202575 0)
(-0.136215 -0.193238 0)
(-0.124069 -0.183557 0)
(-0.112172 -0.17367 0)
(-0.100826 -0.163761 0)
(-0.0904681 -0.154063 0)
(-0.0816159 -0.144842 0)
(-0.0747551 -0.136365 0)
(-0.0701729 -0.128819 0)
(-0.0678331 -0.122239 0)
(-0.0674031 -0.116476 0)
(-0.0684049 -0.111265 0)
(-0.0703607 -0.106325 0)
(-0.0728686 -0.101438 0)
(-0.0756299 -0.096465 0)
(-0.0784462 -0.0913321 0)
(-0.0811985 -0.0860086 0)
(-0.0838206 -0.0804877 0)
(-0.0862764 -0.0747752 0)
(-0.0885466 -0.068883 0)
(-0.0906205 -0.0628257 0)
(-0.0924923 -0.056619 0)
(-0.0941586 -0.0502789 0)
(-0.0956177 -0.0438211 0)
(-0.096869 -0.0372611 0)
(-0.0979125 -0.0306139 0)
(-0.0987477 -0.0238941 0)
(-0.0993712 -0.0171157 0)
(-0.0997794 -0.0102924 0)
(-0.0999874 -0.00343727 0)
(0.0999811 -0.00489161 0)
(0.0996913 -0.0146211 0)
(0.0991173 -0.0242693 0)
(0.0982433 -0.0338096 0)
(0.0970826 -0.043216 0)
(0.0956475 -0.0524637 0)
(0.0939493 -0.0615295 0)
(0.0920032 -0.070393 0)
(0.0898302 -0.0790373 0)
(0.0874588 -0.0874509 0)
(0.0849267 -0.0956301 0)
(0.0822821 -0.103581 0)
(0.0795837 -0.111323 0)
(0.0768987 -0.118891 0)
(0.0742976 -0.126336 0)
(0.0718447 -0.133719 0)
(0.0695856 -0.141112 0)
(0.0675345 -0.148577 0)
(0.0656648 -0.156162 0)
(0.0639067 -0.163887 0)
(0.0621557 -0.17174 0)
(0.0602883 -0.179683 0)
(0.0581813 -0.187656 0)
(0.0557271 -0.195589 0)
(0.0528444 -0.203407 0)
(0.0494797 -0.211038 0)
(0.0456058 -0.218419 0)
(0.0412167 -0.225492 0)
(0.0363221 -0.232209 0)
(0.0309417 -0.238532 0)
(0.0251017 -0.244431 0)
(0.0188315 -0.249884 0)
(0.0121615 -0.254874 0)
(0.00512198 -0.259394 0)
(-0.00225377 -0.263438 0)
(-0.00993612 -0.267013 0)
(-0.0178997 -0.270121 0)
(-0.0261185 -0.272774 0)
(-0.0345689 -0.274983 0)
(-0.0432287 -0.276763 0)
(-0.0520771 -0.278132 0)
(-0.0610949 -0.279109 0)
(-0.0702635 -0.279714 0)
(-0.0795655 -0.279968 0)
(-0.0889848 -0.279892 0)
(-0.0985059 -0.279509 0)
(-0.108114 -0.27884 0)
(-0.117796 -0.277909 0)
(-0.127536 -0.276735 0)
(-0.137323 -0.275339 0)
(-0.14714 -0.273739 0)
(-0.156972 -0.271953 0)
(-0.166798 -0.269995 0)
(-0.176592 -0.267877 0)
(-0.186313 -0.265607 0)
(-0.195891 -0.263187 0)
(-0.205212 -0.260616 0)
(-0.214132 -0.25788 0)
(-0.222445 -0.254964 0)
(-0.229716 -0.251832 0)
(-0.235062 -0.24842 0)
(-0.237057 -0.244614 0)
(-0.234725 -0.240271 0)
(-0.228629 -0.235342 0)
(-0.220068 -0.229852 0)
(-0.209977 -0.223816 0)
(-0.198888 -0.217241 0)
(-0.187123 -0.210139 0)
(-0.174904 -0.20253 0)
(-0.1624 -0.194451 0)
(-0.149755 -0.185959 0)
(-0.137102 -0.177128 0)
(-0.124575 -0.168057 0)
(-0.11238 -0.158878 0)
(-0.100844 -0.149758 0)
(-0.0904217 -0.140909 0)
(-0.0816267 -0.132566 0)
(-0.0749107 -0.12495 0)
(-0.0705033 -0.118204 0)
(-0.0683103 -0.112323 0)
(-0.0679664 -0.107146 0)
(-0.0689902 -0.102426 0)
(-0.0709166 -0.0979174 0)
(-0.0733619 -0.0934353 0)
(-0.0760448 -0.0888641 0)
(-0.0787801 -0.0841434 0)
(-0.0814572 -0.079248 0)
(-0.0840137 -0.0741724 0)
(-0.086415 -0.0689213 0)
(-0.0886416 -0.0635048 0)
(-0.090682 -0.057935 0)
(-0.0925291 -0.0522252 0)
(-0.0941783 -0.0463895 0)
(-0.0956264 -0.0404416 0)
(-0.0968714 -0.0343956 0)
(-0.0979119 -0.0282653 0)
(-0.0987463 -0.0220644 0)
(-0.0993701 -0.0158068 0)
(-0.0997788 -0.00950574 0)
(-0.0999873 -0.0031745 0)
(0.0999814 -0.00451792 0)
(0.0996925 -0.0135046 0)
(0.0991201 -0.0224161 0)
(0.0982488 -0.0312274 0)
(0.097092 -0.0399139 0)
(0.0956625 -0.0484524 0)
(0.0939723 -0.0568215 0)
(0.0920369 -0.065002 0)
(0.0898776 -0.0729785 0)
(0.0875234 -0.0807407 0)
(0.0850119 -0.0882852 0)
(0.0823912 -0.0956183 0)
(0.0797198 -0.102758 0)
(0.0770645 -0.109737 0)
(0.0744956 -0.116602 0)
(0.0720772 -0.123412 0)
(0.0698556 -0.130232 0)
(0.067846 -0.137121 0)
(0.066023 -0.144125 0)
(0.0643183 -0.151264 0)
(0.0626284 -0.158528 0)
(0.0608301 -0.165884 0)
(0.0587991 -0.173277 0)
(0.0564266 -0.180644 0)
(0.0536286 -0.187915 0)
(0.0503495 -0.195026 0)
(0.0465594 -0.201918 0)
(0.0422496 -0.208536 0)
(0.0374269 -0.214838 0)
(0.0321088 -0.220787 0)
(0.0263193 -0.226354 0)
(0.0200857 -0.231518 0)
(0.0134366 -0.236263 0)
(0.00640104 -0.240582 0)
(-0.000990817 -0.244468 0)
(-0.00871056 -0.247925 0)
(-0.0167328 -0.250955 0)
(-0.0250335 -0.253566 0)
(-0.0335899 -0.255768 0)
(-0.042381 -0.257574 0)
(-0.0513866 -0.258997 0)
(-0.0605876 -0.260054 0)
(-0.0699659 -0.26076 0)
(-0.0795044 -0.261133 0)
(-0.0891865 -0.261192 0)
(-0.0989962 -0.260955 0)
(-0.108918 -0.260439 0)
(-0.118936 -0.259663 0)
(-0.129034 -0.258643 0)
(-0.139197 -0.257396 0)
(-0.149407 -0.255936 0)
(-0.159643 -0.254278 0)
(-0.16988 -0.252431 0)
(-0.180086 -0.250406 0)
(-0.190212 -0.248208 0)
(-0.200176 -0.245838 0)
(-0.209848 -0.243293 0)
(-0.219073 -0.240561 0)
(-0.227619 -0.237626 0)
(-0.234993 -0.234455 0)
(-0.240225 -0.230981 0)
(-0.241831 -0.227092 0)
(-0.238955 -0.222682 0)
(-0.232338 -0.217739 0)
(-0.223321 -0.212289 0)
(-0.212804 -0.206351 0)
(-0.201295 -0.199937 0)
(-0.189114 -0.193068 0)
(-0.176486 -0.185771 0)
(-0.163589 -0.178086 0)
(-0.15058 -0.170069 0)
(-0.137599 -0.161795 0)
(-0.124796 -0.153356 0)
(-0.112397 -0.144872 0)
(-0.100754 -0.136497 0)
(-0.0903343 -0.128423 0)
(-0.0816438 -0.120855 0)
(-0.0751027 -0.113985 0)
(-0.0708885 -0.107922 0)
(-0.0688566 -0.102639 0)
(-0.0686142 -0.0979791 0)
(-0.0696766 -0.0937113 0)
(-0.0715894 -0.0896174 0)
(-0.0739846 -0.0855355 0)
(-0.076597 -0.0813661 0)
(-0.079254 -0.0770573 0)
(-0.0818533 -0.0725873 0)
(-0.0843375 -0.0679515 0)
(-0.0866741 -0.0631539 0)
(-0.0888447 -0.0582031 0)
(-0.0908377 -0.0531097 0)
(-0.0926456 -0.0478856 0)
(-0.0942631 -0.0425432 0)
(-0.0956862 -0.0370952 0)
(-0.0969117 -0.0315544 0)
(-0.0979376 -0.0259339 0)
(-0.0987612 -0.0202465 0)
(-0.0993775 -0.0145052 0)
(-0.0997815 -0.00872321 0)
(-0.0999875 -0.0029131 0)
(0.0999814 -0.00414619 0)
(0.0996938 -0.0123938 0)
(0.0991241 -0.0205727 0)
(0.0982569 -0.0286596 0)
(0.0971059 -0.0366321 0)
(0.0956839 -0.0444687 0)
(0.0940033 -0.0521497 0)
(0.0920796 -0.0596577 0)
(0.0899344 -0.0669785 0)
(0.0875966 -0.0741029 0)
(0.0851039 -0.0810279 0)
(0.0825043 -0.0877592 0)
(0.079856 -0.0943137 0)
(0.0772256 -0.100721 0)
(0.0746832 -0.107024 0)
(0.072293 -0.113277 0)
(0.0701017 -0.119539 0)
(0.0681253 -0.125866 0)
(0.0663394 -0.1323 0)
(0.0646766 -0.138861 0)
(0.0630342 -0.145541 0)
(0.0612888 -0.152311 0)
(0.0593158 -0.159122 0)
(0.0570049 -0.165917 0)
(0.0542702 -0.172633 0)
(0.051054 -0.17921 0)
(0.0473243 -0.185595 0)
(0.0430703 -0.191739 0)
(0.0382969 -0.197601 0)
(0.0330196 -0.203146 0)
(0.0272606 -0.20835 0)
(0.0210455 -0.21319 0)
(0.0144017 -0.217653 0)
(0.00735661 -0.221729 0)
(-6.12571e-05 -0.225414 0)
(-0.00782448 -0.228707 0)
(-0.0159084 -0.231611 0)
(-0.0242899 -0.234131 0)
(-0.0329474 -0.236276 0)
(-0.0418602 -0.238056 0)
(-0.0510085 -0.239482 0)
(-0.0603736 -0.240567 0)
(-0.0699374 -0.241324 0)
(-0.0796826 -0.241769 0)
(-0.089592 -0.241915 0)
(-0.0996488 -0.241778 0)
(-0.109836 -0.241373 0)
(-0.120137 -0.240714 0)
(-0.130534 -0.239815 0)
(-0.141008 -0.23869 0)
(-0.151538 -0.237349 0)
(-0.162101 -0.235805 0)
(-0.172667 -0.234065 0)
(-0.183198 -0.232137 0)
(-0.193639 -0.230026 0)
(-0.203895 -0.227731 0)
(-0.213825 -0.225249 0)
(-0.223264 -0.222568 0)
(-0.231952 -0.219675 0)
(-0.23934 -0.216538 0)
(-0.24437 -0.213093 0)
(-0.24556 -0.209233 0)
(-0.242201 -0.204887 0)
(-0.235153 -0.200064 0)
(-0.225757 -0.194788 0)
(-0.214883 -0.189076 0)
(-0.203028 -0.182946 0)
(-0.19051 -0.176421 0)
(-0.177559 -0.169532 0)
(-0.164359 -0.162321 0)
(-0.151073 -0.154845 0)
(-0.137849 -0.147171 0)
(-0.124848 -0.139388 0)
(-0.112316 -0.131606 0)
(-0.100623 -0.123967 0)
(-0.0902441 -0.116641 0)
(-0.0816763 -0.109811 0)
(-0.0753095 -0.10364 0)
(-0.071275 -0.0982075 0)
(-0.0693869 -0.0934732 0)
(-0.0692323 -0.0892803 0)
(-0.0703272 -0.0854194 0)
(-0.0722277 -0.0816979 0)
(-0.0745802 -0.0779768 0)
(-0.0771325 -0.0741717 0)
(-0.0797225 -0.070239 0)
(-0.0822546 -0.0661608 0)
(-0.084675 -0.0619333 0)
(-0.0869532 -0.0575599 0)
(-0.0890714 -0.0530481 0)
(-0.0910184 -0.0484072 0)
(-0.0927864 -0.0436473 0)
(-0.0943699 -0.0387796 0)
(-0.0957644 -0.0338151 0)
(-0.0969665 -0.0287655 0)
(-0.0979736 -0.0236426 0)
(-0.0987825 -0.0184581 0)
(-0.0993882 -0.013224 0)
(-0.0997852 -0.00795261 0)
(-0.0999877 -0.00265567 0)
(0.0999815 -0.00377647 0)
(0.0996958 -0.0112889 0)
(0.0991296 -0.0187391 0)
(0.0982678 -0.0261058 0)
(0.0971239 -0.0333684 0)
(0.095711 -0.0405074 0)
(0.0940412 -0.0475049 0)
(0.0921303 -0.0543451 0)
(0.0899998 -0.0610151 0)
(0.0876784 -0.0675065 0)
(0.0852038 -0.0738167 0)
(0.0826235 -0.079951 0)
(0.0799954 -0.0859247 0)
(0.077386 -0.0917649 0)
(0.0748649 -0.0975106 0)
(0.0724968 -0.103211 0)
(0.0703284 -0.108921 0)
(0.0683766 -0.114692 0)
(0.0666178 -0.120562 0)
(0.0649857 -0.126551 0)
(0.063378 -0.132652 0)
(0.0616716 -0.13884 0)
(0.059741 -0.145071 0)
(0.057475 -0.151292 0)
(0.0547864 -0.157449 0)
(0.0516157 -0.163486 0)
(0.0479288 -0.169355 0)
(0.0437134 -0.17501 0)
(0.0389725 -0.180414 0)
(0.0337204 -0.185537 0)
(0.0279777 -0.190353 0)
(0.0217688 -0.194844 0)
(0.0151197 -0.198995 0)
(0.0080569 -0.202797 0)
(0.000607636 -0.206245 0)
(-0.00720139 -0.209339 0)
(-0.0153461 -0.21208 0)
(-0.0238045 -0.214471 0)
(-0.0325551 -0.21652 0)
(-0.0415777 -0.218234 0)
(-0.0508528 -0.219622 0)
(-0.0603618 -0.220695 0)
(-0.0700865 -0.221465 0)
(-0.080009 -0.221943 0)
(-0.0901116 -0.222142 0)
(-0.100377 -0.222073 0)
(-0.110786 -0.221749 0)
(-0.121321 -0.221181 0)
(-0.131962 -0.220382 0)
(-0.142689 -0.219362 0)
(-0.153478 -0.218131 0)
(-0.164302 -0.216696 0)
(-0.175127 -0.215066 0)
(-0.185912 -0.213247 0)
(-0.196593 -0.211241 0)
(-0.207067 -0.209048 0)
(-0.217183 -0.206665 0)
(-0.226766 -0.204081 0)
(-0.235533 -0.201285 0)
(-0.242882 -0.198247 0)
(-0.247671 -0.194919 0)
(-0.248464 -0.19119 0)
(-0.244685 -0.187015 0)
(-0.237279 -0.182411 0)
(-0.227566 -0.177403 0)
(-0.216396 -0.172007 0)
(-0.204258 -0.166244 0)
(-0.191469 -0.160139 0)
(-0.178263 -0.153724 0)
(-0.164828 -0.14704 0)
(-0.151332 -0.140141 0)
(-0.137926 -0.133092 0)
(-0.124785 -0.125972 0)
(-0.112168 -0.118884 0)
(-0.100462 -0.111955 0)
(-0.0901458 -0.105338 0)
(-0.0817092 -0.0991964 0)
(-0.0755131 -0.0936666 0)
(-0.0716485 -0.0888098 0)
(-0.0698948 -0.0845754 0)
(-0.0698236 -0.0808138 0)
(-0.0709517 -0.0773354 0)
(-0.0728448 -0.0739708 0)
(-0.0751616 -0.0705996 0)
(-0.0776616 -0.0671496 0)
(-0.0801919 -0.0635839 0)
(-0.0826626 -0.0598876 0)
(-0.0850235 -0.0560573 0)
(-0.087246 -0.0520964 0)
(-0.0893131 -0.0480113 0)
(-0.0912141 -0.04381 0)
(-0.0929414 -0.0395017 0)
(-0.0944892 -0.035096 0)
(-0.0958531 -0.030603 0)
(-0.0970294 -0.026033 0)
(-0.0980153 -0.0213966 0)
(-0.0988075 -0.0167044 0)
(-0.0994007 -0.0119674 0)
(-0.0997897 -0.00719672 0)
(-0.099988 -0.00240317 0)
(0.0999817 -0.0034092 0)
(0.0996977 -0.0101913 0)
(0.0991351 -0.0169175 0)
(0.0982787 -0.0235687 0)
(0.097142 -0.0301263 0)
(0.0957378 -0.0365727 0)
(0.0940785 -0.0428919 0)
(0.0921797 -0.0490696 0)
(0.0900626 -0.0550942 0)
(0.087756 -0.0609583 0)
(0.0852972 -0.0666594 0)
(0.0827335 -0.0722024 0)
(0.0801225 -0.077601 0)
(0.0775303 -0.0828797 0)
(0.0750267 -0.0880736 0)
(0.072676 -0.0932274 0)
(0.0705255 -0.0983904 0)
(0.0685926 -0.103609 0)
(0.0668546 -0.108919 0)
(0.0652457 -0.114338 0)
(0.0636643 -0.119862 0)
(0.0619871 -0.125467 0)
(0.0600884 -0.131116 0)
(0.0578556 -0.136761 0)
(0.0552004 -0.142351 0)
(0.0520618 -0.147839 0)
(0.0484046 -0.15318 0)
(0.0442148 -0.158333 0)
(0.0394944 -0.163264 0)
(0.0342561 -0.167945 0)
(0.0285197 -0.172353 0)
(0.0223084 -0.17647 0)
(0.0156474 -0.180284 0)
(0.0085623 -0.183785 0)
(0.00107939 -0.186969 0)
(-0.00677508 -0.189834 0)
(-0.0149776 -0.19238 0)
(-0.0235066 -0.194611 0)
(-0.0323411 -0.196531 0)
(-0.0414609 -0.198147 0)
(-0.0508468 -0.199466 0)
(-0.06048 -0.200497 0)
(-0.070342 -0.201249 0)
(-0.0804146 -0.201733 0)
(-0.0906793 -0.201957 0)
(-0.101117 -0.201932 0)
(-0.11171 -0.201668 0)
(-0.122437 -0.201175 0)
(-0.133277 -0.200463 0)
(-0.144207 -0.199539 0)
(-0.155202 -0.198412 0)
(-0.166232 -0.19709 0)
(-0.177261 -0.195577 0)
(-0.188242 -0.19388 0)
(-0.199106 -0.191999 0)
(-0.209741 -0.189937 0)
(-0.219988 -0.187688 0)
(-0.229667 -0.185244 0)
(-0.238471 -0.182595 0)
(-0.245756 -0.179715 0)
(-0.250298 -0.17658 0)
(-0.250729 -0.173059 0)
(-0.246582 -0.169133 0)
(-0.23887 -0.164822 0)
(-0.228893 -0.160151 0)
(-0.21748 -0.155137 0)
(-0.205114 -0.149803 0)
(-0.192111 -0.144173 0)
(-0.178705 -0.138278 0)
(-0.165089 -0.13216 0)
(-0.151434 -0.125867 0)
(-0.137895 -0.119459 0)
(-0.124654 -0.11301 0)
(-0.111987 -0.10661 0)
(-0.100291 -0.100377 0)
(-0.0900489 -0.0944462 0)
(-0.0817415 -0.088961 0)
(-0.075704 -0.0840373 0)
(-0.0719926 -0.0797198 0)
(-0.070358 -0.0759525 0)
(-0.07036 -0.0725956 0)
(-0.0715176 -0.0694791 0)
(-0.073405 -0.066455 0)
(-0.0756917 -0.0634196 0)
(-0.0781473 -0.0603119 0)
(-0.0806261 -0.0571007 0)
(-0.0830436 -0.0537734 0)
(-0.0853522 -0.0503276 0)
(-0.087525 -0.0467662 0)
(-0.0895459 -0.0430949 0)
(-0.0914045 -0.0393206 0)
(-0.0930936 -0.0354513 0)
(-0.0946075 -0.0314956 0)
(-0.0959418 -0.0274621 0)
(-0.0970927 -0.0233601 0)
(-0.0980575 -0.0191989 0)
(-0.0988329 -0.0149881 0)
(-0.0994135 -0.0107375 0)
(-0.0997942 -0.00645687 0)
(-0.0999882 -0.00215604 0)
(0.0999818 -0.00304424 0)
(0.0996996 -0.00910048 0)
(0.0991403 -0.0151071 0)
(0.098289 -0.021047 0)
(0.097159 -0.0269038 0)
(0.0957631 -0.0326618 0)
(0.0941135 -0.0383066 0)
(0.0922255 -0.0438256 0)
(0.0901206 -0.0492085 0)
(0.087827 -0.0544486 0)
(0.0853819 -0.0595439 0)
(0.0828323 -0.0644985 0)
(0.0802356 -0.0693249 0)
(0.0776576 -0.0740446 0)
(0.0751679 -0.0786892 0)
(0.0728308 -0.0832985 0)
(0.0706941 -0.0879167 0)
(0.0687754 -0.0925855 0)
(0.0670528 -0.0973373 0)
(0.0654611 -0.102188 0)
(0.063899 -0.107135 0)
(0.0622434 -0.112157 0)
(0.0603679 -0.117221 0)
(0.0581593 -0.122285 0)
(0.0555282 -0.127305 0)
(0.0524123 -0.132237 0)
(0.0487751 -0.13704 0)
(0.0446018 -0.141678 0)
(0.0398931 -0.146123 0)
(0.034661 -0.150346 0)
(0.0289243 -0.154329 0)
(0.0227054 -0.158055 0)
(0.0160288 -0.161511 0)
(0.00891958 -0.16469 0)
(0.00140324 -0.167586 0)
(-0.00649426 -0.170198 0)
(-0.0147497 -0.172526 0)
(-0.0233421 -0.174571 0)
(-0.0322505 -0.176337 0)
(-0.0414549 -0.17783 0)
(-0.050936 -0.179056 0)
(-0.0606748 -0.180021 0)
(-0.0706526 -0.180734 0)
(-0.0808506 -0.181201 0)
(-0.0912496 -0.181432 0)
(-0.10183 -0.181434 0)
(-0.112573 -0.181216 0)
(-0.123455 -0.180787 0)
(-0.134455 -0.180153 0)
(-0.145548 -0.179322 0)
(-0.156707 -0.178301 0)
(-0.167899 -0.177095 0)
(-0.179086 -0.175709 0)
(-0.190218 -0.174148 0)
(-0.201221 -0.172414 0)
(-0.211975 -0.170507 0)
(-0.222315 -0.168423 0)
(-0.232056 -0.166156 0)
(-0.240871 -0.163697 0)
(-0.248083 -0.161025 0)
(-0.252389 -0.158137 0)
(-0.252495 -0.154881 0)
(-0.248025 -0.151261 0)
(-0.240051 -0.147299 0)
(-0.229855 -0.143017 0)
(-0.218245 -0.138436 0)
(-0.205697 -0.133576 0)
(-0.192524 -0.128462 0)
(-0.178963 -0.123124 0)
(-0.165209 -0.117598 0)
(-0.151434 -0.111931 0)
(-0.137796 -0.106176 0)
(-0.124486 -0.100399 0)
(-0.111791 -0.0946832 0)
(-0.100118 -0.0891315 0)
(-0.0899538 -0.0838651 0)
(-0.0817687 -0.0790087 0)
(-0.0758759 -0.0746602 0)
(-0.0723011 -0.0708517 0)
(-0.0707718 -0.0675259 0)
(-0.0708387 -0.0645544 0)
(-0.0720229 -0.0617868 0)
(-0.0739065 -0.0590942 0)
(-0.0761681 -0.0563882 0)
(-0.0785858 -0.0536168 0)
(-0.0810204 -0.0507539 0)
(-0.0833916 -0.047789 0)
(-0.0856542 -0.0447203 0)
(-0.0877829 -0.0415504 0)
(-0.0897623 -0.038284 0)
(-0.0915826 -0.0349275 0)
(-0.0932367 -0.0314877 0)
(-0.0947193 -0.027972 0)
(-0.0960259 -0.0243881 0)
(-0.0971531 -0.020744 0)