/*--------------------------------*- C++ -*----------------------------------*\
  =========                 |
  \\      /  F ield         | OpenFOAM: The Open Source CFD Toolbox
   \\    /   O peration     | Website:  https://openfoam.org
    \\  /    A nd           | Version:  8
     \\/     M anipulation  |
\*---------------------------------------------------------------------------*/
FoamFile
{
    version     2.0;
    format      ascii;
    class       volScalarField;
    location    "120/fluid";
    object      CH4;
}
// * * * * * * * * * * * * * * * * * * * * * * * * * * * * * * * * * * * * * //

dimensions      [0 0 0 0 0 0 0];

internalField   nonuniform List<scalar> 
4000
(
0.999996
0.999984
0.999964
0.99993
0.999875
0.999784
0.999637
0.9994
0.999022
0.998429
0.997511
0.99611
0.994018
0.990962
0.986609
0.980587
0.972513
0.962043
0.948923
0.933026
0.91437
0.893096
0.86945
0.843746
0.816331
0.787564
0.757776
0.727288
0.696389
0.665335
0.63435
0.603628
0.573331
0.543596
0.514534
0.486232
0.458761
0.432171
0.406499
0.381772
0.358003
0.335198
0.313353
0.292457
0.272496
0.253451
0.2353
0.218017
0.201578
0.185954
0.171117
0.157039
0.143691
0.131045
0.119072
0.107745
0.0970384
0.0869265
0.0773852
0.068392
0.0599261
0.0519686
0.0445034
0.0375171
0.0310173
0.025052
0.0194634
0.0143502
0.00974753
0.00567494
0.00276898
0.00196049
0.00136651
0.00093566
0.000627729
0.000411498
0.000262827
0.000163166
9.84232e-05
5.80876e-05
3.45653e-05
2.27217e-05
1.71089e-05
1.27905e-05
9.03833e-06
5.9475e-06
3.60358e-06
2.00005e-06
1.02099e-06
4.87496e-07
2.23378e-07
9.94403e-08
4.33711e-08
1.86356e-08
7.90957e-09
3.31156e-09
1.35535e-09
5.27376e-10
1.78325e-10
3.14559e-11
0.999996
0.999984
0.999964
0.99993
0.999874
0.999782
0.999633
0.999393
0.999011
0.99841
0.997481
0.996068
0.99396
0.990886
0.986519
0.980487
0.972413
0.961954
0.948856
0.932985
0.914347
0.893082
0.869431
0.843702
0.816236
0.787383
0.757493
0.72689
0.695865
0.66468
0.633564
0.602714
0.572296
0.54245
0.513287
0.484897
0.45735
0.430697
0.404974
0.380208
0.356411
0.333588
0.311733
0.290836
0.270882
0.251849
0.233716
0.216457
0.200045
0.184451
0.169648
0.155606
0.142295
0.129688
0.117755
0.106469
0.0958033
0.0857326
0.0762324
0.0672799
0.0588541
0.0509356
0.0435074
0.0365546
0.0300816
0.024143
0.0185794
0.0134895
0.00887349
0.00477836
0.00255249
0.0018055
0.00125699
0.000859087
0.000574745
0.00037528
0.000238454
0.000147114
8.81838e-05
5.19064e-05
3.13189e-05
2.15919e-05
1.61956e-05
1.17608e-05
8.02481e-06
5.07488e-06
2.94887e-06
1.57516e-06
7.81394e-07
3.69042e-07
1.68924e-07
7.56254e-08
3.33166e-08
1.44962e-08
6.23763e-09
2.64822e-09
1.09841e-09
4.32419e-10
1.47483e-10
2.61291e-11
0.999996
0.999984
0.999963
0.999929
0.999872
0.999779
0.999627
0.999383
0.998995
0.998386
0.997444
0.996013
0.993882
0.99078
0.986381
0.980315
0.972207
0.961717
0.948591
0.932697
0.914038
0.892747
0.869058
0.843273
0.815733
0.786787
0.756781
0.726039
0.694858
0.663505
0.632213
0.601187
0.570596
0.540583
0.511265
0.482734
0.45506
0.428297
0.402481
0.377638
0.353782
0.330915
0.309032
0.28812
0.268163
0.24914
0.231027
0.213796
0.197421
0.181872
0.167119
0.153132
0.139881
0.127337
0.11547
0.104252
0.0936561
0.0836563
0.074228
0.0653483
0.0569962
0.0491531
0.0418032
0.0349343
0.0285635
0.0227227
0.0172412
0.0122031
0.00760287
0.00344835
0.002241
0.00159091
0.0011073
0.000754444
0.000502075
0.000325529
0.000205119
0.000125432
7.46617e-05
4.40218e-05
2.7356e-05
1.97675e-05
1.47334e-05
1.04741e-05
6.97876e-06
4.31204e-06
2.45861e-06
1.29806e-06
6.41211e-07
3.02975e-07
1.38921e-07
6.22984e-08
2.74703e-08
1.19524e-08
5.1394e-09
2.17966e-09
9.03162e-10
3.55316e-10
1.2115e-10
2.14636e-11
0.999996
0.999984
0.999963
0.999928
0.999871
0.999776
0.999623
0.999377
0.998985
0.99837
0.997419
0.995976
0.993829
0.990706
0.986279
0.98018
0.972031
0.961494
0.948313
0.932355
0.913623
0.892247
0.868461
0.842566
0.8149
0.785814
0.755654
0.724744
0.693384
0.661844
0.630362
0.599144
0.568365
0.538171
0.508682
0.479993
0.452175
0.425285
0.39936
0.374426
0.350498
0.327576
0.305654
0.284721
0.264758
0.245743
0.22765
0.210452
0.19412
0.178623
0.163931
0.150011
0.136834
0.124368
0.112584
0.101452
0.0909455
0.0810372
0.0717022
0.0629171
0.0546606
0.0469135
0.0396595
0.0328854
0.0266865
0.0209577
0.0155983
0.0107606
0.00647148
0.00291256
0.00206017
0.00143696
0.00098551
0.000662612
0.000435444
0.000278863
0.000173604
0.000105021
6.21594e-05
3.7072e-05
2.43242e-05
1.80394e-05
1.32142e-05
9.16918e-06
5.94791e-06
3.57551e-06
1.98795e-06
1.02883e-06
5.01547e-07
2.35897e-07
1.08088e-07
4.85595e-08
2.14842e-08
9.38705e-09
4.0543e-09
1.72678e-09
7.18154e-10
2.83346e-10
9.67943e-11
1.71645e-11
0.999996
0.999984
0.999962
0.999927
0.999869
0.999774
0.999619
0.99937
0.998974
0.998353
0.997392
0.995935
0.993768
0.990618
0.986155
0.98001
0.971805
0.961201
0.947943
0.931897
0.913066
0.891579
0.867669
0.841635
0.813817
0.784567
0.754229
0.723132
0.691578
0.659839
0.628156
0.596739
0.565766
0.535387
0.505723
0.476872
0.448909
0.421888
0.395852
0.370825
0.346821
0.323842
0.301882
0.280927
0.260958
0.241951
0.223882
0.20672
0.190436
0.174997
0.160371
0.146527
0.133432
0.121055
0.109365
0.0983316
0.0879271
0.0781242
0.0688976
0.0602236
0.052081
0.0444507
0.0373163
0.030682
0.0246446
0.0189783
0.0137864
0.00909819
0.00495898
0.00262163
0.0018303
0.00126092
0.000854514
0.000567814
0.00036877
0.000233384
0.000143638
8.60877e-05
5.08739e-05
3.10693e-05
2.17593e-05
1.62252e-05
1.16749e-05
7.92784e-06
5.02512e-06
2.95433e-06
1.61256e-06
8.23918e-07
3.99449e-07
1.87537e-07
8.59371e-08
3.86463e-08
1.7121e-08
7.49089e-09
3.23942e-09
1.38118e-09
5.74883e-10
2.26933e-10
7.75404e-11
1.3752e-11
0.999996
0.999983
0.999962
0.999927
0.999868
0.999772
0.999616
0.999365
0.998965
0.998338
0.997369
0.995898
0.993711
0.990534
0.986033
0.979838
0.971569
0.960886
0.947533
0.931377
0.912421
0.890795
0.866733
0.840536
0.812544
0.783109
0.752579
0.721283
0.689526
0.657584
0.625699
0.594085
0.562922
0.532362
0.502529
0.473523
0.44542
0.418277
0.392135
0.367021
0.342948
0.319918
0.297923
0.27695
0.25698
0.237987
0.219945
0.202824
0.186592
0.171216
0.156664
0.142901
0.129894
0.117612
0.106022
0.0950943
0.0847994
0.0751099
0.0660001
0.0574467
0.0494289
0.0419293
0.0349347
0.0284837
0.022592
0.0170369
0.0119617
0.00736295
0.00327599
0.00223962
0.0015675
0.00107782
0.000726827
0.000479572
0.000308815
0.000193615
0.000118088
7.03792e-05
4.18717e-05
2.66445e-05
1.95081e-05
1.44679e-05
1.02383e-05
6.81436e-06
4.2263e-06
2.43287e-06
1.30456e-06
6.57974e-07
3.17189e-07
1.48552e-07
6.8049e-08
3.06314e-08
1.35938e-08
5.96026e-09
2.58315e-09
1.10358e-09
4.60085e-10
1.81822e-10
6.21649e-11
1.10289e-11
0.999996
0.999983
0.999962
0.999926
0.999867
0.99977
0.999613
0.999359
0.998956
0.998322
0.997344
0.995859
0.993652
0.990444
0.985902
0.979651
0.971311
0.96054
0.947081
0.930803
0.911709
0.889931
0.865703
0.839328
0.811149
0.781519
0.750789
0.719289
0.687328
0.655182
0.623099
0.591292
0.559946
0.529214
0.499223
0.470073
0.441841
0.414586
0.38835
0.363159
0.339027
0.315954
0.293933
0.27295
0.252985
0.234012
0.216004
0.198928
0.182753
0.167444
0.152968
0.13929
0.126376
0.114192
0.102706
0.0918867
0.0817044
0.0721308
0.0631397
0.054707
0.0468112
0.0394336
0.0325586
0.0263245
0.0205854
0.0152104
0.0103776
0.00611846
0.0028672
0.0020027
0.0013819
0.000938954
0.000626332
0.00040895
0.000260627
0.000161782
9.78614e-05
5.82017e-05
3.5217e-05
2.37875e-05
1.77496e-05
1.29931e-05
9.03057e-06
5.89017e-06
3.57762e-06
2.02047e-06
1.06712e-06
5.32616e-07
2.55651e-07
1.19507e-07
5.47216e-08
2.46434e-08
1.09467e-08
4.80517e-09
2.08502e-09
8.91709e-10
3.72054e-10
1.47102e-10
5.03029e-11
8.92604e-12
0.999996
0.999983
0.999962
0.999926
0.999866
0.999769
0.99961
0.999354
0.998946
0.998307
0.997319
0.99582
0.993592
0.990353
0.985768
0.979459
0.971043
0.960178
0.946607
0.930197
0.910956
0.889016
0.864614
0.838055
0.809683
0.779855
0.748922
0.717219
0.685057
0.652714
0.620439
0.58845
0.556932
0.52604
0.495903
0.466622
0.438275
0.410922
0.384604
0.359349
0.335167
0.312062
0.290025
0.269041
0.249088
0.230142
0.212172
0.195146
0.179032
0.163794
0.149397
0.135806
0.122985
0.110901
0.0995194
0.0888096
0.0787407
0.0692842
0.0604137
0.0521053
0.0443377
0.0370929
0.030378
0.0243139
0.0185856
0.0133247
0.00854449
0.00428224
0.00246628
0.00172715
0.00119051
0.000806195
0.000535081
0.000347194
0.000219715
0.000135424
8.1497e-05
4.85809e-05
3.01692e-05
2.15203e-05
1.6145e-05
1.16751e-05
7.98365e-06
5.11145e-06
3.04622e-06
1.69133e-06
8.81505e-07
4.35972e-07
2.08474e-07
9.72835e-08
4.45248e-08
2.0058e-08
8.91702e-09
3.91833e-09
1.70206e-09
7.28632e-10
3.04229e-10
1.20333e-10
4.11542e-11
7.30427e-12
0.999996
0.999983
0.999961
0.999925
0.999865
0.999767
0.999607
0.999348
0.998937
0.998292
0.997295
0.995781
0.993531
0.990261
0.985631
0.979263
0.97077
0.959808
0.94612
0.929577
0.910185
0.88808
0.863502
0.836757
0.808192
0.778167
0.747036
0.715136
0.682779
0.650247
0.617792
0.585632
0.553955
0.522917
0.492648
0.46325
0.434803
0.407365
0.380978
0.355669
0.331451
0.308324
0.286279
0.265301
0.245368
0.226454
0.208527
0.191556
0.175505
0.160339
0.146022
0.132518
0.11979
0.107804
0.0965257
0.0859228
0.0759644
0.0666217
0.0578683
0.0496806
0.0420385
0.0349265
0.0284015
0.0224548
0.0168333
0.0117292
0.00714645
0.00315335
0.0022105
0.00153556
0.00105048
0.000706114
0.000465182
0.000299581
0.00018819
0.000115252
6.9166e-05
4.15851e-05
2.68188e-05
1.98103e-05
1.47958e-05
1.05616e-05
7.10849e-06
4.472e-06
2.6194e-06
1.43278e-06
7.38375e-07
3.62458e-07
1.72787e-07
8.05082e-08
3.68276e-08
1.65921e-08
7.37963e-09
3.2449e-09
1.4105e-09
6.04173e-10
2.5236e-10
9.98305e-11
3.41412e-11
6.06089e-12
0.999996
0.999983
0.999961
0.999925
0.999864
0.999765
0.999604
0.999343
0.998929
0.998277
0.997271
0.995743
0.993471
0.990169
0.985496
0.979067
0.970497
0.959438
0.945635
0.928958
0.909416
0.887148
0.862396
0.835469
0.806716
0.776501
0.745179
0.71309
0.680548
0.64784
0.615216
0.582898
0.551076
0.519906
0.489519
0.460019
0.431485
0.403975
0.377532
0.352182
0.327936
0.304796
0.282752
0.261787
0.24188
0.223001
0.205121
0.188206
0.17222
0.157127
0.142889
0.12947
0.116833
0.104943
0.0937641
0.083264
0.0734111
0.0641761
0.055532
0.0474545
0.0399226
0.0329191
0.0266068
0.0207942
0.0153348
0.010432
0.00613917
0.00287369
0.00200595
0.0013832
0.000939804
0.000627516
0.000410658
0.000262715
0.000163992
9.99492e-05
5.99947e-05
3.66168e-05
2.47449e-05
1.85814e-05
1.37448e-05
9.67501e-06
6.40801e-06
3.96325e-06
2.28408e-06
1.23243e-06
6.28599e-07
3.06901e-07
1.45828e-07
6.78232e-08
3.09973e-08
1.39614e-08
6.21024e-09
2.73159e-09
1.18784e-09
5.08967e-10
2.1263e-10
8.41131e-11
2.87627e-11
5.10738e-12
0.999996
0.999983
0.999961
0.999924
0.999863
0.999763
0.999601
0.999338
0.99892
0.998263
0.997248
0.995706
0.993412
0.99008
0.985364
0.978877
0.970231
0.959079
0.945163
0.928356
0.908668
0.886242
0.861322
0.83422
0.805288
0.774892
0.743389
0.711123
0.67841
0.645537
0.612759
0.580298
0.548344
0.517057
0.486567
0.456978
0.428369
0.400799
0.374311
0.348929
0.324665
0.30152
0.279483
0.258537
0.238658
0.219819
0.201988
0.185129
0.169208
0.154185
0.140025
0.126688
0.114138
0.102338
0.0912539
0.080851
0.0710978
0.0619645
0.0534238
0.0454507
0.0380234
0.0311411
0.0249556
0.019104
0.0137618
0.00894331
0.00467231
0.00254867
0.0017825
0.00122965
0.000834833
0.000556464
0.000363254
0.000231694
0.000144201
8.77555e-05
5.28806e-05
3.29332e-05
2.33001e-05
1.75889e-05
1.28814e-05
8.94936e-06
5.83949e-06
3.55581e-06
2.0198e-06
1.0769e-06
5.44405e-07
2.64596e-07
1.2537e-07
5.82067e-08
2.65753e-08
1.19635e-08
5.32061e-09
2.34033e-09
1.0178e-09
4.36141e-10
1.82202e-10
7.20652e-11
2.46384e-11
4.37635e-12
0.999996
0.999983
0.999961
0.999924
0.999862
0.999762
0.999598
0.999333
0.998912
0.99825
0.997226
0.99567
0.993357
0.989996
0.985239
0.978697
0.969979
0.958736
0.944713
0.927782
0.907957
0.885382
0.860303
0.833037
0.803937
0.773371
0.741701
0.709272
0.676401
0.643378
0.61046
0.57787
0.5458
0.514409
0.483829
0.454163
0.425491
0.397872
0.371348
0.345943
0.321668
0.298524
0.276498
0.255574
0.235727
0.216929
0.199146
0.182343
0.166483
0.151529
0.137442
0.124183
0.111715
0.100001
0.0890052
0.0786937
0.0690347
0.0599986
0.0515587
0.0436916
0.0363778
0.0296221
0.0235389
0.0177647
0.0124876
0.00770244
0.00345423
0.00227836
0.00160423
0.00111057
0.000754984
0.000503118
0.000327996
0.000208803
0.000129723
7.89478e-05
4.78656e-05
3.04971e-05
2.2238e-05
1.67769e-05
1.21711e-05
8.35512e-06
5.37817e-06
3.22961e-06
1.81139e-06
9.559e-07
4.7957e-07
2.32179e-07
1.09732e-07
5.0863e-08
2.31984e-08
1.04369e-08
4.64015e-09
2.04072e-09
8.87443e-10
3.80258e-10
1.58835e-10
6.28101e-11
2.14699e-11
3.81496e-12
0.999996
0.999983
0.99996
0.999923
0.999862
0.99976
0.999595
0.999329
0.998905
0.998237
0.997205
0.995638
0.993306
0.989918
0.985123
0.978529
0.969745
0.958419
0.944296
0.927251
0.907298
0.884584
0.859359
0.831941
0.802686
0.771966
0.740143
0.707565
0.674552
0.641395
0.608352
0.575648
0.543474
0.511993
0.481335
0.451605
0.42288
0.395221
0.368668
0.343247
0.318967
0.295827
0.273816
0.252916
0.233101
0.214342
0.196606
0.179856
0.164056
0.149165
0.135146
0.121959
0.109567
0.0979304
0.087015
0.0767861
0.0672114
0.0582611
0.0499084
0.0421296
0.0349053
0.0283005
0.0223141
0.0166619
0.0115441
0.00697611
0.00306934
0.00216177
0.00150533
0.00103413
0.000699132
0.000463946
0.000301459
0.000191423
0.000118767
7.23953e-05
4.43046e-05
2.89931e-05
2.157e-05
1.61989e-05
1.16385e-05
7.89717e-06
5.01868e-06
2.97545e-06
1.64994e-06
8.62799e-07
4.29944e-07
2.07413e-07
9.77896e-08
4.5252e-08
2.06158e-08
9.26789e-09
4.11836e-09
1.81066e-09
7.87226e-10
3.37252e-10
1.40842e-10
5.56809e-11
1.90293e-11
3.38275e-12
0.999996
0.999983
0.99996
0.999923
0.999861
0.999759
0.999593
0.999325
0.998898
0.998226
0.997187
0.995609
0.993261
0.989848
0.985018
0.978379
0.969534
0.958132
0.94392
0.92677
0.906702
0.883863
0.858505
0.830951
0.801557
0.770698
0.738739
0.706028
0.672888
0.639613
0.60646
0.573655
0.541393
0.509834
0.47911
0.449324
0.420556
0.392864
0.36629
0.340857
0.316575
0.293443
0.271448
0.250572
0.230788
0.212067
0.194375
0.177674
0.161928
0.147095
0.133138
0.120016
0.10769
0.0961235
0.0852795
0.0751234
0.0656228
0.0567475
0.0484699
0.0407656
0.0336145
0.0271955
0.021285
0.0157358
0.0107549
0.00636982
0.00290892
0.00204613
0.00142163
0.000974079
0.000656775
0.000434739
0.000281856
0.000178681
0.000110824
6.7755e-05
4.19413e-05
2.82287e-05
2.12207e-05
1.58282e-05
1.12635e-05
7.55862e-06
4.74695e-06
2.78198e-06
1.52709e-06
7.92118e-07
3.92331e-07
1.88631e-07
8.87181e-08
4.09809e-08
1.86453e-08
8.37385e-09
3.71839e-09
1.63394e-09
7.10098e-10
3.04104e-10
1.26957e-10
5.0176e-11
1.71442e-11
3.04907e-12
0.999996
0.999983
0.99996
0.999923
0.99986
0.999758
0.999591
0.999322
0.998892
0.998217
0.997172
0.995584
0.993221
0.989788
0.984928
0.978248
0.969349
0.957882
0.94359
0.926349
0.906179
0.88323
0.857757
0.830082
0.800566
0.769585
0.737506
0.70468
0.671431
0.638052
0.604804
0.571915
0.539576
0.507951
0.477171
0.44734
0.418536
0.390818
0.364227
0.338787
0.314506
0.291382
0.269403
0.24855
0.228795
0.210109
0.192456
0.175799
0.1601
0.145319
0.131416
0.11835
0.106084
0.0945777
0.083796
0.0737038
0.0642687
0.0554607
0.0472533
0.0396236
0.0325679
0.0262485
0.0202695
0.0148181
0.00991523
0.00559399
0.00273935
0.00192583
0.00133823
0.00091728
0.000618752
0.000409761
0.000265812
0.00016867
0.000104833
6.44241e-05
4.03928e-05
2.7942e-05
2.11032e-05
1.56316e-05
1.10215e-05
7.32128e-06
4.54885e-06
2.63861e-06
1.43553e-06
7.39332e-07
3.64196e-07
1.74544e-07
8.18929e-08
3.77561e-08
1.71521e-08
7.69397e-09
3.41319e-09
1.49866e-09
6.50886e-10
2.78593e-10
1.16251e-10
4.59254e-11
1.56876e-11
2.79128e-12
0.999996
0.999983
0.99996
0.999922
0.99986
0.999757
0.99959
0.999319
0.998888
0.998209
0.997159
0.995563
0.993189
0.989737
0.984853
0.978138
0.969195
0.957672
0.943313
0.925995
0.905739
0.882696
0.857123
0.829346
0.799727
0.768642
0.736462
0.703538
0.670196
0.63673
0.603403
0.570441
0.538039
0.50636
0.475534
0.445666
0.416833
0.389094
0.362491
0.337045
0.312766
0.289651
0.267687
0.246854
0.227125
0.208469
0.19085
0.174232
0.158574
0.143836
0.129978
0.116961
0.104743
0.0932872
0.0825564
0.0725156
0.063132
0.0543758
0.0462202
0.0386423
0.0316263
0.0253483
0.0193985
0.0139656
0.00905979
0.00469713
0.00252764
0.00179117
0.00125276
0.000863302
0.000584934
0.000388825
0.000253076
0.000161125
0.000100556
6.22068e-05
3.95115e-05
2.79655e-05
2.11404e-05
1.55613e-05
1.08862e-05
7.16713e-06
4.41193e-06
2.53648e-06
1.36933e-06
7.00855e-07
3.43578e-07
1.64163e-07
7.68351e-08
3.53536e-08
1.6034e-08
7.18234e-09
3.18246e-09
1.39595e-09
6.05757e-10
2.59084e-10
1.0804e-10
4.26588e-11
1.45668e-11
2.5929e-12
0.999996
0.999983
0.99996
0.999922
0.99986
0.999757
0.999589
0.999317
0.998884
0.998204
0.997149
0.995547
0.993163
0.989698
0.984794
0.978052
0.969074
0.957506
0.943093
0.925712
0.905386
0.882267
0.856614
0.828753
0.799049
0.76788
0.735617
0.702613
0.669196
0.63566
0.602268
0.569249
0.536796
0.505072
0.47421
0.444312
0.415456
0.387702
0.361089
0.33564
0.311364
0.288257
0.266306
0.24549
0.225782
0.207151
0.189561
0.172973
0.157349
0.142647
0.128827
0.115848
0.10367
0.0922552
0.0815653
0.0715653
0.0622217
0.0535037
0.045383
0.0378347
0.0308364
0.0245567
0.0187765
0.0133251
0.00839685
0.00401104
0.00237699
0.00169499
0.0011923
0.00082592
0.000562253
0.000375382
0.000245352
0.000156881
9.83932e-05
6.12731e-05
3.93074e-05
2.81777e-05
2.12912e-05
1.55871e-05
1.08336e-05
7.07935e-06
4.32376e-06
2.46726e-06
1.32325e-06
6.73575e-07
3.29015e-07
1.56734e-07
7.31771e-08
3.36009e-08
1.52122e-08
6.80392e-09
3.01083e-09
1.31916e-09
5.71863e-10
2.44373e-10
1.01829e-10
4.01814e-11
1.37154e-11
2.44218e-12
0.999996
0.999982
0.99996
0.999922
0.999859
0.999756
0.999588
0.999316
0.998882
0.9982
0.997143
0.995536
0.993145
0.98967
0.984751
0.97799
0.968985
0.957384
0.942931
0.925503
0.905124
0.881947
0.856233
0.828308
0.79854
0.767306
0.73498
0.701915
0.66844
0.63485
0.601409
0.568346
0.535855
0.504098
0.473208
0.443287
0.414415
0.386648
0.360028
0.334577
0.310303
0.287202
0.265261
0.244459
0.224768
0.206157
0.188588
0.172025
0.156426
0.141752
0.12796
0.115011
0.102864
0.0914794
0.0808207
0.0708519
0.0615397
0.0528532
0.0447644
0.037249
0.0302867
0.0240282
0.0182984
0.0128858
0.00799185
0.00366545
0.00232515
0.00165927
0.00116914
0.000811697
0.000554011
0.000370941
0.000243203
0.000156045
9.82698e-05
6.15227e-05
3.97586e-05
2.86926e-05
2.16102e-05
1.57262e-05
1.08586e-05
7.04808e-06
4.2751e-06
2.42388e-06
1.29279e-06
6.55046e-07
3.18968e-07
1.51555e-07
7.06042e-08
3.2358e-08
1.46254e-08
6.532e-09
2.88685e-09
1.26343e-09
5.47165e-10
2.33617e-10
9.72742e-11
3.83609e-11
1.30889e-11
2.33123e-12
0.999996
0.999982
0.99996
0.999922
0.999859
0.999756
0.999588
0.999315
0.998881
0.998197
0.997139
0.99553
0.993135
0.989654
0.984726
0.977952
0.96893
0.957308
0.942828
0.925369
0.904954
0.881739
0.855983
0.828015
0.798203
0.766925
0.734555
0.701448
0.667934
0.634308
0.600834
0.56774
0.535223
0.503445
0.472536
0.4426
0.413714
0.385939
0.359314
0.333862
0.309589
0.286493
0.264559
0.243766
0.224087
0.205489
0.187935
0.171389
0.155808
0.141153
0.127381
0.114453
0.102327
0.0909655
0.0803297
0.0703844
0.061096
0.0524335
0.0443688
0.0368773
0.0299385
0.0237212
0.0180199
0.0126416
0.00778913
0.00352905
0.00232667
0.00165954
0.00116974
0.000812921
0.000555697
0.000372819
0.000245047
0.000157702
9.96694e-05
6.2662e-05
4.0679e-05
2.9403e-05
2.20338e-05
1.59357e-05
1.09356e-05
7.05477e-06
4.25472e-06
2.39969e-06
1.2741e-06
6.43179e-07
3.12412e-07
1.48143e-07
6.88993e-08
3.15316e-08
1.42342e-08
6.35035e-09
2.80386e-09
1.22605e-09
5.30569e-10
2.26377e-10
9.42045e-11
3.71328e-11
1.26661e-11
2.25637e-12
0.999996
0.999982
0.99996
0.999922
0.999859
0.999756
0.999587
0.999315
0.99888
0.998196
0.997137
0.995527
0.993131
0.989646
0.984715
0.977935
0.968906
0.957273
0.942781
0.925307
0.904876
0.881641
0.855865
0.827875
0.79804
0.76674
0.734348
0.70122
0.667685
0.63404
0.600549
0.567441
0.534911
0.503121
0.472202
0.442257
0.413365
0.385585
0.358957
0.333503
0.309231
0.286137
0.264206
0.243418
0.223744
0.205153
0.187607
0.171068
0.155497
0.140851
0.12709
0.114172
0.102057
0.0907069
0.0800829
0.0701498
0.0608741
0.0522249
0.0441741
0.0366968
0.0297718
0.0235838
0.0178987
0.0125396
0.00771013
0.00348363
0.00233828
0.00166851
0.00117683
0.000818639
0.000560337
0.000376558
0.000248005
0.000159989
0.000101392
6.39265e-05
4.15814e-05
2.9999e-05
2.2371e-05
1.61028e-05
1.10029e-05
7.07023e-06
4.24872e-06
2.38877e-06
1.26488e-06
6.37097e-07
3.0901e-07
1.46367e-07
6.80131e-08
3.11031e-08
1.40318e-08
6.25658e-09
2.76105e-09
1.20676e-09
5.21997e-10
2.22631e-10
9.26125e-11
3.64946e-11
1.24461e-11
2.21738e-12
0.999996
0.999982
0.99996
0.999922
0.999859
0.999756
0.999587
0.999315
0.99888
0.998196
0.997137
0.995527
0.993131
0.989646
0.984715
0.977935
0.968905
0.957273
0.94278
0.925306
0.904874
0.88164
0.855863
0.827873
0.798038
0.766737
0.734345
0.701217
0.667682
0.634036
0.600545
0.567437
0.534906
0.503116
0.472197
0.442252
0.41336
0.38558
0.358952
0.333498
0.309226
0.286131
0.264201
0.243413
0.223739
0.205148
0.187602
0.171064
0.155493
0.140847
0.127086
0.114169
0.102054
0.0907039
0.0800802
0.0701474
0.060872
0.0522231
0.0441726
0.0366957
0.0297709
0.0235833
0.0178983
0.0125386
0.00770854
0.0034831
0.00233823
0.00166787
0.00117597
0.000817817
0.000559695
0.000376118
0.000247736
0.000159841
0.000101319
6.38959e-05
4.15715e-05
2.9997e-05
2.23703e-05
1.61019e-05
1.10017e-05
7.06907e-06
4.24782e-06
2.38819e-06
1.26455e-06
6.36939e-07
3.08942e-07
1.46339e-07
6.80015e-08
3.10983e-08
1.40297e-08
6.2555e-09
2.76048e-09
1.20645e-09
5.21824e-10
2.22539e-10
9.25658e-11
3.64732e-11
1.24381e-11
2.21596e-12
0.999996
0.999982
0.99996
0.999922
0.999859
0.999756
0.999588
0.999315
0.998881
0.998197
0.997139
0.99553
0.993135
0.989653
0.984725
0.977951
0.968929
0.957306
0.942826
0.925366
0.904951
0.881735
0.855978
0.828009
0.798196
0.766917
0.734546
0.701439
0.667923
0.634296
0.600822
0.567728
0.53521
0.503431
0.472521
0.442585
0.413699
0.385924
0.359299
0.333846
0.309574
0.286477
0.264544
0.243751
0.224072
0.205474
0.187921
0.171374
0.155794
0.141139
0.127368
0.11444
0.102315
0.0909539
0.0803188
0.0703744
0.0610871
0.0524261
0.0443631
0.0368732
0.0299344
0.0237212
0.0180199
0.0126394
0.00778495
0.00352778
0.00232736
0.00165855
0.00116792
0.000811035
0.000554164
0.000371751
0.00024439
0.000157341
9.94948e-05
6.25903e-05
4.06569e-05
2.93988e-05
2.20322e-05
1.59331e-05
1.09321e-05
7.05122e-06
4.25186e-06
2.39779e-06
1.27296e-06
6.42564e-07
3.12109e-07
1.48001e-07
6.8835e-08
3.15026e-08
1.42209e-08
6.34416e-09
2.80089e-09
1.2246e-09
5.29852e-10
2.26026e-10
9.40376e-11
3.70596e-11
1.26394e-11
2.25158e-12
0.999996
0.999982
0.99996
0.999922
0.999859
0.999756
0.999588
0.999316
0.998882
0.9982
0.997143
0.995536
0.993145
0.98967
0.984751
0.977989
0.968983
0.957381
0.942927
0.925498
0.905117
0.881939
0.856223
0.828297
0.798527
0.767292
0.734964
0.701898
0.668422
0.634831
0.601389
0.568324
0.535832
0.504074
0.473183
0.443262
0.414389
0.386622
0.360002
0.334551
0.310277
0.287176
0.265236
0.244434
0.224744
0.206133
0.188565
0.172002
0.156404
0.14173
0.12794
0.114991
0.102845
0.0914616
0.080804
0.0708366
0.0615258
0.0528407
0.0447533
0.0372386
0.0302754
0.02402
0.0182897
0.0128751
0.00798019
0.00366043
0.00232633
0.00165898
0.00116778
0.000809996
0.0005525
0.000369826
0.000242484
0.000155633
9.80579e-05
6.1425e-05
3.97211e-05
2.86807e-05
2.16027e-05
1.57185e-05
1.08507e-05
7.04107e-06
4.27007e-06
2.4205e-06
1.29079e-06
6.53989e-07
3.18448e-07
1.5131e-07
7.04914e-08
3.23064e-08
1.46016e-08
6.52095e-09
2.88163e-09
1.26093e-09
5.45965e-10
2.33047e-10
9.70118e-11
3.82488e-11
1.30489e-11
2.32415e-12
0.999996
0.999983
0.99996
0.999922
0.99986
0.999757
0.999589
0.999317
0.998885
0.998204
0.997149
0.995547
0.993163
0.989698
0.984793
0.97805
0.969071
0.957502
0.943087
0.925705
0.905376
0.882255
0.8566
0.828737
0.799031
0.76786
0.735595
0.702589
0.66917
0.635632
0.602239
0.569218
0.536764
0.505038
0.474175
0.444276
0.41542
0.387665
0.361052
0.335603
0.311327
0.28822
0.26627
0.245455
0.225748
0.207117
0.189528
0.172941
0.157318
0.142617
0.128798
0.11582
0.103643
0.0922292
0.0815404
0.0715414
0.062199
0.0534822
0.0453628
0.0378155
0.0308183
0.0245403
0.0187608
0.0133093
0.00838108
0.00400016
0.00237711
0.00169498
0.00119175
0.000825065
0.000561411
0.000374724
0.000244915
0.000156629
9.82658e-05
6.12205e-05
3.92941e-05
2.81806e-05
2.12902e-05
1.55804e-05
1.08243e-05
7.07101e-06
4.317e-06
2.46272e-06
1.32056e-06
6.72115e-07
3.28277e-07
1.56378e-07
7.30102e-08
3.35235e-08
1.51766e-08
6.78752e-09
3.00329e-09
1.31568e-09
5.70265e-10
2.43648e-10
1.0151e-10
4.00502e-11
1.36699e-11
2.4343e-12
0.999996
0.999983
0.99996
0.999922
0.99986
0.999757
0.99959
0.999319
0.998888
0.998209
0.997159
0.995563
0.993188
0.989737
0.984851
0.978136
0.969192
0.957667
0.943306
0.925985
0.905726
0.88268
0.857105
0.829324
0.799703
0.768615
0.736433
0.703506
0.670162
0.636694
0.603365
0.570401
0.537997
0.506316
0.475489
0.44562
0.416786
0.389047
0.362443
0.336998
0.312719
0.289605
0.267642
0.246809
0.227081
0.208426
0.190808
0.174191
0.158534
0.143798
0.129942
0.116925
0.104709
0.0932544
0.0825248
0.0724851
0.0631028
0.0543478
0.0461938
0.0386175
0.0316024
0.0253268
0.0193793
0.013949
0.00904442
0.00467951
0.00252371
0.00178908
0.00125157
0.000862573
0.000584513
0.000388613
0.000252991
0.000161106
0.000100565
6.22241e-05
3.95302e-05
2.79858e-05
2.11472e-05
1.55567e-05
1.08772e-05
7.15765e-06
4.4043e-06
2.53127e-06
1.36613e-06
6.99052e-07
3.42639e-07
1.63699e-07
7.66127e-08
3.52498e-08
1.59864e-08
7.16088e-09
3.1729e-09
1.39174e-09
6.0393e-10
2.58307e-10
1.07721e-10
4.25357e-11
1.45265e-11
2.58628e-12
0.999996
0.999983
0.99996
0.999923
0.99986
0.999758
0.999591
0.999322
0.998892
0.998217
0.997172
0.995584
0.993221
0.989786
0.984926
0.978245
0.969345
0.957876
0.943581
0.926337
0.906163
0.883211
0.857733
0.830054
0.800536
0.769551
0.737469
0.70464
0.671388
0.638007
0.604757
0.571865
0.539524
0.507897
0.477116
0.447284
0.418479
0.39076
0.364169
0.338729
0.314448
0.291325
0.269347
0.248495
0.228742
0.210057
0.192405
0.17575
0.160053
0.145273
0.131372
0.118308
0.106043
0.0945387
0.0837585
0.0736676
0.0642337
0.055427
0.047221
0.0395935
0.03254
0.0262242
0.0202493
0.0148033
0.00990402
0.00557614
0.00273246
0.00192178
0.0013357
0.000915633
0.000617692
0.000409101
0.000265416
0.000168439
0.000104703
6.4354e-05
4.03625e-05
2.79416e-05
2.11002e-05
1.56221e-05
1.10097e-05
7.31005e-06
4.53997e-06
2.63238e-06
1.4316e-06
7.37083e-07
3.63007e-07
1.73946e-07
8.16055e-08
3.76228e-08
1.70921e-08
7.66762e-09
3.40193e-09
1.49397e-09
6.49003e-10
2.77867e-10
1.15986e-10
4.58369e-11
1.56628e-11
2.78785e-12
0.999996
0.999983
0.99996
0.999923
0.999861
0.999759
0.999593
0.999325
0.998898
0.998226
0.997187
0.995609
0.99326
0.989847
0.985016
0.978375
0.969528
0.958124
0.943908
0.926755
0.906682
0.883839
0.858477
0.830917
0.80152
0.770656
0.738693
0.705979
0.672837
0.639558
0.606403
0.573596
0.541331
0.50977
0.479044
0.449257
0.420488
0.392796
0.366221
0.340789
0.316508
0.293376
0.271382
0.250507
0.230725
0.212006
0.194315
0.177617
0.161872
0.147042
0.133086
0.119966
0.107642
0.0960774
0.085235
0.0750805
0.0655812
0.056707
0.0484307
0.0407283
0.0335807
0.0271662
0.0212616
0.0157195
0.0107438
0.00635451
0.00290238
0.00204362
0.00142061
0.000973815
0.000656791
0.000434797
0.000281874
0.000178653
0.000110771
6.76976e-05
4.1897e-05
2.82117e-05
2.12081e-05
1.58099e-05
1.12445e-05
7.54273e-06
4.73504e-06
2.77387e-06
1.52206e-06
7.89247e-07
3.90814e-07
1.87872e-07
8.8357e-08
4.08159e-08
1.85726e-08
8.34293e-09
3.70576e-09
1.62903e-09
7.08317e-10
3.03519e-10
1.26795e-10
5.0144e-11
1.71433e-11
3.05042e-12
0.999996
0.999983
0.99996
0.999923
0.999862
0.99976
0.999595
0.999329
0.998905
0.998237
0.997205
0.995637
0.993305
0.989916
0.98512
0.978525
0.969738
0.958409
0.944283
0.927233
0.907275
0.884556
0.859325
0.831901
0.802642
0.771916
0.740089
0.707507
0.674491
0.641331
0.608285
0.575578
0.543402
0.511919
0.481259
0.451527
0.422802
0.395142
0.368589
0.343168
0.318889
0.29575
0.27374
0.252842
0.233029
0.214272
0.196538
0.179791
0.163992
0.149105
0.135088
0.121904
0.109514
0.09788
0.0869671
0.0767405
0.067168
0.0582196
0.0498684
0.0420906
0.0348667
0.0282658
0.0222825
0.0166354
0.011523
0.00695763
0.00306444
0.00216167
0.00150365
0.0010322
0.000697511
0.000462765
0.00030066
0.000190904
0.000118438
7.21912e-05
4.41839e-05
2.89363e-05
2.15355e-05
1.61667e-05
1.16113e-05
7.87627e-06
5.00376e-06
2.9655e-06
1.64377e-06
8.59243e-07
4.28041e-07
2.06495e-07
9.73616e-08
4.50586e-08
2.05321e-08
9.23335e-09
4.10489e-09
1.80581e-09
7.85696e-10
3.36885e-10
1.40818e-10
5.57218e-11
1.90582e-11
3.39003e-12
0.999996
0.999983
0.999961
0.999924
0.999862
0.999762
0.999598
0.999333
0.998912
0.99825
0.997225
0.99567
0.993356
0.989994
0.985235
0.978692
0.969971
0.958725
0.944698
0.927762
0.907931
0.885349
0.860264
0.832991
0.803884
0.773313
0.741638
0.709204
0.67633
0.643304
0.610383
0.57779
0.545717
0.514324
0.483742
0.454075
0.425402
0.397783
0.371258
0.345854
0.32158
0.298436
0.276412
0.25549
0.235645
0.216849
0.199069
0.182268
0.166412
0.151461
0.137376
0.12412
0.111655
0.0999439
0.088951
0.0786423
0.0689861
0.0599528
0.0515153
0.0436502
0.0363377
0.0295848
0.0235028
0.0177299
0.0124555
0.00767565
0.00344423
0.00228263
0.00160509
0.00110993
0.000753916
0.000502116
0.00032722
0.000208258
0.000129363
7.87202e-05
4.77298e-05
3.04315e-05
2.22114e-05
1.67551e-05
1.21502e-05
8.33688e-06
5.36361e-06
3.21902e-06
1.80437e-06
9.51651e-07
4.77211e-07
2.31079e-07
1.09243e-07
5.06521e-08
2.31086e-08
1.04006e-08
4.62662e-09
2.03626e-09
8.86309e-10
3.80172e-10
1.58979e-10
6.29358e-11
2.15333e-11
3.82905e-12
0.999996
0.999983
0.999961
0.999924
0.999863
0.999763
0.999601
0.999338
0.99892
0.998263
0.997247
0.995705
0.993411
0.990078
0.98536
0.978871
0.970223
0.959066
0.945146
0.928333
0.908639
0.886205
0.861277
0.834167
0.805228
0.774825
0.743316
0.711045
0.678328
0.645452
0.61267
0.580206
0.54825
0.516961