/*--------------------------------*- C++ -*----------------------------------*\
  =========                 |
  \\      /  F ield         | OpenFOAM: The Open Source CFD Toolbox
   \\    /   O peration     | Website:  https://openfoam.org
    \\  /    A nd           | Version:  8
     \\/     M anipulation  |
\*---------------------------------------------------------------------------*/
FoamFile
{
    version     2.0;
    format      ascii;
    class       volScalarField;
    location    "120/fluid";
    object      CO2;
}
// * * * * * * * * * * * * * * * * * * * * * * * * * * * * * * * * * * * * * //

dimensions      [0 0 0 0 0 0 0];

internalField   nonuniform List<scalar> 
4000
(
4.17831e-07
1.82397e-06
4.17993e-06
8.10884e-06
1.46257e-05
2.53668e-05
4.29375e-05
7.14247e-05
0.000117126
0.000189542
0.000302633
0.00047628
0.000737713
0.00112248
0.00167434
0.0024433
0.00348147
0.00483698
0.00654731
0.0086338
0.0110967
0.0139213
0.0170783
0.0205281
0.0242251
0.0281213
0.0321747
0.0363416
0.040582
0.0448601
0.0491442
0.053407
0.0576251
0.0617787
0.0658515
0.0698303
0.0737046
0.0774665
0.0811099
0.0846305
0.0880263
0.0912966
0.0944417
0.0974625
0.100361
0.103138
0.105797
0.108341
0.110771
0.113091
0.115303
0.117409
0.119412
0.121312
0.12311
0.124806
0.1264
0.127889
0.129269
0.130534
0.131675
0.132679
0.133531
0.134206
0.134672
0.134886
0.134795
0.134316
0.133334
0.131698
0.127586
0.117763
0.107785
0.0977905
0.0878898
0.0781753
0.068726
0.0596121
0.050899
0.0426505
0.0349326
0.0278368
0.021393
0.0157238
0.0109234
0.00707934
0.00423139
0.00232017
0.0011717
0.00055414
0.00025181
0.000111283
4.82255e-05
2.06037e-05
8.70087e-06
3.62681e-06
1.47884e-06
5.73715e-07
1.93581e-07
3.41003e-08
4.22302e-07
1.84424e-06
4.22961e-06
8.21377e-06
1.48328e-05
2.57577e-05
4.36481e-05
7.2671e-05
0.000119233
0.000192968
0.000307979
0.00048426
0.000749076
0.00113787
0.0016941
0.00246726
0.0035088
0.00486608
0.00657591
0.00865934
0.0111219
0.0139481
0.0171088
0.0205652
0.0242734
0.0281883
0.0322596
0.0364445
0.0407029
0.0449989
0.0493004
0.0535798
0.0578132
0.0619806
0.0660656
0.0700548
0.0739379
0.0777067
0.0813553
0.0848795
0.0882776
0.091549
0.094694
0.0977137
0.10061
0.103385
0.106041
0.10858
0.111006
0.113321
0.115528
0.117628
0.119624
0.121518
0.12331
0.124999
0.126586
0.128066
0.129438
0.130694
0.131825
0.13282
0.133662
0.13433
0.134794
0.135014
0.134946
0.134516
0.133629
0.132133
0.126091
0.116098
0.105984
0.0958803
0.0858914
0.0761057
0.0666002
0.0574454
0.0487091
0.0404597
0.0327893
0.0257356
0.0194151
0.0139318
0.00938913
0.0058679
0.00337247
0.00178369
0.000877164
0.000411197
0.000187037
8.32842e-05
3.65189e-05
1.58237e-05
6.78385e-06
2.87084e-06
1.18751e-06
4.66509e-07
1.58886e-07
2.81237e-08
4.29813e-07
1.8777e-06
4.30911e-06
8.3749e-06
1.51366e-05
2.63053e-05
4.46016e-05
7.42801e-05
0.000121867
0.000197149
0.000314408
0.000493829
0.000762852
0.00115705
0.00171991
0.00250087
0.00355124
0.00491824
0.00663867
0.00873366
0.0112063
0.0140426
0.017214
0.0206825
0.024404
0.0283323
0.0324213
0.0366268
0.0409082
0.0452285
0.049555
0.0538591
0.0581164
0.0623064
0.0664123
0.0704204
0.07432
0.0781029
0.0817631
0.0852966
0.0887016
0.0919778
0.0951257
0.0981465
0.101042
0.103815
0.106467
0.109002
0.111422
0.11373
0.115928
0.11802
0.120007
0.12189
0.12367
0.125348
0.126921
0.128387
0.129742
0.130978
0.132088
0.133057
0.133869
0.134501
0.134922
0.1351
0.135002
0.134578
0.133798
0.13267
0.123564
0.113297
0.10301
0.0927978
0.0827485
0.0729418
0.0634517
0.0543493
0.0457048
0.0375908
0.0301241
0.0233104
0.0172944
0.0121733
0.00803417
0.00492051
0.00278285
0.00145837
0.000715485
0.000335948
0.000153149
6.83107e-05
2.9972e-05
1.29815e-05
5.55887e-06
2.34902e-06
9.70399e-07
3.80887e-07
1.29673e-07
2.29522e-08
4.37016e-07
1.90928e-06
4.38215e-06
8.51804e-06
1.53968e-05
2.67577e-05
4.53631e-05
7.55277e-05
0.000123862
0.000200263
0.000319162
0.000500921
0.000773187
0.00117175
0.0017403
0.00252846
0.00358764
0.00496518
0.0066979
0.00880696
0.0112955
0.0141493
0.0173401
0.0208296
0.0245738
0.0285261
0.0326406
0.0368728
0.0411818
0.0455303
0.0498851
0.0542171
0.0585015
0.0627173
0.0668472
0.0708772
0.0747963
0.0785961
0.0822705
0.0858157
0.08923
0.092513
0.0956653
0.0986884
0.101584
0.104355
0.107004
0.109533
0.111947
0.114247
0.116436
0.118517
0.120492
0.122362
0.124128
0.125789
0.127344
0.12879
0.130121
0.131331
0.132407
0.133335
0.134093
0.134652
0.134968
0.134995
0.134652
0.133832
0.132379
0.129847
0.119776
0.109517
0.099226
0.0890232
0.0790088
0.069269
0.0598821
0.050922
0.0424621
0.0345787
0.0273616
0.0208676
0.0152117
0.0104834
0.00675332
0.00403163
0.00222629
0.00114453
0.000554381
0.000259175
0.000118086
5.2774e-05
2.32361e-05
1.01076e-05
4.34815e-06
1.84549e-06
7.65307e-07
3.0129e-07
1.02779e-07
1.82099e-08
4.43894e-07
1.93941e-06
4.45168e-06
8.65418e-06
1.56447e-05
2.7191e-05
4.60994e-05
7.6751e-05
0.000125852
0.000203437
0.000324115
0.000508479
0.000784446
0.0011881
0.00176342
0.00256028
0.00363025
0.00502074
0.00676855
0.00889481
0.0114026
0.0142776
0.0174914
0.0210058
0.0247765
0.0287568
0.0329004
0.0371628
0.0415024
0.0458817
0.050267
0.0546288
0.0589418
0.0631848
0.0673399
0.0713929
0.0753325
0.0791501
0.0828396
0.0863974
0.0898218
0.0931124
0.0962698
0.0992956
0.102192
0.104961
0.107606
0.11013
0.112536
0.114827
0.117006
0.119076
0.121037
0.122892
0.124641
0.126283
0.127817
0.129239
0.130543
0.13172
0.132758
0.133641
0.134344
0.134836
0.135071
0.135
0.134539
0.133569
0.131911
0.125915
0.115783
0.10549
0.0951979
0.0850317
0.0750924
0.0654667
0.0562329
0.0474646
0.039235
0.0316453
0.0247187
0.0185747
0.0133017
0.0089794
0.00565545
0.00330277
0.00179052
0.000908677
0.000437654
0.000204202
9.30326e-05
4.16124e-05
1.83437e-05
7.98964e-06
3.44116e-06
1.46206e-06
6.06803e-07
2.39021e-07
8.15601e-08
1.44528e-08
4.50282e-07
1.96734e-06
4.51595e-06
8.77958e-06
1.58723e-05
2.75877e-05
4.67726e-05
7.78693e-05
0.000127675
0.000206355
0.000328699
0.000515542
0.000795105
0.00120383
0.00178611
0.00259218
0.00367394
0.00507899
0.00684418
0.0089905
0.0115208
0.0144206
0.0176611
0.0212039
0.0250042
0.0290154
0.0331905
0.0374849
0.0418566
0.0462676
0.050684
0.0550759
0.0594176
0.0636874
0.0678674
0.0719429
0.0759025
0.0797374
0.0834416
0.0870116
0.0904457
0.0937435
0.0969058
0.099934
0.10283
0.105598
0.108239
0.110757
0.113155
0.115436
0.117604
0.11966
0.121607
0.123445
0.125176
0.126797
0.128307
0.129702
0.130975
0.132115
0.133109
0.133939
0.134577
0.134988
0.135133
0.134964
0.134421
0.133452
0.132064
0.122253
0.111894
0.101503
0.0911966
0.0810787
0.0712384
0.0617556
0.0527045
0.044156
0.0361811
0.0288873
0.0222812
0.016491
0.0115967
0.00766532
0.0047196
0.00269655
0.00143512
0.000718496
0.000343924
0.000160012
7.28508e-05
3.26088e-05
1.43973e-05
6.28341e-06
2.7121e-06
1.15463e-06
4.80018e-07
1.89309e-07
6.4642e-08
1.14593e-08
4.5641e-07
1.99415e-06
4.57773e-06
8.90042e-06
1.60923e-05
2.79731e-05
4.74306e-05
7.89705e-05
0.000129486
0.00020928
0.000333338
0.000522757
0.000806094
0.00122019
0.00180987
0.00262579
0.0037202
0.0051409
0.00692478
0.0090927
0.0116473
0.0145736
0.0178427
0.0214156
0.0252473
0.0292907
0.0334985
0.0378256
0.0422299
0.0466728
0.0511201
0.0555415
0.059911
0.0642067
0.0684104
0.0725071
0.0764852
0.0803361
0.0840539
0.087635
0.0910779
0.0943821
0.0975483
0.100578
0.103474
0.106239
0.108875
0.111386
0.113776
0.116047
0.118202
0.120245
0.122176
0.123996
0.125707
0.127306
0.128791
0.130157
0.131397
0.132498
0.133445
0.134216
0.134778
0.135082
0.135079
0.134671
0.133717
0.131992
0.128393
0.118232
0.107882
0.0975178
0.0872728
0.0772531
0.0675477
0.0582354
0.049389
0.0410786
0.0333756
0.0263467
0.0200708
0.0146319
0.0101052
0.00654413
0.00394459
0.00221027
0.00115824
0.000573708
0.000273391
0.000126944
5.77679e-05
2.58682e-05
1.14317e-05
4.99502e-06
2.15866e-06
9.20055e-07
3.82837e-07
1.51068e-07
5.15978e-08
9.149e-09
4.62331e-07
2.02007e-06
4.63747e-06
9.01733e-06
1.63054e-05
2.83469e-05
4.80699e-05
8.00432e-05
0.000131255
0.000212149
0.00033791
0.000529907
0.000817047
0.0012366
0.00183386
0.00265994
0.00376749
0.00520453
0.00700798
0.00919853
0.0117784
0.0147325
0.0180312
0.021635
0.0254988
0.0295747
0.0338154
0.0381752
0.0426115
0.0470856
0.0515627
0.0560123
0.0604083
0.0647283
0.068954
0.0730702
0.0770651
0.0809303
0.0846601
0.088251
0.0917013
0.0950106
0.0981796
0.10121
0.104104
0.106865
0.109496
0.112
0.114381
0.116641
0.118783
0.120811
0.122725
0.124528
0.126218
0.127793
0.129252
0.130588
0.131792
0.132853
0.133754
0.134471
0.134974
0.135219
0.135171
0.134759
0.133906
0.132517
0.124901
0.114561
0.104142
0.0937838
0.083599
0.0736836
0.0641199
0.0549823
0.0463398
0.0382598
0.0308404
0.0240886
0.0181198
0.01301
0.00882582
0.00560355
0.00331092
0.00182255
0.000941947
0.000462138
0.000219336
0.000101649
4.62312e-05
2.07084e-05
9.15906e-06
4.00643e-06
1.73347e-06
7.3963e-07
3.08019e-07
1.21607e-07
4.15444e-08
7.36839e-09
4.68091e-07
2.04528e-06
4.69564e-06
9.13129e-06
1.65135e-05
2.87126e-05
4.8697e-05
8.10984e-05
0.000133001
0.00021499
0.000342454
0.000537039
0.000828011
0.00125308
0.00185801
0.0026944
0.00381529
0.00526891
0.0070922
0.00930566
0.0119112
0.0148931
0.0182215
0.0218563
0.0257519
0.0298601
0.034133
0.0385245
0.0429918
0.0474957
0.0520012
0.0564775
0.0608981
0.0652406
0.0694862
0.0736199
0.0776299
0.0815077
0.0852479
0.088847
0.0923032
0.0956163
0.098787
0.101817
0.104709
0.107466
0.11009
0.112586
0.114957
0.117205
0.119335
0.121347
0.123245
0.125028
0.126697
0.128248
0.129679
0.130983
0.132149
0.133164
0.134007
0.134652
0.135058
0.135184
0.134974
0.134351
0.133229
0.13155
0.121411
0.111028
0.100613
0.0903004
0.0802002
0.0704033
0.0609889
0.0520283
0.0435883
0.0357345
0.0285653
0.0220844
0.0164082
0.0116073
0.00773973
0.00482327
0.00279859
0.00151671
0.000774736
0.000377149
0.000178419
8.25538e-05
3.75254e-05
1.68105e-05
7.43887e-06
3.25634e-06
1.41003e-06
6.02046e-07
2.50846e-07
9.90591e-08
3.38429e-08
6.00397e-09
4.73665e-07
2.06969e-06
4.75195e-06
9.24168e-06
1.67152e-05
2.90674e-05
4.93063e-05
8.21254e-05
0.000134703
0.000217766
0.000346903
0.000544036
0.000838792
0.00126931
0.00188185
0.00272848
0.00386261
0.0053327
0.00717569
0.00941185
0.0120427
0.0150521
0.0184096
0.0220748
0.0260013
0.0301407
0.0344445
0.0388664
0.0433631
0.0478952
0.0524271
0.0569281
0.0613713
0.0657342
0.0699978
0.0741469
0.07817
0.0820588
0.0858079
0.0894137
0.0928745
0.0961901
0.0993614
0.10239
0.105279
0.10803
0.110648
0.113135
0.115496
0.117733
0.119849
0.121846
0.123727
0.125491
0.127139
0.128667
0.130071
0.131344
0.132474
0.133446
0.134236
0.134813
0.135122
0.135117
0.134697
0.13372
0.131971
0.128349
0.118131
0.107742
0.0973564
0.0871076
0.0771022
0.0674288
0.058164
0.0493771
0.0411338
0.0334998
0.0265382
0.0203188
0.0149182
0.010404
0.00682526
0.00418073
0.00238649
0.00127583
0.000645056
0.000312371
0.000147324
6.80563e-05
3.09141e-05
1.38476e-05
6.12958e-06
2.68454e-06
1.16308e-06
4.9684e-07
2.07075e-07
8.1781e-08
2.79387e-08
4.95792e-09
4.79007e-07
2.09308e-06
4.80595e-06
9.34757e-06
1.69088e-05
2.94084e-05
4.98924e-05
8.31145e-05
0.000136345
0.000220448
0.000351207
0.000550815
0.000849249
0.00128507
0.00190502
0.00276161
0.00390864
0.00539475
0.00725686
0.00951504
0.0121704
0.0152064
0.0185919
0.022286
0.0262421
0.0304111
0.0347442
0.0391947
0.0437189
0.048277
0.0528334
0.057357
0.0618207
0.0662018
0.0704814
0.0746441
0.0786785
0.0825767
0.0863332
0.0899443
0.0934086
0.0967257
0.0998965
0.102923
0.105808
0.108554
0.111164
0.113643
0.115993
0.118218
0.120321
0.122303
0.124167
0.125913
0.127539
0.129044
0.130422
0.131665
0.132763
0.133699
0.134452
0.13499
0.135265
0.135241
0.134834
0.133941
0.132414
0.125623
0.115273
0.104834
0.0944546
0.0842562
0.074336
0.0647762
0.0556492
0.0470212
0.0389559
0.0315313
0.0247797
0.0187922
0.0136396
0.00938387
0.00606283
0.00365581
0.0020569
0.00108677
0.000544748
0.000262699
0.000123591
5.70148e-05
2.58816e-05
1.15912e-05
5.13136e-06
2.24799e-06
9.7426e-07
4.16293e-07
1.73526e-07
6.85286e-08
2.34085e-08
4.15535e-09
4.84054e-07
2.11518e-06
4.85697e-06
9.44765e-06
1.70919e-05
2.9731e-05
5.04474e-05
8.40519e-05
0.000137903
0.000222994
0.000355298
0.000557264
0.000859205
0.0013001
0.00192711
0.00279322
0.00395254
0.00545392
0.00733425
0.00961335
0.012292
0.015353
0.018765
0.0224865
0.0264702
0.0306669
0.0350272
0.0395041
0.0440536
0.0486356
0.0532142
0.0577582
0.0622403
0.0666376
0.0709313
0.0751057
0.0791499
0.083056
0.0868185
0.0904338
0.0939005
0.0972181
0.100388
0.103412
0.106292
0.109032
0.111635
0.114105
0.116445
0.118659
0.120748
0.122716
0.124564
0.126291
0.127896
0.129377
0.130728
0.13194
0.133003
0.133898
0.134604
0.135092
0.135321
0.135262
0.134856
0.13405
0.132816
0.123243
0.112739
0.10224
0.091866
0.0817175
0.0718798
0.0624278
0.0534295
0.0449479
0.0370452
0.0298117
0.023253
0.0174763
0.012548
0.00852439
0.00543121
0.00322926
0.00179415
0.000938465
0.000467001
0.000224425
0.000105364
4.85475e-05
2.20243e-05
9.8614e-06
4.3657e-06
1.91287e-06
8.2919e-07
3.5436e-07
1.47715e-07
5.833e-08
1.99221e-08
3.5378e-09
4.88734e-07
2.13567e-06
4.90429e-06
9.54052e-06
1.72619e-05
3.00306e-05
5.09632e-05
8.49237e-05
0.000139353
0.000225366
0.000359111
0.00056328
0.000868499
0.00131412
0.00194774
0.00282274
0.00399355
0.00550919
0.0074065
0.0097051
0.0124053
0.0154897
0.0189261
0.0226728
0.0266821
0.0309041
0.0352893
0.0397903
0.0443626
0.0489662
0.0535648
0.0581268
0.0626252
0.0670367
0.0713424
0.075527
0.0795796
0.0834924
0.0872598
0.0908783
0.0943465
0.0976641
0.100832
0.103853
0.106729
0.109463
0.112059
0.114521
0.116851
0.119053
0.121131
0.123084
0.124916
0.126625
0.12821
0.129668
0.130991
0.13217
0.133191
0.134035
0.134673
0.135065
0.135169
0.134921
0.134231
0.132979
0.131007
0.120732
0.110284
0.0998362
0.0895238
0.0794518
0.0697068
0.0603633
0.0514879
0.0431428
0.0353891
0.0283099
0.0219281
0.0163465
0.0116219
0.00780529
0.00491138
0.0028844
0.00158529
0.000822206
0.000406654
0.000194856
9.13162e-05
4.2029e-05
1.90553e-05
8.52951e-06
3.77575e-06
1.65445e-06
7.17232e-07
3.0653e-07
1.27774e-07
5.04487e-08
1.72279e-08
3.06073e-09
4.92978e-07
2.15426e-06
4.94721e-06
9.62476e-06
1.74161e-05
3.03027e-05
5.14318e-05
8.57162e-05
0.000140671
0.000227524
0.000362583
0.000568761
0.000876971
0.00132692
0.00196657
0.00284968
0.00403098
0.00555963
0.00747243
0.00978877
0.0125087
0.0156142
0.0190729
0.0228424
0.0268747
0.0311195
0.035527
0.0400495
0.0446422
0.0492648
0.053881
0.058459
0.0629714
0.0673953
0.0717113
0.0759046
0.0799642
0.0838825
0.0876538
0.0912748
0.0947439
0.098061
0.101227
0.104245
0.107116
0.109845
0.112434
0.114888
0.117209
0.119402
0.121467
0.123408
0.125226
0.126919
0.128486
0.129922
0.131221
0.13237
0.133355
0.134152
0.13473
0.135034
0.135025
0.134609
0.133667
0.132034
0.128905
0.118602
0.108163
0.0977496
0.0874913
0.0774903
0.0678316
0.0585879
0.0498247
0.0416029
0.0339823
0.0270208
0.0208014
0.0153906
0.0108487
0.00721245
0.00448872
0.00260814
0.00142026
0.000731348
0.000359851
0.000171998
8.04734e-05
3.69997e-05
1.6764e-05
7.50095e-06
3.31975e-06
1.4545e-06
6.30515e-07
2.69452e-07
1.12305e-07
4.43333e-08
1.51373e-08
2.69058e-09
4.96718e-07
2.17064e-06
4.98504e-06
9.69903e-06
1.75521e-05
3.05428e-05
5.18456e-05
8.64165e-05
0.000141837
0.000229434
0.000365659
0.000573619
0.000884484
0.00133826
0.00198328
0.0028736
0.00406423
0.00560443
0.00753099
0.00986309
0.0126005
0.0157247
0.019203
0.0229927
0.0270453
0.0313102
0.0357373
0.0402785
0.044889
0.0495282
0.0541595
0.0587512
0.0632758
0.06771
0.0720348
0.0762353
0.0803008
0.0842236
0.087998
0.0916207
0.0950903
0.0984067
0.101571
0.104586
0.107453
0.110176
0.11276
0.115206
0.11752
0.119703
0.121759
0.123689
0.125494
0.127175
0.128727
0.130148
0.13143
0.132561
0.133525
0.134299
0.13485
0.135126
0.135087
0.13464
0.133669
0.132009
0.127223
0.116872
0.106417
0.0960168
0.0857946
0.0758486
0.0662609
0.0571023
0.0484376
0.0403283
0.0328359
0.0260272
0.01994
0.0146439
0.0102299
0.00673697
0.00415163
0.00238983
0.00129111
0.00066079
0.000323696
0.000154376
7.21194e-05
3.3124e-05
1.4997e-05
6.7069e-06
2.96726e-06
1.29972e-06
5.63303e-07
2.40679e-07
1.00289e-07
3.95799e-08
1.35117e-08
2.40278e-09
4.99891e-07
2.18454e-06
5.01716e-06
9.76213e-06
1.76678e-05
3.0747e-05
5.21979e-05
8.70133e-05
0.000142832
0.000231065
0.000368287
0.000577773
0.000890915
0.00134799
0.0019976
0.00289413
0.00409276
0.0056429
0.00758129
0.00992695
0.0126793
0.0158197
0.0193149
0.0231218
0.0271917
0.0314738
0.0359176
0.0404747
0.0451003
0.0497533
0.0543974
0.0590005
0.0635352
0.0679781
0.0723102
0.0765165
0.0805868
0.0845131
0.0882899
0.0919139
0.0953836
0.0986991
0.101862
0.104873
0.107737
0.110456
0.113034
0.115474
0.11778
0.119956
0.122004
0.123925
0.125721
0.127392
0.128934
0.130345
0.131617
0.132739
0.133697
0.134469
0.135026
0.135323
0.135328
0.134965
0.134143
0.132748
0.126056
0.115571
0.105052
0.0946332
0.0844242
0.0745133
0.0649765
0.0558813
0.0472898
0.0392628
0.0318637
0.0251479
0.0191781
0.0140246
0.0097286
0.00635535
0.00388471
0.00221896
0.00119096
0.000606451
0.000295981
0.000140885
6.57244e-05
3.01553e-05
1.3642e-05
6.09719e-06
2.6962e-06
1.18051e-06
5.11451e-07
2.18449e-07
9.0994e-08
3.58991e-08
1.22523e-08
2.17975e-09
5.02438e-07
2.1957e-06
5.04298e-06
9.81295e-06
1.77611e-05
3.09122e-05
5.24832e-05
8.74974e-05
0.00014364
0.000232391
0.000370426
0.000581159
0.000896162
0.00135593
0.00200933
0.00291094
0.00411616
0.00567448
0.00762261
0.00997944
0.0127442
0.0158978
0.0194069
0.023228
0.0273122
0.0316083
0.0360656
0.0406357
0.0452734
0.0499378
0.0545921
0.0592044
0.063747
0.0681969
0.0725346
0.0767457
0.0808197
0.0847488
0.0885274
0.0921522
0.0956219
0.0989364
0.102097
0.105106
0.107967
0.110682
0.113255
0.11569
0.117991
0.12016
0.1222
0.124114
0.125903
0.127565
0.1291
0.130503
0.131767
0.132884
0.133839
0.134612
0.135179
0.135496
0.135539
0.135245
0.134545
0.133359
0.125119
0.114534
0.103966
0.0935352
0.0833386
0.0734587
0.0639674
0.0549294
0.0464051
0.0384528
0.0311229
0.0244731
0.0185838
0.0135201
0.00933806
0.00605981
0.00367875
0.00208813
0.00111478
0.000565256
0.00027521
0.000130754
6.09132e-05
2.79178e-05
1.26191e-05
5.63608e-06
2.49084e-06
1.09005e-06
4.72037e-07
2.01524e-07
8.39077e-08
3.309e-08
1.12904e-08
2.00938e-09
5.04318e-07
2.20393e-06
5.06198e-06
9.85029e-06
1.78297e-05
3.10338e-05
5.26942e-05
8.78568e-05
0.000144243
0.000233386
0.000372039
0.000583724
0.00090015
0.00136199
0.00201827
0.0029238
0.00413408
0.00569871
0.00765436
0.0100198
0.0127941
0.015958
0.0194778
0.0233099
0.027405
0.0317119
0.0361796
0.0407596
0.0454065
0.0500793
0.0547412
0.0593602
0.0639087
0.0683635
0.0727055
0.0769203
0.0809973
0.0849286
0.0887085
0.0923339
0.0958034
0.0991171
0.102276
0.105283
0.108141
0.110853
0.113422
0.115853
0.118148
0.120312
0.122347
0.124255
0.126036
0.127691
0.129218
0.130612
0.131869
0.132977
0.133923
0.134688
0.135246
0.135556
0.135591
0.135287
0.134571
0.133366
0.124248
0.113657
0.103096
0.0926817
0.0825112
0.0726647
0.0632121
0.0542146
0.0457314
0.0378194
0.0305416
0.0239562
0.0181341
0.0131413
0.00903331
0.00583946
0.00352639
0.00199167
0.00105885
0.000535125
0.000260046
0.000123369
5.74065e-05
2.62858e-05
1.18721e-05
5.29897e-06
2.34052e-06
1.02374e-06
4.43114e-07
1.89091e-07
7.86966e-08
3.10228e-08
1.05822e-08
1.88391e-09
5.05577e-07
2.20943e-06
5.07467e-06
9.87514e-06
1.78751e-05
3.11138e-05
5.28321e-05
8.8091e-05
0.000144635
0.000234033
0.000373088
0.000585395
0.000902759
0.00136596
0.00202418
0.00293233
0.00414605
0.00571495
0.00767574
0.0100471
0.012828
0.0159989
0.0195261
0.0233658
0.0274685
0.0317827
0.0362576
0.0408442
0.0454973
0.0501757
0.0548425
0.0594656
0.0640175
0.068475
0.07282
0.0770378
0.0811172
0.0850502
0.0888311
0.0924569
0.0959263
0.0992393
0.102397
0.105403
0.108258
0.110968
0.113534
0.115961
0.118253
0.120413
0.122443
0.124345
0.126121
0.127769
0.129288
0.130675
0.131921
0.133018
0.133951
0.1347
0.13524
0.135525
0.135528
0.135178
0.134394
0.133089
0.123546
0.112989
0.102455
0.092068
0.0819239
0.0721037
0.0626773
0.0537095
0.0452596
0.0373862
0.0301486
0.0236061
0.01783
0.0128857
0.00882807
0.00568412
0.00342122
0.00192579
0.00102078
0.000514649
0.000249763
0.000118373
5.50391e-05
2.5186e-05
1.13694e-05
5.07231e-06
2.23951e-06
9.79197e-07
4.23684e-07
1.80738e-07
7.51956e-08
2.9634e-08
1.01065e-08
1.79964e-09
5.06215e-07
2.21223e-06
5.08113e-06
9.88782e-06
1.78983e-05
3.11548e-05
5.29028e-05
8.82108e-05
0.000144834
0.00023436
0.000373616
0.000586232
0.000904059
0.00136794
0.00202711
0.00293655
0.00415196
0.00572298
0.00768632
0.0100606
0.0128448
0.0160193
0.0195502
0.0233937
0.0275002
0.0318182
0.0362966
0.0408867
0.0455429
0.0502239
0.054893
0.0595178
0.0640709
0.0685299
0.0728764
0.0770958
0.0811769
0.085111
0.0888926
0.0925187
0.095988
0.0993007
0.102458
0.105463
0.108317
0.111025
0.11359
0.116015
0.118305
0.120462
0.122489
0.124388
0.12616
0.127804
0.129319
0.130699
0.131938
0.133026
0.133949
0.134685
0.135208
0.135473
0.13545
0.135067
0.134238
0.132872
0.123163
0.112622
0.102105
0.0917353
0.0816086
0.0718063
0.0623987
0.0534497
0.0450192
0.0371662
0.02995
0.0234302
0.0176779
0.0127587
0.00872692
0.00560856
0.00336914
0.00189317
0.00100191
0.00050445
0.000244632
0.000115879
5.38572e-05
2.46369e-05
1.11183e-05
4.95897e-06
2.18891e-06
9.5683e-07
4.139e-07
1.76518e-07
7.34208e-08
2.89278e-08
9.86404e-09
1.75663e-09
5.06213e-07
2.21222e-06
5.08111e-06
9.88779e-06
1.78983e-05
3.11547e-05
5.29027e-05
8.82105e-05
0.000144834
0.000234359
0.000373614
0.000586228
0.000904052
0.00136793
0.00202709
0.00293652
0.0041519
0.0057229
0.00768619
0.0100605
0.0128446
0.016019
0.0195499
0.0233932
0.0274997
0.0318177
0.036296
0.040886
0.0455422
0.0502233
0.0548924
0.0595172
0.0640703
0.0685293
0.0728757
0.0770951
0.0811762
0.0851103
0.0888919
0.092518
0.0959872
0.0992999
0.102457
0.105462
0.108316
0.111024
0.113589
0.116014
0.118304
0.120461
0.122489
0.124388
0.12616
0.127804
0.129318
0.130698
0.131937
0.133024
0.133946
0.134682
0.135204
0.135468
0.135446
0.135063
0.134235
0.132867
0.123157
0.112617
0.102101
0.0917313
0.0816045
0.0718021
0.0623946
0.0534458
0.0450157
0.037163
0.0299472
0.0234276
0.0176758
0.012757
0.00872564
0.00560769
0.00336861
0.00189286
0.00100174
0.000504367
0.000244592
0.00011586
5.38482e-05
2.46324e-05
1.1116e-05
4.95778e-06
2.18828e-06
9.56493e-07
4.13721e-07
1.76426e-07
7.33757e-08
2.89075e-08
9.85651e-09
1.75526e-09
5.05573e-07
2.20942e-06
5.07463e-06
9.87507e-06
1.78749e-05
3.11136e-05
5.28317e-05
8.80902e-05
0.000144633
0.000234029
0.000373082
0.000585384
0.000902738
0.00136593
0.00202412
0.00293223
0.00414588
0.00571471
0.00767538
0.0100466
0.0128273
0.0159981
0.0195251
0.0233645
0.027467
0.0317811
0.0362558
0.0408424
0.0454955
0.0501738
0.0548406
0.0594638
0.0640156
0.0684731
0.0728181
0.0770358
0.0811151
0.085048
0.0888289
0.0924547
0.095924
0.099237
0.102395
0.1054
0.108256
0.110965
0.113532
0.115959
0.118251
0.120411
0.122441
0.124343
0.126119
0.127767
0.129286
0.130671
0.131917
0.133013
0.133944
0.134692
0.13523
0.135514
0.135516
0.135169
0.134387
0.133077
0.123528
0.112975
0.102443
0.0920558
0.0819115
0.0720913
0.0626652
0.053698
0.0452491
0.0373768
0.0301402
0.0235987
0.0178237
0.0128807
0.00882424
0.00568149
0.00341975
0.00192488
0.00102024
0.000514341
0.000249601
0.000118292
5.49995e-05
2.51667e-05
1.13599e-05
5.06759e-06
2.23715e-06
9.78008e-07
4.23087e-07
1.80442e-07
7.50548e-08
2.95719e-08
1.00837e-08
1.7955e-09
5.04314e-07
2.20391e-06
5.06194e-06
9.85022e-06
1.78295e-05
3.10335e-05
5.26935e-05
8.78555e-05
0.00014424
0.000233382
0.000372031
0.00058371
0.000900127
0.00136194
0.0020182
0.00292367
0.00413388
0.00569839
0.00765389
0.0100191
0.0127932
0.0159568
0.0194763
0.0233081
0.0274029
0.0317095
0.0361771
0.0407569
0.0454037
0.0500764
0.0547383
0.0593573
0.0639057
0.0683604
0.0727024
0.0769171
0.080994
0.0849251
0.088705
0.0923303
0.0957997
0.0991134
0.102273
0.105279
0.108137
0.110849
0.113418
0.115849
0.118145
0.120308
0.122343
0.124251
0.126032
0.127687
0.129213
0.130607
0.131863
0.132969
0.133914
0.134678
0.135235
0.135544
0.13558
0.135279
0.134565
0.133351
0.124219
0.113632
0.103073
0.0926601
0.0824902
0.0726442
0.0631924
0.054196
0.0457148
0.0378061
0.0305276
0.0239431
0.0181229
0.0131321
0.00902615
0.00583414
0.00352269
0.00198934
0.00105753
0.000534435
0.000259702
0.000123201
5.73257e-05
2.62471e-05
1.18535e-05
5.29001e-06
2.33618e-06
1.02164e-06
4.42095e-07
1.88605e-07
7.84727e-08
3.09269e-08
1.05477e-08
1.87772e-09
5.02428e-07
2.19566e-06
5.04288e-06
9.81275e-06
1.77607e-05
3.09115e-05
5.24822e-05
8.74958e-05
0.000143637
0.000232387
0.000370419
0.000581147
0.000896139
0.00135589
0.00200925
0.0029108
0.00411593
0.00567411
0.00762205
0.00997863
0.0127431
0.0158963
0.019405
0.0232258
0.0273096
0.0316053
0.0360623
0.0406322
0.0452697
0.0499339
0.0545881
0.0592004
0.063743
0.0681927
0.0725304
0.0767414
0.0808153
0.0847442
0.0885227
0.0921473
0.0956168
0.0989312
0.102092
0.105101
0.107961
0.110676
0.113249
0.115684
0.117985
0.120154
0.122194
0.124108
0.125897
0.127559
0.129093
0.130496
0.13176
0.132876
0.133831
0.134604
0.13517
0.135487
0.135531
0.135239
0.13454
0.133349
0.125081
0.114498
0.103932
0.0935028
0.0833071
0.0734277
0.0639371
0.0549
0.0463762
0.0384238
0.031099
0.024453
0.0185671
0.0135065
0.00932733
0.00605212
0.00367324
0.00208469
0.00111282
0.000564207
0.000274679
0.000130494
6.07886e-05
2.78587e-05
1.25912e-05
5.62302e-06
2.48474e-06
1.08721e-06
4.70723e-07
2.00925e-07
8.36427e-08
3.29805e-08
1.12521e-08
2.00262e-09
4.99883e-07
2.1845e-06
5.01708e-06
9.76199e-06
1.76675e-05
3.07467e-05
5.21974e-05
8.70126e-05
0.000142831
0.000231063
0.000368283
0.000577765
0.000890897
0.00134795
0.00199754
0.002894
0.00409254
0.00564254
0.00758072
0.00992611
0.0126781
0.0158181
0.0193128
0.0231193
0.0271888
0.0314704
0.0359137
0.0404705
0.0450957
0.0497486
0.0543925
0.0589955
0.0635301
0.067973
0.0723049
0.0765111
0.0805813
0.0845074
0.0882839
0.0919077
0.0953771
0.0986923
0.101855
0.104866
0.107729
0.110448
0.113026
0.115466
0.117772
0.119948
0.121995
0.123916
0.125712
0.127383
0.128926
0.130336
0.131608
0.132731
0.133688
0.13446
0.135018
0.135314
0.135318
0.134953
0.134132
0.132741
0.12601
0.115525
0.105007
0.0945908
0.0843836
0.0744749
0.0649403
0.0558473
0.0472581
0.0392332
0.0318356
0.0251233
0.0191569
0.0140064
0.00971354
0.0063443
0.00387735
0.0022144
0.00118833
0.000605031
0.000295257
0.000140528
6.55533e-05
3.00749e-05
1.3605e-05
6.08036e-06
2.68866e-06
1.17718e-06
5.10001e-07
2.1783e-07
9.07389e-08
3.58003e-08
1.22195e-08
2.17422e-09
4.96717e-07
2.17063e-06
4.98503e-06
9.69903e-06
1.75521e-05
3.05428e-05
5.18457e-05
8.64169e-05
0.000141838
0.000229435
0.000365659
0.000573618
0.000884478
0.00133825
0.00198324
0.00287351
0.00406404
0.00560411
0.00753046
0.00986229
0.0125993
0.0157231
0.0192009
0.02299
0.0270421
0.0313065
0.035733
0.0402738
0.0448839
0.0495227
0.0541538
0.0587453
0.0632697
0.0677039
0.0720286
0.0762289
0.0802942
0.0842167
0.0879908
0.0916132
0.0950824
0.0983984
0.101562
0.104576
0.107443
0.110166
0.112749
0.115195
0.117508
0.119691
0.121747
0.123677
0.125482
0.127162
0.128715
0.130136
0.131418
0.132549
0.133513
0.134287
0.134837
0.135111
0.135068
0.134615
0.133639
0.131986
0.127164
0.116815
0.106362
0.0959647
0.0857451
0.0758019
0.066217
0.0570615
0.0484002
0.0402946
0.0328068
0.0260008
0.019917
0.0146245
0.0102148
0.00672508
0.00414314
0.00238428
0.00128779
0.000658958
0.000322751
0.000153907
7.18961e-05
3.30209e-05
1.49507e-05
6.68665e-06
2.95865e-06
1.29617e-06
5.61888e-07
2.40141e-07
1.00097e-07
3.95165e-08
1.34941e-08
2.40027e-09
4.92987e-07
2.1543e-06
4.9473e-06
9.62494e-06
1.74164e-05
3.03033e-05
5.14329e-05
8.57182e-05
0.000140675
0.000227529
0.000362591
0.000568771
0.000876982
0.00132692
0.00196656
0.00284964
0.00403086
0.00555939
0.00747199
0.00978806
0.0125076
0.0156127
0.0190708
0.0228397
0.0268714
0.0311156
0.0355225
0.0400444
0.0446366
0.0492588
0.0538747
0.0584524
0.0629647
0.0673883
0.0717042
0.0758972
0.0799566
0.0838746
0.0876454
0.091266
0.0947346
0.0980512
0.101217
0.104234
0.107105
0.109833
0.112422
0.114875
0.117195
0.119387
0.121452
0.123392
0.125209
0.126902
0.128468
0.129904
0.131203
0.132352
0.133337
0.134133
0.134709
0.135011
0.134997
0.134574
0.133626
0.131995
0.12884
0.118536
0.108098
0.0976871
0.0874314
0.0774336
0.0677784
0.0585387
0.0497798
0.0415628
0.0339475
0.0269921
0.0207777
0.0153695
0.0108308
0.0071983
0.00447835
0.00260118
0.00141602
0.000728978
0.000358624
0.000171396
8.01913e-05
3.68727e-05
1.67088e-05
7.4779e-06
3.31053e-06
1.45103e-06
6.29315e-07
2.69092e-07
1.12224e-07
4.43281e-08
1.51434e-08
2.69269e-09
4.88756e-07
2.13577e-06
4.90451e-06
9.54094e-06
1.72626e-05
3.0032e-05
5.09656e-05
8.49278e-05
0.000139359
0.000225376
0.000359127
0.000563304
0.000868531
0.00131416
0.00194778
0.00282276
0.00399352
0.00550906
0.0074062
0.00970453
0.0124044
0.0154883
0.0189242
0.0226702
0.0266788
0.0309002
0.0352847
0.039785
0.0443568
0.0489598
0.053558
0.0581197
0.0626178
0.0670291
0.0713346
0.0755189
0.0795711
0.0834835
0.0872503
0.0908683
0.0943359
0.0976528
0.10082
0.10384
0.106715
0.109449
0.112044
0.114505
0.116834
0.119036
0.121112
0.123064
0.124895
0.126603
0.128187
0.129644
0.130966
0.132144
0.133164
0.134007
0.134644
0.135034
0.135134
0.134883
0.134187
0.13293
0.130933
0.120654
0.110212
0.0997673
0.0894572
0.0793876
0.0696457
0.0603057
0.0514342
0.0430933
0.0353443
0.0282704
0.0218938
0.0163171
0.011598
0.00778679
0.00489795
0.00287541
0.00157978
0.000819113
0.000405049
0.00019411
9.09801e-05
4.18818e-05
1.89936e-05
8.505e-06
3.76667e-06
1.65145e-06
7.16443e-07
3.06445e-07
1.2785e-07
5.05213e-08
1.72649e-08
3.06879e-09
4.84091e-07
2.11534e-06
4.85734e-06
9.44838e-06
1.70932e-05
2.97333e-05
5.04514e-05
8.40586e-05
0.000137914
0.000223012
0.000355325
0.000557305
0.000859264
0.00130017
0.0019272
0.00279331
0.00395261
0.00545393
0.00733412
0.00961299
0.0122913
0.0153519
0.0187633
0.0224841
0.0264672
0.0306631
0.0350226
0.0394988
0.0440476
0.048629
0.0532071
0.0577507
0.0622324
0.0666295
0.0709228
0.0750969
0.0791407
0.0830463
0.0868081
0.0904228
0.0938887
0.0972056
0.100375
0.103397
0.106277
0.109016
0.111618
0.114087
0.116426
0.118638
0.120727