/*--------------------------------*- C++ -*----------------------------------*\
  =========                 |
  \\      /  F ield         | OpenFOAM: The Open Source CFD Toolbox
   \\    /   O peration     | Website:  https://openfoam.org
    \\  /    A nd           | Version:  8
     \\/     M anipulation  |
\*---------------------------------------------------------------------------*/
FoamFile
{
    version     2.0;
    format      ascii;
    class       volScalarField;
    location    "120/fluid";
    object      H2O;
}
// * * * * * * * * * * * * * * * * * * * * * * * * * * * * * * * * * * * * * //

dimensions      [0 0 0 0 0 0 0];

internalField   nonuniform List<scalar> 
4000
(
3.42075e-07
1.49327e-06
3.42207e-06
6.63863e-06
1.19739e-05
2.07676e-05
3.51525e-05
5.84747e-05
9.58903e-05
0.000155176
0.000247763
0.000389926
0.000603959
0.000918967
0.00137077
0.00200031
0.00285025
0.00395999
0.00536022
0.00706841
0.00908474
0.0113973
0.0139819
0.0168061
0.0198329
0.0230226
0.0263412
0.0297526
0.0332242
0.0367266
0.0402339
0.0437239
0.0471772
0.0505777
0.053912
0.0571694
0.0603413
0.0634212
0.0664039
0.0692862
0.0720664
0.0747437
0.0773186
0.0797917
0.0821644
0.0844383
0.0866154
0.0886978
0.0906876
0.0925869
0.0943978
0.0961221
0.0977614
0.0993168
0.100789
0.102178
0.103483
0.104702
0.105831
0.106867
0.107801
0.108623
0.10932
0.109873
0.110255
0.11043
0.110356
0.109964
0.10916
0.10782
0.104453
0.0964112
0.0882429
0.0800603
0.0719546
0.0640015
0.0562654
0.0488039
0.0416706
0.0349176
0.028599
0.0227897
0.0175143
0.0128729
0.00894293
0.00579579
0.0034642
0.0018995
0.000959259
0.000453669
0.000206155
9.11065e-05
3.94818e-05
1.68681e-05
7.12333e-06
2.96924e-06
1.21071e-06
4.69696e-07
1.58483e-07
2.79176e-08
3.45735e-07
1.50986e-06
3.46274e-06
6.72454e-06
1.21435e-05
2.10876e-05
3.57343e-05
5.94951e-05
9.76152e-05
0.000157981
0.00025214
0.00039646
0.000613262
0.000931566
0.00138694
0.00201993
0.00287262
0.00398382
0.00538364
0.00708932
0.00910539
0.0114192
0.0140068
0.0168365
0.0198724
0.0230775
0.0264107
0.0298368
0.0333231
0.0368402
0.0403618
0.0438653
0.0473311
0.050743
0.0540873
0.0573533
0.0605323
0.0636178
0.0666048
0.0694901
0.0722721
0.0749503
0.0775251
0.0799974
0.0823685
0.0846402
0.0868145
0.0888936
0.0908797
0.0927749
0.0945815
0.0963011
0.0979355
0.0994857
0.100952
0.102336
0.103634
0.104847
0.10597
0.106998
0.107924
0.108738
0.109428
0.109975
0.110355
0.110535
0.110479
0.110127
0.109401
0.108176
0.10323
0.0950485
0.0867683
0.0784963
0.0703186
0.0623071
0.054525
0.0470301
0.0398777
0.033124
0.0268443
0.0210695
0.015895
0.0114059
0.0076868
0.004804
0.00276101
0.00146029
0.000718126
0.000336643
0.000153126
6.81841e-05
2.98977e-05
1.29548e-05
5.55388e-06
2.35033e-06
9.72202e-07
3.81926e-07
1.30078e-07
2.30247e-08
3.51884e-07
1.53725e-06
3.52783e-06
6.85645e-06
1.23922e-05
2.15359e-05
3.6515e-05
6.08125e-05
9.97716e-05
0.000161404
0.000257403
0.000404294
0.00062454
0.000947265
0.00140807
0.00204744
0.00290737
0.00402652
0.00543502
0.00715017
0.00917454
0.0114965
0.014093
0.0169326
0.0199794
0.0231954
0.026543
0.0299861
0.0334912
0.0370282
0.0405702
0.0440939
0.0475794
0.0510097
0.0543712
0.0576526
0.0608451
0.0639422
0.0669387
0.0698316
0.0726192
0.0753014
0.0778786
0.0803516
0.0827222
0.0849921
0.0871635
0.0892386
0.0912199
0.0931095
0.0949096
0.0966221
0.0982486
0.0997904
0.101248
0.102621
0.103909
0.105109
0.106218
0.107231
0.108139
0.108933
0.109597
0.110114
0.11046
0.110606
0.110525
0.110178
0.109539
0.108616
0.101161
0.0927555
0.0843332
0.0759727
0.0677455
0.0597168
0.0519474
0.0444953
0.0374181
0.0307753
0.0246623
0.019084
0.0141588
0.00996616
0.0065775
0.00402838
0.0022783
0.00119395
0.000585761
0.000275037
0.000125381
5.59254e-05
2.45378e-05
1.06278e-05
4.55099e-06
1.92312e-06
7.94457e-07
3.11829e-07
1.06162e-07
1.87907e-08
3.57781e-07
1.56311e-06
3.58762e-06
6.97364e-06
1.26052e-05
2.19063e-05
3.71384e-05
6.18338e-05
0.000101404
0.000163954
0.000261295
0.000410099
0.000633001
0.0009593
0.00142477
0.00207003
0.00293717
0.00406495
0.00548351
0.00721018
0.00924752
0.0115839
0.0141962
0.017053
0.0201183
0.0233541
0.0267225
0.0301874
0.0337152
0.0372753
0.0408405
0.0443871
0.0478947
0.0513461
0.0547272
0.0580265
0.061235
0.0643459
0.0673541
0.0702565
0.0730518
0.0757396
0.0783204
0.0807953
0.083166
0.0854345
0.087603
0.0896739
0.0916497
0.0935327
0.0953251
0.0970289
0.0986457
0.100177
0.101622
0.102982
0.104256
0.105439
0.106529
0.107519
0.1084
0.10916
0.109781
0.110239
0.110497
0.110519
0.110239
0.109567
0.108378
0.106305
0.0980596
0.0896609
0.0812354
0.0728825
0.0646838
0.05671
0.0490249
0.0416894
0.0347634
0.0283093
0.0224007
0.0170841
0.0124536
0.0085827
0.00552888
0.00330066
0.00182264
0.00093702
0.000453867
0.000212184
9.66757e-05
4.32056e-05
1.90232e-05
8.27504e-06
3.55979e-06
1.51088e-06
6.2655e-07
2.46664e-07
8.41443e-08
1.49082e-08
3.63412e-07
1.58778e-06
3.64455e-06
7.0851e-06
1.28082e-05
2.2261e-05
3.77412e-05
6.28354e-05
0.000103034
0.000166552
0.00026535
0.000416287
0.000642219
0.000972686
0.0014437
0.00209608
0.00297205
0.00411044
0.00554136
0.0072821
0.00933517
0.0116889
0.0143201
0.0171973
0.0202843
0.023543
0.0269353
0.0304248
0.0339777
0.0375629
0.0411531
0.0447241
0.0482552
0.0517288
0.0551306
0.0584487
0.061674
0.0647995
0.0678201
0.0707328
0.0735363
0.0762303
0.0788153
0.0812924
0.0836636
0.0859307
0.0880963
0.0901627
0.0921325
0.0940082
0.0957921
0.0974861
0.0990919
0.10061
0.102042
0.103387
0.104643
0.105807
0.106874
0.107838
0.108688
0.109411
0.109986
0.110389
0.110581
0.110523
0.110146
0.109352
0.107995
0.103086
0.0947902
0.0863635
0.0779377
0.0696147
0.0614775
0.053597
0.0460373
0.0388588
0.0321213
0.0259077
0.020237
0.0152069
0.01089
0.00735136
0.00463007
0.00270395
0.00146588
0.000743926
0.000358303
0.000167179
7.61649e-05
3.40677e-05
1.50178e-05
6.54105e-06
2.81724e-06
1.19698e-06
4.96784e-07
1.95684e-07
6.67725e-08
1.18324e-08
3.68642e-07
1.61064e-06
3.69716e-06
7.18776e-06
1.29945e-05
2.25858e-05
3.82923e-05
6.37509e-05
0.000104527
0.000168941
0.000269103
0.00042207
0.000650945
0.000985569
0.00146227
0.00212219
0.00300782
0.00415813
0.00560327
0.00736045
0.00943198
0.011806
0.014459
0.0173594
0.0204707
0.0237546
0.0271728
0.0306885
0.0342676
0.0378789
0.0414946
0.0450901
0.0486447
0.0521403
0.0555624
0.058899
0.0621407
0.0652803
0.0683129
0.0712356
0.0740471
0.076747
0.0793359
0.0818151
0.0841864
0.0864519
0.0886141
0.0906756
0.092639
0.0945068
0.0962814
0.0979647
0.0995584
0.101063
0.10248
0.103808
0.105044
0.106186
0.107228
0.108161
0.108976
0.109654
0.110177
0.110513
0.110632
0.110494
0.11005
0.109256
0.10812
0.100088
0.0916069
0.0830993
0.0746619
0.0663785
0.0583222
0.0505588
0.0431487
0.0361501
0.0296212
0.0236497
0.0182414
0.013501
0.00949408
0.00627553
0.0038639
0.00220764
0.00117492
0.000588227
0.000281567
0.000131
5.96423e-05
2.66965e-05
1.17869e-05
5.14417e-06
2.22037e-06
9.45288e-07
3.92986e-07
1.54985e-07
5.29218e-08
9.38162e-09
3.73659e-07
1.6326e-06
3.74775e-06
7.2867e-06
1.31746e-05
2.29013e-05
3.8831e-05
6.46524e-05
0.000106009
0.000171335
0.000272901
0.000427977
0.000659942
0.000998962
0.00148172
0.00214971
0.0030457
0.00420881
0.00566926
0.00744412
0.00953551
0.0119313
0.0146077
0.0175327
0.0206697
0.02398
0.0274249
0.0309675
0.0345732
0.0382106
0.0418515
0.0454713
0.0490486
0.0525655
0.056007
0.0593609
0.0626178
0.0657705
0.0688142
0.071746
0.0745647
0.0772698
0.0798619
0.0823425
0.0847133
0.0869766
0.0891349
0.0911909
0.0931473
0.0950067
0.0967713
0.0984433
0.100024
0.101515
0.102915
0.104224
0.10544
0.106559
0.107573
0.108475
0.10925
0.109881
0.110342
0.11059
0.110588
0.110254
0.109473
0.10806
0.105114
0.0967956
0.0883219
0.079837
0.0714495
0.0632464
0.0553007
0.0476768
0.0404343
0.0336307
0.0273243
0.0215698
0.0164318
0.011979
0.00827302
0.00535762
0.0032294
0.00180952
0.000948241
0.00046969
0.000223823
0.000103928
4.72941e-05
2.1178e-05
9.35905e-06
4.08938e-06
1.76727e-06
7.53241e-07
3.13425e-07
1.23678e-07
4.22427e-08
7.49021e-09
3.78506e-07
1.65381e-06
3.79666e-06
7.38241e-06
1.33491e-05
2.32074e-05
3.93544e-05
6.55307e-05
0.000107457
0.000173684
0.000276644
0.00043383
0.00066891
0.00101239
0.00150136
0.00217767
0.00308441
0.00426091
0.00573737
0.00753075
0.0096429
0.0120613
0.0147619
0.0177124
0.0208756
0.0242126
0.0276844
0.0312537
0.0348857
0.0385485
0.0422139
0.0458568
0.0494558
0.0529925
0.056452
0.0598219
0.0630925
0.0662569
0.0693105
0.0722503
0.075075
0.0777843
0.0803788
0.0828598
0.0852294
0.0874898
0.0896436
0.0916935
0.0936424
0.0954927
0.0972469
0.0989069
0.100474
0.10195
0.103333
0.104623
0.105817
0.106911
0.107897
0.108766
0.109503
0.110091
0.110502
0.110703
0.110663
0.110326
0.109627
0.108491
0.102256
0.0937901
0.0852605
0.07678
0.0684418
0.0603241
0.0524944
0.0450135
0.037938
0.031323
0.0252488
0.0197211
0.0148346
0.0106512
0.00722562
0.00458758
0.00271062
0.0014921
0.000771164
0.000378348
0.000179568
8.32193e-05
3.78491e-05
1.69537e-05
7.49844e-06
3.28003e-06
1.41918e-06
6.05528e-07
2.52172e-07
9.95587e-08
3.4012e-08
6.03243e-09
3.83222e-07
1.67445e-06
3.84428e-06
7.47571e-06
1.35195e-05
2.35067e-05
3.98678e-05
6.63946e-05
0.000108887
0.000176011
0.000280364
0.000439669
0.000677886
0.00102588
0.00152113
0.00220588
0.00312354
0.00431361
0.00580632
0.00761846
0.00975159
0.0121929
0.0149178
0.0178936
0.0210829
0.0244462
0.0279444
0.0315397
0.035197
0.0388843
0.0425729
0.0462376
0.0498568
0.0534119
0.0568877
0.060272
0.0635549
0.0667296
0.0697917
0.0727382
0.0755678
0.0782802
0.080876
0.0833567
0.0857243
0.0879811
0.0901298
0.0921732
0.094114
0.0959549
0.0976983
0.099346
0.1009
0.102359
0.103725
0.104996
0.106167
0.107234
0.108189
0.10902
0.10971
0.110238
0.110571
0.110674
0.110502
0.109992
0.109073
0.107699
0.0993983
0.0908979
0.0823709
0.0739282
0.0656592
0.0576386
0.0499311
0.0425951
0.0356854
0.0292555
0.0233862
0.0180803
0.0134332
0.00950279
0.00633645
0.00394877
0.00229118
0.00124172
0.00063427
0.000308769
0.00014607
6.75861e-05
3.07217e-05
1.37626e-05
6.09014e-06
2.66594e-06
1.15438e-06
4.92889e-07
2.05366e-07
8.10988e-08
2.77069e-08
4.9154e-09
3.87785e-07
1.69443e-06
3.89038e-06
7.56608e-06
1.36846e-05
2.37973e-05
4.03666e-05
6.72353e-05
0.000110281
0.000178283
0.000284007
0.000445398
0.000686711
0.00103917
0.00154065
0.00223378
0.00316228
0.00436584
0.00587467
0.0077054
0.00985927
0.0123231
0.0150718
0.0180724
0.021287
0.0246759
0.0281994
0.0318196
0.035501
0.0392113
0.0429216
0.0466066
0.0502442
0.053816
0.0573066
0.0607034
0.0639971
0.0671808
0.0702501
0.0732022
0.0760356
0.07875
0.0813463
0.0838258
0.0861907
0.0884434
0.0905865
0.0926229
0.0945555
0.0963868
0.0981192
0.0997546
0.101294
0.102739
0.104087
0.105338
0.106488
0.10753
0.108455
0.109251
0.109898
0.11037
0.110623
0.110619
0.110275
0.109475
0.108044
0.105078
0.0967127
0.0882075
0.0797048
0.0713142
0.0631229
0.0552034
0.0476183
0.0404246
0.0336759
0.027426
0.0217266
0.0166348
0.0122134
0.0085177
0.00558778
0.00342272
0.0019538
0.00104451
0.000528102
0.000255735
0.000120613
5.57171e-05
2.53091e-05
1.13369e-05
5.01823e-06
2.19781e-06
9.52201e-07
4.06758e-07
1.6953e-07
6.69534e-08
2.28731e-08
4.05901e-09
3.92159e-07
1.71359e-06
3.93459e-06
7.65278e-06
1.38431e-05
2.40764e-05
4.08465e-05
6.80451e-05
0.000111625
0.000180479
0.00028753
0.000450947
0.000695272
0.00105208
0.00155962
0.00226091
0.00319997
0.00441663
0.00594113
0.00778988
0.00996381
0.0124493
0.015221
0.0182454
0.0214842
0.0248973
0.0284448
0.0320884
0.0357923
0.0395239
0.0432543
0.0469577
0.0506121
0.0541989
0.0577025
0.0611105
0.0644134
0.0676048
0.0706802
0.0736366
0.0764728
0.0791885
0.0817844
0.0842622
0.0866238
0.0888719
0.0910092
0.0930385
0.0949626
0.0967842
0.0985056
0.100129
0.101655
0.103084
0.104415
0.105647
0.106775
0.107793
0.108692
0.109458
0.110075
0.110515
0.11074
0.110721
0.110388
0.109656
0.108406
0.102846
0.0943728
0.0858263
0.0773292
0.0689798
0.0608582
0.0530317
0.0455595
0.0384959
0.0318928
0.0258144
0.0202869
0.015385
0.0111666
0.00768249
0.00496359
0.00299298
0.00168397
0.000889725
0.000445981
0.000215069
0.000101183
4.66775e-05
2.1189e-05
9.4896e-06
4.201e-06
1.84041e-06
7.97618e-07
3.40815e-07
1.42064e-07
5.61038e-08
1.91644e-08
3.40195e-09
3.96291e-07
1.73168e-06
3.97636e-06
7.73471e-06
1.3993e-05
2.43405e-05
4.13009e-05
6.88125e-05
0.0001129
0.000182563
0.000290879
0.000456227
0.000703424
0.00106438
0.00157771
0.00228678
0.00323591
0.00446508
0.00600449
0.00787037
0.0100633
0.0125694
0.0153627
0.0184095
0.0216709
0.0251067
0.0286765
0.0323417
0.0360663
0.0398175
0.043566
0.0472861
0.0509556
0.0545557
0.0580708
0.0614884
0.0647993
0.0679972
0.0710775
0.0740374
0.0768755
0.0795916
0.0821867
0.0846622
0.0870204
0.0892637
0.091395
0.0934171
0.0953329
0.097145
0.0988557
0.100467
0.101979
0.103393
0.104707
0.10592
0.107026
0.108018
0.108888
0.109621
0.110199
0.110598
0.110786
0.110738
0.110406
0.109746
0.108735
0.100898
0.0922984
0.0837027
0.0752099
0.0669014
0.0588473
0.0511091
0.0437422
0.0367985
0.0303285
0.0244066
0.019037
0.0143077
0.010273
0.00697884
0.00444649
0.00264376
0.00146885
0.000768313
0.00038233
0.000183735
8.62603e-05
3.97454e-05
1.80311e-05
8.07344e-06
3.57416e-06
1.56605e-06
6.78851e-07
2.90111e-07
1.20933e-07
4.77542e-08
1.631e-08
2.89637e-09
4.00122e-07
1.74846e-06
4.0151e-06
7.81074e-06
1.41321e-05
2.45858e-05
4.17231e-05
6.95263e-05
0.000114087
0.000184505
0.000294001
0.000461152
0.000711032
0.00107586
0.0015946
0.00231095
0.00326949
0.00451033
0.00606364
0.00794548
0.0101561
0.0126813
0.0154947
0.018562
0.0218444
0.0253009
0.0288911
0.0325759
0.0363193
0.0400882
0.043853
0.0475879
0.0512707
0.0548824
0.0584074
0.0618333
0.0651511
0.0683545
0.0714388
0.0744013
0.0772407
0.0799568
0.0825505
0.0850236
0.087378
0.0896166
0.091742
0.0937572
0.095665
0.0974681
0.0991685
0.100768
0.102267
0.103667
0.104965
0.106158
0.107241
0.108206
0.109043
0.109733
0.110256
0.110576
0.110661
0.110459
0.109894
0.108868
0.107254
0.098842
0.0902881
0.0817351
0.0732924
0.0650465
0.0570683
0.0494189
0.0421527
0.0353206
0.0289727
0.023177
0.0179523
0.0133827
0.00951473
0.00639012
0.0040209
0.00236143
0.00129786
0.000673132
0.000332924
0.000159527
7.47597e-05
3.44087e-05
1.56004e-05
6.98303e-06
3.09118e-06
1.35449e-06
5.87191e-07
2.50953e-07
1.04607e-07
4.13019e-08
1.41044e-08
2.50579e-09
4.03597e-07
1.76367e-06
4.05024e-06
7.8797e-06
1.42584e-05
2.48085e-05
4.21067e-05
7.01751e-05
0.000115166
0.000186272
0.000296844
0.00046564
0.000717969
0.00108633
0.00161001
0.00233301
0.00330013
0.00455162
0.00611761
0.00801398
0.0102408
0.0127832
0.0156148
0.0187008
0.022002
0.0254773
0.0290857
0.0327881
0.0365482
0.0403327
0.0441119
0.0478598
0.0515542
0.0551759
0.0587094
0.0621424
0.065466
0.0686739
0.0717614
0.0747259
0.077566
0.0802817
0.082874
0.0853444
0.0876953
0.0899292
0.0920491
0.0940579
0.0959583
0.097753
0.0994441
0.101033
0.102521
0.103907
0.10519
0.106366
0.107429
0.10837
0.109177
0.109829
0.110302
0.110551
0.110544
0.110203
0.109432
0.108095
0.105533
0.0970986
0.0885518
0.0800267
0.0716283
0.0634407
0.0555331
0.0479654
0.040791
0.0340599
0.027821
0.0221217
0.0170299
0.0126002
0.00888175
0.00590477
0.00367488
0.00213526
0.00116276
0.000598748
0.000294606
0.000140814
6.58829e-05
3.02913e-05
1.37245e-05
6.14096e-06
2.71785e-06
1.19078e-06
5.16197e-07
2.20598e-07
9.19431e-08
3.62953e-08
1.23928e-08
2.20276e-09
4.06659e-07
1.77708e-06
4.08121e-06
7.94051e-06
1.43698e-05
2.50051e-05
4.24455e-05
7.07484e-05
0.000116121
0.000187836
0.000299362
0.000469617
0.000724119
0.00109563
0.00162369
0.00235259
0.00332735
0.0045883
0.00616555
0.00807483
0.0103159
0.0128737
0.0157214
0.0188239
0.0221417
0.0256334
0.0292578
0.0329757
0.0367503
0.0405483
0.0443399
0.0480991
0.0518033
0.0554336
0.0589743
0.0624132
0.0657416
0.0689531
0.0720432
0.0750091
0.0778496
0.0805647
0.0831553
0.0856233
0.0879707
0.0902005
0.0923154
0.0943183
0.0962122
0.0979997
0.0996827
0.101263
0.102741
0.104117
0.105388
0.106551
0.107601
0.108526
0.109315
0.109949
0.1104
0.110627
0.110595
0.110229
0.109433
0.108075
0.104156
0.095682
0.0871227
0.0786081
0.0702393
0.0620966
0.0542472
0.0467492
0.0396555
0.0330164
0.0268825
0.0213082
0.0163247
0.0119889
0.00837514
0.0055155
0.0033989
0.00195653
0.00105702
0.000540983
0.000265007
0.000126386
5.90435e-05
2.71183e-05
1.22779e-05
5.49088e-06
2.42927e-06
1.06407e-06
4.61171e-07
1.97042e-07
8.2106e-08
3.24037e-08
1.10619e-08
1.96713e-09
4.09257e-07
1.78846e-06
4.1075e-06
7.99217e-06
1.44644e-05
2.51723e-05
4.2734e-05
7.12371e-05
0.000116935
0.000189171
0.000301513
0.000473018
0.000729384
0.00110359
0.00163542
0.0023694
0.00335071
0.00461979
0.00620674
0.00812711
0.0103804
0.0129514
0.0158129
0.0189296
0.0222616
0.0257673
0.0294054
0.0331363
0.0369232
0.0407326
0.0445347
0.0483032
0.0520157
0.0556531
0.0591997
0.0626434
0.0659757
0.0691901
0.0722821
0.0752491
0.0780897
0.0808041
0.0833932
0.0858588
0.0882032
0.0904292
0.0925397
0.0945376
0.0964259
0.0982071
0.0998834
0.101456
0.102927
0.104294
0.105557
0.106712
0.107754
0.108672
0.109456
0.110088
0.110545
0.110788
0.110792
0.110494
0.109822
0.10868
0.103201
0.0946169
0.0860047
0.0774754
0.0691173
0.0610034
0.0531957
0.0457495
0.0387158
0.0321441
0.0260865
0.0205883
0.015701
0.0114818
0.00796472
0.00520307
0.00318038
0.00181664
0.000975031
0.000496496
0.000242317
0.000115341
5.3808e-05
2.46879e-05
1.11686e-05
4.99172e-06
2.20735e-06
9.66476e-07
4.18721e-07
1.78842e-07
7.4496e-08
2.93903e-08
1.00308e-08
1.78454e-09
4.11341e-07
1.7976e-06
4.12864e-06
8.03377e-06
1.45408e-05
2.53075e-05
4.29675e-05
7.16333e-05
0.000117597
0.000190257
0.000303264
0.00047579
0.00073368
0.00111009
0.00164502
0.00238316
0.00336986
0.00464564
0.00624056
0.00817008
0.0104335
0.0130154
0.0158882
0.0190166
0.0223602
0.0258774
0.0295266
0.0332681
0.037065
0.0408836
0.0446941
0.0484701
0.0521891
0.0558322
0.0593835
0.0628311
0.0661664
0.0693831
0.0724766
0.0754442
0.0782848
0.0809984
0.083586
0.0860496
0.0883913
0.0906141
0.0927208
0.0947144
0.0965979
0.0983738
0.100044
0.101611
0.103075
0.104436
0.105693
0.106841
0.107877
0.108791
0.109572
0.110206
0.11067
0.110929
0.110964
0.110724
0.110151
0.10918
0.102434
0.0937676
0.0851161
0.0765764
0.0682286
0.06014
0.0523695
0.0449702
0.0379914
0.031481
0.0254801
0.0200359
0.0152144
0.0110688
0.00764499
0.00496111
0.00301176
0.00170953
0.000912661
0.00046277
0.000225312
0.000107047
4.98691e-05
2.28561e-05
1.03311e-05
4.61421e-06
2.03923e-06
8.92411e-07
3.86452e-07
1.64986e-07
6.86945e-08
2.70905e-08
9.24336e-09
1.64507e-09
4.1288e-07
1.80434e-06
4.1442e-06
8.06435e-06
1.4597e-05
2.54071e-05
4.31403e-05
7.19276e-05
0.00011809
0.000191071
0.000304585
0.00047789
0.000736945
0.00111505
0.00165234
0.00239369
0.00338454
0.00466548
0.00626656
0.00820313
0.0104744
0.0130647
0.0159463
0.0190836
0.0224362
0.0259622
0.0296199
0.0333695
0.0371739
0.0409995
0.0448161
0.0485977
0.0523215
0.0559686
0.0595234
0.062974
0.0663118
0.0695303
0.0726248
0.0755929
0.0784334
0.0811463
0.0837327
0.0861945
0.088534
0.090754
0.0928576
0.0948476
0.0967271
0.0984986
0.100164
0.101726
0.103185
0.10454
0.105789
0.106931
0.10796
0.108867
0.109641
0.110268
0.110725
0.110979
0.111007
0.110758
0.110172
0.109185
0.101721
0.0930503
0.0844036
0.0758777
0.0675512
0.05949
0.0517512
0.044385
0.0374399
0.0309624
0.0250042
0.0196127
0.0148463
0.0107587
0.00739549
0.00478072
0.00288703
0.00163056
0.000866874
0.000438102
0.000212897
0.000101001
4.69982e-05
2.152e-05
9.71961e-06
4.33822e-06
1.91617e-06
8.38127e-07
3.62773e-07
1.54807e-07
6.44282e-08
2.53981e-08
8.66357e-09
1.54234e-09
4.13911e-07
1.80884e-06
4.15459e-06
8.08469e-06
1.46342e-05
2.54726e-05
4.32532e-05
7.21193e-05
0.000118411
0.0001916
0.000305444
0.000479258
0.000739081
0.0011183
0.00165718
0.00240067
0.00339433
0.00467878
0.00628406
0.00822549
0.0105022
0.0130982
0.0159859
0.0191294
0.0224882
0.0260202
0.0296837
0.0334388
0.0372483
0.0410784
0.0448991
0.048684
0.0524105
0.0560599
0.0596171
0.0630702
0.06641
0.0696298
0.0727252
0.0756937
0.078534
0.0812463
0.0838318
0.0862923
0.0886301
0.0908481
0.0929493
0.0949366
0.096813
0.0985811
0.100243
0.1018
0.103254
0.104604
0.105847
0.106982
0.108003
0.108901
0.109664
0.110278
0.11072
0.110953
0.110955
0.110669
0.110027
0.108959
0.101146
0.0925029
0.0838793
0.0753752
0.0670703
0.0590307
0.0513133
0.0439715
0.0370537
0.0306077
0.0246824
0.0193261
0.0145972
0.0105494
0.00722746
0.00465354
0.00280092
0.00157663
0.000835708
0.000421339
0.000204478
9.6911e-05
4.506e-05
2.06196e-05
9.30806e-06
4.15266e-06
1.83347e-06
8.0166e-07
3.46866e-07
1.47968e-07
6.1562e-08
2.42611e-08
8.27409e-09
1.47335e-09
4.14434e-07
1.81113e-06
4.15987e-06
8.09507e-06
1.46532e-05
2.55062e-05
4.33111e-05
7.22174e-05
0.000118574
0.000191868
0.000305876
0.000479943
0.000740146
0.00111992
0.00165958
0.00240413
0.00339917
0.00468536
0.00629272
0.00823656
0.0105159
0.0131149
0.0160056
0.0191522
0.0225142
0.0260493
0.0297157
0.0334735
0.0372855
0.0411179
0.0449404
0.0487267
0.0524543
0.0561048
0.0596633
0.0631177
0.0664588
0.0696796
0.0727756
0.0757443
0.0785845
0.0812966
0.0838815
0.0863412
0.0886781
0.090895
0.0929948
0.0949806
0.0968553
0.0986213
0.100281
0.101836
0.103286
0.104632
0.105872
0.107002
0.108017
0.108907
0.109663
0.110266
0.110694
0.110911
0.110892
0.110578
0.1099
0.108781
0.100832
0.0922023
0.0835927
0.0751029
0.0668123
0.0587872
0.0510853
0.0437588
0.0368568
0.0304276
0.0245198
0.0191821
0.0144728
0.0104454
0.00714465
0.00459167
0.00275829
0.00154992
0.000820252
0.000412989
0.000200278
9.4869e-05
4.40924e-05
2.017e-05
9.10248e-06
4.05986e-06
1.79204e-06
7.83349e-07
3.38856e-07
1.44513e-07
6.0109e-08
2.36829e-08
8.0756e-09
1.43814e-09
4.14432e-07
1.81113e-06
4.15986e-06
8.09505e-06
1.46532e-05
2.55061e-05
4.3311e-05
7.22171e-05
0.000118574
0.000191867
0.000305874
0.00047994
0.00074014
0.00111991
0.00165956
0.0024041
0.00339913
0.00468529
0.00629262
0.00823641
0.0105157
0.0131146
0.0160053
0.0191518
0.0225138
0.0260488
0.0297153
0.033473
0.037285
0.0411174
0.0449399
0.0487262
0.0524538
0.0561043
0.0596627
0.0631171
0.0664583
0.069679
0.072775
0.0757436
0.0785839
0.081296
0.0838809
0.0863406
0.0886775
0.0908944
0.0929942
0.09498
0.0968547
0.0986207
0.10028
0.101835
0.103286
0.104632
0.105871
0.107001
0.108015
0.108906
0.10966
0.110263
0.11069
0.110907
0.110888
0.110575
0.109897
0.108777
0.100828
0.0921987
0.0835895
0.0750996
0.0668089
0.0587838
0.0510819
0.0437556
0.0368539
0.030425
0.0245175
0.01918
0.014471
0.010444
0.00714361
0.00459097
0.00275785
0.00154967
0.000820116
0.00041292
0.000200246
9.48536e-05
4.4085e-05
2.01664e-05
9.10061e-06
4.05889e-06
1.79152e-06
7.83072e-07
3.3871e-07
1.44438e-07
6.00721e-08
2.36663e-08
8.06944e-09
1.43701e-09
4.13908e-07
1.80883e-06
4.15456e-06
8.08463e-06
1.46341e-05
2.54724e-05
4.32528e-05
7.21187e-05
0.00011841
0.000191598
0.000305439
0.000479248
0.000739064
0.00111827
0.00165713
0.00240059
0.0033942
0.00467858
0.00628377
0.00822507
0.0105016
0.0130975
0.015985
0.0191283
0.022487
0.0260189
0.0296823
0.0334373
0.0372468
0.0410769
0.0448976
0.0486825
0.052409
0.0560584
0.0596155
0.0630685
0.0664082
0.0696281
0.0727234
0.0756918
0.0785322
0.0812445
0.08383
0.0862904
0.0886283
0.0908463
0.0929474
0.0949348
0.0968112
0.0985793
0.100241
0.101799
0.103252
0.104602
0.105845
0.10698
0.107999
0.108896
0.109659
0.110271
0.110711
0.110944
0.110946
0.110661
0.110021
0.108949
0.101132
0.0924914
0.0838691
0.0753653
0.0670603
0.0590205
0.0513034
0.0439621
0.0370451
0.0306001
0.0246755
0.0193201
0.0145921
0.0105453
0.00722433
0.00465139
0.00279972
0.00157588
0.000835259
0.000421086
0.000204347
9.6845e-05
4.50276e-05
2.06037e-05
9.30027e-06
4.1488e-06
1.83153e-06
8.00686e-07
3.46377e-07
1.47726e-07
6.14467e-08
2.42103e-08
8.25546e-09
1.46996e-09
4.12877e-07
1.80432e-06
4.14417e-06
8.06429e-06
1.45969e-05
2.54068e-05
4.31397e-05
7.19265e-05
0.000118088
0.000191068
0.000304579
0.000477879
0.000736926
0.00111501
0.00165228
0.00239358
0.00338437
0.00466522
0.00626617
0.00820258
0.0104737
0.0130637
0.0159451
0.0190821
0.0224345
0.0259603
0.0296179
0.0333673
0.0371716
0.0409971
0.0448138
0.0485953
0.0523191
0.0559661
0.0595208
0.0629714
0.0663091
0.0695275
0.072622
0.07559
0.0784304
0.0811433
0.0837296
0.0861913
0.0885308
0.0907508
0.0928544
0.0948444
0.0967239
0.0984954
0.100161
0.101723
0.103181
0.104536
0.105786
0.106927
0.107955
0.108861
0.109634
0.110259
0.110716
0.110969
0.110998
0.110752
0.110167
0.109173
0.101697
0.0930298
0.0843851
0.07586
0.067534
0.0594732
0.051735
0.0443698
0.0374263
0.0309516
0.0249927
0.019602
0.014837
0.0107512
0.00738963
0.00477636
0.00288399
0.00162865
0.000865793
0.000437537
0.000212615
0.000100864
4.69321e-05
2.14883e-05
9.70438e-06
4.33088e-06
1.91261e-06
8.36404e-07
3.61939e-07
1.54409e-07
6.42449e-08
2.53196e-08
8.63534e-09
1.53727e-09
4.11333e-07
1.79756e-06
4.12856e-06
8.03361e-06
1.45406e-05
2.5307e-05
4.29667e-05
7.16321e-05
0.000117595
0.000190253
0.000303258
0.00047578
0.000733661
0.00111006
0.00164495
0.00238305
0.00336967
0.00464534
0.00624011
0.00816942
0.0104326
0.0130142
0.0158867
0.0190147
0.0223581
0.025875
0.0295239
0.0332652
0.0370619
0.0408805
0.0446908
0.0484668
0.0521858
0.0558288
0.05938
0.0628275
0.0661628
0.0693794
0.0724727
0.0754402
0.0782807
0.0809941
0.0835817
0.0860451
0.0883867
0.0906093
0.0927159
0.0947095
0.0965929
0.0983688
0.100039
0.101606
0.10307
0.104431
0.105688
0.106836
0.107871
0.108785
0.109566
0.110199
0.110663
0.110922
0.110958
0.110719
0.110146
0.109172
0.102403
0.0937386
0.0850886
0.0765499
0.0682028
0.0601146
0.0523448
0.0449461
0.0379678
0.0314572
0.0254604
0.0200194
0.0152007
0.0110576
0.00763621
0.00495482
0.00300725
0.00170672
0.000911053
0.000461911
0.000224878
0.000106835
4.97671e-05
2.28076e-05
1.03083e-05
4.60352e-06
2.03424e-06
8.90086e-07
3.85377e-07
1.64496e-07
6.84776e-08
2.70008e-08
9.21197e-09
1.63953e-09
4.0925e-07
1.78843e-06
4.10744e-06
7.99205e-06
1.44643e-05
2.5172e-05
4.27335e-05
7.12364e-05
0.000116934
0.000189169
0.00030151
0.000473011
0.00072937
0.00110356
0.00163537
0.00236929
0.00335052
0.00461949
0.00620627
0.00812642
0.0103795
0.0129501
0.0158113
0.0189276
0.0222592
0.0257645
0.0294022
0.0331328
0.0369195
0.0407287
0.0445307
0.0482991
0.0520115
0.0556489
0.0591954
0.062639
0.0659712
0.0691854
0.0722773
0.075244
0.0780844
0.0807985
0.0833874
0.0858528
0.088197
0.0904228
0.0925331
0.0945308
0.0964189
0.0982
0.0998762
0.101449
0.10292
0.104287
0.10555
0.106705
0.107747
0.108666
0.10945
0.110081
0.110538
0.11078
0.110783
0.110485
0.109812
0.108674
0.103163
0.0945794
0.0859687
0.0774407
0.0690842
0.0609719
0.053166
0.0457217
0.0386898
0.0321199
0.0260635
0.0205682
0.0156836
0.011467
0.00795239
0.00519402
0.00317435
0.00181291
0.000972878
0.000495333
0.000241724
0.000115049
5.36679e-05
2.46221e-05
1.11383e-05
4.97793e-06
2.20118e-06
9.63747e-07
4.17533e-07
1.78336e-07
7.42871e-08
2.93094e-08
1.0004e-08
1.78002e-09
4.06658e-07
1.77708e-06
4.0812e-06
7.94051e-06
1.43698e-05
2.50051e-05
4.24456e-05
7.07487e-05
0.000116122
0.000187837
0.000299362
0.000469616
0.000724115
0.00109561
0.00162366
0.00235252
0.0033272
0.00458803
0.00616512
0.00807417
0.0103149
0.0128724
0.0157196
0.0188217
0.0221391
0.0256303
0.0292543
0.0329718
0.0367461
0.0405438
0.0443352
0.0480943
0.0517984
0.0554286
0.0589692
0.0624079
0.0657362
0.0689475
0.0720373
0.0750029
0.0778431
0.0805579
0.0831482
0.0856158
0.0879629
0.0901923
0.0923069
0.0943095
0.0962031
0.0979902
0.099673
0.101253
0.102731
0.104107
0.105378
0.106541
0.107591
0.108517
0.109306
0.109939
0.11039
0.110614
0.110579
0.110208
0.109409
0.108056
0.104108
0.0956352
0.087078
0.0785655
0.0701987
0.0620583
0.0542113
0.0467158
0.0396248
0.0329888
0.0268586
0.0212867
0.0163059
0.011973
0.00836278
0.00550577
0.00339195
0.00195199
0.0010543
0.000539483
0.000264233
0.000126003
5.88607e-05
2.70339e-05
1.224e-05
5.4743e-06
2.42222e-06
1.06116e-06
4.60013e-07
1.96601e-07
8.19481e-08
3.23518e-08
1.10475e-08
1.96508e-09
4.03604e-07
1.7637e-06
4.05031e-06
7.87985e-06
1.42587e-05
2.48091e-05
4.21077e-05
7.01767e-05
0.000115169
0.000186276
0.00029685
0.000465648
0.000717978
0.00108634
0.00161001
0.00233297
0.00330003
0.00455142
0.00611726
0.0080134
0.0102399
0.0127819
0.0156131
0.0186987
0.0219993
0.0254741
0.029082
0.032784
0.0365436
0.0403278
0.0441067
0.0478545
0.0515486
0.0551702
0.0587036
0.0621364
0.0654598
0.0686674
0.0717546
0.0747186
0.0775583
0.0802736
0.0828654
0.0853354
0.0876858
0.0899192
0.0920386
0.0940469
0.0959468
0.097741
0.0994316
0.10102
0.102508
0.103893
0.105176
0.106351
0.107414
0.108356
0.109162
0.109814
0.110285
0.110532
0.110521
0.110174
0.109398
0.108063
0.105481
0.0970446
0.0884992
0.0799756
0.0715793
0.0633942
0.0554896
0.0479251
0.0407543
0.0340271
0.0277926
0.0220982
0.0170105
0.0125829
0.00886711
0.00589319
0.00366639
0.00212956
0.00115929
0.000596808
0.000293602
0.00014032
6.56519e-05
3.01873e-05
1.36794e-05
6.12209e-06
2.7103e-06
1.18794e-06
5.15215e-07
2.20303e-07
9.18768e-08
3.6291e-08
1.23977e-08
2.20449e-09
4.0014e-07
1.74853e-06
4.01528e-06
7.81109e-06
1.41328e-05
2.4587e-05
4.17251e-05
6.95297e-05
0.000114092
0.000184514
0.000294014
0.000461172
0.000711059
0.00107589
0.00159463
0.00231097
0.00326946
0.00451022
0.00606339
0.00794501
0.0101554
0.0126801
0.0154931
0.0185599
0.0218417
0.0252977
0.0288873
0.0325716
0.0363145
0.0400829
0.0438474
0.0475821
0.0512646
0.0548761
0.058401
0.0618267
0.0651442
0.0683472
0.0714311
0.0743931
0.0772319
0.0799475
0.0825407
0.0850131
0.0873669
0.0896048
0.0917296
0.0937441
0.0956512
0.0974534
0.0991531
0.100752
0.10225
0.103649
0.104946
0.106138
0.10722
0.108185
0.10902
0.10971
0.110232
0.110551
0.110633
0.110427
0.109857
0.108829
0.107194
0.0987783
0.0902292
0.0816786
0.0732378
0.064994
0.0570183
0.0493717
0.0421087
0.0352801
0.028936
0.0231447
0.0179242
0.0133586
0.00949515
0.00637498
0.00400991
0.00235407
0.00129336
0.000670601
0.00033161
0.000158916
7.44846e-05
3.42883e-05
1.55499e-05
6.96297e-06
3.08374e-06
1.35203e-06
5.86545e-07
2.50884e-07
1.0467e-07
4.13614e-08
1.41346e-08
2.51239e-09
3.96321e-07
1.73181e-06
3.97666e-06
7.73531e-06
1.39941e-05
2.43424e-05
4.13041e-05
6.8818e-05
0.000112909
0.000182578
0.000290902
0.000456261
0.000703472
0.00106444
0.00157778
0.00228686
0.00323597