/*--------------------------------*- C++ -*----------------------------------*\
  =========                 |
  \\      /  F ield         | OpenFOAM: The Open Source CFD Toolbox
   \\    /   O peration     | Website:  https://openfoam.org
    \\  /    A nd           | Version:  8
     \\/     M anipulation  |
\*---------------------------------------------------------------------------*/
FoamFile
{
    version     2.0;
    format      ascii;
    class       volScalarField;
    location    "120/fluid";
    object      N2;
}
// * * * * * * * * * * * * * * * * * * * * * * * * * * * * * * * * * * * * * //

dimensions      [0 0 0 0 0 0 0];

internalField   nonuniform List<scalar> 
4000
(
2.86245e-06
1.24773e-05
2.85044e-05
5.5037e-05
9.86659e-05
0.000169896
0.000285264
0.000470422
0.000764457
0.00122566
0.00193875
0.00302294
0.00463949
0.00699617
0.0103448
0.014968
0.0211532
0.0291566
0.0391645
0.0512656
0.0654415
0.0815762
0.0994782
0.118906
0.139595
0.161275
0.183689
0.206596
0.229782
0.253053
0.276244
0.299212
0.321835
0.344015
0.365669
0.386733
0.407156
0.426903
0.445947
0.46427
0.481859
0.498713
0.514834
0.530229
0.544911
0.558893
0.572193
0.58483
0.596824
0.608197
0.61897
0.629166
0.638808
0.647918
0.656519
0.664632
0.672279
0.679481
0.68626
0.692634
0.698624
0.704248
0.709525
0.714473
0.719096
0.723374
0.727437
0.731236
0.734778
0.738082
0.741133
0.743932
0.74663
0.749205
0.751644
0.75394
0.756092
0.7581
0.759964
0.761682
0.763251
0.764665
0.765925
0.767019
0.767936
0.768665
0.769203
0.769563
0.76978
0.769896
0.769953
0.769979
0.769991
0.769996
0.769998
0.769999
0.77
0.77
0.77
0.77
2.87956e-06
1.25534e-05
2.86889e-05
5.5427e-05
9.94428e-05
0.000171379
0.000287983
0.000475205
0.000772504
0.00123856
0.00195837
0.00305107
0.00467729
0.00704333
0.0103988
0.0150235
0.0212028
0.0291922
0.0391802
0.0512604
0.0654179
0.0815411
0.099442
0.118883
0.139602
0.161334
0.183817
0.206807
0.230085
0.253455
0.276746
0.299811
0.322528
0.344794
0.366526
0.387659
0.408142
0.42794
0.447025
0.46538
0.482994
0.499864
0.515994
0.531392
0.54607
0.560045
0.573333
0.585953
0.597928
0.609279
0.620028
0.630198
0.639812
0.648893
0.657464
0.665547
0.673163
0.680335
0.687082
0.693426
0.699386
0.704981
0.710229
0.715149
0.719747
0.723995
0.72802
0.73177
0.73527
0.738522
0.741555
0.744384
0.747097
0.749676
0.752112
0.754403
0.75655
0.758551
0.760406
0.762114
0.763667
0.765067
0.766302
0.767361
0.768229
0.768898
0.769368
0.769667
0.769836
0.769923
0.769965
0.769985
0.769993
0.769997
0.769999
0.769999
0.77
0.77
0.77
0.77
2.90513e-06
1.26695e-05
2.89728e-05
5.60211e-05
0.000100597
0.000173514
0.000291776
0.000481691
0.000783188
0.00125551
0.00198421
0.0030889
0.00473038
0.00711462
0.0104901
0.015135
0.0213322
0.0293349
0.0393305
0.0514133
0.0655734
0.0817045
0.0996238
0.119098
0.139868
0.161667
0.184234
0.207326
0.230718
0.254212
0.277633
0.30083
0.323676
0.346067
0.367916
0.389156
0.409736
0.429619
0.448776
0.46719
0.484851
0.501756
0.517909
0.53332
0.548002
0.56197
0.575244
0.587844
0.599791
0.611109
0.621821
0.63195
0.64152
0.650554
0.659076
0.667108
0.674673
0.681793
0.688488
0.69478
0.700689
0.706232
0.711429
0.716297
0.720833
0.725024
0.729004
0.732721
0.736181
0.739358
0.742335
0.745177
0.747889
0.750455
0.752871
0.755137
0.757253
0.75922
0.761036
0.7627
0.764198
0.765541
0.76671
0.767695
0.768485
0.769075
0.769478
0.769727
0.769866
0.769937
0.769971
0.769987
0.769994
0.769998
0.769999
0.77
0.77
0.77
0.77
0.77
2.92716e-06
1.27669e-05
2.92011e-05
5.64769e-05
0.000101442
0.00017501
0.000294328
0.00048591
0.000789958
0.00126607
0.00200022
0.00311254
0.00476433
0.00716202
0.0105545
0.01522
0.0214416
0.0294726
0.039501
0.0516217
0.0658262
0.0820095
0.0999906
0.119538
0.140392
0.162287
0.184962
0.208173
0.231694
0.255323
0.278883
0.30222
0.325206
0.347731
0.369707
0.391066
0.411754
0.431732
0.450973
0.469457
0.487173
0.50412
0.520303
0.535731
0.550418
0.564382
0.577641
0.590216
0.602132
0.613411
0.624078
0.634156
0.643671
0.652647
0.661107
0.669075
0.676574
0.683626
0.690254
0.696478
0.702319
0.707797
0.712931
0.717741
0.722172
0.726315
0.730267
0.733947
0.737372
0.740504
0.743402
0.746196
0.748858
0.751376
0.753745
0.755962
0.758029
0.759943
0.761703
0.763306
0.764744
0.766016
0.767111
0.768018
0.768728
0.769242
0.769582
0.769786
0.769896
0.769952
0.769978
0.76999
0.769996
0.769998
0.769999
0.77
0.77
0.77
0.77
0.77
2.947e-06
1.28545e-05
2.9407e-05
5.689e-05
0.000102216
0.000176401
0.000296758
0.000490046
0.000796824
0.00127719
0.00201777
0.00313949
0.00480455
0.00722031
0.0106364
0.0153318
0.0215897
0.0296637
0.0397417
0.0519191
0.0661878
0.082444
0.100508
0.120147
0.141105
0.163115
0.185914
0.209257
0.232916
0.256688
0.280394
0.303876
0.327003
0.349664
0.371769
0.393248
0.414045
0.43412
0.453445
0.471999
0.489771
0.506761
0.522974
0.538418
0.55311
0.567066
0.580308
0.592857
0.604737
0.615972
0.626588
0.63661
0.646063
0.654972
0.663362
0.671258
0.678682
0.685657
0.692206
0.698351
0.704111
0.709507
0.714558
0.719271
0.723588
0.727684
0.731508
0.735073
0.7384
0.741505
0.744417
0.747199
0.749832
0.75231
0.754631
0.756798
0.758809
0.760664
0.762361
0.763891
0.765262
0.76646
0.767477
0.768304
0.768935
0.769379
0.769664
0.76983
0.769918
0.769962
0.769983
0.769992
0.769997
0.769999
0.769999
0.77
0.77
0.77
0.77
0.77
2.96412e-06
1.293e-05
2.95839e-05
5.72443e-05
0.000102879
0.000177594
0.000298847
0.000493617
0.000802796
0.00128695
0.00203339
0.00316391
0.00484184
0.00727586
0.0107171
0.0154458
0.0217464
0.0298733
0.0400146
0.0522655
0.066618
0.0829676
0.101134
0.120886
0.141964
0.164102
0.187036
0.210519
0.234323
0.258241
0.282091
0.305716
0.328981
0.351774
0.374003
0.395595
0.416495
0.436662
0.456065
0.474684
0.492508
0.509536
0.525773
0.54123
0.555923
0.569868
0.583088
0.595606
0.607446
0.618633
0.629194
0.639155
0.648542
0.65738
0.665696
0.673513
0.680857
0.687751
0.694218
0.700279
0.705956
0.711269
0.716237
0.720842
0.725085
0.72914
0.732916
0.736419
0.739611
0.742611
0.745484
0.74822
0.750802
0.753227
0.755494
0.757603
0.759553
0.761345
0.762977
0.764438
0.765738
0.766862
0.767803
0.768553
0.769111
0.769493
0.76973
0.769865
0.769935
0.76997
0.769986
0.769994
0.769997
0.769999
0.769999
0.77
0.77
0.77
0.77
0.77
2.98021e-06
1.30011e-05
2.97513e-05
5.75814e-05
0.000103515
0.00017875
0.000300895
0.000497166
0.000808816
0.00129695
0.00204962
0.00318965
0.00488167
0.00733589
0.0108051
0.0155712
0.02192
0.0301065
0.0403193
0.0526533
0.0670997
0.0835536
0.101834
0.121708
0.142916
0.16519
0.188265
0.211892
0.235841
0.259904
0.283897
0.30766
0.331057
0.353975
0.37632
0.398018
0.419012
0.439262
0.458734
0.477409
0.495277
0.512336
0.528591
0.544055
0.558742
0.572671
0.585866
0.598348
0.610145
0.621281
0.631784
0.641681
0.650999
0.659763
0.668002
0.675739
0.683
0.689809
0.696189
0.702164
0.707755
0.712983
0.717871
0.722332
0.72649
0.730465
0.734169
0.737636
0.740824
0.743758
0.746573
0.749244
0.751761
0.754121
0.756323
0.758367
0.760252
0.761978
0.763541
0.76494
0.766168
0.76722
0.768088
0.768765
0.769257
0.769584
0.769782
0.769892
0.769949
0.769976
0.769989
0.769995
0.769998
0.769999
0.77
0.77
0.77
0.77
0.77
0.77
2.99566e-06
1.30694e-05
2.99122e-05
5.79061e-05
0.000104128
0.000179869
0.000302884
0.000500626
0.000814715
0.0013068
0.00206573
0.0032154
0.00492186
0.00739704
0.0108956
0.0157014
0.0221016
0.0303525
0.0406425
0.0530662
0.0676138
0.0841791
0.10258
0.122582
0.143924
0.166337
0.189555
0.213325
0.237417
0.261621
0.285751
0.309645
0.333166
0.356199
0.378649
0.400443
0.421522
0.441843
0.461375
0.480097
0.498
0.515081
0.531348
0.546811
0.561487
0.575395
0.588559
0.601003
0.612753
0.623836
0.634279
0.644111
0.653358
0.662049
0.67021
0.677867
0.685046
0.691771
0.698066
0.703954
0.709456
0.714594
0.71937
0.72371
0.72785
0.731713
0.735311
0.738648
0.74176
0.7447
0.747497
0.750135
0.75261
0.754921
0.75707
0.759058
0.760885
0.76255
0.764046
0.765382
0.766545
0.767531
0.768331
0.768943
0.769376
0.769657
0.769823
0.769913
0.769959
0.769981
0.769991
0.769996
0.769998
0.769999
0.77
0.77
0.77
0.77
0.77
0.77
3.0108e-06
1.31364e-05
3.00701e-05
5.82251e-05
0.000104732
0.000180974
0.000304853
0.000504066
0.000820605
0.00131668
0.00208196
0.00324147
0.00496271
0.00745942
0.0109883
0.015835
0.0222884
0.0306056
0.0409754
0.0534915
0.068143
0.0848223
0.103345
0.123477
0.144954
0.167504
0.190862
0.214772
0.239002
0.26334
0.287599
0.311615
0.335251
0.358389
0.380935
0.402813
0.423965
0.444349
0.46393
0.48269
0.500618
0.517714
0.533984
0.549441
0.5641
0.577984
0.591114
0.603516
0.615218
0.626246
0.636629
0.646395
0.655573
0.664191
0.672277
0.679856
0.686956
0.693602
0.699818
0.705627
0.711052
0.716115
0.720786
0.725084
0.729208
0.733035
0.736576
0.739777
0.74278
0.745661
0.748399
0.75098
0.753399
0.755655
0.757749
0.759681
0.761452
0.76306
0.764497
0.765773
0.766876
0.767799
0.768537
0.76909
0.769473
0.769714
0.769854
0.769929
0.769966
0.769984
0.769993
0.769997
0.769999
0.769999
0.77
0.77
0.77
0.77
0.77
0.77
3.02551e-06
1.32015e-05
3.02235e-05
5.85352e-05
0.00010532
0.000182048
0.000306773
0.000507424
0.000826368
0.00132638
0.00209793
0.00326718
0.00500312
0.0075213
0.0110804
0.0159681
0.0224749
0.0308588
0.0413084
0.053917
0.0686722
0.0854647
0.104109
0.124367
0.145976
0.16866
0.192152
0.216196
0.240556
0.26502
0.289399
0.313528
0.337267
0.3605
0.383131
0.405083
0.426298
0.446733
0.466355
0.485144
0.50309
0.520193
0.536461
0.551906
0.566545
0.5804
0.593494
0.605853
0.617505
0.628478
0.638801
0.648503
0.657614
0.666162
0.674174
0.681678
0.688701
0.695269
0.701405
0.707136
0.712483
0.717469
0.721994
0.72621
0.730253
0.734016
0.73752
0.740732
0.743696
0.746532
0.74922
0.751748
0.754113
0.756317
0.758358
0.760238
0.761955
0.763509
0.764898
0.766117
0.767163
0.768029
0.768711
0.769212
0.76955
0.76976
0.769878
0.769941
0.769972
0.769987
0.769994
0.769997
0.769999
0.769999
0.77
0.77
0.77
0.77
0.77
0.77
3.03956e-06
1.32636e-05
3.037e-05
5.88314e-05
0.000105882
0.000183077
0.000308613
0.00051065
0.000831914
0.00133572
0.00211335
0.00329207
0.00504232
0.00758143
0.01117
0.0160978
0.0226567
0.0311056
0.0416332
0.0543317
0.0691876
0.0860897
0.10485
0.125231
0.146965
0.169776
0.193395
0.217564
0.242046
0.266626
0.291115
0.315346
0.33918
0.362497
0.385201
0.407217
0.428487
0.448964
0.468617
0.487427
0.505385
0.522491
0.538751
0.55418
0.568796
0.582619
0.595676
0.607991
0.619594
0.630514
0.64078
0.650421
0.659467
0.667948
0.675893
0.683328
0.690281
0.696778
0.702845
0.708506
0.713785
0.718692
0.723128
0.72737
0.73131
0.734966
0.738362
0.741511
0.744462
0.747272
0.749925
0.752413
0.754737
0.756897
0.758894
0.760728
0.762399
0.763902
0.765243
0.766414
0.767409
0.768224
0.768855
0.769311
0.769612
0.769795
0.769897
0.76995
0.769977
0.769989
0.769995
0.769998
0.769999
0.77
0.77
0.77
0.77
0.77
0.77
0.77
3.05259e-06
1.33213e-05
3.0506e-05
5.91066e-05
0.000106404
0.000184036
0.000310331
0.000513667
0.000837111
0.0013445
0.00212787
0.00331554
0.00507935
0.00763832
0.011255
0.0162208
0.0228294
0.0313401
0.0419418
0.0547258
0.0696772
0.086683
0.105554
0.126049
0.147901
0.170831
0.194567
0.218852
0.243445
0.268131
0.292719
0.317042
0.340959
0.36435
0.387119
0.40919
0.430504
0.451016
0.470694
0.489519
0.507483
0.524585
0.540835
0.556246
0.570836
0.584628
0.597647
0.60992
0.621476
0.632344
0.642554
0.652138
0.661124
0.669542
0.677423
0.684793
0.69168
0.698111
0.704111
0.709704
0.714913
0.719745
0.724127
0.728333
0.732239
0.735856
0.739146
0.742225
0.745154
0.747933
0.75055
0.753
0.755284
0.757404
0.759361
0.761155
0.762785
0.764245
0.765543
0.76667
0.76762
0.768388
0.768975
0.769391
0.769662
0.769823
0.769912
0.769958
0.76998
0.769991
0.769996
0.769998
0.769999
0.77
0.77
0.77
0.77
0.77
0.77
0.77
3.06424e-06
1.33728e-05
3.06279e-05
5.93535e-05
0.000106874
0.0001849
0.000311884
0.000516403
0.000841838
0.00135251
0.00214114
0.00333705
0.00511337
0.00769068
0.0113333
0.0163344
0.0229889
0.0315569
0.0422273
0.0550906
0.0701303
0.087232
0.106205
0.126806
0.148765
0.171804
0.195648
0.220037
0.244731
0.269512
0.294188
0.318593
0.342582
0.366037
0.388862
0.410979
0.43233
0.45287
0.472567
0.491402
0.509368
0.526465
0.542702
0.558093
0.572658
0.586419
0.599401
0.611633
0.623144
0.633964
0.644124
0.653654
0.662584
0.670946
0.678767
0.686078
0.692906
0.699277
0.705218
0.710753
0.715906
0.720642
0.724977
0.729134
0.732995
0.736577
0.739837
0.742862
0.74576
0.748507
0.751091
0.753508
0.755758
0.757844
0.759765
0.761523
0.763117
0.764541
0.7658
0.766887
0.767797
0.768525
0.769074
0.769457
0.769701
0.769845
0.769923
0.769963
0.769983
0.769992
0.769996
0.769998
0.769999
0.77
0.77
0.77
0.77
0.77
0.77
0.77
3.0742e-06
1.3417e-05
3.07322e-05
5.95656e-05
0.000107279
0.000185649
0.000313234
0.00051879
0.00084598
0.00135955
0.00215286
0.00335611
0.00514359
0.00773733
0.0114032
0.016436
0.0231318
0.0317516
0.0424839
0.0554187
0.0705381
0.0877264
0.106791
0.127487
0.149543
0.172679
0.196619
0.221101
0.245884
0.270749
0.295504
0.319979
0.344031
0.367542
0.390413
0.412569
0.433951
0.454513
0.474224
0.493065
0.51103
0.52812
0.544343
0.559715
0.574255
0.587986
0.600934
0.613129
0.624599
0.635375
0.645489
0.654971
0.663852
0.672162
0.679933
0.687192
0.693968
0.700289
0.706181
0.71167
0.716782
0.7214
0.725703
0.729821
0.733638
0.737181
0.740423
0.743423
0.74629
0.749006
0.751558
0.753943
0.756163
0.758218
0.760108
0.761836
0.763399
0.764796
0.766022
0.767073
0.767946
0.768639
0.769154
0.769509
0.769732
0.769862
0.769932
0.769967
0.769985
0.769993
0.769997
0.769999
0.769999
0.77
0.77
0.77
0.77
0.77
0.77
0.77
3.08221e-06
1.34525e-05
3.08165e-05
5.97377e-05
0.00010761
0.000186263
0.000314349
0.000520776
0.000849445
0.00136547
0.00216277
0.00337229
0.00516937
0.00777727
0.0114633
0.0165236
0.0232554
0.0319202
0.0427066
0.055704
0.0708933
0.0881575
0.107302
0.128082
0.150223
0.173444
0.197468
0.222031
0.246891
0.271829
0.29665
0.321186
0.345292
0.368849
0.391761
0.413949
0.435355
0.455934
0.475656
0.494501
0.512463
0.529545
0.545754
0.561108
0.575624
0.589329
0.602247
0.614408
0.625841
0.636579
0.646651
0.656091
0.664928
0.673195
0.68092
0.688134
0.694864
0.701138
0.706983
0.712423
0.717473
0.722027
0.726389
0.730444
0.734207
0.737699
0.740913
0.743889
0.746732
0.749422
0.751948
0.754307
0.7565
0.758528
0.760391
0.76209
0.763622
0.764986
0.766184
0.767212
0.768061
0.768727
0.769217
0.76955
0.769757
0.769875
0.769939
0.769971
0.769986
0.769994
0.769997
0.769999
0.769999
0.77
0.77
0.77
0.77
0.77
0.77
0.77
3.08813e-06
1.34788e-05
3.08792e-05
5.98668e-05
0.00010786
0.000186732
0.000315211
0.000522324
0.000852171
0.00137017
0.00217069
0.00338532
0.00519024
0.0078098
0.0115125
0.0165956
0.0233574
0.0320599
0.0428918
0.0559418
0.0711903
0.0885187
0.107732
0.128582
0.150795
0.174088
0.198183
0.222815
0.247741
0.27274
0.297617
0.322203
0.346354
0.36995
0.392894
0.415108
0.436534
0.457127
0.476856
0.495703
0.513663
0.530736
0.546933
0.56227
0.576766
0.590447
0.603338
0.61547
0.626873
0.637577
0.647616
0.65702
0.665821
0.67405
0.681738
0.688914
0.695606
0.701843
0.707651
0.713054
0.718074
0.722597
0.726932
0.730961
0.734693
0.738136
0.741304
0.744263
0.747088
0.749759
0.752264
0.754604
0.756777
0.758786
0.760631
0.762309
0.763821
0.765162
0.766334
0.767332
0.768156
0.768799
0.769267
0.769582
0.769775
0.769885
0.769944
0.769973
0.769987
0.769994
0.769997
0.769999
0.769999
0.77
0.77
0.77
0.77
0.77
0.77
0.77
3.09198e-06
1.34959e-05
3.09205e-05
5.99529e-05
0.00010803
0.000187056
0.000315815
0.000523426
0.000854138
0.00137361
0.00217654
0.00339504
0.00520596
0.00783449
0.0115501
0.0166511
0.0234365
0.0321688
0.0430369
0.0561291
0.071425
0.0888053
0.108073
0.128981
0.151253
0.174605
0.198758
0.223446
0.248425
0.273473
0.298396
0.323023
0.34721
0.370837
0.393807
0.416042
0.437483
0.458086
0.477821
0.496669
0.514625
0.531691
0.547878
0.5632
0.57768
0.591341
0.604211
0.616319
0.627696
0.638373
0.648384
0.657759
0.66653
0.67473
0.682388
0.689534
0.696197
0.702406
0.708187
0.713568
0.718574
0.723096
0.727303
0.731336
0.735061
0.738464
0.741598
0.744548
0.747363
0.750021
0.752512
0.754835
0.756992
0.758982
0.760807
0.762466
0.763961
0.765289
0.766446
0.767427
0.768229
0.768854
0.769305
0.769606
0.76979
0.769893
0.769948
0.769975
0.769988
0.769995
0.769998
0.769999
0.77
0.77
0.77
0.77
0.77
0.77
0.77
0.77
3.09394e-06
1.35048e-05
3.09421e-05
5.99991e-05
0.000108123
0.000187241
0.000316171
0.000524096
0.000855367
0.0013758
0.00218037
0.00340151
0.00521659
0.00785142
0.0115762
0.01669
0.0234924
0.0322465
0.0431412
0.0562647
0.071596
0.0890153
0.108325
0.129277
0.151594
0.17499
0.199187
0.223918
0.248938
0.274025
0.298982
0.323641
0.347856
0.371506
0.394495
0.416745
0.438198
0.458809
0.478547
0.497396
0.515349
0.53241
0.548587
0.563899
0.578366
0.592012
0.604865
0.616955
0.628313
0.63897
0.64896
0.658314
0.667064
0.675241
0.682878
0.690002
0.696644
0.702832
0.708591
0.713949
0.718929
0.723436
0.727609
0.731617
0.735327
0.7387
0.741817
0.744761
0.747568
0.750216
0.752696
0.755007
0.757152
0.759131
0.760945
0.762593
0.764075
0.765389
0.766532
0.7675
0.768288
0.768896
0.769334
0.769624
0.7698
0.769899
0.769951
0.769977
0.769989
0.769995
0.769998
0.769999
0.77
0.77
0.77
0.77
0.77
0.77
0.77
0.77
3.09452e-06
1.35074e-05
3.0949e-05
6.00148e-05
0.000108158
0.000187315
0.000316322
0.000524398
0.00085595
0.00137689
0.00218233
0.00340494
0.00522238
0.00786088
0.0115911
0.0167126
0.0235256
0.0322935
0.0432052
0.056349
0.0717036
0.0891488
0.108487
0.129468
0.151815
0.175243
0.19947
0.22423
0.249278
0.274391
0.299373
0.324053
0.348287
0.371954
0.394957
0.417217
0.438677
0.459293
0.479034
0.497883
0.515834
0.53289
0.549062
0.564367
0.578824
0.59246
0.605302
0.617379
0.628724
0.639368
0.649343
0.658683
0.667418
0.675581
0.683203
0.690313
0.696941
0.703115
0.708861
0.714205
0.719172
0.723652
0.727807
0.731795
0.735489
0.738851
0.741965
0.744907
0.747709
0.750349
0.752821
0.755124
0.75726
0.759231
0.761036
0.762677
0.764151
0.765456
0.76659
0.767548
0.768327
0.768925
0.769354
0.769636
0.769807
0.769903
0.769953
0.769977
0.769989
0.769995
0.769998
0.769999
0.77
0.77
0.77
0.77
0.77
0.77
0.77
0.77
3.09444e-06
1.35071e-05
3.09483e-05
6.0014e-05
0.000108159
0.000187321
0.000316345
0.00052446
0.000856094
0.0013772
0.00218294
0.00340609
0.00522443
0.00786439
0.0115969
0.0167217
0.0235393
0.0323132
0.0432328
0.056386
0.0717518
0.0892096
0.108561
0.129557
0.151919
0.175363
0.199605
0.224381
0.249443
0.27457
0.299565
0.324257
0.348502
0.372178
0.395187
0.417452
0.438916
0.459534
0.479276
0.498126
0.516076
0.533131
0.5493
0.564601
0.579054
0.592685
0.605521
0.617593
0.628931
0.639569
0.649537
0.65887
0.667598
0.675755
0.68337
0.690474
0.697097
0.703264
0.709005
0.714343
0.719305
0.723767
0.727912
0.731887
0.735569
0.738928
0.742039
0.744979
0.747778
0.750415
0.752883
0.755182
0.757315
0.759281
0.761083
0.762719
0.764188
0.765489
0.766618
0.767571
0.768345
0.768939
0.769363
0.769642
0.769811
0.769904
0.769954
0.769978
0.76999
0.769995
0.769998
0.769999
0.77
0.77
0.77
0.77
0.77
0.77
0.77
0.77
3.09441e-06
1.35069e-05
3.09479e-05
6.00133e-05
0.000108157
0.000187319
0.000316342
0.000524454
0.000856085
0.00137719
0.00218293
0.00340608
0.00522444
0.00786444
0.011597
0.0167219
0.0235397
0.0323139
0.0432337
0.0563873
0.0717536
0.0892117
0.108564
0.12956
0.151923
0.175366
0.199609
0.224385
0.249448
0.274575
0.29957
0.324263
0.348507
0.372183
0.395193
0.417458
0.438922
0.459541
0.479283
0.498132
0.516083
0.533137
0.549307
0.564607
0.57906
0.592691
0.605527
0.617599
0.628937
0.639574
0.649543
0.658875
0.667604
0.675761
0.683376
0.690481
0.697104
0.703273
0.709015
0.714355
0.719318
0.723781
0.727924
0.731896
0.735574
0.738935
0.742045
0.744981
0.747779
0.750416
0.752885
0.755184
0.757317
0.759283
0.761085
0.762721
0.76419
0.76549
0.766619
0.767572
0.768345
0.768939
0.769363
0.769642
0.76981
0.769904
0.769954
0.769978
0.76999
0.769995
0.769998
0.769999
0.77
0.77
0.77
0.77
0.77
0.77
0.77
0.77
3.09439e-06
1.35069e-05
3.09477e-05
6.00123e-05
0.000108154
0.000187308
0.000316312
0.000524383
0.000855932
0.00137687
0.00218232
0.00340496
0.00522246
0.00786108
0.0115915
0.0167134
0.0235268
0.0322953
0.0432079
0.0563527
0.0717085
0.0891549
0.108494
0.129476
0.151825
0.175253
0.199481
0.224243
0.249291
0.274405
0.299388
0.324069
0.348304
0.371972
0.394974
0.417235
0.438696
0.459312
0.479053
0.497902
0.515853
0.53291
0.549082
0.564386
0.578843
0.592479
0.60532
0.617398
0.628743
0.639386
0.649362
0.658701
0.667437
0.6756
0.683223
0.690335
0.696965
0.70314
0.708889
0.714236
0.719206
0.723683
0.727833
0.731813
0.735497
0.738869
0.741986
0.744918
0.747714
0.750353
0.752825
0.755129
0.757267
0.759238
0.761043
0.762683
0.764156
0.76546
0.766592
0.767549
0.768327
0.768925
0.769354
0.769636
0.769807
0.769903
0.769953
0.769977
0.76999
0.769995
0.769998
0.769999
0.77
0.77
0.77
0.77
0.77
0.77
0.77
0.77
3.09367e-06
1.35036e-05
3.09396e-05
5.99946e-05
0.000108116
0.00018723
0.000316155
0.000524075
0.000855346
0.00137579
0.00218038
0.00340159
0.00521679
0.00785185
0.011577
0.0166913
0.0234946
0.0322499
0.043146
0.0562712
0.0716045
0.0890259
0.108338
0.129291
0.15161
0.175009
0.199207
0.22394
0.248961
0.274049
0.299008
0.323668
0.347884
0.371535
0.394525
0.416776
0.438229
0.458841
0.478579
0.497428
0.515382
0.532442
0.54862
0.563931
0.578397
0.592043
0.604896
0.616985
0.628343
0.639
0.648989
0.658342
0.667092
0.67527
0.682907
0.690033
0.696677
0.702867
0.708629
0.713989
0.718972
0.723475
0.72764
0.731637
0.735338
0.738731
0.741855
0.744787
0.747586
0.750228
0.752706
0.755017
0.75716
0.759139
0.760953
0.762602
0.764083
0.765395
0.766536
0.767502
0.768289
0.768897
0.769335
0.769624
0.7698
0.769899
0.769951
0.769977
0.769989
0.769995
0.769998
0.769999
0.77
0.77
0.77
0.77
0.77
0.77
0.77
0.77
3.09161e-06
1.34944e-05
3.09173e-05
5.99473e-05
0.000108021
0.000187043
0.000315798
0.000523409
0.000854128
0.00137362
0.00217661
0.00339522
0.00520633
0.00783521
0.0115514
0.0166531
0.0234397
0.0321736
0.0430436
0.0561381
0.0714367
0.0888199
0.108091
0.129002
0.151276
0.174631
0.198786
0.223476
0.248457
0.273508
0.298433
0.323062
0.34725
0.370878
0.393849
0.416085
0.437527
0.458131
0.477866
0.496715
0.514671
0.531737
0.547923
0.563245
0.577724
0.591385
0.604254
0.616361
0.627738
0.638415
0.648425
0.657799
0.66657
0.674769
0.682427
0.689573
0.696237
0.702446
0.708228
0.713609
0.718614
0.723132
0.727334
0.731358
0.735081
0.738502
0.741642
0.744583
0.747392
0.750046
0.752535
0.754856
0.757011
0.758999
0.760823
0.76248
0.763972
0.765297
0.766451
0.767431
0.768232
0.768855
0.769306
0.769607
0.76979
0.769893
0.769948
0.769975
0.769988
0.769995
0.769998
0.769999
0.77
0.77
0.77
0.77
0.77
0.77
0.77
0.77
3.08776e-06
1.34772e-05
3.0876e-05
5.98614e-05
0.000107852
0.000186722
0.0003152
0.000522317
0.000852181
0.00137022
0.00217082
0.0033856
0.00519078
0.00781076
0.0115141
0.0165982
0.0233615
0.0320659
0.0429002
0.0559532
0.0712051
0.0885372
0.107754
0.128608
0.150825
0.174122
0.19822
0.222855
0.247783
0.272785
0.297664
0.322253
0.346406
0.370003
0.392948
0.415164
0.436591
0.457185
0.476914
0.495762
0.513721
0.530795
0.546991
0.562328
0.576824
0.590504
0.603395
0.615526
0.626927
0.637631
0.647668
0.657071
0.665871
0.674099
0.681785
0.68896
0.695651
0.701886
0.707692
0.713094
0.718114
0.722637
0.726973
0.731004
0.734739
0.738181
0.741341
0.744298
0.747121
0.74979
0.752294
0.754632
0.756803
0.758809
0.760649
0.762323
0.76383
0.765169
0.766339
0.767337
0.768159
0.768801
0.769268
0.769582
0.769776
0.769886
0.769944
0.769973
0.769988
0.769994
0.769997
0.769999
0.769999
0.77
0.77
0.77
0.77
0.77
0.77
0.77
3.08186e-06
1.34511e-05
3.08136e-05
5.9733e-05
0.000107603
0.000186255
0.000314343
0.000520779
0.000849471
0.00136555
0.00216295
0.00337266
0.00517004
0.00777846
0.0114653
0.0165268
0.0232603
0.0319274
0.0427168
0.0557177
0.0709113
0.0881801
0.10733
0.128114
0.15026
0.173485
0.197513
0.22208
0.246943
0.271884
0.296708
0.321246
0.345355
0.368914
0.391827
0.414017
0.435424
0.456005
0.475727
0.494572
0.512535
0.529616
0.545826
0.561179
0.575695
0.589398
0.602316
0.614476
0.625908
0.636644
0.646716
0.656154
0.66499
0.673254
0.680977
0.688188
0.694916
0.701188
0.70703
0.712469
0.717519
0.722077
0.726447
0.730513
0.734284
0.737754
0.74095
0.743929
0.746773
0.749462
0.751986
0.754343
0.756532
0.758557
0.760416
0.76211
0.763638
0.764998
0.766192
0.767216
0.768063
0.768728
0.769218
0.76955
0.769757
0.769876
0.769939
0.769971
0.769986
0.769994
0.769997
0.769999
0.769999
0.77
0.77
0.77
0.77
0.77
0.77
0.77
3.07387e-06
1.34157e-05
3.07296e-05
5.95615e-05
0.000107274
0.000185644
0.000313233
0.000518803
0.000846024
0.00135966
0.0021531
0.00335656
0.00514441
0.00773876
0.0114056
0.0164398
0.0231376
0.03176
0.0424957
0.0554348
0.0705593
0.087753
0.106823
0.127525
0.149587
0.172728
0.196673
0.221159
0.245946
0.270815
0.295572
0.32005
0.344105
0.367618
0.390492
0.412649
0.434032
0.454596
0.474307
0.49315
0.511115
0.528204
0.544428
0.559799
0.574338
0.588069
0.601017
0.61321
0.62468
0.635455
0.645567
0.655048
0.663927
0.672237
0.680006
0.687263
0.694038
0.700357
0.706247
0.711735
0.716847
0.721468
0.725776
0.729903
0.733724
0.737242
0.740476
0.743482
0.746346
0.749059
0.751607
0.753988
0.756202
0.758252
0.760137
0.761858
0.763416
0.764807
0.766028
0.767076
0.767946
0.768638
0.769154
0.769509
0.769733
0.769863
0.769933
0.769968
0.769985
0.769993
0.769997
0.769999
0.769999
0.77
0.77
0.77
0.77
0.77
0.77
0.77
3.06394e-06
1.33717e-05
3.06256e-05
5.93502e-05
0.000106871
0.000184899
0.00031189
0.000516428
0.000841904
0.00135266
0.00214144
0.00333761
0.00511437
0.00769238
0.0113361
0.0163387
0.0229955
0.0315666
0.0422409
0.0551091
0.0701546
0.0872627
0.106242
0.12685
0.148816
0.171861
0.19571
0.220104
0.244803
0.269588
0.294268
0.318675
0.342667
0.366125
0.388952
0.411071
0.432424
0.452965
0.472663
0.491499
0.509465
0.526562
0.542799
0.55819
0.572754
0.586514
0.599496
0.611728
0.623238
0.634057
0.644215
0.653744
0.662674
0.671034
0.678855
0.686165
0.692992
0.699363
0.705304
0.710839
0.715993
0.720728
0.725062
0.729218
0.733074
0.736643
0.739926
0.742957
0.745832
0.748568
0.751146
0.753557
0.755801
0.757881
0.759796
0.761548
0.763135
0.764553
0.765808
0.766891
0.767797
0.768525
0.769074
0.769457
0.769703
0.769846
0.769924
0.769964
0.769983
0.769992
0.769996
0.769998
0.769999
0.77
0.77
0.77
0.77
0.77
0.77
0.77
3.05233e-06
1.33203e-05
3.05043e-05
5.91045e-05
0.000106403
0.000184039
0.000310346
0.000513708
0.000837206
0.0013447
0.00212825
0.00331623
0.00508055
0.00764032
0.0112582
0.0162258
0.0228368
0.0313509
0.0419571
0.0547466
0.0697045
0.0867177
0.105596
0.1261
0.147959
0.170896
0.194639
0.218929
0.243527
0.268218
0.29281
0.317136
0.341056
0.36445
0.387221
0.409294
0.43061
0.451123
0.470802
0.489628
0.507592
0.524695
0.540945
0.556356
0.570946
0.584737
0.597755
0.610027
0.621582
0.63245
0.642659
0.652242
0.661227
0.669645
0.677525
0.684894
0.691781
0.698211
0.704209
0.7098
0.715006
0.71983
0.724204
0.728402
0.732301
0.735921
0.739261
0.742351
0.745249
0.748011
0.750617
0.753059
0.755336
0.757449
0.759398
0.761185
0.762808
0.764261
0.765553
0.766673
0.76762
0.768388
0.768975
0.769392
0.769664
0.769825
0.769913
0.769958
0.76998
0.769991
0.769996
0.769998
0.769999
0.77
0.77
0.77
0.77
0.77
0.77
0.77
3.03936e-06
1.3263e-05
3.03691e-05
5.8831e-05
0.000105884
0.000183087
0.00030864
0.000510712
0.000832044
0.00133598
0.00211383
0.00329291
0.00504375
0.00758376
0.0111737
0.0161035
0.0226652
0.0311178
0.0416502
0.0543549
0.0692181
0.0861284
0.104898
0.125288
0.14703
0.16985
0.193476
0.217651
0.242139
0.266724
0.291217
0.315452
0.339288
0.362608
0.385316
0.407334
0.428605
0.449084
0.468738
0.487549
0.505507
0.522613
0.538873
0.554302
0.568917
0.58274
0.595796
0.608111
0.619713
0.630632
0.640896
0.650537
0.659582
0.668063
0.676007
0.683441
0.690395
0.696893
0.702961
0.708623
0.713904
0.718812
0.723249
0.727491
0.73143
0.73508
0.738478
0.741609
0.744541
0.747339
0.749987
0.752471
0.75479
0.756943
0.758932
0.760758
0.762422
0.763918
0.765252
0.766418
0.76741
0.768223
0.768855
0.769312
0.769614
0.769797
0.769899
0.769951
0.769977
0.76999
0.769995
0.769998
0.769999
0.77
0.77
0.77
0.77
0.77
0.77
0.77
3.02541e-06
1.32013e-05
3.02237e-05
5.8537e-05
0.000105327
0.000182066
0.000306814
0.000507512
0.000826542
0.0013267
0.00209852
0.00326819
0.00500481
0.00752402
0.0110846
0.0159745
0.0224844
0.0308723
0.0413273
0.0539426
0.0687058
0.0855074
0.104161
0.12443
0.146048
0.168742
0.192242
0.216293
0.24066
0.265129
0.289512
0.313645
0.337388
0.360624
0.383257
0.405211
0.426428
0.446865
0.466488
0.485277
0.503224
0.520327
0.536595
0.55204
0.566678
0.580532
0.593625
0.605983
0.617634
0.628606
0.638929
0.64863
0.65774
0.666287
0.674299
0.681803
0.688827
0.695396
0.701536
0.707271
0.712625
0.71762
0.722153
0.726378
0.730423
0.734171
0.73762
0.740806
0.74377
0.746593
0.749276
0.751802
0.754165
0.756364
0.758399
0.760271
0.761981
0.763527
0.764908
0.766122
0.767164
0.768028
0.76871
0.769213
0.769553
0.769762
0.769881
0.769942
0.769973
0.769988
0.769994
0.769997
0.769999
0.77
0.77
0.77
0.77
0.77
0.77
0.77
3.01082e-06
1.31368e-05
3.00716e-05
5.82298e-05
0.000104744
0.000181001
0.000304913
0.000504185
0.000820831
0.0013171
0.00208269
0.00324269
0.00496471
0.00746258
0.0109931
0.0158422
0.022299
0.0306206
0.0409961
0.0535195
0.0681797
0.084869
0.103403
0.123546
0.145034
0.167595
0.190961
0.21488
0.239117
0.26346
0.287724
0.311745
0.335384
0.358525
0.381073
0.402953
0.424107
0.444492
0.464074
0.482834
0.500763
0.517859
0.534129
0.549585
0.564244
0.578127
0.591256
0.603657
0.615357
0.626384
0.636766
0.646531
0.655708
0.664325
0.672408
0.679986
0.687084
0.693726
0.699939
0.705744
0.711164
0.716221
0.720885
0.725173
0.72929
0.733111
0.736647
0.739907
0.742934
0.745788
0.748507
0.751073
0.753477
0.75572
0.757802
0.759723
0.761483
0.763081
0.764509
0.765778
0.766877
0.767798
0.768536
0.769091
0.769475
0.769718
0.769857
0.769931
0.769968
0.769985
0.769993
0.769997
0.769999
0.769999
0.77
0.77
0.77
0.77
0.77
0.77
2.99583e-06
1.30705e-05
2.99154e-05
5.79142e-05
0.000104147
0.000179909
0.000302965
0.000500782
0.000815004
0.00130731
0.00206661
0.00321686
0.00492421
0.0074007
0.0109011
0.0157095
0.0221134
0.030369
0.0406652
0.0530967
0.0676537
0.0842299