/*--------------------------------*- C++ -*----------------------------------*\
  =========                 |
  \\      /  F ield         | OpenFOAM: The Open Source CFD Toolbox
   \\    /   O peration     | Website:  https://openfoam.org
    \\  /    A nd           | Version:  8
     \\/     M anipulation  |
\*---------------------------------------------------------------------------*/
FoamFile
{
    version     2.0;
    format      ascii;
    class       volScalarField;
    location    "120/fluid";
    object      O2;
}
// * * * * * * * * * * * * * * * * * * * * * * * * * * * * * * * * * * * * * //

dimensions      [0 0 0 0 0 0 0];

internalField   nonuniform List<scalar> 
4000
(
3.63513e-10
1.58421e-09
3.61744e-09
6.97993e-09
1.25014e-08
2.14992e-08
3.60383e-08
5.93037e-08
9.61155e-08
1.53602e-07
2.42015e-07
3.75597e-07
5.7331e-07
8.5909e-07
1.26119e-06
1.81023e-06
2.53579e-06
3.46212e-06
4.60409e-06
5.96423e-06
7.52423e-06
9.26232e-06
1.11471e-05
1.3142e-05
1.52075e-05
1.73028e-05
1.94111e-05
2.15005e-05
2.35452e-05
2.55245e-05
2.74223e-05
2.92275e-05
3.09337e-05
3.25417e-05
3.40622e-05
3.55212e-05
3.69673e-05
3.84812e-05
4.01844e-05
4.22475e-05
4.48995e-05
4.84328e-05
5.32072e-05
5.96567e-05
6.82988e-05
7.97506e-05
9.47525e-05
0.000114202
0.000139196
0.000171093
0.000211579
0.000262761
0.000327278
0.000408444
0.000510426
0.000638472
0.000799207
0.00100101
0.00125453
0.00157329
0.00197462
0.00248075
0.00312048
0.00393129
0.00495983
0.00625808
0.00794885
0.0101335
0.0129804
0.0167257
0.0240589
0.0399342
0.0559752
0.0720081
0.0878841
0.103472
0.118654
0.13332
0.147368
0.160692
0.173182
0.184686
0.195151
0.204371
0.212188
0.218454
0.223098
0.226215
0.228088
0.229096
0.229589
0.229818
0.229921
0.229966
0.229986
0.229994
0.229998
0.229999
0.23
0.23
3.67719e-10
1.60354e-09
3.66563e-09
7.08342e-09
1.27087e-08
2.18962e-08
3.67707e-08
6.06098e-08
9.83684e-08
1.57361e-07
2.48076e-07
3.85038e-07
5.87511e-07
8.79712e-07
1.29008e-06
1.84919e-06
2.58618e-06
3.52416e-06
4.67585e-06
6.04113e-06
7.61504e-06
9.37227e-06
1.12808e-05
1.33051e-05
1.54102e-05
1.75649e-05
1.97182e-05
2.18438e-05
2.39184e-05
2.59222e-05
2.78397e-05
2.96596e-05
3.13761e-05
3.29902e-05
3.45136e-05
3.59738e-05
3.74221e-05
3.89427e-05
4.06616e-05
4.27547e-05
4.54567e-05
4.90657e-05
5.39465e-05
6.05376e-05
6.93619e-05
8.10429e-05
9.63299e-05
0.000116133
0.000141569
0.000174019
0.000215205
0.000267277
0.000332933
0.000415561
0.000519422
0.000649878
0.000813693
0.0010194
0.00127779
0.00160253
0.00201095
0.00252509
0.00317306
0.00399091
0.00502248
0.00631273
0.0079755
0.0100972
0.0128273
0.0163909
0.0265711
0.0426644
0.0588934
0.0750882
0.091103
0.106808
0.122087
0.136827
0.150918
0.16425
0.176669
0.188107
0.198372
0.20729
0.214687
0.220425
0.224495
0.227088
0.228568
0.229328
0.229694
0.229864
0.22994
0.229974
0.229989
0.229995
0.229998
0.229999
0.23
0.23
3.75445e-10
1.63787e-09
3.74707e-09
7.24845e-09
1.30204e-08
2.24603e-08
3.77596e-08
6.22949e-08
1.01165e-07
1.61882e-07
2.55202e-07
3.9599e-07
6.03943e-07
9.03811e-07
1.32469e-06
1.89795e-06
2.65373e-06
3.61641e-06
4.80019e-06
6.2062e-06
7.82201e-06
9.62352e-06
1.15783e-05
1.36493e-05
1.57983e-05
1.7988e-05
2.01835e-05
2.23537e-05
2.44724e-05
2.65177e-05
2.84723e-05
3.0324e-05
3.20664e-05
3.37005e-05
3.5239e-05
3.67118e-05
3.81739e-05
3.97157e-05
4.14705e-05
4.36229e-05
4.64176e-05
5.0162e-05
5.52302e-05
6.20698e-05
7.12138e-05
8.32987e-05
9.90918e-05
0.000119528
0.000145759
0.000179215
0.00022168
0.000275394
0.000343169
0.000428548
0.000535993
0.000671136
0.00084109
0.00105484
0.00132376
0.00166222
0.0020884
0.00262525
0.00330162
0.00415355
0.00522132
0.0065468
0.00822825
0.0103192
0.0128799
0.0159081
0.0306983
0.0471789
0.063661
0.0800204
0.0961331
0.111879
0.127143
0.14181
0.155766
0.16889
0.180988
0.192045
0.201822
0.210155
0.216896
0.221972
0.225458
0.227619
0.228832
0.229452
0.22975
0.229888
0.229951
0.229979
0.229991
0.229996
0.229998
0.229999
0.23
0.23
3.83153e-10
1.67174e-09
3.82574e-09
7.40369e-09
1.33053e-08
2.29622e-08
3.86181e-08
6.373e-08
1.03515e-07
1.6566e-07
2.61164e-07
4.05234e-07
6.18016e-07
9.24832e-07
1.35547e-06
1.94212e-06
2.71577e-06
3.70166e-06
4.91477e-06
6.35678e-06
8.01541e-06
9.86627e-06
1.18761e-05
1.40068e-05
1.62186e-05
1.84725e-05
2.07327e-05
2.29668e-05
2.51469e-05
2.72499e-05
2.92571e-05
3.11552e-05
3.2937e-05
3.46038e-05
3.61693e-05
3.76661e-05
3.91547e-05
4.07326e-05
4.25429e-05
4.47822e-05
4.77079e-05
5.16402e-05
5.69657e-05
6.41455e-05
7.37277e-05
8.63684e-05
0.000102862
0.000124179
0.000151524
0.000186396
0.000230677
0.000286734
0.000357557
0.000446927
0.000559636
0.000701762
0.000881041
0.00110733
0.00139324
0.00175495
0.00221329
0.00279531
0.00353628
0.00448277
0.00567685
0.00721296
0.00924366
0.0118929
0.0154001
0.0204312
0.0367027
0.0531892
0.0696947
0.0860555
0.102127
0.11778
0.132891
0.147341
0.161009
0.173769
0.18547
0.196014
0.20521
0.212907
0.218984
0.223422
0.226367
0.228132
0.229095
0.229577
0.229807
0.229914
0.229962
0.229983
0.229993
0.229997
0.229999
0.23
0.23
0.23
3.90806e-10
1.70533e-09
3.9036e-09
7.55717e-09
1.35874e-08
2.34607e-08
3.9477e-08
6.51803e-08
1.0592e-07
1.6958e-07
2.67439e-07
4.15095e-07
6.33212e-07
9.47774e-07
1.38937e-06
1.99107e-06
2.78486e-06
3.79687e-06
5.04286e-06
6.52504e-06
8.23138e-06
1.01373e-05
1.22091e-05
1.44076e-05
1.66917e-05
1.90213e-05
2.13585e-05
2.36695e-05
2.59246e-05
2.80989e-05
3.01724e-05
3.21305e-05
3.39652e-05
3.56778e-05
3.72835e-05
3.88185e-05
4.03494e-05
4.19828e-05
4.38738e-05
4.62337e-05
4.93357e-05
5.35156e-05
5.91764e-05
6.67964e-05
7.69442e-05
9.0302e-05
0.000107699
0.000130156
0.000158941
0.000195642
0.000242262
0.000301327
0.000376044
0.000470481
0.000589813
0.000740638
0.000931383
0.00117284
0.00147887
0.00186731
0.00236123
0.00299059
0.00379446
0.00482146
0.00611555
0.00781389
0.0100203
0.0129074
0.0167354
0.0268728
0.0431796
0.0596871
0.0761782
0.0924762
0.10843
0.123905
0.138778
0.152927
0.166232
0.178525
0.189761
0.199742
0.20832
0.215358
0.220775
0.224611
0.227078
0.228517
0.229286
0.229667
0.229848
0.229932
0.22997
0.229987
0.229994
0.229998
0.229999
0.23
0.23
0.23
3.98231e-10
1.73788e-09
3.97888e-09
7.70523e-09
1.38589e-08
2.39403e-08
4.03037e-08
6.65789e-08
1.08248e-07
1.73393e-07
2.7359e-07
4.2485e-07
6.48411e-07
9.71009e-07
1.42416e-06
2.04203e-06
2.85773e-06
3.89851e-06
5.18103e-06
6.70811e-06
8.46795e-06
1.04358e-05
1.25772e-05
1.48522e-05
1.72184e-05
1.9634e-05
2.20596e-05
2.44594e-05
2.68021e-05
2.90608e-05
3.1214e-05
3.32457e-05
3.51471e-05
3.69196e-05
3.85804e-05
4.01699e-05
4.17624e-05
4.34752e-05
4.54771e-05
4.79978e-05
5.13285e-05
5.58241e-05
6.1907e-05
7.0077e-05
8.09287e-05
9.51775e-05
0.000113697
0.000137567
0.000168135
0.000207098
0.000256598
0.000319352
0.000398812
0.000499373
0.000626639
0.000787768
0.000991919
0.00125083
0.00157959
0.00199759
0.00252978
0.0032083
0.00407436
0.0051727
0.00655784
0.00836398
0.0106514
0.013509
0.0169286
0.0328081
0.049447
0.0661007
0.0826123
0.0988358
0.114636
0.129889
0.144475
0.158278
0.171179
0.182998
0.19372
0.203132
0.211096
0.2175
0.222301
0.2256
0.227658
0.228828
0.229439
0.229739
0.229881
0.229947
0.229977
0.22999
0.229996
0.229998
0.229999
0.23
0.23
0.23
4.05602e-10
1.7702e-09
4.05373e-09
7.8527e-09
1.41301e-08
2.44211e-08
4.11362e-08
6.79951e-08
1.1062e-07
1.77306e-07
2.79944e-07
4.34998e-07
6.6433e-07
9.95492e-07
1.46102e-06
2.09628e-06
2.93562e-06
4.00755e-06
5.32975e-06
6.90579e-06
8.72415e-06
1.076e-05
1.29783e-05
1.5338e-05
1.77956e-05
2.03076e-05
2.2833e-05
2.53339e-05
2.77772e-05
3.01342e-05
3.23814e-05
3.45015e-05
3.64849e-05
3.83335e-05
4.00666e-05
4.17299e-05
4.34066e-05
4.52268e-05
4.73765e-05
5.01048e-05
5.37241e-05
5.86108e-05
6.52102e-05
7.40476e-05
8.57486e-05
0.000101069
0.000120934
0.000146496
0.000179196
0.000220857
0.000273788
0.000340927
0.00042602
0.000533851
0.000670542
0.000843944
0.00106415
0.00134419
0.0017009
0.00215621
0.00273882
0.00348669
0.00445064
0.00567073
0.00725776
0.00939879
0.0122634
0.0161935
0.0228016
0.0392114
0.0558414
0.0724622
0.0888903
0.104971
0.120568
0.135559
0.149827
0.163255
0.175724
0.18712
0.197311
0.206156
0.213525
0.219327
0.223565
0.226394
0.22811
0.229064
0.229554
0.229793
0.229906
0.229958
0.229981
0.229992
0.229996
0.229998
0.229999
0.23
0.23
0.23
4.12936e-10
1.80236e-09
4.12823e-09
7.99957e-09
1.44005e-08
2.4901e-08
4.1969e-08
6.94157e-08
1.13007e-07
1.8126e-07
2.86394e-07
4.45351e-07
6.80659e-07
1.02076e-06
1.49929e-06
2.15292e-06
3.01742e-06
4.12264e-06
5.48748e-06
7.11631e-06
8.99805e-06
1.11077e-05
1.341e-05
1.58627e-05
1.8421e-05
2.10399e-05
2.36766e-05
2.62914e-05
2.8849e-05
3.13189e-05
3.36757e-05
3.59006e-05
3.79834e-05
3.99264e-05
4.17518e-05
4.35118e-05
4.52997e-05
4.72604e-05
4.95996e-05
5.25884e-05
5.65622e-05
6.19214e-05
6.91368e-05
7.87628e-05
9.14601e-05
0.00010803
0.000129458
0.000156974
0.000192125
0.00023687
0.000293696
0.000365778
0.000457165
0.000573041
0.000720046
0.0009067
0.00114395
0.00144589
0.00183066
0.00232166
0.00294901
0.0037515
0.00477555
0.00605419
0.0077298
0.00987675
0.0126121
0.0160615
0.0286168
0.0452215
0.0619097
0.0784949
0.0948144
0.110725
0.126096
0.140811
0.154756
0.167818
0.179834
0.190787
0.200484
0.208796
0.21561
0.220861
0.224599
0.227027
0.228463
0.229246
0.229642
0.229834
0.229925
0.229966
0.229985
0.229993
0.229997
0.229999
0.229999
0.23
0.23
0.23
4.20239e-10
1.8344e-09
4.20248e-09
8.14608e-09
1.46705e-08
2.53813e-08
4.28043e-08
7.08444e-08
1.15416e-07
1.85263e-07
2.9295e-07
4.55919e-07
6.97395e-07
1.04675e-06
1.53883e-06
2.21167e-06
3.10259e-06
4.24293e-06
5.6529e-06
7.33787e-06
9.28729e-06
1.14763e-05
1.38689e-05
1.64224e-05
1.90906e-05
2.1827e-05
2.45868e-05
2.73286e-05
3.0015e-05
3.26135e-05
3.50968e-05
3.74447e-05
3.96461e-05
4.17044e-05
4.36453e-05
4.55285e-05
4.7459e-05
4.95982e-05
5.21743e-05
5.5482e-05
5.98819e-05
6.58003e-05
7.37358e-05
8.42748e-05
9.81177e-05
0.000116116
0.000139323
0.000169054
0.00020697
0.000255179
0.000316362
0.000393946
0.000492313
0.000617079
0.000775455
0.000976722
0.00123284
0.00155927
0.001976
0.00250898
0.00319188
0.00406844
0.00518402
0.00660286
0.00848231
0.0108931
0.0139752
0.0178196
0.0341998
0.0508772
0.0675662
0.0840849
0.100277
0.116004
0.131143
0.14558
0.159205
0.171908
0.183524
0.194042
0.203268
0.21108
0.21738
0.222133
0.225435
0.227526
0.228736
0.229385
0.229709
0.229865
0.229939
0.229973
0.229988
0.229995
0.229998
0.229999
0.23
0.23
0.23
0.23
4.27452e-10
1.86604e-09
4.27584e-09
8.2909e-09
1.49377e-08
2.58571e-08
4.36333e-08
7.22655e-08
1.17818e-07
1.89268e-07
2.9953e-07
4.66562e-07
7.14317e-07
1.07315e-06
1.57913e-06
2.2718e-06
3.19009e-06
4.367e-06
5.82417e-06
7.56811e-06
9.58895e-06
1.1862e-05
1.43511e-05
1.70127e-05
1.97994e-05
2.26634e-05
2.55582e-05
2.84404e-05
3.12707e-05
3.40143e-05
3.66424e-05
3.91329e-05
4.14745e-05
4.36716e-05
4.57542e-05
4.77904e-05
4.98989e-05
5.22603e-05
5.51258e-05
5.8816e-05
6.37176e-05
7.02844e-05
7.90448e-05
9.06197e-05
0.000105753
0.000125351
0.000150538
0.000182724
0.00022369
0.000275701
0.000341641
0.000425201
0.000531106
0.000665427
0.00083598
0.00105286
0.00132916
0.00168193
0.0021335
0.00271335
0.00346067
0.00442826
0.0056545
0.00725971
0.00944015
0.0123561
0.0163257
0.0229669
0.0394549
0.056135
0.0727793
0.089203
0.105251
0.120789
0.135696
0.149861
0.163175
0.175529
0.186813
0.19691
0.205691
0.213039
0.21887
0.223181
0.226107
0.227919
0.228948
0.229491
0.22976
0.229889
0.22995
0.229977
0.22999
0.229996
0.229998
0.229999
0.23
0.23
0.23
0.23
4.34488e-10
1.89692e-09
4.34743e-09
8.43236e-09
1.5199e-08
2.6323e-08
4.44465e-08
7.36627e-08
1.20186e-07
1.93227e-07
3.06056e-07
4.77155e-07
7.31219e-07
1.0996e-06
1.61968e-06
2.33253e-06
3.2788e-06
4.49322e-06
5.99906e-06
7.80408e-06
9.89929e-06
1.22604e-05
1.4851e-05
1.76271e-05
2.05404e-05
2.35416e-05
2.65827e-05
2.96185e-05
3.26078e-05
3.55138e-05
3.83059e-05
4.09605e-05
4.34658e-05
4.58279e-05
4.80819e-05
5.03054e-05
5.26319e-05
5.52632e-05
5.84751e-05
6.26144e-05
6.80952e-05
7.53994e-05
8.50863e-05
9.78137e-05
0.000114371
0.000135724
0.000163071
0.000197919
0.000242171
0.000298245
0.00036922
0.000459023
0.000572671
0.000716586
0.000898994
0.00113046
0.00142457
0.00179884
0.00227592
0.00288521
0.003665
0.00466287
0.00591024
0.00756385
0.00970602
0.0124941
0.0161458
0.027472
0.0441105
0.0608387
0.0774568
0.0937941
0.109705
0.125064
0.139754
0.153668
0.1667
0.178719
0.189667
0.199391
0.207772
0.214701
0.220112
0.224037
0.226645
0.228227
0.229112
0.229572
0.229798
0.229907
0.229958
0.229981
0.229992
0.229996
0.229998
0.229999
0.23
0.23
0.23
0.23
4.4124e-10
1.92655e-09
4.41618e-09
8.56827e-09
1.54503e-08
2.67719e-08
4.52315e-08
7.50144e-08
1.22482e-07
1.97078e-07
3.12425e-07
4.87529e-07
7.47829e-07
1.1257e-06
1.65983e-06
2.39288e-06
3.36729e-06
4.61963e-06
6.17486e-06
8.04219e-06
1.02136e-05
1.26655e-05
1.53615e-05
1.82572e-05
2.13037e-05
2.44505e-05
2.76484e-05
3.08504e-05
3.40135e-05
3.70993e-05
4.00752e-05
4.29165e-05
4.56111e-05
4.81671e-05
5.06255e-05
5.30745e-05
5.56631e-05
5.8616e-05
6.22339e-05
6.68904e-05
7.30265e-05
8.11528e-05
9.18605e-05
0.000105847
0.00012395
0.0001472
0.000176878
0.000214597
0.000262399
0.000322876
0.00039933
0.000495971
0.000618172
0.000772796
0.00096861
0.00121682
0.00153172
0.00193156
0.00243955
0.00308516
0.00390548
0.00494307
0.00622715
0.00790239
0.0100114
0.0126456
0.0158489
0.0313556
0.0482044
0.0650137
0.0816194
0.0978782
0.113661
0.12885
0.143338
0.15702
0.169793
0.181506
0.192145
0.201529
0.209547
0.2161
0.221141
0.224732
0.227073
0.228469
0.229238
0.229634
0.229828
0.229921
0.229964
0.229984
0.229993
0.229997
0.229999
0.229999
0.23
0.23
0.23
0.23
4.47589e-10
1.95441e-09
4.48086e-09
8.69627e-09
1.56873e-08
2.71959e-08
4.59746e-08
7.62973e-08
1.24668e-07
2.00755e-07
3.18526e-07
4.975e-07
7.63854e-07
1.15097e-06
1.69885e-06
2.45176e-06
3.45394e-06
4.74386e-06
6.3483e-06
8.27803e-06
1.05263e-05
1.307e-05
1.58735e-05
1.88922e-05
2.20766e-05
2.53756e-05
2.87388e-05
3.2118e-05
3.54688e-05
3.8751e-05
4.19305e-05
4.49817e-05
4.78923e-05
5.06732e-05
5.33719e-05
5.60878e-05
5.89867e-05
6.23154e-05
6.63993e-05
7.1637e-05
7.84957e-05
8.75129e-05
9.93112e-05
0.000114627
0.000134348
0.000159569
0.000191657
0.000232334
0.000283784
0.000348791
0.000430903
0.000534664
0.000665894
0.000832065
0.00104279
0.00131044
0.00165101
0.00208516
0.00263967
0.00334931
0.00425927
0.00541565
0.00687908
0.00882361
0.011337
0.0145998
0.0188323
0.035403
0.0521634
0.0688872
0.0853933
0.10153
0.117165
0.132183
0.146476
0.159941
0.172477
0.183944
0.194298
0.203368
0.211055
0.217271
0.221989
0.225295
0.227414
0.228659
0.229337
0.229682
0.229851
0.229932
0.229969
0.229986
0.229994
0.229997
0.229999
0.23
0.23
0.23
0.23
0.23
4.53412e-10
1.97998e-09
4.54025e-09
8.81392e-09
1.59054e-08
2.7587e-08
4.66616e-08
7.74865e-08
1.26701e-07
2.04185e-07
3.24238e-07
5.06869e-07
7.78967e-07
1.1749e-06
1.73593e-06
2.50791e-06
3.53689e-06
4.86325e-06
6.51561e-06
8.50642e-06
1.08303e-05
1.34652e-05
1.63759e-05
1.95182e-05
2.28426e-05
2.62975e-05
2.98319e-05
3.33968e-05
3.69467e-05
4.04402e-05
4.38422e-05
4.71262e-05
5.02807e-05
5.33195e-05
5.62973e-05
5.9325e-05
6.25851e-05
6.63449e-05
7.09527e-05
7.68298e-05
8.44658e-05
9.44225e-05
0.000107351
0.000124023
0.000145373
0.000172551
0.000207
0.000250537
0.000305468
0.000374732
0.000462086
0.000572343
0.000711688
0.000888091
0.00111186
0.00139637
0.00175903
0.00222267
0.00281732
0.00358274
0.00457187
0.00581833
0.0074434
0.00963112
0.0125072
0.0163209
0.0222293
0.0388304
0.0555736
0.072244
0.088666
0.104691
0.120191
0.13505
0.149165
0.162434
0.174756
0.186033
0.196125
0.20492
0.212312
0.218237
0.222677
0.225745
0.227683
0.228807
0.229413
0.22972
0.229869
0.22994
0.229973
0.229988
0.229995
0.229998
0.229999
0.23
0.23
0.23
0.23
0.23
4.58588e-10
2.00271e-09
4.5931e-09
8.91876e-09
1.61002e-08
2.7937e-08
4.72782e-08
7.85571e-08
1.28537e-07
2.07295e-07
3.29435e-07
5.15427e-07
7.92823e-07
1.19691e-06
1.77018e-06
2.55998e-06
3.61409e-06
4.97476e-06
6.67248e-06
8.7214e-06
1.11176e-05
1.38402e-05
1.68551e-05
2.01184e-05
2.3581e-05
2.71916e-05
3.08989e-05
3.46539e-05
3.84103e-05
4.21265e-05
4.57669e-05
4.93048e-05
5.27302e-05
5.60608e-05
5.93588e-05
6.27456e-05
6.64191e-05
7.06653e-05
7.58514e-05
8.24175e-05
9.08719e-05
0.000101797
0.000115867
0.000133885
0.00015682
0.000185872
0.000222535
0.000268695
0.000326737
0.000399695
0.000491433
0.000606891
0.000752396
0.000936074
0.0011684
0.0014629
0.00183714
0.00231404
0.00292357
0.00370522
0.00470946
0.0059709
0.00765985
0.00986936
0.0127755
0.0166237
0.0249688
0.0416311
0.0583896
0.0750357
0.0913998
0.107338
0.122726
0.137452
0.151411
0.164501
0.176619
0.187651
0.197531
0.206139
0.213323
0.219013
0.223228
0.226101
0.227894
0.228922
0.229472
0.229748
0.229882
0.229946
0.229976
0.229989
0.229995
0.229998
0.229999
0.23
0.23
0.23
0.23
0.23
4.63e-10
2.0221e-09
4.63823e-09
9.00847e-09
1.62672e-08
2.82381e-08
4.78104e-08
7.94847e-08
1.30134e-07
2.10011e-07
3.33992e-07
5.22961e-07
8.0507e-07
1.21645e-06
1.80068e-06
2.60651e-06
3.68333e-06
5.07513e-06
6.8142e-06
8.91636e-06
1.13792e-05
1.41833e-05
1.72954e-05
2.06728e-05
2.42671e-05
2.80276e-05
3.19036e-05
3.58465e-05
3.98105e-05
4.37544e-05
4.7643e-05
5.1451e-05
5.51706e-05
5.88246e-05
6.2483e-05
6.62756e-05
7.04135e-05
7.51975e-05
8.10093e-05
8.83034e-05
9.76026e-05
0.000109506
0.000124708
0.000144035
0.000168488
0.000199299
0.000238003
0.000286528
0.000347304
0.000423407
0.000518737
0.000638248
0.000788245
0.000976764
0.00121407
0.00151328
0.00189123
0.00236955
0.00297611
0.00374692
0.00472816
0.00594376
0.00754896
0.00961506
0.0122822
0.0157389
0.0269104
0.0437583
0.0606028
0.0772695
0.0936091
0.109491
0.124797
0.139422
0.153263
0.166221
0.17819
0.189074
0.198766
0.207146
0.21414
0.219636
0.223664
0.22638
0.228057
0.229011
0.229517
0.22977
0.229893
0.229951
0.229978
0.22999
0.229996
0.229998
0.229999
0.23
0.23
0.23
0.23
0.23
4.66535e-10
2.03765e-09
4.67451e-09
9.08081e-09
1.64025e-08
2.8483e-08
4.82454e-08
8.02465e-08
1.31452e-07
2.12262e-07
3.37788e-07
5.29263e-07
8.15361e-07
1.23293e-06
1.82652e-06
2.64606e-06
3.74238e-06
5.16103e-06
6.93587e-06
9.08433e-06
1.16055e-05
1.44812e-05
1.76795e-05
2.11589e-05
2.48722e-05
2.87697e-05
3.2802e-05
3.69215e-05
4.10841e-05
4.52499e-05
4.93856e-05
5.34687e-05
5.74956e-05
6.1496e-05
6.55477e-05
6.97851e-05
7.44294e-05
7.97909e-05
8.62611e-05
9.43042e-05
0.000104454
0.000117324
0.000133628
0.000154211
0.0001801
0.000212555
0.000253141
0.000303817
0.000367042
0.000445916
0.000544349
0.000667286
0.000820982
0.00101336
0.00125446
0.00155704
0.00193727
0.00241575
0.00301869
0.00377951
0.00474096
0.00592228
0.00741717
0.00936982
0.0118466
0.0149853
0.0284719
0.0454559
0.0623624
0.0790415
0.0953584
0.11119
0.126426
0.140961
0.154698
0.167539
0.179397
0.190174
0.199735
0.207968
0.214777
0.220118
0.224
0.226594
0.228182
0.229078
0.229551
0.229787
0.229901
0.229955
0.229979
0.229991
0.229996
0.229998
0.229999
0.23
0.23
0.23
0.23
0.23
4.69128e-10
2.04904e-09
4.70104e-09
9.1337e-09
1.65016e-08
2.86632e-08
4.85675e-08
8.08152e-08
1.32444e-07
2.13974e-07
3.40698e-07
5.34134e-07
8.23364e-07
1.24581e-06
1.8468e-06
2.67725e-06
3.7891e-06
5.22918e-06
7.03269e-06
9.21839e-06
1.17866e-05
1.47206e-05
1.79895e-05
2.15531e-05
2.53654e-05
2.93783e-05
3.35439e-05
3.78165e-05
4.2154e-05
4.65192e-05
5.08821e-05
5.52245e-05
5.95492e-05
6.38951e-05
6.8349e-05
7.30517e-05
7.82215e-05
8.41727e-05
9.13017e-05
0.000100079
0.000111048
0.000124836
0.000142172
0.000163924
0.000191142
0.000225113
0.000267434
0.000320095
0.00038559
0.000467054
0.000568434
0.000694708
0.000852161
0.00104874
0.00129448
0.00160213
0.00198781
0.00247199
0.00308066
0.00384687
0.00481273
0.00600031
0.00749496
0.00945137
0.0119372
0.0150833
0.0298897
0.0468722
0.0637633
0.0804132
0.096688
0.112467
0.127642
0.142114
0.155786
0.168563
0.180339
0.191013
0.200466
0.208584
0.215272
0.220477
0.224248
0.226751
0.228273
0.229127
0.229576
0.229799
0.229906
0.229957
0.229981
0.229991
0.229996
0.229998
0.229999
0.23
0.23
0.23
0.23
0.23
4.70839e-10
2.05656e-09
4.71852e-09
9.16846e-09
1.65665e-08
2.87807e-08
4.87769e-08
8.11847e-08
1.3309e-07
2.1509e-07
3.42604e-07
5.3734e-07
8.28665e-07
1.25441e-06
1.86043e-06
2.69833e-06
3.82089e-06
5.27583e-06
7.09934e-06
9.31114e-06
1.19126e-05
1.48878e-05
1.8207e-05
2.18311e-05
2.57152e-05
2.98126e-05
3.40769e-05
3.84645e-05
4.29353e-05
4.74552e-05
5.19979e-05
5.65503e-05
6.11224e-05
6.57621e-05
7.05722e-05
7.5715e-05
8.13863e-05
8.78841e-05
9.56074e-05
0.000105033
0.000116712
0.000131286
0.000149499
0.000172239
0.000200579
0.000235833
0.000279626
0.000333983
0.000401438
0.000485174
0.000589195
0.000718552
0.000879626
0.00108049
0.0013314
0.00164535
0.00203889
0.00253314
0.00315506
0.00393922
0.00493002
0.00614848
0.00769056
0.00971639
0.0123001
0.0155711
0.0310166
0.0479422
0.0647868
0.0813946
0.097629
0.113369
0.128504
0.142931
0.156551
0.169267
0.180978
0.191582
0.200961
0.209001
0.215607
0.22073
0.22442
0.226859
0.228335
0.229161
0.229593
0.229807
0.22991
0.229959
0.229981
0.229992
0.229996
0.229998
0.229999
0.23
0.23
0.23
0.23
0.23
4.71676e-10
2.06024e-09
4.7271e-09
9.18558e-09
1.65986e-08
2.88391e-08
4.88814e-08
8.1369e-08
1.33411e-07
2.15645e-07
3.4355e-07
5.38929e-07
8.3129e-07
1.25866e-06
1.86717e-06
2.70876e-06
3.83661e-06
5.29892e-06
7.13238e-06
9.35723e-06
1.19754e-05
1.49714e-05
1.83163e-05
2.19715e-05
2.58928e-05
3.00344e-05
3.4351e-05
3.87999e-05
4.33429e-05
4.79479e-05
5.25914e-05
5.72641e-05
6.19811e-05
6.67978e-05
7.18302e-05
7.72591e-05
8.3307e-05
9.01978e-05
9.83265e-05
0.00010818
0.000120321
0.000135399
0.000154171
0.00017754
0.000206593
0.000242664
0.000287399
0.000342848
0.000411576
0.000496803
0.000602581
0.000734026
0.000897606
0.00110152
0.0013562
0.00167491
0.0020746
0.00257697
0.00320988
0.00400915
0.00502097
0.00626526
0.00784684
0.0099277
0.0125826
0.0159344
0.0316283
0.0485289
0.0653469
0.081928
0.0981356
0.113848
0.128953
0.14335
0.15694
0.169623
0.1813
0.191869
0.201209
0.209208
0.215772
0.220854
0.224505
0.226912
0.228366
0.229177
0.229601
0.229811
0.229912
0.22996
0.229982
0.229992
0.229996
0.229998
0.229999
0.23
0.23
0.23
0.23
0.23
4.71655e-10
2.06014e-09
4.72685e-09
9.18503e-09
1.65974e-08
2.88368e-08
4.88768e-08
8.13602e-08
1.33395e-07
2.15615e-07
3.43496e-07
5.38838e-07
8.3114e-07
1.25842e-06
1.86682e-06
2.70825e-06
3.83593e-06
5.29808e-06
7.13141e-06
9.35622e-06
1.19745e-05
1.49709e-05
1.83164e-05
2.19724e-05
2.5895e-05
3.00381e-05
3.43564e-05
3.88073e-05
4.33525e-05
4.79597e-05
5.26054e-05
5.72803e-05
6.19993e-05
6.6818e-05
7.18519e-05
7.72822e-05
8.33307e-05
9.02212e-05
9.83488e-05
0.0001082
0.000120337
0.000135408
0.00015417
0.000177524
0.000206556
0.000242596
0.000287288
0.000342678
0.000411326
0.000496444
0.000602077
0.000733331
0.000896664
0.00110027
0.00135455
0.00167277
0.0020719
0.00257364
0.00320591
0.00400463
0.00501618
0.00626087
0.00784392
0.00992749
0.0125855
0.015937
0.0316318
0.0485348
0.065354
0.0819352
0.0981424
0.113854
0.128959
0.143355
0.156944
0.169627
0.181304
0.191872
0.201212
0.209211
0.215775
0.220855
0.224506
0.226913
0.228366
0.229178
0.229601
0.229811
0.229912
0.22996
0.229982
0.229992
0.229996
0.229998
0.229999
0.23
0.23
0.23
0.23
0.23
4.70777e-10
2.05628e-09
4.71782e-09
9.16692e-09
1.65633e-08
2.87744e-08
4.87645e-08
8.11607e-08
1.33045e-07
2.15007e-07
3.42457e-07
5.37088e-07
8.2825e-07
1.25375e-06
1.85944e-06
2.69691e-06
3.81897e-06
5.2734e-06
7.09649e-06
9.30812e-06
1.19098e-05
1.48858e-05
1.82067e-05
2.18332e-05
2.57206e-05
2.98223e-05
3.40917e-05
3.8485e-05
4.29621e-05
4.74886e-05
5.20379e-05
5.65967e-05
6.11749e-05
6.58202e-05
7.06352e-05
7.57817e-05
8.14552e-05
8.79533e-05
9.56747e-05
0.000105095
0.000116766
0.000131324
0.000149514
0.000172218
0.000200506
0.000235684
0.000279371
0.000333579
0.000400831
0.00048429
0.00058794
0.000716806
0.000877239
0.00107729
0.00132716
0.00163986
0.00203194
0.00252458
0.00314494
0.00392789
0.00491839
0.0061379
0.00768456
0.00971796
0.0123094
0.0155769
0.0310266
0.0479576
0.0648057
0.0814148
0.0976489
0.113387
0.12852
0.142945
0.156563
0.169278
0.180988
0.191592
0.20097
0.209009
0.215614
0.220735
0.224422
0.226861
0.228336
0.229161
0.229593
0.229807
0.22991
0.229959
0.229982
0.229992
0.229996
0.229998
0.229999
0.23
0.23
0.23
0.23
0.23
4.69041e-10
2.04864e-09
4.70003e-09
9.13146e-09
1.64969e-08
2.86536e-08
4.85483e-08
8.0778e-08
1.32374e-07
2.13845e-07
3.40471e-07
5.33744e-07
8.22719e-07
1.24479e-06
1.84526e-06
2.67501e-06
3.78605e-06
5.22529e-06
7.02808e-06
9.21339e-06
1.17819e-05
1.47169e-05
1.79881e-05
2.15553e-05
2.53726e-05
2.9392e-05
3.35655e-05
3.78472e-05
4.21947e-05
4.65705e-05
5.09441e-05
5.5297e-05
5.96317e-05
6.39867e-05
6.84487e-05
7.31581e-05
7.83332e-05
8.42878e-05
9.14178e-05
0.000100193
0.000111156
0.000124931
0.000142245
0.000163962
0.000191125
0.000225016
0.000267219
0.000319714
0.000384978
0.000466125
0.000567077
0.000692783
0.000849493
0.00104512
0.00128969
0.00159593
0.00198001
0.00246253
0.00306973
0.00383512
0.00480148
0.00599137
0.00749213
0.00945744
0.0119503
0.0150854
0.029903
0.0468919
0.0637884
0.0804414
0.0967173
0.112496
0.12767
0.142139
0.155808
0.168579
0.180357
0.191031
0.200482
0.208599
0.215284
0.220486
0.224254
0.226755
0.228275
0.229128
0.229577
0.229799
0.229907
0.229957
0.229981
0.229991
0.229996
0.229998
0.229999
0.23
0.23
0.23
0.23
0.23
4.66416e-10
2.03711e-09
4.67312e-09
9.07773e-09
1.63961e-08
2.847e-08
4.82197e-08
8.01973e-08
1.31359e-07
2.12094e-07
3.37489e-07
5.28749e-07
8.14506e-07
1.23156e-06
1.82442e-06
2.64301e-06
3.73815e-06
5.1555e-06
6.92913e-06
9.07672e-06
1.15977e-05
1.44743e-05
1.7675e-05
2.11585e-05
2.48777e-05
2.8783e-05
3.2825e-05
3.6956e-05
4.11312e-05
4.53107e-05
4.94606e-05
5.35578e-05
5.75982e-05
6.16112e-05
6.56744e-05
6.99221e-05
7.45756e-05
7.99453e-05
8.64226e-05
9.44717e-05
0.000104626
0.000117496
0.000133795
0.000154366
0.000180231
0.000212646
0.000253169
0.000303749
0.000366836
0.000445514
0.00054368
0.000666257
0.000819482
0.00101126
0.00125163
0.00155334
0.00193263
0.00241018
0.0030124
0.00377302
0.00473523
0.00591853
0.00741708
0.00937413
0.0118517
0.0149762
0.0284964
0.045485
0.0623953
0.0790765
0.0953943
0.111227
0.126462
0.140998
0.154735
0.167577
0.17943
0.190203
0.19976
0.20799
0.214794
0.220131
0.224009
0.2266
0.228185
0.22908
0.229552
0.229787
0.229901
0.229955
0.229979
0.229991
0.229996
0.229998
0.229999
0.23
0.23
0.23
0.23
0.23
4.62852e-10
2.02142e-09
4.63653e-09
9.00475e-09
1.62596e-08
2.82227e-08
4.77803e-08
7.94269e-08
1.30026e-07
2.09812e-07
3.33638e-07
5.22348e-07
8.04045e-07
1.21479e-06
1.79812e-06
2.60272e-06
3.67799e-06
5.06801e-06
6.80526e-06
8.9059e-06
1.13679e-05
1.41723e-05
1.72863e-05
2.06675e-05
2.42677e-05
2.80365e-05
3.1923e-05
3.58784e-05
3.98566e-05
4.3816e-05
4.77209e-05
5.15453e-05
5.5281e-05
5.89504e-05
6.26232e-05
6.64293e-05
7.05804e-05
7.53776e-05
8.12031e-05
8.85121e-05
9.78275e-05
0.000109748
0.00012497
0.000144317
0.00016879
0.000199621
0.000238343
0.000286882
0.000347667
0.000423773
0.000519097
0.000638594
0.000788566
0.000977052
0.00121431
0.00151349
0.0018914
0.00236968
0.00297617
0.00374687
0.00472797
0.00594283
0.00754643
0.00960972
0.0122725
0.0157255
0.0269628
0.0438088
0.0606514
0.077316
0.0936533
0.109532
0.124837
0.139461
0.153303
0.166261
0.178231
0.189111
0.198799
0.207174
0.214164
0.219654
0.223676
0.226388
0.228062
0.229013
0.229518
0.229771
0.229893
0.229951
0.229978
0.22999
0.229996
0.229998
0.229999
0.23
0.23
0.23
0.23
0.23
4.58421e-10
2.00195e-09
4.5912e-09
8.91465e-09
1.60917e-08
2.79202e-08
4.72452e-08
7.84939e-08
1.28418e-07
2.07076e-07
3.29043e-07
5.14743e-07
7.91668e-07
1.19503e-06
1.76723e-06
2.55555e-06
3.60775e-06
4.96614e-06
6.6614e-06
8.70799e-06
1.11024e-05
1.38244e-05
1.68401e-05
2.01063e-05
2.35741e-05
2.71923e-05
3.09097e-05
3.4677e-05
3.84478e-05
4.21799e-05
4.58371e-05
4.93924e-05
5.28349e-05
5.61822e-05
5.94961e-05
6.28983e-05
6.65871e-05
7.08496e-05
7.60536e-05
8.26406e-05
9.11201e-05
0.000102075
0.000116183
0.000134247
0.000157239
0.000186361
0.000223113
0.000269386
0.000327572
0.000400714
0.000492692
0.00060846
0.000754363
0.000938547
0.0011715
0.00146675
0.00184185
0.00231961
0.00292982
0.00371168
0.0047153
0.00597414
0.00765808
0.00986109
0.0127639
0.0166273
0.0250464
0.0416989
0.058451
0.0750921
0.0914525
0.107388
0.122774
0.137498
0.151454
0.164542
0.176656
0.187687
0.197564
0.20617
0.213349
0.219034
0.223243
0.226111
0.227899
0.228925
0.229473
0.229749
0.229883
0.229946
0.229976
0.229989
0.229995
0.229998
0.229999
0.23
0.23
0.23
0.23
0.23
4.53233e-10
1.97917e-09
4.53823e-09
8.80957e-09
1.58965e-08
2.75693e-08
4.66271e-08
7.74202e-08
1.26576e-07
2.03955e-07
3.23822e-07
5.06141e-07
7.77727e-07
1.17286e-06
1.7327e-06
2.503e-06
3.52975e-06
4.85335e-06
6.5026e-06
8.49022e-06
1.08112e-05
1.34442e-05
1.63544e-05
1.94981e-05
2.28261e-05
2.62871e-05
2.98301e-05
3.34061e-05
3.6969e-05
4.04773e-05
4.38952e-05
4.71958e-05
5.03669e-05
5.34219e-05
5.64153e-05
5.9458e-05
6.2733e-05
6.65088e-05
7.11343e-05
7.70324e-05
8.46941e-05
9.46829e-05
0.000107652
0.000124375
0.000145789
0.000173049
0.000207603
0.000251272
0.000306374
0.000375856
0.000463488
0.000574097
0.000713885
0.000890838
0.00111527
0.00140054
0.00176406
0.00222855
0.00282391
0.00358962
0.00457826
0.00582294
0.00744475
0.00962949
0.0125081
0.0163457
0.0223009
0.0388937
0.0556356
0.0723047
0.0887255
0.104749
0.120248
0.135106
0.149218
0.162484
0.174802
0.186074
0.196162
0.204956
0.212345
0.218263
0.222696
0.225757
0.22769
0.228811
0.229415
0.22972
0.229869
0.22994
0.229973
0.229988
0.229995
0.229998
0.229999
0.23
0.23
0.23
0.23
0.23
4.47401e-10
1.95356e-09
4.47876e-09
8.69177e-09
1.56781e-08
2.71779e-08
4.59395e-08
7.62301e-08
1.24542e-07
2.00521e-07
3.18103e-07
4.96754e-07
7.62575e-07
1.14885e-06
1.69545e-06
2.44653e-06
3.44622e-06
4.73299e-06
6.33371e-06
8.25941e-06
1.05037e-05
1.30442e-05
1.58455e-05
1.88637e-05
2.20496e-05
2.53525e-05
2.8722e-05
3.211e-05
3.54714e-05
3.87661e-05
4.19593e-05
4.50248e-05
4.79499e-05
5.07449e-05
5.34569e-05
5.61855e-05
5.90965e-05
6.24374e-05
6.65344e-05
7.17873e-05
7.86641e-05
8.77035e-05
9.95294e-05
0.000114879
0.000134643
0.000159917
0.00019207
0.000232828