/*--------------------------------*- C++ -*----------------------------------*\
  =========                 |
  \\      /  F ield         | OpenFOAM: The Open Source CFD Toolbox
   \\    /   O peration     | Website:  https://openfoam.org
    \\  /    A nd           | Version:  8
     \\/     M anipulation  |
\*---------------------------------------------------------------------------*/
FoamFile
{
    version     2.0;
    format      ascii;
    class       surfaceScalarField;
    location    "120/fluid";
    object      phi;
}
// * * * * * * * * * * * * * * * * * * * * * * * * * * * * * * * * * * * * * //

dimensions      [1 0 -1 0 0 0 0];

internalField   nonuniform List<scalar> 
7860
(
6.57367e-07
-1.71359e-08
6.54916e-07
-5.20157e-08
6.51424e-07
-8.70891e-08
6.4678e-07
-1.22015e-07
6.40854e-07
-1.56799e-07
6.33485e-07
-1.91516e-07
6.24486e-07
-2.26196e-07
6.13651e-07
-2.60788e-07
6.00766e-07
-2.95155e-07
5.85623e-07
-3.29083e-07
5.68039e-07
-3.62278e-07
5.47889e-07
-3.94342e-07
5.2518e-07
-4.24752e-07
5.00065e-07
-4.52812e-07
4.72763e-07
-4.77636e-07
4.43616e-07
-4.98234e-07
4.13092e-07
-5.13644e-07
3.81762e-07
-5.23131e-07
3.50248e-07
-5.26375e-07
3.19145e-07
-5.23571e-07
2.8897e-07
-5.15405e-07
2.60118e-07
-5.02892e-07
2.32858e-07
-4.87175e-07
2.0737e-07
-4.69349e-07
1.83751e-07
-4.50342e-07
1.61969e-07
-4.30873e-07
1.41925e-07
-4.11479e-07
1.23496e-07
-3.92537e-07
1.06547e-07
-3.74298e-07
9.09467e-08
-3.5692e-07
7.65684e-08
-3.40489e-07
6.32949e-08
-3.25049e-07
5.1018e-08
-3.10607e-07
3.96392e-08
-2.9715e-07
2.9068e-08
-2.84651e-07
1.92224e-08
-2.73077e-07
1.00271e-08
-2.62387e-07
1.41338e-09
-2.52542e-07
-6.67672e-09
-2.43495e-07
-1.42933e-08
-2.35183e-07
-2.14865e-08
-2.27568e-07
-2.83031e-08
-2.20616e-07
-3.47858e-08
-2.14291e-07
-4.09737e-08
-2.08563e-07
-4.69026e-08
-2.03401e-07
-5.26054e-08
-1.98774e-07
-5.81123e-08
-1.94658e-07
-6.34509e-08
-1.91025e-07
-6.86467e-08
-1.87855e-07
-7.3723e-08
-1.85127e-07
-7.87014e-08
-1.82822e-07
-8.36014e-08
-1.80924e-07
-8.84413e-08
-1.7942e-07
-9.32375e-08
-1.783e-07
-9.80051e-08
-1.77552e-07
-1.02758e-07
-1.77172e-07
-1.07508e-07
-1.77154e-07
-1.12266e-07
-1.77498e-07
-1.17043e-07
-1.78203e-07
-1.21847e-07
-1.79275e-07
-1.26686e-07
-1.8072e-07
-1.31567e-07
-1.82552e-07
-1.36499e-07
-1.84786e-07
-1.41493e-07
-1.87447e-07
-1.46566e-07
-1.90573e-07
-1.51743e-07
-1.94226e-07
-1.57071e-07
-1.98429e-07
-1.62616e-07
-2.03309e-07
-1.68427e-07
-2.09068e-07
-1.73771e-07
-2.15989e-07
-1.88401e-07
-2.27861e-07
-1.96538e-07
-2.4768e-07
-2.06372e-07
-2.70193e-07
-2.17535e-07
-2.9522e-07
-2.30154e-07
-3.2287e-07
-2.44498e-07
-3.53365e-07
-2.60901e-07
-3.86903e-07
-2.79779e-07
-4.23621e-07
-3.0168e-07
-4.63578e-07
-3.27324e-07
-5.06709e-07
-3.5763e-07
-5.52842e-07
-3.93782e-07
-6.0172e-07
-4.37212e-07
-6.52203e-07
-4.89288e-07
-7.0168e-07
-5.50397e-07
-7.4565e-07
-6.20012e-07
-7.77263e-07
-6.96219e-07
-7.88964e-07
-7.75045e-07
-7.76583e-07
-8.51382e-07
-7.42157e-07
-9.20983e-07
-6.91826e-07
-9.81545e-07
-6.32146e-07
-1.03248e-06
-5.6765e-07
-1.07401e-06
-5.00906e-07
-1.1067e-06
-4.33337e-07
-1.1319e-06
-3.65496e-07
-1.15093e-06
-2.97639e-07
-1.1649e-06
-2.29749e-07
-1.1747e-06
-1.61809e-07
-1.18106e-06
-9.44982e-08
-3.0128e-08
6.58001e-07
-1.66036e-08
6.56142e-07
-5.01562e-08
6.52858e-07
-8.38065e-08
6.48137e-07
-1.17295e-07
6.41905e-07
-1.5057e-07
6.34057e-07
-1.83672e-07
6.24467e-07
-2.16614e-07
6.13001e-07
-2.49335e-07
5.99529e-07
-2.81704e-07
5.83938e-07
-3.13525e-07
5.66143e-07
-3.44534e-07
5.46102e-07
-3.74379e-07
5.23842e-07
-4.02604e-07
4.99469e-07
-4.28595e-07
4.73157e-07
-4.51535e-07
4.4518e-07
-4.70527e-07
4.15924e-07
-4.84712e-07
3.85862e-07
-4.93438e-07
3.55522e-07
-4.96427e-07
3.25427e-07
-4.93865e-07
2.96041e-07
-4.86378e-07
2.6773e-07
-4.74892e-07
2.40756e-07
-4.6045e-07
2.1529e-07
-4.44065e-07
1.91431e-07
-4.26597e-07
1.69194e-07
-4.0869e-07
1.48543e-07
-3.90829e-07
1.29408e-07
-3.73359e-07
1.11701e-07
-3.56512e-07
9.53255e-08
-3.40435e-07
8.01786e-08
-3.25213e-07
6.61599e-08
-3.10885e-07
5.31713e-08
-2.97461e-07
4.11191e-08
-2.84933e-07
2.9915e-08
-2.73278e-07
1.94762e-08
-2.62467e-07
9.7259e-09
-2.52466e-07
5.9255e-10
-2.4324e-07
-7.98496e-09
-2.34746e-07
-1.60604e-08
-2.26928e-07
-2.36872e-08
-2.19753e-07
-3.0915e-08
-2.1319e-07
-3.77892e-08
-2.07211e-07
-4.43515e-08
-2.01787e-07
-5.06403e-08
-1.9689e-07
-5.66909e-08
-1.92494e-07
-6.25357e-08
-1.88575e-07
-6.82046e-08
-1.8511e-07
-7.37252e-08
-1.82081e-07
-7.91229e-08
-1.79467e-07
-8.44215e-08
-1.77253e-07
-8.96429e-08
-1.75425e-07
-9.48076e-08
-1.7397e-07
-9.99348e-08
-1.72879e-07
-1.05043e-07
-1.72143e-07
-1.10148e-07
-1.71758e-07
-1.15267e-07
-1.71719e-07
-1.20416e-07
-1.72026e-07
-1.2561e-07
-1.72681e-07
-1.30864e-07
-1.73687e-07
-1.36193e-07
-1.75052e-07
-1.41614e-07
-1.76785e-07
-1.47149e-07
-1.78902e-07
-1.52822e-07
-1.81419e-07
-1.58669e-07
-1.84364e-07
-1.64756e-07
-1.87769e-07
-1.71178e-07
-1.91615e-07
-1.78079e-07
-1.95972e-07
-1.85636e-07
-2.00972e-07
-1.90525e-07
-2.0695e-07
-2.04408e-07
-2.21287e-07
-2.13376e-07
-2.40127e-07
-2.23906e-07
-2.61408e-07
-2.36065e-07
-2.8518e-07
-2.4998e-07
-3.11508e-07
-2.65896e-07
-3.40516e-07
-2.84153e-07
-3.72327e-07
-3.05178e-07
-4.07012e-07
-3.29499e-07
-4.44552e-07
-3.57753e-07
-4.84791e-07
-3.9065e-07
-5.2753e-07
-4.29057e-07
-5.72326e-07
-4.74003e-07
-6.1773e-07
-5.26414e-07
-6.60943e-07
-5.86556e-07
-6.97645e-07
-6.53637e-07
-7.21506e-07
-7.25236e-07
-7.26482e-07
-7.97451e-07
-7.10571e-07
-8.66321e-07
-6.76894e-07
-9.29122e-07
-6.30861e-07
-9.84569e-07
-5.7757e-07
-1.03234e-06
-5.20273e-07
-1.07253e-06
-4.60885e-07
-1.10546e-06
-4.00487e-07
-1.13171e-06
-3.39279e-07
-1.15193e-06
-2.77423e-07
-1.16677e-06
-2.14919e-07
-1.17674e-06
-1.51837e-07
-1.18223e-06
-8.90177e-08
-2.85322e-08
6.57728e-07
-1.5798e-08
6.55381e-07
-4.78092e-08
6.51483e-07
-7.99091e-08
6.45986e-07
-1.118e-07
6.38836e-07
-1.43423e-07
6.29968e-07
-1.74808e-07
6.19313e-07
-2.05966e-07
6.06809e-07
-2.36843e-07
5.92408e-07
-2.67322e-07
5.76083e-07
-2.97231e-07
5.57834e-07
-3.26333e-07
5.37687e-07
-3.54302e-07
5.15676e-07
-3.80695e-07
4.91866e-07
-4.04927e-07
4.66413e-07
-4.26272e-07
4.39566e-07
-4.43921e-07
4.11659e-07
-4.57094e-07
3.83094e-07
-4.65201e-07
3.54313e-07
-4.67992e-07
3.25751e-07
-4.65645e-07
2.97796e-07
-4.58738e-07
2.7076e-07
-4.48125e-07
2.44864e-07
-4.34766e-07
2.20233e-07
-4.19583e-07
1.96914e-07
-4.03367e-07
1.74932e-07
-3.86741e-07
1.54283e-07
-3.70164e-07
1.34938e-07
-3.53959e-07
1.16852e-07
-3.38338e-07
9.99644e-08
-3.23434e-07
8.4207e-08
-3.09322e-07
6.95063e-08
-2.96037e-07
5.5787e-08
-2.83585e-07
4.29732e-08
-2.71956e-07
3.09907e-08
-2.61129e-07
1.97673e-08
-2.51077e-07
9.23408e-09
-2.41767e-07
-6.742e-10
-2.33168e-07
-1.00142e-08
-2.25239e-07
-1.88365e-08
-2.17929e-07
-2.71934e-08
-2.1121e-07
-3.51337e-08
-2.05055e-07
-4.27031e-08
-1.99438e-07
-4.99438e-08
-1.94333e-07
-5.68954e-08
-1.89717e-07
-6.35944e-08
-1.85564e-07
-7.00749e-08
-1.81855e-07
-7.63686e-08
-1.78569e-07
-8.2505e-08
-1.75688e-07
-8.85118e-08
-1.73195e-07
-9.4415e-08
-1.71077e-07
-1.00239e-07
-1.69319e-07
-1.06008e-07
-1.67912e-07
-1.11743e-07
-1.66845e-07
-1.17467e-07
-1.66113e-07
-1.23202e-07
-1.6571e-07
-1.28968e-07
-1.65633e-07
-1.34788e-07
-1.6588e-07
-1.40685e-07
-1.66453e-07
-1.46683e-07
-1.67354e-07
-1.52809e-07
-1.68588e-07
-1.59092e-07
-1.70165e-07
-1.65565e-07
-1.72094e-07
-1.72265e-07
-1.74392e-07
-1.79224e-07
-1.77093e-07
-1.86481e-07
-1.80219e-07
-1.94034e-07
-1.83797e-07
-2.01898e-07
-1.87887e-07
-2.10329e-07
-1.92383e-07
-2.19222e-07
-1.97259e-07
-2.3056e-07
-2.13488e-07
-2.40593e-07
-2.31667e-07
-2.52076e-07
-2.51824e-07
-2.65228e-07
-2.74309e-07
-2.80218e-07
-2.9925e-07
-2.97273e-07
-3.26729e-07
-3.16687e-07
-3.56822e-07
-3.38803e-07
-3.89567e-07
-3.64013e-07
-4.24915e-07
-3.92729e-07
-4.62713e-07
-4.2534e-07
-5.02805e-07
-4.62342e-07
-5.44565e-07
-5.04329e-07
-5.86248e-07
-5.51964e-07
-6.24655e-07
-6.06029e-07
-6.54882e-07
-6.66373e-07
-6.71175e-07
-7.31007e-07
-6.69502e-07
-7.96544e-07
-6.50035e-07
-8.59656e-07
-6.16625e-07
-9.18084e-07
-5.73873e-07
-9.70756e-07
-5.25581e-07
-1.01732e-06
-4.74024e-07
-1.0578e-06
-4.20543e-07
-1.09242e-06
-3.65925e-07
-1.1212e-06
-3.10524e-07
-1.14425e-06
-2.54379e-07
-1.16179e-06
-1.9738e-07
-1.17408e-06
-1.39556e-07
-1.18137e-06
-8.17243e-08
-2.60819e-08
6.57751e-07
-1.5015e-08
6.5535e-07
-4.54085e-08
6.51303e-07
-7.58631e-08
6.45592e-07
-1.0609e-07
6.38189e-07
-1.36022e-07
6.2906e-07
-1.65684e-07
6.18169e-07
-1.95082e-07
6.05478e-07
-2.24164e-07
5.90959e-07
-2.52821e-07
5.74588e-07
-2.80889e-07
5.56361e-07
-3.08149e-07
5.36292e-07
-3.34297e-07
5.14432e-07
-3.58927e-07
4.90876e-07
-3.815e-07
4.65784e-07
-4.01352e-07
4.39388e-07
-4.17742e-07
4.11989e-07
-4.29957e-07
3.83953e-07
-4.37458e-07
3.5568e-07
-4.40027e-07
3.27568e-07
-4.37836e-07
2.99981e-07
-4.31427e-07
2.73214e-07
-4.21592e-07
2.47488e-07
-4.09219e-07
2.22943e-07
-3.9516e-07
1.99652e-07
-3.80142e-07
1.77638e-07
-3.64743e-07
1.56891e-07
-3.49388e-07
1.37374e-07
-3.34375e-07
1.19035e-07
-3.19904e-07
1.01816e-07
-3.06096e-07
8.56515e-08
-2.93022e-07
7.04748e-08
-2.80712e-07
5.62183e-08
-2.69173e-07
4.28151e-08
-2.58393e-07
3.01998e-08
-2.48352e-07
1.83087e-08
-2.39024e-07
7.08034e-09
-2.30379e-07
-3.54167e-09
-2.22388e-07
-1.36076e-08
-2.15009e-07
-2.31639e-08
-2.08199e-07
-3.22586e-08
-2.01932e-07
-4.09372e-08
-1.96183e-07
-4.9243e-08
-1.90929e-07
-5.72166e-08
-1.86147e-07
-6.48964e-08
-1.81815e-07
-7.23185e-08
-1.77911e-07
-7.95167e-08
-1.74416e-07
-8.65231e-08
-1.71313e-07
-9.33679e-08
-1.68584e-07
-1.0008e-07
-1.66215e-07
-1.06685e-07
-1.64193e-07
-1.13211e-07
-1.62506e-07
-1.19683e-07
-1.61145e-07
-1.26123e-07
-1.60101e-07
-1.32558e-07
-1.59368e-07
-1.39009e-07
-1.58941e-07
-1.455e-07
-1.58816e-07
-1.52056e-07
-1.58994e-07
-1.58699e-07
-1.59475e-07
-1.65456e-07
-1.60261e-07
-1.7235e-07
-1.61358e-07
-1.79409e-07
-1.62775e-07
-1.86659e-07
-1.64524e-07
-1.94127e-07
-1.66623e-07
-2.01841e-07
-1.69116e-07
-2.09846e-07
-1.72002e-07
-2.18169e-07
-1.75353e-07
-2.26741e-07
-1.79355e-07
-2.3532e-07
-1.84256e-07
-2.54643e-07
-1.91898e-07
-2.63067e-07
-2.06602e-07
-2.73221e-07
-2.2332e-07
-2.84925e-07
-2.4225e-07
-2.98324e-07
-2.63431e-07
-3.13624e-07
-2.86934e-07
-3.31045e-07
-3.12844e-07
-3.50842e-07
-3.41221e-07
-3.73315e-07
-3.7207e-07
-3.98821e-07
-4.05304e-07
-4.27734e-07
-4.40775e-07
-4.60496e-07
-4.78253e-07
-4.97731e-07
-5.16805e-07
-5.40151e-07
-5.54373e-07
-5.88361e-07
-5.87498e-07
-6.42418e-07
-6.11386e-07
-7.01229e-07
-6.21246e-07
-7.62418e-07
-6.14732e-07
-8.23121e-07
-5.93324e-07
-8.81019e-07
-5.60911e-07
-9.34647e-07
-5.21332e-07
-9.83284e-07
-4.77457e-07
-1.0266e-06
-4.30939e-07
-1.06449e-06
-3.82759e-07
-1.09697e-06
-3.33492e-07
-1.12412e-06
-2.83393e-07
-1.14605e-06
-2.32458e-07
-1.16286e-06
-1.80565e-07
-1.17468e-06
-1.27741e-07
-1.1816e-06
-7.4804e-08
-2.38613e-08
6.57683e-07
-1.41646e-08
6.55129e-07
-4.28547e-08
6.50862e-07
-7.15962e-08
6.44869e-07
-1.00099e-07
6.37139e-07
-1.28294e-07
6.27653e-07
-1.56202e-07
6.16395e-07
-1.8383e-07
6.03348e-07
-2.11128e-07
5.88506e-07
-2.37995e-07
5.7187e-07
-2.6428e-07
5.53458e-07
-2.89777e-07
5.33308e-07
-3.14207e-07
5.11488e-07
-3.37192e-07
4.88103e-07
-3.58234e-07
4.63311e-07
-3.76716e-07
4.37326e-07
-3.91954e-07
4.10426e-07
-4.03292e-07
3.82943e-07
-4.10237e-07
3.55235e-07
-4.12594e-07
3.27663e-07
-4.10531e-07
3.00554e-07
-4.04559e-07
2.74181e-07
-3.95419e-07
2.48746e-07
-3.83934e-07
2.24385e-07
-3.70896e-07
2.01174e-07
-3.56977e-07
1.79143e-07
-3.42711e-07
1.58287e-07
-3.2849e-07
1.38578e-07
-3.14592e-07
1.19973e-07
-3.01198e-07
1.02418e-07
-2.8842e-07
8.5855e-08
-2.76323e-07
7.02227e-08
-2.64934e-07
5.54596e-08
-2.54257e-07
4.15046e-08
-2.44282e-07
2.82977e-08
-2.34989e-07
1.57808e-08
-2.26352e-07
3.89785e-09
-2.18344e-07
-7.40028e-09
-2.10938e-07
-1.81581e-08
-2.04091e-07
-2.84199e-08
-1.97767e-07
-3.82298e-08
-1.91941e-07
-4.76303e-08
-1.86591e-07
-5.66618e-08
-1.81696e-07
-6.53632e-08
-1.77234e-07
-7.3771e-08
-1.73185e-07
-8.19201e-08
-1.69529e-07
-8.98437e-08
-1.6625e-07
-9.75733e-08
-1.6333e-07
-1.05139e-07
-1.60755e-07
-1.12569e-07
-1.58512e-07
-1.19892e-07
-1.56588e-07
-1.27133e-07
-1.54973e-07
-1.34319e-07
-1.53658e-07
-1.41475e-07
-1.52636e-07
-1.48625e-07
-1.519e-07
-1.55795e-07
-1.51446e-07
-1.63009e-07
-1.51271e-07
-1.70293e-07
-1.51374e-07
-1.77672e-07
-1.51756e-07
-1.85176e-07
-1.52417e-07
-1.92833e-07
-1.53363e-07
-2.00678e-07
-1.54599e-07
-2.08749e-07
-1.56132e-07
-2.17092e-07
-1.57979e-07
-2.25772e-07
-1.60158e-07
-2.34882e-07
-1.62638e-07
-2.4452e-07
-1.65469e-07
-2.54901e-07
-1.68685e-07
-2.64414e-07
-1.72438e-07
-2.80867e-07
-1.83886e-07
-2.91173e-07
-1.97988e-07
-3.02641e-07
-2.1386e-07
-3.15445e-07
-2.31808e-07
-3.29784e-07
-2.51861e-07
-3.45893e-07
-2.74076e-07
-3.6402e-07
-2.98538e-07
-3.84436e-07
-3.25303e-07
-4.07441e-07
-3.54361e-07
-4.33369e-07
-3.856e-07
-4.62552e-07
-4.18905e-07
-4.95414e-07
-4.53898e-07
-5.32494e-07
-4.89373e-07
-5.74322e-07
-5.23021e-07
-6.2122e-07
-5.51206e-07
-6.72918e-07
-5.69371e-07
-7.28177e-07
-5.73715e-07
-7.84888e-07
-5.63337e-07
-8.4079e-07
-5.40606e-07
-8.94157e-07
-5.09227e-07
-9.43911e-07
-4.72409e-07
-9.89466e-07
-4.32294e-07
-1.03048e-06
-3.90102e-07
-1.06675e-06
-3.46569e-07
-1.09815e-06
-3.02124e-07
-1.12463e-06
-2.56928e-07
-1.14618e-06
-2.10918e-07
-1.16281e-06
-1.63932e-07
-1.17458e-06
-1.15977e-07
-1.18154e-06
-6.7841e-08
-2.15797e-08
6.57671e-07
-1.33021e-08
6.55061e-07
-4.02447e-08
6.50692e-07
-6.72283e-08
6.44565e-07
-9.39727e-08
6.36677e-07
-1.20408e-07
6.27023e-07
-1.46552e-07
6.15599e-07
-1.72411e-07
6.02399e-07
-1.97939e-07
5.87427e-07
-2.23038e-07
5.70692e-07
-2.47569e-07
5.52218e-07
-2.71339e-07
5.32045e-07
-2.94089e-07
5.10243e-07
-3.15468e-07
4.86916e-07
-3.35015e-07
4.62219e-07
-3.52161e-07
4.36362e-07
-3.66276e-07
4.09614e-07
-3.76757e-07
3.82297e-07
-3.83156e-07
3.54759e-07
-3.85301e-07
3.2735e-07
-3.83357e-07
3.00384e-07
-3.77804e-07
2.74123e-07
-3.69329e-07
2.48762e-07
-3.58699e-07
2.24431e-07
-3.4664e-07
2.012e-07
-3.33774e-07
1.79097e-07
-3.20593e-07
1.58116e-07
-3.07458e-07
1.38228e-07
-2.94623e-07
1.19389e-07
-2.82255e-07
1.01549e-07
-2.70458e-07
8.46496e-08
-2.59289e-07
6.86335e-08
-2.48775e-07
5.34418e-08
-2.38917e-07
3.90169e-08
-2.29707e-07
2.53027e-08
-2.21125e-07
1.22447e-08
-2.13147e-07
-2.08861e-10
-2.05748e-07
-1.21005e-08
-1.98901e-07
-2.34699e-08
-1.92565e-07
-3.436e-08
-1.86709e-07
-4.48117e-08
-1.8131e-07
-5.48646e-08
-1.76349e-07
-6.45566e-08
-1.71804e-07
-7.39241e-08
-1.67655e-07
-8.3002e-08
-1.63885e-07
-9.18236e-08
-1.60475e-07
-1.00421e-07
-1.57409e-07
-1.08824e-07
-1.54672e-07
-1.17063e-07
-1.52251e-07
-1.25165e-07
-1.50134e-07
-1.33159e-07
-1.48308e-07
-1.4107e-07
-1.46766e-07
-1.48925e-07
-1.45497e-07
-1.56749e-07
-1.44496e-07
-1.64569e-07
-1.43757e-07
-1.72408e-07
-1.43276e-07
-1.80293e-07
-1.4305e-07
-1.88249e-07
-1.43077e-07
-1.96303e-07
-1.4336e-07
-2.04478e-07
-1.439e-07
-2.12802e-07
-1.44702e-07
-2.21298e-07
-1.45777e-07
-2.29988e-07
-1.47137e-07
-2.38882e-07
-1.48818e-07
-2.47987e-07
-1.50841e-07
-2.57269e-07
-1.53234e-07
-2.66692e-07
-1.56077e-07
-2.7636e-07
-1.59312e-07
-2.94285e-07
-1.63141e-07
-3.05669e-07
-1.75267e-07
-3.16843e-07
-1.88762e-07
-3.29107e-07
-2.0382e-07
-3.42744e-07
-2.2074e-07
-3.57946e-07
-2.39643e-07
-3.749e-07
-2.60602e-07
-3.93828e-07
-2.83678e-07
-4.14991e-07
-3.08905e-07
-4.38687e-07
-3.36244e-07
-4.65236e-07
-3.65577e-07
-4.9498e-07
-3.96774e-07
-5.28377e-07
-4.29249e-07
-5.65941e-07
-4.61554e-07
-6.08108e-07
-4.91165e-07
-6.54986e-07
-5.14401e-07
-7.05954e-07
-5.27193e-07
-7.5945e-07
-5.26892e-07
-8.13344e-07
-5.13825e-07
-8.657e-07
-4.90782e-07
-9.1522e-07
-4.61017e-07
-9.61179e-07
-4.27089e-07
-1.0032e-06
-3.90573e-07
-1.04106e-06
-3.5238e-07
-1.07461e-06
-3.13081e-07
-1.10374e-06
-2.73013e-07
-1.1284e-06
-2.32279e-07
-1.14855e-06
-1.9078e-07
-1.16415e-06
-1.48333e-07
-1.1752e-06
-1.0493e-07
-1.18171e-06
-6.13255e-08
-1.94702e-08
6.57648e-07
-1.24163e-08
6.54975e-07
-3.75718e-08
6.50508e-07
-6.27624e-08
6.44252e-07
-8.77177e-08
6.36212e-07
-1.12369e-07
6.2639e-07
-1.36734e-07
6.14788e-07
-1.60815e-07
6.01411e-07
-1.84571e-07
5.8627e-07
-2.07912e-07
5.69384e-07
-2.30706e-07
5.50785e-07
-2.52774e-07
5.30522e-07
-2.73877e-07
5.08671e-07
-2.93689e-07
4.85341e-07
-3.11784e-07
4.60686e-07
-3.27636e-07
4.34913e-07
-3.40666e-07
4.08284e-07
-3.50319e-07
3.81105e-07
-3.56189e-07
3.53711e-07
-3.58125e-07
3.26436e-07
-3.5629e-07
2.9958e-07
-3.51131e-07
2.73396e-07
-3.43291e-07
2.48069e-07
-3.33475e-07
2.23727e-07
-3.22354e-07
2.00439e-07
-3.105e-07
1.78232e-07
-2.98361e-07
1.571e-07
-2.86269e-07
1.37017e-07
-2.74455e-07
1.17941e-07
-2.63073e-07
9.98222e-08
-2.52217e-07
8.26051e-08
-2.4194e-07
6.62339e-08
-2.32265e-07
5.06521e-08
-2.23194e-07
3.58042e-08
-2.14717e-07
2.16366e-08
-2.06817e-07
8.09752e-09
-1.99471e-07
-4.8595e-09
-1.92656e-07
-1.72724e-08
-1.86347e-07
-2.91809e-08
-1.80504e-07
-4.0625e-08
-1.75101e-07
-5.16432e-08
-1.70116e-07
-6.22727e-08
-1.65532e-07
-7.25495e-08
-1.61328e-07
-8.25079e-08
-1.57486e-07
-9.21809e-08
-1.5399e-07
-1.016e-07
-1.50822e-07
-1.10797e-07
-1.47968e-07
-1.19799e-07
-1.45414e-07
-1.28636e-07
-1.43147e-07
-1.37335e-07
-1.41156e-07
-1.45922e-07
-1.39432e-07
-1.54423e-07
-1.37965e-07
-1.62863e-07
-1.36747e-07
-1.71267e-07
-1.35773e-07
-1.79661e-07
-1.35037e-07
-1.88067e-07
-1.34535e-07
-1.96511e-07
-1.34266e-07
-2.05016e-07
-1.34228e-07
-2.13607e-07
-1.34423e-07
-2.22309e-07
-1.34854e-07
-2.31144e-07
-1.35527e-07
-2.40139e-07
-1.36453e-07
-2.49318e-07
-1.37646e-07
-2.587e-07
-1.39151e-07
-2.68349e-07
-1.40957e-07
-2.78294e-07
-1.4313e-07
-2.88449e-07
-1.45901e-07
-2.98616e-07
-1.49561e-07
-3.1946e-07
-1.5608e-07
-3.29739e-07
-1.66761e-07
-3.4141e-07
-1.7911e-07
-3.54322e-07
-1.93237e-07
-3.68611e-07
-2.09151e-07
-3.84478e-07
-2.26918e-07
-4.02127e-07
-2.46617e-07
-4.21779e-07
-2.68304e-07
-4.43692e-07
-2.91988e-07
-4.68161e-07
-3.17603e-07
-4.95486e-07
-3.45047e-07
-5.26019e-07
-3.74115e-07
-5.60183e-07
-4.04015e-07
-5.98378e-07
-4.33119e-07
-6.40825e-07
-4.58768e-07
-6.87292e-07
-4.77395e-07
-7.36819e-07
-4.85556e-07
-7.87756e-07
-4.8167e-07
-8.3827e-07
-4.66912e-07
-8.86923e-07
-4.44148e-07
-9.32816e-07
-4.16154e-07
-9.75444e-07
-3.8496e-07
-1.01451e-06
-3.51743e-07
-1.04979e-06
-3.17199e-07
-1.08114e-06
-2.81778e-07
-1.10844e-06
-2.45738e-07
-1.13159e-06
-2.09134e-07
-1.15054e-06
-1.71833e-07
-1.16525e-06
-1.33632e-07
-1.17567e-06
-9.45073e-08
-1.18182e-06
-5.51716e-08
-1.74732e-08
6.57636e-07
-1.15182e-08
6.54921e-07
-3.48576e-08
6.50385e-07
-5.82269e-08
6.44036e-07
-8.13693e-08
6.35883e-07
-1.04218e-07
6.25935e-07
-1.26789e-07
6.142e-07
-1.49085e-07
6.00687e-07
-1.71067e-07
5.85413e-07
-1.92651e-07
5.68402e-07
-2.13715e-07
5.49689e-07
-2.34093e-07
5.29328e-07
-2.53563e-07
5.07397e-07
-2.71825e-07
4.84008e-07
-2.88485e-07
4.59314e-07
-3.03061e-07
4.33522e-07
-3.15022e-07
4.06892e-07
-3.23862e-07
3.79727e-07
-3.29214e-07
3.52355e-07
-3.30947e-07
3.25102e-07
-3.29219e-07
2.98261e-07
-3.24449e-07
2.72074e-07
-3.17228e-07
2.46724e-07
-3.08207e-07
2.2233e-07
-2.98e-07
1.98959e-07
-2.87129e-07
1.76635e-07
-2.76002e-07
1.55352e-07
-2.64922e-07
1.35084e-07
-2.54099e-07
1.15789e-07
-2.43672e-07
9.74173e-08
-2.33727e-07
7.99163e-08
-2.24311e-07
6.32309e-08
-2.15446e-07
4.73062e-08
-2.07134e-07
3.20886e-08
-1.99365e-07
1.75264e-08
-1.92123e-07
3.56974e-09
-1.85387e-07
-9.82211e-09
-1.79136e-07
-2.26847e-08
-1.73347e-07
-3.50578e-08
-1.67983e-07
-4.69792e-08
-1.63019e-07
-5.84855e-08
-1.58438e-07
-6.96122e-08
-1.54221e-07
-8.03932e-08
-1.50351e-07
-9.08611e-08
-1.4681e-07
-1.01048e-07
-1.43583e-07
-1.10982e-07
-1.40654e-07
-1.20695e-07
-1.3801e-07
-1.30213e-07
-1.35639e-07
-1.39564e-07
-1.33528e-07
-1.48774e-07
-1.31667e-07
-1.57869e-07
-1.30047e-07
-1.66873e-07
-1.28659e-07
-1.75811e-07
-1.27497e-07
-1.84707e-07
-1.26555e-07
-1.93587e-07
-1.25827e-07
-2.02475e-07
-1.2531e-07
-2.11396e-07
-1.25002e-07
-2.20377e-07
-1.249e-07
-2.29446e-07
-1.25004e-07
-2.38635e-07
-1.25317e-07
-2.47978e-07
-1.25841e-07
-2.57516e-07
-1.2658e-07
-2.67297e-07
-1.27544e-07
-2.77383e-07
-1.28753e-07
-2.87845e-07
-1.3017e-07
-2.98782e-07
-1.31808e-07
-3.10564e-07
-1.33568e-07
-3.17661e-07
-1.35481e-07
-3.3401e-07
-1.44934e-07
-3.466e-07
-1.5577e-07
-3.59939e-07
-1.6775e-07
-3.74301e-07
-1.8124e-07
-3.89889e-07
-1.96349e-07
-4.06928e-07
-2.13142e-07
-4.25662e-07
-2.31694e-07
-4.46352e-07
-2.52062e-07
-4.69281e-07
-2.74245e-07
-4.94753e-07
-2.98164e-07
-5.23076e-07
-3.23732e-07
-5.5461e-07
-3.50634e-07
-5.89728e-07
-3.77911e-07
-6.28708e-07
-4.03803e-07
-6.71552e-07
-4.25604e-07
-7.17735e-07
-4.39995e-07
-7.66055e-07
-4.44252e-07
-8.14855e-07
-4.37739e-07
-8.62564e-07
-4.22165e-07
-9.08091e-07
-4.00241e-07
-9.50807e-07
-3.74254e-07
-9.90377e-07
-3.45782e-07
-1.02659e-06
-3.15708e-07
-1.0593e-06
-2.84573e-07
-1.08838e-06
-2.52741e-07
-1.11371e-06
-2.20419e-07
-1.13523e-06
-1.87624e-07
-1.15286e-06
-1.54205e-07
-1.16655e-06
-1.19942e-07
-1.17626e-06
-8.48018e-08
-1.18198e-06
-4.94533e-08
-1.56269e-08
6.57622e-07
-1.06069e-08
6.54868e-07
-3.21037e-08
6.50267e-07
-5.36264e-08
6.43831e-07
-7.49334e-08
6.35572e-07
-9.59612e-08
6.25503e-07
-1.16723e-07
6.13635e-07
-1.37222e-07
5.99983e-07
-1.57423e-07
5.84567e-07
-1.77247e-07
5.67414e-07
-1.96582e-07
5.48567e-07
-2.15275e-07
5.28082e-07
-2.33122e-07
5.06041e-07
-2.49845e-07
4.82559e-07
-2.65086e-07
4.57792e-07
-2.78403e-07
4.31949e-07
-2.89312e-07
4.05285e-07
-2.97355e-07
3.78101e-07
-3.022e-07
3.50719e-07
-3.03737e-07
3.23457e-07
-3.02117e-07
2.96602e-07
-2.97729e-07
2.70388e-07
-2.91118e-07
2.44991e-07
-2.82876e-07
2.20526e-07
-2.73562e-07
1.97058e-07
-2.63651e-07
1.7461e-07
-2.53513e-07
1.53175e-07
-2.43419e-07
1.32727e-07
-2.33561e-07
1.13224e-07
-2.24064e-07
9.46196e-08
-2.15006e-07
7.68602e-08
-2.06429e-07
5.98925e-08
-1.98352e-07
4.36631e-08
-1.90777e-07
2.81197e-08
-1.83696e-07
1.32121e-08
-1.77094e-07
-1.10694e-09
-1.70951e-07
-1.48739e-08
-1.65249e-07
-2.8123e-08
-1.59966e-07
-4.0894e-08
-1.55067e-07
-5.32233e-08
-1.50533e-07
-6.5146e-08
-1.46346e-07
-7.66959e-08
-1.4249e-07
-8.79056e-08
-1.38947e-07
-9.88062e-08
-1.35703e-07
-1.09428e-07
-1.32742e-07
-1.19799e-07
-1.30052e-07
-1.29948e-07
-1.27618e-07
-1.39901e-07
-1.2543e-07
-1.49684e-07
-1.23476e-07
-1.59322e-07
-1.21748e-07
-1.68839e-07
-1.20237e-07
-1.7826e-07
-1.18935e-07
-1.87607e-07
-1.17836e-07
-1.96904e-07
-1.16935e-07
-2.06174e-07
-1.16226e-07
-2.15439e-07
-1.15707e-07
-2.24721e-07
-1.15376e-07
-2.34042e-07
-1.15232e-07
-2.43423e-07
-1.15276e-07
-2.52885e-07
-1.15513e-07
-2.62445e-07
-1.15948e-07
-2.72117e-07
-1.16594e-07
-2.81906e-07
-1.17483e-07
-2.91818e-07
-1.18624e-07
-3.01838e-07
-1.20033e-07
-3.11935e-07
-1.21771e-07
-3.22038e-07
-1.23844e-07
-3.41841e-07
-1.2654e-07
-3.53297e-07
-1.35304e-07
-3.65673e-07
-1.45311e-07
-3.79087e-07
-1.56527e-07
-3.93746e-07
-1.6911e-07
-4.09838e-07
-1.83188e-07
-4.27541e-07
-1.98841e-07
-4.47059e-07
-2.16131e-07
-4.68627e-07
-2.35093e-07
-4.92511e-07
-2.55703e-07
-5.18995e-07
-2.77877e-07
-5.4838e-07
-3.01516e-07
-5.80993e-07
-3.26181e-07
-6.17117e-07
-3.50799e-07
-6.56861e-07
-3.73531e-07
-6.99969e-07
-3.9172e-07
-7.45634e-07
-4.02403e-07
-7.92503e-07
-4.03577e-07
-8.39044e-07
-3.95338e-07
-8.84012e-07
-3.79641e-07
-9.26647e-07
-3.58915e-07
-9.66524e-07
-3.3503e-07
-1.00342e-06
-3.09198e-07
-1.03718e-06
-2.82096e-07
-1.06766e-06
-2.54154e-07
-1.09476e-06
-2.25669e-07
-1.11839e-06
-1.96805e-07
-1.13846e-06
-1.67554e-07
-1.15492e-06
-1.37748e-07
-1.16771e-06
-1.07158e-07
-1.17677e-06
-7.57402e-08
-1.1821e-06
-4.41208e-08
-1.39088e-08
6.57611e-07
-9.68454e-09
6.54823e-07
-2.93151e-08
6.50164e-07
-4.89681e-08
6.43648e-07
-6.84187e-08
6.35292e-07
-8.76072e-08
6.25112e-07
-1.06545e-07
6.1312e-07
-1.25236e-07
5.99336e-07
-1.43646e-07
5.83781e-07
-1.61705e-07
5.66488e-07
-1.79308e-07
5.47501e-07
-1.96316e-07
5.26881e-07
-2.12541e-07
5.04712e-07
-2.27733e-07
4.81114e-07
-2.41563e-07
4.56244e-07
-2.53633e-07
4.30313e-07
-2.63502e-07
4.03578e-07
-2.7076e-07
3.76336e-07
-2.75111e-07
3.48908e-07
-2.76461e-07
3.21604e-07
-2.74954e-07
2.94707e-07
-2.70948e-07
2.68444e-07
-2.6494e-07
2.42984e-07
-2.57467e-07
2.1844e-07
-2.49033e-07
1.94873e-07
-2.40065e-07
1.72303e-07
-2.30896e-07
1.50724e-07
-2.2177e-07
1.30108e-07
-2.12857e-07
1.10417e-07
-2.0427e-07
9.16016e-08
-1.96079e-07
7.36116e-08
-1.88322e-07
5.63942e-08
-1.81016e-07
3.98973e-08
-1.74162e-07
2.40698e-08
-1.67753e-07
8.86276e-09
-1.61776e-07
-5.7669e-09
-1.56213e-07
-1.98532e-08
-1.51048e-07
-3.34318e-08
-1.46261e-07
-4.65407e-08
-1.41819e-07
-5.92152e-08
-1.37707e-07
-7.14893e-08
-1.33908e-07
-8.33956e-08
-1.30406e-07
-9.49653e-08
-1.27187e-07
-1.06228e-07
-1.24237e-07
-1.17214e-07
-1.21541e-07
-1.27948e-07
-1.19088e-07
-1.38459e-07
-1.16865e-07
-1.48772e-07
-1.14862e-07
-1.5891e-07
-1.1307e-07
-1.68898e-07
-1.1148e-07
-1.78759e-07
-1.10084e-07
-1.88516e-07
-1.08876e-07
-1.9819e-07
-1.07849e-07
-2.07802e-07
-1.07e-07
-2.17375e-07
-1.06322e-07
-2.26929e-07
-1.05815e-07
-2.36485e-07
-1.05477e-07
-2.46065e-07
-1.05306e-07
-2.5569e-07
-1.05306e-07
-2.65384e-07
-1.0548e-07
-2.75168e-07
-1.05834e-07
-2.85068e-07
-1.06381e-07
-2.95104e-07
-1.07162e-07
-3.05324e-07
-1.08167e-07
-3.15728e-07
-1.09462e-07
-3.26209e-07
-1.11243e-07
-3.36613e-07
-1.13773e-07
-3.5809e-07
-1.18119e-07
-3.69384e-07
-1.25721e-07
-3.82013e-07
-1.34633e-07
-3.95877e-07
-1.44908e-07
-4.11071e-07
-1.56509e-07
-4.27768e-07
-1.69494e-07
-4.46153e-07
-1.83938e-07
-4.66436e-07
-1.99892e-07
-4.88848e-07
-2.17373e-07
-5.13651e-07
-2.36339e-07
-5.41115e-07
-2.56713e-07
-5.7153e-07
-2.78356e-07
-6.05172e-07
-3.00722e-07
-6.42215e-07
-3.22672e-07
-6.82584e-07
-3.42347e-07
-7.25785e-07
-3.57222e-07
-7.70791e-07
-3.64758e-07
-8.16202e-07
-3.63612e-07
-8.60659e-07
-3.54404e-07
-9.03206e-07
-3.39126e-07
-9.43309e-07
-3.19872e-07
-9.80706e-07
-2.98158e-07
-1.01525e-06
-2.74909e-07
-1.04681e-06
-2.50648e-07
-1.0753e-06
-2.2572e-07
-1.10062e-06
-2.00375e-07
-1.12269e-06
-1.74744e-07
-1.14144e-06
-1.488e-07
-1.15683e-06
-1.22365e-07
-1.16878e-06
-9.5205e-08
-1.17725e-06
-6.7273e-08
-1.18222e-06
-3.91473e-08
-1.2312e-08
6.57601e-07
-8.75148e-09
6.54779e-07
-2.64933e-08
6.50065e-07
-4.42544e-08
6.43473e-07
-6.18283e-08
6.35024e-07
-7.91597e-08
6.24735e-07
-9.62585e-08
6.12622e-07
-1.13128e-07
5.98706e-07
-1.29737e-07
5.83011e-07
-1.46022e-07
5.65574e-07
-1.61888e-07
5.46442e-07
-1.77209e-07
5.25678e-07
-1.91814e-07
5.03372e-07
-2.05478e-07
4.79644e-07
-2.17906e-07
4.54659e-07
-2.28737e-07
4.28625e-07
-2.37579e-07
4.01804e-07
-2.44065e-07
3.74491e-07
-2.47933e-07
3.47002e-07
-2.49106e-07
3.19646e-07
-2.47719e-07
2.92697e-07
-2.44098e-07
2.66377e-07
-2.3869e-07
2.40851e-07
-2.31978e-07
2.16226e-07
-2.24413e-07
1.9256e-07
-2.16375e-07
1.69875e-07
-2.08159e-07
1.48161e-07
-1.99984e-07
1.27392e-07
-1.92e-07
1.07529e-07
-1.84308e-07
8.85245e-08
-1.76969e-07
7.03294e-08
-1.70017e-07
5.28919e-08
-1.63467e-07
3.61609e-08
-1.57322e-07
2.00866e-08
-1.51573e-07
4.62115e-09
-1.4621e-07
-1.02742e-08
-1.41218e-07
-2.46321e-08
-1.36581e-07
-3.84898e-08
-1.32282e-07
-5.1884e-08
-1.28291e-07
-6.48489e-08
-1.24595e-07
-7.74177e-08
-1.21179e-07
-8.96219e-08
-1.18029e-07
-1.01492e-07
-1.15131e-07
-1.13056e-07
-1.12473e-07
-1.24343e-07
-1.10042e-07
-1.35378e-07
-1.07826e-07
-1.46187e-07
-1.05816e-07
-1.56795e-07
-1.04002e-07
-1.67225e-07
-1.02375e-07
-1.77499e-07
-1.00927e-07
-1.87641e-07
-9.96525e-08
-1.9767e-07
-9.85444e-08
-2.0761e-07
-9.75976e-08
-2.17479e-07
-9.68078e-08
-2.27299e-07
-9.61714e-08
-2.37092e-07
-9.56857e-08
-2.46877e-07
-9.53489e-08
-2.56679e-07
-9.516e-08
-2.66522e-07
-9.51187e-08
-2.76435e-07
-9.52254e-08
-2.86451e-07
-9.54809e-08
-2.96617e-07
-9.58872e-08
-3.06987e-07
-9.64646e-08
-3.17651e-07
-9.71625e-08
-3.28707e-07
-9.80174e-08
-3.40342e-07
-9.90983e-08
-3.4863e-07
-1.00661e-07
-3.66667e-07
-1.06806e-07
-3.79716e-07
-1.14249e-07
-3.93591e-07
-1.22657e-07
-4.08536e-07
-1.322e-07
-4.24735e-07
-1.42921e-07
-4.42388e-07
-1.54876e-07
-4.61715e-07
-1.68135e-07
-4.8295e-07
-1.82746e-07
-5.06344e-07
-1.9872e-07
-5.32162e-07
-2.16004e-07
-5.60675e-07
-2.34538e-07
-5.92155e-07
-2.54135e-07
-6.26816e-07
-2.74178e-07
-6.64711e-07
-2.93503e-07
-7.05582e-07
-3.10292e-07
-7.48715e-07
-3.22223e-07
-7.92933e-07
-3.27204e-07
-8.36869e-07
-3.24449e-07
-8.79378e-07
-3.14898e-07
-9.19755e-07
-3.00445e-07
-9.57651e-07
-2.8285e-07
-9.92908e-07
-2.63332e-07
-1.02542e-06
-2.42598e-07
-1.05511e-06
-2.21056e-07
-1.08188e-06
-1.98991e-07
-1.10567e-06
-1.76611e-07
-1.1264e-06
-1.54022e-07
-1.14402e-06
-1.31182e-07
-1.15848e-06
-1.07909e-07
-1.16971e-06
-8.39719e-08
-1.17767e-06
-5.93199e-08
-1.18233e-06
-3.44837e-08
-1.08196e-08
6.57591e-07
-7.8084e-09
6.54737e-07
-2.36403e-08
6.49971e-07
-3.94885e-08
6.43308e-07
-5.51664e-08
6.3477e-07
-7.06233e-08
6.24377e-07
-8.58677e-08
6.12147e-07
-1.00902e-07
5.98103e-07
-1.15699e-07
5.82273e-07
-1.30202e-07
5.64694e-07
-1.44325e-07
5.45417e-07
-1.57955e-07
5.24508e-07
-1.7094e-07
5.02062e-07
-1.83079e-07
4.78201e-07
-1.94109e-07
4.53093e-07
-2.03711e-07
4.2695e-07
-2.11536e-07
4.00034e-07
-2.17262e-07
3.72642e-07
-2.20661e-07
3.45086e-07
-2.21668e-07
3.17671e-07
-2.20409e-07
2.90665e-07
-2.17176e-07
2.64286e-07
-2.12367e-07
2.38694e-07
-2.06411e-07
2.13991e-07
-1.99706e-07
1.90234e-07
-1.92587e-07
1.67441e-07
-1.85313e-07
1.45604e-07
-1.78075e-07
1.24697e-07
-1.71007e-07
1.0468e-07
-1.64196e-07
8.55084e-08
-1.57697e-07
6.71329e-08
-1.51538e-07
4.95031e-08
-1.45735e-07
3.2569e-08
-1.40288e-07
1.6282e-08
-1.35191e-07
5.95235e-10
-1.30434e-07
-1.45267e-08
-1.26005e-07
-2.91145e-08
-1.21891e-07
-4.32073e-08
-1.18074e-07
-5.68408e-08
-1.1453e-07
-7.00485e-08
-1.11246e-07
-8.28626e-08
-1.08211e-07
-9.53141e-08
-1.0541e-07
-1.07432e-07
-1.02832e-07
-1.19245e-07
-1.00465e-07
-1.3078e-07
-9.82983e-08
-1.42061e-07
-9.63219e-08
-1.53114e-07
-9.45264e-08
-1.63963e-07
-9.29034e-08
-1.74629e-07
-9.14454e-08
-1.85135e-07
-9.01455e-08
-1.95501e-07
-8.89977e-08
-2.05748e-07
-8.79967e-08
-2.15897e-07
-8.7138e-08
-2.25966e-07
-8.64179e-08
-2.35975e-07
-8.58334e-08
-2.45944e-07
-8.53822e-08
-2.55892e-07
-8.5063e-08
-2.65839e-07
-8.48753e-08
-2.75805e-07