/*--------------------------------*- C++ -*----------------------------------*\
  =========                 |
  \\      /  F ield         | OpenFOAM: The Open Source CFD Toolbox
   \\    /   O peration     | Website:  https://openfoam.org
    \\  /    A nd           | Version:  8
     \\/     M anipulation  |
\*---------------------------------------------------------------------------*/
FoamFile
{
    version     2.0;
    format      ascii;
    class       volScalarField;
    location    "120/fluid";
    object      Qdot;
}
// * * * * * * * * * * * * * * * * * * * * * * * * * * * * * * * * * * * * * //

dimensions      [1 -1 -3 0 0 0 0];

internalField   nonuniform List<scalar> 
4000
(
0
0
0
0
3.16134e-07
2.76331e-20
0
-3.48853e-07
-3.58727e-07
0
2.97564e-10
-3.03553e-10
1.46814e-14
0
0
-6.12581e-14
-2.60617e-09
1.24302e-13
-7.08373e-15
3.86071e-08
3.00796e-07
5.47923e-06
5.64223e-05
0.000515822
0.00398701
0.0258801
0.141728
0.660405
2.65075
9.29063
28.82
80.124
201.885
465.446
989.603
1952.11
3588.21
6163.52
9956.56
15292.1
22445.9
31686.5
43344.3
57858.7
75825
98091.5
125815
160541
204286
259634
329889
419256
533115
678358
863853
1.10104e+06
1.40471e+06
1.7941e+06
2.29424e+06
2.93789e+06
3.76811e+06
4.84179e+06
6.23462e+06
8.04806e+06
1.04147e+07
1.34922e+07
1.76137e+07
2.31047e+07
3.04775e+07
1.17532e+08
2.61403e+08
2.20921e+07
1.65363e+07
1.21964e+07
8.83836e+06
6.27548e+06
4.35264e+06
2.94117e+06
1.93465e+06
1.24625e+06
807958
404108
55538.2
2052.79
31.0324
0.248665
0.00167999
1.86696e-05
5.63526e-07
4.84657e-08
9.2348e-09
3.04869e-09
9.05434e-10
3.89539e-10
1.46211e-10
7.24509e-11
1.91442e-11
8.92716e-12
3.38818e-12
5.96247e-13
-6.99746e-22
0
0
0
-3.14209e-07
0
0
-5.54369e-11
5.6839e-11
3.61034e-07
-3.68299e-07
1.012e-18
-1.09335e-09
-3.86269e-07
2.24657e-09
-1.7098e-17
-4.02085e-07
-7.32337e-16
-7.39472e-15
4.69297e-08
5.078e-07
5.68277e-06
5.86032e-05
0.000533922
0.00414209
0.027054
0.148772
0.695329
2.79712
9.81863
30.4854
84.7812
213.567
491.97
1044.44
2055.59
3765.88
6438.54
10349.8
15829.5
23127.2
32509.9
44311.9
58983.8
77148.7
99691.1
127810
163101
207641
264093
335858
427280
543915
692898
883413
1.12732e+06
1.43996e+06
1.84125e+06
2.35712e+06
3.0214e+06
3.87838e+06
4.98632e+06
6.42218e+06
8.28839e+06
1.07168e+07
1.3863e+07
1.80597e+07
2.36359e+07
3.11416e+07
2.2016e+08
1.8492e+08
2.10037e+07
1.56201e+07
1.14531e+07
8.2498e+06
5.81804e+06
4.00423e+06
2.68249e+06
1.74935e+06
1.12113e+06
730106
248300
21749.7
531.947
5.70383
0.0370133
0.000265438
4.13911e-06
1.9393e-07
2.39255e-08
5.44027e-09
2.0385e-09
7.80503e-10
3.07101e-10
1.18989e-10
4.44883e-11
1.99619e-11
8.21962e-12
3.65296e-12
5.11824e-13
0
0
0
3.00224e-07
0
-1.28868e-11
7.73632e-16
0
5.55328e-11
1.13277e-10
0
0
4.74948e-10
0
3.77932e-07
-1.23784e-17
-2.44434e-09
-7.99364e-16
-3.96711e-07
2.46883e-07
3.65989e-07
5.86447e-06
6.38469e-05
0.000582272
0.00451202
0.0294323
0.1619
0.757455
3.05078
10.7211
33.3145
92.6838
233.43
537.26
1138.6
2234.39
4075.19
6924.04
11058.6
16816.2
24421
34144.7
46339.4
61486.3
80264.4
103630
132868
169684
216288
275518
351006
447401
570668
728487
930771
1.19035e+06
1.52385e+06
1.95293e+06
2.50576e+06
3.21914e+06
4.14118e+06
5.33482e+06
6.88238e+06
8.89122e+06
1.1492e+07
1.48314e+07
1.92094e+07
2.48557e+07
3.20439e+07
4.02801e+08
6.89493e+07
1.90487e+07
1.41793e+07
1.03643e+07
7.42108e+06
5.19048e+06
3.53632e+06
2.34264e+06
1.51226e+06
966356
595626
124784
6293.36
113.035
1.01095
0.00676422
6.41372e-05
1.50563e-06
1.02298e-07
1.62005e-08
4.36036e-09
1.51345e-09
6.13607e-10
2.36313e-10
1.03408e-10
4.42565e-11
1.67781e-11
6.19385e-12
2.30838e-12
4.7251e-13
0
4.06253e-17
-2.87593e-07
0
6.18772e-12
-1.56474e-11
7.62823e-16
0
-3.38692e-07
-2.47455e-10
6.58611e-15
-2.8106e-10
1.35213e-14
2.08767e-09
9.46416e-10
-1.60268e-17
1.92944e-09
-3.86423e-07
-3.92095e-09
-1.5222e-07
4.42691e-07
6.80683e-06
7.09851e-05
0.000648185
0.00502939
0.0328522
0.180917
0.847246
3.41509
12.0078
37.3219
103.816
261.285
600.519
1269.58
2481.75
4499.42
7590.53
12044.3
18182.3
26221.7
36438.9
49213.6
65070.5
84763.6
109346
140218
179237
228803
292002
372798
476284
609025
779509
998748
1.28107e+06
1.64515e+06
2.11548e+06
2.72419e+06
3.51368e+06
4.5401e+06
5.87826e+06
7.62846e+06
9.92621e+06
1.29192e+07
1.6868e+07
2.22175e+07
2.93632e+07
5.0517e+07
3.45317e+08
2.4414e+07
1.80301e+07
1.31469e+07
9.43292e+06
6.63776e+06
4.56564e+06
3.06071e+06
1.99783e+06
1.27707e+06
821166
389414
46687.8
1498.06
20.3921
0.157961
0.00114767
1.48806e-05
5.21322e-07
5.03132e-08
9.78775e-09
2.73486e-09
1.15801e-09
4.15193e-10
1.79887e-10
7.57818e-11
3.0817e-11
7.92086e-12
4.73584e-12
1.95189e-12
-4.07864e-13
0
0
0
0
-7.52266e-12
0
5.39059e-20
0
1.19145e-10
-3.17104e-15
0
2.73824e-10
0
-3.53062e-07
9.17725e-10
-1.55237e-17
-1.09585e-16
-3.76416e-09
4.65857e-09
5.94513e-08
7.15378e-07
7.39845e-06
8.01304e-05
0.000735411
0.00571675
0.0373867
0.206074
0.96568
3.89407
13.6942
42.557
118.314
297.457
682.389
1438.31
2798.12
5035.51
8426.85
13285.9
19896.5
28478.1
39317.5
52829.5
69595
90459.1
116585
149519
191297
244550
312670
400023
512242
656620
842625
1.08259e+06
1.39263e+06
1.79386e+06
2.31405e+06
2.98986e+06
3.86986e+06
5.01872e+06
6.52308e+06
8.49989e+06
1.11046e+07
1.44974e+07
1.90964e+07
2.53084e+07
3.38095e+07
2.08141e+08
1.88802e+08
2.27821e+07
1.65566e+07
1.18869e+07
8.39881e+06
5.81921e+06
3.94068e+06
2.60175e+06
1.6759e+06
1.06497e+06
684272
196615
14094.8
321.412
3.52692
0.0260433
0.000228247
4.26824e-06
2.19986e-07
2.82024e-08
6.39818e-09
2.04706e-09
8.184e-10
3.57397e-10
1.5167e-10
5.90804e-11
2.26827e-11
1.59935e-11
4.13888e-12
1.59002e-12
-4.93548e-13
-2.6412e-07
8.48522e-13
8.34712e-17
-1.72109e-16
0
-3.08204e-07
-5.31045e-20
0
3.06276e-15
0
-2.64436e-10
-2.17342e-10
-9.19191e-19
-3.44316e-07
1.09484e-09
-1.5047e-17
-1.13665e-16
1.05239e-13
-3.55408e-07
-1.04705e-07
8.12596e-07
8.81377e-06
9.24126e-05
0.00084713
0.00659811
0.0431975
0.238244
1.11672
4.50311
15.832
49.1747
136.59
342.915
784.886
1648.34
3188.19
5686.32
9435.33
14787.5
21957.4
31180.9
42763.1
57154.7
75011.3
97279.3
125247
160626
205656
263232
337093
432064
554391
712184
916002
1.17963e+06
1.52114e+06
1.96422e+06
2.54008e+06
3.28985e+06
4.26791e+06
5.54616e+06
7.21968e+06
9.41371e+06
1.22788e+07
1.59869e+07
2.09295e+07
2.73409e+07
3.55058e+07
4.14153e+08
4.26545e+07
1.98475e+07
1.44384e+07
1.03276e+07
7.24713e+06
4.9757e+06
3.334e+06
2.17759e+06
1.39156e+06
887080
507388
86472.1
3779.72
65.7221
0.614772
0.00466257
5.22386e-05
1.4188e-06
1.05201e-07
1.65845e-08
4.42245e-09
1.49473e-09
5.68667e-10
2.62956e-10
1.17153e-10
4.8895e-11
2.10798e-11
8.41776e-12
2.4244e-12
1.22644e-12
2.1125e-13
-2.63768e-07
0
0
0
0
-7.14944e-16
3.09921e-07
-1.06292e-19
0
2.18053e-19
0
-3.28899e-07
1.24567e-14
-1.05508e-09
1.06128e-09
-1.82042e-17
-1.28174e-16
-1.17852e-15
3.5317e-09
7.46484e-08
9.33457e-07
9.96727e-06
0.000106862
0.000986039
0.00769316
0.0504163
0.278181
1.30402
5.25736
18.4758
57.3468
159.123
398.839
910.548
1904.25
3657.92
6470.24
10658.5
16556.1
24366.8
34323.6
46756.4
62159.8
81274.2
105159
135239
173409
222132
284596
364925
468455
602117
774936
998706
1.28888e+06
1.66577e+06
2.15615e+06
2.79548e+06
3.63083e+06
4.72509e+06
6.16275e+06
8.05826e+06
1.05683e+07
1.38417e+07
1.82205e+07
2.42652e+07
3.25389e+07
8.00109e+07
2.94227e+08
2.49478e+07
1.80995e+07
1.29698e+07
9.15022e+06
6.33645e+06
4.29435e+06
2.84157e+06
1.83579e+06
1.16704e+06
752063
303309
32123.6
977.228
13.6189
0.115627
0.000969463
1.44983e-05
5.63941e-07
5.5487e-08
1.10421e-08
3.68835e-09
1.17813e-09
4.91071e-10
2.06433e-10
8.45562e-11
4.02822e-11
1.62893e-11
6.52349e-12
2.8616e-12
9.13259e-13
-5.9855e-13
-3.69249e-13
2.8716e-21
-3.46836e-12
2.87789e-07
0
-1.48448e-11
-5.14803e-20
0
2.94361e-15
-1.01761e-10
5.98827e-15
0
4.14706e-10
0
1.02792e-09
-2.11223e-17
-1.44951e-16
-1.32783e-15
7.57934e-09
-7.76347e-08
1.07905e-06
1.16204e-05
0.000124929
0.00115504
0.00902805
0.0592185
0.326867
1.53221
6.17568
21.6926
67.2829
186.493
466.659
1062.42
2211.32
4213.4
7386.63
12086.8
18600.4
27127.2
37900
51280
67813.5
88336
114025
146456
187712
240492
308294
395642
508405
654220
843053
1.08795e+06
1.40603e+06
1.81982e+06
2.35903e+06
3.06299e+06
3.98382e+06
5.19086e+06
6.77663e+06
8.86501e+06
1.16162e+07
1.51754e+07
1.99947e+07
2.64198e+07
3.50229e+07
3.22261e+08
1.33589e+08
2.22233e+07
1.60443e+07
1.1424e+07
7.99962e+06
5.49317e+06
3.6892e+06
2.41914e+06
1.55167e+06
986273
627880
163845
10959
253.762
2.96967
0.0243236
0.000238296
4.82392e-06
2.59865e-07
3.28402e-08
7.72101e-09
2.41834e-09
9.09162e-10
3.85341e-10
1.82905e-10
7.34118e-11
3.59673e-11
1.31587e-11
5.34781e-12
2.1115e-12
6.83631e-13
1.42923e-13
0
0
0
-7.05422e-12
-2.45479e-20
2.96007e-07
0
6.01181e-11
0
3.09051e-07
5.84072e-15
4.93603e-10
0
0
-3.14858e-07
-2.03927e-17
-4.76328e-14
-4.00653e-09
4.01551e-09
9.477e-08
1.09398e-06
1.36323e-05
0.000146313
0.00135678
0.0106246
0.0697578
0.385191
1.80568
7.27651
25.5497
79.1997
219.317
547.901
1243.72
2574.72
4861.57
8447.53
13727.6
20922.4
30231.7
41895.2
56302.2
74069.9
96134.5
123795
158786
203384
260533
334048
428862
551387
709976
915543
1.18239e+06
1.52931e+06
1.98105e+06
2.57027e+06
3.34017e+06
4.34796e+06
5.6695e+06
7.40528e+06
9.68808e+06
1.26732e+07
1.65495e+07
2.17683e+07
2.85987e+07
3.75753e+07
4.02268e+08
2.89199e+07
1.98025e+07
1.4237e+07
1.00784e+07
7.00931e+06
4.77703e+06
3.18312e+06
2.07217e+06
1.32366e+06
846630
479838
81208.4
3671.81
68.4549
0.704621
0.00588445
6.99862e-05
1.90834e-06
1.37191e-07
2.19889e-08
5.49873e-09
1.89615e-09
7.58433e-10
3.47428e-10
1.36575e-10
5.88215e-11
2.63655e-11
6.18144e-12
9.22834e-12
1.74697e-12
6.40827e-13
1.15602e-13
-9.64767e-18
0
-2.78482e-12
-5.68698e-12
-1.15762e-11
0
-4.98384e-20
5.90008e-11
0
0
0
0
8.19005e-19
3.03386e-07
-3.27578e-18
-2.62111e-17
-4.5852e-14
-1.65364e-15
1.39647e-08
-4.3396e-08
1.29621e-06
1.5851e-05
0.000171284
0.00159334
0.0125015
0.0821662
0.45394
2.12838
8.57695
30.1115
93.3092
258.205
644.091
1457.53
2998.52
5613.78
9681.22
15580.4
23511.9
33656.7
46267.6
61767.8
80855.5
104574
134348
172076
220230
282003
361527
464154
596841
768659
991482
1.28089e+06
1.65741e+06
2.14817e+06
2.78917e+06
3.62838e+06
4.73016e+06
6.18133e+06
8.10003e+06
1.06486e+07
1.39714e+07
1.84288e+07
2.46145e+07
3.3061e+07
8.34347e+07
2.94545e+08
2.50254e+07
1.80482e+07
1.28615e+07
9.03098e+06
6.23147e+06
4.21415e+06
2.78745e+06
1.80381e+06
1.1508e+06
744707
326198
37540.6
1269.48
19.81
0.187153
0.00166462
2.44913e-05
8.82815e-07
8.09427e-08
1.47932e-08
4.23996e-09
1.6857e-09
6.31976e-10
2.81248e-10
1.1666e-10
5.24874e-11
2.18206e-11
9.74224e-12
4.10703e-12
1.4658e-12
5.58555e-13
8.34918e-13
0
0
8.07703e-17
0
2.54989e-11
-1.42317e-11
6.82791e-16
-4.70907e-11
-2.7629e-15
-2.94686e-07
0
0
2.94461e-07
-2.20628e-14
-3.15953e-18
-2.52245e-17
2.94897e-07
3.00042e-09
1.33586e-08
2.81328e-07
1.52748e-06
1.8601e-05
0.000199979
0.00186564
0.0146661
0.0965086
0.533565
2.50286
10.0892
35.4276
109.785
303.683
756.541
1706.26
3484.21
6462.46
11066.3
17631.2
26338.8
37353.3
50946
67583.8
88054.4
113508
145500
186091
237945
304500
390196
500779
643712
828710
1.06846e+06
1.37957e+06
1.78383e+06
2.30991e+06
2.99564e+06
3.89113e+06
5.06298e+06
6.60027e+06
8.62282e+06
1.12887e+07
1.47333e+07
1.94387e+07
2.57652e+07
3.4345e+07
2.64358e+08
1.67127e+08
2.25134e+07
1.62091e+07
1.15229e+07
8.06577e+06
5.54431e+06
3.73342e+06
2.459e+06
1.58674e+06
1.01469e+06
659698
204912
17100.7
463.286
6.25973
0.0564215
0.000551824
1.00816e-05
4.6799e-07
5.22069e-08
1.12445e-08
3.4562e-09
1.27734e-09
5.01629e-10
2.41188e-10
9.124e-11
4.3471e-11
1.85496e-11
8.55714e-12
3.52656e-12
1.28717e-12
1.27089e-12
8.23668e-13
2.61937e-07
-3.93494e-17
2.72983e-07
0
0
0
0
0
0
-1.13717e-10
5.39345e-15
3.68127e-10
-4.50446e-10
2.12998e-14
-6.0852e-18
-2.72609e-17
-2.17246e-16
-2.05082e-15
1.27477e-08
1.52304e-07
1.77967e-06
2.13959e-05
0.000232018
0.00217195
0.0171101
0.112749
0.623982
2.92933
11.8166
41.5193
128.722
356.07
886.039
1990.81
4028.02
7394.91
12585.2
19844.3
29344.2
41241
55819.2
73611.8
95498.7
122734
157012
200550
256207
327671
419700
538452
691915
890486
1.14771e+06
1.48128e+06
1.91429e+06
2.47698e+06
3.20888e+06
4.16172e+06
5.40314e+06
7.0214e+06
9.13127e+06
1.18733e+07
1.5355e+07
2.00017e+07
2.60105e+07
3.37039e+07
4.09998e+08
6.00871e+07
1.99351e+07
1.44563e+07
1.0314e+07
7.2287e+06
4.96699e+06
3.33986e+06
2.19606e+06
1.41661e+06
910432
571357
131662
7943.97
180.783
2.18375
0.0194137
0.000213084
4.7964e-06
2.76742e-07
3.7602e-08
8.88508e-09
2.76634e-09
1.1722e-09
4.99295e-10
1.92976e-10
9.10303e-11
3.81112e-11
1.6147e-11
2.0865e-12
3.1555e-12
1.11609e-12
3.80801e-13
7.33359e-14
-2.61557e-07
0
-7.96471e-17
0
2.77319e-07
2.50559e-11
0
0
0
0
5.24245e-15
2.77057e-07
-2.75071e-07
0
-5.85029e-18
-3.19477e-17
-2.30859e-16
-2.26643e-15
1.21332e-08
1.74765e-07
2.04472e-06
2.45176e-05
0.000267112
0.00250773
0.0198011
0.1307
0.724296
3.40431
13.7483
48.3607
150.077
415.318
1032.4
2309.17
4630.43
8424.65
14198.4
22152.9
32428.7
45180.9
60715.9
79639.4
102923
131922
168461
214906
274308
350601
448861
575674
739598
951792
1.22684e+06
1.58382e+06
2.04776e+06
2.65155e+06
3.43841e+06
4.46527e+06
5.80713e+06
7.56296e+06
9.86329e+06
1.28565e+07
1.67235e+07
2.19438e+07
2.88099e+07
3.9471e+07
3.80096e+08
2.60343e+07
1.88804e+07
1.35396e+07
9.57893e+06
6.66912e+06
4.55797e+06
3.05158e+06
2.00051e+06
1.29028e+06
835188
479912
82862.7
3889.64
76.7346
0.851028
0.0076484
9.50442e-05
2.59814e-06
1.80367e-07
2.76587e-08
6.55036e-09
2.45457e-09
9.69623e-10
3.49836e-10
1.7841e-10
7.30792e-11
3.66128e-11
1.4595e-11
4.73412e-12
2.78193e-12
1.02782e-12
3.3728e-13
6.25862e-14
-9.59293e-18
-2.80019e-21
-7.9072e-17
-1.14679e-20
-3.21826e-16
0
0
0
1.85108e-19
-8.78229e-11
5.09084e-15
0
0
-1.97659e-14
8.2309e-10
2.60343e-07
-2.58856e-16
-2.49002e-15
1.15169e-08
1.88284e-07
2.20816e-06
2.78426e-05
0.000304265
0.00286516
0.0226776
0.149975
0.832506
3.9192
15.8534
55.8565
173.595
480.799
1193.88
2654.87
5266.79
9495.56
15838.1
24452.2
35451.2
48988.9
65410.5
85395
109989
140646
179297
228434
291271
371946
475811
609812
782996
1.00719e+06
1.29791e+06
1.67553e+06
2.16698e+06
2.80784e+06
3.64541e+06
4.74278e+06
6.18443e+06
8.08414e+06
1.0596e+07
1.38533e+07
1.818e+07
2.41017e+07
3.20271e+07
7.19007e+07
3.20586e+08
2.43654e+07
1.76339e+07
1.26142e+07
8.89991e+06
6.17926e+06
4.21223e+06
2.81411e+06
1.84307e+06
1.19129e+06
778880
388226
52642.9
2039.33
35.7834
0.372865
0.0034459
4.84696e-05
1.57451e-06
1.27559e-07
2.15595e-08
5.75009e-09
2.04906e-09
8.64502e-10
3.70932e-10
1.6501e-10
6.57723e-11
3.03751e-11
1.3197e-11
5.50469e-12
2.40756e-12
9.37998e-13
5.39219e-12
7.97143e-13
3.65579e-13
-2.64373e-07
0
-1.58169e-16
3.17722e-16
0
6.35646e-16
0
0
2.6541e-07
0
0
9.62814e-15
-1.36335e-18
-5.3789e-18
1.2663e-09
2.44326e-07
-2.71074e-15
1.93543e-08
2.0702e-07
2.50846e-06
3.09252e-05
0.000341939
0.00323155
0.0256408
0.169938
0.945208
4.45868
18.0731
63.8134
198.718
551.018
1366.32
3013.99
5898.78
10539.7
17398.9
26591.7
38217.2
52430.3
69628.2
90553.8
116315
148441
188940
240394
306128
390413
498771
638358
818487
1.05132e+06
1.35277e+06
1.74378e+06
2.25191e+06
2.91366e+06
3.77749e+06
4.90806e+06
6.3921e+06
8.34638e+06
1.09255e+07
1.426e+07
1.88275e+07
2.49604e+07
3.32326e+07
1.54549e+08
2.52237e+08
2.28177e+07
1.64749e+07
1.17651e+07
8.28951e+06
5.74877e+06
3.91519e+06
2.61454e+06
1.71364e+06
1.11176e+06
734001
309989
34557.7
1156.58
18.4676
0.184311
0.00176885
2.79525e-05
1.05543e-06
9.84612e-08
1.80407e-08
5.11469e-09
1.83915e-09
7.61746e-10
3.43371e-10
1.56662e-10
6.52835e-11
2.72076e-11
1.30717e-11
9.88122e-12
2.0338e-12
5.94523e-12
2.94652e-13
4.32532e-12
0
-2.95161e-12
5.94822e-12
0
2.6679e-07
0
0
0
0
0
2.54536e-07
0
-2.46814e-07
2.42284e-07
-7.53979e-10
-2.34226e-07
2.3057e-07
-2.30033e-07
2.05657e-08
2.27848e-07
2.7892e-06
3.4184e-05
0.000378555
0.00358949
0.0285539
0.189681
1.05738
4.99938
20.3147
71.9119
224.472
623.247
1541.95
3360.89
6461.62
11453.3
18725.4
28367.9
40474.1
55216.3
73043.8
94744.7
121476
154817
196817
250112
318080
405055
516619
659990
844524
1.08239e+06
1.38943e+06
1.78638e+06
2.30039e+06
2.9671e+06
3.83351e+06
4.96172e+06
6.4341e+06
8.3605e+06
1.08843e+07
1.41194e+07
1.85077e+07
2.43341e+07
3.20967e+07
2.71535e+08
1.78808e+08
2.08749e+07
1.51575e+07
1.08733e+07
7.68916e+06
5.34825e+06
3.6517e+06
2.44476e+06
1.60767e+06
1.04921e+06
698870
246453
24042.3
717.759
10.6277
0.103025
0.00102958
1.80284e-05
7.69725e-07
7.89892e-08
1.53395e-08
4.67677e-09
1.77059e-09
7.75684e-10
2.92843e-10
1.38238e-10
5.88073e-11
2.70067e-11
1.58465e-11
4.73123e-12
2.77934e-12
7.55574e-13
2.85309e-13
-4.95199e-12
2.60006e-07
3.84949e-17
2.64861e-12
-2.63641e-07
0
6.16149e-16
0
2.57687e-07
-1.71752e-19
0
0
0
2.3729e-07
7.34734e-10
2.27987e-07
-2.24091e-07
-3.1128e-16
4.92319e-09
1.45018e-08
2.44514e-07
2.9387e-06
3.70825e-05
0.000412126
0.0039179
0.0312441
0.208031
1.16237
5.50932
22.4464
79.681
249.364
693.113
1707.77
3651
6848.97
12081.7
19606.4
29519.8
41912.7
56998.1
75266.9
97535.1
124992
159236
202334
256938
326435
415158
528674
674146
860823
1.10067e+06
1.40919e+06
1.80651e+06
2.31881e+06
2.98018e+06
3.83511e+06
4.94177e+06
6.37643e+06
8.23935e+06
1.06628e+07
1.37353e+07
1.77469e+07
2.31287e+07
3.01693e+07
3.58117e+08
1.17411e+08
1.91591e+07
1.40085e+07
1.01078e+07
7.18332e+06
5.01786e+06
3.43937e+06
2.31142e+06
1.52674e+06
1.00255e+06
669877
212504
17831.1
488.706
6.82598
0.0649543
0.000674295
1.28574e-05
6.05115e-07
6.70521e-08
1.41997e-08
4.35179e-09
1.64008e-09
6.9325e-10
3.11064e-10
1.25007e-10
5.23928e-11
2.1816e-11
1.6121e-11
5.81679e-12
6.70701e-12
7.55526e-13
2.50345e-13
4.68987e-14
0
0
0
0
0
0
0
0
2.47891e-07
0
1.53519e-10
2.33051e-07
0
-2.21911e-07
1.2427e-09
-1.08799e-09
-3.20709e-16
4.63039e-09
2.06073e-08
2.61034e-07
3.25501e-06
3.95177e-05
0.000440062
0.00419356
0.0335156
0.223623
1.25221
5.94908
24.3005
86.4961
271.322
754.226
1843.33
3860.44
7081.49
12205.8
19768.8
29717.3
42162.3
57358.9
75824.2
98391.8
126262
161028
204758
260093
330400
419983
534350
680573
867750
1.10761e+06
1.41528e+06
1.81035e+06
2.31814e+06
2.97148e+06
3.81293e+06
4.89778e+06
6.29787e+06
8.10668e+06
1.0446e+07
1.34025e+07
1.72219e+07
2.23282e+07
2.89713e+07
3.84524e+08
7.97936e+07
1.81117e+07
1.32762e+07
9.60622e+06
6.84676e+06
4.79706e+06
3.29817e+06
2.22381e+06
1.47438e+06
972889
649424
189345
14247.7
366.349
4.89708
0.0460148
0.000492747
1.00392e-05
5.08247e-07
6.0507e-08
1.31965e-08
4.08379e-09
1.56694e-09
6.60393e-10
2.95814e-10
1.1698e-10
5.17461e-11
2.29655e-11
1.09396e-11
4.3165e-12
-3.1751e-12
7.33884e-13
-4.75727e-13
-6.88344e-13
0
0
2.60868e-12
0
3.0107e-16
5.9584e-16
0
-4.86768e-11
0
0
0
8.43666e-15
8.20194e-15
5.45568e-10
-6.51029e-10
-4.31389e-17
-2.22993e-09
4.33917e-09
1.9221e-08
2.69233e-07
3.24009e-06
4.11745e-05
0.000460192
0.00439282
0.0351673
0.235035
1.31841
6.27552
25.6873
91.6258
287.81
798.215
1936.81
4121.75
7553.3
11905.5
18892
28598.3
40810.3
55817.9
74149.5
96644.3
124490
159265
203014
258346
328592
418002
532008
677574
863643
1.10172e+06
1.40665e+06
1.79759e+06
2.2993e+06
2.94387e+06
3.77292e+06
4.84052e+06
6.21701e+06
7.99413e+06
1.02916e+07
1.31997e+07
1.69484e+07
2.19639e+07
2.84912e+07
3.86295e+08
6.04576e+07
1.75531e+07
1.28613e+07
9.30844e+06
6.63993e+06
4.65815e+06
3.20822e+06
2.16799e+06
1.44146e+06
954529
635715
175367
12297
302.439
3.91833
0.0364834
0.000398996
8.49786e-06
4.52312e-07
5.56395e-08
1.23392e-08
3.88929e-09
1.53023e-09
6.42081e-10
2.78289e-10
1.21153e-10
5.35294e-11
2.39641e-11
1.05059e-11
4.4833e-12
1.74513e-12
6.86405e-13
2.27758e-13
7.77665e-13
6.82335e-22
0
0
1.50034e-16
-2.96882e-16
0
0
0
-2.20742e-15
-2.28876e-07
3.19194e-10
0
-7.84912e-15
-1.08922e-18
-5.02118e-10
-4.27188e-17
-3.38376e-16
2.23298e-09
1.78431e-08
3.57668e-07
3.3332e-06
4.20802e-05
0.000470245
0.00449448
0.0360157
0.240938
1.3529
6.44681
26.4191
94.3259
296.145
819.911
2003.95
4267.98
7821.55
12323.4
17034.9
25821.9
37456.4
51871.7
69604.8
91483.3
118665
152694
195568
249844
318788
406565
518505
661434
844120
1.07784e+06
1.37714e+06
1.7608e+06
2.25313e+06
2.88564e+06
3.69931e+06
4.74748e+06
6.09978e+06
7.84734e+06
1.01097e+07
1.29766e+07
1.66801e+07
2.16414e+07
2.81012e+07
3.85724e+08
5.25093e+07
1.71476e+07
1.25526e+07
9.0793e+06
6.47485e+06
4.54302e+06
3.13066e+06
2.11759e+06
1.40986e+06
935079
622285
168399
11458.8
275.506
3.51201
0.0325462
0.000359668
7.83073e-06
4.27598e-07
5.32166e-08
1.22746e-08
3.77961e-09
1.49093e-09
6.31493e-10
2.60828e-10
1.18957e-10
5.39501e-11
2.30179e-11
9.36602e-12
3.33007e-12
1.63466e-12
-7.09581e-14
9.5927e-13
4.27494e-14
-9.50653e-18
3.79698e-17
2.58859e-12
0
2.96901e-16
0
2.45006e-07
-2.40187e-07
0
9.05382e-11
-2.22534e-07
8.10887e-15
0
1.51727e-14
-6.17107e-10
1.19279e-09
-3.38363e-16
2.23285e-09
1.78426e-08
1.88378e-07
3.33314e-06
4.1989e-05
0.000470194
0.00449374
0.0360131
0.240944
1.35307
6.44827
26.4277
94.3655
296.295
820.387
2005.23
4270.83
7826.78
12331.4
17045.2
25841.5
37483
51906
69647.1
91533.7
118723
152758
195634
249906
318837
406585
518472
661313
843858
1.07737e+06
1.37635e+06
1.75956e+06
2.25126e+06
2.88293e+06
3.69552e+06
4.74238e+06
6.09325e+06
7.83947e+06
1.0101e+07
1.29683e+07
1.66751e+07
2.16422e+07
2.8108e+07
3.85676e+08
5.24714e+07
1.71457e+07
1.25466e+07
9.07215e+06
6.46844e+06
4.53817e+06
3.12743e+06
2.11567e+06
1.40884e+06
934598
622027
168257
11443.1
275.044
3.50531
0.0324814
0.000359007
7.81931e-06
4.27761e-07
5.38474e-08
1.21063e-08
3.77631e-09
1.44628e-09
6.0864e-10
2.6087e-10
1.18974e-10
5.02263e-11
2.30202e-11
9.68397e-12
4.08741e-12
6.65208e-12
-7.09e-14
2.27383e-13
4.14806e-14
0
0
2.59252e-07
0
2.1609e-20
-1.25384e-11
-2.013e-11
1.15654e-15
0
0
1.82314e-10
2.24296e-07
-2.80847e-10
-2.10563e-07
-8.88176e-18
1.99733e-07
-3.35467e-16
4.33886e-09
1.68914e-08
2.7106e-07
3.23197e-06
4.12183e-05
0.000459819
0.00439053
0.0351578
0.235037
1.3188
6.27918
25.7097
91.7312
288.216
799.527
1940.32
4129.66
7567.9
11927.8
18933.8
28659.1
40893
55924.7
74282.1
96803.5
124676
159474
203238
258573
328800
418153
532045
677410
863152
1.10073e+06
1.4049e+06
1.79474e+06
2.29493e+06
2.93746e+06
3.76389e+06
4.82833e+06
6.20139e+06
7.97543e+06
1.02714e+07
1.31814e+07
1.69385e+07
2.19683e+07
2.85089e+07
3.86168e+08
6.02878e+07
1.75498e+07
1.28471e+07
9.28982e+06
6.62213e+06
4.64382e+06
3.19796e+06
2.1613e+06
1.43743e+06
952280
634404
174816
12240.9
300.815
3.89495
0.0362613
0.00039681
8.46478e-06
4.50852e-07
5.56788e-08
1.24904e-08
4.05532e-09
1.48483e-09
6.6586e-10
2.78399e-10
1.27974e-10
5.10363e-11
2.33366e-11
1.01148e-11
4.48435e-12
1.72702e-12
-7.19756e-14
2.27809e-13
4.30273e-14
0
0
-2.61238e-07
-1.17016e-11
0
2.31276e-11
2.5515e-07
2.51873e-07
-2.33079e-15
-7.8361e-11
0
0
0
-2.39609e-18
-7.01062e-18
-3.87643e-17
2.07296e-07
2.55291e-09
1.60785e-08
2.56592e-07
3.05834e-06
3.94567e-05
0.000439644
0.00418982
0.0334981
0.223602
1.25265
5.95389
24.3312
86.6441
271.901
756.124
1848.52
3872.01
7103.08
12248
19836.9
29817.5
42300.1
57538.8
76050.5
98668.3
126591
161413
205197
260577
330914
420497
534812
680903
867827
1.10726e+06
1.41426e+06
1.80832e+06
2.31469e+06
2.96612e+06
3.80517e+06
4.88726e+06
6.28466e+06
8.09175e+06
1.0432e+07
1.3394e+07
1.72223e+07
2.23399e+07
2.89891e+07
3.84591e+08
7.93369e+07
1.81054e+07
1.32621e+07
9.58827e+06
6.82938e+06
4.78286e+06
3.28788e+06
2.21704e+06
1.47031e+06
970630
648133
188564
14149.9
363.235
4.84941
0.0455483
0.000488211
9.96395e-06
5.06854e-07
5.99029e-08
1.3028e-08
4.08628e-09
1.56779e-09
6.60724e-10
2.83733e-10
1.18183e-10
5.3599e-11
2.36174e-11
9.88914e-12
4.31813e-12
-3.09296e-12
7.08978e-13
2.63248e-13
-4.95275e-12
0
0
-7.73448e-17
0
0
0
4.66953e-11
2.57719e-07
-2.54558e-07
-8.07231e-11
-3.32641e-19
0
-2.37344e-07
-2.3266e-07
-7.36177e-18
2.22663e-07
-1.12499e-09
4.9228e-09
2.19992e-08
1.38631e-07
3.03959e-06
3.69981e-05
0.000411273
0.003912
0.0312128
0.207935
1.16251
5.51327
22.476
79.8334
249.983
695.202
1713.67
3664.57
6876.44
12134.6
19693.3
29650
42094.4
57238.9
75574.9
97919.3
125463
159805
203014
257741
327372
416238
529897
675504
862295
1.10221e+06
1.41074e+06
1.80799e+06
2.3201e+06
2.98117e+06
3.8357e+06
4.94194e+06
6.37633e+06
8.23942e+06
1.06639e+07
1.3738e+07
1.77519e+07
2.31347e+07
3.0169e+07
3.59269e+08
1.16369e+08
1.91491e+07
1.40017e+07
1.01009e+07
7.17653e+06
5.01198e+06
3.43484e+06
2.30825e+06
1.5247e+06
1.00137e+06
669096
211556
17671.5
483.053
6.7345
0.0640494
0.000665675
1.27279e-05
6.01733e-07
6.77221e-08
1.43638e-08
4.25946e-09
1.60175e-09
6.93635e-10
3.11219e-10
1.36489e-10
6.05507e-11
2.51691e-11
1.11041e-11
4.50851e-12
1.1012e-12
7.55808e-13
2.50442e-13
4.69149e-14
0
3.86685e-17
-5.59311e-21
0
0
0
0
2.63526e-07
0
-2.58048e-07
0
0
-2.46798e-07
-1.30803e-18
2.38133e-07
3.51977e-14
-1.18777e-09
5.2168e-09
2.05641e-08
2.22766e-07
2.67068e-06
3.40792e-05
0.000377659
0.00358139
0.0285061
0.18948
1.05697
5.00089
20.3352
72.0354
225.012
625.151
1547.55
3374.46
6490.26
11509.1
18819.3
28511.6
40678.3
55491.5
73401.5
95198.7
122044
155521
197685
251180
319390
406659
518586
662401
847483
1.08602e+06
1.39391e+06
1.79191e+06
2.3072e+06
2.97547e+06
3.84368e+06
4.97383e+06
6.44801e+06
8.37549e+06
1.08987e+07
1.41283e+07
1.85088e+07
2.43247e+07
3.20755e+07
2.73967e+08
1.76956e+08
2.08446e+07
1.51414e+07
1.08653e+07
7.68557e+06
5.34694e+06
3.65143e+06
2.44489e+06
1.6079e+06
1.04944e+06
699021
245545
23800.5
707.749
10.4515
0.10121
0.00101279
1.77927e-05
7.62289e-07
7.83027e-08
1.60535e-08
4.68032e-09
1.72159e-09
7.51057e-10
3.1601e-10
1.43982e-10
5.88335e-11
2.70186e-11
1.15127e-11
3.98505e-12
7.1186e-12
1.04228e-14
2.72734e-13
-4.95454e-12
-1.64006e-13
0
-2.67162e-07
0
0
2.42885e-11
-2.70397e-07
0
2.51678e-15
0
4.93823e-15
0
2.56338e-07
-1.89934e-14
6.41518e-10
-3.45023e-17
-2.77878e-16
-2.47256e-09
2.17972e-08
8.73803e-08
2.49284e-06
3.09106e-05
0.000340624
0.00322159
0.0255763
0.169619
0.944097
4.45676
18.0792
63.8841
199.088
552.445
1370.76
3025.37
5923.94
10590
17486.1
26728.4
38415.6
52702.2
69986.7
91015.1
116900
149178
189865
241556
307589
392256
501104
641323
822270
1.05616e+06
1.35899e+06
1.75177e+06
2.26215e+06
2.92669e+06
3.79386e+06
4.92821e+06
6.41606e+06
8.37329e+06
1.09533e+07
1.42832e+07
1.88395e+07
2.49572e+07
3.32236e+07
1.56669e+08
2.50017e+08
2.27762e+07
1.64518e+07
1.1754e+07
8.28499e+06
5.74716e+06
3.9146e+06
2.61417e+06
1.71324e+06
1.11135e+06
733664
307622
34127.8
1136.67
18.0895
0.180282
0.00173281
2.74917e-05
1.03956e-06
9.7141e-08
1.77352e-08
5.15622e-09
2.02393e-09
7.62243e-10
3.43574e-10
1.44934e-10
7.04166e-11
2.72196e-11
1.23215e-11
5.12098e-12
2.22088e-12
7.54466e-13
3.17724e-13
7.91627e-13
2.01871e-13
2.6554e-07
-7.90769e-17
1.59773e-16
0
1.36042e-11
-6.47517e-16
-1.2938e-15
0
-1.95753e-10
0
-7.2415e-19
0
1.97617e-14
8.23028e-10
-3.87504e-14
2.54999e-07
-2.47889e-15
1.15158e-08
6.40685e-08
2.19782e-06
2.75901e-05
0.000302952
0.00285368
0.022599
0.149547
0.830701
3.91361
15.843
55.8634
173.751
481.59
1196.67
2662.65
5285.1
9533.86
15906.9
24563.3
35616
49218.5
65716.6
85791.8
110494
141284
180100
229442
292538
373540
477818
612342
786190
1.01122e+06
1.30298e+06
1.6819e+06
2.17491e+06
2.81763e+06
3.65732e+06
4.75694e+06
6.20071e+06
8.10194e+06
1.06139e+07
1.38685e+07
1.81912e+07
2.41095e+07
3.20442e+07
7.29946e+07
3.19081e+08
2.43422e+07
1.7606e+07
1.25908e+07
8.88274e+06
6.1673e+06
4.20403e+06
2.80848e+06
1.83922e+06
1.18869e+06
777229
385616
51846.8
1996.38
34.8942
0.36297
0.00335982
4.74857e-05
1.55319e-06
1.26911e-07
2.15823e-08
5.75607e-09
2.04569e-09
8.70914e-10
3.71167e-10
1.651e-10
7.18346e-11
3.03875e-11
1.38797e-11
3.21346e-13
2.3043e-12
8.44716e-13
3.16247e-13
5.07246e-12
2.61557e-07
0
6.07953e-12
0
-1.11616e-11
1.12404e-11
0
0
0
-2.80164e-07
2.2063e-10
-2.77041e-07
0
0
-5.84985e-18
-3.48493e-17
-2.67217e-07
-2.71759e-07
1.21322e-08
1.68723e-07
2.04452e-06
2.43679e-05
0.000265748
0.00249584
0.0197134
0.130191
0.721924
3.39549
13.7226
48.3062
150.019
415.455
1033.43
2312.86
4640.41
8447.59
14242
22226.1
32540.3
45339.2
60928.6
79915.3
103272
132359
169002
215572
275127
351604
450088
577172
741422
954009
1.22953e+06
1.58708e+06
2.05172e+06
2.65638e+06
3.44438e+06
4.47276e+06
5.81681e+06
7.5759e+06
9.88131e+06
1.2882e+07
1.67588e+07
2.19983e+07
2.8896e+07
3.99355e+07
3.79194e+08
2.60571e+07
1.88747e+07
1.35218e+07
9.55851e+06
6.6507e+06
4.54315e+06
3.04045e+06
1.99256e+06
1.28486e+06
831718
476122
81498.6
3797.04
74.5673
0.825026
0.00742421
9.27419e-05
2.55053e-06
1.77598e-07
2.69354e-08
7.31588e-09
2.45141e-09
9.65144e-10
3.98589e-10
1.67569e-10
7.83631e-11
3.66241e-11
1.47563e-11
1.15004e-11
7.89913e-12
1.02771e-12
3.83551e-13
6.57164e-14
0
0
2.74673e-12
0
0
0
-2.85517e-07
0
0
-1.13712e-10
0
-7.71552e-19
0
-2.83136e-07
-3.04238e-18
-2.80484e-07
8.38525e-14
-2.05065e-15
9.23245e-09
2.86928e-07
1.76688e-06
2.11326e-05
0.000230705
0.00215973
0.017019
0.112197
0.621248
2.91821
11.7792
41.4155
128.486
355.646
885.527
1990.75
4029.72
7401.53
12602.8
19876.9
29397.1
41318.6
55924.9
73748.5
95669.1
122941
157259
200839
256542
328054
420132
538931
692440
891054
1.14833e+06
1.48196e+06
1.9151e+06
2.47806e+06
3.21053e+06
4.16452e+06
5.4081e+06
7.03018e+06
9.14644e+06
1.18988e+07
1.53968e+07
2.00654e+07
2.60964e+07
3.37956e+07
4.1003e+08
5.89035e+07
1.99587e+07
1.4466e+07
1.03159e+07
7.22691e+06
4.96391e+06
3.33667e+06
2.19327e+06
1.4144e+06
908868
569381
129800
7751.53
175.346
2.1104
0.0187683
0.000207031
4.69675e-06
2.72519e-07
3.61009e-08
8.89404e-09
2.66121e-09
1.07483e-09
4.99564e-10
1.79421e-10
8.54998e-11
3.45072e-11
1.63087e-11
7.79538e-12
2.98397e-12
1.9723e-12
4.27158e-13
7.33023e-14
0
0
6.16528e-12
0
0
1.42322e-11
2.90453e-07
0
0
0
0
2.94991e-07
4.65362e-10
0
1.67993e-09
-2.52226e-17
-2.01471e-16
-1.84255e-15
1.03612e-08
1.3326e-07
1.51405e-06
1.83369e-05
0.000198774
0.00185403
0.0145776
0.0959534
0.5307
2.49058
10.0449
35.2917
109.426
302.855
754.878
1703.33
3479.65
6456.8
11061.9
17628.7
26339.8
37358.9
50956.3
67597.7
88069.6
113520
145505
186083
237912
304429
390066
500560
643359
828157
1.06761e+06
1.37827e+06
1.78186e+06
2.30695e+06
2.99122e+06
3.8846e+06
5.05351e+06
6.58679e+06
8.60418e+06
1.12649e+07
1.47049e+07