/*--------------------------------*- C++ -*----------------------------------*\
  =========                 |
  \\      /  F ield         | OpenFOAM: The Open Source CFD Toolbox
   \\    /   O peration     | Website:  https://openfoam.org
    \\  /    A nd           | Version:  8
     \\/     M anipulation  |
\*---------------------------------------------------------------------------*/
FoamFile
{
    version     2.0;
    format      ascii;
    class       volScalarField;
    location    "120/fluid";
    object      rDeltaT;
}
// * * * * * * * * * * * * * * * * * * * * * * * * * * * * * * * * * * * * * //

dimensions      [0 0 -1 0 0 0 0];

internalField   nonuniform List<scalar> 
4000
(
513.173
538.975
563.82
587.729
610.715
632.789
653.899
673.935
692.761
710.249
726.309
740.907
754.089
765.988
776.763
786.494
795.14
802.506
808.231
811.836
812.815
810.739
805.349
796.597
784.658
769.88
752.649
733.387
712.517
690.446
667.544
644.137
620.504
596.876
573.439
550.343
527.7
505.596
497.041
505.163
516.653
528.623
541.147
554.291
568.119
582.688
598.055
614.272
631.388
649.452
668.51
688.606
709.783
732.081
755.538
780.186
806.056
833.171
861.543
891.176
922.058
954.157
987.421
1021.76
1057.06
1093.12
1129.84
1166.92
1203.82
3646.43
11636.6
1311.26
1321.77
1328.08
1329.07
1324.12
1312.42
1293.1
1265.33
1228.49
1182.3
1126.78
1062.96
993.351
921.796
853.913
796.123
752.926
724.406
706.545
693.922
682.114
668.731
652.787
634.257
613.444
590.644
566.087
540.073
513.242
512.767
538.039
562.25
585.225
607.007
627.623
647.048
665.212
682.037
697.468
711.501
724.203
735.715
746.217
755.857
764.724
772.791
779.869
785.596
789.476
790.971
789.605
785.055
777.213
766.173
752.17
735.556
716.747
696.178
674.275
651.43
627.987
604.239
580.43
556.754
533.364
510.378
487.881
481.555
492.956
505.981
519.422
533.355
547.853
562.982
578.804
595.381
612.769
631.024
650.2
670.349
691.521
713.765
737.13
761.662
787.406
814.401
842.685
872.29
903.237
935.539
969.19
1004.17
1040.43
1077.89
1116.39
1155.89
1196.18
1237.04
7035.93
8735.16
1326.33
1330.69
1331.76
1328.02
1318.31
1301.6
1276.85
1243.14
1199.8
1146.44
1083.24
1012.01
936.522
862.528
796.778
745.204
710.202
689.333
677.367
668.959
660.596
650.516
638.03
622.889
605.187
585.067
562.664
538.202
512.553
512.151
536.037
558.697
579.991
599.927
618.538
635.828
651.774
666.363
679.613
691.603
702.468
712.389
721.551
730.112
738.183
745.764
752.68
758.573
762.937
765.206
764.864
761.533
755.02
745.31
732.541
717.008
699.091
679.213
657.793
635.224
611.859
588.003
563.909
539.786
515.799
492.075
469.956
466.812
481.76
497.029
512.693
528.826
545.497
562.773
580.717
599.393
618.859
639.175
660.399
682.586
705.793
730.074
755.485
782.078
809.908
839.025
869.479
901.317
934.582
969.31
1005.53
1043.25
1082.48
1123.15
1165.14
1208.43
1252.73
1298.33
15645.6
3702.43
1353.51
1351.96
1346.07
1334.81
1317.09
1291.9
1258.29
1215.51
1163.12
1101.02
1030.1
953.222
875.167
802.42
741.56
696.893
668.59
652.919
644.68
639.268
633.763
626.722
617.587
606.068
592.032
575.422
556.245
534.69
511.495
511.553
534.222
555.589
575.506
593.994
611.102
626.854
641.252
654.305
666.049
676.571
686.009
694.549
702.405
709.779
716.814
723.526
729.753
735.143
739.185
741.306
740.97
737.774
731.496
722.108
709.745
694.667
677.213
657.757
636.681
614.346
591.08
567.17
542.861
518.356
493.819
469.379
452.003
455.264
472.503
490.098
508.117
526.623
545.68
565.35
585.694
606.772
628.642
651.364
674.994
699.591
725.211
751.91
779.745
808.769
839.035
870.593
903.487
937.756
973.424
1010.5
1048.97
1088.76
1129.78
1171.71
1214.32
1257.28
1299.59
1740.72
14880.5
1399.89
1390.71
1378.32
1361.62
1339.69
1311.55
1276.25
1232.98
1181.23
1120.89
1052.26
977.116
899.061
823.226
755.69
701.944
664.711
642.652
631.396
626.039
622.592
618.698
613.19
605.583
595.693
583.42
568.681
551.433
531.807
510.536
510.902
532.22
552.167
570.605
587.559
603.083
617.214
629.971
641.38
651.503
660.447
668.378
675.505
682.065
688.282
694.313
700.186
705.747
710.646
714.372
716.338
715.99
712.899
706.813
697.673
685.583
670.775
653.563
634.297
613.336
591.022
567.664
543.538
518.877
493.875
468.69
443.451
432.718
444.351
463.83
483.722
504.082
524.967
546.432
568.535
591.33
614.873
639.221
664.428
690.55
717.642
745.757
774.95
805.272
836.775
869.505
903.505
938.812
975.45
1013.43
1052.74
1093.34
1135.15
1178.02
1221.58
1265.76
1309.99
1353.64
6557.09
8751
1428.45
1412.39
1392.18
1367.01
1336.18
1299.04
1254.95
1203.39
1144.16
1077.37
1003.81
925.981
847.927
774.948
712.748
665.698
634.931
617.895
609.996
606.773
604.897
602.459
598.505
592.609
584.57
574.25
561.529
546.334
528.777
509.55
510.242
530.217
548.783
565.808
581.321
595.383
608.039
619.316
629.255
637.926
645.448
651.995
657.787
663.071
668.081
672.99
677.839
682.488
686.599
689.669
691.118
690.387
687.036
680.799
671.592
659.496
644.715
627.536
608.282
587.287
564.871
541.327
516.911
491.846
466.314
440.467
414.977
412.627
433.749
455.3
477.325
499.873
522.99
546.726
571.13
596.252
622.142
648.85
676.429
704.927
734.395
764.883
796.44
829.113
862.948
897.984
934.257
971.795
1010.61
1050.7
1092.03
1134.53
1178.07
1222.4
1267.13
1312.02
1356.26
1399.53
16782.7
2312.32
1438.78
1416.8
1390.09
1358.22
1320.53
1276.5
1225.7
1167.9
1103.22
1032
955.65
877.248
801.161
732.67
676.861
636.831
612.255
599.706
594.624
593.009
592.139
590.517
587.412
582.503
575.624
566.64
555.414
541.85
526.036
508.637
509.563
528.156
545.31
560.901
574.96
587.551
598.723
608.512
616.967
624.168
630.246
635.386
639.819
643.804
647.591
651.36
655.166
658.879
662.166
664.529
665.386
664.175
660.447
653.92
644.494
632.229
617.308
599.996
580.595
559.42
536.772
512.928
488.13
462.588
436.475
409.935
392.575
399.862
422.81
446.252
470.226
494.772
519.93
545.743
572.252
599.503
627.539
656.404
686.143
716.799
748.418
781.039
814.705
849.451
885.312
922.314
960.476
999.801
1040.28
1081.87
1124.5
1168.04
1212.3
1256.79
1301.29
1345.3
1387.56
2605.64
12886.2
1471.51
1446.7
1417.6
1383.76
1344.83
1300.38
1250.02
1193.44
1130.61
1061.76
987.504
909.811
832.115
758.944
695.373
645.725
611.864
592.313
583.186
580.179
579.793
579.789
578.96
576.72
572.807
567.072
559.378
549.578
537.566
523.422
507.771
508.875
526.07
541.807
555.968
568.586
579.726
589.441
597.773
604.776
610.54
615.201
618.951
622.03
624.705
627.234
629.809
632.495
635.172
637.518
639.043
639.169
637.334
633.082
626.121
616.337
603.771
588.587
571.029
551.379
529.935
506.979
482.773
457.547
431.499
404.792
377.563
369.031
386.575
411.163
436.301
462.021
488.355
515.338
543.006
571.394
600.541
630.484
661.261
692.909
725.466
758.968
793.448
828.939
865.467
903.055
941.72
981.466
1022.29
1064.16
1107.03
1150.82
1195.41
1240.6
1285.94
1331.49
1376.61
1421.01
10710.5
6501.55
1460.31
1433.78
1401.8
1364.35
1321.3
1272.51
1217.88
1157.35
1091.13
1019.58
943.714
865.999
790.129
720.694
662.445
618.865
590.664
575.475
569.206
567.879
568.462
569.122
568.894
567.324
564.206
559.414
552.816
544.261
533.635
521.008
506.969
508.175
523.952
538.254
550.972
562.139
571.821
580.073
586.942
592.489
596.807
600.042
602.391
604.101
605.448
606.699
608.055
609.59
611.193
612.551
613.181
612.508
609.971
605.11
597.626
587.39
574.43
558.892
541.003
521.028
499.245
475.925
451.313
425.629
399.058
371.758
346.303
346.952
372.434
398.486
425.134
452.403
480.321
508.917
538.218
568.257
599.065
630.674
663.114
696.418
730.614
765.731
801.795
838.828
876.847
915.863
955.878
996.88
1038.84
1081.7
1125.37
1169.71
1214.5
1259.36
1303.81
1347.55
1389.52
1435.45
16481.6
1572.01
1450.34
1418.59
1381.76
1339.93
1292.89
1240.45
1182.52
1119.16
1050.7
977.599
901.274
824.551
751.294
686.049
633.137
595.173
571.875
560.271
556.275
556.287
557.687
558.962
559.33
558.426
556.087
552.203
546.646
539.266
529.945
518.746
506.221
507.467
521.809
534.661
545.925
555.634
563.854
570.642
576.048
580.137
583.01
584.816
585.759
586.093
586.098
586.05
586.159
586.506
586.99
587.308
586.982
585.445
582.136
576.596
568.516
557.759
544.339
528.388
510.113
489.765
467.607
443.893
418.858
392.708
365.622
337.746
320.474
330.479
357.218
384.569
412.551
441.185
470.493
500.498
531.224
562.697
594.941
627.983
661.848
696.56
732.142
768.612
805.989
844.284
883.504
923.646
964.697
1006.63
1049.4
1092.92
1137.1
1181.75
1226.65
1271.2
1315.2
1358.07
1398.24
2690.06
12815.6
1468.21
1436.35
1399.99
1358.95
1313.16
1262.51
1206.88
1146.23
1080.7
1010.66
936.721
860.681
785.597
715.422
654.566
606.841
574.021
554.995
546.406
544.306
545.439
547.56
549.408
550.345
550.078
548.477
545.447
540.868
534.589
526.492
516.633
505.525
506.75
519.639
531.026
540.822
549.063
555.812
561.127
565.063
567.688
569.109
569.48
569.011
567.958
566.612
565.251
564.094
563.231
562.57
561.814
560.495
558.05
553.924
547.655
538.932
527.607
513.684
497.278
478.583
457.835
435.281
411.162
385.702
359.096
331.513
303.093
293.826
312.915
340.768
369.265
398.421
428.25
458.77
490
521.957
554.664
588.14
622.405
657.48
693.381
730.125
767.725
806.19
845.524
885.726
926.785
968.679
1011.37
1054.82
1098.93
1143.6
1188.68
1233.94
1278.84
1323.49
1367.12
1409.12
8676.21
7925.18
1440.88
1408.27
1370.57
1327.88
1280.24
1227.7
1170.29
1108.12
1041.46
970.734
896.792
821.774
748.893
682.14
625.724
582.914
554.713
539.361
533.3
532.796
534.908
537.709
540.139
541.666
542.052
541.193
539.005
535.373
530.153
523.226
514.641
504.871
506.024
517.444
527.352
535.669
542.431
547.701
551.537
553.997
555.154
555.12
554.052
552.165
549.722
547.016
544.333
541.897
539.807
537.977
536.121
533.778
530.393
525.415
518.384
508.983
497.06
482.605
465.723
446.592
425.433
402.48
377.962
352.09
325.05
297.002
268.081
266.445
294.145
322.981
352.485
382.667
413.537
445.108
477.394
510.409
544.171
578.694
613.994
650.084
686.978
724.685
763.21
802.557
842.719
883.687
925.439
967.942
1011.15
1054.99
1099.37
1144.17
1189.21
1234.25
1278.78
1322.79
1365.54
1407.02
16234.4
3192.95
1410.21
1376.52
1337.61
1293.69
1244.81
1191.06
1132.56
1069.53
1002.37
931.54
858.176
784.664
714.333
651.157
599.088
560.852
536.766
524.587
520.687
521.567
524.576
528.049
531.079
533.222
534.282
534.171
532.818
530.114
525.92
520.119
512.754
504.254
505.291
515.227
523.641
530.468
535.742
539.525
541.876
542.855
542.541
541.048
538.54
535.234
531.399
527.33
523.319
519.597
516.268
513.256
510.282
506.895
502.548
496.696
488.88
478.782
466.243
451.244
433.876
414.305
392.737
369.395
344.494
318.233
290.79
262.317
239.408
245.074
274.092
303.79
334.174
365.248
397.019
429.494
462.685
496.602
531.258
566.663
602.829
639.765
677.478
715.972
755.247
795.296
836.106
877.653
919.904
962.804
1006.28
1050.23
1094.51
1138.92
1183.18
1226.87
1269.48
1310.8
1349.78
1445.79
15728.3
1421.67
1389.61
1351.98
1309.53
1262.62
1211.34
1155.72
1095.85
1031.95
964.415
893.728
821.235
749.485
681.857
622.248
574.314
540.252
519.795
510.356
508.32
510.431
514.292
518.447
522.114
524.911
526.674
527.33
526.815
525.031
521.843
517.137
510.95
503.668
504.551
512.988
519.898
525.223
529.001
531.292
532.154
531.65
529.864
526.913
522.966
518.244
513.016
507.586
502.247
497.235
492.662
488.458
484.355
479.911
474.589
467.848
459.235
448.43
435.268
419.721
401.87
381.866
359.904
336.191
310.933
284.316
256.511
227.66
210.647
222.956
252.709
283.159
314.306
346.15
378.693
411.941
445.9
480.579
515.985
552.126
589.01
626.643
665.028
704.164
744.046
784.664
825.999
868.022
910.693
953.952
997.718
1041.88
1086.27
1130.69
1174.84
1218.09
1260.16
1300.43
1337.48
2317.62
13775.8
1399.71
1363.42
1322.89
1278.15
1229.34
1176.5
1119.7
1059.02
994.719
927.207
857.035
785.743
715.988
651.164
595.056
551.007
520.727
503.47
496.418
496.029
499.27
503.967
508.831
513.175
516.668
519.169
520.614
520.948
520.08
517.885
514.253
509.214
503.105
503.804
510.731
516.124
519.941
522.218
523.012
522.383
520.397
517.14
512.735
507.353
501.219
494.605
487.817
481.153
474.853
469.034
463.635
458.397
452.889
446.584
438.949
429.534
418.02
404.237
388.149
369.825
349.405
327.07
303.015
277.433
250.501
222.38
193.205
181.411
199.587
229.977
261.073
292.875
325.375
358.574
392.474
427.077
462.388
498.414
535.159
572.629
610.826
649.75
689.4
729.767
770.839
812.596
855.009
898.036
941.619
985.678
1030.1
1074.75
1119.4
1163.74
1207.13
1249.55
1289.93
1327.08
4804.63
11274.1
1366.96
1329.64
1288.2
1242.63
1193.07
1139.62
1082.39
1021.56
957.424
890.415
821.178
751.428
683.888
621.938
569.23
528.802
501.936
487.51
482.567
483.666
487.98
493.52
499.13
504.2
508.436
511.711
513.972
515.169
515.221
514.013
511.443
507.529
502.562
503.052
508.458
512.327
514.629
515.4
514.697
512.579
509.113
504.39
498.537
491.727
484.189
476.197
468.059
460.075
452.491
445.428
438.835
432.461
425.887
418.597
410.067
399.853
387.635
373.24
356.624
337.846
317.033
294.354
269.992
244.127
216.927
188.542
159.101
151.772
174.959
205.89
237.537
269.891
302.942
336.688
371.125
406.255
442.081
478.604
515.829
553.758
592.39
631.725
671.758
712.479
753.874
795.923
838.596
881.853
925.639
969.882
1014.49
1059.32
1104.2
1148.87
1192.73
1235.85
1277.38
1316.5
9031.41
8537.31
1326.58
1290.06
1249.14
1203.93
1154.59
1101.32
1044.34
983.888
920.374
854.247
786.272
718.307
653.107
594.021
544.551
507.455
483.647
471.725
468.664
471.137
476.496
482.9
489.301
495.148
500.173
504.263
507.367
509.445
510.424
510.202
508.686
505.883
502.034
502.295
506.171
508.51
509.294
508.559
506.36
502.756
497.816
491.634
484.34
476.113
467.181
457.822
448.343
439.05
430.188
421.887
414.102
406.594
398.956
390.684
381.264
370.257
357.347
342.355
325.231
306.023
284.848
261.86
237.231
211.13
183.713
155.123
125.48
121.8
149.081
180.464
212.567
245.376
278.879
313.067
347.936
383.484
419.71
456.616
494.202
532.468
571.413
611.031
651.317
692.258
733.837
776.033
818.813
862.136
905.949
950.181
994.74
1039.51
1084.32
1128.95
1172.81
1215.9
1257.94
1298.18
12963.2
5969.99
1285.93
1250.14
1209.74
1164.95
1115.97
1063.09
1006.56
946.731
884.064
819.041
752.526
686.469
623.64
567.331
520.891
486.817
465.727
456.007
454.632
458.396
464.785
472.082
479.321
485.994
491.855
496.796
500.773
503.748
505.663
506.43
505.964
504.264
501.516
501.535
503.875
504.68
503.945
501.705
498.014
492.929
486.522
478.891
470.168
460.535
450.222
439.508
428.701
418.107
407.978
398.445
389.474
380.837
372.14
362.892
352.59
340.802
327.214
311.645
294.037
274.43
252.928
229.673
204.824
178.537
150.961
122.227
100
100
121.973
153.723
186.193
219.366
253.224
287.757
322.956
358.818
395.339
432.518
470.354
508.845
547.985
587.768
628.183
669.217
710.847
753.047
795.779
838.997
882.639
926.627
970.859
1015.2
1059.48
1103.47
1146.57
1188.64
1229.46
1268.25
14848.6
4190.64
1251.12
1214.43
1173.4
1128.22
1079.1
1026.28
970.063
910.796
848.983
785.115
720.116
655.987
595.479
541.806
498.168
466.827
448.165
440.369
440.45
445.436
452.853
461.072
469.19
476.733
483.468
489.295
494.17
498.061
500.921
502.681
503.266
502.664
501.006
500.772
501.573
500.843
498.589
494.848
489.67
483.113
475.25
466.181
456.042
445.016
433.336
421.28
409.157
397.275
385.886
375.129
364.979
355.218
345.468
335.252
324.079
311.525
297.279
281.158
263.097
243.126
221.338
197.861
172.842
146.426
118.749
100
100
100
100
125.703
158.456
191.904
226.027
260.81
296.243
332.32
369.036
406.387
444.37
482.981
522.212
562.054
602.495
643.516
685.092
727.19
769.769
812.773
856.133
899.759
943.534
987.311
1030.89
1074.01
1116.09
1156.93
1196.33
1233.37
15367.9
3198.06
1220.23
1181.93
1139.63
1093.57
1043.93
990.945
934.888
876.12
815.149
752.459
689.005
626.792
568.525
517.321
476.232
447.342
430.896
424.927
426.336
432.435
440.822
449.946
458.95
467.382
475.018
481.755
487.547
492.369
496.186
498.944
500.582
501.075
500.502
500.008
499.268
497.004
493.236
488
481.344
473.324
464.016
453.522
441.98
429.576
416.543
403.158
389.732
376.571
363.931
351.958
340.632
329.753
318.957
307.782
295.752
282.453
267.575
250.934
232.458
212.168
190.142
166.497
141.367
114.882
100
100
100
100
100
100
129.424
163.058
197.354
232.293
267.864
304.058
340.871
378.298
416.332
454.967
494.196
534.008
574.388
615.316
656.765
698.701
741.078
783.838
826.907
870.189
913.563
956.873
999.914
1042.42
1083.8
1123.89
1162.44
1198.54
15434
2771.92
1188.78
1149.24
1105.93
1059.15
1009.14
956.11
900.339
842.205
782.21
720.831
659.025
598.77
542.7
493.821
455.038
428.284
413.722
409.442
412.259
419.411
428.72
438.733
448.628
457.965
466.521
474.187
480.916
486.682
491.463
495.223
497.913
499.499
500
500.007
499.266
497.002
493.232
487.995
481.338
473.317
464.007
453.512
441.969
429.564
416.529
403.144
389.717
376.556
363.917
351.944
340.62
329.743
318.949
307.775
295.748
282.451
267.575
250.936
232.462
212.173
190.148
166.504
141.373
114.888
100
100
100
100
100
100
129.455
163.089
197.383
232.321
267.891
304.083
340.894
378.319
416.351
454.983
494.21
534.019
574.396
615.321
656.767
698.699
741.072
783.828
826.892
870.169
913.538
956.841
999.876
1042.37
1083.74
1123.82
1162.35
1198.43
15431.6
2769.28
1188.71
1149.16
1105.86
1059.09
1009.08
956.07
900.314
842.197
782.218
720.857
659.068
598.83
542.775
493.91
455.137
428.39
413.831
409.548
412.359
419.505
428.806
438.811
448.698
458.027
466.575
474.233
480.953
486.713
491.488
495.242
497.926
499.505
500
500.77
501.569
500.837
498.582
494.839
489.658
483.098
475.232
466.16
456.019
444.991
433.308
421.251
409.127
397.245
385.857
375.102
364.953
355.195
345.448
335.235
324.066
311.516
297.274
281.156
263.098
243.129
221.341
197.865
172.845
146.427
118.748
100
100
100
100
125.784
158.537
191.985
226.106
260.888
296.319
332.394
369.107
406.456
444.435
483.042
522.269
562.107
602.543
643.558
685.128
727.22
769.792
812.789
856.14
899.756
943.521
987.285
1030.85
1073.95
1116
1156.8
1196.15
1233.16
15368.2
3187.3
1220.05
1181.73
1139.44
1093.39
1043.78
990.828
934.804
876.07
815.134
752.478
689.058
626.88
568.646
517.473
476.41
447.541
431.106
425.135
426.536
432.624
440.996
450.104
459.091
467.506
475.125
481.845
487.623
492.431
496.236
498.982
500.608
501.088
500.502
501.533
503.871
504.675
503.937
501.696
498.001
492.914
486.504
478.87
470.145
460.509
450.194
439.478
428.67
418.076
407.946
398.414
389.444
380.809
372.114
362.868
352.569
340.784
327.197
311.63
294.024
274.417
252.914
229.658
204.806
178.516
150.936
122.197
100
100
122.087
153.839
186.312
219.486
253.345
287.878
323.077
358.938
395.459
432.638
470.473
508.962
548.1
587.881
628.294
669.324
710.951
753.146
795.874
839.086
882.721
926.701
970.922
1015.25
1059.51
1103.47
1146.53
1188.57
1229.36
1268.11
14869.5
4165.99
1250.81
1214.11
1173.1
1127.95
1078.86
1026.09
969.902
910.673
848.897
785.064
720.101
656.008
595.538
541.903
498.302
466.994
448.354
440.568
440.65
445.627
453.03
461.232
469.333
476.858
483.576
489.387
494.246
498.123
500.971
502.719
503.292
502.676
501.007
502.293
506.167
508.505
509.287
508.55
506.348
502.74
497.797
491.612
484.316
476.086
467.152
457.79
448.311
439.016
430.154
421.853
414.069
406.562
398.925
390.654
381.236
370.23
357.32
342.328
325.203
305.994
284.817
261.827
237.194
211.087
183.665
155.068
125.418
121.839
149.228
180.615
212.722
245.534
279.04
313.23
348.101
383.65
419.878
456.786
494.372
532.639
571.584
611.202
651.486
692.426
734.004
776.196
818.973
862.292
906.099
950.325
994.876
1039.63
1084.43
1129.06
1172.89
1215.97
1258.01
1298.27
13027.1
5919.98
1285.43
1249.69
1209.35
1164.59
1115.66
1062.82
1006.33
946.534
883.902
818.912
752.431
686.412
623.626
567.365
520.975
486.948
465.895
456.196
454.827
458.586
464.961
472.243
479.465
486.12
491.963
496.887
500.848
503.81
505.712
506.467
505.989
504.276
501.517
503.05
508.454
512.322
514.622
515.391
514.685
512.564
509.095
504.369
498.512
491.7
484.159
476.165
468.025
460.04
452.455
445.392
438.798
432.424
425.851
418.561
410.031
399.816
387.598
373.202
356.584
337.803
316.987
294.303
269.935
244.064
216.857
188.464
159.015
151.813
175.14
206.076
237.728
270.086
303.142
336.892
371.333
406.466
442.295
478.821
516.049
553.979
592.613
631.949
671.982
712.703
754.098
796.145
838.815
882.068
925.848
970.085
1014.68
1059.5
1104.38
1149.04
1192.91
1236.04
1277.58
1316.76
9122.78
8461.19
1326.06
1289.61
1248.75
1203.58
1154.27
1101.03
1044.06
983.632
920.142
854.04
786.095
718.167
653.013
593.983
544.577
507.544
483.789
471.9
468.853
471.325
476.672
483.061
489.445
495.274
500.281
504.354
507.443
509.506
510.472
510.239
508.71
505.895
502.035
503.803
510.728
516.119
519.934
522.208
523
522.368
520.379
517.119
512.71
507.325
501.188
494.572
487.782
481.116
474.815
468.995
463.596
458.357
452.849
446.542
438.906
429.49
417.974
404.188
388.096
369.768
349.343
327.002
302.94
277.35
250.41
222.28
193.095
181.456
199.8
230.196
261.3
293.107
325.614
358.818
392.723
427.33
462.646
498.676
535.425
572.898
611.098
650.024
689.675
730.042
771.114
812.869
855.279
898.3
941.876
985.926
1030.34
1074.97
1119.6
1163.94
1207.32
1249.73
1290.12
1327.26
4868.05
11199.4
1366.66
1329.34
1287.89
1242.32
1192.75
1139.29
1082.07
1021.24
957.115
890.123
820.911
751.197
683.707
621.822
569.191
528.844
502.048
487.669
482.749
483.851
488.157
493.682
499.274
504.326
508.544
511.802
514.047
515.23
515.269
514.049
511.467
507.542
502.564
504.55
512.985
519.893
525.217
528.992
531.28
532.139
531.632
529.842
526.888
522.938
518.213
512.983
507.55
502.209
497.196
492.622
488.417
484.312
479.867
474.542
467.8
459.183
448.375
435.209
419.657
401.8
381.79
359.82
336.099
310.832
284.206
256.389
227.527
210.695
223.201
252.962
283.42
314.574
346.425
378.975
412.23
446.195
480.879
516.29
552.437
589.325
626.962
665.349
704.487
744.37
784.987
826.321
868.341
911.006
954.258
998.013
1042.16
1086.54
1130.95
1175.08
1218.31
1260.35
1300.59
1337.59
2348.9
13734
1399.54
1363.15
1322.55
1277.77
1228.93
1176.09
1119.29
1058.61
994.323
926.828
856.679
785.422
715.72
650.968
594.949
550.997
520.805
503.611
496.593
496.213
499.448
504.13
508.976
513.302
516.777
519.26
520.689
521.008
520.127
517.92
514.277
509.227
503.108
505.29
515.224
523.637
530.462
535.733
539.513
541.861
542.837
542.52
541.023
538.512
535.203
531.364
527.293
523.28
519.557
516.226
513.212
510.236
506.847
502.498
496.642
488.821
478.719
466.174
451.168
433.793
414.214
392.638
369.287
344.375
318.103
290.648
262.163
239.46
245.35
274.377
304.084
334.477
365.559
397.338
429.821
463.02
496.944
531.606
567.017
603.188
640.129
677.847
716.344
755.62
795.67
836.48
878.026
920.273
963.168
1006.64
1050.57
1094.84
1139.23
1183.47
1227.13
1269.69
1310.95
1349.85
1457.74
15697.4
1421.52
1389.31
1351.61
1309.1
1262.15
1210.85
1155.23
1095.36
1031.47
963.945
893.279
820.82
749.123
681.572
622.063
574.243
540.288
519.912
510.52
508.501
510.609
514.457
518.594
522.241
525.02
526.765
527.405
526.875
525.077
521.876
517.16
510.963
503.671
506.024
517.442
527.348
535.664
542.424
547.691
551.524
553.98
555.134
555.096
554.024
552.134
549.688
546.979
544.293
541.856
539.764
537.932
536.073
533.727
530.338
525.356
518.319
508.912
496.982
482.519
465.628
446.488
425.319
402.356
377.826
351.942
324.889
296.827
267.892
266.499
294.462
323.308
352.822
383.013
413.892
445.472
477.766
510.79
544.559
579.089
614.396
650.493
687.392
725.104
763.634
802.983
843.148
884.118
925.87
968.371
1011.57
1055.41
1099.78
1144.57
1189.58
1234.58
1279.06
1322.98
1365.6
1406.91
16273.6
3124.3
1409.76
1375.99
1337.03
1293.09
1244.21
1190.46
1131.97
1068.95
1001.8
930.999
857.667
784.209
713.958
650.89
598.949
560.839
536.855
524.739
520.864
521.745
524.742
528.197
531.208
533.332
534.373
534.245
532.877
530.159
525.953
520.14
512.766
504.258
506.749
519.637
531.023
540.818
549.056
555.803
561.115
565.047
567.669
569.086
569.454
568.98
567.925
566.575
565.212
564.052
563.188
562.524
561.765
560.442
557.992
553.86
547.585
538.854
527.521
513.588
497.172
478.467
457.707
435.141
411.01
385.536
358.917
331.319
302.884
293.885
313.263
341.127
369.634
398.8
428.64
459.17
490.408
522.375
555.09
588.575
622.848
657.93
693.839
730.589
768.195
806.665
846.004
886.21
927.271
969.167
1011.86
1055.3
1099.41
1144.08
1189.16
1234.42
1279.33
1324
1367.67
1409.73
8873.28
7773.58
1439.92
1407.41
1369.79
1327.15
1279.55
1227.03
1169.64
1107.47
1040.83
970.124
896.209
821.238
748.433
681.791
625.512
582.847
554.767
539.495
533.472
532.975
535.076
537.86
540.269
541.776
542.143
541.266
539.062
535.417
530.184
523.246
514.653
504.876
507.467
521.808
534.658
545.921
555.628
563.846
570.631
576.033
580.119
582.988
584.79
585.73
586.06
586.062
586.011
586.117
586.462
586.943
587.257
586.927
585.384
582.069
576.52
568.431
557.664
544.234
528.271
509.984
489.623
467.452
443.724
418.675
392.51
365.408
337.517
320.537
330.856
357.607
384.969
412.962
441.607
470.925
500.94
531.676
563.158
595.412
628.464
662.338
697.058
732.648
769.127
806.512
844.815
884.041
924.19
965.247
1007.19
1049.96
1093.49
1137.66
1182.32
1227.2
1271.74
1315.71
1358.51
1398.56
2756.56
12697.9
1467.76
1435.74
1399.32
1358.24
1312.45
1261.8
1206.18
1145.53
1080.02
1009.99
936.07
860.07
785.056
714.989
654.276
606.709
574.032
555.106
546.569
544.484
545.609
547.712
549.54
550.455
550.169
548.549
545.503
540.909
534.617
526.51
516.644
505.529
508.175
523.952
538.252
550.968
562.134
571.814
580.064
586.93
592.472
596.787
600.017
602.362
604.069
605.413
606.66
608.013
609.545
611.146
612.5
613.125
612.445
609.9
605.029
597.534
587.287
574.315
558.764
540.861
520.872
499.076
475.74
451.114
425.414
398.827
371.511
346.369
347.358
372.851
398.914
425.573
452.854
480.782
509.388
538.7
568.75
599.568
631.187
663.637
696.951
731.157
766.284
802.358
839.401
877.431
916.458
956.484
997.497
1039.47
1082.34
1126.02
1170.36
1215.15
1259.99
1304.39
1348.06
1389.92
1441.61
16469.3
1551.55
1449.56
1417.75
1380.91
1339.09
1292.07
1239.65
1181.74
1118.41
1049.97
976.887
900.595
823.935
750.779
685.678
632.934
595.134
571.959
560.424
556.452
556.459
557.842
559.095
559.441
558.516
556.157
552.256
546.684
539.291
529.961
518.756
506.226
508.875
526.07
541.806
555.966
568.583
579.721
589.433
597.762
604.762
610.521
615.178
618.925
622
624.671
627.197
629.769
632.452
635.125
637.467
638.986
639.104
637.259
632.997
626.024
616.227
603.647
588.449
570.875
551.211
529.751
506.779
482.557
457.315
431.25
404.527
377.282
369.099
387.017
411.616
436.765
462.496
488.841
515.834
543.512
571.911
601.069
631.022
661.809
693.467
726.035
759.547
794.038
829.539
866.079
903.679
942.357
982.118
1022.96
1064.85
1107.75
1151.58
1196.22
1241.47
1286.92
1332.6
1377.87
1422.51
11034.6
6370.69
1458.83
1432.53
1400.72
1363.4
1320.43
1271.71
1217.11
1156.61
1090.4
1018.86
943.009
865.337
789.55
720.247
662.17
618.768
590.713
575.614
569.381
568.055
568.621
569.257
569.005
567.412
564.274
559.464
552.85
544.282
533.647
521.015
506.973
509.564
528.157
545.31
560.9
574.958
587.547
598.717
608.503
616.955
624.152
630.226
635.362
639.791
643.773
647.555
651.321
655.124
658.833
662.114
664.471
665.32
664.099
660.358
653.818
644.377
632.096
617.16
599.831
580.414
559.222
536.558
512.697
487.883
462.324
436.195
409.638
392.646
400.323
423.282
446.735
470.719
495.275
520.444
546.266
572.786
600.047
628.093
656.968
686.717
717.384
749.012
781.644
815.319
850.076
885.947
922.96
961.132
1000.47
1040.96
1082.57
1125.21
1168.78
1213.05
1257.56
1302.06
1346.08
1388.27
2676.69
12731.7
1471.17
1446.26
1417.12
1383.25
1344.29
1299.82
1249.43
1192.83
1129.97
1061.1
986.818
909.134
831.49
758.428
695.019
645.56
611.868
592.429
583.355
580.355
579.954
579.926
579.07
576.806
572.871
567.117
559.406
549.594
537.574
523.426
507.774
510.243
530.219
548.784
565.809
581.321
595.382
608.035
619.31
629.246
637.913
645.431
651.974
657.762
663.041
668.048
672.953
677.799
682.443
686.549
689.612
691.051
690.308
686.944
680.691
671.468
659.355
644.557
627.36
608.088
587.076
564.643
541.082
516.65
491.569
466.021
440.158
415.048
413.102
434.234
455.795
477.83
500.387
523.513
547.259
571.672
596.803
622.703
649.42
677.008
705.514
734.991
765.487
797.052
829.732
863.572
898.613
934.89
972.43
1011.25
1051.33
1092.65
1135.14
1178.65
1222.94
1267.61
1312.41
1356.53
1399.56
16782.5
2266.15
1438.69
1416.56
1389.75
1357.8
1320.07
1275.99
1225.15
1167.31
1102.59
1031.32
954.954
876.575
800.572
732.23
676.614
636.776
612.34
599.863
594.798
593.17
592.275
590.624
587.493
582.559
575.661
566.661
555.423
541.851
526.036
508.638
510.904
532.223
552.169
570.607
587.56
603.083
617.213
629.967
641.374
651.493
660.434
668.361
675.483
682.039
688.252
694.279
700.148
705.705
710.598
714.315
716.271
715.91
712.803
706.701
697.542
685.434
670.608
653.377
634.093
613.114
590.782
567.408
543.266
518.589
493.572
468.373
443.119
432.786
444.842
464.329
484.229
504.597
525.491
546.965
569.075
591.879
615.431
639.786
665.001
691.13
718.229
746.35
775.547
805.873
837.378
870.108
904.107
939.41
976.041
1014.01
1053.31
1093.9
1135.7
1178.55
1222.11
1266.3
1310.58
1354.3
6775.49
8578.85
1428.05
1412.05
1391.85
1366.66
1335.8
1298.63
1254.48
1202.86
1143.57
1076.71
1003.11
925.268
847.264
774.411
712.401
665.561
634.967
618.031
610.164
606.933
605.031
602.562
598.579
592.657
584.597
574.26
561.529
546.328
528.771
509.549
511.555
534.226
555.593
575.51
593.998
611.106
626.856
641.253
654.303
666.044
676.562
685.996
694.532
702.383
709.753
716.784
723.492
729.714
735.096
739.13
741.239
740.889
737.675
731.379
721.972
709.589
694.491
677.017
657.543
636.45
614.097
590.815
566.89
542.567
518.049
493.499
469.046
452.07
455.752
472.997
490.6
508.625
527.139
546.203
565.88
586.232
607.316
629.194
651.922
675.558
700.16
725.784
752.486
780.322
809.344
839.606
871.157
904.04
938.293
973.94
1010.99
1049.42
1089.17
1130.12
1171.98
1214.5
1257.32
1299.46
1777.43
14710.3
1400.65
1391.21
1378.62
1361.74
1339.66
1311.38
1275.95
1232.57
1180.72
1120.28
1051.57
976.373
898.332
822.591
755.232
701.708
664.678
642.751
631.548
626.188
622.714
618.787
613.248
605.615
595.704
583.415
568.667
551.416
531.794
510.533
512.153
536.042
558.701
579.996
599.933
618.544
635.833
651.778
666.364
679.612
691.598
702.459
712.376
721.534
730.09
738.157
745.733
752.644
758.53
762.884
765.14
764.783
761.433
754.901
745.17
732.381
716.826
698.89
678.993
657.555
634.971