/*--------------------------------*- C++ -*----------------------------------*\
  =========                 |
  \\      /  F ield         | OpenFOAM: The Open Source CFD Toolbox
   \\    /   O peration     | Website:  https://openfoam.org
    \\  /    A nd           | Version:  8
     \\/     M anipulation  |
\*---------------------------------------------------------------------------*/
FoamFile
{
    version     2.0;
    format      ascii;
    class       volScalarField;
    location    "120/fluid";
    object      rho;
}
// * * * * * * * * * * * * * * * * * * * * * * * * * * * * * * * * * * * * * //

dimensions      [1 -3 0 0 0 0 0];

internalField   nonuniform List<scalar> 
4000
(
0.658526
0.658499
0.658455
0.658381
0.658259
0.658059
0.657734
0.657209
0.656374
0.65506
0.65303
0.649953
0.645402
0.638863
0.629786
0.617676
0.602235
0.583482
0.561831
0.538042
0.513077
0.487909
0.463365
0.44004
0.418289
0.398268
0.379987
0.363366
0.348276
0.334566
0.322085
0.310687
0.300243
0.290637
0.28177
0.273555
0.26592
0.258806
0.252154
0.245897
0.239989
0.234398
0.229094
0.224052
0.21925
0.214671
0.210297
0.206115
0.202112
0.19828
0.19461
0.191094
0.187727
0.184505
0.181424
0.178482
0.175678
0.173013
0.170489
0.16811
0.165882
0.163815
0.161922
0.16022
0.158741
0.157529
0.156602
0.15605
0.155983
0.156557
0.159569
0.168792
0.179635
0.19237
0.20736
0.225077
0.246146
0.271388
0.301889
0.339075
0.38484
0.441786
0.512812
0.60027
0.704339
0.820062
0.935107
1.03297
1.10252
1.14398
1.16542
1.17564
1.18027
1.18231
1.18319
1.18356
1.18371
1.18378
1.18381
1.18382
0.658526
0.658499
0.658454
0.65838
0.658256
0.658053
0.657723
0.657191
0.656342
0.65501
0.652952
0.649838
0.645244
0.638657
0.629535
0.617394
0.601941
0.583199
0.561577
0.537824
0.512892
0.487745
0.463205
0.439868
0.418095
0.398045
0.379733
0.363082
0.347965
0.334231
0.32173
0.310317
0.29986
0.290245
0.281371
0.273152
0.265516
0.258401
0.25175
0.245493
0.239586
0.233997
0.228695
0.223656
0.218858
0.214282
0.209912
0.205734
0.201737
0.19791
0.194244
0.190734
0.187373
0.184157
0.181082
0.178147
0.175351
0.172694
0.170179
0.167809
0.165591
0.163534
0.16165
0.159957
0.158481
0.157267
0.156326
0.155742
0.155605
0.156068
0.16092
0.170507
0.18179
0.195069
0.210743
0.22934
0.251558
0.278324
0.310867
0.350808
0.400351
0.462418
0.539989
0.635013
0.746077
0.865064
0.97646
1.06418
1.12183
1.15398
1.17009
1.17769
1.18113
1.18266
1.18333
1.18361
1.18374
1.18379
1.18381
1.18382
0.658526
0.658498
0.658453
0.658377
0.658252
0.658045
0.657709
0.657166
0.656302
0.654946
0.652855
0.649697
0.645045
0.638391
0.629195
0.616981
0.601465
0.582678
0.561033
0.537278
0.512357
0.487226
0.462701
0.439372
0.417598
0.39754
0.379215
0.362547
0.347411
0.333659
0.32114
0.309711
0.29924
0.289613
0.280729
0.272502
0.26486
0.257742
0.251088
0.244827
0.238919
0.233329
0.228027
0.22299
0.218194
0.213621
0.209255
0.205082
0.20109
0.197269
0.193611
0.190109
0.186757
0.18355
0.180487
0.177564
0.174781
0.172139
0.16964
0.167289
0.165092
0.163059
0.161204
0.159544
0.158108
0.156933
0.15602
0.155428
0.155199
0.155361
0.163198
0.173445
0.185456
0.199588
0.2163
0.236192
0.260048
0.288908
0.32414
0.367535
0.421555
0.48916
0.572924
0.673642
0.787628
0.90415
1.00725
1.08417
1.13277
1.15933
1.17255
1.17878
1.18161
1.18287
1.18341
1.18365
1.18375
1.18379
1.18381
1.18382
0.658526
0.658498
0.658452
0.658375
0.658248
0.658039
0.657698
0.657148
0.656273
0.654901
0.652787
0.649597
0.644902
0.638193
0.628932
0.616643
0.601048
0.582184
0.560469
0.536655
0.511688
0.486525
0.461977
0.438633
0.41685
0.396785
0.378453
0.361779
0.346637
0.332878
0.320351
0.308914
0.298436
0.288802
0.279911
0.271679
0.264033
0.256912
0.250254
0.243989
0.238078
0.232485
0.227183
0.222146
0.217351
0.21278
0.208418
0.204249
0.200263
0.196449
0.1928
0.189307
0.185966
0.182772
0.179723
0.176816
0.174051
0.171429
0.168954
0.166631
0.164468
0.162475
0.160671
0.159077
0.157749
0.156708
0.156002
0.155758
0.15613
0.157617
0.166784
0.177615
0.190388
0.205483
0.223398
0.244794
0.270542
0.301793
0.340051
0.387303
0.446232
0.519692
0.609714
0.715702
0.831555
0.944248
1.03816
1.10417
1.14389
1.16484
1.17512
1.17993
1.18211
1.18308
1.1835
1.18369
1.18377
1.1838
1.18381
1.18382
0.658525
0.658498
0.658451
0.658373
0.658244
0.658032
0.657687
0.65713
0.656244
0.654855
0.652715
0.649488
0.644742
0.637967
0.628622
0.616238
0.600539
0.581573
0.559764
0.535872
0.510846
0.485642
0.461069
0.437711
0.415922
0.395856
0.377526
0.360854
0.345714
0.331956
0.31943
0.307992
0.297512
0.287876
0.278983
0.270749
0.263101
0.255981
0.249319
0.243051
0.237137
0.231543
0.22624
0.221202
0.216408
0.21184
0.207481
0.203317
0.199337
0.195531
0.19189
0.188408
0.185079
0.1819
0.178867
0.175978
0.173235
0.170638
0.168191
0.165901
0.163776
0.16183
0.160081
0.158559
0.157321
0.156371
0.155801
0.155723
0.156311
0.161124
0.170858
0.182398
0.196049
0.212223
0.231471
0.254522
0.282339
0.316185
0.357702
0.409104
0.473175
0.552485
0.648247
0.758101
0.873484
0.979973
1.06375
1.1197
1.15208
1.16882
1.17696
1.18075
1.18247
1.18324
1.18357
1.18372
1.18378
1.1838
1.18382
1.18382
0.658525
0.658497
0.65845
0.658371
0.658241
0.658027
0.657678
0.657114
0.656218
0.654813
0.652649
0.649387
0.644592
0.637749
0.628318
0.615829
0.600013
0.580925
0.558999
0.535006
0.509901
0.48464
0.460032
0.436658
0.414864
0.394801
0.376479
0.359818
0.344687
0.330939
0.31842
0.306989
0.296514
0.286881
0.27799
0.269759
0.262114
0.254995
0.248333
0.242064
0.236148
0.230553
0.22525
0.220213
0.215421
0.210855
0.2065
0.202341
0.198368
0.19457
0.190939
0.187469
0.184154
0.18099
0.177975
0.175108
0.172388
0.169819
0.167404
0.16515
0.163068
0.161172
0.159483
0.15804
0.156881
0.156007
0.155505
0.155435
0.155843
0.164452
0.174997
0.187413
0.202065
0.219425
0.240109
0.264925
0.294932
0.331511
0.376455
0.4322
0.501491
0.586482
0.687333
0.799714
0.91285
1.01187
1.0856
1.13255
1.15874
1.17204
1.17844
1.18141
1.18276
1.18336
1.18362
1.18374
1.18379
1.18381
1.18382
1.18382
0.658525
0.658497
0.658449
0.65837
0.658238
0.658021
0.657668
0.657099
0.656192
0.65477
0.652581
0.649282
0.644434
0.63752
0.627996
0.615394
0.599451
0.580229
0.558176
0.534073
0.508881
0.48356
0.458916
0.435525
0.41373
0.393675
0.375366
0.35872
0.343605
0.329871
0.317366
0.305946
0.295481
0.285856
0.276972
0.268747
0.261108
0.253995
0.247334
0.241065
0.23515
0.229556
0.224253
0.219218
0.214429
0.209866
0.205516
0.201363
0.197397
0.193609
0.189989
0.186532
0.183232
0.180085
0.17709
0.174246
0.171552
0.169013
0.166633
0.16442
0.162387
0.16055
0.158935
0.15761
0.156591
0.155938
0.155806
0.156411
0.158897
0.168334
0.179525
0.192747
0.208383
0.226943
0.249097
0.275728
0.307992
0.347383
0.395874
0.456052
0.530488
0.62078
0.725794
0.839137
0.948309
1.03903
1.10325
1.14252
1.16381
1.17446
1.17955
1.18191
1.18298
1.18346
1.18366
1.18375
1.18379
1.18381
1.18382
1.18382
0.658525
0.658497
0.658448
0.658368
0.658235
0.658016
0.657659
0.657083
0.656166
0.654728
0.652514
0.649178
0.644277
0.637289
0.62767
0.61495
0.598873
0.579511
0.557324
0.533104
0.50782
0.482437
0.457757
0.434352
0.412557
0.392514
0.374223
0.357597
0.342503
0.328789
0.316301
0.304897
0.294445
0.284832
0.275958
0.267742
0.260112
0.253007
0.246349
0.240082
0.23417
0.228578
0.223278
0.218246
0.213461
0.208903
0.204558
0.200413
0.196455
0.192677
0.189069
0.185625
0.182341
0.179213
0.176239
0.173418
0.170752
0.168244
0.1659
0.163728
0.161743
0.159961
0.158413
0.157159
0.156176
0.155551
0.155359
0.155697
0.162062
0.172164
0.184085
0.19815
0.214788
0.234558
0.258194
0.286658
0.321199
0.363427
0.415515
0.48009
0.559456
0.654504
0.762634
0.875488
0.979489
1.06178
1.11745
1.15033
1.16771
1.17632
1.1804
1.18229
1.18315
1.18353
1.1837
1.18377
1.1838
1.18381
1.18382
1.18382
0.658525
0.658496
0.658448
0.658367
0.658232
0.658011
0.65765
0.657068
0.65614
0.654687
0.652448
0.649074
0.644119
0.637056
0.627339
0.614501
0.598288
0.578783
0.55646
0.532122
0.506749
0.481303
0.456589
0.433173
0.411383
0.391355
0.373084
0.356482
0.341411
0.32772
0.315253
0.303867
0.293431
0.283832
0.274972
0.266767
0.259149
0.252053
0.245399
0.239137
0.233228
0.22764
0.222345
0.217317
0.212536
0.207985
0.203647
0.199509
0.195561
0.191793
0.188198
0.184769
0.181501
0.178392
0.17544
0.172644
0.170006
0.16753
0.165224
0.163097
0.161165
0.159449
0.157993
0.156835
0.155978
0.15553
0.155583
0.156264
0.165271
0.175974
0.188595
0.203488
0.221115
0.242086
0.267195
0.29748
0.334284
0.379344
0.435003
0.503836
0.587801
0.68694
0.7971
0.908198
1.00627
1.08045
1.12868
1.15635
1.17069
1.17772
1.18105
1.18258
1.18327
1.18358
1.18372
1.18378
1.1838
1.18381
1.18382
1.18382
0.658525
0.658496
0.658447
0.658365
0.658229
0.658006
0.657641
0.657053
0.656116
0.654646
0.652382
0.648972
0.643963
0.636827
0.627013
0.614056
0.597708
0.578063
0.555606
0.531153
0.505691
0.480187
0.455442
0.432016
0.410233
0.390222
0.371975
0.355398
0.340354
0.326687
0.314242
0.302877
0.292459
0.282876
0.27403
0.265839
0.258234
0.251147
0.244499
0.238243
0.232339
0.226757
0.221467
0.216445
0.21167
0.207125
0.202795
0.198666
0.194728
0.190972
0.187389
0.183975
0.180725
0.177635
0.174704
0.171933
0.169324
0.166881
0.164612
0.16253
0.160653
0.159005
0.157662
0.156632
0.155973
0.155847
0.156465
0.158975
0.168474
0.179725
0.193005
0.208688
0.227273
0.249411
0.275957
0.308023
0.347041
0.394889
0.454023
0.526891
0.615033
0.717533
0.828697
0.937061
1.02892
1.09562
1.13755
1.16098
1.17296
1.17879
1.18154
1.1828
1.18337
1.18363
1.18374
1.18379
1.18381
1.18382
1.18382
1.18382
0.658525
0.658496
0.658446
0.658364
0.658227
0.658001
0.657633
0.657038
0.656091
0.654606
0.652319
0.648873
0.643812
0.636604
0.626697
0.613625
0.597146
0.577364
0.554778
0.530216
0.50467
0.479112
0.454339
0.430906
0.409133
0.389141
0.370918
0.354367
0.339349
0.325708
0.313287
0.301942
0.291543
0.281977
0.273147
0.26497
0.257378
0.250302
0.243661
0.237411
0.231514
0.225938
0.220654
0.215638
0.21087
0.206333
0.202011
0.197891
0.193964
0.190219
0.18665
0.183251
0.180017
0.176946
0.174037
0.17129
0.168707
0.166293
0.164057
0.162011
0.160171
0.158565
0.157262
0.156233
0.155581
0.155405
0.155848
0.161406
0.171418
0.183238
0.197171
0.213625
0.233133
0.256396
0.284327
0.318109
0.359258
0.409806
0.472254
0.548867
0.640708
0.745839
0.857112
0.962086
1.04779
1.10783
1.1445
1.16456
1.1747
1.1796
1.18191
1.18297
1.18344
1.18366
1.18375
1.18379
1.18381
1.18382
1.18382
1.18382
0.658525
0.658495
0.658445
0.658362
0.658224
0.657996
0.657625
0.657025
0.656069
0.654569
0.652259
0.648778
0.643668
0.636392
0.626396
0.613215
0.596612
0.576702
0.553995
0.529329
0.503706
0.478098
0.4533
0.429864
0.4081
0.388128
0.369929
0.353405
0.338414
0.324797
0.3124
0.301076
0.290696
0.281147
0.272332
0.26417
0.256592
0.249525
0.242893
0.23665
0.23076
0.22519
0.219912
0.214904
0.210143
0.205613
0.2013
0.19719
0.193273
0.18954
0.185984
0.1826
0.179384
0.176332
0.173444
0.170721
0.168166
0.165784
0.163584
0.161577
0.159782
0.158226
0.156965
0.155963
0.155309
0.155062
0.155297
0.163564
0.174114
0.186499
0.201065
0.218254
0.23864
0.26297
0.292213
0.327621
0.370797
0.423905
0.489443
0.569463
0.664496
0.771567
0.882234
0.983466
1.06336
1.11761
1.14996
1.16733
1.17603
1.18023
1.18219
1.18309
1.1835
1.18368
1.18376
1.1838
1.18381
1.18382
1.18382
1.18382
0.658525
0.658495
0.658445
0.658361
0.658222
0.657992
0.657617
0.657012
0.656047
0.654534
0.652203
0.648691
0.643535
0.636195
0.626116
0.612834
0.596117
0.576088
0.553269
0.528508
0.502815
0.477162
0.452343
0.428904
0.407151
0.387198
0.369023
0.352525
0.337559
0.323966
0.311591
0.300288
0.289926
0.280394
0.271594
0.263447
0.255882
0.248824
0.242199
0.235964
0.230081
0.224518
0.219247
0.214245
0.209492
0.20497
0.200665
0.196564
0.192658
0.188936
0.185394
0.182024
0.178824
0.175791
0.172925
0.170226
0.1677
0.165352
0.163193
0.161238
0.159509
0.158052
0.156907
0.156077
0.15568
0.155835
0.156765
0.165974
0.176859
0.189674
0.204771
0.222608
0.243788
0.269096
0.299553
0.33647
0.38154
0.43703
0.505394
0.588449
0.686166
0.794564
0.904102
1.0015
1.0761
1.12542
1.15423
1.16948
1.17707
1.18071
1.18241
1.18319
1.18354
1.1837
1.18377
1.1838
1.18381
1.18382
1.18382
1.18382
0.658525
0.658495
0.658444
0.65836
0.658219
0.657988
0.657611
0.657001
0.656028
0.654503
0.652153
0.648612
0.643414
0.636017
0.625863
0.612489
0.595669
0.575533
0.552613
0.527768
0.502012
0.47632
0.451482
0.428042
0.406299
0.386364
0.368212
0.351737
0.336794
0.323224
0.310869
0.299584
0.28924
0.279723
0.270938
0.262804
0.255252
0.248202
0.241586
0.235358
0.229481
0.223925
0.218661
0.213666
0.208919
0.204405
0.200108
0.196016
0.192119
0.188409
0.184878
0.181521
0.178336
0.17532
0.172472
0.169795
0.167294
0.164975
0.162851
0.16094
0.159265
0.157905
0.156861
0.156182
0.156016
0.156527
0.158568
0.168082
0.179314
0.19254
0.208126
0.226555
0.248459
0.274659
0.306222
0.344517
0.391323
0.448982
0.519876
0.605578
0.705494
0.814713
0.922801
1.0165
1.08641
1.13161
1.15757
1.17115
1.17787
1.18108
1.18258
1.18327
1.18358
1.18372
1.18378
1.1838
1.18381
1.18382
1.18382
1.18382
0.658525
0.658494
0.658444
0.658359
0.658218
0.657985
0.657605
0.656991
0.656012
0.654475
0.652109
0.648543
0.643309
0.635861
0.625641
0.612187
0.595275
0.575045
0.552038
0.527119
0.501308
0.475582
0.450729
0.427287
0.405554
0.385635
0.367502
0.351048
0.336126
0.322576
0.31024
0.298972
0.288643
0.27914
0.270368
0.262246
0.254704
0.247664
0.241054
0.234833
0.228963
0.223413
0.218155
0.213166
0.208427
0.203919
0.19963
0.195546
0.191657
0.187956
0.184436
0.181091
0.177918
0.174915
0.172082
0.169422
0.166938
0.164639
0.162537
0.160649
0.159005
0.157677
0.156636
0.155993
0.155863
0.156408
0.160045
0.169843
0.1814
0.195001
0.21103
0.229991
0.252541
0.279537
0.312086
0.351607
0.399965
0.459549
0.53265
0.620602
0.722276
0.831929
0.938441
1.02875
1.09465
1.13647
1.16017
1.17244
1.17849
1.18137
1.18271
1.18333
1.1836
1.18373
1.18378
1.1838
1.18381
1.18382
1.18382
1.18382
0.658525
0.658494
0.658443
0.658358
0.658216
0.657982
0.6576
0.656982
0.655998
0.654452
0.652071
0.648484
0.643219
0.635729
0.625453
0.611931
0.594942
0.574633
0.551551
0.52657
0.500713
0.474957
0.450091
0.426649
0.404924
0.385019
0.366903
0.350467
0.335562
0.322029
0.309709
0.298455
0.28814
0.278649
0.269888
0.261777
0.254245
0.247211
0.240608
0.234393
0.228529
0.222984
0.217732
0.212749
0.208015
0.203513
0.19923
0.195153
0.191272
0.18758
0.184068
0.180732
0.177569
0.174577
0.171755
0.169106
0.166633
0.164344
0.162249
0.160365
0.158715
0.157371
0.15629
0.155573
0.155309
0.155623
0.161078
0.171192
0.183068
0.197017
0.213441
0.232867
0.255977
0.283659
0.317057
0.357633
0.407328
0.468558
0.543527
0.63334
0.736381
0.846204
0.951177
1.03853
1.10112
1.14024
1.16217
1.17343
1.17896
1.18159
1.18281
1.18337
1.18362
1.18374
1.18378
1.18381
1.18382
1.18382
1.18382
1.18382
0.658525
0.658494
0.658443
0.658357
0.658215
0.65798
0.657596
0.656976
0.655987
0.654434
0.652042
0.648437
0.643148
0.635623
0.625302
0.611725
0.594675
0.574301
0.551158
0.526127
0.500232
0.474453
0.449576
0.426133
0.404415
0.38452
0.366417
0.349996
0.335106
0.321587
0.309279
0.298038
0.287733
0.278252
0.269501
0.261398
0.253874
0.246847
0.240249
0.234038
0.228179
0.222639
0.217392
0.212413
0.207685
0.203189
0.198911
0.19484
0.190965
0.187279
0.183774
0.180447
0.177292
0.174308
0.171495
0.168854
0.166389
0.164107
0.162016
0.160131
0.158472
0.157105
0.156017
0.155232
0.154857
0.154995
0.161918
0.172283
0.184418
0.198648
0.215394
0.235199
0.258768
0.287012
0.321107
0.362551
0.413346
0.47592
0.552403
0.643697
0.747769
0.857602
0.961202
1.04611
1.10608
1.14311
1.16367
1.17417
1.17932
1.18176
1.18289
1.18341
1.18364
1.18374
1.18379
1.18381
1.18382
1.18382
1.18382
1.18382
0.658525
0.658494
0.658443
0.658357
0.658214
0.657978
0.657593
0.656971
0.655978
0.65442
0.65202
0.648403
0.643095
0.635545
0.62519
0.611572
0.594475
0.574052
0.550864
0.525794
0.499871
0.474074
0.449188
0.425744
0.40403
0.384143
0.366051
0.34964
0.334761
0.321252
0.308954
0.297722
0.287426
0.277953
0.269209
0.261112
0.253595
0.246571
0.239978
0.233771
0.227916
0.22238
0.217136
0.212162
0.207437
0.202945
0.198672
0.194605
0.190736
0.187055
0.183557
0.180235
0.177087
0.174111
0.171305
0.168673
0.166216
0.163943
0.161861
0.159987
0.158338
0.156979
0.155905
0.155133
0.154773
0.154943
0.162716
0.173223
0.185523
0.199947
0.216926
0.237012
0.260926
0.289597
0.324223
0.366332
0.417974
0.481582
0.559221
0.651633
0.756451
0.866223
0.968709
1.05173
1.10971
1.1452
1.16475
1.17471
1.17957
1.18188
1.18294
1.18343
1.18365
1.18375
1.18379
1.18381
1.18382
1.18382
1.18382
1.18382
0.658525
0.658494
0.658442
0.658356
0.658213
0.657977
0.657591
0.656968
0.655973
0.654412
0.652006
0.648381
0.643061
0.635494
0.625118
0.611472
0.594344
0.57389
0.550672
0.525575
0.499632
0.473822
0.44893
0.425484
0.403773
0.383891
0.365805
0.349401
0.33453
0.321028
0.308737
0.297511
0.287221
0.277754
0.269014
0.260922
0.253408
0.246388
0.239797
0.233593
0.22774
0.222207
0.216966
0.211994
0.207272
0.202783
0.198513
0.19445
0.190585
0.186908
0.183414
0.180097
0.176955
0.173984
0.171186
0.168561
0.166113
0.16385
0.161781
0.159921
0.158291
0.15696
0.15592
0.155195
0.154902
0.155167
0.16337
0.17395
0.186345
0.200889
0.218017
0.238288
0.262431
0.29139
0.326379
0.368945
0.42117
0.485489
0.563925
0.6571
0.762419
0.872128
0.973828
1.05555
1.11218
1.14661
1.16549
1.17508
1.17975
1.18196
1.18298
1.18345
1.18366
1.18375
1.18379
1.18381
1.18382
1.18382
1.18382
1.18382
0.658525
0.658494
0.658442
0.658356
0.658213
0.657977
0.657591
0.656966
0.655971
0.654408
0.651999
0.64837
0.643045
0.635471
0.625084
0.611426
0.594284
0.573814
0.550581
0.525472
0.499519
0.473702
0.448806
0.425359
0.403648
0.383769
0.365685
0.349284
0.334416
0.320918
0.30863
0.297408
0.287121
0.277656
0.268919
0.260829
0.253316
0.246297
0.239707
0.233505
0.227653
0.222121
0.216882
0.211911
0.207191
0.202704
0.198435
0.194374
0.190511
0.186836
0.183345
0.180031
0.176891
0.173924
0.17113
0.168509
0.166067
0.163811
0.16175
0.159901
0.158286
0.156976
0.155963
0.155273
0.155025
0.155347
0.163735
0.174353
0.186795
0.201398
0.218599
0.238961
0.263219
0.292322
0.327492
0.370288
0.422805
0.487479
0.56631
0.65986
0.765415
0.875075
0.976367
1.05744
1.1134
1.14731
1.16585
1.17526
1.17983
1.182
1.183
1.18346
1.18366
1.18375
1.18379
1.18381
1.18382
1.18382
1.18382
1.18382
0.658525
0.658494
0.658442
0.658356
0.658213
0.657977
0.657591
0.656966
0.655971
0.654408
0.651999
0.64837
0.643045
0.635471
0.625084
0.611426
0.594284
0.573815
0.550582
0.525473
0.49952
0.473704
0.448808
0.425361
0.40365
0.38377
0.365687
0.349286
0.334418
0.320919
0.308631
0.297409
0.287122
0.277657
0.26892
0.26083
0.253317
0.246298
0.239708
0.233506
0.227654
0.222122
0.216883
0.211912
0.207192
0.202704
0.198436
0.194375
0.190511
0.186837
0.183345
0.180031
0.176891
0.173924
0.17113
0.168509
0.166066
0.163809
0.161749
0.159899
0.158283
0.156975
0.155962
0.155274
0.155027
0.155349
0.163738
0.174358
0.186802
0.201407
0.218609
0.238973
0.263232
0.292337
0.327509
0.370307
0.422828
0.487506
0.566342
0.659898
0.765458
0.875118
0.976405
1.05747
1.11342
1.14732
1.16586
1.17526
1.17983
1.182
1.183
1.18346
1.18366
1.18375
1.18379
1.18381
1.18382
1.18382
1.18382
1.18382
0.658525
0.658494
0.658442
0.658356
0.658213
0.657977
0.657591
0.656968
0.655973
0.654411
0.652006
0.64838
0.64306
0.635494
0.625117
0.611472
0.594345
0.573891
0.550673
0.525578
0.499636
0.473826
0.448935
0.425489
0.403778
0.383896
0.36581
0.349406
0.334534
0.321032
0.308741
0.297515
0.287225
0.277757
0.269018
0.260926
0.253412
0.246391
0.2398
0.233596
0.227743
0.22221
0.216969
0.211997
0.207275
0.202786
0.198516
0.194453
0.190587
0.18691
0.183415
0.180098
0.176955
0.173984
0.171185
0.168559
0.166111
0.163846
0.161776
0.159916
0.158286
0.156957
0.155919
0.155199
0.15491
0.155174
0.163379
0.173964
0.186364
0.200913
0.218045
0.238321
0.262469
0.291433
0.326428
0.369003
0.42124
0.485574
0.564027
0.657221
0.762552
0.87226
0.97394
1.05563
1.11223
1.14664
1.1655
1.17508
1.17975
1.18196
1.18298
1.18345
1.18366
1.18375
1.18379
1.18381
1.18382
1.18382
1.18382
1.18382
0.658525
0.658494
0.658443
0.658357
0.658214
0.657978
0.657593
0.656971
0.655978
0.65442
0.652019
0.648402
0.643094
0.635544
0.62519
0.611572
0.594475
0.574054
0.550867
0.525798
0.499876
0.47408
0.449195
0.425752
0.404038
0.384152
0.366059
0.349648
0.334769
0.321259
0.308961
0.297729
0.287432
0.277959
0.269215
0.261118
0.2536
0.246577
0.239983
0.233776
0.227921
0.222385
0.217141
0.212166
0.207441
0.202949
0.198676
0.194609
0.190739
0.187058
0.183559
0.180237
0.177089
0.174112
0.171306
0.168672
0.166215
0.16394
0.161858
0.159983
0.158334
0.156978
0.155907
0.15514
0.154785
0.154949
0.162728
0.173242
0.18555
0.199981
0.216967
0.23706
0.260982
0.289662
0.3243
0.366424
0.418086
0.48172
0.55939
0.651834
0.756675
0.866447
0.968903
1.05187
1.1098
1.14524
1.16478
1.17472
1.17958
1.18188
1.18295
1.18343
1.18365
1.18375
1.18379
1.18381
1.18382
1.18382
1.18382
1.18382
0.658525
0.658494
0.658443
0.658357
0.658215
0.65798
0.657596
0.656976
0.655986
0.654433
0.652041
0.648437
0.643147
0.635622
0.625302
0.611725
0.594675
0.574303
0.551162
0.526132
0.500239
0.474462
0.449586
0.426143
0.404425
0.384531
0.366428
0.350006
0.335116
0.321596
0.309289
0.298047
0.287741
0.27826
0.269509
0.261406
0.253882
0.246853
0.240255
0.234045
0.228186
0.222645
0.217398
0.212419
0.20769
0.203194
0.198916
0.194845
0.19097
0.187284
0.183779
0.180451
0.177296
0.174312
0.171498
0.168857
0.166391
0.164108
0.162017
0.160132
0.158472
0.157107
0.156022
0.155239
0.154864
0.154996
0.161941
0.172313
0.184454
0.198691
0.215445
0.235259
0.258838
0.287096
0.321207
0.362672
0.413497
0.476109
0.552636
0.643976
0.748081
0.857915
0.961474
1.04631
1.1062
1.14317
1.1637
1.17419
1.17932
1.18176
1.18289
1.18341
1.18364
1.18374
1.18379
1.18381
1.18382
1.18382
1.18382
1.18382
0.658525
0.658494
0.658443
0.658358
0.658216
0.657982
0.6576
0.656982
0.655997
0.654452
0.652071
0.648483
0.643218
0.635728
0.625452
0.61193
0.594943
0.574634
0.551554
0.526575
0.50072
0.474967
0.450102
0.426661
0.404937
0.385032
0.366915
0.350479
0.335575
0.322041
0.30972
0.298466
0.28815
0.278659
0.269898
0.261786
0.254254
0.24722
0.240616
0.234401
0.228536
0.222992
0.217739
0.212756
0.208022
0.203521
0.199238
0.19516
0.19128
0.187586
0.184075
0.180739
0.177576
0.174583
0.171762
0.169112
0.166639
0.16435
0.162255
0.160371
0.15872
0.157376
0.156294
0.155575
0.155309
0.155621
0.16112
0.171238
0.18312
0.197074
0.213506
0.232941
0.256064
0.283762
0.317181
0.357785
0.407519
0.468798
0.543825
0.633699
0.736785
0.846613
0.951536
1.0388
1.10129
1.14033
1.16222
1.17345
1.17897
1.1816
1.18282
1.18337
1.18362
1.18374
1.18378
1.18381
1.18382
1.18382
1.18382
1.18382
0.658525
0.658494
0.658444
0.658359
0.658217
0.657985
0.657605
0.65699
0.656011
0.654475
0.652108
0.648541
0.643307
0.63586
0.625639
0.612185
0.595275
0.575046
0.55204
0.527124
0.501316
0.475592
0.450741
0.427301
0.405569
0.38565
0.367517
0.351063
0.336141
0.32259
0.310253
0.298985
0.288655
0.279152
0.27038
0.262257
0.254715
0.247674
0.241064
0.234843
0.228972
0.223422
0.218164
0.213175
0.208435
0.203928
0.199638
0.195554
0.191666
0.187965
0.184445
0.1811
0.177927
0.174925
0.172092
0.169432
0.166949
0.16465
0.162548
0.16066
0.159015
0.157686
0.156641
0.155996
0.155863
0.156419
0.160104
0.169903
0.181463
0.19507
0.211107
0.230078
0.252643
0.279659
0.312235
0.35179
0.400195
0.45984
0.533014
0.621043
0.722776
0.832442
0.938897
1.02909
1.09487
1.13659
1.16023
1.17247
1.1785
1.18138
1.18272
1.18333
1.1836
1.18373
1.18378
1.1838
1.18381
1.18382
1.18382
1.18382
0.658525
0.658495
0.658444
0.65836
0.658219
0.657988
0.65761
0.657
0.656028
0.654502
0.652152
0.648611
0.643413
0.636015
0.625861
0.612487
0.595667
0.575533
0.552615
0.527773
0.502019
0.47633
0.451495
0.428056
0.406315
0.38638
0.368228
0.351753
0.33681
0.323239
0.310884
0.299599
0.289254
0.279736
0.270951
0.262816
0.255263
0.248214
0.241597
0.235368
0.229492
0.223935
0.218671
0.213676
0.208929
0.204415
0.200118
0.196026
0.192129
0.188419
0.184888
0.181532
0.178347
0.17533
0.172483
0.169807
0.167305
0.164987
0.162863
0.160952
0.159277
0.157916
0.15687
0.15619
0.156026
0.156552
0.158623
0.168139
0.179379
0.192614
0.208211
0.226655
0.248578
0.274803
0.306398
0.344734
0.391595
0.449325
0.520305
0.606099
0.706091
0.815334
0.923362
1.01693
1.08669
1.13176
1.15765
1.17119
1.17789
1.18109
1.18259
1.18327
1.18358
1.18372
1.18378
1.1838
1.18381
1.18382
1.18382
1.18382
0.658525
0.658495
0.658445
0.658361
0.658221
0.657992
0.657617
0.657012
0.656047
0.654533
0.652202
0.648689
0.643533
0.636193
0.626113
0.612831
0.596114
0.576087
0.553269
0.528512
0.502822
0.477172
0.452356
0.428919
0.407167
0.387215
0.369041
0.352542
0.337576
0.323983
0.311607
0.300303
0.289941
0.280408
0.271608
0.26346
0.255895
0.248836
0.242211
0.235976
0.230092
0.224529
0.219258
0.214256
0.209503
0.204981
0.200676
0.196575
0.192669
0.188947
0.185405
0.182035
0.178835
0.175802
0.172936
0.170238
0.167711
0.165364
0.163205
0.16125
0.15952
0.158065
0.156921
0.156093
0.155702
0.155869
0.156808
0.16602
0.176921
0.189752
0.204864
0.22272
0.243922
0.269259
0.299751
0.336715
0.381846
0.437417
0.505879
0.589041
0.686852
0.795289
0.904773
1.00203
1.07644
1.12561
1.15433
1.16952
1.17709
1.18072
1.18242
1.18319
1.18355
1.1837
1.18377
1.1838
1.18381
1.18382
1.18382
1.18382
0.658525
0.658495
0.658445
0.658362
0.658224
0.657996
0.657624
0.657024
0.656068
0.654568
0.652258
0.648777
0.643666
0.636389
0.626392
0.613211
0.596608
0.576699
0.553994
0.52933
0.503711
0.478106
0.453311
0.429878
0.408116
0.388145
0.369947
0.353424
0.338432
0.324815
0.312417
0.301093
0.290712
0.281163
0.272347
0.264185
0.256606
0.249538
0.242906
0.236663
0.230772
0.225202
0.219924
0.214915
0.210155
0.205625
0.201311
0.197201
0.193284
0.189551
0.185996
0.182612
0.179395
0.176343
0.173455
0.170732
0.168177
0.165795
0.163595
0.16159
0.159796
0.158243
0.156985
0.155988
0.15534
0.155097
0.155322
0.163613
0.17418
0.186582
0.201165
0.218374
0.238784
0.263145
0.292427
0.327886
0.371129
0.424324
0.489971
0.570113
0.665259
0.772391
0.883017
0.984097
1.06379
1.11786
1.15008
1.16738
1.17606
1.18024
1.1822
1.1831
1.1835
1.18368
1.18376
1.1838
1.18381
1.18382
1.18382
1.18382
0.658525
0.658496
0.658446
0.658363
0.658226
0.658001
0.657632
0.657038
0.656091
0.654605
0.652318
0.648871
0.643809
0.6366
0.626692
0.613619
0.59714
0.577359
0.554775
0.530215
0.504673
0.479118
0.454349
0.430919
0.409148
0.389158
0.370936
0.354386
0.339368
0.325726
0.313305
0.30196
0.29156
0.281994
0.273163
0.264985
0.257393
0.250315
0.243675
0.237425
0.231527
0.22595
0.220666
0.21565
0.210883
0.206345
0.202023
0.197903
0.193976
0.190231
0.186662
0.183262
0.180029
0.176958
0.174048
0.1713
0.168717
0.166303
0.164067
0.162019
0.160178
0.158572
0.157268
0.156238
0.155585
0.155407
0.155841
0.161485
0.171511
0.183345
0.197294
0.213765
0.233297
0.25659
0.28456
0.318394
0.359612
0.410251
0.472815
0.549562
0.641536
0.746751
0.858006
0.962832
1.04831
1.10814
1.14466
1.16463
1.17473
1.17962
1.18191
1.18297
1.18345
1.18366
1.18375
1.18379
1.18381
1.18382
1.18382
1.18382
0.658525
0.658496
0.658447
0.658365
0.658229
0.658006
0.657641
0.657052
0.656115
0.654645
0.652381
0.64897
0.64396
0.636822
0.627008
0.614049
0.597701
0.578055
0.5556
0.531149
0.505691
0.480191
0.45545
0.432028
0.410248
0.390239
0.371993
0.355417
0.340373
0.326706
0.314261
0.302895
0.292477
0.282893
0.274047
0.265855
0.258249
0.251161
0.244513
0.238257
0.232353
0.22677
0.22148
0.216457
0.211683
0.207138
0.202807
0.198679
0.19474
0.190984
0.187402
0.183987
0.180737
0.177646
0.174715
0.171944
0.169334
0.16689
0.16462
0.162536
0.160656
0.159006
0.15766
0.156628
0.15597
0.155852
0.156495
0.159071
0.168573
0.179839
0.193134
0.208836
0.227443
0.249611
0.276197
0.308316
0.347404
0.395346
0.454601
0.527613
0.615905
0.718516
0.829691
0.937925
1.02954
1.09599
1.13774
1.16107
1.173
1.17881
1.18154
1.1828
1.18337
1.18363
1.18374
1.18379
1.18381
1.18382
1.18382
1.18382
0.658525
0.658496
0.658448
0.658367
0.658232
0.658011
0.65765
0.657067
0.65614
0.654685
0.652446
0.649072
0.644115
0.637051
0.627332
0.614492
0.598278
0.578773
0.556451
0.532116
0.506745
0.481305
0.456595
0.433182
0.411396
0.39137
0.373102
0.3565
0.34143
0.327739
0.315272
0.303886
0.293449
0.28385
0.274989
0.266783
0.259164
0.252068
0.245413
0.239151
0.233242
0.227654
0.222358
0.21733
0.21255
0.207998
0.20366
0.199522
0.195574
0.191806
0.188211
0.184782
0.181514
0.178405
0.175452
0.172656
0.170018
0.167543
0.165237
0.163111
0.16118
0.159465
0.158012
0.156858
0.156006
0.155565
0.155629
0.156308
0.165321
0.176043
0.188686
0.203604
0.221261
0.242267
0.267421
0.297763
0.334642
0.379798
0.435582
0.504569
0.588699
0.687977
0.798186
0.909182
1.00702
1.08091
1.12893
1.15647
1.17074
1.17774
1.18106
1.18258
1.18328
1.18358
1.18372
1.18378
1.1838
1.18381
1.18382
1.18382
0.658525
0.658497
0.658448
0.658368
0.658235
0.658016
0.657659
0.657083
0.656165
0.654727
0.652513
0.649175
0.644273
0.637283
0.627661
0.61494
0.598861
0.579498
0.557311
0.533093
0.507813
0.482434
0.457759
0.434359
0.412569
0.392529
0.37424
0.357615
0.342522
0.328808
0.316321
0.304916
0.294463
0.284849
0.275976
0.267759
0.260128
0.253023
0.246364
0.240097
0.234184
0.228592
0.223292
0.21826
0.213474
0.208916
0.204572
0.200426
0.196469
0.19269
0.189082
0.185638
0.182354
0.179226
0.176251
0.17343
0.170764
0.168256
0.165911
0.16374
0.161754
0.159972
0.158425
0.157169
0.156184
0.155555
0.155354
0.155661
0.162115
0.172246
0.184193
0.198283
0.214948
0.234752
0.258431
0.286949
0.321562
0.363884
0.416096
0.480828
0.560372
0.655585
0.763804
0.876596
0.98037
1.06235
1.11776
1.15048
1.16778
1.17634
1.18042
1.1823
1.18315
1.18353
1.1837
1.18377
1.1838
1.18381
1.18382
1.18382
0.658525
0.658497
0.658449
0.65837
0.658238
0.658021
0.657668
0.657098
0.656191
0.654769
0.652579
0.649279
0.64443
0.637513
0.627987
0.615382
0.599436
0.580212
0.55816
0.534058
0.508869
0.483553
0.458914
0.435529
0.413738
0.393687
0.375381
0.358737
0.343623
0.32989
0.317385
0.305965
0.295499
0.285874
0.27699
0.268764
0.261124
0.254011
0.247349
0.24108
0.235164
0.22957
0.224267
0.219232
0.214442
0.20988
0.205529
0.201377
0.197411
0.193622
0.190002
0.186545
0.183245
0.180098
0.177103