/*--------------------------------*- C++ -*----------------------------------*\
  =========                 |
  \\      /  F ield         | OpenFOAM: The Open Source CFD Toolbox
   \\    /   O peration     | Website:  https://openfoam.org
    \\  /    A nd           | Version:  8
     \\/     M anipulation  |
\*---------------------------------------------------------------------------*/
FoamFile
{
    version     2.0;
    format      ascii;
    class       volScalarField;
    location    "120/fluid";
    object      T;
}
// * * * * * * * * * * * * * * * * * * * * * * * * * * * * * * * * * * * * * //

dimensions      [0 0 0 1 0 0 0];

internalField   nonuniform List<scalar> 
4000
(
293.004
293.017
293.04
293.077
293.138
293.238
293.401
293.665
294.085
294.749
295.779
297.355
299.716
303.175
308.111
314.954
324.139
336.054
350.972
369.011
390.115
414.08
440.599
469.319
499.888
531.989
565.354
599.768
635.068
671.129
707.86
745.192
783.072
821.455
860.302
899.571
939.217
979.19
1019.45
1060.06
1101
1142.24
1183.75
1225.5
1267.45
1309.57
1351.81
1394.14
1436.51
1478.86
1521.15
1563.31
1605.28
1646.98
1688.32
1729.22
1769.57
1809.24
1848.09
1885.94
1922.6
1957.81
1991.27
2022.58
2051.17
2076.17
2097.39
2113.31
2122.28
2122.11
2089.18
1981.83
1868.42
1750.35
1628.88
1505.17
1380.3
1255.37
1131.5
1009.91
891.873
778.566
672.031
575.098
490.835
422.061
370.455
335.552
314.493
303.154
297.605
295.029
293.876
293.373
293.157
293.065
293.026
293.01
293.003
293.001
293.004
293.017
293.04
293.077
293.139
293.241
293.406
293.674
294.101
294.774
295.819
297.413
299.797
303.282
308.245
315.111
324.311
336.229
351.141
369.167
390.259
414.221
440.754
469.511
500.141
532.329
565.804
600.349
635.795
672.016
708.916
746.424
784.485
823.053
862.085
901.539
941.368
981.52
1021.96
1062.75
1103.86
1145.27
1186.95
1228.86
1270.96
1313.23
1355.62
1398.08
1440.58
1483.06
1525.46
1567.72
1609.79
1651.57
1692.99
1733.95
1774.35
1814.05
1852.92
1890.78
1927.42
1962.6
1996.02
2027.3
2055.91
2080.98
2102.41
2118.78
2128.71
2130
2072.89
1963.08
1847.39
1727.2
1603.73
1478.13
1351.48
1224.89
1099.55
976.774
857.871
744.298
638.588
543.927
463.591
400.251
354.859
325.765
309.11
300.54
296.421
294.519
293.664
293.286
293.122
293.051
293.021
293.008
293.003
293
293.004
293.018
293.04
293.078
293.141
293.245
293.414
293.686
294.121
294.805
295.867
297.484
299.899
303.422
308.43
315.345
324.596
336.564
351.52
369.587
390.718
414.722
441.307
470.13
500.849
533.15
566.764
601.476
637.115
673.552
710.691
748.457
786.792
825.647
864.977
904.734
944.871
985.33
1026.09
1067.19
1108.62
1150.34
1192.32
1234.53
1276.93
1319.48
1362.14
1404.87
1447.61
1490.32
1532.94
1575.41
1617.66
1659.61
1701.17
1742.25
1782.73
1822.49
1861.38
1899.2
1935.76
1970.79
2003.98
2034.93
2063.04
2087.6
2108.66
2125.11
2136.24
2141.57
2045.93
1931.71
1812.64
1689.74
1564.04
1436.63
1308.6
1181.11
1055.47
933.12
815.37
704.119
602.262
513.008
439.314
383.059
344.073
319.79
306.137
299.16
295.802
294.246
293.545
293.235
293.1
293.042
293.017
293.007
293.002
293
293.004
293.018
293.041
293.079
293.143
293.248
293.419
293.695
294.135
294.827
295.901
297.535
299.972
303.525
308.572
315.536
324.845
336.881
351.916
370.07
391.299
415.411
442.115
471.071
501.938
534.403
568.203
603.121
638.989
675.679
713.094
751.158
789.812
829.004
868.686
908.81
949.32
990.158
1031.3
1072.81
1114.64
1156.76
1199.14
1241.74
1284.53
1327.45
1370.47
1413.55
1456.63
1499.65
1542.57
1585.3
1627.8
1669.96
1711.7
1752.92
1793.51
1833.32
1872.19
1909.93
1946.31
1981.03
2013.73
2043.96
2070.65
2093.47
2111.75
2123.4
2126.2
2113.46
2004.38
1888.63
1767.77
1643.17
1516.08
1387.69
1259.19
1131.85
1007.06
886.294
770.919
663.238
566.277
483.107
416.269
366.891
333.885
314.027
303.177
297.75
295.159
293.962
293.422
293.183
293.078
293.033
293.014
293.005
293.002
293
293.004
293.018
293.041
293.08
293.145
293.251
293.424
293.704
294.149
294.85
295.937
297.59
300.054
303.644
308.74
315.766
325.151
337.277
352.415
370.684
392.038
416.288
443.141
472.259
503.304
535.964
569.977
605.128
641.251
678.218
715.933
754.32
793.318
832.875
872.94
913.459
954.377
995.627
1037.21
1079.16
1121.44
1164.01
1206.84
1249.88
1293.1
1336.45
1379.89
1423.36
1466.82
1510.2
1553.45
1596.5
1639.26
1681.66
1723.6
1764.98
1805.66
1845.51
1884.34
1921.95
1958.08
1992.42
2024.57
2053.95
2079.44
2101.15
2117.49
2126.78
2126.54
2070.28
1959.2
1841.49
1718.91
1592.96
1464.96
1336.19
1207.9
1081.45
958.299
839.803
727.598
624.303
532.924
456.295
396.419
353.594
325.895
309.694
301.032
296.741
294.7
293.758
293.333
293.144
293.062
293.026
293.011
293.004
293.001
293
293.004
293.018
293.042
293.081
293.147
293.254
293.429
293.711
294.162
294.871
295.97
297.641
300.132
303.759
308.905
315.998
325.469
337.699
352.959
371.367
392.875
417.292
444.323
473.632
504.879
537.756
572.002
607.403
643.796
681.053
719.079
757.799
797.152
837.082
877.538
918.463
959.798
1001.48
1043.5
1085.91
1128.66
1171.7
1214.99
1258.5
1302.18
1345.98
1389.85
1433.74
1477.59
1521.35
1564.95
1608.31
1651.35
1693.99
1736.13
1777.64
1818.41
1858.26
1897.01
1934.45
1970.28
2004.16
2035.67
2064.02
2088.49
2109.18
2124.54
2133.61
2135.59
2031.11
1915.39
1794.54
1669.84
1542.55
1413.92
1285.16
1157.56
1032.48
911.396
795.583
687.018
588.483
502.877
432.724
379.431
342.509
319.372
306.198
299.31
295.93
294.331
293.594
293.261
293.114
293.049
293.021
293.009
293.003
293.001
293
293.004
293.018
293.042
293.082
293.148
293.256
293.433
293.719
294.175
294.892
296.003
297.694
300.212
303.879
309.081
316.246
325.81
338.153
353.547
372.108
393.785
418.382
445.607
475.121
506.584
539.69
574.178
609.838
646.507
684.06
722.4
761.455
801.161
841.464
882.308
923.635
965.382
1007.48
1049.96
1092.82
1136.03
1179.53
1223.29
1267.26
1311.39
1355.64
1399.94
1444.24
1488.49
1532.62
1576.56
1620.22
1663.54
1706.4
1748.71
1790.34
1831.14
1870.96
1909.59
1946.78
1982.22
2015.54
2046.24
2073
2095.59
2113.25
2123.45
2123.21
2097.39
1986.9
1869.5
1747.07
1621.18
1493.2
1364.43
1236.12
1109.58
986.22
867.419
754.549
649.897
556.28
476.443
412.534
365.329
333.606
314.288
303.538
298.015
295.324
294.055
293.471
293.207
293.09
293.039
293.016
293.007
293.003
293.001
293
293.004
293.019
293.043
293.083
293.149
293.259
293.438
293.727
294.188
294.913
296.037
297.746
300.293
304.001
309.259
316.5
326.161
338.625
354.16
372.882
394.736
419.524
446.952
476.677
508.362
541.701
576.435
612.354
649.298
687.143
725.793
765.175
805.227
845.891
887.112
928.828
970.971
1013.48
1056.39
1099.69
1143.34
1187.3
1231.5
1275.92
1320.48
1365.15
1409.87
1454.57
1499.19
1543.67
1587.92
1631.87
1675.43
1718.49
1760.94
1802.65
1843.47
1883.22
1921.68
1958.59
1993.63
2026.38
2056.26
2082.05
2104.32
2121.53
2132.48
2135.7
2059.16
1945.19
1825.44
1701.45
1574.64
1446.3
1317.72
1190.15
1064.93
943.478
827.046
717.254
616.608
527.876
453.604
395.518
353.768
326.498
310.314
301.487
297.022
294.86
293.844
293.377
293.166
293.072
293.031
293.013
293.005
293.002
293.001
293
293.004
293.019
293.043
293.084
293.151
293.262
293.442
293.734
294.2
294.934
296.07
297.799
300.375
304.124
309.439
316.758
326.518
339.104
354.784
373.669
395.703
420.685
448.315
478.253
510.16
543.73
578.705
614.879
652.091
690.219
729.168
768.866
809.248
850.259
891.838
933.923
976.441
1019.34
1062.65
1106.37
1150.44
1194.82
1239.45
1284.27
1329.25
1374.32
1419.42
1464.48
1509.45
1554.24
1598.79
1642.99
1686.76
1729.98
1772.55
1814.31
1855.11
1894.75
1932.99
1969.56
2004.08
2036.11
2064.75
2089.31
2109.92
2124.63
2132.08
2130.37
2021.58
1905.29
1783.79
1658.63
1531.18
1402.73
1274.54
1147.88
1024.09
904.576
790.533
683.861
587.176
503.164
434.133
381.363
344.405
320.886
307.241
299.926
296.271
294.51
293.685
293.306
293.135
293.059
293.025
293.011
293.004
293.002
293.001
293
293.004
293.019
293.043
293.084
293.152
293.264
293.447
293.742
294.213
294.954
296.103
297.85
300.455
304.245
309.618
317.013
326.872
339.58
355.403
374.451
396.664
421.836
449.666
479.811
511.933
545.727
580.936
617.354
654.823
693.221
732.455
772.45
813.145
854.48
896.395
938.824
981.691
1024.95
1068.65
1112.75
1157.21
1201.98
1246.99
1292.2
1337.55
1382.99
1428.43
1473.83
1519.11
1564.19
1608.98
1653.4
1697.35
1740.71
1783.35
1825.13
1865.87
1905.36
1943.36
1979.55
2013.54
2044.8
2071.88
2094.72
2112.59
2122.83
2122.48
2096.4
1985.33
1867.51
1744.83
1618.89
1491.1
1362.76
1235.12
1109.47
987.175
869.55
757.876
654.285
561.43
481.885
417.696
369.688
336.868
316.466
304.859
298.736
295.701
294.245
293.564
293.252
293.111
293.048
293.021
293.009
293.004
293.001
293
293
293.004
293.019
293.044
293.085
293.154
293.266
293.451
293.749
294.224
294.974
296.134
297.901
300.533
304.363
309.792
317.262
327.217
340.042
356.005
375.211
397.595
422.951
450.973
481.317
513.645
547.651
583.081
619.73
657.441
696.092
735.591
775.865
816.85
858.487
900.711
943.456
986.645
1030.24
1074.29
1118.74
1163.56
1208.68
1254.04
1299.6
1345.29
1391.05
1436.81
1482.51
1528.06
1573.38
1618.39
1663
1707.09
1750.55
1793.24
1835.02
1875.69
1915.05
1952.84
1988.74
2022.36
2053.13
2079.67
2102.71
2120.39
2131.19
2133.06
2066.98
1953.18
1833.47
1709.54
1582.89
1454.85
1326.7
1199.67
1075.06
954.227
838.394
729.004
628.377
539.139
463.74
403.941
360.129
330.832
312.994
303.015
297.823
295.265
294.043
293.472
293.211
293.093
293.041
293.017
293.007
293.003
293.001
293
293
293.004
293.019
293.044
293.086
293.155
293.269
293.455
293.755
294.236
294.992
296.164
297.948
300.607
304.475
309.957
317.498
327.545
340.483
356.577
375.932
398.48
424.008
452.211
482.742
515.262
549.467
585.103
621.966
659.9
698.785
738.53
779.059
820.31
862.221
904.729
947.761
991.24
1035.14
1079.5
1124.28
1169.41
1214.85
1260.53
1306.4
1352.39
1398.44
1444.47
1490.42
1536.21
1581.75
1626.95
1671.7
1715.9
1759.43
1802.13
1843.86
1884.42
1923.59
1961.09
1996.6
2029.7
2059.83
2085.82
2108.48
2126.15
2137.86
2142.39
2041.52
1924.61
1802.92
1677.8
1550.53
1422.34
1294.45
1168.08
1044.49
925.062
810.926
703.723
605.89
520.01
448.393
392.514
352.346
326.014
310.269
301.586
297.12
294.931
293.888
293.402
293.179
293.079
293.034
293.015
293.006
293.003
293.001
293
293
293.004
293.019
293.045
293.086
293.156
293.271
293.458
293.762
294.246
295.009
296.192
297.993
300.675
304.579
310.11
317.718
327.849
340.892
357.109
376.602
399.3
424.988
453.357
484.06
516.757
551.144
586.968
624.027
662.165
701.263
741.229
781.989
823.48
865.639
908.399
951.688
995.427
1039.6
1084.25
1129.31
1174.72
1220.44
1266.4
1312.54
1358.79
1405.09
1451.37
1497.54
1543.53
1589.25
1634.6
1679.47
1723.76
1767.32
1810.01
1851.66
1892.06
1930.97
1968.1
2003.07
2035.41
2064.19
2088.64
2108.94
2123.01
2129.11
2124.06
2013.51
1896.23
1774.08
1648.63
1521.26
1393.23
1265.77
1140.12
1017.57
899.461
786.925
681.784
586.54
503.728
435.509
383.08
346.037
322.177
308.129
300.475
296.576
294.673
293.768
293.347
293.155
293.068
293.03
293.013
293.005
293.002
293.001
293
293
293.004
293.02
293.045
293.087
293.157
293.273
293.462
293.767
294.255
295.025
296.217
298.032
300.737
304.673
310.249
317.917
328.125
341.262
357.591
377.209
400.043
425.875
454.394
485.252
518.108
552.658
588.651
625.885
664.205
703.492
743.656
784.621
826.325
868.702
911.685
955.201
999.168
1043.59
1088.48
1133.78
1179.45
1225.41
1271.61
1317.99
1364.47
1410.99
1457.47
1503.83
1549.99
1595.86
1641.33
1686.3
1730.65
1774.24
1816.92
1858.49
1898.76
1937.46
1974.27
2008.78
2040.49
2067.87
2090.99
2109.21
2120.08
2121.27
2101.43
1989.66
1871.53
1748.82
1623.07
1495.64
1367.81
1240.8
1115.84
994.265
877.345
766.274
663.016
570.113
490.042
424.815
375.366
340.96
319.134
306.451
299.611
296.155
294.473
293.676
293.305
293.136
293.06
293.026
293.011
293.005
293.002
293.001
293
293
293.004
293.02
293.045
293.087
293.158
293.274
293.464
293.772
294.264
295.038
296.239
298.067
300.792
304.756
310.371
318.092
328.368
341.588
358.014
377.742
400.696
426.655
455.306
486.299
519.294
553.988
590.129
627.516
665.995
705.447
745.783
786.927
828.814
871.381
914.557
958.269
1002.44
1047.06
1092.16
1137.68
1183.55
1229.73
1276.13
1322.71
1369.38
1416.09
1462.74
1509.26
1555.57
1601.56
1647.14
1692.19
1736.6
1780.21
1822.88
1864.42
1904.6
1943.17
1979.8
2014.07
2045.38
2072.3
2095.58
2113.23
2123.54
2124.17
2083.32
1970.19
1851.07
1727.69
1601.57
1474.04
1346.34
1219.69
1095.33
974.589
858.684
748.878
647.283
556.437
478.746
416.084
369.148
336.923
316.743
305.146
298.943
295.83
294.319
293.605
293.273
293.122
293.054
293.023
293.01
293.004
293.002
293.001
293
293
293.005
293.02
293.045
293.088
293.159
293.276
293.467
293.776
294.27
295.05
296.258
298.097
300.838
304.826
310.474
318.239
328.573
341.863
358.372
378.194
401.249
427.316
456.079
487.188
520.302
555.118
591.384
628.901
667.515
707.107
747.588
788.883
830.925
873.651
916.99
960.864
1005.2
1050
1095.27
1140.97
1187.02
1233.37
1279.94
1326.68
1373.52
1420.37
1467.16
1513.82
1560.24
1606.34
1652
1697.12
1741.58
1785.23
1827.91
1869.44
1909.6
1948.14
1984.75
2019.03
2050.48
2077.64
2101.48
2120.14
2132.24
2135.93
2070.99
1955.61
1835.04
1710.78
1584.16
1456.43
1328.78
1202.41
1078.53
958.472
843.405
734.671
634.475
545.347
469.647
409.112
364.234
333.766
314.891
304.142
298.432
295.581
294.202
293.55
293.248
293.111
293.049
293.021
293.009
293.004
293.002
293.001
293
293
293.005
293.02
293.045
293.088
293.159
293.277
293.469
293.779
294.276
295.059
296.272
298.12
300.874
304.882
310.557
318.358
328.738
342.085
358.661
378.558
401.696
427.851
456.705
487.908
521.119
556.034
592.403
630.025
668.748
708.454
749.053
790.47
832.638
875.492
918.961
962.968
1007.43
1052.37
1097.79
1143.63
1189.82
1236.3
1283.02
1329.89
1376.85
1423.82
1470.73
1517.48
1563.99
1610.17
1655.9
1701.07
1745.57
1789.24
1831.92
1873.45
1913.61
1952.15
1988.78
2023.13
2054.77
2082.31
2106.03
2125.67
2139.31
2145.35
2061.04
1943.95
1822.27
1697.32
1570.32
1442.45
1314.85
1188.7
1065.21
945.7
831.312
723.453
624.392
536.654
462.549
403.711
360.458
331.36
313.489
303.384
298.05
295.396
294.114
293.509
293.23
293.102
293.045
293.02
293.008
293.004
293.001
293.001
293
293
293.005
293.02
293.046
293.088
293.16
293.277
293.47
293.782
294.28
295.065
296.283
298.138
300.901
304.923
310.618
318.446
328.861
342.251
358.877
378.832
402.033
428.253
457.177
488.452
521.736
556.728
593.174
630.877
669.684
709.476
750.164
791.673
833.935
876.886
920.454
964.561
1009.13
1054.17
1099.7
1145.64
1191.94
1238.53
1285.34
1332.31
1379.36
1426.42
1473.41
1520.23
1566.81
1613.04
1658.82
1704.03
1748.54
1792.21
1834.89
1876.4
1916.52
1955.01
1991.56
2025.82
2057.33
2084.79
2108.28
2127.72
2141.12
2146.65
2051.54
1933.95
1811.91
1686.73
1559.62
1431.75
1304.27
1178.34
1055.18
936.114
822.249
715.058
616.862
530.179
457.282
399.719
357.681
329.599
312.467
302.833
297.773
295.261
294.05
293.48
293.216
293.096
293.042
293.018
293.008
293.003
293.001
293.001
293
293
293.005
293.02
293.046
293.089
293.16
293.278
293.471
293.783
294.282
295.069
296.29
298.149
300.919
304.949
310.657
318.503
328.94
342.359
359.019
379.012
402.254
428.52
457.491
488.815
522.149
557.191
593.691
631.449
670.312
710.162
750.909
792.479
834.804
877.818
921.452
965.628
1010.26
1055.38
1100.98
1146.99
1193.36
1240.02
1286.9
1333.93
1381.04
1428.16
1475.2
1522.07
1568.69
1614.95
1660.75
1705.97
1750.48
1794.15
1836.8
1878.26
1918.31
1956.71
1993.13
2027.21
2058.49
2085.55
2108.57
2127.34
2139.78
2143.94
2043.74
1926.23
1804.25
1679.11
1552.08
1424.32
1296.99
1171.26
1048.36
929.604
816.105
709.377
611.773
525.808
453.731
397.031
355.812
328.413
311.777
302.461
297.586
295.17
294.007
293.46
293.207
293.092
293.041
293.018
293.008
293.003
293.001
293.001
293
293
293.005
293.02
293.046
293.089
293.16
293.278
293.471
293.784
294.283
295.071
296.293
298.154
300.927
304.961
310.675
318.529
328.977
342.409
359.085
379.096
402.359
428.647
457.641
488.989
522.349
557.417
593.944
631.729
670.62
710.5
751.277
792.876
835.231
878.277
921.945
966.155
1010.83
1055.98
1101.62
1147.67
1194.07
1240.76
1287.67
1334.74
1381.88
1429.02
1476.08
1522.98
1569.62
1615.89
1661.7
1706.92
1751.43
1795.08
1837.72
1879.15
1919.15
1957.47
1993.79
2027.74
2058.83
2085.58
2108.23
2126.51
2138.31
2141.67
2039.38
1921.97
1800.07
1675.03
1548.08
1420.42
1293.21
1167.61
1044.87
926.293
812.997
706.518
609.224
523.629
451.968
395.703
354.892
327.831
311.438
302.277
297.493
295.125
293.986
293.45
293.203
293.09
293.04
293.017
293.007
293.003
293.001
293.001
293
293
293.005
293.02
293.046
293.089
293.16
293.278
293.471
293.784
294.283
295.071
296.293
298.154
300.927
304.961
310.676
318.529
328.977
342.409
359.084
379.095
402.358
428.646
457.64
488.987
522.347
557.415
593.942
631.727
670.618
710.498
751.275
792.875
835.23
878.276
921.943
966.153
1010.82
1055.98
1101.62
1147.67
1194.07
1240.76
1287.67
1334.73
1381.88
1429.02
1476.08
1522.98
1569.62
1615.89
1661.7
1706.92
1751.43
1795.09
1837.72
1879.15
1919.16
1957.49
1993.82
2027.77
2058.86
2085.61
2108.25
2126.5
2138.28
2141.64
2039.35
1921.92
1800.01
1674.96
1548.01
1420.36
1293.15
1167.55
1044.82
926.246
812.954
706.479
609.19
523.599
451.943
395.684
354.879
327.822
311.432
302.274
297.492
295.124
293.985
293.45
293.202
293.09
293.04
293.017
293.007
293.003
293.001
293.001
293
293
293.005
293.02
293.046
293.089
293.16
293.278
293.471
293.783
294.282
295.069
296.29
298.149
300.919
304.949
310.658
318.503
328.94
342.359
359.018
379.01
402.252
428.517
457.487
488.81
522.144
557.186
593.685
631.443
670.306
710.156
750.904
792.474
834.799
877.814
921.448
965.623
1010.26
1055.38
1100.98
1146.99
1193.36
1240.01
1286.89
1333.92
1381.04
1428.15
1475.19
1522.07
1568.69
1614.95
1660.75
1705.97
1750.49
1794.16
1836.82
1878.29
1918.35
1956.76
1993.19
2027.28
2058.56
2085.6
2108.58
2127.29
2139.68
2143.86
2043.63
1926.09
1804.07
1678.92
1551.88
1424.13
1296.81
1171.09
1048.2
929.46
815.972
709.254
611.663
525.712
453.652
396.972
355.771
328.388
311.763
302.454
297.583
295.169
294.006
293.46
293.207
293.092
293.04
293.018
293.008
293.003
293.001
293.001
293
293
293.005
293.02
293.046
293.088
293.16
293.277
293.47
293.782
294.28
295.065
296.283
298.138
300.902
304.923
310.618
318.446
328.861
342.251
358.876
378.83
402.029
428.249
457.172
488.446
521.729
556.719
593.166
630.868
669.675
709.467
750.155
791.664
833.928
876.879
920.447
964.554
1009.12
1054.17
1099.69
1145.64
1191.93
1238.52
1285.33
1332.3
1379.35
1426.41
1473.4
1520.23
1566.81
1613.04
1658.82
1704.03
1748.54
1792.22
1834.91
1876.42
1916.55
1955.05
1991.61
2025.88
2057.39
2084.82
2108.27
2127.64
2140.98
2146.58
2051.39
1933.74
1811.66
1686.45
1559.33
1431.47
1304
1178.08
1054.94
935.883
822.032
714.855
616.678
530.017
457.148
399.616
357.61
329.555
312.442
302.821
297.767
295.258
294.049
293.479
293.216
293.096
293.042
293.018
293.008
293.003
293.001
293.001
293
293
293.005
293.02
293.045
293.088
293.159
293.277
293.469
293.779
294.276
295.059
296.273
298.121
300.875
304.882
310.557
318.358
328.738
342.085
358.66
378.556
401.693
427.846
456.699
487.9
521.11
556.024
592.392
630.014
668.737
708.443
749.042
790.459
832.628
875.483
918.952
962.959
1007.43
1052.37
1097.79
1143.62
1189.81
1236.3
1283.01
1329.88
1376.84
1423.81
1470.72
1517.47
1563.98
1610.16
1655.89
1701.07
1745.56
1789.23
1831.93
1873.46
1913.62
1952.17
1988.8
2023.16
2054.79
2082.31
2105.99
2125.6
2139.23
2145.36
2060.77
1943.63
1821.93
1696.96
1569.96
1442.09
1314.5
1188.36
1064.89
945.39
831.014
723.17
624.132
536.424
462.357
403.564
360.357
331.297
313.454
303.366
298.041
295.392
294.112
293.509
293.229
293.102
293.045
293.02
293.008
293.004
293.001
293.001
293
293
293.005
293.02
293.045
293.088
293.159
293.276
293.467
293.776
294.271
295.05
296.258
298.097
300.838
304.826
310.475
318.24
328.573
341.863
358.371
378.192
401.246
427.311
456.072
487.179
520.292
555.106
591.372
628.888
667.501
707.094
747.575
788.87
830.914
873.64
916.98
960.855
1005.19
1049.99
1095.27
1140.96
1187.01
1233.36
1279.93
1326.67
1373.51
1420.36
1467.15
1513.8
1560.22
1606.32
1651.98
1697.1
1741.56
1785.2
1827.88
1869.41
1909.57
1948.12
1984.72
2019
2050.45
2077.61
2101.45
2120.13
2132.25
2135.98
2070.48
1955.1
1834.54
1710.29
1583.69
1455.98
1328.34
1201.98
1078.12
958.072
843.018
734.3
634.131
545.041
469.391
408.915
364.098
333.681
314.844
304.118
298.42
295.576
294.2
293.549
293.248
293.11
293.049
293.021
293.009
293.004
293.002
293.001
293
293
293.004
293.02
293.045
293.087
293.158
293.274
293.464
293.772
294.264
295.038
296.24
298.068
300.793
304.757
310.372
318.093
328.369
341.588
358.013
377.74
400.692
426.649
455.299
486.29
519.284
553.976
590.116
627.502
665.981
705.433
745.769
786.914
828.802
871.37
914.548
958.26
1002.43
1047.05
1092.16
1137.67
1183.55
1229.72
1276.13
1322.7
1369.37
1416.07
1462.72
1509.24
1555.55
1601.54
1647.11
1692.16
1736.56
1780.17
1822.83
1864.36
1904.54
1943.1
1979.72
2013.98
2045.3
2072.22
2095.54
2113.22
2123.55
2124.07
2082.59
1969.53
1850.44
1727.11
1601.01
1473.49
1345.81
1219.17
1094.82
974.089
858.196
748.408
646.845
556.045
478.417
415.829
368.969
336.811
316.68
305.114
298.928
295.823
294.316
293.603
293.272
293.121
293.054
293.023
293.01
293.004
293.002
293.001
293
293
293.004
293.02
293.045
293.087
293.157
293.273
293.462
293.767
294.256
295.025
296.218
298.033
300.738
304.675
310.251
317.918
328.127
341.263
357.591
377.208
400.041
425.871
454.388
485.243
518.097
552.647
588.638
625.871
664.191
703.478
743.642
784.608
826.313
868.691
911.676
955.193
999.162
1043.58
1088.47
1133.78
1179.44
1225.4
1271.6
1317.98
1364.46
1410.97
1457.45
1503.81
1549.97
1595.83
1641.3
1686.27
1730.61
1774.19
1816.86
1858.43
1898.69
1937.38
1974.18
2008.69
2040.39
2067.78
2090.9
2109.13
2119.97
2120.97
2100.73
1989.01
1870.88
1748.17
1622.42
1495
1367.17
1240.16
1115.22
993.65
876.744
765.695
662.474
569.627
489.63
424.493
375.139
340.817
319.053
306.41
299.592
296.146
294.469
293.674
293.305
293.136
293.06
293.026
293.011
293.005
293.002
293.001
293
293
293.004
293.019
293.045
293.086
293.156
293.271
293.458
293.762
294.246
295.01
296.193
297.993
300.676
304.581
310.112
317.72
327.852
340.894
357.111
376.603
399.299
424.985
453.352
484.053
516.748
551.134
586.956
624.014
662.152
701.249
741.216
781.977
823.469
865.629
908.391
951.682
995.423
1039.6
1084.24
1129.3
1174.72
1220.44
1266.4
1312.53
1358.79
1405.08
1451.36
1497.53
1543.51
1589.23
1634.57
1679.44
1723.71
1767.27
1809.96
1851.6
1892
1930.9
1968.02
2002.99
2035.33
2064.08
2088.51
2108.77
2122.76
2128.69
2123.51
2012.99
1895.59
1773.39
1647.91
1520.52
1392.48
1265.02
1139.38
1016.85
898.751
786.239
681.138
585.956
503.229
435.115
382.798
345.857
322.074
308.076
300.45
296.565
294.667
293.766
293.346
293.155
293.068
293.03
293.013
293.005
293.002
293.001
293
293
293.004
293.019
293.044
293.086
293.155
293.269
293.455
293.756
294.236
294.992
296.165
297.949
300.608
304.477
309.959
317.501
327.548
340.486
356.58
375.935
398.481
424.007
452.207
482.736
515.254
549.458
585.092
621.955
659.888
698.774
738.518
779.049
820.301
862.214
904.723
947.757
991.238
1035.14
1079.5
1124.28
1169.41
1214.85
1260.53
1306.4
1352.38
1398.43
1444.46
1490.41
1536.2
1581.73
1626.92
1671.67
1715.87
1759.39
1802.09
1843.81
1884.36
1923.52
1961.01
1996.51
2029.59
2059.68
2085.62
2108.22
2125.8
2137.44
2142.07
2040.94
1923.91
1802.15
1676.99
1549.7
1421.51
1293.61
1167.24
1043.67
924.249
810.137
702.975
605.206
519.418
447.918
392.168
352.121
325.885
310.202
301.554
297.105
294.924
293.885
293.4
293.179
293.079
293.034
293.015
293.006
293.003
293.001
293
293
293.004
293.019
293.044
293.085
293.154
293.267
293.451
293.749
294.225
294.974
296.135
297.902
300.534
304.365
309.795
317.265
327.221
340.047
356.01
375.215
397.598
422.952
450.972
481.314
513.64
547.644
583.073
619.721
657.431
696.082
735.582
775.857
816.844
858.482
900.709
943.455
986.646
1030.24
1074.29
1118.75
1163.56
1208.68
1254.05
1299.6
1345.29
1391.05
1436.81
1482.5
1528.04
1573.37
1618.37
1662.98
1707.06
1750.52
1793.21
1834.98
1875.65
1915.01
1952.8
1988.7
2022.33
2053.1
2079.65
2102.69
2120.38
2131.21
2133.2
2066.02
1952.17
1832.43
1708.51
1581.88
1453.86
1325.72
1198.71
1074.11
953.303
837.497
728.149
627.589
538.45
463.177
403.523
359.852
330.67
312.909
302.975
297.805
295.257
294.039
293.471
293.21
293.093
293.04
293.017
293.007
293.003
293.001
293
293
293.004
293.019
293.043
293.084
293.152
293.264
293.447
293.742
294.213
294.954
296.104
297.852
300.457
304.248
309.622
317.018
326.878
339.586
355.41
374.458
396.67
421.84
449.668
479.812
511.932
545.723
580.931
617.348
654.817
693.214
732.449
772.445
813.142
854.479
896.396
938.826
981.696
1024.96
1068.66
1112.76
1157.22
1201.99
1247
1292.21
1337.56
1382.99
1428.44
1473.83
1519.1
1564.18
1608.97
1653.38
1697.33
1740.68
1783.32
1825.1
1865.84
1905.34
1943.35
1979.56
2013.57
2044.85
2071.97
2094.82
2112.66
2122.79
2122.14
2095.2
1984.22
1866.37
1743.71
1617.79
1490.02
1361.69
1234.07
1108.44
986.161
868.56
756.924
653.399
560.642
481.231
417.198
369.35
336.665
316.358
304.807
298.712
295.69
294.241
293.562
293.251
293.111
293.048
293.021
293.009
293.004
293.001
293
293
293.004
293.019
293.043
293.084
293.151
293.262
293.442
293.735
294.201
294.934
296.071
297.8
300.377
304.127
309.444
316.763
326.525
339.112
354.793
373.679
395.712
420.693
448.321
478.257
510.162
543.73
578.704
614.877
652.088
690.216
729.166
768.865
809.249
850.261
891.843
933.93
976.45
1019.35
1062.67
1106.39
1150.46
1194.83
1239.46
1284.29
1329.26
1374.33
1419.42
1464.49
1509.45
1554.24
1598.78
1642.97
1686.74
1729.96
1772.51
1814.27
1855.06
1894.69
1932.93
1969.48
2003.98
2035.99
2064.6
2089.1
2109.62
2124.24
2131.53
2129.81
2021
1904.57
1782.96
1657.72
1530.2
1401.71
1273.49
1146.81
1023.02
903.512
789.495
682.879
586.289
502.411
433.546
380.952
344.151
320.749
307.175
299.896
296.258
294.505
293.683
293.305
293.134
293.059
293.025
293.011
293.004
293.002
293.001
293
293.004
293.019
293.043
293.083
293.15
293.259
293.438
293.727
294.188
294.914
296.038
297.748
300.295
304.005
309.264
316.507
326.17
338.635
354.172
372.895
394.749
419.536
446.962
476.685
508.369
541.706
576.438
612.356
649.3
687.144
725.795
765.178
805.231
845.898
887.121
928.84
970.985
1013.49
1056.4
1099.71
1143.36
1187.32
1231.52
1275.93
1320.5
1365.17
1409.88
1454.58
1499.2
1543.67
1587.91
1631.86
1675.41
1718.47
1760.91
1802.62
1843.44
1883.18
1921.64
1958.54
1993.57
2026.32
2056.17
2081.97
2104.26
2121.52
2132.58
2136.22
2058.52
1944.31
1824.41
1700.35
1573.5
1445.14
1316.55
1188.97
1063.75
942.313
825.906
716.166
615.61
527.012
452.914
395.021
353.452
326.322
310.227
301.449
297.006
294.853
293.841
293.376
293.166
293.072
293.031
293.013
293.005
293.002
293.001
293
293.004
293.018
293.042
293.082
293.148
293.257
293.434
293.719
294.175
294.893
296.005
297.695
300.215
303.883
309.086
316.254
325.82
338.166
353.562
372.124
393.801
418.399
445.622
475.134
506.596
539.7
574.186
609.846
646.514
684.066
722.407
761.463
801.17
841.475
882.321
923.652
965.4
1007.5
1049.98
1092.85
1136.05
1179.56
1223.32
1267.29
1311.42
1355.66
1399.96
1444.26
1488.5
1532.63
1576.56
1620.22
1663.53
1706.39
1748.69
1790.31
1831.12
1870.94
1909.57
1946.77
1982.24
2015.6
2046.34
2073.15
2095.76
2113.41
2123.51
2122.9
2096.06
1985.66
1868.21
1745.77
1619.88
1491.91
1363.14
1234.83
1108.3
984.956
866.179
753.353
648.786
555.3
475.64
411.937
364.937
333.381
314.175
303.487
297.993
295.315
294.051
293.47
293.207
293.09
293.039
293.016
293.007
293.003
293.001
293
293.004
293.018
293.042
293.081
293.147
293.254
293.429
293.712
294.163
294.872
295.971
297.643
300.135
303.763
308.912
316.007
325.481
337.714
352.977
371.387
392.897
417.313
444.344
473.651
504.897
537.772
572.015
607.416
643.808
681.065
719.092
757.812
797.166
837.098
877.557
918.485
959.821
1001.5
1043.53
1085.94
1128.69
1171.73
1215.03
1258.53
1302.21
1346.01
1389.87
1433.76
1477.61
1521.37
1564.96
1608.31
1651.35
1693.99
1736.11
1777.62
1818.37
1858.21
1896.95
1934.36
1970.17
2004.02
2035.5
2063.81
2088.23
2108.84
2124.09
2132.97
2134.93
2030.27
1914.4
1793.44
1668.65
1541.31
1412.63
1283.84
1156.22
1031.14
910.067
794.286
685.793
587.379
501.948
432.011
378.945
342.22
319.223
306.131
299.282
295.919
294.326
293.592
293.261
293.113
293.049
293.021
293.009
293.003
293.001
293
293.004
293.018
293.041
293.08
293.145
293.251
293.424
293.704
294.15
294.851
295.938
297.592
300.058
303.649
308.747
315.776
325.165
337.295
352.436
370.708
392.065
416.314
443.167
472.284
503.327
535.986
569.997
605.147
641.269
678.236
715.951
754.339
793.338
832.897
872.963
913.486
954.406
995.659
1037.24
1079.19
1121.47
1164.05
1206.88
1249.92
1293.14
1336.49
1379.93
1423.4
1466.85
1510.23
1553.48
1596.52
1639.28
1681.67
1723.61
1764.98
1805.66
1845.5
1884.33
1921.94
1958.07
1992.41
2024.55
2053.92
2079.42
2101.12
2117.46
2126.75
2126.68
2069.13
1957.94
1840.14
1717.51
1591.53
1463.52
1334.73
1206.45
1080
956.86
838.392
726.248
623.065
531.856
455.449
395.821
353.225
325.699
309.604
300.994
296.726
294.695
293.756
293.332
293.144
293.062
293.026
293.011
293.004
293.001
293
293.004
293.018
293.041
293.08
293.143
293.248
293.419
293.695
294.135
294.828
295.902
297.537
299.976
303.531
308.58
315.547
324.861
336.902
351.941
370.099
391.33
415.444
442.147
471.102
501.967
534.431
568.229
603.145
639.013
675.702
713.117
751.181
789.837
829.031
868.715
908.841
949.354
990.194
1031.34
1072.85
1114.68
1156.81
1199.19
1241.79
1284.58
1327.5
1370.52
1413.6
1456.67
1499.7
1542.61
1585.34
1627.83
1669.99
1711.73
1752.95
1793.53
1833.33
1872.2
1909.94
1946.32
1981.05
2013.76
2043.99
2070.66
2093.46
2111.63
2123.04
2125.37
2111.84
2002.97
1887.19
1766.31
1641.7
1514.6
1386.19
1257.67
1130.32
1005.54
884.787
769.456
661.87
565.066
482.115
415.54
366.422
333.627
313.905
303.127
297.731
295.152
293.96
293.421
293.183
293.078
293.033
293.014
293.005
293.002
293
293.004
293.018
293.04
293.079
293.141
293.245
293.414
293.686
294.121
294.806
295.869
297.487
299.903
303.428
308.439
315.358
324.614
336.587
351.549
369.621
390.755
414.761
441.346
470.169
500.886
533.184
566.796
601.506
637.144
673.581
710.72
748.486
786.823
825.679
865.011
904.772
944.911
985.374
1026.13
1067.24
1108.67
1150.4