/*--------------------------------*- C++ -*----------------------------------*\
  =========                 |
  \\      /  F ield         | OpenFOAM: The Open Source CFD Toolbox
   \\    /   O peration     | Website:  https://openfoam.org
    \\  /    A nd           | Version:  8
     \\/     M anipulation  |
\*---------------------------------------------------------------------------*/
FoamFile
{
    version     2.0;
    format      ascii;
    class       volVectorField;
    location    "120/fluid";
    object      U;
}
// * * * * * * * * * * * * * * * * * * * * * * * * * * * * * * * * * * * * * //

dimensions      [0 1 -1 0 0 0 0];

internalField   nonuniform List<vector> 
4000
(
(0.0999497 -0.00678977 0)
(0.0996791 -0.02044 0)
(0.0992425 -0.034124 0)
(0.0986384 -0.047784 0)
(0.0978582 -0.0614371 0)
(0.0968841 -0.0751303 0)
(0.0956955 -0.088897 0)
(0.0942712 -0.102744 0)
(0.092593 -0.116654 0)
(0.0906478 -0.130598 0)
(0.0884314 -0.144537 0)
(0.0859526 -0.158423 0)
(0.0832403 -0.172185 0)
(0.0803475 -0.185741 0)
(0.0773384 -0.199015 0)
(0.0742745 -0.211887 0)
(0.071208 -0.224198 0)
(0.0681737 -0.235752 0)
(0.0651823 -0.246339 0)
(0.0622192 -0.255752 0)
(0.0592519 -0.263819 0)
(0.0562406 -0.270424 0)
(0.0531507 -0.275521 0)
(0.0499653 -0.279118 0)
(0.0466899 -0.281288 0)
(0.0433375 -0.282191 0)
(0.0399219 -0.281997 0)
(0.0364587 -0.280884 0)
(0.0329647 -0.279025 0)
(0.0294567 -0.276586 0)
(0.02595 -0.273718 0)
(0.0224573 -0.270556 0)
(0.0189888 -0.267217 0)
(0.0155519 -0.2638 0)
(0.0121512 -0.260389 0)
(0.0087891 -0.257055 0)
(0.00546566 -0.253855 0)
(0.00217942 -0.250838 0)
(-0.00107146 -0.248041 0)
(-0.00428882 -0.245499 0)
(-0.00747633 -0.243243 0)
(-0.0106396 -0.241296 0)
(-0.0137851 -0.239681 0)
(-0.0169197 -0.238413 0)
(-0.0200504 -0.237506 0)
(-0.0231844 -0.236971 0)
(-0.0263291 -0.236817 0)
(-0.0294917 -0.237053 0)
(-0.0326792 -0.237686 0)
(-0.0358988 -0.238721 0)
(-0.0391569 -0.240164 0)
(-0.04246 -0.242023 0)
(-0.0458138 -0.244303 0)
(-0.0492235 -0.24701 0)
(-0.0526936 -0.250152 0)
(-0.0562278 -0.253734 0)
(-0.0598286 -0.257766 0)
(-0.0634971 -0.262253 0)
(-0.0672329 -0.267203 0)
(-0.0710332 -0.272623 0)
(-0.0748934 -0.278518 0)
(-0.0788048 -0.284893 0)
(-0.082757 -0.291752 0)
(-0.086732 -0.299095 0)
(-0.090711 -0.306922 0)
(-0.0946666 -0.31523 0)
(-0.0985737 -0.324008 0)
(-0.102391 -0.33325 0)
(-0.10604 -0.342996 0)
(-0.109187 -0.353237 0)
(-0.112539 -0.363737 0)
(-0.114068 -0.375608 0)
(-0.112321 -0.386067 0)
(-0.11001 -0.394458 0)
(-0.107675 -0.400668 0)
(-0.105156 -0.404474 0)
(-0.102358 -0.405516 0)
(-0.0992744 -0.403375 0)
(-0.0959221 -0.397647 0)
(-0.0923235 -0.387992 0)
(-0.0884973 -0.374194 0)
(-0.0844892 -0.356217 0)
(-0.0804346 -0.334304 0)
(-0.0765894 -0.309089 0)
(-0.0733019 -0.28162 0)
(-0.071022 -0.25371 0)
(-0.0702611 -0.227287 0)
(-0.071304 -0.203588 0)
(-0.0739763 -0.182768 0)
(-0.0777192 -0.164134 0)
(-0.0818645 -0.146794 0)
(-0.085877 -0.130104 0)
(-0.0894347 -0.113746 0)
(-0.092391 -0.0976192 0)
(-0.0947408 -0.081809 0)
(-0.0965553 -0.0662882 0)
(-0.0979177 -0.0509842 0)
(-0.0989015 -0.0358387 0)
(-0.0995619 -0.0209576 0)
(-0.0999427 -0.00672711 0)
(0.100002 -0.00639691 0)
(0.0998243 -0.0193619 0)
(0.099452 -0.0323768 0)
(0.0988608 -0.0453354 0)
(0.0980503 -0.0582237 0)
(0.0970146 -0.0710639 0)
(0.0957428 -0.0838694 0)
(0.0942239 -0.0966322 0)
(0.0924512 -0.109328 0)
(0.0904256 -0.121926 0)
(0.0881579 -0.134399 0)
(0.0856719 -0.146726 0)
(0.0830057 -0.15891 0)
(0.0802103 -0.170937 0)
(0.0773431 -0.182732 0)
(0.0744592 -0.194204 0)
(0.071603 -0.205236 0)
(0.0687995 -0.215684 0)
(0.0660483 -0.225376 0)
(0.0633237 -0.234138 0)
(0.0605823 -0.241812 0)
(0.0577741 -0.248281 0)
(0.0548552 -0.253488 0)
(0.0517969 -0.257449 0)
(0.0485901 -0.260228 0)
(0.0452452 -0.261879 0)
(0.0417802 -0.262508 0)
(0.038219 -0.262251 0)
(0.0345885 -0.261254 0)
(0.0309146 -0.259663 0)
(0.0272209 -0.257617 0)
(0.0235271 -0.255241 0)
(0.0198487 -0.252646 0)
(0.0161972 -0.249929 0)
(0.0125801 -0.247172 0)
(0.00900168 -0.244444 0)
(0.00546322 -0.241803 0)
(0.00196395 -0.239295 0)
(-0.00149765 -0.236959 0)
(-0.00492366 -0.234832 0)
(-0.00831815 -0.232945 0)
(-0.0116872 -0.231325 0)
(-0.0150376 -0.229994 0)
(-0.0183768 -0.228971 0)
(-0.0217123 -0.228269 0)
(-0.0250521 -0.227902 0)
(-0.0284041 -0.22788 0)
(-0.0317763 -0.228212 0)
(-0.0351765 -0.228907 0)
(-0.0386126 -0.229972 0)
(-0.042092 -0.231414 0)
(-0.0456221 -0.233241 0)
(-0.0492097 -0.23546 0)
(-0.0528613 -0.238079 0)
(-0.0565828 -0.241105 0)
(-0.0603796 -0.244548 0)
(-0.0642562 -0.248416 0)
(-0.0682159 -0.252718 0)
(-0.0722612 -0.257463 0)
(-0.0763929 -0.262661 0)
(-0.0806098 -0.268318 0)
(-0.0849093 -0.274443 0)
(-0.0892861 -0.281037 0)
(-0.0937317 -0.288102 0)
(-0.0982308 -0.295627 0)
(-0.102775 -0.303593 0)
(-0.107401 -0.311963 0)
(-0.112193 -0.320713 0)
(-0.116959 -0.329835 0)
(-0.120035 -0.33926 0)
(-0.122139 -0.34881 0)
(-0.122532 -0.357276 0)
(-0.120316 -0.364794 0)
(-0.11768 -0.370885 0)
(-0.115008 -0.375022 0)
(-0.11215 -0.376738 0)
(-0.108987 -0.375576 0)
(-0.105496 -0.371082 0)
(-0.101668 -0.362842 0)
(-0.0974913 -0.35054 0)
(-0.0929455 -0.334038 0)
(-0.0880631 -0.313491 0)
(-0.0830249 -0.289516 0)
(-0.0782006 -0.263357 0)
(-0.0741204 -0.236968 0)
(-0.0714091 -0.212096 0)
(-0.0705601 -0.190012 0)
(-0.0716664 -0.171169 0)
(-0.0743565 -0.155043 0)
(-0.0779969 -0.140631 0)
(-0.0819625 -0.127035 0)
(-0.0858036 -0.113723 0)
(-0.0892649 -0.10049 0)
(-0.0922286 -0.0872824 0)
(-0.0946644 -0.0739368 0)
(-0.096593 -0.0604462 0)
(-0.0980527 -0.0468137 0)
(-0.0990784 -0.0330621 0)
(-0.0997023 -0.0193695 0)
(-0.0999965 -0.00619748 0)
(0.0999818 -0.00615744 0)
(0.0997519 -0.018627 0)
(0.0992972 -0.0311383 0)
(0.0985993 -0.0435843 0)
(0.0976592 -0.0559479 0)
(0.096475 -0.0682497 0)
(0.095043 -0.0805053 0)
(0.0933622 -0.0927128 0)
(0.0914377 -0.104857 0)
(0.0892832 -0.116917 0)
(0.0869228 -0.128873 0)
(0.0843917 -0.140701 0)
(0.0817334 -0.152375 0)
(0.0789962 -0.163858 0)
(0.0762328 -0.175101 0)
(0.0734963 -0.186027 0)
(0.0708286 -0.196536 0)
(0.0682502 -0.206491 0)
(0.0657537 -0.215737 0)
(0.0633049 -0.224108 0)
(0.0608508 -0.231457 0)
(0.0583322 -0.237672 0)
(0.0556946 -0.242692 0)
(0.0528959 -0.246515 0)
(0.0499094 -0.249191 0)
(0.046728 -0.250812 0)
(0.0433641 -0.251495 0)
(0.039842 -0.251371 0)
(0.0361915 -0.250577 0)
(0.0324438 -0.249245 0)
(0.028628 -0.247496 0)
(0.0247699 -0.245445 0)
(0.0208911 -0.24319 0)
(0.0170082 -0.240816 0)
(0.0131337 -0.238399 0)
(0.00927616 -0.236001 0)
(0.00544044 -0.233673 0)
(0.00162893 -0.231461 0)
(-0.00215722 -0.229399 0)
(-0.00591793 -0.227523 0)
(-0.0096558 -0.225863 0)
(-0.0133758 -0.224445 0)
(-0.0170839 -0.223292 0)
(-0.0207872 -0.222421 0)
(-0.024493 -0.221847 0)
(-0.0282091 -0.221583 0)
(-0.0319437 -0.221639 0)
(-0.0357051 -0.222026 0)
(-0.0395017 -0.222752 0)
(-0.0433418 -0.223824 0)
(-0.0472337 -0.225251 0)
(-0.0511855 -0.227039 0)
(-0.0552053 -0.229197 0)
(-0.0593008 -0.231731 0)
(-0.0634795 -0.234649 0)
(-0.0677485 -0.23796 0)
(-0.0721146 -0.24167 0)
(-0.0765842 -0.245789 0)
(-0.0811627 -0.250323 0)
(-0.0858554 -0.255277 0)
(-0.0906659 -0.260655 0)
(-0.0955974 -0.266457 0)
(-0.10065 -0.272676 0)
(-0.105819 -0.279299 0)
(-0.111081 -0.286299 0)
(-0.116429 -0.293628 0)
(-0.121926 -0.301224 0)
(-0.127611 -0.308981 0)
(-0.132947 -0.316764 0)
(-0.136869 -0.324486 0)
(-0.137973 -0.333115 0)
(-0.13583 -0.340333 0)
(-0.132678 -0.3463 0)
(-0.129324 -0.350786 0)
(-0.125774 -0.353346 0)
(-0.121915 -0.353521 0)
(-0.117685 -0.350887 0)
(-0.113047 -0.345058 0)
(-0.107983 -0.335725 0)
(-0.10247 -0.322716 0)
(-0.0965005 -0.306066 0)
(-0.0901756 -0.286114 0)
(-0.0837955 -0.263604 0)
(-0.0778743 -0.239707 0)
(-0.0730972 -0.215931 0)
(-0.0701319 -0.193823 0)
(-0.0693264 -0.174452 0)
(-0.0705416 -0.157976 0)
(-0.073257 -0.143732 0)
(-0.0768268 -0.130782 0)
(-0.0806903 -0.118373 0)
(-0.0844658 -0.106084 0)
(-0.0879417 -0.0937524 0)
(-0.09102 -0.0813531 0)
(-0.0936537 -0.0688887 0)
(-0.0958212 -0.056335 0)
(-0.0975234 -0.0436531 0)
(-0.098768 -0.0308385 0)
(-0.0995662 -0.0180595 0)
(-0.0999699 -0.00577136 0)
(0.0999867 -0.00584994 0)
(0.0997537 -0.0176983 0)
(0.0992839 -0.0295759 0)
(0.0985581 -0.0413716 0)
(0.0975816 -0.0530631 0)
(0.0963576 -0.0646662 0)
(0.0948873 -0.0761928 0)
(0.0931743 -0.0876392 0)
(0.0912273 -0.0989904 0)
(0.0890618 -0.110227 0)
(0.0867019 -0.121333 0)
(0.0841813 -0.132294 0)
(0.0815439 -0.143095 0)
(0.078842 -0.153717 0)
(0.0761323 -0.164123 0)
(0.0734679 -0.174257 0)
(0.0708881 -0.184034 0)
(0.0684091 -0.193341 0)
(0.0660184 -0.202036 0)
(0.0636762 -0.209969 0)
(0.0613236 -0.217002 0)
(0.0588958 -0.223023 0)
(0.0563342 -0.227971 0)
(0.0535956 -0.231833 0)
(0.0506552 -0.234645 0)
(0.0475065 -0.236483 0)
(0.0441581 -0.237448 0)
(0.0406292 -0.237658 0)
(0.0369448 -0.237235 0)
(0.0331326 -0.236302 0)
(0.0292197 -0.234971 0)
(0.0252309 -0.233347 0)
(0.0211881 -0.231521 0)
(0.0171091 -0.229571 0)
(0.0130079 -0.227567 0)
(0.00889502 -0.225564 0)
(0.00477761 -0.223613 0)
(0.000660678 -0.221753 0)
(-0.00345207 -0.220019 0)
(-0.00755868 -0.218444 0)
(-0.01166 -0.217057 0)
(-0.0157596 -0.215885 0)
(-0.0198621 -0.214947 0)
(-0.0239733 -0.214262 0)
(-0.0280998 -0.213845 0)
(-0.032249 -0.213708 0)
(-0.0364283 -0.213863 0)
(-0.040646 -0.214318 0)
(-0.0449103 -0.215083 0)
(-0.0492296 -0.216167 0)
(-0.0536124 -0.217575 0)
(-0.0580671 -0.219316 0)
(-0.062602 -0.221396 0)
(-0.0672254 -0.223823 0)
(-0.0719452 -0.226603 0)
(-0.076769 -0.229743 0)
(-0.0817036 -0.23325 0)
(-0.0867554 -0.237128 0)
(-0.0919295 -0.241381 0)
(-0.097229 -0.246011 0)
(-0.102655 -0.251017 0)
(-0.108206 -0.256392 0)
(-0.113872 -0.262122 0)
(-0.119632 -0.268185 0)
(-0.125451 -0.27454 0)
(-0.131297 -0.281138 0)
(-0.137101 -0.287929 0)
(-0.142788 -0.294854 0)
(-0.148222 -0.301721 0)
(-0.153822 -0.307817 0)
(-0.155438 -0.314388 0)
(-0.151261 -0.319772 0)
(-0.146375 -0.323998 0)
(-0.14157 -0.326747 0)
(-0.136606 -0.327597 0)
(-0.131307 -0.32614 0)
(-0.125624 -0.321997 0)
(-0.119545 -0.314845 0)
(-0.113062 -0.304449 0)
(-0.106179 -0.290725 0)
(-0.0989508 -0.273808 0)
(-0.0915921 -0.254148 0)
(-0.0845228 -0.232591 0)
(-0.0783279 -0.21038 0)
(-0.0736505 -0.189004 0)
(-0.0709957 -0.169793 0)
(-0.0705094 -0.153421 0)
(-0.0719072 -0.139672 0)
(-0.0746288 -0.127739 0)
(-0.0780683 -0.116747 0)
(-0.0817315 -0.106073 0)
(-0.0852921 -0.0953964 0)
(-0.0885671 -0.0845994 0)
(-0.0914658 -0.0736605 0)
(-0.0939498 -0.0625727 0)
(-0.0960073 -0.0513143 0)
(-0.0976361 -0.0398537 0)
(-0.0988334 -0.028196 0)
(-0.0995986 -0.0165169 0)
(-0.0999789 -0.00527207 0)
(0.0999836 -0.00554116 0)
(0.0997342 -0.0167639 0)
(0.0992364 -0.0280105 0)
(0.0984722 -0.0391717 0)
(0.097449 -0.0502246 0)
(0.0961727 -0.0611839 0)
(0.0946471 -0.0720616 0)
(0.0928791 -0.0828554 0)
(0.0908807 -0.0935522 0)
(0.088671 -0.104136 0)
(0.0862777 -0.114592 0)
(0.0837384 -0.124909 0)
(0.0811 -0.135073 0)
(0.0784172 -0.145067 0)
(0.0757477 -0.154858 0)
(0.0731437 -0.164394 0)
(0.0706426 -0.173599 0)
(0.0682572 -0.182365 0)
(0.0659703 -0.190565 0)
(0.0637367 -0.198059 0)
(0.0614917 -0.20472 0)
(0.0591644 -0.210445 0)
(0.0566904 -0.215178 0)
(0.0540216 -0.218906 0)
(0.0511297 -0.221665 0)
(0.0480056 -0.223522 0)
(0.0446563 -0.224573 0)
(0.0410993 -0.224928 0)
(0.0373591 -0.224699 0)
(0.0334623 -0.223999 0)
(0.0294358 -0.222932 0)
(0.0253043 -0.221594 0)
(0.0210896 -0.220067 0)
(0.0168101 -0.218424 0)
(0.0124805 -0.216727 0)
(0.00811225 -0.215027 0)
(0.0037137 -0.213368 0)
(-0.000708201 -0.211787 0)
(-0.00514776 -0.210316 0)
(-0.00960183 -0.208986 0)
(-0.0140704 -0.207824 0)
(-0.0185556 -0.206855 0)
(-0.023061 -0.206097 0)
(-0.0275914 -0.205567 0)
(-0.0321525 -0.205279 0)
(-0.0367507 -0.205245 0)
(-0.0413932 -0.205475 0)
(-0.0460874 -0.205979 0)
(-0.0508412 -0.206765 0)
(-0.0556627 -0.207841 0)
(-0.06056 -0.209213 0)
(-0.0655413 -0.210888 0)
(-0.0706148 -0.212873 0)
(-0.0757885 -0.215173 0)
(-0.0810699 -0.217796 0)
(-0.0864664 -0.220745 0)
(-0.0919843 -0.224026 0)
(-0.0976294 -0.227644 0)
(-0.103406 -0.231599 0)
(-0.109316 -0.235891 0)
(-0.115359 -0.240517 0)
(-0.121534 -0.245467 0)
(-0.127829 -0.250724 0)
(-0.134219 -0.256257 0)
(-0.140684 -0.262017 0)
(-0.147228 -0.267943 0)
(-0.153872 -0.273983 0)
(-0.160471 -0.280106 0)
(-0.165601 -0.286207 0)
(-0.168574 -0.292405 0)
(-0.167571 -0.296716 0)
(-0.162903 -0.300058 0)
(-0.157392 -0.302509 0)
(-0.151659 -0.303625 0)
(-0.145577 -0.302974 0)
(-0.139063 -0.30019 0)
(-0.132116 -0.294949 0)
(-0.124758 -0.286987 0)
(-0.117017 -0.276139 0)
(-0.108928 -0.262395 0)
(-0.100624 -0.245976 0)
(-0.0924143 -0.227415 0)
(-0.0847974 -0.207599 0)
(-0.0783889 -0.187718 0)
(-0.0737911 -0.169057 0)
(-0.0713857 -0.152595 0)
(-0.0711549 -0.138637 0)
(-0.0726943 -0.126774 0)
(-0.0754119 -0.116252 0)
(-0.0787385 -0.106372 0)
(-0.082241 -0.0966761 0)
(-0.085643 -0.0869422 0)
(-0.0887871 -0.0770984 0)
(-0.0915898 -0.0671357 0)
(-0.0940092 -0.0570467 0)
(-0.096027 -0.0468021 0)
(-0.0976348 -0.0363616 0)
(-0.0988243 -0.0257239 0)
(-0.0995905 -0.0150565 0)
(-0.0999755 -0.00479706 0)
(0.0999841 -0.00521467 0)
(0.0997294 -0.0157781 0)
(0.0992199 -0.0263607 0)
(0.0984376 -0.036855 0)
(0.097392 -0.0472372 0)
(0.0960908 -0.05752 0)
(0.0945399 -0.0677141 0)
(0.092748 -0.077817 0)
(0.0907289 -0.0878164 0)
(0.0885032 -0.0976977 0)
(0.0860998 -0.107448 0)
(0.0835572 -0.117059 0)
(0.0809229 -0.126521 0)
(0.0782519 -0.135822 0)
(0.0756016 -0.144938 0)
(0.073024 -0.153827 0)
(0.0705554 -0.162422 0)
(0.0682069 -0.170629 0)
(0.0659596 -0.178332 0)
(0.063766 -0.185402 0)
(0.0615587 -0.191717 0)
(0.0592641 -0.19718 0)
(0.0568152 -0.201734 0)
(0.0541613 -0.205364 0)
(0.0512715 -0.208099 0)
(0.0481347 -0.209999 0)
(0.0447554 -0.211151 0)
(0.0411494 -0.211655 0)
(0.0373393 -0.211616 0)
(0.0333504 -0.211138 0)
(0.0292083 -0.210317 0)
(0.0249369 -0.209241 0)
(0.0205575 -0.207986 0)
(0.0160882 -0.20662 0)
(0.0115438 -0.205199 0)
(0.00693607 -0.203771 0)
(0.00227394 -0.202374 0)
(-0.00243392 -0.201042 0)
(-0.00718023 -0.199806 0)
(-0.0119615 -0.198696 0)
(-0.0167771 -0.197736 0)
(-0.0216283 -0.196947 0)
(-0.0265176 -0.196349 0)
(-0.0314488 -0.195954 0)
(-0.0364268 -0.195778 0)
(-0.0414573 -0.19583 0)
(-0.0465464 -0.19612 0)
(-0.0517012 -0.196657 0)
(-0.0569287 -0.197448 0)
(-0.0622364 -0.1985 0)
(-0.067632 -0.19982 0)
(-0.0731231 -0.201412 0)
(-0.0787173 -0.203283 0)
(-0.0844219 -0.205438 0)
(-0.0902441 -0.207881 0)
(-0.0961901 -0.210616 0)
(-0.102265 -0.213647 0)
(-0.108474 -0.216974 0)
(-0.114818 -0.220597 0)
(-0.121295 -0.224513 0)
(-0.127901 -0.228714 0)
(-0.134623 -0.233188 0)
(-0.14143 -0.237909 0)
(-0.148275 -0.242842 0)
(-0.155116 -0.247929 0)
(-0.161894 -0.253109 0)
(-0.168531 -0.258286 0)
(-0.174991 -0.263296 0)
(-0.181099 -0.267811 0)
(-0.182764 -0.272856 0)
(-0.1782 -0.276273 0)
(-0.172191 -0.278638 0)
(-0.165923 -0.279979 0)
(-0.159307 -0.27997 0)
(-0.152224 -0.278264 0)
(-0.144667 -0.274557 0)
(-0.136665 -0.268578 0)
(-0.12826 -0.26012 0)
(-0.119504 -0.249078 0)
(-0.11048 -0.235503 0)
(-0.101403 -0.219683 0)
(-0.0926758 -0.2022 0)
(-0.0848539 -0.183956 0)
(-0.0785592 -0.16608 0)
(-0.0743193 -0.149691 0)
(-0.0723617 -0.135512 0)
(-0.0725001 -0.1236 0)
(-0.0742309 -0.113437 0)
(-0.0769539 -0.104311 0)
(-0.0801478 -0.0956293 0)
(-0.0834428 -0.0870305 0)
(-0.0866134 -0.0783525 0)
(-0.0895341 -0.0695506 0)
(-0.0921382 -0.0606241 0)
(-0.0943912 -0.0515662 0)
(-0.0962762 -0.0423464 0)
(-0.0977831 -0.0329231 0)
(-0.0989003 -0.0232948 0)
(-0.0996194 -0.0136242 0)
(-0.0999788 -0.00433194 0)
(0.0999834 -0.00488289 0)
(0.0997223 -0.0147757 0)
(0.0992008 -0.0246849 0)
(0.0984012 -0.0345067 0)
(0.0973342 -0.0442176 0)
(0.0960086 -0.0538294 0)
(0.0944317 -0.0633522 0)
(0.0926133 -0.0727841 0)
(0.0905687 -0.0821139 0)
(0.08832 -0.0913283 0)
(0.0858978 -0.100417 0)
(0.0833418 -0.109371 0)
(0.080701 -0.118185 0)
(0.0780315 -0.126849 0)
(0.0753912 -0.135342 0)
(0.0728318 -0.143628 0)
(0.0703884 -0.151647 0)
(0.0680703 -0.159314 0)
(0.0658558 -0.166521 0)
(0.0636939 -0.173151 0)
(0.0615141 -0.17909 0)
(0.0592395 -0.184249 0)
(0.0568006 -0.188573 0)
(0.0541442 -0.192048 0)
(0.0512379 -0.194697 0)
(0.048069 -0.196578 0)
(0.044641 -0.197767 0)
(0.0409688 -0.198358 0)
(0.0370739 -0.198447 0)
(0.0329812 -0.19813 0)
(0.0287153 -0.197494 0)
(0.0242998 -0.196622 0)
(0.0197555 -0.195583 0)
(0.0151002 -0.194439 0)
(0.0103486 -0.193242 0)
(0.00551251 -0.192034 0)
(0.000601994 -0.190851 0)
(-0.0043733 -0.189725 0)
(-0.0094058 -0.188684 0)
(-0.0144917 -0.187755 0)
(-0.0196299 -0.186961 0)
(-0.0248208 -0.186322 0)
(-0.0300664 -0.185853 0)
(-0.0353697 -0.185567 0)
(-0.0407347 -0.185476 0)
(-0.0461663 -0.185591 0)
(-0.05167 -0.18592 0)
(-0.0572518 -0.186469 0)
(-0.062918 -0.187247 0)
(-0.0686753 -0.188258 0)
(-0.0745302 -0.189508 0)
(-0.0804894 -0.191002 0)
(-0.0865593 -0.192743 0)
(-0.0927459 -0.194737 0)
(-0.0990546 -0.196986 0)
(-0.10549 -0.199493 0)
(-0.112055 -0.202258 0)
(-0.11875 -0.205283 0)
(-0.125574 -0.208567 0)
(-0.13252 -0.212103 0)
(-0.13958 -0.215888 0)
(-0.146728 -0.219907 0)
(-0.153927 -0.224144 0)
(-0.161113 -0.22857 0)
(-0.168241 -0.233163 0)
(-0.175213 -0.237904 0)
(-0.181843 -0.242789 0)
(-0.187809 -0.247617 0)
(-0.192908 -0.251066 0)
(-0.193068 -0.253988 0)
(-0.187279 -0.256076 0)
(-0.180273 -0.257415 0)
(-0.173088 -0.257783 0)
(-0.165531 -0.256879 0)
(-0.157482 -0.254407 0)
(-0.148958 -0.250092 0)
(-0.140016 -0.243703 0)
(-0.130713 -0.235075 0)
(-0.121118 -0.224153 0)
(-0.111362 -0.211044 0)
(-0.101735 -0.196089 0)
(-0.0927039 -0.179908 0)
(-0.0848554 -0.163392 0)
(-0.0787864 -0.147575 0)
(-0.074927 -0.133372 0)
(-0.0733573 -0.121239 0)
(-0.0737648 -0.111031 0)
(-0.0755968 -0.102197 0)
(-0.0782744 -0.0941177 0)
(-0.0813279 -0.0863285 0)
(-0.0844385 -0.0785655 0)
(-0.0874163 -0.0707194 0)
(-0.0901553 -0.0627672 0)
(-0.092598 -0.0547131 0)
(-0.0947141 -0.0465479 0)
(-0.0964872 -0.0382364 0)
(-0.0979069 -0.0297329 0)
(-0.098961 -0.0210321 0)
(-0.0996401 -0.0122879 0)
(-0.0999795 -0.00389846 0)
(0.0999833 -0.00454398 0)
(0.0997182 -0.0137519 0)
(0.0991884 -0.0229739 0)
(0.0983765 -0.0321106 0)
(0.0972939 -0.0411391 0)
(0.0959503 -0.0500698 0)
(0.094354 -0.0589124 0)
(0.0925157 -0.067665 0)
(0.0904517 -0.0763172 0)
(0.0881849 -0.0848569 0)
(0.0857469 -0.0932745 0)
(0.0831782 -0.101564 0)
(0.0805286 -0.109721 0)
(0.0778545 -0.117738 0)
(0.0752142 -0.1256 0)
(0.0726589 -0.133276 0)
(0.0702232 -0.140713 0)
(0.0679151 -0.147835 0)
(0.0657108 -0.154544 0)
(0.0635573 -0.160732 0)
(0.0613816 -0.166294 0)
(0.0591046 -0.171145 0)
(0.0566545 -0.175233 0)
(0.0539767 -0.178542 0)
(0.051037 -0.181094 0)
(0.0478217 -0.182937 0)
(0.0443333 -0.184144 0)
(0.0405858 -0.184798 0)
(0.0366 -0.184988 0)
(0.0324001 -0.184802 0)
(0.0280103 -0.184321 0)
(0.0234536 -0.183619 0)
(0.0187505 -0.182762 0)
(0.0139185 -0.181806 0)
(0.0089722 -0.180797 0)
(0.00392343 -0.179776 0)
(-0.00121671 -0.178774 0)
(-0.00643757 -0.177821 0)
(-0.0117317 -0.176944 0)
(-0.0170953 -0.176168 0)
(-0.0225269 -0.175512 0)
(-0.0280265 -0.174995 0)
(-0.0335952 -0.17463 0)
(-0.0392355 -0.17443 0)
(-0.0449507 -0.174404 0)
(-0.0507448 -0.174561 0)
(-0.0566226 -0.17491 0)
(-0.0625892 -0.175455 0)
(-0.06865 -0.176203 0)
(-0.0748105 -0.177159 0)
(-0.0810764 -0.178327 0)
(-0.0874531 -0.179711 0)
(-0.0939457 -0.181315 0)
(-0.100559 -0.18314 0)
(-0.107297 -0.18519 0)
(-0.114162 -0.187465 0)
(-0.121157 -0.189965 0)
(-0.128281 -0.19269 0)
(-0.135531 -0.195635 0)
(-0.142903 -0.198794 0)
(-0.150384 -0.202156 0)
(-0.157958 -0.205704 0)
(-0.165579 -0.209405 0)
(-0.173226 -0.213226 0)
(-0.180915 -0.217119 0)
(-0.188762 -0.221033 0)
(-0.196436 -0.224911 0)
(-0.200458 -0.228747 0)
(-0.200809 -0.232666 0)
(-0.197812 -0.234692 0)
(-0.191935 -0.235898 0)
(-0.185012 -0.236473 0)
(-0.177532 -0.236136 0)
(-0.169462 -0.234592 0)
(-0.160806 -0.231579 0)
(-0.151631 -0.226869 0)
(-0.142022 -0.220268 0)
(-0.132064 -0.211654 0)
(-0.121854 -0.201011 0)
(-0.111587 -0.188491 0)
(-0.101626 -0.174475 0)
(-0.0924895 -0.159598 0)
(-0.0847809 -0.144715 0)
(-0.079056 -0.130754 0)
(-0.0756383 -0.118441 0)
(-0.0744698 -0.108026 0)
(-0.075136 -0.0992463 0)
(-0.0770567 -0.0915573 0)
(-0.0796819 -0.0844274 0)
(-0.0825921 -0.0774852 0)
(-0.0855154 -0.0705323 0)
(-0.0882946 -0.0634937 0)
(-0.090843 -0.0563606 0)
(-0.0931135 -0.0491401 0)
(-0.0950808 -0.0418217 0)
(-0.0967306 -0.0343681 0)
(-0.0980526 -0.0267315 0)
(-0.0990346 -0.0189047 0)
(-0.0996666 -0.0110335 0)
(-0.0999814 -0.00349255 0)
(0.099983 -0.00420049 0)
(0.0997141 -0.0127139 0)
(0.0991765 -0.0212395 0)
(0.0983531 -0.0296835 0)
(0.0972557 -0.0380237 0)
(0.095895 -0.0462698 0)
(0.0942798 -0.0544307 0)
(0.0924215 -0.0625047 0)
(0.0903371 -0.0704826 0)
(0.0880504 -0.0783531 0)
(0.0855938 -0.0861079 0)
(0.0830087 -0.093742 0)
(0.0803458 -0.101253 0)
(0.0776622 -0.108634 0)
(0.0750163 -0.115875 0)
(0.0724594 -0.122948 0)
(0.0700253 -0.129807 0)
(0.0677205 -0.136383 0)
(0.0655192 -0.142589 0)
(0.0633662 -0.148324 0)
(0.0611859 -0.153492 0)
(0.058897 -0.158015 0)
(0.0564261 -0.161844 0)
(0.0537169 -0.164962 0)
(0.0507344 -0.167386 0)
(0.0474642 -0.169163 0)
(0.043908 -0.170356 0)
(0.0400795 -0.171041 0)
(0.0359991 -0.171299 0)
(0.0316906 -0.171211 0)
(0.027178 -0.170851 0)
(0.0224839 -0.170287 0)
(0.0176287 -0.169579 0)
(0.0126296 -0.168777 0)
(0.00750109 -0.167925 0)
(0.00225536 -0.167059 0)
(-0.00309554 -0.166207 0)
(-0.00854028 -0.165398 0)
(-0.0140717 -0.164657 0)
(-0.0196861 -0.164006 0)
(-0.0253819 -0.163464 0)
(-0.0311584 -0.163045 0)
(-0.0370164 -0.162762 0)
(-0.0429576 -0.162625 0)
(-0.0489848 -0.162644 0)
(-0.0551012 -0.162826 0)
(-0.0613108 -0.163178 0)
(-0.0676179 -0.163705 0)
(-0.0740267 -0.164411 0)
(-0.0805418 -0.1653 0)
(-0.0871675 -0.166376 0)
(-0.0939079 -0.167643 0)
(-0.100767 -0.169101 0)
(-0.107746 -0.170752 0)
(-0.114849 -0.172598 0)
(-0.122075 -0.174638 0)
(-0.129422 -0.176871 0)
(-0.136885 -0.179294 0)
(-0.144455 -0.181899 0)
(-0.152115 -0.184679 0)
(-0.159842 -0.187619 0)
(-0.167588 -0.190697 0)
(-0.17529 -0.193879 0)
(-0.182871 -0.197117 0)
(-0.190245 -0.20035 0)
(-0.197329 -0.20345 0)
(-0.204192 -0.206254 0)
(-0.21009 -0.208659 0)
(-0.210674 -0.211614 0)
(-0.204687 -0.213671 0)
(-0.197282 -0.214841 0)
(-0.189537 -0.215182 0)
(-0.181325 -0.214545 0)
(-0.17254 -0.212713 0)
(-0.163213 -0.209479 0)
(-0.153415 -0.204656 0)
(-0.143224 -0.198096 0)
(-0.132726 -0.189716 0)
(-0.122041 -0.179543 0)
(-0.111417 -0.167771 0)
(-0.101274 -0.154808 0)
(-0.0921678 -0.141289 0)
(-0.0846966 -0.128018 0)
(-0.0793597 -0.115802 0)
(-0.0763695 -0.105186 0)
(-0.0755488 -0.0962534 0)
(-0.0764133 -0.0886725 0)
(-0.07838 -0.08194 0)
(-0.080936 -0.0756133 0)
(-0.0837083 -0.069403 0)
(-0.0864631 -0.063163 0)
(-0.089068 -0.0568454 0)
(-0.0914503 -0.0504506 0)
(-0.0935706 -0.0439869 0)
(-0.0954071 -0.0374423 0)
(-0.0969476 -0.0307772 0)
(-0.0981824 -0.0239416 0)
(-0.0990997 -0.0169264 0)
(-0.0996896 -0.0098682 0)
(-0.0999828 -0.00311643 0)
(0.0999829 -0.00385235 0)
(0.0997105 -0.0116615 0)
(0.0991661 -0.0194813 0)
(0.0983323 -0.027224 0)
(0.0972217 -0.0348685 0)
(0.0958454 -0.0424234 0)
(0.0942127 -0.049897 0)
(0.0923356 -0.057288 0)
(0.0902316 -0.0645877 0)
(0.0879253 -0.0717861 0)
(0.0854497 -0.0788757 0)
(0.0828471 -0.0858526 0)
(0.0801686 -0.092715 0)
(0.077472 -0.0994596 0)
(0.0748161 -0.106077 0)
(0.0722521 -0.112544 0)
(0.0698129 -0.118822 0)
(0.0675039 -0.124848 0)
(0.0652977 -0.130544 0)
(0.0631367 -0.135819 0)
(0.0609435 -0.140583 0)
(0.0586348 -0.144766 0)
(0.0561356 -0.14832 0)
(0.0533885 -0.15123 0)
(0.0503578 -0.15351 0)
(0.0470282 -0.1552 0)
(0.0434014 -0.156358 0)
(0.0394906 -0.157052 0)
(0.0353162 -0.157355 0)
(0.0309017 -0.157341 0)
(0.0262708 -0.157077 0)
(0.0214462 -0.156626 0)
(0.0164479 -0.156041 0)
(0.0112933 -0.155369 0)
(0.00599666 -0.154648 0)
(0.000571055 -0.153912 0)
(-0.00497061 -0.153187 0)
(-0.0106171 -0.152499 0)
(-0.0163616 -0.151872 0)
(-0.0222005 -0.151325 0)
(-0.0281315 -0.150875 0)
(-0.0341538 -0.150534 0)
(-0.0402678 -0.150314 0)
(-0.0464745 -0.150225 0)
(-0.0527761 -0.150273 0)
(-0.0591753 -0.150466 0)
(-0.065675 -0.150808 0)
(-0.0722786 -0.151304 0)
(-0.0789894 -0.151959 0)
(-0.0858107 -0.152774 0)
(-0.0927455 -0.153754 0)
(-0.0997964 -0.154899 0)
(-0.106965 -0.156212 0)
(-0.114252 -0.157693 0)
(-0.121658 -0.159342 0)
(-0.12918 -0.16116 0)
(-0.136812 -0.163144 0)
(-0.144547 -0.165292 0)
(-0.152371 -0.167598 0)
(-0.160267 -0.170058 0)
(-0.168203 -0.172662 0)
(-0.176124 -0.175397 0)
(-0.18396 -0.178243 0)
(-0.19164 -0.181182 0)
(-0.199039 -0.184192 0)
(-0.205934 -0.187286 0)
(-0.211958 -0.190361 0)
(-0.216695 -0.192426 0)
(-0.216182 -0.193764 0)
(-0.209401 -0.194734 0)
(-0.201299 -0.19524 0)
(-0.192944 -0.195053 0)
(-0.184133 -0.193981 0)
(-0.174763 -0.191837 0)
(-0.164876 -0.188427 0)
(-0.154551 -0.183582 0)
(-0.143872 -0.177173 0)
(-0.132928 -0.169143 0)
(-0.121871 -0.159548 0)
(-0.111001 -0.148609 0)
(-0.100782 -0.136744 0)
(-0.0917919 -0.124571 0)
(-0.0846149 -0.112828 0)
(-0.0796823 -0.102197 0)
(-0.0770986 -0.0930659 0)
(-0.0765858 -0.0854025 0)
(-0.0776132 -0.0788485 0)
(-0.0796062 -0.0729547 0)
(-0.082089 -0.0673562 0)
(-0.0847309 -0.0618263 0)
(-0.087331 -0.0562578 0)
(-0.0897769 -0.0506204 0)
(-0.0920079 -0.0449208 0)
(-0.0939909 -0.0391676 0)
(-0.0957078 -0.0333474 0)
(-0.097148 -0.0274194 0)
(-0.0983028 -0.0213331 0)
(-0.0991604 -0.015078 0)
(-0.0997113 -0.00878121 0)
(-0.0999842 -0.00276664 0)
(0.0999827 -0.00350014 0)
(0.0997071 -0.0105964 0)
(0.0991561 -0.0177019 0)
(0.0983125 -0.0247357 0)
(0.0971891 -0.0316777 0)
(0.0957976 -0.0385359 0)
(0.0941478 -0.0453178 0)
(0.0922521 -0.0520222 0)
(0.0901285 -0.0586413 0)
(0.0878022 -0.0651662 0)
(0.0853068 -0.0715901 0)
(0.0826854 -0.0779099 0)
(0.0799897 -0.0841249 0)
(0.0772782 -0.0902331 0)
(0.0746098 -0.096227 0)
(0.0720356 -0.102088 0)
(0.0695882 -0.107782 0)
(0.0672715 -0.113254 0)
(0.0650565 -0.118433 0)
(0.0628837 -0.123237 0)
(0.0606737 -0.127587 0)
(0.0583415 -0.131415 0)
(0.0558106 -0.134679 0)
(0.0530228 -0.137363 0)
(0.0499416 -0.139479 0)
(0.0465516 -0.141062 0)
(0.0428542 -0.142164 0)
(0.0388626 -0.142846 0)
(0.034597 -0.143173 0)
(0.0300809 -0.143212 0)
(0.0253381 -0.143023 0)
(0.0203912 -0.142663 0)
(0.0152602 -0.142179 0)
(0.00996243 -0.141615 0)
(0.00451237 -0.141006 0)
(-0.00107616 -0.140379 0)
(-0.00678932 -0.139761 0)
(-0.0126162 -0.139176 0)
(-0.0185505 -0.138645 0)
(-0.0245883 -0.138184 0)
(-0.0307272 -0.137809 0)
(-0.0369659 -0.137531 0)
(-0.0433044 -0.13736 0)
(-0.0497434 -0.137304 0)
(-0.0562844 -0.137369 0)
(-0.0629294 -0.137561 0)
(-0.0696806 -0.137884 0)
(-0.0765406 -0.138343 0)
(-0.0835118 -0.138939 0)
(-0.0905963 -0.139677 0)
(-0.0977959 -0.140557 0)
(-0.105112 -0.141582 0)
(-0.112545 -0.142752 0)
(-0.120094 -0.144068 0)
(-0.127756 -0.14553 0)
(-0.135529 -0.147137 0)
(-0.143405 -0.148887 0)
(-0.151374 -0.150776 0)
(-0.159423 -0.1528 0)
(-0.167534 -0.154951 0)
(-0.175677 -0.157217 0)
(-0.1838 -0.159578 0)
(-0.191861 -0.162014 0)
(-0.199877 -0.164497 0)
(-0.20791 -0.167028 0)
(-0.215564 -0.169672 0)
(-0.219984 -0.172523 0)
(-0.220925 -0.174918 0)
(-0.217883 -0.175632 0)
(-0.211091 -0.175975 0)
(-0.203144 -0.175995 0)
(-0.194648 -0.175431 0)
(-0.18556 -0.174076 0)
(-0.175864 -0.171749 0)
(-0.165635 -0.168284 0)
(-0.154965 -0.16353 0)
(-0.14395 -0.157383 0)
(-0.132694 -0.149809 0)
(-0.121388 -0.140886 0)
(-0.110383 -0.13085 0)
(-0.100184 -0.120119 0)
(-0.0913788 -0.109276 0)
(-0.0845292 -0.0989814 0)
(-0.0799947 -0.0897955 0)
(-0.0777804 -0.0819766 0)
(-0.0775286 -0.0754117 0)
(-0.0786818 -0.0697467 0)
(-0.080683 -0.0645918 0)
(-0.0830929 -0.0596505 0)
(-0.0856171 -0.0547469 0)
(-0.0880814 -0.0498025 0)
(-0.0903895 -0.0448 0)
(-0.0924897 -0.0397495 0)
(-0.0943542 -0.0346593 0)
(-0.0959677 -0.0295151 0)
(-0.0973213 -0.0242754 0)
(-0.0984067 -0.0188899 0)
(-0.0992127 -0.0133475 0)
(-0.0997299 -0.00776524 0)
(-0.0999854 -0.00244075 0)
(0.0999825 -0.00314397 0)
(0.0997039 -0.00951902 0)
(0.0991468 -0.0159021 0)
(0.0982938 -0.0222192 0)
(0.0971583 -0.0284521 0)
(0.0957524 -0.0346076 0)
(0.0940861 -0.0406925 0)
(0.0921724 -0.0467057 0)
(0.0900297 -0.0526405 0)
(0.0876838 -0.0584886 0)
(0.0851687 -0.0642444 0)
(0.0825282 -0.0699053 0)
(0.0798148 -0.0754712 0)
(0.0770873 -0.0809413 0)
(0.074405 -0.0863102 0)
(0.071819 -0.0915626 0)
(0.0693612 -0.0966685 0)
(0.0670345 -0.101581 0)
(0.0648082 -0.106236 0)
(0.0626212 -0.110561 0)
(0.0603922 -0.114485 0)
(0.0580345 -0.117946 0)
(0.0554707 -0.120906 0)
(0.0526416 -0.12335 0)
(0.0495104 -0.125287 0)
(0.0460614 -0.126747 0)
(0.0422958 -0.127776 0)
(0.038227 -0.128428 0)
(0.0338753 -0.128762 0)
(0.0292641 -0.128836 0)
(0.0244175 -0.128705 0)
(0.019358 -0.128419 0)
(0.0141058 -0.128021 0)
(0.00867796 -0.127548 0)
(0.00308943 -0.127033 0)
(-0.00264505 -0.126501 0)
(-0.00851085 -0.125975 0)
(-0.0144975 -0.125478 0)
(-0.0205992 -0.125028 0)
(-0.0268119 -0.12464 0)
(-0.0331327 -0.124327 0)
(-0.0395603 -0.124099 0)
(-0.0460941 -0.123965 0)
(-0.0527345 -0.123931 0)
(-0.0594824 -0.124004 0)
(-0.0663393 -0.124186 0)
(-0.0733068 -0.124483 0)
(-0.0803864 -0.124898 0)
(-0.0875798 -0.125433 0)
(-0.094888 -0.126089 0)
(-0.102312 -0.12687 0)
(-0.109851 -0.127774 0)
(-0.117504 -0.128804 0)
(-0.125269 -0.129959 0)
(-0.133142 -0.131238 0)
(-0.141115 -0.132639 0)
(-0.14918 -0.134158 0)
(-0.157322 -0.135791 0)
(-0.165523 -0.137528 0)
(-0.17376 -0.139357 0)
(-0.181988 -0.141259 0)
(-0.190142 -0.143207 0)
(-0.198165 -0.145171 0)
(-0.206081 -0.147107 0)
(-0.213909 -0.14894 0)
(-0.221244 -0.150594 0)
(-0.22627 -0.152187 0)
(-0.226224 -0.154446 0)
(-0.220438 -0.155581 0)
(-0.212887 -0.156098 0)
(-0.204701 -0.156139 0)
(-0.195921 -0.155574 0)
(-0.186508 -0.154239 0)
(-0.1765 -0.151985 0)
(-0.165971 -0.148674 0)
(-0.155016 -0.144189 0)
(-0.143727 -0.138455 0)
(-0.132228 -0.131464 0)
(-0.120745 -0.123314 0)
(-0.109674 -0.11425 0)
(-0.0995477 -0.104678 0)
(-0.0909615 -0.0951369 0)
(-0.0844448 -0.086206 0)
(-0.0802852 -0.0783333 0)
(-0.0783992 -0.0716747 0)
(-0.0783673 -0.066072 0)
(-0.0796186 -0.0611937 0)
(-0.0816178 -0.0567087 0)
(-0.0839592 -0.0523778 0)
(-0.0863795 -0.0480647 0)
(-0.0887257 -0.0437123 0)
(-0.0909149 -0.0393121 0)
(-0.0929026 -0.0348761 0)
(-0.0946652 -0.0304117 0)
(-0.0961902 -0.0259041 0)
(-0.0974696 -0.0213123 0)