/*--------------------------------*- C++ -*----------------------------------*\
  =========                 |
  \\      /  F ield         | OpenFOAM: The Open Source CFD Toolbox
   \\    /   O peration     | Website:  https://openfoam.org
    \\  /    A nd           | Version:  8
     \\/     M anipulation  |
\*---------------------------------------------------------------------------*/
FoamFile
{
    version     2.0;
    format      ascii;
    class       volScalarField;
    location    "800/fluid";
    object      CH4;
}
// * * * * * * * * * * * * * * * * * * * * * * * * * * * * * * * * * * * * * //

dimensions      [0 0 0 0 0 0 0];

internalField   nonuniform List<scalar> 
4000
(
0.999997
0.999986
0.999968
0.999938
0.999888
0.999804
0.999667
0.999442
0.999078
0.998496
0.997578
0.996155
0.993992
0.990777
0.986122
0.979581
0.970687
0.95901
0.944225
0.926154
0.904792
0.880293
0.852937
0.82309
0.791164
0.757593
0.722805
0.68721
0.651193
0.615099
0.579241
0.543887
0.509267
0.475568
0.442943
0.41151
0.381361
0.352558
0.325138
0.299117
0.274494
0.251254
0.229367
0.208798
0.189502
0.171429
0.154527
0.138739
0.124012
0.110288
0.0975131
0.0856347
0.0746017
0.0643668
0.0548859
0.0461195
0.0380329
0.0306985
0.0240628
0.0178527
0.0122558
0.00728363
0.00327398
0.00229655
0.00159036
0.00108528
0.000728406
0.00047981
0.000309499
0.000195094
0.00012006
7.23516e-05
4.33779e-05
2.73168e-05
1.99005e-05
1.52697e-05
1.13205e-05
7.95505e-06
5.24411e-06
3.21909e-06
1.83677e-06
9.78977e-07
4.91955e-07
2.3686e-07
1.10692e-07
5.05141e-08
2.26081e-08
9.95617e-09
4.32516e-09
1.85731e-09
7.89743e-10
3.32981e-10
1.39367e-10
5.79364e-11
2.39102e-11
9.76719e-12
3.91293e-12
1.49672e-12
5.0053e-13
8.77827e-14
0.999997
0.999986
0.999968
0.999938
0.999887
0.999803
0.999665
0.999439
0.999074
0.99849
0.997573
0.996155
0.994005
0.99082
0.986224
0.979781
0.971035
0.959563
0.945033
0.927255
0.906203
0.882008
0.854929
0.825315
0.793568
0.760116
0.725389
0.6898
0.653738
0.61756
0.581583
0.546085
0.511301
0.477428
0.444622
0.413006
0.382676
0.353698
0.32611
0.299932
0.275162
0.251786
0.229776
0.209095
0.189698
0.171535
0.154552
0.138695
0.123908
0.110132
0.0973127
0.0853965
0.0743319
0.0640708
0.0545686
0.0457852
0.0376855
0.0303453
0.0237064
0.0174917
0.0118934
0.00692957
0.00322392
0.00225904
0.00156185
0.00106356
0.000711967
0.000467544
0.000300535
0.000188722
0.000115703
6.9547e-05
4.17776e-05
2.66871e-05
1.97137e-05
1.5032e-05
1.10244e-05
7.65674e-06
4.98958e-06
3.03362e-06
1.72142e-06
9.17434e-07
4.63492e-07
2.24836e-07
1.06009e-07
4.88209e-08
2.20384e-08
9.77799e-09
4.27358e-09
1.84359e-09
7.86374e-10
3.32173e-10
1.39131e-10
5.78302e-11
2.38476e-11
9.73008e-12
3.89293e-12
1.48725e-12
4.96882e-13
8.70851e-14
0.999997
0.999986
0.999968
0.999938
0.999887
0.999803
0.999664
0.999437
0.999071
0.998487
0.99757
0.996155
0.994015
0.990854
0.986301
0.979931
0.971298
0.959983
0.945659
0.928132
0.907363
0.883467
0.856687
0.827351
0.795849
0.762596
0.728015
0.692516
0.656489
0.620294
0.584253
0.548651
0.51373
0.479693
0.446704
0.414892
0.384359
0.355174
0.327383
0.301006
0.276046
0.25249
0.230311
0.209474
0.189935
0.171641
0.154542
0.138582
0.123702
0.109846
0.096958
0.0849826
0.073868
0.0635654
0.0540295
0.0452196
0.0371
0.0297549
0.0231135
0.0169036
0.0113241
0.00637052
0.00318389
0.00221888
0.00152596
0.00103363
0.0006882
0.00044943
0.000287249
0.000179361
0.000109415
6.56094e-05
3.96309e-05
2.59357e-05
1.94219e-05
1.46954e-05
1.0662e-05
7.32591e-06
4.72819e-06
2.85382e-06
1.61294e-06
8.59165e-07
4.35092e-07
2.11816e-07
1.00324e-07
4.6435e-08
2.107e-08
9.39532e-09
4.12543e-09
1.78699e-09
7.64869e-10
3.23976e-10
1.35973e-10
5.65926e-11
2.33541e-11
9.53088e-12
3.81278e-12
1.45621e-12
4.86311e-13
8.51695e-14
0.999997
0.999986
0.999968
0.999938
0.999887
0.999803
0.999664
0.999439
0.999074
0.998494
0.997584
0.996183
0.994066
0.990942
0.986446
0.98016
0.971642
0.960479
0.946339
0.929025
0.90849
0.884837
0.858295
0.829185
0.797884
0.7648
0.730349
0.694939
0.658958
0.622765
0.586685
0.551007
0.515977
0.481804
0.448657
0.41667
0.38595
0.356573
0.328586
0.302015
0.276866
0.253128
0.230776
0.209777
0.190084
0.171655
0.154432
0.138361
0.123382
0.10944
0.0964761
0.0844363
0.0732676
0.0629205
0.053349
0.0445119
0.0363731
0.0290352
0.0224086
0.0162067
0.0106257
0.00569094
0.00314452
0.00217717
0.00148717
0.00100044
0.000661523
0.000429044
0.000272366
0.00016898
0.000102542
6.13809e-05
3.73838e-05
2.51788e-05
1.90176e-05
1.4262e-05
1.02336e-05
6.95236e-06
4.4393e-06
2.6556e-06
1.49173e-06
7.92266e-07
4.01199e-07
1.95701e-07
9.29774e-08
4.3194e-08
1.96774e-08
8.81002e-09
3.88387e-09
1.68874e-09
7.25341e-10
3.08192e-10
1.29698e-10
5.41031e-11
2.23676e-11
9.14133e-12
3.66084e-12
1.39922e-12
4.67442e-13
8.1835e-14
0.999997
0.999986
0.999968
0.999938
0.999887
0.999804
0.999666
0.999441
0.999079
0.998503
0.997601
0.996212
0.994116
0.991024
0.986578
0.980363
0.971944
0.960908
0.946924
0.92979
0.909451
0.886002
0.859661
0.830739
0.799607
0.766665
0.732325
0.696991
0.661049
0.62486
0.588749
0.553008
0.517886
0.483597
0.450314
0.418175
0.387291
0.357742
0.32958
0.302834
0.277513
0.253609
0.231097
0.209943
0.190112
0.171553
0.154213
0.138035
0.122963
0.108938
0.0959043
0.083805
0.0725873
0.0622009
0.0525991
0.0437394
0.0355966
0.0282879
0.0216606
0.0154508
0.0098856
0.00501335
0.00310405
0.00212769
0.00144015
0.00096072
0.000630332
0.000405851
0.0002559
0.0001578
9.53234e-05
5.70366e-05
3.5149e-05
2.4473e-05
1.85178e-05
1.37599e-05
9.77604e-06
6.57813e-06
4.16436e-06
2.4745e-06
1.38428e-06
7.34104e-07
3.72004e-07
1.81834e-07
8.66236e-08
4.03614e-08
1.84414e-08
8.27987e-09
3.6596e-09
1.59492e-09
6.86442e-10
2.92178e-10
1.23141e-10
5.14307e-11
2.12835e-11
8.70481e-12
3.48795e-12
1.33364e-12
4.45583e-13
7.79654e-14
0.999997
0.999986
0.999968
0.999938
0.999888
0.999805
0.999668
0.999446
0.999087
0.998516
0.997622
0.996247
0.994174
0.991115
0.986717
0.980569
0.972238
0.961313
0.947462
0.930476
0.910297
0.887011
0.860829
0.832055
0.801054
0.768221
0.733964
0.698685
0.662769
0.626577
0.590434
0.554635
0.519432
0.485041
0.451638
0.419366
0.388339
0.35864
0.330325
0.303424
0.27795
0.253896
0.231241
0.20996
0.190007
0.171335
0.153892
0.137622
0.122468
0.108373
0.0952794
0.0831315
0.0718757
0.0614615
0.0518419
0.0429768
0.0348253
0.0275294
0.0208914
0.014693
0.00914833
0.0043357
0.00296987
0.0020185
0.00135726
0.000900486
0.000587982
0.000376922
0.000236696
0.000145447
8.7679e-05
5.25619e-05
3.28153e-05
2.3417e-05
1.77888e-05
1.31629e-05
9.29848e-06
6.21693e-06
3.91093e-06
2.31148e-06
1.28823e-06
6.81817e-07
3.45352e-07
1.68963e-07
8.06147e-08
3.76319e-08
1.72295e-08
7.75201e-09
3.43343e-09
1.49934e-09
6.46509e-10
2.75647e-10
1.16348e-10
4.86567e-11
2.01572e-11
8.25123e-12
3.30832e-12
1.2655e-12
4.22818e-13
7.40044e-14
0.999997
0.999986
0.999969
0.999939
0.999889
0.999807
0.999671
0.99945
0.999094
0.998529
0.997643
0.996281
0.994228
0.991199
0.986843
0.980755
0.972501
0.961671
0.947932
0.931071
0.911023
0.88787
0.861816
0.833159
0.802259
0.769508
0.735311
0.700068
0.664165
0.62796
0.591783
0.555928
0.520649
0.486166
0.452657
0.420269
0.389117
0.359289
0.330842
0.303811
0.278205
0.254023
0.23125
0.209855
0.189796
0.171026
0.153496
0.137148
0.121927
0.107774
0.094633
0.0824478
0.0711652
0.0607351
0.0511114
0.0422506
0.034111
0.0268942
0.0201149
0.0139812
0.00849454
0.0037501
0.00262107
0.00180543
0.00122477
0.000817276
0.000535589
0.000344092
0.00021638
0.000133145
8.04935e-05
4.86364e-05
3.10079e-05
2.26418e-05
1.72189e-05
1.26844e-05
8.91456e-06
5.9276e-06
3.70898e-06
2.18209e-06
1.2121e-06
6.40278e-07
3.24053e-07
1.58588e-07
7.57166e-08
3.53774e-08
1.62138e-08
7.30283e-09
3.23798e-09
1.41549e-09
6.10974e-10
2.60745e-10
1.10155e-10
4.61022e-11
1.91115e-11
7.82726e-12
3.13954e-12
1.20122e-12
4.01282e-13
7.02541e-14
0.999997
0.999986
0.999969
0.999939
0.99989
0.999808
0.999674
0.999454
0.999102
0.998541
0.997664
0.996314
0.994279
0.991277
0.98696
0.980923
0.972736
0.961987
0.948342
0.931584
0.911644
0.888597
0.862644
0.834077
0.803253
0.770562
0.736406
0.701185
0.665282
0.629059
0.592844
0.556934
0.521585
0.487018
0.453415
0.420923
0.389662
0.359719
0.331157
0.30401
0.278295
0.254012
0.231139
0.209649
0.189502
0.170653
0.153051
0.13664
0.121365
0.107167
0.0939887
0.0817748
0.0704712
0.0600271
0.050395
0.0415317
0.0334407
0.0262528
0.0195037
0.0134325
0.00804594
0.00346032
0.00241474
0.00166347
0.00112931
0.000754223
0.000494603
0.000317879
0.000199918
0.000123046
7.45149e-05
4.53384e-05
2.94788e-05
2.19923e-05
1.67888e-05
1.23503e-05
8.64836e-06
5.72326e-06
3.56239e-06
2.08556e-06
1.15385e-06
6.07745e-07
3.06999e-07
1.50124e-07
7.1653e-08
3.34787e-08
1.53471e-08
6.91517e-09
3.06766e-09
1.34182e-09
5.79537e-10
2.47487e-10
1.04618e-10
4.38103e-11
1.81705e-11
7.44488e-12
2.98704e-12
1.14307e-12
3.8178e-13
6.6855e-14
0.999997
0.999987
0.999969
0.99994
0.999891
0.99981
0.999676
0.999459
0.999109
0.998553
0.997682
0.996344
0.994325
0.991347
0.987064
0.981071
0.97294
0.962261
0.948694
0.932021
0.912169
0.889207
0.863333
0.834836
0.804069
0.77142
0.73729
0.702078
0.666168
0.629921
0.593667
0.557703
0.52229
0.487647
0.453961
0.42138
0.390026
0.359989
0.331329
0.304085
0.278278
0.253904
0.230947
0.209377
0.189159
0.170245
0.152585
0.136125
0.120807
0.106574
0.0933693
0.0811362
0.069821
0.059373
0.0497458
0.0408978
0.0328469
0.0256804
0.0189604
0.0129299
0.00759693
0.00329144
0.00229529
0.00158028
0.00107247
0.000716228
0.000469849
0.000302236
0.000190403
0.00011755
7.15889e-05
4.40261e-05
2.9195e-05
2.19714e-05
1.67158e-05
1.22396e-05
8.52305e-06
5.60367e-06
3.46613e-06
2.01791e-06
1.1113e-06
5.8327e-07
2.93871e-07
1.43493e-07
6.84192e-08
3.19467e-08
1.4639e-08
6.59489e-09
2.92552e-09
1.27978e-09
5.5286e-10
2.36159e-10
9.98609e-11
4.18313e-11
1.73548e-11
7.11238e-12
2.85412e-12
1.0923e-12
3.64731e-13
6.38839e-14
0.999997
0.999987
0.999969
0.99994
0.999891
0.999811
0.999678
0.999462
0.999115
0.998563
0.997699
0.99637
0.994366
0.991409
0.987154
0.9812
0.973117
0.962495
0.948993
0.93239
0.912609
0.889715
0.863903
0.835459
0.804733
0.772112
0.737997
0.702785
0.666862
0.630588
0.594295
0.558282
0.522808
0.488097
0.454336
0.421676
0.390238
0.360117
0.331377
0.304057
0.278173
0.253725
0.230699
0.209066
0.188789
0.169824
0.152119
0.135619
0.12027
0.106011
0.0927873
0.080541
0.0692186
0.0587689
0.0491449
0.0403043
0.0322806
0.0251349
0.0184308
0.0124125
0.00708474
0.00321657
0.00223878
0.0015387
0.00104256
0.000695181
0.000455358
0.000292496
0.000184056
0.00011361
6.93627e-05
4.30621e-05
2.91581e-05
2.21494e-05
1.68105e-05
1.22505e-05
8.48608e-06
5.54743e-06
3.40877e-06
1.97277e-06
1.08103e-06
5.65125e-07
2.83848e-07
1.38326e-07
6.58584e-08
3.07172e-08
1.40644e-08
6.3325e-09
2.80813e-09
1.2282e-09
5.30549e-10
2.26641e-10
9.58477e-11
4.01565e-11
1.66627e-11
6.82969e-12
2.74095e-12
1.04903e-12
3.50183e-13
6.13522e-14
0.999997
0.999987
0.999969
0.99994
0.999892
0.999812
0.99968
0.999466
0.999121
0.998572
0.997714
0.996393
0.994402
0.991462
0.987232
0.98131
0.973268
0.962693
0.949245
0.932699
0.912974
0.890135
0.86437
0.835965
0.805269
0.772667
0.738558
0.703341
0.667401
0.6311
0.594769
0.558709
0.523181
0.488411
0.454586
0.421859
0.390352
0.360161
0.331352
0.303963
0.278014
0.253505
0.230422
0.208738
0.188415
0.169409
0.151668
0.13514
0.119766
0.105489
0.0922521
0.0799976
0.0686715
0.0582226
0.048603
0.0397709
0.0317668
0.0246397
0.0179481
0.0119462
0.00663737
0.00318583
0.00221523
0.00152157
0.00103065
0.000687234
0.000450285
0.000289412
0.000182294
0.000112703
6.90289e-05
4.31588e-05
2.96814e-05
2.26252e-05
1.70979e-05
1.239e-05
8.52794e-06
5.53819e-06
3.38243e-06
1.94541e-06
1.06059e-06
5.52139e-07
2.76406e-07
1.344e-07
6.38772e-08
2.97523e-08
1.36081e-08
6.12213e-09
2.71325e-09
1.18623e-09
5.12293e-10
2.18815e-10
9.25356e-11
3.87703e-11
1.60884e-11
6.59466e-12
2.64672e-12
1.01296e-12
3.38044e-13
5.92379e-14
0.999997
0.999987
0.99997
0.999941
0.999893
0.999813
0.999682
0.999469
0.999126
0.99858
0.997727
0.996413
0.994432
0.991508
0.987298
0.981403
0.973394
0.962859
0.949455
0.932955
0.913275
0.890478
0.86475
0.836374
0.805699
0.773107
0.738999
0.703774
0.667815
0.631486
0.59512
0.559017
0.523441
0.488618
0.454736
0.42195
0.390384
0.360136
0.331269
0.303825
0.277823
0.253266
0.230137
0.208412
0.188052
0.169014
0.151247
0.134696
0.119305
0.105016
0.09177
0.0795114
0.0681851
0.0577398
0.0481298
0.0393117
0.0313213
0.0242044
0.0175279
0.0115417
0.00624805
0.00316393
0.00220119
0.0015126
0.00102504
0.000683846
0.000448332
0.000288386
0.000181869
0.000112684
6.93098e-05
4.37108e-05
3.05381e-05
2.33024e-05
1.75233e-05
1.26232e-05
8.6322e-06
5.56783e-06
3.37823e-06
1.93212e-06
1.04787e-06
5.4326e-07
2.71057e-07
1.31492e-07
6.23787e-08
2.9011e-08
1.32532e-08
5.95693e-09
2.63816e-09
1.1528e-09
4.97671e-10
2.12519e-10
8.98609e-11
3.76475e-11
1.56222e-11
6.40354e-12
2.56997e-12
9.83538e-13
3.28154e-13
5.7508e-14
0.999997
0.999987
0.99997
0.999941
0.999893
0.999814
0.999684
0.999471
0.99913
0.998587
0.997737
0.99643
0.994458
0.991546
0.987354
0.981481
0.973499
0.962996
0.949627
0.933164
0.913521
0.890756
0.865056
0.836702
0.80604
0.773454
0.739343
0.704107
0.66813
0.631775
0.595376
0.559235
0.523617
0.488748
0.454819
0.421983
0.390369
0.360071
0.331156
0.303666
0.277621
0.253024
0.229859
0.208101
0.187713
0.168651
0.150863
0.134296
0.118893
0.104595
0.0913443
0.0790843
0.0677609
0.0573232
0.047721
0.038907
0.0309315
0.0238306
0.0171692
0.0111985
0.00592
0.00314563
0.00219183
0.00150844
0.00102373
0.000683984
0.000449121
0.000289389
0.000182877
0.000113627
7.02064e-05
4.46425e-05
3.16259e-05
2.41028e-05
1.80297e-05
1.2912e-05
8.77493e-06
5.62391e-06
3.39123e-06
1.92897e-06
1.04148e-06
5.37773e-07
2.67449e-07
1.29449e-07
6.12962e-08
2.84645e-08
1.29876e-08
5.83173e-09
2.58067e-09
1.12699e-09
4.86306e-10
2.07598e-10
8.77604e-11
3.67623e-11
1.52536e-11
6.25212e-12
2.50907e-12
9.60112e-13
3.20337e-13
5.61381e-14
0.999997
0.999987
0.99997
0.999941
0.999894
0.999815
0.999685
0.999473
0.999133
0.998593
0.997746
0.996444
0.994479
0.991578
0.987399
0.981545
0.973585
0.963108
0.949768
0.933334
0.913719
0.890979
0.8653
0.836961
0.806308
0.773724
0.739609
0.704361
0.668365
0.631987
0.595559
0.559386
0.523731
0.488823
0.454852
0.421976
0.390321
0.359982
0.331028
0.303502
0.277422
0.252793
0.229599
0.207816
0.187406
0.168325
0.150522
0.133944
0.118532
0.104229
0.0909774
0.0787207
0.067403
0.0569686
0.0473695
0.0385645
0.0306043
0.0235162
0.0168671
0.0109085
0.00564921
0.00313029
0.00218553
0.00150715
0.00102495
0.000686251
0.000451615
0.000291698
0.00018484
0.000115229
7.15145e-05
4.57686e-05
3.26788e-05
2.48965e-05
1.85505e-05
1.3222e-05
8.93849e-06
5.69723e-06
3.41693e-06
1.93398e-06
1.03987e-06
5.35186e-07
2.65356e-07
1.28164e-07
6.05776e-08
2.80884e-08
1.27998e-08
5.74142e-09
2.53856e-09
1.10784e-09
4.77793e-10
2.03882e-10
8.61642e-11
3.6086e-11
1.49709e-11
6.13553e-12
2.46217e-12
9.42047e-13
3.14296e-13
5.50817e-14
0.999997
0.999987
0.99997
0.999941
0.999894
0.999815
0.999686
0.999475
0.999136
0.998597
0.997754
0.996456
0.994497
0.991604
0.987436
0.981596
0.973655
0.963199
0.949881
0.93347
0.913876
0.891156
0.865492
0.837164
0.806516
0.773932
0.739811
0.704552
0.66854
0.63214
0.595688
0.559486
0.523801
0.488861
0.454857
0.421947
0.390257
0.359886
0.330901
0.303344
0.277237
0.252582
0.229366
0.207563
0.187137
0.168042
0.150228
0.133642
0.118226
0.103922
0.0906714
0.0784147
0.0670965
0.0566664
0.0470755
0.0382797
0.0303334
0.0232564
0.0166173
0.0106678
0.00543018
0.00311781
0.00218206
0.00150842
0.00102837
0.000690315
0.000455514
0.000295065
0.000187568
0.000117361
7.31715e-05
4.71046e-05
3.38302e-05
2.57467e-05
1.9114e-05
1.3565e-05
9.12696e-06
5.78861e-06
3.45493e-06
1.9468e-06
1.04267e-06
5.34867e-07
2.64524e-07
1.27508e-07
6.0169e-08
2.78574e-08
1.26782e-08
5.68073e-09
2.50949e-09
1.09436e-09
4.71704e-10
2.01191e-10
8.49978e-11
3.55882e-11
1.47618e-11
6.04882e-12
2.42739e-12
9.28647e-13
3.098e-13
5.42973e-14
0.999997
0.999987
0.99997
0.999942
0.999894
0.999816
0.999687
0.999477
0.999138
0.998601
0.99776
0.996465
0.994511
0.991624
0.987466
0.981637
0.97371
0.963269
0.949969
0.933576
0.913999
0.891293
0.86564
0.837319
0.806675
0.774089
0.739963
0.704693
0.668667
0.63225
0.595777
0.559552
0.523841
0.488875
0.454844
0.421906
0.39019
0.359792
0.330782
0.303202
0.277074
0.2524
0.229167
0.207349
0.18691
0.167806
0.149985
0.133395
0.117976
0.10367
0.0904167
0.078161
0.0668472
0.0564228
0.0468388
0.0380509
0.0301163
0.0230485
0.0164177
0.0104756
0.00525517
0.00310784
0.00218103
0.00151193
0.00103374
0.00069601
0.000460727
0.00029945
0.000191057
0.000120038
7.5198e-05
4.86705e-05
3.50991e-05
2.66666e-05
1.97257e-05
1.39422e-05
9.33949e-06
5.89651e-06
3.50378e-06
1.96635e-06
1.0494e-06
5.36666e-07
2.64712e-07
1.27333e-07
5.99806e-08
2.77325e-08
1.26075e-08
5.64313e-09
2.49077e-09
1.08539e-09
4.6758e-10
1.99337e-10
8.41867e-11
3.5238e-11
1.46159e-11
5.98721e-12
2.40335e-12
9.19244e-13
3.06649e-13
5.37491e-14
0.999997
0.999987
0.99997
0.999942
0.999894
0.999816
0.999687
0.999478
0.99914
0.998604
0.997764
0.996472
0.994521
0.99164
0.987488
0.981668
0.973752
0.963324
0.950036
0.933656
0.914091
0.891396
0.865752
0.837436
0.806793
0.774205
0.740073
0.704795
0.668757
0.632326
0.595836
0.559593
0.523863
0.488876
0.454824
0.421866
0.390129
0.359711
0.330682
0.303084
0.27694
0.252251
0.229006
0.207178
0.186731
0.16762
0.149794
0.133198
0.117775
0.103467
0.0902158
0.0779631
0.0666535
0.0562343
0.0466564
0.0378752
0.0299495
0.0228891
0.0162644
0.0103273
0.00511892
0.00309987
0.00218206
0.00151732
0.00104072
0.000703003
0.000466956
0.000304607
0.000195115
0.000123122
7.75011e-05
5.04086e-05
3.64513e-05
2.76352e-05
2.03703e-05
1.43421e-05
9.56805e-06
6.01556e-06
3.56004e-06
1.99049e-06
1.05881e-06
5.39946e-07
2.65677e-07
1.27547e-07
5.9982e-08
2.76937e-08
1.25746e-08
5.62335e-09
2.48016e-09
1.08005e-09
4.65053e-10
1.98168e-10
8.36815e-11
3.50108e-11
1.4528e-11
5.9484e-12
2.3887e-12
9.13294e-13
3.04654e-13
5.34034e-14
0.999997
0.999987
0.99997
0.999942
0.999895
0.999816
0.999688
0.999479
0.999141
0.998606
0.997768
0.996477
0.994529
0.991651
0.987505
0.981691
0.973782
0.963363
0.950085
0.933714
0.914158
0.89147
0.865831
0.837518
0.806876
0.774287
0.74015
0.704865
0.668819
0.632377
0.595875
0.559618
0.523873
0.488871
0.454804
0.421831
0.390079
0.359648
0.330605
0.302995
0.276839
0.252141
0.228887
0.207051
0.186597
0.16748
0.149649
0.133051
0.117627
0.10332
0.09007
0.0778199
0.0665139
0.056099
0.0465259
0.0377499
0.0298292
0.0227741
0.0161537
0.0102197
0.00501982
0.00309484
0.00218543
0.00152461
0.00104922
0.00071121
0.00047412
0.000310462
0.000199675
0.000126549
8.00214e-05
5.2258e-05
3.78306e-05
2.86049e-05
2.10106e-05
1.47384e-05
9.79531e-06
6.13528e-06
3.6178e-06
2.01608e-06
1.06927e-06
5.43888e-07
2.67034e-07
1.27981e-07
6.0104e-08
2.77141e-08
1.25728e-08
5.61719e-09
2.47628e-09
1.07761e-09
4.63954e-10
1.97576e-10
8.34483e-11
3.48936e-11
1.44839e-11
5.92757e-12
2.38102e-12
9.10027e-13
3.0355e-13
5.32124e-14
0.999997
0.999987
0.99997
0.999942
0.999895
0.999817
0.999688
0.999479
0.999142
0.998607
0.99777
0.99648
0.994534
0.991659
0.987515
0.981706
0.973802
0.963388
0.950116
0.933751
0.9142
0.891517
0.865881
0.837571
0.806929
0.774338
0.740199
0.704909
0.668857
0.632407
0.595898
0.559632
0.523877
0.488865
0.454789
0.421805
0.390044
0.359603
0.330552
0.302934
0.276771
0.252065
0.228805
0.206964
0.186505
0.167386
0.149553
0.132954
0.117531
0.103225
0.0899763
0.0777285
0.0664254
0.056014
0.0464447
0.0376725
0.0297507
0.022698
0.0160767
0.0101372
0.00493032
0.00309065
0.0021898
0.00153271
0.00105828
0.000719758
0.000481475
0.000316417
0.000204282
0.000129989
8.25223e-05
5.40489e-05
3.9106e-05
2.94747e-05
2.15733e-05
1.50815e-05
9.99036e-06
6.2378e-06
3.66747e-06
2.03828e-06
1.07847e-06
5.47451e-07
2.68331e-07
1.28405e-07
6.02944e-08
2.7762e-08
1.25945e-08
5.62017e-09
2.47777e-09
1.07724e-09
4.63856e-10
1.97393e-10
8.33846e-11
3.48479e-11
1.44681e-11
5.91857e-12
2.37788e-12
9.08543e-13
3.03042e-13
5.3125e-14
0.999997
0.999987
0.99997
0.999942
0.999895
0.999817
0.999688
0.999479
0.999143
0.998608
0.997771
0.996482
0.994536
0.991662
0.98752
0.981713
0.973811
0.9634
0.95013
0.933768
0.91422
0.89154
0.865905
0.837595
0.806954
0.774362
0.740221
0.70493
0.668875
0.632422
0.595908
0.559637
0.523879
0.488862
0.45478
0.421792
0.390026
0.35958
0.330525
0.302903
0.276736
0.252028
0.228765
0.206921
0.186461
0.16734
0.149508
0.132908
0.117485
0.103179
0.0899322
0.0776859
0.0663846
0.0559751
0.046408
0.0376379
0.0297171
0.0226659
0.0160452
0.0101048
0.00489765
0.00308896
0.00219475
0.00154016
0.00106605
0.000726796
0.000487366
0.00032109
0.00020784
0.000132611
8.44004e-05
5.53546e-05
3.99743e-05
3.00352e-05
2.19217e-05
1.52875e-05
1.01047e-05
6.29687e-06
3.69581e-06
2.05092e-06
1.08372e-06
5.49479e-07
2.69125e-07
1.28666e-07
6.04162e-08
2.77964e-08
1.26103e-08
5.62376e-09
2.47946e-09
1.07745e-09
4.6397e-10
1.97367e-10
8.33786e-11
3.48354e-11
1.4464e-11
5.91564e-12
2.37688e-12
9.08017e-13
3.02856e-13
5.30932e-14
0.999997
0.999987
0.99997
0.999942
0.999895
0.999817
0.999688
0.999479
0.999143
0.998608
0.997771
0.996482
0.994536
0.991662
0.98752
0.981713
0.973811
0.9634
0.95013
0.933768
0.91422
0.891539
0.865905
0.837595
0.806953
0.774362
0.740221
0.70493
0.668875
0.632422
0.595908
0.559637
0.523878
0.488862
0.45478
0.421792
0.390026
0.35958
0.330525
0.302903
0.276736
0.252027
0.228765
0.206921
0.186461
0.16734
0.149508
0.132908
0.117485
0.103179
0.0899322
0.0776859
0.0663846
0.0559751
0.046408
0.0376379
0.0297171
0.0226659
0.0160452
0.0101048
0.00489765
0.00308897
0.00219476
0.00154018
0.00106608
0.000726833
0.000487404
0.000321125
0.000207869
0.000132632
8.44146e-05
5.53627e-05
3.99778e-05
3.00365e-05
2.19222e-05
1.52876e-05
1.01048e-05
6.2969e-06
3.69583e-06
2.05093e-06
1.08372e-06
5.49476e-07
2.69131e-07
1.28668e-07
6.04152e-08
2.77968e-08
1.26099e-08
5.62377e-09
2.47938e-09
1.07744e-09
4.63955e-10
1.97365e-10
8.33758e-11
3.4835e-11
1.44634e-11
5.91552e-12
2.37675e-12
9.07992e-13
3.02845e-13
5.30913e-14
0.999997
0.999987
0.99997
0.999942
0.999895
0.999817
0.999688
0.999479
0.999142
0.998607
0.99777
0.99648
0.994534
0.991659
0.987515
0.981706
0.973801
0.963388
0.950116
0.933751
0.9142
0.891517
0.865881
0.83757
0.806928
0.774338
0.740198
0.704909
0.668856
0.632407
0.595897
0.559631
0.523877
0.488865
0.454788
0.421805
0.390044
0.359603
0.330552
0.302934
0.27677
0.252065
0.228805
0.206964
0.186505
0.167386
0.149553
0.132954
0.117531
0.103225
0.0899763
0.0777285
0.0664254
0.056014
0.0464447
0.0376725
0.0297507
0.022698
0.0160767
0.0101372
0.00493033
0.00309067
0.00218981
0.0015327
0.00105827
0.000719739
0.000481454
0.000316397
0.000204265
0.000129976
8.25133e-05
5.40436e-05
3.91038e-05
2.9474e-05
2.15733e-05
1.50816e-05
9.99046e-06
6.23786e-06
3.66751e-06
2.0383e-06
1.07848e-06
5.47451e-07
2.68339e-07
1.28407e-07
6.02914e-08
2.77629e-08
1.25935e-08
5.62021e-09
2.47755e-09
1.07723e-09
4.63816e-10
1.97391e-10
8.33773e-11
3.48471e-11
1.44665e-11
5.91832e-12
2.37753e-12
9.08484e-13
3.03014e-13
5.312e-14
0.999997
0.999987
0.99997
0.999942
0.999895
0.999816
0.999688
0.999479
0.999141
0.998606
0.997767
0.996477
0.994529
0.991651
0.987505
0.981691
0.973782
0.963362
0.950084
0.933713
0.914157
0.891469
0.86583
0.837517
0.806875
0.774286
0.740149
0.704864
0.668818
0.632376
0.595874
0.559617
0.523873
0.488871
0.454804
0.42183
0.390079
0.359647
0.330605
0.302995
0.276839
0.252141
0.228887
0.207051
0.186596
0.167479
0.149649
0.133051
0.117627
0.10332
0.09007
0.0778199
0.066514
0.0560991
0.0465261
0.03775
0.0298293
0.0227742
0.0161538
0.0102198
0.00501984
0.00309486
0.00218544
0.00152461
0.00104923
0.000711212
0.000474122
0.000310465
0.000199679
0.000126553
8.00247e-05
5.22606e-05
3.78322e-05
2.86058e-05
2.10112e-05
1.47387e-05
9.7955e-06
6.13539e-06
3.61785e-06
2.0161e-06
1.06928e-06
5.43893e-07
2.67041e-07
1.27983e-07
6.01037e-08
2.77152e-08
1.25724e-08
5.61734e-09
2.47617e-09
1.07763e-09
4.63932e-10
1.97578e-10
8.34426e-11
3.48935e-11
1.44822e-11
5.92738e-12
2.38061e-12
9.0997e-13
3.03522e-13
5.32076e-14
0.999997
0.999987
0.99997
0.999942
0.999894
0.999816
0.999687
0.999478
0.99914
0.998604
0.997764
0.996472
0.994521
0.99164
0.987488
0.981668
0.973751
0.963323
0.950036
0.933655
0.914091
0.891395
0.865751
0.837435
0.806792
0.774204
0.740072
0.704794
0.668757
0.632325
0.595836
0.559592
0.523862
0.488875
0.454824
0.421865
0.390128
0.35971
0.330681
0.303084
0.276939
0.252251
0.229006
0.207178
0.186731
0.16762
0.149794
0.133198
0.117775
0.103467
0.0902157
0.0779629
0.0666533
0.0562341
0.0466563
0.0378752
0.0299495
0.0228891
0.0162645
0.0103273
0.00511896
0.00309988
0.00218207
0.00151732
0.00104073
0.000703015
0.000466968
0.000304618
0.000195123
0.000123127
7.75042e-05
5.041e-05
3.64518e-05
2.76356e-05
2.03706e-05
1.43424e-05
9.56824e-06
6.01567e-06
3.5601e-06
1.99052e-06
1.05883e-06
5.39954e-07
2.65682e-07
1.2755e-07
5.99836e-08
2.76945e-08
1.25748e-08
5.62356e-09
2.48029e-09
1.08011e-09
4.65077e-10
1.98178e-10
8.3683e-11
3.50123e-11
1.45272e-11
5.94851e-12
2.38841e-12
9.13281e-13
3.0464e-13
5.34009e-14
0.999997
0.999987
0.99997
0.999942
0.999894
0.999816
0.999687
0.999477
0.999138
0.998601
0.99776
0.996465
0.99451
0.991624
0.987466
0.981637
0.973709
0.963269
0.949968
0.933575
0.913998
0.891292
0.865639
0.837318
0.806674
0.774088
0.739961
0.704692
0.668666
0.632249
0.595776
0.559551
0.52384
0.488874
0.454843
0.421906
0.390189
0.359792
0.330781
0.303202
0.277073
0.252399
0.229167
0.207349
0.18691
0.167805
0.149985
0.133395
0.117976
0.10367
0.090417
0.0781613
0.0668474
0.0564229
0.0468389
0.038051
0.0301164
0.0230486
0.0164178
0.0104756
0.00525522
0.00310786
0.00218104
0.00151192
0.00103373
0.000695991
0.000460708
0.000299433
0.000191043
0.000120029
7.51924e-05
4.86677e-05
3.50983e-05
2.66667e-05
1.9726e-05
1.39425e-05
9.33971e-06
5.89664e-06
3.50385e-06
1.96638e-06
1.04942e-06
5.36678e-07
2.6472e-07
1.27338e-07
5.99836e-08
2.77329e-08
1.26073e-08
5.64313e-09
2.49079e-09
1.08542e-09
4.67596e-10
1.99347e-10
8.41913e-11
3.52402e-11
1.46164e-11
5.98761e-12
2.40328e-12
9.19292e-13
3.06658e-13
5.37505e-14
0.999997
0.999987
0.99997
0.999941
0.999894
0.999815
0.999686
0.999475
0.999136
0.998597
0.997754
0.996456
0.994497
0.991604
0.987436
0.981596
0.973654
0.963198
0.94988
0.933469
0.913875
0.891155
0.865491
0.837162
0.806515
0.773931
0.73981
0.70455
0.668539
0.632139
0.595687
0.559485
0.5238
0.488859
0.454856
0.421946
0.390256
0.359885
0.3309
0.303343
0.277236
0.252582
0.229366
0.207563
0.187136
0.168041
0.150228
0.133642
0.118225
0.103921
0.0906711
0.0784146
0.0670965
0.0566665
0.0470756
0.0382798
0.0303335
0.0232565
0.0166173
0.0106679
0.00543024
0.00311784
0.00218208
0.00150843
0.00102839
0.000690331
0.000455532
0.000295081
0.000187582
0.000117372
7.31791e-05
4.71091e-05
3.38322e-05
2.57477e-05
1.91145e-05
1.35654e-05
9.12719e-06
5.78875e-06
3.45501e-06
1.94685e-06
1.0427e-06
5.34882e-07
2.64532e-07
1.27513e-07
6.01726e-08
2.78589e-08
1.26788e-08
5.68101e-09
2.50962e-09
1.09442e-09
4.71734e-10
2.01205e-10
8.50043e-11
3.5591e-11
1.47631e-11
6.04936e-12
2.42754e-12
9.28736e-13
3.09829e-13
5.43021e-14
0.999997
0.999987
0.99997
0.999941
0.999894
0.999815
0.999685
0.999473
0.999133
0.998593
0.997746
0.996444
0.994479
0.991578
0.987399
0.981544
0.973585
0.963108
0.949767
0.933333
0.913717
0.890978
0.865299
0.836959
0.806306
0.773722
0.739607
0.704359
0.668364
0.631985
0.595558
0.559384
0.523729
0.488821
0.454851
0.421975
0.39032
0.359981
0.331028
0.303501
0.277421
0.252792
0.229599
0.207815
0.187406
0.168325
0.150522
0.133944
0.118532
0.104229
0.0909775
0.0787207
0.067403
0.0569686
0.0473695
0.0385646
0.0306043
0.0235163
0.0168672
0.0109086
0.00564927
0.00313032
0.00218555
0.00150716
0.00102496
0.000686251
0.000451612
0.000291694
0.000184835
0.000115225
7.15124e-05
4.57678e-05
3.26789e-05
2.4897e-05
1.85511e-05
1.32225e-05
8.93876e-06
5.69739e-06
3.41702e-06
1.93403e-06
1.0399e-06
5.35204e-07
2.65366e-07
1.2817e-07
6.05811e-08
2.80902e-08
1.28007e-08
5.74185e-09
2.53875e-09
1.10793e-09
4.77834e-10
2.039e-10
8.61723e-11
3.60896e-11
1.49724e-11
6.13616e-12
2.46242e-12
9.42158e-13
3.14334e-13
5.50879e-14
0.999997
0.999987
0.99997
0.999941
0.999893
0.999814
0.999684
0.999471
0.99913
0.998587
0.997737
0.99643
0.994458
0.991546
0.987353
0.98148
0.973499
0.962995
0.949626
0.933163
0.913519
0.890755
0.865054
0.8367
0.806038
0.773452
0.739341
0.704105
0.668128
0.631773
0.595374
0.559234
0.523615
0.488747
0.454817
0.421982
0.390368
0.36007
0.331155
0.303665
0.277621
0.253023
0.229858
0.2081
0.187712
0.16865
0.150863
0.134296
0.118892
0.104595
0.0913442
0.0790843
0.067761
0.0573233
0.0477211
0.0389071
0.0309317
0.0238307
0.0171693
0.0111986
0.00592007
0.00314565
0.00219182
0.00150843
0.00102372
0.000683974
0.000449113
0.000289383
0.000182871
0.000113621
7.02011e-05
4.46384e-05
3.16236e-05
2.4102e-05
1.80297e-05
1.29122e-05
8.77515e-06
5.62407e-06
3.39133e-06
1.92903e-06
1.04151e-06
5.37793e-07
2.67461e-07
1.29456e-07
6.13002e-08
2.84666e-08
1.29886e-08
5.83223e-09
2.58091e-09
1.12709e-09
4.86354e-10
2.07619e-10
8.77699e-11
3.67664e-11
1.52554e-11
6.25285e-12
2.50938e-12
9.6023e-13
3.20379e-13
5.61447e-14
0.999997
0.999987
0.99997
0.999941
0.999893
0.999813
0.999682
0.999469
0.999125
0.99858
0.997726
0.996413
0.994432
0.991508
0.987298
0.981403
0.973393
0.962858
0.949453
0.932953
0.913274
0.890476
0.864748
0.836372
0.805696
0.773105
0.738997
0.703771
0.667813
0.631484
0.595118
0.559015
0.523439
0.488616
0.454735
0.421949
0.390383
0.360135
0.331268
0.303824
0.277823
0.253265
0.230137
0.208411
0.188052
0.169014
0.151247
0.134696
0.119305
0.105016
0.0917699
0.0795113
0.068185
0.0577399
0.0481299
0.0393118
0.0313215
0.0242045
0.0175281
0.0115419
0.00624823
0.003164
0.00220129
0.00151273
0.00102516
0.000683954
0.000448422
0.000288459
0.000181928
0.000112731
6.93457e-05
4.37343e-05
3.05507e-05
2.3308e-05
1.75256e-05
1.26242e-05
8.63262e-06
5.56803e-06
3.37834e-06
1.93218e-06
1.04791e-06
5.43284e-07
2.71071e-07
1.31501e-07
6.23832e-08
2.90133e-08
1.32544e-08
5.9575e-09
2.63842e-09
1.15292e-09
4.97725e-10
2.12543e-10
8.98716e-11