/*--------------------------------*- C++ -*----------------------------------*\
  =========                 |
  \\      /  F ield         | OpenFOAM: The Open Source CFD Toolbox
   \\    /   O peration     | Website:  https://openfoam.org
    \\  /    A nd           | Version:  8
     \\/     M anipulation  |
\*---------------------------------------------------------------------------*/
FoamFile
{
    version     2.0;
    format      ascii;
    class       volScalarField;
    location    "800/fluid";
    object      CO2;
}
// * * * * * * * * * * * * * * * * * * * * * * * * * * * * * * * * * * * * * //

dimensions      [0 0 0 0 0 0 0];

internalField   nonuniform List<scalar> 
4000
(
4.74432e-07
2.07309e-06
4.76108e-06
9.26645e-06
1.67857e-05
2.92655e-05
4.98364e-05
8.346e-05
0.000137867
0.000224858
0.000361996
0.000574629
0.000897943
0.0013785
0.00207423
0.00305191
0.00438133
0.0061266
0.00833664
0.0110378
0.0142309
0.017893
0.0219822
0.0264441
0.0312166
0.0362353
0.041436
0.0467575
0.0521424
0.0575386
0.0629
0.0681861
0.0733627
0.0784015
0.0832799
0.08798
0.0924879
0.0967943
0.100893
0.104782
0.10846
0.11193
0.115194
0.118259
0.121128
0.123808
0.126305
0.128625
0.130772
0.13275
0.134561
0.136206
0.137681
0.138981
0.140094
0.141003
0.141683
0.142092
0.14219
0.141912
0.14116
0.139809
0.137035
0.126494
0.115781
0.105074
0.0945118
0.0842032
0.0742352
0.0646788
0.0555937
0.0470326
0.0390454
0.0317181
0.025023
0.0190662
0.0139119
0.00962325
0.00624701
0.00377744
0.00212401
0.00111623
0.000553464
0.000263158
0.000121567
5.48894e-05
2.43274e-05
1.06178e-05
4.57501e-06
1.95002e-06
8.23568e-07
3.45126e-07
1.4366e-07
5.94315e-08
2.44231e-08
9.94055e-09
3.97055e-09
1.51533e-09
5.06006e-10
8.86912e-11
4.75022e-07
2.07618e-06
4.77035e-06
9.29041e-06
1.68411e-05
2.9382e-05
5.00591e-05
8.38469e-05
0.000138468
0.000225653
0.00036277
0.000574743
0.000896067
0.00137208
0.0020591
0.00302208
0.00432925
0.00604398
0.00821583
0.0108732
0.0140199
0.0176365
0.0216843
0.0261112
0.030857
0.0358577
0.0410493
0.0463699
0.0517613
0.0571702
0.0625493
0.0678569
0.0730578
0.0781227
0.0830282
0.0877555
0.0922904
0.0966229
0.100747
0.104659
0.108359
0.111849
0.115132
0.118212
0.121096
0.123789
0.126298
0.128627
0.130782
0.132767
0.134584
0.136233
0.137712
0.139015
0.140129
0.141039
0.141718
0.142126
0.142222
0.14194
0.141182
0.139819
0.136189
0.125581
0.114814
0.104064
0.0934649
0.0831269
0.0731365
0.0635652
0.054474
0.0459179
0.037949
0.0306584
0.0240221
0.0181525
0.0131154
0.00897256
0.00575986
0.00345061
0.00193037
0.0010151
0.0005065
0.000242917
0.000113354
5.17121e-05
2.31428e-05
1.01872e-05
4.42042e-06
1.89447e-06
8.03313e-07
3.37539e-07
1.40721e-07
5.82552e-08
2.3941e-08
9.74109e-09
3.88899e-09
1.48352e-09
4.95225e-10
8.67878e-11
4.76267e-07
2.08187e-06
4.78464e-06
9.32107e-06
1.69014e-05
2.94925e-05
5.0248e-05
8.41458e-05
0.000138897
0.000226187
0.000363256
0.000574745
0.000894501
0.00136705
0.00204756
0.00299962
0.00429003
0.00598112
0.0081221
0.010742
0.0138464
0.0174182
0.0214213
0.0258064
0.0305155
0.0354864
0.0406562
0.0459632
0.0513492
0.0567606
0.0621491
0.0674722
0.0726936
0.0777829
0.0827157
0.0874723
0.0920376
0.0964007
0.100555
0.104497
0.108225
0.111741
0.115049
0.118152
0.121057
0.123769
0.126293
0.128637
0.130804
0.132799
0.134625
0.136281
0.137765
0.139071
0.140187
0.141097
0.141775
0.142179
0.142269
0.141976
0.141203
0.139817
0.134699
0.124044
0.113233
0.102446
0.091823
0.0814736
0.0714867
0.0619358
0.0528841
0.0443887
0.0365044
0.0293112
0.0228151
0.0171131
0.0122656
0.00832399
0.00530601
0.00316342
0.00176662
0.000930235
0.000465919
0.00022446
0.000105267
4.82731e-05
2.17146e-05
9.60482e-06
4.18609e-06
1.80095e-06
7.6611e-07
3.22726e-07
1.34799e-07
5.58743e-08
2.29795e-08
9.35288e-09
3.73418e-09
1.42434e-09
4.75383e-10
8.32736e-11
4.75929e-07
2.08038e-06
4.78109e-06
9.31342e-06
1.68845e-05
2.94531e-05
5.01543e-05
8.39257e-05
0.000138399
0.000225114
0.000361066
0.000570526
0.000886861
0.00135387
0.00202584
0.00296539
0.00423851
0.00590707
0.00802041
0.0106084
0.0136778
0.0172133
0.0211806
0.025532
0.0302109
0.0351565
0.0403066
0.0456001
0.0509793
0.0563902
0.0617844
0.0671188
0.0723563
0.0774659
0.0824222
0.0872049
0.0917979
0.0961898
0.100373
0.104343
0.1081
0.111643
0.114975
0.118102
0.121029
0.12376
0.126302
0.12866
0.130841
0.132846
0.13468
0.136343
0.137831
0.139138
0.140255
0.141162
0.141835
0.142229
0.142306
0.141996
0.141199
0.139779
0.132849
0.122178
0.111348
0.100548
0.0899238
0.0795885
0.0696341
0.060136
0.0511593
0.0427622
0.0350011
0.0279279
0.021601
0.0160843
0.0114334
0.00769073
0.00485995
0.00287615
0.00159806
0.000839525
0.000420583
0.000203023
9.5497e-05
4.39463e-05
1.98427e-05
8.81076e-06
3.85466e-06
1.66441e-06
7.10422e-07
3.00178e-07
1.25714e-07
5.2226e-08
2.15188e-08
8.77131e-09
3.50594e-09
1.33838e-09
4.46899e-10
7.82743e-11
4.74218e-07
2.0728e-06
4.76325e-06
9.27737e-06
1.68157e-05
2.9325e-05
4.99178e-05
8.34921e-05
0.00013761
0.000223692
0.000358543
0.000566136
0.0008794
0.00134154
0.00200611
0.00293495
0.00419335
0.00584285
0.00793287
0.0104939
0.0135339
0.0170389
0.0209761
0.0252992
0.0299528
0.034877
0.0400104
0.0452926
0.0506656
0.0560759
0.0614746
0.0668183
0.0720694
0.0771963
0.0821728
0.0869782
0.0915956
0.096013
0.100222
0.104218
0.108
0.111567
0.114923
0.118072
0.121019
0.123767
0.126325
0.128697
0.130889
0.132904
0.134744
0.13641
0.1379
0.139207
0.140318
0.141218
0.141879
0.142256
0.142314
0.141977
0.141142
0.13968
0.130903
0.120245
0.109413
0.0986112
0.0879963
0.0776879
0.0677802
0.0583497
0.0494614
0.0411733
0.0335546
0.026627
0.0204678
0.0151338
0.010674
0.00712116
0.00446496
0.0026255
0.00145265
0.000761735
0.000381688
0.000184527
8.69854e-05
4.01282e-05
1.81647e-05
8.08553e-06
3.54554e-06
1.53416e-06
6.56065e-07
2.7767e-07
1.16454e-07
4.84372e-08
1.99774e-08
8.14938e-09
3.25929e-09
1.24475e-09
4.15707e-10
7.27873e-11
4.71424e-07
2.06047e-06
4.73434e-06
9.21947e-06
1.6707e-05
2.91269e-05
4.95637e-05
8.28672e-05
0.00013652
0.000221818
0.000355372
0.000560869
0.000870851
0.00132803
0.00198538
0.00290418
0.00414933
0.00578218
0.00785242
0.0103911
0.0134073
0.0168878
0.0208012
0.025102
0.0297359
0.0346437
0.0397646
0.0450383
0.0504074
0.055818
0.0612213
0.0665735
0.0718367
0.0769787
0.081973
0.086798
0.0914367
0.0958763
0.100108
0.104127
0.107931
0.11152
0.114896
0.118064
0.121026
0.12379
0.126361
0.128745
0.130945
0.132966
0.13481
0.136478
0.137965
0.139265
0.140367
0.141252
0.141894
0.142246
0.142275
0.141903
0.14103
0.139543
0.129278
0.118546
0.107652
0.0968153
0.0861934
0.0759052
0.066043
0.0566812
0.0478823
0.039702
0.0322198
0.0254304
0.0194341
0.0142749
0.00999285
0.0066133
0.0041139
0.00240248
0.00132241
0.000691196
0.000345817
0.000167195
7.88824e-05
3.64399e-05
1.65231e-05
7.36862e-06
3.23748e-06
1.40359e-06
6.01348e-07
2.54955e-07
1.07096e-07
4.46066e-08
1.84192e-08
7.52093e-09
3.01013e-09
1.15016e-09
3.84166e-10
6.72846e-11
4.68158e-07
2.04611e-06
4.70099e-06
9.15344e-06
1.65847e-05
2.89083e-05
4.91807e-05
8.22062e-05
0.000135395
0.000219927
0.000352243
0.000555786
0.000862761
0.00131546
0.0019664
0.0028764
0.00411004
0.00572863
0.00778209
0.0103021
0.0132985
0.016759
0.0206532
0.0249365
0.0295552
0.0344506
0.0395623
0.0448304
0.0501975
0.0556098
0.0610181
0.0663786
0.071653
0.0768086
0.0818186
0.0866609
0.0913181
0.0957768
0.100028
0.104066
0.107889
0.111497
0.11489
0.118072
0.12105
0.123826
0.126408
0.128799
0.131006
0.13303
0.134875
0.13654
0.13802
0.139309
0.140394
0.141255
0.141863
0.142171
0.142145
0.141704
0.140751
0.139193
0.128324
0.11725
0.106166
0.095232
0.0845739
0.0742928
0.0644703
0.055174
0.0464622
0.0383884
0.0310417
0.0243922
0.0185319
0.0135182
0.00939469
0.00617068
0.00381063
0.00221137
0.00121146
0.000631269
0.000315324
0.00015241
7.19307e-05
3.32524e-05
1.50922e-05
6.73787e-06
2.96383e-06
1.28649e-06
5.51833e-07
2.34228e-07
9.8494e-08
4.10632e-08
1.69701e-08
6.93392e-09
2.77658e-09
1.06126e-09
3.54471e-10
6.20998e-11
4.64748e-07
2.03116e-06
4.66635e-06
9.08517e-06
1.6459e-05
2.86849e-05
4.87923e-05
8.15416e-05
0.000134274
0.000218065
0.000349201
0.000550904
0.000855098
0.00130372
0.00194892
0.00285118
0.00407486
0.00568128
0.00772066
0.0102252
0.0132054
0.01665
0.020529
0.0247987
0.0294058
0.0342922
0.0393976
0.0446624
0.0500292
0.0554441
0.0608579
0.0662265
0.0715112
0.0766791
0.081703
0.0865605
0.0912338
0.0957091
0.099977
0.104032
0.107871
0.111493
0.1149
0.118095
0.121084
0.12387
0.12646
0.128857
0.131068
0.133094
0.134937
0.136596
0.138068
0.139342
0.140405
0.141234
0.141794
0.142036
0.141909
0.141315
0.140123
0.138192
0.127131
0.115914
0.10474
0.0937605
0.0830937
0.0728341
0.0630579
0.0538287
0.0452016
0.037227
0.0299785
0.0234541
0.0177321
0.0128592
0.00887683
0.00579066
0.00355169
0.00204849
0.00111677
0.000579923
0.000289036
0.000139585
6.58619e-05
3.04527e-05
1.38283e-05
6.17794e-06
2.71983e-06
1.18168e-06
5.07364e-07
2.15562e-07
9.07286e-08
3.78581e-08
1.56572e-08
6.40134e-09
2.56446e-09
9.80454e-10
3.27468e-10
5.73822e-11
4.61437e-07
2.01666e-06
4.63286e-06
9.01939e-06
1.63385e-05
2.84718e-05
4.84241e-05
8.09161e-05
0.000133228
0.000216341
0.000346406
0.000546462
0.000848186
0.00129323
0.00193343
0.00282901
0.00404418
0.00564031
0.0076679
0.0101597
0.0131267
0.0165584
0.0204255
0.0246846
0.0292831
0.0341631
0.0392645
0.0445277
0.0498954
0.0553137
0.0607332
0.0661095
0.0714037
0.0765828
0.081619
0.0864898
0.0911768
0.0956662
0.0999484
0.104017
0.107869
0.111503
0.114922
0.118128
0.121125
0.123919
0.126514
0.128916
0.131129
0.133155
0.134996
0.13665
0.138113
0.139375
0.14042
0.141226
0.141752
0.141952
0.141766
0.14109
0.139781
0.137094
0.125908
0.114613
0.103398
0.0924083
0.0817582
0.0715388
0.061824
0.0526752
0.0441453
0.0362813
0.0291557
0.0227542
0.0171468
0.0123756
0.00847006
0.00547457
0.00333305
0.00191073
0.0010367
0.000536495
0.000266774
0.000128698
6.06949e-05
2.80605e-05
1.27441e-05
5.69573e-06
2.50885e-06
1.0907e-06
4.68624e-07
1.99244e-07
8.392e-08
3.50404e-08
1.45004e-08
5.93122e-09
2.37694e-09
9.08945e-10
3.03558e-10
5.32038e-11
4.58355e-07
2.00317e-06
4.60176e-06
8.95843e-06
1.6227e-05
2.82754e-05
4.8086e-05
8.03443e-05
0.000132275
0.00021478
0.000343893
0.00054249
0.000842046
0.00128397
0.00191986
0.00280972
0.00401769
0.00560519
0.007623
0.0101043
0.0130607
0.0164821
0.0203398
0.0245909
0.0291831
0.0340586
0.0391576
0.0444206
0.0497901
0.0552122
0.0606373
0.0660209
0.0713239
0.0765129
0.08156
0.0864423
0.0911412
0.0956427
0.0999366
0.104016
0.107879
0.111523
0.114951
0.118165
0.121169
0.123969
0.126569
0.128973
0.131187
0.133213
0.135051
0.136701
0.138157
0.139411
0.140445
0.141238
0.14175
0.141937
0.141743
0.14107
0.139792
0.135916
0.124689
0.11337
0.102147
0.0911656
0.0805397
0.0703584
0.060694
0.0516075
0.0431519
0.035376
0.0283096
0.0219978
0.0164976
0.011854
0.00809943
0.00520518
0.00314436
0.00179263
0.000968432
0.000499564
0.000247852
0.00011944
5.6295e-05
2.60199e-05
1.18175e-05
5.28268e-06
2.32773e-06
1.01242e-06
4.35226e-07
1.85151e-07
7.80295e-08
3.25989e-08
1.34967e-08
5.52289e-09
2.21393e-09
8.46745e-10
2.82756e-10
4.95688e-11
4.55573e-07
1.991e-06
4.57373e-06
8.90361e-06
1.6127e-05
2.80997e-05
4.77844e-05
7.98359e-05
0.000131432
0.000213404
0.000341685
0.000539019
0.000836708
0.00127597
0.00190818
0.00279322
0.00399513
0.00557545
0.00758519
0.0100579
0.0130057
0.016419
0.0202694
0.0245145
0.0291021
0.0339747
0.0390725
0.044336
0.0497079
0.0551339
0.0605644
0.0659547
0.0712656
0.0764633
0.0815198
0.0864119
0.0911211
0.0956326
0.0999361
0.104025
0.107896
0.111549
0.114984
0.118204
0.121214
0.124017
0.12662
0.129026
0.13124
0.133264
0.1351
0.136746
0.138197
0.139444
0.140471
0.141255
0.141758
0.141938
0.14174
0.141066
0.139794
0.134775
0.123543
0.112231
0.101027
0.0900745
0.0794905
0.0693612
0.0597571
0.0507382
0.0423424
0.0346167
0.0276028
0.0213667
0.0159549
0.0114063
0.0077472
0.00496955
0.00298797
0.00169251
0.000910734
0.000468414
0.000231908
0.00011164
5.25857e-05
2.42976e-05
1.10343e-05
4.93302e-06
2.17415e-06
9.45934e-07
4.06807e-07
1.73139e-07
7.3001e-08
3.0512e-08
1.26378e-08
5.17312e-09
2.07418e-09
7.93393e-10
2.64907e-10
4.6449e-11
4.53121e-07
1.98028e-06
4.54906e-06
8.8554e-06
1.60392e-05
2.79457e-05
4.75207e-05
7.93925e-05
0.000130699
0.000212211
0.000339779
0.000536033
0.000832133
0.00126913
0.00189826
0.00277925
0.00397614
0.00555053
0.00755367
0.0100194
0.0129604
0.0163672
0.0202121
0.0244526
0.029037
0.0339078
0.0390052
0.0442699
0.0496442
0.0550741
0.0605096
0.065906
0.0712239
0.0764292
0.0814938
0.0863944
0.0911119
0.0956315
0.099943
0.10404
0.107918
0.111577
0.115017
0.118242
0.121255
0.124062
0.126666
0.129072
0.131285
0.133308
0.135141
0.136783
0.138228
0.139469
0.140488
0.141265
0.141761
0.141934
0.14173
0.141053
0.139784
0.13376
0.122523
0.111219
0.100037
0.0891213
0.0785774
0.0684851
0.0589153
0.0499242
0.0415741
0.0339103
0.0269755
0.0208193
0.0154897
0.0110252
0.00744958
0.00474979
0.00285236
0.00160938
0.000861903
0.000442138
0.000218507
0.000105095
4.94754e-05
2.28536e-05
1.03774e-05
4.63947e-06
2.04508e-06
8.89994e-07
3.82867e-07
1.63007e-07
6.87547e-08
2.87478e-08
1.19111e-08
4.87693e-09
1.95576e-09
7.48148e-10
2.49777e-10
4.38018e-11
4.51003e-07
1.97103e-06
4.52777e-06
8.81385e-06
1.59636e-05
2.78134e-05
4.72946e-05
7.90131e-05
0.000130072
0.000211195
0.00033816
0.000533504
0.000828272
0.00126339
0.00188994
0.00276759
0.00396034
0.00552988
0.00752766
0.00998787
0.0129233
0.0163252
0.0201657
0.0244029
0.0289851
0.0338548
0.0389524
0.0442185
0.0495953
0.0550288
0.0604689
0.0658707
0.0711945
0.0764063
0.0814777
0.0863853
0.0911096
0.0956359
0.0999539
0.104057
0.10794
0.111604
0.115048
0.118277
0.121292
0.1241
0.126705
0.129111
0.131322
0.133342
0.135172
0.136809
0.138249
0.139483
0.140496
0.141265
0.141753
0.141919
0.14171
0.141032
0.139765
0.132886
0.121639
0.110341
0.0991762
0.0882745
0.0777447
0.0676809
0.0581514
0.0492138
0.0409195
0.0333153
0.0264439
0.0203556
0.0150969
0.0107052
0.00720181
0.00456945
0.00272935
0.00153995
0.000822466
0.000420443
0.000207396
9.96781e-05
4.69027e-05
2.16587e-05
9.83333e-06
4.39611e-06
1.93793e-06
8.4349e-07
3.62936e-07
1.5456e-07
6.52099e-08
2.72731e-08
1.1303e-08
4.62893e-09
1.85654e-09
7.10204e-10
2.37122e-10
4.15859e-11
4.4921e-07
1.96319e-06
4.50976e-06
8.77871e-06
1.58998e-05
2.77018e-05
4.71041e-05
7.8694e-05
0.000129547
0.000210344
0.000336808
0.000531398
0.000825064
0.00125862
0.00188307
0.00275799
0.00394737
0.005513
0.00750647
0.00996223
0.0128934
0.0162913
0.0201286
0.0243634
0.028944
0.0338132
0.0389113
0.0441788
0.0495581
0.0549948
0.0604389
0.0658452
0.0711741
0.0763914
0.0814684
0.0863815
0.0911114
0.0956431
0.0999661
0.104073
0.107961
0.111628
0.115076
0.118306
0.121323
0.124131
0.126736
0.12914
0.13135
0.133367
0.135192
0.136824
0.138258
0.139486
0.140491
0.141253
0.141734
0.141894
0.14168
0.141001
0.139741
0.132147
0.120885
0.109587
0.0984239
0.0875383
0.0770373
0.0670063
0.0575144
0.0486193
0.0403716
0.0328176
0.0259995
0.0199681
0.0147693
0.0104392
0.0069971
0.00442196
0.00263045
0.00147787
0.000789953
0.00040343
0.000198527
9.52908e-05
4.481e-05
2.06843e-05
9.38851e-06
4.19667e-06
1.84995e-06
8.05233e-07
3.46515e-07
1.47591e-07
6.22815e-08
2.60536e-08
1.07997e-08
4.42349e-09
1.77436e-09
6.78774e-10
2.26634e-10
3.97504e-11
4.47723e-07
1.9567e-06
4.49483e-06
8.74963e-06
1.5847e-05
2.76095e-05
4.69469e-05
7.84311e-05
0.000129115
0.000209646
0.000335699
0.000529674
0.000822445
0.00125474
0.00187749
0.00275021
0.0039369
0.00549939
0.00748946
0.00994173
0.0128695
0.0162645
0.0200993
0.0243324
0.028912
0.033781
0.0388797
0.0441486
0.04953
0.0549694
0.0604169
0.065827
0.07116
0.0763817
0.0814632
0.0863807
0.0911149
0.0956507
0.0999775
0.104088
0.107979
0.111648
0.115098
0.118329
0.121347
0.124155
0.126758
0.129161
0.131368
0.133381
0.135202
0.136829
0.138257
0.139478
0.140477
0.141231
0.141705
0.141859
0.141642
0.140963
0.139714
0.131534
0.120253
0.108949
0.0977958
0.0869275
0.0764499
0.066447
0.0569873
0.0481279
0.039919
0.0324066
0.0256327
0.0196485
0.0144994
0.0102206
0.00682958
0.00430199
0.00255076
0.00142862
0.0007612
0.000389066
0.000191598
9.18503e-05
4.31329e-05
1.98962e-05
9.02759e-06
4.03459e-06
1.77835e-06
7.74059e-07
3.33121e-07
1.41901e-07
5.98891e-08
2.50568e-08
1.03882e-08
4.25545e-09
1.70722e-09
6.53121e-10
2.18069e-10
3.8252e-11
4.46522e-07
1.95145e-06
4.48279e-06
8.72617e-06
1.58045e-05
2.75353e-05
4.68204e-05
7.822e-05
0.000128768
0.000209086
0.000334813
0.000528298
0.000820358
0.00125166
0.00187306
0.00274405
0.00392862
0.00548867
0.00747608
0.00992565
0.0128509
0.0162436
0.0200766
0.0243084
0.0288873
0.0337563
0.0388557
0.0441258
0.049509
0.0549507
0.0604008
0.065814
0.0711503
0.0763753
0.0814601
0.0863809
0.0911183
0.0956572
0.0999867
0.1041
0.107992
0.111663
0.115114
0.118345
0.121363
0.12417
0.126771
0.129172
0.131376
0.133385
0.135202
0.136823
0.138246
0.13946
0.140452
0.1412
0.141667
0.141818
0.141598
0.140921
0.139685
0.131036
0.119739
0.10843
0.0972834
0.0864291
0.075971
0.0659917
0.0565588
0.047729
0.039552
0.0320737
0.0253359
0.0193901
0.0142815
0.0100445
0.00669495
0.00420591
0.00248725
0.00138965
0.000738679
0.000376481
0.000185191
8.89286e-05
4.18e-05
1.92695e-05
8.73852e-06
3.90406e-06
1.72068e-06
7.4895e-07
3.22347e-07
1.37326e-07
5.79676e-08
2.42564e-08
1.00588e-08
4.12088e-09
1.65378e-09
6.32678e-10
2.11245e-10
3.70589e-11
4.45589e-07
1.94738e-06
4.47343e-06
8.70793e-06
1.57714e-05
2.74776e-05
4.67224e-05
7.80563e-05
0.0001285
0.000208654
0.000334128
0.000527237
0.00081875
0.00124929
0.00186966
0.00273932
0.00392228
0.00548048
0.00746589
0.00991343
0.0128367
0.0162278
0.0200595
0.0242904
0.0288689
0.0337379
0.0388378
0.044109
0.0494935
0.0549371
0.0603892
0.0658046
0.0711433
0.0763707
0.0814579
0.086381
0.0911206
0.0956615
0.0999928
0.104107
0.108001
0.111673
0.115123
0.118355
0.121371
0.124177
0.126777
0.129175
0.131375
0.133381
0.135193
0.136809
0.138226
0.139434
0.14042
0.141163
0.141625
0.141772
0.141552
0.14088
0.139657
0.130643
0.119326
0.108015
0.0968743
0.0860323
0.0755908
0.0656314
0.0562206
0.0474148
0.0392636
0.0318126
0.0251034
0.0191881
0.0141114
0.00990731
0.00659035
0.0041315
0.00243824
0.00135976
0.000721652
0.000367289
0.000180433
8.65173e-05
4.06518e-05
1.8762e-05
8.51145e-06
3.80303e-06
1.67605e-06
7.29517e-07
3.14009e-07
1.33788e-07
5.64883e-08
2.36396e-08
9.80798e-09
4.01827e-09
1.61318e-09
6.17088e-10
2.0604e-10
3.61489e-11
4.44905e-07
1.94439e-06
4.46657e-06
8.69459e-06
1.57472e-05
2.74354e-05
4.66507e-05
7.79368e-05
0.000128304
0.000208338
0.000333629
0.000526464
0.000817581
0.00124756
0.00186719
0.0027359
0.0039177
0.00547456
0.00745854
0.00990463
0.0128266
0.0162164
0.0200473
0.0242775
0.0288558
0.0337249
0.0388252
0.0440971
0.0494827
0.0549274
0.060381
0.065798
0.0711382
0.0763672
0.0814559
0.0863804
0.0911212
0.0956632
0.0999955
0.104111
0.108005
0.111677
0.115127
0.118358
0.121373
0.124178
0.126775
0.129171
0.131368
0.13337
0.135177
0.136789
0.1382
0.139403
0.140384
0.141122
0.141581
0.141727
0.14151
0.140845
0.139636
0.130351
0.119016
0.107701
0.0965638
0.0857315
0.0753036
0.0653601
0.055967
0.04718
0.0390487
0.0316185
0.0249311
0.0190387
0.0139859
0.0098064
0.00651365
0.0040771
0.00240251
0.001338
0.000709269
0.000360636
0.000177021
8.48339e-05
3.98424e-05
1.83778e-05
8.34148e-06
3.7287e-06
1.64401e-06
7.15752e-07
3.0816e-07
1.31297e-07
5.54562e-08
2.32069e-08
9.63166e-09
3.94578e-09
1.58443e-09
6.0601e-10
2.02333e-10
3.55005e-11
4.44458e-07
1.94244e-06
4.46209e-06
8.68587e-06
1.57314e-05
2.74079e-05
4.66039e-05
7.78588e-05
0.000128176
0.000208132
0.000333305
0.000525962
0.000816821
0.00124644
0.00186559
0.00273368
0.00391473
0.00547074
0.00745379
0.00989895
0.01282
0.0162091
0.0200394
0.0242693
0.0288474
0.0337166
0.0388172
0.0440895
0.0494758
0.0549213
0.0603758
0.0657936
0.0711348
0.0763646
0.081454
0.0863792
0.0911205
0.095663
0.0999956
0.104111
0.108005
0.111677
0.115127
0.118357
0.121371
0.124173
0.126769
0.129162
0.131356
0.133355
0.135158
0.136766
0.138173
0.139372
0.140349
0.141084
0.141543
0.141694
0.141489
0.14085
0.139691
0.130161
0.118806
0.107484
0.0963497
0.0855246
0.0751068
0.0651753
0.0557951
0.0470218
0.0389047
0.031489
0.0248166
0.0189398
0.0139032
0.00974013
0.00646352
0.00404174
0.00237938
0.00132393
0.000701248
0.000356324
0.000174812
8.37506e-05
3.93459e-05
1.81408e-05
8.23388e-06
3.67922e-06
1.62294e-06
7.06493e-07
3.04345e-07
1.29677e-07
5.47916e-08
2.29281e-08
9.51874e-09
3.89929e-09
1.56606e-09
5.98921e-10
1.99961e-10
3.50857e-11
4.4424e-07
1.94149e-06
4.45992e-06
8.68164e-06
1.57238e-05
2.73947e-05
4.65815e-05
7.78215e-05
0.000128115
0.000208034
0.00033315
0.000525724
0.000816461
0.00124591
0.00186483
0.00273263
0.00391333
0.00546893
0.00745154
0.00989626
0.0128169
0.0162057
0.0200356
0.0242653
0.0288434
0.0337126
0.0388133
0.0440859
0.0494724
0.0549183
0.0603732
0.0657915
0.0711331
0.0763632
0.0814529
0.0863782
0.0911195
0.0956619
0.0999944
0.10411
0.108004
0.111675
0.115124
0.118354
0.121367
0.124168
0.126762
0.129154
0.131346
0.133342
0.135143
0.136747
0.138151
0.139347
0.140321
0.141053
0.141511
0.141662
0.14146
0.140828
0.139683
0.130066
0.118695
0.107368
0.0962351
0.0854148
0.0750036
0.0650795
0.055707
0.0469416
0.0388323
0.0314246
0.0247602
0.0188916
0.0138632
0.00970832
0.00643966
0.00402505
0.00236857
0.0013174
0.000697535
0.00035432
0.000173804
8.32534e-05
3.9121e-05
1.80336e-05
8.18618e-06
3.65713e-06
1.61327e-06
7.02194e-07
3.02521e-07
1.28889e-07
5.44673e-08
2.27919e-08
9.46354e-09
3.8766e-09
1.55709e-09
5.9546e-10
1.98803e-10
3.48832e-11
4.44241e-07
1.94149e-06
4.45993e-06
8.68166e-06
1.57238e-05
2.73947e-05
4.65816e-05
7.78216e-05
0.000128115
0.000208035
0.000333151
0.000525725
0.000816463
0.00124592
0.00186483
0.00273264
0.00391333
0.00546893
0.00745155
0.00989627
0.0128169
0.0162057
0.0200357
0.0242653
0.0288434
0.0337126
0.0388133
0.0440859
0.0494725
0.0549184
0.0603732
0.0657915
0.0711331
0.0763633
0.081453
0.0863782
0.0911195
0.0956619
0.0999944
0.10411
0.108004
0.111675
0.115124
0.118354
0.121367
0.124168
0.126762
0.129154
0.131346
0.133342
0.135143
0.136747
0.138151
0.139347
0.140321
0.141053
0.141511
0.141662
0.14146
0.140828
0.139683
0.130066
0.118695
0.107368
0.0962351
0.0854148
0.0750036
0.0650795
0.0557071
0.0469416
0.0388323
0.0314246
0.0247603
0.0188916
0.0138632
0.00970834
0.00643967
0.00402505
0.00236857
0.0013174
0.000697537
0.00035432
0.000173806
8.32545e-05
3.9121e-05
1.80336e-05
8.18605e-06
3.6571e-06
1.61324e-06
7.02182e-07
3.02513e-07
1.28886e-07
5.44656e-08
2.27913e-08
9.46318e-09
3.87647e-09
1.55702e-09
5.95437e-10
1.98796e-10
3.48819e-11
4.44461e-07
1.94245e-06
4.46212e-06
8.68593e-06
1.57315e-05
2.74081e-05
4.66042e-05
7.78593e-05
0.000128177
0.000208134
0.000333307
0.000525965
0.000816826
0.00124645
0.0018656
0.00273369
0.00391475
0.00547076
0.00745382
0.00989898
0.0128201
0.0162092
0.0200394
0.0242693
0.0288474
0.0337166
0.0388172
0.0440896
0.0494758
0.0549214
0.0603758
0.0657937
0.0711348
0.0763647
0.0814541
0.0863792
0.0911206
0.095663
0.0999956
0.104111
0.108005
0.111677
0.115127
0.118357
0.121371
0.124173
0.126769
0.129162
0.131356
0.133355
0.135158
0.136766
0.138173
0.139372
0.140349
0.141084
0.141544
0.141694
0.141489
0.14085
0.139691
0.130161
0.118806
0.107484
0.0963497
0.0855247
0.0751069
0.0651754
0.0557952
0.0470219
0.0389047
0.0314891
0.0248167
0.0189399
0.0139032
0.00974017
0.00646355
0.00404176
0.0023794
0.00132394
0.000701254
0.000356328
0.000174815
8.3753e-05
3.93459e-05
1.81411e-05
8.23363e-06
3.67918e-06
1.62286e-06
7.06468e-07
3.04323e-07
1.29671e-07
5.47873e-08
2.29269e-08
9.51782e-09
3.89899e-09
1.56586e-09
5.98861e-10
1.99942e-10
3.50823e-11
4.4491e-07
1.94441e-06
4.46662e-06
8.69469e-06
1.57474e-05
2.74358e-05
4.66512e-05
7.79376e-05
0.000128305
0.00020834
0.000333633
0.00052647
0.000817589
0.00124757
0.00186721
0.00273592
0.00391773
0.0054746
0.00745859
0.00990469
0.0128267
0.0162165
0.0200473
0.0242776
0.0288559
0.033725
0.0388253
0.0440972
0.0494828
0.0549275
0.0603811
0.0657981
0.0711383
0.0763673
0.0814559
0.0863804
0.0911213
0.0956633
0.0999955
0.104111
0.108005
0.111677
0.115127
0.118358
0.121373
0.124178
0.126775
0.129171
0.131368
0.13337
0.135177
0.136789
0.1382
0.139403
0.140384
0.141122
0.141581
0.141727
0.14151
0.140845
0.139636
0.130351
0.119016
0.107701
0.0965639
0.0857316
0.0753037
0.0653602
0.0559671
0.0471801
0.0390488
0.0316186
0.0249312
0.0190388
0.013986
0.00980647
0.0065137
0.00407714
0.00240254
0.00133802
0.000709281
0.000360644
0.000177027
8.48389e-05
3.98461e-05
1.83796e-05
8.34194e-06
3.72888e-06
1.64401e-06
7.15754e-07
3.08149e-07
1.31293e-07
5.54522e-08
2.32055e-08
9.63057e-09
3.94539e-09
1.58417e-09
6.05934e-10
2.02309e-10
3.54963e-11
4.45596e-07
1.94741e-06
4.4735e-06
8.70807e-06
1.57717e-05
2.7478e-05
4.67231e-05
7.80575e-05
0.000128502
0.000208657
0.000334133
0.000527245
0.000818761
0.0012493
0.00186968
0.00273935
0.00392233
0.00548054
0.00746596
0.00991351
0.0128368
0.0162279
0.0200596
0.0242905
0.028869
0.0337381
0.038838
0.0441091
0.0494937
0.0549372
0.0603893
0.0658047
0.0711434
0.0763708
0.081458
0.0863811
0.0911207
0.0956616
0.0999928
0.104107
0.108001
0.111673
0.115123
0.118355
0.121371
0.124177
0.126777
0.129175
0.131375
0.133381
0.135193
0.136809
0.138226
0.139434
0.14042
0.141163
0.141625
0.141772
0.141552
0.14088
0.139657
0.130643
0.119326
0.108015
0.0968744
0.0860324
0.0755909
0.0656315
0.0562208
0.047415
0.0392638
0.0318127
0.0251035
0.0191882
0.0141115
0.00990741
0.00659043
0.00413156
0.00243829
0.00135979
0.000721671
0.000367304
0.000180448
8.65376e-05
4.06812e-05
1.87705e-05
8.51382e-06
3.80366e-06
1.67624e-06
7.29563e-07
3.14023e-07
1.33791e-07
5.6488e-08
2.36394e-08
9.8074e-09
4.01806e-09
1.61299e-09
6.17034e-10
2.06023e-10
3.61458e-11
4.46531e-07
1.95149e-06
4.48288e-06
8.72634e-06
1.58048e-05
2.75358e-05
4.68213e-05
7.82214e-05
0.000128771
0.00020909
0.000334819
0.000528308
0.000820371
0.00125168
0.00187309
0.00274409
0.00392867
0.00548874
0.00747617
0.00992575
0.012851
0.0162437
0.0200768
0.0243085
0.0288875
0.0337565
0.0388558
0.0441259
0.0495091
0.0549509
0.060401
0.0658141
0.0711504
0.0763754
0.0814602
0.086381
0.0911185
0.0956573
0.0999868
0.1041
0.107993
0.111664
0.115114
0.118346
0.121363
0.12417
0.126771
0.129172
0.131376
0.133385
0.135202
0.136823
0.138246
0.13946
0.140452
0.1412
0.141668
0.141818
0.141598
0.140922
0.139685
0.131036
0.119739
0.10843
0.0972835
0.0864292
0.0759711
0.0659919
0.0565591
0.0477292
0.0395522
0.0320739
0.0253361
0.0193903
0.0142817
0.0100446
0.00669506
0.00420599
0.00248731
0.00138968
0.000738696
0.000376487
0.000185188
8.89171e-05
4.17768e-05
1.92631e-05
8.73673e-06
3.90367e-06
1.72059e-06
7.48943e-07
3.22349e-07
1.37328e-07
5.79689e-08
2.4257e-08
1.00588e-08
4.1209e-09
1.65372e-09
6.32661e-10
2.1124e-10
3.70578e-11
4.47733e-07
1.95674e-06
4.49494e-06
8.74983e-06
1.58474e-05
2.76102e-05
4.6948e-05
7.84329e-05
0.000129118
0.00020965
0.000335707
0.000529685
0.000822461
0.00125477
0.00187753
0.00275026
0.00393696
0.00549948
0.00748956
0.00994185
0.0128697
0.0162646
0.0200995
0.0243325
0.0289122
0.0337812
0.0388799
0.0441488
0.0495302
0.0549696
0.060417
0.0658272
0.0711602
0.0763818
0.0814633
0.0863808
0.091115
0.0956508
0.0999776
0.104088
0.107979
0.111649
0.115098
0.118329
0.121347
0.124155
0.126758
0.129161
0.131368
0.133381
0.135202
0.136829
0.138257
0.139478
0.140477
0.141231
0.141705
0.141859
0.141642
0.140963
0.139714
0.131534
0.120253
0.108949
0.0977958
0.0869274
0.0764499
0.0664471
0.0569875
0.0481281
0.0399192
0.0324069
0.025633
0.0196488
0.0144996
0.0102208
0.00682973
0.00430209
0.00255083
0.00142866
0.000761223
0.000389076
0.0001916
9.18484e-05
4.31298e-05
1.98944e-05
9.02688e-06
4.0344e-06
1.7783e-06
7.74057e-07
3.33124e-07
1.41904e-07
5.98907e-08
2.50575e-08
1.03885e-08
4.25558e-09
1.70725e-09
6.53132e-10
2.18073e-10
3.82525e-11
4.49222e-07
1.96325e-06
4.50988e-06
8.77895e-06
1.59002e-05
2.77025e-05
4.71053e-05
7.86961e-05
0.00012955
0.00021035
0.000336816
0.00053141
0.000825083
0.00125865
0.00188311
0.00275805
0.00394745
0.00551309
0.00750659
0.00996238
0.0128935
0.0162915
0.0201288
0.0243636
0.0289443
0.0338135
0.0389116
0.0441791
0.0495583
0.054995
0.0604391
0.0658454
0.0711743
0.0763916
0.0814686
0.0863817
0.0911115
0.0956432
0.0999662
0.104073
0.107961
0.111628
0.115076
0.118306
0.121323
0.124131
0.126736
0.129141
0.13135
0.133367
0.135192
0.136824
0.138258
0.139486
0.140491
0.141253
0.141734
0.141894
0.14168
0.141001
0.139741
0.132147
0.120884
0.109587
0.098423
0.0875373
0.0770366
0.067006
0.0575145
0.0486196
0.040372
0.032818
0.0259999
0.0199685
0.0147696
0.0104394
0.0069973
0.00442209
0.00263054
0.00147792
0.000789983
0.000403444
0.000198533
9.52932e-05
4.48108e-05
2.06846e-05
9.38867e-06
4.19676e-06
1.85e-06
8.05259e-07
3.46528e-07
1.47597e-07
6.2284e-08
2.60547e-08
1.08001e-08
4.42367e-09
1.77443e-09
6.78798e-10
2.26642e-10
3.97516e-11
4.51018e-07
1.97109e-06
4.52792e-06
8.81412e-06
1.59641e-05
2.78142e-05
4.7296e-05
7.90154e-05
0.000130076
0.000211201
0.00033817
0.000533519
0.000828294
0.00126342
0.00188999
0.00276766
0.00396043
0.00552999
0.0075278
0.00998803
0.0129235
0.0163254
0.020166
0.0244032
0.0289853
0.0338551
0.0389527
0.0442187
0.0495956
0.0550291
0.0604692
0.0658709
0.0711947
0.0764066
0.081478
0.0863855
0.0911098
0.0956361
0.099954
0.104057
0.10794
0.111604
0.115048
0.118277
0.121292
0.1241
0.126705
0.129111
0.131323
0.133342
0.135172
0.136809
0.138249
0.139483
0.140496
0.141265
0.141753
0.141919
0.14171
0.141032
0.139765
0.132886
0.121639
0.110339
0.0991731
0.0882681
0.077742
0.0676801
0.0581516
0.0492147
0.0409203
0.0333159
0.0264445
0.0203561
0.0150973
0.0107055
0.00720205
0.00456962
0.00272946
0.00154002
0.000822502
0.000420463
0.000207407
9.9683e-05
4.6905e-05
2.16598e-05
9.8338e-06
4.39632e-06
1.93803e-06
8.43532e-07
3.62955e-07
1.54568e-07
6.52131e-08
2.72745e-08
1.13036e-08
4.62916e-09
1.85663e-09
7.1023e-10
2.37131e-10
4.15873e-11
4.53137e-07
1.98035e-06
4.54922e-06
8.85571e-06
1.60398e-05
2.79467e-05
4.75223e-05
7.93952e-05
0.000130703
0.000212218
0.00033979
0.000536049
0.000832157
0.00126917
0.00189831
0.00277932
0.00397623
0.00555065
0.00755382