/*--------------------------------*- C++ -*----------------------------------*\
  =========                 |
  \\      /  F ield         | OpenFOAM: The Open Source CFD Toolbox
   \\    /   O peration     | Website:  https://openfoam.org
    \\  /    A nd           | Version:  8
     \\/     M anipulation  |
\*---------------------------------------------------------------------------*/
FoamFile
{
    version     2.0;
    format      ascii;
    class       volScalarField;
    location    "800/fluid";
    object      H2O;
}
// * * * * * * * * * * * * * * * * * * * * * * * * * * * * * * * * * * * * * //

dimensions      [0 0 0 0 0 0 0];

internalField   nonuniform List<scalar> 
4000
(
3.88413e-07
1.69722e-06
3.89786e-06
7.58636e-06
1.37423e-05
2.39594e-05
4.08006e-05
6.83279e-05
0.000112871
0.000184089
0.000296363
0.000470444
0.000735138
0.00112856
0.00169815
0.00249857
0.00358696
0.0050158
0.00682513
0.00903654
0.0116507
0.0146488
0.0179967
0.0216495
0.0255568
0.0296655
0.0339233
0.0382799
0.0426885
0.0471064
0.0514957
0.0558234
0.0600614
0.0641866
0.0681805
0.0720284
0.0757191
0.0792446
0.0826003
0.085784
0.0887953
0.0916359
0.0943087
0.0968173
0.0991664
0.101361
0.103405
0.105304
0.107062
0.108681
0.110164
0.111511
0.112719
0.113783
0.114694
0.115438
0.115995
0.116329
0.11641
0.116182
0.115567
0.11446
0.112189
0.10356
0.094789
0.0860233
0.077376
0.0689364
0.0607757
0.0529519
0.045514
0.0385052
0.0319661
0.0259673
0.0204861
0.0156093
0.0113895
0.00787847
0.00511437
0.00309255
0.00173891
0.000913849
0.000453116
0.000215445
9.95259e-05
4.49375e-05
1.99166e-05
8.69273e-06
3.74552e-06
1.59646e-06
6.74248e-07
2.82552e-07
1.17614e-07
4.8656e-08
1.9995e-08
8.13824e-09
3.25066e-09
1.24058e-09
4.14262e-10
7.26107e-11
3.88896e-07
1.69975e-06
3.90544e-06
7.60598e-06
1.37877e-05
2.40548e-05
4.0983e-05
6.86447e-05
0.000113362
0.00018474
0.000296996
0.000470537
0.000733602
0.00112331
0.00168577
0.00247415
0.00354432
0.00494816
0.00672622
0.00890176
0.011478
0.0144388
0.0177527
0.021377
0.0252623
0.0293564
0.0336067
0.0379626
0.0423765
0.0468047
0.0512085
0.0555538
0.0598118
0.0639584
0.0679744
0.0718447
0.0755574
0.0791043
0.0824805
0.0856833
0.0887125
0.0915696
0.0942572
0.0967793
0.0991403
0.101345
0.103399
0.105306
0.10707
0.108695
0.110183
0.111533
0.112744
0.11381
0.114723
0.115467
0.116024
0.116357
0.116436
0.116205
0.115584
0.114469
0.111496
0.102812
0.0939976
0.0851959
0.0765189
0.0680553
0.0598762
0.0520402
0.0445974
0.0375925
0.0310685
0.0250998
0.0196667
0.0148613
0.0107375
0.00734576
0.00471555
0.00282498
0.00158038
0.000831052
0.000414667
0.000198874
9.28016e-05
4.23363e-05
1.89468e-05
8.34015e-06
3.61896e-06
1.55099e-06
6.57665e-07
2.7634e-07
1.15207e-07
4.7693e-08
1.96003e-08
7.97494e-09
3.18388e-09
1.21455e-09
4.05436e-10
7.10524e-11
3.89915e-07
1.70441e-06
3.91714e-06
7.63108e-06
1.38371e-05
2.41452e-05
4.11376e-05
6.88894e-05
0.000113714
0.000185177
0.000297394
0.000470538
0.00073232
0.00111919
0.00167632
0.00245576
0.00351221
0.00489669
0.00664949
0.0087944
0.0113359
0.0142601
0.0175375
0.0211275
0.0249828
0.0290524
0.0332849
0.0376296
0.0420391
0.0464694
0.0508809
0.0552389
0.0595136
0.0636802
0.0677186
0.0716128
0.0753503
0.0789224
0.0823234
0.0855504
0.0886027
0.0914815
0.0941894
0.0967301
0.099108
0.101328
0.103395
0.105314
0.107088
0.108722
0.110216
0.111572
0.112787
0.113856
0.11477
0.115515
0.11607
0.1164
0.116474
0.116235
0.115601
0.114467
0.110277
0.101554
0.092703
0.0838719
0.0751747
0.0667017
0.0585255
0.0507063
0.0432958
0.0363406
0.0298859
0.0239968
0.0186785
0.0140103
0.0100418
0.00681478
0.00434398
0.00258987
0.00144632
0.000761575
0.000381444
0.000183763
8.61815e-05
3.95208e-05
1.77775e-05
7.86338e-06
3.42712e-06
1.47442e-06
6.27207e-07
2.64213e-07
1.10359e-07
4.57438e-08
1.88131e-08
7.65712e-09
3.05714e-09
1.1661e-09
3.89192e-10
6.81754e-11
3.89639e-07
1.70319e-06
3.91424e-06
7.62481e-06
1.38232e-05
2.4113e-05
4.10609e-05
6.87092e-05
0.000113306
0.000184299
0.000295602
0.000467085
0.000726066
0.0011084
0.00165854
0.00242774
0.00347003
0.00483607
0.00656624
0.00868498
0.0111979
0.0140924
0.0173404
0.0209028
0.0247334
0.0287823
0.0329986
0.0373324
0.0417363
0.0461662
0.0505823
0.0549496
0.0592375
0.0634207
0.0674783
0.0713939
0.0751542
0.0787497
0.0821745
0.085425
0.0885001
0.0914008
0.0941293
0.0966892
0.0990852
0.101321
0.103402
0.105333
0.107118
0.10876
0.110262
0.111622
0.112841
0.113911
0.114825
0.115568
0.116119
0.116441
0.116505
0.116251
0.115598
0.114436
0.108763
0.100026
0.0911598
0.0823182
0.0736198
0.0651584
0.0570088
0.0492329
0.0418836
0.035009
0.0286551
0.0228643
0.0176846
0.013168
0.00936042
0.00629633
0.0039788
0.00235468
0.00130832
0.000687312
0.000344328
0.000166213
7.81826e-05
3.59784e-05
1.62451e-05
7.21329e-06
3.15578e-06
1.36264e-06
5.81616e-07
2.45753e-07
1.02921e-07
4.2757e-08
1.76173e-08
7.18099e-09
2.87029e-09
1.09572e-09
3.65872e-10
6.40825e-11
3.88238e-07
1.69699e-06
3.89963e-06
7.5953e-06
1.37669e-05
2.40081e-05
4.08673e-05
6.83542e-05
0.00011266
0.000183134
0.000293536
0.00046349
0.000719957
0.00109831
0.00164239
0.00240281
0.00343306
0.00478349
0.00649457
0.00859127
0.0110801
0.0139496
0.017173
0.0207122
0.0245221
0.0285535
0.0327562
0.0370806
0.0414795
0.0459089
0.0503287
0.0547035
0.0590026
0.0631999
0.0672742
0.0712083
0.0749885
0.078605
0.082051
0.0853227
0.0884186
0.0913392
0.0940868
0.0966649
0.0990768
0.101327
0.103421
0.105363
0.107157
0.108807
0.110314
0.111678
0.112898
0.113967
0.114877
0.115614
0.116155
0.116464
0.116511
0.116235
0.115552
0.114354
0.107169
0.0984438
0.0895753
0.0807321
0.0720418
0.0636024
0.0554911
0.0477704
0.0404936
0.0337082
0.0274709
0.0217993
0.0167568
0.0123899
0.00873868
0.00583003
0.00365543
0.00214947
0.00118927
0.000623626
0.000312485
0.000151071
7.12142e-05
3.28526e-05
1.48713e-05
6.61955e-06
2.9027e-06
1.256e-06
5.37114e-07
2.27326e-07
9.53398e-08
3.96551e-08
1.63553e-08
6.67183e-09
2.66835e-09
1.01906e-09
3.40336e-10
5.95903e-11
3.85951e-07
1.68689e-06
3.87597e-06
7.5479e-06
1.36778e-05
2.38459e-05
4.05774e-05
6.78427e-05
0.000111768
0.000181601
0.00029094
0.000459179
0.000712958
0.00108724
0.00162541
0.00237763
0.00339702
0.00473382
0.00642871
0.00850714
0.0109764
0.0138259
0.0170297
0.0205508
0.0243445
0.0283625
0.0325549
0.0368725
0.0412681
0.0456977
0.0501213
0.0545031
0.0588121
0.0630218
0.0671106
0.0710608
0.0748584
0.0784931
0.0819576
0.0852478
0.0883619
0.0913002
0.0940647
0.0966576
0.0990833
0.101346
0.103451
0.105402
0.107204
0.108858
0.110368
0.111733
0.112951
0.114015
0.114917
0.115642
0.116167
0.116456
0.116479
0.116175
0.11546
0.114242
0.105839
0.0970522
0.0881339
0.0792619
0.0705658
0.0621429
0.0540689
0.0464044
0.0392008
0.0325037
0.0263781
0.0208197
0.0159105
0.0116867
0.00818106
0.00541425
0.00336801
0.00196689
0.00108264
0.000565876
0.000283117
0.000136881
6.45803e-05
2.9833e-05
1.35273e-05
6.03262e-06
2.6505e-06
1.14911e-06
4.92318e-07
2.08729e-07
8.76784e-08
3.65191e-08
1.50796e-08
6.15732e-09
2.46436e-09
9.41623e-10
3.14513e-10
5.50853e-11
3.83277e-07
1.67513e-06
3.84866e-06
7.49384e-06
1.35778e-05
2.3667e-05
4.02638e-05
6.73015e-05
0.000110846
0.000180052
0.000288379
0.000455017
0.000706334
0.00107696
0.00160987
0.00235488
0.00336486
0.00468998
0.00637113
0.00843426
0.0108873
0.0137205
0.0169086
0.0204153
0.0241966
0.0282044
0.0323893
0.0367023
0.0410963
0.0455273
0.049955
0.0543436
0.0586617
0.0628825
0.0669841
0.0709485
0.0747613
0.0784116
0.0818921
0.0851981
0.0883279
0.0912813
0.0940592
0.0966649
0.0991022
0.101375
0.103489
0.105447
0.107253
0.108911
0.110421
0.111784
0.112996
0.114051
0.114939
0.115644
0.116142
0.116394
0.116373
0.116011
0.115231
0.113956
0.105058
0.0959914
0.0869173
0.0779656
0.0692399
0.0608228
0.0527813
0.0451705
0.0380382
0.0314283
0.0254136
0.0199697
0.0151719
0.0110672
0.00769135
0.00505189
0.00311973
0.00181043
0.000991808
0.000516814
0.000258153
0.000124777
5.8889e-05
2.72235e-05
1.23558e-05
5.51624e-06
2.42646e-06
1.05324e-06
4.51781e-07
1.91761e-07
8.06361e-08
3.36181e-08
1.38933e-08
5.67674e-09
2.27316e-09
8.68844e-10
2.90203e-10
5.08406e-11
3.80485e-07
1.66289e-06
3.8203e-06
7.43795e-06
1.34748e-05
2.34841e-05
3.99458e-05
6.67574e-05
0.000109929
0.000178528
0.000285887
0.000451021
0.000700061
0.00106735
0.00159556
0.00233424
0.00333605
0.00465122
0.00632084
0.00837131
0.0108112
0.0136312
0.0168069
0.0203024
0.0240743
0.0280747
0.0322545
0.0365647
0.0409585
0.0453916
0.0498239
0.054219
0.0585456
0.0627765
0.0668895
0.0708664
0.0746923
0.0783562
0.0818503
0.08517
0.0883128
0.091278
0.0940674
0.0966836
0.0991302
0.101411
0.103531
0.105494
0.107304
0.108963
0.110472
0.11183
0.113035
0.114078
0.114948
0.115627
0.116085
0.116283
0.11618
0.115693
0.114718
0.113137
0.104081
0.094898
0.0857499
0.0767609
0.0680281
0.0596287
0.051625
0.0440691
0.0370061
0.0304774
0.0245432
0.0192017
0.0145171
0.0105277
0.00726738
0.00474076
0.00290774
0.00167708
0.000914289
0.000474778
0.000236632
0.000114277
5.39206e-05
2.49313e-05
1.13211e-05
5.05782e-06
2.2267e-06
9.67428e-07
4.15375e-07
1.76478e-07
7.42787e-08
3.09941e-08
1.28184e-08
5.24072e-09
2.0995e-09
8.02689e-10
2.68095e-10
4.69783e-11
3.77775e-07
1.65102e-06
3.79288e-06
7.3841e-06
1.33762e-05
2.33096e-05
3.96444e-05
6.62453e-05
0.000109072
0.000177116
0.0002836
0.000447384
0.000694402
0.00105876
0.00158288
0.00231608
0.00331093
0.00461767
0.00627765
0.00831764
0.0107467
0.0135562
0.0167222
0.0202091
0.0239738
0.027969
0.0321455
0.0364544
0.0408489
0.0452849
0.0497217
0.0541232
0.0584576
0.0626977
0.0668208
0.0708084
0.0746457
0.0783211
0.0818269
0.0851579
0.0883111
0.0912865
0.0940853
0.0967099
0.099164
0.101451
0.103576
0.105543
0.107354
0.109013
0.11052
0.111874
0.113072
0.114105
0.114961
0.11562
0.116051
0.116215
0.116063
0.115509
0.114438
0.112238
0.103079
0.0938327
0.0846511
0.0756539
0.0669347
0.0585682
0.0506147
0.0431247
0.0361414
0.0297032
0.0238695
0.0186287
0.0140379
0.0101318
0.00693436
0.00448198
0.00272874
0.0015643
0.000848739
0.000439224
0.000218406
0.000105364
4.96904e-05
2.29728e-05
1.04335e-05
4.66304e-06
2.05397e-06
8.92943e-07
3.83658e-07
1.6312e-07
6.87046e-08
2.86872e-08
1.18714e-08
4.85584e-09
1.94598e-09
7.44146e-10
2.4852e-10
4.35575e-11
3.75251e-07
1.63998e-06
3.76742e-06
7.33419e-06
1.32849e-05
2.31489e-05
3.93676e-05
6.57772e-05
0.000108293
0.000175839
0.000281542
0.000444132
0.000689376
0.00105118
0.00157177
0.00230029
0.00328924
0.00458892
0.00624088
0.00827229
0.0106926
0.0134937
0.016652
0.0201324
0.0238919
0.0278835
0.032058
0.0363667
0.0407627
0.0452017
0.0496432
0.0540507
0.0583922
0.0626404
0.0667724
0.0707695
0.0746165
0.0783019
0.0818172
0.0851572
0.0883194
0.091303
0.0941093
0.0967406
0.0992003
0.101492
0.103621
0.105589
0.107402
0.10906
0.110565
0.111916
0.113108
0.114134
0.114981
0.11563
0.11605
0.116203
0.116044
0.115493
0.114446
0.111273
0.102082
0.0928151
0.0836268
0.0746365
0.0659371
0.0576018
0.0496896
0.0422506
0.035328
0.028962
0.0231768
0.0180094
0.0135064
0.00970472
0.00663093
0.00426143
0.00257426
0.00146761
0.000792847
0.000408989
0.000202914
9.77844e-05
4.60882e-05
2.13022e-05
9.67489e-06
4.32488e-06
1.90569e-06
8.28863e-07
3.56316e-07
1.51582e-07
6.38821e-08
2.66884e-08
1.10497e-08
4.52154e-09
1.81252e-09
6.93223e-10
2.31489e-10
4.05815e-11
3.72974e-07
1.63002e-06
3.74447e-06
7.28931e-06
1.3203e-05
2.3005e-05
3.91207e-05
6.53609e-05
0.000107602
0.000174712
0.000279735
0.00044129
0.000685005
0.00104462
0.00156221
0.00228678
0.00327078
0.00456457
0.00620993
0.00823432
0.0106476
0.0134421
0.0165944
0.0200698
0.0238256
0.0278148
0.0319883
0.0362975
0.0406954
0.0451376
0.0495835
0.0539966
0.0583445
0.0625999
0.0667396
0.0707447
0.0746
0.0782935
0.0818168
0.0851645
0.0883338
0.0913241
0.0941362
0.0967727
0.0992366
0.101532
0.103663
0.105632
0.107445
0.109102
0.110605
0.111953
0.113141
0.114161
0.115002
0.115644
0.116056
0.116204
0.116041
0.115489
0.114448
0.110339
0.101143
0.0918827
0.0827097
0.0737432
0.0650782
0.0567854
0.0489226
0.0415389
0.0346653
0.0283404
0.0225982
0.0174927
0.0130621
0.00933825
0.00634256
0.00406853
0.00244623
0.00138564
0.00074561
0.000383486
0.000189861
9.13985e-05
4.30515e-05
1.98923e-05
9.03372e-06
4.03862e-06
1.77995e-06
7.74428e-07
3.33049e-07
1.41747e-07
5.97653e-08
2.49799e-08
1.03465e-08
4.23519e-09
1.69811e-09
6.49544e-10
2.16877e-10
3.80274e-11
3.70966e-07
1.62124e-06
3.72428e-06
7.24984e-06
1.31312e-05
2.28789e-05
3.89048e-05
6.4998e-05
0.000107002
0.000173735
0.000278174
0.000438845
0.00068126
0.00103903
0.00155409
0.00227535
0.00325523
0.00454417
0.00618412
0.00820283
0.0106105
0.0133997
0.0165474
0.0200192
0.0237723
0.02776
0.0319332
0.0362434
0.0406433
0.0450887
0.0495387
0.0539567
0.0583103
0.0625719
0.0667182
0.0707303
0.0745925
0.0782926
0.0818224
0.0851763
0.0883514
0.0913468
0.0941635
0.0968037
0.0992707
0.101568
0.1037
0.10567
0.107482
0.109138
0.110639
0.111983
0.113166
0.114182
0.115017
0.115652
0.116058
0.1162
0.116033
0.115479
0.11444
0.109508
0.100308
0.0910538
0.0818994
0.0729628
0.0643306
0.0560681
0.0482334
0.0408725
0.0340363
0.027762
0.0220846
0.0170445
0.0126813
0.00902627
0.00609891
0.00388861
0.0023352
0.00131759
0.000705632
0.000361974
0.00017889
8.604e-05
4.05051e-05
1.871e-05
8.49585e-06
3.79829e-06
1.67429e-06
7.2863e-07
3.1345e-07
1.33452e-07
5.62889e-08
2.35355e-08
9.75151e-09
3.9927e-09
1.60116e-09
6.12502e-10
2.04491e-10
3.58601e-11
3.69233e-07
1.61366e-06
3.70685e-06
7.21582e-06
1.30693e-05
2.27706e-05
3.87196e-05
6.46873e-05
0.000106489
0.000172903
0.000276849
0.000436775
0.000678099
0.00103432
0.00154728
0.0022658
0.0032423
0.00452727
0.00616283
0.00817698
0.0105802
0.0133653
0.0165095
0.0199785
0.0237298
0.0277166
0.03189
0.0362013
0.0406033
0.0450516
0.0495054
0.0539277
0.0582863
0.0625532
0.0667051
0.0707229
0.0745906
0.0782963
0.0818314
0.0851902
0.0883697
0.0913691
0.0941891
0.096832
0.0993009
0.1016
0.103732
0.105702
0.107513
0.109166
0.110664
0.112004
0.113183
0.114193
0.115022
0.115652
0.116052
0.116188
0.116017
0.115461
0.114425
0.108793
0.099585
0.0903352
0.0811947
0.0722696
0.0636489
0.0554098
0.047608
0.0402909
0.0335004
0.0272749
0.0216494
0.0166649
0.0123597
0.00876427
0.00589606
0.00374097
0.00223449
0.00126074
0.000673346
0.000344213
0.000169794
8.16056e-05
3.83988e-05
1.77318e-05
8.05046e-06
3.59905e-06
1.58657e-06
6.90557e-07
2.97133e-07
1.26537e-07
5.33867e-08
2.23283e-08
9.25368e-09
3.78967e-09
1.51994e-09
5.81438e-10
1.9413e-10
3.4046e-11
3.67764e-07
1.60725e-06
3.6921e-06
7.18706e-06
1.3017e-05
2.26792e-05
3.85637e-05
6.44261e-05
0.000106059
0.000172207
0.000275742
0.000435051
0.000675472
0.00103042
0.00154165
0.00225794
0.00323168
0.00451344
0.00614548
0.00815599
0.0105557
0.0133376
0.0164791
0.0199461
0.0236962
0.0276826
0.0318564
0.0361688
0.0405728
0.0450238
0.0494808
0.0539069
0.0582696
0.062541
0.0666975
0.0707198
0.0745921
0.0783022
0.0818413
0.0852039
0.0883868
0.0913891
0.0942114
0.096856
0.0993261
0.101625
0.103757
0.105726
0.107535
0.109186
0.11068
0.112017
0.113191
0.114196
0.115019
0.115643
0.116036
0.116167
0.115992
0.115436
0.114405
0.108188
0.0989673
0.089718
0.0805788
0.0716668
0.0630697
0.0548575
0.0470865
0.0398042
0.0330519
0.0268675
0.0212856
0.0163477
0.0120915
0.00854647
0.00572846
0.00362022
0.00215352
0.00120992
0.000646728
0.000330285
0.000162533
7.80138e-05
3.66855e-05
1.6934e-05
7.68629e-06
3.43578e-06
1.51454e-06
6.59237e-07
2.83689e-07
1.20832e-07
5.09893e-08
2.13299e-08
8.84162e-09
3.62147e-09
1.45266e-09
5.55706e-10
1.85543e-10
3.25433e-11
3.66547e-07
1.60193e-06
3.67988e-06
7.16324e-06
1.29738e-05
2.26037e-05
3.8435e-05
6.42109e-05
0.000105705
0.000171635
0.000274834
0.00043364
0.000673328
0.00102725
0.00153709
0.00225157
0.0032231
0.00450231
0.00613156
0.0081392
0.0105362
0.0133156
0.0164552
0.0199207
0.02367
0.0276562
0.0318305
0.0361441
0.0405497
0.045003
0.0494627
0.053892
0.0582581
0.062533
0.0666932
0.0707191
0.0745949
0.0783084
0.0818507
0.0852161
0.0884014
0.0914056
0.0942294
0.096875
0.0993454
0.101644
0.103776
0.105743
0.10755
0.109198
0.110688
0.11202
0.11319
0.114189
0.115007
0.115625
0.116012
0.116139
0.115961
0.115405
0.114382
0.107686
0.0984497
0.0891957
0.0800646
0.0711668
0.0625888
0.0543996
0.046655
0.0394019
0.0326813
0.026531
0.0209853
0.0160861
0.0118705
0.00836753
0.00559132
0.003522
0.00208828
0.00116959
0.000623188
0.000318525
0.00015686
7.5197e-05
3.53125e-05
1.62889e-05
7.39081e-06
3.30308e-06
1.45592e-06
6.33715e-07
2.72723e-07
1.16173e-07
4.90307e-08
2.05137e-08
8.5047e-09
3.4839e-09
1.39769e-09
5.34704e-10
1.78531e-10
3.13166e-11
3.65564e-07
1.59764e-06
3.67002e-06
7.14404e-06
1.2939e-05
2.25429e-05
3.83315e-05
6.4038e-05
0.000105421
0.000171177
0.000274108
0.000432513
0.00067162
0.00102472
0.00153346
0.00224653
0.00321633
0.00449353
0.0061206
0.00812604
0.0105209
0.0132985
0.0164366
0.019901
0.0236498
0.027636
0.0318108
0.0361254
0.0405325
0.0449877
0.0494496
0.0538813
0.0582501
0.0625278
0.0666907
0.0707193
0.0745978
0.0783137
0.0818582
0.0852256
0.0884125
0.0914179
0.0942425
0.0968884
0.0993586
0.101657
0.103787
0.105752
0.107556
0.109201
0.110688
0.112016
0.113181
0.114175
0.114987
0.115599
0.115982
0.116105
0.115925
0.115371
0.114359
0.107278
0.0980289
0.088771
0.079645
0.0707587
0.0621968
0.0540269
0.0463042
0.0390753
0.0323809
0.0262585
0.0207423
0.0158745
0.0116921
0.00822334
0.00548109
0.00344334
0.00203629
0.00113769
0.00060475
0.000308222
0.000151614
7.2805e-05
3.42213e-05
1.57758e-05
7.15415e-06
3.19622e-06
1.40871e-06
6.13159e-07
2.63903e-07
1.12427e-07
4.74576e-08
1.98585e-08
8.23501e-09
3.37373e-09
1.35394e-09
5.17968e-10
1.72945e-10
3.03398e-11
3.64799e-07
1.5943e-06
3.66236e-06
7.12911e-06
1.29119e-05
2.24957e-05
3.82512e-05
6.3904e-05
0.000105202
0.000170823
0.000273548
0.000431645
0.000670304
0.00102278
0.00153067
0.00224266
0.00321114
0.00448682
0.00611226
0.00811604
0.0105093
0.0132855
0.0164225
0.0198863
0.0236347
0.027621
0.0317962
0.0361116
0.0405199
0.0449765
0.0494401
0.0538737
0.0582444
0.062524
0.0666889
0.0707194
0.0745996
0.0783172
0.0818632
0.0852317
0.0884196
0.0914256
0.0942504
0.0968961
0.0993656
0.101663
0.103791
0.105754
0.107556
0.109198
0.110681
0.112004
0.113164
0.114154
0.114961
0.115569
0.115947
0.116067
0.115887
0.115337
0.114336
0.106956
0.0976914
0.0884311
0.0793101
0.0704339
0.0618855
0.0537318
0.0460273
0.0388181
0.0321448
0.0260447
0.0205519
0.0157091
0.0115529
0.00811103
0.00539546
0.00338242
0.00199617
0.00111322
0.00059081
0.000300696
0.000147719
7.08309e-05
3.32812e-05
1.53603e-05
6.96825e-06
3.11351e-06
1.37217e-06
5.97249e-07
2.57076e-07
1.09531e-07
4.62465e-08
1.93535e-08
8.02971e-09
3.28973e-09
1.32069e-09
5.05204e-10
1.68683e-10
2.95948e-11
3.6424e-07
1.59185e-06
3.65674e-06
7.11818e-06
1.28921e-05
2.24612e-05
3.81925e-05
6.38061e-05
0.000105041
0.000170564
0.000273139
0.000431012
0.000669346
0.00102137
0.00152865
0.00223986
0.00320738
0.00448198
0.00610624
0.00810883
0.010501
0.0132763
0.0164125
0.0198758
0.023624
0.0276103
0.0317859
0.0361019
0.040511
0.0449686
0.0494334
0.0538682
0.0582402
0.0625212
0.0666872
0.0707189
0.0746002
0.0783186
0.0818654
0.0852345
0.0884227
0.0914289
0.0942535
0.0968987
0.0993673
0.101663
0.10379
0.105751
0.10755
0.109189
0.110668
0.111988
0.113143
0.114128
0.114931
0.115535
0.115911
0.116031
0.115853
0.115308
0.114319
0.106717
0.0974376
0.0881735
0.0790559
0.0701877
0.0616504
0.0535097
0.0458197
0.0386259
0.0319688
0.0258858
0.0204109
0.0155868
0.0114502
0.00802841
0.00533267
0.00333789
0.00196692
0.00109541
0.000580672
0.00029525
0.000144925
6.94528e-05
3.26186e-05
1.50457e-05
6.82909e-06
3.05266e-06
1.34593e-06
5.8598e-07
2.52288e-07
1.07492e-07
4.54015e-08
1.89993e-08
7.88536e-09
3.23038e-09
1.29716e-09
4.96135e-10
1.65649e-10
2.9064e-11
3.63874e-07
1.59026e-06
3.65308e-06
7.11104e-06
1.28792e-05
2.24386e-05
3.81542e-05
6.37423e-05
0.000104937
0.000170396
0.000272874
0.000430601
0.000668724
0.00102045
0.00152734
0.00223804
0.00320495
0.00447884
0.00610235
0.00810418
0.0104956
0.0132703
0.0164061
0.019869
0.0236171
0.0276035
0.0317793
0.0360957
0.0405054
0.0449636
0.0494291
0.0538647
0.0582374
0.062519
0.0666857
0.0707179
0.0745996
0.0783184
0.0818655
0.0852348
0.088423
0.0914289
0.0942531
0.0968976
0.0993653
0.10166
0.103785
0.105744
0.10754
0.109176
0.110653
0.111969
0.113121
0.114102
0.114902
0.115504
0.11588
0.116004
0.115836
0.115312
0.114364
0.106561
0.0972657
0.0879965
0.0788806
0.0700183
0.0614893
0.0533584
0.045679
0.0384964
0.0318509
0.0257798
0.0203171
0.0155058
0.0113824
0.00797416
0.00529163
0.00330893
0.00194798
0.00108389
0.000574105
0.000291719
0.000143117
6.85659e-05
3.22122e-05
1.48518e-05
6.74101e-06
3.01215e-06
1.32869e-06
5.784e-07
2.49165e-07
1.06166e-07
4.48574e-08
1.87711e-08
7.79291e-09
3.19232e-09
1.28212e-09
4.90331e-10
1.63707e-10
2.87243e-11
3.63696e-07
1.58948e-06
3.65129e-06
7.10758e-06
1.28729e-05
2.24278e-05
3.81358e-05
6.37117e-05
0.000104887
0.000170316
0.000272747
0.000430405
0.00066843
0.00102002
0.00152672
0.00223718
0.00320381
0.00447736
0.00610051
0.00810198
0.0104931
0.0132675
0.016403
0.0198658
0.0236138
0.0276002
0.0317761
0.0360927
0.0405026
0.0449612
0.049427
0.0538629
0.058236
0.0625179
0.0666848
0.0707171
0.0745987
0.0783175
0.0818646
0.0852338
0.0884218
0.0914275
0.0942513
0.0968952
0.0993621
0.101656
0.103779
0.105737
0.107532
0.109166
0.11064
0.111954
0.113103
0.114082
0.114879
0.115479
0.115854
0.115977
0.115812
0.115295
0.114357
0.106484
0.0971748
0.0879016
0.0787868
0.0699284
0.0614048
0.05328
0.0456069
0.0384307
0.0317917
0.0257271
0.020271
0.0154664
0.0113497
0.00794812
0.00527209
0.00329527
0.00193913
0.00107854
0.000571066
0.000290078
0.000142292
6.81588e-05
3.2028e-05
1.47639e-05
6.70195e-06
2.99406e-06
1.32077e-06
5.7488e-07
2.47672e-07
1.0552e-07
4.45919e-08
1.86595e-08
7.74771e-09
3.17374e-09
1.27478e-09
4.87498e-10
1.62759e-10
2.85586e-11
3.63696e-07
1.58948e-06
3.6513e-06
7.1076e-06
1.2873e-05
2.24278e-05
3.81359e-05
6.37119e-05
0.000104887
0.000170316
0.000272748
0.000430406
0.000668431
0.00102002
0.00152672
0.00223718
0.00320381
0.00447737
0.00610052
0.00810199
0.0104931
0.0132675
0.016403
0.0198658
0.0236138
0.0276002
0.0317761
0.0360927
0.0405027
0.0449612
0.049427
0.0538629
0.058236
0.0625179
0.0666848
0.0707171
0.0745987
0.0783176
0.0818646
0.0852338
0.0884218
0.0914275
0.0942513
0.0968952
0.0993621
0.101656
0.103779
0.105737
0.107532
0.109166
0.11064
0.111954
0.113103
0.114082
0.114879
0.115479
0.115854
0.115977
0.115812
0.115295
0.114357
0.106484
0.0971748
0.0879016
0.0787868
0.0699284
0.0614048
0.05328
0.0456069
0.0384307
0.0317917
0.0257271
0.020271
0.0154664
0.0113497
0.00794813
0.0052721
0.00329528
0.00193913
0.00107854
0.000571067
0.000290079
0.000142293
6.81597e-05
3.2028e-05
1.4764e-05
6.70185e-06
2.99403e-06
1.32074e-06
5.7487e-07
2.47665e-07
1.05518e-07
4.45905e-08
1.86591e-08
7.74742e-09
3.17363e-09
1.27472e-09
4.87479e-10
1.62753e-10
2.85575e-11
3.63876e-07
1.59027e-06
3.6531e-06
7.11109e-06
1.28793e-05
2.24388e-05
3.81545e-05
6.37427e-05
0.000104937
0.000170397
0.000272875
0.000430603
0.000668728
0.00102046
0.00152735
0.00223805
0.00320497
0.00447886
0.00610237
0.00810421
0.0104957
0.0132703
0.0164061
0.0198691
0.0236171
0.0276035
0.0317793
0.0360957
0.0405054
0.0449636
0.0494291
0.0538647
0.0582375
0.0625191
0.0666857
0.0707179
0.0745996
0.0783185
0.0818655
0.0852348
0.088423
0.0914289
0.0942532
0.0968976
0.0993653
0.10166
0.103785
0.105744
0.10754
0.109176
0.110653
0.111969
0.113121
0.114102
0.114902
0.115504
0.11588
0.116004
0.115836
0.115312
0.114364
0.106561
0.0972657
0.0879966
0.0788807
0.0700183
0.0614894
0.0533585
0.0456791
0.0384964
0.031851
0.0257799
0.0203172
0.0155059
0.0113825
0.00797419
0.00529165
0.00330895
0.00194799
0.00108389
0.000574111
0.000291722
0.000143119
6.85678e-05
3.22122e-05
1.4852e-05
6.7408e-06
3.01211e-06
1.32862e-06
5.78379e-07
2.49147e-07
1.0616e-07
4.48539e-08
1.877e-08
7.79215e-09
3.19207e-09
1.28196e-09
4.90282e-10
1.63691e-10
2.87215e-11
3.64244e-07
1.59187e-06
3.65679e-06
7.11826e-06
1.28923e-05
2.24614e-05
3.81929e-05
6.38068e-05
0.000105042
0.000170566
0.000273142
0.000431016
0.000669353
0.00102138
0.00152866
0.00223987
0.00320741
0.00448201
0.00610628
0.00810888
0.0105011
0.0132763
0.0164126
0.0198759
0.023624
0.0276104
0.031786
0.036102
0.0405111
0.0449687
0.0494335
0.0538683
0.0582403
0.0625212
0.0666873
0.0707189
0.0746002
0.0783187
0.0818654
0.0852346
0.0884228
0.0914289
0.0942535
0.0968987
0.0993674
0.101663
0.10379
0.105751
0.10755
0.109189
0.110668
0.111988
0.113143
0.114128
0.114931
0.115535
0.115911
0.116031
0.115853
0.115308
0.114319
0.106717
0.0974377
0.0881736
0.079056
0.0701877
0.0616505
0.0535098
0.0458198
0.038626
0.0319689
0.0258859
0.0204109
0.0155869
0.0114502
0.00802847
0.00533271
0.00333792
0.00196694
0.00109542
0.000580682
0.000295256
0.00014493
6.94568e-05
3.26217e-05
1.50472e-05
6.82947e-06
3.0528e-06
1.34593e-06
5.85981e-07
2.52279e-07
1.07489e-07
4.53982e-08
1.89981e-08
7.88446e-09
3.23006e-09
1.29695e-09
4.96073e-10
1.65629e-10
2.90605e-11
3.64805e-07
1.59432e-06
3.66241e-06
7.12922e-06
1.29121e-05
2.2496e-05
3.82518e-05
6.3905e-05
0.000105203
0.000170825
0.000273552
0.000431651
0.000670313
0.00102279
0.00153069
0.00224269
0.00321117
0.00448687
0.00611232
0.00811611
0.0105094
0.0132856
0.0164226
0.0198864
0.0236348
0.0276211
0.0317963
0.0361117
0.04052
0.0449766
0.0494402
0.0538738
0.0582445
0.0625241
0.0666889
0.0707195
0.0745997
0.0783173
0.0818633
0.0852318
0.0884196
0.0914256
0.0942504
0.0968961
0.0993656
0.101663
0.103791
0.105754
0.107556
0.109198
0.110681
0.112005
0.113164
0.114154
0.114961
0.115569
0.115947
0.116067
0.115887
0.115337
0.114336
0.106956
0.0976914
0.0884312
0.0793102
0.070434
0.0618856
0.0537319
0.0460275
0.0388182
0.0321449
0.0260448
0.0205521
0.0157092
0.011553
0.00811111
0.00539553
0.00338247
0.0019962
0.00111325
0.000590826
0.000300708
0.000147731
7.08476e-05
3.33053e-05
1.53673e-05
6.97019e-06
3.11402e-06
1.37233e-06
5.97287e-07
2.57088e-07
1.09533e-07
4.62463e-08
1.93534e-08
8.02923e-09
3.28955e-09
1.32054e-09
5.0516e-10
1.68669e-10
2.95923e-11
3.65571e-07
1.59767e-06
3.67009e-06
7.14418e-06
1.29392e-05
2.25433e-05
3.83322e-05
6.40392e-05
0.000105423
0.00017118
0.000274113
0.000432521
0.000671631
0.00102474
0.00153348
0.00224656
0.00321637
0.00449358
0.00612067
0.00812613
0.010521
0.0132986
0.0164367
0.0199012
0.0236499
0.0276361
0.0318109
0.0361255
0.0405327
0.0449878
0.0494497
0.0538814
0.0582502
0.0625279
0.0666908
0.0707194
0.0745979
0.0783138
0.0818583
0.0852256
0.0884125
0.091418
0.0942426
0.0968885
0.0993586
0.101657
0.103787
0.105752
0.107556
0.109201
0.110688
0.112016
0.113181
0.114175
0.114987
0.115599
0.115982
0.116105
0.115925
0.115371
0.114359
0.107278
0.098029
0.0887711
0.0796451
0.0707588
0.0621969
0.054027
0.0463044
0.0390755
0.0323811
0.0262587
0.0207425
0.0158747
0.0116923
0.00822346
0.00548119
0.00344341
0.00203634
0.00113772
0.000604764
0.000308227
0.000151612
7.27956e-05
3.42023e-05
1.57705e-05
7.15268e-06
3.1959e-06
1.40863e-06
6.13153e-07
2.63904e-07
1.1243e-07
4.74586e-08
1.9859e-08
8.23506e-09
3.37375e-09
1.35388e-09
5.17954e-10
1.7294e-10
3.03389e-11
3.66555e-07
1.60197e-06
3.67997e-06
7.16341e-06
1.29741e-05
2.26042e-05
3.84359e-05
6.42123e-05
0.000105708
0.000171639
0.00027484
0.000433649
0.000673342
0.00102727
0.00153711
0.00225161
0.00322316
0.00450237
0.00613164
0.0081393
0.0105363
0.0133157
0.0164553
0.0199208
0.0236701
0.0276563
0.0318306
0.0361442
0.0405499
0.0450032
0.0494629
0.0538921
0.0582582
0.0625331
0.0666933
0.0707192
0.0745951
0.0783085
0.0818508
0.0852162
0.0884015
0.0914057
0.0942295
0.0968751
0.0993455
0.101644
0.103776
0.105743
0.10755
0.109198
0.110688
0.11202
0.11319
0.114189
0.115007
0.115625
0.116012
0.116139
0.115961
0.115405
0.114382
0.107686
0.0984497
0.0891957
0.0800645
0.0711667
0.0625889
0.0543997
0.0466551
0.0394021
0.0326815
0.0265312
0.0209855
0.0160863
0.0118707
0.00836769
0.00559144
0.00352209
0.00208834
0.00116963
0.000623207
0.000318533
0.000156862
7.51955e-05
3.531e-05
1.62873e-05
7.39023e-06
3.30292e-06
1.45588e-06
6.33713e-07
2.72726e-07
1.16176e-07
4.9032e-08
2.05144e-08
8.50497e-09
3.48401e-09
1.39771e-09
5.34713e-10
1.78534e-10
3.1317e-11
3.67774e-07
1.60729e-06
3.6922e-06
7.18725e-06
1.30174e-05
2.26798e-05
3.85647e-05
6.44278e-05
0.000106062
0.000172211
0.000275748
0.000435061
0.000675488
0.00103045
0.00154169
0.00225799
0.00323174
0.00451352
0.00614558
0.00815611
0.0105558
0.0133377
0.0164793
0.0199463
0.0236964
0.0276828
0.0318566
0.036169
0.040573
0.0450239
0.049481
0.0539071
0.0582698
0.0625411
0.0666976
0.0707199
0.0745922
0.0783023
0.0818415
0.085204
0.0883869
0.0913892
0.0942115
0.0968561
0.0993261
0.101625
0.103757
0.105726
0.107535
0.109186
0.110681
0.112017
0.113191
0.114196
0.115019
0.115643
0.116036
0.116167
0.115992
0.115436
0.114405
0.108188
0.098967
0.0897175
0.0805781
0.071666
0.0630692
0.0548573
0.0470866
0.0398045
0.0330522
0.0268678
0.0212859
0.016348
0.0120917
0.00854668
0.00572862
0.00362033
0.0021536
0.00120996
0.000646752
0.000330296
0.000162538
7.80157e-05
3.66862e-05
1.69343e-05
7.68642e-06
3.43585e-06
1.51458e-06
6.59258e-07
2.83699e-07
1.20836e-07
5.09914e-08
2.13308e-08
8.84199e-09
3.62162e-09
1.45271e-09
5.55726e-10
1.8555e-10
3.25443e-11
3.69244e-07
1.61371e-06
3.70696e-06
7.21605e-06
1.30697e-05
2.27713e-05
3.87208e-05
6.46892e-05
0.000106492
0.000172908
0.000276856
0.000436787
0.000678117
0.00103435
0.00154732
0.00226586
0.00324237
0.00452736
0.00616294
0.00817711
0.0105804
0.0133654
0.0165097
0.0199787
0.02373
0.0277168
0.0318902
0.0362015
0.0406035
0.0450518
0.0495056
0.0539279
0.0582865
0.0625534
0.0667053
0.0707231
0.0745908
0.0782964
0.0818315
0.0851903
0.0883698
0.0913692
0.0941892
0.0968321
0.099301
0.1016
0.103732
0.105702
0.107513
0.109166
0.110664
0.112004
0.113183
0.114193
0.115022
0.115652
0.116052
0.116188
0.116017
0.115461
0.114425
0.108792
0.0995845
0.0903339
0.0811921
0.0722644
0.0636467
0.0554091
0.0476082
0.0402916
0.0335011
0.0272755
0.0216499
0.0166653
0.01236
0.00876453
0.00589626
0.00374111
0.00223458
0.0012608
0.000673375
0.00034423
0.000169802
8.16096e-05
3.84007e-05
1.77327e-05
8.05085e-06
3.59923e-06
1.58665e-06
6.90592e-07
2.97148e-07