/*--------------------------------*- C++ -*----------------------------------*\
  =========                 |
  \\      /  F ield         | OpenFOAM: The Open Source CFD Toolbox
   \\    /   O peration     | Website:  https://openfoam.org
    \\  /    A nd           | Version:  8
     \\/     M anipulation  |
\*---------------------------------------------------------------------------*/
FoamFile
{
    version     2.0;
    format      ascii;
    class       volScalarField;
    location    "800/fluid";
    object      N2;
}
// * * * * * * * * * * * * * * * * * * * * * * * * * * * * * * * * * * * * * //

dimensions      [0 0 0 0 0 0 0];

internalField   nonuniform List<scalar> 
4000
(
2.31088e-06
1.00977e-05
2.31905e-05
4.51355e-05
8.17607e-05
0.000142549
0.000242748
0.000406527
0.000671544
0.00109527
0.00176327
0.00279902
0.00437389
0.00671468
0.0101036
0.0148658
0.0213413
0.0298423
0.040607
0.0537635
0.0693158
0.0871521
0.107069
0.128799
0.152042
0.176483
0.201811
0.227725
0.253947
0.280224
0.30633
0.332069
0.357274
0.381808
0.40556
0.428444
0.450393
0.471363
0.491326
0.51027
0.528197
0.545118
0.561054
0.576033
0.590085
0.603249
0.615563
0.627068
0.637805
0.647817
0.657145
0.66583
0.673911
0.681427
0.688415
0.69491
0.700945
0.706478
0.71156
0.71642
0.72094
0.725148
0.729014
0.732725
0.736276
0.73967
0.74291
0.745995
0.748924
0.751694
0.754302
0.756742
0.759006
0.761076
0.762961
0.764636
0.766086
0.767293
0.768242
0.768937
0.769402
0.769686
0.769844
0.769926
0.769966
0.769985
0.769993
0.769997
0.769999
0.769999
0.77
0.77
0.77
0.77
0.77
0.77
0.77
0.77
0.77
0.77
2.31371e-06
1.01125e-05
2.32352e-05
4.52514e-05
8.20294e-05
0.000143113
0.000243828
0.000408404
0.000674457
0.00109913
0.00176702
0.00279953
0.0043647
0.00668334
0.0100298
0.0147204
0.0210875
0.0294398
0.0400185
0.0529618
0.0682885
0.0859034
0.105618
0.127179
0.150292
0.174646
0.199929
0.22584
0.252094
0.278433
0.304626
0.33047
0.355793
0.380454
0.404338
0.427355
0.449436
0.470533
0.490618
0.509677
0.527711
0.544731
0.560758
0.575817
0.589943
0.603173
0.615545
0.627101
0.637883
0.647933
0.657293
0.666006
0.67411
0.681646
0.688649
0.695157
0.701203
0.70674
0.711825
0.71669
0.721213
0.725418
0.72929
0.73301
0.736569
0.739971
0.743216
0.746306
0.749239
0.752012
0.75462
0.757057
0.759315
0.761373
0.763242
0.764893
0.76631
0.767475
0.768379
0.769029
0.769457
0.769714
0.769857
0.769932
0.769968
0.769985
0.769993
0.769997
0.769999
0.769999
0.77
0.77
0.77
0.77
0.77
0.77
0.77
0.77
0.77
0.77
2.31973e-06
1.01401e-05
2.33044e-05
4.53999e-05
8.23217e-05
0.00014365
0.000244745
0.000409855
0.00067654
0.00110172
0.00176937
0.00279951
0.00435703
0.00665879
0.00997355
0.014611
0.0208965
0.0291337
0.0395622
0.0523233
0.0674441
0.0848409
0.104339
0.125696
0.148631
0.17284
0.198017
0.223862
0.250091
0.276443
0.302682
0.328602
0.354025
0.378805
0.402822
0.425982
0.448211
0.469459
0.489692
0.508896
0.527069
0.54422
0.560369
0.575542
0.589772
0.603097
0.615554
0.627186
0.638035
0.648143
0.657555
0.666311
0.674452
0.682019
0.689048
0.695576
0.701638
0.70718
0.712269
0.717132
0.721646
0.725849
0.729739
0.733473
0.737041
0.740448
0.743695
0.746784
0.749712
0.752476
0.755071
0.757489
0.759722
0.761752
0.763581
0.765185
0.766549
0.767658
0.768507
0.76911
0.769503
0.769738
0.769869
0.769937
0.76997
0.769986
0.769994
0.769997
0.769999
0.769999
0.77
0.77
0.77
0.77
0.77
0.77
0.77
0.77
0.77
0.77
2.31803e-06
1.01326e-05
2.32865e-05
4.53615e-05
8.22373e-05
0.000143454
0.000244283
0.000408774
0.000674102
0.00109647
0.00175868
0.00277894
0.00431978
0.00659458
0.00986773
0.0144443
0.0206456
0.0287731
0.0390671
0.0516727
0.0666235
0.0838439
0.103167
0.124361
0.14715
0.171236
0.196318
0.222098
0.248294
0.274644
0.300911
0.326886
0.352389
0.377268
0.401401
0.424688
0.447053
0.468441
0.488817
0.508162
0.526472
0.543756
0.560032
0.575323
0.589665
0.603089
0.615636
0.627349
0.638271
0.648443
0.65791
0.666714
0.674896
0.682496
0.689553
0.696103
0.702181
0.70772
0.712801
0.717663
0.722184
0.726383
0.730288
0.734029
0.7376
0.741006
0.744249
0.747329
0.750244
0.75299
0.75556
0.757949
0.760146
0.762141
0.763922
0.765474
0.766783
0.767836
0.768632
0.769191
0.76955
0.769764
0.769882
0.769943
0.769973
0.769988
0.769994
0.769998
0.769999
0.77
0.77
0.77
0.77
0.77
0.77
0.77
0.77
0.77
0.77
0.77
2.30964e-06
1.00954e-05
2.31992e-05
4.51851e-05
8.19009e-05
0.000142828
0.000243128
0.000406657
0.00067025
0.00108954
0.00174638
0.00275754
0.00428343
0.00653451
0.00977164
0.014296
0.0204258
0.0284605
0.038641
0.0511158
0.0659236
0.0829958
0.102173
0.123229
0.145895
0.169878
0.19488
0.220605
0.246772
0.273119
0.299409
0.32543
0.351
0.375963
0.400195
0.423593
0.446078
0.467591
0.488094
0.507566
0.526002
0.543406
0.559798
0.575203
0.589646
0.603165
0.615799
0.627589
0.63858
0.648813
0.658333
0.667181
0.675401
0.683031
0.690113
0.696682
0.702766
0.708288
0.713375
0.718251
0.72277
0.726932
0.730866
0.734609
0.738179
0.74158
0.744814
0.74788
0.750777
0.7535
0.756043
0.758398
0.760554
0.762507
0.76424
0.765741
0.766996
0.767996
0.768743
0.769261
0.769591
0.769786
0.769893
0.769948
0.769976
0.769989
0.769995
0.769998
0.769999
0.77
0.77
0.77
0.77
0.77
0.77
0.77
0.77
0.77
0.77
0.77
2.296e-06
1.00352e-05
2.3058e-05
4.49025e-05
8.137e-05
0.000141862
0.000241401
0.000403611
0.00066494
0.00108041
0.00173093
0.00273188
0.00424179
0.0064687
0.00967069
0.0141463
0.0202115
0.0281653
0.0382496
0.050616
0.0653076
0.0822611
0.101323
0.122271
0.144842
0.168746
0.193687
0.219371
0.24552
0.271869
0.298182
0.324246
0.349875
0.374913
0.399231
0.422726
0.445315
0.466937
0.487553
0.507138
0.525686
0.5432
0.559696
0.575193
0.589725
0.603326
0.616036
0.627895
0.638945
0.649231
0.658795
0.667681
0.67593
0.683584
0.690682
0.69726
0.703356
0.708875
0.713978
0.718855
0.723369
0.727492
0.731425
0.73517
0.738737
0.742131
0.745353
0.748403
0.751279
0.753977
0.756492
0.758815
0.76093
0.762843
0.764531
0.765983
0.767188
0.768139
0.768842
0.769324
0.769628
0.769805
0.769903
0.769953
0.769978
0.76999
0.769995
0.769998
0.769999
0.77
0.77
0.77
0.77
0.77
0.77
0.77
0.77
0.77
0.77
0.77
2.28006e-06
9.96519e-06
2.28953e-05
4.45805e-05
8.0774e-05
0.000140796
0.000239534
0.000400389
0.000659456
0.0010712
0.00171569
0.00270713
0.0042024
0.00640753
0.00957832
0.0140111
0.0200204
0.0279048
0.0379076
0.0501831
0.0647787
0.0816355
0.100604
0.121468
0.143965
0.167809
0.192706
0.218364
0.244504
0.270862
0.297201
0.323305
0.348989
0.374094
0.39849
0.42207
0.444749
0.466465
0.487176
0.506857
0.5255
0.543108
0.55969
0.575271
0.589881
0.603554
0.616328
0.628244
0.639345
0.649674
0.659275
0.66819
0.676462
0.684131
0.691237
0.697818
0.703914
0.709385
0.714612
0.719459
0.723951
0.728041
0.731961
0.735698
0.739256
0.742639
0.745848
0.748881
0.751736
0.75441
0.756896
0.759187
0.761262
0.763135
0.764785
0.766195
0.767356
0.768263
0.768927
0.769378
0.769659
0.769822
0.769911
0.769957
0.76998
0.769991
0.769996
0.769998
0.769999
0.77
0.77
0.77
0.77
0.77
0.77
0.77
0.77
0.77
0.77
0.77
2.26344e-06
9.89227e-06
2.27265e-05
4.42477e-05
8.01614e-05
0.000139707
0.000237642
0.000397153
0.000653999
0.00106213
0.00170088
0.00268337
0.00416511
0.00635042
0.00949329
0.0138884
0.0198493
0.0276746
0.0376091
0.0498095
0.0643269
0.0811061
0.100002
0.120799
0.143241
0.167042
0.191909
0.217552
0.243691
0.270063
0.296429
0.322573
0.348309
0.373475
0.397939
0.421594
0.444354
0.466154
0.486949
0.506714
0.525437
0.543118
0.559773
0.575424
0.590098
0.603829
0.616656
0.628619
0.63976
0.650124
0.659754
0.668692
0.676983
0.684667
0.691785
0.698377
0.70445
0.709917
0.715149
0.719991
0.724472
0.728545
0.732455
0.736182
0.73973
0.743101
0.746295
0.74931
0.752145
0.754795
0.757254
0.759515
0.761562
0.763399
0.765009
0.766381
0.767501
0.76837
0.769
0.769423
0.769686
0.769837
0.769919
0.769961
0.769981
0.769991
0.769996
0.769998
0.769999
0.77
0.77
0.77
0.77
0.77
0.77
0.77
0.77
0.77
0.77
0.77
2.24731e-06
9.82163e-06
2.25633e-05
4.39273e-05
7.95742e-05
0.00013867
0.000235849
0.000394108
0.000648904
0.00105374
0.00168728
0.00266176
0.00413149
0.00629939
0.00941796
0.0137806
0.0197002
0.0274755
0.0373528
0.0494913
0.0639449
0.0806619
0.0994996
0.120247
0.142647
0.166417
0.191266
0.216902
0.243046
0.269436
0.29583
0.322013
0.347796
0.373017
0.397542
0.421262
0.444089
0.465957
0.486824
0.50666
0.52545
0.543198
0.559915
0.575624
0.590351
0.60413
0.616999
0.629
0.640173
0.650563
0.660214
0.669169
0.677471
0.685162
0.692281
0.698868
0.704919
0.710381
0.715607
0.720441
0.724914
0.728984
0.732891
0.736611
0.74015
0.743509
0.746688
0.749686
0.752499
0.755123
0.757553
0.759782
0.761793
0.763596
0.765174
0.766517
0.767616
0.768459
0.769062
0.769462
0.769708
0.769849
0.769925
0.769964
0.769983
0.769992
0.769996
0.769998
0.769999
0.77
0.77
0.77
0.77
0.77
0.77
0.77
0.77
0.77
0.77
0.77
2.2323e-06
9.75594e-06
2.24118e-05
4.36305e-05
7.90317e-05
0.000137714
0.000234204
0.000391325
0.000644272
0.00104615
0.00167506
0.00264244
0.00410164
0.0062544
0.00935202
0.0136869
0.0195715
0.027305
0.0371349
0.0492226
0.0636247
0.0802922
0.099085
0.119794
0.142164
0.165914
0.190751
0.216387
0.242541
0.26895
0.295373
0.321593
0.34742
0.372691
0.39727
0.421049
0.443936
0.465866
0.486791
0.506682
0.525528
0.54333
0.560098
0.575853
0.590623
0.60444
0.617343
0.629373
0.64057
0.65098
0.660647
0.669613
0.677922
0.685617
0.692737
0.699321
0.705355
0.710805
0.716022
0.720845
0.725306
0.729372
0.733276
0.736992
0.740525
0.743874
0.747042
0.750025
0.752821
0.755426
0.757833
0.760036
0.762031
0.763808
0.765356
0.766663
0.76772
0.768535
0.769115
0.769495
0.769727
0.769859
0.76993
0.769966
0.769984
0.769993
0.769997
0.769999
0.769999
0.77
0.77
0.77
0.77
0.77
0.77
0.77
0.77
0.77
0.77
0.77
2.21876e-06
9.69673e-06
2.22755e-05
4.33637e-05
7.85452e-05
0.000136859
0.000232737
0.000388853
0.000640171
0.00103945
0.00166433
0.00262558
0.0040757
0.0062155
0.00929531
0.0136068
0.019462
0.0271607
0.0369516
0.0489979
0.0633586
0.079987
0.098745
0.119425
0.141774
0.16551
0.190343
0.215983
0.242149
0.268579
0.295029
0.321283
0.347149
0.372463
0.397089
0.420916
0.443854
0.465835
0.48681
0.506752
0.525646
0.543492
0.560302
0.576095
0.590899
0.604746
0.617676
0.629727
0.640943
0.651368
0.661045
0.670019
0.678333
0.686028
0.693147
0.699727
0.705749
0.711186
0.716394
0.721205
0.725649
0.729716
0.733616
0.737325
0.740848
0.744187
0.74734
0.750307
0.753085
0.755671
0.758061
0.760249
0.762229
0.763985
0.765508
0.766788
0.767819
0.768601
0.769159
0.769523
0.769744
0.769868
0.769935
0.769969
0.769985
0.769993
0.769997
0.769999
0.769999
0.77
0.77
0.77
0.77
0.77
0.77
0.77
0.77
0.77
0.77
0.77
2.20683e-06
9.64459e-06
2.21555e-05
4.31293e-05
7.81183e-05
0.000136111
0.000231455
0.000386698
0.000636608
0.00103366
0.00165507
0.00261107
0.00405349
0.00618233
0.00924716
0.013539
0.0193699
0.02704
0.0367989
0.0488118
0.0631395
0.0797372
0.0984686
0.119128
0.141461
0.16519
0.190022
0.215669
0.241848
0.268298
0.294774
0.321059
0.34696
0.372314
0.396981
0.420851
0.443832
0.465855
0.486872
0.506854
0.525787
0.543669
0.560512
0.576335
0.591166
0.605038
0.617987
0.630056
0.641285
0.65172
0.661405
0.670383
0.678698
0.686393
0.693506
0.700078
0.706091
0.711522
0.716721
0.72152
0.725952
0.730018
0.733913
0.737616
0.74113
0.744457
0.747598
0.750554
0.753322
0.755899
0.758276
0.760447
0.762404
0.764138
0.765638
0.766895
0.767902
0.768662
0.769197
0.769547
0.769757
0.769875
0.769938
0.76997
0.769986
0.769994
0.769997
0.769999
0.769999
0.77
0.77
0.77
0.77
0.77
0.77
0.77
0.77
0.77
0.77
0.77
2.19654e-06
9.5996e-06
2.2052e-05
4.29274e-05
7.77512e-05
0.000135468
0.000230357
0.000384855
0.000633568
0.00102873
0.00164721
0.00259881
0.00403476
0.00615446
0.00920685
0.0134826
0.0192935
0.0269401
0.0366732
0.0486593
0.0629609
0.0795347
0.098246
0.11889
0.141213
0.164938
0.189772
0.215427
0.24162
0.268089
0.294589
0.320901
0.346833
0.372219
0.396922
0.420828
0.443845
0.465904
0.486956
0.506972
0.525936
0.543848
0.560718
0.576565
0.591417
0.605307
0.618272
0.630353
0.641593
0.652035
0.661724
0.670705
0.679019
0.68671
0.693819
0.70039
0.706394
0.711814
0.717002
0.72179
0.72621
0.730277
0.734168
0.737866
0.741373
0.744694
0.747831
0.750779
0.753536
0.756098
0.758459
0.760614
0.762552
0.764267
0.765748
0.766985
0.767972
0.768713
0.769231
0.769566
0.769768
0.769882
0.769942
0.769972
0.769987
0.769994
0.769997
0.769999
0.769999
0.77
0.77
0.77
0.77
0.77
0.77
0.77
0.77
0.77
0.77
0.77
2.18783e-06
9.56155e-06
2.19646e-05
4.27568e-05
7.74413e-05
0.000134926
0.000229433
0.000383308
0.000631019
0.0010246
0.00164065
0.00258859
0.00401921
0.00613139
0.00917358
0.0134361
0.0192307
0.0268585
0.036571
0.0485358
0.0628169
0.0793724
0.0980685
0.118701
0.141018
0.164741
0.18958
0.215242
0.241449
0.267935
0.294456
0.320793
0.346751
0.372166
0.396899
0.420834
0.443881
0.46597
0.487051
0.507094
0.526084
0.544019
0.56091
0.576777
0.591645
0.605549
0.618526
0.630616
0.641863
0.65231
0.662001
0.67098
0.679292
0.686982
0.694091
0.700657
0.706651
0.712064
0.717243
0.722022
0.726425
0.730496
0.734385
0.738078
0.741583
0.744899
0.748028
0.750966
0.753713
0.756263
0.758612
0.760752
0.762676
0.764375
0.76584
0.767059
0.768029
0.768754
0.769259
0.769584
0.769777
0.769886
0.769944
0.769973
0.769987
0.769994
0.769997
0.769999
0.769999
0.77
0.77
0.77
0.77
0.77
0.77
0.77
0.77
0.77
0.77
0.77
2.18062e-06
9.53004e-06
2.18922e-05
4.26157e-05
7.71853e-05
0.000134479
0.000228671
0.000382034
0.000628925
0.00102122
0.00163529
0.00258025
0.00400654
0.00611262
0.00914659
0.0133985
0.0191802
0.0267929
0.036489
0.0484372
0.0627024
0.079244
0.0979289
0.118554
0.140867
0.16459
0.189433
0.215104
0.241323
0.267824
0.294363
0.32072
0.346701
0.37214
0.396897
0.420857
0.443929
0.466042
0.487146
0.507211
0.526221
0.544175
0.561083
0.576964
0.591846
0.605761
0.618746
0.630843
0.642094
0.652543
0.662234
0.671215
0.679529
0.687217
0.694321
0.700882
0.706868
0.712273
0.717446
0.722218
0.726601
0.730678
0.734565
0.738256
0.741757
0.745068
0.748189
0.751121
0.753859
0.7564
0.758738
0.760867
0.762778
0.764465
0.765915
0.76712
0.768076
0.768788
0.769281
0.769597
0.769786
0.76989
0.769946
0.769974
0.769988
0.769994
0.769997
0.769999
0.769999
0.77
0.77
0.77
0.77
0.77
0.77
0.77
0.77
0.77
0.77
0.77
2.1748e-06
9.50464e-06
2.18338e-05
4.25021e-05
7.69793e-05
0.000134119
0.000228059
0.000381011
0.000627247
0.00101851
0.001631
0.0025736
0.00399645
0.00609772
0.0091252
0.0133688
0.0191403
0.0267413
0.0364248
0.0483602
0.0626133
0.0791444
0.0978212
0.118441
0.140752
0.164476
0.189323
0.215002
0.241231
0.267745
0.294299
0.320674
0.346673
0.372131
0.396908
0.420888
0.44398
0.466112
0.487235
0.507317
0.526343
0.544312
0.561233
0.577125
0.592016
0.605938
0.618929
0.63103
0.642283
0.652735
0.66243
0.671412
0.679724
0.687409
0.69451
0.701067
0.707045
0.712445
0.717612
0.722378
0.726744
0.730825
0.73471
0.738399
0.741896
0.745203
0.74832
0.751245
0.753976
0.75651
0.758839
0.760959
0.762861
0.764536
0.765976
0.76717
0.768113
0.768815
0.769299
0.769608
0.769792
0.769894
0.769948
0.769975
0.769988
0.769995
0.769998
0.769999
0.77
0.77
0.77
0.77
0.77
0.77
0.77
0.77
0.77
0.77
0.77
0.77
2.17028e-06
9.48492e-06
2.17885e-05
4.24139e-05
7.68194e-05
0.000133841
0.000227585
0.000380221
0.000625951
0.00101642
0.00162769
0.00256847
0.0039887
0.00608627
0.0091088
0.013346
0.0191098
0.026702
0.0363759
0.0483018
0.062546
0.0790695
0.0977404
0.118356
0.140667
0.164392
0.189243
0.214928
0.241166
0.26769
0.294257
0.320645
0.346659
0.372132
0.396923
0.42092
0.444027
0.466174
0.487311
0.507406
0.526444
0.544423
0.561354
0.577254
0.592152
0.606079
0.619075
0.631181
0.642439
0.652892
0.662587
0.671568
0.679878
0.687562
0.69466
0.701213
0.707186
0.712581
0.717743
0.722503
0.726857
0.730942
0.734825
0.738512
0.742006
0.745309
0.748422
0.751342
0.754068
0.756595
0.758919
0.761031
0.762925
0.764592
0.766023
0.767208
0.768143
0.768836
0.769313
0.769617
0.769797
0.769896
0.769949
0.769976
0.769989
0.769995
0.769998
0.769999
0.77
0.77
0.77
0.77
0.77
0.77
0.77
0.77
0.77
0.77
0.77
0.77
2.16698e-06
9.4705e-06
2.17554e-05
4.23495e-05
7.67027e-05
0.000133637
0.000227239
0.000379644
0.000625005
0.0010149
0.00162529
0.00256475
0.00398306
0.00607797
0.00909692
0.0133296
0.0190878
0.0266736
0.0363408
0.0482598
0.0624978
0.0790159
0.097683
0.118297
0.140606
0.164333
0.189187
0.214877
0.241121
0.267654
0.29423
0.320628
0.346652
0.372136
0.396939
0.420947
0.444065
0.466222
0.487369
0.507474
0.52652
0.544507
0.561444
0.577351
0.592254
0.606187
0.619187
0.631295
0.642555
0.653009
0.662704
0.671684
0.679993
0.687675
0.69477
0.701321
0.707291
0.712682
0.71784
0.722596
0.726939
0.731028
0.734909
0.738594
0.742086
0.745387
0.748497
0.751414
0.754136
0.756659
0.758977
0.761084
0.762972
0.764634
0.766058
0.767236
0.768164
0.768851
0.769323
0.769623
0.7698
0.769898
0.76995
0.769976
0.769989
0.769995
0.769998
0.769999
0.77
0.77
0.77
0.77
0.77
0.77
0.77
0.77
0.77
0.77
0.77
0.77
2.16483e-06
9.46109e-06
2.17339e-05
4.23075e-05
7.66266e-05
0.000133505
0.000227014
0.000379269
0.000624391
0.00101391
0.00162373
0.00256234
0.00397941
0.0060726
0.00908924
0.0133189
0.0190736
0.0266554
0.0363181
0.0482328
0.0624668
0.0789817
0.0976463
0.118259
0.140568
0.164296
0.189152
0.214846
0.241094
0.267632
0.294214
0.320618
0.34665
0.372141
0.396952
0.420967
0.444093
0.466257
0.48741
0.507521
0.526573
0.544566
0.561508
0.577419
0.592325
0.606261
0.619263
0.631372
0.642632
0.653087
0.662782
0.671761
0.680069
0.687749
0.694843
0.701391
0.707362
0.71275
0.717905
0.722658
0.726993
0.731084
0.734965
0.738649
0.74214
0.745439
0.748546
0.751461
0.754181
0.7567
0.759016
0.761119
0.763004
0.764661
0.766081
0.767254
0.768178
0.768861
0.769329
0.769627
0.769802
0.7699
0.769951
0.769976
0.769989
0.769995
0.769998
0.769999
0.77
0.77
0.77
0.77
0.77
0.77
0.77
0.77
0.77
0.77
0.77
0.77
2.16378e-06
9.45653e-06
2.17234e-05
4.22872e-05
7.659e-05
0.000133441
0.000226906
0.00037909
0.000624099
0.00101344
0.00162298
0.00256119
0.00397769
0.00607006
0.00908561
0.0133139
0.0190669
0.0266467
0.0363075
0.0482201
0.0624522
0.0789655
0.0976289
0.118241
0.14055
0.164279
0.189136
0.214831
0.241081
0.267622
0.294207
0.320614
0.34665
0.372145
0.396959
0.420978
0.444107
0.466275
0.487431
0.507545
0.5266
0.544595
0.561539
0.577452
0.59236
0.606297
0.6193
0.63141
0.64267
0.653125
0.66282
0.671799
0.680106
0.687786
0.694879
0.701426
0.707397
0.712783
0.717938
0.722689
0.72702
0.731112
0.734992
0.738676
0.742166
0.745464
0.748571
0.751485
0.754203
0.756721
0.759034
0.761136
0.763019
0.764674
0.766092
0.767263
0.768184
0.768865
0.769332
0.769629
0.769803
0.7699
0.769951
0.769977
0.769989
0.769995
0.769998
0.769999
0.77
0.77
0.77
0.77
0.77
0.77
0.77
0.77
0.77
0.77
0.77
0.77
2.16379e-06
9.45657e-06
2.17235e-05
4.22874e-05
7.65903e-05
0.000133441
0.000226907
0.000379091
0.000624101
0.00101344
0.00162299
0.0025612
0.0039777
0.00607008
0.00908564
0.0133139
0.0190669
0.0266468
0.0363075
0.0482202
0.0624523
0.0789656
0.097629
0.118241
0.14055
0.164279
0.189136
0.214831
0.241082
0.267622
0.294207
0.320614
0.34665
0.372145
0.396959
0.420978
0.444107
0.466275
0.487431
0.507545
0.5266
0.544595
0.561539
0.577452
0.59236
0.606297
0.6193
0.63141
0.64267
0.653125
0.66282
0.671799
0.680106
0.687786
0.694879
0.701426
0.707397
0.712783
0.717938
0.722689
0.72702
0.731112
0.734992
0.738676
0.742166
0.745464
0.748571
0.751485
0.754203
0.756721
0.759034
0.761136
0.763019
0.764674
0.766091
0.767263
0.768184
0.768865
0.769332
0.769629
0.769803
0.7699
0.769951
0.769977
0.769989
0.769995
0.769998
0.769999
0.77
0.77
0.77
0.77
0.77
0.77
0.77
0.77
0.77
0.77
0.77
0.77
2.16485e-06
9.4612e-06
2.17341e-05
4.2308e-05
7.66275e-05
0.000133506
0.000227016
0.000379273
0.000624398
0.00101392
0.00162374
0.00256236
0.00397945
0.00607265
0.00908931
0.013319
0.0190737
0.0266555
0.0363183
0.0482331
0.0624671
0.0789819
0.0976466
0.118259
0.140568
0.164297
0.189153
0.214846
0.241094
0.267632
0.294214
0.320619
0.34665
0.372142
0.396952
0.420967
0.444093
0.466257
0.48741
0.507521
0.526573
0.544566
0.561508
0.577419
0.592325
0.606261
0.619263
0.631372
0.642632
0.653087
0.662781
0.671761
0.680069
0.687749
0.694843
0.701391
0.707362
0.71275
0.717905
0.722658
0.726993
0.731084
0.734965
0.738649
0.74214
0.745439
0.748546
0.751461
0.754181
0.7567
0.759016
0.761119
0.763004
0.764661
0.766081
0.767254
0.768178
0.768861
0.769329
0.769627
0.769802
0.7699
0.769951
0.769976
0.769989
0.769995
0.769998
0.769999
0.77
0.77
0.77
0.77
0.77
0.77
0.77
0.77
0.77
0.77
0.77
0.77
2.16702e-06
9.47068e-06
2.17559e-05
4.23503e-05
7.67041e-05
0.000133639
0.000227243
0.00037965
0.000625016
0.00101492
0.00162531
0.00256479
0.00398312
0.00607805
0.00909703
0.0133297
0.019088
0.0266739
0.0363411
0.0482602
0.0624982
0.0790164
0.0976835
0.118297
0.140607
0.164334
0.189188
0.214878
0.241122
0.267655
0.29423
0.320628
0.346653
0.372137
0.39694
0.420947
0.444065
0.466223
0.487369
0.507474
0.52652
0.544507
0.561445
0.577351
0.592254
0.606187
0.619187
0.631296
0.642555
0.653009
0.662704
0.671684
0.679993
0.687675
0.69477
0.701321
0.70729
0.712682
0.71784
0.722596
0.726939
0.731028
0.734909
0.738594
0.742086
0.745387
0.748497
0.751414
0.754136
0.756659
0.758977
0.761084
0.762972
0.764633
0.766058
0.767236
0.768164
0.768851
0.769323
0.769623
0.7698
0.769898
0.76995
0.769976
0.769989
0.769995
0.769998
0.769999
0.77
0.77
0.77
0.77
0.77
0.77
0.77
0.77
0.77
0.77
0.77
0.77
2.17034e-06
9.48517e-06
2.17891e-05
4.2415e-05
7.68214e-05
0.000133844
0.00022759
0.00038023
0.000625965
0.00101644
0.00162773
0.00256853
0.00398877
0.00608638
0.00910895
0.0133462
0.0191101
0.0267023
0.0363763
0.0483022
0.0625466
0.0790701
0.0977411
0.118357
0.140667
0.164393
0.189244
0.214929
0.241166
0.267691
0.294258
0.320645
0.346659
0.372132
0.396924
0.42092
0.444027
0.466174
0.487311
0.507406
0.526444
0.544424
0.561354
0.577254
0.592152
0.606079
0.619075
0.631181
0.642438
0.652892
0.662587
0.671568
0.679879
0.687562
0.69466
0.701213
0.707186
0.712581
0.717743
0.722503
0.726857
0.730942
0.734825
0.738512
0.742006
0.745309
0.748422
0.751342
0.754068
0.756595
0.758919
0.761031
0.762925
0.764592
0.766023
0.767208
0.768143
0.768836
0.769313
0.769617
0.769797
0.769896
0.769949
0.769976
0.769989
0.769995
0.769998
0.769999
0.77
0.77
0.77
0.77
0.77
0.77
0.77
0.77
0.77
0.77
0.77
0.77
2.17487e-06
9.50496e-06
2.18346e-05
4.25035e-05
7.69817e-05
0.000134123
0.000228066
0.000381023
0.000627266
0.00101854
0.00163104
0.00257366
0.00399655
0.00609785
0.00912539
0.013369
0.0191406
0.0267417
0.0364253
0.0483608
0.062614
0.0791452
0.097822
0.118442
0.140753
0.164477
0.189324
0.215003
0.241232
0.267746
0.2943
0.320675
0.346674
0.372132
0.396908
0.420889
0.443981
0.466113
0.487236
0.507317
0.526344
0.544312
0.561233
0.577125
0.592016
0.605938
0.618929
0.63103
0.642283
0.652735
0.66243
0.671411
0.679723
0.687409
0.69451
0.701067
0.707045
0.712445
0.717612
0.722377
0.726744
0.730825
0.73471
0.738399
0.741896
0.745203
0.74832
0.751245
0.753976
0.75651
0.758839
0.760959
0.762861
0.764536
0.765976
0.76717
0.768113
0.768815
0.769299
0.769608
0.769792
0.769894
0.769948
0.769975
0.769988
0.769995
0.769998
0.769999
0.77
0.77
0.77
0.77
0.77
0.77
0.77
0.77
0.77
0.77
0.77
0.77
2.1807e-06
9.53043e-06
2.18931e-05
4.26174e-05
7.71883e-05
0.000134484
0.000228679
0.000382047
0.000628947
0.00102125
0.00163534
0.00258033
0.00400666
0.00611279
0.00914682
0.0133988
0.0191806
0.0267934
0.0364897
0.048438
0.0627033
0.0792449
0.0979299
0.118555
0.140868
0.164592
0.189434
0.215105
0.241324
0.267825
0.294364
0.320721
0.346702
0.372141
0.396897
0.420858
0.44393
0.466043
0.487147
0.507212
0.526222
0.544176
0.561084
0.576965
0.591846
0.605761
0.618746
0.630843
0.642094
0.652543
0.662234
0.671215
0.679529
0.687217
0.694321
0.700882
0.706867
0.712273
0.717446
0.722218
0.726601
0.730678
0.734565
0.738256
0.741757
0.745068
0.748189
0.751121
0.753859
0.7564
0.758738
0.760867
0.762778
0.764464
0.765915
0.76712
0.768076
0.768788
0.769281
0.769597
0.769785
0.76989
0.769946
0.769974
0.769988
0.769994
0.769997
0.769999
0.769999
0.77
0.77
0.77
0.77
0.77
0.77
0.77
0.77
0.77
0.77
0.77
2.18793e-06
9.56201e-06
2.19656e-05
4.27588e-05
7.74448e-05
0.000134932
0.000229442
0.000383324
0.000631045
0.00102464
0.00164071
0.00258869
0.00401935
0.00613158
0.00917385
0.0134364
0.0192312
0.0268591
0.0365717
0.0485367
0.0628179
0.0793735
0.0980697
0.118702
0.14102
0.164743
0.189581
0.215244
0.24145
0.267936
0.294457
0.320794
0.346753
0.372167
0.3969
0.420835
0.443882
0.465971
0.487052
0.507094
0.526084
0.544019
0.56091
0.576777
0.591645
0.605549
0.618526
0.630616
0.641862
0.652309
0.662001
0.67098
0.679292
0.686982
0.694091
0.700656
0.706651
0.712063
0.717243
0.722022
0.726425
0.730496
0.734385
0.738078
0.741583
0.7449
0.748028
0.750966
0.753713
0.756263
0.758612
0.760752
0.762676
0.764375
0.76584
0.767059
0.768029
0.768754
0.769259
0.769584
0.769777
0.769886
0.769944
0.769973
0.769987
0.769994
0.769997
0.769999
0.769999
0.77
0.77
0.77
0.77
0.77
0.77
0.77
0.77
0.77
0.77
0.77
2.19666e-06
9.60012e-06
2.20532e-05
4.29296e-05
7.77552e-05
0.000135474
0.000230368
0.000384874
0.000633597
0.00102877
0.00164728
0.00259891
0.00403492
0.00615468
0.00920715
0.013483
0.019294
0.0269408
0.0366741
0.0486603
0.062962
0.079536
0.0982473
0.118891
0.141215
0.164939
0.189774
0.215428
0.241622
0.26809
0.29459
0.320902
0.346834
0.372221
0.396923
0.420829
0.443846
0.465905
0.486957
0.506972
0.525937
0.543848
0.560718
0.576565
0.591418
0.605307
0.618272
0.630353
0.641593
0.652035
0.661724
0.670705
0.679019
0.68671
0.693819
0.700389
0.706393
0.711814
0.717002
0.72179
0.72621
0.730277
0.734168
0.737866
0.741374
0.744696
0.747832
0.750779
0.753536
0.756097
0.758459
0.760613
0.762552
0.764267
0.765748
0.766985
0.767971
0.768713
0.769231
0.769566
0.769768
0.769882
0.769942
0.769972
0.769987
0.769994
0.769997
0.769999
0.769999
0.77
0.77
0.77
0.77
0.77
0.77
0.77
0.77
0.77
0.77
0.77
2.20697e-06
9.64517e-06
2.21568e-05
4.31318e-05
7.81228e-05
0.000136118
0.000231468
0.000386718
0.00063664
0.00103371
0.00165514
0.00261119
0.00405366
0.00618258
0.0092475
0.0135395
0.0193705
0.0270408
0.0367999
0.0488129
0.0631408
0.0797386
0.0984702
0.119129
0.141463
0.165192
0.190024
0.21567
0.24185
0.2683
0.294776
0.321061
0.346962
0.372314
0.396982
0.420852
0.443833
0.465855
0.486873
0.506855
0.525787
0.54367
0.560513
0.576336
0.591166
0.605038
0.617987
0.630056
0.641285
0.65172
0.661405
0.670383
0.678698
0.686393
0.693506
0.700078
0.706091
0.711522
0.71672
0.721519
0.725952
0.730017
0.733913
0.737615
0.741129
0.744455
0.747597
0.750553
0.753321
0.755897
0.758276
0.760447
0.762404
0.764138
0.765638
0.766895
0.767902
0.768662
0.769197
0.769547
0.769757
0.769875
0.769938
0.76997
0.769986
0.769994
0.769997
0.769999
0.769999
0.77
0.77
0.77
0.77
0.77
0.77
0.77
0.77
0.77
0.77
0.77
2.21891e-06
9.69737e-06
2.22769e-05
4.33665e-05
7.85501e-05
0.000136867
0.000232751
0.000388875
0.000640206
0.00103951
0.00166441
0.0026257
0.00407589
0.00621577
0.00929568
0.0136073
0.0194627
0.0271616
0.0369526
0.0489991
0.06336
0.0799885
0.0987467
0.119427
0.141776
0.165512
0.190345
0.215985
0.242151
0.268581
0.295031
0.321285
0.34715
0.372465
0.397091
0.420918
0.443856
0.465837
0.486811
0.506753
0.525647
0.543493
0.560302
0.576095
0.590899
0.604747
0.617676
0.629727
0.640943
0.651368
0.661045
0.670019
0.678332
0.686028
0.693147
0.699727
0.705748
0.711186
0.716394
0.721204
0.725649
0.729716
0.733616
0.737326
0.740849
0.744188
0.747342
0.75031
0.753089
0.755675
0.758063
0.760253
0.76223
0.763985
0.765508
0.766788
0.767819
0.768601
0.769159
0.769523
0.769743
0.769868
0.769935
0.769969
0.769985
0.769993
0.769997
0.769999
0.769999
0.77
0.77
0.77
0.77
0.77
0.77
0.77
0.77
0.77
0.77
0.77
2.23246e-06
9.75663e-06
2.24134e-05
4.36335e-05
7.90371e-05
0.000137723
0.000234219
0.00039135
0.000644311
0.00104621
0.00167515
0.00264258
0.00410185
0.00625469
0.00935243
0.0136875
0.0195722
0.0273059
0.037136
0.0492239
0.0636262
0.0802939
0.0990868
0.119796
0.142166
0.165916
0.190754
0.216389
0.242543
0.268952
0.295375
0.321595
0.347421
0.372692
0.397271
0.421048
0.443936
0.465866
0.486791
0.506682
0.525529
0.543331
0.560099
0.575854
0.590623
0.604441
0.617344
0.629373
0.64057
0.650981
0.660647
0.669613
0.677922
0.685617
0.692736
0.699321
0.705355
0.710805
0.716021
0.720844
0.725305
0.729371
0.733275
0.73699
0.740522
0.74387
0.747037
0.750019
0.752815
0.755419
0.757827
0.760029
0.762025
0.763806
0.765355
0.766663
0.76772
0.768534
0.769115
0.769495
0.769727
0.769859
0.76993
0.769966
0.769984
0.769993
0.769997
0.769999
0.769999
0.77
0.77
0.77
0.77
0.77
0.77
0.77
0.77
0.77
0.77
0.77
2.24748e-06
9.82237e-06
2.2565e-05
4.39305e-05
7.958e-05
0.000138679
0.000235865
0.000394134
0.000648946
0.0010538
0.00168738
0.00266191
0.00413171
0.00629971
0.00941841
0.0137812
0.0197009
0.0274765
0.037354
0.0494927
0.0639465
0.0806637
0.0995016
0.120249
0.142649
0.16642
0.191268
0.216904
0.243049
0.269438
0.295833
0.322016
0.347798
0.373019
0.397544
0.421265
0.444092
0.465961
0.486827
0.506662
0.525451
0.543199
0.559916
0.575624
0.590351
0.60413
0.617
0.629
0.640173
0.650563
0.660214
0.669169
0.677471
0.685162
0.692281
0.698868
0.704919
0.710381
0.715607
0.720441
0.724914
0.728984
0.732891
0.736613
0.740152
0.743512
0.746692
0.749691
0.752506
0.755131
0.757562
0.75979
0.7618
0.763597
0.765174
0.766516
0.767616
0.768459
0.769062
0.769462
0.769708
0.769849
0.769925
0.769964
0.769983
0.769992
0.769996
0.769998
0.769999
0.77
0.77
0.77
0.77
0.77
0.77
0.77
0.77
0.77
0.77
0.77
2.26362e-06
9.89306e-06
2.27283e-05
4.42511e-05
8.01675e-05
0.000139718
0.000237659
0.000397181
0.000654043
0.0010622
0.00170098
0.00268353
0.00416535
0.00635076
0.00949377
0.013889
0.0198501
0.0276757
0.0376104
0.0498111
0.0643287
0.0811081
0.100004
0.120802
0.143243
0.167044
0.191912
0.217554
0.243693
0.270065
0.296431
0.322576
0.348311
0.373477
0.397941
0.421596
0.444355
0.466153
0.486948
0.506713
0.525436
0.543118
0.559774
0.575424
0.590098
0.60383
0.616656
0.628619
0.639761
0.650124
0.659754
0.668693
0.676983
0.684667
0.691785
0.698377
0.70445
0.709917
0.715149
0.71999
0.724472
0.728545
0.732455
0.736182
0.739729
0.7431
0.746294
0.749309
0.752143
0.754792
0.75725
0.75951
0.761555
0.763392
0.765004
0.766378
0.7675
0.76837
0.769
0.769423
0.769686
0.769837