/*--------------------------------*- C++ -*----------------------------------*\
  =========                 |
  \\      /  F ield         | OpenFOAM: The Open Source CFD Toolbox
   \\    /   O peration     | Website:  https://openfoam.org
    \\  /    A nd           | Version:  8
     \\/     M anipulation  |
\*---------------------------------------------------------------------------*/
FoamFile
{
    version     2.0;
    format      ascii;
    class       volScalarField;
    location    "800/fluid";
    object      O2;
}
// * * * * * * * * * * * * * * * * * * * * * * * * * * * * * * * * * * * * * //

dimensions      [0 0 0 0 0 0 0];

internalField   nonuniform List<scalar> 
4000
(
4.58008e-10
1.99986e-09
4.58518e-09
8.89992e-09
1.60601e-08
2.78606e-08
4.71478e-08
7.83622e-08
1.28296e-07
2.07099e-07
3.29521e-07
5.16313e-07
7.93314e-07
1.19669e-06
1.76703e-06
2.54737e-06
3.5773e-06
4.8855e-06
6.48295e-06
8.35901e-06
1.04818e-05
1.28025e-05
1.5261e-05
1.77923e-05
2.03315e-05
2.28173e-05
2.51945e-05
2.74154e-05
2.94406e-05
3.12399e-05
3.27938e-05
3.40972e-05
3.51655e-05
3.60443e-05
3.68229e-05
3.76482e-05
3.87365e-05
4.03847e-05
4.29798e-05
4.7016e-05
5.31237e-05
6.21142e-05
7.50394e-05
9.32688e-05
0.00011859
0.000153341
0.000200593
0.000264231
0.000349735
0.000464082
0.000616447
0.000818886
0.00108722
0.0014422
0.00191102
0.00252938
0.00334413
0.00440227
0.00577722
0.00763403
0.0100771
0.0132994
0.0184877
0.0349241
0.0515633
0.068147
0.0844739
0.100386
0.115756
0.13048
0.14447
0.157648
0.169939
0.181212
0.19151
0.200673
0.208601
0.215198
0.220391
0.22419
0.226733
0.228283
0.229149
0.229595
0.229813
0.229916
0.229963
0.229984
0.229993
0.229997
0.229999
0.229999
0.23
0.23
0.23
0.23
0.23
0.23
0.23
0.23
4.6513e-10
2.03236e-09
4.66537e-09
9.07007e-09
1.63969e-08
2.84976e-08
4.83094e-08
8.04075e-08
1.31769e-07
2.12755e-07
3.38259e-07
5.28772e-07
8.13088e-07
1.22605e-06
1.80857e-06
2.60411e-06
3.65291e-06
4.98466e-06
6.61162e-06
8.52459e-06
1.06929e-05
1.30682e-05
1.55902e-05
1.81931e-05
2.08104e-05
2.33786e-05
2.58404e-05
2.81455e-05
3.02525e-05
3.21291e-05
3.37545e-05
3.51222e-05
3.62475e-05
3.7177e-05
3.80029e-05
3.88778e-05
4.00275e-05
4.17607e-05
4.44794e-05
4.86939e-05
5.50509e-05
6.43772e-05
7.77386e-05
9.65171e-05
0.000122513
0.000158077
0.000206164
0.000270902
0.000357675
0.000473461
0.000627445
0.000831688
0.00110202
0.00145921
0.00193049
0.00255161
0.00336955
0.00443101
0.00581018
0.00767412
0.0101277
0.0133652
0.0198009
0.0363373
0.0530567
0.0697063
0.0860878
0.102044
0.117448
0.132194
0.146193
0.159363
0.171625
0.182842
0.19305
0.202078
0.209826
0.216199
0.22114
0.224692
0.227031
0.228439
0.229221
0.229626
0.229826
0.22992
0.229964
0.229984
0.229993
0.229997
0.229999
0.229999
0.23
0.23
0.23
0.23
0.23
0.23
0.23
0.23
4.74608e-10
2.07379e-09
4.76106e-09
9.25799e-09
1.67405e-08
2.91004e-08
4.93365e-08
8.2119e-08
1.34572e-07
2.1731e-07
3.45709e-07
5.41359e-07
8.33552e-07
1.25659e-06
1.85232e-06
2.66527e-06
3.73699e-06
5.09874e-06
6.76457e-06
8.72705e-06
1.0957e-05
1.34068e-05
1.60164e-05
1.8719e-05
2.14466e-05
2.41337e-05
2.67199e-05
2.91524e-05
3.13864e-05
3.33871e-05
3.51308e-05
3.66094e-05
3.78369e-05
3.88612e-05
3.97784e-05
4.07497e-05
4.20143e-05
4.39e-05
4.68319e-05
5.13455e-05
5.81136e-05
6.79885e-05
8.20592e-05
0.00010173
0.000128823
0.000165554
0.000215085
0.000281808
0.000370815
0.000489147
0.000646036
0.000853593
0.0011277
0.00148919
0.00196541
0.00259228
0.0034171
0.0044858
0.00587472
0.00775299
0.0102261
0.0134965
0.0221006
0.0387106
0.0554971
0.0722005
0.0886185
0.104591
0.119988
0.134702
0.14864
0.161716
0.173848
0.184914
0.194906
0.203677
0.211133
0.217196
0.221838
0.225134
0.227283
0.228569
0.229283
0.229655
0.229838
0.229926
0.229967
0.229985
0.229994
0.229997
0.229999
0.23
0.23
0.23
0.23
0.23
0.23
0.23
0.23
0.23
4.85929e-10
2.12388e-09
4.87848e-09
9.49201e-09
1.7174e-08
2.98699e-08
5.066e-08
8.4335e-08
1.38188e-07
2.23049e-07
3.54529e-07
5.54341e-07
8.51381e-07
1.28206e-06
1.88917e-06
2.71864e-06
3.81377e-06
5.20794e-06
6.91749e-06
8.93708e-06
1.12391e-05
1.37769e-05
1.64902e-05
1.93112e-05
2.217e-05
2.49987e-05
2.77343e-05
3.03205e-05
3.27097e-05
3.48637e-05
3.67562e-05
3.83765e-05
3.97379e-05
4.08894e-05
4.19324e-05
4.30386e-05
4.44645e-05
4.65619e-05
4.97845e-05
5.47003e-05
6.20156e-05
7.26148e-05
8.76171e-05
0.000108456
0.000136841
0.000175254
0.000227171
0.000296453
0.000388525
0.0005105
0.000671705
0.000884365
0.00116451
0.00153318
0.00201799
0.00265524
0.00349278
0.00457448
0.00597979
0.00788299
0.0103932
0.0137113
0.0249551
0.0415906
0.058405
0.0751271
0.0915458
0.107495
0.122841
0.137473
0.151294
0.164218
0.17616
0.187042
0.196774
0.205259
0.212413
0.21817
0.222525
0.225576
0.227542
0.228709
0.229353
0.229688
0.229853
0.229932
0.229969
0.229986
0.229994
0.229997
0.229999
0.23
0.23
0.23
0.23
0.23
0.23
0.23
0.23
0.23
4.95963e-10
2.16772e-09
4.97919e-09
9.68796e-09
1.75282e-08
3.04843e-08
5.16972e-08
8.60501e-08
1.40976e-07
2.27511e-07
3.6157e-07
5.65306e-07
8.68251e-07
1.30772e-06
1.92775e-06
2.77585e-06
3.89731e-06
5.32785e-06
7.08624e-06
9.16941e-06
1.15515e-05
1.41866e-05
1.70146e-05
1.99668e-05
2.29713e-05
2.59579e-05
2.88607e-05
3.16203e-05
3.41856e-05
3.65151e-05
3.85793e-05
4.03654e-05
4.18854e-05
4.31906e-05
4.4389e-05
4.56649e-05
4.7296e-05
4.96623e-05
5.32524e-05
5.86729e-05
6.66724e-05
7.81818e-05
9.43297e-05
0.000116449
0.000146564
0.000187462
0.000242105
0.00031473
0.000410885
0.000537836
0.000705102
0.000925153
0.00121432
0.00159404
0.00209243
0.00274651
0.00360312
0.00470392
0.00613956
0.00808649
0.0106508
0.0140204
0.0279578
0.044574
0.0613927
0.0781158
0.0945175
0.110423
0.125696
0.140223
0.153907
0.166663
0.178386
0.189042
0.198517
0.206721
0.213581
0.219046
0.223132
0.225961
0.227766
0.228828
0.229413
0.229716
0.229866
0.229938
0.229972
0.229988
0.229995
0.229998
0.229999
0.23
0.23
0.23
0.23
0.23
0.23
0.23
0.23
0.23
5.0466e-10
2.20561e-09
5.06581e-09
9.85561e-09
1.783e-08
3.1007e-08
5.25814e-08
8.75213e-08
1.43392e-07
2.31437e-07
3.67885e-07
5.75363e-07
8.84106e-07
1.33244e-06
1.96581e-06
2.83359e-06
3.98339e-06
5.45354e-06
7.26553e-06
9.4187e-06
1.18889e-05
1.46313e-05
1.75855e-05
2.06818e-05
2.38466e-05
2.70071e-05
3.00943e-05
3.30457e-05
3.58066e-05
3.83319e-05
4.05891e-05
4.25627e-05
4.42644e-05
4.57478e-05
4.71295e-05
4.86091e-05
5.04886e-05
5.31805e-05
5.72111e-05
6.32275e-05
7.20198e-05
8.45342e-05
0.000101872
0.000125702
0.000158246
0.000201831
0.00025982
0.000336607
0.00043794
0.000571343
0.000746658
0.000976766
0.00127852
0.00167397
0.00219202
0.00287009
0.00375766
0.00489429
0.00637664
0.0083742
0.0109917
0.0143867
0.0304876
0.0472134
0.0641196
0.0808917
0.0973002
0.113172
0.128372
0.142792
0.156338
0.168927
0.180439
0.190883
0.200107
0.208043
0.214629
0.219827
0.223672
0.226305
0.227966
0.228937
0.229468
0.229743
0.229879
0.229944
0.229975
0.229989
0.229995
0.229998
0.229999
0.23
0.23
0.23
0.23
0.23
0.23
0.23
0.23
0.23
5.1267e-10
2.24055e-09
5.14589e-09
1.00112e-08
1.81117e-08
3.14986e-08
5.34208e-08
8.89337e-08
1.45743e-07
2.35309e-07
3.74202e-07
5.85566e-07
9.00406e-07
1.35816e-06
2.00581e-06
2.89475e-06
4.07513e-06
5.58814e-06
7.45818e-06
9.68721e-06
1.22531e-05
1.51118e-05
1.82032e-05
2.14563e-05
2.47959e-05
2.81464e-05
3.14359e-05
3.45983e-05
3.75751e-05
4.03176e-05
4.27899e-05
4.49739e-05
4.68807e-05
4.85678e-05
5.01617e-05
5.18808e-05
5.40546e-05
5.71333e-05
6.16886e-05
6.84093e-05
7.80805e-05
9.16518e-05
0.000110526
0.000136531
0.000171512
0.000218167
0.000280018
0.000361668
0.000469148
0.000610354
0.000795625
0.0010385
0.00135669
0.00177336
0.00231876
0.00303288
0.00396882
0.00515567
0.0067546
0.00884483
0.0115724
0.0150593
0.0320353
0.0492553
0.0664357
0.0833462
0.0998031
0.115659
0.130796
0.145113
0.158523
0.170948
0.182251
0.19248
0.201494
0.209206
0.215549
0.220508
0.224139
0.226598
0.228137
0.229029
0.229515
0.229766
0.229889
0.229949
0.229977
0.22999
0.229995
0.229998
0.229999
0.23
0.23
0.23
0.23
0.23
0.23
0.23
0.23
0.23
5.20327e-10
2.27398e-09
5.22263e-09
1.01607e-08
1.83832e-08
3.19744e-08
5.42374e-08
9.03163e-08
1.48059e-07
2.39156e-07
3.80534e-07
5.95888e-07
9.1705e-07
1.38466e-06
2.04738e-06
2.95884e-06
4.1719e-06
5.73086e-06
7.6633e-06
9.97403e-06
1.2643e-05
1.56275e-05
1.88673e-05
2.22906e-05
2.58202e-05
2.93781e-05
3.28892e-05
3.62835e-05
3.94988e-05
4.24823e-05
4.51945e-05
4.76145e-05
4.97532e-05
5.16723e-05
5.35102e-05
5.55059e-05
5.80178e-05
6.15319e-05
6.66588e-05
7.41084e-05
8.47087e-05
9.96222e-05
0.000120384
0.000148477
0.000186083
0.000236031
0.000302016
0.000388878
0.00050297
0.000652633
0.000848835
0.00110601
0.0014432
0.00188554
0.00246638
0.00323009
0.00423006
0.00551159
0.00725802
0.0095689
0.0126403
0.0166655
0.0339186
0.0513421
0.0686506
0.0856238
0.102089
0.117909
0.132972
0.147184
0.160464
0.172735
0.183887
0.193923
0.202725
0.21022
0.216346
0.221093
0.224537
0.226849
0.228282
0.229108
0.229555
0.229785
0.229899
0.229953
0.229979
0.22999
0.229996
0.229998
0.229999
0.23
0.23
0.23
0.23
0.23
0.23
0.23
0.23
0.23
5.27841e-10
2.30682e-09
5.29813e-09
1.03081e-08
1.86519e-08
3.24469e-08
5.50523e-08
9.17033e-08
1.50397e-07
2.43063e-07
3.87005e-07
6.06503e-07
9.34272e-07
1.41224e-06
2.09085e-06
3.02611e-06
4.27383e-06
5.88163e-06
7.88054e-06
1.02785e-05
1.30578e-05
1.61772e-05
1.95767e-05
2.31839e-05
2.69199e-05
3.07039e-05
3.44576e-05
3.81075e-05
4.15869e-05
4.48391e-05
4.78202e-05
5.05066e-05
5.2909e-05
5.50946e-05
5.72162e-05
5.95378e-05
6.24537e-05
6.64852e-05
7.22307e-05
8.04405e-05
9.21477e-05
0.00010865
0.000131149
0.000161408
0.000201695
0.000254951
0.000325021
0.000416939
0.000537308
0.000694801
0.00090082
0.00117037
0.00152325
0.00198561
0.00259206
0.0033886
0.00443085
0.00577221
0.00760305
0.010031
0.0132698
0.0183935
0.0358271
0.0533626
0.0707282
0.0877124
0.104149
0.119905
0.134872
0.148959
0.162089
0.17419
0.185152
0.194999
0.203625
0.210964
0.216971
0.221579
0.224873
0.227061
0.228405
0.229175
0.22959
0.229802
0.229907
0.229957
0.22998
0.229991
0.229996
0.229998
0.229999
0.23
0.23
0.23
0.23
0.23
0.23
0.23
0.23
0.23
5.35281e-10
2.33935e-09
5.37302e-09
1.04546e-08
1.89193e-08
3.29188e-08
5.58685e-08
9.30979e-08
1.52757e-07
2.47024e-07
3.93596e-07
6.17367e-07
9.51975e-07
1.4407e-06
2.1359e-06
3.09608e-06
4.38017e-06
6.03939e-06
8.10845e-06
1.05987e-05
1.34952e-05
1.67586e-05
2.03293e-05
2.41345e-05
2.80938e-05
3.21241e-05
3.61439e-05
4.00758e-05
4.3849e-05
4.74021e-05
5.06868e-05
5.36765e-05
5.63812e-05
5.88739e-05
6.1322e-05
6.40126e-05
6.73677e-05
7.19252e-05
7.83469e-05
8.75264e-05
0.000100604
0.000118573
0.000142878
0.000175341
0.0002183
0.000274788
0.000348757
0.000445373
0.000571397
0.000735685
0.000949849
0.00122913
0.00159355
0.00206946
0.00269159
0.00350581
0.00456366
0.00591958
0.00776013
0.0101806
0.0133718
0.0202225
0.0377144
0.0552839
0.0726591
0.0896283
0.106026
0.121722
0.136611
0.150602
0.163617
0.175583
0.186454
0.196163
0.204623
0.211766
0.217541
0.221993
0.225163
0.227243
0.22851
0.229232
0.229619
0.229816
0.229913
0.22996
0.229982
0.229992
0.229996
0.229998
0.229999
0.23
0.23
0.23
0.23
0.23
0.23
0.23
0.23
0.23
5.42645e-10
2.37156e-09
5.44723e-09
1.05999e-08
1.91852e-08
3.3389e-08
5.66842e-08
9.44955e-08
1.55131e-07
2.51021e-07
4.00271e-07
6.28406e-07
9.70026e-07
1.46982e-06
2.18212e-06
3.16808e-06
4.48992e-06
6.20265e-06
8.34497e-06
1.0932e-05
1.3952e-05
1.73676e-05
2.11205e-05
2.51378e-05
2.93379e-05
3.36359e-05
3.79472e-05
4.21907e-05
4.62915e-05
5.01835e-05
5.38139e-05
5.71527e-05
6.02105e-05
6.3068e-05
6.59121e-05
6.90607e-05
7.29213e-05
7.80624e-05
8.53157e-05
9.56961e-05
0.000110044
0.000129568
0.00015575
0.000190464
0.000236107
0.000295781
0.000373519
0.000474577
0.000605812
0.000776179
0.000997382
0.00128473
0.00165826
0.00214427
0.00277729
0.00360258
0.00466948
0.0060322
0.00787713
0.0102941
0.0134712
0.0219844
0.0394826
0.0570394
0.074385
0.0913085
0.107641
0.123257
0.138053
0.15194
0.164862
0.17675
0.187541
0.197133
0.205458
0.212455
0.218083
0.222356
0.225404
0.227397
0.228599
0.229279
0.229643
0.229828
0.229919
0.229963
0.229983
0.229992
0.229997
0.229999
0.229999
0.23
0.23
0.23
0.23
0.23
0.23
0.23
0.23
0.23
5.49866e-10
2.40316e-09
5.52009e-09
1.07428e-08
1.9447e-08
3.38527e-08
5.74903e-08
9.58804e-08
1.57489e-07
2.55004e-07
4.06942e-07
6.39471e-07
9.88172e-07
1.49918e-06
2.22886e-06
3.2411e-06
4.60154e-06
6.3692e-06
8.58703e-06
1.12743e-05
1.44228e-05
1.79979e-05
2.1943e-05
2.61857e-05
3.0644e-05
3.52314e-05
3.98609e-05
4.44483e-05
4.89147e-05
5.31893e-05
5.72149e-05
6.09578e-05
6.44289e-05
6.77167e-05
7.10272e-05
7.46812e-05
7.91099e-05
8.50427e-05
9.34034e-05
0.000104931
0.000120666
0.000141852
0.00017001
0.000207059
0.00025545
0.000318347
0.00039985
0.000505285
0.000641581
0.000817761
0.00104558
0.00134036
0.00172213
0.00221702
0.00285895
0.00369284
0.00476851
0.00613921
0.00798889
0.0104061
0.0135764
0.0235509
0.0410548
0.0585986
0.0759083
0.0927751
0.109046
0.124605
0.139347
0.153191
0.166044
0.177837
0.188505
0.197975
0.206173
0.213041
0.218541
0.222694
0.225612
0.227524
0.228674
0.22932
0.229664
0.229838
0.229924
0.229965
0.229984
0.229993
0.229997
0.229999
0.229999
0.23
0.23
0.23
0.23
0.23
0.23
0.23
0.23
0.23
5.5684e-10
2.43368e-09
5.59051e-09
1.0881e-08
1.97006e-08
3.43027e-08
5.82742e-08
9.723e-08
1.59792e-07
2.58904e-07
4.13491e-07
6.50363e-07
1.00608e-06
1.52824e-06
2.27526e-06
3.3138e-06
4.71304e-06
6.53612e-06
8.83052e-06
1.162e-05
1.49004e-05
1.86403e-05
2.27856e-05
2.72651e-05
3.19973e-05
3.68949e-05
4.18695e-05
4.68343e-05
5.17073e-05
5.64136e-05
6.0892e-05
6.51061e-05
6.90679e-05
7.2876e-05
7.67521e-05
8.09713e-05
8.61877e-05
9.31791e-05
0.000102613
0.000115421
0.000132674
0.000155648
0.000185904
0.000225408
0.000276662
0.000342889
0.000428253
0.000538146
0.000679562
0.000861582
0.00109601
0.00139818
0.00178793
0.00229111
0.00294208
0.00378637
0.00487045
0.00624767
0.00810186
0.0105187
0.0136804
0.0248989
0.0424156
0.0599496
0.0772326
0.0940775
0.110326
0.125841
0.140522
0.154284
0.167051
0.178752
0.189323
0.198688
0.206777
0.213533
0.218922
0.222971
0.225802
0.227631
0.228735
0.229353
0.229681
0.229847
0.229928
0.229967
0.229985
0.229993
0.229997
0.229999
0.229999
0.23
0.23
0.23
0.23
0.23
0.23
0.23
0.23
0.23
5.63433e-10
2.46254e-09
5.65713e-09
1.10118e-08
1.9941e-08
3.47299e-08
5.90196e-08
9.85159e-08
1.61991e-07
2.62637e-07
4.19774e-07
6.6084e-07
1.02336e-06
1.55635e-06
2.32027e-06
3.38456e-06
4.82191e-06
6.69972e-06
9.07014e-06
1.19617e-05
1.53748e-05
1.92819e-05
2.36319e-05
2.83561e-05
3.33742e-05
3.85995e-05
4.39433e-05
4.93177e-05
5.46386e-05
5.98286e-05
6.48238e-05
6.95869e-05
7.41347e-05
7.85818e-05
8.31506e-05
8.82744e-05
9.44535e-05
0.000102452
0.000113092
0.000127319
0.000146228
0.000171126
0.000203618
0.000245713
0.00029997
0.00036967
0.000459039
0.000573534
0.000720214
0.000908192
0.00114921
0.00145841
0.00185582
0.00236813
0.00302922
0.00388283
0.00497492
0.00635876
0.00821713
0.0106328
0.0137797
0.0260387
0.0435775
0.0611094
0.0783894
0.0952093
0.111414
0.126878
0.141501
0.155198
0.167893
0.179517
0.190006
0.199284
0.207281
0.213942
0.219237
0.223198
0.225954
0.227727
0.228785
0.229379
0.229695
0.229853
0.229931
0.229968
0.229986
0.229994
0.229997
0.229999
0.229999
0.23
0.23
0.23
0.23
0.23
0.23
0.23
0.23
0.23
5.69492e-10
2.48907e-09
5.71839e-09
1.11323e-08
2.01624e-08
3.5124e-08
5.97083e-08
9.97062e-08
1.64031e-07
2.66106e-07
4.25628e-07
6.70626e-07
1.03954e-06
1.58274e-06
2.36267e-06
3.45142e-06
4.92517e-06
6.85551e-06
9.29933e-06
1.22901e-05
1.58331e-05
1.99054e-05
2.44596e-05
2.94304e-05
3.474e-05
4.03038e-05
4.60342e-05
5.18438e-05
5.76482e-05
6.3369e-05
6.89411e-05
7.4327e-05
7.95477e-05
8.47316e-05
9.00853e-05
9.62018e-05
0.000103543
0.000112802
0.000124847
0.00014066
0.000161374
0.000188338
0.000223199
0.000268021
0.00032542
0.00039874
0.000492263
0.00061148
0.000763432
0.000957182
0.00120462
0.00152163
0.00192813
0.00244955
0.00311961
0.00398218
0.00508186
0.00647174
0.00833329
0.0107464
0.0138727
0.0269848
0.0445508
0.0620903
0.0793545
0.0961477
0.112316
0.127738
0.142311
0.155953
0.168589
0.180149
0.19057
0.199775
0.207696
0.214278
0.219494
0.223382
0.226076
0.227802
0.228829
0.229402
0.229705
0.229859
0.229934
0.229969
0.229986
0.229994
0.229997
0.229999
0.229999
0.23
0.23
0.23
0.23
0.23
0.23
0.23
0.23
0.23
5.74857e-10
2.51256e-09
5.77267e-09
1.1239e-08
2.03589e-08
3.54741e-08
6.03211e-08
1.00767e-07
1.65853e-07
2.6921e-07
4.30876e-07
6.79419e-07
1.05411e-06
1.60659e-06
2.40109e-06
3.51222e-06
5.01942e-06
6.99829e-06
9.51034e-06
1.2594e-05
1.62596e-05
2.04891e-05
2.52398e-05
3.04504e-05
3.60472e-05
4.19489e-05
4.80713e-05
5.43297e-05
6.06421e-05
6.69325e-05
7.31382e-05
7.92269e-05
8.52317e-05
9.12967e-05
9.7765e-05
0.000105037
0.000113635
0.000124269
0.000137841
0.00015536
0.000177994
0.000207131
0.000244468
0.000292117
0.000352743
0.000429717
0.000527325
0.000651135
0.000808323
0.00100845
0.0012634
0.00158821
0.00200276
0.00253275
0.00321153
0.00408253
0.00518905
0.00658374
0.00844654
0.0108543
0.0139575
0.0277526
0.0453414
0.0628874
0.0801414
0.096913
0.113052
0.128437
0.142969
0.156566
0.169152
0.18066
0.191026
0.200172
0.208031
0.214549
0.219701
0.22353
0.226174
0.227862
0.228864
0.229421
0.229715
0.229863
0.229936
0.22997
0.229987
0.229994
0.229997
0.229999
0.23
0.23
0.23
0.23
0.23
0.23
0.23
0.23
0.23
0.23
5.79369e-10
2.53233e-09
5.81834e-09
1.13289e-08
2.05246e-08
3.57695e-08
6.08388e-08
1.01664e-07
1.67396e-07
2.71845e-07
4.3534e-07
6.86916e-07
1.06657e-06
1.62703e-06
2.43412e-06
3.56465e-06
5.10099e-06
7.12236e-06
9.69452e-06
1.28606e-05
1.66359e-05
2.10072e-05
2.59369e-05
3.13687e-05
3.72336e-05
4.34555e-05
4.99551e-05
5.66531e-05
6.34729e-05
7.03438e-05
7.72093e-05
8.40453e-05
9.08982e-05
9.79331e-05
0.00010557
0.000114101
0.000124141
0.000136338
0.000151577
0.00017089
0.000195492
0.000226815
0.000266595
0.000317004
0.000380767
0.000461342
0.000563158
0.000692005
0.00085511
0.00106151
0.00132313
0.00165524
0.00207759
0.00261566
0.00330246
0.0041809
0.00529308
0.00669091
0.00855275
0.0109524
0.0140306
0.0283595
0.0459753
0.0635247
0.080769
0.0975217
0.113635
0.12899
0.143489
0.157048
0.169596
0.181061
0.191383
0.200483
0.208292
0.21476
0.219862
0.223645
0.226249
0.227908
0.22889
0.229435
0.229722
0.229867
0.229937
0.229971
0.229987
0.229994
0.229997
0.229999
0.23
0.23
0.23
0.23
0.23
0.23
0.23
0.23
0.23
0.23
5.82887e-10
2.54773e-09
5.85396e-09
1.13991e-08
2.06538e-08
3.60003e-08
6.12437e-08
1.02367e-07
1.68606e-07
2.73915e-07
4.38854e-07
6.92828e-07
1.07641e-06
1.64322e-06
2.46035e-06
3.60642e-06
5.1662e-06
7.22191e-06
9.84293e-06
1.30764e-05
1.6942e-05
2.14312e-05
2.65111e-05
3.21305e-05
3.82257e-05
4.47266e-05
5.15606e-05
5.86557e-05
6.5944e-05
7.33654e-05
8.08765e-05
8.84712e-05
9.62231e-05
0.000104353
0.000113205
0.000123092
0.000134444
0.000148091
0.00016494
0.000186
0.00021251
0.000245951
0.000288127
0.000341328
0.000408339
0.000492694
0.00059889
0.000732479
0.000900729
0.0011129
0.00138083
0.00171976
0.00214923
0.00269445
0.003388
0.00427207
0.00538777
0.00678566
0.00864273
0.0110309
0.0140867
0.0288096
0.0464512
0.0640068
0.0812446
0.0979823
0.114075
0.129406
0.143878
0.157409
0.169925
0.181359
0.191648
0.200712
0.208485
0.214915
0.21998
0.223728
0.226304
0.227942
0.228909
0.229445
0.229728
0.229869
0.229939
0.229972
0.229987
0.229994
0.229997
0.229999
0.23
0.23
0.23
0.23
0.23
0.23
0.23
0.23
0.23
0.23
5.85289e-10
2.55825e-09
5.87829e-09
1.1447e-08
2.07422e-08
3.6158e-08
6.15204e-08
1.02848e-07
1.69434e-07
2.75333e-07
4.41262e-07
6.96885e-07
1.08318e-06
1.65437e-06
2.47845e-06
3.63532e-06
5.21144e-06
7.29122e-06
9.94664e-06
1.32279e-05
1.71579e-05
2.17317e-05
2.69203e-05
3.26767e-05
3.89421e-05
4.56517e-05
5.27391e-05
6.01401e-05
6.77962e-05
7.56589e-05
8.37005e-05
9.1937e-05
0.000100476
0.000109583
0.000119581
0.00013084
0.000143654
0.00015873
0.000176999
0.000199605
0.000227835
0.000263225
0.000307648
0.00036333
0.00043313
0.000520623
0.000630322
0.000767933
0.000940722
0.00115794
0.00143141
0.00177624
0.00221177
0.00276281
0.00346129
0.0043483
0.00546382
0.00685441
0.00869267
0.0110423
0.0140221
0.0291031
0.0467731
0.0643375
0.0815718
0.0982986
0.114376
0.129689
0.144141
0.157651
0.170146
0.181558
0.191824
0.200864
0.208612
0.215016
0.220057
0.223782
0.22634
0.227963
0.228921
0.229452
0.229731
0.229871
0.229939
0.229972
0.229987
0.229994
0.229998
0.229999
0.23
0.23
0.23
0.23
0.23
0.23
0.23
0.23
0.23
0.23
5.8649e-10
2.56351e-09
5.8904e-09
1.14708e-08
2.07859e-08
3.62358e-08
6.16566e-08
1.03084e-07
1.6984e-07
2.76025e-07
4.42437e-07
6.98863e-07
1.08648e-06
1.6598e-06
2.48728e-06
3.64945e-06
5.23361e-06
7.32529e-06
9.99782e-06
1.3303e-05
1.72654e-05
2.18822e-05
2.71265e-05
3.29537e-05
3.93078e-05
4.61273e-05
5.33497e-05
6.0916e-05
6.87734e-05
7.68819e-05
8.5224e-05
9.38307e-05
0.000102828
0.000112476
0.000123166
0.000135335
0.000149362
0.000165565
0.000184924
0.000208614
0.000237981
0.000274606
0.000320386
0.000377641
0.000449252
0.000538827
0.000650911
0.000791256
0.000967155
0.00118788
0.00146525
0.00181432
0.00225436
0.00280999
0.00351282
0.00440345
0.00552114
0.00691112
0.00874456
0.011083
0.0140417
0.0292494
0.0469428
0.0645141
0.0817462
0.0984658
0.114533
0.129835
0.144276
0.157774
0.170257
0.181657
0.19191
0.200938
0.208674
0.215065
0.220094
0.223808
0.226356
0.227973
0.228927
0.229455
0.229733
0.229872
0.22994
0.229972
0.229987
0.229994
0.229998
0.229999
0.23
0.23
0.23
0.23
0.23
0.23
0.23
0.23
0.23
0.23
5.8649e-10
2.56351e-09
5.89041e-09
1.14708e-08
2.07859e-08
3.62358e-08
6.16566e-08
1.03084e-07
1.6984e-07
2.76025e-07
4.42437e-07
6.98863e-07
1.08648e-06
1.6598e-06
2.48728e-06
3.64945e-06
5.23361e-06
7.32529e-06
9.99782e-06
1.3303e-05
1.72654e-05
2.18822e-05
2.71265e-05
3.29537e-05
3.93077e-05
4.61271e-05
5.33496e-05
6.09157e-05
6.87731e-05
7.68814e-05
8.52234e-05
9.383e-05
0.000102828
0.000112475
0.000123165
0.000135333
0.000149361
0.000165564
0.000184923
0.000208613
0.00023798
0.000274605
0.000320385
0.000377641
0.000449252
0.000538827
0.000650912
0.000791257
0.000967156
0.00118788
0.00146525
0.00181433
0.00225436
0.00280999
0.00351282
0.00440345
0.00552115
0.00691113
0.00874456
0.011083
0.0140417
0.0292495
0.0469429
0.0645142
0.0817462
0.0984658
0.114533
0.129835
0.144276
0.157774
0.170257
0.181657
0.19191
0.200938
0.208674
0.215065
0.220094
0.223808
0.226356
0.227973
0.228927
0.229455
0.229733
0.229872
0.22994
0.229972
0.229987
0.229994
0.229998
0.229999
0.23
0.23
0.23
0.23
0.23
0.23
0.23
0.23
0.23
0.23
5.8529e-10
2.55826e-09
5.87829e-09
1.1447e-08
2.07422e-08
3.6158e-08
6.15204e-08
1.02848e-07
1.69435e-07
2.75333e-07
4.41262e-07
6.96886e-07
1.08318e-06
1.65437e-06
2.47845e-06
3.63533e-06
5.21145e-06
7.29123e-06
9.94664e-06
1.32279e-05
1.71579e-05
2.17317e-05
2.69203e-05
3.26766e-05
3.89419e-05
4.56513e-05
5.27385e-05
6.01394e-05
6.77952e-05
7.56576e-05
8.36988e-05
9.19351e-05
0.000100474
0.00010958
0.000119578
0.000130835
0.000143649
0.000158725
0.000176994
0.0001996
0.000227831
0.000263222
0.000307645
0.000363328
0.000433128
0.000520624
0.000630324
0.000767936
0.000940726
0.00115795
0.00143142
0.00177625
0.00221178
0.00276283
0.00346131
0.00434832
0.00546383
0.00685442
0.00869268
0.0110423
0.0140221
0.0291032
0.0467732
0.0643374
0.0815717
0.0982985
0.114376
0.129688
0.144141
0.157651
0.170146
0.181558
0.191824
0.200864
0.208612
0.215016
0.220057
0.223782
0.22634
0.227963
0.228921
0.229452
0.229731
0.229871
0.229939
0.229972
0.229987
0.229994
0.229998
0.229999
0.23
0.23
0.23
0.23
0.23
0.23
0.23
0.23
0.23
0.23
5.82888e-10
2.54774e-09
5.85397e-09
1.13991e-08
2.06538e-08
3.60002e-08
6.12436e-08
1.02367e-07
1.68606e-07
2.73914e-07
4.38853e-07
6.92826e-07
1.07641e-06
1.64321e-06
2.46034e-06
3.6064e-06
5.16617e-06
7.22187e-06
9.84287e-06
1.30763e-05
1.69419e-05
2.1431e-05
2.65108e-05
3.213e-05
3.8225e-05
4.47256e-05
5.15592e-05
5.86539e-05
6.59416e-05
7.33624e-05
8.08728e-05
8.84668e-05
9.6218e-05
0.000104347
0.000113198
0.000123084
0.000134435
0.000148082
0.000164929
0.000185989
0.000212501
0.000245946
0.000288125
0.000341328
0.00040834
0.000492696
0.000598894
0.000732485
0.000900737
0.00111291
0.00138085
0.00171977
0.00214925
0.00269447
0.00338802
0.00427209
0.0053878
0.00678568
0.00864275
0.011031
0.0140867
0.0288096
0.0464512
0.0640067
0.0812445
0.0979822
0.114075
0.129406
0.143878
0.157409
0.169925
0.181359
0.191648
0.200712
0.208485
0.214915
0.21998
0.223728
0.226304
0.227942
0.228909
0.229445
0.229728
0.229869
0.229939
0.229972
0.229987
0.229994
0.229997
0.229999
0.23
0.23
0.23
0.23
0.23
0.23
0.23
0.23
0.23
0.23
5.79371e-10
2.53233e-09
5.81836e-09
1.1329e-08
2.05246e-08
3.57695e-08
6.08387e-08
1.01664e-07
1.67396e-07
2.71845e-07
4.35339e-07
6.86914e-07
1.06657e-06
1.62702e-06
2.43411e-06
3.56463e-06
5.10097e-06
7.12232e-06
9.69446e-06
1.28605e-05
1.66357e-05
2.1007e-05
2.59366e-05
3.13682e-05
3.72329e-05
4.34545e-05
4.99537e-05
5.66512e-05
6.34703e-05
7.03404e-05
7.72049e-05
8.40398e-05
9.08915e-05
9.7924e-05
0.000105558
0.000114088
0.000124127
0.000136328
0.000151572
0.000170889
0.000195491
0.000226813
0.000266592
0.000317002
0.000380765
0.000461341
0.000563161
0.000692011
0.00085512
0.00106152
0.00132314
0.00165526
0.00207761
0.00261568
0.00330249
0.00418093
0.00529312
0.00669095
0.00855279
0.0109524
0.0140306
0.0283594
0.0459753
0.0635246
0.0807689
0.0975216
0.113635
0.12899
0.143488
0.157048
0.169595
0.181061
0.191383
0.200483
0.208292
0.214759
0.219862
0.223644
0.226249
0.227908
0.22889
0.229435
0.229722
0.229867
0.229937
0.229971
0.229987
0.229994
0.229997
0.229999
0.23
0.23
0.23
0.23
0.23
0.23
0.23
0.23
0.23
0.23
5.74859e-10
2.51257e-09
5.77269e-09
1.12391e-08
2.0359e-08
3.54741e-08
6.03212e-08
1.00767e-07
1.65852e-07
2.6921e-07
4.30875e-07
6.79418e-07
1.05411e-06
1.60659e-06
2.40108e-06
3.51221e-06
5.0194e-06
6.99826e-06
9.51029e-06
1.2594e-05
1.62595e-05
2.04889e-05
2.52395e-05
3.04501e-05
3.60467e-05
4.19482e-05
4.80703e-05
5.43284e-05
6.06403e-05
6.69299e-05
7.31344e-05
7.92212e-05
8.52229e-05
9.12851e-05
9.77467e-05
0.000105006
0.000113623
0.000124265
0.000137841
0.000155363
0.000177998
0.000207136
0.000244473
0.000292124
0.00035275
0.000429724
0.00052733
0.000651142
0.000808334
0.00100846
0.00126342
0.00158823
0.00200279
0.00253278
0.00321157
0.00408257
0.0051891
0.00658379
0.00844659
0.0108543
0.0139575
0.0277526
0.0453414
0.0628873
0.0801413
0.0969129
0.113052
0.128437
0.142969
0.156566
0.169152
0.18066
0.191026
0.200172
0.208031
0.214548
0.219701
0.22353
0.226174
0.227862
0.228864
0.229421
0.229715
0.229863
0.229936
0.22997
0.229987
0.229994
0.229997
0.229999
0.23
0.23
0.23
0.23
0.23
0.23
0.23
0.23
0.23
0.23
5.69497e-10
2.48909e-09
5.71843e-09
1.11323e-08
2.01625e-08
3.51241e-08
5.97085e-08
9.97064e-08
1.64032e-07
2.66106e-07
4.25628e-07
6.70625e-07
1.03954e-06
1.58274e-06
2.36266e-06
3.45141e-06
4.92516e-06
6.85549e-06
9.29931e-06
1.22901e-05
1.58331e-05
1.99053e-05
2.44596e-05
2.94304e-05
3.474e-05
4.03039e-05
4.60343e-05
5.18441e-05
5.76488e-05
6.33701e-05
6.89431e-05
7.43307e-05
7.95544e-05
8.47437e-05
9.01044e-05
9.62352e-05
0.000103561
0.000112813
0.000124854
0.000140666
0.000161379
0.000188343
0.000223204
0.000268027
0.000325427
0.000398749
0.000492274
0.000611492
0.000763444
0.000957196
0.00120464
0.00152166
0.00192816
0.00244959
0.00311965
0.00398223
0.00508192
0.0064718
0.00833336
0.0107465
0.0138728
0.0269849
0.0445509
0.0620904
0.0793547
0.0961479
0.112316
0.127737
0.142311
0.155953
0.168588
0.180148
0.190569
0.199775
0.207696
0.214278
0.219494
0.223382
0.226076
0.227802
0.228829
0.229401
0.229705
0.229859
0.229934
0.229969
0.229986
0.229994
0.229997
0.229999
0.229999
0.23
0.23
0.23
0.23
0.23
0.23
0.23
0.23
0.23
5.6344e-10
2.46257e-09
5.65719e-09
1.1012e-08
1.99411e-08
3.47302e-08
5.902e-08
9.85164e-08
1.61992e-07
2.62638e-07
4.19775e-07
6.60841e-07
1.02336e-06
1.55635e-06
2.32027e-06
3.38456e-06
4.82191e-06
6.69972e-06
9.07015e-06
1.19617e-05
1.53748e-05
1.92819e-05
2.3632e-05
2.83563e-05
3.33745e-05
3.86e-05
4.39441e-05
4.93189e-05
5.46403e-05
5.98311e-05
6.48273e-05
6.95917e-05
7.4141e-05
7.85899e-05
8.31619e-05
8.82873e-05
9.44641e-05
0.000102461
0.000113099
0.000127324
0.000146232
0.000171131
0.000203622
0.000245718
0.000299976
0.000369678
0.000459048
0.000573545
0.000720229
0.000908209
0.00114923
0.00145843
0.00185585
0.00236816
0.00302926
0.00388289
0.00497499
0.00635885
0.00821724
0.0106329
0.0137799
0.026039
0.0435782
0.0611104
0.0783908
0.0952109
0.111415
0.126879
0.141501
0.155197
0.167892
0.179516
0.190005
0.199283
0.207281
0.213941
0.219236
0.223198
0.225954
0.227727
0.228785
0.229379
0.229695
0.229853
0.229931
0.229968
0.229986
0.229994
0.229997
0.229999
0.229999
0.23
0.23
0.23
0.23
0.23
0.23
0.23
0.23
0.23
5.56849e-10
2.43372e-09
5.59059e-09
1.08811e-08
1.97008e-08
3.43031e-08
5.82747e-08
9.72308e-08
1.59793e-07
2.58906e-07
4.13493e-07
6.50366e-07
1.00609e-06
1.52825e-06
2.27527e-06
3.31381e-06
4.71305e-06
6.53613e-06
8.83055e-06
1.162e-05
1.49004e-05
1.86404e-05
2.27858e-05
2.72654e-05
3.19977e-05
3.68955e-05
4.18703e-05
4.68355e-05
5.17089e-05
5.64157e-05
6.08947e-05
6.51092e-05
6.90711e-05
7.28784e-05
7.6754e-05
8.09755e-05
8.61931e-05
9.31843e-05
0.000102618
0.000115425
0.000132678
0.000155651
0.000185908
0.000225412
0.000276667
0.000342895
0.00042826
0.000538155
0.000679574
0.000861597
0.00109603
0.0013982
0.00178795
0.00229114
0.00294211
0.00378641
0.0048705
0.00624773
0.00810194
0.0105188
0.0136806
0.0248993
0.0424168
0.0599522
0.0772375
0.0940874
0.110331
0.125843
0.140522
0.154283
0.167049
0.178751
0.189322
0.198687
0.206777
0.213532
0.218921
0.222971
0.225801
0.227631
0.228735
0.229353
0.229681
0.229847
0.229928
0.229967
0.229985
0.229993
0.229997
0.229999
0.229999
0.23
0.23
0.23
0.23
0.23
0.23
0.23
0.23
0.23
5.49877e-10
2.40321e-09
5.52019e-09
1.0743e-08
1.94473e-08
3.38532e-08
5.74911e-08
9.58817e-08
1.5749e-07
2.55006e-07
4.06945e-07
6.39475e-07
9.88178e-07
1.49919e-06
2.22887e-06
3.24111e-06
4.60156e-06
6.36922e-06
8.58707e-06
1.12743e-05
1.44229e-05
1.7998e-05
2.19432e-05
2.6186e-05
3.06445e-05
3.5232e-05
3.98617e-05
4.44494e-05
4.89161e-05
5.3191e-05
5.7217e-05
6.09605e-05
6.44324e-05
6.77216e-05
7.1035e-05
7.46902e-05
7.91152e-05
8.50467e-05
9.34067e-05