/*--------------------------------*- C++ -*----------------------------------*\
  =========                 |
  \\      /  F ield         | OpenFOAM: The Open Source CFD Toolbox
   \\    /   O peration     | Website:  https://openfoam.org
    \\  /    A nd           | Version:  8
     \\/     M anipulation  |
\*---------------------------------------------------------------------------*/
FoamFile
{
    version     2.0;
    format      ascii;
    class       surfaceScalarField;
    location    "800/fluid";
    object      phi;
}
// * * * * * * * * * * * * * * * * * * * * * * * * * * * * * * * * * * * * * //

dimensions      [1 0 -1 0 0 0 0];

internalField   nonuniform List<scalar> 
7860
(
6.57261e-07
-1.77841e-08
6.54572e-07
-5.33398e-08
6.50746e-07
-8.87149e-08
6.45671e-07
-1.23813e-07
6.39213e-07
-1.58634e-07
6.31209e-07
-1.93129e-07
6.21472e-07
-2.27214e-07
6.09804e-07
-2.60768e-07
5.95999e-07
-2.93624e-07
5.79861e-07
-3.25559e-07
5.6122e-07
-3.56285e-07
5.39954e-07
-3.85435e-07
5.16038e-07
-4.12551e-07
4.89649e-07
-4.37089e-07
4.61069e-07
-4.58409e-07
4.30662e-07
-4.75846e-07
3.98902e-07
-4.88845e-07
3.66333e-07
-4.97113e-07
3.33517e-07
-5.00739e-07
3.00965e-07
-5.00212e-07
2.69082e-07
-4.96318e-07
2.38153e-07
-4.89967e-07
2.08357e-07
-4.82017e-07
1.79827e-07
-4.73163e-07
1.52609e-07
-4.63889e-07
1.26666e-07
-4.54492e-07
1.01929e-07
-4.45134e-07
7.83217e-08
-4.35881e-07
5.57739e-08
-4.26745e-07
3.42234e-08
-4.17707e-07
1.36177e-08
-4.08738e-07
-6.08396e-09
-3.99812e-07
-2.49099e-08
-3.90908e-07
-4.28889e-08
-3.82017e-07
-6.0052e-08
-3.73144e-07
-7.64224e-08
-3.64276e-07
-9.20196e-08
-3.55375e-07
-1.06863e-07
-3.46454e-07
-1.2097e-07
-3.37533e-07
-1.3436e-07
-3.28635e-07
-1.47051e-07
-3.19783e-07
-1.59063e-07
-3.11005e-07
-1.70415e-07
-3.02327e-07
-1.81125e-07
-2.93776e-07
-1.91215e-07
-2.8538e-07
-2.00704e-07
-2.77165e-07
-2.09614e-07
-2.6916e-07
-2.17963e-07
-2.61389e-07
-2.25775e-07
-2.5388e-07
-2.33069e-07
-2.46658e-07
-2.39869e-07
-2.3975e-07
-2.46195e-07
-2.33183e-07
-2.52073e-07
-2.26987e-07
-2.57528e-07
-2.21195e-07
-2.62589e-07
-2.15844e-07
-2.6729e-07
-2.10977e-07
-2.71675e-07
-2.0665e-07
-2.75797e-07
-2.02955e-07
-2.79714e-07
-1.9996e-07
-2.83501e-07
-1.97729e-07
-2.87292e-07
-1.96502e-07
-2.91528e-07
-1.96448e-07
-2.96456e-07
-1.98764e-07
-3.03324e-07
-2.09896e-07
-3.11239e-07
-2.22343e-07
-3.20011e-07
-2.3608e-07
-3.29691e-07
-2.5129e-07
-3.404e-07
-2.68213e-07
-3.52297e-07
-2.87121e-07
-3.65599e-07
-3.08341e-07
-3.80602e-07
-3.32269e-07
-3.97701e-07
-3.59369e-07
-4.17424e-07
-3.90177e-07
-4.40457e-07
-4.25416e-07
-4.67663e-07
-4.65743e-07
-5.00015e-07
-5.11178e-07
-5.38407e-07
-5.60651e-07
-5.83117e-07
-6.11234e-07
-6.33902e-07
-6.57446e-07
-6.89567e-07
-6.92184e-07
-7.47756e-07
-7.09821e-07
-8.05544e-07
-7.0927e-07
-8.60427e-07
-6.93761e-07
-9.10852e-07
-6.6797e-07
-9.56163e-07
-6.35923e-07
-9.9618e-07
-6.00232e-07
-1.03078e-06
-5.62338e-07
-1.06032e-06
-5.22933e-07
-1.08532e-06
-4.82454e-07
-1.10634e-06
-4.41232e-07
-1.12386e-06
-3.99521e-07
-1.13832e-06
-3.57512e-07
-1.15015e-06
-3.15353e-07
-1.15969e-06
-2.73152e-07
-1.16727e-06
-2.30984e-07
-1.17317e-06
-1.88883e-07
-1.17763e-06
-1.46857e-07
-1.18082e-06
-1.049e-07
-1.18292e-06
-6.29725e-08
-2.10214e-08
6.57907e-07
-1.7157e-08
6.55766e-07
-5.11994e-08
6.52034e-07
-8.49832e-08
6.4671e-07
-1.18489e-07
6.39724e-07
-1.51648e-07
6.30978e-07
-1.84382e-07
6.20356e-07
-2.16592e-07
6.07744e-07
-2.48156e-07
5.93036e-07
-2.78916e-07
5.76152e-07
-3.08674e-07
5.57045e-07
-3.37179e-07
5.35719e-07
-3.64109e-07
5.12242e-07
-3.89073e-07
4.86776e-07
-4.11623e-07
4.59553e-07
-4.31185e-07
4.30869e-07
-4.47161e-07
4.01092e-07
-4.59068e-07
3.70641e-07
-4.66662e-07
3.39942e-07
-4.7004e-07
3.09381e-07
-4.69649e-07
2.79267e-07
-4.66202e-07
2.49821e-07
-4.60519e-07
2.21186e-07
-4.5338e-07
1.93458e-07
-4.45433e-07
1.66689e-07
-4.37118e-07
1.4089e-07
-4.28692e-07
1.16051e-07
-4.20293e-07
9.21518e-08
-4.11981e-07
6.9172e-08
-4.03764e-07
4.70899e-08
-3.95624e-07
2.58853e-08
-3.87533e-07
5.53871e-09
-3.79464e-07
-1.39683e-08
-3.714e-07
-3.26527e-08
-3.63332e-07
-5.0532e-08
-3.55264e-07
-6.76203e-08
-3.47187e-07
-8.39312e-08
-3.39063e-07
-9.94799e-08
-3.30904e-07
-1.14282e-07
-3.2273e-07
-1.28356e-07
-3.14561e-07
-1.41718e-07
-3.06421e-07
-1.54387e-07
-2.98335e-07
-1.66384e-07
-2.9033e-07
-1.77728e-07
-2.82431e-07
-1.88442e-07
-2.74666e-07
-1.98547e-07
-2.6706e-07
-2.08065e-07
-2.5964e-07
-2.17022e-07
-2.52432e-07
-2.2544e-07
-2.45461e-07
-2.33346e-07
-2.38752e-07
-2.40765e-07
-2.3233e-07
-2.47728e-07
-2.2622e-07
-2.54266e-07
-2.2045e-07
-2.60413e-07
-2.15047e-07
-2.66212e-07
-2.10045e-07
-2.71712e-07
-2.05478e-07
-2.76974e-07
-2.01388e-07
-2.82074e-07
-1.97854e-07
-2.87117e-07
-1.94918e-07
-2.92245e-07
-1.92601e-07
-2.97689e-07
-1.91057e-07
-3.03729e-07
-1.90407e-07
-3.09487e-07
-1.92999e-07
-3.16521e-07
-2.02861e-07
-3.24785e-07
-2.14077e-07
-3.34178e-07
-2.26685e-07
-3.44692e-07
-2.40774e-07
-3.56402e-07
-2.565e-07
-3.6944e-07
-2.74079e-07
-3.83991e-07
-2.93788e-07
-4.00288e-07
-3.15967e-07
-4.18626e-07
-3.41026e-07
-4.39347e-07
-3.69449e-07
-4.62836e-07
-4.0192e-07
-4.89566e-07
-4.39005e-07
-5.20072e-07
-4.80663e-07
-5.54863e-07
-5.25849e-07
-5.94259e-07
-5.71826e-07
-6.38337e-07
-6.13356e-07
-6.86514e-07
-6.43996e-07
-7.3725e-07
-6.59078e-07
-7.88408e-07
-6.58107e-07
-8.3804e-07
-6.44126e-07
-8.84833e-07
-6.21175e-07
-9.28143e-07
-5.92612e-07
-9.67712e-07
-5.60662e-07
-1.00339e-06
-5.26665e-07
-1.03515e-06
-4.91166e-07
-1.06312e-06
-4.54489e-07
-1.08745e-06
-4.16897e-07
-1.10838e-06
-3.78594e-07
-1.12615e-06
-3.39742e-07
-1.14103e-06
-3.00473e-07
-1.15329e-06
-2.60894e-07
-1.16318e-06
-2.21093e-07
-1.17093e-06
-1.8113e-07
-1.17674e-06
-1.41043e-07
-1.18077e-06
-1.00874e-07
-1.18309e-06
-6.06501e-08
-2.02909e-08
6.57607e-07
-1.62306e-08
6.54928e-07
-4.85198e-08
6.50506e-07
-8.05619e-08
6.44308e-07
-1.12291e-07
6.36292e-07
-1.43632e-07
6.26408e-07
-1.74498e-07
6.14609e-07
-2.04794e-07
6.0086e-07
-2.34406e-07
5.85141e-07
-2.63197e-07
5.6746e-07
-2.90994e-07
5.4786e-07
-3.17578e-07
5.26419e-07
-3.42668e-07
5.03247e-07
-3.65902e-07
4.78462e-07
-3.86838e-07
4.52244e-07
-4.04968e-07
4.24858e-07
-4.19775e-07
3.96629e-07
-4.30838e-07
3.67911e-07
-4.37944e-07
3.39053e-07
-4.41182e-07
3.10363e-07
-4.40959e-07
2.82083e-07
-4.37921e-07
2.5438e-07
-4.32816e-07
2.27353e-07
-4.26352e-07
2.01032e-07
-4.19111e-07
1.75421e-07
-4.11507e-07
1.5053e-07
-4.038e-07
1.26368e-07
-3.96129e-07
1.0294e-07
-3.88552e-07
8.02515e-08
-3.81075e-07
5.83057e-08
-3.73677e-07
3.71036e-08
-3.6633e-07
1.66449e-08
-3.59005e-07
-3.07234e-09
-3.51682e-07
-2.20525e-08
-3.44351e-07
-4.03021e-08
-3.37014e-07
-5.78256e-08
-3.29663e-07
-7.46283e-08
-3.2226e-07
-9.07184e-08
-3.14814e-07
-1.06106e-07
-3.07341e-07
-1.20804e-07
-2.99863e-07
-1.34824e-07
-2.924e-07
-1.48184e-07
-2.84975e-07
-1.609e-07
-2.77614e-07
-1.72991e-07
-2.7034e-07
-1.84478e-07
-2.63178e-07
-1.95384e-07
-2.56155e-07
-2.05731e-07
-2.49293e-07
-2.15545e-07
-2.42618e-07
-2.24855e-07
-2.36151e-07
-2.3369e-07
-2.29917e-07
-2.42083e-07
-2.23937e-07
-2.50071e-07
-2.18233e-07
-2.57693e-07
-2.12828e-07
-2.64995e-07
-2.07745e-07
-2.72032e-07
-2.03008e-07
-2.78863e-07
-1.98646e-07
-2.85562e-07
-1.94688e-07
-2.92213e-07
-1.91203e-07
-2.98919e-07
-1.88212e-07
-3.05802e-07
-1.85718e-07
-3.13e-07
-1.83858e-07
-3.20675e-07
-1.82731e-07
-3.27414e-07
-1.8625e-07
-3.35197e-07
-1.95076e-07
-3.44057e-07
-2.05215e-07
-3.54018e-07
-2.16722e-07
-3.65127e-07
-2.29662e-07
-3.7746e-07
-2.44164e-07
-3.91119e-07
-2.60416e-07
-4.0623e-07
-2.78672e-07
-4.22938e-07
-2.99253e-07
-4.41404e-07
-3.22553e-07
-4.61783e-07
-3.49062e-07
-4.84227e-07
-3.79467e-07
-5.08965e-07
-4.14256e-07
-5.36327e-07
-4.53289e-07
-5.66818e-07
-4.95344e-07
-6.01222e-07
-5.37408e-07
-6.40095e-07
-5.74471e-07
-6.83215e-07
-6.00865e-07
-7.29315e-07
-6.12971e-07
-7.76477e-07
-6.10941e-07
-8.22883e-07
-5.97718e-07
-8.67244e-07
-5.76813e-07
-9.08838e-07
-5.51017e-07
-9.47361e-07
-5.22138e-07
-9.82816e-07
-4.9121e-07
-1.01517e-06
-4.5881e-07
-1.04439e-06
-4.25272e-07
-1.07048e-06
-3.90804e-07
-1.09352e-06
-3.55562e-07
-1.11359e-06
-3.19666e-07
-1.13084e-06
-2.83225e-07
-1.1454e-06
-2.4633e-07
-1.15743e-06
-2.09065e-07
-1.16707e-06
-1.71495e-07
-1.17443e-06
-1.33675e-07
-1.17964e-06
-9.56679e-08
-1.18276e-06
-5.75269e-08
-1.92339e-08
6.57627e-07
-1.53236e-08
6.54882e-07
-4.57754e-08
6.50295e-07
-7.59747e-08
6.43862e-07
-1.05858e-07
6.35573e-07
-1.35343e-07
6.25418e-07
-1.64343e-07
6.13387e-07
-1.92763e-07
5.99478e-07
-2.20497e-07
5.83699e-07
-2.47417e-07
5.66071e-07
-2.73366e-07
5.46637e-07
-2.98144e-07
5.25465e-07
-3.21496e-07
5.02658e-07
-3.43095e-07
4.78363e-07
-3.62543e-07
4.52778e-07
-3.79383e-07
4.26154e-07
-3.93152e-07
3.98781e-07
-4.03466e-07
3.70968e-07
-4.10131e-07
3.43014e-07
-4.13229e-07
3.15182e-07
-4.13128e-07
2.87681e-07
-4.10421e-07
2.60661e-07
-4.05796e-07
2.34218e-07
-3.99909e-07
2.08404e-07
-3.93298e-07
1.83245e-07
-3.86348e-07
1.58749e-07
-3.79305e-07
1.3492e-07
-3.723e-07
1.11755e-07
-3.65387e-07
8.92536e-08
-3.58574e-07
6.74161e-08
-3.5184e-07
4.62426e-08
-3.45156e-07
2.57338e-08
-3.38496e-07
5.88991e-09
-3.31838e-07
-1.32899e-08
-3.25171e-07
-3.18084e-08
-3.18495e-07
-4.96665e-08
-3.11805e-07
-6.68658e-08
-3.05061e-07
-8.34106e-08
-2.98269e-07
-9.93077e-08
-2.91444e-07
-1.14566e-07
-2.84605e-07
-1.29195e-07
-2.7777e-07
-1.4321e-07
-2.7096e-07
-1.56624e-07
-2.64199e-07
-1.69457e-07
-2.57507e-07
-1.81726e-07
-2.50908e-07
-1.93454e-07
-2.44426e-07
-2.04665e-07
-2.38082e-07
-2.15385e-07
-2.31898e-07
-2.25643e-07
-2.25894e-07
-2.35471e-07
-2.2009e-07
-2.44902e-07
-2.14505e-07
-2.53976e-07
-2.09159e-07
-2.62735e-07
-2.04069e-07
-2.71226e-07
-1.99254e-07
-2.79502e-07
-1.94732e-07
-2.87622e-07
-1.90525e-07
-2.95654e-07
-1.86657e-07
-3.03668e-07
-1.83189e-07
-3.11754e-07
-1.80126e-07
-3.2e-07
-1.77472e-07
-3.28504e-07
-1.75354e-07
-3.37352e-07
-1.73881e-07
-3.45086e-07
-1.78505e-07
-3.53691e-07
-1.86468e-07
-3.63216e-07
-1.95687e-07
-3.73722e-07
-2.06212e-07
-3.85278e-07
-2.18102e-07
-3.97965e-07
-2.31472e-07
-4.1187e-07
-2.46505e-07
-4.27092e-07
-2.63443e-07
-4.43742e-07
-2.82596e-07
-4.61945e-07
-3.04342e-07
-4.81816e-07
-3.2918e-07
-5.03512e-07
-3.57759e-07
-5.27306e-07
-3.90448e-07
-5.53593e-07
-4.26986e-07
-5.82914e-07
-4.66007e-07
-6.15875e-07
-5.04432e-07
-6.52847e-07
-5.37484e-07
-6.93539e-07
-5.60162e-07
-7.36815e-07
-5.69686e-07
-7.81074e-07
-5.66677e-07
-8.24821e-07
-5.53968e-07
-8.66973e-07
-5.3466e-07
-9.06868e-07
-5.11121e-07
-9.44149e-07
-4.84857e-07
-9.78652e-07
-4.56707e-07
-1.01032e-06
-4.27139e-07
-1.03916e-06
-3.9643e-07
-1.0652e-06
-3.64767e-07
-1.08848e-06
-3.32287e-07
-1.10904e-06
-2.991e-07
-1.12696e-06
-2.65304e-07
-1.14231e-06
-2.30987e-07
-1.15514e-06
-1.96228e-07
-1.16554e-06
-1.61095e-07
-1.17357e-06
-1.25649e-07
-1.17927e-06
-8.9966e-08
-1.18268e-06
-5.41142e-08
-1.80963e-08
6.57564e-07
-1.43538e-08
6.54681e-07
-4.28925e-08
6.49898e-07
-7.11915e-08
6.4322e-07
-9.91795e-08
6.34652e-07
-1.26776e-07
6.24205e-07
-1.53895e-07
6.1189e-07
-1.80449e-07
5.97729e-07
-2.06336e-07
5.81753e-07
-2.31442e-07
5.64009e-07
-2.55623e-07
5.44563e-07
-2.78698e-07
5.23504e-07
-3.00437e-07
5.00951e-07
-3.20543e-07
4.77059e-07
-3.38651e-07
4.52019e-07
-3.54344e-07
4.26063e-07
-3.67197e-07
3.99452e-07
-3.76855e-07
3.72458e-07
-3.83139e-07
3.45344e-07
-3.86116e-07
3.18337e-07
-3.86122e-07
2.91618e-07
-3.83703e-07
2.65315e-07
-3.79494e-07
2.3951e-07
-3.74106e-07
2.14251e-07
-3.6804e-07
1.89564e-07
-3.61661e-07
1.65459e-07
-3.552e-07
1.41941e-07
-3.48782e-07
1.19011e-07
-3.42458e-07
9.66719e-08
-3.36235e-07
7.49251e-08
-3.30093e-07
5.37731e-08
-3.24005e-07
3.32185e-08
-3.17942e-07
1.32633e-08
-3.11883e-07
-6.0914e-09
-3.05817e-07
-2.48459e-08
-2.99741e-07
-4.30004e-08
-2.9365e-07
-6.05545e-08
-2.87507e-07
-7.75102e-08
-2.81313e-07
-9.38721e-08
-2.75083e-07
-1.09647e-07
-2.6883e-07
-1.24843e-07
-2.62574e-07
-1.39473e-07
-2.56331e-07
-1.5355e-07
-2.50123e-07
-1.67089e-07
-2.43969e-07
-1.80108e-07
-2.3789e-07
-1.92628e-07
-2.31907e-07
-2.04672e-07
-2.26039e-07
-2.16265e-07
-2.20305e-07
-2.27435e-07
-2.14724e-07
-2.38212e-07
-2.09313e-07
-2.4863e-07
-2.04088e-07
-2.58723e-07
-1.99066e-07
-2.68532e-07
-1.94261e-07
-2.78098e-07
-1.89688e-07
-2.87468e-07
-1.85363e-07
-2.96691e-07
-1.81302e-07
-3.05824e-07
-1.77524e-07
-3.14922e-07
-1.74091e-07
-3.24057e-07
-1.70991e-07
-3.33298e-07
-1.68231e-07
-3.42722e-07
-1.6593e-07
-3.52392e-07
-1.64205e-07
-3.61127e-07
-1.6976e-07
-3.70545e-07
-1.77046e-07
-3.80716e-07
-1.85511e-07
-3.91733e-07
-1.95191e-07
-4.03681e-07
-2.06147e-07
-4.16647e-07
-2.185e-07
-4.30718e-07
-2.32427e-07
-4.45985e-07
-2.48168e-07
-4.62545e-07
-2.66026e-07
-4.80506e-07
-2.86369e-07
-4.99966e-07
-3.09707e-07
-5.21074e-07
-3.36636e-07
-5.44088e-07
-3.67418e-07
-5.69376e-07
-4.0168e-07
-5.97435e-07
-4.3793e-07
-6.2881e-07
-4.73038e-07
-6.63822e-07
-5.02456e-07
-7.02187e-07
-5.21786e-07
-7.42896e-07
-5.28968e-07
-7.84573e-07
-5.24995e-07
-8.25952e-07
-5.12587e-07
-8.66111e-07
-4.94499e-07
-9.04466e-07
-4.72765e-07
-9.40672e-07
-4.4865e-07
-9.74527e-07
-4.22852e-07
-1.00591e-06
-3.95759e-07
-1.03474e-06
-3.67599e-07
-1.06098e-06
-3.38521e-07
-1.08463e-06
-3.08639e-07
-1.10569e-06
-2.78045e-07
-1.12417e-06
-2.46824e-07
-1.1401e-06
-2.15054e-07
-1.15352e-06
-1.82812e-07
-1.16445e-06
-1.50163e-07
-1.17292e-06
-1.17172e-07
-1.17897e-06
-8.39196e-08
-1.1826e-06
-5.04814e-08
-1.6879e-08
6.57561e-07
-1.33814e-08
6.54652e-07
-3.99829e-08
6.49817e-07
-6.63573e-08
6.43074e-07
-9.24362e-08
6.34439e-07
-1.18141e-07
6.23934e-07
-1.4339e-07
6.11584e-07
-1.68099e-07
5.97425e-07
-1.92176e-07
5.81497e-07
-2.15514e-07
5.63855e-07
-2.37981e-07
5.44571e-07
-2.59414e-07
5.23735e-07
-2.79601e-07
5.01463e-07
-2.98271e-07
4.77905e-07
-3.15094e-07
4.53246e-07
-3.29686e-07
4.27706e-07
-3.41658e-07
4.01534e-07
-3.50684e-07
3.74988e-07
-3.56595e-07
3.48318e-07
-3.59448e-07
3.21742e-07
-3.59548e-07
2.95431e-07
-3.57395e-07
2.6951e-07
-3.53574e-07
2.44055e-07
-3.48653e-07
2.19112e-07
-3.43099e-07
1.94702e-07
-3.37253e-07
1.70834e-07
-3.31334e-07
1.4751e-07
-3.25459e-07
1.24728e-07
-3.19678e-07
1.02487e-07
-3.13996e-07
8.07884e-08
-3.08395e-07
5.96324e-08
-3.02849e-07
3.90209e-08
-2.97331e-07
1.89558e-08
-2.91819e-07
-5.61553e-10
-2.863e-07
-1.95319e-08
-2.80771e-07
-3.79543e-08
-2.75229e-07
-5.58274e-08
-2.69634e-07
-7.31524e-08
-2.63989e-07
-8.99324e-08
-2.58303e-07
-1.06172e-07
-2.52591e-07
-1.2188e-07
-2.46866e-07
-1.37064e-07
-2.41147e-07
-1.51738e-07
-2.3545e-07
-1.65914e-07
-2.29793e-07
-1.79609e-07
-2.24195e-07
-1.92841e-07
-2.18674e-07
-2.05632e-07
-2.13248e-07
-2.18005e-07
-2.07933e-07
-2.29984e-07
-2.02746e-07
-2.41596e-07
-1.97701e-07
-2.52871e-07
-1.92814e-07
-2.6384e-07
-1.88098e-07
-2.74536e-07
-1.83566e-07
-2.84993e-07
-1.79232e-07
-2.95247e-07
-1.75109e-07
-3.05336e-07
-1.71213e-07
-3.15301e-07
-1.67559e-07
-3.25179e-07
-1.64214e-07
-3.35037e-07
-1.61132e-07
-3.44903e-07
-1.58364e-07
-3.54855e-07
-1.55977e-07
-3.64965e-07
-1.54086e-07
-3.74714e-07
-1.60009e-07
-3.8487e-07
-1.66886e-07
-3.9561e-07
-1.74766e-07
-4.07068e-07
-1.83726e-07
-4.1935e-07
-1.93859e-07
-4.32547e-07
-2.05295e-07
-4.4675e-07
-2.18215e-07
-4.6205e-07
-2.32857e-07
-4.78546e-07
-2.49518e-07
-4.96347e-07
-2.68555e-07
-5.15562e-07
-2.90476e-07
-5.36369e-07
-3.15811e-07
-5.59049e-07
-3.44719e-07
-5.83987e-07
-3.76722e-07
-6.11674e-07
-4.10222e-07
-6.42596e-07
-4.42098e-07
-6.76949e-07
-4.68087e-07
-7.14327e-07
-4.84395e-07
-7.53701e-07
-4.89586e-07
-7.93793e-07
-4.84899e-07
-8.33487e-07
-4.7289e-07
-8.71999e-07
-4.55986e-07
-9.08834e-07
-4.35929e-07
-9.43703e-07
-4.13781e-07
-9.76429e-07
-3.90125e-07
-1.0069e-06
-3.65286e-07
-1.03505e-06
-3.39455e-07
-1.06081e-06
-3.12757e-07
-1.08416e-06
-2.85291e-07
-1.10507e-06
-2.57137e-07
-1.12352e-06
-2.28369e-07
-1.13952e-06
-1.9906e-07
-1.15305e-06
-1.6928e-07
-1.16412e-06
-1.39092e-07
-1.17273e-06
-1.0856e-07
-1.17889e-06
-7.7764e-08
-1.18258e-06
-4.67819e-08
-1.5642e-08
6.57552e-07
-1.23994e-08
6.54621e-07
-3.70521e-08
6.49758e-07
-6.14943e-08
6.42981e-07
-8.56596e-08
6.34314e-07
-1.09474e-07
6.23785e-07
-1.32861e-07
6.11427e-07
-1.55741e-07
5.97282e-07
-1.78031e-07
5.81399e-07
-1.99632e-07
5.63842e-07
-2.20424e-07
5.44684e-07
-2.40257e-07
5.24024e-07
-2.5894e-07
5.01978e-07
-2.76226e-07
4.78695e-07
-2.91812e-07
4.54355e-07
-3.05347e-07
4.29169e-07
-3.16473e-07
4.03371e-07
-3.24888e-07
3.77207e-07
-3.30433e-07
3.50911e-07
-3.33154e-07
3.24689e-07
-3.33329e-07
2.98707e-07
-3.31415e-07
2.73081e-07
-3.27951e-07
2.47888e-07
-3.23462e-07
2.23172e-07
-3.18385e-07
1.98955e-07
-3.13038e-07
1.75243e-07
-3.07624e-07
1.52037e-07
-3.02255e-07
1.29336e-07
-2.96978e-07
1.07137e-07
-2.91798e-07
8.54399e-08
-2.86699e-07
6.42436e-08
-2.81654e-07
4.35496e-08
-2.76638e-07
2.3359e-08
-2.71629e-07
3.67293e-09
-2.66615e-07
-1.55082e-08
-2.61591e-07
-3.41846e-08
-2.56553e-07
-5.23546e-08
-2.51465e-07
-7.00183e-08
-2.46326e-07
-8.71779e-08
-2.41144e-07
-1.03837e-07
-2.35932e-07
-1.20002e-07
-2.30703e-07
-1.35681e-07
-2.25469e-07
-1.50883e-07
-2.20249e-07
-1.6562e-07
-2.15057e-07
-1.79907e-07
-2.09909e-07
-1.9376e-07
-2.04822e-07
-2.07197e-07
-1.99811e-07
-2.20239e-07
-1.94892e-07
-2.32907e-07
-1.90078e-07
-2.45225e-07
-1.85384e-07
-2.57218e-07
-1.80822e-07
-2.68911e-07
-1.76404e-07
-2.80334e-07
-1.72144e-07
-2.91513e-07
-1.68053e-07
-3.02476e-07
-1.64146e-07
-3.13253e-07
-1.60437e-07
-3.23864e-07
-1.56948e-07
-3.34333e-07
-1.53744e-07
-3.447e-07
-1.50764e-07
-3.54962e-07
-1.48101e-07
-3.65135e-07
-1.45802e-07
-3.752e-07
-1.4398e-07
-3.85563e-07
-1.49641e-07
-3.96322e-07
-1.56122e-07
-4.07598e-07
-1.63483e-07
-4.19511e-07
-1.71807e-07
-4.32164e-07
-1.81197e-07
-4.45654e-07
-1.91795e-07
-4.60075e-07
-2.03783e-07
-4.75525e-07
-2.17396e-07
-4.9211e-07
-2.3292e-07
-5.09947e-07
-2.50705e-07
-5.29166e-07
-2.71246e-07
-5.49964e-07
-2.94999e-07
-5.72625e-07
-3.22039e-07
-5.97522e-07
-3.51802e-07
-6.25095e-07
-3.82626e-07
-6.55722e-07
-4.11449e-07
-6.89475e-07
-4.34317e-07
-7.25875e-07
-4.47983e-07
-7.63944e-07
-4.51509e-07
-8.02553e-07
-4.46285e-07
-8.40746e-07
-4.34694e-07
-8.77848e-07
-4.18882e-07
-9.13428e-07
-4.00349e-07
-9.47215e-07
-3.79993e-07
-9.79035e-07
-3.58305e-07
-1.00877e-06
-3.35554e-07
-1.03632e-06
-3.119e-07
-1.06163e-06
-2.87447e-07
-1.08465e-06
-2.62278e-07
-1.10532e-06
-2.36463e-07
-1.12362e-06
-2.10067e-07
-1.13953e-06
-1.83154e-07
-1.15302e-06
-1.55789e-07
-1.16408e-06
-1.28031e-07
-1.1727e-06
-9.99406e-08
-1.17887e-06
-7.15951e-08
-1.18258e-06
-4.30714e-08
-1.44005e-08
6.57555e-07
-1.14204e-08
6.5463e-07
-3.41272e-08
6.49776e-07
-5.66401e-08
6.43013e-07
-7.88975e-08
6.3437e-07
-1.0083e-07
6.23876e-07
-1.22367e-07
6.11571e-07
-1.43437e-07
5.975e-07
-1.6396e-07
5.81715e-07
-1.83847e-07
5.64282e-07
-2.0299e-07
5.45277e-07
-2.21253e-07
5.24796e-07
-2.38459e-07
5.02956e-07
-2.54386e-07
4.79899e-07
-2.68756e-07
4.55802e-07
-2.8125e-07
4.30867e-07
-2.91539e-07
4.05321e-07
-2.99345e-07
3.79404e-07
-3.04517e-07
3.53342e-07
-3.07096e-07
3.2734e-07
-3.07329e-07
3.01556e-07
-3.05635e-07
2.7611e-07
-3.02507e-07
2.51075e-07
-2.98431e-07
2.26495e-07
-2.93808e-07
2.0239e-07
-2.88935e-07
1.78766e-07
-2.84002e-07
1.55621e-07
-2.79113e-07
1.32954e-07
-2.74312e-07
1.10758e-07
-2.69605e-07
8.90325e-08
-2.64975e-07
6.77752e-08
-2.60398e-07
4.69861e-08
-2.5585e-07
2.66659e-08
-2.5131e-07
6.81534e-09
-2.46765e-07
-1.25655e-08
-2.42211e-07
-3.14767e-08
-2.37642e-07
-4.99164e-08
-2.33026e-07
-6.7884e-08
-2.28359e-07
-8.53805e-08
-2.23648e-07
-1.02409e-07
-2.18905e-07
-1.18973e-07
-2.14139e-07
-1.3508e-07
-2.09364e-07
-1.50737e-07
-2.04593e-07
-1.65954e-07
-1.9984e-07
-1.80745e-07
-1.9512e-07
-1.95122e-07
-1.90446e-07
-2.091e-07
-1.85834e-07
-2.22698e-07
-1.81295e-07
-2.35934e-07
-1.76844e-07
-2.48828e-07
-1.72491e-07
-2.61401e-07
-1.6825e-07
-2.73676e-07
-1.6413e-07
-2.85676e-07
-1.60144e-07
-2.97426e-07
-1.56304e-07
-3.0895e-07
-1.52622e-07
-3.20273e-07
-1.49115e-07
-3.3141e-07
-1.45811e-07
-3.42393e-07
-1.42761e-07
-3.53231e-07
-1.39925e-07
-3.63922e-07
-1.37409e-07
-3.74428e-07
-1.35293e-07
-3.84486e-07
-1.33876e-07
-3.95015e-07
-1.39107e-07
-4.06038e-07
-1.45092e-07
-4.17621e-07
-1.51892e-07
-4.29841e-07
-1.59577e-07
-4.42781e-07
-1.68247e-07
-4.56525e-07
-1.78038e-07
-4.71163e-07
-1.89129e-07
-4.86796e-07
-2.01745e-07
-5.03535e-07
-2.1616e-07
-5.21506e-07
-2.32711e-07
-5.40856e-07
-2.51869e-07
-5.61809e-07
-2.74021e-07
-5.84655e-07
-2.99167e-07
-6.09757e-07
-3.26677e-07
-6.37501e-07
-3.5486e-07
-6.68171e-07
-3.80758e-07
-7.01715e-07
-4.00756e-07
-7.37572e-07
-4.12114e-07
-7.7478e-07
-4.14293e-07
-8.12305e-07
-4.08754e-07
-8.49308e-07
-3.97689e-07
-8.8521e-07
-3.8298e-07
-9.19639e-07
-3.65919e-07
-9.52364e-07
-3.47268e-07
-9.8323e-07
-3.27439e-07
-1.01212e-06
-3.06661e-07
-1.03896e-06
-2.85066e-07
-1.06366e-06
-2.62745e-07
-1.08617e-06
-2.39768e-07
-1.10644e-06
-2.16196e-07
-1.12442e-06
-1.92087e-07
-1.14007e-06
-1.67497e-07
-1.15338e-06
-1.42487e-07
-1.1643e-06
-1.17108e-07
-1.17282e-06
-9.14198e-08
-1.17892e-06
-6.54926e-08
-1.18259e-06
-3.94002e-08
-1.31728e-08
6.57558e-07
-1.04448e-08
6.54644e-07
-3.12131e-08
6.49809e-07
-5.18049e-08
6.43075e-07
-7.21632e-08
6.34469e-07
-9.22246e-08
6.24026e-07
-1.11924e-07
6.11785e-07
-1.31196e-07
5.97794e-07
-1.49969e-07
5.82107e-07
-1.68161e-07
5.64791e-07
-1.85674e-07
5.45922e-07
-2.02385e-07
5.25596e-07
-2.18134e-07
5.03929e-07
-2.32719e-07
4.8106e-07
-2.45889e-07
4.5716e-07
-2.57352e-07
4.32427e-07
-2.66808e-07
4.07081e-07
-2.74002e-07
3.81355e-07
-2.78793e-07
3.5547e-07
-2.81214e-07
3.29627e-07
-2.81489e-07
3.03984e-07
-2.79995e-07
2.78657e-07
-2.77184e-07
2.53723e-07
-2.735e-07
2.29224e-07
-2.69312e-07
2.0518e-07
-2.64894e-07
1.81597e-07
-2.60422e-07
1.58473e-07
-2.55991e-07
1.35803e-07
-2.51644e-07
1.13581e-07
-2.47385e-07
9.18044e-08
-2.432e-07
7.04699e-08
-2.39065e-07
4.95767e-08
-2.34958e-07
2.9125e-08
-2.30859e-07
9.1151e-09
-2.26756e-07
-1.04529e-08
-2.22644e-07
-2.95792e-08
-2.18517e-07
-4.82616e-08
-2.14345e-07
-6.6499e-08
-2.10123e-07
-8.42914e-08
-2.05857e-07
-1.0164e-07
-2.01557e-07
-1.18548e-07
-1.97232e-07
-1.3502e-07
-1.92893e-07
-1.51062e-07
-1.88551e-07
-1.66683e-07
-1.8422e-07
-1.81893e-07
-1.79911e-07
-1.96702e-07
-1.75638e-07
-2.11123e-07
-1.71413e-07
-2.2517e-07
-1.67248e-07
-2.3886e-07
-1.63155e-07
-2.52209e-07
-1.59143e-07
-2.65236e-07
-1.55225e-07
-2.77957e-07
-1.51409e-07
-2.90395e-07
-1.47708e-07
-3.02569e-07
-1.44131e-07
-3.145e-07
-1.40692e-07
-3.2621e-07
-1.37406e-07
-3.37718e-07
-1.34304e-07
-3.49052e-07
-1.31427e-07
-3.6023e-07
-1.28747e-07
-3.71263e-07
-1.26376e-07
-3.82152e-07
-1.24404e-07
-3.92323e-07
-1.23643e-07
-4.03024e-07
-1.284e-07
-4.14253e-07
-1.33858e-07
-4.2606e-07
-1.40078e-07
-4.38511e-07
-1.4712e-07
-4.51678e-07
-1.55074e-07
-4.65641e-07
-1.64069e-07
-4.80491e-07
-1.74273e-07
-4.96328e-07
-1.85901e-07
-5.1327e-07
-1.99209e-07
-5.31451e-07
-2.14517e-07
-5.51037e-07
-2.32266e-07
-5.72259e-07
-2.52776e-07
-5.95413e-07
-2.75988e-07
-6.20836e-07
-3.01229e-07
-6.48854e-07
-3.26817e-07
-6.79645e-07
-3.49945e-07
-7.13044e-07
-3.6734e-07
-7.48432e-07
-3.76714e-07
-7.84885e-07
-3.77833e-07
-8.2147e-07
-3.72165e-07
-8.57452e-07
-3.61705e-07
-8.92328e-07
-3.48102e-07
-9.25775e-07
-3.32471e-07
-9.57586e-07
-3.15457e-07
-9.87615e-07
-2.97409e-07
-1.01576e-06
-2.78519e-07
-1.04192e-06
-2.589e-07
-1.06604e-06
-2.38629e-07
-1.08804e-06
-2.17766e-07
-1.10787e-06
-1.96363e-07
-1.12549e-06
-1.74472e-07
-1.14084e-06
-1.52143e-07
-1.1539e-06
-1.29429e-07
-1.16463e-06
-1.06379e-07
-1.173e-06
-8.30446e-08
-1.179e-06
-5.94923e-08
-1.18261e-06
-3.57898e-08
-1.19655e-08
6.57564e-07
-9.47496e-09
6.54666e-07
-2.83153e-08
6.49857e-07
-4.69963e-08
6.43161e-07
-6.54663e-08
6.34604e-07
-8.36678e-08
6.24221e-07
-1.01542e-07
6.12054e-07
-1.19029e-07
5.9815e-07
-1.36064e-07
5.82563e-07
-1.52575e-07
5.6536e-07
-1.68471e-07
5.46618e-07
-1.83643e-07
5.26431e-07
-1.97947e-07
5.04911e-07
-2.112e-07
4.82196e-07
-2.23175e-07
4.58452e-07
-2.33609e-07
4.33872e-07
-2.4223e-07
4.08672e-07
-2.48805e-07
3.8308e-07
-2.53204e-07
3.57316e-07
-2.55454e-07
3.31577e-07
-2.55754e-07
3.06022e-07
-2.54443e-07
2.80767e-07
-2.51933e-07
2.55889e-07
-2.48625e-07
2.31431e-07
-2.44858e-07
2.07413e-07
-2.40879e-07
1.83839e-07
-2.36851e-07
1.60709e-07
-2.32863e-07
1.38014e-07
-2.28952e-07
1.15749e-07
-2.25122e-07
9.39093e-08
-2.21362e-07
7.24912e-08
-2.17649e-07
5.14931e-08
-2.13961e-07
3.09147e-08
-2.10282e-07
1.07562e-08
-2.06599e-07
-8.9826e-09
-2.02906e-07
-2.83015e-08
-1.99199e-07
-4.7198e-08
-1.95449e-07
-6.56704e-08
-1.91651e-07
-8.37175e-08
-1.87811e-07
-1.0134e-07
-1.83936e-07
-1.18539e-07
-1.80034e-07
-1.35318e-07
-1.76115e-07
-1.51682e-07
-1.72189e-07
-1.67636e-07
-1.68267e-07
-1.83189e-07
-1.6436e-07
-1.9835e-07
-1.60479e-07
-2.13128e-07
-1.56637e-07
-2.27535e-07
-1.52842e-07
-2.41584e-07
-1.49106e-07
-2.5529e-07
-1.45439e-07
-2.68666e-07
-1.4185e-07
-2.81729e-07
-1.38348e-07
-2.94495e-07
-1.34943e-07
-3.06981e-07
-1.31645e-07
-3.19207e-07
-1.28467e-07
-3.3119e-07
-1.25423e-07
-3.42951e-07
-1.22543e-07
-3.54515e-07
-1.19863e-07
-3.65905e-07
-1.17358e-07
-3.77152e-07
-1.15127e-07
-3.88302e-07
-1.1325e-07
-3.98689e-07
-1.13176e-07
-4.0961e-07
-1.17469e-07
-4.21049e-07
-1.22406e-07
-4.33065e-07
-1.28047e-07
-4.45723e-07
-1.34445e-07
-4.59095e-07
-1.41683e-07
-4.73261e-07
-1.49882e-07
-4.88312e-07
-1.592e-07
-5.04357e-07
-1.69833e-07
-5.2152e-07
-1.82022e-07
-5.39944e-07
-1.96068e-07
-5.59812e-07
-2.12373e-07
-5.81366e-07
-2.31196e-07
-6.04893e-07
-2.52435e-07
-6.30704e-07
-2.75392e-07
-6.59062e-07
-2.98433e-07
-6.90053e-07
-3.18932e-07
-7.2341e-07
-3.33966e-07
-7.58468e-07
-3.41645e-07
-7.94334e-07
-3.41959e-07
-8.30158e-07
-3.36336e-07
-8.6529e-07
-3.26571e-07
-8.9929e-07
-3.14101e-07
-9.31877e-07
-2.99884e-07
-9.62865e-07
-2.84468e-07
-9.92126e-07
-2.68148e-07
-1.01956e-06
-2.51087e-07
-1.04508e-06
-2.3338e-07
-1.06861e-06
-2.15094e-07
-1.0901e-06
-1.96279e-07
-1.10948e-06
-1.76982e-07
-1.12671e-06
-1.57248e-07
-1.14173e-06
-1.37121e-07
-1.15451e-06
-1.16647e-07
-1.16502e-06
-9.58716e-08
-1.17322e-06
-7.48401e-08
-1.1791e-06
-5.36132e-08
-1.18264e-06
-3.22523e-08
-1.07827e-08
6.5757e-07
-8.51069e-09
6.54688e-07
-2.54342e-08
6.49907e-07
-4.22152e-08
6.43249e-07
-5.88077e-08
6.34741e-07
-7.516e-08
6.24418e-07
-9.12193e-08
6.12321e-07
-1.06932e-07
5.98498e-07
-1.22241e-07
5.83003e-07
-1.3708e-07
5.65901e-07
-1.5137e-07
5.4727e-07
-1.65012e-07
5.272e-07
-1.77877e-07
5.05802e-07
-1.89803e-07
4.83213e-07
-2.00586e-07
4.59593e-07
-2.09991e-07
4.35134e-07
-2.17772e-07
4.10046e-07
-2.2372e-07
3.84554e-07
-2.27715e-07
3.58876e-07
-2.29779e-07
3.33208e-07
-2.30089e-07
3.07709e-07
-2.28948e-07
2.82496e-07
-2.26725e-07
2.57646e-07
-2.2378e-07
2.33204e-07
-2.20419e-07
2.09188e-07
-2.16868e-07
1.85605e-07
-2.13271e-07
1.62451e-07
-2.09711e-07
1.39718e-07
-2.06222e-07
1.17401e-07
-2.02807e-07
9.54931e-08
-1.99456e-07
7.39904e-08
-1.96148e-07
5.28911e-08
-1.92864e-07
3.21942e-08
-1.89587e-07
1.19e-08
-1.86306e-07
-7.99151e-09
-1.83015e-07
-2.74801e-08
-1.79712e-07
-4.6563e-08
-1.76367e-07
-6.52374e-08
-1.72978e-07
-8.35015e-08
-1.69548e-07
-1.01355e-07
-1.66084e-07
-1.18798e-07
-1.62592e-07
-1.35832e-07
-1.59082e-07
-1.52461e-07
-1.55561e-07
-1.68688e-07
-1.5204e-07
-1.84521e-07
-1.48529e-07
-1.99965e-07
-1.45037e-07
-2.15028e-07
-1.41574e-07
-2.29721e-07
-1.38151e-07
-2.44054e-07
-1.34775e-07
-2.58039e-07
-1.31456e-07
-2.71687e-07
-1.28203e-07
-2.85012e-07
-1.25023e-07
-2.98029e-07
-1.21927e-07
-3.10752e-07
-1.18923e-07
-3.23198e-07
-1.16022e-07
-3.35385e-07
-1.13237e-07
-3.47331e-07
-1.10597e-07
-3.59063e-07
-1.08132e-07
-3.70602e-07
-1.05819e-07
-3.81984e-07
-1.03744e-07
-3.93236e-07
-1.01994e-07
-4.03871e-07
-1.02469e-07
-4.15012e-07
-1.06317e-07
-4.26659e-07
-1.1075e-07
-4.38875e-07
-1.15821e-07
-4.51729e-07
-1.21581e-07
-4.65293e-07
-1.28107e-07
-4.79653e-07
-1.35509e-07
-4.94905e-07
-1.43933e-07
-5.1116e-07
-1.53561e-07
-5.28552e-07
-1.64611e-07
-5.47235e-07
-1.77364e-07
-5.67401e-07
-1.92182e-07
-5.89303e-07
-2.09269e-07
-6.13219e-07
-2.28491e-07
-6.3943e-07
-2.49154e-07
-6.68138e-07
-2.69699e-07
-6.99338e-07
-2.87711e-07
-7.32677e-07
-3.00609e-07
-7.6746e-07
-3.06851e-07
-8.0283e-07
-3.06582e-07
-8.3801e-07
-3.01152e-07
-8.72421e-07
-2.92157e-07
-9.05676e-07
-2.80845e-07
-9.37524e-07
-2.68035e-07
-9.67802e-07
-2.5419e-07
-9.96388e-07
-2.39562e-07
-1.02319e-06
-2.24285e-07
-1.04813e-06
-2.08443e-07
-1.07113e-06
-1.92091e-07
-1.09213e-06
-1.75274e-07
-1.11108e-06
-1.58031e-07
-1.12793e-06
-1.40401e-07
-1.14263e-06
-1.22424e-07
-1.15513e-06
-1.0414e-07
-1.16542e-06
-8.55886e-08
-1.17345e-06
-6.681e-08
-1.1792e-06
-4.78589e-08
-1.18266e-06
-2.879e-08
-9.62511e-09
6.57575e-07
-7.5519e-09
6.5471e-07
-2.25691e-08
6.49955e-07
-3.74607e-08
6.43333e-07
-5.21856e-08
6.34872e-07
-6.66985e-08
6.24605e-07
-8.09524e-08
6.12573e-07
-9.49001e-08
5.98823e-07
-1.08491e-07
5.83409e-07
-1.21666e-07
5.66396e-07
-1.34357e-07
5.47859e-07
-1.46475e-07
5.27888e-07
-1.57907e-07
5.06592e-07
-1.68508e-07
4.84104e-07
-1.781e-07
4.60583e-07
-1.86471e-07
4.36216e-07
-1.93407e-07
4.11212e-07
-1.98718e-07
3.85792e-07
-2.02299e-07
3.60174e-07
-2.04165e-07
3.34552e-07
-2.04471e-07
3.09086e-07
-2.03487e-07
2.83894e-07
-2.01537e-07
2.59054e-07
-1.98944e-07
2.34611e-07
-1.9598e-07
2.10584e-07
-1.92845e-07
1.8698e-07
-1.8967e-07
1.63793e-07
-1.86527e-07
1.41017e-07
-1.83448e-07
1.18644e-07
-1.80437e-07
9.66682e-08
-1.77482e-07
7.50848e-08
-1.74566e-07
5.38914e-08
-1.71672e-07
3.30872e-08
-1.68784e-07
1.26722e-08
-1.65892e-07
-7.35324e-09
-1.62991e-07
-2.69887e-08
-1.60077e-07
-4.62311e-08
-1.57126e-07
-6.50769e-08
-1.54133e-07
-8.35237e-08
-1.51103e-07
-1.0157e-07
-1.48039e-07
-1.19215e-07
-1.44949e-07
-1.36459e-07
-1.41839e-07
-1.53304e-07
-1.38717e-07
-1.69753e-07
-1.35592e-07
-1.8581e-07
-1.32473e-07
-2.01481e-07
-1.29367e-07
-2.16772e-07
-1.26285e-07
-2.31691e-07
-1.23233e-07
-2.46246e-07
-1.20221e-07
-2.60447e-07
-1.17256e-07
-2.74306e-07
-1.14346e-07
-2.87833e-07
-1.11498e-07
-3.0104e-07
-1.0872e-07
-3.13942e-07
-1.06022e-07
-3.26553e-07
-1.03412e-07
-3.3889e-07
-1.00902e-07
-3.5097e-07
-9.85176e-08
-3.62817e-07
-9.62847e-08