/*--------------------------------*- C++ -*----------------------------------*\
  =========                 |
  \\      /  F ield         | OpenFOAM: The Open Source CFD Toolbox
   \\    /   O peration     | Website:  https://openfoam.org
    \\  /    A nd           | Version:  8
     \\/     M anipulation  |
\*---------------------------------------------------------------------------*/
FoamFile
{
    version     2.0;
    format      ascii;
    class       volScalarField;
    location    "800/fluid";
    object      Qdot;
}
// * * * * * * * * * * * * * * * * * * * * * * * * * * * * * * * * * * * * * //

dimensions      [1 -1 -3 0 0 0 0];

internalField   nonuniform List<scalar> 
4000
(
0
0
0
-3.04486e-07
0
-2.93703e-11
7.94074e-16
0
0
1.17281e-10
-2.39097e-10
-4.86132e-10
4.93059e-10
0
-1.24104e-09
-5.9654e-14
4.02791e-07
-1.25088e-13
1.88374e-08
5.12243e-07
4.12432e-06
5.72562e-05
0.000675319
0.00664591
0.0533662
0.349153
1.87818
8.42779
32.0674
105.15
301.531
765.81
1741.74
3583.47
6729.71
11663.2
18903.2
29040.5
42879.2
61601.9
86898.3
121016
166877
228344
310548
420394
567056
762221
1.02234e+06
1.36829e+06
1.82747e+06
2.43582e+06
3.24051e+06
4.30356e+06
5.70661e+06
7.55756e+06
9.99966e+06
1.31812e+07
1.7336e+07
2.29836e+07
3.04919e+07
7.31567e+07
3.75332e+08
2.94841e+07
2.12277e+07
1.50971e+07
1.05863e+07
7.30495e+06
4.95051e+06
3.28904e+06
2.14097e+06
1.37019e+06
876313
561912
148502
11051.5
303.246
4.27688
0.0405801
0.000415961
7.86869e-06
3.73902e-07
4.14575e-08
8.72216e-09
2.64421e-09
9.62778e-10
4.60205e-10
1.68331e-10
6.95824e-11
3.40868e-11
1.36198e-11
6.3674e-12
2.46222e-12
1.0011e-12
4.42198e-13
1.66333e-13
7.94218e-14
2.52078e-14
9.60538e-15
1.65648e-15
-7.00101e-22
-2.04736e-17
0
0
-1.55282e-11
1.30462e-11
3.29984e-11
0
1.3839e-10
2.55806e-10
0
0
-1.06705e-09
0
3.81603e-07
-3.311e-17
-2.45296e-09
-3.0129e-15
2.73315e-08
2.76699e-07
3.71814e-06
5.14864e-05
0.000610303
0.00605646
0.049211
0.326411
1.78118
8.10585
31.2563
103.761
300.905
771.859
1769.96
3665.36
6918.68
12029.3
19524
29987.6
44205.8
63333.9
89032.3
123515
169701
231467
313990
424233
570986
766722
1.02764e+06
1.37473e+06
1.8356e+06
2.44657e+06
3.25541e+06
4.32511e+06
5.73886e+06
7.60701e+06
1.00765e+07
1.32998e+07
1.75202e+07
2.32768e+07
3.09554e+07
1.14261e+08
3.38966e+08
2.93508e+07
2.10535e+07
1.4922e+07
1.04273e+07
7.16842e+06
4.83802e+06
3.19981e+06
2.07313e+06
1.32164e+06
845291
516320
111195
6631.35
157.482
2.00478
0.0186604
0.000210196
4.74441e-06
2.71237e-07
3.51116e-08
8.57364e-09
2.63738e-09
1.05422e-09
4.41495e-10
1.7637e-10
7.0551e-11
3.17608e-11
1.32683e-11
5.73496e-12
2.41853e-12
1.04676e-12
4.37484e-13
1.65052e-13
7.20615e-14
2.82056e-14
8.84877e-15
1.47631e-15
4.87036e-18
-2.77534e-07
8.49413e-17
0
0
1.5775e-11
-2.63302e-11
-3.34389e-07
0
0
-2.26058e-10
0
-4.61867e-10
3.63939e-07
9.40322e-10
5.5388e-14
5.57022e-14
-2.9508e-15
3.01829e-08
2.65956e-07
3.46921e-06
4.78891e-05
0.000566604
0.00564619
0.0462419
0.309988
1.71224
7.89295
30.8324
103.661
304.292
789.541
1828.68
3816.4
7251.48
12663.5
20598.1
31639.3
46555.2
66473.9
93029.2
128408
175544
238347
322069
433359
581700
780280
1.04461e+06
1.39609e+06
1.86288e+06
2.48207e+06
3.30263e+06
4.38936e+06
5.82823e+06
7.73375e+06
1.02592e+07
1.35619e+07
1.79013e+07
2.38378e+07
3.17693e+07
1.84929e+08
2.72119e+08
2.94336e+07
2.09672e+07
1.47574e+07
1.02396e+07
6.98861e+06
4.68158e+06
3.07288e+06
1.97657e+06
1.25374e+06
803740
439627
73664.2
3540.27
74.6467
0.898889
0.00870105
0.000112245
3.03532e-06
2.04006e-07
2.93659e-08
7.13408e-09
2.3086e-09
9.51502e-10
4.25754e-10
1.86373e-10
7.9533e-11
3.73219e-11
1.47093e-11
5.59998e-12
2.25381e-12
9.71886e-13
-5.32083e-12
-6.64805e-13
6.88075e-14
2.81053e-14
7.76387e-13
1.47801e-15
3.71262e-13
1.70949e-12
-3.55271e-12
0
-3.06372e-07
-1.26626e-11
0
1.10827e-19
0
-3.3887e-07
2.71286e-10
0
0
1.89852e-18
-7.65076e-18
-3.47065e-17
-2.88002e-16
-2.87924e-15
-3.47005e-07
6.28651e-08
3.45674e-06
4.48519e-05
0.000533771
0.0053529
0.0442526
0.299945
1.67668
7.82469
30.9441
105.298
312.721
820.445
1919.51
4037.7
7714.87
13528.6
22045.8
33851.5
49697.9
70693.8
98455.2
135180
183867
248472
333984
447781
600334
803496
1.07387e+06
1.43334e+06
1.91079e+06
2.54436e+06
3.38453e+06
4.49829e+06
5.97471e+06
7.93271e+06
1.05317e+07
1.39284e+07
1.83985e+07
2.4529e+07
3.27363e+07
2.69539e+08
1.89961e+08
2.9419e+07
2.07926e+07
1.45138e+07
9.98498e+06
6.75567e+06
4.48585e+06
2.91908e+06
1.86328e+06
1.17675e+06
757942
350836
45331.1
1802.18
34.0049
0.389734
0.00393938
5.81827e-05
1.87981e-06
1.48248e-07
2.40108e-08
6.53218e-09
2.25696e-09
8.79382e-10
4.17103e-10
1.60511e-10
6.31347e-11
3.02984e-11
1.36818e-11
4.66397e-12
-3.30448e-12
9.6191e-13
3.76848e-13
1.8804e-13
6.23292e-14
2.19774e-14
8.84391e-15
1.48199e-15
0
2.75306e-07
0
1.2421e-20
0
-3.64531e-16
0
0
3.07488e-15
-3.30967e-07
-3.34203e-07
0
4.36732e-10
0
8.84103e-10
-3.73189e-17
4.00172e-09
-2.82741e-15
8.17521e-09
6.06866e-08
3.31967e-06
4.31427e-05
0.000513498
0.0051834
0.0432332
0.296069
1.67344
7.89897
31.5953
108.722
326.399
865.187
2043.45
4329.61
8307.25
14614.1
23835.7
36555
53504.9
75781.4
104989
143362
193940
260527
348952
467409
625071
834931
1.11413e+06
1.48525e+06
1.97818e+06
2.6324e+06
3.50024e+06
4.65121e+06
6.17782e+06
8.20364e+06
1.08885e+07
1.43864e+07
1.90117e+07
2.53659e+07
3.38587e+07
3.52099e+08
1.0584e+08
2.91458e+07
2.03988e+07
1.41051e+07
9.61541e+06
6.44791e+06
4.24461e+06
2.73966e+06
1.7369e+06
1.09383e+06
707418
251498
26921.7
914.949
15.7302
0.175148
0.0018822
3.20189e-05
1.22596e-06
1.10938e-07
2.05058e-08
5.52793e-09
2.1062e-09
6.89175e-10
3.51703e-10
1.59611e-10
6.56964e-11
3.16429e-11
1.25173e-11
5.44931e-12
-3.45646e-12
-4.69551e-12
3.7404e-13
5.68374e-12
-7.36252e-13
2.1965e-14
7.37529e-15
1.30704e-15
2.64078e-07
-1.37931e-12
-2.83405e-07
5.87205e-12
0
-2.8204e-12
3.11705e-07
-5.09641e-11
0
1.28173e-10
-3.26468e-07
-3.28505e-07
4.25238e-10
0
-8.58336e-10
-3.61858e-17
3.8757e-09
-2.79437e-15
1.58051e-08
2.39816e-07
3.03737e-06
4.17028e-05
0.000502799
0.00511091
0.0430168
0.297556
1.69964
8.10868
32.7792
113.969
345.583
924.719
2202.78
4695.95
9035.76
15926.8
25967.3
39730.6
57927.5
81651
112525
152757
205289
274737
367587
490980
655170
873677
1.16434e+06
1.55074e+06
2.064e+06
2.74537e+06
3.64945e+06
4.84869e+06
6.43937e+06
8.54821e+06
1.13454e+07
1.49814e+07
1.97914e+07
2.63587e+07
3.50832e+07
4.22409e+08
3.97237e+07
2.7859e+07
1.93651e+07
1.33083e+07
9.01982e+06
6.01476e+06
3.93809e+06
2.52927e+06
1.59785e+06
1.00678e+06
646489
189232
15801.9
472.849
7.52246
0.0824273
0.000947393
1.84694e-05
8.24793e-07
8.50409e-08
1.73255e-08
4.59462e-09
1.73903e-09
7.84105e-10
3.03844e-10
1.42301e-10
5.86047e-11
2.78002e-11
1.23504e-11
3.66361e-12
-3.60701e-12
8.41884e-13
3.71628e-13
1.48491e-13
5.58391e-14
2.49687e-14
7.3885e-15
1.3122e-15
-4.84271e-18
-1.37349e-12
0
-1.21945e-20
0
3.01747e-07
0
3.10918e-07
-1.24373e-10
-1.25406e-10
3.19047e-07
0
9.22609e-10
1.7402e-18
-1.90817e-10
-4.20809e-17
3.30414e-07
-3.29202e-07
1.52656e-08
2.31433e-07
3.01395e-06
4.13685e-05
0.000500068
0.00512262
0.043499
0.303815
1.75285
8.44707
34.4874
121.071
370.538
1000.12
2400.67
5147
9923.25
17473.7
28437
43347
62879.2
88117.3
120627
162651
217763
291062
388166
517197
688885
917400
1.22147e+06
1.6259e+06
2.16354e+06
2.87791e+06
3.82679e+06
5.08674e+06
6.75935e+06
8.98069e+06
1.1934e+07
1.57412e+07
2.0937e+07
2.78305e+07
3.69383e+07
4.51508e+08
3.50904e+07
2.49487e+07
1.74948e+07
1.20867e+07
8.21506e+06
5.48396e+06
3.59017e+06
2.30444e+06
1.4561e+06
921181
574255
138430
9426
254.176
3.79825
0.0414862
0.000512927
1.13958e-05
5.88274e-07
6.85944e-08
1.46181e-08
4.51748e-09
1.70776e-09
6.83154e-10
3.13056e-10
1.32659e-10
6.06738e-11
2.89379e-11
1.01673e-11
3.85346e-12
2.06424e-12
8.35172e-13
5.85433e-12
1.35439e-13
5.57052e-14
2.12768e-14
6.66643e-15
1.27679e-15
0
1.99706e-17
0
0
-1.44679e-11
1.19792e-11
0
-1.03066e-19
1.2194e-10
-1.22723e-10
3.11457e-07
0
3.13245e-07
0
-2.36111e-14
-3.73771e-17
3.73001e-10
-2.78946e-15
2.21024e-08
3.91747e-07
3.18685e-06
4.14876e-05
0.000504266
0.00520858
0.044617
0.314544
1.83216
8.91372
36.7345
130.135
401.741
1093.05
2641.57
5689.2
10972.7
19264.7
31245.4
47390.6
68335.5
95050.8
129106
173239
231425
308054
409528
544329
723664
962370
1.28011e+06
1.70303e+06
2.2659e+06
3.0151e+06
4.01264e+06
5.34157e+06
7.1136e+06
9.47959e+06
1.26265e+07
1.67294e+07
2.23953e+07
3.0008e+07
4.02474e+07
4.3915e+08
3.22657e+07
2.29381e+07
1.60947e+07
1.11278e+07
7.5683e+06
5.05528e+06
3.31225e+06
2.12977e+06
1.3516e+06
864310
512879
102745
5895.58
145.129
2.0551
0.022519
0.00029928
7.50196e-06
4.39506e-07
5.51136e-08
1.23664e-08
4.15073e-09
1.63256e-09
6.54059e-10
2.82094e-10
1.30578e-10
5.32836e-11
2.37719e-11
1.04105e-11
3.45066e-12
2.65755e-12
7.28377e-13
3.17195e-13
1.34848e-13
5.55578e-14
7.90554e-13
7.62908e-13
7.41917e-13
0
2.70712e-07
0
-2.8382e-07
0
-1.45218e-11
0
1.41042e-15
0
0
5.7199e-15
0
1.14494e-14
3.05076e-07
9.63417e-10
-1.92913e-09
1.57433e-09
-2.83226e-15
1.73932e-08
2.39577e-07
3.06684e-06
4.21681e-05
0.00051534
0.00536184
0.0463256
0.329544
1.93717
9.51076
39.5459
141.309
439.828
1205.62
2931.19
6333.43
12195.5
21302.5
34363.4
51749.2
74007
102102
137907
184470
245156
324974
430555
570665
756876
1.00451e+06
1.33389e+06
1.77204e+06
2.35495e+06
3.13067e+06
4.16344e+06
5.53936e+06
7.37416e+06
9.82389e+06
1.30831e+07
1.73528e+07
2.32619e+07
3.12248e+07
7.07197e+07
4.09506e+08
3.05066e+07
2.16564e+07
1.51742e+07
1.0476e+07
7.11342e+06
4.74251e+06
3.10095e+06
1.99044e+06
1.26344e+06
813316
450867
76637.3
3843.22
87.7308
1.19081
0.0131737
0.000187835
5.25263e-06
3.43926e-07
4.74153e-08
1.13881e-08
3.96828e-09
1.44995e-09
6.14929e-10
2.77345e-10
1.15787e-10
5.25009e-11
2.26577e-11
9.84084e-12
-1.0886e-12
2.62992e-12
7.22754e-13
1.12043e-12
5.48526e-12
5.53877e-14
-7.47517e-13
6.68373e-15
1.14582e-15
4.82161e-18
0
0
0
0
-1.43223e-11
0
-1.9884e-19
1.3918e-15
2.79055e-15
-2.9736e-07
8.00805e-19
0
0
-9.55306e-18
-3.50101e-17
-1.52046e-09
-2.87824e-15
2.05183e-08
2.44837e-07
3.15292e-06
4.33644e-05
0.000532092
0.00557798
0.048597
0.348735
2.06818
10.2434
42.9603
154.795
485.623
1340.58
3276.78
7094.02
13610.1
23606
37824.7
56447.7
79947.9
109484
147227
195692
258721
341467
450723
595435
787392
1.04217e+06
1.38042e+06
1.82954e+06
2.42595e+06
3.21814e+06
4.27077e+06
5.67022e+06
7.53206e+06
1.00113e+07
1.32898e+07
1.75704e+07
2.34648e+07
3.13464e+07
1.32602e+08
3.55362e+08
2.9527e+07
2.09303e+07
1.46492e+07
1.01063e+07
6.86043e+06
4.57495e+06
2.99404e+06
1.92531e+06
1.22658e+06
795378
401935
59166.7
2647.67
56.4513
0.738421
0.00827706
0.000126075
3.88681e-06
2.79376e-07
4.21516e-08
1.04255e-08
3.50961e-09
1.32518e-09
5.81818e-10
2.47826e-10
1.20797e-10
5.17115e-11
2.07575e-11
9.36428e-12
3.95852e-12
1.6108e-12
7.16872e-13
3.1309e-13
-6.46802e-13
4.92179e-14
-5.17088e-12
-5.10875e-12
1.10872e-15
0
6.7527e-13
2.73927e-07
0
-2.53417e-11
3.35589e-16
0
0
-1.3637e-15
-2.08274e-10
0
8.29352e-10
0
1.54712e-18
9.03893e-10
-4.30592e-17
-2.84694e-07
-2.95025e-15
1.67761e-08
2.4755e-07
3.26106e-06
4.47273e-05
0.000553917
0.00585228
0.0514076
0.372056
2.22554
11.1176
47.0215
170.823
540.075
1501.07
3686.37
7984.3
15220.3
26139.1
41486.7
61289.7
86104.7
117278
156565
206841
272070
357507
470050
618744
815484
1.07595e+06
1.42088e+06
1.87771e+06
2.48286e+06
3.28465e+06
4.34735e+06
5.7565e+06
7.62626e+06
1.01087e+07
1.3378e+07
1.76345e+07
2.34822e+07
3.12737e+07
1.88187e+08
3.02483e+08
2.88875e+07
2.04494e+07
1.42931e+07
9.84757e+06
6.67647e+06
4.44758e+06
2.90908e+06
1.87181e+06
1.19591e+06
781311
363505
46911.8
1912.87
38.4722
0.488341
0.00555125
8.99217e-05
3.02236e-06
2.35488e-07
3.77117e-08
9.8496e-09
3.25171e-09
1.29916e-09
5.22066e-10
2.62455e-10
9.97809e-11
4.42344e-11
1.5927e-11
9.244e-12
4.08779e-12
7.129e-12
7.10734e-13
2.86732e-13
-5.14607e-12
-5.17257e-12
1.8877e-14
5.59851e-15
1.06182e-15
6.90152e-22
1.96375e-17
5.73802e-21
-5.55469e-12
0
0
-2.8312e-07
0
-1.33551e-15
0
0
5.28702e-15
0
2.08866e-14
-8.94486e-18
2.7491e-07
-3.13905e-16
2.82531e-09
1.89313e-08
2.53317e-07
3.39853e-06
4.66714e-05
0.000580672
0.00618058
0.0547286
0.399401
2.40939
12.1382
51.7705
189.624
604.194
1690.56
4169.14
9019.76
17035
28881.6
45331.2
66348
92597.3
125086
165856
217881
285215
373184
488751
641010
841893
1.1071e+06
1.45732e+06
1.91992e+06
2.53108e+06
3.33873e+06
4.40644e+06
5.81849e+06
7.68628e+06
1.01592e+07
1.34111e+07
1.76377e+07
2.34272e+07
3.11231e+07
2.3643e+08
2.56697e+08
2.83278e+07
2.00642e+07
1.4031e+07
9.67154e+06
6.56002e+06
4.37205e+06
2.86149e+06
1.84345e+06
1.18148e+06
776734
325944
38359.5
1447.07
27.67
0.34271
0.00395537
6.76779e-05
2.45492e-06
2.06147e-07
3.40765e-08
9.07793e-09
3.09919e-09
1.27207e-09
5.11732e-10
2.38851e-10
1.10063e-10
5.00849e-11
2.09313e-11
8.35427e-12
-1.40498e-12
1.4821e-12
7.0433e-13
2.60715e-13
1.13537e-13
5.23237e-12
-5.12534e-12
-7.41675e-13
9.74416e-16
2.61413e-07
-2.66205e-07
5.69896e-21
-1.22661e-11
0
-2.77559e-07
0
0
2.78162e-07
-1.98851e-10
0
0
-1.01982e-14
-2.90313e-18
-8.64054e-18
-4.57808e-17
2.6377e-07
-3.13182e-15
1.8134e-08
1.31871e-07
3.55814e-06
4.88327e-05
0.000611412
0.00655601
0.0585121
0.43052
2.61889
13.3054
57.2297
211.375
678.847
1912.15
4732.17
10203.3
19007.7
31685.7
49260
71576
98984.9
132733
174944
228685
298072
388483
506911
662475
867106
1.13647e+06
1.49118e+06
1.95842e+06
2.57408e+06
3.38556e+06
4.45525e+06
5.86573e+06
7.72807e+06
1.01916e+07
1.34193e+07
1.76044e+07
2.33254e+07
3.09121e+07
2.77171e+08
2.18555e+08
2.77675e+07
1.96927e+07
1.37874e+07
9.51423e+06
6.46076e+06
4.31142e+06
2.8263e+06
1.82496e+06
1.17422e+06
776252
288472
32281.9
1141.21
20.8987
0.253777
0.002974
5.34426e-05
2.06798e-06
1.84505e-07
3.22202e-08
8.55029e-09
3.18918e-09
1.33472e-09
5.47747e-10
2.34152e-10
1.02151e-10
4.32835e-11
2.06076e-11
8.23745e-12
3.81799e-12
1.65566e-12
6.76341e-13
2.82378e-13
1.19344e-13
-5.11216e-12
1.7325e-14
5.07782e-12
9.75701e-16
0
1.94735e-17
0
0
1.2565e-12
-4.61621e-20
0
5.40908e-11
0
8.70982e-11
5.04428e-15
0
0
1.49282e-09
-5.55713e-18
2.92861e-09
-2.90848e-09
-2.52131e-07
2.05197e-08
1.45691e-07
3.61855e-06
5.10142e-05
0.000645311
0.0069692
0.0626784
0.464889
2.85142
14.6095
63.3792
236.098
764.474
2168
5381.13
11536.3
21088.3
34572.7
53222.7
76518.8
104967
139903
183520
238955
310358
403140
524307
682980
891065
1.16416e+06
1.52277e+06
1.9938e+06
2.61255e+06
3.42532e+06
4.49408e+06
5.9024e+06
7.75886e+06
1.02061e+07
1.34035e+07
1.75416e+07
2.31857e+07
3.06522e+07
3.10961e+08
1.87402e+08
2.72066e+07
1.93314e+07
1.3559e+07
9.37327e+06
6.37646e+06
4.26317e+06
2.80054e+06
1.81305e+06
1.17085e+06
776492
272287
27833.9
933.565
16.4969
0.197292
0.00234671
4.40263e-05
1.7985e-06
1.69278e-07
3.11063e-08
8.48922e-09
3.03266e-09
1.12615e-09
4.90616e-10
2.29311e-10
1.05973e-10
4.5442e-11
2.02743e-11
9.60322e-12
3.76808e-12
1.44916e-12
6.43755e-13
2.80036e-13
1.06841e-13
4.54612e-14
1.72715e-14
5.58778e-15
7.37588e-13
-2.60668e-07
0
-2.66531e-07
-2.68321e-07
-1.20829e-11
0
-4.83038e-11
0
1.25179e-15
0
-2.6111e-07
0
0
6.46822e-10
-6.38515e-10
-4.23368e-17
2.44275e-07
-2.43527e-07
1.65308e-08
2.85665e-07
3.80668e-06
5.3538e-05
0.000680935
0.00740541
0.0670972
0.501559
3.10139
16.0242
70.1174
263.478
860.217
2455.38
6102.34
12944.6
23030.2
36954.3
56457.5
80606.9
110008
146069
191058
248146
321508
416561
540317
701883
913112
1.18946e+06
1.5511e+06
2.02444e+06
2.64455e+06
3.45879e+06
4.5281e+06
5.9319e+06
7.77662e+06
1.02031e+07
1.3365e+07
1.74495e+07
2.30079e+07
3.03434e+07
3.38464e+08
1.62479e+08
2.66447e+07
1.89753e+07
1.33393e+07
9.24244e+06
6.30217e+06
4.22386e+06
2.78218e+06
1.80676e+06
1.17132e+06
778428
259680
24667
792.402
13.593
0.160617
0.00193641
3.76887e-05
1.61227e-06
1.57592e-07
2.92291e-08
8.59359e-09
2.95345e-09
1.27122e-09
5.43615e-10
2.46695e-10
1.03845e-10
4.46026e-11
2.06649e-11
7.99323e-12
4.08508e-12
1.52433e-12
6.37093e-13
2.54344e-13
1.11908e-13
4.23242e-14
1.72122e-14
5.57913e-15
9.76858e-16
0
0
-2.64696e-07
0
-2.66105e-07
0
0
0
2.60363e-07
2.42017e-15
-4.77562e-15
0
-1.32922e-18
-6.23927e-10
-6.14188e-10
-1.48825e-09
1.4701e-09
-2.36906e-09
2.38571e-08
2.99936e-07
3.99536e-06
5.63287e-05
0.000716649
0.00784452
0.0715736
0.539007
3.35915
17.4992
77.2316
292.772
963.941
2768.78
6878.71
14354.8
24669.8
38612.3
58607.5
83329.7
113489
150542
196797
255424
330601
427728
553785
717787
931403
1.20999e+06
1.57365e+06
2.04943e+06
2.67198e+06
3.48611e+06
4.55166e+06
5.94736e+06
7.77712e+06
1.01784e+07
1.32992e+07
1.73228e+07
2.27853e+07
2.99765e+07
3.60439e+08
1.42825e+08
2.60821e+07
1.86227e+07
1.31251e+07
9.11757e+06
6.2335e+06
4.1894e+06
2.76772e+06
1.8034e+06
1.17374e+06
781452
250455
22463.3
696.91
11.6673
0.136543
0.00166507
3.3396e-05
1.48443e-06
1.49085e-07
2.87101e-08
7.84037e-09
2.87149e-09
1.19148e-09
5.1037e-10
2.24131e-10
1.01665e-10
4.656e-11
1.95825e-11
8.58696e-12
3.58246e-12
-3.42724e-12
6.3019e-13
2.52044e-13
1.11081e-13
4.20877e-14
1.4273e-14
5.92597e-15
1.06576e-15
3.64374e-13
2.6177e-07
-2.62864e-07
1.54688e-16
-2.21734e-20
-4.41613e-20
2.09249e-11
0
1.19617e-15
0
1.95316e-10
2.42393e-07
3.06325e-10
2.3404e-07
2.28961e-07
-1.15922e-09
1.40307e-09
-2.13746e-07
2.4633e-07
3.05584e-07
4.06116e-06
5.84209e-05
0.000750225
0.00825907
0.0758338
0.574981
3.60944
18.9491
84.3191
322.358
1069.85
3088.5
7639.5
15516.5
25293.5
38497.5
58622.5
83668.7
114372
152217
199499
259365
335944
434610
562304
728025
943509
1.22428e+06
1.5903e+06
2.06718e+06
2.689e+06
3.50032e+06
4.55965e+06
5.94392e+06
7.75447e+06
1.01251e+07
1.31986e+07
1.71531e+07
2.25097e+07
2.95448e+07
3.77666e+08
1.27875e+08
2.55186e+07
1.82733e+07
1.29164e+07
8.999e+06
6.171e+06
4.16041e+06
2.7577e+06
1.80333e+06
1.17828e+06
785346
244461
21002.2
633.931
10.4079
0.120873
0.00148722
3.05401e-05
1.39509e-06
1.44789e-07
2.80701e-08
7.7722e-09
3.03362e-09
1.20412e-09
5.39291e-10
2.30607e-10
1.0489e-10
4.28641e-11
1.99985e-11
7.73619e-12
4.33351e-12
1.53558e-12
6.23113e-13
-4.02922e-12
1.10224e-13
4.18405e-14
5.04713e-12
5.55574e-15
-7.33581e-13
3.63852e-13
0
2.6104e-07
2.60675e-07
2.59582e-07
2.57812e-07
-2.05523e-11
0
-1.16808e-15
-2.44348e-07
2.39587e-07
-6.33356e-19
2.29845e-07
-2.42281e-18
-7.10964e-18
1.36109e-09
3.13674e-14
4.76781e-09
2.3084e-07
3.17951e-07
4.32698e-06
6.05443e-05
0.000778944
0.00861626
0.0795345
0.606538
3.83153
20.2526
90.7854
349.765
1169.07
3385.69
8290.01
16122.2
24244.5
35914.4
55682.7
80570.6
111391
149601
197442
258021
335441
435113
563952
730931
947717
1.22918e+06
1.59497e+06
2.07061e+06
2.68948e+06
3.49518e+06
4.54482e+06
5.91328e+06
7.699e+06
1.00316e+07
1.30492e+07
1.69233e+07
2.21597e+07
2.90259e+07
3.89877e+08
1.17106e+08
2.49576e+07
1.79245e+07
1.27075e+07
8.88006e+06
6.10815e+06
4.13117e+06
2.7475e+06
1.80305e+06
1.18238e+06
789319
241148
20115.5
594.766
9.61979
0.111053
0.00137516
2.87223e-05
1.33955e-06
1.40882e-07
2.74427e-08
7.96166e-09
2.85788e-09
1.24964e-09
5.24915e-10
2.29606e-10
1.02509e-10
4.34653e-11
1.88606e-11
8.30186e-12
4.26828e-12
2.27525e-12
6.15851e-13
2.47212e-13
1.03658e-13
-4.22508e-12
1.5577e-14
5.18604e-15
9.75927e-16
-6.83303e-22
-1.45546e-12
1.09335e-20
1.51693e-16
-2.16242e-20
2.53851e-07
0
-2.46899e-07
0
2.2348e-15
0
0
0
2.15974e-07
-2.11158e-07
-4.86723e-17
-1.26851e-09
4.51036e-09
2.21574e-08
3.24646e-07
4.35188e-06
6.20315e-05
0.000799815
0.00887934
0.0822822
0.630175
3.99957
21.2503
95.7952
371.218
1246.6
3605.49
8635.8
15547.8
23642
31251.3
49073.3
73467.4
103911
141900
189646
250210
327665
427232
555755
722080
937657
1.21731e+06
1.58033e+06
2.05176e+06
2.66428e+06
3.46043e+06
4.49578e+06
5.84293e+06
7.59688e+06
9.88212e+06
1.28313e+07
1.66029e+07
2.16789e+07
2.82998e+07
4.04262e+08
1.07589e+08
2.43842e+07
1.75665e+07
1.24906e+07
8.75387e+06
6.03874e+06
4.09613e+06
2.73232e+06
1.79853e+06
1.18277e+06
790849
239691
19665.9
573.352
9.17641
0.105477
0.00131128
2.76817e-05
1.30887e-06
1.38967e-07
2.76062e-08
7.85163e-09
3.00123e-09
1.21224e-09
5.32283e-10
2.33922e-10
1.053e-10
4.22535e-11
1.92356e-11
8.15532e-12
3.49907e-12
1.5336e-12
6.08451e-13
2.67101e-13
1.02797e-13
4.13149e-14
1.69242e-14
4.99825e-12
1.06382e-15
0
-2.72554e-21
0
-1.50196e-16
5.09276e-12
-2.49885e-07
2.46067e-07
3.88947e-11
0
0
-1.78234e-10
0
7.99909e-15
0
2.01567e-07
-1.23334e-09
2.17816e-09
4.25228e-09
2.49601e-08
3.23795e-07
4.42305e-06
6.25636e-05
0.000810688
0.00901496
0.0837084
0.642545
4.08829
21.7819
98.4845
382.688
1285.78
3683.77
8427.11
15938.9
24629.9
32581.7
39205.6
61426.8
90761.7
127556
173968
232972
308523
405787
531467
694242
905351
1.17937e+06
1.5352e+06
1.99744e+06
2.59805e+06
3.37866e+06
4.39355e+06
5.71348e+06
7.43092e+06
9.66678e+06
1.25498e+07
1.62325e+07
2.11816e+07
2.76284e+07
4.08285e+08
1.04582e+08
2.37959e+07
1.71819e+07
1.22426e+07
8.59675e+06
5.94148e+06
4.0376e+06
2.69824e+06
1.77928e+06
1.1718e+06
784455
238590
19517.2
565.035
8.99248
0.103115
0.00128413
2.72449e-05
1.29759e-06
1.37675e-07
2.74065e-08
8.13956e-09
2.96575e-09
1.17422e-09
5.34278e-10
2.3318e-10
1.0044e-10
4.2743e-11
1.74443e-11
8.00728e-12
3.61388e-12
8.58036e-13
6.44917e-13
2.64353e-13
1.07518e-13
4.38573e-14
-7.14664e-13
5.51176e-15
9.7429e-16
2.58821e-07
7.99084e-13
3.18299e-12
0
6.25931e-12
1.00573e-11
-2.4343e-11
8.67008e-11
0
9.14468e-11
-6.07898e-19
-4.11863e-15
-8.00022e-15
5.31795e-10
-8.65659e-18
-5.04795e-17
-3.80958e-16
4.25227e-09
2.26662e-08
3.24212e-07
4.33611e-06
6.2474e-05
0.000810601
0.00901514
0.0837091
0.642549
4.08832
21.7821
98.4852
382.691
1285.79
3683.8
8427.12
15938.9
24629.8
32581.5
39205.3
61425.6
90760.3
127555
173967
232970
308522
405786
531466
694241
905350
1.17937e+06
1.5352e+06
1.99744e+06
2.59805e+06
3.37867e+06
4.39355e+06
5.71348e+06
7.43093e+06
9.66679e+06
1.25498e+07
1.62325e+07
2.11816e+07
2.76284e+07
4.08286e+08
1.04581e+08
2.37959e+07
1.71817e+07
1.22421e+07
8.59613e+06
5.94081e+06
4.03698e+06
2.69772e+06
1.77888e+06
1.17153e+06
784300
238565
19516.4
565.033
8.99258
0.103116
0.00128415
2.7247e-05
1.29638e-06
1.37675e-07
2.7098e-08
8.0109e-09
2.96575e-09
1.17825e-09
5.34278e-10
2.2768e-10
1.02727e-10
4.41794e-11
1.94424e-11
8.00705e-12
3.44242e-12
7.71152e-13
6.44916e-13
2.64352e-13
1.07518e-13
-4.90135e-12
7.46942e-13
5.15775e-15
8.85711e-16
2.5919e-07
-1.90648e-17
0
0
0
-1.25569e-11
-2.50683e-07
0
0
-1.70585e-10
-4.37028e-15
4.26549e-15
-1.19377e-18
-2.32615e-18
2.11157e-07
-1.05552e-09
-3.05123e-14
4.51033e-09
2.46007e-08
3.22688e-07
4.35569e-06
6.2031e-05
0.000799933
0.00887969
0.0822841
0.630187
3.99964
21.2506
95.7966
371.225
1246.63
3605.63
8636.21
15547.5
23641.5
31250.4
49070.7
73464
103907
141895
189641
250206
327661
427228
555751
722078
937655
1.21731e+06
1.58033e+06
2.05176e+06
2.66428e+06
3.46043e+06
4.49579e+06
5.84294e+06
7.59689e+06
9.88213e+06
1.28313e+07
1.66029e+07
2.16789e+07
2.82997e+07
4.04265e+08
1.07585e+08
2.43845e+07
1.75668e+07
1.2491e+07
8.75429e+06
6.03918e+06
4.09654e+06
2.73267e+06
1.7988e+06
1.18297e+06
790973
239720
19667.8
573.395
9.17703
0.105483
0.00131135
2.76861e-05
1.31113e-06
1.37827e-07
2.81821e-08
7.85179e-09
2.91733e-09
1.21224e-09
5.10259e-10
2.23697e-10
1.00084e-10
4.22534e-11
1.98424e-11
8.84878e-12
3.6731e-12
1.5336e-12
6.52909e-13
2.44702e-13
1.02799e-13
-6.90024e-13
1.55057e-14
5.52716e-15
1.06379e-15
1.63229e-13
2.60667e-07
-2.61037e-07
0
0
0
0
-9.05053e-11
1.16824e-15
2.44251e-07
0
-4.41206e-15
0
2.24368e-07
2.20032e-07
-4.64234e-17
-3.73625e-16
4.76778e-09
2.82135e-08
3.15865e-07
4.2229e-06
6.04271e-05
0.000778967
0.00861658
0.0795358
0.60654
3.83149
20.2521
90.7814
349.742
1168.96
3385.26
8288.76
16120.1
24241.5
35910.4
55677
80563.1
111380
149589
197430
258011
335432
435104
563943
730923
947711
1.22918e+06
1.59496e+06
2.07061e+06
2.68948e+06
3.49519e+06
4.54483e+06
5.9133e+06
7.69902e+06
1.00317e+07
1.30492e+07
1.69233e+07
2.21597e+07
2.90258e+07
3.89875e+08
1.17106e+08
2.49576e+07
1.79246e+07
1.27075e+07
8.88005e+06
6.10813e+06
4.13114e+06
2.74746e+06
1.80301e+06
1.18234e+06
789288
241149
20116.5
594.813
9.62067
0.111063
0.00137527
2.87193e-05
1.34084e-06
1.40882e-07
2.74424e-08
7.82423e-09
3.01444e-09
1.20545e-09
5.24913e-10
2.29602e-10
1.02509e-10
4.19685e-11
1.94795e-11
7.60346e-12
3.63433e-12
1.46585e-12
6.15865e-13
5.21692e-12
1.03659e-13
4.31506e-14
-4.99429e-12
5.18603e-15
7.3498e-13
-4.77357e-18
0
-7.72401e-17
0
0
0
0
9.24048e-11
-1.71711e-19
0
0
3.83698e-10
0
0
-7.41714e-18
-1.15921e-09
-1.14161e-09
-3.54351e-15
2.76033e-08
1.95566e-07
4.0709e-06
5.85258e-05
0.000750282
0.00825954
0.0758362
0.574991
3.60944
18.9487
84.3153
322.334
1069.72
3087.98
7637.71
15512.7
25287
38487.9
58610.5
83658.1
114366
152212
199494
259358
335935
434599
562291
728011
943500
1.22427e+06
1.59029e+06
2.06718e+06
2.689e+06
3.50033e+06
4.55967e+06
5.94395e+06
7.7545e+06
1.01251e+07
1.31986e+07
1.71532e+07
2.25097e+07
2.95448e+07
3.77662e+08
1.27879e+08
2.55185e+07
1.82731e+07
1.29161e+07
8.9987e+06
6.17072e+06
4.16019e+06
2.75754e+06
1.80323e+06
1.17823e+06
785333
244472
21004.4
634.01
10.4093
0.120889
0.00148738
3.0541e-05
1.39507e-06
1.44111e-07
2.81287e-08
8.08774e-09
2.85957e-09
1.20411e-09
5.39289e-10
2.24701e-10
1.0489e-10
4.2864e-11
1.9225e-11
7.73618e-12
3.52972e-12
1.48576e-12
-3.63627e-12
5.2659e-12
-4.92002e-12
4.18404e-14
1.56451e-14
5.55573e-15
4.99811e-12
0
0
0
0
0
-2.38366e-11
4.74731e-11
0
0
0
-2.53943e-07
4.70445e-15
-7.06794e-10
-1.39076e-09
-2.38432e-07
2.36526e-07
-2.66625e-09
2.36904e-09
2.62085e-08
3.02272e-07
3.88248e-06
5.60983e-05
0.000716709
0.00784509
0.0715777
0.539033
3.35926
17.4995
77.2315
292.764
963.878
2768.45
6877.31
14350
24656.5
38579.5
58588.1
83319.3
113485
150541
196798
255426
330603
427731
553788
717787
931398
1.20998e+06
1.57365e+06
2.04943e+06
2.67199e+06
3.48612e+06
4.55168e+06
5.94739e+06
7.77716e+06
1.01784e+07
1.32993e+07
1.73228e+07
2.27853e+07
2.99765e+07
3.60436e+08
1.42826e+08
2.60822e+07
1.86229e+07
1.31254e+07
9.11797e+06
6.2339e+06
4.18977e+06
2.76802e+06
1.80363e+06
1.17389e+06
781544
250485
22466.5
697.019
11.6693
0.136565
0.00166531
3.34033e-05
1.48442e-06
1.49654e-07
2.80699e-08
8.01953e-09
3.03715e-09
1.23804e-09
5.10368e-10
2.30162e-10
1.01665e-10
4.65599e-11
1.81559e-11
7.13859e-12
3.48229e-12
1.45483e-12
6.30189e-13
2.52036e-13
-4.96343e-12
4.20876e-14
1.57099e-14
5.92597e-15
9.76845e-16
-1.63926e-13
2.78373e-21
-7.83176e-17
0
6.66218e-12
4.54944e-20
0
2.68166e-07
0
0
0
0
0
-1.44184e-09
-2.47883e-07
-3.69079e-14
-3.4075e-16
-3.34206e-15
2.2041e-08
2.85663e-07
3.68737e-06
5.35376e-05
0.000681135
0.00740621
0.0671035
0.501605
3.10167
16.0256
70.1242
263.507
860.336
2455.84
6104.02
12949.9
23044.5
36990.8
56482
80622.7
110018
146076
191063
248149
321511
416565
540321
701889
913119
1.18947e+06
1.5511e+06
2.02444e+06
2.64456e+06
3.4588e+06
4.52812e+06
5.93193e+06
7.77666e+06
1.02032e+07
1.33651e+07
1.74495e+07
2.30079e+07
3.03433e+07
3.38462e+08
1.62482e+08
2.66448e+07
1.89753e+07
1.33392e+07
9.24219e+06
6.30187e+06
4.22356e+06
2.78191e+06
1.80656e+06
1.17118e+06
778355
259683
24670
792.537
13.5956
0.160648
0.00193674
3.76893e-05
1.61225e-06
1.58172e-07
2.95922e-08
8.25912e-09
3.04715e-09
1.23238e-09
5.18439e-10
2.23621e-10
1.03843e-10
4.74727e-11
1.84816e-11
8.72496e-12
8.77725e-12
1.52433e-12
6.37076e-13
5.36401e-12
1.06097e-13
4.23241e-14
1.72121e-14
5.05108e-12
9.76828e-16
0
0
-5.66005e-21
-1.14259e-20
2.72622e-07
0
-6.43706e-16
0
0
0
0
2.66424e-07
-9.88576e-15
-2.80742e-18
1.93476e-14
-2.92856e-09
-3.33653e-16
-5.79081e-09
2.68903e-07
2.71398e-07
3.61853e-06
5.11574e-05
0.00064541
0.00696994
0.0626864
0.464948
2.85179
14.6115
63.3887
236.138
764.626
2168.51
5382.62
11539.8
21095.9
34585.4
53236.3
76530.8
104976
139910
183525
238959
310361
403143
524310
682983
891069
1.16417e+06
1.52278e+06
1.99381e+06
2.61256e+06
3.42532e+06
4.4941e+06
5.90243e+06
7.75889e+06
1.02062e+07
1.34036e+07
1.75416e+07
2.31857e+07
3.06522e+07
3.1096e+08
1.87406e+08
2.72067e+07
1.93315e+07
1.35591e+07
9.3734e+06
6.37663e+06
4.26335e+06
2.80072e+06
1.81319e+06
1.17096e+06
776560
272319
27838.6
933.753
16.5006
0.197336
0.00234718
4.40351e-05
1.79875e-06
1.67926e-07
3.08018e-08
8.48918e-09
3.03265e-09
1.21481e-09
5.35647e-10
2.52152e-10
9.52253e-11
4.54409e-11
2.02743e-11
8.11709e-12
3.76795e-12
1.54286e-12
6.43754e-13
2.80036e-13
1.06842e-13
4.54592e-14
1.7272e-14
5.58765e-15
7.37588e-13
0
0
7.93944e-17
0
0
-2.77584e-07
2.78472e-07
0
-1.30776e-15
2.60472e-15
-7.43527e-19
5.14151e-15
-2.71145e-07
2.68849e-07
-1.15207e-17
-4.0058e-17
-3.24701e-16
6.04467e-09
1.81339e-08
3.98187e-07
3.55812e-06
4.88325e-05
0.000611541
0.00655695
0.0585205
0.430582
2.61925
13.3072
57.2378
211.405
678.951
1912.47
4733.05
10205.4
19011.9
31690.9
49266.5
71582.9
98991.3
132738
174948
228688
298075
388485
506913
662477
867108
1.13647e+06
1.49119e+06
1.95843e+06
2.57409e+06
3.38557e+06
4.45526e+06
5.86573e+06
7.72808e+06
1.01916e+07
1.34193e+07
1.76044e+07
2.33254e+07
3.09121e+07
2.7717e+08
2.18562e+08
2.7768e+07
1.96933e+07
1.37879e+07
9.51461e+06
6.46106e+06
4.31167e+06
2.82652e+06
1.82515e+06
1.17439e+06
776380
288531
32289.9
1141.5
20.9042
0.253843
0.00297471
5.34587e-05
2.06515e-06
1.83109e-07
3.12091e-08
8.70846e-09
3.10894e-09
1.33471e-09
5.93772e-10
2.34151e-10
1.0721e-10
4.55082e-11
2.06075e-11
8.99185e-12
-1.38271e-12
1.56078e-12
6.97636e-13
2.58691e-13
8.86964e-13
4.56816e-14
-7.35269e-13
5.5941e-15
5.01606e-12
-3.66981e-13
8.26494e-13
0
0
1.38098e-11
0
-9.55381e-20
0
-1.12431e-10
-2.83815e-07
0
-5.28701e-15
8.02273e-10
0
2.76118e-07
-4.15597e-17
-3.13903e-16
-2.74202e-07
1.26209e-08
1.15449e-07
3.39851e-06
4.66839e-05
0.000580789
0.00618159
0.0547376
0.399464
2.40975
12.14
51.7778
189.65
604.274
1690.78
4169.61
9020.52
17035.4
28881.9
45334
66352
92601.4
125090
165859
217883
285216
373185
488751
641010
841892
1.1071e+06
1.45732e+06
1.91992e+06
2.53108e+06
3.33872e+06
4.40643e+06
5.81847e+06
7.68623e+06
1.01591e+07
1.3411e+07
1.76375e+07
2.34268e+07
3.11225e+07
2.36412e+08
2.56709e+08
2.8327e+07
2.00627e+07
1.40294e+07
9.67001e+06
6.55865e+06
4.37087e+06
2.86049e+06
1.84261e+06
1.18083e+06
776284
325837
38357
1447.24
27.6761
0.342799
0.00395636
6.76943e-05
2.45487e-06
2.06933e-07
3.43977e-08
8.91622e-09
3.18201e-09
1.27207e-09
5.59491e-10