/*--------------------------------*- C++ -*----------------------------------*\
  =========                 |
  \\      /  F ield         | OpenFOAM: The Open Source CFD Toolbox
   \\    /   O peration     | Website:  https://openfoam.org
    \\  /    A nd           | Version:  8
     \\/     M anipulation  |
\*---------------------------------------------------------------------------*/
FoamFile
{
    version     2.0;
    format      ascii;
    class       volScalarField;
    location    "800/fluid";
    object      rDeltaT;
}
// * * * * * * * * * * * * * * * * * * * * * * * * * * * * * * * * * * * * * //

dimensions      [0 0 -1 0 0 0 0];

internalField   nonuniform List<scalar> 
4000
(
513.503
539.55
564.408
588.224
610.93
632.426
652.582
671.259
688.323
703.676
717.278
729.185
739.576
748.782
757.297
765.623
774.148
783.051
792.234
801.305
809.662
816.609
821.493
823.791
823.182
819.48
812.575
802.438
789.107
772.666
753.238
741.701
762.842
807.402
851.146
893.961
935.765
976.486
1016.07
1054.47
1091.67
1127.65
1162.39
1195.89
1228.16
1259.2
1289.03
1317.65
1345.08
1371.32
1396.4
1420.32
1443.09
1464.72
1485.2
1504.54
1522.75
1539.67
1555.3
1569.9
1583.36
2892.17
15037.7
1572.82
1536.29
1494.87
1449.05
1399.34
1346.15
1289.87
1230.91
1169.74
1106.93
1043.01
978.723
915.502
855.359
800.712
754.521
719.421
696.39
683.971
678.909
677.685
677.48
676.534
673.864
669.12
662.333
653.69
643.426
631.774
618.954
605.158
590.55
575.262
559.393
543.016
526.189
508.863
513.027
538.415
562.482
585.159
606.415
626.171
644.336
660.82
675.559
688.536
699.811
709.545
718.027
725.682
732.995
740.439
748.394
757.049
766.312
775.797
784.878
792.813
798.872
802.453
803.106
800.526
794.552
785.147
772.358
756.295
737.109
714.974
715.625
750.995
795.941
840.157
883.538
925.994
967.454
1007.86
1047.18
1085.38
1122.43
1158.34
1193.1
1226.7
1259.16
1290.48
1320.68
1349.77
1377.77
1404.69
1430.54
1455.36
1479.15
1501.93
1523.7
1544.33
1563.87
1582.63
1600.5
4521.18
13597.8
1583.52
1542.26
1497.38
1448.77
1396.51
1340.8
1281.85
1219.96
1155.48
1088.9
1020.64
951.638
883.764
819.649
762.555
715.733
681.515
660.109
649.324
645.633
645.635
646.8
647.575
647.14
645.044
641.132
635.432
628.05
619.128
608.819
597.277
584.643
571.04
556.565
541.293
525.279
508.555
512.324
536.154
558.488
579.293
598.502
616.055
631.896
645.992
658.345
669.016
678.142
685.955
692.789
699.064
705.229
711.74
718.98
727.147
736.167
745.677
755.069
763.608
770.549
775.231
777.108
775.793
771.076
762.881
751.233
736.225
717.998
696.72
678.163
693.259
738.503
783.316
827.58
871.19
914.062
956.129
997.336
1037.64
1077.02
1115.45
1152.93
1189.44
1224.99
1259.58
1293.24
1325.97
1357.79
1388.74
1418.83
1448.1
1476.56
1504.23
1531.11
1557
1581.87
1605.87
1628.43
7327.26
10939.3
1602.59
1556.61
1506.9
1453.51
1396.55
1336.16
1272.51
1205.9
1136.69
1065.43
992.671
919.705
848.833
783.059
725.876
680.366
648.201
628.851
619.728
617.31
618.38
620.59
622.498
623.39
622.904
620.869
617.24
612.043
605.345
597.232
587.797
577.137
565.339
552.478
538.619
523.823
508.109
511.636
534.085
554.971
574.247
591.868
607.793
621.997
634.476
645.262
654.438
662.151
668.636
674.215
679.304
684.375
689.904
696.278
703.698
712.092
721.1
730.12
738.416
745.237
749.913
751.914
750.864
746.535
738.826
727.729
713.308
695.676
674.978
651.38
650.128
684.259
729.395
774.264
818.76
862.791
906.284
949.179
991.428
1033
1073.86
1113.99
1153.39
1192.05
1229.97
1267.16
1303.62
1339.37
1374.43
1408.81
1442.5
1475.52
1507.81
1539.33
1569.73
1598.9
1626.84
1652.77
10697.6
7656.21
1614.98
1565.14
1511.02
1452.92
1391.11
1325.86
1257.46
1186.31
1112.97
1038.09
962.449
887.697
816.355
751.444
696.16
653.146
623.542
606.358
598.82
597.508
599.427
602.431
605.183
606.968
607.442
606.466
604.007
600.083
594.738
588.026
580.009
570.749
560.304
548.724
536.055
522.348
507.629
510.899
531.849
551.186
568.873
584.872
599.153
611.709
622.556
631.745
639.381
645.632
650.749
655.068
659.009
663.047
667.65
673.198
679.884
687.64
696.112
704.706
712.694
719.323
723.918
725.936
724.988
720.835
713.357
702.533
688.412
671.09
650.697
627.383
612.769
632.945
678.265
723.584
768.795
813.807
858.542
902.936
946.939
990.508
1033.61
1076.23
1118.33
1159.91
1200.96
1241.47
1281.43
1320.85
1359.71
1398
1435.67
1472.68
1508.94
1544.27
1578.22
1610.66
1641.43
1669.51
13999
4276.63
1618.83
1566.08
1508.33
1446.22
1380.24
1310.84
1238.5
1163.74
1087.28
1009.84
932.384
856.795
785.664
721.97
668.694
628.087
600.801
585.464
579.193
578.703
581.225
584.809
588.239
590.847
592.29
592.406
591.136
588.47
584.428
579.041
572.349
564.397
555.225
544.872
533.375
520.781
507.115
510.161
529.638
547.493
563.691
578.201
591.006
602.11
611.541
619.362
625.686
630.69
634.626
637.828
640.711
643.741
647.378
651.998
657.794
664.703
672.385
680.262
687.617
693.708
697.863
699.538
698.339
694.014
686.432
675.559
661.428
644.122
623.754
600.46
575.425
584.791
630.21
675.869
721.661
767.495
813.293
858.988
904.527
949.863
994.953
1039.76
1084.27
1128.45
1172.27
1215.72
1258.76
1301.37
1343.51
1385.12
1426.12
1466.41
1505.82
1544.12
1580.73
1615.47
1648.06
1677.32
16824.1
1663.05
1614.82
1559.54
1498.68
1433.21
1363.83
1291.17
1215.82
1138.45
1059.88
980.888
902.605
827.081
756.934
695.061
644.214
606.272
581.457
568.081
563.175
563.569
566.685
570.737
574.629
577.756
579.809
580.638
580.177
578.408
575.335
570.974
565.348
558.484
550.411
541.153
530.74
519.212
506.593
509.416
527.405
543.777
558.499
571.546
582.909
592.597
600.649
607.136
612.178
615.956
618.727
620.824
622.658
624.689
627.37
631.067
635.971
642.021
648.881
655.983
662.621
668.058
671.626
672.783
671.13
666.412
658.491
647.323
632.932
615.39
594.801
571.288
544.989
546.2
584.498
630.415
676.681
723.205
769.906
816.717
863.578
910.434
957.24
1003.95
1050.54
1096.95
1143.16
1189.11
1234.77
1280.08
1324.96
1369.33
1413.07
1456.01
1497.93
1538.53
1577.04
1613.64
1647.2
1676.7
18014.8
1656.44
1604.55
1546.26
1482.64
1414.55
1342.72
1267.81
1190.5
1111.54
1031.81
952.124
873.759
798.872
730.074
670.166
621.684
586.183
563.536
551.825
548.059
549.201
552.845
557.348
561.703
565.356
568.014
569.528
569.831
568.894
566.711
563.288
558.637
552.776
545.724
537.501
528.129
517.644
506.07
508.673
525.187
540.098
553.376
565.003
574.975
583.308
590.044
595.26
599.082
601.691
603.342
604.367
605.169
606.199
607.901
610.635
614.588
619.701
625.644
631.86
637.652
642.292
645.117
645.586
643.3
638.001
629.546
617.886
603.036
585.063
564.059
540.14
513.435
508.485
540.666
586.757
633.387
680.463
727.907
775.644
823.61
871.745
919.997
968.314
1016.65
1064.94
1113.14
1161.2
1209.03
1256.56
1303.7
1350.32
1396.27
1441.35
1485.28
1527.64
1567.69
1605.4
1639.45
1668.35
17558.1
1642.42
1587.88
1527.31
1461.66
1391.73
1318.25
1241.91
1163.43
1083.63
1003.42
923.644
845.714
771.851
704.65
646.818
600.702
567.569
546.994
536.875
534.214
536.09
540.25
545.173
549.939
554.04
557.206
559.3
560.252
560.031
558.624
556.031
552.256
547.31
541.205
533.954
525.575
516.1
505.552
507.932
522.977
536.437
548.287
558.512
567.113
574.111
579.553
583.519
586.136
587.588
588.127
588.082
587.85
587.874
588.588
590.345
593.327
597.473
602.46
607.736
612.612
616.367
618.345
618.006
614.956
608.933
599.793
587.485
572.02
553.456
531.884
507.411
480.158
470.542
498.19
544.373
591.261
638.763
686.795
735.279
784.148
833.337
882.783
932.427
982.205
1032.05
1081.9
1131.67
1181.28
1230.62
1279.57
1327.99
1375.69
1422.44
1467.93
1511.66
1552.96
1591.69
1626.54
2798
16401.2
1622.94
1566.48
1504.3
1437.25
1366.12
1291.62
1214.47
1135.43
1055.36
975.164
895.731
818.581
745.979
680.489
624.726
580.859
549.909
531.205
522.513
520.849
523.408
528.072
533.422
538.61
543.165
546.837
549.494
551.068
551.528
550.855
549.044
546.096
542.017
536.813
530.495
523.076
514.585
505.043
507.196
520.782
532.802
543.238
552.077
559.325
565.006
569.171
571.903
573.329
573.634
573.068
571.955
570.685
569.693
569.403
570.161
572.142
575.286
579.271
583.551
587.445
590.239
591.281
590.039
586.118
579.259
569.319
556.243
540.042
520.771
498.515
473.378
445.475
432.354
456.683
502.874
549.918
597.722
646.197
695.267
744.856
794.894
845.311
896.037
946.998
998.12
1049.32
1100.5
1151.56
1202.38
1252.81
1302.7
1351.83
1399.95
1446.74
1491.67
1534.08
1573.9
1609.88
5249.46
14255.6
1598.44
1541.04
1478.01
1410.23
1338.48
1263.51
1186.07
1106.94
1027.01
947.197
868.418
792.282
721.073
657.333
603.594
561.866
532.951
515.976
508.604
507.879
511.102
516.27
522.055
527.669
532.676
536.841
540.043
542.215
543.323
543.35
542.286
540.127
536.878
532.541
527.123
520.636
513.103
504.544
506.464
518.599
529.189
538.219
545.681
551.584
555.956
558.851
560.353
560.591
559.749
558.075
555.888
553.572
551.553
550.247
549.989
550.95
553.067
556.018
559.263
562.127
563.902
563.944
561.723
556.85
549.07
538.239
524.304
507.275
487.207
464.181
438.299
409.672
393.916
415.828
461.947
509.05
557.041
605.833
655.342
705.489
756.197
807.39
858.99
910.914
963.074
1015.38
1067.72
1119.97
1172.02
1223.69
1274.8
1325.14
1374.43
1422.34
1468.32
1511.72
1552.49
1589.35
7456.08
12153.7
1570.5
1512.8
1449.47
1381.44
1309.53
1234.51
1157.16
1078.29
998.809
919.644
841.726
766.745
697.005
635.014
583.224
543.502
516.463
501.067
494.904
495.057
498.922
504.599
510.837
516.897
522.372
527.043
530.794
533.562
535.312
536.025
535.69
534.302
531.86
528.368
523.828
518.249
511.653
504.056
505.737
516.428
525.595
533.226
539.317
543.881
546.949
548.576
548.849
547.899
545.907
543.119
539.851
536.48
533.423
531.087
529.799
529.722
530.788
532.679
534.856
536.649
537.359
536.346
533.089
527.202
518.434
506.644
491.782
473.858
452.926
429.069
402.385
372.984
355.238
375.389
421.36
468.433
516.511
565.502
615.321
665.884
717.109
768.913
821.21
873.91
926.916
980.125
1033.42
1086.67
1139.73
1192.43
1244.58
1295.93
1346.22
1395.08
1441.98
1486.25
1527.81
1565.39
9375.17
10327.7
1540.31
1482.66
1419.38
1351.44
1279.7
1204.95
1127.99
1049.65
970.865
892.526
815.614
741.887
673.648
613.377
563.447
525.601
500.294
486.349
481.306
482.29
486.786
492.981
499.69
506.217
512.179
517.37
521.679
525.046
527.437
528.832
529.218
528.589
526.943
524.28
520.6
515.912
510.233
503.578
505.013
514.268
522.018
528.254
532.978
536.205
537.969
538.328
537.371
535.228
532.08
528.173
523.816
519.38
515.275
511.897
509.565
508.435
508.434
509.241
510.324
511.015
510.624
508.516
504.177
497.228
487.422
474.622
458.781
439.912
418.07
393.338
365.813
335.606
316.335
335.19
380.944
427.906
475.979
525.068
575.085
625.942
677.552
729.826
782.673
835.995
889.687
943.638
997.722
1051.8
1105.71
1159.29
1212.31
1264.54
1315.68
1365.39
1413.09
1458.12
1500.4
1538.63
10998.9
8803.23
1508.59
1451.2
1388.22
1320.64
1249.33
1175.1
1098.75
1021.14
943.207
865.837
790.039
717.629
650.901
592.302
544.139
508.041
484.327
471.715
467.712
469.487
474.605
481.33
488.531
495.548
502.02
507.751
512.634
516.612
519.651
521.731
522.837
522.963
522.105
520.261
517.43
513.619
508.841
503.11
504.292
512.117
518.454
523.299
526.658
528.548
529.008
528.097
525.906
522.565
518.257
513.223
507.768
502.259
497.095
492.666
489.279
487.082
485.998
485.706
485.672
485.238
483.716
480.481
475.026
466.977
456.095
442.247
425.391
405.542
382.757
357.12
328.731
297.698
277.229
295.107
340.58
387.359
435.346
484.444
534.562
585.608
637.491
690.117
743.39
797.205
851.453
906.012
960.75
1015.52
1070.16
1124.47
1178.25
1231.24
1283.15
1333.61
1382.03
1427.77
1470.73
1509.62
12347.5
7555.5
1475.83
1418.84
1356.35
1289.31
1218.62
1145.08
1069.52
992.796
915.851
839.559
764.958
693.9
628.673
571.692
525.201
490.729
468.483
457.097
454.062
456.595
462.331
469.599
477.314
484.847
491.852
498.144
503.619
508.222
511.919
514.69
516.521
517.402
517.329
516.298
514.308
511.362
507.473
502.65
503.574
509.973
514.901
518.357
520.351
520.905
520.058
517.874
514.445
509.902
504.427
498.258
491.699
485.108
478.878
473.388
468.936
465.662
463.484
462.077
460.911
459.33
456.655
452.269
445.671
436.495
424.509
409.587
391.688
370.835
347.086
320.527
291.259
259.392
237.946
255.051
300.186
346.718
394.548
443.578
493.713
544.859
596.92
649.799
703.394
757.597
812.291
867.349
922.632
977.985
1033.24
1088.2
1142.65
1196.32
1248.91
1300.05
1349.15
1395.56
1439.2
1478.77
13446.7
6555.53
1442.33
1385.87
1323.99
1257.64
1187.71
1115.02
1040.38
964.656
888.8
813.666
740.318
670.632
606.888
551.469
506.56
473.604
452.711
442.45
440.315
443.577
449.929
457.754
466.005
474.078
481.641
488.515
494.601
499.845
504.214
507.686
510.247
511.886
512.599
512.379
511.225
509.137
506.125
502.197
502.858
507.835
511.356
513.425
514.054
513.27
511.116
507.655
502.984
497.233
490.584
483.275
475.604
467.924
460.62
454.061
448.537
444.178
440.896
438.363
436.051
433.309
429.464
423.907
416.146
405.824
392.713
376.697
357.739
335.865
311.139
283.649
253.498
220.795
198.512
214.966
259.711
305.94
353.551
402.445
452.525
503.693
555.853
608.901
662.732
717.233
772.283
827.749
883.488
939.342
995.133
1050.66
1105.7
1159.98
1213.2
1264.98
1314.72
1361.79
1406.1
1446.36
14326
5765.71
1408.3
1352.47
1291.3
1225.77
1156.72
1084.98
1011.36
936.733
862.041
788.126
716.068
647.761
585.475
531.562
488.156
456.625
436.997
427.77
426.443
430.406
437.377
445.775
454.584
463.22
471.364
478.842
485.559
491.461
496.514
500.698
503.998
506.401
507.902
508.493
508.172
506.936
504.794
501.751
502.143
505.701
507.817
508.499
507.763
505.64
502.175
497.435
491.516
484.553
476.725
468.269
459.48
450.705
442.32
434.688
428.085
422.634
418.239
414.572
411.104
407.189
402.161
395.419
386.48
374.997
360.748
343.625
323.597
300.694
274.985
246.561
215.526
181.991
158.954
174.816
219.126
265.001
312.339
361.039
411.001
462.126
514.313
567.459
621.452
676.176
731.507
787.308
843.432
899.714
955.971
1012
1067.57
1122.41
1176.22
1228.6
1278.97
1326.69
1371.68
1412.65
15015.7
5164.71
1373.89
1318.76
1258.41
1193.77
1125.7
1055
982.494
909.033
835.562
762.908
692.162
625.228
564.361
511.885
469.893
439.699
421.286
413.078
412.481
417.111
424.692
433.669
443.05
452.267
461.01
469.111
476.475
483.05
488.803
493.711
497.758
500.933
503.226
504.631
505.141
504.755
503.476
501.309
501.43
503.57
504.281
503.577
501.475
498.011
493.232
487.209
480.04
471.859
462.847
453.239
443.326
433.45
423.98
415.268
407.581
401.033
395.521
390.712
386.08
380.982
374.761
366.825
356.698
344.043
328.648
310.41
289.306
265.371
238.678
209.321
177.408
143.051
119.298
134.586
178.42
223.897
270.913
319.366
369.156
420.18
472.336
525.516
579.608
634.492
690.04
746.112
802.555
859.203
915.87
972.348
1028.4
1083.76
1138.11
1191.08
1242.05
1290.42
1336.1
1377.81
15505.8
4729.98
1339.19
1284.84
1225.38
1161.72
1094.71
1025.13
953.799
881.563
809.358
737.998
668.579
603.006
543.516
492.404
451.725
422.747
405.454
398.266
398.41
403.694
411.875
421.431
431.392
441.204
450.563
459.303
467.332
474.596
481.062
486.706
491.512
495.467
498.559
500.78
502.124
502.586
502.168
500.871
500.718
501.441
500.748
498.656
495.187
490.38
484.284
476.975
468.55
459.148
448.947
438.182
427.14
416.159
405.599
395.803
387.028
379.378
372.743
366.788
360.986
354.699
347.278
338.139
326.817
312.984
296.437
277.081
254.899
229.933
202.259
171.976
139.194
104.027
100
100
137.595
182.634
229.285
277.446
327.014
377.886
429.957
483.117
537.251
592.237
647.944
704.229
760.937
817.897
874.922
931.8
988.294
1044.13
1098.99
1152.51
1204.09
1253.1
1299.5
1342.05
16079.2
4347.23
1304.2
1250.72
1192.24
1129.65
1063.77
995.377
925.279
854.317
783.417
713.381
645.3
581.075
522.921
473.105
433.642
405.764
389.457
383.205
384.163
390.104
398.884
409.026
419.579
430.002
439.995
449.394
458.105
466.076
473.271
479.667
485.244
489.988
493.888
496.932
499.113
500.425
500.865
500.435
500.006
499.313
497.216
493.734
488.897
482.743
475.328
466.728
457.045
446.416
435.022
423.094
410.92
398.829
387.175
376.291
366.425
357.67
349.909
342.803
335.826
328.345
319.719
309.372
296.851
281.836
264.135
243.659
220.401
194.407
165.759
134.559
100.919
100
100
100
100
141.23
187.478
235.304
284.607
335.28
387.216
440.305
494.43
549.466
605.28
661.727
718.65
775.876
833.215
890.455
947.355
1003.64
1059
1113.05
1165.21
1214.85
1261.93
1305.21
16240.7
4225.91
1269.04
1216.51
1159.08
1097.61
1032.91
965.764
896.944
827.292
757.727
689.035
622.303
559.414
502.563
453.986
415.664
388.8
373.338
367.826
369.611
376.233
385.635
396.387
407.559
418.619
429.271
439.351
448.768
457.466
465.409
472.572
478.936
484.483
489.2
493.075
496.1
498.265
499.566
500
500.006
499.313
497.216
493.734
488.897
482.743
475.328
466.728
457.044
446.415
435.021
423.094
410.919
398.828
387.174
376.29
366.424
357.669
349.908
342.802
335.825
328.344
319.717
309.37
296.849
281.834
264.133
243.657
220.399
194.405
165.757
134.556
100.917
100
100
100
100
141.228
187.476
235.303
284.605
335.278
387.215
440.304
494.429
549.465
605.279
661.726
718.649
775.876
833.215
890.455
947.355
1003.64
1059
1113.05
1165.21
1214.85
1261.93
1305.21
16240.7
4225.89
1269.04
1216.51
1159.08
1097.61
1032.91
965.764
896.944
827.292
757.726
689.035
622.303
559.413
502.562
453.985
415.664
388.799
373.337
367.825
369.611
376.232
385.634
396.386
407.558
418.618
429.27
439.351
448.767
457.465
465.409
472.572
478.935
484.483
489.2
493.075
496.099
498.264
499.565
500
500.718
501.441
500.748
498.655
495.187
490.379
484.283
476.974
468.549
459.146
448.946
438.18
427.138
416.157
405.597
395.801
387.026
379.376
372.741
366.785
360.983
354.696
347.274
338.135
326.814
312.98
296.433
277.076
254.895
229.928
202.254
171.971
139.189
104.022
100
100
137.591
182.63
229.282
277.443
327.011
377.884
429.955
483.115
537.249
592.235
647.942
704.228
760.936
817.897
874.922
931.8
988.294
1044.13
1098.99
1152.51
1204.09
1253.1
1299.5
1342.05
16079.3
4347.04
1304.2
1250.72
1192.24
1129.65
1063.77
995.378
925.28
854.317
783.417
713.38
645.3
581.074
522.92
473.104
433.64
405.763
389.455
383.203
384.161
390.103
398.882
409.024
419.578
430.001
439.994
449.393
458.104
466.075
473.27
479.666
485.243
489.988
493.887
496.931
499.112
500.424
500.865
500.435
501.43
503.57
504.281
503.576
501.475
498.01
493.231
487.208
480.039
471.858
462.846
453.237
443.324
433.448
423.978
415.266
407.579
401.03
395.518
390.709
386.077
380.979
374.758
366.821
356.694
344.039
328.644
310.405
289.301
265.366
238.673
209.316
177.403
143.046
119.294
134.582
178.416
223.894
270.91
319.363
369.153
420.178
472.334
525.514
579.606
634.491
690.039
746.111
802.555
859.203
915.87
972.348
1028.4
1083.76
1138.11
1191.08
1242.05
1290.42
1336.1
1377.82
15505.7
4729.99
1339.2
1284.85
1225.38
1161.73
1094.71
1025.13
953.8
881.564
809.359
737.999
668.579
603.005
543.515
492.403
451.723
422.745
405.453
398.264
398.408
403.692
411.873
421.43
431.39
441.203
450.562
459.302
467.331
474.595
481.061
486.705
491.512
495.466
498.558
500.78
502.123
502.586
502.167
500.87
502.143
505.7
507.816
508.498
507.763
505.639
502.174
497.434
491.515
484.552
476.724
468.268
459.478
450.703
442.318
434.685
428.083
422.631
418.237
414.569
411.101
407.185
402.157
395.415
386.477
374.992
360.744
343.62
323.592
300.689
274.98
246.556
215.52
181.986
158.95
174.813
219.123
264.999
312.336
361.036
410.999
462.124
514.312
567.457
621.45
676.175
731.506
787.308
843.431
899.713
955.971
1012
1067.57
1122.41
1176.22
1228.6
1278.97
1326.69
1371.68
1412.65
15015.6
5164.89
1373.9
1318.77
1258.41
1193.78
1125.7
1055.01
982.497
909.035
835.563
762.909
692.163
625.228
564.361
511.885
469.892
439.697
421.284
413.076
412.479
417.109
424.69
433.667
443.048
452.265
461.009
469.11
476.474
483.049
488.802
493.71
497.757
500.932
503.225
504.63
505.14
504.754
503.476
501.309
502.858
507.834
511.355
513.424
514.054
513.269
511.115
507.654
502.982
497.232
490.583
483.273
475.602
467.922
460.618
454.059
448.535
444.176
440.893
438.36
436.048
433.306
429.461
423.904
416.142
405.819
392.709
376.692
357.734
335.86
311.134
283.644
253.492
220.789
198.508
214.963
259.708
305.937
353.549
402.443
452.523
503.692
555.851
608.899
662.731
717.232
772.282
827.749
883.488
939.342
995.134
1050.66
1105.7
1159.98
1213.2
1264.98
1314.72
1361.79
1406.1
1446.36
14325.9
5765.76
1408.31
1352.47
1291.31
1225.77
1156.72
1084.98
1011.36
936.736
862.043
788.128
716.069
647.762
585.475
531.561
488.155
456.624
436.995
427.768
426.441
430.404
437.375
445.773
454.582
463.219
471.363
478.841
485.558
491.459
496.513
500.697
503.997
506.401
507.901
508.493
508.171
506.936
504.794
501.751
503.574
509.973
514.9
518.357
520.351
520.904
520.058
517.873
514.444
509.901
504.425
498.257
491.697
485.106
478.876
473.386
468.934
465.66
463.481
462.074
460.908
459.327
456.652
452.266
445.667
436.491
424.504
409.582
391.683
370.829
347.08
320.521
291.254
259.386
237.942
255.049
300.184
346.716
394.547
443.577
493.712
544.857
596.919
649.798
703.394
757.597
812.29
867.348
922.631
977.985
1033.24
1088.2
1142.65
1196.32
1248.91
1300.06
1349.15
1395.56
1439.2
1478.77
13446.6
6555.6
1442.34
1385.88
1323.99
1257.65
1187.72
1115.02
1040.38
964.658
888.801
813.668
740.319
670.632
606.888
551.469
506.559
473.603
452.709
442.448
440.313
443.575
449.927
457.752
466.003
474.076
481.64
488.514
494.6
499.844
504.213
507.685
510.246
511.886
512.598
512.379
511.224
509.136
506.125
502.197
504.292
512.117
518.454
523.299
526.657
528.548
529.007
528.096
525.904
522.564
518.256
513.221
507.766
502.257
497.093
492.664
489.277
487.08
485.996
485.703
485.669
485.234
483.712
480.478
475.022
466.973
456.09
442.242
425.386
405.536
382.751
357.114
328.725
297.692
277.225
295.105
340.578
387.358
435.345
484.443
534.561
585.607
637.49
690.117
743.39
797.205
851.453
906.012
960.751
1015.52
1070.16
1124.47
1178.25
1231.24
1283.15
1333.61
1382.03
1427.77
1470.73
1509.62
12347.5
7555.64
1475.84
1418.85
1356.35
1289.32
1218.62
1145.09
1069.53
992.798
915.853
839.56
764.959
693.9
628.673
571.692
525.2
490.728
468.482
457.095
454.06
456.593
462.329
469.597
477.312
484.845
491.851
498.142
503.618
508.221
511.918
514.689
516.52
517.401
517.328
516.297
514.308
511.362
507.473
502.65
505.013
514.268
522.018
528.254
532.978
536.204
537.968
538.327
537.37
535.226
532.079
528.172
523.814
519.379
515.273
511.895
509.563
508.432
508.431
509.239
510.321
511.012
510.62
508.513
504.173
497.224
487.417
474.617
458.776
439.906
418.064
393.331
365.807
335.599
316.331
335.189
380.943
427.906
475.979
525.068
575.085
625.942
677.552
729.826
782.673
835.995
889.688
943.639
997.722
1051.8
1105.71
1159.29
1212.31
1264.54
1315.68
1365.4
1413.09
1458.12
1500.4
1538.64
10998.9
8803.44
1508.6
1451.2
1388.22
1320.65
1249.33
1175.1
1098.75
1021.14
943.208
865.837
790.04
717.629
650.902
592.302
544.139
508.04
484.326
471.713
467.71
469.485
474.603
481.328
488.529
495.547
502.019
507.75
512.633
516.611
519.65
521.73
522.837
522.963
522.104
520.26
517.43
513.618
508.841
503.11
505.737
516.428
525.595
533.226
539.317
543.88
546.948
548.575
548.848
547.897
545.905
543.118
539.85
536.478
533.421
531.085
529.797
529.719
530.786
532.676
534.853
536.646
537.355
536.343
533.085
527.198
518.429
506.639
491.777
473.852
452.92
429.062
402.378
372.977
355.234
375.389
421.36
468.433
516.511
565.503
615.322
665.885
717.11
768.914
821.211
873.911
926.918
980.126
1033.42
1086.67
1139.73
1192.43
1244.58
1295.94
1346.22
1395.08
1441.98
1486.25
1527.81
1565.39
9374.66
10328.2
1540.32
1482.66
1419.38
1351.44
1279.7
1204.96
1128
1049.66
970.866
892.527
815.615
741.888
673.649
613.377
563.447
525.601
500.293
486.347
481.304
482.288
486.784
492.98
499.688
506.215
512.177
517.369
521.678
525.045
527.437
528.831
529.218
528.589
526.943
524.279
520.6
515.912
510.233
503.578
506.464
518.599
529.189
538.218
545.68
551.583
555.956
558.85
560.352
560.59
559.748
558.073
555.886
553.57
551.551
550.244
549.987
550.948
553.064
556.016
559.261
562.124
563.899
563.94
561.719
556.846
549.065
538.234
524.298
507.269
487.2
464.174
438.292
409.665
393.913
415.829
461.948
509.051
557.043
605.834
655.343
705.49
756.199
807.392
858.992
910.915
963.076
1015.38
1067.72
1119.98
1172.02
1223.69
1274.8
1325.14
1374.43
1422.34
1468.32
1511.72
1552.49
1589.35
7455.69
12154.1
1570.5
1512.81
1449.48
1381.44
1309.53
1234.51
1157.16
1078.29
998.811
919.645
841.728
766.747
697.006
635.015
583.225
543.502
516.462
501.066
494.903
495.055
498.92
504.597
510.835
516.895
522.371
527.042
530.793
533.561
535.311
536.024
535.689
534.301
531.86
528.368
523.828
518.249
511.653
504.056
507.196
520.782
532.802
543.238
552.077
559.324
565.006
569.17
571.902
573.328
573.633
573.067
571.953
570.683
569.691
569.401
570.159
572.14
575.284
579.268
583.548
587.442
590.235
591.278
590.035
586.113
579.254
569.313
556.237
540.035
520.764
498.507
473.37
445.467
432.351
456.685
502.876
549.92
597.724
646.199
695.269
744.858
794.896
845.313
896.039
947.001
998.122
1049.32
1100.5
1151.56
1202.38
1252.81
1302.7
1351.83
1399.96
1446.74
1491.68
1534.09
1573.9
1609.89
5249.48
14257.3
1598.44
1541.05
1478.02
1410.24
1338.49
1263.52
1186.08
1106.95
1027.01
947.201
868.42
792.282
721.074
657.335
603.596
561.867
532.951
515.976
508.603
507.878
511.1
516.268
522.054
527.668
532.675
536.84
540.042
542.214
543.323
543.35
542.285
540.127
536.877
532.541
527.123
520.636
513.103
504.544
507.932
522.977
536.437
548.287
558.512
567.113
574.111
579.552
583.518
586.135
587.586
588.126
588.08
587.848
587.872
588.586
590.343
593.325
597.471
602.458
607.733
612.609
616.364
618.341
618.002
614.951
608.927
599.788
587.478
572.013
553.449
531.876
507.403
480.15
470.539
498.193
544.376
591.264
638.766
686.798
735.282
784.151
833.34
882.787
932.43
982.208
1032.06
1081.9
1131.68
1181.28
1230.62
1279.58
1328
1375.7
1422.44
1467.93
1511.66
1552.96
1591.69
1626.54
2798.58
16399.6
1622.95
1566.49
1504.3
1437.26
1366.12
1291.62
1214.48
1135.44
1055.37
975.176
895.743
818.592
745.986
680.494
624.73
580.861
549.91
531.205
522.512
520.848
523.407
528.071
533.421
538.609
543.164
546.836
549.493
551.068
551.527
550.855
549.044
546.096
542.016
536.813
530.495
523.076
514.585
505.043
508.673
525.187
540.097
553.376
565.003
574.975
583.307
590.043
595.26
599.081
601.69
603.341
604.365
605.167
606.197
607.899
610.633
614.586
619.698
625.642
631.858
637.649
642.289
645.114
645.582
643.295
637.996
629.54
617.879
603.029
585.055
564.05
540.131
513.425
508.482
540.67
586.761
633.391
680.468
727.911
775.649
823.614
871.749
920.001
968.319
1016.65
1064.94
1113.15
1161.2
1209.03
1256.56
1303.7
1350.32
1396.27
1441.35
1485.29
1527.64
1567.69
1605.41
1639.45
1668.36
17558.4
1642.42
1587.88
1527.31
1461.66
1391.73
1318.25
1241.91
1163.44
1083.64
1003.43
923.649
845.717
771.854
704.653
646.822
600.705
567.571
546.995
536.875
534.214
536.089
540.249
545.172
549.938
554.039
557.206
559.299
560.251
560.03
558.624
556.031
552.256
547.31
541.205
533.954
525.575
516.1
505.552
509.416
527.405
543.777
558.499
571.546
582.908
592.597
600.649
607.135
612.177
615.955
618.725
620.822
622.657
624.687
627.368
631.065
635.969
642.019
648.879
655.981
662.618
668.055
671.623
672.779
671.125
666.407
658.485
647.316
632.924
615.382
594.792
571.278
544.979
546.198
584.503
630.421
676.687
723.21
769.911
816.722
863.584
910.44
957.245
1003.96
1050.54
1096.96
1143.16
1189.12
1234.78
1280.08
1324.97
1369.34
1413.07
1456.01
1497.93
1538.54
1577.04
1613.64
1647.21
1676.71
18014.6
1656.44
1604.55
1546.26
1482.64
1414.55
1342.73
1267.82
1190.51
1111.55
1031.81
952.129
873.768
798.881
730.082
670.172
621.688
586.186
563.537
551.825
548.059
549.2
552.844
557.347
561.703
565.356
568.013
569.528
569.831
568.894
566.711
563.288
558.637
552.776
545.725
537.501
528.129
517.644
506.07
510.161
529.638
547.493
563.691
578.201
591.006
602.11
611.54
619.361
625.686
630.69
634.625
637.827
640.71
643.739
647.377
651.996
657.792
664.701
672.383
680.259
687.614
693.705
697.86
699.534
698.334
694.008
686.426
675.552
661.42
644.113
623.744
600.45
575.423
584.797
630.217
675.876
721.668
767.502
813.3
858.996
904.534
949.87
994.96
1039.77
1084.28
1128.45
1172.28
1215.72
1258.76
1301.38
1343.51
1385.12
1426.13
1466.41
1505.82
1544.12
1580.73
1615.47
1648.06
1677.32
16824.4
1663.05
1614.82
1559.54
1498.68
1433.21
1363.83
1291.17
1215.82
1138.45
1059.88
980.892
902.61
827.087
756.94
695.066
644.219
606.275
581.459
568.081
563.175
563.569
566.685
570.737
574.628
577.756
579.809
580.637
580.177
578.408
575.335
570.974
565.348
558.484
550.411
541.153
530.74
519.212
506.593
510.899
531.849
551.186
568.874
584.872
599.153
611.709
622.556
631.745
639.38
645.631
650.748
655.067
659.008
663.046
667.648
673.196
679.883
687.638
696.11
704.704
712.691
719.32
723.914
725.931
724.983
720.829
713.35
702.525
688.403
671.08
650.686
627.372
612.767
632.954
678.273
723.593
768.804
813.815
858.55
902.944
946.946
990.515
1033.62
1076.23
1118.34
1159.92
1200.96
1241.47
1281.44
1320.86
1359.72
1398
1435.68
1472.69
1508.94
1544.27
1578.22
1610.66
1641.43
1669.52
13999.5
4276.02
1618.83
1566.08
1508.34
1446.22
1380.24
1310.85
1238.5
1163.75
1087.29
1009.85
932.389
856.8
785.67
721.975
668.698
628.09
600.803
585.465
579.193
578.703
581.225
584.809
588.239
590.847
592.29
592.406
591.136
588.47
584.428
579.041
572.349
564.397
555.225
544.872
533.376
520.782
507.115
511.636
534.085
554.971
574.247
591.868
607.793
621.997
634.476
645.262
654.437
662.151
668.635
674.215
679.303
684.374
689.902
696.277
703.696
712.091
721.098
730.118
738.414
745.234
749.909
751.909
750.858
746.529
738.818
727.72
713.298
695.665
674.966
651.367
650.127
684.27
729.406
774.275
818.77
862.802
906.295
949.189
991.439
1033.01
1073.87
1114
1153.4
1192.06
1229.98
1267.16
1303.63
1339.38
1374.44
1408.81
1442.51
1475.52
1507.82
1539.33
1569.74
1598.9
1626.84
1652.77
10698.1
7655.58
1614.97
1565.14
1511.02
1452.92
1391.12
1325.86
1257.46
1186.32
1112.97
1038.1
962.454
887.702
816.359
751.448
696.163
653.149
623.544
606.359
598.82
597.508
599.427
602.431
605.183
606.968
607.442
606.467
604.007
600.083
594.738
588.026
580.01
570.75
560.305
548.724
536.055
522.349
507.629
512.324
536.154
558.489
579.293
598.503
616.055
631.896
645.992
658.345
669.016
678.142
685.955
692.788
699.063
705.228
711.739
718.979
727.145
736.166
745.675
755.067
763.605
770.546
775.227