/*--------------------------------*- C++ -*----------------------------------*\
  =========                 |
  \\      /  F ield         | OpenFOAM: The Open Source CFD Toolbox
   \\    /   O peration     | Website:  https://openfoam.org
    \\  /    A nd           | Version:  8
     \\/     M anipulation  |
\*---------------------------------------------------------------------------*/
FoamFile
{
    version     2.0;
    format      ascii;
    class       volScalarField;
    location    "800/fluid";
    object      rho;
}
// * * * * * * * * * * * * * * * * * * * * * * * * * * * * * * * * * * * * * //

dimensions      [1 -3 0 0 0 0 0];

internalField   nonuniform List<scalar> 
4000
(
0.658526
0.658499
0.658454
0.658379
0.658254
0.658046
0.657704
0.657146
0.656244
0.654809
0.652562
0.649112
0.643948
0.636447
0.625944
0.61186
0.593881
0.572128
0.547231
0.520231
0.492356
0.464758
0.438332
0.413652
0.390996
0.370423
0.351849
0.335115
0.32003
0.3064
0.294044
0.282801
0.272532
0.263119
0.254466
0.246475
0.239043
0.232107
0.225617
0.21953
0.213808
0.208422
0.203343
0.198549
0.194022
0.189745
0.185705
0.181891
0.178295
0.174909
0.171729
0.168753
0.16598
0.163415
0.161063
0.158938
0.157057
0.155469
0.154203
0.153265
0.152771
0.152839
0.154261
0.16315
0.173656
0.185996
0.200467
0.217461
0.237495
0.261239
0.289566
0.3236
0.364784
0.415072
0.476837
0.552247
0.642435
0.745782
0.855712
0.960287
1.04649
1.10733
1.14458
1.16482
1.17497
1.17981
1.18204
1.18304
1.18349
1.18368
1.18376
1.1838
1.18381
1.18382
1.18382
1.18382
1.18382
1.18382
1.18382
1.18382
0.658526
0.658499
0.658454
0.658379
0.658253
0.658044
0.6577
0.657139
0.656234
0.654796
0.652549
0.64911
0.643977
0.636546
0.626168
0.612279
0.594562
0.573115
0.548523
0.521781
0.49408
0.46656
0.440124
0.415366
0.392589
0.371873
0.353149
0.336268
0.321046
0.30729
0.294822
0.283478
0.273119
0.263627
0.254903
0.246851
0.239365
0.23238
0.225847
0.219722
0.213966
0.208547
0.20344
0.198621
0.194071
0.189774
0.185716
0.181886
0.178275
0.174876
0.171685
0.168698
0.165917
0.163344
0.160986
0.158856
0.15697
0.155381
0.154113
0.153175
0.152683
0.152758
0.154941
0.163994
0.174696
0.187278
0.202054
0.219437
0.239972
0.26437
0.293552
0.328711
0.371376
0.423625
0.487869
0.566163
0.659234
0.764567
0.874385
0.976108
1.05761
1.11382
1.1478
1.16626
1.17556
1.18004
1.18213
1.18307
1.1835
1.18368
1.18376
1.1838
1.18381
1.18382
1.18382
1.18382
1.18382
1.18382
1.18382
1.18382
0.658526
0.658499
0.658454
0.658378
0.658252
0.658042
0.657697
0.657134
0.656227
0.654787
0.652541
0.64911
0.644002
0.636623
0.626339
0.612595
0.595076
0.573868
0.549531
0.523024
0.495509
0.468108
0.441722
0.416953
0.394118
0.373313
0.354483
0.337489
0.322152
0.308287
0.295714
0.284273
0.273824
0.264248
0.255448
0.247327
0.239778
0.232736
0.22615
0.219975
0.214174
0.208714
0.203569
0.198715
0.194133
0.189805
0.18572
0.181865
0.178232
0.174814
0.171605
0.168603
0.165808
0.163224
0.160857
0.158718
0.156828
0.155237
0.15397
0.153036
0.152555
0.152644
0.156163
0.165441
0.17643
0.189373
0.204602
0.222554
0.243806
0.26911
0.299438
0.336038
0.380517
0.435027
0.501901
0.582914
0.678196
0.784292
0.892555
0.990463
1.06722
1.11934
1.1506
1.16758
1.17615
1.18029
1.18223
1.18312
1.18351
1.18369
1.18377
1.1838
1.18381
1.18382
1.18382
1.18382
1.18382
1.18382
1.18382
1.18382
0.658526
0.658499
0.658454
0.658378
0.658252
0.658043
0.657699
0.657138
0.656236
0.654805
0.652577
0.649178
0.644123
0.636826
0.626662
0.613077
0.595752
0.574758
0.550629
0.524299
0.496909
0.469574
0.443198
0.418396
0.395496
0.374606
0.355681
0.338588
0.323154
0.309195
0.296533
0.285008
0.27448
0.26483
0.25596
0.247777
0.24017
0.233074
0.226437
0.220214
0.214369
0.208867
0.203683
0.198792
0.194175
0.189817
0.185702
0.181821
0.178164
0.174724
0.171496
0.168478
0.165669
0.163074
0.160697
0.158553
0.15666
0.155073
0.153815
0.152892
0.152426
0.152542
0.157706
0.167233
0.178546
0.1919
0.207641
0.226233
0.24828
0.274572
0.306129
0.344248
0.390613
0.44743
0.51692
0.600572
0.697922
0.804613
0.911203
1.00528
1.0773
1.12531
1.15375
1.16911
1.17685
1.18061
1.18237
1.18318
1.18354
1.1837
1.18377
1.1838
1.18381
1.18382
1.18382
1.18382
1.18382
1.18382
1.18382
1.18382
0.658526
0.658499
0.658454
0.658379
0.658253
0.658045
0.657703
0.657145
0.656249
0.654829
0.652618
0.649249
0.644241
0.637017
0.626955
0.613506
0.596347
0.575533
0.551579
0.525397
0.498112
0.470831
0.444463
0.419631
0.396674
0.37571
0.356703
0.339526
0.324009
0.30997
0.297232
0.285635
0.27504
0.265327
0.256397
0.248159
0.240501
0.233357
0.226675
0.22041
0.214524
0.208984
0.203763
0.198838
0.194189
0.189801
0.18566
0.181754
0.178074
0.174614
0.171369
0.168336
0.165516
0.162912
0.16053
0.158384
0.156495
0.154923
0.153676
0.152769
0.152333
0.152505
0.159357
0.16913
0.180778
0.194559
0.210833
0.230084
0.252944
0.280238
0.313026
0.352654
0.400886
0.45995
0.53192
0.617974
0.717027
0.823863
0.928415
1.01859
1.08617
1.13048
1.15647
1.17044
1.17747
1.18089
1.18249
1.18323
1.18356
1.18371
1.18377
1.1838
1.18381
1.18382
1.18382
1.18382
1.18382
1.18382
1.18382
1.18382
0.658526
0.658499
0.658455
0.65838
0.658255
0.658049
0.657709
0.657155
0.656267
0.654859
0.65267
0.649334
0.644377
0.637225
0.627263
0.613941
0.596928
0.576268
0.552456
0.526388
0.499177
0.471928
0.445554
0.420684
0.397671
0.376639
0.357558
0.340307
0.324717
0.310609
0.297806
0.286148
0.275496
0.265729
0.256748
0.248463
0.240762
0.233577
0.226855
0.220553
0.214631
0.209058
0.203805
0.19885
0.194174
0.18976
0.185595
0.181667
0.177968
0.174491
0.171232
0.168189
0.165361
0.162754
0.160373
0.158233
0.156352
0.154797
0.153565
0.152682
0.152274
0.152482
0.160764
0.17084
0.182866
0.197104
0.213928
0.233841
0.257504
0.285776
0.319759
0.360841
0.410869
0.472063
0.546354
0.634597
0.735101
0.841858
0.944305
1.03077
1.09426
1.13523
1.15899
1.17169
1.17807
1.18116
1.18261
1.18328
1.18358
1.18372
1.18378
1.1838
1.18381
1.18382
1.18382
1.18382
1.18382
1.18382
1.18382
1.18382
0.658526
0.6585
0.658455
0.658381
0.658257
0.658052
0.657715
0.657166
0.656285
0.654891
0.652721
0.649416
0.644505
0.63742
0.627546
0.614334
0.597448
0.576918
0.553226
0.52725
0.500097
0.472868
0.446481
0.421574
0.398507
0.377413
0.358266
0.340949
0.325296
0.311127
0.298268
0.286558
0.275857
0.266044
0.25702
0.248695
0.240957
0.233737
0.226982
0.220648
0.214696
0.209093
0.203814
0.198834
0.194134
0.189698
0.185512
0.181567
0.177852
0.174363
0.171094
0.168044
0.165214
0.162609
0.160237
0.158112
0.156254
0.154742
0.153522
0.1527
0.152362
0.152644
0.161552
0.172148
0.184665
0.199413
0.216803
0.237371
0.261811
0.291019
0.326136
0.368599
0.420327
0.483515
0.559946
0.650146
0.751834
0.858278
0.958552
1.04149
1.10128
1.13931
1.16116
1.17276
1.17857
1.18139
1.18272
1.18333
1.1836
1.18373
1.18378
1.1838
1.18381
1.18382
1.18382
1.18382
1.18382
1.18382
1.18382
1.18382
0.658526
0.6585
0.658456
0.658382
0.658259
0.658056
0.657721
0.657178
0.656304
0.654921
0.652771
0.649495
0.644627
0.637601
0.627806
0.614692
0.597914
0.577495
0.5539
0.527998
0.500886
0.473668
0.447263
0.422319
0.399202
0.37805
0.358845
0.34147
0.325761
0.311541
0.298634
0.286879
0.276136
0.266284
0.257224
0.248865
0.241096
0.233846
0.227063
0.220701
0.214724
0.209098
0.203796
0.198795
0.194075
0.189621
0.18542
0.18146
0.177733
0.174234
0.170958
0.167905
0.165076
0.162476
0.160115
0.15801
0.156193
0.154732
0.15359
0.152894
0.15276
0.153384
0.162602
0.173543
0.186443
0.201626
0.21952
0.240684
0.265838
0.29591
0.332077
0.375825
0.429131
0.494159
0.572536
0.664467
0.767105
0.873079
0.971211
1.0509
1.10739
1.14284
1.16303
1.17369
1.17902
1.1816
1.18281
1.18337
1.18362
1.18374
1.18378
1.18381
1.18381
1.18382
1.18382
1.18382
1.18382
1.18382
1.18382
1.18382
0.658526
0.6585
0.658457
0.658383
0.658261
0.658059
0.657728
0.657188
0.656321
0.65495
0.652816
0.649567
0.644737
0.637763
0.628038
0.615006
0.598322
0.577995
0.554481
0.528638
0.501557
0.474343
0.447919
0.422939
0.399775
0.378572
0.359315
0.341889
0.326133
0.311868
0.29892
0.287127
0.276348
0.266463
0.257372
0.248985
0.241189
0.233914
0.227108
0.220724
0.214726
0.209081
0.20376
0.198741
0.194006
0.189537
0.185322
0.181351
0.177615
0.174108
0.170828
0.167773
0.164945
0.162351
0.16
0.157912
0.156123
0.154695
0.1536
0.152973
0.152939
0.154243
0.163722
0.174949
0.188173
0.203732
0.222071
0.243767
0.269566
0.300425
0.337552
0.382481
0.43724
0.50394
0.584066
0.677503
0.78088
0.886264
0.982327
1.05904
1.11261
1.14585
1.16462
1.17448
1.1794
1.18177
1.18289
1.1834
1.18364
1.18374
1.18379
1.18381
1.18382
1.18382
1.18382
1.18382
1.18382
1.18382
1.18382
1.18382
0.658526
0.6585
0.658457
0.658384
0.658263
0.658063
0.657733
0.657197
0.656337
0.654975
0.652858
0.649631
0.644834
0.637907
0.62824
0.61528
0.598674
0.578424
0.554976
0.52918
0.502122
0.474907
0.448463
0.423449
0.400244
0.378996
0.359693
0.342224
0.326427
0.312124
0.29914
0.287314
0.276506
0.266594
0.257477
0.249066
0.241248
0.233952
0.227126
0.220725
0.21471
0.209048
0.203712
0.198679
0.19393
0.18945
0.185225
0.181244
0.177501
0.173989
0.170706
0.167649
0.164822
0.16223
0.159885
0.157804
0.156027
0.154609
0.153521
0.15289
0.152832
0.155204
0.164875
0.176328
0.189821
0.205702
0.224428
0.246594
0.272969
0.304533
0.342525
0.388527
0.4446
0.512807
0.59449
0.689229
0.793168
0.897894
0.992005
1.06605
1.11707
1.1484
1.16597
1.17515
1.17972
1.18192
1.18296
1.18344
1.18365
1.18375
1.18379
1.18381
1.18382
1.18382
1.18382
1.18382
1.18382
1.18382
1.18382
1.18382
0.658526
0.658501
0.658458
0.658385
0.658265
0.658066
0.657738
0.657206
0.656351
0.654998
0.652894
0.649687
0.644919
0.638031
0.628415
0.615515
0.598974
0.578789
0.555395
0.529635
0.502594
0.475375
0.448912
0.423867
0.400625
0.379338
0.359996
0.342489
0.326656
0.312321
0.299308
0.287455
0.276622
0.266686
0.257548
0.249118
0.241281
0.233969
0.227127
0.22071
0.214681
0.209006
0.203657
0.198613
0.193854
0.189365
0.185132
0.181145
0.177396
0.17388
0.170594
0.167537
0.16471
0.162121
0.159779
0.157702
0.155933
0.154521
0.153435
0.152804
0.152742
0.15615
0.165978
0.177622
0.191346
0.207507
0.226573
0.249156
0.276042
0.308236
0.347001
0.393964
0.451215
0.520765
0.603817
0.69967
0.804025
0.908058
1.00036
1.07203
1.12084
1.15054
1.1671
1.17571
1.17999
1.18205
1.18301
1.18346
1.18366
1.18375
1.18379
1.18381
1.18382
1.18382
1.18382
1.18382
1.18382
1.18382
1.18382
1.18382
0.658526
0.658501
0.658458
0.658386
0.658267
0.658068
0.657743
0.657213
0.656363
0.655018
0.652925
0.649735
0.644992
0.638137
0.628563
0.615714
0.599228
0.579094
0.555744
0.530013
0.502984
0.47576
0.449278
0.424207
0.400932
0.379611
0.360236
0.342697
0.326835
0.312472
0.299434
0.287559
0.276705
0.26675
0.257595
0.249148
0.241297
0.23397
0.227115
0.220687
0.214646
0.20896
0.203602
0.198549
0.193782
0.189286
0.185047
0.181055
0.177303
0.173784
0.170497
0.167439
0.164614
0.162027
0.15969
0.157618
0.155854
0.154447
0.153365
0.152738
0.152675
0.157001
0.166973
0.178787
0.192714
0.20912
0.228486
0.251434
0.278769
0.311517
0.350966
0.398785
0.457085
0.527819
0.612066
0.70886
0.813513
0.916859
1.00752
1.07711
1.12402
1.15234
1.16804
1.17618
1.18021
1.18215
1.18306
1.18348
1.18367
1.18376
1.18379
1.18381
1.18382
1.18382
1.18382
1.18382
1.18382
1.18382
1.18382
1.18382
0.658526
0.658501
0.658458
0.658387
0.658268
0.65807
0.657746
0.65722
0.656373
0.655034
0.652951
0.649776
0.645053
0.638226
0.628688
0.61588
0.599439
0.579348
0.556032
0.530324
0.503303
0.476073
0.449575
0.42448
0.401178
0.379828
0.360424
0.342859
0.326972
0.312587
0.299528
0.287635
0.276763
0.266794
0.257624
0.249163
0.2413
0.233963
0.227097
0.220659
0.214609
0.208915
0.203549
0.19849
0.193717
0.189215
0.184972
0.180977
0.177222
0.173702
0.170415
0.167358
0.164535
0.161952
0.159619
0.157551
0.155793
0.154391
0.153314
0.152689
0.152625
0.157736
0.16784
0.179805
0.193912
0.210532
0.230157
0.253423
0.281151
0.314384
0.354433
0.403005
0.462225
0.533989
0.619264
0.716847
0.821706
0.924394
1.01359
1.08137
1.12667
1.15384
1.16883
1.17657
1.1804
1.18224
1.1831
1.1835
1.18368
1.18376
1.1838
1.18381
1.18382
1.18382
1.18382
1.18382
1.18382
1.18382
1.18382
1.18382
0.658526
0.658501
0.658459
0.658387
0.658269
0.658072
0.65775
0.657225
0.656382
0.655048
0.652973
0.64981
0.645104
0.6383
0.62879
0.616017
0.599612
0.579556
0.556268
0.530577
0.503561
0.476326
0.449813
0.424698
0.401372
0.379999
0.360571
0.342984
0.327077
0.312673
0.299598
0.287689
0.276804
0.266822
0.25764
0.24917
0.241297
0.233951
0.227077
0.220631
0.214574
0.208874
0.203502
0.198438
0.19366
0.189155
0.184909
0.180911
0.177156
0.173636
0.17035
0.167295
0.164476
0.161895
0.159566
0.157503
0.155751
0.154353
0.15328
0.152657
0.152591
0.158357
0.168579
0.180678
0.194939
0.211745
0.231594
0.255136
0.283202
0.316853
0.357419
0.406641
0.46665
0.5393
0.62545
0.723688
0.828685
0.930766
1.01868
1.08492
1.12886
1.15507
1.16947
1.17689
1.18055
1.18231
1.18313
1.18351
1.18369
1.18376
1.1838
1.18381
1.18382
1.18382
1.18382
1.18382
1.18382
1.18382
1.18382
1.18382
0.658526
0.658501
0.658459
0.658388
0.65827
0.658074
0.657752
0.657229
0.656389
0.65506
0.652992
0.649838
0.645146
0.63836
0.628874
0.616128
0.599752
0.579723
0.556457
0.53078
0.503767
0.476527
0.450002
0.424869
0.401525
0.380131
0.360685
0.343079
0.327156
0.312738
0.29965
0.287729
0.276833
0.26684
0.25765
0.249171
0.241291
0.233938
0.227058
0.220606
0.214543
0.208838
0.203463
0.198394
0.193614
0.189106
0.184858
0.18086
0.177105
0.173586
0.170301
0.167249
0.164432
0.161855
0.15953
0.157472
0.155726
0.154332
0.153262
0.152638
0.15257
0.158872
0.169198
0.181413
0.195807
0.21277
0.23281
0.256583
0.284935
0.31894
0.359943
0.409715
0.470392
0.543789
0.63067
0.729444
0.83453
0.936068
1.02289
1.08784
1.13066
1.15607
1.17
1.17715
1.18067
1.18237
1.18316
1.18353
1.18369
1.18376
1.1838
1.18381
1.18382
1.18382
1.18382
1.18382
1.18382
1.18382
1.18382
1.18382
0.658526
0.658501
0.658459
0.658388
0.65827
0.658075
0.657754
0.657233
0.656395
0.655069
0.653006
0.649861
0.645179
0.638408
0.62894
0.616216
0.599863
0.579855
0.556606
0.530939
0.503929
0.476683
0.450148
0.425002
0.401642
0.380233
0.360771
0.343152
0.327216
0.312786
0.299687
0.287757
0.276853
0.266853
0.257656
0.249171
0.241285
0.233926
0.227041
0.220585
0.214519
0.20881
0.203432
0.198361
0.193579
0.18907
0.184821
0.180824
0.177069
0.173551
0.170268
0.167218
0.164404
0.161832
0.159511
0.157458
0.155716
0.154327
0.153258
0.152633
0.15256
0.159292
0.169708
0.18202
0.196526
0.21362
0.233816
0.257781
0.286368
0.320663
0.362027
0.412252
0.473479
0.547489
0.634966
0.734168
0.839309
0.940383
1.0263
1.09019
1.1321
1.15688
1.17042
1.17735
1.18077
1.18241
1.18318
1.18354
1.1837
1.18377
1.1838
1.18381
1.18382
1.18382
1.18382
1.18382
1.18382
1.18382
1.18382
1.18382
0.658526
0.658501
0.658459
0.658389
0.658271
0.658076
0.657756
0.657235
0.6564
0.655076
0.653017
0.649878
0.645205
0.638445
0.628991
0.616283
0.599948
0.579956
0.55672
0.53106
0.504051
0.476802
0.450259
0.425101
0.40173
0.380309
0.360836
0.343205
0.32726
0.312821
0.299715
0.287777
0.276867
0.266862
0.25766
0.24917
0.241281
0.233918
0.22703
0.220571
0.214502
0.208791
0.203411
0.198339
0.193555
0.189046
0.184797
0.1808
0.177046
0.17353
0.170249
0.167203
0.164392
0.161824
0.159507
0.157458
0.15572
0.154333
0.153265
0.152636
0.152556
0.159623
0.170114
0.182507
0.197104
0.214302
0.234623
0.258739
0.287512
0.322038
0.363686
0.414271
0.475934
0.550426
0.638371
0.737902
0.843072
0.943767
1.02896
1.09202
1.13322
1.1575
1.17074
1.17752
1.18085
1.18245
1.1832
1.18354
1.1837
1.18377
1.1838
1.18381
1.18382
1.18382
1.18382
1.18382
1.18382
1.18382
1.18382
1.18382
0.658526
0.658501
0.658459
0.658389
0.658271
0.658077
0.657757
0.657237
0.656403
0.655082
0.653026
0.64989
0.645223
0.638471
0.629029
0.616332
0.600009
0.580029
0.556802
0.531147
0.504139
0.476887
0.450338
0.425173
0.401793
0.380363
0.360881
0.343243
0.327291
0.312846
0.299734
0.287792
0.276877
0.266868
0.257663
0.249171
0.241279
0.233914
0.227024
0.220563
0.214492
0.20878
0.203399
0.198326
0.193542
0.189033
0.184785
0.180788
0.177036
0.173522
0.170244
0.1672
0.164393
0.161828
0.159515
0.157468
0.155733
0.154347
0.153277
0.152643
0.152555
0.159868
0.170422
0.182879
0.197545
0.214823
0.235238
0.259466
0.288378
0.323075
0.364936
0.415788
0.477773
0.552623
0.64091
0.740677
0.845858
0.946262
1.03092
1.09336
1.13404
1.15796
1.17098
1.17763
1.18091
1.18248
1.18321
1.18355
1.1837
1.18377
1.1838
1.18381
1.18382
1.18382
1.18382
1.18382
1.18382
1.18382
1.18382
1.18382
0.658526
0.658501
0.658459
0.658389
0.658272
0.658077
0.657758
0.657239
0.656405
0.655085
0.653031
0.649898
0.645235
0.638489
0.629053
0.616364
0.600049
0.580077
0.556855
0.531203
0.504196
0.476942
0.450389
0.425219
0.401833
0.380397
0.36091
0.343268
0.327311
0.312862
0.299746
0.287801
0.276884
0.266873
0.257666
0.249173
0.241279
0.233913
0.227022
0.22056
0.214489
0.208776
0.203394
0.198321
0.193537
0.189028
0.184781
0.180786
0.177035
0.173524
0.170248
0.167207
0.164403
0.161841
0.15953
0.157486
0.155749
0.15436
0.153279
0.152624
0.152496
0.160027
0.170631
0.183136
0.197852
0.215184
0.235662
0.259966
0.288969
0.323778
0.36578
0.416808
0.479005
0.554089
0.642597
0.742513
0.847691
0.947893
1.03219
1.09424
1.13458
1.15826
1.17114
1.17771
1.18095
1.18249
1.18322
1.18355
1.1837
1.18377
1.1838
1.18381
1.18382
1.18382
1.18382
1.18382
1.18382
1.18382
1.18382
1.18382
0.658526
0.658501
0.658459
0.658389
0.658272
0.658077
0.657758
0.657239
0.656406
0.655087
0.653033
0.649902
0.645241
0.638497
0.629064
0.616379
0.600068
0.580099
0.55688
0.53123
0.504223
0.476968
0.450413
0.42524
0.401852
0.380414
0.360924
0.343279
0.32732
0.31287
0.299752
0.287806
0.276888
0.266876
0.257668
0.249174
0.241281
0.233914
0.227023
0.22056
0.214489
0.208776
0.203394
0.198321
0.193538
0.189029
0.184783
0.180789
0.177039
0.173529
0.170255
0.167216
0.164414
0.161855
0.159547
0.157504
0.155769
0.154379
0.153296
0.152635
0.152496
0.160108
0.170743
0.183276
0.198017
0.215377
0.235885
0.260226
0.289273
0.324137
0.366205
0.417317
0.479614
0.554807
0.643417
0.743398
0.848567
0.948665
1.03279
1.09464
1.13482
1.1584
1.17121
1.17775
1.18096
1.1825
1.18322
1.18355
1.1837
1.18377
1.1838
1.18381
1.18382
1.18382
1.18382
1.18382
1.18382
1.18382
1.18382
1.18382
0.658526
0.658501
0.658459
0.658389
0.658272
0.658077
0.657758
0.657239
0.656406
0.655087
0.653033
0.649902
0.645241
0.638497
0.629064
0.616379
0.600068
0.580099
0.55688
0.53123
0.504223
0.476968
0.450413
0.42524
0.401852
0.380414
0.360924
0.343279
0.32732
0.31287
0.299752
0.287806
0.276888
0.266876
0.257668
0.249174
0.241281
0.233914
0.227023
0.22056
0.214489
0.208776
0.203394
0.198321
0.193538
0.189029
0.184783
0.180789
0.177039
0.173529
0.170255
0.167216
0.164414
0.161855
0.159547
0.157504
0.155769
0.154379
0.153296
0.152635
0.152496
0.160108
0.170743
0.183276
0.198017
0.215377
0.235885
0.260226
0.289273
0.324137
0.366205
0.417317
0.479614
0.554807
0.643417
0.743398
0.848566
0.948664
1.03279
1.09464
1.13482
1.1584
1.17121
1.17775
1.18096
1.1825
1.18322
1.18355
1.1837
1.18377
1.1838
1.18381
1.18382
1.18382
1.18382
1.18382
1.18382
1.18382
1.18382
1.18382
0.658526
0.658501
0.658459
0.658389
0.658272
0.658077
0.657758
0.657239
0.656405
0.655085
0.653031
0.649898
0.645235
0.638489
0.629052
0.616364
0.600049
0.580076
0.556855
0.531203
0.504196
0.476942
0.450388
0.425218
0.401832
0.380397
0.36091
0.343267
0.32731
0.312862
0.299746
0.287801
0.276884
0.266873
0.257666
0.249173
0.241279
0.233913
0.227022
0.22056
0.214489
0.208776
0.203394
0.198321
0.193537
0.189028
0.184781
0.180786
0.177035
0.173523
0.170248
0.167207
0.164403
0.161841
0.15953
0.157485
0.155749
0.154359
0.153279
0.152624
0.152496
0.160027
0.170631
0.183136
0.197852
0.215184
0.235661
0.259965
0.288969
0.323778
0.365779
0.416807
0.479004
0.554088
0.642596
0.742512
0.84769
0.947892
1.03219
1.09424
1.13457
1.15826
1.17114
1.17771
1.18095
1.18249
1.18322
1.18355
1.1837
1.18377
1.1838
1.18381
1.18382
1.18382
1.18382
1.18382
1.18382
1.18382
1.18382
1.18382
0.658526
0.658501
0.658459
0.658389
0.658271
0.658077
0.657757
0.657237
0.656403
0.655081
0.653025
0.64989
0.645223
0.638471
0.629028
0.616332
0.600009
0.580029
0.556801
0.531146
0.504139
0.476886
0.450337
0.425172
0.401792
0.380362
0.360881
0.343243
0.32729
0.312846
0.299734
0.287792
0.276877
0.266868
0.257663
0.249171
0.241279
0.233914
0.227024
0.220563
0.214492
0.20878
0.203399
0.198326
0.193542
0.189033
0.184784
0.180788
0.177036
0.173522
0.170243
0.1672
0.164393
0.161828
0.159515
0.157468
0.155733
0.154347
0.153277
0.152643
0.152555
0.159868
0.170422
0.182879
0.197545
0.214823
0.235237
0.259466
0.288377
0.323074
0.364935
0.415787
0.477771
0.552621
0.640908
0.740675
0.845856
0.94626
1.03092
1.09336
1.13404
1.15796
1.17098
1.17763
1.18091
1.18248
1.18321
1.18355
1.1837
1.18377
1.1838
1.18381
1.18382
1.18382
1.18382
1.18382
1.18382
1.18382
1.18382
1.18382
0.658526
0.658501
0.658459
0.658389
0.658271
0.658076
0.657756
0.657235
0.656399
0.655076
0.653017
0.649878
0.645204
0.638444
0.628991
0.616283
0.599947
0.579956
0.556719
0.531059
0.50405
0.476801
0.450258
0.425101
0.401729
0.380308
0.360835
0.343205
0.327259
0.312821
0.299714
0.287777
0.276867
0.266861
0.257659
0.24917
0.24128
0.233918
0.22703
0.220571
0.214502
0.208791
0.203411
0.198338
0.193555
0.189046
0.184797
0.1808
0.177046
0.17353
0.170249
0.167202
0.164392
0.161823
0.159507
0.157457
0.15572
0.154333
0.153265
0.152636
0.152556
0.159622
0.170114
0.182507
0.197103
0.214301
0.234622
0.258738
0.287511
0.322036
0.363685
0.41427
0.475932
0.550424
0.638368
0.737899
0.843069
0.943764
1.02896
1.09202
1.13322
1.1575
1.17074
1.17752
1.18085
1.18245
1.1832
1.18354
1.1837
1.18377
1.1838
1.18381
1.18382
1.18382
1.18382
1.18382
1.18382
1.18382
1.18382
1.18382
0.658526
0.658501
0.658459
0.658388
0.65827
0.658075
0.657754
0.657233
0.656395
0.655069
0.653006
0.64986
0.645179
0.638407
0.62894
0.616215
0.599862
0.579854
0.556605
0.530938
0.503928
0.476682
0.450147
0.425001
0.401641
0.380232
0.360771
0.343151
0.327215
0.312786
0.299687
0.287756
0.276852
0.266852
0.257655
0.24917
0.241284
0.233926
0.227041
0.220585
0.214519
0.20881
0.203432
0.198361
0.193578
0.189069
0.184821
0.180823
0.177068
0.173551
0.170268
0.167218
0.164404
0.161832
0.159511
0.157457
0.155716
0.154327
0.153258
0.152632
0.15256
0.159292
0.169708
0.18202
0.196526
0.213619
0.233815
0.25778
0.286366
0.320662
0.362025
0.41225
0.473477
0.547486
0.634963
0.734164
0.839305
0.940379
1.0263
1.09019
1.1321
1.15688
1.17042
1.17735
1.18077
1.18241
1.18318
1.18354
1.1837
1.18377
1.1838
1.18381
1.18382
1.18382
1.18382
1.18382
1.18382
1.18382
1.18382
1.18382
0.658526
0.658501
0.658459
0.658388
0.65827
0.658074
0.657752
0.657229
0.656389
0.65506
0.652992
0.649838
0.645145
0.63836
0.628874
0.616127
0.599751
0.579722
0.556456
0.530778
0.503766
0.476525
0.450001
0.424868
0.401524
0.38013
0.360684
0.343079
0.327156
0.312737
0.299649
0.287728
0.276832
0.26684
0.257649
0.249171
0.241291
0.233937
0.227057
0.220605
0.214543
0.208838
0.203462
0.198394
0.193613
0.189106
0.184858
0.18086
0.177104
0.173586
0.170301
0.167249
0.164431
0.161855
0.15953
0.157471
0.155725
0.154332
0.153262
0.152638
0.15257
0.158872
0.169197
0.181412
0.195807
0.21277
0.232809
0.256582
0.284934
0.318938
0.359941
0.409713
0.470389
0.543785
0.630666
0.729439
0.834525
0.936064
1.02289
1.08784
1.13066
1.15607
1.17
1.17715
1.18067
1.18237
1.18316
1.18353
1.18369
1.18376
1.1838
1.18381
1.18382
1.18382
1.18382
1.18382
1.18382
1.18382
1.18382
1.18382
0.658526
0.658501
0.658459
0.658387
0.658269
0.658072
0.65775
0.657225
0.656382
0.655048
0.652973
0.64981
0.645104
0.638299
0.62879
0.616016
0.599611
0.579555
0.556267
0.530576
0.50356
0.476324
0.449812
0.424696
0.401371
0.379997
0.36057
0.342983
0.327076
0.312673
0.299597
0.287688
0.276804
0.266821
0.25764
0.249169
0.241297
0.23395
0.227076
0.22063
0.214573
0.208873
0.203502
0.198437
0.19366
0.189154
0.184908
0.180911
0.177155
0.173636
0.170349
0.167295
0.164475
0.161895
0.159565
0.157502
0.15575
0.154353
0.15328
0.152656
0.152591
0.158357
0.168578
0.180677
0.194938
0.211744
0.231593
0.255134
0.2832
0.316851
0.357416
0.406638
0.466646
0.539296
0.625445
0.723683
0.82868
0.930761
1.01868
1.08492
1.12886
1.15507
1.16947
1.17689
1.18055
1.18231
1.18313
1.18351
1.18369
1.18376
1.1838
1.18381
1.18382
1.18382
1.18382
1.18382
1.18382
1.18382
1.18382
1.18382
0.658526
0.658501
0.658458
0.658387
0.658268
0.65807
0.657746
0.65722
0.656373
0.655034
0.652951
0.649776
0.645053
0.638225
0.628687
0.615879
0.599437
0.579347
0.556031
0.530322
0.503301
0.476072
0.449574
0.424478
0.401176
0.379827
0.360423
0.342857
0.326971
0.312586
0.299527
0.287634
0.276763
0.266793
0.257623
0.249163
0.2413
0.233962
0.227097
0.220658
0.214608
0.208914
0.203549
0.198489
0.193716
0.189214
0.184971
0.180976
0.177221
0.173702
0.170414
0.167358
0.164535
0.161952
0.159618
0.157551
0.155793
0.15439
0.153314
0.152689
0.152625
0.157736
0.167839
0.179804
0.19391
0.21053
0.230155
0.253422
0.281149
0.314382
0.35443
0.403002
0.462221
0.533984
0.619258
0.716841
0.8217
0.924389
1.01359
1.08137
1.12667
1.15384
1.16883
1.17657
1.1804
1.18224
1.1831
1.1835
1.18368
1.18376
1.1838
1.18381
1.18382
1.18382
1.18382
1.18382
1.18382
1.18382
1.18382
1.18382
0.658526
0.658501
0.658458
0.658386
0.658266
0.658068
0.657743
0.657213
0.656363
0.655018
0.652925
0.649735
0.644991
0.638136
0.628562
0.615713
0.599226
0.579093
0.555742
0.530011
0.502982
0.475758
0.449276
0.424205
0.400931
0.37961
0.360234
0.342695
0.326833
0.312471
0.299433
0.287558
0.276704
0.26675
0.257594
0.249147
0.241296
0.233969
0.227115
0.220686
0.214645
0.208959
0.203601
0.198549
0.193782
0.189285
0.185046
0.181054
0.177302
0.173784
0.170496
0.167439
0.164613
0.162027
0.159689
0.157618
0.155854
0.154446
0.153365
0.152737
0.152674
0.157
0.166972
0.178786
0.192713
0.209119
0.228485
0.251433
0.278768
0.311515
0.350963
0.398782
0.457081
0.527814
0.612059
0.708853
0.813506
0.916852
1.00751
1.0771
1.12402
1.15234
1.16804
1.17618
1.18021
1.18215
1.18306
1.18348
1.18367
1.18376
1.18379
1.18381
1.18382
1.18382
1.18382
1.18382
1.18382
1.18382
1.18382
1.18382
0.658526
0.658501
0.658458
0.658385
0.658265
0.658066
0.657738
0.657206
0.656351
0.654998
0.652894
0.649687
0.644919
0.63803
0.628414
0.615514
0.598973
0.578787
0.555393
0.529633
0.502592
0.475373
0.44891
0.423865
0.400623
0.379336
0.359994
0.342487
0.326655
0.31232
0.299306
0.287454
0.276621
0.266685
0.257547
0.249117
0.241281
0.233968
0.227126
0.22071
0.21468
0.209005
0.203657
0.198613
0.193854
0.189364
0.185131
0.181144
0.177396
0.17388
0.170593
0.167536
0.164709
0.16212
0.159778
0.157702
0.155932
0.15452
0.153434
0.152804
0.152741
0.156149
0.165977
0.177621
0.191345
0.207505
0.226571
0.249154
0.276039
0.308232
0.346997
0.393959
0.45121
0.520759
0.603811
0.699663
0.804017
0.908051
1.00036
1.07203
1.12084
1.15054
1.1671
1.17571
1.17999
1.18205
1.18301
1.18346
1.18366
1.18375
1.18379
1.18381
1.18382
1.18382
1.18382
1.18382
1.18382
1.18382
1.18382
1.18382
0.658526
0.6585
0.658457
0.658384
0.658263
0.658063
0.657733
0.657197
0.656337
0.654975
0.652857
0.649631
0.644834
0.637906
0.628239
0.615279
0.598672
0.578422
0.554974
0.529177
0.50212
0.474905
0.448461
0.423447
0.400242
0.378994
0.359691
0.342222
0.326425
0.312122
0.299138
0.287313
0.276505
0.266593
0.257476
0.249065
0.241247
0.233952
0.227125
0.220724
0.214709
0.209047
0.203711
0.198678
0.193929
0.189449
0.185224
0.181244
0.1775
0.173989
0.170705
0.167648
0.164821
0.16223
0.159884
0.157803
0.156027
0.154609
0.15352
0.152889
0.152831
0.155203
0.164874
0.176327
0.189821
0.205702
0.224428
0.246595
0.272969
0.304533
0.342524
0.388525
0.444596
0.512801
0.594482
0.689221
0.79316
0.897886
0.991999
1.06605
1.11707
1.1484
1.16597
1.17515
1.17972
1.18192
1.18296
1.18344
1.18365
1.18375
1.18379
1.18381
1.18382
1.18382
1.18382
1.18382
1.18382
1.18382
1.18382
1.18382
0.658526
0.6585
0.658457
0.658383
0.658261
0.658059
0.657728
0.657188
0.656321
0.654949
0.652816
0.649567
0.644736
0.637763
0.628037
0.615005
0.59832
0.577993
0.554478
0.528635
0.501555
0.47434
0.447916
0.422936
0.399773
0.37857
0.359313
0.341887
0.326131
0.311867
0.298918
0.287125
0.276347
0.266462
0.257371
0.248984
0.241188
0.233913
0.227107
0.220723
0.214725
0.20908
0.203759
0.19874
0.194005
0.189536
0.185321
0.18135
0.177614
0.174107
0.170827
0.167772
0.164944
0.16235
0.16
0.157911
0.156123
0.154695
0.1536
0.152972
0.152938
0.154243
0.163721
0.174947
0.188171
0.20373
0.222068
0.243763
0.269561
0.300419
0.337545
0.382474
0.437233
0.503934
0.584059
0.677495
0.780871
0.886256
0.98232
1.05904
1.11261
1.14585
1.16462
1.17448
1.1794
1.18177
1.18289
1.1834
1.18364
1.18374
1.18379
1.18381
1.18382
1.18382
1.18382
1.18382
1.18382
1.18382
1.18382
1.18382
0.658526
0.6585
0.658456
0.658382
0.658259
0.658056
0.657721
0.657177
0.656304
0.654921
0.652771
0.649495
0.644626
0.6376
0.627805
0.61469
0.597912
0.577492
0.553897
0.527995
0.500883
0.473665
0.447261
0.422316
0.399199
0.378048
0.358843
0.341468
0.32576
0.311539
0.298632
0.286877
0.276134
0.266283
0.257223
0.248864
0.241094
0.233844
0.227062
0.2207
0.214723
0.209097
0.203795
0.198794
0.194074
0.18962
0.185419
0.181459
0.177732
0.174233
0.170957
0.167904
0.165075
0.162475
0.160114
0.158009
0.156192
0.154732
0.15359
0.152893
0.152759
0.153383
0.162601
0.173542
0.186442
0.201625
0.21952
0.240683
0.265837
0.295909
0.332076
0.375823
0.42913
0.494155
0.572531
0.664459
0.767097
0.87307
0.971205
1.0509
1.10738
1.14284
1.16303
1.17369
1.17902
1.1816
1.18281
1.18337
1.18362
1.18374
1.18378
1.18381
1.18381
1.18382
1.18382
1.18382
1.18382
1.18382
1.18382
1.18382
0.658526
0.6585
0.658455
0.658381
0.658257
0.658052
0.657715
0.657166
0.656285
0.65489
0.652721
0.649416
0.644505
0.637419
0.627545
0.614333
0.597446
0.576916
0.553223
0.527247
0.500093
0.472865
0.446478
0.421571
0.398504
0.37741
0.358263
0.340946
0.325294
0.311125
0.298266
0.286556
0.275855
0.266042
0.257019
0.248694
0.240955
0.233735
0.226981
0.220646
0.214694
0.209092
0.203813
0.198833
0.194133
0.189697
0.185511
0.181566
0.177851
0.174362
0.171093
0.168043
0.165213
0.162608
0.160236
0.158111
0.156253
0.154742
0.153521
0.152699
0.152361
0.152643
0.161552
0.172148
0.184664
0.199412
0.216802
0.23737
0.261809
0.291017
0.326133
0.368595
0.42032
0.483508
0.559938
0.650139
0.751826