/*--------------------------------*- C++ -*----------------------------------*\
  =========                 |
  \\      /  F ield         | OpenFOAM: The Open Source CFD Toolbox
   \\    /   O peration     | Website:  https://openfoam.org
    \\  /    A nd           | Version:  8
     \\/     M anipulation  |
\*---------------------------------------------------------------------------*/
FoamFile
{
    version     2.0;
    format      ascii;
    class       volScalarField;
    location    "800/fluid";
    object      T;
}
// * * * * * * * * * * * * * * * * * * * * * * * * * * * * * * * * * * * * * //

dimensions      [0 0 0 1 0 0 0];

internalField   nonuniform List<scalar> 
4000
(
293.004
293.017
293.039
293.076
293.138
293.241
293.411
293.688
294.136
294.853
295.982
297.733
300.394
304.346
310.06
318.075
328.943
343.151
361.042
382.752
408.197
437.116
469.138
503.853
540.874
579.865
620.558
662.745
706.269
751.007
796.861
843.739
891.546
940.178
989.512
1039.48
1090.11
1141.31
1192.99
1245.02
1297.32
1349.78
1402.27
1454.68
1506.89
1558.77
1610.19
1661.02
1711.1
1760.28
1808.39
1855.23
1900.58
1944.19
1985.74
2024.86
2061.07
2093.31
2120.97
2144.13
2160.64
2168.68
2156.95
2046.98
1929.97
1808.07
1683.03
1556.34
1429.29
1303.04
1178.7
1057.36
940.158
828.006
722.152
624.618
537.734
463.794
404.61
360.807
331.247
313.139
302.996
297.756
295.198
293.992
293.44
293.192
293.083
293.035
293.015
293.006
293.003
293.001
293
293
293
293
293
293
293.004
293.017
293.039
293.077
293.139
293.242
293.413
293.691
294.141
294.859
295.989
297.734
300.378
304.293
309.936
317.831
328.518
342.48
360.067
381.433
406.522
435.099
466.812
501.268
538.084
576.924
617.517
659.648
703.155
747.911
793.813
840.765
888.673
937.429
986.908
1037.03
1087.84
1139.22
1191.09
1243.34
1295.85
1348.52
1401.24
1453.88
1506.31
1558.42
1610.07
1661.12
1711.42
1760.81
1809.11
1856.13
1901.66
1945.43
1987.13
2026.39
2062.71
2095.03
2122.76
2145.96
2162.48
2170.42
2148.07
2037.02
1919.04
1796.23
1670.33
1542.82
1414.99
1288.02
1163.06
1041.25
923.761
811.538
706.026
609.425
524.152
452.485
396.025
354.993
327.78
311.321
302.151
297.391
295.049
293.935
293.418
293.184
293.08
293.034
293.015
293.006
293.003
293.001
293
293
293
293
293
293
293.004
293.017
293.039
293.077
293.139
293.243
293.414
293.693
294.144
294.864
295.993
297.734
300.366
304.252
309.841
317.647
328.197
341.969
359.31
380.382
405.144
433.38
464.759
498.9
535.435
574.034
614.427
656.402
699.794
744.476
790.344
837.301
885.252
934.088
983.686
1033.96
1084.93
1136.52
1188.61
1241.11
1293.9
1346.87
1399.89
1452.85
1505.61
1558.06
1610.05
1661.43
1712.06
1761.77
1810.39
1857.71
1903.52
1947.55
1989.49
2028.95
2065.46
2097.87
2125.66
2148.85
2165.22
2172.96
2132.22
2020.15
1901.09
1777.21
1650.33
1521.94
1393.4
1265.94
1140.73
1019
901.947
790.574
686.527
592.091
509.623
441.188
388.014
349.877
324.846
309.795
301.419
297.057
294.903
293.873
293.393
293.174
293.076
293.033
293.014
293.006
293.002
293.001
293
293
293
293
293
293
293.004
293.017
293.039
293.077
293.139
293.243
293.413
293.692
294.14
294.855
295.975
297.699
300.303
304.143
309.663
317.366
327.777
341.367
358.489
379.311
403.804
431.767
462.878
496.768
533.072
571.466
611.682
653.508
696.782
741.377
787.19
834.127
882.093
930.981
980.67
1031.06
1082.18
1133.96
1186.27
1239.02
1292.09
1345.36
1398.71
1452.01
1505.14
1557.96
1610.32
1662.08
1713.08
1763.16
1812.13
1859.79
1905.92
1950.23
1992.42
2032.1
2068.76
2101.19
2128.9
2151.99
2168.2
2175.57
2112.51
1999.6
1879.6
1754.8
1627.07
1498.02
1369.03
1241.4
1116.35
995.163
879.016
768.967
666.814
574.854
495.339
430.125
380.123
344.75
321.82
308.161
300.6
296.67
294.726
293.794
293.359
293.159
293.07
293.03
293.013
293.005
293.002
293.001
293
293
293
293
293
293
293.004
293.017
293.039
293.076
293.139
293.242
293.411
293.688
294.134
294.843
295.954
297.663
300.241
304.042
309.501
317.117
327.408
340.845
357.781
378.393
402.661
430.393
461.279
494.958
531.07
569.292
609.359
651.06
694.233
738.752
784.517
831.435
879.413
928.347
978.114
1028.61
1079.87
1131.82
1184.34
1237.32
1290.65
1344.21
1397.88
1451.52
1505.01
1558.19
1610.92
1663.06
1714.43
1764.87
1814.19
1862.17
1908.59
1953.16
1995.57
2035.4
2072.11
2104.39
2132.03
2154.96
2170.78
2177.28
2091.82
1978.32
1857.48
1731.82
1603.35
1473.77
1344.52
1216.93
1092.29
971.891
856.849
748.317
648.223
558.821
482.247
420.144
373.118
340.268
319.206
306.757
299.897
296.335
294.572
293.725
293.328
293.146
293.064
293.028
293.012
293.005
293.002
293.001
293
293
293
293
293
293
293.004
293.017
293.039
293.076
293.138
293.24
293.408
293.683
294.125
294.828
295.928
297.62
300.171
303.931
309.331
316.865
327.048
340.352
357.131
377.569
401.653
429.202
459.911
493.426
529.388
567.478
607.431
649.038
692.136
736.603
782.336
829.248
877.245
926.227
976.072
1026.67
1078.07
1130.17
1182.88
1236.09
1289.67
1343.5
1397.47
1451.42
1505.23
1558.75
1611.83
1664.31
1716.03
1766.8
1816.42
1864.68
1911.33
1956.09
1998.61
2038.48
2075.19
2107.31
2134.82
2157.47
2172.9
2178.81
2074.67
1959.62
1837.3
1710.41
1581.02
1450.86
1321.38
1193.93
1069.79
950.244
836.354
729.368
631.286
544.318
470.483
411.224
366.877
336.27
316.858
305.481
299.246
296.02
294.425
293.658
293.298
293.133
293.058
293.025
293.011
293.005
293.002
293.001
293
293
293
293
293
293
293.004
293.017
293.039
293.075
293.137
293.238
293.405
293.677
294.116
294.812
295.902
297.578
300.104
303.827
309.175
316.637
326.727
339.916
356.563
376.854
400.788
428.187
458.755
492.139
527.986
565.977
605.846
647.386
690.435
734.87
780.591
827.51
875.537
924.573
974.499
1025.2
1076.72
1128.98
1181.87
1235.27
1289.08
1343.17
1397.4
1451.64
1505.75
1559.58
1612.97
1665.76
1717.77
1768.82
1818.7
1867.18
1913.99
1958.85
2001.37
2041.14
2077.62
2109.1
2136.75
2158.5
2172.9
2177.69
2065.65
1945.75
1820.35
1691.46
1560.83
1429.97
1300.25
1172.94
1049.3
930.598
817.813
712.306
616.124
531.416
460.091
403.409
361.457
332.826
314.848
304.392
298.692
295.751
294.298
293.6
293.272
293.122
293.053
293.023
293.01
293.004
293.002
293.001
293
293
293
293
293
293
293.004
293.017
293.038
293.075
293.136
293.236
293.402
293.672
294.106
294.797
295.877
297.538
300.041
303.731
309.031
316.431
326.44
339.531
356.066
376.237
400.048
427.327
457.783
491.067
526.827
564.745
604.557
646.052
689.072
733.493
779.216
826.156
874.223
923.318
973.326
1024.13
1075.77
1128.18
1181.23
1234.83
1288.85
1343.15
1397.62
1452.11
1506.48
1560.58
1614.25
1667.31
1719.58
1770.86
1820.95
1869.6
1916.54
1961.45
2003.95
2043.56
2079.51
2110.33
2136.93
2156.89
2168.36
2168.28
2053.33
1931.05
1803.85
1673.68
1542.21
1410.91
1281.09
1154.01
1030.91
913.014
801.28
697.153
602.714
520.062
451
396.614
356.772
329.862
313.121
303.455
298.212
295.517
294.188
293.549
293.249
293.111
293.049
293.021
293.009
293.004
293.002
293.001
293
293
293
293
293
293
293.004
293.017
293.038
293.074
293.135
293.235
293.399
293.667
294.098
294.782
295.854
297.501
299.984
303.645
308.904
316.249
326.189
339.198
355.639
375.711
399.421
426.604
456.973
490.18
525.876
563.742
603.514
644.983
687.99
732.41
778.148
825.116
873.229
922.388
972.476
1023.38
1075.13
1127.67
1180.88
1234.65
1288.85
1343.35
1398.04
1452.76
1507.36
1561.69
1615.59
1668.88
1721.37
1772.86
1823.12
1871.91
1918.95
1963.89
2006.34
2045.8
2081.38
2111.79
2137.75
2156.74
2166.76
2157.13
2040.16
1916.36
1788.02
1657.06
1525.1
1393.59
1263.82
1137.04
1014.49
897.37
786.608
683.76
590.917
510.127
443.097
390.749
352.757
327.339
311.658
302.663
297.807
295.319
294.094
293.506
293.23
293.103
293.045
293.02
293.008
293.004
293.002
293.001
293
293
293
293
293
293
293.004
293.017
293.038
293.074
293.134
293.233
293.396
293.662
294.09
294.77
295.833
297.468
299.934
303.568
308.793
316.091
325.973
338.912
355.276
375.266
398.895
426.002
456.303
489.452
525.1
562.931
602.678
644.134
687.138
731.569
777.328
824.332
872.493
921.715
971.883
1022.88
1074.75
1127.41
1180.75
1234.67
1289.03
1343.71
1398.59
1453.5
1508.3
1562.84
1616.94
1670.42
1723.09
1774.75
1825.16
1874.08
1921.2
1966.2
2008.66
2048.09
2083.54
2113.84
2139.72
2158.77
2169.13
2144.6
2026.68
1902.1
1773.16
1641.8
1509.63
1378.09
1248.48
1122.05
1000.05
883.637
773.775
672.083
580.665
501.524
436.279
385.718
349.335
325.199
310.421
301.994
297.465
295.152
294.015
293.469
293.213
293.095
293.042
293.018
293.008
293.003
293.001
293.001
293
293
293
293
293
293
293.004
293.016
293.038
293.073
293.133
293.232
293.394
293.658
294.083
294.758
295.815
297.44
299.89
303.503
308.697
315.956
325.789
338.67
354.97
374.894
398.458
425.504
455.752
488.858
524.472
562.279
602.013
643.465
686.475
730.921
776.707
823.748
871.958
921.241
971.482
1022.57
1074.53
1127.3
1180.77
1234.82
1289.33
1344.17
1399.2
1454.28
1509.26
1563.96
1618.23
1671.88
1724.7
1776.5
1827.03
1876.05
1923.25
1968.3
2010.79
2050.21
2085.6
2115.84
2141.71
2160.74
2171.14
2132.34
2013.89
1888.86
1759.6
1628.03
1495.78
1364.31
1234.91
1108.85
987.382
871.632
762.586
661.934
571.784
494.104
430.432
381.427
346.432
323.393
309.381
301.434
297.178
295.012
293.948
293.438
293.199
293.089
293.039
293.017
293.007
293.003
293.001
293.001
293
293
293
293
293
293
293.004
293.016
293.037
293.073
293.132
293.23
293.392
293.654
294.077
294.748
295.799
297.415
299.852
303.446
308.615
315.841
325.633
338.468
354.715
374.585
398.097
425.096
455.303
488.377
523.968
561.76
601.487
642.941
685.962
730.427
776.241
823.32
871.578
920.919
971.229
1022.39
1074.44
1127.31
1180.89
1235.05
1289.69
1344.66
1399.83
1455.05
1510.17
1565.02
1619.43
1673.2
1726.15
1778.06
1828.69
1877.78
1925.04
1970.12
2012.61
2052
2087.35
2117.55
2143.36
2162.36
2172.75
2121.42
2002.49
1877.11
1747.61
1615.91
1483.65
1352.29
1223.12
1097.43
976.444
861.269
752.928
653.19
564.155
487.752
425.448
377.79
343.985
321.878
308.512
300.966
296.939
294.895
293.892
293.412
293.187
293.084
293.037
293.016
293.007
293.003
293.001
293.001
293
293
293
293
293
293
293.004
293.016
293.037
293.073
293.132
293.229
293.39
293.651
294.072
294.74
295.786
297.394
299.82
303.399
308.547
315.746
325.504
338.3
354.505
374.332
397.802
424.764
454.941
487.99
523.565
561.349
601.075
642.535
685.569
730.055
775.897
823.011
871.313
920.707
971.077
1022.31
1074.44
1127.39
1181.06
1235.33
1290.07
1345.15
1400.44
1455.78
1511.01
1565.98
1620.5
1674.38
1727.42
1779.41
1830.11
1879.25
1926.54
1971.63
2014.1
2053.49
2088.78
2118.92
2144.67
2163.62
2174.01
2112.08
1992.65
1866.94
1737.24
1605.46
1473.23
1341.98
1213.03
1087.64
967.073
852.395
744.669
645.729
557.66
482.362
421.236
374.73
341.936
320.615
307.789
300.577
296.74
294.798
293.846
293.391
293.177
293.079
293.035
293.015
293.007
293.003
293.001
293
293
293
293
293
293
293
293.004
293.016
293.037
293.072
293.131
293.228
293.388
293.648
294.067
294.733
295.775
297.377
299.794
303.36
308.49
315.667
325.398
338.162
354.334
374.126
397.563
424.497
454.65
487.683
523.248
561.027
600.755
642.223
685.271
729.776
775.645
822.792
871.133
920.573
970.997
1022.29
1074.48
1127.51
1181.25
1235.61
1290.44
1345.61
1400.99
1456.43
1511.76
1566.81
1621.42
1675.38
1728.49
1780.54
1831.28
1880.45
1927.74
1972.83
2015.3
2054.65
2089.87
2119.95
2145.65
2164.58
2174.96
2104.25
1984.34
1858.32
1728.44
1596.59
1464.38
1333.23
1204.46
1079.34
959.144
844.895
737.702
639.441
552.197
477.839
417.713
372.18
340.237
319.571
307.193
300.258
296.577
294.718
293.808
293.373
293.169
293.076
293.033
293.015
293.006
293.003
293.001
293
293
293
293
293
293
293
293.004
293.016
293.037
293.072
293.131
293.228
293.387
293.646
294.064
294.727
295.766
297.363
299.773
303.328
308.445
315.603
325.313
338.052
354.196
373.961
397.373
424.285
454.421
487.442
523
560.777
600.509
641.985
685.046
729.57
775.462
822.637
871.012
920.491
970.959
1022.3
1074.55
1127.63
1181.45
1235.87
1290.77
1346.02
1401.47
1456.98
1512.38
1567.51
1622.18
1676.2
1729.36
1781.44
1832.2
1881.38
1928.69
1973.76
2016.2
2055.5
2090.65
2120.67
2146.34
2165.26
2175.64
2097.81
1977.44
1851.13
1721.08
1589.16
1456.97
1325.91
1197.31
1072.43
952.54
838.654
731.909
634.221
547.669
474.099
414.808
370.085
338.844
318.719
306.709
299.998
296.445
294.653
293.777
293.359
293.163
293.073
293.032
293.014
293.006
293.003
293.001
293
293
293
293
293
293
293
293.004
293.016
293.037
293.072
293.13
293.227
293.386
293.645
294.061
294.723
295.758
297.351
299.755
303.303
308.408
315.553
325.245
337.964
354.088
373.832
397.225
424.12
454.244
487.256
522.809
560.586
600.322
641.807
684.879
729.419
775.33
822.529
870.932
920.443
970.946
1022.33
1074.62
1127.75
1181.61
1236.09
1291.04
1346.35
1401.86
1457.43
1512.88
1568.06
1622.77
1676.82
1730.01
1782.11
1832.89
1882.08
1929.37
1974.41
2016.8
2056.06
2091.14
2121.1
2146.74
2165.68
2176.09
2092.59
1971.78
1845.21
1715.03
1583.06
1450.89
1319.92
1191.46
1066.79
947.156
833.571
727.199
629.981
543.997
471.072
412.462
368.397
337.726
318.036
306.321
299.791
296.339
294.602
293.753
293.347
293.158
293.07
293.031
293.014
293.006
293.002
293.001
293
293
293
293
293
293
293
293.004
293.016
293.037
293.072
293.13
293.226
293.385
293.643
294.059
294.719
295.753
297.343
299.742
303.283
308.38
315.514
325.193
337.898
354.005
373.734
397.112
423.996
454.11
487.116
522.667
560.445
600.184
641.675
684.758
729.31
775.236
822.454
870.878
920.413
970.943
1022.35
1074.68
1127.84
1181.74
1236.26
1291.25
1346.6
1402.15
1457.75
1513.25
1568.45
1623.19
1677.27
1730.48
1782.59
1833.36
1882.53
1929.79
1974.8
2017.15
2056.35
2091.37
2121.3
2146.92
2165.9
2176.39
2088.5
1967.3
1840.49
1710.19
1578.19
1446.05
1315.16
1186.83
1062.33
942.91
829.57
723.497
626.656
541.123
468.707
410.634
367.084
336.857
317.505
306.02
299.63
296.257
294.562
293.734
293.338
293.153
293.069
293.03
293.013
293.006
293.002
293.001
293
293
293
293
293
293
293
293.004
293.016
293.037
293.072
293.13
293.226
293.384
293.642
294.057
294.716
295.748
297.336
299.732
303.269
308.36
315.486
325.156
337.85
353.946
373.663
397.032
423.906
454.014
487.016
522.565
560.344
600.087
641.583
684.673
729.234
775.172
822.402
870.841
920.392
970.941
1022.37
1074.71
1127.91
1181.83
1236.37
1291.39
1346.76
1402.34
1457.97
1513.48
1568.71
1623.47
1677.55
1730.76
1782.87
1833.62
1882.77
1929.99
1974.96
2017.26
2056.42
2091.41
2121.32
2146.96
2166
2176.59
2085.47
1963.91
1836.9
1706.51
1574.49
1442.38
1311.57
1183.35
1058.99
939.739
826.589
720.746
624.191
538.998
466.964
409.29
366.122
336.221
317.117
305.799
299.512
296.197
294.532
293.719
293.332
293.15
293.067
293.03
293.013
293.006
293.002
293.001
293
293
293
293
293
293
293
293.004
293.016
293.037
293.072
293.13
293.226
293.384
293.642
294.056
294.715
295.746
297.332
299.726
303.26
308.347
315.468
325.132
337.818
353.907
373.617
396.979
423.849
453.953
486.952
522.501
560.28
600.025
641.524
684.618
729.186
775.131
822.369
870.817
920.379
970.938
1022.38
1074.74
1127.94
1181.88
1236.43
1291.47
1346.86
1402.45
1458.09
1513.62
1568.85
1623.61
1677.69
1730.89
1782.98
1833.71
1882.83
1930.02
1974.94
2017.21
2056.34
2091.34
2121.29
2147.06
2166.4
2177.54
2083.51
1961.61
1834.42
1703.96
1571.93
1439.86
1309.11
1180.98
1056.73
937.607
824.596
718.915
622.557
537.595
465.818
408.411
365.496
335.809
316.865
305.655
299.434
296.158
294.513
293.71
293.327
293.149
293.066
293.029
293.013
293.005
293.002
293.001
293
293
293
293
293
293
293
293.004
293.016
293.037
293.072
293.13
293.226
293.384
293.641
294.056
294.714
295.745
297.33
299.723
303.256
308.341
315.459
325.12
337.804
353.889
373.596
396.955
423.821
453.923
486.922
522.47
560.25
599.995
641.496
684.593
729.163
775.111
822.353
870.806
920.372
970.935
1022.38
1074.74
1127.95
1181.9
1236.45
1291.5
1346.89
1402.49
1458.13
1513.66
1568.89
1623.64
1677.72
1730.91
1782.98
1833.7
1882.79
1929.95
1974.84
2017.07
2056.17
2091.15
2121.09
2146.9
2166.32
2177.6
2082.53
1960.38
1833.08
1702.58
1570.56
1438.53
1307.84
1179.77
1055.58
936.535
823.603
718.014
621.76
536.916
465.268
407.992
365.2
335.616
316.749
305.589
299.399
296.139
294.504
293.706
293.325
293.148
293.066
293.029
293.013
293.005
293.002
293.001
293
293
293
293
293
293
293
293.004
293.016
293.037
293.072
293.13
293.226
293.384
293.641
294.056
294.714
295.745
297.33
299.723
303.256
308.341
315.459
325.12
337.804
353.889
373.596
396.955
423.822
453.924
486.922
522.47
560.25
599.995
641.497
684.593
729.163
775.111
822.354
870.806
920.372
970.936
1022.38
1074.74
1127.95
1181.9
1236.45
1291.5
1346.89
1402.49
1458.13
1513.66
1568.89
1623.65
1677.72
1730.91
1782.98
1833.7
1882.79
1929.95
1974.84
2017.07
2056.17
2091.15
2121.09
2146.9
2166.32
2177.6
2082.53
1960.38
1833.08
1702.58
1570.56
1438.53
1307.84
1179.77
1055.58
936.536
823.604
718.014
621.76
536.917
465.268
407.993
365.2
335.616
316.749
305.589
299.399
296.139
294.504
293.706
293.325
293.148
293.066
293.029
293.013
293.005
293.002
293.001
293
293
293
293
293
293
293
293.004
293.016
293.037
293.072
293.13
293.226
293.384
293.642
294.056
294.715
295.746
297.332
299.726
303.26
308.347
315.468
325.132
337.819
353.908
373.618
396.98
423.849
453.953
486.953
522.501
560.281
600.025
641.525
684.619
729.186
775.131
822.37
870.818
920.379
970.938
1022.38
1074.74
1127.94
1181.88
1236.43
1291.47
1346.86
1402.45
1458.09
1513.62
1568.85
1623.61
1677.69
1730.89
1782.98
1833.71
1882.83
1930.02
1974.94
2017.21
2056.34
2091.34
2121.29
2147.06
2166.4
2177.54
2083.51
1961.61
1834.42
1703.96
1571.93
1439.86
1309.12
1180.99
1056.73
937.609
824.597
718.917
622.558
537.596
465.819
408.412
365.496
335.809
316.866
305.655
299.434
296.158
294.513
293.71
293.327
293.149
293.066
293.029
293.013
293.005
293.002
293.001
293
293
293
293
293
293
293
293.004
293.016
293.037
293.072
293.13
293.226
293.384
293.642
294.057
294.717
295.749
297.336
299.733
303.269
308.36
315.486
325.156
337.85
353.946
373.664
397.032
423.907
454.015
487.017
522.566
560.345
600.088
641.584
684.674
729.235
775.173
822.403
870.842
920.394
970.942
1022.37
1074.72
1127.91
1181.83
1236.37
1291.39
1346.77
1402.34
1457.97
1513.49
1568.71
1623.47
1677.55
1730.76
1782.87
1833.63
1882.77
1929.99
1974.96
2017.26
2056.42
2091.41
2121.32
2146.96
2166.01
2176.59
2085.47
1963.91
1836.9
1706.51
1574.49
1442.38
1311.57
1183.35
1058.99
939.741
826.592
720.749
624.193
539
466.965
409.291
366.123
336.222
317.117
305.799
299.512
296.197
294.532
293.719
293.332
293.15
293.067
293.03
293.013
293.006
293.002
293.001
293
293
293
293
293
293
293
293.004
293.016
293.037
293.072
293.13
293.226
293.385
293.643
294.059
294.719
295.753
297.343
299.742
303.283
308.381
315.514
325.194
337.898
354.006
373.734
397.113
423.997
454.111
487.117
522.668
560.446
600.186
641.677
684.759
729.311
775.238
822.455
870.879
920.414
970.944
1022.35
1074.68
1127.85
1181.75
1236.26
1291.26
1346.6
1402.15
1457.76
1513.25
1568.45
1623.19
1677.27
1730.48
1782.59
1833.37
1882.53
1929.79
1974.8
2017.15
2056.35
2091.37
2121.3
2146.93
2165.9
2176.4
2088.5
1967.3
1840.5
1710.2
1578.2
1446.05
1315.17
1186.84
1062.33
942.913
829.573
723.5
626.658
541.125
468.709
410.635
367.085
336.858
317.506
306.02
299.63
296.257
294.562
293.734
293.338
293.153
293.069
293.03
293.013
293.006
293.002
293.001
293
293
293
293
293
293
293
293.004
293.016
293.037
293.072
293.13
293.227
293.386
293.645
294.061
294.723
295.758
297.352
299.755
303.303
308.408
315.553
325.246
337.965
354.088
373.833
397.226
424.121
454.245
487.257
522.811
560.588
600.324
641.808
684.881
729.421
775.332
822.531
870.934
920.445
970.948
1022.33
1074.62
1127.75
1181.62
1236.09
1291.05
1346.35
1401.86
1457.43
1512.89
1568.06
1622.77
1676.82
1730.01
1782.12
1832.9
1882.08
1929.37
1974.41
2016.81
2056.06
2091.14
2121.11
2146.75
2165.68
2176.09
2092.59
1971.79
1845.22
1715.03
1583.07
1450.89
1319.93
1191.47
1066.79
947.161
833.576
727.203
629.985
544
471.074
412.464
368.399
337.727
318.036
306.321
299.791
296.34
294.602
293.753
293.347
293.158
293.07
293.031
293.014
293.006
293.002
293.001
293
293
293
293
293
293
293
293.004
293.016
293.037
293.072
293.131
293.228
293.387
293.646
294.064
294.727
295.766
297.363
299.773
303.328
308.445
315.603
325.313
338.052
354.197
373.962
397.375
424.287
454.423
487.444
523.001
560.779
600.511
641.988
685.048
729.573
775.464
822.64
871.015
920.494
970.962
1022.3
1074.55
1127.64
1181.45
1235.87
1290.77
1346.02
1401.47
1456.98
1512.39
1567.51
1622.18
1676.2
1729.36
1781.44
1832.21
1881.39
1928.69
1973.77
2016.2
2055.51
2090.66
2120.68
2146.34
2165.27
2175.64
2097.82
1977.45
1851.13
1721.09
1589.17
1456.97
1325.92
1197.32
1072.44
952.545
838.659
731.914
634.225
547.672
474.102
414.811
370.087
338.846
318.719
306.709
299.998
296.445
294.654
293.777
293.359
293.163
293.073
293.032
293.014
293.006
293.003
293.001
293
293
293
293
293
293
293
293.004
293.016
293.037
293.072
293.131
293.228
293.388
293.648
294.067
294.733
295.775
297.377
299.794
303.36
308.491
315.667
325.399
338.163
354.335
374.127
397.565
424.499
454.652
487.685
523.25
561.029
600.758
642.226
685.273
729.779
775.648
822.795
871.136
920.576
971
1022.29
1074.48
1127.51
1181.26
1235.61
1290.44
1345.62
1401
1456.43
1511.76
1566.82
1621.42
1675.38
1728.5
1780.55
1831.29
1880.45
1927.75
1972.84
2015.31
2054.66
2089.88
2119.96
2145.66
2164.59
2174.97
2104.26
1984.35
1858.33
1728.45
1596.6
1464.38
1333.23
1204.47
1079.35
959.15
844.901
737.707
639.446
552.201
477.843
417.716
372.182
340.238
319.572
307.194
300.258
296.578
294.718
293.808
293.373
293.169
293.076
293.033
293.015
293.006
293.003
293.001
293
293
293
293
293
293
293
293.004
293.016
293.037
293.073
293.132
293.229
293.39
293.651
294.072
294.74
295.786
297.394
299.821
303.399
308.547
315.746
325.505
338.301
354.506
374.333
397.803
424.766
454.943
487.993
523.568
561.352
601.078
642.538
685.572
730.058
775.9
823.015
871.317
920.711
971.081
1022.31
1074.44
1127.39
1181.06
1235.33
1290.07
1345.16
1400.44
1455.78
1511.02
1565.98
1620.5
1674.38
1727.43
1779.42
1830.12
1879.26
1926.55
1971.63
2014.11
2053.5
2088.79
2118.92
2144.68
2163.63
2174.01
2112.09
1992.66
1866.95
1737.25
1605.47
1473.24
1341.99
1213.03
1087.64
967.08
852.402
744.676
645.735
557.665
482.366
421.239
374.732
341.938
320.616
307.789
300.578
296.741
294.798
293.846
293.391
293.177
293.079
293.035
293.015
293.007
293.003
293.001
293
293
293
293
293
293
293
293.004
293.016
293.037
293.073
293.132
293.23
293.392
293.654
294.077
294.748
295.799
297.415
299.852
303.447
308.616
315.842
325.634
338.469
354.717
374.587
398.099
425.098
455.306
488.379
523.971
561.763
601.491
642.945
685.966
730.431
776.245
823.324
871.582
920.923
971.233
1022.4
1074.45
1127.31
1180.89
1235.06
1289.69
1344.67
1399.84
1455.06
1510.18
1565.03
1619.43
1673.21
1726.16
1778.07
1828.69
1877.79
1925.04
1970.13
2012.61
2052.01
2087.35
2117.56
2143.37
2162.37
2172.76
2121.43
2002.49
1877.11
1747.61
1615.91
1483.66
1352.29
1223.13
1097.43
976.451
861.277
752.935
653.197
564.161
487.757
425.452
377.792
343.987
321.879
308.512
300.966
296.939
294.895
293.892
293.412
293.187
293.084
293.037
293.016
293.007
293.003
293.001
293.001
293
293
293
293
293
293
293.004
293.016
293.038
293.073
293.133
293.232
293.394
293.658
294.083
294.758
295.815
297.44
299.89
303.503
308.697
315.956
325.789
338.671
354.972
374.896
398.46
425.506
455.755
488.861
524.476
562.282
602.017
643.469
686.479
730.925
776.711
823.752
871.963
921.246
971.488
1022.57
1074.53
1127.31
1180.77
1234.82
1289.33
1344.17
1399.21
1454.29
1509.26
1563.97
1618.24
1671.88
1724.71
1776.5
1827.04
1876.05
1923.26
1968.31
2010.8
2050.22
2085.61
2115.85
2141.71
2160.75
2171.15
2132.36
2013.91
1888.88
1759.62
1628.05
1495.8
1364.33
1234.93
1108.87
987.396
871.646
762.595
661.942
571.791
494.109
430.436
381.43
346.434
323.394
309.382
301.434
297.178
295.012
293.948
293.438
293.199
293.089
293.039
293.017
293.007
293.003
293.001
293.001
293
293
293
293
293
293
293.004
293.017
293.038
293.074
293.134
293.233
293.396
293.662
294.09
294.77
295.833
297.468
299.934
303.569
308.793
316.091
325.974
338.914
355.278
375.268
398.897
426.005
456.306
489.455
525.104
562.934
602.682
644.139
687.143
731.573
777.333
824.337
872.498
921.72
971.887
1022.89
1074.75
1127.41
1180.76
1234.67
1289.04
1343.72
1398.59
1453.51
1508.31
1562.85
1616.95
1670.43
1723.1
1774.76
1825.17
1874.08
1921.21
1966.21
2008.67
2048.1
2083.55
2113.85
2139.73
2158.78
2169.14
2144.62
2026.69
1902.1
1773.16
1641.79
1509.62
1378.08
1248.47
1122.04
1000.05
883.634
773.776
672.09
580.672
501.53
436.283
385.722
349.337
325.2
310.421
301.995
297.465
295.152
294.015
293.469
293.213
293.095
293.042
293.018
293.008
293.003
293.001
293.001
293
293
293
293
293
293
293.004
293.017
293.038
293.074
293.135
293.235
293.399
293.667
294.098
294.782
295.854
297.501
299.985
303.645
308.905
316.25
326.19
339.199
355.641
375.713
399.424
426.607
456.976
490.184
525.88
563.746
603.519
644.988
687.994
732.415
778.153
825.122
873.235
922.394
972.482
1023.39
1075.14
1127.68
1180.89
1234.65
1288.85
1343.36
1398.04
1452.76
1507.37
1561.7
1615.6
1668.89
1721.38
1772.87
1823.13
1871.92
1918.96
1963.9
2006.35
2045.81
2081.39
2111.8
2137.76
2156.75
2166.78
2157.14
2040.18
1916.38
1788.04
1657.08
1525.13
1393.62
1263.85
1137.08
1014.53
897.395
786.626
683.769
590.924
510.133
443.102
390.753
352.76
327.34
311.659
302.663
297.807
295.32
294.094
293.506
293.23
293.103
293.045
293.02
293.008
293.004
293.002
293.001
293
293
293
293
293
293
293.004
293.017
293.038
293.075
293.136
293.236
293.402
293.672
294.106
294.797
295.877
297.538
300.042
303.731
309.032
316.431
326.441
339.533
356.068
376.24
400.05
427.33
457.787
491.071
526.831
564.75
604.561
646.057
689.077
733.498
779.222
826.161
874.229
923.325
973.332
1024.14
1075.78
1128.18
1181.24
1234.83
1288.85
1343.16
1397.63
1452.12
1506.49
1560.59
1614.26
1667.31
1719.58
1770.87
1820.96
1869.61
1916.55
1961.46
2003.96
2043.57
2079.52
2110.34
2136.94
2156.9
2168.37
2168.29
2053.34
1931.06
1803.85
1673.68
1542.22
1410.91
1281.09
1154.01
1030.9
913.012
801.277
697.153
602.717
520.067
451.004
396.617
356.774
329.864
313.122
303.456
298.213
295.517
294.188
293.549
293.249
293.111
293.049
293.021
293.009
293.004
293.002
293.001
293
293
293
293
293
293
293.004
293.017
293.039
293.075
293.137
293.238
293.405
293.677
294.116
294.812
295.902
297.578
300.105
303.828
309.175
316.638
326.729
339.918
356.565
376.857
400.791
428.19
458.758
492.143
527.99
565.981
605.852
647.392
690.441
734.876
780.597
827.516
875.544
924.58
974.506
1025.21
1076.73
1128.99
1181.88
1235.29
1289.09
1343.18
1397.41
1451.65
1505.76
1559.58
1612.98
1665.77
1717.78
1768.83
1818.71
1867.19
1914
1958.86
2001.38
2041.15
2077.63
2109.11
2136.76
2158.51
2172.91
2177.7
2065.66
1945.76
1820.36
1691.47
1560.84
1429.98
1300.26
1172.95
1049.31
930.611
817.832
712.325
616.137
531.424
460.097
403.413
361.459
332.828
314.849
304.393
298.692
295.751
294.298
293.6
293.272
293.122
293.053
293.023
293.01
293.004
293.002
293.001
293
293
293
293
293
293
293.004
293.017
293.039
293.076
293.138
293.24
293.408
293.683
294.125
294.828
295.928
297.62
300.171
303.931
309.331
316.866
327.05
340.354
357.133
377.571
401.657
429.205
459.916
493.43
529.393
567.483
607.437
649.044
692.143
736.609
782.343
829.255
877.252
926.234
976.08
1026.68
1078.08
1130.18
1182.89
1236.1
1289.67
1343.51
1397.48
1451.43
1505.24
1558.76
1611.84
1664.32
1716.04
1766.81
1816.43
1864.69
1911.34
1956.1
1998.62
2038.49
2075.2
2107.32
2134.83
2157.48
2172.91
2178.82
2074.67
1959.63
1837.31
1710.41
1581.03
1450.87
1321.39
1193.94
1069.79
950.25
836.359
729.372
631.291
544.324
470.488
411.228
366.88
336.272
316.859
305.481
299.247
296.02
294.425
293.658
293.298
293.133
293.058
293.025
293.011
293.005
293.002
293.001
293
293
293
293
293
293
293.004
293.017
293.039
293.076
293.139
293.242
293.411
293.688
294.134
294.843
295.954
297.663
300.242
304.042
309.502
317.118
327.409
340.847
357.784
378.396
402.664
430.397
461.284
494.963
531.075
569.298
609.365
651.066
694.239
738.76
784.524
831.443
879.421
928.355
978.123
1028.62
1079.88
1131.83
1184.35
1237.33
1290.66
1344.22
1397.89
1451.54
1505.02
1558.2
1610.93
1663.07
1714.44
1764.88
1814.2
1862.18
1908.6
1953.17
1995.58
2035.41
2072.12
2104.4
2132.04
2154.97
2170.79
2177.29
2091.83
1978.33
1857.49
1731.83
1603.36
1473.77
1344.52
1216.94
1092.3
971.897
856.855
748.323
648.229
558.826
482.252
420.148
373.121
340.27
319.207
306.758
299.897
296.335
294.572
293.725
293.328
293.146
293.064
293.028
293.012
293.005
293.002
293.001
293
293
293
293
293
293
293.004
293.017
293.039
293.077
293.139
293.243
293.413
293.692
294.14
294.855
295.975
297.699
300.303
304.144
309.664
317.367
327.778
341.369
358.491
379.314
403.808
431.771
462.883
496.773
533.078
571.473
611.689
653.515
696.789
741.385
787.198
834.135
882.101
930.99
980.679
1031.07
1082.19
1133.97
1186.28
1239.03
1292.1
1345.37
1398.71
1452.02
1505.15
1557.97
1610.33
1662.09
1713.09
1763.17
1812.14
1859.8
1905.93
1950.24
1992.43
2032.11
2068.77
2101.2
2128.91
2151.99
2168.21
2175.57
2112.51
1999.61
1879.61
1754.8
1627.08
1498.02
1369.04
1241.4
1116.36
995.169
879.022
768.973
666.82
574.859
495.344
430.129
380.126
344.752
321.822
308.161
300.601
296.67
294.726
293.794
293.359
293.159
293.07
293.03
293.013
293.005
293.002
293.001
293
293
293
293
293
293
293.004
293.017
293.039
293.077
293.139
293.243
293.414
293.693
294.145
294.864
295.993
297.734
300.366
304.252
309.842
317.648
328.199
341.971
359.313
380.386
405.148
433.385
464.764
498.906
535.441
574.041
614.434
656.409
699.802
744.484
790.352
837.31
885.261
934.098
983.696
1033.97
1084.94
1136.53
1188.62
1241.12
1293.91
1346.88
1399.9
1452.86
1505.62
1558.07
1610.06
1661.45
1712.07
1761.78
1810.4
1857.72
1903.53
1947.56
1989.5
2028.96
2065.47
2097.88
2125.66
2148.85
2165.22
2172.97
2132.22
2020.15
1901.09
1777.22
1650.33
1521.95
1393.41
1265.94
1140.74
1019
901.952
790.58
686.533
592.096
509.628
441.192
388.017
349.879
324.847
309.795
301.419
297.058
294.903
293.873
293.393
293.174
293.076
293.033
293.014
293.006
293.002
293.001
293
293
293
293
293
293
293.004
293.017
293.039
293.077
293.139
293.242
293.413
293.691
294.141
294.859
295.989
297.734
300.379
304.294
309.937
317.832
328.519
342.482
360.07
381.437
406.526
435.104
466.818
501.274
538.09
576.931
617.524
659.656