/*--------------------------------*- C++ -*----------------------------------*\
  =========                 |
  \\      /  F ield         | OpenFOAM: The Open Source CFD Toolbox
   \\    /   O peration     | Website:  https://openfoam.org
    \\  /    A nd           | Version:  8
     \\/     M anipulation  |
\*---------------------------------------------------------------------------*/
FoamFile
{
    version     2.0;
    format      ascii;
    class       volVectorField;
    location    "800/fluid";
    object      U;
}
// * * * * * * * * * * * * * * * * * * * * * * * * * * * * * * * * * * * * * //

dimensions      [0 1 -1 0 0 0 0];

internalField   nonuniform List<vector> 
4000
(
(0.0999454 -0.0070635 0)
(0.0996484 -0.0210133 0)
(0.099169 -0.0348469 0)
(0.0985069 -0.0486058 0)
(0.097654 -0.0623074 0)
(0.0965924 -0.0759523 0)
(0.0953015 -0.0895298 0)
(0.0937619 -0.10302 0)
(0.091958 -0.116395 0)
(0.0898813 -0.129628 0)
(0.0875336 -0.142689 0)
(0.0849305 -0.155561 0)
(0.0821061 -0.168233 0)
(0.0791196 -0.18069 0)
(0.0760494 -0.19298 0)
(0.0729683 -0.205172 0)
(0.0699269 -0.217326 0)
(0.0669426 -0.229485 0)
(0.0639913 -0.241659 0)
(0.0610089 -0.253823 0)
(0.0579032 -0.265911 0)
(0.0545731 -0.277834 0)
(0.0509292 -0.289483 0)
(0.0469146 -0.30073 0)
(0.0425043 -0.311479 0)
(0.037691 -0.321668 0)
(0.0324807 -0.331232 0)
(0.0268911 -0.340114 0)
(0.0209482 -0.348269 0)
(0.0146834 -0.355659 0)
(0.00813066 -0.362263 0)
(0.00132551 -0.368068 0)
(-0.0056949 -0.373071 0)
(-0.0128942 -0.377276 0)
(-0.0202395 -0.380699 0)
(-0.0277009 -0.383357 0)
(-0.0352509 -0.385276 0)
(-0.0428635 -0.386488 0)
(-0.050514 -0.387026 0)
(-0.058179 -0.386931 0)
(-0.0658365 -0.386244 0)
(-0.0734656 -0.385009 0)
(-0.0810464 -0.383272 0)
(-0.0885599 -0.38108 0)
(-0.0959873 -0.378483 0)
(-0.103311 -0.375529 0)
(-0.110512 -0.372269 0)
(-0.117574 -0.368754 0)
(-0.124478 -0.365035 0)
(-0.131206 -0.361167 0)
(-0.137739 -0.357202 0)
(-0.144057 -0.353197 0)
(-0.150139 -0.34921 0)
(-0.155963 -0.345303 0)
(-0.161504 -0.341542 0)
(-0.166734 -0.338002 0)
(-0.171612 -0.334765 0)
(-0.176086 -0.331917 0)
(-0.180132 -0.32956 0)
(-0.183786 -0.327848 0)
(-0.187114 -0.327058 0)
(-0.189492 -0.327545 0)
(-0.18882 -0.329146 0)
(-0.183936 -0.330125 0)
(-0.176903 -0.329384 0)
(-0.16944 -0.327053 0)
(-0.161745 -0.32342 0)
(-0.153754 -0.318631 0)
(-0.14549 -0.312743 0)
(-0.137023 -0.305794 0)
(-0.128431 -0.297813 0)
(-0.1198 -0.288834 0)
(-0.111217 -0.278898 0)
(-0.102776 -0.26805 0)
(-0.0946257 -0.25635 0)
(-0.0870074 -0.243909 0)
(-0.0802497 -0.230926 0)
(-0.0747213 -0.217678 0)
(-0.0707982 -0.204733 0)
(-0.0687763 -0.192598 0)
(-0.0686892 -0.181517 0)
(-0.070238 -0.171403 0)
(-0.0729084 -0.161947 0)
(-0.0761629 -0.152817 0)
(-0.079574 -0.14377 0)
(-0.0828605 -0.134662 0)
(-0.0858504 -0.125397 0)
(-0.0884765 -0.116018 0)
(-0.0907367 -0.106575 0)
(-0.0926558 -0.0971006 0)
(-0.0942674 -0.0876252 0)
(-0.0956069 -0.0781759 0)
(-0.0967082 -0.0687732 0)
(-0.0976031 -0.0594312 0)
(-0.0983201 -0.0501567 0)
(-0.0988844 -0.0409486 0)
(-0.0993179 -0.0317996 0)
(-0.0996377 -0.0226998 0)
(-0.0998558 -0.013632 0)
(-0.0999821 -0.00455922 0)
(0.0999999 -0.00662459 0)
(0.0997936 -0.0198104 0)
(0.099367 -0.0329092 0)
(0.0986962 -0.0459056 0)
(0.0977826 -0.0587802 0)
(0.0966218 -0.0715088 0)
(0.0952045 -0.0840631 0)
(0.0935227 -0.0964117 0)
(0.0915743 -0.108522 0)
(0.0893666 -0.120365 0)
(0.0869191 -0.131921 0)
(0.0842664 -0.143187 0)
(0.081459 -0.154195 0)
(0.0785639 -0.165028 0)
(0.0756541 -0.175747 0)
(0.0727961 -0.18641 0)
(0.0700362 -0.197093 0)
(0.0673862 -0.207863 0)
(0.0648153 -0.218759 0)
(0.0622504 -0.22978 0)
(0.0595877 -0.240878 0)
(0.0567118 -0.251975 0)
(0.0535168 -0.262976 0)
(0.0499207 -0.273799 0)
(0.0458756 -0.284327 0)
(0.0413633 -0.294428 0)
(0.0363865 -0.303998 0)
(0.0309651 -0.312959 0)
(0.0251305 -0.321255 0)
(0.0189209 -0.328844 0)
(0.012377 -0.335699 0)
(0.00554025 -0.341805 0)
(-0.00154867 -0.347157 0)
(-0.00885043 -0.35176 0)
(-0.0163278 -0.355626 0)
(-0.0239462 -0.358773 0)
(-0.0316743 -0.361224 0)
(-0.0394835 -0.363009 0)
(-0.047347 -0.364158 0)
(-0.0552398 -0.364707 0)
(-0.0631384 -0.364694 0)
(-0.0710211 -0.364159 0)
(-0.0788673 -0.363144 0)
(-0.0866572 -0.361693 0)
(-0.0943724 -0.359851 0)
(-0.101995 -0.357665 0)
(-0.109507 -0.355182 0)
(-0.116892 -0.352448 0)
(-0.124132 -0.349514 0)
(-0.131211 -0.346427 0)
(-0.138112 -0.343239 0)
(-0.144819 -0.34 0)
(-0.151313 -0.336763 0)
(-0.157576 -0.333581 0)
(-0.163593 -0.330508 0)
(-0.16934 -0.327602 0)
(-0.174785 -0.324918 0)
(-0.179886 -0.32251 0)
(-0.184645 -0.320428 0)
(-0.189162 -0.318728 0)
(-0.193544 -0.317458 0)
(-0.19682 -0.316607 0)
(-0.196352 -0.315673 0)
(-0.191023 -0.314067 0)
(-0.18348 -0.311576 0)
(-0.17564 -0.308095 0)
(-0.167657 -0.303579 0)
(-0.159405 -0.298003 0)
(-0.150868 -0.291351 0)
(-0.142096 -0.283616 0)
(-0.133151 -0.274798 0)
(-0.124097 -0.264911 0)
(-0.114998 -0.253996 0)
(-0.105925 -0.242133 0)
(-0.0970283 -0.229476 0)
(-0.0885866 -0.216307 0)
(-0.0809933 -0.203081 0)
(-0.0747104 -0.190429 0)
(-0.0701945 -0.178768 0)
(-0.0677368 -0.16837 0)
(-0.0673095 -0.159246 0)
(-0.0685551 -0.151123 0)
(-0.0709433 -0.143595 0)
(-0.0739574 -0.136298 0)
(-0.0772002 -0.128998 0)
(-0.0804127 -0.121587 0)
(-0.0834531 -0.11406 0)
(-0.0862359 -0.106328 0)
(-0.0887259 -0.0983688 0)
(-0.0909172 -0.0902112 0)
(-0.0928179 -0.0818953 0)
(-0.0944441 -0.073459 0)
(-0.0958162 -0.0649354 0)
(-0.0969564 -0.0563517 0)
(-0.0978866 -0.0477291 0)
(-0.0986277 -0.0390817 0)
(-0.0991974 -0.0304179 0)
(-0.0996076 -0.0217448 0)
(-0.0998662 -0.0130647 0)
(-0.0999951 -0.00436523 0)
(0.0999787 -0.00634522 0)
(0.099714 -0.0189624 0)
(0.0991955 -0.03149 0)
(0.0984044 -0.04391 0)
(0.0973446 -0.0561994 0)
(0.0960169 -0.0683333 0)
(0.094421 -0.0802866 0)
(0.0925597 -0.0920344 0)
(0.0904434 -0.103554 0)
(0.0880923 -0.114826 0)
(0.0855388 -0.125841 0)
(0.0828289 -0.136598 0)
(0.0800211 -0.147114 0)
(0.0771803 -0.157421 0)
(0.0743721 -0.167575 0)
(0.0716581 -0.177647 0)
(0.0690836 -0.187719 0)
(0.0666608 -0.197862 0)
(0.0643594 -0.208119 0)
(0.0621063 -0.218497 0)
(0.0597966 -0.228961 0)
(0.057312 -0.239439 0)
(0.0545397 -0.249839 0)
(0.0513838 -0.260056 0)
(0.0477743 -0.269992 0)
(0.0436738 -0.279554 0)
(0.0390744 -0.288661 0)
(0.0339897 -0.297242 0)
(0.0284478 -0.305242 0)
(0.022485 -0.312617 0)
(0.0161417 -0.319336 0)
(0.00945981 -0.325379 0)
(0.00248068 -0.330735 0)
(-0.00475507 -0.335402 0)
(-0.012209 -0.339389 0)
(-0.0198453 -0.342707 0)
(-0.0276311 -0.345377 0)
(-0.0355363 -0.34742 0)
(-0.043533 -0.348866 0)
(-0.0515954 -0.349745 0)
(-0.059699 -0.350091 0)
(-0.0678214 -0.349939 0)
(-0.0759413 -0.34933 0)
(-0.084039 -0.348302 0)
(-0.092096 -0.346897 0)
(-0.100095 -0.345157 0)
(-0.108018 -0.343125 0)
(-0.11585 -0.340845 0)
(-0.123576 -0.338361 0)
(-0.131181 -0.335718 0)
(-0.138651 -0.33296 0)
(-0.145975 -0.330131 0)
(-0.153139 -0.327276 0)
(-0.160132 -0.324437 0)
(-0.166942 -0.321657 0)
(-0.173556 -0.318975 0)
(-0.179942 -0.316426 0)
(-0.186062 -0.314036 0)
(-0.191933 -0.311824 0)
(-0.19767 -0.309806 0)
(-0.203255 -0.307986 0)
(-0.207145 -0.306301 0)
(-0.206388 -0.304112 0)
(-0.200443 -0.30115 0)
(-0.192397 -0.297497 0)
(-0.184 -0.293074 0)
(-0.175391 -0.287783 0)
(-0.166471 -0.281562 0)
(-0.157236 -0.274381 0)
(-0.147731 -0.266236 0)
(-0.13801 -0.257146 0)
(-0.128133 -0.247162 0)
(-0.118159 -0.236368 0)
(-0.108175 -0.224901 0)
(-0.098375 -0.212963 0)
(-0.0891002 -0.200843 0)
(-0.0808145 -0.188906 0)
(-0.0740461 -0.177558 0)
(-0.0692582 -0.167166 0)
(-0.0666712 -0.157939 0)
(-0.0661604 -0.14982 0)
(-0.0673073 -0.142526 0)
(-0.0695709 -0.135684 0)
(-0.0724524 -0.128977 0)
(-0.0755766 -0.1222 0)
(-0.0787031 -0.11525 0)
(-0.0817015 -0.108096 0)
(-0.0845056 -0.100747 0)
(-0.087078 -0.0932234 0)
(-0.0894002 -0.0855443 0)
(-0.0914675 -0.0777307 0)
(-0.0932833 -0.0698031 0)
(-0.0948556 -0.061781 0)
(-0.0961956 -0.0536823 0)
(-0.0973156 -0.0455229 0)
(-0.0982281 -0.0373148 0)
(-0.0989444 -0.0290677 0)
(-0.0994709 -0.0207921 0)
(-0.0998117 -0.0124969 0)
(-0.0999872 -0.00417655 0)
(0.0999835 -0.00599058 0)
(0.0997145 -0.0179025 0)
(0.0991787 -0.0297201 0)
(0.0983567 -0.0414191 0)
(0.097257 -0.0529715 0)
(0.0958865 -0.0643491 0)
(0.0942506 -0.075525 0)
(0.0923579 -0.0864739 0)
(0.0902232 -0.0971736 0)
(0.0878694 -0.107607 0)
(0.0853296 -0.117768 0)
(0.0826483 -0.127661 0)
(0.0798819 -0.137308 0)
(0.0770965 -0.146754 0)
(0.0743628 -0.15606 0)
(0.0717455 -0.165304 0)
(0.0692899 -0.174567 0)
(0.0670074 -0.183924 0)
(0.0648664 -0.193424 0)
(0.0627919 -0.203077 0)
(0.0606765 -0.212857 0)
(0.0583985 -0.222699 0)
(0.0558411 -0.232519 0)
(0.0529075 -0.242219 0)
(0.0495286 -0.251701 0)
(0.0456647 -0.260873 0)
(0.0413018 -0.269652 0)
(0.0364466 -0.277969 0)
(0.0311201 -0.285768 0)
(0.0253526 -0.293004 0)
(0.0191796 -0.299646 0)
(0.0126391 -0.305673 0)
(0.00576932 -0.311071 0)
(-0.00139169 -0.315837 0)
(-0.00880705 -0.319975 0)
(-0.016442 -0.323496 0)
(-0.0242644 -0.326413 0)
(-0.0322448 -0.328747 0)
(-0.0403559 -0.330521 0)
(-0.0485721 -0.331763 0)
(-0.0568696 -0.332501 0)
(-0.0652261 -0.332768 0)
(-0.0736208 -0.332598 0)
(-0.0820345 -0.332025 0)
(-0.0904491 -0.331086 0)
(-0.0988475 -0.329818 0)
(-0.107214 -0.32826 0)
(-0.115532 -0.326449 0)
(-0.12379 -0.324424 0)
(-0.131973 -0.322222 0)
(-0.14007 -0.319879 0)
(-0.148069 -0.317433 0)
(-0.155958 -0.314916 0)
(-0.163725 -0.31236 0)
(-0.17136 -0.309794 0)
(-0.178845 -0.307241 0)
(-0.186139 -0.304717 0)
(-0.193195 -0.302228 0)
(-0.200034 -0.299774 0)
(-0.20678 -0.297356 0)
(-0.213251 -0.294965 0)
(-0.217256 -0.292543 0)
(-0.215768 -0.289362 0)
(-0.209109 -0.285376 0)
(-0.200617 -0.280775 0)
(-0.191689 -0.275519 0)
(-0.182412 -0.269513 0)
(-0.172735 -0.262698 0)
(-0.162691 -0.255049 0)
(-0.152347 -0.24657 0)
(-0.141775 -0.23729 0)
(-0.131053 -0.227273 0)
(-0.120264 -0.216617 0)
(-0.109537 -0.205467 0)
(-0.0991252 -0.194031 0)
(-0.0894219 -0.182595 0)
(-0.0809134 -0.171506 0)
(-0.0740984 -0.16114 0)
(-0.0693671 -0.151805 0)
(-0.0668556 -0.143634 0)
(-0.0663747 -0.136519 0)
(-0.0674827 -0.130157 0)
(-0.0696529 -0.124193 0)
(-0.0724166 -0.118337 0)
(-0.0754259 -0.112402 0)
(-0.078455 -0.106293 0)
(-0.0813736 -0.0999681 0)
(-0.0841139 -0.0934217 0)
(-0.0866438 -0.0866635 0)
(-0.0889493 -0.0797125 0)
(-0.0910258 -0.0725907 0)
(-0.0928739 -0.0653198 0)
(-0.094497 -0.0579208 0)
(-0.0958999 -0.0504131 0)
(-0.0970885 -0.0428143 0)
(-0.0980692 -0.0351394 0)
(-0.0988467 -0.0274013 0)
(-0.0994224 -0.0196155 0)
(-0.0997958 -0.0117957 0)
(-0.0999874 -0.0039432 0)
(0.0999805 -0.00563519 0)
(0.0996964 -0.0168388 0)
(0.0991353 -0.0279512 0)
(0.0982792 -0.0389475 0)
(0.097139 -0.0497999 0)
(0.0957242 -0.0604811 0)
(0.0940433 -0.0709659 0)
(0.0921083 -0.0812315 0)
(0.0899374 -0.0912584 0)
(0.087557 -0.101033 0)
(0.0850033 -0.110549 0)
(0.0823237 -0.119814 0)
(0.079577 -0.128848 0)
(0.0768313 -0.137689 0)
(0.0741577 -0.146394 0)
(0.0716206 -0.155033 0)
(0.0692648 -0.163683 0)
(0.0671014 -0.172413 0)
(0.0650985 -0.181272 0)
(0.0631812 -0.190273 0)
(0.0612413 -0.199397 0)
(0.0591549 -0.208592 0)
(0.0568016 -0.217781 0)
(0.0540802 -0.226879 0)
(0.0509167 -0.235797 0)
(0.0472663 -0.24445 0)
(0.0431104 -0.252764 0)
(0.0384513 -0.260674 0)
(0.0333059 -0.268125 0)
(0.027701 -0.275076 0)
(0.0216689 -0.281495 0)
(0.0152447 -0.287359 0)
(0.00846406 -0.292654 0)
(0.00136259 -0.297374 0)
(-0.00602462 -0.301521 0)
(-0.0136645 -0.305101 0)
(-0.0215264 -0.308126 0)
(-0.0295823 -0.310612 0)
(-0.037806 -0.312579 0)
(-0.046173 -0.31405 0)
(-0.0546604 -0.315049 0)
(-0.063247 -0.315604 0)
(-0.0719128 -0.315744 0)
(-0.0806393 -0.3155 0)
(-0.0894083 -0.314903 0)
(-0.0982034 -0.313984 0)
(-0.107009 -0.312777 0)
(-0.115811 -0.311312 0)
(-0.124594 -0.309623 0)
(-0.133346 -0.307739 0)
(-0.142054 -0.305691 0)
(-0.150703 -0.303506 0)
(-0.15928 -0.30121 0)
(-0.16777 -0.298825 0)
(-0.176156 -0.296369 0)
(-0.18441 -0.293854 0)
(-0.192477 -0.291285 0)
(-0.200298 -0.288659 0)
(-0.207904 -0.285967 0)
(-0.215418 -0.283204 0)
(-0.222472 -0.280356 0)
(-0.226228 -0.277379 0)
(-0.223803 -0.273531 0)
(-0.216468 -0.268929 0)
(-0.207594 -0.263764 0)
(-0.198185 -0.258008 0)
(-0.18828 -0.251593 0)
(-0.177889 -0.244479 0)
(-0.16709 -0.236661 0)
(-0.155977 -0.228156 0)
(-0.144646 -0.219009 0)
(-0.133195 -0.209295 0)
(-0.121727 -0.199121 0)
(-0.110409 -0.188635 0)
(-0.0995351 -0.178039 0)
(-0.089527 -0.167596 0)
(-0.0808741 -0.157609 0)
(-0.0740496 -0.148381 0)
(-0.0693886 -0.140133 0)
(-0.0669578 -0.132918 0)
(-0.0665126 -0.126586 0)
(-0.0675912 -0.12085 0)
(-0.0696793 -0.115406 0)
(-0.0723353 -0.110016 0)
(-0.0752376 -0.104534 0)
(-0.0781785 -0.0988811 0)
(-0.081036 -0.0930295 0)
(-0.0837431 -0.0869749 0)
(-0.0862638 -0.0807259 0)
(-0.0885798 -0.0742971 0)
(-0.0906823 -0.0677051 0)
(-0.0925679 -0.060967 0)
(-0.0942361 -0.0540998 0)
(-0.0956885 -0.0471198 0)
(-0.0969273 -0.0400429 0)
(-0.0979556 -0.0328829 0)
(-0.0987753 -0.0256532 0)
(-0.0993848 -0.0183699 0)
(-0.0997818 -0.0110489 0)
(-0.0999861 -0.00369391 0)
(0.0999811 -0.00526491 0)
(0.0996946 -0.0157327 0)
(0.0991276 -0.0261132 0)
(0.0982623 -0.036381 0)
(0.0971113 -0.0465081 0)
(0.0956863 -0.0564677 0)
(0.0939975 -0.0662354 0)
(0.0920589 -0.0757892 0)
(0.0898903 -0.0851113 0)
(0.0875193 -0.0941892 0)
(0.0849829 -0.103019 0)
(0.0823288 -0.111606 0)
(0.0796154 -0.119974 0)
(0.0769103 -0.12816 0)
(0.0742843 -0.136218 0)
(0.0718017 -0.144218 0)
(0.0695077 -0.152235 0)
(0.0674146 -0.160335 0)
(0.0654921 -0.168566 0)
(0.0636672 -0.176944 0)
(0.0618327 -0.185454 0)
(0.059865 -0.194046 0)
(0.0576427 -0.202653 0)
(0.0550621 -0.211195 0)
(0.052046 -0.219589 0)
(0.0485458 -0.227757 0)
(0.0445388 -0.235628 0)
(0.0400229 -0.243141 0)
(0.0350112 -0.250246 0)
(0.0295268 -0.256902 0)
(0.0235988 -0.263078 0)
(0.0172591 -0.268752 0)
(0.0105407 -0.273909 0)
(0.00347643 -0.278542 0)
(-0.0039 -0.28265 0)
(-0.0115574 -0.286238 0)
(-0.0194675 -0.289315 0)
(-0.0276036 -0.291894 0)
(-0.0359407 -0.293992 0)
(-0.0444556 -0.295626 0)
(-0.0531264 -0.296819 0)
(-0.0619328 -0.297595 0)
(-0.0708554 -0.297976 0)
(-0.079876 -0.29799 0)
(-0.0889771 -0.297662 0)
(-0.0981423 -0.29702 0)
(-0.107356 -0.296091 0)
(-0.116602 -0.294901 0)
(-0.125867 -0.293476 0)
(-0.135134 -0.291842 0)
(-0.144388 -0.290021 0)
(-0.153612 -0.288036 0)
(-0.162788 -0.285905 0)
(-0.171894 -0.283643 0)
(-0.180904 -0.281263 0)
(-0.189779 -0.278771 0)
(-0.198449 -0.276166 0)
(-0.206841 -0.273438 0)
(-0.214995 -0.270576 0)
(-0.223026 -0.26757 0)
(-0.230396 -0.264387 0)
(-0.233726 -0.261007 0)
(-0.230382 -0.256796 0)
(-0.222444 -0.251897 0)
(-0.213175 -0.246429 0)
(-0.203285 -0.240392 0)
(-0.192796 -0.233762 0)
(-0.181767 -0.226529 0)
(-0.170312 -0.218705 0)
(-0.158547 -0.21032 0)
(-0.146589 -0.201425 0)
(-0.134552 -0.192099 0)
(-0.122563 -0.182443 0)
(-0.110819 -0.172599 0)
(-0.0996513 -0.162754 0)
(-0.0894996 -0.153143 0)
(-0.0808499 -0.144033 0)
(-0.0741458 -0.135682 0)
(-0.0696656 -0.128267 0)
(-0.0674082 -0.121806 0)
(-0.0670771 -0.116141 0)
(-0.0681919 -0.111 0)
(-0.0702481 -0.106105 0)
(-0.0728272 -0.101244 0)
(-0.0756309 -0.0962851 0)
(-0.0784692 -0.0911609 0)
(-0.0812316 -0.0858435 0)
(-0.0838571 -0.0803284 0)
(-0.0863128 -0.0746224 0)
(-0.0885808 -0.0687382 0)
(-0.0906512 -0.0626905 0)
(-0.0925188 -0.0564949 0)
(-0.0941806 -0.0501671 0)
(-0.0956351 -0.0437226 0)
(-0.0968821 -0.0371768 0)
(-0.0979217 -0.0305437 0)
(-0.0987535 -0.0238371 0)
(-0.0993736 -0.017074 0)
(-0.099778 -0.010271 0)
(-0.0999861 -0.00343411 0)
(0.0999807 -0.00489381 0)
(0.0996918 -0.0146238 0)
(0.0991209 -0.0242722 0)
(0.0982506 -0.0338145 0)
(0.0970944 -0.0432243 0)
(0.0956645 -0.0524762 0)
(0.0939726 -0.0615474 0)
(0.0920335 -0.0704177 0)
(0.0898682 -0.0790707 0)
(0.0875052 -0.0874955 0)
(0.0849821 -0.0956885 0)
(0.0823474 -0.103657 0)
(0.0796599 -0.11142 0)
(0.0769872 -0.119014 0)
(0.0744001 -0.126489 0)
(0.0719633 -0.13391 0)
(0.069722 -0.141344 0)
(0.067689 -0.148855 0)
(0.0658352 -0.156489 0)
(0.064088 -0.164263 0)
(0.0623409 -0.172164 0)
(0.0604698 -0.180151 0)
(0.0583521 -0.188163 0)
(0.0558821 -0.196127 0)
(0.05298 -0.20397 0)
(0.0495942 -0.211618 0)
(0.0456988 -0.219007 0)
(0.0412887 -0.22608 0)
(0.0363739 -0.23279 0)
(0.0309748 -0.239098 0)
(0.0251178 -0.244974 0)
(0.0188325 -0.250397 0)
(0.0121496 -0.255351 0)
(0.00510031 -0.259829 0)
(-0.00228442 -0.263827 0)
(-0.00997492 -0.267351 0)
(-0.0179439 -0.270405 0)
(-0.0261661 -0.273 0)
(-0.0346181 -0.27515 0)
(-0.0432775 -0.27687 0)
(-0.0521237 -0.278177 0)
(-0.0611366 -0.279093 0)
(-0.0702973 -0.279636 0)
(-0.0795877 -0.279829 0)
(-0.0889906 -0.279693 0)
(-0.0984894 -0.279251 0)
(-0.108067 -0.278526 0)
(-0.117708 -0.277539 0)
(-0.127394 -0.276312 0)
(-0.137108 -0.274864 0)
(-0.146832 -0.273215 0)
(-0.156544 -0.271381 0)
(-0.166221 -0.269376 0)
(-0.175834 -0.267213 0)
(-0.18535 -0.2649 0)
(-0.194717 -0.262441 0)
(-0.203847 -0.259832 0)
(-0.212664 -0.257063 0)
(-0.221197 -0.254126 0)
(-0.229524 -0.250995 0)
(-0.236983 -0.247623 0)
(-0.239922 -0.243992 0)
(-0.235825 -0.239613 0)
(-0.227233 -0.234608 0)
(-0.217432 -0.229036 0)
(-0.207044 -0.222923 0)
(-0.196051 -0.21628 0)
(-0.184509 -0.20912 0)
(-0.17254 -0.201468 0)
(-0.160274 -0.193362 0)
(-0.147843 -0.184858 0)
(-0.135375 -0.176033 0)
(-0.123013 -0.166985 0)
(-0.110983 -0.157845 0)
(-0.0996407 -0.148787 0)
(-0.0894377 -0.140022 0)
(-0.0808508 -0.131784 0)
(-0.0742922 -0.124287 0)
(-0.0699889 -0.117662 0)
(-0.0678843 -0.11189 0)
(-0.0676444 -0.106802 0)
(-0.068781 -0.102145 0)
(-0.0708036 -0.0976784 0)
(-0.0733152 -0.0932222 0)
(-0.0760372 -0.0886676 0)
(-0.0787929 -0.0839588 0)
(-0.0814795 -0.0790734 0)
(-0.0840395 -0.0740075 0)
(-0.0864411 -0.0687667 0)
(-0.0886662 -0.0633613 0)
(-0.0907041 -0.0578037 0)
(-0.0925481 -0.0521071 0)
(-0.094194 -0.0462848 0)
(-0.0956388 -0.0403508 0)
(-0.0968807 -0.0343189 0)
(-0.0979185 -0.028202 0)
(-0.0987505 -0.0220134 0)
(-0.0993717 -0.0157695 0)
(-0.0997772 -0.00948702 0)
(-0.099986 -0.00317209 0)
(0.0999809 -0.00452122 0)
(0.0996925 -0.0135108 0)
(0.0991226 -0.0224248 0)
(0.0982539 -0.0312401 0)
(0.0971003 -0.0399319 0)
(0.0956746 -0.0484762 0)
(0.0939889 -0.0568518 0)
(0.0920587 -0.06504 0)
(0.0899054 -0.0730259 0)
(0.0875577 -0.0807992 0)
(0.0850537 -0.0883573 0)
(0.0824413 -0.0957068 0)
(0.0797795 -0.102867 0)
(0.0771353 -0.10987 0)
(0.0745795 -0.116763 0)
(0.0721765 -0.123607 0)
(0.0699721 -0.130466 0)
(0.0679802 -0.137399 0)
(0.0661726 -0.144449 0)
(0.0644782 -0.151634 0)
(0.0627913 -0.158944 0)
(0.0609879 -0.166341 0)
(0.0589446 -0.173772 0)
(0.056554 -0.18117 0)
(0.0537343 -0.188466 0)
(0.0504312 -0.195594 0)
(0.0466161 -0.202495 0)
(0.0422813 -0.209115 0)
(0.0374345 -0.215412 0)
(0.0320933 -0.221347 0)
(0.0262822 -0.226894 0)
(0.0200286 -0.232031 0)
(0.0133615 -0.236744 0)
(0.00631016 -0.241024 0)
(-0.00109603 -0.244867 0)
(-0.00882885 -0.248276 0)
(-0.0168622 -0.251254 0)
(-0.0251719 -0.253811 0)
(-0.0337354 -0.255956 0)
(-0.0425315 -0.257703 0)
(-0.0515397 -0.259066 0)
(-0.0607405 -0.260062 0)
(-0.0701153 -0.260707 0)
(-0.079646 -0.261019 0)
(-0.089315 -0.261018 0)
(-0.0991048 -0.260721 0)
(-0.108998 -0.260146 0)
(-0.118975 -0.259312 0)
(-0.129019 -0.258236 0)
(-0.139109 -0.256933 0)
(-0.149223 -0.25542 0)
(-0.159337 -0.253708 0)
(-0.169421 -0.251809 0)
(-0.179443 -0.249732 0)
(-0.189361 -0.247484 0)
(-0.199112 -0.245066 0)
(-0.208596 -0.242475 0)
(-0.217727 -0.239705 0)
(-0.226515 -0.236748 0)
(-0.234984 -0.23359 0)
(-0.242328 -0.230195 0)
(-0.244816 -0.226471 0)
(-0.240062 -0.222018 0)
(-0.23091 -0.217003 0)
(-0.220631 -0.21148 0)
(-0.209802 -0.205472 0)
(-0.19838 -0.198995 0)
(-0.186416 -0.192072 0)
(-0.174038 -0.184734 0)
(-0.161384 -0.177025 0)
(-0.148593 -0.169 0)
(-0.135803 -0.160734 0)
(-0.123173 -0.152319 0)
(-0.110953 -0.143878 0)
(-0.0995203 -0.135566 0)
(-0.0893325 -0.127576 0)
(-0.0808559 -0.120112 0)
(-0.0744736 -0.113356 0)
(-0.0703664 -0.107408 0)
(-0.0684288 -0.102229 0)
(-0.0682952 -0.0976508 0)
(-0.0694704 -0.0934416 0)
(-0.0714759 -0.0893861 0)
(-0.0739335 -0.0853287 0)
(-0.0765819 -0.0811756 0)
(-0.0792575 -0.0768789 0)
(-0.0818656 -0.0724195 0)
(-0.0843532 -0.0677939 0)
(-0.0866906 -0.063007 0)
(-0.0888604 -0.0580675 0)
(-0.0908518 -0.0529865 0)
(-0.0926578 -0.0477753 0)
(-0.0942732 -0.0424461 0)
(-0.0956941 -0.0370114 0)
(-0.0969177 -0.0314841 0)
(-0.0979419 -0.0258761 0)
(-0.098764 -0.0201999 0)
(-0.0993784 -0.0144714 0)
(-0.0997795 -0.0087064 0)
(-0.0999862 -0.00291116 0)
(0.0999809 -0.00415015 0)
(0.0996936 -0.0124021 0)
(0.0991258 -0.020585 0)
(0.0982606 -0.0286773 0)
(0.0971117 -0.0366561 0)
(0.0956925 -0.0444993 0)
(0.0940151 -0.0521874 0)
(0.0920952 -0.0597034 0)
(0.0899545 -0.0670335 0)
(0.0876219 -0.0741687 0)
(0.0851353 -0.0811066 0)
(0.0825426 -0.0878533 0)
(0.0799026 -0.0944262 0)
(0.0772822 -0.100856 0)
(0.0747519 -0.107185 0)
(0.0723763 -0.11347 0)
(0.0702016 -0.119768 0)
(0.0682422 -0.126135 0)
(0.0664711 -0.132612 0)
(0.0648179 -0.139217 0)
(0.0631773 -0.14594 0)
(0.0614255 -0.152749 0)
(0.0594383 -0.159596 0)
(0.0571069 -0.166421 0)
(0.0543478 -0.173161 0)
(0.0511045 -0.179756 0)
(0.0473466 -0.186151 0)
(0.0430641 -0.192298 0)
(0.0382627 -0.198156 0)
(0.0329583 -0.203691 0)
(0.0271734 -0.208877 0)
(0.020934 -0.213693 0)
(0.0142675 -0.218126 0)
(0.00720171 -0.222167 0)
(-0.00023516 -0.225811 0)
(-0.00801604 -0.229059 0)
(-0.0161158 -0.231915 0)
(-0.0245111 -0.234384 0)
(-0.0331803 -0.236475 0)
(-0.0421024 -0.238198 0)
(-0.0512573 -0.239566 0)
(-0.0606258 -0.240592 0)
(-0.0701892 -0.241289 0)
(-0.0799292 -0.241674 0)
(-0.0898275 -0.24176 0)
(-0.0998654 -0.241563 0)
(-0.110024 -0.241099 0)
(-0.120284 -0.240381 0)
(-0.130623 -0.239424 0)
(-0.14102 -0.23824 0)
(-0.151448 -0.236842 0)
(-0.161881 -0.23524 0)
(-0.172284 -0.233442 0)
(-0.18262 -0.231456 0)
(-0.192841 -0.229285 0)
(-0.202874 -0.226932 0)
(-0.212612 -0.224394 0)
(-0.221975 -0.221669 0)
(-0.230974 -0.218759 0)
(-0.2396 -0.215673 0)
(-0.246768 -0.212406 0)
(-0.248689 -0.208707 0)
(-0.243259 -0.204274 0)
(-0.233659 -0.199342 0)
(-0.223008 -0.193978 0)
(-0.211818 -0.188194 0)
(-0.200042 -0.182002 0)
(-0.187737 -0.175428 0)
(-0.175034 -0.168504 0)
(-0.162078 -0.161275 0)
(-0.149015 -0.153795 0)
(-0.135988 -0.146134 0)
(-0.123169 -0.138379 0)
(-0.110829 -0.130642 0)
(-0.0993607 -0.123067 0)
(-0.0892248 -0.115825 0)
(-0.0808765 -0.109096 0)
(-0.0746711 -0.103035 0)
(-0.0707484 -0.0977114 0)
(-0.068962 -0.0930735 0)
(-0.0689218 -0.0889567 0)
(-0.07013 -0.0851499 0)
(-0.0721204 -0.0814646 0)
(-0.0745318 -0.0777674 0)
(-0.0771175 -0.0739791 0)
(-0.0797245 -0.0700597 0)
(-0.0822644 -0.0659933 0)
(-0.0846877 -0.0617772 0)
(-0.0869664 -0.0574155 0)
(-0.0890838 -0.052916 0)
(-0.0910294 -0.0482879 0)
(-0.0927958 -0.0435414 0)
(-0.0943776 -0.0386869 0)
(-0.0957704 -0.0337357 0)
(-0.096971 -0.0286992 0)
(-0.0979768 -0.0235883 0)
(-0.0987846 -0.0184145 0)
(-0.0993887 -0.0131924 0)
(-0.0997832 -0.00793702 0)
(-0.0999864 -0.00265394 0)
(0.099981 -0.0037808 0)
(0.0996953 -0.0112987 0)
(0.0991307 -0.0187538 0)
(0.0982702 -0.0261266 0)
(0.0971278 -0.0333962 0)
(0.0957166 -0.0405424 0)
(0.0940491 -0.0475474 0)
(0.0921409 -0.0543957 0)
(0.0900136 -0.061075 0)
(0.0876962 -0.0675769 0)
(0.0852263 -0.0738993 0)
(0.0826518 -0.080048 0)
(0.0800309 -0.0860388 0)
(0.0774304 -0.0918996 0)
(0.0749207 -0.0976699 0)
(0.0725662 -0.1034 0)
(0.0704137 -0.109143 0)
(0.0684783 -0.114951 0)
(0.0667336 -0.120861 0)
(0.0651102 -0.12689 0)
(0.0635034 -0.133031 0)
(0.0617891 -0.139256 0)
(0.0598427 -0.145521 0)
(0.0575543 -0.151771 0)
(0.0548386 -0.157951 0)
(0.0516379 -0.164005 0)
(0.0479197 -0.169884 0)
(0.0436724 -0.175543 0)
(0.0389 -0.180945 0)
(0.0336171 -0.186058 0)
(0.0278447 -0.190859 0)
(0.0216074 -0.195328 0)
(0.0149316 -0.199451 0)
(0.00784392 -0.203221 0)
(0.000371593 -0.206633 0)
(-0.00745915 -0.209685 0)
(-0.0156239 -0.21238 0)
(-0.0240999 -0.214723 0)
(-0.0328659 -0.216721 0)
(-0.0419014 -0.218381 0)
(-0.0511864 -0.219715 0)
(-0.0607016 -0.220732 0)
(-0.0704283 -0.221444 0)
(-0.0803474 -0.221864 0)
(-0.0904399 -0.222004 0)
(-0.100686 -0.221877 0)
(-0.111066 -0.221495 0)
(-0.121558 -0.22087 0)
(-0.132139 -0.220014 0)
(-0.142783 -0.218937 0)
(-0.153464 -0.217648 0)
(-0.164149 -0.216157 0)
(-0.174802 -0.21447 0)
(-0.185381 -0.212594 0)
(-0.195834 -0.210532 0)
(-0.206082 -0.208286 0)
(-0.216015 -0.205857 0)
(-0.225566 -0.203244 0)
(-0.234773 -0.200457 0)
(-0.243579 -0.197513 0)
(-0.250453 -0.194424 0)
(-0.251603 -0.190778 0)
(-0.245478 -0.186461 0)
(-0.235579 -0.18171 0)
(-0.224688 -0.176595 0)
(-0.213236 -0.17112 0)
(-0.20119 -0.165296 0)
(-0.18862 -0.159146 0)
(-0.175666 -0.152702 0)
(-0.162478 -0.146006 0)
(-0.149209 -0.13911 0)
(-0.136006 -0.132079 0)
(-0.123054 -0.124992 0)
(-0.110642 -0.117952 0)
(-0.099174 -0.111089 0)
(-0.0891118 -0.104557 0)
(-0.0808999 -0.0985141 0)
(-0.0748684 -0.0930906 0)
(-0.0711208 -0.0883373 0)
(-0.0694759 -0.0841931 0)
(-0.0695236 -0.0805021 0)
(-0.0707651 -0.0770738 0)
(-0.0727455 -0.0737428 0)
(-0.0751181 -0.0703942 0)
(-0.0776491 -0.0669607 0)
(-0.0801947 -0.0634084 0)
(-0.0826722 -0.0597241 0)
(-0.0850354 -0.0559055 0)
(-0.0872579 -0.0519565 0)
(-0.0893241 -0.0478837 0)
(-0.0912237 -0.0436954 0)
(-0.0929494 -0.0394002 0)
(-0.0944956 -0.0350075 0)
(-0.0958581 -0.0305274 0)
(-0.0970331 -0.02597 0)
(-0.0980179 -0.0213452 0)
(-0.0988092 -0.0166632 0)
(-0.099401 -0.0119376 0)
(-0.0997876 -0.00718205 0)
(-0.0999867 -0.00240152 0)
(0.0999811 -0.00341367 0)
(0.0996971 -0.0102017 0)
(0.0991357 -0.0169334 0)
(0.0982801 -0.0235911 0)
(0.0971442 -0.030156 0)
(0.0957411 -0.0366098 0)
(0.0940832 -0.0429365 0)
(0.0921861 -0.0491222 0)
(0.0900713 -0.0551557 0)
(0.0877676 -0.0610297 0)
(0.0853125 -0.0667422 0)
(0.0827536 -0.0722985 0)
(0.0801488 -0.0777129 0)
(0.0775647 -0.0830104 0)
(0.0750714 -0.0882267 0)
(0.0727338 -0.0934069 0)
(0.0705985 -0.0986003 0)
(0.0686813 -0.103853 0)
(0.0669566 -0.109199 0)
(0.0653557 -0.114656 0)
(0.063774 -0.120216 0)
(0.0620877 -0.125856 0)
(0.0601712 -0.131536 0)
(0.057914 -0.137208 0)
(0.0552295 -0.14282 0)
(0.0520584 -0.148325 0)
(0.048367 -0.153675 0)
(0.0441424 -0.158832 0)
(0.0393872 -0.163762 0)
(0.0341149 -0.168435 0)
(0.0283454 -0.172829 0)
(0.0221023 -0.176927 0)
(0.0154109 -0.180717 0)
(0.00829735 -0.184189 0)
(0.000787905 -0.187339 0)
(-0.00709177 -0.190165 0)
(-0.0153177 -0.19267 0)
(-0.0238678 -0.194856 0)
(-0.0327208 -0.196728 0)
(-0.0418564 -0.198295 0)
(-0.0512548 -0.199562 0)
(-0.0608967 -0.20054 0)
(-0.0707625 -0.201239 0)
(-0.080833 -0.201667 0)
(-0.0910884 -0.201836 0)
(-0.101508 -0.201757 0)
(-0.11207 -0.201438 0)
(-0.122752 -0.20089 0)
(-0.133529 -0.200123 0)
(-0.144373 -0.199145 0)
(-0.155255 -0.197965 0)
(-0.166141 -0.19659 0)
(-0.176991 -0.195025 0)
(-0.187761 -0.193276 0)
(-0.198396 -0.191347 0)
(-0.20881 -0.18924 0)
(-0.218895 -0.186956 0)
(-0.228595 -0.184495 0)
(-0.237968 -0.181867 0)
(-0.246888 -0.179086 0)
(-0.253368 -0.176178 0)
(-0.253725 -0.172684 0)
(-0.247018 -0.168591 0)
(-0.236915 -0.164122 0)
(-0.225866 -0.15934 0)
(-0.214222 -0.154248 0)
(-0.201968 -0.148855 0)
(-0.189195 -0.143185 0)
(-0.176048 -0.137269 0)
(-0.162685 -0.131145 0)
(-0.149261 -0.124862 0)
(-0.135929 -0.118478 0)
(-0.122884 -0.112066 0)
(-0.110431 -0.105717 0)
(-0.098983 -0.0995511 0)
(-0.0890035 -0.0937035 0)
(-0.0809257 -0.088314 0)
(-0.0750565 -0.0834918 0)
(-0.0714677 -0.0792716 0)
(-0.0699485 -0.0755883 0)
(-0.0700735 -0.0722963 0)
(-0.0713445 -0.0692259 0)
(-0.0733167 -0.066233 0)
(-0.0756564 -0.0632193 0)
(-0.0781405 -0.0601276 0)
(-0.080633 -0.0569297 0)
(-0.083056 -0.0536146 0)
(-0.085366 -0.0501806 0)
(-0.0875382 -0.0466312 0)
(-0.0895576 -0.0429721 0)
(-0.0914145 -0.0392106 0)
(-0.0931018 -0.0353542 0)
(-0.094614 -0.0314111 0)
(-0.0959467 -0.02739 0)
(-0.0970963 -0.0233002 0)
(-0.09806 -0.0191501 0)
(-0.0988345 -0.0149491 0)
(-0.0994137 -0.0107093 0)
(-0.0997921 -0.00644296 0)
(-0.099987 -0.00215441 0)
(0.0999812 -0.00304866 0)
(0.0996988 -0.00911103 0)
(0.0991405 -0.0151233 0)
(0.0982896 -0.0210699 0)
(0.0971599 -0.0269339 0)
(0.0957645 -0.0326991 0)
(0.0941155 -0.0383512 0)
(0.0922286 -0.0438779 0)
(0.090125 -0.0492693 0)
(0.0878335 -0.0545187 0)
(0.0853912 -0.0596244 0)
(0.0828455 -0.0645912 0)
(0.0802541 -0.0694319 0)
(0.0776834 -0.0741686 0)
(0.0752033 -0.0788334 0)
(0.0728785 -0.0834666 0)
(0.0707563 -0.0881122 0)
(0.0688527 -0.0928118 0)
(0.0671429 -0.0975965 0)
(0.0655584 -0.102481 0)
(0.0639952 -0.107461 0)
(0.0623291 -0.112515 0)
(0.0604344 -0.117608 0)
(0.0581995 -0.122697 0)
(0.0555368 -0.127737 0)
(0.0523861 -0.132683 0)
(0.0487122 -0.137496 0)
(0.0445014 -0.142139 0)
(0.0397552 -0.146582 0)
(0.0344862 -0.150799 0)
(0.0287134 -0.15477 0)
(0.0224597 -0.158479 0)
(0.0157497 -0.161913 0)
(0.00860889 -0.165066 0)
(0.00106305 -0.167931 0)
(-0.00686262 -0.170509 0)
(-0.0151445 -0.172798 0)
(-0.0237607 -0.174803 0)
(-0.0326903 -0.176526 0)
(-0.0419129 -0.177973 0)
(-0.0514087 -0.179151 0)
(-0.061158 -0.180068 0)
(-0.0711412 -0.18073 0)
(-0.0813382 -0.181147 0)
(-0.0917284 -0.181327 0)
(-0.102291 -0.181278 0)
(-0.113002 -0.18101 0)
(-0.123838 -0.180529 0)
(-0.134773 -0.179845 0)
(-0.145777 -0.178964 0)
(-0.156819 -0.177894 0)
(-0.167863 -0.17664 0)
(-0.178867 -0.175207 0)
(-0.189785 -0.1736 0)
(-0.200558 -0.171822 0)
(-0.211099 -0.169876 0)
(-0.221297 -0.167762 0)
(-0.231107 -0.165482 0)
(-0.240603 -0.163042 0)
(-0.249589 -0.160454 0)
(-0.255665 -0.157769 0)
(-0.255298 -0.154511 0)
(-0.248102 -0.150726 0)
(-0.237847 -0.146612 0)
(-0.226681 -0.142225 0)
(-0.21489 -0.137569 0)
(-0.202479 -0.132655 0)
(-0.18955 -0.127506 0)
(-0.176257 -0.122151 0)
(-0.162761 -0.116625 0)
(-0.14922 -0.110972 0)
(-0.135792 -0.105244 0)
(-0.122683 -0.0995058 0)
(-0.11021 -0.0938414 0)
(-0.0987952 -0.0883557 0)
(-0.0889006 -0.0831697 0)
(-0.0809496 -0.0784045 0)
(-0.0752287 -0.0741515 0)
(-0.0717819 -0.0704334 0)
(-0.070374 -0.0671846 0)
(-0.0705672 -0.0642723 0)
(-0.0718645 -0.0615465 0)
(-0.0738305 -0.0588826 0)
(-0.0761424 -0.0561966 0)
(-0.0785864 -0.0534405 0)
(-0.0810329 -0.0505904 0)
(-0.0834083 -0.0476374 0)
(-0.0856714 -0.0445802 0)
(-0.0877987 -0.0414219 0)
(-0.0897761 -0.0381675 0)
(-0.091594 -0.0348232 0)
(-0.093246 -0.0313957 0)
(-0.0947265 -0.0278921 0)
(-0.0960313 -0.02432 0)
(-0.0971569 -0.0206874 0)