/*--------------------------------*- C++ -*----------------------------------*\
  =========                 |
  \\      /  F ield         | OpenFOAM: The Open Source CFD Toolbox
   \\    /   O peration     | Website:  https://openfoam.org
    \\  /    A nd           | Version:  8
     \\/     M anipulation  |
\*---------------------------------------------------------------------------*/
FoamFile
{
    version     2.0;
    format      ascii;
    class       volScalarField;
    location    "160/fluid";
    object      CH4;
}
// * * * * * * * * * * * * * * * * * * * * * * * * * * * * * * * * * * * * * //

dimensions      [0 0 0 0 0 0 0];

internalField   nonuniform List<scalar> 
4000
(
0.999997
0.999988
0.999972
0.999946
0.999902
0.999831
0.999714
0.999524
0.99922
0.998738
0.997984
0.996823
0.995067
0.992467
0.988708
0.983419
0.976199
0.966657
0.954468
0.939418
0.921437
0.900597
0.8771
0.851235
0.823351
0.793819
0.763011
0.731286
0.698976
0.666383
0.633776
0.601388
0.56942
0.53804
0.507386
0.47757
0.448676
0.420768
0.393896
0.36809
0.343366
0.319728
0.29717
0.275679
0.255236
0.235816
0.217392
0.199931
0.183402
0.167771
0.153001
0.139059
0.125909
0.113517
0.10185
0.0908743
0.0805599
0.0708771
0.0617985
0.0532988
0.0453555
0.0379487
0.0310703
0.0248154
0.0189484
0.0135834
0.00873215
0.00443633
0.00253607
0.00177929
0.00122822
0.000832539
0.000552896
0.000358829
0.000227
0.000139718
8.37612e-05
4.94587e-05
3.00323e-05
2.08708e-05
1.58368e-05
1.16722e-05
8.11091e-06
5.24767e-06
3.1321e-06
1.72011e-06
8.74354e-07
4.18983e-07
1.93291e-07
8.67272e-08
3.81216e-08
1.65003e-08
7.05805e-09
2.99015e-09
1.25517e-09
5.20672e-10
2.11411e-10
8.1724e-11
2.75053e-11
4.84051e-12
0.999997
0.999988
0.999972
0.999945
0.9999
0.999827
0.999707
0.999512
0.9992
0.998705
0.997931
0.996741
0.994945
0.992295
0.988475
0.983119
0.97583
0.966224
0.953982
0.938893
0.920884
0.900026
0.876513
0.850627
0.822711
0.793133
0.762266
0.730469
0.698077
0.665396
0.632699
0.600223
0.568172
0.536716
0.505995
0.47612
0.447178
0.419233
0.392333
0.366509
0.341776
0.318138
0.295586
0.274109
0.253685
0.234289
0.215892
0.198464
0.181969
0.166375
0.151644
0.137742
0.124633
0.112283
0.100658
0.0897257
0.0794541
0.0698144
0.0607791
0.0523232
0.0444242
0.0370631
0.0302413
0.0240304
0.0182039
0.0128774
0.00804759
0.00372236
0.0023803
0.00167297
0.00115486
0.000781623
0.000517543
0.000334432
0.000210392
0.000128669
7.66813e-05
4.52143e-05
2.78771e-05
1.99644e-05
1.49886e-05
1.07736e-05
7.26736e-06
4.54845e-06
2.62506e-06
1.40043e-06
6.97793e-07
3.32227e-07
1.53379e-07
6.92028e-08
3.06755e-08
1.34083e-08
5.79459e-09
2.48004e-09
1.05138e-09
4.4026e-10
1.80325e-10
7.02336e-11
2.37681e-11
4.19427e-12
0.999997
0.999987
0.999971
0.999943
0.999898
0.999822
0.999699
0.999498
0.999177
0.998668
0.997873
0.996654
0.994818
0.992114
0.988228
0.982792
0.975412
0.96571
0.953371
0.938188
0.920094
0.899159
0.875572
0.849615
0.821623
0.791962
0.761001
0.729099
0.696592
0.66379
0.630967
0.598364
0.566189
0.534615
0.503785
0.473813
0.444786
0.416769
0.389813
0.363946
0.339184
0.315529
0.292974
0.271505
0.251099
0.23173
0.21337
0.195984
0.179539
0.163998
0.149327
0.135487
0.122444
0.110162
0.0986063
0.0877447
0.0775454
0.0679792
0.0590186
0.050639
0.0428185
0.0355388
0.0288607
0.0227144
0.0169878
0.0118053
0.00717425
0.00315898
0.00222425
0.0015436
0.00105392
0.000706218
0.000463182
0.000296498
0.000184791
0.000112047
6.64444e-05
3.94726e-05
2.53505e-05
1.8703e-05
1.38405e-05
9.73333e-06
6.41631e-06
3.9292e-06
2.22822e-06
1.17566e-06
5.83121e-07
2.77598e-07
1.28355e-07
5.80271e-08
2.57677e-08
1.12778e-08
4.8774e-09
2.08802e-09
8.85155e-10
3.70609e-10
1.51797e-10
5.91339e-11
2.00175e-11
3.53326e-12
0.999997
0.999987
0.99997
0.999942
0.999895
0.999818
0.999692
0.999487
0.999158
0.998638
0.997828
0.996586
0.994718
0.99197
0.988027
0.982518
0.975051
0.965248
0.952797
0.937494
0.919275
0.898211
0.874493
0.848403
0.820277
0.790478
0.759376
0.727329
0.694676
0.661725
0.628754
0.596007
0.563692
0.531986
0.501033
0.470949
0.441824
0.413724
0.386699
0.360779
0.335979
0.312301
0.289738
0.268273
0.247884
0.228545
0.210223
0.192886
0.176498
0.161022
0.14642
0.132656
0.119693
0.107495
0.0960259
0.0852535
0.0751456
0.0656726
0.0568069
0.0485241
0.0408028
0.0336293
0.0271223
0.0210328
0.0154752
0.0104813
0.00611263
0.00289805
0.00201957
0.00138807
0.000938581
0.000622735
0.000404296
0.000256131
0.000158011
9.4988e-05
5.61933e-05
3.39867e-05
2.32112e-05
1.7285e-05
1.25463e-05
8.62096e-06
5.54379e-06
3.31223e-06
1.83785e-06
9.53729e-07
4.68087e-07
2.22015e-07
1.02593e-07
4.64435e-08
2.0677e-08
9.07928e-09
3.94068e-09
1.69305e-09
7.20119e-10
3.02396e-10
1.24159e-10
4.84581e-11
1.6424e-11
2.90046e-12
0.999997
0.999987
0.99997
0.999941
0.999893
0.999814
0.999685
0.999476
0.999141
0.99861
0.997784
0.996518
0.994617
0.991822
0.987816
0.982228
0.974664
0.964746
0.952166
0.936724
0.918358
0.897142
0.873269
0.847021
0.818735
0.788773
0.757507
0.725296
0.692478
0.659364
0.626233
0.59333
0.560867
0.529023
0.497942
0.467743
0.438517
0.410331
0.383235
0.35726
0.332421
0.308719
0.286146
0.264686
0.244316
0.225008
0.206729
0.189444
0.173118
0.157712
0.143188
0.129508
0.116633
0.104528
0.0931569
0.082485
0.0724806
0.0631138
0.0543575
0.0461875
0.0385834
0.031551
0.0251791
0.0191826
0.0136896
0.00870167
0.00422594
0.0024965
0.00174299
0.00119644
0.000806136
0.000532007
0.000343064
0.000215663
0.000132005
7.89034e-05
4.68075e-05
2.91446e-05
2.09363e-05
1.56074e-05
1.11577e-05
7.52281e-06
4.73899e-06
2.77611e-06
1.51572e-06
7.7789e-07
3.80014e-07
1.79953e-07
8.31651e-08
3.76848e-08
1.67995e-08
7.38688e-09
3.21032e-09
1.38086e-09
5.87901e-10
2.47059e-10
1.01492e-10
3.96236e-11
1.34317e-11
2.37187e-12
0.999997
0.999987
0.999969
0.99994
0.999891
0.999811
0.999679
0.999466
0.999125
0.998585
0.997744
0.996456
0.994523
0.991684
0.987618
0.98195
0.974286
0.964248
0.951529
0.935933
0.9174
0.896011
0.87196
0.845532
0.817064
0.786921
0.755475
0.723085
0.690092
0.656808
0.623513
0.590454
0.557844
0.525863
0.494658
0.464348
0.435025
0.406757
0.379595
0.35357
0.328696
0.304974
0.282396
0.260945
0.240597
0.221323
0.203091
0.185863
0.169604
0.154273
0.139831
0.12624
0.11346
0.101454
0.0901863
0.0796214
0.0697268
0.0604722
0.05183
0.0437758
0.0362889
0.0294348
0.023182
0.017305
0.0119931
0.00724857
0.00314821
0.00221056
0.00152913
0.00104059
0.000695207
0.000454892
0.000290786
0.000181219
0.000110088
6.56129e-05
3.93977e-05
2.57693e-05
1.91014e-05
1.41013e-05
9.91121e-06
6.55342e-06
4.04459e-06
2.3242e-06
1.24913e-06
6.33865e-07
3.08074e-07
1.4554e-07
6.72209e-08
3.04756e-08
1.36019e-08
5.99028e-09
2.60785e-09
1.12363e-09
4.79118e-10
2.01599e-10
8.28935e-11
3.23811e-11
1.09798e-11
1.93881e-12
0.999997
0.999986
0.999969
0.999939
0.999889
0.999808
0.999674
0.999457
0.99911
0.99856
0.997705
0.996395
0.994431
0.991547
0.987419
0.98167
0.973903
0.963741
0.950878
0.93512
0.916414
0.894841
0.870602
0.843983
0.815323
0.784991
0.753357
0.720784
0.687613
0.654157
0.620699
0.587487
0.554734
0.522622
0.4913
0.460887
0.431475
0.403134
0.375915
0.349847
0.324944
0.301209
0.278632
0.257196
0.236876
0.217641
0.199459
0.182293
0.166103
0.15085
0.136493
0.122994
0.110312
0.0984082
0.0872467
0.0767918
0.0670106
0.0578726
0.0493501
0.041419
0.0340591
0.0274351
0.0212133
0.0155388
0.0104468
0.00599984
0.0028634
0.00198489
0.00135824
0.000915183
0.000605648
0.000392609
0.00024867
0.000153625
9.2692e-05
5.52261e-05
3.38204e-05
2.34482e-05
1.75483e-05
1.2778e-05
8.82762e-06
5.72763e-06
3.4682e-06
1.95924e-06
1.03903e-06
5.22444e-07
2.52915e-07
1.19258e-07
5.50483e-08
2.49605e-08
1.11469e-08
4.91311e-09
2.14088e-09
9.23263e-10
3.93995e-10
1.65882e-10
6.8233e-11
2.66581e-11
9.03912e-12
1.59581e-12
0.999997
0.999986
0.999968
0.999938
0.999888
0.999805
0.999669
0.999448
0.999095
0.998537
0.997667
0.996337
0.994341
0.991414
0.987224
0.981395
0.973525
0.963237
0.950227
0.934305
0.91542
0.893659
0.869227
0.842413
0.813558
0.783033
0.751211
0.718455
0.685108
0.651485
0.617869
0.584511
0.551624
0.519391
0.487961
0.457455
0.427964
0.39956
0.372293
0.346191
0.321269
0.297529
0.27496
0.253544
0.233257
0.214067
0.195939
0.178836
0.162719
0.147546
0.133277
0.11987
0.107286
0.0954861
0.0844316
0.0740876
0.0644208
0.0554006
0.047
0.0391954
0.0319801
0.0255057
0.0193694
0.0137576
0.00866624
0.00411257
0.0024836
0.00172955
0.00118462
0.000796883
0.000525486
0.000338956
0.000213434
0.000131087
7.88015e-05
4.71486e-05
2.96766e-05
2.14724e-05
1.60818e-05
1.15719e-05
7.8749e-06
5.02402e-06
2.99105e-06
1.66463e-06
8.72629e-07
4.35262e-07
2.09965e-07
9.8825e-08
4.55831e-08
2.06679e-08
9.23363e-09
4.07255e-09
1.77602e-09
7.66531e-10
3.27343e-10
1.37892e-10
5.67369e-11
2.21692e-11
7.51651e-12
1.32672e-12
0.999997
0.999986
0.999968
0.999937
0.999886
0.999802
0.999664
0.99944
0.999081
0.998514
0.997631
0.996281
0.994255
0.991283
0.987034
0.981125
0.973153
0.962741
0.949585
0.933499
0.914436
0.892489
0.867865
0.840856
0.811808
0.781094
0.749087
0.716153
0.682637
0.648854
0.61509
0.581594
0.548583
0.516239
0.484713
0.454125
0.424567
0.396111
0.368804
0.342678
0.317745
0.294007
0.271452
0.250063
0.229813
0.210671
0.1926
0.175563
0.159519
0.144427
0.130245
0.11693
0.104442
0.0927422
0.0817914
0.0715539
0.0619962
0.0530878
0.0448015
0.0371147
0.0300802
0.0237075
0.0177064
0.012273
0.0074134
0.0032109
0.00224669
0.001551
0.0010547
0.000704963
0.000462048
0.000296252
0.000185466
0.000113374
6.81004e-05
4.12089e-05
2.7008e-05
2.00507e-05
1.49054e-05
1.0584e-05
7.09329e-06
4.45202e-06
2.60906e-06
1.43266e-06
7.43429e-07
3.68244e-07
1.77074e-07
8.31955e-08
3.83397e-08
1.73782e-08
7.76443e-09
3.4256e-09
1.49454e-09
6.45346e-10
2.75704e-10
1.16171e-10
4.78041e-11
1.86784e-11
6.33197e-12
1.11735e-12
0.999997
0.999986
0.999967
0.999936
0.999884
0.999799
0.999659
0.999432
0.999068
0.998493
0.997597
0.996226
0.994171
0.991158
0.986851
0.980864
0.972793
0.962259
0.948961
0.932715
0.913479
0.89135
0.866539
0.839342
0.810108
0.77921
0.747027
0.713924
0.680248
0.646315
0.612412
0.57879
0.545666
0.513224
0.481612
0.450953
0.421339
0.39284
0.365504
0.339361
0.314425
0.290695
0.268161
0.246803
0.226594
0.207501
0.18949
0.172519
0.156549
0.141536
0.127439
0.114214
0.10182
0.0902166
0.0793656
0.0692304
0.0597768
0.0509741
0.0427948
0.0352162
0.0284193
0.0221652
0.0163032
0.0110568
0.00646897
0.00296166
0.00205918
0.00141317
0.000955392
0.000634855
0.000413651
0.000263668
0.00016416
9.99489e-05
6.00923e-05
3.69165e-05
2.52972e-05
1.89826e-05
1.39693e-05
9.78764e-06
6.46228e-06
3.9935e-06
2.30655e-06
1.25125e-06
6.43373e-07
3.16874e-07
1.51898e-07
7.123e-08
3.27883e-08
1.4853e-08
6.63469e-09
2.92723e-09
1.27732e-09
5.51676e-10
2.35734e-10
9.9339e-11
4.08765e-11
1.59701e-11
5.41281e-12
9.54878e-13
0.999997
0.999985
0.999967
0.999935
0.999883
0.999796
0.999654
0.999424
0.999055
0.998472
0.997564
0.996175
0.994092
0.991039
0.986676
0.980615
0.972449
0.961799
0.948364
0.931965
0.912564
0.890261
0.865271
0.837896
0.808485
0.777415
0.745065
0.711804
0.677979
0.643909
0.609879
0.576143
0.542918
0.510387
0.478702
0.447983
0.418322
0.389788
0.362432
0.33628
0.311346
0.28763
0.26512
0.243796
0.22363
0.204589
0.186636
0.169731
0.153832
0.138896
0.12488
0.111741
0.0994355
0.0879239
0.0771669
0.0671273
0.0577707
0.0490658
0.0409846
0.0335113
0.0268383
0.0205454
0.0148049
0.00963019
0.0050499
0.00269357
0.00187243
0.0012837
0.000866312
0.000574252
0.000373048
0.000237004
0.0001471
8.94144e-05
5.39376e-05
3.37427e-05
2.40046e-05
1.80731e-05
1.31786e-05
9.12454e-06
5.94383e-06
3.62238e-06
2.06554e-06
1.10876e-06
5.65602e-07
2.77389e-07
1.32598e-07
6.2064e-08
2.85343e-08
1.29161e-08
5.76691e-09
2.54381e-09
1.10994e-09
4.79386e-10
2.04844e-10
8.63166e-11
3.55127e-11
1.38722e-11
4.70074e-12
8.29005e-13
0.999997
0.999985
0.999966
0.999934
0.999881
0.999794
0.99965
0.999417
0.999044
0.998453
0.997533
0.996127
0.994017
0.990927
0.986511
0.98038
0.972125
0.961366
0.947803
0.931261
0.911704
0.889238
0.864082
0.836539
0.806964
0.775734
0.743231
0.709825
0.675864
0.641668
0.607524
0.573686
0.540372
0.507765
0.476016
0.445246
0.415547
0.386987
0.359616
0.333461
0.308534
0.284836
0.262352
0.241064
0.220941
0.201951
0.184055
0.167214
0.151383
0.136521
0.122582
0.109523
0.0973016
0.0858767
0.0752087
0.0652605
0.0559975
0.0473883
0.0394057
0.032029
0.0254166
0.0193195
0.0135896
0.00841347
0.00382843
0.00245791
0.00171502
0.0011779
0.000795186
0.000526717
0.000341651
0.000216638
0.000134231
8.15991e-05
4.95127e-05
3.16329e-05
2.30908e-05
1.73528e-05
1.254e-05
8.58668e-06
5.52474e-06
3.32512e-06
1.87474e-06
9.97169e-07
5.05201e-07
2.46855e-07
1.17707e-07
5.50002e-08
2.5257e-08
1.14235e-08
5.09786e-09
2.24798e-09
9.80682e-10
4.23512e-10
1.8095e-10
7.62368e-11
3.13589e-11
1.22475e-11
4.14927e-12
7.3152e-13
0.999997
0.999985
0.999966
0.999934
0.99988
0.999792
0.999646
0.999411
0.999033
0.998436
0.997505
0.996082
0.993949
0.990823
0.98636
0.980164
0.971826
0.960966
0.947286
0.930611
0.910912
0.888296
0.862987
0.835291
0.805566
0.77419
0.741548
0.708011
0.673928
0.639619
0.605375
0.571447
0.538055
0.505382
0.47358
0.442768
0.413037
0.384458
0.357078
0.330923
0.306007
0.282328
0.259872
0.238619
0.218539
0.199597
0.181756
0.164974
0.149207
0.134412
0.120544
0.10756
0.0954151
0.0840691
0.0734822
0.0636172
0.0544403
0.0459211
0.0380329
0.0307974
0.0243076
0.0181829
0.0126216
0.00763501
0.00332026
0.00232609
0.00161148
0.00110155
0.000741206
0.00048977
0.00031708
0.000200773
0.000124344
7.57507e-05
4.63878e-05
3.03801e-05
2.2551e-05
1.68617e-05
1.20739e-05
8.17923e-06
5.20164e-06
3.09486e-06
1.7272e-06
9.11189e-07
4.58801e-07
2.23413e-07
1.06272e-07
4.95712e-08
2.27356e-08
1.0274e-08
4.582e-09
2.01965e-09
8.80819e-10
3.80307e-10
1.6246e-10
6.84329e-11
2.81426e-11
1.09892e-11
3.72234e-12
6.56054e-13
0.999997
0.999985
0.999966
0.999933
0.999879
0.99979
0.999643
0.999405
0.999023
0.99842
0.99748
0.996042
0.993887
0.99073
0.986223
0.979969
0.971557
0.960606
0.946819
0.930025
0.910197
0.887446
0.862
0.834167
0.804308
0.772802
0.740037
0.706383
0.672192
0.637786
0.603453
0.569447
0.535988
0.50326
0.471412
0.440565
0.410811
0.382217
0.354831
0.328681
0.303777
0.280117
0.257689
0.236469
0.216429
0.197532
0.179741
0.163013
0.147305
0.132571
0.118768
0.10585
0.0937739
0.0824985
0.0719836
0.0621919
0.0530888
0.0446433
0.0368282
0.0297629
0.0233547
0.0173241
0.0118967
0.00709091
0.00308518
0.00217373
0.00151052
0.00103413
0.000696288
0.000460151
0.000297881
0.00018863
0.000116939
7.15102e-05
4.42875e-05
2.9781e-05
2.23116e-05
1.65761e-05
1.17623e-05
7.88783e-06
4.96246e-06
2.92176e-06
1.61568e-06
8.46085e-07
4.23628e-07
2.05609e-07
9.75663e-08
4.54275e-08
2.08064e-08
9.39243e-09
4.18562e-09
1.84389e-09
8.03832e-10
3.46958e-10
1.48175e-10
6.23998e-11
2.56554e-11
1.00162e-11
3.39225e-12
5.97707e-13
0.999997
0.999985
0.999965
0.999933
0.999878
0.999788
0.99964
0.9994
0.999015
0.998406
0.997458
0.996007
0.993833
0.990648
0.986103
0.979797
0.97132
0.960288
0.946408
0.929509
0.909568
0.8867
0.861133
0.833181
0.803204
0.771586
0.738713
0.704958
0.670675
0.636184
0.601775
0.567704
0.534188
0.501413
0.469529
0.438654
0.40888
0.380276
0.352887
0.326742
0.301851
0.278211
0.255807
0.234618
0.214614
0.195758
0.178012
0.161332
0.145674
0.130994
0.117247
0.104386
0.0923691
0.0811539
0.0707003
0.060971
0.0519313
0.0435504
0.0358012
0.0288776
0.0225243
0.0165658
0.011226
0.00652642
0.0029682
0.00208272
0.00144411
0.0009876
0.000664683
0.000439261
0.000284453
0.000180276
0.000111973
6.87939e-05
4.30953e-05
2.96787e-05
2.23165e-05
1.64733e-05
1.1591e-05
7.69838e-06
4.79552e-06
2.79679e-06
1.53385e-06
7.979e-07
3.97444e-07
1.9229e-07
9.10238e-08
4.23002e-08
1.93447e-08
8.72217e-09
3.8833e-09
1.70948e-09
7.44824e-10
3.2135e-10
1.3719e-10
5.77557e-11
2.37399e-11
9.26662e-12
3.13799e-12
5.52763e-13
0.999997
0.999985
0.999965
0.999932
0.999877
0.999786
0.999637
0.999396
0.999008
0.998394
0.997439
0.995977
0.993787
0.990579
0.986
0.979651
0.971118
0.960018
0.946058
0.929071
0.909034
0.886065
0.860397
0.832343
0.802267
0.770553
0.737589
0.703751
0.669389
0.634827
0.600356
0.56623
0.532668
0.499855
0.46794
0.437043
0.407255
0.378643
0.351254
0.325115
0.300235
0.276612
0.254232
0.23307
0.213097
0.194276
0.176568
0.159929
0.144315
0.129681
0.115981
0.103169
0.0912023
0.0800383
0.0696372
0.0599617
0.0509784
0.0426578
0.034976
0.0281391
0.0216878
0.0158026
0.010502
0.00580803
0.00283054
0.001992
0.00138475
0.000949186
0.000640195
0.000423941
0.000275101
0.000174765
0.000108915
6.73082e-05
4.26515e-05
2.99943e-05
2.25446e-05
1.65268e-05
1.15379e-05
7.59723e-06
4.69017e-06
2.71228e-06
1.47655e-06
7.63479e-07
3.78489e-07
1.82553e-07
8.62019e-08
3.99793e-08
1.82535e-08
8.21924e-09
3.65546e-09
1.6078e-09
7.00052e-10
3.01872e-10
1.28819e-10
5.42119e-11
2.22769e-11
8.69392e-12
2.94371e-12
5.18418e-13
0.999997
0.999985
0.999965
0.999932
0.999877
0.999785
0.999635
0.999392
0.999002
0.998385
0.997424
0.995953
0.993749
0.990522
0.985917
0.979533
0.970954
0.959799
0.945774
0.928714
0.908599
0.885549
0.859798
0.831662
0.801505
0.769714
0.736677
0.70277
0.668346
0.633728
0.599207
0.565037
0.531438
0.498595
0.466657
0.435743
0.405943
0.377326
0.349937
0.323803
0.298934
0.275326
0.252965
0.231826
0.211878
0.193086
0.175409
0.158804
0.143226
0.128628
0.114965
0.102192
0.0902643
0.0791393
0.0687765
0.0591381
0.0501889
0.0418974
0.0342354
0.0273811
0.0211007
0.0151914
0.00986846
0.00513109
0.00271101
0.0019172
0.0013385
0.000921069
0.000623472
0.000414291
0.00026976
0.000171991
0.000107634
6.68877e-05
4.27546e-05
3.0422e-05
2.28588e-05
1.667e-05
1.15622e-05
7.55955e-06
4.63181e-06
2.65926e-06
1.43852e-06
7.39905e-07
3.65229e-07
1.75641e-07
8.27384e-08
3.82961e-08
1.74558e-08
7.84917e-09
3.48691e-09
1.53225e-09
6.66664e-10
2.87306e-10
1.22545e-10
5.15519e-11
2.11778e-11
8.26351e-12
2.79769e-12
4.92602e-13
0.999996
0.999985
0.999965
0.999932
0.999876
0.999784
0.999634
0.99939
0.998998
0.998378
0.997412
0.995935
0.993721
0.990479
0.985854
0.979443
0.970829
0.959632
0.945558
0.928443
0.908268
0.885156
0.859342
0.831144
0.800926
0.769077
0.735984
0.702026
0.667554
0.632893
0.598334
0.564132
0.530506
0.497641
0.465685
0.434758
0.40495
0.37633
0.348942
0.322813
0.297952
0.274355
0.252009
0.230887
0.21096
0.19219
0.174538
0.157958
0.142407
0.127838
0.114204
0.101461
0.0895631
0.0784682
0.0681354
0.0585265
0.0496066
0.0413442
0.0337128
0.0268525
0.0206127
0.0147255
0.00941303
0.00468477
0.00265244
0.00188026
0.00131628
0.000908425
0.000616784
0.000411128
0.00026857
0.000171835
0.000107976
6.74485e-05
4.34101e-05
3.10924e-05
2.33037e-05
1.69044e-05
1.16547e-05
7.57093e-06
4.60947e-06
2.63023e-06
1.41513e-06
7.24577e-07
3.56324e-07
1.70906e-07
8.03315e-08
3.71138e-08
1.68909e-08
7.58539e-09
3.36616e-09
1.47792e-09
6.42582e-10
2.76776e-10
1.18003e-10
4.96244e-11
2.0381e-11
7.9515e-12
2.69185e-12
4.73892e-13
0.999996
0.999985
0.999965
0.999931
0.999876
0.999784
0.999633
0.999388
0.998995
0.998373
0.997404
0.995923
0.993702
0.990451
0.985812
0.979383
0.970746
0.95952
0.945413
0.928261
0.908046
0.884892
0.859036
0.830795
0.800536
0.768646
0.735517
0.701523
0.66702
0.632331
0.597747
0.563523
0.52988
0.497
0.465034
0.434097
0.404283
0.37566
0.348272
0.322146
0.297291
0.273703
0.251366
0.230257
0.210343
0.191589
0.173953
0.157391
0.141858
0.127308
0.113695
0.100972
0.0890951
0.0780214
0.06771
0.0581225
0.0492237
0.0409822
0.0333709
0.0265187
0.0202999
0.0144327
0.00913863
0.00444604
0.00263362
0.00186983
0.00131159
0.000907254
0.000617548
0.000412785
0.000270482
0.000173648
0.000109533
6.87171e-05
4.44285e-05
3.18927e-05
2.38092e-05
1.71807e-05
1.17817e-05
7.61194e-06
4.60974e-06
2.61763e-06
1.40234e-06
7.15419e-07
3.50781e-07
1.67896e-07
7.8781e-08
3.63455e-08
1.65216e-08
7.41224e-09
3.28666e-09
1.44207e-09
6.26669e-10
2.69812e-10
1.14998e-10
4.83492e-11
1.98541e-11
7.74534e-12
2.62197e-12
4.61547e-13
0.999996
0.999985
0.999965
0.999931
0.999876
0.999783
0.999632
0.999387
0.998994
0.998371
0.997401
0.995917
0.993693
0.990437
0.985792
0.979354
0.970706
0.959466
0.945343
0.928172
0.907938
0.884763
0.858886
0.830624
0.800344
0.768435
0.735286
0.701275
0.666755
0.632052
0.597455
0.563221
0.52957
0.496683
0.46471
0.433769
0.403951
0.375325
0.347937
0.321812
0.29696
0.273376
0.251044
0.229941
0.210034
0.191288
0.17366
0.157107
0.141584
0.127044
0.113441
0.100729
0.0888628
0.0778
0.0674996
0.0579231
0.0490352
0.0408042
0.0332026
0.026362
0.0201536
0.0142972
0.00901385
0.00434024
0.00262752
0.00186936
0.00131387
0.000910652
0.000621149
0.000416108
0.00027331
0.000175921
0.000111281
7.00153e-05
4.53635e-05
3.25268e-05
2.41859e-05
1.73824e-05
1.18761e-05
7.64656e-06
4.61593e-06
2.61366e-06
1.39674e-06
7.11053e-07
3.48114e-07
1.66412e-07
7.80077e-08
3.59603e-08
1.63359e-08
7.32508e-09
3.24662e-09
1.42401e-09
6.18649e-10
2.66303e-10
1.13484e-10
4.77069e-11
1.95889e-11
7.64161e-12
2.58682e-12
4.55344e-13
0.999996
0.999985
0.999965
0.999931
0.999876
0.999783
0.999632
0.999387
0.998994
0.998371
0.997401
0.995917
0.993693
0.990437
0.985792
0.979353
0.970705
0.959465
0.945342
0.928171
0.907937
0.884762
0.858884
0.830622
0.800341
0.768432
0.735283
0.701271
0.666752
0.632048
0.597451
0.563217
0.529565
0.496678
0.464705
0.433764
0.403945
0.37532
0.347932
0.321807
0.296955
0.273371
0.251039
0.229936
0.21003
0.191283
0.173656
0.157103
0.14158
0.12704
0.113437
0.100725
0.0888594
0.0777969
0.0674969
0.0579208
0.0490333
0.0408027
0.033201
0.026361
0.0201529
0.0142963
0.00901271
0.00433949
0.00262756
0.00186901
0.00131337
0.000910158
0.000620741
0.000415808
0.000273108
0.000175794
0.000111207
6.99743e-05
4.53419e-05
3.25153e-05
2.41792e-05
1.73783e-05
1.18736e-05
7.64503e-06
4.61502e-06
2.61317e-06
1.39649e-06
7.10935e-07
3.48065e-07
1.66394e-07
7.80014e-08
3.59581e-08
1.63352e-08
7.3248e-09
3.24651e-09
1.42396e-09
6.18626e-10
2.66291e-10
1.13478e-10
4.77042e-11
1.95877e-11
7.64112e-12
2.58665e-12
4.55326e-13
0.999996
0.999985
0.999965
0.999931
0.999876
0.999784
0.999633
0.999388
0.998995
0.998373
0.997404
0.995922
0.993702
0.99045
0.985811
0.979381
0.970744
0.959518
0.94541
0.928257
0.908042
0.884887
0.85903
0.830788
0.800528
0.768638
0.735508
0.701513
0.667009
0.632319
0.597735
0.563511
0.529867
0.496987
0.465019
0.434083
0.404269
0.375645
0.348258
0.322132
0.297277
0.273689
0.251353
0.230244
0.210331
0.191577
0.173941
0.15738
0.141847
0.127298
0.113685
0.100962
0.0890857
0.0780125
0.0677014
0.0581144
0.0492162
0.040975
0.0333633
0.0265123
0.0202943
0.0144271
0.009133
0.00444268
0.00263392
0.00186944
0.00131079
0.000906361
0.000616777
0.000412215
0.000270107
0.000173425
0.000109414
6.8659e-05
4.44028e-05
3.18808e-05
2.38016e-05
1.71749e-05
1.17771e-05
7.60854e-06
4.60736e-06
2.61619e-06
1.40154e-06
7.15003e-07
3.50579e-07
1.67803e-07
7.87384e-08
3.63265e-08
1.65132e-08
7.40853e-09
3.28504e-09
1.44136e-09
6.26358e-10
2.69678e-10
1.1494e-10
4.8325e-11
1.98442e-11
7.74157e-12
2.6207e-12
4.61357e-13
0.999996
0.999985
0.999965
0.999932
0.999876
0.999784
0.999634
0.99939
0.998998
0.998378
0.997412
0.995934
0.99372
0.990478
0.985853
0.979441
0.970826
0.959628
0.945553
0.928436
0.90826
0.885147
0.859332
0.831132
0.800913
0.769062
0.735968
0.702008
0.667535
0.632873
0.598313
0.56411
0.530483
0.497617
0.465661
0.434734
0.404926
0.376305
0.348918
0.322789
0.297928
0.274332
0.251986
0.230865
0.210939
0.192169
0.174517
0.157938
0.142388
0.127819
0.114186
0.101443
0.0895454
0.0784508
0.0681184
0.0585099
0.0495904
0.0413286
0.0336974
0.0268387
0.0206005
0.0147138
0.00940237
0.00467791
0.00265406
0.00188159
0.00131696
0.000908542
0.000616614
0.000410881
0.000268357
0.000171685
0.000107885
6.73981e-05
4.33857e-05
3.1081e-05
2.32951e-05
1.68968e-05
1.16482e-05
7.56587e-06
4.60585e-06
2.628e-06
1.41383e-06
7.23887e-07
3.55983e-07
1.70745e-07
8.02567e-08
3.70797e-08
1.68755e-08
7.57851e-09
3.36311e-09
1.47657e-09
6.41991e-10
2.76521e-10
1.17894e-10
4.95785e-11
2.03623e-11
7.94439e-12
2.68947e-12
4.73528e-13
0.999997
0.999985
0.999965
0.999932
0.999877
0.999785
0.999635
0.999392
0.999002
0.998385
0.997423
0.995952
0.993748
0.990521
0.985915
0.97953
0.970949
0.959793
0.945767
0.928705
0.908588
0.885535
0.859783
0.831645
0.801486
0.769693
0.736654
0.702746
0.668319
0.6337
0.599177
0.565006
0.531406
0.498562
0.466623
0.435708
0.405908
0.377292
0.349903
0.32377
0.298901
0.275294
0.252933
0.231795
0.211849
0.193058
0.175381
0.158777
0.143199
0.128602
0.11494
0.102168
0.0902399
0.0791147
0.0687515
0.0591124
0.0501627
0.0418714
0.0342115
0.0273606
0.0210924
0.0151808
0.00985674
0.00511853
0.00271086
0.00191822
0.0013395
0.000921683
0.000623759
0.000414394
0.000269789
0.000172
0.000107643
6.69002e-05
4.27682e-05
3.04328e-05
2.28604e-05
1.66659e-05
1.15563e-05
7.5539e-06
4.62775e-06
2.65644e-06
1.43686e-06
7.38999e-07
3.64764e-07
1.7541e-07
8.26262e-08
3.8243e-08
1.74311e-08
7.83785e-09
3.48179e-09
1.52997e-09
6.65662e-10
2.86872e-10
1.2236e-10
5.14746e-11
2.11464e-11
8.2516e-12
2.79371e-12
4.91979e-13
0.999997
0.999985
0.999965
0.999932
0.999877
0.999786
0.999637
0.999396
0.999008
0.998394
0.997438
0.995976
0.993785
0.990577
0.985997
0.979648
0.971112
0.960011
0.946049
0.929059
0.909019
0.886047
0.860377
0.83232
0.802241
0.770525
0.737559
0.703718
0.669354
0.634791
0.600318
0.56619
0.532627
0.499812
0.467897
0.436999
0.40721
0.378599
0.35121
0.325072
0.300193
0.276571
0.254191
0.233031
0.213059
0.194239
0.176532
0.159894
0.144281
0.129648
0.115948
0.103136
0.0911694
0.0800044
0.0696011
0.059922
0.0509327
0.0426028
0.034906
0.0280431
0.0217504
0.015833
0.0105139
0.00580229
0.00283156
0.00199335
0.0013858
0.000949808
0.000640514
0.0004241
0.000275186
0.000174815
0.000108947
6.7331e-05
4.26723e-05
3.00147e-05
2.25544e-05
1.65278e-05
1.15344e-05
7.59289e-06
4.68613e-06
2.70935e-06
1.4747e-06
7.62409e-07
3.77907e-07
1.82249e-07
8.60492e-08
3.99049e-08
1.82181e-08
8.20274e-09
3.64792e-09
1.60442e-09
6.9856e-10
3.01226e-10
1.28544e-10
5.40974e-11
2.22306e-11
8.67638e-12
2.93788e-12
5.17493e-13
0.999997
0.999985
0.999965
0.999933
0.999878
0.999788
0.99964
0.9994
0.999015
0.998406
0.997457
0.996006
0.993831
0.990646
0.986099
0.979793
0.971313
0.960279
0.946396
0.929494
0.90955
0.886678
0.861108
0.833152
0.803172
0.771551
0.738675
0.704918
0.670632
0.636138
0.601728
0.567654
0.534137
0.501361
0.469475
0.4386
0.408826
0.380222
0.352834
0.326689
0.301799
0.27816
0.255758
0.234571
0.214568
0.195713
0.177968
0.16129
0.145634
0.130955
0.117208
0.104349
0.0923331
0.0811186
0.0706656
0.0609368
0.0518977
0.0435174
0.0357696
0.0288459
0.022509
0.0165596
0.0112235
0.00651705
0.00296613
0.00208243
0.00144405
0.000987339
0.00066431
0.000438912
0.000284192
0.000180109
0.000111881
6.87494e-05
4.30797e-05
2.96853e-05
2.23226e-05
1.64735e-05
1.1588e-05
7.69411e-06
4.7914e-06
2.79365e-06
1.53173e-06
7.96602e-07
3.96711e-07
1.91895e-07
9.08211e-08
4.21997e-08
1.92963e-08
8.6994e-09
3.87283e-09
1.70476e-09
7.42745e-10
3.2045e-10
1.36808e-10
5.75973e-11
2.36761e-11
9.24249e-12
3.13001e-12
5.51486e-13
0.999997
0.999985
0.999966
0.999933
0.999879
0.99979
0.999643
0.999405
0.999023
0.998419
0.997479
0.996041
0.993885
0.990727
0.986219
0.979963
0.971549
0.960595
0.946805
0.930007
0.910175
0.88742
0.86197
0.834133
0.804269
0.77276
0.739991
0.706334
0.67214
0.637731
0.603396
0.569388
0.535928
0.503197
0.471349
0.440502
0.410747
0.382153
0.354768
0.328618
0.303716
0.280058
0.257631
0.236413
0.216374
0.19748
0.17969
0.162964
0.147258
0.132526
0.118724
0.105807
0.0937322
0.0824575
0.0719434
0.0621526
0.0530512
0.0446087
0.0367987
0.0297383
0.0233353
0.0173105
0.0118873
0.0070799
0.0030811
0.00217347
0.00151073
0.00103431
0.000696352
0.000460141
0.000297844
0.000188592
0.000116909
7.14898e-05
4.42772e-05
2.97867e-05
2.23175e-05
1.65746e-05
1.17568e-05
7.88147e-06
4.95703e-06
2.91773e-06
1.61298e-06
8.4443e-07
4.22686e-07
2.05096e-07
9.72999e-08
4.5294e-08
2.07416e-08
9.36179e-09
4.17149e-09
1.83752e-09
8.01024e-10
3.45745e-10
1.47662e-10
6.21875e-11
2.55702e-11
9.98404e-12
3.38167e-12
5.96004e-13
0.999997
0.999985
0.999966
0.999934
0.99988
0.999792
0.999646
0.999411
0.999033
0.998435
0.997504
0.996081
0.993947
0.99082
0.986355
0.980158
0.971817
0.960954
0.947269
0.93059
0.910886
0.888265
0.862951
0.835251
0.80552
0.77414
0.741494
0.707953
0.673867
0.639556
0.605309
0.571379
0.537985
0.50531
0.473507
0.442694
0.412963
0.384384
0.357004
0.330851
0.305937
0.282259
0.259805
0.238554
0.218476
0.199536
0.181697
0.164917
0.149153
0.13436
0.120495
0.107512
0.0953696
0.0840256
0.0734407
0.0635778
0.0544029
0.0458858
0.037999
0.0307678
0.0242819
0.0181609
0.0126026
0.00761946
0.00331598
0.00232674
0.00161045
0.0011
0.000739766
0.000488675
0.000316346
0.000200322
0.000124085
7.56106e-05
4.63183e-05
3.03576e-05
2.25456e-05
1.68552e-05
1.20665e-05
8.17211e-06
5.19565e-06
3.0903e-06
1.72405e-06
9.09199e-07
4.57635e-07
2.22764e-07
1.05928e-07
4.93966e-08
2.265e-08
1.02333e-08
4.5632e-09
2.01117e-09
8.77082e-10
3.78695e-10
1.6178e-10
6.81523e-11
2.80303e-11
1.0947e-11
3.70851e-12
6.53816e-13
0.999997
0.999985
0.999966
0.999934
0.999881
0.999794
0.99965
0.999417
0.999043
0.998453
0.997532
0.996125
0.994015
0.990923
0.986506
0.980373
0.972114
0.961351
0.947785
0.931237
0.911675
0.889203
0.864041
0.836492
0.806912
0.775677
0.743169
0.709759
0.675794
0.641595
0.607449
0.573608
0.540292
0.507683
0.475933
0.445162
0.415463
0.386903
0.359533
0.333379
0.308454
0.284757
0.262276
0.24099
0.22087
0.201882
0.183989
0.16715
0.151323
0.136462
0.122526
0.10947
0.0972505
0.0858277
0.0751615
0.0652149
0.0559531
0.0473445
0.0393623
0.0319876
0.025381
0.0192961
0.0135651
0.00839129
0.00381787
0.00246052
0.00171514
0.00117698
0.000794088
0.000525823
0.000341053
0.00021629
0.000134051
8.15165e-05
4.9482e-05
3.16361e-05
2.31067e-05
1.7361e-05
1.25408e-05
8.58361e-06
5.52027e-06
3.32082e-06
1.87136e-06
9.94856e-07
5.03775e-07
2.46034e-07
1.17264e-07
5.47721e-08
2.51443e-08
1.13698e-08
5.07295e-09
2.23675e-09
9.75731e-10
4.21379e-10
1.80051e-10
7.58667e-11
3.12117e-11
1.2192e-11
4.13128e-12
7.28601e-13
0.999997
0.999985
0.999967
0.999935
0.999883
0.999796
0.999654
0.999424
0.999055
0.998472
0.997563
0.996173
0.994089
0.991035
0.98667
0.980606
0.972437
0.961783
0.948343