/*--------------------------------*- C++ -*----------------------------------*\
  =========                 |
  \\      /  F ield         | OpenFOAM: The Open Source CFD Toolbox
   \\    /   O peration     | Website:  https://openfoam.org
    \\  /    A nd           | Version:  8
     \\/     M anipulation  |
\*---------------------------------------------------------------------------*/
FoamFile
{
    version     2.0;
    format      ascii;
    class       volScalarField;
    location    "160/fluid";
    object      H2O;
}
// * * * * * * * * * * * * * * * * * * * * * * * * * * * * * * * * * * * * * //

dimensions      [0 0 0 0 0 0 0];

internalField   nonuniform List<scalar> 
4000
(
3.15118e-07
1.37577e-06
3.15366e-06
6.12045e-06
1.10455e-05
1.91711e-05
3.248e-05
5.4092e-05
8.88369e-05
0.000144045
0.000230584
0.000364115
0.000566433
0.000866598
0.00130134
0.00191408
0.00275206
0.00386139
0.00528091
0.00703645
0.00913724
0.0115755
0.0143285
0.017363
0.0206385
0.0241119
0.0277394
0.0314793
0.0352923
0.0391431
0.043
0.0468355
0.0506258
0.0543511
0.0579951
0.0615445
0.0649892
0.0683214
0.0715351
0.0746267
0.0775941
0.0804368
0.0831549
0.0857498
0.0882233
0.0905776
0.0928156
0.0949398
0.0969534
0.0988591
0.100659
0.102357
0.103953
0.105449
0.106846
0.108142
0.109336
0.110424
0.1114
0.112256
0.11298
0.113555
0.11396
0.114162
0.114128
0.113798
0.113091
0.111891
0.105735
0.0972045
0.0886094
0.0800549
0.071628
0.0634028
0.0554439
0.0478094
0.0405533
0.0337283
0.0274045
0.0216042
0.0164127
0.0119019
0.00814257
0.00519156
0.00305563
0.00165587
0.000831145
0.000393639
0.000179684
7.98555e-05
3.48007e-05
1.49468e-05
6.34907e-06
2.67299e-06
1.11579e-06
4.6059e-07
1.86238e-07
7.1751e-08
2.40877e-08
4.23069e-09
3.20521e-07
1.40019e-06
3.21312e-06
6.2449e-06
1.12888e-05
1.96271e-05
3.33063e-05
5.55441e-05
9.13112e-05
0.000148129
0.000237099
0.000374138
0.000581264
0.000887648
0.00132994
0.00195121
0.00279808
0.00391588
0.00534274
0.00710408
0.00920919
0.0116507
0.0144068
0.0174446
0.0207247
0.0242039
0.0278389
0.0315876
0.0354105
0.0392716
0.0431391
0.0469848
0.0507847
0.0545189
0.0581706
0.0617266
0.0651767
0.0685131
0.0717299
0.0748233
0.0777916
0.0806341
0.0833513
0.0859444
0.0884153
0.0907666
0.0930009
0.095121
0.09713
0.0990307
0.100826
0.102517
0.104107
0.105597
0.106986
0.108274
0.109458
0.110535
0.111498
0.112338
0.113042
0.113593
0.113968
0.114137
0.114071
0.113725
0.113049
0.112003
0.104437
0.0957918
0.0871158
0.0785004
0.0700261
0.0617642
0.0537788
0.0461289
0.0388708
0.0320613
0.0257906
0.0200588
0.0149782
0.0106261
0.00707593
0.00437329
0.00249332
0.00131471
0.00064796
0.000305452
0.000139776
6.25705e-05
2.75407e-05
1.19618e-05
5.13987e-06
2.18845e-06
9.23472e-07
3.85127e-07
1.57205e-07
6.10664e-08
2.06288e-08
3.63514e-09
3.2882e-07
1.43699e-06
3.29989e-06
6.41922e-06
1.16147e-05
2.02108e-05
3.43186e-05
5.72515e-05
9.41153e-05
0.000152612
0.000244074
0.000384679
0.000596722
0.000909613
0.00136014
0.00199133
0.00284954
0.00397959
0.00541895
0.00719244
0.00930894
0.011761
0.014527
0.0175746
0.0208648
0.024355
0.028002
0.0317638
0.0356008
0.0394769
0.0433596
0.0472206
0.0510354
0.0547836
0.0584482
0.0620158
0.065476
0.0688208
0.0720442
0.0751427
0.0781143
0.0809586
0.083676
0.086268
0.0887366
0.0910843
0.0933139
0.0954285
0.097431
0.0993243
0.101111
0.102794
0.104374
0.105852
0.107229
0.108502
0.10967
0.110728
0.111667
0.112476
0.113141
0.113639
0.113938
0.114002
0.113779
0.113196
0.112164
0.110591
0.102061
0.0933756
0.0846609
0.0760184
0.067534
0.0592823
0.0513301
0.0437392
0.0365697
0.0298827
0.0237681
0.0182389
0.0134052
0.00933889
0.00609867
0.00369991
0.00207888
0.00108702
0.000534502
0.000252377
0.000115806
5.19817e-05
2.29303e-05
9.9741e-06
4.28906e-06
1.82659e-06
7.707e-07
3.21365e-07
1.31177e-07
5.09676e-08
1.72232e-08
3.036e-09
3.36873e-07
1.47228e-06
3.38134e-06
6.5786e-06
1.19043e-05
2.07148e-05
3.517e-05
5.86546e-05
9.63772e-05
0.000156182
0.000249586
0.000393009
0.000609021
0.000927331
0.00138499
0.00202521
0.00289437
0.00403714
0.00549072
0.00727953
0.0094121
0.0118807
0.0146635
0.0177282
0.0210357
0.0245435
0.0282085
0.0319885
0.035844
0.0397386
0.0436398
0.0475188
0.051351
0.0551155
0.0587954
0.0623769
0.0658493
0.0692044
0.0724364
0.0755416
0.0785181
0.0813654
0.0840841
0.0866757
0.0891422
0.0914865
0.0937112
0.0958196
0.0978148
0.0996995
0.101477
0.103148
0.104716
0.106181
0.107542
0.108799
0.109947
0.110982
0.111893
0.11267
0.113293
0.113736
0.113962
0.113925
0.113547
0.112705
0.111206
0.107835
0.0992275
0.0904817
0.081731
0.0730817
0.0646214
0.0564251
0.0485601
0.041089
0.0340731
0.0275821
0.0216624
0.0163932
0.0118478
0.00809144
0.00516775
0.00306476
0.00168736
0.000868731
0.00042303
0.000199137
9.13656e-05
4.10837e-05
1.81759e-05
7.93446e-06
3.42521e-06
1.46433e-06
6.20077e-07
2.59382e-07
1.06158e-07
4.13321e-08
1.39868e-08
2.46703e-09
3.44439e-07
1.50536e-06
3.4575e-06
6.72721e-06
1.2174e-05
2.1185e-05
3.59678e-05
5.99801e-05
9.85373e-05
0.000159635
0.000255
0.000401316
0.000621474
0.000945531
0.00141087
0.00206094
0.00294222
0.00409928
0.005569
0.0073754
0.00952658
0.0120145
0.014817
0.0179018
0.0212296
0.024758
0.0284437
0.0322445
0.0361208
0.040036
0.0439572
0.0478557
0.0517065
0.0554885
0.0591845
0.0627805
0.0662658
0.0696319
0.072873
0.0759853
0.0789671
0.0818178
0.084538
0.0871294
0.089594
0.0919346
0.0941542
0.0962559
0.098243
0.100118
0.101885
0.103544
0.105099
0.106548
0.107893
0.10913
0.110257
0.111266
0.11215
0.112893
0.113479
0.113883
0.11407
0.114014
0.113663
0.112966
0.111889
0.105019
0.0962325
0.0873935
0.0786104
0.0699758
0.0615703
0.0534649
0.0457242
0.0384092
0.0315798
0.0253268
0.019651
0.0146588
0.0104153
0.00697567
0.00436341
0.00253709
0.00137451
0.000699878
0.000339241
0.000159444
7.31638e-05
3.29311e-05
1.45883e-05
6.37726e-06
2.75667e-06
1.17994e-06
5.00168e-07
2.09398e-07
8.57548e-08
3.34022e-08
1.1306e-08
1.99421e-09
3.51394e-07
1.53574e-06
3.52725e-06
6.86297e-06
1.24198e-05
2.16127e-05
3.66926e-05
6.1184e-05
0.000100501
0.000162783
0.000259954
0.00040896
0.000633024
0.000962581
0.00143541
0.00209531
0.00298897
0.00416097
0.005648
0.00747368
0.00964562
0.0121553
0.0149803
0.0180878
0.0214384
0.0249896
0.028698
0.0325213
0.0364195
0.0403562
0.0442981
0.0482164
0.0520858
0.0558851
0.059597
0.0632072
0.0667049
0.0700817
0.0733315
0.0764507
0.0794374
0.0822912
0.0850126
0.0876033
0.0900655
0.0924021
0.0946161
0.0967107
0.0986891
0.100554
0.102309
0.103955
0.105495
0.106928
0.108254
0.10947
0.110572
0.111552
0.1124
0.113101
0.113632
0.11396
0.11405
0.113849
0.113283
0.112261
0.110688
0.101958
0.0930938
0.0842233
0.0754517
0.0668681
0.0585494
0.0505641
0.0429749
0.0358413
0.0292228
0.0231925
0.0177802
0.0130727
0.00912982
0.00599595
0.00367388
0.00209506
0.00111705
0.0005623
0.000271133
0.000127121
5.82942e-05
2.62514e-05
1.16434e-05
5.0981e-06
2.2077e-06
9.46663e-07
4.01947e-07
1.68512e-07
6.90844e-08
2.6928e-08
9.11823e-09
1.60837e-09
3.57914e-07
1.56423e-06
3.59273e-06
6.9906e-06
1.26514e-05
2.20168e-05
3.73804e-05
6.2332e-05
0.000102385
0.000165822
0.000264769
0.000416445
0.000644413
0.00097951
0.00145993
0.00212985
0.0030362
0.00422361
0.00572856
0.00757431
0.00976796
0.0123005
0.015149
0.0182804
0.0216551
0.0252301
0.028962
0.0328083
0.036729
0.0406872
0.0446498
0.0485875
0.0524751
0.0562911
0.0600181
0.0636417
0.0671509
0.0705374
0.073795
0.0769203
0.0799111
0.0827672
0.0854891
0.0880785
0.0905378
0.0928698
0.0950775
0.0971644
0.0991336
0.100988
0.102731
0.104363
0.105887
0.107302
0.108608
0.109801
0.110877
0.111826
0.112637
0.113292
0.113765
0.114014
0.113999
0.113636
0.112802
0.111294
0.107588
0.0988422
0.0899692
0.0811133
0.0723862
0.0638785
0.0556666
0.0478171
0.040391
0.0334464
0.0270521
0.0212408
0.0160889
0.011659
0.0080048
0.00515825
0.00310019
0.00173751
0.000913939
0.000455793
0.000218895
0.000102436
4.69475e-05
2.1146e-05
9.38523e-06
4.11317e-06
1.78303e-06
7.65361e-07
3.25273e-07
1.36471e-07
5.59779e-08
2.18255e-08
7.39115e-09
1.30355e-09
3.6407e-07
1.59113e-06
3.65458e-06
7.11124e-06
1.28705e-05
2.23996e-05
3.80329e-05
6.34234e-05
0.00010418
0.000168727
0.000269389
0.000423655
0.000655433
0.00099597
0.0014839
0.00216379
0.00308286
0.0042858
0.00580893
0.00767511
0.00989094
0.0124468
0.0153194
0.0184752
0.0218742
0.0254734
0.0292289
0.0330981
0.0370409
0.0410202
0.0450027
0.0489591
0.0528638
0.0566954
0.0604363
0.0640721
0.0675917
0.0709867
0.0742511
0.0773812
0.0803752
0.0832327
0.0859542
0.0885416
0.0909972
0.093324
0.095525
0.0976036
0.099563
0.101406
0.103136
0.104754
0.106262
0.107659
0.108945
0.110115
0.111164
0.112084
0.112861
0.113479
0.113912
0.114128
0.114102
0.113784
0.113128
0.112103
0.104855
0.0959631
0.0870349
0.078184
0.0695063
0.0610834
0.0529863
0.0452779
0.0380165
0.0312582
0.0250877
0.0195002
0.0145936
0.0104245
0.00703887
0.00445412
0.00262931
0.00145061
0.000753839
0.000372811
0.000178377
8.33153e-05
3.81552e-05
1.71856e-05
7.63107e-06
3.34695e-06
1.4522e-06
6.2394e-07
2.65397e-07
1.11425e-07
4.5725e-08
1.78323e-08
6.03904e-09
1.06492e-09
3.69915e-07
1.61669e-06
3.71338e-06
7.22602e-06
1.30792e-05
2.27649e-05
3.86568e-05
6.44696e-05
0.000105906
0.000171527
0.000273856
0.000430648
0.000666155
0.00101203
0.00150735
0.00219709
0.00312873
0.00434706
0.00588821
0.00777467
0.0100125
0.0125916
0.0154881
0.018668
0.0220911
0.0257139
0.0294924
0.033384
0.0373481
0.0413475
0.0453489
0.0493227
0.0532434
0.0570893
0.0608428
0.0644894
0.068018
0.0714203
0.0746902
0.0778242
0.0808203
0.0836782
0.0863986
0.0889832
0.0914344
0.0937553
0.0959491
0.098019
0.0999683
0.1018
0.103517
0.10512
0.106612
0.10799
0.109254
0.1104
0.11142
0.112304
0.113037
0.113598
0.113955
0.114072
0.113902
0.113373
0.112397
0.110896
0.102111
0.0931861
0.084261
0.0754476
0.0668384
0.058512
0.050536
0.0429713
0.0358744
0.0293
0.0233205
0.017953
0.0132807
0.00935602
0.00621784
0.00386851
0.00224678
0.0012226
0.000628799
0.000308795
0.000147287
6.86783e-05
3.14276e-05
1.41528e-05
6.2857e-06
2.75813e-06
1.19743e-06
5.14795e-07
2.19094e-07
9.20235e-08
3.77721e-08
1.47321e-08
4.98876e-09
8.79516e-10
3.75455e-07
1.64091e-06
3.76913e-06
7.33492e-06
1.32774e-05
2.31121e-05
3.92507e-05
6.54667e-05
0.000107553
0.000174205
0.000278136
0.000437362
0.000676471
0.00102752
0.00153
0.0022293
0.00317318
0.00440648
0.00596519
0.0078714
0.0101307
0.0127324
0.015652
0.0188553
0.0223016
0.0259472
0.0297478
0.0336605
0.0376448
0.0416631
0.0456821
0.049672
0.0536071
0.057466
0.0612306
0.0648867
0.068423
0.0718313
0.0751056
0.0782424
0.0812396
0.0840971
0.0868154
0.0893966
0.091843
0.0941576
0.0963437
0.0984047
0.100344
0.102164
0.103868
0.105456
0.106931
0.108292
0.109535
0.110656
0.111647
0.112497
0.113187
0.113693
0.113968
0.113978
0.11364
0.112835
0.111384
0.108382
0.0995567
0.0906215
0.0817159
0.0729504
0.0644154
0.0561867
0.04833
0.0409042
0.0339645
0.0275652
0.0217567
0.016596
0.0121412
0.00844122
0.0055269
0.00338561
0.00193795
0.00104191
0.000531074
0.000259384
0.00012337
5.74322e-05
2.62591e-05
1.18215e-05
5.25045e-06
2.30447e-06
1.00086e-06
4.30474e-07
1.83278e-07
7.70001e-08
3.16089e-08
1.23283e-08
4.17426e-09
7.35731e-10
3.80672e-07
1.66372e-06
3.82166e-06
7.43757e-06
1.34643e-05
2.344e-05
3.9812e-05
6.64103e-05
0.000109114
0.000176746
0.000282204
0.000443751
0.0006863
0.00104229
0.00155163
0.00226009
0.00321567
0.00446331
0.00603881
0.00796392
0.0102437
0.0128669
0.0158086
0.0190341
0.0225024
0.0261694
0.0299908
0.0339233
0.0379262
0.0419621
0.0459971
0.0500016
0.0539498
0.0578201
0.0615945
0.0652586
0.0688015
0.0722146
0.0754923
0.0786308
0.0816284
0.0844846
0.0872004
0.0897775
0.0922186
0.0945267
0.096705
0.0987569
0.100686
0.102494
0.104185
0.10576
0.107219
0.108562
0.109786
0.110886
0.111855
0.112681
0.113347
0.113829
0.114086
0.11409
0.113771
0.113042
0.111781
0.106163
0.0972732
0.0883194
0.0794313
0.0707127
0.0622494
0.0541135
0.0463679
0.0390696
0.0322719
0.0260431
0.0204016
0.0154246
0.011165
0.00766658
0.00495092
0.00299043
0.00168993
0.000899154
0.000454786
0.000221246
0.000104968
4.87908e-05
2.22881e-05
1.00292e-05
4.45374e-06
1.9549e-06
8.49194e-07
3.65324e-07
1.55571e-07
6.53664e-08
2.68328e-08
1.04648e-08
3.5427e-09
6.24235e-10
3.85532e-07
1.68498e-06
3.8706e-06
7.53326e-06
1.36387e-05
2.37459e-05
4.03361e-05
6.72923e-05
0.000110575
0.000179126
0.000286017
0.000449747
0.00069553
0.00105617
0.00157197
0.00228904
0.00325565
0.00451677
0.00610806
0.0080509
0.0103499
0.0129932
0.0159556
0.0192018
0.0226905
0.0263774
0.0302179
0.0341686
0.0381887
0.0422403
0.0462899
0.0503074
0.0542672
0.0581475
0.0619304
0.0656014
0.0691495
0.0725665
0.0758466
0.0789861
0.0819832
0.0848377
0.0875504
0.0901232
0.0925588
0.0948601
0.0970305
0.0990733
0.100992
0.102789
0.104467
0.106027
0.10747
0.108795
0.109999
0.111078
0.112022
0.112822
0.11346
0.113916
0.114154
0.114157
0.113872
0.113247
0.112241
0.10424
0.0952598
0.0862773
0.0774023
0.0687275
0.0603318
0.0522829
0.0446405
0.0374593
0.0307914
0.02471
0.0192215
0.0144141
0.0103317
0.00701395
0.00447325
0.00266841
0.00149125
0.000786414
0.000395172
0.000191606
9.07121e-05
4.21072e-05
1.92189e-05
8.64403e-06
3.83777e-06
1.68446e-06
7.31763e-07
3.14839e-07
1.34083e-07
5.63382e-08
2.31245e-08
9.01758e-09
3.05222e-09
5.37646e-10
3.89991e-07
1.70448e-06
3.91552e-06
7.62112e-06
1.37988e-05
2.40271e-05
4.08183e-05
6.81041e-05
0.00011192
0.00018132
0.000289534
0.00045528
0.000704055
0.00106899
0.00159076
0.0023158
0.00329259
0.00456616
0.00617201
0.00813118
0.0104478
0.0131097
0.016091
0.0193561
0.0228634
0.0265684
0.0304263
0.0343935
0.0384288
0.0424947
0.0465571
0.0505861
0.054556
0.0584449
0.0622349
0.0659117
0.0694642
0.0728842
0.0761659
0.0793057
0.0823019
0.0851542
0.0878635
0.0904319
0.0928619
0.0951565
0.0973191
0.0993531
0.101262
0.103047
0.104712
0.106258
0.107685
0.108991
0.110173
0.111225
0.112137
0.112897
0.113484
0.113872
0.114025
0.113906
0.113447
0.112562
0.111165
0.102346
0.0933816
0.0844234
0.0755877
0.0669686
0.0586441
0.0506802
0.0431353
0.0360624
0.0295126
0.0235502
0.0182015
0.0135471
0.00962528
0.006468
0.00407966
0.00240728
0.00133253
0.000697437
0.000348533
0.000168519
7.96347e-05
3.69204e-05
1.68383e-05
7.56965e-06
3.35988e-06
1.47454e-06
6.40561e-07
2.75605e-07
1.17375e-07
4.93149e-08
2.02393e-08
7.89143e-09
2.67062e-09
4.70284e-10
3.94006e-07
1.72204e-06
3.95597e-06
7.70025e-06
1.39431e-05
2.42806e-05
4.12531e-05
6.88367e-05
0.000113135
0.000183303
0.000292714
0.000460286
0.000711768
0.0010806
0.00160777
0.00234002
0.00332602
0.00461084
0.00622983
0.00820372
0.0105362
0.0132147
0.016213
0.0194951
0.0230191
0.0267403
0.0306136
0.0345953
0.0386442
0.0427225
0.0467961
0.0508352
0.0548137
0.05871
0.0625059
0.0661874
0.0697433
0.0731655
0.0764483
0.0795879
0.0825828
0.0854327
0.0881387
0.0907026
0.0931272
0.0954154
0.0975707
0.0995963
0.101495
0.10327
0.104924
0.106456
0.107867
0.109155
0.110316
0.111342
0.112222
0.112941
0.113474
0.113783
0.113836
0.113571
0.112899
0.111705
0.109718
0.100787
0.0917809
0.0828229
0.074016
0.0654464
0.0571874
0.0493023
0.0418476
0.0348754
0.0284358
0.0225815
0.0173645
0.0128296
0.00903921
0.00601925
0.00375973
0.0021976
0.00120655
0.000627465
0.000312096
0.000150537
7.10212e-05
3.28902e-05
1.49889e-05
6.73488e-06
2.98843e-06
1.3113e-06
5.69598e-07
2.45062e-07
1.04362e-07
4.38433e-08
1.79913e-08
7.01401e-09
2.37336e-09
4.17816e-10
3.97533e-07
1.73747e-06
3.99151e-06
7.76978e-06
1.407e-05
2.45035e-05
4.16357e-05
6.94817e-05
0.000114204
0.000185049
0.000295517
0.0004647
0.000718573
0.00109085
0.00162279
0.00236139
0.00335551
0.00465024
0.00628079
0.00826763
0.0106141
0.0133072
0.0163203
0.0196173
0.0231558
0.0268911
0.0307778
0.0347721
0.0388327
0.0429217
0.0470049
0.0510524
0.0550382
0.0589406
0.0627415
0.0664267
0.0699853
0.0734091
0.0766924
0.0798316
0.082825
0.0856725
0.0883751
0.0909349
0.0933544
0.0956368
0.0977854
0.0998035
0.101694
0.10346
0.105103
0.106624
0.108022
0.109296
0.11044
0.111447
0.112304
0.112996
0.113495
0.113759
0.113758
0.113416
0.112637
0.111287
0.108319
0.0993893
0.0903902
0.0814523
0.0726794
0.0641569
0.0559569
0.0481413
0.040766
0.0338833
0.0275467
0.021809
0.0166992
0.0122734
0.00857686
0.00565959
0.00350394
0.00203118
0.00110737
0.000572758
0.000283745
0.000136575
6.43399e-05
2.9765e-05
1.35545e-05
6.08722e-06
2.70009e-06
1.1845e-06
5.14448e-07
2.21313e-07
9.42392e-08
3.9586e-08
1.62421e-08
6.3313e-09
2.1421e-09
3.77003e-10
4.00531e-07
1.75058e-06
4.02173e-06
7.82893e-06
1.41779e-05
2.46933e-05
4.19615e-05
7.00313e-05
0.000115117
0.00018654
0.00029791
0.000468469
0.000724385
0.00109959
0.00163561
0.00237965
0.00338069
0.00468387
0.00632428
0.00832213
0.0106805
0.013386
0.0164117
0.0197212
0.0232721
0.0270192
0.0309172
0.0349221
0.0389925
0.0430904
0.0471816
0.0512361
0.0552279
0.0591352
0.06294
0.0666282
0.0701888
0.0736137
0.0768972
0.0800357
0.0830276
0.0858728
0.0885723
0.0911283
0.0935433
0.0958206
0.0979633
0.0999749
0.101858
0.103617
0.105251
0.106763
0.108152
0.109415
0.110549
0.111545
0.112392
0.113074
0.113567
0.11383
0.113836
0.113517
0.112787
0.11153
0.107258
0.0982785
0.0892636
0.080333
0.0715843
0.0630987
0.0549458
0.0471864
0.0398764
0.0330682
0.0268093
0.0211322
0.0161048
0.011778
0.00819542
0.00536965
0.00329975
0.00189994
0.00102992
0.000530333
0.000261855
0.000125815
5.9194e-05
2.73582e-05
1.24496e-05
5.58801e-06
2.47771e-06
1.08665e-06
4.71862e-07
2.02965e-07
8.64158e-08
3.62949e-08
1.48899e-08
5.8036e-09
1.96339e-09
3.45466e-10
4.02967e-07
1.76124e-06
4.0463e-06
7.87702e-06
1.42657e-05
2.48477e-05
4.22268e-05
7.0479e-05
0.00011586
0.000187755
0.000299862
0.000471546
0.000729131
0.00110674
0.00164609
0.00239456
0.00340126
0.00471133
0.00635978
0.00836661
0.0107346
0.0134502
0.0164862
0.0198059
0.0233668
0.0271235
0.0310307
0.0350441
0.0391224
0.0432274
0.047325
0.051385
0.0553815
0.0592926
0.0631004
0.0667908
0.0703528
0.0737784
0.0770618
0.0801995
0.08319
0.0860331
0.0887299
0.0912826
0.0936938
0.0959667
0.0981046
0.100111
0.101989
0.10374
0.105368
0.106873
0.108255
0.109512
0.110639
0.111631
0.112476
0.113159
0.11366
0.113942
0.113983
0.113727
0.113102
0.112015
0.106455
0.0974178
0.0883806
0.0794515
0.0707211
0.062267
0.0541555
0.0464449
0.0391876
0.0324281
0.0262148
0.0206016
0.0156433
0.0113904
0.00788394
0.00514454
0.00314222
0.00179915
0.000970799
0.000498095
0.000245267
0.000117667
5.52979e-05
2.55353e-05
1.16123e-05
5.20952e-06
2.309e-06
1.01238e-06
4.3952e-07
1.89025e-07
8.04706e-08
3.37939e-08
1.38623e-08
5.40271e-09
1.82764e-09
3.21518e-10
4.04814e-07
1.76932e-06
4.06493e-06
7.91351e-06
1.43324e-05
2.4965e-05
4.24285e-05
7.08196e-05
0.000116426
0.000188681
0.000301351
0.000473893
0.000732753
0.0011122
0.00165408
0.00240594
0.00341697
0.0047323
0.00638688
0.00840056
0.0107759
0.0134992
0.016543
0.0198705
0.0234389
0.027203
0.031117
0.0351369
0.0392211
0.0433314
0.0474337
0.0514978
0.0554978
0.0594117
0.0632216
0.0669135
0.0704765
0.0739024
0.0771856
0.0803225
0.0833117
0.0861531
0.0888477
0.0913977
0.0938058
0.0960751
0.0982091
0.100211
0.102084
0.103831
0.105454
0.106954
0.10833
0.109582
0.110704
0.111692
0.112534
0.113218
0.113723
0.114017
0.114076
0.113852
0.113275
0.112259
0.105791
0.0967392
0.0877023
0.0787853
0.0700756
0.0616477
0.0535648
0.0458841
0.038657
0.0319362
0.0257703
0.0202067
0.015301
0.0111035
0.00765403
0.00497075
0.00302532
0.00172499
0.000927391
0.000474472
0.000233128
0.000111707
5.24488e-05
2.42023e-05
1.1e-05
4.93271e-06
2.1856e-06
9.5805e-07
4.15865e-07
1.78831e-07
7.61243e-08
3.19662e-08
1.31119e-08
5.11006e-09
1.7286e-09
3.0405e-10
4.06051e-07
1.77473e-06
4.0774e-06
7.93795e-06
1.4377e-05
2.50437e-05
4.25637e-05
7.10481e-05
0.000116807
0.000189303
0.000302351
0.000475472
0.000735191
0.00111587
0.00165948
0.00241362
0.00342756
0.00474645
0.00640518
0.00842349
0.0108039
0.0135323
0.0165814
0.0199141
0.0234877
0.0272566
0.0311753
0.0351995
0.0392877
0.0434015
0.0475069
0.0515736
0.0555756
0.0594911
0.0633024
0.0669954
0.0705591
0.0739852
0.0772681
0.0804044
0.0833926
0.0862326
0.0889256
0.0914736
0.0938794
0.0961461
0.0982771
0.100276
0.102146
0.103889
0.105508
0.107003
0.108376
0.109623
0.110741
0.111724
0.112563
0.113243
0.113746
0.114038
0.114097
0.113873
0.113298
0.112286
0.105297
0.0962496
0.0872225
0.0783186
0.0696243
0.0612135
0.0531515
0.0454953
0.038297
0.0316065
0.0254726
0.0199428
0.0150729
0.0109129
0.00750217
0.00485725
0.0029471
0.00167564
0.00089852
0.0004587
0.000225005
0.000107716
5.05396e-05
2.33091e-05
1.05898e-05
4.74736e-06
2.10303e-06
9.21718e-07
4.00058e-07
1.72026e-07
7.32257e-08
3.07488e-08
1.26126e-08
4.91563e-09
1.66286e-09
2.92463e-10
4.06664e-07
1.77741e-06
4.08357e-06
7.95e-06
1.4399e-05
2.50822e-05
4.26299e-05
7.11597e-05
0.000116992
0.000189606
0.000302837
0.000476238
0.000736373
0.00111765
0.00166209
0.00241734
0.0034327
0.00475332
0.00641407
0.00843465
0.0108175
0.0135485
0.0166002
0.0199356
0.0235117
0.0272831
0.0312042
0.0352305
0.0393207
0.0434363
0.0475431
0.051611
0.0556138
0.05953
0.063342
0.0670356
0.0705997
0.074026
0.0773088
0.0804448
0.0834325
0.0862717
0.0889638
0.0915106
0.0939151
0.0961804
0.0983098
0.100307
0.102175
0.103916
0.105532
0.107025
0.108395
0.109639
0.110755
0.111735
0.11257
0.113247
0.113745
0.114033
0.114086
0.113856
0.113276
0.112263
0.105036
0.0959868
0.0869644
0.078069
0.0693858
0.0609882
0.0529401
0.0452984
0.0381155
0.0314411
0.025324
0.0198117
0.0149601
0.010819
0.0074275
0.00480129
0.0029079
0.00165097
0.000884211
0.000450914
0.000221045
0.000105765
4.96056e-05
2.28719e-05
1.03889e-05
4.65651e-06
2.06251e-06
9.03871e-07
3.92283e-07
1.68673e-07
7.17957e-08
3.01474e-08
1.23657e-08
4.81933e-09
1.63026e-09
2.86717e-10
4.06667e-07
1.77743e-06
4.0836e-06
7.95006e-06
1.43991e-05
2.50824e-05
4.26302e-05
7.11601e-05
0.000116992
0.000189606
0.000302838
0.000476239
0.000736373
0.00111765
0.00166208
0.00241734
0.00343269
0.0047533
0.00641404
0.0084346
0.0108174
0.0135484
0.0166001
0.0199355
0.0235116
0.027283
0.031204
0.0352304
0.0393205
0.0434361
0.047543
0.0516108
0.0556136
0.0595298
0.0633417
0.0670353
0.0705994
0.0740256
0.0773084
0.0804444
0.0834321
0.0862713
0.0889633
0.0915102
0.0939147
0.0961799
0.0983094
0.100306
0.102174
0.103915
0.105532
0.107025
0.108395
0.109639
0.110755
0.111735
0.11257
0.113247
0.113746
0.114033
0.114087
0.113856
0.113275
0.112262
0.105033
0.0959837
0.086961
0.0780657
0.0693827
0.0609853
0.0529375
0.0452961
0.0381134
0.0314392
0.0253224
0.0198103
0.0149589
0.010818
0.00742666
0.00480062
0.00290741
0.00165068
0.000884049
0.00045083
0.000221003
0.000105744
4.95953e-05
2.2867e-05
1.03866e-05
4.65548e-06
2.06206e-06
9.03674e-07
3.92199e-07
1.68638e-07
7.17811e-08
3.01414e-08
1.23633e-08
4.81842e-09
1.62994e-09
2.86664e-10
4.06061e-07
1.77478e-06
4.0775e-06
7.93814e-06
1.43774e-05
2.50442e-05
4.25646e-05
7.10495e-05
0.000116809
0.000189306
0.000302355
0.000475476
0.000735195
0.00111587
0.00165947
0.00241361
0.00342754
0.00474641
0.0064051
0.00842337
0.0108037
0.0135321
0.0165811
0.0199138
0.0234873
0.0272562
0.0311749
0.035199
0.0392871
0.043401
0.0475064
0.0515731
0.0555751
0.0594905
0.0633017
0.0669946
0.0705582
0.0739842
0.0772671
0.0804034
0.0833916
0.0862315
0.0889244
0.0914723
0.0938781
0.0961447
0.0982758
0.100275
0.102144
0.103887
0.105506
0.107002
0.108375
0.109622
0.110741
0.111724
0.112563
0.113244
0.113747
0.114039
0.114097
0.113872
0.113296
0.112285
0.105289
0.0962409
0.087213
0.078309
0.0696152
0.0612052
0.0531441
0.0454886
0.038291
0.0316011
0.0254678
0.0199385
0.0150692
0.0109098
0.00749958
0.00485515
0.00294528
0.00167482
0.000898117
0.000458501
0.000224908
0.000107668
5.05169e-05
2.32986e-05
1.0585e-05
4.74524e-06
2.1021e-06
9.21318e-07
3.99888e-07
1.71954e-07
7.31959e-08
3.07366e-08
1.26077e-08
4.91372e-09
1.66218e-09
2.92354e-10
4.04832e-07
1.7694e-06
4.0651e-06
7.91386e-06
1.4333e-05
2.49661e-05
4.24302e-05
7.08224e-05
0.000116431
0.000188687
0.00030136
0.000473906
0.000732769
0.00111221
0.0016541
0.00240596
0.00341697
0.00473228
0.00638683
0.00840047
0.0107758
0.013499
0.0165427
0.0198701
0.0234385
0.0272025
0.0311164
0.0351363
0.0392204
0.0433307
0.0474329
0.051497
0.0554969
0.0594107
0.0632206
0.0669123
0.0704753
0.0739011
0.0771841
0.080321
0.0833101
0.0861513
0.0888458
0.0913957
0.0938037
0.0960729
0.0982068
0.100209
0.102082
0.103829
0.105451
0.106951
0.108328
0.10958
0.110702
0.11169
0.112533
0.113217
0.113722
0.114015
0.114074
0.113848
0.113272
0.11226
0.105778
0.0967258
0.0876883
0.0787709
0.0700613
0.0616342
0.0535523
0.0458727
0.0386469
0.0319272
0.0257622
0.0201995
0.0152948
0.0110982
0.00764991
0.00496794
0.00302401
0.00172386
0.000926678
0.000474084
0.000232934
0.000111615
5.2406e-05
2.41829e-05
1.09913e-05
4.92893e-06
2.18397e-06
9.57358e-07
4.15575e-07
1.78711e-07
7.60751e-08
3.19464e-08
1.3104e-08
5.10702e-09
1.72752e-09
3.03878e-10
4.02993e-07
1.76135e-06
4.04656e-06
7.87753e-06
1.42666e-05
2.48493e-05
4.22294e-05
7.04832e-05
0.000115867
0.000187765
0.000299877
0.000471567
0.000729159
0.00110678
0.00164613
0.0023946
0.0034013
0.00471135
0.00635977
0.00836655
0.0107345
0.01345
0.0164859
0.0198056
0.0233663
0.027123
0.03103
0.0350433
0.0391215
0.0432265
0.0473239
0.0513839
0.0553803
0.0592914
0.0630991
0.0667893
0.0703512
0.0737767
0.0770599
0.0801974
0.0831877
0.0860307
0.0887274
0.0912799
0.0936909
0.0959636
0.0981014
0.100107
0.101985
0.103737
0.105365
0.10687
0.108251
0.109508
0.110635
0.111627
0.112471
0.113154
0.113655
0.113937
0.113979
0.113724
0.113102
0.112019
0.106433
0.097397
0.0883607
0.0794325
0.0707028
0.0622493
0.0541386
0.046429
0.0391728
0.0324148
0.026203
0.0205912
0.0156343
0.0113828
0.00787785
0.00514002
0.00313903
0.00179716
0.000969684
0.000497517
0.000244988
0.000117536
5.52381e-05
2.55086e-05
1.16005e-05
5.20446e-06
2.30685e-06
1.01148e-06
4.39148e-07
1.88874e-07
8.04095e-08
3.37696e-08
1.38528e-08
5.39907e-09
1.82635e-09
3.21316e-10
4.00566e-07
1.75073e-06
4.02208e-06
7.82961e-06
1.41792e-05
2.46954e-05
4.19651e-05
7.00371e-05
0.000115126
0.000186554
0.000297932
0.0004685
0.000724428
0.00109965
0.00163568
0.00237973
0.00338078
0.00468394
0.00632433
0.00832214
0.0106804
0.0133858
0.0164115
0.0197209
0.0232716
0.0270186
0.0309165
0.0349213
0.0389916
0.0430894
0.0471805
0.0512348
0.0552266
0.0591338
0.0629385
0.0666265
0.0701869
0.0736117
0.0768949
0.0800332
0.0830249
0.0858699
0.0885692
0.091125
0.0935398
0.0958168
0.0979593
0.0999707
0.101854
0.103612
0.105246
0.106758
0.108146
0.109409
0.110543
0.111538
0.112386
0.113067
0.113561
0.113824
0.113833
0.113516
0.112789
0.11153
0.107219
0.0982455
0.0892343
0.0803067
0.0715604
0.0630768
0.0549254
0.0471672
0.0398579
0.0330506
0.0267939
0.0211189
0.0160932
0.0117683
0.00818757
0.00536342
0.00329553
0.00189737
0.00102848
0.000529588
0.000261497
0.000125648
5.91183e-05
2.73246e-05
1.2435e-05
5.58177e-06
2.47509e-06
1.08557e-06
4.71421e-07
2.02788e-07
8.63457e-08
3.62677e-08
1.48793e-08
5.79965e-09
1.96198e-09
3.45252e-10
3.97577e-07
1.73766e-06
3.99195e-06
7.77065e-06
1.40716e-05
2.45063e-05
4.16403e-05
6.94893e-05
0.000114217
0.000185069
0.000295546
0.000464743
0.000718634
0.00109093
0.00162289
0.00236152
0.00335565
0.00465038
0.00628092
0.00826772
0.0106141
0.0133071
0.0163202
0.019617
0.0231554
0.0268905
0.0307771
0.0347713
0.0388317
0.0429206
0.0470037
0.051051
0.0550368
0.058939
0.0627397
0.0664248
0.0699832
0.0734069
0.0766899
0.0798288
0.082822
0.0856692
0.0883716
0.0909311
0.0933503
0.0956324
0.0977807
0.0997985
0.101689
0.103454
0.105097
0.106617
0.108015
0.109288
0.110432
0.111438
0.112296
0.112987
0.113486
0.113751
0.113752
0.113412
0.112632
0.111271
0.108272
0.0993511
0.0903569
0.0814223
0.072652
0.0641317
0.0559336
0.04812
0.0407469
0.0338661
0.0275305
0.0217942
0.0166863
0.0122624
0.00856758
0.00565277
0.00349906
0.00202805
0.00110559
0.000571838
0.000283304
0.000136371
6.42477e-05
2.97244e-05
1.3537e-05
6.0798e-06
2.69701e-06
1.18325e-06
5.13946e-07
2.21116e-07
9.41631e-08
3.95572e-08
1.62313e-08
6.32736e-09
2.14071e-09
3.76798e-10
3.9406e-07
1.72228e-06
3.95652e-06
7.70131e-06
1.39451e-05
2.4284e-05
4.12588e-05
6.88462e-05
0.00011315
0.000183327
0.000292751
0.000460341
0.000711848
0.00108071
0.00160792
0.0023402
0.00332623
0.00461107
0.00623007
0.00820393
0.0105364
0.0132148
0.016213
0.0194949
0.0230188
0.0267398
0.030613
0.0345945
0.0386433
0.0427214
0.0467949
0.0508338
0.0548122
0.0587083
0.0625041
0.0661854
0.0697411
0.0731631
0.0764456
0.079585
0.0825796
0.0854292
0.0881349
0.0906985
0.0931228
0.0954107
0.0975657
0.099591
0.10149
0.103265
0.104917
0.106449
0.10786
0.109148
0.110308
0.111334
0.112214
0.112932
0.113465
0.113775
0.113828
0.113562
0.112888
0.111684
0.109685
0.100757
0.0917505
0.0827925
0.0739862
0.0654177
0.0571602
0.049277
0.0418244
0.0348545
0.0284174
0.0225664
0.0173519
0.0128183
0.00902901
0.00601084
0.00375358
0.00219366
0.0012043
0.000626313
0.000311548
0.000150285
7.09086e-05
3.28411e-05
1.49679e-05
6.72613e-06
2.98486e-06
1.30987e-06
5.6904e-07
2.44849e-07
1.04283e-07
4.38149e-08
1.79812e-08
7.01047e-09
2.37212e-09
4.17645e-10
3.90056e-07
1.70476e-06
3.91617e-06
7.62239e-06
1.38012e-05
2.40312e-05
4.08252e-05
6.81156e-05
0.000111938
0.00018135
0.00028958
0.000455349
0.000704155
0.00106914
0.00159095
0.00231604
0.00329288
0.00456649
0.00617237
0.00813152
0.0104481
0.0131099
0.0160911
0.0193561
0.0228632
0.0265681
0.0304258
0.0343928
0.038428
0.0424937
0.0465559
0.0505848
0.0545545
0.0584433
0.0622331
0.0659097
0.0694619
0.0728817
0.0761631
0.0793027
0.0822986
0.0851505
0.0878596
0.0904276
0.0928573
0.0951516
0.097314
0.0993477
0.101256
0.103041
0.104706
0.106252
0.107679
0.108985
0.110166
0.111218
0.112131
0.11289
0.113477
0.113864
0.114015
0.113893
0.113429
0.112538
0.111143
0.102324
0.0933529
0.0843913
0.0755546
0.0669359
0.0586125
0.0506502
0.0431069
0.0360357
0.0294874
0.0235256
0.0181788
0.0135277
0.00961002
0.00645651
0.00407167
0.00240226
0.0013297
0.000695987
0.000347848
0.000168206
7.94966e-05
3.68609e-05
1.68132e-05
7.55936e-06
3.35576e-06
1.47293e-06
6.39952e-07
2.75383e-07
1.17297e-07
4.92892e-08
2.0231e-08
7.88888e-09
2.66975e-09
4.70187e-10
3.85607e-07
1.68531e-06
3.87135e-06
7.53475e-06
1.36414e-05
2.37507e-05
4.03443e-05
6.73059e-05
0.000110597
0.000179162
0.000286072
0.00044983