/*--------------------------------*- C++ -*----------------------------------*\
  =========                 |
  \\      /  F ield         | OpenFOAM: The Open Source CFD Toolbox
   \\    /   O peration     | Website:  https://openfoam.org
    \\  /    A nd           | Version:  8
     \\/     M anipulation  |
\*---------------------------------------------------------------------------*/
FoamFile
{
    version     2.0;
    format      ascii;
    class       volScalarField;
    location    "160/fluid";
    object      N2;
}
// * * * * * * * * * * * * * * * * * * * * * * * * * * * * * * * * * * * * * //

dimensions      [0 0 0 0 0 0 0];

internalField   nonuniform List<scalar> 
4000
(
2.09267e-06
9.13266e-06
2.09165e-05
4.05406e-05
7.30395e-05
0.000126518
0.00021387
0.000355328
0.000582113
0.000941471
0.00150324
0.00236774
0.00367416
0.00560743
0.00840044
0.0123274
0.0176852
0.0247613
0.0337958
0.0449445
0.0582579
0.0736791
0.0910588
0.11018
0.130786
0.1526
0.175347
0.198761
0.222599
0.246635
0.270672
0.294538
0.318084
0.341187
0.363744
0.385674
0.406915
0.427418
0.44715
0.466086
0.484214
0.501534
0.518047
0.533765
0.548702
0.562877
0.57631
0.589025
0.601048
0.612403
0.623118
0.633219
0.642734
0.651689
0.66011
0.668023
0.675454
0.682427
0.688966
0.695094
0.700832
0.706203
0.711221
0.715827
0.720209
0.724303
0.728129
0.731697
0.735072
0.738353
0.741496
0.744506
0.747381
0.750123
0.752726
0.755186
0.757496
0.759647
0.761624
0.763422
0.765023
0.766406
0.767552
0.768447
0.769091
0.76951
0.769756
0.769885
0.769948
0.769977
0.76999
0.769996
0.769998
0.769999
0.77
0.77
0.77
0.77
0.77
0.77
2.12605e-06
9.28298e-06
2.1281e-05
4.13011e-05
7.45232e-05
0.000129295
0.000218896
0.000364148
0.000597118
0.000966183
0.00154255
0.002428
0.00376291
0.00573268
0.0085694
0.0125449
0.0179518
0.0250732
0.0341445
0.0453197
0.0586502
0.0740823
0.0914717
0.110607
0.131234
0.15308
0.17587
0.199338
0.223235
0.247336
0.271439
0.29537
0.318978
0.342138
0.364745
0.386719
0.407995
0.428527
0.448279
0.467228
0.485364
0.502684
0.519193
0.534901
0.549825
0.563982
0.577394
0.590086
0.602083
0.613411
0.624098
0.634169
0.643654
0.652578
0.660968
0.668851
0.676251
0.683194
0.689703
0.695801
0.701511
0.706854
0.711838
0.71642
0.720779
0.724848
0.728648
0.732194
0.735605
0.738883
0.742026
0.745035
0.747912
0.750655
0.753258
0.755717
0.758022
0.760165
0.762121
0.763896
0.76546
0.766793
0.767874
0.768693
0.769259
0.769611
0.76981
0.769911
0.769959
0.769982
0.769992
0.769997
0.769999
0.769999
0.77
0.77
0.77
0.77
0.77
0.77
2.17558e-06
9.50296e-06
2.18009e-05
4.23482e-05
7.64857e-05
0.000132816
0.000225013
0.000374473
0.000614078
0.000993288
0.00158466
0.00249152
0.00385581
0.00586422
0.00874946
0.0127829
0.0182552
0.0254459
0.0345867
0.0458277
0.0592183
0.0747048
0.0921447
0.11133
0.13201
0.153915
0.176772
0.200315
0.224296
0.248485
0.272681
0.296705
0.320404
0.343649
0.366337
0.388383
0.409722
0.430306
0.4501
0.469081
0.487238
0.50457
0.521081
0.536784
0.551693
0.56583
0.579216
0.591876
0.603837
0.615125
0.625767
0.635793
0.645229
0.654104
0.662444
0.670275
0.677624
0.684516
0.690974
0.697022
0.702684
0.70798
0.712877
0.717441
0.721775
0.725811
0.729577
0.733062
0.736476
0.739746
0.742877
0.745874
0.748736
0.75146
0.754041
0.756472
0.758743
0.760841
0.762744
0.764453
0.765939
0.767183
0.768169
0.768895
0.769383
0.769679
0.769843
0.769926
0.769966
0.769985
0.769993
0.769997
0.769999
0.769999
0.77
0.77
0.77
0.77
0.77
0.77
2.22317e-06
9.71159e-06
2.22829e-05
4.32924e-05
7.82031e-05
0.000135808
0.00023007
0.000382811
0.000627516
0.00101448
0.00161735
0.00254083
0.00392847
0.00596861
0.00889544
0.0129811
0.0185164
0.0257799
0.0350011
0.0463282
0.0598084
0.0753865
0.0929196
0.112199
0.132976
0.15498
0.177938
0.201585
0.225671
0.249968
0.27427
0.298399
0.322199
0.34554
0.368317
0.390443
0.411853
0.432498
0.452341
0.47136
0.489544
0.506891
0.523408
0.539106
0.554002
0.568117
0.581473
0.594097
0.606015
0.617255
0.627845
0.637815
0.647192
0.656005
0.664282
0.672049
0.679333
0.686159
0.692553
0.698537
0.704136
0.709369
0.714161
0.718714
0.722969
0.726944
0.730661
0.734122
0.737518
0.74077
0.743883
0.746857
0.749691
0.752382
0.754924
0.757307
0.759523
0.761554
0.763392
0.765019
0.766414
0.767562
0.76845
0.769086
0.769499
0.769744
0.769876
0.769942
0.769974
0.769988
0.769995
0.769998
0.769999
0.77
0.77
0.77
0.77
0.77
0.77
0.77
2.26751e-06
9.90555e-06
2.27297e-05
4.41655e-05
7.97902e-05
0.00013858
0.00023478
0.000390646
0.000640297
0.00103493
0.00164942
0.00259002
0.00400214
0.00607616
0.00904808
0.0131914
0.0187972
0.0261433
0.0354573
0.0468849
0.0604708
0.0761581
0.0938025
0.113195
0.134087
0.156207
0.179283
0.203049
0.227253
0.251668
0.276085
0.300325
0.324232
0.347673
0.370541
0.39275
0.414233
0.43494
0.454833
0.473891
0.492102
0.509466
0.525988
0.541681
0.556562
0.570652
0.583976
0.596559
0.60843
0.619618
0.630151
0.640058
0.64937
0.658115
0.666321
0.674015
0.681225
0.687976
0.694293
0.7002
0.705719
0.710856
0.715557
0.720045
0.724244
0.72817
0.731835
0.735313
0.738671
0.741887
0.744963
0.747899
0.750692
0.753336
0.755825
0.75815
0.7603
0.762252
0.764011
0.765549
0.766851
0.7679
0.768693
0.769244
0.769593
0.769794
0.769901
0.769954
0.769979
0.769991
0.769996
0.769998
0.769999
0.77
0.77
0.77
0.77
0.77
0.77
0.77
2.30788e-06
1.00819e-05
2.31352e-05
4.49556e-05
8.12231e-05
0.000141077
0.000239021
0.000397702
0.000651826
0.00105343
0.00167855
0.00263501
0.00407011
0.00617646
0.00919234
0.0133932
0.0190713
0.0265044
0.0359188
0.0474578
0.0611633
0.0769756
0.0947483
0.114271
0.135293
0.157544
0.18075
0.204643
0.228974
0.25351
0.278046
0.302399
0.326411
0.34995
0.372908
0.395196
0.416748
0.437512
0.457452
0.476545
0.49478
0.512156
0.52868
0.544364
0.559227
0.57329
0.586578
0.599118
0.610939
0.62207
0.632542
0.642384
0.651626
0.660298
0.668429
0.676047
0.683179
0.689852
0.696092
0.701924
0.70737
0.712394
0.717033
0.721474
0.725603
0.729452
0.733004
0.736486
0.739816
0.742999
0.746037
0.748929
0.751674
0.754265
0.756695
0.758955
0.761033
0.762911
0.764585
0.766034
0.767242
0.768197
0.768901
0.769376
0.769669
0.769835
0.769921
0.769963
0.769983
0.769992
0.769997
0.769999
0.769999
0.77
0.77
0.77
0.77
0.77
0.77
0.77
2.34549e-06
1.02464e-05
2.35135e-05
4.56943e-05
8.25662e-05
0.000143427
0.000243029
0.000404408
0.000662853
0.00107125
0.00170684
0.00267902
0.00413713
0.00627611
0.00933667
0.0135964
0.0193489
0.026872
0.036391
0.0480466
0.0618779
0.0778223
0.0957309
0.115391
0.136551
0.158939
0.18228
0.206306
0.230764
0.255424
0.280077
0.30454
0.328655
0.352287
0.375328
0.39769
0.419304
0.44012
0.4601
0.479222
0.497475
0.514859
0.53138
0.547051
0.561892
0.575924
0.589173
0.601667
0.613436
0.624508
0.634916
0.64469
0.653861
0.662459
0.670513
0.678052
0.685105
0.691698
0.697857
0.703608
0.708976
0.713853
0.718502
0.722843
0.726892
0.730673
0.734187
0.73763
0.740922
0.744066
0.747062
0.749909
0.752604
0.75514
0.75751
0.759703
0.761706
0.763512
0.765104
0.766466
0.767584
0.76845
0.769073
0.769483
0.76973
0.769866
0.769936
0.76997
0.769986
0.769994
0.769997
0.769999
0.769999
0.77
0.77
0.77
0.77
0.77
0.77
0.77
2.38083e-06
1.04009e-05
2.38693e-05
4.63893e-05
8.38313e-05
0.000145643
0.000246817
0.000410762
0.00067333
0.00108824
0.00173391
0.00272133
0.00420189
0.0063729
0.00947766
0.0137961
0.0196233
0.0272375
0.0368628
0.0486378
0.0625982
0.0786784
0.0967266
0.116528
0.137829
0.160356
0.183832
0.20799
0.232575
0.257355
0.282121
0.306689
0.330899
0.354619
0.377736
0.400163
0.421833
0.442693
0.462706
0.48185
0.500115
0.517501
0.534013
0.549667
0.564482
0.57848
0.591687
0.604133
0.615846
0.626859
0.637202
0.646908
0.656006
0.664529
0.672506
0.679966
0.686938
0.693449
0.699525
0.705191
0.71046
0.715234
0.719821
0.724101
0.728095
0.731805
0.735332
0.738727
0.741974
0.745073
0.748023
0.750822
0.753465
0.755945
0.758255
0.760385
0.762313
0.764047
0.765561
0.766842
0.767877
0.768663
0.769215
0.769569
0.769777
0.76989
0.769948
0.769976
0.769989
0.769995
0.769998
0.769999
0.77
0.77
0.77
0.77
0.77
0.77
0.77
0.77
2.41427e-06
1.05472e-05
2.42062e-05
4.70485e-05
8.50329e-05
0.000147752
0.00025043
0.000416837
0.000683379
0.00110459
0.00176005
0.00276233
0.00426484
0.00646732
0.00961563
0.013992
0.0198932
0.0275978
0.0373288
0.0492224
0.0633115
0.0795269
0.0977141
0.117656
0.139096
0.16176
0.185369
0.209655
0.234362
0.259257
0.28413
0.308796
0.333095
0.356893
0.380078
0.402564
0.42428
0.445177
0.465215
0.484375
0.502646
0.520028
0.536527
0.55216
0.566945
0.580906
0.594069
0.606465
0.618124
0.629076
0.639356
0.648994
0.658022
0.666473
0.674376
0.681761
0.688658
0.695095
0.701097
0.70669
0.711846
0.716572
0.721101
0.725314
0.729239
0.732846
0.736368
0.739731
0.74294
0.745998
0.748904
0.751655
0.754248
0.756674
0.758925
0.760993
0.762858
0.764521
0.765962
0.767167
0.768125
0.768839
0.769329
0.769637
0.769814
0.769909
0.769957
0.76998
0.769991
0.769996
0.769998
0.769999
0.77
0.77
0.77
0.77
0.77
0.77
0.77
0.77
2.44586e-06
1.06854e-05
2.45247e-05
4.76719e-05
8.61703e-05
0.000149751
0.000253859
0.000422613
0.00069295
0.00112019
0.00178505
0.00280163
0.00432533
0.00655824
0.00974877
0.0141815
0.0201547
0.0279474
0.0377815
0.0497909
0.0640055
0.0803528
0.0986753
0.118753
0.140328
0.163124
0.186861
0.211268
0.236091
0.261093
0.286066
0.310821
0.335201
0.359069
0.382315
0.40485
0.426606
0.447531
0.467589
0.486758
0.50503
0.522402
0.538885
0.554493
0.569246
0.583168
0.596287
0.608633
0.620236
0.63113
0.641347
0.650919
0.659879
0.66826
0.676092
0.683405
0.690231
0.696596
0.702529
0.708057
0.713061
0.717731
0.72221
0.726372
0.730245
0.733814
0.737305
0.740635
0.743809
0.746829
0.749695
0.752403
0.754948
0.757323
0.759521
0.76153
0.763339
0.764937
0.76631
0.767445
0.768334
0.768984
0.769422
0.769691
0.769843
0.769924
0.769964
0.769983
0.769992
0.769997
0.769998
0.769999
0.77
0.77
0.77
0.77
0.77
0.77
0.77
0.77
2.47549e-06
1.0815e-05
2.48236e-05
4.82573e-05
8.72394e-05
0.000151631
0.00025709
0.000428062
0.000701994
0.00113496
0.00180875
0.00283895
0.00438285
0.00664483
0.00987573
0.0143623
0.0204045
0.0282815
0.0382143
0.0503346
0.0646692
0.0811425
0.099594
0.119801
0.141504
0.164424
0.188281
0.212803
0.237732
0.262834
0.287897
0.312734
0.337185
0.361116
0.384413
0.40699
0.428779
0.449726
0.469798
0.488972
0.507239
0.524599
0.541062
0.556643
0.571363
0.585246
0.598321
0.610617
0.622167
0.633004
0.643161
0.652671
0.661567
0.669881
0.677647
0.684893
0.691651
0.697948
0.703814
0.70927
0.714185
0.718885
0.723266
0.72735
0.731157
0.734708
0.738158
0.741451
0.744589
0.747572
0.750399
0.753066
0.755568
0.757898
0.760047
0.761999
0.763755
0.765295
0.766607
0.76768
0.768508
0.769103
0.769496
0.769733
0.769866
0.769935
0.769969
0.769986
0.769994
0.769997
0.769999
0.769999
0.77
0.77
0.77
0.77
0.77
0.77
0.77
0.77
2.50295e-06
1.09352e-05
2.51008e-05
4.88005e-05
8.82319e-05
0.000153379
0.000260094
0.000433136
0.000710423
0.00114874
0.00183089
0.00287386
0.00443673
0.00672602
0.00999486
0.0145321
0.0206391
0.0285955
0.0386211
0.0508456
0.0652927
0.0818841
0.100456
0.120784
0.142606
0.165642
0.18961
0.214236
0.239263
0.264455
0.289599
0.314509
0.339024
0.363008
0.38635
0.408962
0.430776
0.451741
0.471821
0.490995
0.509255
0.526601
0.543043
0.558596
0.573282
0.587127
0.600158
0.612407
0.623907
0.63469
0.64479
0.654241
0.663077
0.67133
0.679032
0.686215
0.692907
0.69914
0.704938
0.710327
0.715201
0.719755
0.724117
0.728169
0.731904
0.735484
0.738904
0.742167
0.745274
0.748225
0.751018
0.753649
0.756112
0.7584
0.760505
0.76241
0.764116
0.765603
0.76686
0.767877
0.768652
0.7692
0.769555
0.769767
0.769883
0.769944
0.769974
0.769988
0.769994
0.769998
0.769999
0.77
0.77
0.77
0.77
0.77
0.77
0.77
0.77
0.77
2.528e-06
1.10449e-05
2.53537e-05
4.92962e-05
8.91384e-05
0.000154976
0.000262842
0.000437781
0.00071815
0.00116139
0.00185123
0.00290596
0.00448631
0.00680079
0.0101047
0.0146887
0.0208555
0.028885
0.0389962
0.0513166
0.0658673
0.0825672
0.10125
0.121689
0.143619
0.16676
0.190828
0.215549
0.240663
0.265936
0.291152
0.316126
0.340696
0.364726
0.388106
0.410747
0.432582
0.45356
0.473644
0.492816
0.511066
0.528396
0.544816
0.560342
0.574996
0.588804
0.601794
0.613999
0.625452
0.636185
0.646234
0.655632
0.664413
0.672611
0.680258
0.687385
0.694023
0.7002
0.705943
0.711247
0.716056
0.720669
0.724961
0.728956
0.732616
0.736175
0.739569
0.742803
0.74588
0.748799
0.75156
0.754156
0.756584
0.758835
0.7609
0.762765
0.764427
0.765867
0.767074
0.768042
0.76877
0.769278
0.769602
0.769793
0.769897
0.769951
0.769977
0.769989
0.769995
0.769998
0.769999
0.77
0.77
0.77
0.77
0.77
0.77
0.77
0.77
0.77
2.55038e-06
1.11428e-05
2.55797e-05
4.97393e-05
8.99489e-05
0.000156405
0.000265304
0.000441945
0.000725082
0.00117274
0.00186952
0.00293484
0.00453097
0.00686818
0.0102037
0.0148299
0.0210508
0.0291463
0.0393346
0.0517414
0.0663854
0.0831828
0.101965
0.122503
0.14453
0.167765
0.191922
0.216726
0.241919
0.267261
0.292541
0.31757
0.342187
0.366256
0.389668
0.412333
0.434184
0.45517
0.475257
0.494424
0.512664
0.529978
0.546377
0.561877
0.5765
0.590274
0.603227
0.615392
0.626801
0.63749
0.647492
0.656842
0.665575
0.673723
0.681321
0.6884
0.694991
0.701124
0.706829
0.71203
0.716811
0.7214
0.725662
0.729623
0.733243
0.736775
0.740144
0.743352
0.746402
0.749294
0.752025
0.754591
0.756986
0.759202
0.761231
0.763062
0.764682
0.766085
0.767252
0.768177
0.768867
0.769341
0.76964
0.769814
0.769908
0.769956
0.769979
0.76999
0.769996
0.769998
0.769999
0.77
0.77
0.77
0.77
0.77
0.77
0.77
0.77
0.77
2.56983e-06
1.12279e-05
2.57762e-05
5.01248e-05
9.06545e-05
0.00015765
0.00026745
0.000445578
0.000731138
0.00118268
0.00188553
0.00296015
0.00457013
0.00692732
0.0102906
0.014954
0.0212224
0.0293759
0.039632
0.0521147
0.0668405
0.0837233
0.102592
0.123217
0.145329
0.168645
0.19288
0.217757
0.243015
0.268418
0.293752
0.318827
0.343484
0.367587
0.391024
0.413708
0.435571
0.456564
0.476651
0.495813
0.514043
0.531342
0.547721
0.563197
0.577793
0.591536
0.604457
0.616586
0.627958
0.638607
0.648569
0.657878
0.666569
0.674676
0.682231
0.689268
0.695818
0.70191
0.707576
0.712684
0.717439
0.721998
0.726228
0.73016
0.733762
0.737276
0.740625
0.743812
0.74684
0.749708
0.752415
0.754955
0.757322
0.759508
0.761504
0.763297
0.764884
0.766253
0.767391
0.768285
0.768943
0.76939
0.769669
0.76983
0.769916
0.76996
0.769981
0.769991
0.769996
0.769998
0.769999
0.77
0.77
0.77
0.77
0.77
0.77
0.77
0.77
0.77
2.58616e-06
1.12994e-05
2.59411e-05
5.04485e-05
9.12474e-05
0.000158697
0.000269256
0.000448641
0.000736247
0.00119107
0.00189907
0.00298158
0.00460331
0.00697748
0.0103644
0.0150594
0.0213682
0.0295711
0.0398848
0.0524319
0.0672273
0.0841826
0.103125
0.123823
0.146007
0.169392
0.193692
0.218629
0.243944
0.269397
0.294775
0.31989
0.34458
0.368709
0.392166
0.414865
0.436739
0.457736
0.477822
0.496979
0.515198
0.532484
0.548845
0.564301
0.578873
0.59259
0.605482
0.617581
0.628921
0.639537
0.649464
0.658738
0.667393
0.675463
0.682982
0.68998
0.696489
0.702538
0.708154
0.713197
0.718022
0.722518
0.726702
0.7306
0.73419
0.737686
0.741017
0.744186
0.747196
0.750046
0.752733
0.755252
0.757596
0.759758
0.761729
0.763502
0.765064
0.766402
0.767506
0.768372
0.769004
0.769429
0.769692
0.769842
0.769923
0.769963
0.769983
0.769992
0.769996
0.769998
0.769999
0.77
0.77
0.77
0.77
0.77
0.77
0.77
0.77
0.77
2.5992e-06
1.13565e-05
2.6073e-05
5.07075e-05
9.17219e-05
0.000159535
0.000270705
0.000451099
0.000740356
0.00119782
0.00190998
0.00299888
0.00463014
0.00701809
0.0104242
0.0151449
0.0214865
0.0297295
0.0400901
0.0526897
0.0675415
0.0845557
0.103558
0.124316
0.146558
0.169998
0.194351
0.219337
0.244697
0.27019
0.295604
0.320749
0.345465
0.369615
0.393089
0.4158
0.43768
0.45868
0.478765
0.497917
0.516129
0.533402
0.549749
0.565187
0.579741
0.593436
0.606305
0.618379
0.629693
0.640283
0.650183
0.659429
0.668056
0.676098
0.683589
0.69056
0.697044
0.703069
0.708667
0.713715
0.7184
0.722892
0.727059
0.730937
0.734524
0.738007
0.741323
0.744478
0.747474
0.750308
0.752979
0.75548
0.757807
0.759953
0.761909
0.763662
0.765203
0.766519
0.767599
0.768439
0.769051
0.769459
0.769709
0.769852
0.769927
0.769965
0.769984
0.769993
0.769997
0.769998
0.769999
0.77
0.77
0.77
0.77
0.77
0.77
0.77
0.77
0.77
2.6089e-06
1.1399e-05
2.61711e-05
5.09e-05
9.20751e-05
0.00016016
0.000271785
0.000452936
0.000743429
0.00120288
0.00191818
0.00301189
0.00465036
0.00704873
0.0104694
0.0152095
0.0215761
0.0298496
0.0402458
0.0528852
0.0677799
0.084839
0.103887
0.12469
0.146976
0.170459
0.194851
0.219874
0.245268
0.270792
0.296232
0.321401
0.346136
0.370301
0.393787
0.416506
0.438392
0.459394
0.479478
0.498626
0.516831
0.534095
0.550431
0.565856
0.580394
0.594073
0.606924
0.618979
0.630273
0.640842
0.650721
0.659946
0.668551
0.676572
0.684041
0.690991
0.697453
0.703456
0.709029
0.714078
0.718726
0.723191
0.727335
0.731184
0.734773
0.738244
0.741549
0.744693
0.747677
0.7505
0.75316
0.755651
0.757968
0.760101
0.762042
0.76378
0.765305
0.766604
0.767667
0.768491
0.769085
0.769481
0.769722
0.769859
0.769931
0.769967
0.769985
0.769993
0.769997
0.769999
0.769999
0.77
0.77
0.77
0.77
0.77
0.77
0.77
0.77
0.77
2.61524e-06
1.14267e-05
2.62352e-05
5.10259e-05
9.23061e-05
0.000160569
0.000272493
0.000454141
0.00074545
0.00120622
0.00192358
0.0030205
0.00466375
0.00706907
0.0104994
0.0152526
0.0216359
0.0299299
0.0403501
0.0530164
0.0679401
0.0850293
0.104108
0.124941
0.147257
0.170769
0.195188
0.220237
0.245653
0.271198
0.296656
0.32184
0.346587
0.370762
0.394256
0.416981
0.438871
0.459874
0.479958
0.499103
0.517303
0.534562
0.55089
0.566306
0.580834
0.594501
0.60734
0.619382
0.630663
0.641218
0.651083
0.660293
0.668884
0.676889
0.684344
0.691279
0.697726
0.703714
0.709273
0.714316
0.718949
0.7234
0.727529
0.73135
0.734941
0.738404
0.741701
0.744837
0.747815
0.750632
0.753284
0.755768
0.758075
0.760199
0.762131
0.763859
0.765373
0.766661
0.767712
0.768525
0.769108
0.769495
0.769731
0.769863
0.769933
0.769968
0.769985
0.769993
0.769997
0.769999
0.769999
0.77
0.77
0.77
0.77
0.77
0.77
0.77
0.77
0.77
2.61831e-06
1.14401e-05
2.6266e-05
5.10863e-05
9.24165e-05
0.000160764
0.00027283
0.000454714
0.00074641
0.0012078
0.00192615
0.00302459
0.00467013
0.00707877
0.0105138
0.0152732
0.0216646
0.0299685
0.0404003
0.0530797
0.0680177
0.0851219
0.104216
0.125064
0.147395
0.170921
0.195354
0.220416
0.245844
0.271399
0.296866
0.322058
0.346811
0.370992
0.39449
0.417218
0.43911
0.460115
0.480199
0.499343
0.517541
0.534796
0.55112
0.566531
0.581054
0.594716
0.607549
0.619585
0.630859
0.641407
0.651264
0.660467
0.66905
0.677048
0.684495
0.691422
0.697862
0.703844
0.709397
0.714433
0.71906
0.723505
0.727629
0.731436
0.735028
0.738486
0.74178
0.744912
0.747886
0.750698
0.753347
0.755826
0.758129
0.760248
0.762174
0.763897
0.765406
0.766688
0.767734
0.768541
0.76912
0.769502
0.769735
0.769865
0.769934
0.769969
0.769985
0.769993
0.769997
0.769999
0.769999
0.77
0.77
0.77
0.77
0.77
0.77
0.77
0.77
0.77
2.61833e-06
1.14402e-05
2.62663e-05
5.10869e-05
9.24177e-05
0.000160766
0.000272834
0.000454722
0.000746424
0.00120783
0.0019262
0.00302467
0.00467026
0.00707897
0.0105141
0.0152737
0.0216652
0.0299693
0.0404014
0.0530811
0.0680193
0.0851239
0.104218
0.125067
0.147398
0.170925
0.195358
0.220419
0.245848
0.271403
0.296871
0.322062
0.346816
0.370997
0.394495
0.417224
0.439116
0.460121
0.480204
0.499348
0.517546
0.534801
0.551125
0.566537
0.58106
0.594722
0.607554
0.61959
0.630864
0.641412
0.651269
0.660471
0.669054
0.677052
0.684498
0.691425
0.697865
0.703846
0.709399
0.714435
0.719062
0.723507
0.727631
0.731438
0.73503
0.738489
0.741782
0.744915
0.747888
0.7507
0.753348
0.755827
0.75813
0.760249
0.762175
0.763898
0.765406
0.766689
0.767735
0.768541
0.76912
0.769503
0.769735
0.769865
0.769934
0.769969
0.769985
0.769993
0.769997
0.769999
0.769999
0.77
0.77
0.77
0.77
0.77
0.77
0.77
0.77
0.77
2.61533e-06
1.14271e-05
2.62361e-05
5.10279e-05
9.231e-05
0.000160577
0.000272507
0.000454167
0.000745495
0.0012063
0.00192372
0.00302072
0.00466411
0.00706963
0.0105003
0.0152538
0.0216376
0.0299322
0.0403531
0.0530202
0.0679448
0.085035
0.104115
0.124949
0.147265
0.170778
0.195198
0.220248
0.245665
0.27121
0.296669
0.321853
0.346601
0.370777
0.394272
0.416998
0.438887
0.459891
0.479974
0.49912
0.517319
0.534578
0.550905
0.566321
0.580849
0.594516
0.607355
0.619397
0.630677
0.641232
0.651096
0.660306
0.668896
0.676901
0.684355
0.691289
0.697736
0.703724
0.709283
0.714325
0.718958
0.723409
0.727539
0.731357
0.734947
0.738411
0.741708
0.744844
0.747821
0.750637
0.753289
0.755772
0.758079
0.760202
0.762133
0.763861
0.765374
0.766662
0.767713
0.768525
0.769109
0.769496
0.769731
0.769863
0.769933
0.769968
0.769985
0.769993
0.769997
0.769999
0.769999
0.77
0.77
0.77
0.77
0.77
0.77
0.77
0.77
0.77
2.60906e-06
1.13997e-05
2.61729e-05
5.09037e-05
9.20823e-05
0.000160174
0.00027181
0.000452982
0.00074351
0.00120302
0.00191841
0.00301228
0.00465098
0.00704969
0.0104708
0.0152116
0.021579
0.0298536
0.0402511
0.0528919
0.0677881
0.0848487
0.103898
0.124702
0.14699
0.170474
0.194868
0.219893
0.245288
0.270814
0.296255
0.321425
0.34616
0.370327
0.393813
0.416533
0.438419
0.459421
0.479505
0.498653
0.516858
0.534122
0.550457
0.565882
0.58042
0.594099
0.606949
0.619004
0.630298
0.640866
0.650745
0.659969
0.668574
0.676594
0.684063
0.691012
0.697474
0.703476
0.709049
0.714097
0.718744
0.72321
0.727352
0.731196
0.734782
0.738253
0.741558
0.744702
0.747686
0.750509
0.753167
0.755658
0.757973
0.760106
0.762046
0.763784
0.765308
0.766606
0.767669
0.768492
0.769086
0.769481
0.769722
0.769859
0.769931
0.769967
0.769985
0.769993
0.769997
0.769999
0.769999
0.77
0.77
0.77
0.77
0.77
0.77
0.77
0.77
0.77
2.59946e-06
1.13577e-05
2.60758e-05
5.07132e-05
9.1733e-05
0.000159556
0.000270742
0.000451166
0.000740472
0.00119802
0.00191032
0.00299943
0.00463101
0.00701943
0.0104262
0.0151478
0.0214906
0.0297351
0.0400974
0.052699
0.0675529
0.0845693
0.103574
0.124334
0.146578
0.170021
0.194375
0.219364
0.244725
0.270221
0.295636
0.320783
0.3455
0.369651
0.393126
0.415837
0.437718
0.458718
0.478803
0.497955
0.516166
0.533439
0.549786
0.565223
0.579776
0.593471
0.606339
0.618413
0.629726
0.640315
0.650215
0.659461
0.668087
0.67613
0.683621
0.690592
0.697076
0.703101
0.708696
0.713742
0.718417
0.722912
0.727079
0.730955
0.734542
0.738021
0.741336
0.744491
0.747485
0.750319
0.752989
0.755489
0.757815
0.75996
0.761914
0.763667
0.765207
0.766522
0.767601
0.768441
0.769052
0.76946
0.76971
0.769852
0.769927
0.769965
0.769984
0.769993
0.769997
0.769998
0.769999
0.77
0.77
0.77
0.77
0.77
0.77
0.77
0.77
0.77
2.58651e-06
1.1301e-05
2.59449e-05
5.04562e-05
9.12622e-05
0.000158724
0.000269305
0.000448728
0.0007364
0.00119132
0.0018995
0.00298228
0.00460443
0.00697921
0.010367
0.0150632
0.0213735
0.0295783
0.0398943
0.052444
0.0672421
0.0842004
0.103146
0.123847
0.146034
0.169421
0.193724
0.218664
0.243981
0.269436
0.294816
0.319933
0.344624
0.368755
0.392213
0.414913
0.436787
0.457784
0.477871
0.497027
0.515246
0.532531
0.548892
0.564347
0.578919
0.592635
0.605526
0.617624
0.628963
0.639579
0.649506
0.65878
0.667435
0.675506
0.683026
0.690028
0.696541
0.702597
0.708223
0.713284
0.717988
0.722505
0.726702
0.730618
0.734215
0.737708
0.741035
0.744203
0.747211
0.750059
0.752745
0.755263
0.757606
0.759767
0.761736
0.763508
0.765069
0.766406
0.767509
0.768375
0.769006
0.76943
0.769693
0.769842
0.769923
0.769963
0.769983
0.769992
0.769996
0.769998
0.769999
0.77
0.77
0.77
0.77
0.77
0.77
0.77
0.77
0.77
2.57028e-06
1.123e-05
2.5781e-05
5.01345e-05
9.0673e-05
0.000157684
0.000267511
0.000445687
0.000731325
0.00118299
0.00188606
0.00296101
0.00457148
0.00692941
0.0102937
0.0149586
0.0212288
0.0293847
0.0396436
0.0521295
0.0668588
0.0837453
0.102618
0.123246
0.145362
0.168682
0.192919
0.217799
0.24306
0.268466
0.293802
0.31888
0.343539
0.367643
0.391081
0.413766
0.43563
0.456623
0.47671
0.495872
0.514101
0.531399
0.547777
0.563252
0.577848
0.59159
0.604509
0.616637
0.628008
0.638657
0.648618
0.657926
0.666616
0.674722
0.682277
0.689313
0.695862
0.701953
0.707617
0.712727
0.717468
0.722017
0.726243
0.730187
0.733795
0.737302
0.740647
0.743832
0.746858
0.749725
0.752429
0.754967
0.757333
0.759518
0.761512
0.763304
0.76489
0.766258
0.767395
0.768288
0.768945
0.769391
0.76967
0.76983
0.769916
0.76996
0.769981
0.769991
0.769996
0.769998
0.769999
0.77
0.77
0.77
0.77
0.77
0.77
0.77
0.77
0.77
2.55093e-06
1.11453e-05
2.55855e-05
4.97511e-05
8.99713e-05
0.000156446
0.000265377
0.000442073
0.000725304
0.00117312
0.00187014
0.00293585
0.00453256
0.00687064
0.0102073
0.0148353
0.0210584
0.0291566
0.0393483
0.0517589
0.0664071
0.0832089
0.101996
0.122538
0.14457
0.167808
0.191969
0.216777
0.241972
0.267318
0.2926
0.317631
0.342251
0.366322
0.389735
0.412401
0.434252
0.455239
0.475326
0.494493
0.512732
0.530045
0.546443
0.561942
0.576564
0.590336
0.603288
0.615452
0.62686
0.637547
0.647548
0.656897
0.665629
0.673778
0.681375
0.688453
0.695042
0.701172
0.706872
0.712069
0.716844
0.721429
0.725687
0.729654
0.733272
0.736799
0.740166
0.743373
0.746422
0.749312
0.752042
0.754606
0.756999
0.759214
0.761241
0.763069
0.764689
0.76609
0.767256
0.768181
0.768869
0.769342
0.769641
0.769814
0.769908
0.769956
0.769979
0.76999
0.769996
0.769998
0.769999
0.77
0.77
0.77
0.77
0.77
0.77
0.77
0.77
0.77
2.52866e-06
1.10478e-05
2.53606e-05
4.93102e-05
8.91647e-05
0.000155024
0.000262928
0.000437931
0.000718407
0.00116182
0.00185195
0.00290712
0.00448814
0.00680361
0.0101089
0.0146948
0.0208642
0.0288969
0.0390119
0.0513367
0.0658924
0.0825974
0.101285
0.121729
0.143665
0.166811
0.190883
0.215607
0.240726
0.266001
0.291221
0.316197
0.340769
0.364802
0.388183
0.410826
0.432661
0.453639
0.473723
0.492895
0.511144
0.528473
0.544892
0.560417
0.575069
0.588875
0.601864
0.614067
0.625518
0.636249
0.646296
0.655693
0.664472
0.672668
0.680313
0.687439
0.694074
0.700249
0.705991
0.711292
0.716098
0.720709
0.725
0.728995
0.732643
0.736195
0.739593
0.742827
0.745903
0.748821
0.75158
0.754174
0.7566
0.758849
0.760912
0.762776
0.764437
0.765875
0.76708
0.768046
0.768773
0.76928
0.769603
0.769793
0.769897
0.769951
0.769977
0.769989
0.769995
0.769998
0.769999
0.77
0.77
0.77
0.77
0.77
0.77
0.77
0.77
0.77
2.50372e-06
1.09386e-05
2.51089e-05
4.88166e-05
8.82624e-05
0.000153434
0.000260193
0.000433307
0.000710716
0.00114923
0.0018317
0.00287517
0.00443879
0.00672919
0.00999961
0.014539
0.0206489
0.0286088
0.0386388
0.0508683
0.0653211
0.0819184
0.100497
0.120831
0.142658
0.1657
0.189672
0.214303
0.239334
0.264529
0.289677
0.31459
0.339107
0.363093
0.386437
0.40905
0.430865
0.45183
0.47191
0.491084
0.509343
0.526687
0.543128
0.558679
0.573364
0.587206
0.600236
0.612483
0.62398
0.634761
0.644859
0.654308
0.663142
0.671393
0.679093
0.686274
0.692966
0.699197
0.704995
0.710383
0.715253
0.719798
0.724163
0.728214
0.731933
0.735506
0.73893
0.742194
0.7453
0.748249
0.75104
0.753669
0.75613
0.758416
0.760519
0.762422
0.764126
0.765612
0.766867
0.767882
0.768656
0.769202
0.769556
0.769767
0.769884
0.769944
0.769974
0.769988
0.769994
0.769998
0.769999
0.77
0.77
0.77
0.77
0.77
0.77
0.77
0.77
0.77
2.47637e-06
1.08189e-05
2.48328e-05
4.82758e-05
8.72742e-05
0.000151694
0.000257201
0.000428256
0.000702323
0.00113551
0.00180965
0.00284041
0.00438515
0.00664836
0.00988099
0.01437
0.0204153
0.0282963
0.038234
0.05036
0.0647008
0.0811808
0.0996392
0.119853
0.141563
0.164489
0.188352
0.212878
0.237812
0.262918
0.287984
0.312825
0.337279
0.361211
0.38451
0.407089
0.428878
0.449826
0.469897
0.48907
0.507336
0.524695
0.541157
0.556736
0.571454
0.585335
0.598407
0.610701
0.622249
0.633084
0.643239
0.652747
0.661641
0.669954
0.677718
0.684964
0.691722
0.698021
0.703889
0.709351
0.714281
0.71887
0.723274
0.727371
0.731196
0.734752
0.738198
0.741488
0.744622
0.747601
0.750425
0.75309
0.755589
0.757916
0.760063
0.762013
0.763767
0.765305
0.766615
0.767686
0.768512
0.769106
0.769497
0.769734
0.769866
0.769935
0.769969
0.769986
0.769994
0.769997
0.769999
0.769999
0.77
0.77
0.77
0.77
0.77
0.77
0.77
0.77
2.44686e-06
1.06898e-05
2.45352e-05
4.76928e-05
8.62096e-05
0.000149822
0.000253985
0.00042283
0.000693318
0.00112081
0.00178605
0.00280324
0.00432786
0.00656211
0.00975455
0.0141899
0.0201665
0.0279636
0.0378031
0.0498187
0.0640402
0.0803951
0.0987254
0.118811
0.140393
0.163196
0.186939
0.211352
0.23618
0.261187
0.286163
0.310922
0.335304
0.359174
0.382422
0.404958
0.426715
0.44764
0.467698
0.486866
0.505136
0.522508
0.538989
0.554594
0.569345
0.583265
0.596381
0.608725
0.620326
0.631217
0.641431
0.651
0.659958
0.668337
0.676166
0.683478
0.6903
0.696663
0.702594
0.70812
0.713125
0.717772
0.722237
0.726396
0.730287
0.733867
0.737348
0.740673
0.743844
0.746861
0.749723
0.752428
0.754971
0.757344
0.759539
0.761545
0.763352
0.764948
0.766319
0.767452
0.768339
0.768988
0.769424
0.769692
0.769844
0.769924
0.769964
0.769983
0.769992
0.769997
0.769999
0.769999
0.77
0.77
0.77
0.77
0.77
0.77
0.77
0.77
2.4154e-06
1.05522e-05
2.4218e-05
4.7072e-05
8.50769e-05
0.000147831
0.00025057
0.000417077
0.000683786
0.00110527
0.00176115
0.00276409
0.0042676
0.00647154
0.00962192
0.0140011
0.0199061
0.0276154
0.0373523
0.0492527
0.0633494
0.0795731
0.0977689
0.117719
0.139168
0.161839
0.185456
0.209747
0.23446
0.25936
0.284237
0.308906
0.333208
0.357008
0.380195
0.402682
0.424399
0.445295
0.465334
0.484493
0.502762
0.520142
0.53664
0.55227
0.567052
0.581011
0.594172
0.606565
0.61822
0.62917
0.639447
0.649082
0.658108
0.666556
0.674456
0.68184
0.688734
0.695167
0.701166
0.706756
0.711908
0.716633
0.721159
0.725369
0.729296
0.732886
0.736394
0.739759
0.742969
0.746027
0.748932
0.751682
0.754272
0.756696
0.758945
0.76101
0.762873
0.764534
0.765973
0.767175
0.768131
0.768843
0.769332
0.769638
0.769815
0.76991
0.769957
0.76998
0.769991
0.769996
0.769998
0.769999
0.77
0.77
0.77
0.77
0.77
0.77
0.77
0.77
2.38209e-06
1.04065e-05
2.38824e-05
4.64155e-05
8.38801e-05
0.000145731
0.000246971
0.000411026
0.000673776
0.00108898
0.00173511
0.00272325
0.00420488
0.00637747
0.00948446
0.0138059
0.0196372
0.0272565
0.0368881
0.0486704
0.0626391
0.0787284
0.096786
0.116597
0.137907
0.160442
0.183927
0.208091
0.232682
0.257467
0.282238
0.306809
0.331022
0.354744
0.377863
0.400291
0.421962
0.442821
0.462834