/*--------------------------------*- C++ -*----------------------------------*\
  =========                 |
  \\      /  F ield         | OpenFOAM: The Open Source CFD Toolbox
   \\    /   O peration     | Website:  https://openfoam.org
    \\  /    A nd           | Version:  8
     \\/     M anipulation  |
\*---------------------------------------------------------------------------*/
FoamFile
{
    version     2.0;
    format      ascii;
    class       volScalarField;
    location    "160/fluid";
    object      O2;
}
// * * * * * * * * * * * * * * * * * * * * * * * * * * * * * * * * * * * * * //

dimensions      [0 0 0 0 0 0 0];

internalField   nonuniform List<scalar> 
4000
(
3.00847e-10
1.31305e-09
3.00767e-09
5.83004e-09
1.05029e-08
1.81866e-08
3.07196e-08
5.09705e-08
8.33354e-08
1.34407e-07
2.13822e-07
3.3523e-07
5.17238e-07
7.84023e-07
1.16516e-06
1.69414e-06
2.4052e-06
3.32865e-06
4.48556e-06
5.88345e-06
7.51436e-06
9.35575e-06
1.13738e-05
1.35274e-05
1.57725e-05
1.80652e-05
2.03644e-05
2.26328e-05
2.48381e-05
2.69531e-05
2.89562e-05
3.08318e-05
3.25716e-05
3.41772e-05
3.56652e-05
3.70748e-05
3.84789e-05
3.99949e-05
4.17951e-05
4.41165e-05
4.72695e-05
5.16417e-05
5.77054e-05
6.60297e-05
7.72994e-05
9.23436e-05
0.000112176
0.000138051
0.000171529
0.000214574
0.00026966
0.000339911
0.000429285
0.000542792
0.000686781
0.000869303
0.00110057
0.00139356
0.00176477
0.0022352
0.00283172
0.00358876
0.0045497
0.00575041
0.00731165
0.00931603
0.0119106
0.015306
0.0275046
0.0439319
0.060433
0.0768229
0.0929469
0.108672
0.123881
0.138468
0.152333
0.165377
0.177468
0.188564
0.198501
0.207143
0.214351
0.220015
0.224118
0.226809
0.228397
0.22924
0.229653
0.229846
0.229933
0.229971
0.229988
0.229995
0.229998
0.229999
0.23
0.23
0.23
0.23
3.08897e-10
1.34929e-09
3.0953e-09
6.01184e-09
1.08553e-08
1.88422e-08
3.1902e-08
5.30453e-08
8.68807e-08
1.40304e-07
2.23359e-07
3.50209e-07
5.40058e-07
8.17714e-07
1.21333e-06
1.76085e-06
2.4947e-06
3.44516e-06
4.63302e-06
6.0654e-06
7.73385e-06
9.6153e-06
1.16752e-05
1.38719e-05
1.61603e-05
1.84958e-05
2.0836e-05
2.31428e-05
2.53829e-05
2.75286e-05
2.95577e-05
3.14545e-05
3.32109e-05
3.48295e-05
3.63285e-05
3.77505e-05
3.91731e-05
4.07204e-05
4.25729e-05
4.49773e-05
4.8254e-05
5.28014e-05
5.91026e-05
6.77391e-05
7.94102e-05
9.49644e-05
0.000115442
0.000142131
0.000176646
0.000221015
0.000277805
0.000350267
0.000442528
0.000559829
0.000708838
0.000898036
0.00113823
0.00144317
0.0018304
0.00232223
0.00294703
0.00374068
0.00474581
0.00599829
0.0076113
0.00963941
0.0121697
0.0152745
0.0300114
0.0466461
0.063295
0.0797975
0.0960099
0.111804
0.127064
0.141681
0.155551
0.168567
0.180558
0.191525
0.201252
0.209591
0.2164
0.221588
0.2252
0.227467
0.22875
0.22941
0.22973
0.229879
0.229947
0.229977
0.22999
0.229996
0.229998
0.229999
0.23
0.23
0.23
0.23
3.21086e-10
1.40324e-09
3.22204e-09
6.26536e-09
1.13274e-08
1.9685e-08
3.33621e-08
5.55119e-08
9.09514e-08
1.4687e-07
2.33708e-07
3.66144e-07
5.64011e-07
8.52849e-07
1.26361e-06
1.83101e-06
2.59018e-06
3.57188e-06
4.79719e-06
6.27325e-06
7.99141e-06
9.92812e-06
1.20482e-05
1.43089e-05
1.66641e-05
1.90676e-05
2.14758e-05
2.38488e-05
2.61519e-05
2.8356e-05
3.04378e-05
3.2381e-05
3.41774e-05
3.58303e-05
3.73607e-05
3.88156e-05
4.02802e-05
4.18892e-05
4.38361e-05
4.63828e-05
4.98669e-05
5.47039e-05
6.13956e-05
7.0544e-05
8.28737e-05
9.92664e-05
0.000120807
0.000148847
0.000185083
0.000231659
0.0002913
0.00036747
0.00046459
0.000588305
0.000745844
0.000946478
0.00120213
0.00152819
0.00194455
0.0024771
0.00315964
0.00403651
0.00515367
0.00659335
0.00848249
0.0109237
0.0140804
0.0181052
0.0345759
0.0512804
0.0679977
0.0845476
0.100777
0.11655
0.131746
0.146251
0.159953
0.172736
0.18443
0.195011
0.204268
0.212061
0.218276
0.222882
0.225997
0.227905
0.228969
0.229513
0.229776
0.229899
0.229956
0.229981
0.229992
0.229996
0.229999
0.229999
0.23
0.23
0.23
0.23
3.33701e-10
1.45854e-09
3.3498e-09
6.51569e-09
1.17833e-08
2.0482e-08
3.47171e-08
5.77657e-08
9.46296e-08
1.52766e-07
2.42995e-07
3.80512e-07
5.85828e-07
8.85328e-07
1.31095e-06
1.89847e-06
2.68406e-06
3.69942e-06
4.96627e-06
6.49212e-06
8.26824e-06
1.02707e-05
1.24634e-05
1.48025e-05
1.72404e-05
1.97292e-05
2.22235e-05
2.46816e-05
2.7067e-05
2.93488e-05
3.15025e-05
3.35106e-05
3.53647e-05
3.7069e-05
3.86472e-05
4.01523e-05
4.16786e-05
4.3374e-05
4.54482e-05
4.81831e-05
5.19369e-05
5.7147e-05
6.43379e-05
7.41375e-05
8.73018e-05
0.000104754
0.000127634
0.000157367
0.000195751
0.000245068
0.00030822
0.000388915
0.000491898
0.000623247
0.000790774
0.00100454
0.00127752
0.00162658
0.00207364
0.00264749
0.00338624
0.0043405
0.00555537
0.00717252
0.0093164
0.0122036
0.0161868
0.0234293
0.0400322
0.05684
0.0736161
0.090172
0.10635
0.122015
0.137044
0.15132
0.164729
0.177139
0.188462
0.198547
0.207254
0.214455
0.220064
0.224103
0.22675
0.228325
0.229184
0.229615
0.229823
0.229921
0.229965
0.229985
0.229993
0.229997
0.229999
0.229999
0.23
0.23
0.23
0.23
3.46235e-10
1.51339e-09
3.47615e-09
6.7626e-09
1.22324e-08
2.12673e-08
3.60556e-08
6.00036e-08
9.8308e-08
1.58715e-07
2.52456e-07
3.95295e-07
6.08497e-07
9.19388e-07
1.36101e-06
1.97036e-06
2.78483e-06
3.83715e-06
5.14988e-06
6.73093e-06
8.57162e-06
1.06476e-05
1.29221e-05
1.535e-05
1.78823e-05
2.04695e-05
2.30639e-05
2.56221e-05
2.81054e-05
3.04811e-05
3.27227e-05
3.48118e-05
3.67392e-05
3.85103e-05
4.01521e-05
4.17244e-05
4.3333e-05
4.51409e-05
4.73769e-05
5.03468e-05
5.44329e-05
6.00973e-05
6.78913e-05
7.84728e-05
9.26356e-05
0.000111351
0.000135824
0.000167567
0.000208493
0.000261038
0.000328306
0.000414272
0.000524025
0.000664095
0.000842874
0.00107115
0.00136282
0.00173578
0.00221307
0.00282429
0.00360728
0.00460697
0.00586093
0.00749404
0.00956933
0.0121777
0.015383
0.0288951
0.0458094
0.0627752
0.0796008
0.0961204
0.112189
0.127678
0.142468
0.156446
0.1695
0.181456
0.192314
0.201871
0.210001
0.216596
0.221609
0.225117
0.227352
0.228651
0.229345
0.229692
0.229859
0.229936
0.229972
0.229988
0.229995
0.229998
0.229999
0.23
0.23
0.23
0.23
0.23
3.58448e-10
1.56678e-09
3.59897e-09
7.00222e-09
1.26676e-08
2.20278e-08
3.73521e-08
6.21734e-08
1.01883e-07
1.64515e-07
2.61724e-07
4.09867e-07
6.31007e-07
9.53504e-07
1.41166e-06
2.04386e-06
2.88897e-06
3.98102e-06
5.3436e-06
6.98521e-06
8.89727e-06
1.1055e-05
1.34209e-05
1.59485e-05
1.85872e-05
2.12856e-05
2.39942e-05
2.66671e-05
2.92636e-05
3.17488e-05
3.40943e-05
3.62802e-05
3.82968e-05
4.01506e-05
4.18726e-05
4.35307e-05
4.52439e-05
4.71932e-05
4.96302e-05
5.28866e-05
5.73715e-05
6.35747e-05
7.20774e-05
8.3572e-05
9.88952e-05
0.000119075
0.000145391
0.000179457
0.00022332
0.000279592
0.000351613
0.00044367
0.000561265
0.000711485
0.000903463
0.00114901
0.00146344
0.00186667
0.00238471
0.00305167
0.0039125
0.0050137
0.00642689
0.00830905
0.0107493
0.0139162
0.017959
0.0348081
0.0518506
0.0688618
0.0856551
0.102071
0.11797
0.133227
0.147727
0.161359
0.17401
0.185542
0.195898
0.204911
0.212467
0.218477
0.222934
0.225967
0.227848
0.228916
0.229477
0.229754
0.229887
0.229949
0.229977
0.22999
0.229996
0.229998
0.229999
0.23
0.23
0.23
0.23
0.23
3.7045e-10
1.61927e-09
3.71976e-09
7.23809e-09
1.30967e-08
2.27793e-08
3.86371e-08
6.43324e-08
1.05456e-07
1.70343e-07
2.71091e-07
4.24682e-07
6.54038e-07
9.88627e-07
1.46411e-06
2.12044e-06
2.99807e-06
4.13255e-06
5.54867e-06
7.2557e-06
9.24529e-06
1.14924e-05
1.39586e-05
1.65963e-05
1.93533e-05
2.21762e-05
2.50133e-05
2.78164e-05
3.05424e-05
3.3154e-05
3.56209e-05
3.79212e-05
4.00449e-05
4.2e-05
4.38221e-05
4.55889e-05
4.74344e-05
4.95599e-05
5.22435e-05
5.58451e-05
6.08029e-05
6.76369e-05
7.69609e-05
8.95055e-05
0.000106156
0.000128003
0.000156413
0.000193109
0.00024029
0.000300763
0.000378131
0.000477021
0.000603394
0.000764934
0.000971581
0.00123622
0.00157561
0.00201167
0.00257326
0.00329869
0.00423951
0.00543453
0.0070402
0.00917948
0.012075
0.0160918
0.0239471
0.0408107
0.0578563
0.0748288
0.091529
0.107794
0.123486
0.138483
0.152671
0.165942
0.178165
0.189279
0.199138
0.207622
0.214625
0.220085
0.224036
0.226655
0.228239
0.229121
0.229577
0.229802
0.229909
0.229959
0.229982
0.229992
0.229997
0.229999
0.229999
0.23
0.23
0.23
0.23
0.23
3.82252e-10
1.67088e-09
3.83858e-09
7.47027e-09
1.35194e-08
2.35207e-08
3.99075e-08
6.64721e-08
1.09008e-07
1.76159e-07
2.80477e-07
4.39598e-07
6.77347e-07
1.02438e-06
1.51782e-06
2.19933e-06
3.11115e-06
4.29055e-06
5.76373e-06
7.54089e-06
9.61408e-06
1.19581e-05
1.45337e-05
1.72922e-05
2.01797e-05
2.31408e-05
2.61216e-05
2.90714e-05
3.19447e-05
3.47015e-05
3.73093e-05
3.97445e-05
4.19965e-05
4.40751e-05
4.60217e-05
4.79254e-05
4.99373e-05
5.22812e-05
5.52652e-05
5.92796e-05
6.47935e-05
7.23591e-05
8.26249e-05
9.63635e-05
0.000114513
0.000138235
0.000168985
0.000208609
0.000259464
0.000324565
0.000407783
0.000514093
0.000649902
0.00082346
0.00104541
0.00132947
0.00169334
0.00215981
0.00275812
0.00352564
0.00450799
0.0057301
0.00733651
0.0093743
0.0119299
0.0150513
0.0292523
0.0463651
0.0634969
0.0804476
0.0970459
0.113145
0.128615
0.143341
0.157214
0.170129
0.181926
0.192613
0.202004
0.209989
0.216479
0.221438
0.224942
0.227207
0.228547
0.229281
0.229656
0.229839
0.229926
0.229967
0.229985
0.229994
0.229997
0.229999
0.229999
0.23
0.23
0.23
0.23
0.23
3.9385e-10
1.72162e-09
3.95545e-09
7.69884e-09
1.39362e-08
2.42529e-08
4.11647e-08
6.85955e-08
1.12544e-07
1.8197e-07
2.89894e-07
4.54631e-07
7.00947e-07
1.06075e-06
1.57273e-06
2.28036e-06
3.22787e-06
4.45441e-06
5.98778e-06
7.83938e-06
1.00018e-05
1.24499e-05
1.51438e-05
1.80336e-05
2.1064e-05
2.41775e-05
2.73181e-05
3.04325e-05
3.34724e-05
3.63955e-05
3.91666e-05
4.17602e-05
4.41654e-05
4.63942e-05
4.84949e-05
5.05697e-05
5.27892e-05
5.54033e-05
5.87516e-05
6.32566e-05
6.942e-05
7.78277e-05
8.91655e-05
0.000104252
0.000124082
0.000149894
0.000183246
0.000226116
0.000281037
0.000351255
0.000440949
0.000555506
0.000701884
0.000889091
0.00112881
0.00143622
0.00183112
0.00233936
0.00299478
0.0038418
0.00492787
0.00631448
0.00816349
0.0105595
0.0136618
0.0175918
0.034549
0.0517081
0.0688224
0.0856932
0.102155
0.118066
0.133303
0.147754
0.161313
0.173877
0.185309
0.195577
0.20452
0.212038
0.218055
0.222563
0.225677
0.227646
0.228788
0.229404
0.229716
0.229867
0.229939
0.229973
0.229988
0.229995
0.229998
0.229999
0.23
0.23
0.23
0.23
0.23
0.23
4.05185e-10
1.77121e-09
4.06973e-09
7.92252e-09
1.43445e-08
2.49714e-08
4.2401e-08
7.06887e-08
1.1604e-07
1.87734e-07
2.99269e-07
4.69657e-07
7.24638e-07
1.09742e-06
1.62835e-06
2.36284e-06
3.34722e-06
4.62274e-06
6.21904e-06
8.14888e-06
1.04057e-05
1.29645e-05
1.5785e-05
1.88165e-05
2.20021e-05
2.52826e-05
2.85996e-05
3.18975e-05
3.51252e-05
3.82377e-05
4.11973e-05
4.39766e-05
4.65644e-05
4.89754e-05
5.12663e-05
5.3554e-05
5.60311e-05
5.89767e-05
6.27632e-05
6.78466e-05
7.4762e-05
8.41299e-05
9.66753e-05
0.000113264
0.000134953
0.00016306
0.000199245
0.000245622
0.000304895
0.000380539
0.000477028
0.000600137
0.000757346
0.000958373
0.00121589
0.0015465
0.00197209
0.0025217
0.00323424
0.0041624
0.0053443
0.00690513
0.00904052
0.0119139
0.0158504
0.0224581
0.0394749
0.0566401
0.0737072
0.0904796
0.106795
0.122517
0.137525
0.15171
0.164968
0.177198
0.188304
0.198177
0.206705
0.213794
0.219381
0.223491
0.226271
0.227993
0.228976
0.2295
0.229762
0.229889
0.229949
0.229977
0.22999
0.229996
0.229998
0.229999
0.23
0.23
0.23
0.23
0.23
0.23
4.16166e-10
1.81926e-09
4.18052e-09
8.13953e-09
1.47411e-08
2.56705e-08
4.36065e-08
7.27348e-08
1.19468e-07
1.93403e-07
3.08524e-07
4.84546e-07
7.48207e-07
1.13406e-06
1.68415e-06
2.44595e-06
3.46801e-06
4.79386e-06
6.45517e-06
8.46632e-06
1.08218e-05
1.34971e-05
1.64518e-05
1.96346e-05
2.29872e-05
2.64489e-05
2.99591e-05
3.34601e-05
3.68981e-05
4.02253e-05
4.34014e-05
4.63974e-05
4.92018e-05
5.18332e-05
5.43578e-05
5.69092e-05
5.97034e-05
6.3052e-05
6.73612e-05
7.3121e-05
8.09011e-05
9.13574e-05
0.000105256
0.000123515
0.000147255
0.000177876
0.000217143
0.000267301
0.000331216
0.00041256
0.000516043
0.000647716
0.000815371
0.00102906
0.00130176
0.0016503
0.00209655
0.00266901
0.00340499
0.00435257
0.00553972
0.00712266
0.00919023
0.0119011
0.0154762
0.0267605
0.0438805
0.0610672
0.0780916
0.0947683
0.110943
0.126486
0.14128
0.155221
0.168209
0.180113
0.1909
0.200422
0.208577
0.21528
0.220488
0.22425
0.226748
0.228268
0.229123
0.229573
0.229797
0.229906
0.229957
0.229981
0.229991
0.229996
0.229998
0.229999
0.23
0.23
0.23
0.23
0.23
0.23
4.26673e-10
1.86525e-09
4.28661e-09
8.34753e-09
1.51217e-08
2.63425e-08
4.47676e-08
7.47106e-08
1.22787e-07
1.98911e-07
3.17545e-07
4.99115e-07
7.71359e-07
1.17019e-06
1.73942e-06
2.5286e-06
3.58865e-06
4.9655e-06
6.69305e-06
8.78753e-06
1.12448e-05
1.40411e-05
1.71362e-05
2.04784e-05
2.40086e-05
2.76648e-05
3.13847e-05
3.51083e-05
3.87795e-05
4.2348e-05
4.57711e-05
4.90179e-05
5.20777e-05
5.49733e-05
5.77823e-05
6.06567e-05
6.38368e-05
6.76688e-05
7.25932e-05
7.91346e-05
8.7897e-05
9.95743e-05
0.000114978
0.000135083
0.000161085
0.000194477
0.000237147
0.000291493
0.000360574
0.000448301
0.000559676
0.000701107
0.000880797
0.00110926
0.00139994
0.00177008
0.00224169
0.00284287
0.00360919
0.00458424
0.00579242
0.00733149
0.00933252
0.0118431
0.0149291
0.0304942
0.047765
0.0649936
0.0819849
0.0985729
0.114616
0.12999
0.144587
0.158304
0.171043
0.182667
0.193161
0.202359
0.210176
0.216533
0.221405
0.224869
0.22713
0.228485
0.229238
0.22963
0.229825
0.229919
0.229963
0.229983
0.229993
0.229997
0.229999
0.229999
0.23
0.23
0.23
0.23
0.23
0.23
4.36571e-10
1.90858e-09
4.38663e-09
8.54382e-09
1.54814e-08
2.69786e-08
4.58691e-08
7.65897e-08
1.25953e-07
2.04181e-07
3.26207e-07
5.13152e-07
7.9375e-07
1.20527e-06
1.79328e-06
2.60947e-06
3.70718e-06
5.13483e-06
6.92872e-06
9.10719e-06
1.16677e-05
1.45875e-05
1.78272e-05
2.13349e-05
2.50513e-05
2.89133e-05
3.28574e-05
3.68219e-05
4.07489e-05
4.45856e-05
4.82872e-05
5.18217e-05
5.5179e-05
5.83877e-05
6.15379e-05
6.48012e-05
6.84446e-05
7.28465e-05
7.84808e-05
8.59052e-05
9.57579e-05
0.000108772
0.000125806
0.000147898
0.000176323
0.000212683
0.000259
0.000317854
0.000392537
0.000487267
0.000607455
0.000760046
0.000953972
0.00120072
0.00151509
0.00191616
0.0024285
0.00308383
0.00392322
0.00499297
0.00633353
0.00811065
0.0104004
0.0133562
0.0171155
0.0341417
0.051376
0.0685524
0.085464
0.101943
0.117848
0.133059
0.147469
0.160978
0.173492
0.184888
0.195116
0.204022
0.211531
0.217581
0.222162
0.225371
0.227436
0.228657
0.229328
0.229675
0.229846
0.229929
0.229967
0.229985
0.229993
0.229997
0.229999
0.229999
0.23
0.23
0.23
0.23
0.23
0.23
4.45713e-10
1.94862e-09
4.47908e-09
8.72544e-09
1.58146e-08
2.75691e-08
4.68939e-08
7.83424e-08
1.28914e-07
2.09126e-07
3.34361e-07
5.26412e-07
8.14977e-07
1.23865e-06
1.84472e-06
2.68699e-06
3.82123e-06
5.29842e-06
7.15737e-06
9.41865e-06
1.20816e-05
1.51251e-05
1.85104e-05
2.21865e-05
2.60941e-05
3.01698e-05
3.43496e-05
3.85707e-05
4.27736e-05
4.69042e-05
5.0916e-05
5.47763e-05
5.84767e-05
6.20524e-05
6.56074e-05
6.93324e-05
7.35201e-05
7.85788e-05
8.50127e-05
9.34091e-05
0.000104438
0.000118869
0.000137609
0.000161756
0.000192667
0.000232044
0.000282047
0.000345428
0.000425711
0.000527422
0.000656385
0.000820113
0.00102833
0.00129363
0.00163243
0.00206613
0.0026228
0.00333936
0.00426461
0.00544101
0.00695136
0.00898274
0.0116403
0.0151378
0.0199384
0.0371558
0.0544579
0.0716259
0.0884777
0.104859
0.120637
0.135697
0.149934
0.163252
0.175555
0.186744
0.196721
0.205398
0.212656
0.218443
0.222776
0.225775
0.227678
0.228792
0.229398
0.22971
0.229863
0.229936
0.229971
0.229987
0.229994
0.229997
0.229999
0.23
0.23
0.23
0.23
0.23
0.23
0.23
4.53944e-10
1.98468e-09
4.56241e-09
8.88931e-09
1.61158e-08
2.81038e-08
4.78238e-08
7.99368e-08
1.31616e-07
2.1365e-07
3.41846e-07
5.38626e-07
8.34595e-07
1.2696e-06
1.89258e-06
2.75938e-06
3.92811e-06
5.45228e-06
7.37325e-06
9.71396e-06
1.24759e-05
1.56395e-05
1.91678e-05
2.30106e-05
2.71095e-05
3.14017e-05
3.58231e-05
4.0311e-05
4.48055e-05
4.92516e-05
5.36025e-05
5.78256e-05
6.19155e-05
6.59155e-05
6.99436e-05
7.42068e-05
7.90208e-05
8.4819e-05
9.21304e-05
0.000101567
0.000113825
0.000129708
0.000150164
0.000176344
0.000209672
0.000251936
0.000305397
0.00037294
0.000458253
0.000566067
0.000702468
0.000875308
0.00109475
0.00137399
0.00173023
0.00218601
0.00277099
0.00352444
0.00449867
0.00572654
0.00732745
0.00948673
0.012327
0.0160943
0.0226436
0.0398515
0.0571331
0.0742578
0.0910411
0.10733
0.122995
0.137921
0.152006
0.165152
0.177259
0.188225
0.197997
0.206465
0.213544
0.219134
0.223268
0.226095
0.227869
0.228897
0.229453
0.229737
0.229876
0.229942
0.229974
0.229988
0.229995
0.229998
0.229999
0.23
0.23
0.23
0.23
0.23
0.23
0.23
4.61113e-10
2.01609e-09
4.63506e-09
9.03234e-09
1.6379e-08
2.8572e-08
4.86401e-08
8.13403e-08
1.34e-07
2.17656e-07
3.48494e-07
5.49505e-07
8.52122e-07
1.29734e-06
1.93561e-06
2.82465e-06
4.02478e-06
5.59192e-06
7.56987e-06
9.98396e-06
1.28379e-05
1.61142e-05
1.97775e-05
2.37794e-05
2.80629e-05
3.25665e-05
3.72274e-05
4.19836e-05
4.67763e-05
5.15513e-05
5.62628e-05
6.08801e-05
6.54026e-05
6.98834e-05
7.44537e-05
7.93312e-05
8.48491e-05
9.14595e-05
9.97092e-05
0.000110229
0.000123736
0.000141063
0.000163191
0.000191314
0.000226904
0.000271808
0.000328354
0.000399499
0.000489008
0.00060169
0.000743703
0.000922944
0.00114957
0.00143669
0.00180122
0.00226512
0.00285697
0.00361403
0.00458517
0.00579562
0.00740753
0.00950582
0.0122436
0.015831
0.024711
0.0419998
0.059303
0.0764082
0.0931421
0.109359
0.124932
0.139751
0.153711
0.166715
0.178673
0.189523
0.199137
0.207417
0.214277
0.219692
0.223661
0.226347
0.228019
0.228979
0.229495
0.229757
0.229886
0.229947
0.229976
0.229989
0.229995
0.229998
0.229999
0.23
0.23
0.23
0.23
0.23
0.23
0.23
4.67069e-10
2.04219e-09
4.69549e-09
9.15147e-09
1.65987e-08
2.89635e-08
4.93243e-08
8.25196e-08
1.3601e-07
2.21042e-07
3.54127e-07
5.58752e-07
8.67061e-07
1.32105e-06
1.97247e-06
2.88072e-06
4.10805e-06
5.71252e-06
7.74019e-06
1.02186e-05
1.31537e-05
1.65301e-05
2.03144e-05
2.44602e-05
2.89126e-05
3.36121e-05
3.8498e-05
4.35108e-05
4.85938e-05
5.36957e-05
5.87738e-05
6.38022e-05
6.87879e-05
7.37963e-05
7.89696e-05
8.4526e-05
9.08098e-05
9.8284e-05
0.000107506
0.00011912
0.000133862
0.000152585
0.000176302
0.000206235
0.000243896
0.000291165
0.000350407
0.000424608
0.000517552
0.000634042
0.000780191
0.000963788
0.00119477
0.00148586
0.00185334
0.00231812
0.00290711
0.00365509
0.00460712
0.00578671
0.00729074
0.00927604
0.0118203
0.0150953
0.0262778
0.0436659
0.0610041
0.078102
0.0947984
0.110954
0.126447
0.141172
0.155031
0.167942
0.179814
0.190542
0.200023
0.208161
0.214875
0.220125
0.223964
0.226542
0.228132
0.229041
0.229527
0.229773
0.229893
0.229951
0.229978
0.22999
0.229996
0.229998
0.229999
0.23
0.23
0.23
0.23
0.23
0.23
0.23
4.71673e-10
2.06239e-09
4.74228e-09
9.24384e-09
1.67693e-08
2.92684e-08
4.98584e-08
8.34426e-08
1.37587e-07
2.23707e-07
3.58575e-07
5.6607e-07
8.78914e-07
1.3399e-06
2.00185e-06
2.92549e-06
4.17466e-06
5.8092e-06
7.87703e-06
1.04077e-05
1.34089e-05
1.68672e-05
2.07515e-05
2.50172e-05
2.96118e-05
3.44784e-05
3.9559e-05
4.47973e-05
5.01405e-05
5.55416e-05
6.09639e-05
6.63892e-05
7.18368e-05
7.73885e-05
8.31954e-05
8.94646e-05
9.65407e-05
0.000104888
0.000115069
0.000127739
0.000143648
0.000163673
0.000188848
0.000220428
0.000259948
0.000309321
0.000370933
0.000447789
0.000543676
0.000663378
0.000812952
0.00100008
0.0012345
0.00152862
0.00189819
0.00236331
0.00294965
0.00369006
0.00462667
0.00578604
0.00724557
0.00916569
0.0116157
0.0147528
0.0275634
0.0449733
0.0623073
0.0793803
0.096036
0.112141
0.127579
0.142247
0.156049
0.168886
0.180667
0.1913
0.200681
0.208713
0.215318
0.220459
0.224189
0.226684
0.228216
0.229087
0.229551
0.229785
0.229899
0.229953
0.229979
0.22999
0.229996
0.229998
0.229999
0.23
0.23
0.23
0.23
0.23
0.23
0.23
4.748e-10
2.07611e-09
4.7741e-09
9.30674e-09
1.68857e-08
2.94767e-08
5.02242e-08
8.40766e-08
1.38673e-07
2.25547e-07
3.61654e-07
5.7115e-07
8.87162e-07
1.35304e-06
2.02237e-06
2.95683e-06
4.22136e-06
5.87707e-06
7.97326e-06
1.05408e-05
1.3589e-05
1.71059e-05
2.1062e-05
2.54146e-05
3.0113e-05
3.51029e-05
4.03289e-05
4.57381e-05
5.12817e-05
5.69177e-05
6.26156e-05
6.83667e-05
7.42025e-05
8.02197e-05
8.6597e-05
9.35762e-05
0.000101411
0.000110565
0.000121604
0.000135195
0.000152107
0.000173234
0.000199637
0.000232594
0.000273668
0.000324794
0.000388385
0.000467464
0.000565829
0.000688269
0.000840827
0.00103115
0.00126892
0.00156642
0.00193926
0.00240734
0.00299602
0.0037378
0.0046744
0.0058338
0.007289
0.00920283
0.011645
0.0147642
0.0285125
0.0459115
0.063226
0.0802736
0.0968998
0.112972
0.128371
0.142993
0.15674
0.169519
0.181238
0.191807
0.20112
0.20908
0.21561
0.220678
0.22434
0.22678
0.228272
0.229117
0.229567
0.229792
0.229902
0.229955
0.22998
0.229991
0.229996
0.229998
0.229999
0.23
0.23
0.23
0.23
0.23
0.23
0.23
4.76346e-10
2.08289e-09
4.78979e-09
9.33773e-09
1.6943e-08
2.95791e-08
5.0404e-08
8.43879e-08
1.39207e-07
2.26451e-07
3.63167e-07
5.73649e-07
8.91221e-07
1.35952e-06
2.0325e-06
2.9723e-06
4.24444e-06
5.91069e-06
8.02104e-06
1.06071e-05
1.36791e-05
1.72257e-05
2.12185e-05
2.56158e-05
3.03683e-05
3.54229e-05
4.07261e-05
4.6227e-05
5.18796e-05
5.76452e-05
6.34982e-05
6.94361e-05
7.54993e-05
8.17983e-05
8.85346e-05
9.5981e-05
0.000104424
0.000114159
0.000125784
0.000139985
0.000157548
0.000179387
0.000206579
0.000240421
0.000282498
0.000334764
0.00039965
0.000480199
0.000580227
0.000704539
0.000859193
0.00105184
0.00129219
0.00159252
0.00196848
0.00243999
0.00303252
0.00377868
0.00472044
0.00588562
0.0073479
0.00927003
0.01172
0.0148367
0.029012
0.0464131
0.0637183
0.0807498
0.0973553
0.113403
0.128776
0.14337
0.157088
0.169837
0.181524
0.19206
0.201337
0.20926
0.215754
0.220786
0.224416
0.226827
0.2283
0.229132
0.229574
0.229796
0.229904
0.229956
0.22998
0.229991
0.229996
0.229998
0.229999
0.23
0.23
0.23
0.23
0.23
0.23
0.23
4.76296e-10
2.08266e-09
4.78925e-09
9.3366e-09
1.69408e-08
2.95749e-08
5.03961e-08
8.43736e-08
1.39181e-07
2.26406e-07
3.63091e-07
5.73522e-07
8.91019e-07
1.35921e-06
2.03203e-06
2.97165e-06
4.24358e-06
5.90961e-06
8.01978e-06
1.06058e-05
1.36778e-05
1.72248e-05
2.12182e-05
2.56165e-05
3.03704e-05
3.54267e-05
4.07321e-05
4.62356e-05
5.1891e-05
5.76597e-05
6.3516e-05
6.94574e-05
7.55243e-05
8.18273e-05
8.85677e-05
9.60183e-05
0.000104465
0.000114205
0.000125835
0.00014004
0.000157608
0.00017945
0.000206646
0.00024049
0.000282566
0.000334826
0.000399701
0.000480229
0.000580223
0.000704483
0.000859059
0.0010516
0.00129179
0.00159192
0.00196762
0.00243881
0.00303097
0.00377677
0.00471826
0.00588337
0.00734612
0.00926926
0.0117205
0.0148369
0.0290158
0.0464179
0.0637236
0.080755
0.0973602
0.113407
0.12878
0.143373
0.157091
0.16984
0.181527
0.192062
0.201339
0.209262
0.215756
0.220787
0.224417
0.226828
0.2283
0.229132
0.229574
0.229796
0.229904
0.229956
0.22998
0.229991
0.229996
0.229998
0.229999
0.23
0.23
0.23
0.23
0.23
0.23
0.23
4.74658e-10
2.07547e-09
4.77257e-09
9.30359e-09
1.68796e-08
2.94651e-08
5.02027e-08
8.40373e-08
1.38603e-07
2.25424e-07
3.61445e-07
5.70804e-07
8.86606e-07
1.35218e-06
2.0211e-06
2.95501e-06
4.21891e-06
5.87397e-06
7.96959e-06
1.05368e-05
1.35852e-05
1.71029e-05
2.10606e-05
2.54158e-05
3.0118e-05
3.51128e-05
4.0345e-05
4.57614e-05
5.13131e-05
5.69581e-05
6.26658e-05
6.84271e-05
7.42736e-05
8.03018e-05
8.66907e-05
9.36818e-05
0.000101529
0.000110695
0.000121749
0.000135355
0.000152282
0.000173424
0.000199841
0.000232809
0.000273889
0.000325013
0.000388587
0.000467629
0.000565927
0.000688257
0.000840648
0.00103072
0.00126815
0.00156519
0.00193744
0.0024048
0.00299269
0.00373371
0.0046698
0.00582927
0.0072858
0.00920203
0.0116465
0.0147627
0.0285232
0.0459247
0.0632407
0.0802887
0.0969144
0.112985
0.128383
0.143004
0.15675
0.169528
0.181247
0.191815
0.201126
0.209085
0.215615
0.220682
0.224344
0.226781
0.228273
0.229118
0.229567
0.229792
0.229903
0.229955
0.22998
0.229991
0.229996
0.229998
0.229999
0.23
0.23
0.23
0.23
0.23
0.23
0.23
4.7145e-10
2.06139e-09
4.7399e-09
9.23892e-09
1.67597e-08
2.92502e-08
4.98248e-08
8.33816e-08
1.37478e-07
2.23516e-07
3.58249e-07
5.65529e-07
8.78043e-07
1.33854e-06
1.99983e-06
2.92261e-06
4.17075e-06
5.8042e-06
7.87105e-06
1.0401e-05
1.34023e-05
1.68617e-05
2.07482e-05
2.50179e-05
2.96181e-05
3.44921e-05
3.9582e-05
4.48314e-05
5.01873e-05
5.56024e-05
6.10398e-05
6.6481e-05
7.19449e-05
7.75136e-05
8.33379e-05
8.9625e-05
9.67203e-05
0.000105088
0.000115293
0.000127988
0.000143926
0.00016398
0.000189188
0.0002208
0.000260352
0.000309751
0.000371383
0.000448246
0.000544118
0.000663777
0.00081327
0.00100026
0.00123449
0.00152835
0.00189759
0.00236234
0.00294832
0.00368845
0.00462501
0.00578477
0.00724534
0.00916688
0.0116166
0.0147453
0.0275815
0.044993
0.0623288
0.0794029
0.0960589
0.112163
0.1276
0.142266
0.156066
0.168902
0.180681
0.191313
0.200692
0.208722
0.215325
0.220464
0.224192
0.226687
0.228218
0.229087
0.229551
0.229785
0.229899
0.229953
0.229979
0.22999
0.229996
0.229998
0.229999
0.23
0.23
0.23
0.23
0.23
0.23
0.23
4.66781e-10
2.04091e-09
4.69242e-09
9.14514e-09
1.65864e-08
2.89403e-08
4.92812e-08
8.24411e-08
1.35869e-07
2.20795e-07
3.53704e-07
5.58045e-07
8.65916e-07
1.31925e-06
1.96977e-06
2.87682e-06
4.10269e-06
5.70554e-06
7.73165e-06
1.02089e-05
1.31435e-05
1.65206e-05
2.03072e-05
2.44573e-05
2.89162e-05
3.36245e-05
3.85217e-05
4.3548e-05
4.86466e-05
5.37659e-05
5.88629e-05
6.39112e-05
6.89174e-05
7.39468e-05
7.91416e-05
8.47205e-05
9.10288e-05
9.85304e-05
0.000107784
0.000119434
0.000134219
0.000152992
0.000176765
0.000206764
0.0002445
0.000291854
0.000351194
0.000425506
0.000518576
0.000635212
0.00078153
0.000965326
0.00119655
0.00148794
0.0018558
0.00232106
0.00291062
0.00365918
0.00461151
0.00579056
0.00729084
0.00927301
0.0118129
0.0150797
0.0263109
0.043697
0.0610343
0.0781315
0.0948273
0.110982
0.126475
0.141199
0.155057
0.167965
0.179834
0.19056
0.20004
0.208175
0.214887
0.220133
0.22397
0.226545
0.228135
0.229042
0.229528
0.229773
0.229893
0.229951
0.229978
0.22999
0.229996
0.229998
0.229999
0.23
0.23
0.23
0.23
0.23
0.23
0.23
4.60776e-10
2.01459e-09
4.63148e-09
9.02497e-09
1.63647e-08
2.8545e-08
4.859e-08
8.12487e-08
1.33836e-07
2.17367e-07
3.47994e-07
5.48666e-07
8.50753e-07
1.29518e-06
1.93231e-06
2.81984e-06
4.01807e-06
5.58303e-06
7.55872e-06
9.97083e-06
1.28235e-05
1.60998e-05
1.97648e-05
2.37706e-05
2.80605e-05
3.25731e-05
3.72458e-05
4.20165e-05
4.6826e-05
5.162e-05
5.6352e-05
6.09911e-05
6.55361e-05
7.00398e-05
7.46335e-05
7.95355e-05
8.50803e-05
9.17212e-05
0.000100007
0.000110569
0.000124128
0.000141517
0.000163721
0.000191935
0.000227637
0.000272676
0.00032939
0.000400742
0.000490509
0.000603518
0.000745943
0.000925709
0.00115301
0.00144098
0.00180661
0.00227193
0.00286562
0.0036252
0.00460005
0.00581618
0.00738718
0.0094897
0.0122278
0.0158212
0.0247701
0.0420506
0.0593482
0.0764494
0.0931799
0.109394
0.124965
0.139782
0.153742
0.166745
0.1787
0.189547
0.199158
0.207434
0.214291
0.219703
0.223669
0.226352
0.228021
0.22898
0.229496
0.229758
0.229886
0.229947
0.229976
0.229989
0.229995
0.229998
0.229999
0.23
0.23
0.23
0.23
0.23
0.23
0.23
4.53574e-10
1.98303e-09
4.55848e-09
8.88124e-09
1.61001e-08
2.80742e-08
4.77691e-08
7.98368e-08
1.31435e-07
2.13332e-07
3.41294e-07
5.37692e-07
8.33058e-07
1.26715e-06
1.88881e-06
2.75381e-06
3.92022e-06
5.44164e-06
7.35962e-06
9.69745e-06
1.24571e-05
1.56196e-05
1.91484e-05
2.2994e-05
2.70982e-05
3.13986e-05
3.5831e-05
4.03328e-05
4.48436e-05
4.93083e-05
5.36794e-05
5.7924e-05
6.2036e-05
6.60584e-05
7.01091e-05
7.43959e-05
7.92353e-05
8.50625e-05
9.24081e-05
0.000101886
0.000114194
0.000130139
0.000150672
0.000176947
0.000210394
0.000252806
0.000306456
0.000374239
0.00045986
0.000568071
0.000704984
0.000878483
0.00109876
0.00137903
0.00173651
0.00219366
0.00277997
0.00353429
0.00450812
0.00573273
0.00732747
0.00948316
0.012325
0.016112
0.0227169
0.0399106
0.0571845
0.0743043
0.0910842
0.10737
0.123032
0.137956
0.152038
0.165181
0.177287
0.188251
0.19802
0.206485
0.213561
0.219147
0.223277
0.226101
0.227873
0.228899
0.229454
0.229737
0.229876
0.229943
0.229974
0.229988
0.229995
0.229998
0.229999
0.23
0.23
0.23
0.23
0.23
0.23
0.23
4.4532e-10
1.94688e-09
4.47494e-09
8.71697e-09
1.57983e-08
2.75383e-08
4.68369e-08
7.82381e-08
1.28726e-07
2.08791e-07
3.33779e-07
5.25421e-07
8.13335e-07
1.23601e-06
1.84061e-06
2.68085e-06
3.81241e-06
5.28631e-06
7.14154e-06
9.39901e-06
1.20585e-05
1.50995e-05
1.84838e-05
2.2161e-05
2.60721e-05
3.01541e-05
3.43431e-05
3.8576e-05
4.27934e-05
4.69405e-05
5.09706e-05
5.48501e-05
5.85702e-05
6.21657e-05
6.57403e-05
6.94849e-05
7.36931e-05
7.87746e-05
8.52348e-05
9.36627e-05
0.000104729
0.000119207
0.000138004
0.00016222
0.000193215
0.000232695
0.000282825
0.000346362
0.000426838
0.000528787
0.000658041
0.000822123
0.00103076
0.00129656
0.00163593
0.00207024
0.0026275
0.00334454
0.00427001
0.00544587
0.00695541
0.00898702
0.0116491
0.015164
0.0199861
0.0371991
0.0545033
0.0716724
0.0885243
0.104905
0.120681
0.135738
0.149973
0.163287
0.175587
0.18677
0.196743
0.205418
0.212675
0.218459
0.222788
0.225782
0.227683
0.228794
0.2294
0.22971
0.229863
0.229937
0.229971
0.229987
0.229994
0.229997
0.229999
0.23
0.23
0.23
0.23
0.23
0.23
0.23
4.36167e-10
1.9068e-09
4.38239e-09
8.53519e-09
1.54648e-08
2.69475e-08
4.58117e-08
7.64848e-08
1.25763e-07
2.03844e-07
3.25617e-07
5.12141e-07
7.92062e-07
1.20253e-06
1.78898e-06
2.60296e-06
3.6977e-06
5.12163e-06
6.91116e-06
9.08491e-06
1.16408e-05
1.45567e-05
1.77936e-05
2.13003e-05
2.5018e-05
2.88838e-05
3.28344e-05
3.68081e-05
4.07464e-05
4.45965e-05
4.83131e-05
5.18633e-05
5.52366e-05
5.8461e-05
6.16262e-05
6.49036e-05
6.85607e-05
7.29766e-05
7.8626e-05
8.60674e-05
9.59394e-05
0.000108975
0.000126035
0.000148154
0.000176611
0.000213004
0.000259357
0.000318246
0.000392964
0.000487725
0.000607937
0.000760543
0.000954471
0.00120121
0.00151557
0.00191664
0.00242907
0.00308464
0.00392472
0.00499564
0.0063388
0.00812063
0.0104184
0.0133862
0.0171423
0.0341684
0.051417
0.0686007
0.0855153
0.101994
0.117899
0.133108
0.147516
0.161024
0.173536
0.184932
0.195157
0.204057
0.211559
0.217603
0.222176
0.225381
0.227441