/*--------------------------------*- C++ -*----------------------------------*\
  =========                 |
  \\      /  F ield         | OpenFOAM: The Open Source CFD Toolbox
   \\    /   O peration     | Website:  https://openfoam.org
    \\  /    A nd           | Version:  8
     \\/     M anipulation  |
\*---------------------------------------------------------------------------*/
FoamFile
{
    version     2.0;
    format      ascii;
    class       surfaceScalarField;
    location    "160/fluid";
    object      phi;
}
// * * * * * * * * * * * * * * * * * * * * * * * * * * * * * * * * * * * * * //

dimensions      [1 0 -1 0 0 0 0];

internalField   nonuniform List<scalar> 
7860
(
6.5746e-07
-1.73731e-08
6.55191e-07
-5.19292e-08
6.51964e-07
-8.62511e-08
6.47685e-07
-1.20327e-07
6.42238e-07
-1.54154e-07
6.35485e-07
-1.87718e-07
6.27269e-07
-2.21006e-07
6.17414e-07
-2.53963e-07
6.05739e-07
-2.86471e-07
5.92063e-07
-3.18347e-07
5.76217e-07
-3.49348e-07
5.58061e-07
-3.79159e-07
5.37516e-07
-4.07382e-07
5.14621e-07
-4.33517e-07
4.89578e-07
-4.56953e-07
4.62628e-07
-4.76968e-07
4.34114e-07
-4.9283e-07
4.0448e-07
-5.0393e-07
3.7424e-07
-5.09932e-07
3.43926e-07
-5.10876e-07
3.14037e-07
-5.0719e-07
2.84982e-07
-4.99592e-07
2.57069e-07
-4.8894e-07
2.30504e-07
-4.76085e-07
2.05444e-07
-4.61774e-07
1.81947e-07
-4.46596e-07
1.59986e-07
-4.30996e-07
1.39489e-07
-4.15302e-07
1.20364e-07
-3.99751e-07
1.02515e-07
-3.84512e-07
8.58454e-08
-3.69709e-07
7.0261e-08
-3.5543e-07
5.56743e-08
-3.41738e-07
4.20031e-08
-3.28678e-07
2.91702e-08
-3.16284e-07
1.71037e-08
-3.04574e-07
5.73597e-09
-2.93562e-07
-4.99279e-09
-2.8325e-07
-1.51332e-08
-2.73605e-07
-2.47345e-08
-2.64612e-07
-3.3847e-08
-2.56262e-07
-4.25171e-08
-2.48543e-07
-5.07881e-08
-2.4144e-07
-5.87002e-08
-2.34934e-07
-6.62905e-08
-2.29007e-07
-7.35938e-08
-2.23637e-07
-8.06419e-08
-2.18807e-07
-8.74643e-08
-2.14495e-07
-9.40881e-08
-2.10683e-07
-1.00538e-07
-2.07354e-07
-1.06838e-07
-2.0449e-07
-1.13007e-07
-2.02076e-07
-1.19065e-07
-2.00099e-07
-1.25029e-07
-1.98544e-07
-1.30915e-07
-1.97402e-07
-1.36737e-07
-1.96662e-07
-1.42507e-07
-1.96317e-07
-1.48238e-07
-1.96361e-07
-1.53943e-07
-1.9679e-07
-1.59633e-07
-1.97605e-07
-1.65324e-07
-1.98808e-07
-1.71035e-07
-2.00407e-07
-1.7679e-07
-2.02421e-07
-1.82621e-07
-2.04899e-07
-1.88568e-07
-2.07823e-07
-1.94735e-07
-2.11289e-07
-2.01464e-07
-2.15371e-07
-2.05172e-07
-2.20103e-07
-2.17152e-07
-2.34809e-07
-2.26973e-07
-2.53486e-07
-2.38116e-07
-2.74111e-07
-2.50495e-07
-2.96675e-07
-2.64259e-07
-3.21309e-07
-2.79654e-07
-3.48168e-07
-2.96993e-07
-3.77384e-07
-3.1667e-07
-4.09072e-07
-3.39195e-07
-4.43323e-07
-3.65227e-07
-4.8018e-07
-3.95593e-07
-5.19735e-07
-4.31333e-07
-5.62018e-07
-4.73622e-07
-6.06249e-07
-5.23457e-07
-6.50429e-07
-5.80844e-07
-6.90836e-07
-6.45e-07
-7.21593e-07
-7.13973e-07
-7.36187e-07
-7.84349e-07
-7.30961e-07
-8.52164e-07
-7.07379e-07
-9.14322e-07
-6.70235e-07
-9.69211e-07
-6.2472e-07
-1.01638e-06
-5.74484e-07
-1.05586e-06
-5.21625e-07
-1.088e-06
-4.67337e-07
-1.11379e-06
-4.12338e-07
-1.1342e-06
-3.57205e-07
-1.15012e-06
-3.02212e-07
-1.16229e-06
-2.47266e-07
-1.17133e-06
-1.92212e-07
-1.17776e-06
-1.37334e-07
-1.18199e-06
-8.29184e-08
-2.81314e-08
6.58006e-07
-1.68458e-08
6.56203e-07
-5.01255e-08
6.53056e-07
-8.31046e-08
6.48562e-07
-1.15833e-07
6.4266e-07
-1.48252e-07
6.35261e-07
-1.8032e-07
6.26262e-07
-2.12008e-07
6.15553e-07
-2.43256e-07
6.03027e-07
-2.73949e-07
5.88594e-07
-3.03919e-07
5.72183e-07
-3.32944e-07
5.53757e-07
-3.60744e-07
5.3332e-07
-3.8696e-07
5.10938e-07
-4.11155e-07
4.86747e-07
-4.32788e-07
4.60933e-07
-4.51184e-07
4.33757e-07
-4.65684e-07
4.05559e-07
-4.75761e-07
3.76745e-07
-4.81138e-07
3.47748e-07
-4.81884e-07
3.18985e-07
-4.7841e-07
2.90815e-07
-4.71381e-07
2.63524e-07
-4.6158e-07
2.37315e-07
-4.49781e-07
2.12334e-07
-4.36674e-07
1.88663e-07
-4.22785e-07
1.66325e-07
-4.085e-07
1.45304e-07
-3.9411e-07
1.25559e-07
-3.79826e-07
1.07035e-07
-3.65803e-07
8.96691e-08
-3.52153e-07
7.33898e-08
-3.3896e-07
5.81258e-08
-3.26284e-07
4.38049e-08
-3.1417e-07
3.03557e-08
-3.02651e-07
1.77092e-08
-2.91749e-07
5.7982e-09
-2.81478e-07
-5.43867e-09
-2.71843e-07
-1.60558e-08
-2.62815e-07
-2.61054e-08
-2.54382e-07
-3.564e-08
-2.46541e-07
-4.47089e-08
-2.39281e-07
-5.33585e-08
-2.32591e-07
-6.16319e-08
-2.26455e-07
-6.95696e-08
-2.20857e-07
-7.72091e-08
-2.1578e-07
-8.45853e-08
-2.11206e-07
-9.17308e-08
-2.0712e-07
-9.86757e-08
-2.03503e-07
-1.05448e-07
-2.00341e-07
-1.12073e-07
-1.97619e-07
-1.18576e-07
-1.95323e-07
-1.24978e-07
-1.93441e-07
-1.313e-07
-1.91962e-07
-1.37562e-07
-1.90876e-07
-1.43782e-07
-1.90174e-07
-1.49978e-07
-1.8985e-07
-1.56168e-07
-1.89898e-07
-1.6237e-07
-1.90313e-07
-1.68603e-07
-1.91096e-07
-1.7489e-07
-1.92247e-07
-1.81254e-07
-1.93772e-07
-1.87718e-07
-1.95693e-07
-1.94318e-07
-1.9804e-07
-2.01084e-07
-2.00811e-07
-2.0811e-07
-2.04033e-07
-2.15701e-07
-2.07559e-07
-2.21978e-07
-2.11226e-07
-2.32691e-07
-2.26999e-07
-2.42735e-07
-2.44749e-07
-2.54306e-07
-2.64141e-07
-2.67476e-07
-2.85443e-07
-2.82359e-07
-3.08752e-07
-2.99171e-07
-3.34129e-07
-3.18211e-07
-3.61639e-07
-3.39851e-07
-3.91339e-07
-3.64543e-07
-4.23256e-07
-3.92804e-07
-4.57377e-07
-4.25183e-07
-4.93796e-07
-4.62335e-07
-5.32387e-07
-5.04949e-07
-5.72194e-07
-5.53525e-07
-6.11162e-07
-6.07961e-07
-6.458e-07
-6.6743e-07
-6.70611e-07
-7.30071e-07
-6.80167e-07
-7.93103e-07
-6.72331e-07
-8.53716e-07
-6.493e-07
-9.099e-07
-6.15346e-07
-9.60622e-07
-5.74618e-07
-1.00553e-06
-5.29857e-07
-1.04456e-06
-4.82725e-07
-1.0778e-06
-4.34153e-07
-1.10559e-06
-3.84575e-07
-1.12836e-06
-3.3444e-07
-1.1466e-06
-2.83976e-07
-1.16076e-06
-2.33106e-07
-1.17126e-06
-1.81719e-07
-1.17844e-06
-1.30149e-07
-1.18255e-06
-7.88131e-08
-2.68576e-08
6.57747e-07
-1.60589e-08
6.5547e-07
-4.78484e-08
6.51709e-07
-7.93437e-08
6.46429e-07
-1.10553e-07
6.39588e-07
-1.41412e-07
6.31137e-07
-1.71869e-07
6.21023e-07
-2.01895e-07
6.09198e-07
-2.31433e-07
5.95626e-07
-2.6038e-07
5.80287e-07
-2.88585e-07
5.63188e-07
-3.15851e-07
5.44357e-07
-3.41923e-07
5.23852e-07
-3.66467e-07
5.01737e-07
-3.89057e-07
4.78095e-07
-4.09166e-07
4.53091e-07
-4.26202e-07
4.26963e-07
-4.39578e-07
4.0001e-07
-4.48825e-07
3.72576e-07
-4.53712e-07
3.45019e-07
-4.54319e-07
3.17679e-07
-4.51041e-07
2.90852e-07
-4.44501e-07
2.64771e-07
-4.3542e-07
2.39599e-07
-4.24506e-07
2.15424e-07
-4.12374e-07
1.92297e-07
-3.99514e-07
1.7025e-07
-3.86295e-07
1.49297e-07
-3.72987e-07
1.29431e-07
-3.59782e-07
1.10633e-07
-3.46821e-07
9.28691e-08
-3.34204e-07
7.60988e-08
-3.22003e-07
6.02737e-08
-3.10274e-07
4.53414e-08
-2.99056e-07
3.12467e-08
-2.88378e-07
1.79333e-08
-2.78263e-07
5.34443e-09
-2.68724e-07
-6.57362e-09
-2.59762e-07
-1.78694e-08
-2.51352e-07
-2.85909e-08
-2.43486e-07
-3.87879e-08
-2.36162e-07
-4.85082e-08
-2.29372e-07
-5.77975e-08
-2.23106e-07
-6.66992e-08
-2.17351e-07
-7.52544e-08
-2.12093e-07
-8.35018e-08
-2.07317e-07
-9.14779e-08
-2.03008e-07
-9.92173e-08
-1.99152e-07
-1.06752e-07
-1.95734e-07
-1.14113e-07
-1.9274e-07
-1.21329e-07
-1.90157e-07
-1.28427e-07
-1.87974e-07
-1.35432e-07
-1.86179e-07
-1.4237e-07
-1.84763e-07
-1.49264e-07
-1.83716e-07
-1.56136e-07
-1.83032e-07
-1.6301e-07
-1.82703e-07
-1.69906e-07
-1.82725e-07
-1.76848e-07
-1.83095e-07
-1.83857e-07
-1.83812e-07
-1.90956e-07
-1.84879e-07
-1.98167e-07
-1.86302e-07
-2.05513e-07
-1.88121e-07
-2.13031e-07
-1.9033e-07
-2.20737e-07
-1.92987e-07
-2.28619e-07
-1.96172e-07
-2.36554e-07
-1.99908e-07
-2.51683e-07
-2.05028e-07
-2.60113e-07
-2.19682e-07
-2.70217e-07
-2.36054e-07
-2.81915e-07
-2.54166e-07
-2.95327e-07
-2.74102e-07
-3.1062e-07
-2.95925e-07
-3.27988e-07
-3.19683e-07
-3.47658e-07
-3.45422e-07
-3.69888e-07
-3.73179e-07
-3.94961e-07
-4.0297e-07
-4.23139e-07
-4.34821e-07
-4.54645e-07
-4.68867e-07
-4.89769e-07
-5.04826e-07
-5.28835e-07
-5.41548e-07
-5.72232e-07
-5.76641e-07
-6.20526e-07
-6.06106e-07
-6.73629e-07
-6.24907e-07
-7.30155e-07
-6.29148e-07
-7.87664e-07
-6.18355e-07
-8.4365e-07
-5.95306e-07
-8.96309e-07
-5.637e-07
-9.44686e-07
-5.26726e-07
-9.88407e-07
-4.8636e-07
-1.02746e-06
-4.43776e-07
-1.06193e-06
-3.99726e-07
-1.09179e-06
-3.54728e-07
-1.11711e-06
-3.09129e-07
-1.13804e-06
-2.63054e-07
-1.15477e-06
-2.16373e-07
-1.16753e-06
-1.68965e-07
-1.17652e-06
-1.21161e-07
-1.18194e-06
-7.33859e-08
-2.49786e-08
6.5775e-07
-1.52754e-08
6.55382e-07
-4.54807e-08
6.51423e-07
-7.53848e-08
6.45864e-07
-1.04995e-07
6.3869e-07
-1.34238e-07
6.2988e-07
-1.63061e-07
6.19416e-07
-1.91432e-07
6.07278e-07
-2.19297e-07
5.93453e-07
-2.46557e-07
5.77936e-07
-2.73071e-07
5.60735e-07
-2.98655e-07
5.41872e-07
-3.23067e-07
5.21394e-07
-3.45999e-07
4.99377e-07
-3.67053e-07
4.75939e-07
-3.85744e-07
4.51249e-07
-4.01528e-07
4.25528e-07
-4.13871e-07
3.99046e-07
-4.22353e-07
3.7211e-07
-4.26774e-07
3.45039e-07
-4.2723e-07
3.18138e-07
-4.24102e-07
2.91677e-07
-4.17978e-07
2.65872e-07
-4.0953e-07
2.40884e-07
-3.99411e-07
2.1682e-07
-3.88183e-07
1.93744e-07
-3.76294e-07
1.71687e-07
-3.64081e-07
1.50657e-07
-3.51789e-07
1.30644e-07
-3.39595e-07
1.11625e-07
-3.27624e-07
9.35693e-08
-3.15968e-07
7.64396e-08
-3.04694e-07
6.01936e-08
-2.9385e-07
4.47862e-08
-2.83474e-07
3.01696e-08
-2.73592e-07
1.62948e-08
-2.64225e-07
3.11216e-09
-2.55384e-07
-9.42429e-09
-2.47071e-07
-2.13568e-08
-2.39258e-07
-3.27295e-08
-2.31944e-07
-4.35878e-08
-2.25127e-07
-5.39762e-08
-2.18799e-07
-6.39377e-08
-2.12952e-07
-7.35138e-08
-2.07575e-07
-8.27445e-08
-2.02655e-07
-9.16678e-08
-1.9818e-07
-1.0032e-07
-1.94135e-07
-1.08737e-07
-1.90508e-07
-1.1695e-07
-1.87286e-07
-1.24992e-07
-1.84457e-07
-1.32894e-07
-1.82009e-07
-1.40683e-07
-1.79931e-07
-1.4839e-07
-1.78214e-07
-1.56041e-07
-1.76849e-07
-1.63663e-07
-1.75826e-07
-1.71283e-07
-1.7514e-07
-1.78927e-07
-1.74783e-07
-1.86622e-07
-1.7475e-07
-1.94396e-07
-1.75039e-07
-2.02275e-07
-1.75647e-07
-2.10289e-07
-1.76577e-07
-2.18465e-07
-1.77836e-07
-2.26829e-07
-1.79462e-07
-2.35468e-07
-1.81411e-07
-2.44423e-07
-1.83765e-07
-2.53641e-07
-1.86732e-07
-2.62722e-07
-1.90554e-07
-2.78408e-07
-1.98652e-07
-2.87496e-07
-2.11896e-07
-2.98168e-07
-2.26928e-07
-3.1041e-07
-2.43766e-07
-3.24329e-07
-2.62369e-07
-3.4009e-07
-2.82747e-07
-3.57878e-07
-3.04939e-07
-3.77896e-07
-3.28984e-07
-4.00368e-07
-3.54907e-07
-4.25538e-07
-3.82714e-07
-4.53621e-07
-4.1248e-07
-4.84876e-07
-4.44273e-07
-5.19669e-07
-4.77586e-07
-5.58412e-07
-5.11043e-07
-6.01467e-07
-5.42025e-07
-6.48894e-07
-5.66539e-07
-7.00041e-07
-5.80204e-07
-7.53363e-07
-5.8039e-07
-8.06828e-07
-5.67697e-07
-8.58625e-07
-5.45045e-07
-9.07496e-07
-5.156e-07
-9.52728e-07
-4.81861e-07
-9.93958e-07
-4.45298e-07
-1.03103e-06
-4.06784e-07
-1.0639e-06
-3.66888e-07
-1.0926e-06
-3.26035e-07
-1.11722e-06
-2.84521e-07
-1.13782e-06
-2.42449e-07
-1.15451e-06
-1.99684e-07
-1.16737e-06
-1.5611e-07
-1.17649e-06
-1.12042e-07
-1.18197e-06
-6.79067e-08
-2.31258e-08
6.57682e-07
-1.44237e-08
6.55154e-07
-4.29524e-08
6.50958e-07
-7.11894e-08
6.45093e-07
-9.91302e-08
6.37557e-07
-1.26702e-07
6.28347e-07
-1.53851e-07
6.17461e-07
-1.80547e-07
6.049e-07
-2.06737e-07
5.90671e-07
-2.3233e-07
5.7479e-07
-2.57194e-07
5.57287e-07
-2.81156e-07
5.38207e-07
-3.03994e-07
5.17615e-07
-3.25416e-07
4.95603e-07
-3.45051e-07
4.72294e-07
-3.62446e-07
4.47851e-07
-3.77097e-07
4.22482e-07
-3.88511e-07
3.96432e-07
-3.96305e-07
3.69979e-07
-4.0031e-07
3.43406e-07
-4.00631e-07
3.16987e-07
-3.97637e-07
2.90959e-07
-3.91883e-07
2.65519e-07
-3.84e-07
2.40812e-07
-3.74592e-07
2.16938e-07
-3.6418e-07
1.93961e-07
-3.53173e-07
1.71916e-07
-3.4188e-07
1.50815e-07
-3.30523e-07
1.30653e-07
-3.19263e-07
1.11413e-07
-3.08212e-07
9.30713e-08
-2.97453e-07
7.55955e-08
-2.87046e-07
5.89492e-08
-2.77034e-07
4.30927e-08
-2.67452e-07
2.79837e-08
-2.58323e-07
1.35786e-08
-2.49666e-07
-1.67301e-10
-2.41491e-07
-1.32945e-08
-2.33796e-07
-2.58387e-08
-2.26559e-07
-3.78419e-08
-2.19778e-07
-4.9346e-08
-2.13451e-07
-6.03923e-08
-2.07573e-07
-7.10213e-08
-2.02136e-07
-8.12723e-08
-1.97128e-07
-9.11835e-08
-1.92541e-07
-1.00792e-07
-1.8836e-07
-1.10133e-07
-1.84575e-07
-1.19241e-07
-1.81174e-07
-1.2815e-07
-1.78144e-07
-1.36891e-07
-1.75475e-07
-1.45497e-07
-1.73157e-07
-1.53996e-07
-1.71179e-07
-1.62419e-07
-1.69531e-07
-1.70797e-07
-1.68206e-07
-1.79158e-07
-1.67194e-07
-1.87533e-07
-1.66489e-07
-1.95953e-07
-1.66083e-07
-2.04451e-07
-1.65969e-07
-2.13061e-07
-1.66142e-07
-2.21822e-07
-1.66596e-07
-2.30777e-07
-1.67329e-07
-2.39968e-07
-1.68351e-07
-2.49454e-07
-1.69671e-07
-2.59279e-07
-1.71249e-07
-2.6954e-07
-1.731e-07
-2.80631e-07
-1.75065e-07
-2.85979e-07
-1.77025e-07
-2.9931e-07
-1.88506e-07
-3.10691e-07
-2.01689e-07
-3.23017e-07
-2.16115e-07
-3.36586e-07
-2.32055e-07
-3.51602e-07
-2.4959e-07
-3.68258e-07
-2.68746e-07
-3.86763e-07
-2.89566e-07
-4.07328e-07
-3.12094e-07
-4.30174e-07
-3.3636e-07
-4.55514e-07
-3.62384e-07
-4.83523e-07
-3.90296e-07
-5.14439e-07
-4.20042e-07
-5.48564e-07
-4.50926e-07
-5.86202e-07
-4.81366e-07
-6.27581e-07
-5.08541e-07
-6.72635e-07
-5.28537e-07
-7.20691e-07
-5.37664e-07
-7.70387e-07
-5.34434e-07
-8.2006e-07
-5.2025e-07
-8.68282e-07
-4.98008e-07
-9.1406e-07
-4.70413e-07
-9.56805e-07
-4.39396e-07
-9.96171e-07
-4.06063e-07
-1.03194e-06
-3.71072e-07
-1.06398e-06
-3.34874e-07
-1.09222e-06
-2.97811e-07
-1.11662e-06
-2.60121e-07
-1.1372e-06
-2.21868e-07
-1.15398e-06
-1.82904e-07
-1.16699e-06
-1.43107e-07
-1.17626e-06
-1.02764e-07
-1.18189e-06
-6.2282e-08
-2.11941e-08
6.57663e-07
-1.35527e-08
6.55063e-07
-4.03525e-08
6.50744e-07
-6.68708e-08
6.44714e-07
-9.31006e-08
6.36982e-07
-1.1897e-07
6.27555e-07
-1.44425e-07
6.16444e-07
-1.69436e-07
6.03661e-07
-1.93955e-07
5.89225e-07
-2.17895e-07
5.7316e-07
-2.41132e-07
5.55503e-07
-2.63503e-07
5.36303e-07
-2.84799e-07
5.15628e-07
-3.04748e-07
4.93572e-07
-3.23003e-07
4.70259e-07
-3.39142e-07
4.45853e-07
-3.52698e-07
4.20556e-07
-3.63217e-07
3.94611e-07
-3.70356e-07
3.68286e-07
-3.73969e-07
3.41855e-07
-3.74168e-07
3.1558e-07
-3.7131e-07
2.89688e-07
-3.65918e-07
2.64361e-07
-3.58579e-07
2.39736e-07
-3.49854e-07
2.15906e-07
-3.40221e-07
1.92928e-07
-3.30054e-07
1.70835e-07
-3.19634e-07
1.49634e-07
-3.09163e-07
1.29321e-07
-2.98785e-07
1.09879e-07
-2.88604e-07
9.12854e-08
-2.78693e-07
7.35095e-08
-2.69106e-07
5.65175e-08
-2.59882e-07
4.02727e-08
-2.51052e-07
2.4736e-08
-2.42637e-07
9.86698e-09
-2.34653e-07
-4.37356e-09
-2.27113e-07
-1.8021e-08
-2.20008e-07
-3.11096e-08
-2.13321e-07
-4.36782e-08
-2.07051e-07
-5.57657e-08
-2.01197e-07
-6.74105e-08
-1.95753e-07
-7.86506e-08
-1.90712e-07
-8.95232e-08
-1.86064e-07
-1.00064e-07
-1.81799e-07
-1.1031e-07
-1.77907e-07
-1.20293e-07
-1.74375e-07
-1.30048e-07
-1.71194e-07
-1.39607e-07
-1.68353e-07
-1.49001e-07
-1.65842e-07
-1.58261e-07
-1.6365e-07
-1.67418e-07
-1.61769e-07
-1.765e-07
-1.6019e-07
-1.85537e-07
-1.58904e-07
-1.94556e-07
-1.57904e-07
-2.03587e-07
-1.57184e-07
-2.12656e-07
-1.56735e-07
-2.21789e-07
-1.56553e-07
-2.31014e-07
-1.56634e-07
-2.40354e-07
-1.56974e-07
-2.4983e-07
-1.57575e-07
-2.59452e-07
-1.58466e-07
-2.69256e-07
-1.59631e-07
-2.79207e-07
-1.61113e-07
-2.89226e-07
-1.6301e-07
-2.99134e-07
-1.65324e-07
-3.15217e-07
-1.68752e-07
-3.25174e-07
-1.79564e-07
-3.3647e-07
-1.91715e-07
-3.48997e-07
-2.05225e-07
-3.62877e-07
-2.20149e-07
-3.78268e-07
-2.36543e-07
-3.95324e-07
-2.54451e-07
-4.14211e-07
-2.73914e-07
-4.35109e-07
-2.94972e-07
-4.58213e-07
-3.17648e-07
-4.83701e-07
-3.41994e-07
-5.1175e-07
-3.68134e-07
-5.42622e-07
-3.9585e-07
-5.76611e-07
-4.24271e-07
-6.13995e-07
-4.51618e-07
-6.54908e-07
-4.74953e-07
-6.9909e-07
-4.90632e-07
-7.45648e-07
-4.958e-07
-7.93151e-07
-4.89987e-07
-8.4011e-07
-4.75056e-07
-8.85385e-07
-4.53653e-07
-9.28237e-07
-4.28015e-07
-9.68243e-07
-3.99606e-07
-1.00515e-06
-3.69258e-07
-1.03878e-06
-3.37485e-07
-1.06902e-06
-3.0465e-07
-1.0958e-06
-2.71041e-07
-1.11906e-06
-2.36862e-07
-1.13878e-06
-2.0215e-07
-1.15494e-06
-1.66752e-07
-1.1675e-06
-1.30541e-07
-1.17649e-06
-9.37714e-08
-1.18195e-06
-5.68255e-08
-1.93237e-08
6.57637e-07
-1.26557e-08
6.54967e-07
-3.76825e-08
6.50539e-07
-6.24428e-08
6.44364e-07
-8.69258e-08
6.36456e-07
-1.11062e-07
6.26831e-07
-1.348e-07
6.15506e-07
-1.58113e-07
6.02502e-07
-1.80953e-07
5.87845e-07
-2.0324e-07
5.71568e-07
-2.24857e-07
5.53715e-07
-2.45654e-07
5.34345e-07
-2.65434e-07
5.13534e-07
-2.83942e-07
4.91379e-07
-3.00855e-07
4.68011e-07
-3.1578e-07
4.43592e-07
-3.28284e-07
4.18326e-07
-3.3795e-07
3.92447e-07
-3.44467e-07
3.66212e-07
-3.47712e-07
3.39885e-07
-3.47803e-07
3.13714e-07
-3.45081e-07
2.87912e-07
-3.4004e-07
2.62653e-07
-3.33224e-07
2.38065e-07
-3.25153e-07
2.14236e-07
-3.16264e-07
1.91221e-07
-3.06899e-07
1.69047e-07
-2.97312e-07
1.47725e-07
-2.87686e-07
1.27248e-07
-2.78151e-07
1.07602e-07
-2.68799e-07
8.87627e-08
-2.59697e-07
7.07032e-08
-2.50892e-07
5.33912e-08
-2.42419e-07
3.67917e-08
-2.34307e-07
2.08683e-08
-2.26574e-07
5.58266e-09
-2.19236e-07
-9.09937e-09
-2.12302e-07
-2.321e-08
-2.05763e-07
-3.67828e-08
-1.99605e-07
-4.98542e-08
-1.93827e-07
-6.24606e-08
-1.88429e-07
-7.46383e-08
-1.83405e-07
-8.64229e-08
-1.78748e-07
-9.78497e-08
-1.74449e-07
-1.08953e-07
-1.70499e-07
-1.19766e-07
-1.66888e-07
-1.30323e-07
-1.63606e-07
-1.40654e-07
-1.60642e-07
-1.50791e-07
-1.57987e-07
-1.60764e-07
-1.55631e-07
-1.70603e-07
-1.53566e-07
-1.80337e-07
-1.51783e-07
-1.89996e-07
-1.50273e-07
-1.99606e-07
-1.4903e-07
-2.09195e-07
-1.48045e-07
-2.18791e-07
-1.47312e-07
-2.28421e-07
-1.46826e-07
-2.38111e-07
-1.4658e-07
-2.47886e-07
-1.46572e-07
-2.57772e-07
-1.46799e-07
-2.67791e-07
-1.47263e-07
-2.77967e-07
-1.47998e-07
-2.88363e-07
-1.4894e-07
-2.99014e-07
-1.50169e-07
-3.09823e-07
-1.51915e-07
-3.2008e-07
-1.54389e-07
-3.3655e-07
-1.60561e-07
-3.47126e-07
-1.7024e-07
-3.5899e-07
-1.81339e-07
-3.72114e-07
-1.93863e-07
-3.86586e-07
-2.07756e-07
-4.02543e-07
-2.23024e-07
-4.20138e-07
-2.39704e-07
-4.3953e-07
-2.57838e-07
-4.60892e-07
-2.77462e-07
-4.84406e-07
-2.98594e-07
-5.10234e-07
-3.21323e-07
-5.38566e-07
-3.45714e-07
-5.69648e-07
-3.71395e-07
-6.03717e-07
-3.97352e-07
-6.4094e-07
-4.21651e-07
-6.81273e-07
-4.41349e-07
-7.24249e-07
-4.53188e-07
-7.68884e-07
-4.55133e-07
-8.13886e-07
-4.47478e-07
-8.58065e-07
-4.3228e-07
-9.00556e-07
-4.11884e-07
-9.40802e-07
-3.88121e-07
-9.7846e-07
-3.62114e-07
-1.0133e-06
-3.34498e-07
-1.04514e-06
-3.05675e-07
-1.07386e-06
-2.75943e-07
-1.09937e-06
-2.45545e-07
-1.12158e-06
-2.14647e-07
-1.14047e-06
-1.83267e-07
-1.15597e-06
-1.51247e-07
-1.16806e-06
-1.18453e-07
-1.17673e-06
-8.51036e-08
-1.18201e-06
-5.15511e-08
-1.75077e-08
6.57621e-07
-1.17432e-08
6.54903e-07
-3.49643e-08
6.50395e-07
-5.79353e-08
6.44113e-07
-8.06438e-08
6.36075e-07
-1.03023e-07
6.263e-07
-1.25026e-07
6.14812e-07
-1.46625e-07
6.01636e-07
-1.67778e-07
5.86803e-07
-1.88408e-07
5.70351e-07
-2.08408e-07
5.5233e-07
-2.27635e-07
5.328e-07
-2.45908e-07
5.11841e-07
-2.62988e-07
4.89557e-07
-2.78575e-07
4.66078e-07
-2.92305e-07
4.41572e-07
-3.03778e-07
4.16241e-07
-3.12614e-07
3.9032e-07
-3.18532e-07
3.64065e-07
-3.21431e-07
3.37733e-07
-3.21429e-07
3.11566e-07
-3.18853e-07
2.85768e-07
-3.14163e-07
2.60505e-07
-3.07865e-07
2.35898e-07
-3.00433e-07
2.12029e-07
-2.92268e-07
1.88947e-07
-2.8368e-07
1.66677e-07
-2.74898e-07
1.45227e-07
-2.66088e-07
1.24591e-07
-2.57365e-07
1.04753e-07
-2.48811e-07
8.56903e-08
-2.40486e-07
6.7376e-08
-2.32432e-07
4.97793e-08
-2.24682e-07
3.28669e-08
-2.1726e-07
1.66039e-08
-2.10183e-07
9.53822e-10
-2.03465e-07
-1.41121e-08
-1.97115e-07
-2.86248e-08
-1.91122e-07
-4.26174e-08
-1.85475e-07
-5.61242e-08
-1.80174e-07
-6.91799e-08
-1.75218e-07
-8.18186e-08
-1.70601e-07
-9.40744e-08
-1.66318e-07
-1.0598e-07
-1.6236e-07
-1.1757e-07
-1.58718e-07
-1.28874e-07
-1.55383e-07
-1.39924e-07
-1.52346e-07
-1.5075e-07
-1.49597e-07
-1.61384e-07
-1.47127e-07
-1.71853e-07
-1.44928e-07
-1.82187e-07
-1.42991e-07
-1.92413e-07
-1.41308e-07
-2.02561e-07
-1.39871e-07
-2.12657e-07
-1.38672e-07
-2.2273e-07
-1.37706e-07
-2.32808e-07
-1.36964e-07
-2.4292e-07
-1.36441e-07
-2.53095e-07
-1.3613e-07
-2.63364e-07
-1.36027e-07
-2.7376e-07
-1.36128e-07
-2.84315e-07
-1.36433e-07
-2.9507e-07
-1.3696e-07
-3.06042e-07
-1.37656e-07
-3.173e-07
-1.38541e-07
-3.29217e-07
-1.39496e-07
-3.36046e-07
-1.40272e-07
-3.50459e-07
-1.49016e-07
-3.6308e-07
-1.58777e-07
-3.76438e-07
-1.69441e-07
-3.90809e-07
-1.81266e-07
-4.06364e-07
-1.94313e-07
-4.23268e-07
-2.08602e-07
-4.41697e-07
-2.24174e-07
-4.61833e-07
-2.41074e-07
-4.83863e-07
-2.59338e-07
-5.07975e-07
-2.78992e-07
-5.34338e-07
-3.00153e-07
-5.63163e-07
-3.22794e-07
-5.94673e-07
-3.46421e-07
-6.29049e-07
-3.69897e-07
-6.6635e-07
-3.91194e-07
-7.06364e-07
-4.07467e-07
-7.48454e-07
-4.15947e-07
-7.91572e-07
-4.15362e-07
-8.34545e-07
-4.06543e-07
-8.76398e-07
-3.9155e-07
-9.16467e-07
-3.72387e-07
-9.54339e-07
-3.50528e-07
-9.89753e-07
-3.26831e-07
-1.02252e-06
-3.01787e-07
-1.05251e-06
-2.75718e-07
-1.07959e-06
-2.48875e-07
-1.10367e-06
-2.21465e-07
-1.12469e-06
-1.93629e-07
-1.14259e-06
-1.65368e-07
-1.15732e-06
-1.36523e-07
-1.16881e-06
-1.06958e-07
-1.17706e-06
-7.68509e-08
-1.18209e-06
-4.65254e-08
-1.57767e-08
6.57606e-07
-1.08154e-08
6.54844e-07
-3.22025e-08
6.50266e-07
-5.33575e-08
6.43889e-07
-7.42667e-08
6.35733e-07
-9.48676e-08
6.25822e-07
-1.15116e-07
6.14183e-07
-1.34986e-07
6.00843e-07
-1.54439e-07
5.85838e-07
-1.73404e-07
5.6921e-07
-1.91782e-07
5.51011e-07
-2.09439e-07
5.31309e-07
-2.26208e-07
5.10185e-07
-2.41868e-07
4.87749e-07
-2.56141e-07
4.64135e-07
-2.68693e-07
4.39513e-07
-2.79155e-07
4.14089e-07
-2.87182e-07
3.88097e-07
-2.92523e-07
3.61791e-07
-2.95094e-07
3.35423e-07
-2.95016e-07
3.09228e-07
-2.92595e-07
2.83405e-07
-2.88259e-07
2.5811e-07
-2.82473e-07
2.3346e-07
-2.75671e-07
2.09529e-07
-2.68214e-07
1.86365e-07
-2.60384e-07
1.63991e-07
-2.52386e-07
1.42411e-07
-2.44367e-07
1.21619e-07
-2.3643e-07
1.016e-07
-2.2865e-07
8.23304e-08
-2.21077e-07
6.37847e-08
-2.13751e-07
4.59329e-08
-2.067e-07
2.87429e-08
-1.99946e-07
1.2181e-08
-1.93504e-07
-3.78595e-09
-1.87388e-07
-1.91845e-08
-1.81604e-07
-3.40441e-08
-1.76141e-07
-4.83974e-08
-1.7099e-07
-6.22774e-08
-1.66153e-07
-7.57169e-08
-1.61628e-07
-8.87487e-08
-1.5741e-07
-1.01405e-07
-1.53493e-07
-1.13717e-07
-1.4987e-07
-1.25717e-07
-1.46531e-07
-1.37435e-07
-1.43469e-07
-1.489e-07
-1.40676e-07
-1.60141e-07
-1.38142e-07
-1.71187e-07
-1.35859e-07
-1.82065e-07
-1.3382e-07
-1.92802e-07
-1.32016e-07
-2.03424e-07
-1.3044e-07
-2.13958e-07
-1.29086e-07
-2.24428e-07
-1.27945e-07
-2.34859e-07
-1.27013e-07
-2.45273e-07
-1.26284e-07
-2.55694e-07
-1.25752e-07
-2.66142e-07
-1.25415e-07
-2.76634e-07
-1.2527e-07
-2.87187e-07
-1.25319e-07
-2.97804e-07
-1.25586e-07
-3.08505e-07
-1.2606e-07
-3.19281e-07
-1.26751e-07
-3.3009e-07
-1.27726e-07
-3.40845e-07
-1.28964e-07
-3.57665e-07
-1.30689e-07
-3.68991e-07
-1.38667e-07
-3.8144e-07
-1.47601e-07
-3.94911e-07
-1.57535e-07
-4.0953e-07
-1.68515e-07
-4.25446e-07
-1.80595e-07
-4.42796e-07
-1.93814e-07
-4.61728e-07
-2.08216e-07
-4.82402e-07
-2.23839e-07
-5.04991e-07
-2.40714e-07
-5.29665e-07
-2.58879e-07
-5.56594e-07
-2.78448e-07
-5.85975e-07
-2.99294e-07
-6.17986e-07
-3.2083e-07
-6.52719e-07
-3.41832e-07
-6.90089e-07
-3.60242e-07
-7.29706e-07
-3.73411e-07
-7.70801e-07
-3.7909e-07
-8.12347e-07
-3.76644e-07
-8.53343e-07
-3.67225e-07
-8.93031e-07
-3.52769e-07
-9.30912e-07
-3.34963e-07
-9.66676e-07
-3.14986e-07
-1.00011e-06
-2.935e-07
-1.03106e-06
-2.70887e-07
-1.05939e-06
-2.4741e-07
-1.08499e-06
-2.23282e-07
-1.10778e-06
-1.9868e-07
-1.12769e-06
-1.73723e-07
-1.14466e-06
-1.484e-07
-1.15863e-06
-1.22551e-07
-1.16955e-06
-9.6039e-08
-1.17739e-06
-6.90066e-08
-1.18217e-06
-4.17456e-08
-1.41296e-08
6.57593e-07
-9.87512e-09
6.54794e-07
-2.94034e-08
6.50155e-07
-4.87185e-08
6.43695e-07
-6.78061e-08
6.35435e-07
-8.66082e-08
6.25403e-07
-1.05084e-07
6.13626e-07
-1.2321e-07
6.00137e-07
-1.4095e-07
5.84971e-07
-1.5824e-07
5.68176e-07
-1.74987e-07
5.49805e-07
-1.91071e-07
5.2993e-07
-2.06335e-07
5.08636e-07
-2.20577e-07
4.86035e-07
-2.33542e-07
4.62267e-07
-2.44924e-07
4.37506e-07
-2.5439e-07
4.1196e-07
-2.61625e-07
3.85866e-07
-2.66409e-07
3.59477e-07
-2.68671e-07
3.33042e-07
-2.68532e-07
3.06791e-07
-2.66278e-07
2.80917e-07
-2.62302e-07
2.5557e-07
-2.57029e-07
2.3086e-07
-2.5085e-07
2.06859e-07
-2.44092e-07
1.83608e-07
-2.37005e-07
1.61128e-07
-2.29774e-07
1.39424e-07
-2.22528e-07
1.18487e-07
-2.15359e-07
9.8302e-08
-2.08331e-07
7.88466e-08
-2.01492e-07
6.00952e-08
-1.94875e-07
4.20188e-08
-1.88504e-07
2.45863e-08
-1.82401e-07
7.76509e-09
-1.76578e-07
-8.47414e-09
-1.71047e-07
-2.41566e-08
-1.65816e-07
-3.93119e-08
-1.6087e-07
-5.39715e-08
-1.56205e-07
-6.81669e-08
-1.51823e-07
-8.19299e-08
-1.47721e-07
-9.52918e-08
-1.43895e-07
-1.08283e-07
-1.40339e-07
-1.20935e-07
-1.37045e-07
-1.33276e-07
-1.34008e-07
-1.45336e-07
-1.31218e-07
-1.57142e-07
-1.28669e-07
-1.68723e-07
-1.26352e-07
-1.80105e-07
-1.2426e-07
-1.91315e-07
-1.22385e-07
-2.02377e-07
-1.20721e-07
-2.13318e-07
-1.1926e-07
-2.24161e-07
-1.17997e-07
-2.3493e-07
-1.16925e-07
-2.4565e-07
-1.16038e-07
-2.56342e-07
-1.15332e-07
-2.6703e-07
-1.14802e-07
-2.77736e-07
-1.14446e-07
-2.88481e-07
-1.14264e-07
-2.99285e-07
-1.14258e-07
-3.10167e-07
-1.14465e-07
-3.21157e-07
-1.14852e-07
-3.32237e-07
-1.15487e-07
-3.43289e-07
-1.16559e-07
-3.54058e-07
-1.18233e-07
-3.72842e-07
-1.21636e-07
-3.84254e-07
-1.28509e-07
-3.96901e-07
-1.36402e-07
-4.10717e-07
-1.45403e-07
-4.25761e-07
-1.55426e-07
-4.42153e-07
-1.6647e-07
-4.60021e-07
-1.78567e-07
-4.79503e-07
-1.91756e-07
-5.00754e-07
-2.06068e-07
-5.23938e-07
-2.21524e-07
-5.49214e-07
-2.38183e-07
-5.76756e-07
-2.56122e-07
-6.06737e-07
-2.75129e-07
-6.39278e-07
-2.94552e-07
-6.74372e-07
-3.13116e-07
-7.11794e-07
-3.28803e-07
-7.51e-07
-3.39225e-07
-7.91143e-07
-3.42647e-07
-8.31256e-07
-3.38928e-07
-8.70501e-07
-3.29371e-07
-9.08292e-07
-3.1572e-07
-9.44251e-07
-2.99376e-07
-9.78143e-07
-2.81273e-07
-1.0098e-06
-2.61925e-07
-1.03909e-06
-2.41635e-07
-1.0659e-06
-2.20618e-07
-1.09014e-06
-1.99057e-07
-1.11171e-06
-1.77108e-07
-1.13057e-06
-1.54867e-07
-1.14665e-06
-1.32315e-07
-1.15991e-06
-1.09297e-07
-1.17027e-06
-8.56746e-08
-1.17772e-06
-6.15579e-08
-1.18226e-06
-3.72083e-08
-1.25678e-08
6.57582e-07
-8.92318e-09
6.54748e-07
-2.65699e-08
6.50053e-07
-4.40232e-08
6.43515e-07
-6.12684e-08
6.35159e-07
-7.82524e-08
6.25013e-07
-9.49383e-08
6.13107e-07
-1.11305e-07
5.99475e-07
-1.27319e-07
5.84155e-07
-1.42922e-07
5.67196e-07
-1.5803e-07
5.48656e-07
-1.72532e-07
5.28607e-07
-1.86288e-07
5.07141e-07
-1.99112e-07
4.84372e-07
-2.10773e-07
4.60444e-07
-2.20995e-07
4.35536e-07
-2.29475e-07
4.0986e-07
-2.35935e-07
3.83654e-07
-2.40179e-07
3.57171e-07
-2.42152e-07
3.30659e-07
-2.41969e-07
3.04342e-07
-2.39894e-07
2.78408e-07
-2.36285e-07
2.53001e-07
-2.31526e-07
2.28226e-07
-2.25968e-07
2.04151e-07
-2.199e-07
1.80814e-07
-2.13546e-07
1.58233e-07
-2.07067e-07
1.36412e-07
-2.00579e-07
1.15342e-07
-1.94162e-07
9.50075e-08
-1.87872e-07
7.53861e-08
-1.81751e-07
5.64531e-08
-1.75827e-07
3.81802e-08
-1.70123e-07
2.05372e-08
-1.64656e-07
3.4924e-09
-1.59439e-07
-1.29797e-08
-1.54483e-07
-2.89034e-08
-1.49793e-07
-4.43088e-08
-1.45356e-07
-5.92262e-08
-1.4117e-07
-7.36863e-08
-1.37235e-07
-8.77195e-08
-1.3355e-07
-1.01356e-07
-1.30111e-07
-1.14626e-07
-1.26912e-07
-1.27557e-07
-1.23947e-07
-1.40179e-07
-1.2121e-07
-1.52519e-07
-1.18693e-07
-1.64605e-07
-1.16389e-07
-1.76462e-07
-1.14292e-07
-1.88116e-07
-1.12394e-07
-1.99593e-07
-1.10689e-07
-2.10916e-07
-1.09171e-07
-2.2211e-07
-1.07832e-07
-2.33198e-07
-1.06668e-07
-2.44205e-07
-1.05673e-07
-2.55153e-07
-1.04841e-07
-2.66066e-07
-1.04165e-07
-2.76971e-07
-1.03642e-07
-2.87892e-07
-1.03267e-07
-2.98861e-07
-1.03034e-07
-3.09912e-07
-1.02941e-07
-3.21087e-07
-1.03012e-07
-3.32438e-07
-1.03194e-07
-3.44032e-07
-1.03525e-07
-3.5596e-07
-1.04137e-07
-3.64565e-07
-1.05117e-07
-3.81381e-07
-1.10249e-07
-3.94329e-07
-1.16769e-07
-4.08079e-07
-1.24099e-07
-4.22825e-07
-1.32358e-07
-4.38711e-07
-1.41521e-07
-4.55877e-07
-1.51596e-07
-4.74475e-07
-1.62614e-07
-4.94661e-07
-1.74612e-07
-5.16601e-07
-1.87621e-07
-5.40464e-07
-2.01658e-07
-5.66418e-07
-2.16799e-07
-5.94633e-07
-2.33077e-07
-6.25255e-07
-2.50219e-07
-6.58341e-07
-2.67536e-07
-6.93783e-07
-2.83742e-07
-7.31214e-07
-2.96921e-07
-7.6997e-07
-3.0499e-07
-8.09175e-07
-3.06678e-07
-8.47955e-07
-3.02193e-07
-8.85628e-07
-2.92863e-07
-9.21746e-07
-2.80211e-07
-9.56029e-07
-2.65396e-07
-9.88297e-07
-2.49152e-07
-1.01841e-06
-2.3188e-07
-1.04626e-06
-2.13821e-07
-1.07173e-06
-1.95156e-07
-1.09475e-06
-1.76041e-07
-1.11525e-06
-1.56612e-07
-1.13317e-06
-1.36948e-07
-1.14847e-06
-1.17024e-07
-1.16107e-06
-9.66904e-08
-1.17094e-06
-7.58116e-08
-1.17802e-06
-5.44686e-08
-1.18234e-06
-3.28933e-08
-1.10856e-08
6.57571e-07
-7.96067e-09
6.54706e-07
-2.37049e-08
6.49959e-07
-3.9276e-08
6.4335e-07
-5.46594e-08
6.34905e-07
-6.98074e-08
6.24653e-07
-8.46867e-08
6.12626e-07
-9.92783e-08
5.98859e-07
-1.13553e-07
5.83394e-07
-1.27457e-07
5.66279e-07
-1.40916e-07
5.47576e-07
-1.5383e-07
5.2736e-07
-1.66073e-07
5.05725e-07
-1.77478e-07
4.82789e-07
-1.87838e-07
4.58703e-07
-1.96905e-07
4.33647e-07
-2.04411e-07
4.07838e-07
-2.1011e-07
3.81516e-07
-2.13832e-07
3.54936e-07
-2.15532e-07
3.28341e-07
-2.15321e-07
3.01954e-07
-2.13438e-07
2.75957e-07
-2.10206e-07
2.50489e-07
-2.05963e-07
2.25649e-07
-2.01023e-07
2.01502e-07
-1.9564e-07
1.78083e-07
-1.9001e-07
1.55409e-07
-1.84274e-07
1.33482e-07
-1.78532e-07
1.12293e-07
-1.72854e-07
9.18247e-08
-1.67289e-07
7.20575e-08
-1.61873e-07
5.2966e-08
-1.5663e-07
3.4523e-08
-1.51581e-07
1.6699e-08
-1.46741e-07
-5.36309e-10
-1.42121e-07
-1.72063e-08
-1.3773e-07
-3.33336e-08
-1.33573e-07
-4.89489e-08
-1.29639e-07
-6.40818e-08
-1.25925e-07
-7.8762e-08
-1.22433e-07
-9.30191e-08
-1.19162e-07
-1.06882e-07
-1.16107e-07
-1.2038e-07
-1.13263e-07
-1.33541e-07
-1.10626e-07
-1.46391e-07
-1.08188e-07
-1.58958e-07
-1.05945e-07
-1.71268e-07
-1.0389e-07
-1.83346e-07
-1.02016e-07
-1.95216e-07
-1.00318e-07
-2.06902e-07
-9.87891e-08
-2.18427e-07
-9.74243e-08
-2.29814e-07
-9.62179e-08
-2.41086e-07
-9.51644e-08
-2.52264e-07
-9.42585e-08
-2.63371e-07
-9.3495e-08
-2.74429e-07
-9.28686e-08
-2.85461e-07
-9.23744e-08
-2.9649e-07
-9.20073e-08
-3.0754e-07
-9.17626e-08
-3.18636e-07