/*--------------------------------*- C++ -*----------------------------------*\
  =========                 |
  \\      /  F ield         | OpenFOAM: The Open Source CFD Toolbox
   \\    /   O peration     | Website:  https://openfoam.org
    \\  /    A nd           | Version:  8
     \\/     M anipulation  |
\*---------------------------------------------------------------------------*/
FoamFile
{
    version     2.0;
    format      ascii;
    class       volScalarField;
    location    "160/fluid";
    object      Qdot;
}
// * * * * * * * * * * * * * * * * * * * * * * * * * * * * * * * * * * * * * //

dimensions      [1 -1 -3 0 0 0 0];

internalField   nonuniform List<scalar> 
4000
(
4.87764e-18
0
-1.46589e-12
-3.03525e-07
-1.85224e-16
-3.26339e-07
0
0
3.56238e-07
-2.46188e-19
0
-5.45096e-10
3.86146e-07
0
3.99617e-07
-8.69181e-18
4.12147e-07
4.17621e-07
5.28298e-09
2.90504e-08
3.12654e-07
3.85744e-06
4.33271e-05
0.000441321
0.00379493
0.0272031
0.162496
0.81559
3.48351
12.8456
41.492
118.993
306.647
717.354
1535.9
3028.41
5522.98
9364.74
14934.9
22635.3
32806.4
45881.8
62448.5
83288.9
109502
142597
184590
238151
306727
394763
507962
653657
841294
1.08307e+06
1.39477e+06
1.79683e+06
2.3158e+06
2.98624e+06
3.85319e+06
4.97566e+06
6.43127e+06
8.32283e+06
1.07844e+07
1.39545e+07
1.81813e+07
2.37771e+07
3.12761e+07
2.92866e+08
1.41335e+08
2.17879e+07
1.60657e+07
1.16579e+07
8.30298e+06
5.78884e+06
3.94057e+06
2.61398e+06
1.69126e+06
1.07842e+06
701618
247019
24037.4
674.912
8.57583
0.0652634
0.000501903
7.37443e-06
2.99791e-07
3.32479e-08
6.44214e-09
2.3072e-09
7.92795e-10
2.7495e-10
1.38647e-10
5.32326e-11
2.4317e-11
1.04074e-11
4.22641e-12
1.46872e-12
5.33071e-13
9.5997e-14
0
2.04409e-17
-1.46169e-12
3.02196e-07
-7.74676e-12
-2.903e-11
0
0
-3.50606e-07
3.36689e-15
0
-5.47166e-11
0
9.82704e-10
1.22294e-09
-4.22191e-18
2.03853e-09
-4.49714e-16
-4.17484e-09
1.88179e-08
5.7628e-07
4.31644e-06
4.79254e-05
0.0004859
0.00415316
0.0296406
0.17647
0.883454
3.76545
13.8594
44.6873
127.923
329.009
767.928
1639.72
3222
5849.6
9864.12
15644.5
23586.7
34015.9
47365.1
64233.8
85432.9
112113
145845
188729
243535
313843
404272
520767
670995
864869
1.11523e+06
1.43876e+06
1.85713e+06
2.3986e+06
3.10002e+06
4.0095e+06
5.18988e+06
6.72326e+06
8.71666e+06
1.13035e+07
1.46103e+07
1.89871e+07
2.46712e+07
3.20185e+07
3.94911e+08
7.71008e+07
2.07571e+07
1.52474e+07
1.10164e+07
7.80778e+06
5.41275e+06
3.66059e+06
2.41089e+06
1.54926e+06
985028
625061
154655
9292.74
187.192
1.81355
0.0122181
0.000106617
2.19268e-06
1.30403e-07
1.88047e-08
4.90812e-09
1.54245e-09
5.73394e-10
2.42741e-10
1.21278e-10
4.58528e-11
1.92028e-11
7.77399e-12
3.41676e-12
1.39109e-12
-4.86333e-12
8.22669e-13
3.4944e-22
-2.77264e-07
0
-6.71936e-12
-3.09694e-07
0
0
0
-1.61133e-15
0
0
5.31031e-11
0
3.68994e-07
1.18148e-09
-1.22259e-17
-6.18329e-17
-5.17199e-16
8.97726e-09
3.22475e-08
4.2197e-07
4.86858e-06
5.57053e-05
0.000556606
0.00473219
0.0336076
0.199294
0.994512
4.22765
15.5257
49.957
142.717
366.251
852.648
1814.67
3550.21
6406.72
10725.6
16893.1
25297.9
36256.5
50217.6
67811.4
89917.7
117784
153104
198144
255874
330147
425945
549706
709777
917007
1.18554e+06
1.53385e+06
1.98619e+06
2.57438e+06
3.34041e+06
4.33984e+06
5.64642e+06
7.35852e+06
9.60792e+06
1.2548e+07
1.63992e+07
2.15573e+07
2.83515e+07
3.77149e+07
3.99859e+08
2.73277e+07
2.00181e+07
1.4481e+07
1.03151e+07
7.21245e+06
4.93429e+06
3.29354e+06
2.14222e+06
1.36364e+06
868235
471884
71499.2
2755.41
42.8763
0.363313
0.00263062
3.05178e-05
9.07529e-07
7.39663e-08
1.37288e-08
3.64111e-09
1.33574e-09
5.29383e-10
2.22951e-10
9.0709e-11
3.83019e-11
1.06792e-11
5.69185e-12
2.60242e-12
1.8781e-13
3.49623e-13
6.32991e-14
0
2.76338e-07
0
0
6.17122e-12
-2.6595e-20
3.23094e-07
0
6.65952e-11
0
0
0
3.55606e-07
0
2.72965e-14
-1.18749e-17
1.9084e-09
-6.06642e-16
-3.90285e-09
3.51833e-08
6.81046e-07
5.59296e-06
6.48648e-05
0.00065004
0.0055117
0.0390202
0.230669
1.14773
4.86599
17.8259
57.2241
163.092
417.46
968.885
2053.84
3995.99
7154.81
11877.8
18577.8
27604.1
39280.1
54080.3
72682
96057.4
125581
163105
211106
272818
352442
455424
588829
761859
986525
1.27856e+06
1.65865e+06
2.15405e+06
2.8008e+06
3.64679e+06
4.75594e+06
6.21404e+06
8.13724e+06
1.06842e+07
1.40126e+07
1.85695e+07
2.47587e+07
3.33113e+07
9.80343e+07
2.90904e+08
2.56805e+07
1.85948e+07
1.32922e+07
9.35083e+06
6.45347e+06
4.35608e+06
2.86882e+06
1.84364e+06
1.16631e+06
749781
267328
25578.5
683.395
8.41904
0.06501
0.000532959
8.48814e-06
3.6904e-07
4.08332e-08
8.51889e-09
2.69769e-09
1.03909e-09
3.88197e-10
1.64867e-10
7.34474e-11
3.29506e-11
1.39724e-11
5.28344e-12
2.53193e-12
9.46852e-13
2.5856e-13
5.2742e-14
-2.64459e-07
2.7532e-07
0
0
-6.10564e-12
-1.25251e-11
7.47997e-16
-3.24614e-07
1.55143e-15
3.14906e-15
0
0
0
0
3.52982e-07
-3.59286e-07
5.38681e-14
-6.96335e-16
8.40992e-09
4.24943e-08
5.91145e-07
6.78369e-06
7.73835e-05
0.00077177
0.00652575
0.0460555
0.271409
1.34643
5.69258
20.7999
66.6041
189.343
483.291
1117.82
2358.6
4558.57
8083.37
13294.3
20653.8
30425.5
42960.2
58769.3
78591.5
103512
135053
175255
226835
293333
379353
490869
635662
823883
1.06883e+06
1.38794e+06
1.80418e+06
2.34785e+06
3.05901e+06
3.99077e+06
5.21365e+06
6.82143e+06
8.93894e+06
1.17241e+07
1.53338e+07
2.0184e+07
2.65952e+07
3.50207e+07
3.70911e+08
1.21394e+08
2.30175e+07
1.65992e+07
1.17877e+07
8.2224e+06
5.61816e+06
3.75041e+06
2.44211e+06
1.55469e+06
982001
608540
138045
7690.97
154.435
1.5968
0.0122551
0.000123801
2.80179e-06
1.72088e-07
2.41491e-08
6.03962e-09
2.23535e-09
8.08856e-10
3.55073e-10
1.31741e-10
5.94969e-11
2.45987e-11
1.15575e-11
4.7128e-12
-3.57182e-12
8.12863e-13
2.62491e-13
4.20354e-14
6.96297e-22
-2.74297e-07
0
0
-3.0022e-07
-1.52e-11
-3.13608e-07
0
-5.21441e-11
2.21367e-19
0
2.64749e-10
0
0
2.57175e-14
1.7748e-09
-1.78943e-09
3.5052e-07
8.12875e-09
4.92434e-08
8.7564e-07
7.89422e-06
9.27292e-05
0.000925961
0.00781254
0.0549858
0.323078
1.59802
6.73712
24.5502
78.4069
222.295
565.68
1303.38
2735.47
5245.14
9211.84
15021.2
23116.3
33740.6
47255.4
64213
85433.2
112131
145988
189260
244927
316869
410137
531302
688942
894279
1.16205e+06
1.51165e+06
1.96868e+06
2.56699e+06
3.35154e+06
4.38212e+06
5.73855e+06
7.52772e+06
9.8931e+06
1.2999e+07
1.70801e+07
2.26158e+07
2.99206e+07
4.00691e+07
4.20261e+08
2.86907e+07
2.07642e+07
1.48239e+07
1.04179e+07
7.18881e+06
4.85735e+06
3.20616e+06
2.06624e+06
1.30751e+06
832581
420685
58025.6
2134.24
33.8556
0.30933
0.00251862
3.27763e-05
1.05085e-06
8.75979e-08
1.48782e-08
4.1351e-09
1.46242e-09
5.90511e-10
2.72748e-10
1.10758e-10
4.33271e-11
2.13181e-11
9.48399e-12
3.70057e-12
1.44735e-12
5.98117e-13
2.18118e-13
3.69583e-14
3.69752e-13
2.88137e-21
0
-1.22266e-20
0
3.5647e-16
0
0
0
-2.30437e-10
0
-2.10038e-10
4.2259e-10
-3.30736e-07
8.5439e-10
-1.44122e-17
1.73087e-09
1.00945e-13
7.84394e-09
6.32916e-08
8.45081e-07
9.74372e-06
0.000112157
0.00111777
0.00941497
0.0661045
0.387338
1.9105
8.03262
29.1947
93.0025
262.973
667.123
1530.81
3193.44
6066.09
10542.6
17049.6
25970.3
37541.3
52140.9
70365.4
93136.4
121809
158238
204906
265071
342977
444150
575795
747338
971150
1.26351e+06
1.64591e+06
2.1468e+06
2.80396e+06
3.66777e+06
4.80572e+06
6.30878e+06
8.30062e+06
1.09512e+07
1.44172e+07
1.91807e+07
2.56933e+07
3.47301e+07
1.18738e+08
2.80486e+08
2.62126e+07
1.87619e+07
1.32579e+07
9.2221e+06
6.29684e+06
4.20909e+06
2.74912e+06
1.75607e+06
1.1083e+06
713269
239391
21448.9
579.283
7.58608
0.064926
0.000596616
1.03038e-05
4.60381e-07
5.11007e-08
1.01551e-08
3.15883e-09
1.25999e-09
5.07022e-10
2.33426e-10
9.7347e-11
3.50241e-11
1.80564e-11
7.43084e-12
2.91761e-12
1.17331e-12
5.33776e-13
5.36359e-12
2.88676e-14
-6.94432e-22
-1.52614e-12
2.80153e-07
2.87342e-07
2.93728e-07
3.51786e-16
-7.1487e-16
0
3.11559e-07
2.12044e-19
0
5.03235e-10
0
2.40951e-14
-8.28205e-10
-1.74342e-17
3.83132e-10
-1.09368e-15
7.55798e-09
6.85192e-08
1.01143e-06
1.16418e-05
0.00013549
0.00135367
0.0113849
0.0797638
0.46621
2.29363
9.61945
34.8787
110.848
312.65
790.724
1806.6
3743.15
7031.75
12084.1
19394.7
29225.9
41827.3
57601.4
77199.6
101659
132482
171705
222046
287045
371318
480872
623551
809626
1.05258e+06
1.37018e+06
1.78583e+06
2.33047e+06
3.04506e+06
3.98385e+06
5.2188e+06
6.8453e+06
8.98982e+06
1.1815e+07
1.54482e+07
2.03453e+07
2.67877e+07
3.5213e+07
3.96776e+08
1.07814e+08
2.31582e+07
1.65774e+07
1.16827e+07
8.08879e+06
5.48919e+06
3.64308e+06
2.3621e+06
1.50066e+06
948822
586878
131325
7477.97
159.396
1.8026
0.0152736
0.000165584
3.81307e-06
2.28766e-07
3.15272e-08
7.51086e-09
2.35656e-09
9.46187e-10
4.07124e-10
1.66173e-10
8.05478e-11
3.26659e-11
1.32195e-11
5.39745e-12
2.53712e-12
1.03094e-12
4.20394e-13
1.39906e-13
2.35469e-14
4.8309e-18
-6.81924e-13
-8.17861e-17
0
0
0
2.4097e-11
-1.02138e-19
0
0
0
0
8.37497e-19
0
-3.1128e-07
-2.35882e-17
4.69767e-14
-1.27094e-15
7.26897e-09
-6.81517e-08
1.19849e-06
1.40489e-05
0.000163946
0.00163883
0.0137706
0.0963071
0.561708
2.75739
11.5399
41.7579
132.447
372.75
939.995
2137.94
4395.47
8166.07
13890.1
22068.1
32885.7
46592
63615.8
84683.3
110957
144090
186313
240574
310709
401711
520087
674345
875648
1.13868e+06
1.48283e+06
1.93372e+06
2.52532e+06
3.30273e+06
4.32595e+06
5.67494e+06
7.45628e+06
9.81207e+06
1.29088e+07
1.69444e+07
2.24333e+07
2.96627e+07
3.91082e+07
4.2471e+08
2.92651e+07
2.10342e+07
1.49258e+07
1.04341e+07
7.16822e+06
4.82734e+06
3.18005e+06
2.04865e+06
1.29791e+06
827600
433318
64910.5
2626.51
46.2053
0.470411
0.00413397
5.4336e-05
1.65209e-06
1.26449e-07
2.12911e-08
5.50799e-09
1.8379e-09
8.42163e-10
3.77752e-10
1.53083e-10
6.46437e-11
2.62483e-11
1.15592e-11
5.42727e-12
2.15518e-12
8.33643e-13
3.49679e-13
1.17956e-13
2.10073e-14
-2.03032e-13
2.69982e-07
-2.78218e-12
0
2.87116e-07
-2.91223e-07
2.37109e-11
0
0
0
0
4.76897e-10
0
-1.62557e-18
-9.52919e-10
-2.6016e-17
1.55418e-09
-3.02592e-07
6.97731e-09
1.0824e-07
1.44816e-06
1.69411e-05
0.000197843
0.00197883
0.0166173
0.116059
0.675772
3.3116
13.8368
49.9936
158.333
444.812
1118.73
2532.34
5159.9
9476.57
15965.9
25071.1
36937.4
51808.8
70142.8
92761.9
120960
156540
201929
260296
335764
433689
561055
727002
943535
1.22648e+06
1.59679e+06
2.08225e+06
2.71991e+06
3.55938e+06
4.66741e+06
6.1344e+06
8.08378e+06
1.06856e+07
1.40944e+07
1.86922e+07
2.5105e+07
3.39084e+07
8.52179e+07
3.23306e+08
2.67552e+07
1.91363e+07
1.3511e+07
9.39373e+06
6.41572e+06
4.29427e+06
2.81216e+06
1.80333e+06
1.14261e+06
737291
290383
30696.2
962.209
14.4649
0.137754
0.00130104
2.09646e-05
8.19894e-07
7.89703e-08
1.54217e-08
4.71537e-09
1.63646e-09
6.38193e-10
2.75217e-10
1.399e-10
5.18423e-11
2.6239e-11
1.04331e-11
-8.71686e-13
1.77342e-12
7.95548e-13
-4.85851e-13
5.22844e-12
1.69632e-14
0
0
-3.39646e-12
0
0
-3.37484e-16
0
0
0
0
0
1.1016e-14
0
1.57313e-18
-2.92311e-07
-2.19339e-17
-1.8168e-16
-1.68071e-15
1.0368e-08
-1.48605e-08
1.28664e-06
2.03765e-05
0.000237479
0.0023769
0.0199563
0.139256
0.809915
3.96439
16.5473
59.7333
189.011
530.339
1330.64
2996.57
6041.19
10956.1
18294.9
28383.8
41341.7
57418
77112.8
101360
131584
169746
218456
281102
362075
467064
603474
780973
1.01223e+06
1.31387e+06
1.70783e+06
2.22303e+06
2.89782e+06
3.78315e+06
4.94695e+06
6.48024e+06
8.5056e+06
1.11878e+07
1.46566e+07
1.94072e+07
2.58149e+07
3.45121e+07
2.67913e+08
1.88864e+08
2.43785e+07
1.73994e+07
1.22523e+07
8.49139e+06
5.7777e+06
3.85123e+06
2.51185e+06
1.60651e+06
1.02024e+06
658119
190829
14514.6
373.888
4.95759
0.0456941
0.000475455
9.37824e-06
4.62611e-07
5.40451e-08
1.16029e-08
3.7257e-09
1.43279e-09
5.36749e-10
2.49203e-10
1.14269e-10
4.63521e-11
1.68208e-11
9.29512e-12
3.52528e-12
1.58582e-12
6.55218e-13
1.02208e-12
8.49793e-14
1.71587e-14
-3.67181e-13
0
0
0
0
2.83022e-07
2.81839e-11
4.60454e-11
0
-2.69189e-15
-2.85577e-07
0
-3.64586e-10
0
-3.02602e-18
-1.438e-09
-1.98422e-16
-2.86542e-09
1.27735e-08
1.46928e-07
1.75226e-06
2.42197e-05
0.00028266
0.00283349
0.0237955
0.165987
0.964844
4.72032
19.6956
71.0849
224.886
630.582
1578.72
3534.71
7034.76
12585.2
20846.7
31948.2
46017.5
63307.7
84395.3
110333
142676
183551
235752
302893
389643
502044
647951
837594
1.08434e+06
1.40567e+06
1.82451e+06
2.37091e+06
3.08429e+06
4.01645e+06
5.23538e+06
6.83039e+06
8.91774e+06
1.16468e+07
1.51237e+07
1.96744e+07
2.57438e+07
3.3584e+07
4.26363e+08
7.43242e+07
2.20917e+07
1.58146e+07
1.11466e+07
7.72171e+06
5.24678e+06
3.49058e+06
2.27242e+06
1.45298e+06
927469
574997
124998
7086.37
156.131
1.87826
0.0172235
0.000200257
4.7868e-06
2.87795e-07
3.90675e-08
8.92039e-09
2.94134e-09
1.26877e-09
4.84949e-10
1.98105e-10
1.0133e-10
3.91371e-11
1.30336e-11
8.50455e-12
3.52698e-12
1.39707e-12
-1.56231e-13
2.37228e-13
7.98302e-14
1.30195e-14
4.80344e-18
0
6.07522e-12
-1.61203e-16
-1.11481e-11
-3.27752e-16
0
1.31814e-15
0
-2.62494e-15
2.77972e-07
0
0
-2.71789e-07
2.69771e-07
-4.03535e-14
-2.24621e-16
-6.10349e-09
1.21777e-08
1.82284e-07
1.97922e-06
2.84427e-05
0.000332979
0.00334438
0.0281052
0.19609
1.13991
5.57778
23.2823
84.0775
266.134
746.178
1864.24
4145.08
8144.89
14394.2
23547.6
35649.1
50803.4
69281.3
91755.9
119399
153899
197545
253312
325046
417710
537736
693488
895876
1.15917e+06
1.50205e+06
1.94905e+06
2.53235e+06
3.29422e+06
4.2902e+06
5.59319e+06
7.29879e+06
9.53299e+06
1.24548e+07
1.62004e+07
2.12475e+07
2.78732e+07
3.65456e+07
4.24503e+08
2.88614e+07
2.07748e+07
1.47752e+07
1.03608e+07
7.14711e+06
4.83903e+06
3.20981e+06
2.08563e+06
1.33441e+06
858094
486648
80940.6
3658.41
70.9372
0.792894
0.00738019
9.63445e-05
2.74415e-06
1.94267e-07
3.01228e-08
7.7521e-09
2.72451e-09
1.12421e-09
4.33241e-10
1.97411e-10
8.85094e-11
3.89322e-11
1.96508e-11
1.72695e-12
3.14032e-12
1.20811e-12
-4.65954e-12
2.14726e-13
6.87314e-14
1.17064e-14
0
-2.97702e-12
-5.67235e-21
0
0
-1.10551e-11
-2.72116e-11
-5.4356e-11
0
-8.76112e-11
-3.64413e-19
0
9.9573e-15
-8.29312e-10
1.95009e-14
-3.32892e-17
-2.92742e-09
-2.45125e-15
1.15797e-08
2.01703e-07
2.61474e-06
3.29256e-05
0.000387533
0.00389946
0.032805
0.229049
1.33245
6.52563
27.2696
98.6093
312.534
876.673
2185.37
4816.12
9317.59
16260.9
26268.1
39303.8
55459.4
75050.7
98854.5
128147
164749
211086
270304
346460
444796
572118
737291
951913
1.2312e+06
1.59519e+06
2.07029e+06
2.69145e+06
3.50504e+06
4.57271e+06
5.97674e+06
7.8273e+06
1.02725e+07
1.34614e+07
1.76345e+07
2.33437e+07
3.09522e+07
4.96242e+07
3.87182e+08
2.66404e+07
1.92282e+07
1.36968e+07
9.61125e+06
6.63058e+06
4.48811e+06
2.97631e+06
1.93492e+06
1.24187e+06
806780
400486
53266.9
2022.81
35.3237
0.37425
0.00358324
5.23886e-05
1.74394e-06
1.44315e-07
2.41516e-08
6.78387e-09
2.33196e-09
9.26089e-10
3.81961e-10
1.71897e-10
7.58512e-11
3.05242e-11
1.3618e-11
6.93037e-12
2.75478e-12
-3.95331e-12
4.70438e-13
-4.91802e-12
8.13921e-13
5.02468e-12
-2.60785e-07
-2.64303e-07
3.30235e-12
0
0
-1.08858e-11
0
4.33097e-11
-1.91836e-10
0
0
-7.43435e-10
-2.55541e-07
-1.36106e-18
7.87577e-10
-3.7152e-17
-3.68577e-14
-2.43992e-07
1.94988e-08
2.28871e-07
2.87716e-06
3.78025e-05
0.000444306
0.00448024
0.0377466
0.263879
1.53706
7.53927
31.5639
114.377
363.233
1019.77
2534.93
5519.05
10471.4
18049
28804.2
42645.4
59657.8
80232.3
105239
136042
174567
223343
285646
365695
468938
602451
775451
1.00001e+06
1.29196e+06
1.67218e+06
2.16827e+06
2.8168e+06
3.66649e+06
4.78242e+06
6.252e+06
8.1932e+06
1.07662e+07
1.40995e+07
1.85466e+07
2.46633e+07
3.28829e+07
9.73163e+07
3.3014e+08
2.52102e+07
1.81358e+07
1.28908e+07
9.03261e+06
6.22539e+06
4.21154e+06
2.79293e+06
1.81776e+06
1.17114e+06
768013
328914
36321.5
1206.56
19.3722
0.197759
0.00196168
3.18502e-05
1.21132e-06
1.1163e-07
2.10581e-08
6.13863e-09
2.11958e-09
9.13214e-10
3.77136e-10
1.57614e-10
6.99828e-11
3.53354e-11
1.20469e-11
6.13843e-12
1.61924e-12
5.47679e-12
4.23864e-13
1.69141e-13
-4.25159e-12
1.11455e-14
1.6376e-13
0
0
0
0
4.4921e-20
4.75716e-11
-9.44919e-11
1.87219e-10
0
0
0
-3.89949e-10
2.42226e-07
-7.71852e-18
2.35817e-07
2.31363e-07
-2.97124e-15
2.07649e-08
3.65768e-07
3.27589e-06
4.23452e-05
0.000500791
0.00505995
0.0427047
0.299027
1.7449
8.57663
35.9955
130.795
416.441
1170.35
2897.17
6197.14
11464.6
19545.6
30866.3
45309.7
62984.2
84361.9
110376
142467
182619
233430
298250
381386
488394
626471
804975
1.03612e+06
1.3359e+06
1.72529e+06
2.23194e+06
2.89233e+06
3.75477e+06
4.88343e+06
6.36387e+06
8.31053e+06
1.08769e+07
1.41753e+07
1.86738e+07
2.4691e+07
3.27554e+07
1.87234e+08
2.64722e+08
2.37527e+07
1.71119e+07
1.21792e+07
8.54457e+06
5.89588e+06
3.99338e+06
2.65221e+06
1.73042e+06
1.12047e+06
740638
265367
26237
784.914
11.7687
0.117117
0.00120491
2.14402e-05
9.11422e-07
9.24601e-08
1.83564e-08
5.34097e-09
2.08273e-09
8.53847e-10
3.49021e-10
1.51138e-10
7.33761e-11
3.20572e-11
1.34142e-11
5.36058e-12
2.36016e-12
1.01512e-12
4.23324e-13
1.57726e-13
5.22156e-14
9.76924e-15
-3.64481e-13
2.6197e-07
0
-1.11162e-20
-2.36089e-11
0
2.60141e-07
0
-1.71699e-19
0
-1.58711e-10
-3.11553e-10
2.37148e-07
5.98582e-10
-5.86734e-10
3.35815e-14
-3.13028e-16
-3.20245e-15
1.73757e-08
3.80416e-07
3.51269e-06
4.67131e-05
0.000553211
0.00560298
0.0473749
0.332343
1.94332
9.57527
40.3019
146.907
469.086
1319.2
3243.28
6748.69
12068.2
20442.3
32073.7
46847.9
64937.7
86879
113646
146722
188113
240444
307086
392368
501858
642741
824327
1.05871e+06
1.36163e+06
1.75366e+06
2.26168e+06
2.92094e+06
3.77779e+06
4.89324e+06
6.34798e+06
8.24896e+06
1.07387e+07
1.39161e+07
1.80917e+07
2.37417e+07
3.11918e+07
2.79452e+08
2.00362e+08
2.23014e+07
1.61415e+07
1.15344e+07
8.12049e+06
5.62101e+06
3.81877e+06
2.54427e+06
1.66616e+06
1.08438e+06
719453
234416
20131.3
556.61
7.91826
0.077467
0.000824148
1.58204e-05
7.33701e-07
8.0158e-08
1.6285e-08
5.07864e-09
1.83212e-09
7.94519e-10
3.20396e-10
1.53857e-10
6.7517e-11
2.75344e-11
1.18379e-11
5.31797e-12
2.16283e-12
9.1892e-13
3.76335e-13
1.57652e-13
-6.85996e-13
9.09241e-15
6.84414e-22
2.60795e-07
0
0
-3.05197e-16
2.31258e-11
5.99723e-16
0
0
-2.43526e-07
0
-6.30059e-19
-2.27983e-07
2.22568e-07
-5.59809e-10
-4.35781e-17
-1.31642e-09
2.5813e-09
2.29763e-08
1.90532e-07
3.7343e-06
5.02589e-05
0.000598077
0.00606754
0.051391
0.361167
2.11624
10.4529
44.1227
161.341
516.529
1451.68
3524.99
6997.96
11929.3
20326.7
31941.3
46731.1
64936.9
87129.6
114312
147970
190108
243341
311025
397465
508178
650267
832894
1.0679e+06
1.37065e+06
1.76106e+06
2.26502e+06
2.91627e+06
3.75875e+06
4.84986e+06
6.26467e+06
8.10154e+06
1.04896e+07
1.35297e+07
1.74664e+07
2.27582e+07
2.96772e+07
3.33086e+08
1.5244e+08
2.12192e+07
1.54117e+07
1.10495e+07
7.80416e+06
5.41898e+06
3.69288e+06
2.46825e+06
1.62226e+06
1.06079e+06
704324
212861
16523.4
431.049
5.89531
0.0570159
0.000623148
1.2675e-05
6.28284e-07
7.18624e-08
1.5243e-08
4.61354e-09
1.82826e-09
7.35647e-10
3.15052e-10
1.40284e-10
6.33023e-11
2.56229e-11
1.17067e-11
5.26859e-12
2.3278e-12
5.17172e-12
3.75007e-13
1.45969e-13
4.66219e-14
8.72374e-15
0
0
0
0
2.56174e-07
0
-5.88111e-16
-8.83443e-11
1.63027e-19
2.22261e-15
0
6.0719e-19
2.1851e-07
-6.73712e-10
-6.7032e-18
2.02412e-07
-3.47549e-16
4.3997e-09
2.34263e-08
3.94029e-07
3.97372e-06
5.29341e-05
0.000630726
0.00640979
0.0543638
0.382619
2.24574
11.115
47.0283
172.387
552.656
1547.02
3666.01
7446.7
12710.7
18687.2
29944.1
44394.1
62337.7
84367.1
111489
145166
187376
240698
308447
394867
505395
647013
828700
1.06204e+06
1.36198e+06
1.74788e+06
2.24481e+06
2.88529e+06
3.71158e+06
4.7787e+06
6.15834e+06
7.94412e+06
1.02587e+07
1.3205e+07
1.69977e+07
2.20851e+07
2.87239e+07
3.57843e+08
1.24653e+08
2.05122e+07
1.49202e+07
1.07157e+07
7.58314e+06
5.27685e+06
3.60466e+06
2.41582e+06
1.59275e+06
1.04525e+06
693980
199717
14535
364.389
4.84843
0.0465171
0.000517751
1.09479e-05
5.675e-07
6.73543e-08
1.46462e-08
4.5629e-09
1.7019e-09
7.41723e-10
3.29659e-10
1.37674e-10
6.06223e-11
2.80263e-11
1.19475e-11
5.21269e-12
2.30743e-12
9.48175e-13
5.33723e-12
1.34221e-13
-4.94432e-12
8.41742e-15
9.50655e-18
0
0
0
0
-2.49322e-07
5.76359e-16
0
2.21123e-15
-2.15629e-15
-3.0108e-19
0
-2.09781e-07
1.16611e-09
-8.49107e-18
-4.31797e-17
9.5141e-10
1.84822e-09
2.40338e-08
2.31072e-07
4.01897e-06
5.42782e-05
0.00064769
0.00658644
0.0559078
0.393826
2.31384
11.4655
48.5743
178.235
570.792
1582.66
3804.38
7742.65
13206.8
19194.6
25625.4
39344.8
56531.6
77809.1
104168
137031
178326
230569
297004
381786
490238
629191
807425
1.03625e+06
1.33025e+06
1.70828e+06
2.19476e+06
2.82131e+06
3.62903e+06
4.67139e+06
6.01811e+06
7.76031e+06
1.00174e+07
1.28919e+07
1.65879e+07
2.15431e+07
2.80029e+07
3.68774e+08
1.12586e+08
1.99414e+07
1.4518e+07
1.04362e+07
7.39267e+06
5.15023e+06
3.52288e+06
2.36471e+06
1.56187e+06
1.02694e+06
682158
193104
13682.9
336.235
4.41121
0.0421512
0.000473404
1.01999e-05
5.38624e-07
6.53682e-08
1.40479e-08
4.66716e-09
1.7697e-09
7.41275e-10
3.01518e-10
1.45397e-10
5.88369e-11
2.4846e-11
1.17091e-11
4.79971e-12
1.93013e-12
8.11148e-13
3.48493e-13
1.44991e-13
5.02594e-12
8.41903e-15
2.58822e-07
0
-5.42612e-21
0
0
0
1.97391e-11
-2.40482e-07
1.58706e-19
-2.29478e-07
0
-8.14229e-15
-6.0224e-10
2.03599e-07
-6.22337e-10
9.80934e-10
2.12066e-09
4.11949e-09
2.62404e-08
3.1503e-07
4.01866e-06
5.42626e-05
0.000647569
0.00658593
0.055908
0.393863
2.31427
11.4687
48.5924
178.318
571.102
1583.63
3806.89
7747.87
13215.5
19206.7
25643.3
39371.8
56569.6
77860.1
104234
137114
178429
230694
297151
381953
490421
629380
807602
1.03638e+06
1.3303e+06
1.70818e+06
2.1944e+06
2.82058e+06
3.62779e+06
4.66947e+06
6.01538e+06
7.75671e+06
1.00131e+07
1.28873e+07
1.65843e+07
2.15416e+07
2.80034e+07
3.68829e+08
1.12484e+08
1.99386e+07
1.45134e+07
1.04311e+07
7.38814e+06
5.14668e+06
3.52038e+06
2.36312e+06
1.56095e+06
1.02644e+06
681898
192983
13669.9
335.857
4.40566
0.0420961
0.000472824
1.01911e-05
5.39234e-07
6.57022e-08
1.45169e-08
4.44412e-09
1.81334e-09
7.4131e-10
3.10801e-10
1.39585e-10
5.88375e-11
2.48461e-11
1.13985e-11
3.74158e-12
1.93012e-12
8.11141e-13
3.58582e-13
5.09867e-12
7.81281e-13
7.41059e-13
0
2.73769e-21
0
0
0
2.97976e-16
-2.47509e-11
0
-7.77748e-11
-2.22276e-15
-3.11534e-19
0
0
-1.14881e-18
1.55567e-14
2.02624e-07
1.24249e-09
4.39901e-09
2.14942e-08
2.11039e-07
3.9649e-06
5.27989e-05
0.000630454
0.00640776
0.054361
0.382698
2.2468
11.1233
47.0758
172.607
553.498
1549.69
3672.69
7461.1
12734.9
18725.9
30005.5
44484.1
62462.1
84532.4
111703
145436
187711
241106
308934
395437
506045
647730
829455
1.06278e+06
1.36262e+06
1.74828e+06
2.24479e+06
2.8846e+06
3.70994e+06
4.77579e+06
6.15392e+06
7.9382e+06
1.02517e+07
1.31983e+07
1.69935e+07
2.2085e+07
2.87257e+07
3.5812e+08
1.24292e+08
2.05093e+07
1.4912e+07
1.07046e+07
7.57201e+06
5.26745e+06
3.59763e+06
2.41102e+06
1.58972e+06
1.04346e+06
692942
199275
14489.7
363.081
4.82937
0.046332
0.000515886
1.09153e-05
5.64558e-07
6.73707e-08
1.48207e-08
4.49246e-09
1.78324e-09
7.18961e-10
3.20211e-10
1.43616e-10
5.69206e-11
2.64987e-11
1.08523e-11
5.2129e-12
6.32199e-12
9.07777e-13
3.50597e-13
1.3422e-13
7.83466e-13
8.41767e-15
1.63265e-13
-2.7501e-21
0
-1.5327e-16
-2.19048e-20
2.31251e-11
0
0
0
-2.43508e-07
0
0
-8.57266e-15
-1.20154e-18
-2.17984e-07
-4.12791e-17
-3.367e-16
-3.38902e-15
2.75672e-08
2.92753e-07
3.72879e-06
5.02752e-05
0.000597408
0.00606412
0.051383
0.361256
2.11764
10.4642
44.1891
161.651
517.727
1455.56
3535.23
7017.96
11964.8
20393.9
32046.8
46884.2
65147.4
87408.4
114672
148427
190678
244045
311883
398497
509404
651698
834533
1.06974e+06
1.37265e+06
1.76315e+06
2.26713e+06
2.91826e+06
3.76049e+06
4.85125e+06
6.26572e+06
8.10245e+06
1.04909e+07
1.35319e+07
1.74696e+07
2.27613e+07
2.96742e+07
3.33914e+08
1.51607e+08
2.12227e+07
1.54134e+07
1.10472e+07
7.79938e+06
5.4137e+06
3.68833e+06
2.46492e+06
1.62007e+06
1.05947e+06
703458
212304
16449.8
428.685
5.85862
0.0566485
0.000619466
1.26131e-05
6.2531e-07
7.25843e-08
1.52463e-08
4.61513e-09
1.87441e-09
7.1673e-10
3.24779e-10
1.40299e-10
6.27373e-11
2.56254e-11
1.13152e-11
4.90988e-12
2.32795e-12
-4.07753e-12
-3.60984e-13
1.4598e-13
4.91801e-14
8.72399e-15
2.60002e-07
2.61966e-07
0
0
0
4.42047e-20
0
0
-2.54493e-07
0
-1.58697e-10
-6.94403e-10
0
-2.50904e-18
-1.71367e-14
-2.23455e-07
-1.13124e-09
6.18332e-14
1.68702e-08
3.84678e-07
3.62069e-06
4.65057e-05
0.000552561
0.00559752
0.0473518
0.332351
1.94441
9.58587
40.3687
147.23
470.368
1323.45
3254.95
6773.87
12115.4
20529
32211
47048.2
65213.9
87246.3
114123
147331
188884
241411
308292
393862
503698
644995
827073
1.06203e+06
1.36563e+06
1.75843e+06
2.26733e+06
2.92756e+06
3.78544e+06
4.90195e+06
6.35767e+06
8.25939e+06
1.07494e+07
1.39257e+07
1.80976e+07
2.37401e+07
3.11785e+07
2.81375e+08
1.98923e+08
2.22966e+07
1.61414e+07
1.15332e+07
8.11756e+06
5.61734e+06
3.81529e+06
2.54149e+06
1.66423e+06
1.08319e+06
718736
233697
20012.3
552.447
7.85071
0.0767821
0.000817551
1.57153e-05
7.3158e-07
8.01882e-08
1.62898e-08
5.22998e-09
1.74733e-09
7.94642e-10
3.31032e-10
1.53887e-10
6.75292e-11
2.65226e-11
1.21634e-11
5.68214e-12
2.16316e-12
9.19023e-13
1.11726e-12
1.46209e-13
5.23049e-14
9.0936e-15
2.01269e-13
0
2.65086e-07
0
0
0
-4.75686e-11
0
0
2.42399e-15
-2.54273e-07
3.96362e-10
-2.4702e-07
-1.30767e-18
-2.38233e-07
-3.54623e-17
1.46472e-09
-2.95597e-15
2.07615e-08
2.51614e-07
3.15011e-06
4.22272e-05
0.000499788
0.00505219
0.0426617
0.298901
1.74523
8.5837
36.0482
131.07
417.577
1174.23
2908.21
6222.56
11514.6
19638.1
31015.1
45529.4
63289.6
84770.2
110909
143151
183492
234535
299646
383144
490605
629249
808461
1.04049e+06
1.34136e+06
1.73211e+06
2.2404e+06
2.90273e+06
3.76738e+06
4.8984e+06
6.38101e+06
8.32911e+06
1.08953e+07
1.41903e+07
1.86809e+07
2.46865e+07
3.27432e+07
1.89637e+08
2.62688e+08
2.3734e+07
1.71035e+07
1.21749e+07
8.5421e+06
5.89459e+06
3.99289e+06
2.65221e+06
1.73065e+06
1.12078e+06
740940
264824
26075.2
778.16
11.6479
0.115847
0.00119279
2.12654e-05
9.08014e-07
9.17548e-08
1.79884e-08
5.34247e-09
2.08323e-09
8.54026e-10
3.36005e-10
1.56275e-10
7.10303e-11
2.91605e-11
1.34168e-11
6.1037e-12
2.36061e-12
1.01528e-12
4.23391e-13
1.57756e-13
7.92638e-13
-4.99286e-12
0
2.7871e-21
0
0
0
2.70452e-07
0
9.07721e-20
2.51303e-15
0
0
0
0
0
2.50167e-07
2.48541e-07
-1.25244e-09
2.4822e-09
1.64687e-08
3.47442e-07
2.86583e-06
3.75554e-05
0.00044309
0.0044703
0.0376827
0.263593
1.53639
7.54107
31.593
114.561
364.062
1022.75
2543.78
5540.54
10515.8
18132.8
28941.8
42851.9
59947.4
80621.2
105747
136696
175400
224399
286984
367386
471076
605155
778875
1.00434e+06
1.29746e+06
1.67915e+06
2.17707e+06
2.82786e+06
3.68026e+06
4.7993e+06
6.27219e+06
8.21646e+06
1.07914e+07
1.41241e+07
1.85668e+07
2.46782e+07
3.29029e+07
9.86763e+07
3.28208e+08
2.5207e+07
1.81382e+07
1.28937e+07
9.03438e+06
6.22605e+06
4.2115e+06
2.79257e+06
1.81731e+06
1.17075e+06
767730
327469
36049.3
1193.94
19.1315
0.195134
0.00193737
3.15288e-05
1.20246e-06
1.10921e-07
1.96737e-08
6.14046e-09
2.12016e-09
8.23064e-10
3.58542e-10
1.58393e-10
6.92628e-11
3.2398e-11
1.35318e-11
6.88331e-12
2.55836e-12
1.11157e-12
4.23962e-13
1.69178e-13
5.78052e-14
1.08282e-14
0
3.90008e-17
0
0
0
2.74658e-07
0
0
-2.7368e-07
0
-3.87513e-10
0
7.59977e-10
-2.82826e-18
-5.59885e-18
-2.9498e-09
-2.57811e-07
-2.43993e-15
1.15778e-08
2.01668e-07
2.48438e-06
3.27942e-05
0.000386065
0.00388775
0.0327236
0.228616
1.33078
6.5218
27.2722
98.6862
312.988
878.514
2191.23
4831.25
9350.55
16325.2
26376.4
39469.1
55693.4
75365.4
99264.2
128670
165409
211912
271334
347740
446384
574083
739714
954892
1.23485e+06
1.59962e+06
2.07563e+06
2.69782e+06
3.5125e+06
4.58127e+06
5.98631e+06
7.83768e+06
1.02835e+07
1.3473e+07
1.76477e+07
2.33613e+07
3.09846e+07
5.01345e+07
3.86467e+08
2.66333e+07
1.92075e+07
1.3674e+07
9.59195e+06
6.6164e+06
4.47858e+06
2.97031e+06
1.93132e+06
1.2398e+06
805681
398912
52785.8
1997.19
34.7934
0.368238
0.00352916
5.17366e-05
1.72923e-06
1.42184e-07
2.41618e-08
6.58856e-09
2.33346e-09
9.63539e-10
3.82089e-10
1.71952e-10
8.18141e-11
3.5665e-11
9.97091e-12
5.42075e-12
2.75559e-12
1.11382e-12
-2.85162e-13
9.66431e-13
6.33245e-14
1.14768e-14
0
0
-2.72546e-12
0
-2.48491e-11
-2.78842e-07
5.0234e-11
1.31807e-15
0
-1.10486e-10
0
-4.36824e-10
0
2.04426e-14
-1.54881e-09
-2.89393e-17
3.06213e-09
-2.16908e-15
-2.52888e-07
1.70103e-07
2.09861e-06
2.83047e-05
0.000331595
0.00333182
0.0280125
0.195547
1.13743
5.56909
23.2609
84.0543
266.229
746.899
1867.07
4153.27
8164.25
14434.3
23617.5
35757.8
50958.4
69489
92022.4
119732
154305
198034
253893
325728
418499
538634
694488
896962
1.16031e+06
1.50321e+06
1.95016e+06
2.53335e+06
3.29508e+06
4.29098e+06
5.59411e+06
7.30041e+06
9.5368e+06
1.24631e+07
1.62187e+07
2.12836e+07
2.79361e+07
3.66424e+07
4.24258e+08
2.88943e+07
2.07732e+07
1.476e+07
1.03435e+07
7.13283e+06
4.82891e+06
3.20333e+06
2.08178e+06
1.33226e+06
856996
484884
80211
3608.18
69.7559
0.778478
0.00725122
9.49445e-05
2.71673e-06
1.9373e-07
3.01367e-08
7.75511e-09
2.73051e-09
1.0306e-09
3.85925e-10
2.10689e-10
8.41244e-11
3.89458e-11
1.67247e-11
6.53522e-12
3.14145e-12
1.26075e-12
5.16919e-13
2.1479e-13
7.45334e-14
1.31378e-14
-4.8104e-18
0
0
1.16829e-20
-2.8038e-07
3.32626e-16
2.81828e-11
-1.34457e-15
2.86439e-07
0
0
0
0
0
-3.02567e-18
-2.71239e-17
-2.81572e-07
2.865e-09
-2.71649e-07
1.43382e-07
1.87815e-06
2.39492e-05
0.000281211
0.00282092
0.0236988
0.165389
0.961856
4.70827
19.6565
70.9844
224.695
630.388
1579.02
3536.85
7041.67
12602.4
20878.9
32000.3
46092.5
63407
84518.4
110478
142839
183727
235931
303058
389768
502094
647873
837317
1.08377e+06
1.40471e+06
1.82304e+06
2.36883e+06
3.0816e+06
4.01331e+06
5.23228e+06
6.82837e+06
8.91842e+06
1.16533e+07
1.51401e+07
1.97038e+07
2.57855e+07
3.36213e+07
4.26938e+08
7.32421e+07
2.20997e+07
1.5812e+07
1.1139e+07
7.71354e+06
5.24002e+06
3.48574e+06
2.26925e+06
1.45106e+06
926421
573751
123961
6985.41
153.347
1.84067
0.0168822
0.000196878
4.727e-06
2.84991e-07
3.83387e-08
8.92446e-09
2.9426e-09
1.23067e-09
4.58511e-10
2.2332e-10
1.01372e-10
3.91559e-11
1.74804e-11
8.51564e-12
8.02662e-12
1.39768e-12
6.10183e-13
5.39879e-12
6.82606e-14
1.30248e-14
-2.62309e-07
0
-5.79219e-21
0
2.8376e-07
-2.87139e-07
4.88832e-20
-2.9159e-07
0
1.16074e-10
0
0
-3.7628e-10
1.57297e-18
1.66865e-09
-2.19312e-17
-1.81656e-16
6.66848e-09
6.68217e-09
1.23558e-07
1.55765e-06
2.04248e-05
0.00023615
0.00236533
0.0198633
0.138657
0.806757
3.95071
16.4981
59.5847
188.632
529.521
1329.15
2994.31
6038.26