/*--------------------------------*- C++ -*----------------------------------*\
  =========                 |
  \\      /  F ield         | OpenFOAM: The Open Source CFD Toolbox
   \\    /   O peration     | Website:  https://openfoam.org
    \\  /    A nd           | Version:  8
     \\/     M anipulation  |
\*---------------------------------------------------------------------------*/
FoamFile
{
    version     2.0;
    format      ascii;
    class       volScalarField;
    location    "160/fluid";
    object      rDeltaT;
}
// * * * * * * * * * * * * * * * * * * * * * * * * * * * * * * * * * * * * * //

dimensions      [0 0 -1 0 0 0 0];

internalField   nonuniform List<scalar> 
4000
(
513.127
538.505
562.877
586.36
608.878
630.384
650.821
670.095
688.091
704.704
719.872
733.6
745.98
757.209
767.595
777.499
787.171
796.696
805.935
814.501
821.816
827.217
830.08
829.921
826.464
819.669
809.654
796.628
780.877
762.736
742.564
720.719
697.546
673.363
648.458
623.084
597.461
581.178
586.079
602.899
619.991
637.467
655.428
673.968
693.171
713.114
733.866
755.492
778.046
801.579
826.133
851.743
878.439
906.237
935.148
965.17
996.286
1028.47
1061.67
1095.82
1130.85
1166.64
1203.06
1239.84
1276.98
1314.31
1352.12
10369.6
6825.32
1411.53
1409.78
1401.89
1387.38
1365.89
1337.04
1300.51
1256.14
1204.04
1144.62
1078.63
1007.96
935.695
865.919
803.852
754.535
720.449
700.054
688.889
681.985
675.595
667.663
657.307
644.504
629.605
613.004
594.951
575.532
554.94
533.638
511.576
512.728
537.555
561.264
583.787
605.077
625.106
643.844
661.234
677.212
691.741
704.84
716.607
727.229
736.994
746.251
755.315
764.413
773.611
782.746
791.407
798.99
804.8
808.173
808.585
805.722
799.467
789.867
777.115
761.502
743.381
723.131
701.131
677.741
653.295
628.089
602.381
576.393
560.564
566.939
585.374
604.025
623.002
642.41
662.342
682.889
704.13
726.142
748.994
772.748
797.464
823.192
849.977
877.858
906.865
937.018
968.327
1000.79
1034.39
1069.1
1104.86
1141.59
1179.19
1217.51
1256.29
1295.53
1334.99
1374.63
14966.6
3927.99
1416.53
1409.5
1397.2
1378.75
1353.37
1320.47
1279.6
1230.5
1173.22
1108.06
1036.02
959.719
883.328
812.417
752.795
708.752
680.938
666.036
658.976
655.086
651.341
646.18
638.919
629.336
617.576
603.875
588.379
571.116
552.24
532.172
511.048
512.133
535.634
557.857
578.762
598.273
616.371
633.051
648.3
662.107
674.501
685.569
695.475
704.463
712.844
720.952
729.084
737.476
746.201
755.1
763.766
771.587
777.855
781.882
783.104
781.138
775.774
766.992
754.94
739.888
722.173
702.171
680.259
656.804
632.141
606.576
580.375
553.766
539.412
548.717
569.309
590.128
611.274
632.845
654.929
677.613
700.977
725.098
750.047
775.891
802.692
830.507
859.387
889.379
920.52
952.839
986.355
1021.07
1056.97
1094.01
1132.13
1171.2
1211.06
1251.37
1291.81
1332.08
1371.3
1426.49
16323.4
1459.03
1446.65
1429.75
1407.85
1380.22
1346.07
1304.68
1255.54
1198.43
1133.52
1061.3
983.47
903.459
826.185
757.623
703.115
665.357
643.213
632.527
628.407
626.805
625.191
622.295
617.597
610.881
602.137
591.435
578.798
564.173
547.66
529.661
510.271
511.54
533.845
554.793
574.334
592.409
609.016
624.172
637.887
650.179
661.096
670.743
679.29
686.981
694.126
701.072
708.154
715.618
723.537
731.749
739.838
747.186
753.076
756.811
757.818
755.703
750.265
741.488
729.497
714.53
696.89
676.92
654.97
631.381
606.475
580.542
553.84
526.593
517.129
532.888
555.653
578.708
602.138
626.03
650.466
675.524
701.281
727.809
755.177
783.452
812.695
842.965
874.315
906.793
940.438
975.282
1011.34
1048.63
1087.12
1126.76
1167.49
1209.16
1251.56
1294.2
1336.96
1379.06
1419.44
3171.38
12512
1491.5
1469.48
1443.41
1412.34
1375.54
1332.38
1282.32
1225.05
1160.62
1089.45
1012.48
932.149
852.419
778.34
715.313
667.554
636.327
619.349
612.153
610.242
610.136
609.76
608.052
604.558
599.149
591.846
582.701
571.693
558.724
543.846
527.405
509.51
510.897
531.88
551.442
569.537
586.114
601.178
614.759
626.883
637.587
646.94
655.067
662.161
668.485
674.364
680.16
686.209
692.757
699.871
707.38
714.862
721.695
727.159
730.551
731.29
728.97
723.376
714.476
702.38
687.304
669.535
649.394
627.213
603.315
578.007
551.565
524.236
496.238
493.656
517.953
542.856
568.125
593.837
620.066
646.886
674.367
702.579
731.588
761.46
792.256
824.036
856.855
890.764
925.808
962.026
999.446
1038.09
1077.95
1119.01
1161.23
1204.53
1248.78
1293.76
1339.09
1384.68
1429.96
1474.72
12958
5858.44
1499.68
1473.84
1442.35
1404.96
1361.29
1311.03
1253.98
1190.18
1120.02
1044.14
963.989
882.614
804.261
733.961
676.563
635.141
609.606
596.824
592.309
592.052
593.118
593.814
593.265
591.072
587.099
581.336
573.796
564.429
553.116
539.884
525.05
508.72
510.239
529.899
548.103
564.807
579.967
593.598
605.737
616.422
625.701
633.655
640.419
646.196
651.253
655.923
660.565
665.518
671.026
677.154
683.73
690.333
696.346
701.054
703.765
703.899
701.051
695.003
685.708
673.264
657.868
639.786
619.316
596.771
572.456
546.658
519.638
491.632
470.716
477.021
503.525
530.413
557.751
585.605
614.038
643.114
672.896
703.447
734.825
767.089
800.294
834.494
869.736
906.065
943.518
982.123
1021.9
1062.84
1104.93
1148.11
1192.29
1237.32
1282.97
1328.8
1374.34
1419.22
1462.28
1524.77
17254
1535.72
1508.3
1475.05
1436.18
1391.56
1340.94
1284.11
1221.04
1151.96
1077.46
998.392
916.779
836.061
760.627
695.299
644.19
609.175
588.989
579.934
577.696
578.707
580.545
581.847
581.922
580.461
577.358
572.602
566.193
558.062
548.077
536.24
522.831
507.958
509.562
527.86
544.677
559.973
573.709
585.904
596.603
605.85
613.703
620.251
625.642
630.084
633.856
637.294
640.763
644.601
649.048
654.165
659.775
665.453
670.585
674.459
676.39
675.802
672.293
665.643
655.802
642.853
626.982
608.438
587.503
564.471
539.63
513.251
485.582
456.845
444.376
460.618
488.855
517.564
546.798
576.615
607.069
638.216
670.109
702.803
736.349
770.797
806.195
842.587
880.012
918.505
958.092
998.789
1040.6
1083.5
1127.47
1172.41
1218.21
1264.7
1311.6
1358.29
1404.53
1449.36
1491.53
3856.36
12154.3
1541.22
1506.67
1467.18
1422.25
1371.69
1315.37
1253.25
1185.46
1112.45
1034.92
953.999
872.209
793.212
721.409
661.274
616.108
586.682
570.848
564.663
564.118
566.094
568.576
570.447
571.141
570.401
568.137
564.334
558.981
552
543.255
532.736
520.687
507.221
508.873
525.793
541.215
555.104
567.427
578.206
587.491
595.331
601.79
606.967
611.013
614.145
616.644
618.849
621.125
623.81
627.14
631.17
635.722
640.37
644.503
647.419
648.438
646.996
642.695
635.316
624.803
611.233
594.779
575.675
554.187
530.594
505.167
478.163
449.814
420.331
416.96
443.727
473.522
503.865
534.8
566.376
598.639
631.636
665.413
700.016
735.487
771.869
809.2
847.516
886.846
927.214
968.636
1011.12
1054.65
1099.2
1144.71
1191.11
1238.27
1285.99
1334.02
1381.78
1429.29
1475.8
1521.27
14361.2
5247.16
1523.4
1487.6
1445.56
1397.49
1343.43
1283.5
1217.92
1147.07
1071.61
992.372
910.883
830.037
753.649
686.048
631.274
591.796
567.41
555.324
551.533
552.369
555.116
558.1
560.405
561.575
561.404
559.82
556.813
552.364
546.392
538.76
529.446
518.662
506.519
508.173
523.693
537.704
550.174
561.075
570.434
578.302
584.734
589.799
593.601
596.298
598.111
599.326
600.283
601.35
602.859
605.045
607.957
611.412
614.984
618.065
619.96
619.999
617.628
612.454
604.262
592.994
578.722
561.608
541.873
519.772
495.567
469.515
441.858
412.818
389.216
395.366
425.974
457.157
488.951
521.394
554.525
588.383
623.006
658.433
694.701
731.845
769.898
808.889
848.843
889.779
931.707
974.629
1018.53
1063.38
1109.12
1155.66
1202.87
1250.54
1298.4
1345.96
1392.63
1438.1
1481.13
1520.21
17278.5
1546.49
1511.99
1471
1424.11
1371.59
1313.55
1250.13
1181.56
1108.35
1031.23
951.108
869.894
790.715
717.441
654.235
604.639
570.315
550.247
541.231
539.349
541.286
544.679
548.122
550.854
552.497
552.883
551.955
549.702
546.105
541.081
534.497
526.321
516.736
505.852
507.463
521.567
534.154
545.194
554.667
562.602
569.052
574.076
577.748
580.176
581.524
582.016
581.941
581.642
581.482
581.794
582.807
584.565
586.881
589.329
591.306
592.124
591.125
587.765
581.659
572.597
560.519
545.492
527.671
507.267
484.519
459.679
432.989
404.679
374.959
359.688
375.349
407.119
439.525
472.596
506.36
540.85
576.095
612.129
648.98
686.679
725.251
764.722
805.112
846.435
888.7
931.907
976.044
1021.08
1066.98
1113.67
1161.03
1208.92
1257.11
1305.3
1352.76
1399.17
1443.79
1484.91
2822.08
13729.4
1535.45
1494.91
1449.35
1398.53
1342.48
1281.32
1215.22
1144.49
1069.71
991.648
911.365
831.087
754.084
684.218
625.43
580.731
551.04
534.694
528.248
527.95
530.814
534.779
538.652
541.797
543.9
544.821
544.516
542.976
540.181
536.049
530.454
523.357
514.908
505.219
506.745
519.416
530.563
540.161
548.196
554.699
559.725
563.336
565.609
566.66
566.653
565.818
564.445
562.878
561.48
560.58
560.4
560.981
562.133
563.428
564.269
563.976
561.904
557.518
550.444
540.475
527.554
511.743
493.19
472.095
448.69
423.209
395.887
366.938
336.563
329.374
354.206
386.995
420.471
454.655
489.568
525.234
561.677
598.922
636.992
675.907
715.689
756.353
797.91
840.368
883.725
927.972
973.087
1019.04
1065.76
1113.19
1161.2
1209.65
1258.34
1306.96
1354.84
1402.03
1447.58
1490.76
9154.76
8622.07
1506.83
1465.55
1418.63
1366.22
1308.51
1245.73
1178.21
1106.4
1030.98
952.761
873.027
794.271
719.841
653.555
599.087
558.928
533.341
520.175
515.881
516.917
520.588
525.091
529.404
532.985
535.568
537.037
537.357
536.519
534.504
531.234
526.59
520.525
513.165
504.617
506.019
517.241
526.935
535.081
541.668
546.732
550.327
552.52
553.391
553.059
551.695
549.529
546.854
544.013
541.367
539.242
537.855
537.242
537.207
537.328
537.009
535.582
532.412
526.979
518.915
508.021
494.241
477.633
458.341
436.555
412.494
386.386
358.449
328.891
298.394
298.865
331.821
365.497
399.902
435.049
470.954
507.631
545.1
583.376
622.478
662.418
703.211
744.863
787.379
830.756
874.984
920.042
965.898
1012.5
1059.79
1107.67
1156.01
1204.66
1253.39
1301.93
1349.65
1396.4
1441.87
1485.63
16390.9
3685.43
1473.82
1432.34
1384.71
1331.38
1272.69
1208.99
1140.71
1068.43
992.94
915.08
836.37
759.492
687.839
625.14
574.787
538.769
516.792
506.351
503.887
506.082
510.488
515.521
520.294
524.339
527.427
529.463
530.414
530.276
529.028
526.599
522.875
517.808
511.496
504.042
505.285
515.045
523.273
529.955
535.086
538.703
540.863
541.632
541.098
539.382
536.657
533.158
529.178
525.059
521.16
517.802
515.199
513.38
512.147
511.079
509.587
507.013
502.734
496.243
487.182
475.358
460.716
443.313
423.286
400.819
376.12
349.405
320.884
290.752
266.69
274.448
308.125
342.565
377.77
413.746
450.499
488.04
526.379
565.528
605.497
646.295
687.926
730.392
773.689
817.806
862.722
908.406
954.811
1001.87
1049.5
1097.56
1145.9
1194.3
1242.45
1289.96
1336.11
1380.84
1423.08
1461.72
17090.6
1487.37
1449.48
1404.85
1354.43
1298.81
1238.34
1173.34
1104.23
1031.59
956.22
878.967
801.534
726.714
657.892
598.677
552.159
519.868
501.046
492.947
492.058
495.281
500.381
505.953
511.217
515.763
519.392
522.02
523.62
524.188
523.705
522.104
519.28
515.183
509.889
503.491
504.545
512.829
519.58
524.789
528.457
530.621
531.341
530.686
528.744
525.643
521.559
516.726
511.441
506.043
500.89
496.296
492.471
489.439
487.001
484.737
482.065
478.338
472.949
465.399
455.343
442.593
427.098
408.912
388.167
365.039
339.728
312.439
283.372
252.711
234.46
248.789
283.08
318.173
354.061
390.742
428.216
466.487
505.56
545.442
586.136
627.645
669.969
713.105
757.04
801.759
847.233
893.425
940.278
987.718
1035.64
1083.92
1132.37
1180.74
1228.73
1275.72
1321.22
1364.81
1405.08
1741.22
16030.1
1464.17
1422.08
1374.71
1322.25
1265.06
1203.41
1137.62
1068.12
995.513
920.583
844.232
768.318
695.692
629.704
573.822
530.842
501.884
485.819
479.749
480.244
484.406
490.183
496.317
502.109
507.198
511.405
514.656
516.927
518.213
518.496
517.717
515.78
512.633
508.332
502.96
503.798
510.596
515.861
519.589
521.788
522.496
521.774
519.693
516.345
511.861
506.419
500.257
493.67
486.996
480.589
474.76
469.711
465.464
461.819
458.357
454.504
449.628
443.131
434.53
423.49
409.828
393.496
374.548
353.109
329.35
303.46
275.635
246.065
214.925
201.778
221.869
256.676
292.318
328.781
366.054
404.132
443.014
482.698
523.187
564.479
606.572
649.464
693.144
737.598
782.805
828.734
875.342
922.57
970.339
1018.55
1067.05
1115.66
1164.14
1212.15
1258.93
1304.24
1347.39
1386.86
3164.32
14014.3
1433.92
1390.1
1341.33
1287.76
1229.71
1167.49
1101.45
1032.04
959.893
885.769
810.632
736.469
666.148
602.97
550.25
510.511
484.524
470.876
466.584
468.32
473.367
479.825
486.552
492.917
498.593
503.418
507.325
510.291
512.311
513.368
513.41
512.351
510.14
506.814
502.445
503.047
508.348
512.12
514.362
515.088
514.338
512.174
508.669
503.918
498.055
491.262
483.776
475.892
467.947
460.291
453.23
446.96
441.5
436.648
431.991
426.963
420.944
413.351
403.712
391.704
377.152
360.007
340.323
318.222
293.866
267.437
239.121
209.098
177.534
168.714
193.689
228.919
265.013
301.949
339.71
378.285
417.666
457.848
498.828
540.6
583.16
626.5
670.606
715.462
761.044
807.318
854.239
901.748
949.768
998.195
1046.9
1095.69
1144.35
1192.54
1239.5
1285.28
1328.82
1369.04
6149.16
11638.6
1396.42
1352.68
1303.94
1250.43
1192.48
1130.48
1064.83
996.021
924.749
851.771
778.123
705.889
637.93
577.489
527.733
490.938
467.584
456.051
453.327
456.202
462.104
469.261
476.62
483.604
489.912
495.397
499.994
503.681
506.453
508.294
509.159
508.974
507.689
505.326
501.943
502.291
506.088
508.36
509.113
508.365
506.159
502.556
497.631
491.483
484.248
476.11
467.308
458.136
448.929
440.03
431.742
424.256
417.588
411.535
405.689
399.495
392.345
383.671
373.014
360.06
344.642
326.714
306.327
283.6
258.688
231.764
203.006
172.584
140.654
135.334
164.264
199.829
236.282
273.596
311.747
350.717
390.493
431.066
472.428
514.57
557.483
601.156
645.575
690.718
736.559
783.064
830.186
877.865
926.026
974.568
1023.37
1072.25
1121.01
1169.36
1216.58
1262.53
1306.76
1348.27
9786.28
9160.53
1355.63
1312.66
1264.56
1211.65
1154.33
1093.01
1028.16
960.322
890.242
818.675
746.716
676.518
610.928
553.117
506.114
471.981
450.965
441.276
439.908
443.841
450.589
458.469
466.5
474.148
481.133
487.316
492.637
497.072
500.614
503.252
504.945
505.633
505.269
503.861
501.451
501.532
503.82
504.589
503.851
501.63
497.97
492.932
486.594
479.056
470.459
460.987
450.88
440.43
429.969
419.838
410.331
401.637
393.767
386.52
379.496
372.148
363.883
354.146
342.493
328.621
312.367
293.689
272.637
249.325
223.902
196.533
167.386
136.622
104.39
101.706
133.626
169.438
206.163
243.763
282.209
321.477
361.549
402.411
444.05
486.455
529.614
573.511
618.13
663.446
709.432
756.048
803.247
850.968
899.131
947.638
996.36
1045.13
1093.74
1141.9
1188.97
1234.68
1278.78
1320.3
12330.9
7144.4
1316.51
1273.75
1225.95
1173.49
1116.75
1056.16
992.21
925.481
856.725
786.691
716.517
648.383
585.099
529.76
485.267
453.518
434.61
426.6
426.401
431.308
438.873
447.482
456.21
464.553
472.248
479.164
485.237
490.444
494.776
498.222
500.751
502.314
502.868
502.41
500.966
500.77
501.546
500.811
498.584
494.892
489.784
483.318
475.575
466.658
456.709
445.915
434.515
422.799
411.097
399.743
389.027
379.133
370.07
361.64
353.449
344.962
335.599
324.822
312.199
297.438
280.382
260.991
239.316
215.464
189.578
161.816
132.336
101.29
100
100
101.807
137.786
174.698
212.497
251.148
290.62
330.892
371.945
413.762
456.329
499.63
543.648
588.361
633.745
679.766
726.386
773.552
821.201
869.249
917.595
966.105
1014.61
1062.89
1110.66
1157.29
1202.47
1246
1286.86
13552
5887.04
1279.66
1236.67
1188.83
1136.57
1080.27
1020.36
957.317
891.731
824.351
755.91
687.556
621.463
560.389
507.338
465.096
435.421
418.346
411.912
412.86
418.661
426.995
436.32
445.753
454.812
463.245
470.92
477.774
483.777
488.918
493.187
496.562
499.004
500.478
500.97
500.485
500.008
499.27
497.032
493.318
488.162
481.612
473.728
464.591
454.306
443.018
430.915
418.235
405.268
392.336
379.771
367.857
356.773
346.527
336.924
327.577
317.967
307.526
295.733
282.169
266.551
248.73
228.669
206.415
182.073
155.777
127.677
100
100
100
100
100
104.925
141.942
179.855
218.622
258.209
298.587
339.736
381.635
424.266
467.611
511.651
556.363
601.719
647.686
694.22
741.271
788.77
836.636
884.763
933.017
981.23
1029.18
1076.58
1122.83
1167.62
1210.76
1251.2
14044.3
5323.28
1243.03
1199.97
1152.22
1100.25
1044.48
985.333
923.294
858.951
793.041
726.274
659.786
595.712
536.746
485.801
445.557
417.666
402.091
396.955
399.086
405.765
414.859
424.911
435.073
444.88
454.084
462.551
470.215
477.04
483.013
488.125
492.359
495.691
498.09
499.532
500.007
500.006
499.265
497.026
493.311
488.154
481.601
473.716
464.577
454.291
443.001
430.897
418.216
405.247
392.314
379.748
367.833
356.748
346.501
336.898
327.552
317.942
307.502
295.709
282.147
266.53
248.711
228.651
206.398
182.056
155.761
127.662
100
100
100
100
100
104.938
141.956
179.869
218.635
258.221
298.599
339.746
381.644
424.274
467.617
511.655
556.365
601.719
647.683
694.215
741.263
788.759
836.622
884.745
932.996
981.204
1029.15
1076.55
1122.79
1167.58
1210.71
1251.14
14047.7
5318.28
1242.95
1199.9
1152.15
1100.19
1044.43
985.302
923.275
858.943
793.043
726.286
659.805
595.737
536.774
485.832
445.588
417.698
402.123
396.983
399.109
405.785
414.877
424.926
435.085
444.89
454.091
462.556
470.218
477.041
483.012
488.122
492.355
495.686
498.082
499.522
500
500.767
501.538
500.8
498.569
494.875
489.762
483.294
475.547
466.627
456.675
445.877
434.474
422.756
411.051
399.694
388.977
379.081
370.017
361.586
353.394
344.907
335.545
324.769
312.149
297.389
280.335
260.947
239.273
215.422
189.537
161.775
132.295
101.248
100
100
101.848
137.829
174.742
212.542
251.192
290.664
330.936
371.987
413.803
456.367
499.666
543.681
588.391
633.771
679.789
726.404
773.566
821.209
869.252
917.591
966.095
1014.59
1062.86
1110.62
1157.23
1202.4
1245.92
1286.77
13568.5
5868.83
1279.46
1236.48
1188.66
1136.42
1080.15
1020.27
957.249
891.687
824.328
755.906
687.568
621.487
560.423
507.381
465.145
435.474
418.402
411.962
412.903
418.7
427.03
436.35
445.777
454.832
463.26
470.93
477.779
483.778
488.915
493.181
496.553
498.993
500.463
500.949
500.472
501.528
503.812
504.578
503.837
501.612
497.948
492.907
486.565
479.024
470.423
460.947
450.837
440.384
429.92
419.786
410.277
401.58
393.707
386.46
379.434
372.086
363.82
354.083
342.431
328.56
312.306
293.629
272.578
249.265
223.841
196.471
167.323
136.557
104.322
101.705
133.698
169.513
206.241
243.843
282.29
321.56
361.632
402.495
444.134
486.539
529.697
573.593
618.21
663.525
709.508
756.122
803.317
851.034
899.193
947.695
996.412
1045.18
1093.79
1141.94
1188.99
1234.69
1278.76
1320.28
12374.6
7104.85
1316.21
1273.47
1225.7
1173.27
1116.56
1056
992.083
925.38
856.647
786.633
716.475
648.356
585.087
529.761
485.283
453.546
434.647
426.64
426.441
431.345
438.906
447.511
456.233
464.571
472.262
479.172
485.241
490.444
494.772
498.215
500.742
502.302
502.852
502.39
500.953
502.288
506.081
508.349
509.099
508.347
506.137
502.53
497.601
491.449
484.21
476.069
467.263
458.088
448.877
439.975
431.683
424.195
417.523
411.468
405.62
399.425
392.274
383.598
372.941
359.987
344.568
326.639
306.252
283.523
258.609
231.683
202.922
172.495
140.562
135.335
164.368
199.936
236.394
273.711
311.865
350.838
390.617
431.192
472.555
514.698
557.612
601.286
645.705
690.848
736.689
783.192
830.312
877.988
926.145
974.684
1023.48
1072.36
1121.11
1169.45
1216.68
1262.65
1306.91
1348.46
9865.81
9098.31
1355.2
1312.3
1264.25
1211.39
1154.1
1092.81
1027.98
960.171
890.11
818.559
746.616
676.434
610.862
553.071
506.091
471.98
450.983
441.305
439.942
443.876
450.62
458.496
466.522
474.164
481.144
487.323
492.639
497.07
500.609
503.243
504.935
505.621
505.253
503.84
501.438
503.044
508.341
512.109
514.348
515.07
514.317
512.149
508.639
503.885
498.017
491.22
483.73
475.842
467.893
460.233
453.168
446.894
441.431
436.576
431.916
426.886
420.865
413.27
403.629
391.62
377.066
359.919
340.233
318.129
293.77
267.337
239.017
208.988
177.419
168.718
193.822
229.058
265.158
302.099
339.865
378.444
417.829
458.014
498.997
540.772
583.334
626.675
670.783
715.64
761.222
807.496
854.416
901.923
949.939
998.362
1047.06
1095.85
1144.5
1192.68
1239.64
1285.44
1329
1369.26
6229.72
11561
1396.08
1352.39
1303.68
1250.19
1192.27
1130.27
1064.63
995.831
924.568
851.599
777.961
705.742
637.804
577.389
527.665
490.903
467.578
456.066
453.352
456.229
462.13
469.283
476.638
483.617
489.921
495.401
499.994
503.678
506.447
508.285
509.148
508.962
507.673
505.306
501.931
503.796
510.589
515.851
519.576
521.771
522.475
521.749
519.663
516.311
511.822
506.376
500.21
493.618
486.94
480.528
474.695
469.643
465.392
461.743
458.277
454.421
449.542
443.042
434.438
423.395
409.731
393.396
374.444
353.002
329.237
303.343
275.512
245.936
214.789
201.787
222.033
256.848
292.496
328.965
366.244
404.328
443.214
482.904
523.396
564.692
606.789
649.683
693.365
737.821
783.029
828.958
875.564
922.79
970.555
1018.76
1067.25
1115.86
1164.33
1212.32
1259.08
1304.35
1347.47
1386.89
3203.55
13943.2
1433.85
1389.97
1341.16
1287.56
1229.49
1167.26
1101.21
1031.8
959.647
885.526
810.396
736.248
665.951
602.806
550.128
510.435
484.489
470.871
466.596
468.34
473.386
479.843
486.566
492.927
498.598
503.42
507.323
510.286
512.303
513.359
513.399
512.339
510.125
506.795
502.434
504.542
512.823
519.571
524.777
528.441
530.601
531.317
530.657
528.711
525.605
521.516
516.679
511.388
505.986
500.828
496.23
492.4
489.364
486.922
484.653
481.977
478.247
472.853
465.299
455.24
442.486
426.986
408.796
388.046
364.912
339.595
312.299
283.224
252.555
234.473
248.983
283.283
318.384
354.279
390.967
428.447
466.725
505.804
545.691
586.39
627.903
670.232
713.37
757.309
802.029
847.505
893.696
940.547
987.984
1035.9
1084.17
1132.61
1180.97
1228.94
1275.92
1321.39
1364.94
1405.15
1755.87
16012
1464.02
1421.86
1374.43
1321.95
1264.74
1203.08
1137.29
1067.79
995.185
920.259
843.915
768.017
695.418
629.471
573.641
530.719
501.815
485.792
479.747
480.253
484.418
490.195
496.325
502.115
507.2
511.404
514.651
516.92
518.204
518.486
517.705
515.768
512.618
508.315
502.951
505.283
515.04
523.265
529.944
535.071
538.684
540.839
541.604
541.065
539.344
536.615
533.11
529.125
525.001
521.097
517.735
515.126
513.302
512.065
510.992
509.495
506.916
502.633
496.136
487.071
475.241
460.594
443.185
423.152
400.678
375.972
349.25
320.72
290.579
266.707
274.673
308.359
342.808
378.022
414.005
450.766
488.314
526.66
565.816
605.791
646.594
688.23
730.701
774.002
818.122
863.041
908.726
955.131
1002.19
1049.81
1097.87
1146.21
1194.59
1242.73
1290.2
1336.32
1381.01
1423.19
1461.75
17079.3
1487.21
1449.22
1404.53
1354.07
1298.42
1237.94
1172.93
1103.82
1031.18
955.811
878.564
801.147
726.356
657.58
598.428
551.981
519.759
500.991
492.926
492.056
495.285
500.386
505.957
511.218
515.761
519.388
522.013
523.612
524.178
523.694
522.092
519.269
515.17
509.874
503.483
506.017
517.237
526.928
535.071
541.654
546.714
550.305
552.493
553.359
553.023
551.653
549.482
546.801
543.955
541.304
539.173
537.781
537.163
537.124
537.239
536.914
535.482
532.306
526.867
518.797
507.897
494.11
477.496
458.195
436.402
412.333
386.216
358.269
328.701
298.418
299.12
332.086
365.771
400.186
435.342
471.255
507.941
545.417
583.702
622.81
662.757
703.556
745.214
787.736
831.118
875.351
920.413
966.273
1012.88
1060.17
1108.05
1156.4
1205.04
1253.76
1302.27
1349.95
1396.65
1442.05
1485.72
16448.1
3628.32
1473.43
1431.9
1384.24
1330.9
1272.2
1208.5
1140.22
1067.94
992.445
914.59
835.895
759.048
687.444
624.817
574.547
538.614
516.706
506.312
503.873
506.079
510.489
515.521
520.292
524.335
527.421
529.455
530.405
530.265
529.017
526.588
522.865
517.796
511.484
504.036
506.744
519.413
530.557
540.153
548.184
554.684
559.705
563.311
565.58
566.625
566.613
565.772
564.394
562.822
561.418
560.512
560.327
560.903
562.048
563.338
564.172
563.873
561.794
557.402
550.321
540.344
527.415
511.596
493.035
471.932
448.516
423.026
395.692
366.733
336.346
329.403
354.5
387.3
420.787
454.98
489.903
525.578
562.03
599.283
637.36
676.284
716.073
756.744
798.308
840.773
884.136
928.39
973.511
1019.47
1066.2
1113.63
1161.66
1210.12
1258.81
1307.45
1355.34
1402.55
1448.12
1491.36
9348.61
8485.09
1506.12
1464.89
1418.01
1365.64
1307.94
1245.18
1177.66
1105.84
1030.42
952.203
872.478
793.748
719.369
653.157
598.784
558.724
533.222
520.115
515.855
516.907
520.585
525.089
529.401
532.98
535.561
537.029
537.347
536.509
534.493
531.224
526.58
520.516
513.156
504.613
507.463
521.565
534.15
545.187
554.657
562.589
569.035
574.054
577.721
580.144
581.486
581.972
581.892
581.586
581.421
581.728
582.734
584.487
586.797
589.239
591.209
592.02
591.014
587.646
581.532
572.461
560.374
545.338
527.508
507.093
484.335
459.484
432.783
404.461
374.727
359.723
375.672
407.454
439.871
472.952
506.727
541.226
576.481
612.523
649.383
687.09
725.671
765.15
805.548
846.878
889.151
932.365
976.509
1021.56
1067.46
1114.15
1161.52
1209.42
1257.61
1305.8
1353.28
1399.67
1444.29
1485.39
2888.29
13628.6
1535.14
1494.52
1448.89
1398.02
1341.94
1280.75
1214.63
1143.89
1069.09
991.026
910.744
830.488
753.533
683.745
625.059
580.474
550.884
534.613
528.212
527.936
530.809
534.776
538.649
541.792
543.893
544.813
544.507
542.967
540.171
536.041
530.447
523.35
514.903
505.217
508.173
523.693
537.702
550.169
561.068
570.423
578.287
584.715
589.775
593.571
596.263
598.07
599.279
600.231
601.291
602.795
604.975
607.881
611.33
614.895
617.969
619.856
619.887
617.506
612.324
604.122
592.845
578.562
561.437
541.692
519.579
495.362
469.297
441.628
412.574
389.259
395.717
426.337
457.531
489.336
521.79
554.931
588.798
623.431
658.867
695.144
732.297
770.359
809.358
849.32
890.263
932.2
975.129
1019.04
1063.89
1109.64
1156.19
1203.4
1251.07
1298.92
1346.46
1393.12
1438.54
1481.52
1520.47
17265.1
1546.44
1511.74
1470.62
1423.65
1371.08
1313
1249.53
1180.94
1107.7
1030.56
950.427
869.224
790.087
716.889
653.792
604.322
570.118
550.143
541.185
539.333
541.282
544.679
548.121
550.851
552.493
552.877
551.948
549.695
546.098
541.074
534.491
526.317
516.735
505.853
508.874
525.794
541.215
555.102
567.422
578.198
587.479
595.315
601.77
606.941
610.982
614.107
616.6
618.799
621.07
623.749
627.073
631.097
635.642
640.283
644.409
647.316
648.326
646.875
642.564
635.174
624.65
611.069
594.603
575.486
553.986
530.38
504.94
477.922
449.559
420.062
417.008
444.116
473.922
504.276
535.222
566.809
599.081
632.088
665.875
700.486
735.966
772.357
809.697
848.021
887.359
927.736
969.166
1011.65
1055.19
1099.75
1145.27
1191.68
1238.84
1286.57
1334.6
1382.36
1429.86
1476.36
1521.84
14546
5125.92
1522.93
1487.11
1445.04
1396.93
1342.84
1282.88
1217.26
1146.38
1070.9
991.638
910.15
829.336
753.019
685.529
630.893
591.554
567.281
555.268
551.517
552.369
555.121
558.104
560.408
561.575
561.402
559.817
556.808
552.359
546.388
538.757
529.445
518.665
506.522
509.563
527.862
544.678
559.973
573.707
585.899
596.595
605.838
613.686
620.23
625.615
630.051
633.817
637.249
640.712
644.544
648.985
654.096
659.699
665.37
670.494
674.359
676.28
675.682
672.162
665.5
655.646
642.685
626.802
608.244
587.296
564.25
539.395
513.002
485.319
456.566
444.431
461.03
489.279
517.998
547.244
577.07
607.534
638.69
670.593
703.295
736.85
771.307
806.713
843.112
880.545
919.045
958.639
999.341
1041.16
1084.07
1128.03
1172.98
1218.79
1265.28
1312.19
1358.89
1405.15
1449.98
1492.12
3994.23
11981.1
1540.95
1506.32
1466.75
1421.76
1371.14
1314.76
1252.59
1184.76
1111.71
1034.14
953.213
871.443
792.508
720.813
660.823
615.813
586.522
570.782
564.649
564.126
566.108
568.589
570.458
571.148
570.404
568.138
564.333
558.98
551.999
543.255
532.739
520.695
507.227
510.241
529.903
548.106
564.81
579.969
593.597
605.733
616.414
625.689
633.638
640.397
646.167
651.219
655.883
660.519
665.466
670.969
677.091
683.66
690.255
696.259
700.958
703.658
703.781
700.921
694.86
685.552
673.094
657.685
639.588
619.104
596.545
572.215
546.402
519.367
491.346
470.777
477.454
503.969
530.867
558.216
586.078
614.52
643.606
673.397
703.956
735.342
767.614
800.827
835.033
870.282
906.617
944.075
982.685
1022.46
1063.4
1105.49
1148.67
1192.84
1237.86
1283.48
1329.28
1374.79
1419.64
1462.62
1532.14
17200.7
1535.93
1508.25
1474.83
1435.82
1391.09
1340.38
1283.47
1220.32
1151.19
1076.64
997.553
915.948
835.28
759.949
694.771
643.834
608.979
588.91
579.924
577.714
578.733
580.57
581.867
581.937
580.471
577.364
572.606
566.196
558.065
548.079
536.247
522.843
507.967
510.899
531.886
551.448
569.543
586.119
601.181
614.759
626.881
637.58
646.929
655.051
662.139
668.457
674.331
680.12
686.163
692.706
699.814
707.316
714.791
721.615
727.068
730.45
731.176
728.842
723.235
714.32
702.209
687.119
669.335
649.179
626.982
603.07
577.746
551.289
523.945
496
493.792
518.413
543.325
568.603
594.324
620.562
647.39
674.879
703.098
732.115
761.994
792.798
824.585
857.411
891.327
926.378
962.603
1000.03
1038.68
1078.55
1119.62
1161.86
1205.16
1249.41
1294.39
1339.7
1385.26
1430.5
1475.24
13214.5
5691.87
1499.22
1473.33
1441.79
1404.36
1360.64
1310.33
1253.23
1189.39
1119.19
1043.27
963.113
881.773
803.51
733.355
676.14
634.901
609.511
596.816
592.341
592.095
593.159
593.848
593.29
591.091
587.113
581.345
573.803
564.434
553.121
539.894
525.066
508.731
511.543
533.852
554.801
574.343
592.418
609.024
624.177
637.89
650.178
661.091
670.733
679.275
686.961
694.1
701.04
708.116
715.574
723.488
731.693
739.774
747.113
752.992
756.715
757.709
755.579
750.127
741.333
729.327
714.344
696.689
676.702
654.736
631.133
606.211
580.263
553.545
526.284
517.199
533.361
556.134
579.196
602.635
626.534
650.977
676.042
701.806
728.34
755.715
783.996
813.245
843.521
874.877
907.36
941.011
975.86
1011.93
1049.22
1087.71
1127.37
1168.11
1209.8
1252.22
1294.89
1337.67
1379.77
1420.15
3298.3
12337.3
1491.01
1468.97
1442.87
1411.76
1374.91
1331.7
1281.59
1224.27
1159.79
1088.58
1011.58
931.271
851.612
777.666
714.825
667.267
636.21
619.343
612.199
610.302
610.192
609.805
608.086
604.584
599.167
591.858
582.71
571.7
558.731
543.858
527.425
509.524
512.136
535.642
557.868
578.773
598.285
616.382
633.062
648.308
662.113
674.503
685.566
695.467
704.45
712.826
720.928
729.055
737.441
746.16
755.053
763.711
771.523
777.779