/*--------------------------------*- C++ -*----------------------------------*\
  =========                 |
  \\      /  F ield         | OpenFOAM: The Open Source CFD Toolbox
   \\    /   O peration     | Website:  https://openfoam.org
    \\  /    A nd           | Version:  8
     \\/     M anipulation  |
\*---------------------------------------------------------------------------*/
FoamFile
{
    version     2.0;
    format      ascii;
    class       volScalarField;
    location    "160/fluid";
    object      rho;
}
// * * * * * * * * * * * * * * * * * * * * * * * * * * * * * * * * * * * * * //

dimensions      [1 -3 0 0 0 0 0];

internalField   nonuniform List<scalar> 
4000
(
0.658527
0.658505
0.658468
0.658406
0.658304
0.658135
0.657858
0.657411
0.656693
0.655557
0.653787
0.651079
0.647029
0.641131
0.632814
0.621521
0.606839
0.588643
0.567213
0.543234
0.517675
0.491592
0.465931
0.44141
0.41848
0.39736
0.378094
0.360611
0.344779
0.330437
0.317419
0.305569
0.294743
0.284816
0.275679
0.26724
0.259423
0.252161
0.245371
0.238995
0.23299
0.22732
0.221955
0.216868
0.212037
0.207442
0.203066
0.198896
0.194919
0.191126
0.187508
0.184058
0.180772
0.177645
0.174675
0.171861
0.169204
0.166705
0.164371
0.162207
0.160225
0.15844
0.156875
0.155581
0.154551
0.153868
0.153619
0.153945
0.159946
0.169699
0.181172
0.194658
0.210546
0.229349
0.251738
0.2786
0.311096
0.35074
0.39957
0.460267
0.535541
0.627208
0.734248
0.849922
0.96068
1.05111
1.11313
1.14925
1.1678
1.17665
1.18069
1.18247
1.18325
1.18358
1.18372
1.18378
1.1838
1.18381
1.18382
1.18382
0.658527
0.658504
0.658467
0.658404
0.658299
0.658125
0.657842
0.657381
0.656643
0.655475
0.653657
0.650881
0.64674
0.64073
0.632287
0.620867
0.606074
0.587804
0.566347
0.542386
0.51688
0.490867
0.465278
0.440821
0.417941
0.396858
0.377617
0.360151
0.34433
0.329996
0.316984
0.305138
0.294316
0.284393
0.27526
0.266826
0.259014
0.251757
0.244972
0.2386
0.232599
0.226934
0.221574
0.216493
0.211667
0.207077
0.202707
0.198542
0.194572
0.190785
0.187173
0.183731
0.180452
0.177333
0.174372
0.171569
0.168923
0.166437
0.164118
0.161973
0.160013
0.158255
0.156724
0.155465
0.154469
0.153805
0.153528
0.153701
0.161321
0.171454
0.183361
0.197373
0.213923
0.233578
0.257083
0.285424
0.3199
0.362207
0.414674
0.480201
0.561464
0.659682
0.772099
0.889105
0.995023
1.07589
1.12796
1.15682
1.17132
1.17819
1.18134
1.18274
1.18336
1.18362
1.18374
1.18379
1.18381
1.18382
1.18382
1.18382
0.658527
0.658504
0.658465
0.6584
0.658292
0.658114
0.657821
0.657347
0.656586
0.655385
0.653517
0.650672
0.646439
0.640312
0.63173
0.620159
0.605219
0.586823
0.565278
0.541276
0.515773
0.489798
0.464267
0.439875
0.417058
0.396029
0.376833
0.359401
0.343606
0.329291
0.316293
0.304458
0.293644
0.283727
0.274599
0.266171
0.258364
0.251112
0.24433
0.237961
0.231963
0.226302
0.220946
0.215869
0.211048
0.206464
0.202101
0.197943
0.19398
0.190202
0.1866
0.183168
0.179901
0.176795
0.173849
0.171062
0.168435
0.165973
0.163681
0.161569
0.159653
0.157952
0.156512
0.155358
0.154525
0.154112
0.154221
0.155005
0.163972
0.174587
0.187113
0.201906
0.219441
0.240344
0.265442
0.295826
0.332924
0.378604
0.435414
0.506198
0.593147
0.696239
0.810523
0.924257
1.02199
1.09311
1.13734
1.16142
1.17344
1.17914
1.18175
1.18292
1.18343
1.18366
1.18375
1.18379
1.18381
1.18382
1.18382
1.18382
0.658527
0.658503
0.658463
0.658397
0.658286
0.658103
0.657804
0.657318
0.656541
0.655313
0.653408
0.650509
0.646201
0.639976
0.631275
0.619565
0.604478
0.585942
0.564276
0.540186
0.514633
0.488642
0.463123
0.43876
0.415982
0.394995
0.37584
0.358445
0.342682
0.328394
0.315418
0.3036
0.2928
0.282894
0.273776
0.265356
0.257557
0.250311
0.243532
0.237166
0.231171
0.225513
0.220161
0.215088
0.210272
0.205694
0.201337
0.197187
0.193232
0.189464
0.185873
0.182453
0.1792
0.17611
0.173181
0.170414
0.167811
0.165376
0.163116
0.161043
0.159174
0.157533
0.156184
0.155127
0.154465
0.154332
0.154954
0.15779
0.167274
0.17853
0.191842
0.207601
0.22633
0.248721
0.275685
0.308424
0.348494
0.397965
0.459543
0.535875
0.628521
0.735982
0.851023
0.960153
1.04889
1.11015
1.14672
1.16607
1.17562
1.18012
1.18218
1.18311
1.18351
1.18369
1.18377
1.1838
1.18381
1.18382
1.18382
1.18382
0.658527
0.658502
0.658462
0.658394
0.658281
0.658094
0.657788
0.657292
0.656497
0.655244
0.6533
0.650345
0.64596
0.639632
0.6308
0.618939
0.603688
0.584991
0.563186
0.538991
0.513372
0.487355
0.461841
0.437505
0.414767
0.393825
0.374714
0.357361
0.341636
0.32738
0.314431
0.302635
0.291854
0.281963
0.272858
0.264449
0.256661
0.249421
0.242646
0.236283
0.230293
0.224638
0.21929
0.214221
0.20941
0.204837
0.200486
0.196344
0.192398
0.18864
0.18506
0.181654
0.178417
0.175344
0.172436
0.169692
0.167114
0.164709
0.162483
0.160449
0.158624
0.157036
0.155735
0.154704
0.154018
0.153733
0.153904
0.160724
0.170923
0.182968
0.197195
0.214047
0.234106
0.258137
0.287144
0.322437
0.365707
0.419244
0.485773
0.567601
0.665389
0.775864
0.889598
0.992256
1.07146
1.12371
1.1539
1.16957
1.17724
1.18085
1.18251
1.18325
1.18357
1.18372
1.18378
1.1838
1.18381
1.18382
1.18382
1.18382
0.658526
0.658502
0.65846
0.658391
0.658276
0.658085
0.657773
0.657268
0.656458
0.655181
0.653202
0.650195
0.645736
0.63931
0.630352
0.618339
0.602919
0.584051
0.562091
0.537771
0.512068
0.486007
0.460486
0.436169
0.413466
0.392569
0.373505
0.356197
0.340513
0.326294
0.313377
0.301609
0.29085
0.280978
0.271889
0.263494
0.255719
0.248488
0.241719
0.235361
0.229374
0.223724
0.21838
0.213316
0.20851
0.203943
0.199599
0.195465
0.191529
0.187781
0.184215
0.180823
0.177603
0.17455
0.171663
0.168945
0.166397
0.164026
0.161841
0.159856
0.158093
0.156597
0.155402
0.154521
0.154067
0.154146
0.154918
0.164101
0.174975
0.187815
0.20299
0.220987
0.242444
0.268201
0.299354
0.337323
0.383951
0.441712
0.513226
0.60033
0.702575
0.814786
0.925664
1.0209
1.0908
1.13502
1.15978
1.17243
1.17858
1.18146
1.18277
1.18336
1.18362
1.18374
1.18379
1.18381
1.18382
1.18382
1.18382
1.18382
0.658526
0.658501
0.658459
0.658389
0.658271
0.658077
0.657759
0.657244
0.65642
0.655121
0.653106
0.650048
0.645516
0.63899
0.629904
0.617736
0.602144
0.5831
0.560978
0.536527
0.510735
0.484626
0.459094
0.434794
0.412127
0.391274
0.372258
0.354999
0.339359
0.32518
0.312297
0.300559
0.289826
0.279976
0.270906
0.262528
0.254768
0.247547
0.240784
0.234433
0.228452
0.222807
0.217468
0.212409
0.207609
0.203049
0.198713
0.194587
0.190661
0.186925
0.183373
0.179997
0.176794
0.173762
0.170899
0.168208
0.165692
0.163358
0.161217
0.159285
0.157587
0.156196
0.155096
0.154397
0.154236
0.154848
0.158056
0.167746
0.179261
0.192887
0.209018
0.228181
0.251071
0.278599
0.311953
0.352661
0.402745
0.464778
0.541159
0.633124
0.738915
0.851445
0.958061
1.04535
1.10657
1.14394
1.16433
1.17463
1.17959
1.18191
1.18298
1.18345
1.18366
1.18375
1.18379
1.18381
1.18382
1.18382
1.18382
1.18382
0.658526
0.658501
0.658458
0.658386
0.658267
0.65807
0.657746
0.657223
0.656384
0.655063
0.653015
0.649907
0.645303
0.63868
0.629467
0.617145
0.60138
0.582158
0.559873
0.535288
0.509402
0.483244
0.457699
0.433415
0.410783
0.389975
0.371009
0.353798
0.338205
0.324067
0.311222
0.299515
0.288809
0.278983
0.269934
0.261575
0.253831
0.246622
0.239868
0.233524
0.22755
0.221911
0.216579
0.211526
0.206733
0.20218
0.197853
0.193737
0.189822
0.186099
0.18256
0.179201
0.176017
0.173006
0.170168
0.167505
0.16502
0.162723
0.160623
0.158738
0.157091
0.155748
0.154663
0.153922
0.153577
0.153683
0.160911
0.171274
0.183514
0.197968
0.215076
0.235417
0.259749
0.289058
0.324623
0.36808
0.421637
0.487862
0.568857
0.665119
0.773462
0.885044
0.986469
1.06587
1.11934
1.15099
1.16789
1.17633
1.18038
1.18227
1.18313
1.18352
1.18369
1.18377
1.1838
1.18381
1.18382
1.18382
1.18382
1.18382
0.658526
0.6585
0.658457
0.658384
0.658263
0.658062
0.657734
0.657202
0.65635
0.655007
0.652926
0.64977
0.645096
0.638377
0.629039
0.616566
0.60063
0.581234
0.558787
0.534071
0.508094
0.481886
0.456329
0.432061
0.409463
0.388702
0.369785
0.352624
0.337077
0.322982
0.310174
0.2985
0.287823
0.278022
0.268995
0.260656
0.252931
0.245732
0.238988
0.232653
0.226687
0.221056
0.21573
0.210685
0.2059
0.201355
0.197037
0.192931
0.189028
0.185318
0.181795
0.178452
0.175288
0.172299
0.169487
0.166853
0.164404
0.162148
0.160099
0.158277
0.156725
0.155485
0.154554
0.154043
0.154053
0.15473
0.163941
0.174866
0.187769
0.203012
0.221069
0.242564
0.268314
0.299378
0.337122
0.383304
0.440277
0.51052
0.595769
0.695668
0.805569
0.915138
1.01085
1.08276
1.12952
1.15649
1.17063
1.17764
1.18099
1.18254
1.18325
1.18357
1.18371
1.18378
1.1838
1.18381
1.18382
1.18382
1.18382
1.18382
0.658526
0.6585
0.658456
0.658382
0.658259
0.658055
0.657722
0.657182
0.656317
0.654953
0.652841
0.649638
0.644898
0.638085
0.628627
0.616007
0.599907
0.580341
0.557737
0.532895
0.506829
0.480575
0.455007
0.430756
0.408193
0.387477
0.368609
0.351497
0.335996
0.321943
0.309173
0.297533
0.286884
0.277109
0.268104
0.259786
0.252078
0.244892
0.238159
0.231833
0.225876
0.220253
0.214935
0.209899
0.205121
0.200586
0.196277
0.192182
0.188291
0.184595
0.181087
0.177762
0.174617
0.17165
0.168863
0.166259
0.163843
0.161627
0.159627
0.157867
0.156425
0.1553
0.154548
0.154334
0.154864
0.157258
0.166912
0.178364
0.191897
0.207894
0.226865
0.249476
0.276601
0.309368
0.349225
0.398066
0.458329
0.532341
0.621413
0.724259
0.83481
0.941587
1.03145
1.09655
1.13761
1.16079
1.17276
1.17865
1.18145
1.18275
1.18335
1.18361
1.18373
1.18378
1.18381
1.18381
1.18382
1.18382
1.18382
1.18382
0.658526
0.658499
0.658455
0.65838
0.658255
0.658049
0.657711
0.657163
0.656286
0.654903
0.652761
0.649513
0.644708
0.637808
0.628234
0.615475
0.599216
0.57949
0.556738
0.531776
0.505628
0.47933
0.453753
0.429519
0.406991
0.386319
0.367499
0.350434
0.334978
0.320966
0.308233
0.296625
0.286005
0.276255
0.267273
0.258975
0.251285
0.244111
0.237389
0.231074
0.225125
0.219511
0.214202
0.209174
0.204405
0.199879
0.195581
0.191497
0.187618
0.183935
0.180442
0.177135
0.174009
0.171063
0.168299
0.16572
0.163333
0.161146
0.159177
0.157447
0.156036
0.154899
0.154139
0.153853
0.154183
0.159557
0.169671
0.181645
0.195786
0.212507
0.232351
0.256028
0.284467
0.318861
0.360737
0.412125
0.47549
0.552968
0.645392
0.75051
0.860953
0.964452
1.04865
1.10771
1.14401
1.16412
1.1744
1.17943
1.18181
1.18292
1.18342
1.18365
1.18375
1.18379
1.18381
1.18382
1.18382
1.18382
1.18382
1.18382
0.658526
0.658499
0.658454
0.658378
0.658251
0.658043
0.6577
0.657145
0.656256
0.654855
0.652686
0.649395
0.64453
0.637547
0.627866
0.614974
0.598569
0.578692
0.555802
0.530729
0.504506
0.478169
0.452585
0.428369
0.405874
0.385244
0.366469
0.34945
0.334037
0.320063
0.307365
0.295788
0.285196
0.27547
0.26651
0.258231
0.250558
0.243397
0.236686
0.23038
0.224442
0.218836
0.213536
0.208516
0.203757
0.19924
0.194952
0.19088
0.187013
0.183344
0.179867
0.176576
0.17347
0.170546
0.167807
0.165255
0.162897
0.160744
0.158809
0.157113
0.155723
0.154618
0.153822
0.15343
0.153518
0.161585
0.17218
0.18467
0.199397
0.216804
0.237472
0.262154
0.291828
0.327753
0.371532
0.425316
0.491549
0.572151
0.667445
0.774219
0.883966
0.983963
1.06287
1.11669
1.14907
1.16672
1.17567
1.18003
1.18209
1.18304
1.18348
1.18367
1.18376
1.18379
1.18381
1.18382
1.18382
1.18382
1.18382
1.18382
0.658526
0.658498
0.658453
0.658376
0.658248
0.658037
0.657691
0.657129
0.65623
0.654812
0.652616
0.649287
0.644366
0.637306
0.627525
0.614513
0.597972
0.577957
0.554942
0.529768
0.503477
0.477105
0.451517
0.427317
0.404854
0.384263
0.365531
0.348554
0.33318
0.319244
0.306578
0.29503
0.284463
0.27476
0.26582
0.257561
0.249904
0.242754
0.236054
0.229758
0.223828
0.218232
0.21294
0.207929
0.203179
0.198672
0.194394
0.190332
0.186478
0.182823
0.179361
0.176088
0.173001
0.1701
0.167387
0.164866
0.162546
0.160438
0.158561
0.156948
0.155654
0.154654
0.154053
0.153948
0.154495
0.163701
0.174632
0.18754
0.202774
0.220796
0.242213
0.267816
0.29863
0.335968
0.381513
0.437508
0.506344
0.589712
0.687405
0.795303
0.903939
1.00042
1.07454
1.12391
1.15307
1.16876
1.17666
1.18049
1.1823
1.18314
1.18352
1.18369
1.18376
1.1838
1.18381
1.18382
1.18382
1.18382
1.18382
1.18382
0.658526
0.658498
0.658452
0.658374
0.658245
0.658032
0.657682
0.657114
0.656205
0.654772
0.652553
0.649189
0.644218
0.637089
0.627218
0.614096
0.597434
0.577295
0.554167
0.528903
0.502552
0.476151
0.45056
0.426376
0.403943
0.383388
0.364694
0.347755
0.332418
0.318514
0.305878
0.294356
0.283813
0.274131
0.26521
0.256968
0.249325
0.242186
0.235496
0.22921
0.223289
0.217701
0.212417
0.207415
0.202673
0.198175
0.193906
0.189855
0.186012
0.18237
0.178922
0.175665
0.172597
0.169717
0.167029
0.164538
0.162254
0.160192
0.158372
0.156857
0.155669
0.154821
0.154448
0.154685
0.155919
0.165491
0.176795
0.190113
0.20582
0.224405
0.246503
0.272942
0.304789
0.343408
0.39056
0.448555
0.519708
0.605471
0.705124
0.813712
0.920998
1.01414
1.08403
1.12967
1.15623
1.17036
1.17744
1.18086
1.18247
1.18321
1.18355
1.1837
1.18377
1.1838
1.18381
1.18382
1.18382
1.18382
1.18382
1.18382
0.658526
0.658498
0.658451
0.658373
0.658243
0.658027
0.657674
0.657101
0.656184
0.654738
0.652498
0.649103
0.644088
0.636897
0.626947
0.61373
0.59696
0.576712
0.553487
0.528145
0.501742
0.475317
0.449723
0.425555
0.403147
0.382624
0.363965
0.347059
0.331754
0.317879
0.305269
0.293771
0.283249
0.273585
0.264681
0.256455
0.248824
0.241696
0.235015
0.228737
0.222824
0.217244
0.211968
0.206973
0.202239
0.197749
0.193489
0.189447
0.185615
0.181983
0.178548
0.175305
0.172252
0.169389
0.166721
0.164252
0.161995
0.159963
0.158181
0.156729
0.155598
0.154833
0.154577
0.15499
0.157351
0.16715
0.178735
0.192391
0.208504
0.227579
0.250275
0.277449
0.310208
0.349958
0.398537
0.458295
0.531455
0.619249
0.720465
0.829416
0.93527
1.02536
1.09166
1.13422
1.1587
1.1716
1.17804
1.18114
1.1826
1.18327
1.18358
1.18372
1.18378
1.1838
1.18381
1.18382
1.18382
1.18382
1.18382
1.18382
0.658526
0.658498
0.658451
0.658372
0.658241
0.658024
0.657668
0.65709
0.656166
0.654708
0.652451
0.64903
0.643976
0.636733
0.626716
0.613417
0.596556
0.576217
0.552909
0.527501
0.501055
0.474609
0.449014
0.424859
0.402474
0.381979
0.363349
0.346472
0.331194
0.317344
0.304757
0.293279
0.282774
0.273127
0.264238
0.256024
0.248404
0.241285
0.234612
0.228342
0.222436
0.216862
0.211593
0.206605
0.201877
0.197395
0.193142
0.189109
0.185284
0.181663
0.178237
0.175005
0.171963
0.169114
0.166458
0.164004
0.16176
0.159742
0.157973
0.156533
0.155371
0.154592
0.15429
0.154603
0.158452
0.168496
0.180346
0.194302
0.210766
0.23026
0.253468
0.281271
0.314809
0.355526
0.405327
0.466584
0.541434
0.6309
0.733333
0.842426
0.946903
1.03436
1.09767
1.13778
1.16061
1.17256
1.1785
1.18136
1.1827
1.18332
1.1836
1.18372
1.18378
1.1838
1.18381
1.18382
1.18382
1.18382
1.18382
1.18382
0.658525
0.658497
0.65845
0.658371
0.658239
0.658021
0.657662
0.657081
0.656151
0.654684
0.652412
0.64897
0.643885
0.6366
0.626528
0.613162
0.596227
0.575814
0.552438
0.526978
0.500498
0.474035
0.448439
0.424295
0.401929
0.381456
0.36285
0.345997
0.330741
0.316912
0.304343
0.292881
0.282391
0.272757
0.26388
0.255678
0.248067
0.240955
0.234289
0.228025
0.222125
0.216557
0.211293
0.206311
0.201589
0.197112
0.192866
0.188839
0.185022
0.181407
0.17799
0.174765
0.171732
0.16889
0.166243
0.163794
0.161554
0.159536
0.157759
0.156293
0.155126
0.154278
0.153865
0.153995
0.159293
0.169556
0.181632
0.195839
0.212592
0.232431
0.256056
0.284373
0.318547
0.360054
0.410853
0.473328
0.549543
0.640337
0.743691
0.852795
0.956061
1.04134
1.10229
1.14048
1.16206
1.17329
1.17885
1.18152
1.18278
1.18335
1.18361
1.18373
1.18378
1.1838
1.18381
1.18382
1.18382
1.18382
1.18382
1.18382
0.658525
0.658497
0.65845
0.65837
0.658238
0.658018
0.657658
0.657075
0.65614
0.654666
0.652383
0.648924
0.643816
0.636499
0.626384
0.612968
0.595977
0.575507
0.55208
0.52658
0.500074
0.473599
0.448003
0.423868
0.401515
0.38106
0.362472
0.345637
0.330398
0.316585
0.30403
0.292581
0.282102
0.272478
0.263611
0.255417
0.247813
0.240707
0.234046
0.227787
0.221892
0.216328
0.211069
0.206091
0.201374
0.196901
0.19266
0.188638
0.184827
0.181218
0.177807
0.174589
0.171562
0.168727
0.166085
0.163642
0.161406
0.159389
0.15761
0.15613
0.15495
0.154073
0.153614
0.153675
0.160002
0.170406
0.182641
0.197031
0.214
0.234098
0.258038
0.286744
0.321401
0.36351
0.415074
0.478479
0.55573
0.647519
0.751538
0.8606
0.962895
1.04651
1.10568
1.14246
1.16311
1.17381
1.17911
1.18164
1.18283
1.18338
1.18363
1.18374
1.18378
1.18381
1.18381
1.18382
1.18382
1.18382
1.18382
1.18382
0.658525
0.658497
0.658449
0.65837
0.658237
0.658017
0.657656
0.65707
0.656132
0.654653
0.652363
0.648894
0.64377
0.636431
0.626288
0.612838
0.595809
0.5753
0.551839
0.526312
0.499788
0.473305
0.447709
0.42358
0.401237
0.380793
0.362218
0.345395
0.330168
0.316365
0.30382
0.29238
0.281909
0.272293
0.263431
0.255244
0.247643
0.240541
0.233884
0.227629
0.221737
0.216176
0.21092
0.205945
0.201231
0.196762
0.192525
0.188507
0.184699
0.181095
0.177688
0.174475
0.171453
0.168623
0.165987
0.163549
0.161318
0.159306
0.157532
0.156053
0.154876
0.154001
0.153542
0.153609
0.160534
0.171026
0.183362
0.19787
0.21498
0.23525
0.259401
0.288369
0.323353
0.365873
0.417957
0.481995
0.55995
0.65241
0.756868
0.865879
0.967496
1.04998
1.10795
1.14379
1.16382
1.17417
1.17928
1.18172
1.18287
1.18339
1.18363
1.18374
1.18379
1.18381
1.18382
1.18382
1.18382
1.18382
1.18382
1.18382
0.658525
0.658497
0.658449
0.658369
0.658236
0.658016
0.657654
0.657068
0.656129
0.654648
0.652354
0.648879
0.643747
0.636398
0.626241
0.612775
0.595728
0.575201
0.551723
0.526182
0.499649
0.473162
0.447565
0.423438
0.4011
0.380662
0.362092
0.345275
0.330054
0.316256
0.303716
0.29228
0.281814
0.272201
0.263343
0.255158
0.24756
0.240459
0.233804
0.22755
0.22166
0.216101
0.210847
0.205873
0.201161
0.196694
0.192459
0.188443
0.184637
0.181035
0.177631
0.174421
0.171402
0.168576
0.165943
0.163509
0.161282
0.159275
0.157505
0.156031
0.15486
0.153993
0.153542
0.153615
0.160814
0.171356
0.183745
0.198313
0.215494
0.235849
0.260105
0.289204
0.32435
0.367073
0.419415
0.483764
0.562063
0.654848
0.759511
0.868481
0.969748
1.05167
1.10905
1.14443
1.16417
1.17434
1.17936
1.18176
1.18289
1.1834
1.18364
1.18374
1.18379
1.18381
1.18382
1.18382
1.18382
1.18382
1.18382
1.18382
0.658525
0.658497
0.658449
0.658369
0.658236
0.658016
0.657654
0.657068
0.656129
0.654647
0.652354
0.648879
0.643747
0.636398
0.626241
0.612775
0.595728
0.575201
0.551723
0.526183
0.49965
0.473162
0.447566
0.423439
0.4011
0.380662
0.362092
0.345276
0.330054
0.316256
0.303716
0.29228
0.281814
0.272201
0.263343
0.255158
0.24756
0.240459
0.233804
0.22755
0.22166
0.216101
0.210847
0.205873
0.201161
0.196694
0.192458
0.188442
0.184637
0.181035
0.177631
0.17442
0.171402
0.168575
0.165942
0.163508
0.161281
0.159273
0.157503
0.15603
0.154859
0.153993
0.153542
0.153615
0.160816
0.171359
0.183749
0.198319
0.2155
0.235856
0.260113
0.289213
0.32436
0.367085
0.419429
0.483781
0.562084
0.654872
0.759538
0.868508
0.969773
1.05169
1.10907
1.14444
1.16417
1.17434
1.17936
1.18176
1.18289
1.1834
1.18364
1.18374
1.18379
1.18381
1.18382
1.18382
1.18382
1.18382
1.18382
1.18382
0.658525
0.658497
0.658449
0.65837
0.658237
0.658017
0.657656
0.65707
0.656132
0.654653
0.652363
0.648893
0.64377
0.63643
0.626287
0.612837
0.595809
0.5753
0.551839
0.526313
0.499788
0.473306
0.44771
0.42358
0.401238
0.380794
0.362218
0.345396
0.330168
0.316365
0.30382
0.292379
0.281909
0.272292
0.263431
0.255243
0.247643
0.240541
0.233884
0.227628
0.221736
0.216176
0.210919
0.205944
0.20123
0.196761
0.192524
0.188506
0.184698
0.181093
0.177686
0.174473
0.171451
0.168621
0.165984
0.163546
0.161315
0.159303
0.157528
0.156049
0.154873
0.154
0.153542
0.153608
0.16054
0.171035
0.183373
0.197884
0.214997
0.235269
0.259424
0.288395
0.323384
0.365909
0.418001
0.482048
0.560014
0.652486
0.756952
0.865963
0.967568
1.05003
1.10798
1.1438
1.16383
1.17417
1.17928
1.18172
1.18287
1.18339
1.18363
1.18374
1.18379
1.18381
1.18382
1.18382
1.18382
1.18382
1.18382
1.18382
0.658525
0.658497
0.65845
0.65837
0.658238
0.658018
0.657658
0.657075
0.65614
0.654666
0.652383
0.648924
0.643816
0.636498
0.626383
0.612967
0.595976
0.575506
0.55208
0.52658
0.500074
0.473599
0.448003
0.423868
0.401516
0.38106
0.362473
0.345638
0.330399
0.316585
0.30403
0.292581
0.282102
0.272478
0.26361
0.255417
0.247812
0.240706
0.234045
0.227786
0.221891
0.216327
0.211068
0.206089
0.201372
0.1969
0.192658
0.188636
0.184825
0.181216
0.177804
0.174586
0.171559
0.168724
0.166082
0.163638
0.161402
0.159385
0.157606
0.156127
0.154948
0.154072
0.153612
0.15367
0.160013
0.17042
0.182659
0.197052
0.214025
0.234127
0.258072
0.286784
0.321449
0.363568
0.415145
0.478566
0.555836
0.647645
0.751678
0.86074
0.963017
1.04661
1.10574
1.14249
1.16313
1.17382
1.17911
1.18164
1.18283
1.18338
1.18363
1.18374
1.18378
1.18381
1.18381
1.18382
1.18382
1.18382
1.18382
1.18382
0.658525
0.658497
0.65845
0.658371
0.658239
0.658021
0.657662
0.657081
0.656151
0.654684
0.652412
0.648969
0.643885
0.636599
0.626526
0.613161
0.596226
0.575812
0.552437
0.526977
0.500497
0.474034
0.448439
0.424296
0.401929
0.381456
0.36285
0.345997
0.330741
0.316912
0.304343
0.292881
0.282391
0.272756
0.263879
0.255677
0.248065
0.240953
0.234287
0.228023
0.222123
0.216555
0.211291
0.206308
0.201587
0.19711
0.192863
0.188836
0.185019
0.181405
0.177987
0.174762
0.171729
0.168887
0.16624
0.163791
0.161551
0.159532
0.157755
0.15629
0.155125
0.154275
0.15386
0.153984
0.159314
0.169578
0.181658
0.195868
0.212626
0.232471
0.256102
0.284428
0.318612
0.360132
0.41095
0.473448
0.549691
0.640512
0.743885
0.852991
0.956232
1.04147
1.10237
1.14053
1.16208
1.1733
1.17886
1.18152
1.18278
1.18335
1.18361
1.18373
1.18378
1.1838
1.18381
1.18382
1.18382
1.18382
1.18382
1.18382
0.658526
0.658498
0.658451
0.658372
0.658241
0.658024
0.657668
0.65709
0.656166
0.654708
0.65245
0.649029
0.643975
0.636732
0.626714
0.613415
0.596554
0.576214
0.552906
0.527499
0.501054
0.474608
0.449013
0.424859
0.402474
0.381978
0.363348
0.346472
0.331193
0.317344
0.304756
0.293278
0.282773
0.273125
0.264236
0.256022
0.248402
0.241283
0.23461
0.228339
0.222433
0.216859
0.21159
0.206602
0.201874
0.197391
0.193139
0.189105
0.185281
0.181659
0.178234
0.175002
0.17196
0.16911
0.166455
0.163999
0.161755
0.159735
0.157963
0.156517
0.155382
0.154594
0.154287
0.154598
0.158489
0.168533
0.180383
0.194342
0.21081
0.230311
0.253526
0.28134
0.314891
0.355625
0.40545
0.466736
0.541621
0.631124
0.733583
0.842679
0.947126
1.03452
1.09777
1.13784
1.16064
1.17257
1.17851
1.18136
1.1827
1.18332
1.1836
1.18372
1.18378
1.1838
1.18381
1.18382
1.18382
1.18382
1.18382
1.18382
0.658526
0.658498
0.658451
0.658373
0.658243
0.658027
0.657674
0.657101
0.656184
0.654737
0.652497
0.649102
0.644086
0.636895
0.626944
0.613726
0.596956
0.576708
0.553483
0.528142
0.501739
0.475314
0.449721
0.425553
0.403146
0.382623
0.363964
0.347058
0.331753
0.317878
0.305268
0.29377
0.283247
0.273583
0.264679
0.256452
0.248821
0.241693
0.235012
0.228734
0.222821
0.21724
0.211964
0.206969
0.202235
0.197745
0.193485
0.189443
0.185611
0.18198
0.178544
0.175301
0.172248
0.169386
0.166718
0.16425
0.161993
0.159961
0.158179
0.156726
0.155596
0.154831
0.154577
0.154998
0.157394
0.167191
0.178777
0.192436
0.208554
0.227635
0.250341
0.277529
0.310304
0.350075
0.398683
0.458477
0.531682
0.619521
0.720771
0.829729
0.935548
1.02557
1.09179
1.1343
1.15874
1.17162
1.17805
1.18114
1.1826
1.18327
1.18358
1.18372
1.18378
1.1838
1.18381
1.18382
1.18382
1.18382
1.18382
1.18382
0.658526
0.658498
0.658452
0.658374
0.658245
0.658032
0.657682
0.657114
0.656205
0.654772
0.652552
0.649188
0.644216
0.637086
0.627214
0.614092
0.597428
0.577289
0.554161
0.528898
0.502547
0.476147
0.450556
0.426374
0.40394
0.383386
0.364692
0.347753
0.332416
0.318512
0.305875
0.294354
0.28381
0.274127
0.265207
0.256964
0.249321
0.242182
0.235492
0.229205
0.223284
0.217696
0.212412
0.207409
0.202667
0.198169
0.193901
0.18985
0.186007
0.182365
0.178917
0.17566
0.172592
0.169713
0.167025
0.164534
0.16225
0.160188
0.15837
0.156855
0.155668
0.154821
0.154452
0.154698
0.155946
0.16552
0.17683
0.190157
0.205873
0.224468
0.246579
0.273034
0.3049
0.343545
0.39073
0.448768
0.519971
0.605789
0.705486
0.814087
0.921336
1.01439
1.0842
1.12976
1.15627
1.17038
1.17745
1.18086
1.18247
1.18322
1.18355
1.1837
1.18377
1.1838
1.18381
1.18382
1.18382
1.18382
1.18382
1.18382
0.658526
0.658498
0.658453
0.658376
0.658248
0.658037
0.65769
0.657129
0.656229
0.654811
0.652615
0.649285
0.644364
0.637303
0.627521
0.614507
0.597965
0.57795
0.554934
0.52976
0.50347
0.477099
0.451512
0.427313
0.404851
0.38426
0.365528
0.348551
0.333178
0.319241
0.306575
0.295027
0.28446
0.274756
0.265816
0.257556
0.249899
0.242749
0.236048
0.229752
0.223823
0.218226
0.212934
0.207923
0.203172
0.198665
0.194387
0.190326
0.186471
0.182816
0.179354
0.176081
0.172994
0.170093
0.16738
0.16486
0.162539
0.160432
0.158555
0.156944
0.155652
0.154655
0.15406
0.153962
0.15451
0.16372
0.174663
0.187583
0.202829
0.220864
0.242296
0.267917
0.298753
0.33612
0.381701
0.437744
0.506639
0.59007
0.687817
0.795737
0.90434
1.00074
1.07474
1.12402
1.15313
1.16879
1.17667
1.1805
1.18231
1.18314
1.18352
1.18369
1.18376
1.1838
1.18381
1.18382
1.18382
1.18382
1.18382
1.18382
0.658526
0.658499
0.658454
0.658378
0.658251
0.658042
0.6577
0.657145
0.656256
0.654855
0.652684
0.649393
0.644527
0.637543
0.62786
0.614968
0.598561
0.578683
0.555793
0.530719
0.504497
0.478161
0.452578
0.428363
0.405869
0.385239
0.366465
0.349446
0.334033
0.32006
0.307361
0.295784
0.285191
0.275465
0.266504
0.258225
0.250552
0.243391
0.236679
0.230373
0.224434
0.218829
0.213528
0.208509
0.203749
0.199233
0.194944
0.190872
0.187005
0.183336
0.179859
0.176568
0.173461
0.170538
0.167798
0.165246
0.162889
0.160735
0.158801
0.157107
0.155719
0.154619
0.153827
0.153436
0.153517
0.161608
0.172215
0.184717
0.199456
0.216876
0.23756
0.262261
0.291959
0.327915
0.371734
0.425571
0.491869
0.572544
0.667903
0.774711
0.884431
0.984337
1.06312
1.11684
1.14915
1.16676
1.17569
1.18003
1.18209
1.18304
1.18348
1.18367
1.18376
1.18379
1.18381
1.18382
1.18382
1.18382
1.18382
1.18382
0.658526
0.658499
0.658455
0.65838
0.658255
0.658049
0.65771
0.657162
0.656285
0.654902
0.652759
0.64951
0.644705
0.637803
0.628228
0.615466
0.599207
0.579479
0.556726
0.531764
0.505617
0.47932
0.453744
0.429511
0.406984
0.386313
0.367493
0.350429
0.334974
0.320961
0.308228
0.29662
0.286
0.276249
0.267267
0.258968
0.251278
0.244104
0.237381
0.231065
0.225117
0.219502
0.214193
0.209165
0.204396
0.19987
0.195571
0.191487
0.187608
0.183926
0.180433
0.177125
0.173998
0.171053
0.168288
0.165709
0.16332
0.161132
0.15916
0.157428
0.15601
0.154898
0.154131
0.153837
0.154156
0.159605
0.169727
0.18171
0.195861
0.212593
0.232451
0.256148
0.28461
0.319037
0.360954
0.412398
0.475834
0.553391
0.645893
0.751059
0.861487
0.964895
1.04895
1.10789
1.1441
1.16416
1.17442
1.17943
1.18181
1.18292
1.18342
1.18365
1.18375
1.18379
1.18381
1.18382
1.18382
1.18382
1.18382
1.18382
0.658526
0.6585
0.658456
0.658382
0.658259
0.658055
0.657722
0.657181
0.656316
0.654952
0.65284
0.649635
0.644894
0.63808
0.62862
0.615998
0.599895
0.580328
0.557723
0.53288
0.506816
0.480562
0.454995
0.430745
0.408184
0.387469
0.368602
0.35149
0.33599
0.321937
0.309167
0.297526
0.286878
0.277102
0.268097
0.259778
0.25207
0.244883
0.23815
0.231824
0.225866
0.220243
0.214925
0.209888
0.205111
0.200575
0.196266
0.192172
0.18828
0.184584
0.181076
0.177751
0.174606
0.171639
0.168852
0.166247
0.16383
0.161614
0.159612
0.15785
0.156406
0.155283
0.154535
0.154327
0.154873
0.157321
0.166974
0.178432
0.191973
0.207982
0.226968
0.2496
0.27675
0.309551
0.349452
0.398351
0.45869
0.53279
0.621952
0.724861
0.835414
0.942106
1.03183
1.09677
1.13772
1.16084
1.17278
1.17866
1.18146
1.18276
1.18335
1.18361
1.18373
1.18378
1.18381
1.18381
1.18382
1.18382
1.18382
1.18382
0.658526
0.6585
0.658457
0.658384
0.658263
0.658062
0.657734
0.657201
0.656349
0.655006
0.652924
0.649767
0.645092
0.638371
0.629031
0.616556
0.600617
0.581219
0.55877
0.534054
0.508077
0.48187
0.456315
0.432049
0.409453
0.388692
0.369777
0.352616
0.33707
0.322974
0.310167
0.298493
0.287816
0.278014
0.268987
0.260647
0.252921
0.245722
0.238978
0.232643
0.226676
0.221045
0.215719
0.210674
0.205888
0.201344
0.197025
0.192919
0.189016
0.185306
0.181783
0.17844
0.175276
0.172288
0.169475
0.166842
0.164393
0.162138
0.160091
0.158271
0.156723
0.155485
0.154559
0.154055
0.154075
0.154757
0.16397
0.174908
0.187827
0.203086
0.221162
0.242681
0.26846
0.299561
0.337351
0.383595
0.440647
0.510985
0.596336
0.696318
0.806242
0.915739
1.0113
1.08304
1.12967
1.15656
1.17066
1.17765
1.18099
1.18255
1.18326
1.18357
1.18371
1.18378
1.1838
1.18381
1.18382
1.18382
1.18382
1.18382
0.658526
0.658501
0.658458
0.658386
0.658267
0.658069
0.657746
0.657222
0.656384
0.655061
0.653013
0.649904
0.645299
0.638673
0.629457
0.617133
0.601365
0.582141
0.559854
0.535269
0.509383
0.483226
0.457683
0.4334
0.41077
0.389964
0.370999
0.353789
0.338196
0.324059
0.311213
0.299507
0.288801
0.278974
0.269925
0.261565
0.253821
0.246611
0.239856
0.233512
0.227538
0.221899
0.216566
0.211513
0.20672
0.202167
0.197839
0.193723
0.189808
0.186085
0.182547
0.179188
0.176004
0.172993
0.170156
0.167493
0.165009
0.162712
0.160613
0.15873
0.157086
0.155743
0.154658
0.153917
0.15357
0.153663
0.160949
0.17133
0.183587
0.198057
0.215184
0.235547
0.259907
0.289251
0.324863
0.368382
0.42202
0.488345
0.569451
0.665814
0.774204
0.885736
0.98701
1.06621
1.11952
1.15108
1.16793
1.17635
1.18039
1.18227
1.18313
1.18352
1.18369
1.18377
1.1838
1.18381
1.18382
1.18382
1.18382
1.18382
0.658526
0.658501
0.658459
0.658389
0.658271
0.658077
0.657759
0.657244
0.656419
0.655119
0.653104
0.650045
0.645511
0.638983
0.629894
0.617723
0.602127
0.583081
0.560957
0.536505
0.510713
0.484606
0.459075
0.434777
0.412112
0.391261
0.372247
0.354988
0.339349
0.32517
0.312288
0.300549
0.289816
0.279966
0.270895
0.262516
0.254756
0.247534
0.240772
0.23442
0.228438
0.222793
0.217454
0.212395
0.207595
0.203034
0.198698
0.194572
0.190646
0.186911
0.183358
0.179983
0.17678
0.173748
0.170885
0.168194
0.165677
0.163343
0.161201
0.159268
0.157569
0.156177
0.155075