/*--------------------------------*- C++ -*----------------------------------*\
  =========                 |
  \\      /  F ield         | OpenFOAM: The Open Source CFD Toolbox
   \\    /   O peration     | Website:  https://openfoam.org
    \\  /    A nd           | Version:  8
     \\/     M anipulation  |
\*---------------------------------------------------------------------------*/
FoamFile
{
    version     2.0;
    format      ascii;
    class       volScalarField;
    location    "160/fluid";
    object      T;
}
// * * * * * * * * * * * * * * * * * * * * * * * * * * * * * * * * * * * * * //

dimensions      [0 0 0 1 0 0 0];

internalField   nonuniform List<scalar> 
4000
(
293.003
293.014
293.033
293.063
293.114
293.199
293.336
293.559
293.918
294.487
295.377
296.751
298.829
301.908
306.361
312.626
321.17
332.444
346.804
364.461
385.441
409.599
436.652
466.248
498.014
531.603
566.717
603.112
640.601
679.041
718.323
758.364
799.098
840.466
882.408
924.866
967.769
1011.05
1054.74
1098.85
1143.32
1188.11
1233.17
1278.45
1323.9
1369.46
1415.08
1460.69
1506.23
1551.61
1596.77
1641.61
1686.04
1729.95
1773.22
1815.72
1857.3
1897.77
1936.94
1974.54
2010.28
2043.78
2074.55
2101.54
2124.99
2143.38
2155.34
2158.75
2085.21
1972.31
1853.71
1730.96
1605.4
1478.25
1350.69
1223.83
1098.85
977.038
859.58
747.774
643.865
550.654
471.015
407.343
360.658
329.797
311.513
301.77
297.001
294.777
293.774
293.332
293.141
293.059
293.025
293.01
293.004
293.002
293.001
293
293.003
293.015
293.033
293.065
293.117
293.203
293.344
293.574
293.942
294.528
295.443
296.851
298.978
302.119
306.647
312.995
321.626
332.979
347.406
365.113
386.126
410.306
437.378
466.998
498.8
532.443
567.628
604.115
641.712
680.275
719.693
759.881
800.769
842.296
884.401
927.022
970.088
1013.53
1057.39
1101.66
1146.29
1191.24
1236.45
1281.88
1327.47
1373.17
1418.92
1464.65
1510.3
1555.79
1601.04
1645.96
1690.46
1734.42
1777.73
1820.24
1861.81
1902.24
1941.31
1978.77
2014.29
2047.5
2077.84
2104.38
2127.36
2145.46
2157.77
2163.28
2068.6
1953.24
1832.64
1708.14
1580.98
1452.35
1323.4
1195.29
1069.26
946.671
828.749
717.129
614.454
523.787
448.096
389.506
348.28
322.24
307.44
299.807
296.113
294.393
293.612
293.266
293.114
293.049
293.02
293.009
293.003
293.001
293
293
293.003
293.015
293.034
293.066
293.12
293.209
293.355
293.591
293.971
294.573
295.513
296.957
299.133
302.339
306.949
313.395
322.137
333.609
348.155
365.973
387.088
411.358
438.513
468.214
500.103
533.844
569.146
605.768
643.524
682.267
721.886
762.294
803.419
845.198
887.566
930.459
973.801
1017.53
1061.68
1106.24
1151.17
1196.4
1241.9
1287.6
1333.47
1379.43
1425.42
1471.39
1517.26
1562.95
1608.39
1653.47
1698.11
1742.18
1785.56
1828.11
1869.65
1910
1948.91
1986.09
2021.18
2053.74
2082.84
2108.02
2128.76
2143.33
2150.17
2147.05
2037.08
1919.98
1797.56
1671.33
1542.64
1412.74
1282.86
1154.25
1028.27
906.377
789.844
680.743
581.961
496.515
427.004
374.783
339.14
317.19
304.915
298.625
295.58
294.157
293.51
293.222
293.095
293.041
293.017
293.007
293.003
293.001
293
293
293.003
293.015
293.035
293.068
293.123
293.214
293.363
293.605
293.993
294.608
295.568
297.041
299.256
302.516
307.197
313.732
322.581
334.177
348.858
366.82
388.083
412.502
439.807
469.659
501.703
535.607
571.082
607.893
645.853
684.821
724.684
765.357
806.767
848.848
891.535
934.757
978.437
1022.51
1067.03
1111.97
1157.26
1202.87
1248.74
1294.81
1341.02
1387.33
1433.66
1479.94
1526.1
1572.07
1617.75
1663.05
1707.87
1752.09
1795.58
1838.18
1879.71
1919.97
1958.7
1995.58
2030.22
2062.08
2089.94
2113.9
2132.2
2142.8
2142.45
2111.59
1999.14
1879.69
1755.2
1627.25
1497.28
1366.57
1236.42
1108.16
983.211
862.991
748.937
643.468
549.514
469.914
406.82
360.854
330.49
312.345
302.432
297.438
295.035
293.914
293.404
293.176
293.076
293.032
293.014
293.006
293.002
293.001
293
293
293.004
293.016
293.036
293.07
293.126
293.219
293.371
293.618
294.015
294.643
295.622
297.124
299.38
302.698
307.455
314.088
323.056
334.791
349.628
367.756
389.191
413.785
441.267
471.298
503.525
537.62
573.297
610.324
648.517
687.736
727.871
768.836
810.558
852.97
896.004
939.587
983.637
1028.1
1073.03
1118.37
1164.09
1210.11
1256.4
1302.88
1349.5
1396.2
1442.9
1489.55
1536.05
1582.33
1628.29
1673.85
1718.88
1763.26
1806.86
1849.51
1891.03
1931.19
1969.72
2006.3
2040.51
2071.75
2098.95
2122.6
2141.23
2153.89
2159.68
2075.69
1958.9
1836.34
1709.58
1580.08
1449.16
1318.14
1188.3
1061.02
937.77
819.852
709.007
607.88
519.334
445.938
389.292
349.246
323.566
308.596
300.56
296.552
294.629
293.733
293.324
293.142
293.061
293.026
293.011
293.005
293.002
293.001
293
293
293.004
293.016
293.036
293.071
293.128
293.223
293.378
293.63
294.035
294.674
295.672
297.2
299.496
302.868
307.7
314.43
323.52
335.401
350.405
368.716
390.345
415.138
442.822
473.057
505.492
539.801
575.7
612.961
651.403
690.888
731.308
772.577
814.623
857.376
900.769
944.723
989.153
1034.02
1079.37
1125.14
1171.29
1217.75
1264.47
1311.38
1358.43
1405.54
1452.64
1499.66
1546.51
1593.12
1639.38
1685.18
1730.42
1774.97
1818.66
1861.35
1902.81
1942.82
1981.07
2017.21
2050.77
2080.8
2106.66
2128.27
2143.59
2151.03
2148.22
2035.58
1915.94
1791.14
1662.75
1532.22
1400.87
1270.01
1140.96
1015.13
893.965
778.743
671.532
575.066
492.074
424.786
374.217
339.501
317.859
305.535
299.044
295.832
294.298
293.584
293.259
293.113
293.049
293.021
293.009
293.004
293.002
293.001
293
293
293.004
293.016
293.037
293.072
293.13
293.227
293.385
293.642
294.053
294.705
295.72
297.275
299.609
303.037
307.944
314.774
323.99
336.021
351.198
369.7
391.532
416.535
444.432
474.883
507.536
542.068
578.199
615.703
654.401
694.157
734.866
776.442
818.813
861.909
905.658
949.981
994.788
1040.06
1085.82
1132.02
1178.6
1225.5
1272.65
1319.99
1367.45
1414.97
1462.47
1509.86
1557.06
1603.98
1650.52
1696.57
1742.01
1786.69
1830.46
1873.15
1914.52
1954.33
1992.25
2027.88
2060.71
2089.25
2114
2133
2144.13
2144.05
2108.28
1993.84
1872.41
1746.1
1616.64
1485.54
1354.16
1223.82
1095.89
971.814
852.912
740.613
637.256
545.557
468.064
406.619
361.638
331.603
313.352
303.165
297.88
295.283
294.045
293.471
293.209
293.091
293.04
293.017
293.007
293.003
293.001
293
293
293
293.004
293.016
293.038
293.073
293.133
293.231
293.392
293.653
294.071
294.734
295.766
297.347
299.72
303.202
308.183
315.112
324.453
336.636
351.989
370.686
392.725
417.943
446.058
476.73
509.606
544.365
580.73
618.476
657.43
697.455
738.449
780.326
823.014
866.443
910.539
955.218
1000.39
1046.05
1092.22
1138.83
1185.82
1233.13
1280.7
1328.45
1376.32
1424.23
1472.1
1519.84
1567.37
1614.59
1661.39
1707.66
1753.26
1798.05
1841.87
1884.52
1925.78
1965.37
2002.95
2038.13
2070.34
2098.24
2122.81
2142.38
2156.02
2162.84
2073.43
1955.1
1831.13
1703.18
1572.79
1441.35
1310.19
1180.62
1054.02
931.832
815.269
706.009
606.552
519.544
447.313
391.282
351.283
325.255
309.795
301.317
296.978
294.857
293.85
293.382
293.17
293.074
293.032
293.014
293.006
293.002
293.001
293
293
293
293.004
293.017
293.038
293.074
293.135
293.234
293.398
293.663
294.088
294.762
295.811
297.417
299.827
303.362
308.417
315.444
324.909
337.243
352.77
371.66
393.905
419.337
447.669
478.559
511.656
546.638
583.232
621.216
660.418
700.705
741.973
784.141
827.133
870.88
915.305
960.322
1005.84
1051.87
1098.42
1145.42
1192.8
1240.51
1288.46
1336.6
1384.84
1433.11
1481.32
1529.39
1577.22
1624.71
1671.74
1718.19
1763.93
1808.8
1852.63
1895.21
1936.29
1975.57
2012.69
2047.17
2078.11
2104.69
2127.14
2143.42
2151.98
2150.58
2037.4
1917.05
1791.54
1662.57
1531.66
1400.19
1269.49
1140.87
1015.72
895.45
781.247
675.05
579.426
496.919
429.612
378.495
342.858
320.205
307.016
299.891
296.285
294.531
293.7
293.315
293.14
293.061
293.027
293.011
293.005
293.002
293.001
293
293
293
293.004
293.017
293.039
293.076
293.137
293.238
293.404
293.673
294.105
294.788
295.853
297.484
299.93
303.517
308.643
315.765
325.351
337.831
353.529
372.607
395.053
420.691
449.234
480.336
513.646
548.844
585.659
623.871
663.31
703.845
745.374
787.816
831.095
875.14
919.873
965.205
1011.05
1057.42
1104.32
1151.68
1199.42
1247.49
1295.8
1344.29
1392.88
1441.48
1490
1538.36
1586.45
1634.17
1681.4
1728
1773.85
1818.77
1862.58
1905.06
1945.94
1984.91
2021.55
2055.34
2084.7
2109.73
2129.68
2141.76
2143
2118.25
2003.2
1881.33
1754.69
1625.03
1493.86
1362.55
1232.43
1104.85
981.191
862.778
750.896
647.694
555.742
477.461
414.667
367.927
336.047
316.2
304.844
298.787
295.751
294.28
293.585
293.263
293.117
293.051
293.022
293.01
293.004
293.002
293.001
293
293
293
293.004
293.017
293.039
293.077
293.139
293.241
293.409
293.682
294.12
294.814
295.894
297.547
300.028
303.664
308.859
316.071
325.773
338.394
354.254
373.512
396.149
421.985
450.729
482.032
515.544
550.946
587.969
626.395
666.057
706.824
748.597
791.293
834.839
879.159
924.176
969.798
1015.94
1062.63
1109.85
1157.54
1205.61
1254
1302.64
1351.44
1400.33
1449.23
1498.03
1546.64
1594.96
1642.88
1690.27
1737
1782.92
1827.87
1871.65
1914.05
1954.78
1993.53
2029.91
2063.36
2092.32
2117.71
2137.67
2150.66
2154.53
2089.76
1972.47
1849.01
1721.33
1591.08
1459.74
1328.68
1199.2
1072.66
950.456
833.801
724.146
623.796
535.282
460.889
402.159
359.256
330.566
313.031
303.146
297.934
295.34
294.087
293.496
293.223
293.099
293.043
293.019
293.008
293.003
293.001
293.001
293
293
293
293.004
293.017
293.04
293.078
293.14
293.244
293.414
293.691
294.135
294.837
295.932
297.607
300.12
303.803
309.062
316.36
326.171
338.923
354.935
374.362
397.179
423.201
452.131
483.622
517.322
552.914
590.13
628.754
668.621
709.603
751.599
794.528
838.316
882.888
928.162
974.046
1020.46
1067.44
1114.95
1162.93
1211.29
1259.98
1308.9
1357.99
1407.15
1456.29
1505.33
1554.16
1602.67
1650.75
1698.27
1745.09
1791.05
1835.99
1879.7
1921.95
1962.47
2000.93
2036.93
2070
2098.73
2123.5
2143.99
2158.44
2165.54
2065.27
1945.32
1820.16
1691.45
1560.69
1429.26
1298.49
1169.68
1044.16
923.329
808.326
700.784
603.099
517.751
446.879
391.757
352.173
326.168
310.524
301.817
297.273
295.022
293.938
293.428
293.192
293.085
293.037
293.016
293.007
293.003
293.001
293.001
293
293
293
293.004
293.018
293.04
293.078
293.142
293.247
293.419
293.699
294.148
294.859
295.967
297.662
300.205
303.931
309.25
316.626
326.538
339.412
355.565
375.147
398.128
424.32
453.422
485.084
518.956
554.721
592.112
630.917
670.97
712.145
754.343
797.483
841.489
886.286
931.79
977.906
1024.56
1071.79
1119.57
1167.8
1216.43
1265.37
1314.54
1363.87
1413.27
1462.63
1511.88
1560.89
1609.56
1657.77
1705.38
1752.25
1798.22
1843.1
1886.68
1928.71
1968.9
2006.88
2042.2
2074.13
2101.5
2125.01
2142.67
2152.97
2153.49
2040.12
1919.42
1793.57
1664.4
1533.46
1402.14
1271.77
1143.65
1019.14
899.585
786.127
680.556
585.322
502.845
435.118
383.155
346.411
322.644
308.541
300.775
296.757
294.774
293.822
293.375
293.168
293.075
293.033
293.014
293.006
293.003
293.001
293
293
293
293
293.004
293.018
293.041
293.079
293.143
293.249
293.424
293.706
294.16
294.879
295.999
297.712
300.282
304.046
309.419
316.867
326.869
339.854
356.133
375.855
398.985
425.329
454.585
486.401
520.427
556.346
593.894
632.859
673.078
714.425
756.801
800.127
844.325
889.32
935.026
981.346
1028.21
1075.67
1123.67
1172.13
1220.98
1270.14
1319.53
1369.07
1418.67
1468.22
1517.64
1566.8
1615.6
1663.91
1711.6
1758.5
1804.45
1849.26
1892.7
1934.51
1974.35
2011.85
2046.49
2077.01
2102.96
2124.34
2138.78
2144.23
2135.26
2019.38
1897.14
1770.38
1640.73
1509.64
1378.47
1248.51
1121.06
997.485
879.085
767.031
663.256
570.233
490.312
425.343
376.102
341.753
319.832
306.976
299.959
296.355
294.581
293.732
293.333
293.15
293.066
293.029
293.013
293.005
293.002
293.001
293
293
293
293
293.004
293.018
293.041
293.08
293.145
293.252
293.427
293.713
294.171
294.896
296.026
297.756
300.35
304.148
309.568
317.08
327.162
340.243
356.634
376.479
399.738
426.216
455.607
487.557
521.717
557.771
595.455
634.56
674.922
716.418
758.95
802.436
846.801
891.966
937.845
984.341
1031.39
1079.04
1127.23
1175.88
1224.92
1274.27
1323.85
1373.57
1423.33
1473.04
1522.6
1571.89
1620.8
1669.19
1716.93
1763.86
1809.81
1854.56
1897.9
1939.55
1979.16
2016.33
2050.52
2080.12
2105.3
2125.53
2138.28
2141.26
2117.05
2000.44
1877.54
1750.31
1620.41
1489.29
1358.3
1228.74
1101.9
979.163
861.764
750.938
648.749
557.658
479.951
417.344
370.397
338.031
317.61
305.749
299.322
296.042
294.432
293.662
293.301
293.135
293.06
293.026
293.011
293.005
293.002
293.001
293
293
293
293
293.004
293.018
293.041
293.08
293.146
293.253
293.431
293.718
294.18
294.911
296.05
297.794
300.407
304.235
309.696
317.261
327.411
340.575
357.06
377.01
400.38
426.971
456.476
488.54
522.813
558.981
596.781
636.003
676.487
718.108
760.77
804.391
848.895
894.203
940.227
986.868
1034.07
1081.88
1130.23
1179.04
1228.24
1277.75
1327.47
1377.33
1427.23
1477.07
1526.75
1576.14
1625.14
1673.6
1721.39
1768.34
1814.29
1859.02
1902.31
1943.87
1983.38
2020.41
2054.45
2083.83
2109.65
2130.01
2143.34
2147.62
2103.33
1985.37
1861.59
1733.83
1603.66
1472.51
1341.67
1212.46
1086.15
964.108
847.55
737.775
636.928
547.457
471.594
410.942
365.873
335.108
315.879
304.799
298.832
295.801
294.317
293.608
293.276
293.124
293.055
293.024
293.01
293.004
293.002
293.001
293
293
293
293
293.004
293.018
293.042
293.081
293.146
293.255
293.433
293.723
294.187
294.923
296.07
297.824
300.454
304.306
309.8
317.409
327.614
340.845
357.408
377.442
400.902
427.585
457.183
489.34
523.705
559.965
597.858
637.176
677.757
719.48
762.247
805.976
850.592
896.014
942.154
988.911
1036.24
1084.17
1132.65
1181.59
1230.91
1280.54
1330.39
1380.36
1430.37
1480.31
1530.07
1579.55
1628.61
1677.13
1724.96
1771.94
1817.9
1862.63
1905.92
1947.48
1987.01
2024.11
2058.32
2088.14
2113.83
2135.19
2150.07
2156.87
2093
1973.67
1849.04
1720.79
1590.39
1459.19
1328.49
1199.55
1073.66
952.201
836.329
727.401
627.633
539.463
465.078
405.978
362.389
332.872
314.563
304.08
298.461
295.619
294.23
293.567
293.258
293.116
293.051
293.022
293.01
293.004
293.002
293.001
293
293
293
293
293.004
293.018
293.042
293.081
293.147
293.256
293.435
293.726
294.193
294.932
296.084
297.847
300.49
304.36
309.879
317.521
327.769
341.051
357.673
377.772
401.3
428.053
457.721
489.948
524.383
560.713
598.677
638.067
678.723
720.522
763.368
807.178
851.878
897.386
943.612
990.457
1037.88
1085.91
1134.47
1183.51
1232.93
1282.65
1332.58
1382.64
1432.73
1482.74
1532.57
1582.1
1631.21
1679.76
1727.62
1774.62
1820.58
1865.31
1908.58
1950.14
1989.66
2026.78
2061.03
2091.11
2116.95
2138.69
2154.21
2161.92
2084.31
1964.33
1839.29
1710.79
1580.29
1449.12
1318.56
1189.87
1064.33
943.311
827.955
719.671
620.721
533.535
460.26
402.321
359.832
331.236
313.602
303.555
298.191
295.486
294.166
293.538
293.244
293.109
293.048
293.021
293.009
293.004
293.002
293.001
293
293
293
293
293.004
293.018
293.042
293.081
293.148
293.257
293.436
293.728
294.197
294.938
296.094
297.863
300.514
304.396
309.932
317.597
327.874
341.19
357.851
377.994
401.568
428.369
458.084
490.359
524.841
561.219
599.23
638.668
679.374
721.224
764.122
807.987
852.741
898.304
944.588
991.493
1038.97
1087.07
1135.7
1184.8
1234.28
1284.06
1334.05
1384.16
1434.3
1484.36
1534.23
1583.79
1632.93
1681.5
1729.37
1776.37
1822.32
1867.04
1910.29
1951.81
1991.29
2028.36
2062.57
2092.66
2118.45
2140.15
2155.65
2163.22
2077.77
1957.56
1832.37
1703.82
1573.33
1442.25
1311.82
1183.32
1058.04
937.329
822.33
714.489
616.094
529.571
457.044
399.884
358.131
330.148
312.963
303.205
298.011
295.397
294.124
293.518
293.235
293.105
293.047
293.02
293.009
293.004
293.002
293.001
293
293
293
293
293.004
293.018
293.042
293.082
293.148
293.257
293.437
293.729
294.198
294.941
296.099
297.87
300.526
304.414
309.958
317.633
327.924
341.257
357.938
378.101
401.699
428.522
458.262
490.56
525.066
561.467
599.503
638.966
679.696
721.572
764.496
808.387
853.166
898.757
945.07
992.004
1039.52
1087.64
1136.31
1185.44
1234.95
1284.76
1334.78
1384.92
1435.08
1485.16
1535.04
1584.62
1633.77
1682.35
1730.22
1777.21
1823.16
1867.85
1911.08
1952.57
1992.01
2029.03
2063.18
2093.2
2118.9
2140.5
2155.88
2163.33
2074.36
1953.97
1828.71
1700.16
1569.71
1438.69
1308.36
1179.99
1054.85
934.318
819.514
711.909
613.802
527.617
455.466
398.695
357.304
329.622
312.653
303.035
297.923
295.354
294.103
293.508
293.231
293.103
293.046
293.02
293.009
293.004
293.002
293.001
293
293
293
293
293.004
293.018
293.042
293.082
293.148
293.257
293.437
293.729
294.198
294.941
296.099
297.87
300.526
304.414
309.958
317.634
327.924
341.257
357.938
378.101
401.699
428.523
458.262
490.56
525.066
561.468
599.503
638.966
679.697
721.573
764.498
808.389
853.169
898.759
945.073
992.008
1039.52
1087.65
1136.31
1185.44
1234.95
1284.76
1334.78
1384.92
1435.08
1485.16
1535.05
1584.63
1633.78
1682.36
1730.23
1777.22
1823.17
1867.87
1911.09
1952.58
1992.03
2029.05
2063.2
2093.22
2118.92
2140.51
2155.88
2163.33
2074.33
1953.94
1828.67
1700.11
1569.67
1438.65
1308.33
1179.95
1054.82
934.289
819.487
711.884
613.78
527.598
455.45
398.682
357.295
329.616
312.649
303.033
297.922
295.354
294.103
293.508
293.231
293.103
293.046
293.02
293.009
293.004
293.002
293.001
293
293
293
293
293.004
293.018
293.042
293.081
293.148
293.257
293.436
293.728
294.197
294.938
296.094
297.863
300.514
304.397
309.933
317.597
327.874
341.19
357.852
377.994
401.569
428.369
458.085
490.359
524.842
561.22
599.232
638.67
679.377
721.228
764.127
807.993
852.748
898.311
944.597
991.502
1038.98
1087.08
1135.71
1184.81
1234.29
1284.07
1334.06
1384.18
1434.32
1484.38
1534.25
1583.81
1632.95
1681.53
1729.4
1776.4
1822.36
1867.07
1910.33
1951.85
1991.34
2028.42
2062.63
2092.72
2118.5
2140.18
2155.66
2163.25
2077.7
1957.47
1832.26
1703.7
1573.22
1442.13
1311.71
1183.22
1057.94
937.238
822.246
714.411
616.024
529.51
456.994
399.846
358.105
330.132
312.953
303.2
298.008
295.396
294.123
293.518
293.235
293.105
293.047
293.02
293.009
293.004
293.002
293.001
293
293
293
293
293.004
293.018
293.042
293.081
293.147
293.256
293.435
293.726
294.193
294.932
296.084
297.848
300.491
304.361
309.88
317.522
327.77
341.052
357.674
377.773
401.301
428.055
457.723
489.95
524.386
560.717
598.681
638.072
678.728
720.529
763.376
807.189
851.89
897.399
943.627
990.474
1037.89
1085.93
1134.5
1183.53
1232.95
1282.67
1332.61
1382.67
1432.76
1482.77
1532.6
1582.14
1631.25
1679.81
1727.66
1774.66
1820.63
1865.37
1908.65
1950.2
1989.73
2026.85
2061.1
2091.18
2117
2138.72
2154.25
2162
2084.16
1964.18
1839.12
1710.62
1580.12
1448.95
1318.39
1189.7
1064.18
943.164
827.816
719.542
620.604
533.432
460.175
402.256
359.787
331.207
313.586
303.547
298.187
295.484
294.165
293.537
293.244
293.109
293.048
293.021
293.009
293.004
293.002
293.001
293
293
293
293
293.004
293.018
293.042
293.081
293.146
293.255
293.433
293.723
294.187
294.923
296.07
297.824
300.455
304.307
309.801
317.41
327.616
340.847
357.41
377.444
400.905
427.588
457.186
489.343
523.71
559.97
597.864
637.183
677.766
719.491
762.259
805.991
850.609
896.033
942.176
988.936
1036.26
1084.2
1132.68
1181.62
1230.95
1280.58
1330.43
1380.4
1430.41
1480.36
1530.12
1579.6
1628.66
1677.18
1725.01
1772
1817.96
1862.7
1905.99
1947.56
1987.09
2024.2
2058.4
2088.22
2113.86
2135.24
2150.16
2157.03
2092.74
1973.41
1848.79
1720.54
1590.14
1458.95
1328.25
1199.32
1073.45
951.997
836.135
727.219
627.467
539.318
464.958
405.885
362.325
332.831
314.54
304.068
298.455
295.616
294.228
293.567
293.258
293.115
293.051
293.022
293.01
293.004
293.002
293.001
293
293
293
293
293.004
293.018
293.041
293.08
293.146
293.254
293.431
293.718
294.18
294.911
296.051
297.794
300.408
304.236
309.697
317.263
327.413
340.577
357.064
377.013
400.384
426.975
456.481
488.546
522.82
558.989
596.79
636.014
676.5
718.123
760.788
804.411
848.918
894.229
940.256
986.9
1034.11
1081.92
1130.27
1179.08
1228.29
1277.8
1327.53
1377.39
1427.29
1477.13
1526.81
1576.21
1625.2
1673.67
1721.46
1768.41
1814.36
1859.1
1902.4
1943.98
1983.51
2020.59
2054.69
2084.2
2109.41
2129.92
2143.37
2147.69
2102.87
1984.95
1861.22
1733.48
1603.34
1472.19
1341.37
1212.17
1085.87
963.845
847.298
737.538
636.71
547.264
471.435
410.819
365.787
335.054
315.849
304.783
298.824
295.797
294.315
293.607
293.276
293.124
293.055
293.024
293.01
293.004
293.002
293.001
293
293
293
293
293.004
293.018
293.041
293.08
293.145
293.252
293.427
293.713
294.171
294.896
296.027
297.757
300.35
304.15
309.57
317.082
327.165
340.247
356.638
376.484
399.744
426.223
455.614
487.566
521.727
557.782
595.468
634.574
674.939
716.438
758.972
802.461
846.83
891.999
937.882
984.381
1031.44
1079.09
1127.28
1175.94
1224.98
1274.34
1323.92
1373.63
1423.4
1473.11
1522.67
1571.97
1620.88
1669.27
1717.01
1763.94
1809.89
1854.64
1897.98
1939.63
1979.24
2016.41
2050.6
2080.21
2105.35
2125.57
2138.29
2141.16
2116.51
1999.98
1877.13
1749.92
1620.04
1488.93
1357.95
1228.39
1101.57
978.839
861.452
750.642
648.476
557.415
479.749
417.187
370.287
337.962
317.571
305.729
299.313
296.037
294.43
293.661
293.301
293.135
293.06
293.026
293.011
293.005
293.002
293.001
293
293
293
293
293.004
293.018
293.041
293.079
293.143
293.249
293.424
293.707
294.161
294.879
295.999
297.713
300.283
304.048
309.421
316.87
326.873
339.859
356.139
375.862
398.993
425.338
454.595
486.412
520.439
556.36
593.91
632.877
673.099
714.449
756.829
800.158
844.361
889.36
935.07
981.396
1028.27
1075.73
1123.73
1172.2
1221.05
1270.22
1319.61
1369.16
1418.75
1468.31
1517.73
1566.9
1615.7
1664.01
1711.7
1758.6
1804.55
1849.36
1892.81
1934.61
1974.46
2011.94
2046.57
2077.07
2103.01
2124.37
2138.75
2144.08
2134.92
2019.04
1896.77
1769.99
1640.32
1509.23
1378.05
1248.1
1120.66
997.094
878.708
766.671
662.922
569.936
490.062
425.149
375.964
341.667
319.783
306.951
299.947
296.349
294.579
293.731
293.333
293.149
293.066
293.029
293.013
293.005
293.002
293.001
293
293
293
293
293.004
293.018
293.04
293.078
293.142
293.247
293.419
293.699
294.148
294.86
295.968
297.663
300.206
303.933
309.252
316.63
326.542
339.418
355.572
375.156
398.138
424.331
453.435
485.098
518.972
554.739
592.132
630.94
670.996
712.174
754.376
797.52
841.531
886.333
931.842
977.964
1024.62
1071.86
1119.64
1167.88
1216.51
1265.46
1314.64
1363.97
1413.37
1462.74
1511.99
1561
1609.68
1657.89
1705.5
1752.38
1798.35
1843.23
1886.81
1928.84
1969.03
2007
2042.33
2074.23
2101.57
2125.03
2142.62
2152.81
2153.29
2039.9
1919.09
1793.18
1663.97
1533
1401.68
1271.31
1143.19
1018.69
899.149
785.709
680.166
584.971
502.546
434.883
382.986
346.303
322.582
308.51
300.76
296.75
294.771
293.821
293.374
293.168
293.075
293.033
293.014
293.006
293.003
293.001
293
293
293
293
293.004
293.017
293.04
293.078
293.14
293.244
293.415
293.691
294.135
294.838
295.933
297.608
300.122
303.805
309.066
316.364
326.177
338.931
354.945
374.373
397.191
423.214
452.147
483.639
517.341
552.936
590.154
628.781
668.652
709.637
751.638
794.572
838.365
882.943
928.223
974.113
1020.53
1067.52
1115.04
1163.02
1211.39
1260.08
1309.01
1358.1
1407.26
1456.42
1505.46
1554.29
1602.81
1650.89
1698.41
1745.24
1791.2
1836.14
1879.86
1922.11
1962.63
2001.1
2037.1
2070.15
2098.84
2123.52
2143.98
2158.4
2165.57
2064.99
1944.94
1819.72
1690.97
1560.18
1428.75
1297.98
1169.16
1043.66
922.836
807.85
700.334
602.69
517.399
446.598
391.552
352.04
326.091
310.485
301.798
297.265
295.018
293.936
293.427
293.192
293.085
293.037
293.016
293.007
293.003
293.001
293.001
293
293
293
293.004
293.017
293.039
293.077
293.139
293.241
293.409
293.682
294.121
294.814
295.895
297.549
300.03
303.667
308.863
316.077
325.78
338.403
354.264
373.525
396.164
422.002
450.747
482.052
515.567
550.972
587.998
626.427
666.093
706.865
748.642
791.344
834.895
879.222
924.245
969.874
1016.02
1062.72
1109.95
1157.64
1205.72
1254.12
1302.76
1351.57
1400.47
1449.37
1498.17
1546.79
1595.11
1643.04
1690.43
1737.17
1783.1
1828.06
1871.85
1914.26
1955.01
1993.8
2030.21
2063.74
2092.81
2117.65
2137.77
2150.87
2154.92
2089.17
1971.86
1848.38
1720.7
1590.46
1459.13
1328.07
1198.61
1072.08
949.894
833.257
723.63
623.323
534.87
460.554
401.911
359.092
330.47
312.981
303.122
297.924
295.335
294.085
293.495
293.223
293.099
293.043
293.019
293.008
293.003
293.001
293.001
293
293
293
293.004
293.017
293.039
293.076
293.137
293.238
293.404
293.673
294.105
294.789
295.854
297.485
299.932
303.52
308.648
315.771
325.359
337.842
353.541
372.622
395.07
420.711
449.256
480.36
513.673
548.874
585.692
623.907
663.351
703.89
745.425
787.872
831.158
875.21
919.95
965.29
1011.14
1057.52
1104.43
1151.8
1199.55
1247.62
1295.94
1344.44
1393.03
1441.63
1490.16
1538.52
1586.62
1634.34
1681.58
1728.19
1774.04
1818.97
1862.78
1905.27
1946.17
1985.16
2021.82
2055.64
2085.04
2109.99
2129.87
2141.86
2142.9
2117.45
2002.5
1880.65
1754.03
1624.37
1493.2
1361.9
1231.79
1104.21
980.566
862.17
750.314
647.154
555.265
477.067
414.369
367.726
335.926
316.136
304.813
298.773
295.745
294.277
293.584
293.263
293.117
293.051
293.022
293.01
293.004
293.002
293.001
293
293
293
293.004
293.017
293.038
293.075
293.135
293.234
293.398
293.663
294.089
294.762
295.812
297.418
299.829
303.365
308.422
315.451
324.918
337.255
352.784
371.677
393.925
419.359
447.694
478.586
511.686
546.672
583.27
621.258
660.464
700.756
742.031
784.204
827.204
870.958
915.391
960.417
1005.94
1051.98
1098.54
1145.54
1192.94
1240.65
1288.61
1336.76
1385.01
1433.28
1481.5
1529.57
1577.41
1624.9
1671.93
1718.39
1764.13
1809.01
1852.84
1895.41
1936.49
1975.76
2012.86
2047.32
2078.22
2104.75
2127.13
2143.31
2151.72
2150.24
2037.06
1916.6
1791.01
1661.99
1531.04
1399.54
1268.81
1140.19
1015.05
894.782
780.6
674.442
578.881
496.46
429.256
378.248
342.707
320.123
306.977
299.873
296.278
294.528
293.699
293.314
293.14
293.061
293.027
293.011
293.005
293.002
293.001
293
293
293
293.004
293.016
293.038
293.073
293.133
293.231
293.392
293.653
294.072
294.734
295.767
297.349
299.722
303.205
308.189
315.12
324.463
336.649
352.005
370.705
392.748
417.968
446.087
476.761
509.641
544.404
580.772
618.523
657.481
697.512
738.512
780.396
823.092
866.529
910.632
955.321
1000.51
1046.17
1092.35
1138.97
1185.97
1233.29
1280.87
1328.63
1376.5
1424.42
1472.29
1520.04
1567.57
1614.8
1661.6
1707.87
1753.48
1798.27
1842.09
1884.74
1926
1965.57
2003.14
2038.29
2070.46
2098.36
2122.93
2142.49
2156.17
2163.14
2072.96
1954.5
1830.43
1702.45
1572.03
1440.58
1309.41
1179.85
1053.26
931.082
814.54
705.32
605.926
519.006
446.887
390.978
351.092
325.149
309.744
301.294
296.968
294.853
293.848
293.382
293.169
293.074
293.032
293.014
293.006
293.002
293.001
293
293
293
293.004
293.016
293.037
293.072
293.131
293.227
293.385
293.642
294.054
294.705
295.721
297.277
299.612
303.041
307.95
314.782
324.001
336.035
351.216
369.721
391.557
416.563
444.463
474.918
507.575
542.111
578.246
615.755
654.458
694.22
734.936
776.519
818.897
862.002
905.76
950.092
994.909
1040.19
1085.96
1132.17
1178.76
1225.66
1272.82
1320.18
1367.65
1415.17
1462.67
1510.07
1557.28
1604.21
1650.75
1696.81
1742.24
1786.93
1830.7
1873.39
1914.77
1954.58
1992.51
2028.15
2060.99
2089.55
2114.31
2133.29
2144.37
2144.16
2107.23
1992.89
1871.49
1745.2
1615.76
1484.66
1353.29
1222.96
1095.05
970.98
852.1
739.837
636.54
544.931
467.556
406.247
361.396
331.466
313.284
303.135
297.868
295.278
294.044
293.47
293.208
293.091
293.04
293.017
293.007
293.003
293.001
293
293
293
293.004
293.016
293.036
293.071
293.128
293.223
293.378
293.631
294.035
294.675
295.673
297.202
299.499
302.873
307.706
314.439
323.533
335.417
350.424
368.74
390.373
415.17
442.857
473.096
505.535
539.848
575.752
613.018
651.466
690.957
731.383
772.66
814.714
857.477
900.879
944.843
989.283
1034.16
1079.52
1125.3
1171.46
1217.93
1264.66
1311.58
1358.64
1405.75
1452.86
1499.89
1546.75
1593.36
1639.62
1685.43
1730.68
1775.22
1818.92
1861.6
1903.06
1943.06
1981.31
2017.44
2050.99
2081.01
2106.87
2128.36
2143.53
2150.73
2147.64
2035.02
1915.29
1790.42
1661.98
1531.41
1400.02
1269.14
1140.07
1014.24
893.086
777.889
670.729
574.349
491.477
424.333
373.913
339.322
317.768
305.495
299.027
295.826
294.296
293.583
293.259
293.113
293.049
293.021
293.009
293.004
293.002
293.001
293
293
293.004
293.016
293.036
293.07
293.126
293.219
293.371
293.619
294.015
294.644
295.624
297.126
299.384
302.703
307.462
314.097
323.07
334.808
349.649
367.782
389.222
413.82
441.305
471.341
503.572
537.671
573.353
610.386
648.585
687.81
727.953
768.926
810.656
853.078
896.122
939.715
983.776
1028.25
1073.19
1118.55
1164.27
1210.31
1256.6
1303.09
1349.72
1396.43
1443.15
1489.8
1536.31
1582.59
1628.56
1674.12
1719.15
1763.54
1807.14
1849.79
1891.31
1931.46
1969.99
2006.54
2040.73
2071.92
2099.06
2122.73
2141.38
2154.1
2160.12
2075.06
1958.14
1835.49
1708.68
1579.15
1448.22
1317.18
1187.32
1060.04
936.802
818.904
708.104
607.057
518.632
445.389
388.91
349.014
323.445
308.541
300.538
296.544
294.626
293.732
293.324
293.142
293.061
293.026
293.011
293.005
293.002
293.001
293
293
293.003
293.015
293.035
293.068
293.123
293.214
293.363
293.605
293.994
294.609
295.57
297.043
299.259
302.521
307.204
313.742
322.595
334.195
348.881
366.848
388.116
412.539
439.849
469.706
501.754
535.663
571.143
607.96
645.926
684.901
724.772
765.453
806.872
848.963
891.66
934.893
978.584
1022.67
1067.2
1112.15
1157.46
1203.08
1248.95
1295.04
1341.26
1387.58
1433.92
1480.21
1526.38
1572.35
1618.04
1663.35
1708.17
1752.4
1795.88
1838.49
1880.02
1920.29
1959.02
1995.91
2030.55
2062.43
2090.29
2114.26
2132.54
2143.06
2142.52
2110.44
1998.08
1878.65
1754.16
1626.21
1496.23
1365.52
1235.36
1107.08
982.143
861.939
747.923
642.529
548.694
469.254
406.343
360.554
330.328
312.27
302.403
297.427
295.031
293.913
293.404
293.176
293.076
293.033
293.014
293.006
293.002
293.001
293
293
293.003
293.015
293.034
293.066
293.12
293.209
293.355
293.591
293.971
294.574
295.515
296.96
299.137
302.345
306.957
313.406
322.152
333.629
348.179
366.003
387.123
411.398
438.559
468.265
500.159
533.905
569.211
605.84
643.602
682.352
721.979
762.396
803.531
845.32
887.7
930.604
973.958
1017.7
1061.86
1106.44
1151.37
1196.62
1242.13
1287.85
1333.73
1379.7
1425.7
1471.68
1517.56
1563.26
1608.7
1653.79
1698.43
1742.51
1785.89
1828.44
1869.98
1910.32
1949.22
1986.39
2021.47
2054.01
2083.08
2108.22
2128.89
2143.32
2149.9
2146.46
2036.46
1919.26
1796.74
1670.43
1541.66