/*--------------------------------*- C++ -*----------------------------------*\
  =========                 |
  \\      /  F ield         | OpenFOAM: The Open Source CFD Toolbox
   \\    /   O peration     | Website:  https://openfoam.org
    \\  /    A nd           | Version:  8
     \\/     M anipulation  |
\*---------------------------------------------------------------------------*/
FoamFile
{
    version     2.0;
    format      ascii;
    class       volVectorField;
    location    "160/fluid";
    object      U;
}
// * * * * * * * * * * * * * * * * * * * * * * * * * * * * * * * * * * * * * //

dimensions      [0 1 -1 0 0 0 0];

internalField   nonuniform List<vector> 
4000
(
(0.0999539 -0.00685887 0)
(0.0997033 -0.0203587 0)
(0.0992988 -0.0337285 0)
(0.0987403 -0.0470303 0)
(0.0980206 -0.0602788 0)
(0.0971244 -0.073483 0)
(0.0960339 -0.0866553 0)
(0.0947319 -0.0997973 0)
(0.0932035 -0.112894 0)
(0.0914389 -0.125919 0)
(0.0894358 -0.138846 0)
(0.0872028 -0.151651 0)
(0.0847622 -0.164316 0)
(0.0821551 -0.176816 0)
(0.0794438 -0.189128 0)
(0.0766976 -0.201269 0)
(0.073972 -0.213219 0)
(0.0713025 -0.224923 0)
(0.068697 -0.236286 0)
(0.0661326 -0.247169 0)
(0.0635608 -0.257407 0)
(0.0609194 -0.266826 0)
(0.0581468 -0.275268 0)
(0.0551954 -0.282608 0)
(0.0520453 -0.288748 0)
(0.0486993 -0.29367 0)
(0.0451698 -0.297414 0)
(0.0414748 -0.300047 0)
(0.0376364 -0.301661 0)
(0.0336787 -0.302365 0)
(0.0296259 -0.302282 0)
(0.0255005 -0.301535 0)
(0.0213225 -0.300249 0)
(0.0171085 -0.298544 0)
(0.012872 -0.296531 0)
(0.0086233 -0.294313 0)
(0.00436986 -0.291982 0)
(0.000117526 -0.28962 0)
(-0.00412866 -0.287299 0)
(-0.00836573 -0.285085 0)
(-0.012594 -0.283036 0)
(-0.0168162 -0.281202 0)
(-0.0210357 -0.279627 0)
(-0.025257 -0.278345 0)
(-0.0294851 -0.277387 0)
(-0.0337252 -0.276779 0)
(-0.0379828 -0.276541 0)
(-0.0422634 -0.27669 0)
(-0.0465725 -0.277242 0)
(-0.0509148 -0.278209 0)
(-0.0552949 -0.2796 0)
(-0.0597165 -0.281423 0)
(-0.0641824 -0.283686 0)
(-0.0686945 -0.286391 0)
(-0.0732532 -0.289542 0)
(-0.0778575 -0.293139 0)
(-0.0825048 -0.29718 0)
(-0.08719 -0.301662 0)
(-0.0919064 -0.306578 0)
(-0.0966438 -0.311919 0)
(-0.101391 -0.317671 0)
(-0.106129 -0.323821 0)
(-0.11083 -0.330345 0)
(-0.115468 -0.337219 0)
(-0.120078 -0.344429 0)
(-0.12474 -0.352015 0)
(-0.129112 -0.360075 0)
(-0.131229 -0.368503 0)
(-0.131658 -0.376874 0)
(-0.130788 -0.384379 0)
(-0.128306 -0.389864 0)
(-0.1253 -0.393074 0)
(-0.121976 -0.393927 0)
(-0.118286 -0.392269 0)
(-0.114209 -0.387876 0)
(-0.10977 -0.380537 0)
(-0.105006 -0.370097 0)
(-0.0999601 -0.356499 0)
(-0.0946801 -0.339812 0)
(-0.0892577 -0.320269 0)
(-0.0838944 -0.298335 0)
(-0.0789154 -0.274768 0)
(-0.0747313 -0.250573 0)
(-0.0718218 -0.227238 0)
(-0.0706437 -0.206073 0)
(-0.0713585 -0.187644 0)
(-0.0736888 -0.171661 0)
(-0.0770545 -0.157334 0)
(-0.0808339 -0.143879 0)
(-0.0845517 -0.130772 0)
(-0.0879178 -0.11774 0)
(-0.0907929 -0.104729 0)
(-0.0931607 -0.0918538 0)
(-0.0950669 -0.0791765 0)
(-0.0965734 -0.0667107 0)
(-0.0977417 -0.0544004 0)
(-0.0986256 -0.0421832 0)
(-0.0992698 -0.0300975 0)
(-0.0997073 -0.0181808 0)
(-0.0999625 -0.00618483 0)
(0.1 -0.00648855 0)
(0.0998262 -0.0193439 0)
(0.0994667 -0.0320954 0)
(0.0989009 -0.0447553 0)
(0.0981294 -0.0573069 0)
(0.0971479 -0.0697389 0)
(0.0959476 -0.0820488 0)
(0.0945203 -0.0942263 0)
(0.0928617 -0.106249 0)
(0.0909747 -0.118091 0)
(0.0888716 -0.129728 0)
(0.0865769 -0.141149 0)
(0.0841282 -0.152362 0)
(0.0815763 -0.163404 0)
(0.0789816 -0.174327 0)
(0.0764029 -0.185126 0)
(0.0738874 -0.195796 0)
(0.0714601 -0.20631 0)
(0.0691167 -0.216605 0)
(0.0668212 -0.226577 0)
(0.0645121 -0.236086 0)
(0.0621153 -0.244974 0)
(0.0595589 -0.253092 0)
(0.0567866 -0.260318 0)
(0.0537653 -0.266589 0)
(0.0504879 -0.271846 0)
(0.0469664 -0.276057 0)
(0.0432237 -0.279242 0)
(0.0392904 -0.28146 0)
(0.0351998 -0.2828 0)
(0.0309851 -0.283364 0)
(0.0266767 -0.283266 0)
(0.0223013 -0.28262 0)
(0.0178808 -0.281538 0)
(0.0134328 -0.280127 0)
(0.00897059 -0.278482 0)
(0.00450387 -0.276694 0)
(3.97552e-05 -0.274839 0)
(-0.00441638 -0.272989 0)
(-0.0088617 -0.271208 0)
(-0.0132966 -0.269555 0)
(-0.0177238 -0.26808 0)
(-0.0221474 -0.266825 0)
(-0.0265722 -0.265826 0)
(-0.0310042 -0.265114 0)
(-0.0354494 -0.264714 0)
(-0.0399144 -0.26465 0)
(-0.0444058 -0.264938 0)
(-0.0489301 -0.265595 0)
(-0.0534936 -0.266635 0)
(-0.0581021 -0.268068 0)
(-0.062761 -0.269905 0)
(-0.0674747 -0.272153 0)
(-0.072247 -0.274818 0)
(-0.0770803 -0.277905 0)
(-0.081976 -0.281414 0)
(-0.0869335 -0.285344 0)
(-0.0919509 -0.289692 0)
(-0.0970237 -0.294449 0)
(-0.102146 -0.2996 0)
(-0.107307 -0.305125 0)
(-0.112493 -0.310993 0)
(-0.117669 -0.317164 0)
(-0.122812 -0.323591 0)
(-0.127975 -0.330215 0)
(-0.133252 -0.336903 0)
(-0.138244 -0.343406 0)
(-0.14102 -0.349516 0)
(-0.140965 -0.356551 0)
(-0.138606 -0.361995 0)
(-0.135377 -0.365607 0)
(-0.131914 -0.367246 0)
(-0.128207 -0.366651 0)
(-0.124154 -0.363515 0)
(-0.119715 -0.357556 0)
(-0.114882 -0.348546 0)
(-0.109662 -0.336342 0)
(-0.104061 -0.320924 0)
(-0.098088 -0.302448 0)
(-0.0918342 -0.281331 0)
(-0.0855545 -0.258359 0)
(-0.0796837 -0.234768 0)
(-0.0747929 -0.212201 0)
(-0.0714882 -0.191887 0)
(-0.0701844 -0.174509 0)
(-0.0708792 -0.160013 0)
(-0.0731506 -0.147681 0)
(-0.0763791 -0.136593 0)
(-0.0799884 -0.126019 0)
(-0.0835716 -0.11555 0)
(-0.0868946 -0.105039 0)
(-0.0898413 -0.0944234 0)
(-0.0923654 -0.0836278 0)
(-0.0944709 -0.0727076 0)
(-0.0961845 -0.061711 0)
(-0.097541 -0.0506289 0)
(-0.0985734 -0.0394441 0)
(-0.0993075 -0.0282313 0)
(-0.0997653 -0.0170771 0)
(-0.0999927 -0.00580778 0)
(0.0999819 -0.00625285 0)
(0.0997571 -0.0186278 0)
(0.0993165 -0.0308954 0)
(0.0986433 -0.0430652 0)
(0.09774 -0.0551171 0)
(0.0966064 -0.067039 0)
(0.0952405 -0.0788295 0)
(0.0936426 -0.0904832 0)
(0.0918188 -0.101986 0)
(0.0897829 -0.113319 0)
(0.0875585 -0.124469 0)
(0.085181 -0.135431 0)
(0.0826968 -0.146207 0)
(0.0801603 -0.156807 0)
(0.0776267 -0.167249 0)
(0.0751491 -0.177549 0)
(0.0727721 -0.187715 0)
(0.0705186 -0.197726 0)
(0.0683805 -0.207528 0)
(0.0663165 -0.217027 0)
(0.064258 -0.226092 0)
(0.0621231 -0.234579 0)
(0.0598317 -0.242345 0)
(0.0573175 -0.249269 0)
(0.0545336 -0.255267 0)
(0.0514547 -0.260296 0)
(0.04808 -0.264351 0)
(0.0444281 -0.267464 0)
(0.0405292 -0.269693 0)
(0.0364195 -0.271115 0)
(0.0321361 -0.271825 0)
(0.0277143 -0.271921 0)
(0.0231857 -0.271506 0)
(0.0185773 -0.270682 0)
(0.0139113 -0.269543 0)
(0.00920542 -0.268179 0)
(0.0044733 -0.266671 0)
(-0.000274543 -0.265091 0)
(-0.0050299 -0.263505 0)
(-0.00978766 -0.261975 0)
(-0.0145464 -0.260556 0)
(-0.0193075 -0.259295 0)
(-0.0240739 -0.258233 0)
(-0.0288501 -0.257405 0)
(-0.0336415 -0.256841 0)
(-0.0384542 -0.256565 0)
(-0.043295 -0.2566 0)
(-0.0481709 -0.256964 0)
(-0.053089 -0.257672 0)
(-0.0580565 -0.258738 0)
(-0.0630801 -0.260173 0)
(-0.0681665 -0.261988 0)
(-0.0733215 -0.264189 0)
(-0.0785503 -0.266783 0)
(-0.0838572 -0.269773 0)
(-0.089245 -0.27316 0)
(-0.0947151 -0.276941 0)
(-0.100267 -0.28111 0)
(-0.105896 -0.285656 0)
(-0.111596 -0.290559 0)
(-0.117353 -0.295793 0)
(-0.123143 -0.301318 0)
(-0.128928 -0.307082 0)
(-0.134663 -0.313023 0)
(-0.140285 -0.319053 0)
(-0.145786 -0.325009 0)
(-0.151204 -0.330551 0)
(-0.155722 -0.335228 0)
(-0.156247 -0.340575 0)
(-0.152124 -0.34437 0)
(-0.147324 -0.346457 0)
(-0.142598 -0.346675 0)
(-0.137709 -0.344741 0)
(-0.132487 -0.340368 0)
(-0.126876 -0.33331 0)
(-0.120857 -0.323404 0)
(-0.114415 -0.310596 0)
(-0.10754 -0.294979 0)
(-0.100255 -0.276842 0)
(-0.0927217 -0.256731 0)
(-0.0853074 -0.235488 0)
(-0.0785713 -0.214216 0)
(-0.0731992 -0.194136 0)
(-0.0698009 -0.176293 0)
(-0.0686351 -0.161184 0)
(-0.0694915 -0.148567 0)
(-0.0718283 -0.137684 0)
(-0.0750231 -0.127711 0)
(-0.0785551 -0.118043 0)
(-0.0820761 -0.108349 0)
(-0.085394 -0.0985006 0)
(-0.088416 -0.088492 0)
(-0.0910943 -0.0783684 0)
(-0.0934051 -0.0681748 0)
(-0.0953468 -0.0579243 0)
(-0.0969305 -0.0475811 0)
(-0.098171 -0.0371139 0)
(-0.0990798 -0.0265895 0)
(-0.0996681 -0.0160954 0)
(-0.0999752 -0.00547729 0)
(0.0999857 -0.0059494 0)
(0.0997536 -0.0177214 0)
(0.0992916 -0.0293813 0)
(0.0985821 -0.0409319 0)
(0.0976315 -0.0523486 0)
(0.0964447 -0.0636159 0)
(0.0950246 -0.0747298 0)
(0.0933767 -0.0856836 0)
(0.0915111 -0.0964629 0)
(0.0894447 -0.107051 0)
(0.0872028 -0.117437 0)
(0.0848203 -0.12762 0)
(0.0823423 -0.137608 0)
(0.0798229 -0.147423 0)
(0.0773213 -0.157093 0)
(0.0748945 -0.166645 0)
(0.0725865 -0.176094 0)
(0.0704171 -0.18543 0)
(0.0683735 -0.194609 0)
(0.0664084 -0.203546 0)
(0.0644476 -0.212122 0)
(0.0624032 -0.220203 0)
(0.0601899 -0.227651 0)
(0.0577378 -0.234352 0)
(0.0549996 -0.240221 0)
(0.0519523 -0.245208 0)
(0.0485946 -0.249302 0)
(0.0449415 -0.252525 0)
(0.0410195 -0.254924 0)
(0.0368608 -0.25657 0)
(0.0324999 -0.257546 0)
(0.0279704 -0.257943 0)
(0.0233032 -0.257853 0)
(0.0185256 -0.25737 0)
(0.0136605 -0.256581 0)
(0.00872708 -0.255568 0)
(0.00374047 -0.254406 0)
(-0.00128661 -0.253162 0)
(-0.00634391 -0.251898 0)
(-0.0114248 -0.250672 0)
(-0.0165265 -0.249537 0)
(-0.0216487 -0.248536 0)
(-0.0267934 -0.247709 0)
(-0.0319639 -0.247088 0)
(-0.0371647 -0.246703 0)
(-0.0424016 -0.246577 0)
(-0.0476807 -0.246731 0)
(-0.0530091 -0.247184 0)
(-0.0583938 -0.247951 0)
(-0.0638422 -0.249045 0)
(-0.0693614 -0.250477 0)
(-0.0749585 -0.252256 0)
(-0.0806402 -0.25439 0)
(-0.0864124 -0.256884 0)
(-0.0922803 -0.25974 0)
(-0.0982478 -0.262958 0)
(-0.104317 -0.266535 0)
(-0.110489 -0.270463 0)
(-0.116759 -0.274728 0)
(-0.12312 -0.279311 0)
(-0.129557 -0.284184 0)
(-0.136036 -0.289308 0)
(-0.142516 -0.294632 0)
(-0.148952 -0.300094 0)
(-0.155296 -0.305644 0)
(-0.161421 -0.311249 0)
(-0.166686 -0.316615 0)
(-0.170165 -0.320342 0)
(-0.169332 -0.322958 0)
(-0.164214 -0.324378 0)
(-0.158375 -0.324475 0)
(-0.152503 -0.322915 0)
(-0.146399 -0.319374 0)
(-0.139919 -0.313586 0)
(-0.133024 -0.305344 0)
(-0.125717 -0.29453 0)
(-0.118007 -0.281143 0)
(-0.109913 -0.265337 0)
(-0.101533 -0.247467 0)
(-0.0931382 -0.228141 0)
(-0.0851969 -0.20824 0)
(-0.0783195 -0.188858 0)
(-0.0731366 -0.171115 0)
(-0.070099 -0.15582 0)
(-0.0692795 -0.143155 0)
(-0.0703419 -0.132653 0)
(-0.0727175 -0.123523 0)
(-0.0758267 -0.115036 0)
(-0.0792111 -0.106701 0)
(-0.0825713 -0.0982615 0)
(-0.0857382 -0.0896221 0)
(-0.0886259 -0.0807741 0)
(-0.0911953 -0.071751 0)
(-0.093432 -0.0625953 0)
(-0.0953342 -0.0533226 0)
(-0.0969062 -0.043903 0)
(-0.0981521 -0.0343121 0)
(-0.0990721 -0.0246199 0)
(-0.0996686 -0.0149187 0)
(-0.0999786 -0.00507962 0)
(0.0999828 -0.00563985 0)
(0.0997336 -0.0167964 0)
(0.099242 -0.0278426 0)
(0.0984911 -0.0387793 0)
(0.0974896 -0.0495818 0)
(0.0962448 -0.0602344 0)
(0.0947624 -0.0707338 0)
(0.0930507 -0.0810744 0)
(0.0911232 -0.0912439 0)
(0.0890002 -0.101229 0)
(0.0867102 -0.11102 0)
(0.0842918 -0.120617 0)
(0.0817932 -0.130031 0)
(0.0792713 -0.13928 0)
(0.0767868 -0.148392 0)
(0.0743967 -0.157391 0)
(0.0721435 -0.166291 0)
(0.0700441 -0.175084 0)
(0.0680819 -0.18373 0)
(0.0662051 -0.192149 0)
(0.0643346 -0.200236 0)
(0.0623776 -0.207866 0)
(0.0602437 -0.214914 0)
(0.0578584 -0.221276 0)
(0.0551706 -0.226872 0)
(0.0521542 -0.231658 0)
(0.0488054 -0.235622 0)
(0.0451374 -0.238785 0)
(0.041175 -0.24119 0)
(0.0369497 -0.2429 0)
(0.0324948 -0.243992 0)
(0.0278436 -0.244546 0)
(0.0230266 -0.24465 0)
(0.0180713 -0.244386 0)
(0.013001 -0.243834 0)
(0.00783521 -0.243071 0)
(0.00258974 -0.242163 0)
(-0.00272054 -0.241172 0)
(-0.00808392 -0.240155 0)
(-0.0134938 -0.239168 0)
(-0.018946 -0.238257 0)
(-0.0244393 -0.237464 0)
(-0.0299746 -0.236824 0)
(-0.0355543 -0.23637 0)
(-0.0411822 -0.236126 0)
(-0.0468631 -0.236115 0)
(-0.0526029 -0.236358 0)
(-0.0584078 -0.23687 0)
(-0.0642847 -0.237667 0)
(-0.0702407 -0.238759 0)
(-0.0762828 -0.240158 0)
(-0.082418 -0.241871 0)
(-0.0886531 -0.243905 0)
(-0.0949942 -0.246262 0)
(-0.101447 -0.248943 0)
(-0.108016 -0.251947 0)
(-0.114704 -0.255265 0)
(-0.121511 -0.258885 0)
(-0.128437 -0.26279 0)
(-0.135476 -0.266951 0)
(-0.142615 -0.27133 0)
(-0.149819 -0.275874 0)
(-0.157061 -0.280519 0)
(-0.164386 -0.285181 0)
(-0.171952 -0.289751 0)
(-0.179346 -0.294087 0)
(-0.182687 -0.298011 0)
(-0.181961 -0.301475 0)
(-0.178527 -0.302888 0)
(-0.173095 -0.302999 0)
(-0.166963 -0.301815 0)
(-0.1604 -0.299069 0)
(-0.153367 -0.294475 0)
(-0.145837 -0.287816 0)
(-0.137833 -0.278942 0)
(-0.129395 -0.267795 0)
(-0.120568 -0.254439 0)
(-0.111417 -0.239085 0)
(-0.10212 -0.222143 0)
(-0.0930441 -0.204255 0)
(-0.0847247 -0.186282 0)
(-0.0777883 -0.16921 0)
(-0.0728087 -0.153933 0)
(-0.0701044 -0.140963 0)
(-0.069592 -0.130227 0)
(-0.0708325 -0.121178 0)
(-0.0732403 -0.11312 0)
(-0.0762761 -0.105475 0)
(-0.0795387 -0.0978818 0)
(-0.0827736 -0.0901585 0)
(-0.0858364 -0.0822434 0)
(-0.0886493 -0.0741406 0)
(-0.0911715 -0.0658841 0)
(-0.0933838 -0.0575094 0)
(-0.0952787 -0.0490242 0)
(-0.0968552 -0.0403941 0)
(-0.0981124 -0.0315917 0)
(-0.0990464 -0.0226797 0)
(-0.0996561 -0.0137459 0)
(-0.099976 -0.00467961 0)
(0.099983 -0.0053116 0)
(0.0997268 -0.0158178 0)
(0.0992207 -0.0262167 0)
(0.098448 -0.0365068 0)
(0.0974189 -0.0466627 0)
(0.0961427 -0.0566687 0)
(0.0946271 -0.0665208 0)
(0.0928823 -0.0762136 0)
(0.0909236 -0.0857354 0)
(0.0887731 -0.0950738 0)
(0.0864608 -0.104221 0)
(0.0840263 -0.113179 0)
(0.0815188 -0.121959 0)
(0.0789956 -0.130583 0)
(0.0765176 -0.139079 0)
(0.0741413 -0.147474 0)
(0.0719085 -0.155786 0)
(0.0698344 -0.16401 0)
(0.0679005 -0.172111 0)
(0.0660526 -0.180019 0)
(0.0642092 -0.187633 0)
(0.0622751 -0.194837 0)
(0.060158 -0.201515 0)
(0.0577811 -0.207566 0)
(0.0550914 -0.212916 0)
(0.0520609 -0.217522 0)
(0.0486837 -0.221372 0)
(0.0449711 -0.224482 0)
(0.040946 -0.226891 0)
(0.036638 -0.228658 0)
(0.0320792 -0.22985 0)
(0.0273014 -0.230544 0)
(0.0223345 -0.230816 0)
(0.0172051 -0.230745 0)
(0.0119364 -0.230403 0)
(0.00654779 -0.229858 0)
(0.0010563 -0.229174 0)
(-0.00452318 -0.228406 0)
(-0.0101786 -0.227608 0)
(-0.0159021 -0.226832 0)
(-0.0216894 -0.226119 0)
(-0.0275386 -0.225509 0)
(-0.0334496 -0.225034 0)
(-0.039424 -0.224722 0)
(-0.0454648 -0.224598 0)
(-0.0515761 -0.224682 0)
(-0.0577629 -0.224992 0)
(-0.0640307 -0.225543 0)
(-0.0703857 -0.226348 0)
(-0.0768339 -0.227417 0)
(-0.0833818 -0.22876 0)
(-0.0900352 -0.230383 0)
(-0.0967997 -0.23229 0)
(-0.10368 -0.234483 0)
(-0.11068 -0.23696 0)
(-0.1178 -0.239716 0)
(-0.12504 -0.242741 0)
(-0.132394 -0.24602 0)
(-0.139852 -0.249528 0)
(-0.147396 -0.253235 0)
(-0.154986 -0.257093 0)
(-0.162565 -0.261041 0)
(-0.170063 -0.265001 0)
(-0.177414 -0.268882 0)
(-0.184606 -0.272544 0)
(-0.191371 -0.275685 0)
(-0.196047 -0.277845 0)
(-0.195439 -0.279998 0)
(-0.189347 -0.280786 0)
(-0.182277 -0.280252 0)
(-0.174986 -0.278333 0)
(-0.167309 -0.274843 0)
(-0.15914 -0.269589 0)
(-0.150487 -0.262418 0)
(-0.14139 -0.253241 0)
(-0.131907 -0.242055 0)
(-0.122098 -0.228969 0)
(-0.112077 -0.214237 0)
(-0.102103 -0.198299 0)
(-0.0926196 -0.181804 0)
(-0.0842071 -0.165573 0)
(-0.0774789 -0.150484 0)
(-0.0729195 -0.137257 0)
(-0.0706936 -0.12619 0)
(-0.0705654 -0.117064 0)
(-0.0720169 -0.109305 0)
(-0.0744648 -0.10229 0)
(-0.077417 -0.0955429 0)
(-0.0805282 -0.0887781 0)
(-0.0835878 -0.081859 0)
(-0.0864779 -0.0747439 0)
(-0.089135 -0.0674427 0)
(-0.0915251 -0.0599885 0)
(-0.0936304 -0.0524138 0)
(-0.0954425 -0.044724 0)
(-0.0969574 -0.036885 0)
(-0.0981707 -0.0288703 0)
(-0.0990749 -0.0207372 0)
(-0.0996663 -0.0125697 0)
(-0.0999772 -0.00427711 0)
(0.0999822 -0.00497597 0)
(0.0997189 -0.0148174 0)
(0.0991994 -0.0245565 0)
(0.0984074 -0.0341906 0)
(0.097354 -0.0436953 0)
(0.0960496 -0.0530551 0)
(0.0945032 -0.0622665 0)
(0.0927262 -0.0713245 0)
(0.0907353 -0.0802188 0)
(0.0885541 -0.0889381 0)
(0.0862141 -0.0974761 0)
(0.0837564 -0.105835 0)
(0.0812316 -0.114027 0)
(0.0786983 -0.122072 0)
(0.0762179 -0.129999 0)
(0.073847 -0.137833 0)
(0.0716266 -0.145593 0)
(0.0695701 -0.153274 0)
(0.0676562 -0.160845 0)
(0.0658281 -0.16824 0)
(0.064001 -0.175368 0)
(0.0620772 -0.182122 0)
(0.059962 -0.188395 0)
(0.0575769 -0.194094 0)
(0.0548675 -0.199151 0)
(0.0518043 -0.203526 0)
(0.0483803 -0.207206 0)
(0.0446057 -0.210206 0)
(0.0405023 -0.212563 0)
(0.0360986 -0.214327 0)
(0.0314256 -0.215562 0)
(0.0265145 -0.216337 0)
(0.0213942 -0.216722 0)
(0.016091 -0.216787 0)
(0.0106276 -0.216599 0)
(0.00502342 -0.216222 0)
(-0.000703977 -0.215711 0)
(-0.00653901 -0.215118 0)
(-0.0124698 -0.214496 0)
(-0.0184885 -0.213887 0)
(-0.0245903 -0.213334 0)
(-0.0307728 -0.212869 0)
(-0.0370353 -0.212524 0)
(-0.0433786 -0.212323 0)
(-0.0498051 -0.212288 0)
(-0.0563178 -0.212437 0)
(-0.0629211 -0.212788 0)
(-0.0696193 -0.213353 0)
(-0.0764177 -0.214143 0)
(-0.0833213 -0.215168 0)
(-0.0903351 -0.216434 0)
(-0.0974637 -0.217948 0)
(-0.104711 -0.219711 0)
(-0.11208 -0.221724 0)
(-0.119572 -0.223985 0)
(-0.127186 -0.226487 0)
(-0.134917 -0.22922 0)
(-0.142756 -0.232169 0)
(-0.150689 -0.235313 0)
(-0.158687 -0.238622 0)
(-0.166703 -0.242059 0)
(-0.174666 -0.245568 0)
(-0.182528 -0.249093 0)
(-0.19023 -0.252605 0)
(-0.19756 -0.256128 0)
(-0.203378 -0.25939 0)
(-0.206262 -0.261016 0)
(-0.204033 -0.26114 0)
(-0.197116 -0.260406 0)
(-0.189268 -0.258765 0)
(-0.181109 -0.255957 0)
(-0.172516 -0.251747 0)
(-0.163412 -0.245959 0)
(-0.153827 -0.238469 0)
(-0.143826 -0.229218 0)
(-0.133483 -0.218232 0)
(-0.122886 -0.205648 0)
(-0.112202 -0.191745 0)
(-0.101765 -0.176982 0)
(-0.0920761 -0.161995 0)
(-0.083733 -0.147544 0)
(-0.0773106 -0.134385 0)
(-0.0731881 -0.123048 0)
(-0.0713867 -0.11364 0)
(-0.0715573 -0.105834 0)
(-0.073144 -0.0990793 0)
(-0.0755877 -0.0928501 0)
(-0.0784452 -0.0867752 0)
(-0.0814175 -0.0806423 0)
(-0.084326 -0.0743551 0)
(-0.0870707 -0.0678893 0)
(-0.0895963 -0.0612593 0)
(-0.0918722 -0.0544963 0)
(-0.0938816 -0.0476283 0)
(-0.0956154 -0.0406566 0)
(-0.0970683 -0.0335458 0)
(-0.0982346 -0.0262679 0)
(-0.0991055 -0.0188721 0)
(-0.0996763 -0.0114361 0)
(-0.0999775 -0.00388769 0)
(0.099982 -0.00463218 0)
(0.0997139 -0.0137934 0)
(0.099185 -0.022858 0)
(0.0983789 -0.0318225 0)
(0.0973076 -0.0406632 0)
(0.0959822 -0.0493655 0)
(0.0944125 -0.0579259 0)
(0.0926109 -0.0663398 0)
(0.0905951 -0.0745977 0)
(0.0883895 -0.0826893 0)
(0.0860268 -0.0906092 0)
(0.0835488 -0.0983599 0)
(0.0810072 -0.105954 0)
(0.0784609 -0.113411 0)
(0.0759719 -0.120759 0)
(0.0735967 -0.128025 0)
(0.0713752 -0.135225 0)
(0.0693198 -0.142359 0)
(0.0674072 -0.149396 0)
(0.0655781 -0.156279 0)
(0.063746 -0.162921 0)
(0.0618109 -0.169224 0)
(0.0596767 -0.17509 0)
(0.0572637 -0.180433 0)
(0.0545164 -0.185188 0)
(0.0514044 -0.189318 0)
(0.0479199 -0.192812 0)
(0.044072 -0.195683 0)
(0.0398817 -0.197963 0)
(0.0353764 -0.199698 0)
(0.0305865 -0.200946 0)
(0.0255421 -0.20177 0)
(0.0202719 -0.202233 0)
(0.0148012 -0.202401 0)
(0.00915259 -0.202334 0)
(0.00334525 -0.202088 0)
(-0.00260232 -0.201716 0)
(-0.00867414 -0.201265 0)
(-0.0148589 -0.200784 0)
(-0.0211487 -0.200312 0)
(-0.0275387 -0.199886 0)
(-0.0340256 -0.199538 0)
(-0.0406085 -0.199294 0)
(-0.0472874 -0.199177 0)
(-0.0540639 -0.199206 0)
(-0.0609404 -0.199399 0)
(-0.06792 -0.199768 0)
(-0.0750065 -0.200327 0)
(-0.0822036 -0.201083 0)
(-0.0895153 -0.202046 0)
(-0.0969453 -0.203221 0)
(-0.104497 -0.204611 0)
(-0.112172 -0.206218 0)
(-0.119972 -0.20804 0)
(-0.127897 -0.210073 0)
(-0.135943 -0.212308 0)
(-0.144105 -0.214734 0)
(-0.152372 -0.21733 0)
(-0.160727 -0.220073 0)
(-0.169143 -0.222928 0)
(-0.177562 -0.225846 0)
(-0.185939 -0.228767 0)
(-0.194311 -0.231628 0)
(-0.202865 -0.234357 0)
(-0.210992 -0.236916 0)
(-0.214634 -0.239043 0)
(-0.21328 -0.240722 0)
(-0.208414 -0.24043 0)
(-0.201387 -0.239162 0)
(-0.193486 -0.237008 0)
(-0.184956 -0.233754 0)
(-0.175805 -0.229201 0)
(-0.166065 -0.223204 0)
(-0.155813 -0.215674 0)
(-0.145145 -0.206584 0)
(-0.13416 -0.195992 0)
(-0.122981 -0.184057 0)
(-0.11184 -0.171078 0)
(-0.101139 -0.157517 0)
(-0.0914231 -0.143983 0)
(-0.0832922 -0.131169 0)
(-0.0772687 -0.119707 0)
(-0.0736203 -0.109971 0)
(-0.0722385 -0.101933 0)
(-0.0726862 -0.0952192 0)
(-0.0743892 -0.0893215 0)
(-0.0768191 -0.0838003 0)
(-0.0795787 -0.0783605 0)
(-0.0824103 -0.0728395 0)
(-0.0851637 -0.0671677 0)
(-0.0877555 -0.0613317 0)
(-0.0901393 -0.0553485 0)
(-0.0922888 -0.0492478 0)
(-0.0941891 -0.0430541 0)
(-0.0958315 -0.0367663 0)
(-0.0972103 -0.0303494 0)
(-0.0983188 -0.0237746 0)
(-0.0991476 -0.0170835 0)
(-0.0996914 -0.0103476 0)
(-0.0999786 -0.00351301 0)
(0.0999816 -0.00428278 0)
(0.0997091 -0.0127529 0)
(0.0991719 -0.0211329 0)
(0.0983533 -0.0294187 0)
(0.097266 -0.0375879 0)
(0.0959217 -0.0456269 0)
(0.0943307 -0.0535324 0)
(0.0925061 -0.0613003 0)
(0.0904663 -0.068922 0)
(0.0882364 -0.0763881 0)
(0.0858501 -0.0836938 0)
(0.0833502 -0.0908421 0)
(0.080789 -0.0978448 0)
(0.0782264 -0.104722 0)
(0.0757247 -0.111499 0)
(0.0733405 -0.118201 0)
(0.0711128 -0.124846 0)
(0.0690527 -0.131433 0)
(0.0671348 -0.137936 0)
(0.0652978 -0.144299 0)
(0.0634526 -0.150447 0)
(0.0614976 -0.156287 0)
(0.0593352 -0.16173 0)
(0.0568849 -0.166696 0)
(0.0540905 -0.171128 0)
(0.0509212 -0.17499 0)
(0.0473684 -0.178272 0)
(0.043441 -0.180985 0)
(0.0391592 -0.183157 0)
(0.0345499 -0.184832 0)
(0.0296428 -0.186061 0)
(0.0244676 -0.186901 0)
(0.0190523 -0.18741 0)
(0.013422 -0.187646 0)
(0.00759886 -0.187665 0)
(0.00160247 -0.187518 0)
(-0.00454828 -0.187253 0)
(-0.0108374 -0.186913 0)
(-0.0172538 -0.186543 0)
(-0.0237896 -0.186178 0)
(-0.0304398 -0.185852 0)
(-0.0372008 -0.185593 0)
(-0.0440708 -0.185425 0)
(-0.0510496 -0.185368 0)
(-0.0581379 -0.18544 0)
(-0.0653372 -0.185655 0)
(-0.0726497 -0.186025 0)
(-0.0800778 -0.18656 0)
(-0.0876243 -0.187269 0)
(-0.0952913 -0.188157 0)
(-0.103081 -0.18923 0)
(-0.110994 -0.190488 0)
(-0.11903 -0.191932 0)
(-0.127188 -0.19356 0)
(-0.135463 -0.195365 0)
(-0.143846 -0.197339 0)
(-0.152325 -0.199466 0)
(-0.16088 -0.201728 0)
(-0.169482 -0.204098 0)
(-0.178079 -0.206539 0)
(-0.186592 -0.208996 0)
(-0.194937 -0.211403 0)
(-0.203052 -0.213686 0)
(-0.210943 -0.215716 0)
(-0.218369 -0.217276 0)
(-0.223162 -0.217988 0)
(-0.221981 -0.218916 0)
(-0.214878 -0.218683 0)
(-0.206518 -0.21747 0)
(-0.197752 -0.215244 0)
(-0.188452 -0.211895 0)
(-0.17855 -0.207296 0)
(-0.168097 -0.201356 0)
(-0.157182 -0.194023 0)
(-0.145903 -0.185302 0)
(-0.134365 -0.175277 0)
(-0.122719 -0.164128 0)
(-0.111252 -0.152166 0)
(-0.100418 -0.139847 0)
(-0.0907868 -0.127744 0)
(-0.0829427 -0.116475 0)
(-0.077342 -0.106555 0)
(-0.0741414 -0.0982183 0)
(-0.073122 -0.091342 0)
(-0.0737874 -0.085538 0)
(-0.075565 -0.0803569 0)
(-0.0779621 -0.075438 0)
(-0.0806234 -0.0705505 0)
(-0.0833251 -0.065572 0)
(-0.0859391 -0.0604534 0)
(-0.0883941 -0.0551893 0)
(-0.0906503 -0.0497983 0)
(-0.0926849 -0.0443079 0)
(-0.0944844 -0.0387393 0)
(-0.096041 -0.033089 0)
(-0.097349 -0.0273223 0)
(-0.0984016 -0.0214097 0)
(-0.0991892 -0.0153849 0)
(-0.0997063 -0.00931268 0)
(-0.0999795 -0.00315638 0)
(0.0999814 -0.0039281 0)
(0.0997052 -0.011697 0)
(0.0991607 -0.0193826 0)
(0.0983313 -0.0269805 0)
(0.0972299 -0.0344698 0)
(0.0958688 -0.0418379 0)
(0.0942587 -0.0490817 0)
(0.0924133 -0.0561976 0)
(0.0903514 -0.0631778 0)
(0.0880989 -0.0700137 0)
(0.0856899 -0.0767011 0)
(0.0831682 -0.0832432 0)
(0.0805868 -0.0896512 0)
(0.0780063 -0.0959441 0)
(0.0754892 -0.102146 0)
(0.073092 -0.108282 0)
(0.0708533 -0.114368 0)
(0.0687826 -0.120404 0)
(0.066853 -0.126366 0)
(0.0650008 -0.132205 0)
(0.0631352 -0.137851 0)
(0.0611531 -0.14322 0)
(0.0589556 -0.14823 0)
(0.0564617 -0.152809 0)
(0.0536147 -0.156904 0)
(0.0503834 -0.160482 0)
(0.0467591 -0.163534 0)
(0.0427503 -0.16607 0)
(0.0383768 -0.168114 0)
(0.0336651 -0.169706 0)
(0.0286445 -0.170892 0)
(0.0233443 -0.171723 0)
(0.017792 -0.172252 0)
(0.0120126 -0.172531 0)
(0.00602782 -0.172611 0)
(-0.00014189 -0.172537 0)
(-0.00647733 -0.172353 0)
(-0.0129629 -0.1721 0)
(-0.0195876 -0.171816 0)
(-0.0263438 -0.171535 0)
(-0.0332259 -0.171287 0)
(-0.04023 -0.171096 0)
(-0.047354 -0.170984 0)
(-0.0545969 -0.170968 0)
(-0.0619586 -0.171065 0)
(-0.06944 -0.171287 0)
(-0.0770421 -0.171644 0)
(-0.0847662 -0.172145 0)
(-0.0926137 -0.172797 0)
(-0.100585 -0.173605 0)
(-0.108682 -0.174571 0)
(-0.116901 -0.175699 0)
(-0.125243 -0.176986 0)
(-0.133701 -0.17843 0)
(-0.142269 -0.180025 0)
(-0.150936 -0.181763 0)
(-0.159685 -0.183632 0)
(-0.168495 -0.185615 0)
(-0.177327 -0.187693 0)
(-0.186118 -0.189835 0)
(-0.194781 -0.191999 0)
(-0.20324 -0.194141 0)
(-0.211374 -0.196239 0)
(-0.218981 -0.198303 0)
(-0.225377 -0.200177 0)
(-0.229155 -0.200728 0)
(-0.227096 -0.200252 0)
(-0.219244 -0.199129 0)
(-0.210183 -0.197389 0)
(-0.200775 -0.194812 0)
(-0.190864 -0.191244 0)
(-0.18037 -0.186573 0)
(-0.169352 -0.180722 0)
(-0.157908 -0.173651 0)
(-0.146142 -0.165377 0)
(-0.13417 -0.155993 0)
(-0.122178 -0.145685 0)
(-0.110505 -0.134764 0)
(-0.099644 -0.123667 0)
(-0.0901774 -0.112921 0)
(-0.0826658 -0.103066 0)
(-0.0774922 -0.0945056 0)
(-0.0747091 -0.0873696 0)
(-0.074007 -0.0814743 0)
(-0.074851 -0.0764442 0)
(-0.0766801 -0.0718904 0)
(-0.079037 -0.0675182 0)
(-0.0816037 -0.0631462 0)
(-0.0841848 -0.0586812 0)
(-0.0866701 -0.0540886 0)
(-0.0889987 -0.0493683 0)
(-0.0911363 -0.0445392 0)
(-0.0930633 -0.0396268 0)
(-0.0947679 -0.0346493 0)
(-0.0962431 -0.0296015 0)
(-0.0974836 -0.0244497 0)
(-0.0984825 -0.0191641 0)
(-0.0992304 -0.0137712 0)
(-0.0997214 -0.00832943 0)
(-0.0999807 -0.00281765 0)
(0.0999812 -0.00356888 0)
(0.0997015 -0.0106276 0)
(0.0991504 -0.0176103 0)
(0.098311 -0.0245123 0)
(0.0971966 -0.0313144 0)
(0.0958198 -0.0380049 0)
(0.0941919 -0.0445813 0)
(0.0923266 -0.0510403 0)
(0.0902435 -0.0573747 0)
(0.087969 -0.063577 0)
(0.0855377 -0.0696435 0)
(0.0829942 -0.0755772 0)
(0.0803921 -0.0813888 0)
(0.0777926 -0.087096 0)
(0.0752587 -0.0927217 0)
(0.0728467 -0.0982884 0)
(0.0705947 -0.103812 0)
(0.0685109 -0.109292 0)
(0.0665665 -0.114709 0)
(0.0646962 -0.120016 0)
(0.0628071 -0.125152 0)
(0.0607947 -0.13004 0)
(0.0585594 -0.134606 0)
(0.0560194 -0.138785 0)
(0.0531179 -0.142529 0)
(0.0498237 -0.145808 0)
(0.046128 -0.148613 0)
(0.0420389 -0.150953 0)
(0.0375763 -0.15285 0)
(0.0327664 -0.154339 0)
(0.0276381 -0.155461 0)
(0.0222206 -0.156261 0)
(0.0165411 -0.156789 0)
(0.0106241 -0.157089 0)
(0.00449172 -0.157208 0)
(-0.00183514 -0.157186 0)
(-0.00833678 -0.157062 0)
(-0.0149981 -0.156875 0)
(-0.0218084 -0.156658 0)
(-0.0287598 -0.156442 0)
(-0.0358465 -0.156253 0)
(-0.0430643 -0.156113 0)
(-0.0504105 -0.156041 0)
(-0.0578836 -0.156053 0)
(-0.0654828 -0.156161 0)
(-0.0732081 -0.156379 0)
(-0.0810597 -0.156713 0)
(-0.0890379 -0.157173 0)
(-0.0971426 -0.157762 0)
(-0.105373 -0.158486 0)
(-0.113729 -0.159347 0)
(-0.122207 -0.160344 0)
(-0.130804 -0.161478 0)
(-0.139513 -0.162744 0)
(-0.148325 -0.164136 0)
(-0.157228 -0.165645 0)
(-0.166205 -0.167259 0)
(-0.175233 -0.168961 0)
(-0.184277 -0.170729 0)
(-0.193272 -0.172536 0)
(-0.202158 -0.174343 0)
(-0.210933 -0.176115 0)
(-0.219663 -0.17787 0)
(-0.227914 -0.17971 0)
(-0.232595 -0.181503 0)
(-0.232997 -0.182264 0)
(-0.228785 -0.181242 0)
(-0.220915 -0.179642 0)
(-0.21191 -0.177587 0)
(-0.202315 -0.174834 0)
(-0.192086 -0.171218 0)
(-0.181235 -0.166632 0)
(-0.169847 -0.16101 0)
(-0.158038 -0.154325 0)
(-0.145926 -0.146603 0)
(-0.133646 -0.137943 0)
(-0.121426 -0.128533 0)
(-0.109651 -0.118676 0)
(-0.0988477 -0.108781 0)
(-0.0896027 -0.0993252 0)
(-0.0824441 -0.0907682 0)
(-0.0776811 -0.0834195 0)
(-0.0752729 -0.0773255 0)
(-0.0748395 -0.0722717 0)
(-0.0758246 -0.0679107 0)
(-0.0776855 -0.0639119 0)
(-0.0799984 -0.0600368 0)
(-0.0824774 -0.056143 0)
(-0.0849507 -0.0521598 0)
(-0.0873224 -0.048063 0)
(-0.0895395 -0.0438562 0)
(-0.0915724 -0.039558 0)
(-0.093404 -0.0351913 0)
(-0.095024 -0.0307719 0)
(-0.0964262 -0.0262933 0)
(-0.0976059 -0.0217228 0)
(-0.0985563 -0.0170311 0)
(-0.0992682 -0.012238 0)
(-0.0997354 -0.00739556 0)
(-0.0999818 -0.00249639 0)
(0.099981 -0.00320543 0)
(0.0996982 -0.00954566 0)
(0.0991409 -0.0158174 0)
(0.0982923 -0.0220159 0)
(0.0971659 -0.0281235 0)
(0.0957746 -0.03413 0)
(0.09413 -0.0400329 0)
(0.0922462 -0.0458293 0)
(0.0901431 -0.0515129 0)
(0.0878476 -0.057077 0)
(0.0853949 -0.0625183 0)
(0.0828302 -0.0678398 0)
(0.0802078 -0.0730514 0)
(0.0775892 -0.0781694 0)
(0.075038 -0.0832147 0)
(0.0726104 -0.0882083 0)
(0.0703437 -0.0931646 0)
(0.0682452 -0.0980844 0)
(0.0662845 -0.102949 0)
(0.0643943 -0.107719 0)
(0.0624802 -0.112337 0)
(0.0604364 -0.116735 0)
(0.0581625 -0.120848 0)
(0.0555765 -0.124616 0)
(0.0526212 -0.127997 0)
(0.0492657 -0.130964 0)
(0.0455011 -0.133508 0)
(0.0413355 -0.135637 0)
(0.0367887 -0.137372 0)
(0.0318868 -0.138741 0)
(0.0266586 -0.139782 0)
(0.0211331 -0.140536 0)
(0.0153372 -0.141044 0)
(0.00929553 -0.141349 0)
(0.00302991 -0.141489 0)
(-0.00343759 -0.141502 0)
(-0.010087 -0.141423 0)
(-0.0169038 -0.141286 0)
(-0.0238776 -0.141121 0)
(-0.0310003 -0.140955 0)
(-0.0382657 -0.140811 0)
(-0.0456693 -0.140708 0)
(-0.053208 -0.140664 0)
(-0.0608796 -0.140692 0)
(-0.0686828 -0.140803 0)
(-0.0766168 -0.141008 0)
(-0.0846808 -0.141314 0)
(-0.092874 -0.141726 0)
(-0.101195 -0.142251 0)
(-0.109642 -0.14289 0)
(-0.118213 -0.143646 0)
(-0.126902 -0.144517 0)
(-0.135705 -0.145503 0)
(-0.144612 -0.146597 0)
(-0.153612 -0.147793 0)
(-0.162689 -0.14908 0)
(-0.171824 -0.150443 0)
(-0.18099 -0.15186 0)
(-0.190146 -0.153307 0)
(-0.19922 -0.154745 0)
(-0.208138 -0.156134 0)
(-0.216969 -0.157425 0)
(-0.225801 -0.158575 0)
(-0.234145 -0.159564 0)
(-0.238465 -0.160315 0)
(-0.236983 -0.16106 0)
(-0.230606 -0.16049 0)
(-0.222319 -0.159221 0)
(-0.2132 -0.157368 0)
(-0.203374 -0.154812 0)
(-0.192844 -0.151437 0)
(-0.181677 -0.147167 0)
(-0.16998 -0.141961 0)
(-0.157874 -0.13581 0)
(-0.145485 -0.128756 0)
(-0.132969 -0.120905 0)
(-0.120592 -0.112446 0)
(-0.10878 -0.103669 0)
(-0.0980819 -0.0949509 0)
(-0.0890824 -0.0867156 0)
(-0.0822721 -0.0793486 0)
(-0.0778886 -0.0730791 0)
(-0.0758096 -0.0678958 0)
(-0.0756012 -0.0635754 0)
(-0.0766979 -0.059807 0)
(-0.0785775 -0.0563137 0)
(-0.0808464 -0.0529034 0)
(-0.0832462 -0.0494642 0)
(-0.0856244 -0.0459422 0)
(-0.0878965 -0.0423209 0)
(-0.0900162 -0.0386058 0)
(-0.0919573 -0.0348148 0)
(-0.093705 -0.0309686 0)
(-0.0952505 -0.0270802 0)
(-0.0965885 -0.0231425 0)
(-0.0977144 -0.0191245 0)