/*--------------------------------*- C++ -*----------------------------------*\
  =========                 |
  \\      /  F ield         | OpenFOAM: The Open Source CFD Toolbox
   \\    /   O peration     | Website:  https://openfoam.org
    \\  /    A nd           | Version:  8
     \\/     M anipulation  |
\*---------------------------------------------------------------------------*/
FoamFile
{
    version     2.0;
    format      ascii;
    class       volScalarField;
    location    "960/fluid";
    object      CH4;
}
// * * * * * * * * * * * * * * * * * * * * * * * * * * * * * * * * * * * * * //

dimensions      [0 0 0 0 0 0 0];

internalField   nonuniform List<scalar> 
4000
(
0.999997
0.999986
0.999968
0.999938
0.999888
0.999805
0.999667
0.999443
0.999079
0.998498
0.997581
0.996159
0.993998
0.990784
0.98613
0.97959
0.970696
0.959018
0.94423
0.926154
0.904787
0.88028
0.852916
0.823059
0.791124
0.757544
0.722748
0.687146
0.651122
0.615024
0.579163
0.543807
0.509186
0.475489
0.442866
0.411436
0.381292
0.352493
0.325079
0.299065
0.274449
0.251215
0.229336
0.208773
0.189484
0.171417
0.15452
0.138738
0.124016
0.110297
0.0975271
0.0856523
0.0746226
0.0643903
0.0549116
0.0461468
0.0380614
0.0307279
0.0240929
0.0178829
0.0122857
0.00731301
0.00328058
0.00230054
0.00159276
0.00108673
0.000729287
0.000480347
0.000309828
0.000195295
0.00012018
7.24175e-05
4.34039e-05
2.73083e-05
1.98751e-05
1.5254e-05
1.13158e-05
7.95752e-06
5.2501e-06
3.22562e-06
1.84209e-06
9.82583e-07
4.941e-07
2.37996e-07
1.11262e-07
5.0788e-08
2.27357e-08
1.00141e-08
4.35094e-09
1.8686e-09
7.94612e-10
3.35059e-10
1.40245e-10
5.83046e-11
2.40632e-11
9.82998e-12
3.93808e-12
1.50627e-12
5.03712e-13
8.83985e-14
0.999997
0.999986
0.999968
0.999938
0.999888
0.999804
0.999666
0.99944
0.999075
0.998493
0.997577
0.996161
0.994014
0.990832
0.98624
0.979802
0.971062
0.959595
0.945068
0.927293
0.906242
0.882046
0.854964
0.825346
0.793593
0.760136
0.725401
0.689806
0.653738
0.617554
0.581572
0.54607
0.511283
0.477408
0.444601
0.412986
0.382657
0.353681
0.326096
0.29992
0.275154
0.251782
0.229776
0.209099
0.189707
0.171549
0.154571
0.138717
0.123932
0.110159
0.0973424
0.0854283
0.0743655
0.0641058
0.0546046
0.0458219
0.0377226
0.0303824
0.0237437
0.0175286
0.011929
0.00696386
0.00322757
0.00226148
0.00156348
0.00106466
0.000712709
0.00046805
0.000300879
0.000188953
0.000115852
6.96349e-05
4.18152e-05
2.66792e-05
1.96932e-05
1.50243e-05
1.10276e-05
7.66606e-06
5.0006e-06
3.04336e-06
1.72853e-06
9.2194e-07
4.66054e-07
2.26158e-07
1.06659e-07
4.91287e-08
2.21801e-08
9.84172e-09
4.30171e-09
1.85581e-09
7.91613e-10
3.34395e-10
1.40065e-10
5.82195e-11
2.40085e-11
9.79581e-12
3.91907e-12
1.49705e-12
5.00118e-13
8.78068e-14
0.999997
0.999986
0.999968
0.999938
0.999887
0.999803
0.999665
0.999438
0.999073
0.99849
0.997575
0.996163
0.994028
0.990872
0.986325
0.979964
0.97134
0.960037
0.945724
0.928206
0.907446
0.883558
0.856782
0.827449
0.795948
0.762694
0.72811
0.692608
0.656577
0.620377
0.584331
0.548724
0.513798
0.479757
0.446764
0.41495
0.384414
0.355228
0.327435
0.301057
0.276096
0.25254
0.230361
0.209525
0.189985
0.171693
0.154595
0.138635
0.123756
0.109901
0.0970128
0.0850374
0.0739226
0.0636195
0.0540829
0.045272
0.0371514
0.0298045
0.0231623
0.0169494
0.0113677
0.00641204
0.00318628
0.00222071
0.0015274
0.00103475
0.000689065
0.000450083
0.000287728
0.000179699
0.000109642
6.57481e-05
3.96966e-05
2.59373e-05
1.94165e-05
1.4703e-05
1.06777e-05
7.34414e-06
4.7448e-06
2.86661e-06
1.62152e-06
8.64297e-07
4.379e-07
2.13231e-07
1.01007e-07
4.67549e-08
2.12161e-08
9.4607e-09
4.1542e-09
1.79947e-09
7.70219e-10
3.26246e-10
1.36927e-10
5.69906e-11
2.35187e-11
9.59808e-12
3.8394e-12
1.46608e-12
4.89551e-13
8.59979e-14
0.999997
0.999986
0.999968
0.999938
0.999887
0.999804
0.999666
0.99944
0.999077
0.998498
0.997591
0.996194
0.994082
0.990965
0.986479
0.980204
0.971701
0.960553
0.946431
0.929134
0.908615
0.884977
0.858448
0.829348
0.798054
0.764975
0.730527
0.695118
0.659136
0.62294
0.586857
0.551173
0.516138
0.48196
0.448807
0.416814
0.386089
0.356706
0.328714
0.302138
0.276985
0.253243
0.230888
0.209886
0.190191
0.171756
0.15453
0.138456
0.123474
0.109529
0.0965623
0.0845197
0.0733482
0.0629981
0.0534237
0.0445836
0.0364419
0.0290987
0.022468
0.0162633
0.0106792
0.00574109
0.00314726
0.0021797
0.00148944
0.00100237
0.000663059
0.000430212
0.000273214
0.000169568
0.00010293
6.16204e-05
3.75112e-05
2.52183e-05
1.90439e-05
1.42928e-05
1.02648e-05
6.98009e-06
4.46109e-06
2.67086e-06
1.50131e-06
7.97743e-07
4.04103e-07
1.97135e-07
9.36609e-08
4.35112e-08
1.98215e-08
8.8743e-09
3.91214e-09
1.70101e-09
7.30608e-10
3.10431e-10
1.30641e-10
5.44979e-11
2.25313e-11
9.20827e-12
3.68729e-12
1.40893e-12
4.7061e-13
8.27594e-14
0.999997
0.999986
0.999968
0.999938
0.999888
0.999805
0.999667
0.999444
0.999083
0.998509
0.99761
0.996225
0.994136
0.991052
0.986618
0.980418
0.972017
0.961002
0.947042
0.929931
0.909616
0.886189
0.859868
0.830964
0.799846
0.766915
0.732582
0.697253
0.661314
0.625124
0.589012
0.553266
0.518139
0.483844
0.450553
0.418406
0.387514
0.357956
0.329785
0.303031
0.2777
0.253786
0.231267
0.210107
0.190269
0.171705
0.154358
0.138174
0.123095
0.109065
0.0960244
0.0839193
0.0726959
0.0623039
0.0526966
0.0438316
0.035683
0.0283665
0.0217348
0.0155206
0.00995123
0.00507159
0.003107
0.00213302
0.00144532
0.000964925
0.000633474
0.000408076
0.000257413
0.000158795
9.59551e-05
5.7421e-05
3.5363e-05
2.45798e-05
1.85912e-05
1.3819e-05
9.82286e-06
6.61362e-06
4.18954e-06
2.49095e-06
1.39414e-06
7.39574e-07
3.74848e-07
1.83223e-07
8.72821e-08
4.06663e-08
1.858e-08
8.34179e-09
3.6869e-09
1.60681e-09
6.91564e-10
2.94363e-10
1.24065e-10
5.18185e-11
2.14449e-11
8.7709e-12
3.514e-12
1.3431e-12
4.48648e-13
7.89807e-14
0.999997
0.999986
0.999968
0.999939
0.999889
0.999806
0.99967
0.999448
0.999091
0.998522
0.997632
0.996262
0.994196
0.991147
0.986763
0.980634
0.972325
0.961426
0.947603
0.930648
0.910498
0.887241
0.861087
0.832337
0.801356
0.76854
0.734296
0.699026
0.663116
0.626926
0.590783
0.554981
0.519773
0.485375
0.451963
0.419682
0.388644
0.358934
0.330608
0.303697
0.278213
0.254149
0.231483
0.210187
0.190223
0.171539
0.154085
0.137805
0.122641
0.108537
0.0954341
0.0832773
0.072013
0.0615901
0.0519615
0.0430899
0.0349318
0.0276232
0.0209789
0.0147739
0.00922292
0.00440391
0.0030103
0.00204314
0.00137254
0.000910065
0.000593999
0.000380682
0.000239016
0.000146849
8.84983e-05
5.30158e-05
3.30304e-05
2.35234e-05
1.78724e-05
1.32305e-05
9.35046e-06
6.25472e-06
3.93664e-06
2.32771e-06
1.29772e-06
6.86992e-07
3.4802e-07
1.70262e-07
8.12312e-08
3.79183e-08
1.73602e-08
7.8108e-09
3.45951e-09
1.51076e-09
6.51458e-10
2.7777e-10
1.1725e-10
4.90369e-11
2.0316e-11
8.3164e-12
3.33396e-12
1.27473e-12
4.25846e-13
7.50563e-14
0.999997
0.999986
0.999969
0.999939
0.99989
0.999808
0.999673
0.999453
0.999098
0.998535
0.997654
0.996298
0.994253
0.991236
0.986896
0.980828
0.9726
0.9618
0.948095
0.93127
0.911259
0.888141
0.86212
0.833493
0.80262
0.769891
0.735711
0.700482
0.664588
0.628388
0.592213
0.556355
0.521072
0.486581
0.453063
0.420663
0.389499
0.359656
0.331194
0.304145
0.278526
0.254331
0.231544
0.210135
0.190061
0.171278
0.153734
0.137373
0.122139
0.107974
0.0948213
0.0826251
0.071332
0.060892
0.0512592
0.042387
0.0342346
0.0270058
0.0202139
0.0140668
0.00856489
0.00380203
0.0026562
0.00182878
0.00124009
0.000827221
0.000541991
0.00034818
0.000218967
0.000134769
8.15055e-05
4.92442e-05
3.13462e-05
2.28084e-05
1.7322e-05
1.27568e-05
8.96566e-06
5.96329e-06
3.73284e-06
2.19702e-06
1.22079e-06
6.45022e-07
3.26508e-07
1.59791e-07
7.62918e-08
3.56469e-08
1.63379e-08
7.35907e-09
3.26311e-09
1.42657e-09
6.15803e-10
2.62827e-10
1.11043e-10
4.64781e-11
1.92689e-11
7.89202e-12
3.16495e-12
1.21028e-12
4.04297e-13
7.13471e-14
0.999997
0.999986
0.999969
0.99994
0.99989
0.999809
0.999675
0.999457
0.999106
0.998549
0.997676
0.996332
0.994306
0.991318
0.987019
0.981005
0.972846
0.962132
0.948525
0.931808
0.91191
0.888905
0.862991
0.83446
0.803668
0.771003
0.736869
0.701665
0.665775
0.629559
0.593347
0.557436
0.522083
0.487509
0.453896
0.421392
0.390118
0.360162
0.331585
0.304422
0.278687
0.254382
0.231491
0.209982
0.189817
0.170951
0.153332
0.136905
0.121614
0.1074
0.094208
0.0819804
0.0706637
0.0602069
0.0505625
0.0416871
0.0335796
0.0263797
0.0196163
0.0135279
0.00811906
0.00350105
0.00244246
0.00168219
0.0011418
0.000762416
0.000499873
0.000321187
0.000201931
0.000124218
7.51471e-05
4.56438e-05
2.95795e-05
2.20396e-05
1.68343e-05
1.23926e-05
8.68499e-06
5.75159e-06
3.58243e-06
2.09854e-06
1.16159e-06
6.12048e-07
3.0926e-07
1.51248e-07
7.21969e-08
3.37364e-08
1.54669e-08
6.9699e-09
3.09228e-09
1.35274e-09
5.8432e-10
2.49557e-10
1.05505e-10
4.41866e-11
1.83285e-11
7.50992e-12
3.01248e-12
1.15206e-12
3.84811e-13
6.80012e-14
0.999997
0.999987
0.999969
0.99994
0.999891
0.999811
0.999678
0.999462
0.999114
0.998561
0.997695
0.996364
0.994355
0.991391
0.987127
0.981161
0.973061
0.962419
0.948895
0.932269
0.912463
0.889549
0.863719
0.835263
0.804532
0.771915
0.73781
0.702619
0.666724
0.630486
0.594237
0.558274
0.522856
0.488206
0.454508
0.421913
0.390542
0.360486
0.331808
0.304546
0.278719
0.254324
0.231346
0.209757
0.189518
0.170584
0.152904
0.136425
0.121089
0.106839
0.0936171
0.0813679
0.0700373
0.0595746
0.0499332
0.0410715
0.0330053
0.0258282
0.0190973
0.0130575
0.00771868
0.0033162
0.0023129
0.00159271
0.0010812
0.000722318
0.000474055
0.000305102
0.000192319
0.000118794
7.23574e-05
4.44525e-05
2.93736e-05
2.20389e-05
1.67604e-05
1.2276e-05
8.55287e-06
5.6274e-06
3.4835e-06
2.02954e-06
1.11841e-06
5.87303e-07
2.96024e-07
1.44577e-07
6.89498e-08
3.22003e-08
1.47577e-08
6.64945e-09
2.95017e-09
1.29076e-09
5.5768e-10
2.3825e-10
1.00758e-10
4.22129e-11
1.75152e-11
7.17844e-12
2.87989e-12
1.1014e-12
3.6778e-13
6.50895e-14
0.999997
0.999987
0.999969
0.99994
0.999892
0.999812
0.99968
0.999466
0.99912
0.998572
0.997713
0.996391
0.994398
0.991456
0.987223
0.981296
0.973248
0.962666
0.949211
0.932659
0.912929
0.890087
0.864324
0.835925
0.80524
0.772655
0.738569
0.703381
0.667475
0.631213
0.594926
0.558914
0.523436
0.488719
0.454947
0.422273
0.39082
0.36068
0.331917
0.304573
0.278666
0.254195
0.231145
0.209488
0.189189
0.1702
0.152473
0.135953
0.120582
0.106304
0.093061
0.0807965
0.0694567
0.0589906
0.0493511
0.0404961
0.0324574
0.0253003
0.0185821
0.0125514
0.00721175
0.00322849
0.0022481
0.00154567
0.0010476
0.000698719
0.000457777
0.000294108
0.000185099
0.000114261
6.97434e-05
4.32471e-05
2.92018e-05
2.21586e-05
1.68271e-05
1.22723e-05
8.5089e-06
5.56765e-06
3.42458e-06
1.98369e-06
1.08789e-06
5.69078e-07
2.85984e-07
1.39411e-07
6.63928e-08
3.09739e-08
1.4185e-08
6.38808e-09
2.8333e-09
1.23943e-09
5.35484e-10
2.28783e-10
9.67675e-11
4.05478e-11
1.68273e-11
6.89757e-12
2.7673e-12
1.05831e-12
3.53305e-13
6.26211e-14
0.999997
0.999987
0.99997
0.999941
0.999893
0.999813
0.999682
0.999469
0.999126
0.998581
0.997728
0.996416
0.994436
0.991513
0.987305
0.981412
0.973406
0.962876
0.949478
0.932986
0.913317
0.890534
0.864823
0.836468
0.805816
0.773253
0.739176
0.703986
0.668066
0.631777
0.595454
0.559395
0.523864
0.489086
0.455248
0.422505
0.39098
0.360769
0.331937
0.304525
0.278551
0.254017
0.230909
0.209199
0.188851
0.169819
0.152055
0.135503
0.120106
0.105807
0.0925488
0.0802741
0.0689288
0.0584613
0.0488241
0.0399748
0.0319515
0.0248085
0.0181054
0.0120917
0.00677104
0.00319252
0.00222113
0.00152651
0.00103461
0.000690287
0.000452558
0.000291047
0.000183422
0.00011344
6.94643e-05
4.33641e-05
2.96969e-05
2.261e-05
1.70972e-05
1.24016e-05
8.5457e-06
5.55672e-06
3.39802e-06
1.95651e-06
1.06758e-06
5.56198e-07
2.78608e-07
1.35521e-07
6.44306e-08
3.00184e-08
1.37332e-08
6.17978e-09
2.73936e-09
1.19786e-09
5.17404e-10
2.21032e-10
9.34866e-11
3.91744e-11
1.62583e-11
6.66502e-12
2.67406e-12
1.02253e-12
3.41272e-13
6.05811e-14
0.999997
0.999987
0.99997
0.999941
0.999893
0.999814
0.999684
0.999472
0.999132
0.99859
0.997742
0.996437
0.994468
0.991561
0.987375
0.981511
0.97354
0.963052
0.949701
0.933258
0.913639
0.890901
0.86523
0.836908
0.806281
0.773731
0.739659
0.704462
0.668525
0.632211
0.595853
0.559753
0.524173
0.489342
0.455448
0.422647
0.391061
0.36079
0.331899
0.304429
0.278401
0.253816
0.23066
0.208907
0.18852
0.169455
0.151661
0.135085
0.119669
0.105356
0.0920873
0.0798068
0.0684596
0.0579946
0.0483657
0.0395295
0.0315189
0.0243864
0.017695
0.0116944
0.0063867
0.00317029
0.00220634
0.00151669
0.00102823
0.000686283
0.000450151
0.000289704
0.000182788
0.000113288
6.96634e-05
4.38561e-05
3.04959e-05
2.32597e-05
1.75099e-05
1.263e-05
8.64906e-06
5.5869e-06
3.39462e-06
1.94406e-06
1.05541e-06
5.47588e-07
2.73392e-07
1.32678e-07
6.29624e-08
2.92908e-08
1.33844e-08
6.01725e-09
2.6654e-09
1.16491e-09
5.02983e-10
2.14819e-10
9.08462e-11
3.80656e-11
1.57978e-11
6.47637e-12
2.5984e-12
9.93555e-13
3.31472e-13
5.89385e-14
0.999997
0.999987
0.99997
0.999941
0.999894
0.999815
0.999686
0.999475
0.999136
0.998597
0.997753
0.996455
0.994495
0.991601
0.987433
0.981593
0.973652
0.963198
0.949885
0.933483
0.913902
0.891201
0.865561
0.837263
0.806652
0.774111
0.740039
0.704833
0.668879
0.63254
0.596151
0.560013
0.524392
0.489515
0.455572
0.42272
0.391085
0.360764
0.331824
0.304307
0.278234
0.253607
0.230413
0.208626
0.188208
0.169117
0.151302
0.134708
0.119278
0.104955
0.0916797
0.0793966
0.0680514
0.0575926
0.0479702
0.0391372
0.0311398
0.0240222
0.0173444
0.0113576
0.00606301
0.00315202
0.002197
0.00151256
0.00102695
0.000686445
0.000450957
0.00029072
0.000183806
0.000114239
7.05629e-05
4.47819e-05
3.1565e-05
2.40597e-05
1.80217e-05
1.29253e-05
8.79746e-06
5.64708e-06
3.41015e-06
1.94217e-06
1.04976e-06
5.42483e-07
2.69955e-07
1.30713e-07
6.19144e-08
2.87593e-08
1.31252e-08
5.89474e-09
2.60905e-09
1.13957e-09
4.91811e-10
2.09977e-10
8.87782e-11
3.71936e-11
1.54346e-11
6.32717e-12
2.53842e-12
9.70614e-13
3.23685e-13
5.7646e-14
0.999997
0.999987
0.99997
0.999942
0.999894
0.999816
0.999687
0.999477
0.99914
0.998603
0.997763
0.99647
0.994518
0.991635
0.987482
0.981661
0.973744
0.963318
0.950036
0.933665
0.914115
0.891442
0.865826
0.837546
0.806947
0.77441
0.740335
0.705119
0.669149
0.632787
0.59637
0.5602
0.524542
0.489626
0.455643
0.422749
0.391072
0.360709
0.331729
0.304174
0.278065
0.253404
0.23018
0.208366
0.187925
0.168814
0.150982
0.134375
0.118935
0.104606
0.0913287
0.0790477
0.0677066
0.0572501
0.04763
0.0388052
0.0308214
0.0237161
0.0170501
0.0110753
0.00579223
0.00313666
0.00219067
0.00151123
0.00102814
0.000688689
0.000453438
0.000293023
0.000185769
0.000115848
7.18902e-05
4.59475e-05
3.27011e-05
2.49033e-05
1.85728e-05
1.32538e-05
8.97215e-06
5.72681e-06
3.43932e-06
1.94893e-06
1.04889e-06
5.40253e-07
2.68027e-07
1.29502e-07
6.12273e-08
2.83964e-08
1.29429e-08
5.80672e-09
2.56788e-09
1.12082e-09
4.83461e-10
2.06328e-10
8.72094e-11
3.65286e-11
1.51564e-11
6.21249e-12
2.49222e-12
9.52938e-13
3.17657e-13
5.66567e-14
0.999997
0.999987
0.99997
0.999942
0.999895
0.999817
0.999688
0.999479
0.999143
0.998608
0.99777
0.996482
0.994536
0.991662
0.987521
0.981716
0.973818
0.963415
0.950157
0.933811
0.914286
0.891634
0.866036
0.837769
0.807178
0.774643
0.740563
0.705338
0.669352
0.632971
0.596529
0.560331
0.524643
0.489695
0.455678
0.422749
0.391038
0.360641
0.331628
0.304042
0.277904
0.253218
0.22997
0.208135
0.187676
0.16855
0.150705
0.134089
0.118645
0.104313
0.0910361
0.0787539
0.0674114
0.0569583
0.0473455
0.0385289
0.0305575
0.0234623
0.0168054
0.0108386
0.00557456
0.00312412
0.00218718
0.00151251
0.00103159
0.000692799
0.000457387
0.000296439
0.000188542
0.000118019
7.35781e-05
4.73073e-05
3.38725e-05
2.57725e-05
1.9151e-05
1.36074e-05
9.16776e-06
5.82262e-06
3.47984e-06
1.96308e-06
1.05234e-06
5.40201e-07
2.67311e-07
1.28893e-07
6.08392e-08
2.81744e-08
1.28252e-08
5.74771e-09
2.53952e-09
1.10764e-09
4.77497e-10
2.0369e-10
8.60643e-11
3.60396e-11
1.49509e-11
6.12722e-12
2.45778e-12
9.39804e-13
3.13154e-13
5.59267e-14
0.999997
0.999987
0.99997
0.999942
0.999895
0.999817
0.999689
0.999481
0.999145
0.998612
0.997777
0.996491
0.994551
0.991684
0.987553
0.98176
0.973877
0.963491
0.950252
0.933926
0.914419
0.891784
0.866199
0.837942
0.807355
0.77482
0.740736
0.705502
0.669503
0.633104
0.596643
0.560422
0.524709
0.489734
0.455689
0.422733
0.390994
0.360571
0.331532
0.303922
0.277762
0.253055
0.229789
0.207938
0.187466
0.168329
0.150478
0.133856
0.118407
0.104072
0.0907913
0.0785095
0.0671708
0.0567226
0.0471161
0.0383067
0.0303456
0.023259
0.0166095
0.0106491
0.00540097
0.00311402
0.00218609
0.00151599
0.00103694
0.000698471
0.000462581
0.00030081
0.000192021
0.000120689
7.56003e-05
4.88687e-05
3.51416e-05
2.6698e-05
1.97692e-05
1.39903e-05
9.38461e-06
5.9334e-06
3.53041e-06
1.98355e-06
1.05954e-06
5.42227e-07
2.67599e-07
1.2876e-07
6.06688e-08
2.80573e-08
1.27576e-08
5.71153e-09
2.52137e-09
1.09891e-09
4.73464e-10
2.01874e-10
8.52672e-11
3.56959e-11
1.48057e-11
6.06679e-12
2.43325e-12
9.30484e-13
3.09944e-13
5.54158e-14
0.999997
0.999987
0.99997
0.999942
0.999895
0.999818
0.99969
0.999482
0.999147
0.998615
0.997782
0.996499
0.994562
0.991701
0.987577
0.981793
0.973922
0.963549
0.950325
0.934013
0.91452
0.891897
0.866322
0.838071
0.807487
0.774952
0.740863
0.705621
0.669612
0.6332
0.596722
0.560483
0.52475
0.489755
0.455689
0.422712
0.390952
0.360509
0.33145
0.303822
0.277645
0.252923
0.229644
0.207782
0.1873
0.168156
0.150297
0.13367
0.118216
0.103879
0.090599
0.0783193
0.0669841
0.0565406
0.0469396
0.0381364
0.0301832
0.0231034
0.0164595
0.0105032
0.00526585
0.00310613
0.00218714
0.00152139
0.00104394
0.000705513
0.000468862
0.000306015
0.000196118
0.000123801
7.79193e-05
5.06105e-05
3.64955e-05
2.76704e-05
2.04179e-05
1.43941e-05
9.61625e-06
6.05459e-06
3.58797e-06
2.00841e-06
1.06931e-06
5.45675e-07
2.6864e-07
1.29009e-07
6.06851e-08
2.80245e-08
1.27273e-08
5.69266e-09
2.51109e-09
1.09372e-09
4.70985e-10
2.0073e-10
8.4761e-11
3.54711e-11
1.47135e-11
6.02668e-12
2.41746e-12
9.24482e-13
3.07851e-13
5.50923e-14
0.999997
0.999987
0.99997
0.999942
0.999895
0.999818
0.99969
0.999483
0.999148
0.998617
0.997785
0.996504
0.99457
0.991713
0.987594
0.981818
0.973955
0.963591
0.950377
0.934076
0.914593
0.891978
0.86641
0.838163
0.807581
0.775045
0.740953
0.705705
0.669687
0.633264
0.596775
0.560522
0.524775
0.489764
0.455683
0.422691
0.390916
0.360458
0.331386
0.303745
0.277556
0.252823
0.229534
0.207663
0.187174
0.168023
0.15016
0.133529
0.118075
0.103737
0.0904588
0.0781814
0.0668494
0.0564099
0.0468136
0.0380154
0.0300677
0.022993
0.0163527
0.0103982
0.00516666
0.00310031
0.0021901
0.00152846
0.00105232
0.000713647
0.000475986
0.000311852
0.000200674
0.000127231
8.0444e-05
5.24627e-05
3.78776e-05
2.86442e-05
2.10624e-05
1.47938e-05
9.84618e-06
6.17613e-06
3.64683e-06
2.03458e-06
1.08005e-06
5.49753e-07
2.70057e-07
1.29468e-07
6.08158e-08
2.80491e-08
1.27262e-08
5.68699e-09
2.50719e-09
1.09131e-09
4.69824e-10
2.0013e-10
8.45072e-11
3.53499e-11
1.46647e-11
6.00464e-12
2.40873e-12
9.21122e-13
3.06647e-13
5.49153e-14
0.999997
0.999987
0.99997
0.999942
0.999896
0.999818
0.999691
0.999483
0.999149
0.998618
0.997787
0.996508
0.994576
0.991721
0.987606
0.981833
0.973976
0.963619
0.950411
0.934117
0.91464
0.89203
0.866466
0.838222
0.807641
0.775104
0.74101
0.705757
0.669734
0.633305
0.596807
0.560546
0.524789
0.489768
0.455677
0.422674
0.390889
0.360421
0.33134
0.30369
0.277493
0.252754
0.229459
0.207582
0.187089
0.167935
0.150069
0.133438
0.117983
0.103646
0.090369
0.0780936
0.0667643
0.056328
0.0467352
0.0379408
0.0299967
0.0229253
0.0162867
0.010332
0.00510145
0.00309648
0.0021946
0.00153662
0.00106142
0.000722218
0.000483359
0.000317819
0.000205289
0.000130675
8.29475e-05
5.42551e-05
3.91549e-05
2.95173e-05
2.16285e-05
1.51399e-05
1.00434e-05
6.2801e-06
3.69735e-06
2.05724e-06
1.08948e-06
5.53421e-07
2.71401e-07
1.29915e-07
6.09942e-08
2.80947e-08
1.27436e-08
5.689e-09
2.50773e-09
1.09072e-09
4.69571e-10
1.99911e-10
8.44172e-11
3.52981e-11
1.46443e-11
5.99437e-12
2.40471e-12
9.19548e-13
3.06053e-13
5.48348e-14
0.999997
0.999987
0.99997
0.999942
0.999896
0.999818
0.999691
0.999484
0.99915
0.998619
0.997788
0.99651
0.994578
0.991725
0.987611
0.981841
0.973986
0.963631
0.950427
0.934136
0.914662
0.892055
0.866493
0.83825
0.807669
0.775132
0.741037
0.705782
0.669756
0.633323
0.596822
0.560556
0.524795
0.489769
0.455673
0.422665
0.390876
0.360403
0.331317
0.303663
0.277463
0.25272
0.229422
0.207543
0.187048
0.167893
0.150026
0.133394
0.117939
0.103603
0.0903268
0.0780528
0.0667252
0.0562909
0.0467003
0.0379081
0.029966
0.0228964
0.0162584
0.0103023
0.00506924
0.00309458
0.00219945
0.00154402
0.00106918
0.000729264
0.000489271
0.00032252
0.000208876
0.000133322
8.48454e-05
5.55752e-05
4.00317e-05
3.00828e-05
2.198e-05
1.5348e-05
1.01591e-05
6.34004e-06
3.72619e-06
2.07014e-06
1.09486e-06
5.55532e-07
2.72189e-07
1.30183e-07
6.11056e-08
2.81266e-08
1.27563e-08
5.6918e-09
2.5088e-09
1.09077e-09
4.69572e-10
1.99856e-10
8.43945e-11
3.52814e-11
1.46377e-11
5.99073e-12
2.40323e-12
9.18973e-13
3.05822e-13
5.4806e-14
0.999997
0.999987
0.99997
0.999942
0.999896
0.999818
0.999691
0.999484
0.99915
0.998619
0.997788
0.99651
0.994578
0.991725
0.987611
0.981841
0.973986
0.963631
0.950427
0.934136
0.914662
0.892055
0.866493
0.83825
0.807669
0.775132
0.741036
0.705782
0.669756
0.633323
0.596822
0.560556
0.524795
0.489769
0.455673
0.422665
0.390876
0.360403
0.331318
0.303663
0.277463
0.25272
0.229422
0.207543
0.187048
0.167893
0.150026
0.133394
0.117939
0.103603
0.0903268
0.0780528
0.0667252
0.0562909
0.0467003
0.0379081
0.0299661
0.0228965
0.0162584
0.0103023
0.00506926
0.00309459
0.00219945
0.00154403
0.00106918
0.000729266
0.000489272
0.000322521
0.000208876
0.000133322
8.48457e-05
5.55753e-05
4.00318e-05
3.00828e-05
2.19801e-05
1.5348e-05
1.01592e-05
6.34006e-06
3.7262e-06
2.07015e-06
1.09487e-06
5.55534e-07
2.72191e-07
1.30184e-07
6.1105e-08
2.81268e-08
1.27561e-08
5.69177e-09
2.50874e-09
1.09076e-09
4.69559e-10
1.99853e-10
8.43921e-11
3.52807e-11
1.46372e-11
5.99066e-12
2.40315e-12
9.18956e-13
3.05815e-13
5.48047e-14
0.999997
0.999987
0.99997
0.999942
0.999896
0.999818
0.999691
0.999483
0.999149
0.998618
0.997787
0.996508
0.994576
0.991721
0.987606
0.981833
0.973976
0.963618
0.950411
0.934116
0.91464
0.89203
0.866466
0.838222
0.80764
0.775104
0.741009
0.705757
0.669734
0.633304
0.596807
0.560545
0.524789
0.489768
0.455677
0.422674
0.390889
0.360421
0.33134
0.30369
0.277493
0.252754
0.229459
0.207582
0.187089
0.167935
0.150069
0.133438
0.117983
0.103646
0.0903691
0.0780937
0.0667644
0.0563281
0.0467353
0.0379409
0.0299968
0.0229254
0.0162868
0.0103321
0.00510152
0.00309649
0.00219461
0.00153663
0.00106142
0.000722222
0.000483362
0.000317822
0.00020529
0.000130676
8.29481e-05
5.42554e-05
3.9155e-05
2.95174e-05
2.16286e-05
1.514e-05
1.00435e-05
6.28016e-06
3.69739e-06
2.05727e-06
1.0895e-06
5.53428e-07
2.71409e-07
1.29918e-07
6.09929e-08
2.80953e-08
1.27431e-08
5.68897e-09
2.50759e-09
1.0907e-09
4.69539e-10
1.99904e-10
8.44115e-11
3.52966e-11
1.46431e-11
5.99431e-12
2.40448e-12
9.19513e-13
3.06032e-13
5.48305e-14
0.999997
0.999987
0.99997
0.999942
0.999895
0.999818
0.99969
0.999483
0.999148
0.998617
0.997785
0.996504
0.99457
0.991713
0.987594
0.981817
0.973955
0.963591
0.950377
0.934076
0.914593
0.891978
0.866409
0.838163
0.80758
0.775044
0.740953
0.705704
0.669687
0.633264
0.596775
0.560522
0.524775
0.489764
0.455683
0.42269
0.390916
0.360458
0.331386
0.303745
0.277556
0.252823
0.229534
0.207663
0.187174
0.168023
0.15016
0.133529
0.118075
0.103737
0.090459
0.0781816
0.0668496
0.0564101
0.0468137
0.0380156
0.0300679
0.0229932
0.0163528
0.0103984
0.00516678
0.00310033
0.00219011
0.00152848
0.00105233
0.000713654
0.000475991
0.000311856
0.000200676
0.000127232
8.0445e-05
5.24632e-05
3.78778e-05
2.86443e-05
2.10625e-05
1.4794e-05
9.8463e-06
6.17622e-06
3.64689e-06
2.03462e-06
1.08008e-06
5.49765e-07
2.70066e-07
1.29472e-07
6.08165e-08
2.80499e-08
1.27261e-08
5.68705e-09
2.50711e-09
1.0913e-09
4.69803e-10
2.00127e-10
8.45025e-11
3.53488e-11
1.46634e-11
6.00463e-12
2.4085e-12
9.21088e-13
3.06619e-13
5.49099e-14
0.999997
0.999987
0.99997
0.999942
0.999895
0.999818
0.99969
0.999482
0.999147
0.998615
0.997782
0.996499
0.994562
0.991701
0.987577
0.981793
0.973922
0.963549
0.950324
0.934013
0.91452
0.891897
0.866321
0.83807
0.807486
0.774951
0.740863
0.705621
0.669611
0.633199
0.596722
0.560482
0.52475
0.489754
0.455689
0.422712
0.390952
0.360509
0.33145
0.303822
0.277645
0.252923
0.229644
0.207782
0.187301
0.168156
0.150298
0.13367
0.118216
0.103879
0.0905993
0.0783196
0.0669844
0.0565409
0.0469398
0.0381367
0.0301834
0.0231037
0.0164597
0.0105034
0.00526602
0.00310615
0.00218716
0.00152141
0.00104396
0.000705523
0.000468869
0.00030602
0.000196122
0.000123803
7.79207e-05
5.06112e-05
3.64958e-05
2.76706e-05
2.04181e-05
1.43943e-05
9.61642e-06
6.05473e-06
3.58806e-06
2.00846e-06
1.06934e-06
5.45693e-07
2.68649e-07
1.29013e-07
6.06871e-08
2.80254e-08
1.27277e-08
5.69278e-09
2.51114e-09
1.09374e-09
4.7099e-10
2.00732e-10
8.4761e-11
3.54713e-11
1.47127e-11
6.02699e-12
2.41735e-12
9.24477e-13
3.07832e-13
5.50882e-14
0.999997
0.999987
0.99997
0.999942
0.999895
0.999817
0.999689
0.999481
0.999145
0.998612
0.997777
0.996491
0.994551
0.991684
0.987553
0.98176
0.973877
0.963491
0.950252
0.933925
0.914419
0.891783
0.866198
0.837941
0.807354
0.774819
0.740735
0.705501
0.669502
0.633104
0.596642
0.560421
0.524708
0.489733
0.455689
0.422733
0.390994
0.360571
0.331532
0.303922
0.277762
0.253055
0.229789
0.207938
0.187466
0.16833
0.150478
0.133856
0.118408
0.104072
0.0907916
0.0785098
0.0671711
0.0567229
0.0471164
0.0383071
0.0303459
0.0232593
0.0166098
0.0106494
0.0054012
0.00311405
0.00218611
0.00151601
0.00103695
0.000698483
0.00046259
0.000300816
0.000192025
0.000120692
7.5602e-05
4.88696e-05
3.5142e-05
2.66983e-05
1.97694e-05
1.39905e-05
9.38481e-06
5.93357e-06
3.53053e-06
1.98362e-06
1.05958e-06
5.42249e-07
2.6761e-07
1.28766e-07
6.06714e-08
2.80586e-08
1.27581e-08
5.71178e-09
2.52147e-09
1.09896e-09
4.73482e-10
2.01882e-10
8.52702e-11
3.56973e-11
1.48061e-11
6.06732e-12
2.4331e-12
9.30542e-13
3.09951e-13
5.54155e-14
0.999997
0.999987
0.99997
0.999942
0.999895
0.999817
0.999688
0.999479
0.999143
0.998608
0.99777
0.996482
0.994536
0.991662
0.987521
0.981716
0.973818
0.963414
0.950156
0.933811
0.914285
0.891633
0.866035
0.837769
0.807177
0.774642
0.740562
0.705337
0.669351
0.63297
0.596529
0.560331
0.524643
0.489694
0.455677
0.422749
0.391038
0.360641
0.331628
0.304042
0.277904
0.253218
0.22997
0.208135
0.187676
0.16855
0.150706
0.13409
0.118645
0.104314
0.0910365
0.0787543
0.0674118
0.0569587
0.0473459
0.0385293
0.0305578
0.0234627
0.0168058
0.010839
0.00557484
0.00312414
0.00218721
0.00151254
0.00103161
0.000692813
0.000457397
0.000296446
0.000188547
0.000118022
7.35803e-05
4.73085e-05
3.3873e-05
2.57728e-05
1.91513e-05
1.36077e-05
9.16801e-06
5.82281e-06
3.47998e-06
1.96316e-06
1.05239e-06
5.40228e-07
2.67324e-07
1.28899e-07
6.08424e-08
2.81759e-08
1.28259e-08
5.74801e-09
2.53966e-09
1.1077e-09
4.77522e-10
2.03701e-10
8.60688e-11
3.60416e-11
1.49517e-11
6.12767e-12
2.45787e-12
9.39883e-13
3.1317e-13
5.59263e-14
0.999997
0.999987
0.99997
0.999942
0.999894
0.999816
0.999687
0.999477
0.99914
0.998603
0.997763
0.996469
0.994517
0.991635
0.987482
0.981661
0.973744
0.963317
0.950035
0.933664
0.914115
0.891441
0.865825
0.837546
0.806946
0.774409
0.740334
0.705118
0.669148
0.632787
0.59637
0.560199
0.524542
0.489626
0.455643
0.422749
0.391072
0.360709
0.331729
0.304174
0.278065
0.253405
0.23018
0.208366
0.187925
0.168814
0.150982
0.134375
0.118936
0.104606
0.0913292
0.0790482
0.0677071
0.0572506
0.0476305
0.0388056
0.0308218
0.0237165
0.0170505
0.0110757
0.00579255
0.00313669
0.00219071
0.00151127
0.00102817
0.00068871
0.000453451
0.000293032
0.000185774
0.000115851
7.18914e-05
4.59477e-05
3.27008e-05
2.49032e-05
1.85729e-05
1.3254e-05
8.97237e-06
5.727e-06
3.43946e-06
1.94903e-06
1.04895e-06
5.40283e-07
2.68042e-07
1.29509e-07
6.1231e-08
2.83981e-08
1.29437e-08
5.80709e-09
2.56804e-09
1.12089e-09
4.83492e-10
2.06342e-10
8.72151e-11
3.65311e-11
1.51575e-11
6.21291e-12
2.49241e-12
9.53025e-13
3.17676e-13
5.66556e-14
0.999997
0.999987
0.99997
0.999941
0.999894
0.999815
0.999686
0.999475
0.999136
0.998597
0.997753
0.996455
0.994495
0.991601
0.987433
0.981593
0.973652
0.963198
0.949884
0.933482
0.913901
0.8912
0.86556
0.837262
0.806651
0.77411
0.740038
0.704832
0.668878
0.632539
0.59615
0.560012
0.524391
0.489514
0.455572
0.42272
0.391085
0.360764
0.331824
0.304307
0.278234
0.253607
0.230413
0.208626
0.188209
0.169118
0.151302
0.134708
0.119278
0.104955
0.0916802
0.0793971
0.068052
0.0575933
0.0479708
0.0391377
0.0311403
0.0240226
0.0173448
0.0113579
0.00606331
0.00315205
0.002197
0.00151255
0.00102694
0.000686436
0.000450954
0.000290723
0.000183812
0.000114245
7.05685e-05
4.47859e-05
3.15667e-05
2.40604e-05
1.80221e-05
1.29255e-05
8.79768e-06
5.64726e-06
3.41029e-06
1.94227e-06
1.04982e-06
5.42515e-07
2.69972e-07
1.30721e-07
6.19185e-08
2.87613e-08
1.31261e-08
5.89516e-09
2.60923e-09
1.13965e-09
4.91847e-10
2.09993e-10
8.87849e-11
3.71965e-11
1.54358e-11
6.32768e-12
2.53863e-12
9.70707e-13
3.23705e-13
5.76451e-14
0.999997
0.999987
0.99997
0.999941
0.999893
0.999814
0.999684
0.999472
0.999131
0.99859
0.997742
0.996437
0.994468
0.991561
0.987374
0.98151
0.97354
0.963051
0.9497
0.933257
0.913638
0.8909
0.865229
0.836907
0.806279
0.77373
0.739658
0.704461
0.668524
0.63221
0.595852
0.559752
0.524173
0.489342
0.455448
0.422646
0.391061
0.36079
0.331899
0.304429
0.278401
0.253816
0.23066
0.208907
0.18852
0.169455
0.151662
0.135085
0.11967
0.105356
0.0920878
0.0798073
0.0684601
0.0579951
0.0483663
0.0395301
0.0315195
0.0243869
0.0176954
0.0116947
0.0063869
0.00317041
0.00220654
0.00151692
0.00102844
0.000686443
0.000450254
0.000289759
0.000182809
0.000113289
6.96566e-05
4.38484e-05
3.049e-05
2.32567e-05
1.75088e-05
1.26296e-05
8.64906e-06
5.587e-06
3.39473e-06
1.94414e-06
1.05546e-06
5.47621e-07
2.7341e-07
1.32687e-07
6.29668e-08
2.92929e-08
1.33854e-08
6.0177e-09
2.66561e-09
1.165e-09
5.03023e-10
2.14837e-10