/*--------------------------------*- C++ -*----------------------------------*\
  =========                 |
  \\      /  F ield         | OpenFOAM: The Open Source CFD Toolbox
   \\    /   O peration     | Website:  https://openfoam.org
    \\  /    A nd           | Version:  8
     \\/     M anipulation  |
\*---------------------------------------------------------------------------*/
FoamFile
{
    version     2.0;
    format      ascii;
    class       volScalarField;
    location    "960/fluid";
    object      CO2;
}
// * * * * * * * * * * * * * * * * * * * * * * * * * * * * * * * * * * * * * //

dimensions      [0 0 0 0 0 0 0];

internalField   nonuniform List<scalar> 
4000
(
4.73389e-07
2.06857e-06
4.75085e-06
9.24703e-06
1.67517e-05
2.9209e-05
4.97454e-05
8.33179e-05
0.000137651
0.000224539
0.00036154
0.000573998
0.000897113
0.00137745
0.00207297
0.0030505
0.00437988
0.0061253
0.00833572
0.0110375
0.0142315
0.0178947
0.0219852
0.0264484
0.0312223
0.0362423
0.0414443
0.0467668
0.0521526
0.0575496
0.0629114
0.0681978
0.0733745
0.0784132
0.0832913
0.0879909
0.0924982
0.0968038
0.100902
0.10479
0.108467
0.111936
0.115199
0.118263
0.121131
0.12381
0.126307
0.128625
0.130772
0.132749
0.13456
0.136205
0.13768
0.13898
0.140093
0.141002
0.141682
0.142091
0.14219
0.141912
0.141161
0.13981
0.137099
0.126566
0.115857
0.105152
0.0945904
0.0842812
0.0743118
0.0647531
0.0556652
0.0471007
0.0391095
0.0317777
0.0250774
0.0191147
0.0139536
0.00965754
0.00627342
0.00379617
0.00213611
0.00112337
0.000557347
0.000265116
0.000122518
5.53373e-05
2.45336e-05
1.07109e-05
4.61638e-06
1.96815e-06
8.3142e-07
3.48492e-07
1.4509e-07
6.0034e-08
2.46748e-08
1.00444e-08
4.01242e-09
1.53136e-09
5.11357e-10
8.96651e-11
4.73803e-07
2.07086e-06
4.7582e-06
9.26702e-06
1.67995e-05
2.93111e-05
4.99422e-05
8.36587e-05
0.000138172
0.000225198
0.00036209
0.000573765
0.000894667
0.00137013
0.00205648
0.0030187
0.00432506
0.00603902
0.00821021
0.0108671
0.0140137
0.0176304
0.0216786
0.0261061
0.0308526
0.0358543
0.0410469
0.0463685
0.0517608
0.0571706
0.0625504
0.0678587
0.07306
0.0781253
0.0830309
0.0877582
0.092293
0.0966253
0.100749
0.10466
0.10836
0.111849
0.115132
0.118212
0.121095
0.123788
0.126295
0.128624
0.130779
0.132764
0.134581
0.13623
0.137709
0.139012
0.140127
0.141037
0.141717
0.142125
0.142221
0.141939
0.141182
0.13982
0.136274
0.125669
0.114904
0.104154
0.0935546
0.0832153
0.0732227
0.0636486
0.0545541
0.045994
0.0380206
0.0307254
0.0240831
0.0182065
0.0131617
0.00901021
0.0057885
0.00347064
0.00194316
0.00102257
0.000510556
0.000244968
0.000114353
5.21854e-05
2.33616e-05
1.02863e-05
4.46453e-06
1.91381e-06
8.11682e-07
3.4112e-07
1.42238e-07
5.88922e-08
2.4206e-08
9.85e-09
3.9327e-09
1.50014e-09
5.00725e-10
8.78436e-11
4.74835e-07
2.07563e-06
4.77039e-06
9.2936e-06
1.68524e-05
2.94089e-05
5.01094e-05
8.3921e-05
0.000138539
0.000225627
0.000362392
0.000573426
0.000892556
0.00136427
0.00204371
0.00299445
0.00428334
0.00597279
0.00811209
0.0107304
0.0138335
0.0174041
0.0214065
0.0257911
0.0305
0.0354711
0.0406412
0.0459487
0.0513354
0.0567476
0.0621368
0.0674607
0.0726828
0.0777728
0.0827061
0.0874632
0.0920289
0.0963924
0.100547
0.104489
0.108217
0.111734
0.115041
0.118145
0.121049
0.123761
0.126286
0.12863
0.130797
0.132792
0.134618
0.136275
0.137759
0.139065
0.140183
0.141093
0.141772
0.142177
0.142268
0.141976
0.141204
0.139819
0.134809
0.124154
0.113343
0.102555
0.0919295
0.0815776
0.0715876
0.0620329
0.0529768
0.0444762
0.036586
0.0293877
0.022884
0.0171734
0.0123166
0.00836487
0.0053366
0.00318448
0.00177989
0.000937917
0.000470066
0.000226555
0.000106289
4.87573e-05
2.19387e-05
9.70657e-06
4.23147e-06
1.82088e-06
7.74749e-07
3.26427e-07
1.36368e-07
5.65333e-08
2.32536e-08
9.46545e-09
3.77926e-09
1.44139e-09
4.80993e-10
8.4408e-11
4.74209e-07
2.07286e-06
4.76385e-06
9.28e-06
1.68244e-05
2.93497e-05
4.99812e-05
8.36424e-05
0.000137944
0.000224396
0.000359957
0.000568845
0.000884371
0.00135027
0.00202079
0.00295851
0.00422943
0.00589551
0.00800621
0.0105915
0.0136584
0.0171916
0.0211569
0.0255068
0.0301845
0.0351293
0.040279
0.0455725
0.0509518
0.0563632
0.061758
0.0670931
0.0723315
0.077442
0.0823992
0.0871828
0.0917767
0.0961695
0.100354
0.104325
0.108082
0.111625
0.114959
0.118086
0.121013
0.123745
0.126288
0.128647
0.130828
0.132834
0.134669
0.136333
0.137822
0.139131
0.140248
0.141157
0.141831
0.142227
0.142306
0.141998
0.141202
0.139784
0.132985
0.122311
0.111479
0.100677
0.0900491
0.0797103
0.0697517
0.0602488
0.0512663
0.0428628
0.0350944
0.0280133
0.0216774
0.0161506
0.0114888
0.00773459
0.00489227
0.00289804
0.00161165
0.000847309
0.000424754
0.000205123
9.65189e-05
4.44303e-05
2.00669e-05
8.91255e-06
3.90011e-06
1.6844e-06
7.19096e-07
3.03898e-07
1.27293e-07
5.289e-08
2.17953e-08
8.88494e-09
3.55144e-09
1.35552e-09
4.52507e-10
7.94665e-11
4.72223e-07
2.06408e-06
4.74325e-06
9.23856e-06
1.67459e-05
2.92045e-05
4.97157e-05
8.31601e-05
0.000137075
0.000222845
0.000357227
0.000564129
0.000876408
0.00133719
0.00199994
0.00292645
0.00418205
0.00582829
0.00791476
0.0104721
0.0135085
0.0170101
0.0209442
0.0252646
0.0299161
0.0348386
0.0399708
0.0452522
0.050625
0.0560353
0.0614344
0.0667787
0.0720307
0.0771586
0.0821363
0.0869429
0.0915617
0.0959804
0.100191
0.104189
0.107971
0.11154
0.114897
0.118048
0.120995
0.123745
0.126304
0.128677
0.13087
0.132886
0.134728
0.136397
0.137888
0.139196
0.14031
0.141213
0.141876
0.142257
0.142317
0.141983
0.141152
0.139691
0.131065
0.120397
0.109561
0.0987568
0.0881393
0.0778273
0.0679149
0.0584786
0.0495835
0.0412878
0.0336592
0.0267224
0.0205524
0.0152064
0.0107338
0.0071678
0.00449878
0.00264804
0.00146645
0.000769562
0.000385853
0.000186616
8.80004e-05
4.06086e-05
1.83872e-05
8.18657e-06
3.59067e-06
1.55402e-06
6.64689e-07
2.81371e-07
1.18026e-07
4.90984e-08
2.02529e-08
8.26265e-09
3.3046e-09
1.26174e-09
4.2124e-10
7.40211e-11
4.69177e-07
2.05065e-06
4.71182e-06
9.17575e-06
1.66282e-05
2.89909e-05
4.93352e-05
8.2491e-05
0.000135912
0.000220852
0.000353865
0.000558562
0.000867393
0.00132297
0.00197817
0.0028942
0.00413595
0.00576483
0.00783068
0.0103648
0.0133763
0.0168523
0.0207616
0.0250587
0.0296896
0.0345949
0.0397138
0.0449861
0.0503543
0.0557647
0.061168
0.0665207
0.0717848
0.0769279
0.0819235
0.0867501
0.0913904
0.0958317
0.100065
0.104086
0.107891
0.111482
0.114861
0.11803
0.120995
0.123761
0.126333
0.128718
0.130921
0.132944
0.13479
0.13646
0.137949
0.139253
0.140358
0.141247
0.141894
0.142251
0.142286
0.141921
0.141054
0.139567
0.12937
0.118673
0.107799
0.0969706
0.0863512
0.0760615
0.066195
0.0568267
0.0480199
0.039831
0.0323384
0.0255394
0.01953
0.0143543
0.010057
0.00666245
0.00414895
0.00242547
0.00133629
0.000698982
0.000349928
0.000169249
7.98778e-05
3.69106e-05
1.6741e-05
7.46763e-06
3.28174e-06
1.42308e-06
6.0982e-07
2.58594e-07
1.08643e-07
4.52579e-08
1.86908e-08
7.63268e-09
3.05481e-09
1.16687e-09
3.89615e-10
6.85112e-11
4.65681e-07
2.03529e-06
4.67616e-06
9.10524e-06
1.64979e-05
2.87581e-05
4.89279e-05
8.17893e-05
0.000134719
0.000218852
0.00035056
0.000553201
0.000858874
0.00130975
0.00195823
0.00286505
0.00409476
0.00570871
0.007757
0.0102715
0.0132623
0.0167174
0.0206066
0.0248852
0.0294999
0.0343921
0.0395011
0.0447673
0.050133
0.0555446
0.0609527
0.0663136
0.0715887
0.0767455
0.0817569
0.086601
0.0912601
0.0957209
0.0999744
0.104015
0.10784
0.11145
0.114845
0.11803
0.12101
0.123789
0.126373
0.128767
0.130976
0.133003
0.13485
0.136518
0.138001
0.139294
0.140383
0.14125
0.141867
0.142184
0.142172
0.14175
0.140823
0.1393
0.128465
0.117413
0.106342
0.0954136
0.0847561
0.0744719
0.0646434
0.0553387
0.0466163
0.0385299
0.0311668
0.0245016
0.0186273
0.0136013
0.0094623
0.00622206
0.00384672
0.00223468
0.00122533
0.000638972
0.000319363
0.000154422
7.29046e-05
3.37127e-05
1.53053e-05
6.83472e-06
3.00714e-06
1.30557e-06
5.60131e-07
2.37794e-07
1.0001e-07
4.17021e-08
1.72367e-08
7.04363e-09
2.82041e-09
1.0776e-09
3.59807e-10
6.33134e-11
4.6206e-07
2.01941e-06
4.63941e-06
9.03287e-06
1.63647e-05
2.85217e-05
4.85173e-05
8.10876e-05
0.000133537
0.00021689
0.000347357
0.000548066
0.000850819
0.00129742
0.00193988
0.00283857
0.00405783
0.00565902
0.00769252
0.0101908
0.0131646
0.0166028
0.0204759
0.0247401
0.0293425
0.0342248
0.0393269
0.0445892
0.0499542
0.055368
0.0607814
0.0661501
0.0714355
0.0766047
0.0816301
0.0864896
0.091165
0.0956426
0.0999131
0.10397
0.107812
0.111437
0.114847
0.118046
0.121037
0.123826
0.126418
0.128819
0.131032
0.133061
0.134907
0.13657
0.138045
0.139323
0.140391
0.141226
0.141794
0.142047
0.141938
0.14137
0.140221
0.138363
0.127325
0.116121
0.104953
0.0939743
0.0833047
0.0730397
0.0632562
0.0540183
0.0453809
0.0373939
0.03013
0.0235859
0.0178432
0.0129503
0.00894964
0.00584462
0.00358867
0.00207194
0.00113056
0.000587516
0.000292999
0.000141555
6.68147e-05
3.09028e-05
1.40366e-05
6.27264e-06
2.76218e-06
1.20034e-06
5.1548e-07
2.1905e-07
9.22121e-08
3.84832e-08
1.59181e-08
6.50873e-09
2.60731e-09
9.9637e-10
3.32681e-10
5.85842e-11
4.58559e-07
2.00408e-06
4.60401e-06
8.96338e-06
1.62374e-05
2.82968e-05
4.8129e-05
8.04284e-05
0.000132435
0.000215074
0.000344417
0.000543394
0.000843552
0.00128639
0.00192359
0.00281526
0.00402557
0.00561591
0.00763698
0.0101217
0.0130816
0.0165061
0.0203665
0.0246194
0.0292124
0.0340876
0.0391851
0.0444453
0.0498108
0.0552277
0.0606465
0.0660228
0.0713178
0.076498
0.0815359
0.0864088
0.0910983
0.0955904
0.0998753
0.103947
0.107802
0.11144
0.114861
0.118071
0.121071
0.123868
0.126467
0.128872
0.131088
0.133117
0.134961
0.136619
0.138085
0.13935
0.140399
0.141209
0.141739
0.141943
0.141761
0.141085
0.13977
0.137333
0.126153
0.11486
0.103643
0.0926475
0.0819893
0.0717594
0.062032
0.0528691
0.044324
0.0364447
0.0293039
0.0228835
0.0172561
0.012464
0.00854035
0.00552776
0.00336956
0.00193392
0.00105033
0.000543987
0.000270677
0.000130637
6.16315e-05
2.85025e-05
1.29485e-05
5.78855e-06
2.55032e-06
1.10896e-06
4.76562e-07
2.02655e-07
8.53705e-08
3.56516e-08
1.47555e-08
6.03619e-09
2.41877e-09
9.24434e-10
3.08683e-10
5.43999e-11
4.55305e-07
1.98984e-06
4.57118e-06
8.89906e-06
1.61199e-05
2.80899e-05
4.77729e-05
7.98262e-05
0.000131433
0.000213432
0.000341772
0.000539215
0.000837092
0.00127665
0.00190931
0.00279495
0.00399765
0.00557887
0.00758957
0.0100632
0.0130116
0.0164252
0.0202755
0.0245197
0.0291057
0.0339759
0.0390705
0.0443299
0.0496968
0.0551172
0.0605414
0.0659249
0.0712286
0.0764188
0.0814676
0.0863522
0.0910537
0.095558
0.0998552
0.103938
0.107804
0.111452
0.114884
0.118102
0.12111
0.123913
0.126516
0.128924
0.131141
0.13317
0.135012
0.136665
0.138125
0.139382
0.14042
0.141216
0.141732
0.141922
0.141731
0.14106
0.139786
0.136215
0.124982
0.113656
0.102425
0.0914345
0.0807979
0.0706043
0.0609257
0.0518231
0.0433498
0.0355547
0.0284729
0.0221438
0.016625
0.011961
0.00818122
0.00526334
0.00318302
0.00181635
0.000982188
0.000507055
0.000251728
0.000121357
5.7218e-05
2.64545e-05
1.20181e-05
5.37368e-06
2.36836e-06
1.0303e-06
4.42994e-07
1.88487e-07
7.94478e-08
3.31964e-08
1.37461e-08
5.62545e-09
2.25479e-09
8.61873e-10
2.87814e-10
5.07586e-11
4.5237e-07
1.97701e-06
4.54162e-06
8.84125e-06
1.60145e-05
2.79047e-05
4.74551e-05
7.92906e-05
0.000130544
0.000211982
0.000339447
0.000535559
0.000831468
0.00126821
0.00189699
0.00277753
0.00397381
0.00554741
0.00754952
0.010014
0.0129532
0.016358
0.0202004
0.0244379
0.0290188
0.0338855
0.0389784
0.044238
0.0496069
0.0550309
0.0604604
0.0658505
0.071162
0.076361
0.0814193
0.0863139
0.0910257
0.0955404
0.0998475
0.10394
0.107815
0.111472
0.114911
0.118135
0.121148
0.123956
0.126562
0.128972
0.13119
0.133218
0.135057
0.136707
0.138161
0.139412
0.140442
0.14123
0.141737
0.141921
0.141726
0.141057
0.139789
0.13511
0.123867
0.112543
0.101326
0.0903606
0.0797616
0.0696164
0.0599958
0.0509601
0.0425469
0.034803
0.0277704
0.0215143
0.0160811
0.01151
0.00782766
0.00502799
0.00302743
0.00171641
0.000924339
0.000475816
0.000235732
0.000113529
5.34944e-05
2.4725e-05
1.12314e-05
5.02233e-06
2.21398e-06
9.63454e-07
4.14414e-07
1.76404e-07
7.43888e-08
3.10964e-08
1.28816e-08
5.27353e-09
2.11423e-09
8.08205e-10
2.69898e-10
4.76355e-11
4.49782e-07
1.9657e-06
4.51559e-06
8.7904e-06
1.59219e-05
2.77423e-05
4.71771e-05
7.88233e-05
0.000129771
0.000210725
0.000337437
0.000532409
0.00082664
0.00126099
0.00188651
0.00276276
0.00395369
0.00552097
0.00751602
0.00997302
0.0129048
0.0163026
0.0201388
0.0243713
0.0289484
0.0338128
0.0389049
0.0441653
0.0495364
0.0549641
0.0603984
0.0657945
0.0711129
0.0763195
0.081386
0.086289
0.0910095
0.0955326
0.0998478
0.103948
0.107831
0.111494
0.114939
0.118168
0.121185
0.123996
0.126604
0.129015
0.131232
0.133258
0.135095
0.136741
0.13819
0.139434
0.140458
0.141239
0.141739
0.141917
0.141718
0.141048
0.139786
0.134117
0.122867
0.11155
0.100354
0.0894226
0.0788626
0.0687536
0.0591664
0.0501573
0.041788
0.0341043
0.0271487
0.0209703
0.0156177
0.0111295
0.00753018
0.00480818
0.00289173
0.0016342
0.000875789
0.000449533
0.000222306
0.000106965
5.03724e-05
2.32745e-05
1.05711e-05
4.72716e-06
2.08415e-06
9.07162e-07
3.90317e-07
1.66203e-07
7.01125e-08
2.93193e-08
1.21495e-08
4.97519e-09
1.99503e-09
7.62713e-10
2.54686e-10
4.49908e-11
4.47546e-07
1.95592e-06
4.49312e-06
8.74654e-06
1.58421e-05
2.76027e-05
4.69385e-05
7.84229e-05
0.000129111
0.000209652
0.000335728
0.000529738
0.000822558
0.00125491
0.0018777
0.00275039
0.00393691
0.005499
0.00748828
0.00993926
0.0128651
0.0162574
0.0200888
0.0243175
0.0288919
0.0337548
0.0388468
0.0441082
0.0494816
0.0549127
0.0603514
0.0657528
0.0710771
0.0762903
0.0813636
0.0862737
0.0910013
0.0955312
0.099853
0.10396
0.107848
0.111516
0.114965
0.118198
0.121218
0.12403
0.126639
0.12905
0.131266
0.13329
0.135123
0.136765
0.138209
0.139447
0.140464
0.141238
0.141731
0.141903
0.1417
0.141029
0.139772
0.13326
0.122
0.110687
0.0995065
0.0885886
0.078042
0.0679604
0.0584123
0.0494552
0.0411405
0.033515
0.0266216
0.0205099
0.015227
0.0108106
0.00728273
0.00462761
0.00276814
0.00156401
0.000836489
0.000427837
0.000211153
0.000101522
4.77852e-05
2.20721e-05
1.00234e-05
4.48201e-06
1.97618e-06
8.60285e-07
3.70221e-07
1.57685e-07
6.6537e-08
2.78317e-08
1.1536e-08
4.72498e-09
1.89498e-09
7.24537e-10
2.41916e-10
4.27716e-11
4.45651e-07
1.94764e-06
4.47409e-06
8.70943e-06
1.57747e-05
2.74848e-05
4.67373e-05
7.80859e-05
0.000128556
0.000208753
0.000334298
0.000527509
0.000819159
0.00124986
0.0018704
0.00274018
0.00392309
0.00548097
0.0074656
0.00991174
0.0128329
0.0162209
0.0200485
0.0242744
0.0288469
0.033709
0.0388011
0.0440637
0.0494393
0.0548734
0.060316
0.0657219
0.0710513
0.0762698
0.0813489
0.0862647
0.0909979
0.0955333
0.0998603
0.103972
0.107864
0.111536
0.114988
0.118223
0.121245
0.124058
0.126667
0.129077
0.131291
0.133312
0.135142
0.136778
0.138217
0.139449
0.14046
0.141227
0.141713
0.14188
0.141673
0.141002
0.139752
0.132532
0.121256
0.109944
0.098765
0.0878627
0.077344
0.0672944
0.0577829
0.0488673
0.0405981
0.0330217
0.0261805
0.0201248
0.0149009
0.0105454
0.00707824
0.00447988
0.00266875
0.00150134
0.000803429
0.000410781
0.000202259
9.71028e-05
4.56737e-05
2.10886e-05
9.57429e-06
4.28062e-06
1.88732e-06
8.21639e-07
3.5363e-07
1.50643e-07
6.35776e-08
2.65992e-08
1.10272e-08
4.51734e-09
1.81191e-09
6.92841e-10
2.31321e-10
4.09298e-11
4.44078e-07
1.94078e-06
4.45831e-06
8.67867e-06
1.57189e-05
2.73873e-05
4.65711e-05
7.78079e-05
0.000128098
0.000208014
0.000333124
0.000525682
0.000816381
0.00124574
0.00186446
0.00273188
0.0039119
0.0054664
0.00744733
0.00988965
0.0128071
0.0161917
0.0200166
0.0242403
0.0288115
0.0336731
0.0387655
0.0440294
0.0494069
0.0548436
0.0602895
0.0656991
0.0710326
0.0762556
0.0813391
0.0862595
0.090997
0.0955367
0.0998677
0.103983
0.107878
0.111553
0.115007
0.118243
0.121266
0.124079
0.126687
0.129095
0.131306
0.133324
0.135149
0.136781
0.138214
0.13944
0.140444
0.141205
0.141685
0.141846
0.141638
0.140969
0.139729
0.131931
0.120635
0.109316
0.0981464
0.0872605
0.0767643
0.066742
0.0572617
0.0483809
0.0401497
0.0326142
0.0258164
0.0198072
0.0146323
0.0103275
0.00691087
0.00435971
0.00258869
0.00145168
0.000774291
0.000396092
0.000195195
9.36214e-05
4.39791e-05
2.02907e-05
9.20882e-06
4.11649e-06
1.8148e-06
7.90067e-07
3.40063e-07
1.4488e-07
6.11541e-08
2.55893e-08
1.06103e-08
4.34713e-09
1.74381e-09
6.66888e-10
2.22648e-10
3.94215e-11
4.42808e-07
1.93523e-06
4.44556e-06
8.65385e-06
1.56739e-05
2.73087e-05
4.64373e-05
7.75843e-05
0.000127731
0.000207421
0.000332184
0.000524221
0.000814162
0.00124246
0.00185974
0.0027253
0.00390303
0.00545488
0.00743292
0.00987227
0.0127869
0.0161689
0.0199917
0.0242138
0.0287841
0.0336454
0.0387383
0.0440032
0.0493823
0.0548213
0.0602697
0.0656823
0.071019
0.0762454
0.0813324
0.086256
0.0909969
0.0955397
0.0998735
0.103991
0.107889
0.111565
0.11502
0.118257
0.121279
0.124091
0.126698
0.129104
0.131312
0.133327
0.135148
0.136774
0.138202
0.139422
0.140419
0.141173
0.141648
0.141806
0.141596
0.14093
0.139705
0.131445
0.120131
0.108806
0.097642
0.0867693
0.0762918
0.0662922
0.0568381
0.0479861
0.0397861
0.032284
0.0255217
0.0195503
0.0144154
0.0101518
0.00677632
0.00426347
0.00252491
0.00141244
0.00075155
0.000383345
0.000188688
9.06453e-05
4.26224e-05
1.9655e-05
8.91502e-06
3.98385e-06
1.75616e-06
7.64541e-07
3.29108e-07
1.4023e-07
5.92014e-08
2.47765e-08
1.02751e-08
4.21045e-09
1.68918e-09
6.46089e-10
2.15698e-10
3.82134e-11
4.41819e-07
1.93091e-06
4.43565e-06
8.63455e-06
1.56389e-05
2.72477e-05
4.63334e-05
7.7411e-05
0.000127447
0.000206962
0.000331457
0.000523094
0.000812452
0.00123993
0.0018561
0.00272024
0.00389624
0.00544607
0.00742192
0.00985903
0.0127715
0.0161516
0.0199729
0.0241939
0.0287635
0.0336247
0.038718
0.0439837
0.0493642
0.0548048
0.0602552
0.06567
0.0710091
0.0762378
0.0813272
0.0862532
0.0909963
0.0955411
0.0998768
0.103996
0.107895
0.111572
0.115027
0.118264
0.121286
0.124097
0.126702
0.129105
0.13131
0.133321
0.135137
0.136759
0.138181
0.139394
0.140386
0.141134
0.141604
0.141759
0.14155
0.140891
0.139682
0.131061
0.119727
0.108399
0.0972393
0.0863781
0.0759165
0.0659361
0.0565035
0.047675
0.0395002
0.0320249
0.0252907
0.0193494
0.014246
0.010015
0.00667174
0.00418889
0.00247568
0.00138235
0.000734367
0.000374048
0.000183863
8.81937e-05
4.14515e-05
1.91364e-05
8.68388e-06
3.88084e-06
1.71065e-06
7.44736e-07
3.20607e-07
1.36625e-07
5.769e-08
2.41481e-08
1.00175e-08
4.10548e-09
1.64737e-09
6.30165e-10
2.10373e-10
3.72876e-11
4.41095e-07
1.92775e-06
4.42839e-06
8.62042e-06
1.56133e-05
2.7203e-05
4.62575e-05
7.72843e-05
0.000127239
0.000206627
0.000330927
0.000522272
0.000811206
0.00123809
0.00185346
0.00271657
0.00389131
0.0054397
0.00741397
0.00984947
0.0127604
0.0161392
0.0199593
0.0241796
0.0287488
0.03361
0.0387035
0.0439699
0.0493513
0.054793
0.0602449
0.0656612
0.0710018
0.0762322
0.081323
0.0862505
0.0909949
0.0955409
0.0998777
0.103998
0.107897
0.111574
0.11503
0.118266
0.121287
0.124096
0.126699
0.129099
0.131301
0.133308
0.13512
0.136736
0.138153
0.139361
0.140347
0.14109
0.141556
0.14171
0.141502
0.140852
0.139662
0.130777
0.119424
0.10809
0.0969336
0.0860814
0.0756328
0.0656678
0.0562524
0.0474423
0.0392871
0.0318323
0.0251195
0.0192007
0.014121
0.00991422
0.006595
0.00413434
0.00243976
0.00136042
0.000721871
0.000367327
0.000180414
8.64916e-05
4.06323e-05
1.87471e-05
8.51069e-06
3.80535e-06
1.67813e-06
7.30701e-07
3.14614e-07
1.34085e-07
5.66289e-08
2.37058e-08
9.83586e-09
4.03124e-09
1.61772e-09
6.18843e-10
2.06577e-10
3.66277e-11
4.40622e-07
1.92568e-06
4.42365e-06
8.61118e-06
1.55966e-05
2.71738e-05
4.6208e-05
7.72017e-05
0.000127103
0.000206409
0.000330582
0.000521738
0.000810398
0.0012369
0.00185175
0.0027142
0.00388812
0.00543557
0.00740883
0.0098433
0.0127532
0.0161312
0.0199506
0.0241704
0.0287394
0.0336005
0.0386943
0.043961
0.049343
0.0547855
0.0602382
0.0656554
0.070997
0.0762282
0.0813198
0.0862479
0.0909928
0.0955394
0.0998765
0.103997
0.107896
0.111573
0.115028
0.118263
0.121283
0.124091
0.126691
0.129089
0.131288
0.133292
0.1351
0.136712
0.138123
0.139326
0.140307
0.141045
0.141508
0.141661
0.141457
0.140816
0.139648
0.130589
0.119217
0.107876
0.0967222
0.0858769
0.0754382
0.0654848
0.0560821
0.0472854
0.0391441
0.0317036
0.0250056
0.0191022
0.0140385
0.00984802
0.00654482
0.00409885
0.00241649
0.00134623
0.00071377
0.000362968
0.000178181
8.54028e-05
4.01215e-05
1.85059e-05
8.39927e-06
3.7546e-06
1.65602e-06
7.21247e-07
3.10667e-07
1.32421e-07
5.594e-08
2.34195e-08
9.71887e-09
3.98346e-09
1.59869e-09
6.11583e-10
2.04144e-10
3.62049e-11
4.40391e-07
1.92468e-06
4.42135e-06
8.60671e-06
1.55885e-05
2.71598e-05
4.61842e-05
7.71621e-05
0.000127039
0.000206305
0.000330418
0.000521484
0.000810015
0.00123633
0.00185094
0.00271307
0.00388662
0.00543362
0.0074064
0.00984038
0.0127499
0.0161274
0.0199465
0.0241661
0.0287349
0.033596
0.0386898
0.0439568
0.049339
0.0547819
0.0602349
0.0656526
0.0709945
0.0762261
0.081318
0.0862462
0.0909911
0.0955376
0.0998747
0.103995
0.107894
0.111571
0.115025
0.11826
0.121278
0.124085
0.126684
0.12908
0.131277
0.133278
0.135083
0.136692
0.1381
0.139299
0.140276
0.141011
0.141472
0.141624
0.141422
0.140789
0.13964
0.130497
0.119108
0.107762
0.096609
0.0857683
0.0753359
0.0653898
0.0559947
0.0472058
0.0390722
0.0316396
0.0249495
0.0190542
0.0139985
0.00981622
0.00652091
0.00408209
0.0024056
0.00133965
0.000710026
0.000360953
0.000177147
8.49007e-05
3.98878e-05
1.83961e-05
8.3495e-06
3.73194e-06
1.64603e-06
7.168e-07
3.08761e-07
1.3161e-07
5.56034e-08
2.32795e-08
9.66168e-09
3.96012e-09
1.58939e-09
6.0804e-10
2.02958e-10
3.59987e-11
4.40392e-07
1.92468e-06
4.42135e-06
8.60672e-06
1.55885e-05
2.71598e-05
4.61842e-05
7.71622e-05
0.000127039
0.000206306
0.000330419
0.000521485
0.000810016
0.00123633
0.00185095
0.00271308
0.00388662
0.00543363
0.0074064
0.00984039
0.0127499
0.0161274
0.0199465
0.0241661
0.0287349
0.033596
0.0386899
0.0439568
0.049339
0.0547819
0.0602349
0.0656526
0.0709946
0.0762261
0.081318
0.0862462
0.0909911
0.0955376
0.0998747
0.103995
0.107894
0.111571
0.115025
0.11826
0.121278
0.124085
0.126684
0.12908
0.131277
0.133278
0.135083
0.136692
0.1381
0.139299
0.140276
0.141011
0.141472
0.141624
0.141422
0.140789
0.13964
0.130497
0.119108
0.107762
0.0966091
0.0857684
0.075336
0.0653899
0.0559948
0.0472058
0.0390723
0.0316396
0.0249496
0.0190542
0.0139985
0.00981625
0.00652093
0.0040821
0.00240561
0.00133966
0.000710029
0.000360955
0.000177148
8.49012e-05
3.98878e-05
1.83961e-05
8.34942e-06
3.7319e-06
1.646e-06
7.16787e-07
3.08755e-07
1.31607e-07
5.5602e-08
2.32789e-08
9.66141e-09
3.96003e-09
1.58935e-09
6.08027e-10
2.02954e-10
3.5998e-11
4.40624e-07
1.92569e-06
4.42367e-06
8.61122e-06
1.55966e-05
2.7174e-05
4.62082e-05
7.7202e-05
0.000127104
0.00020641
0.000330583
0.00052174
0.000810401
0.0012369
0.00185176
0.0027142
0.00388813
0.00543558
0.00740884
0.00984332
0.0127533
0.0161312
0.0199507
0.0241704
0.0287394
0.0336005
0.0386943
0.0439611
0.049343
0.0547856
0.0602382
0.0656554
0.070997
0.0762282
0.0813198
0.0862479
0.0909928
0.0955394
0.0998765
0.103997
0.107896
0.111573
0.115028
0.118263
0.121283
0.124091
0.126691
0.129089
0.131288
0.133292
0.1351
0.136712
0.138123
0.139326
0.140307
0.141045
0.141508
0.141661
0.141457
0.140816
0.139648
0.130589
0.119217
0.107876
0.0967223
0.0858771
0.0754383
0.065485
0.0560823
0.0472856
0.0391443
0.0317038
0.0250057
0.0191024
0.0140385
0.00984809
0.00654488
0.00409889
0.00241651
0.00134625
0.00071378
0.000362973
0.000178184
8.54044e-05
4.01216e-05
1.85059e-05
8.39913e-06
3.75453e-06
1.65596e-06
7.2122e-07
3.10653e-07
1.32416e-07
5.59372e-08
2.34183e-08
9.71822e-09
3.98326e-09
1.59857e-09
6.11551e-10
2.04135e-10
3.62033e-11
4.41099e-07
1.92776e-06
4.42843e-06
8.62048e-06
1.56134e-05
2.72032e-05
4.62578e-05
7.72848e-05
0.00012724
0.000206629
0.000330929
0.000522275
0.000811212
0.0012381
0.00185347
0.00271659
0.00389133
0.00543972
0.007414
0.00984951
0.0127604
0.0161392
0.0199594
0.0241797
0.0287489
0.03361
0.0387036
0.04397
0.0493513
0.0547931
0.0602449
0.0656612
0.0710019
0.0762322
0.081323
0.0862505
0.0909949
0.0955409
0.0998777
0.103998
0.107897
0.111574
0.11503
0.118266
0.121287
0.124096
0.126699
0.129099
0.131301
0.133308
0.13512
0.136736
0.138153
0.139361
0.140347
0.14109
0.141556
0.14171
0.141502
0.140852
0.139662
0.130777
0.119424
0.10809
0.0969339
0.0860818
0.0756331
0.0656681
0.0562527
0.0474426
0.0392874
0.0318325
0.0251197
0.0192009
0.0141211
0.00991435
0.00659511
0.00413442
0.00243981
0.00136046
0.000721889
0.000367336
0.000180419
8.6494e-05
4.06333e-05
1.87474e-05
8.51072e-06
3.80533e-06
1.6781e-06
7.30679e-07
3.146e-07
1.34078e-07
5.66254e-08
2.37042e-08
9.835e-09
4.03095e-09
1.61757e-09
6.18803e-10
2.06568e-10
3.66261e-11
4.41824e-07
1.93093e-06
4.4357e-06
8.63464e-06
1.56391e-05
2.72479e-05
4.63339e-05
7.74117e-05
0.000127448
0.000206964
0.00033146
0.000523098
0.000812459
0.00123994
0.00185612
0.00272026
0.00389627
0.00544611
0.00742196
0.00985908
0.0127715
0.0161517
0.0199729
0.024194
0.0287636
0.0336248
0.0387181
0.0439838
0.0493642
0.0548048
0.0602552
0.06567
0.0710091
0.0762379
0.0813272
0.0862532
0.0909963
0.0955412
0.0998769
0.103996
0.107895
0.111572
0.115027
0.118264
0.121286
0.124097
0.126702
0.129105
0.13131
0.133321
0.135137
0.136759
0.138181
0.139394
0.140386
0.141134
0.141604
0.141759
0.14155
0.140891
0.139682
0.131061
0.119728
0.108399
0.0972398
0.0863785
0.0759169
0.0659365
0.0565039
0.0476754
0.0395006
0.0320253
0.025291
0.0193497
0.0142462
0.0100152
0.00667189
0.004189
0.00247575
0.00138239
0.000734392
0.000374061
0.00018387
8.8197e-05
4.1453e-05
1.91369e-05
8.68402e-06
3.88086e-06
1.71066e-06
7.44737e-07
3.20607e-07
1.36625e-07
5.76895e-08
2.41477e-08
1.0017e-08
4.10534e-09
1.64728e-09
6.30152e-10
2.10374e-10
3.72878e-11
4.42814e-07
1.93525e-06
4.44562e-06
8.65396e-06
1.56741e-05
2.7309e-05
4.64379e-05
7.75853e-05
0.000127733
0.000207423
0.000332187
0.000524227
0.000814171
0.00124247
0.00185975
0.00272532
0.00390307
0.00545493
0.00743297
0.00987233
0.0127869
0.016169
0.0199918
0.0242139
0.0287842
0.0336455
0.0387384
0.0440033
0.0493824
0.0548213
0.0602698
0.0656824
0.0710191
0.0762454
0.0813324
0.0862561
0.0909969
0.0955397
0.0998735
0.103991
0.107889
0.111565
0.11502
0.118257
0.121279
0.124091
0.126698
0.129104
0.131312
0.133327
0.135148
0.136774
0.138202
0.139422
0.140419
0.141173
0.141648
0.141806
0.141596
0.14093
0.139705
0.131445
0.120132
0.108807
0.0976426
0.0867698
0.0762923
0.0662927
0.0568386
0.0479866
0.0397866
0.0322845
0.0255221
0.0195507
0.0144157
0.0101521
0.00677652
0.00426361
0.002525
0.0014125
0.000751583
0.000383363
0.000188697
9.06497e-05
4.26244e-05
1.9656e-05
8.91546e-06
3.98408e-06
1.75626e-06
7.64586e-07
3.29127e-07
1.40238e-07
5.92042e-08
2.47775e-08
1.02755e-08
4.21068e-09
1.68924e-09
6.46144e-10
2.15719e-10
3.82167e-11
4.44085e-07
1.94081e-06
4.45838e-06
8.67881e-06
1.57192e-05
2.73877e-05
4.65718e-05
7.78091e-05
0.0001281
0.000208017
0.000333128
0.000525689
0.000816391
0.00124576
0.00186448
0.00273191
0.00391194
0.00546645
0.00744739
0.00988973
0.0128072
0.0161918
0.0200167
0.0242404
0.0288116
0.0336732
0.0387656
0.0440295
0.049407
0.0548437
0.0602896
0.0656992
0.0710327
0.0762556
0.0813391
0.0862595
0.090997
0.0955367
0.0998677
0.103983
0.107878
0.111553
0.115007
0.118243
0.121266
0.124079
0.126687
0.129095
0.131306
0.133324
0.135149
0.136781
0.138214
0.13944
0.140444
0.141205
0.141685
0.141846
0.141638
0.140969
0.139729
0.131931
0.120636
0.109317
0.0981471
0.0872612
0.076765
0.0667426
0.0572624
0.0483815
0.0401503
0.0326147
0.0258169
0.0198076
0.0146327
0.0103278
0.00691111
0.00435989
0.0025888
0.00145175
0.000774332
0.000396114
0.000195206
9.36264e-05
4.39816e-05
2.0292e-05
9.20941e-06
4.11676e-06
1.81492e-06
7.90119e-07
3.40086e-07
1.44889e-07
6.11581e-08
2.5591e-08
1.0611e-08
4.34744e-09
1.74393e-09
6.66948e-10
2.22668e-10
3.94245e-11
4.45659e-07
1.94768e-06
4.47417e-06
8.70959e-06
1.5775e-05
2.74853e-05
4.67381e-05
7.80873e-05
0.000128558
0.000208757
0.000334303
0.000527517
0.000819172
0.00124988
0.00187043
0.00274021
0.00392314
0.00548103
0.00746567
0.00991183
0.012833
0.016221
0.0200487
0.0242745
0.028847
0.0337091
0.0388012
0.0440638
0.0494394
0.0548735
0.0603161
0.065722
0.0710513
0.0762699
0.0813489
0.0862648
0.0909979
0.0955333
0.0998604
0.103972
0.107864
0.111536
0.114988
0.118223
0.121245
0.124058
0.126667
0.129077
0.131291
0.133312
0.135142
0.136778
0.138217
0.139449
0.14046
0.141227
0.141713
0.14188
0.141673
0.141002
0.139752
0.132533
0.121257
0.109945
0.0987659
0.0878636
0.0773448
0.0672952
0.0577836
0.048868
0.0405988
0.0330224
0.0261811
0.0201253
0.0149014
0.0105458
0.00707852
0.00448008
0.00266889
0.00150142
0.000803477
0.000410805
0.000202271
9.71093e-05
4.56769e-05
2.10901e-05
9.57499e-06
4.28094e-06
1.88746e-06
8.21701e-07
3.53657e-07
1.50655e-07
6.35825e-08
2.66012e-08
1.10281e-08
4.51768e-09
1.81206e-09
6.929e-10
2.31339e-10
4.09324e-11
4.47556e-07
1.95597e-06
4.49322e-06
8.74673e-06
1.58425e-05
2.76032e-05
4.69395e-05
7.84245e-05
0.000129113
0.000209656
0.000335734
0.000529748
0.000822572
0.00125493
0.00187773
0.00275043
0.00393697
0.00549907
0.00748837
0.00993936
0.0128652
0.0162575
0.0200889
0.0243176
0.028892
0.033755
0.0388469
0.0441084
0.0494818
0.0549128
0.0603515
0.0657529
0.0710772
0.0762904
0.0813637
0.0862738
0.0910013
0.0955312
0.099853
0.10396
0.107848
0.111516
0.114965
0.118198
0.121218
0.12403
0.126639
0.12905
0.131266
0.13329
0.135123
0.136765
0.138209
0.139447
0.140464
0.141238
0.141731
0.141903
0.1417
0.141029
0.139772
0.133261
0.122
0.110687
0.0995074
0.0885896
0.078043
0.0679615
0.0584132
0.0494561
0.0411413
0.0335158
0.0266223
0.0205104
0.0152275
0.010811
0.00728303
0.00462783
0.00276829
0.00156411
0.000836543
0.000427868
0.000211169
0.00010153
4.7789e-05
2.20739e-05
1.00242e-05
4.48238e-06
1.97634e-06
8.60357e-07
3.70252e-07
1.57698e-07
6.65426e-08
2.7834e-08
1.15369e-08
4.72537e-09
1.89514e-09
7.24599e-10
2.41935e-10
4.27742e-11
4.49793e-07
1.96574e-06
4.5157e-06
8.79061e-06
1.59223e-05
2.7743e-05
4.71782e-05
7.88251e-05
0.000129774
0.000210729
0.000337444
0.00053242
0.000826656
0.00126102
0.00188654
0.0027628
0.00395375
0.00552105
0.00751611
0.00997314
0.012905