/*--------------------------------*- C++ -*----------------------------------*\
  =========                 |
  \\      /  F ield         | OpenFOAM: The Open Source CFD Toolbox
   \\    /   O peration     | Website:  https://openfoam.org
    \\  /    A nd           | Version:  8
     \\/     M anipulation  |
\*---------------------------------------------------------------------------*/
FoamFile
{
    version     2.0;
    format      ascii;
    class       volScalarField;
    location    "960/fluid";
    object      H2O;
}
// * * * * * * * * * * * * * * * * * * * * * * * * * * * * * * * * * * * * * //

dimensions      [0 0 0 0 0 0 0];

internalField   nonuniform List<scalar> 
4000
(
3.87559e-07
1.69352e-06
3.88948e-06
7.57046e-06
1.37145e-05
2.39131e-05
4.07261e-05
6.82116e-05
0.000112694
0.000183828
0.000295989
0.000469927
0.000734458
0.0011277
0.00169712
0.00249741
0.00358577
0.00501473
0.00682438
0.00903631
0.0116512
0.0146502
0.0179991
0.021653
0.0255614
0.0296712
0.0339301
0.0382875
0.0426969
0.0471153
0.051505
0.055833
0.060071
0.0641962
0.0681898
0.0720373
0.0757274
0.0792524
0.0826074
0.0857903
0.0888009
0.0916407
0.0943126
0.0968205
0.0991688
0.101362
0.103406
0.105304
0.107062
0.108681
0.110163
0.11151
0.112717
0.113782
0.114693
0.115437
0.115994
0.116329
0.11641
0.116182
0.115567
0.114461
0.112242
0.103618
0.0948511
0.0860871
0.0774403
0.0690003
0.0608384
0.0530128
0.0455726
0.038561
0.0320186
0.0260161
0.0205307
0.015649
0.0114237
0.00790654
0.005136
0.00310789
0.00174882
0.000919691
0.000456295
0.000217048
0.000100304
4.53042e-05
2.00854e-05
8.76896e-06
3.77939e-06
1.6113e-06
6.80676e-07
2.85308e-07
1.18784e-07
4.91493e-08
2.0201e-08
8.22324e-09
3.28493e-09
1.25371e-09
4.18644e-10
7.34081e-11
3.87899e-07
1.69539e-06
3.8955e-06
7.58683e-06
1.37536e-05
2.39967e-05
4.08872e-05
6.84906e-05
0.00011312
0.000184368
0.00029644
0.000469737
0.000732456
0.00112172
0.00168362
0.00247138
0.00354089
0.00494409
0.00672163
0.00889681
0.0114729
0.0144338
0.017748
0.0213728
0.0252588
0.0293536
0.0336048
0.0379615
0.0423761
0.0468051
0.0512095
0.0555553
0.0598136
0.0639605
0.0679766
0.0718469
0.0755595
0.0791063
0.0824821
0.0856846
0.0887134
0.09157
0.0942572
0.0967789
0.0991394
0.101344
0.103397
0.105304
0.107068
0.108693
0.11018
0.11153
0.112741
0.113808
0.11472
0.115465
0.116022
0.116356
0.116435
0.116205
0.115584
0.114469
0.111566
0.102884
0.0940711
0.0852697
0.0765924
0.0681276
0.0599468
0.0521086
0.044663
0.0376549
0.0311271
0.0251547
0.0197166
0.0149055
0.0107753
0.00737658
0.004739
0.00284138
0.00159084
0.000837171
0.000417988
0.000200553
9.36198e-05
4.27237e-05
1.91259e-05
8.42127e-06
3.65507e-06
1.56682e-06
6.64517e-07
2.79272e-07
1.16449e-07
4.82146e-08
1.98173e-08
8.06411e-09
3.21966e-09
1.22815e-09
4.09939e-10
7.19168e-11
3.88743e-07
1.6993e-06
3.90547e-06
7.60859e-06
1.37969e-05
2.40768e-05
4.10241e-05
6.87054e-05
0.000113421
0.000184719
0.000296687
0.000469459
0.000730728
0.00111691
0.00167317
0.00245153
0.00350674
0.00488987
0.0066413
0.00878491
0.0113253
0.0142486
0.0175253
0.0211149
0.0249701
0.0290399
0.0332726
0.0376178
0.0420278
0.0464587
0.0508709
0.0552295
0.0595048
0.0636719
0.0677108
0.0716054
0.0753433
0.0789156
0.0823168
0.085544
0.0885964
0.0914753
0.0941832
0.0967239
0.0991018
0.101322
0.103389
0.105308
0.107082
0.108716
0.110211
0.111567
0.112782
0.113852
0.114766
0.115512
0.116068
0.116399
0.116473
0.116235
0.115602
0.114468
0.110367
0.101644
0.0927926
0.0839606
0.0752619
0.0667869
0.0586081
0.0507858
0.0433716
0.0364123
0.0299526
0.0240595
0.0187349
0.0140597
0.0100835
0.00684825
0.00436903
0.00260711
0.00145718
0.000767864
0.000384839
0.000185479
8.70179e-05
3.99172e-05
1.79611e-05
7.94668e-06
3.46427e-06
1.49074e-06
6.3428e-07
2.67243e-07
1.11643e-07
4.62833e-08
1.90375e-08
7.74928e-09
3.09405e-09
1.18005e-09
3.93785e-10
6.91041e-11
3.88231e-07
1.69703e-06
3.90012e-06
7.59745e-06
1.3774e-05
2.40283e-05
4.09192e-05
6.84773e-05
0.000112934
0.000183711
0.000294694
0.000465708
0.000724027
0.00110546
0.0016544
0.0024221
0.0034626
0.00482661
0.00655461
0.00867117
0.011182
0.0140746
0.017321
0.0208822
0.0247118
0.0287601
0.0329761
0.0373098
0.0417138
0.0461441
0.0505607
0.0549285
0.0592172
0.0634011
0.0674595
0.0713758
0.0751368
0.0787331
0.0821585
0.0854097
0.0884855
0.0913867
0.0941158
0.0966762
0.0990724
0.101309
0.103391
0.105322
0.107108
0.10875
0.110253
0.111614
0.112833
0.113905
0.11482
0.115564
0.116116
0.11644
0.116505
0.116252
0.115601
0.11444
0.108873
0.100135
0.0912669
0.0824231
0.0737224
0.0652581
0.0571051
0.0493251
0.0419713
0.0350914
0.0287315
0.0229342
0.0177471
0.0132224
0.0094058
0.00633224
0.00400526
0.0023726
0.00131944
0.000693684
0.000347743
0.000167932
7.90192e-05
3.63747e-05
1.64286e-05
7.29663e-06
3.19298e-06
1.379e-06
5.88717e-07
2.48799e-07
1.04214e-07
4.33006e-08
1.78436e-08
7.27402e-09
2.90753e-09
1.10975e-09
3.70464e-10
6.50585e-11
3.86605e-07
1.68985e-06
3.88325e-06
7.56353e-06
1.37097e-05
2.39094e-05
4.07018e-05
6.80825e-05
0.000112222
0.000182441
0.000292459
0.000461848
0.000717507
0.00109474
0.00163733
0.00239586
0.0034238
0.00477157
0.00647974
0.00857342
0.0110593
0.013926
0.0171468
0.0206839
0.024492
0.0285221
0.0327238
0.0370476
0.0414462
0.0458756
0.0502958
0.0546711
0.0589709
0.0631691
0.0672443
0.0711794
0.0749607
0.0785783
0.0820254
0.0852982
0.0883952
0.091317
0.0940656
0.0966445
0.0990576
0.101309
0.103404
0.105347
0.107142
0.108793
0.110301
0.111667
0.112888
0.113959
0.114871
0.11561
0.116153
0.116464
0.116514
0.11624
0.11556
0.114364
0.107302
0.0985683
0.0896965
0.0808513
0.0721589
0.0637165
0.0556013
0.0478759
0.0405936
0.0338019
0.0275565
0.0218774
0.0168261
0.0124493
0.00878767
0.00586821
0.00368311
0.00216793
0.00120057
0.000630033
0.000315894
0.000152781
7.20452e-05
3.32459e-05
1.50534e-05
6.70227e-06
2.93965e-06
1.27226e-06
5.44175e-07
2.30356e-07
9.66265e-08
4.01964e-08
1.65809e-08
6.76456e-09
2.70545e-09
1.03298e-09
3.44866e-10
6.06004e-11
3.84111e-07
1.67885e-06
3.85752e-06
7.51211e-06
1.36134e-05
2.37346e-05
4.03903e-05
6.75347e-05
0.00011127
0.00018081
0.000289706
0.00045729
0.000710127
0.0010831
0.00161951
0.00236946
0.00338606
0.00471962
0.00641091
0.00848555
0.010951
0.0137968
0.0169973
0.0205154
0.0243066
0.0283225
0.0325133
0.0368297
0.0412247
0.045654
0.0500777
0.0544599
0.0587696
0.0629802
0.06707
0.0710215
0.0748205
0.0784566
0.0819225
0.0852142
0.0883298
0.0912694
0.0940353
0.0966301
0.0990573
0.101322
0.103428
0.105381
0.107184
0.10884
0.110352
0.111718
0.112938
0.114005
0.11491
0.115638
0.116167
0.11646
0.116488
0.116189
0.115479
0.114263
0.105914
0.0971567
0.0882538
0.079389
0.070695
0.0622709
0.0541932
0.0465235
0.0393135
0.0326093
0.0264752
0.0209089
0.015989
0.0117518
0.00823356
0.00545449
0.00339671
0.00198571
0.00109401
0.00057225
0.000286483
0.000138562
6.53953e-05
3.02184e-05
1.37057e-05
6.11368e-06
2.68673e-06
1.16506e-06
4.99254e-07
2.11709e-07
8.89448e-08
3.70523e-08
1.5302e-08
6.24881e-09
2.50095e-09
9.55305e-10
3.18974e-10
5.60895e-11
3.81249e-07
1.66627e-06
3.82833e-06
7.45438e-06
1.35067e-05
2.3544e-05
4.00568e-05
6.69602e-05
0.000110294
0.000179172
0.000287001
0.000452901
0.000703153
0.00107228
0.00160319
0.00234559
0.00335234
0.00467367
0.00635059
0.00840922
0.0108577
0.0136864
0.0168704
0.0203733
0.0241513
0.0281565
0.0323392
0.0366506
0.0410435
0.0454738
0.0499015
0.0542903
0.058609
0.0628308
0.0669336
0.0708995
0.0747138
0.0783659
0.0818482
0.0851561
0.0882876
0.0912428
0.0940229
0.0966305
0.0990697
0.101345
0.10346
0.10542
0.107229
0.108888
0.110401
0.111766
0.112981
0.114039
0.114931
0.11564
0.116145
0.116405
0.116395
0.116049
0.115291
0.114044
0.105174
0.0961251
0.0870614
0.0781143
0.0693891
0.0609695
0.052923
0.0453053
0.0381644
0.0315441
0.025516
0.0200593
0.01525
0.0111353
0.0077467
0.00509395
0.00314928
0.00182951
0.00100317
0.000523121
0.00026146
0.000126424
5.96864e-05
2.76003e-05
1.25303e-05
5.59553e-06
2.46192e-06
1.06886e-06
4.58574e-07
1.9468e-07
8.18777e-08
3.41411e-08
1.41115e-08
5.76655e-09
2.30905e-09
8.8222e-10
2.94571e-10
5.18341e-11
3.78285e-07
1.65328e-06
3.79825e-06
7.39513e-06
1.33977e-05
2.33505e-05
3.97207e-05
6.63857e-05
0.000109326
0.000177566
0.000284378
0.000448697
0.000696558
0.00106219
0.00158816
0.00232392
0.00332211
0.00463299
0.0062978
0.00834311
0.0107777
0.0135926
0.0167634
0.0202545
0.0240224
0.0280195
0.0321966
0.0365048
0.040897
0.0453293
0.0497612
0.0541565
0.0584836
0.0627156
0.0668299
0.0708083
0.074636
0.0783018
0.0817979
0.0851197
0.0882648
0.0912326
0.0940243
0.0966428
0.0990918
0.101375
0.103498
0.105463
0.107275
0.108936
0.110447
0.111809
0.113016
0.114063
0.114937
0.11562
0.116086
0.116293
0.116203
0.115738
0.114798
0.113277
0.10424
0.0950676
0.0859242
0.0769359
0.0682008
0.059797
0.0517873
0.0442243
0.037153
0.030614
0.0246672
0.0193096
0.0146081
0.0106023
0.00732699
0.00478494
0.00293801
0.00169628
0.000925578
0.000480994
0.000239876
0.00011589
5.47006e-05
2.52998e-05
1.14917e-05
5.13536e-06
2.26137e-06
9.82706e-07
4.22019e-07
1.79334e-07
7.54933e-08
3.15058e-08
1.3032e-08
5.32864e-09
2.13458e-09
8.15719e-10
2.72363e-10
4.79623e-11
3.75418e-07
1.64072e-06
3.76926e-06
7.33824e-06
1.32934e-05
2.31664e-05
3.94028e-05
6.5846e-05
0.000108423
0.000176079
0.000281971
0.000444872
0.000690608
0.00105316
0.00157483
0.00230483
0.00329569
0.0045977
0.00625233
0.00828658
0.0107098
0.0135134
0.0166738
0.0201557
0.0239159
0.0279072
0.0320805
0.036387
0.0407797
0.0452144
0.0496507
0.0540523
0.0583872
0.0626283
0.0667528
0.0707421
0.0745814
0.078259
0.0817671
0.0851005
0.0882565
0.0912346
0.094036
0.0966633
0.09912
0.10141
0.103538
0.105507
0.10732
0.108982
0.110491
0.111848
0.113049
0.114085
0.114944
0.115606
0.116041
0.116207
0.116058
0.115505
0.114428
0.112434
0.10328
0.0940349
0.0848514
0.0758497
0.0671239
0.0587488
0.0507851
0.0432834
0.0362877
0.0298369
0.0239909
0.0187346
0.0141275
0.0102041
0.00699191
0.00452553
0.00275863
0.00158328
0.000859894
0.000445358
0.000221601
0.000106951
5.04571e-05
2.33347e-05
1.06009e-05
4.73904e-06
2.08792e-06
9.07894e-07
3.90157e-07
1.65912e-07
6.98921e-08
2.91876e-08
1.20802e-08
4.94178e-09
1.98022e-09
7.56826e-10
2.52716e-10
4.45368e-11
3.72754e-07
1.62907e-06
3.74239e-06
7.28559e-06
1.31972e-05
2.29969e-05
3.91112e-05
6.5353e-05
0.000107603
0.000174735
0.000279806
0.000441451
0.00068532
0.00104518
0.00156313
0.0022882
0.00327284
0.00456737
0.00621351
0.00823864
0.0106525
0.0134472
0.0165994
0.0200741
0.0238286
0.0278158
0.0319866
0.0362925
0.0406864
0.045124
0.0495647
0.0539722
0.0583142
0.0625634
0.0666968
0.0706958
0.0745449
0.0782325
0.0817506
0.0850935
0.0882585
0.0912451
0.0940544
0.0966887
0.0991514
0.101446
0.103578
0.105549
0.107364
0.109025
0.110533
0.111887
0.113082
0.11411
0.11496
0.115612
0.116034
0.11619
0.116034
0.115485
0.114441
0.111518
0.102321
0.0930489
0.0838543
0.0748566
0.0661486
0.0578031
0.0498794
0.0424271
0.0354901
0.0291083
0.0233105
0.0181289
0.0136107
0.00979236
0.0066979
0.00430905
0.00260591
0.00148703
0.000804109
0.000415121
0.000206087
9.93537e-05
4.68439e-05
2.1658e-05
9.83914e-06
4.39938e-06
1.93895e-06
8.435e-07
3.62675e-07
1.54313e-07
6.50432e-08
2.71776e-08
1.12538e-08
4.60551e-09
1.84598e-09
7.05608e-10
2.35631e-10
4.15556e-11
3.70351e-07
1.61856e-06
3.71819e-06
7.23825e-06
1.31109e-05
2.28453e-05
3.88511e-05
6.49145e-05
0.000106875
0.000173548
0.000277902
0.000438458
0.000680715
0.00103827
0.00155305
0.00227394
0.00325333
0.00454162
0.00618073
0.00819836
0.0106047
0.0133922
0.0165379
0.0200071
0.0237574
0.0277417
0.0319113
0.0362173
0.0406127
0.0450533
0.0494984
0.0539113
0.0582597
0.0625161
0.0666573
0.0706644
0.0745219
0.0782181
0.0817442
0.0850949
0.0882674
0.0912609
0.0940763
0.096716
0.0991832
0.101482
0.103615
0.105588
0.107404
0.109064
0.11057
0.111921
0.113111
0.114135
0.114979
0.115624
0.116039
0.116189
0.11603
0.115482
0.114444
0.110613
0.101409
0.0921384
0.0829549
0.0739774
0.0653001
0.0569943
0.049118
0.0417206
0.0348328
0.0284929
0.0227354
0.0176136
0.0131655
0.0094231
0.00640844
0.00411637
0.00247853
0.00140521
0.000756749
0.000389546
0.000192992
9.29451e-05
4.37954e-05
2.02421e-05
9.19507e-06
4.11173e-06
1.81257e-06
7.88771e-07
3.39277e-07
1.44421e-07
6.09015e-08
2.54583e-08
1.05461e-08
4.3174e-09
1.7309e-09
6.61671e-10
2.20963e-10
3.89987e-11
3.68233e-07
1.6093e-06
3.69688e-06
7.19662e-06
1.30351e-05
2.27124e-05
3.86235e-05
6.4532e-05
0.000106243
0.000172519
0.000276257
0.000435879
0.000676763
0.00103236
0.00154447
0.00226184
0.00323685
0.00451997
0.0061533
0.00816483
0.0105651
0.0133468
0.0164875
0.0199526
0.0236998
0.0276823
0.0318511
0.0361578
0.040555
0.0449986
0.0494477
0.0538654
0.0582195
0.0624821
0.06663
0.070644
0.0745087
0.0782117
0.0817445
0.0851016
0.0882801
0.091279
0.0940991
0.0967429
0.0992133
0.101514
0.10365
0.105623
0.107438
0.109097
0.110601
0.111948
0.113135
0.114154
0.114992
0.115631
0.116041
0.116186
0.116023
0.115475
0.114441
0.1098
0.10059
0.0913249
0.0821588
0.0732095
0.0645641
0.0562879
0.048439
0.0410633
0.0342115
0.0279209
0.0222264
0.0171682
0.0127861
0.00911163
0.00616489
0.00393641
0.00236743
0.00133791
0.000717
0.000368028
0.000182
8.7571e-05
4.12394e-05
1.90546e-05
8.6545e-06
3.87008e-06
1.70628e-06
7.42686e-07
3.19549e-07
1.36069e-07
5.74005e-08
2.40035e-08
9.94668e-09
4.07315e-09
1.63331e-09
6.24427e-10
2.08509e-10
3.68336e-11
3.66402e-07
1.6013e-06
3.67848e-06
7.16072e-06
1.29698e-05
2.25981e-05
3.84281e-05
6.42042e-05
0.000105702
0.000171641
0.000274857
0.000433692
0.000673421
0.00102739
0.00153725
0.00225172
0.00322312
0.00450198
0.00613059
0.00813718
0.0105326
0.0133098
0.0164465
0.0199085
0.0236535
0.0276348
0.0318035
0.036111
0.0405102
0.0449565
0.0494092
0.0538312
0.0581902
0.0624582
0.0666117
0.0706315
0.0745019
0.0782105
0.0817488
0.085111
0.0882941
0.0912971
0.0941209
0.0967675
0.0992401
0.101542
0.103678
0.105652
0.107466
0.109123
0.110624
0.111968
0.11315
0.114164
0.114997
0.11563
0.116034
0.116175
0.116009
0.115459
0.11443
0.109099
0.09988
0.0906183
0.0814651
0.0725267
0.0638923
0.0556386
0.0478216
0.0404886
0.0336814
0.0274385
0.0217949
0.0167913
0.0124662
0.00885052
0.00596231
0.00378858
0.00226625
0.00128044
0.000684826
0.000350267
0.000172869
8.31154e-05
3.91213e-05
1.80703e-05
8.20605e-06
3.66939e-06
1.61788e-06
7.04308e-07
3.03097e-07
1.29095e-07
5.44733e-08
2.27856e-08
9.44441e-09
3.8683e-09
1.5514e-09
5.93172e-10
1.98054e-10
3.50168e-11
3.6485e-07
1.59452e-06
3.6629e-06
7.13033e-06
1.29146e-05
2.25015e-05
3.82634e-05
6.39282e-05
0.000105247
0.000170905
0.000273687
0.000431867
0.000670639
0.00102325
0.00153128
0.00224336
0.0032118
0.00448722
0.00611202
0.00811466
0.0105062
0.0132799
0.0164136
0.0198732
0.0236167
0.0275972
0.0317661
0.0360746
0.0404755
0.0449244
0.0493802
0.0538059
0.058169
0.0624414
0.0665996
0.0706242
0.0744991
0.0782123
0.0817548
0.0851209
0.0883076
0.0913136
0.0941399
0.0967884
0.0992623
0.101565
0.103701
0.105674
0.107487
0.109141
0.110639
0.111979
0.113157
0.114166
0.114993
0.115621
0.116019
0.116156
0.115987
0.115437
0.114414
0.108503
0.0992714
0.0900101
0.0808581
0.0719325
0.0633209
0.0550933
0.0473063
0.0400072
0.0332373
0.0270346
0.0214337
0.016476
0.0121993
0.00863342
0.00579489
0.00366764
0.00218488
0.00122913
0.00065776
0.000336302
0.000165588
7.94972e-05
3.73927e-05
1.72651e-05
7.83839e-06
3.5045e-06
1.54513e-06
6.72669e-07
2.89514e-07
1.2333e-07
5.20504e-08
2.17765e-08
9.0279e-09
3.6983e-09
1.4834e-09
5.67223e-10
1.8938e-10
3.35088e-11
3.63563e-07
1.5889e-06
3.64998e-06
7.10515e-06
1.28689e-05
2.24217e-05
3.81273e-05
6.37006e-05
0.000104873
0.000170299
0.000272725
0.000430371
0.000668364
0.00101988
0.00152642
0.00223657
0.00320264
0.00447529
0.00609706
0.00809657
0.0104851
0.013256
0.0163874
0.0198453
0.0235877
0.0275678
0.031737
0.0360464
0.040449
0.0449
0.0493585
0.0537873
0.0581538
0.0624298
0.0665916
0.0706199
0.0744984
0.078215
0.0817608
0.0851299
0.088319
0.0913272
0.0941551
0.0968048
0.0992792
0.101582
0.103717
0.105689
0.107499
0.109151
0.110646
0.111982
0.113155
0.114158
0.11498
0.115603
0.115996
0.116128
0.115957
0.11541
0.114395
0.108011
0.0987627
0.0894962
0.0803516
0.0714394
0.0628463
0.0546411
0.0468797
0.039609
0.0328702
0.0267009
0.0211356
0.016216
0.0119793
0.00845502
0.00565787
0.00356926
0.00211934
0.00118848
0.000633905
0.000324277
0.000159805
7.6647e-05
3.60053e-05
1.66119e-05
7.53918e-06
3.37014e-06
1.48576e-06
6.46821e-07
2.78407e-07
1.18612e-07
5.00663e-08
2.09498e-08
8.68658e-09
3.55896e-09
1.42764e-09
5.45975e-10
1.8228e-10
3.2274e-11
3.62523e-07
1.58435e-06
3.63954e-06
7.08483e-06
1.28321e-05
2.23574e-05
3.80178e-05
6.35176e-05
0.000104572
0.000169814
0.000271956
0.000429175
0.000666547
0.00101719
0.00152255
0.00223118
0.00319538
0.00446586
0.00608527
0.00808234
0.0104685
0.0132374
0.016367
0.0198237
0.0235653
0.0275452
0.0317147
0.036025
0.0404289
0.0448817
0.0493423
0.0537735
0.0581427
0.0624214
0.0665861
0.0706171
0.0744983
0.0782175
0.0817656
0.0851367
0.0883276
0.0913371
0.0941659
0.096816
0.0992903
0.101593
0.103727
0.105696
0.107504
0.109153
0.110644
0.111976
0.113145
0.114143
0.11496
0.115577
0.115966
0.116095
0.115923
0.115378
0.114375
0.107613
0.0983504
0.0890789
0.0799387
0.0710372
0.0624594
0.0542728
0.0465328
0.0392858
0.0325725
0.0264307
0.0208944
0.0160057
0.0118018
0.00831123
0.00554772
0.00349046
0.00206712
0.00115635
0.000615287
0.000313841
0.000154477
7.42105e-05
3.48946e-05
1.60914e-05
7.29865e-06
3.26154e-06
1.43775e-06
6.25923e-07
2.69438e-07
1.14805e-07
4.84677e-08
2.02843e-08
8.41216e-09
3.44706e-09
1.38292e-09
5.28947e-10
1.7659e-10
3.12849e-11
3.61714e-07
1.58082e-06
3.63143e-06
7.06903e-06
1.28034e-05
2.23074e-05
3.79328e-05
6.33757e-05
0.000104339
0.000169438
0.000271361
0.000428252
0.000665147
0.00101512
0.00151958
0.00222704
0.00318982
0.00445865
0.00607626
0.0080715
0.0104559
0.0132232
0.0163516
0.0198073
0.0235484
0.0275283
0.0316981
0.0360091
0.040414
0.0448682
0.0493304
0.0537634
0.0581345
0.0624152
0.0665818
0.0706147
0.0744979
0.0782187
0.0817683
0.0851407
0.0883326
0.0913428
0.0941719
0.0968219
0.0992957
0.101597
0.103729
0.105697
0.107503
0.109149
0.110636
0.111963
0.113127
0.114121
0.114933
0.115545
0.11593
0.116057
0.115886
0.115346
0.114356
0.107298
0.0980197
0.088745
0.079609
0.070717
0.0621522
0.0539813
0.0462589
0.0390311
0.0323385
0.0262185
0.0207053
0.0158412
0.0116631
0.00819916
0.0054621
0.00342941
0.00202681
0.00113172
0.00060122
0.00030623
0.000150527
7.22034e-05
3.3936e-05
1.56668e-05
7.10942e-06
3.17721e-06
1.4005e-06
6.09709e-07
2.62479e-07
1.11854e-07
4.72303e-08
1.97698e-08
8.2012e-09
3.36112e-09
1.34869e-09
5.1591e-10
1.7223e-10
3.0527e-11
3.61121e-07
1.57823e-06
3.62549e-06
7.05746e-06
1.27825e-05
2.22709e-05
3.78706e-05
6.32719e-05
0.000104169
0.000169164
0.000270927
0.000427579
0.000664128
0.00101361
0.00151742
0.00222403
0.00318578
0.00445343
0.00606975
0.00806368
0.0104468
0.013213
0.0163405
0.0197956
0.0235364
0.0275162
0.0316863
0.0359978
0.0404034
0.0448586
0.0493219
0.0537562
0.0581286
0.0624106
0.0665784
0.0706125
0.0744967
0.0782185
0.081769
0.085142
0.0883344
0.0913447
0.0941737
0.0968232
0.0992962
0.101596
0.103727
0.105692
0.107495
0.109138
0.110622
0.111945
0.113105
0.114093
0.114901
0.115509
0.11589
0.116016
0.115847
0.115314
0.11434
0.107066
0.0977712
0.0884919
0.0793587
0.0704741
0.0619199
0.0537616
0.0460533
0.0388406
0.032164
0.0260608
0.0205651
0.0157195
0.0115607
0.00811668
0.00539927
0.00338475
0.00199741
0.00111377
0.00059099
0.000300727
0.000147703
7.08099e-05
3.32653e-05
1.53481e-05
6.96763e-06
3.1154e-06
1.37387e-06
5.98218e-07
2.57572e-07
1.09774e-07
4.63616e-08
1.94077e-08
8.05254e-09
3.30034e-09
1.32441e-09
5.06641e-10
1.69123e-10
2.99868e-11
3.60733e-07
1.57654e-06
3.6216e-06
7.0499e-06
1.27688e-05
2.2247e-05
3.783e-05
6.32043e-05
0.000104058
0.000168985
0.000270645
0.000427142
0.000663466
0.00101264
0.00151601
0.00222209
0.00318317
0.00445005
0.00606554
0.00805863
0.010441
0.0132065
0.0163334
0.0197881
0.0235287
0.0275084
0.0316787
0.0359905
0.0403967
0.0448524
0.0493165
0.0537515
0.0581246
0.0624073
0.0665758
0.0706104
0.074495
0.0782172
0.081768
0.0851413
0.0883336
0.0913438
0.0941724
0.0968213
0.0992933
0.101592
0.103721
0.105684
0.107485
0.109125
0.110605
0.111925
0.11308
0.114065
0.114868
0.115473
0.115851
0.115977
0.11581
0.115285
0.114328
0.106912
0.0976019
0.0883174
0.0791856
0.0703067
0.0617606
0.0536118
0.0459139
0.0387122
0.0320469
0.0259555
0.0204719
0.0156388
0.0114932
0.00806248
0.00535819
0.00335569
0.00197836
0.00110215
0.000584357
0.000297159
0.000145875
6.99185e-05
3.28471e-05
1.51506e-05
6.87641e-06
3.07386e-06
1.35577e-06
5.90478e-07
2.54341e-07
1.08412e-07
4.57976e-08
1.91733e-08
7.95675e-09
3.26122e-09
1.30883e-09
5.00697e-10
1.67131e-10
2.96406e-11
3.60545e-07
1.57572e-06
3.61972e-06
7.04624e-06
1.27621e-05
2.22355e-05
3.78106e-05
6.31719e-05
0.000104006
0.0001689
0.00027051
0.000426935
0.000663152
0.00101217
0.00151535
0.00222117
0.00318194
0.00444846
0.00606355
0.00805624
0.0104382
0.0132034
0.01633
0.0197845
0.023525
0.0275047
0.031675
0.035987
0.0403934
0.0448495
0.0493138
0.0537492
0.0581226
0.0624056
0.0665743
0.070609
0.0744936
0.0782158
0.0817665
0.0851397
0.088332
0.0913419
0.0941701
0.0968184
0.0992896
0.101587
0.103715
0.105677
0.107476
0.109114
0.110592
0.111909
0.113061
0.114043
0.114843
0.115445
0.115822
0.115946
0.115781
0.115263
0.114322
0.106837
0.0975127
0.0882238
0.0790929
0.0702178
0.0616769
0.0535341
0.0458424
0.038647
0.0319881
0.0259031
0.020426
0.0155995
0.0114605
0.00803645
0.00533861
0.00334197
0.00196945
0.00109676
0.000581292
0.000295509
0.000145029
6.95074e-05
3.26558e-05
1.50607e-05
6.83566e-06
3.05531e-06
1.34759e-06
5.86838e-07
2.5278e-07
1.07748e-07
4.5522e-08
1.90587e-08
7.90993e-09
3.24212e-09
1.30122e-09
4.97797e-10
1.6616e-10
2.94718e-11
3.60545e-07
1.57572e-06
3.61972e-06
7.04625e-06
1.27622e-05
2.22355e-05
3.78106e-05
6.3172e-05
0.000104006
0.000168901
0.000270511
0.000426935
0.000663153
0.00101217
0.00151535
0.00222117
0.00318194
0.00444846
0.00606356
0.00805624
0.0104382
0.0132034
0.01633
0.0197845
0.023525
0.0275048
0.031675
0.0359871
0.0403934
0.0448495
0.0493138
0.0537492
0.0581226
0.0624056
0.0665743
0.070609
0.0744936
0.0782158
0.0817665
0.0851397
0.088332
0.0913419
0.0941701
0.0968184
0.0992896
0.101587
0.103715
0.105677
0.107476
0.109114
0.110592
0.111909
0.113061
0.114043
0.114843
0.115445
0.115822
0.115946
0.115781
0.115263
0.114322
0.106837
0.0975127
0.0882239
0.079093
0.0702178
0.0616769
0.0535341
0.0458424
0.038647
0.0319881
0.0259031
0.020426
0.0155995
0.0114605
0.00803647
0.00533863
0.00334198
0.00196945
0.00109677
0.000581295
0.00029551
0.00014503
6.95079e-05
3.26558e-05
1.50607e-05
6.8356e-06
3.05527e-06
1.34757e-06
5.86827e-07
2.52775e-07
1.07746e-07
4.55209e-08
1.90583e-08
7.90971e-09
3.24205e-09
1.30118e-09
4.97786e-10
1.66157e-10
2.94713e-11
3.60735e-07
1.57655e-06
3.62162e-06
7.04993e-06
1.27688e-05
2.22471e-05
3.78302e-05
6.32046e-05
0.000104059
0.000168986
0.000270646
0.000427144
0.000663468
0.00101264
0.00151602
0.0022221
0.00318318
0.00445007
0.00606555
0.00805864
0.010441
0.0132065
0.0163334
0.0197881
0.0235287
0.0275085
0.0316787
0.0359905
0.0403967
0.0448524
0.0493165
0.0537515
0.0581246
0.0624074
0.0665758
0.0706104
0.074495
0.0782172
0.081768
0.0851413
0.0883336
0.0913438
0.0941724
0.0968212
0.0992933
0.101592
0.103721
0.105684
0.107485
0.109125
0.110605
0.111925
0.11308
0.114065
0.114868
0.115473
0.115851
0.115977
0.11581
0.115285
0.114328
0.106912
0.097602
0.0883175
0.0791857
0.0703068
0.0617607
0.053612
0.0459141
0.0387123
0.0320471
0.0259556
0.020472
0.0156389
0.0114932
0.00806255
0.00535824
0.00335573
0.00197838
0.00110216
0.000584366
0.000297163
0.000145878
6.99198e-05
3.28472e-05
1.51506e-05
6.87629e-06
3.0738e-06
1.35572e-06
5.90457e-07
2.54329e-07
1.08407e-07
4.57953e-08
1.91723e-08
7.95622e-09
3.26106e-09
1.30874e-09
5.00671e-10
1.67124e-10
2.96393e-11
3.61124e-07
1.57824e-06
3.62551e-06
7.05751e-06
1.27826e-05
2.2271e-05
3.78709e-05
6.32724e-05
0.00010417
0.000169165
0.000270929
0.000427582
0.000664132
0.00101362
0.00151742
0.00222405
0.0031858
0.00445345
0.00606977
0.00806371
0.0104469
0.0132131
0.0163406
0.0197957
0.0235365
0.0275162
0.0316863
0.0359978
0.0404035
0.0448586
0.049322
0.0537563
0.0581286
0.0624106
0.0665785
0.0706125
0.0744967
0.0782185
0.081769
0.085142
0.0883344
0.0913447
0.0941737
0.0968232
0.0992962
0.101596
0.103727
0.105692
0.107495
0.109138
0.110622
0.111945
0.113105
0.114093
0.114901
0.115509
0.11589
0.116016
0.115847
0.115314
0.11434
0.107066
0.0977715
0.0884922
0.0793589
0.0704744
0.0619202
0.0537619
0.0460536
0.0388408
0.0321642
0.026061
0.0205653
0.0157196
0.0115608
0.00811679
0.00539936
0.00338481
0.00199745
0.00111379
0.000591004
0.000300735
0.000147707
7.08119e-05
3.32661e-05
1.53483e-05
6.96765e-06
3.11539e-06
1.37384e-06
5.98201e-07
2.5756e-07
1.09768e-07
4.63588e-08
1.94064e-08
8.05183e-09
3.3001e-09
1.32429e-09
5.06609e-10
1.69115e-10
2.99855e-11
3.61717e-07
1.58084e-06
3.63147e-06
7.0691e-06
1.28036e-05
2.23076e-05
3.79332e-05
6.33763e-05
0.00010434
0.00016944
0.000271363
0.000428256
0.000665153
0.00101513
0.00151959
0.00222705
0.00318984
0.00445868
0.00607629
0.00807154
0.0104559
0.0132233
0.0163517
0.0198074
0.0235485
0.0275283
0.0316981
0.0360091
0.0404141
0.0448682
0.0493304
0.0537635
0.0581345
0.0624153
0.0665819
0.0706148
0.0744979
0.0782187
0.0817683
0.0851407
0.0883326
0.0913428
0.0941719
0.0968218
0.0992957
0.101597
0.103729
0.105697
0.107503
0.109149
0.110636
0.111963
0.113127
0.114121
0.114933
0.115545
0.11593
0.116057
0.115886
0.115346
0.114356
0.107299
0.09802
0.0887454
0.0796094
0.0707173
0.0621525
0.0539816
0.0462592
0.0390314
0.0323388
0.0262188
0.0207056
0.0158414
0.0116633
0.00819932
0.00546222
0.0034295
0.00202687
0.00113175
0.000601241
0.000306241
0.000150533
7.22061e-05
3.39372e-05
1.56673e-05
7.10953e-06
3.17723e-06
1.4005e-06
6.0971e-07
2.62478e-07
1.11853e-07
4.72299e-08
1.97695e-08
8.20082e-09
3.36101e-09
1.34862e-09
5.159e-10
1.72231e-10
3.05272e-11
3.62528e-07
1.58437e-06
3.63959e-06
7.08492e-06
1.28322e-05
2.23577e-05
3.80183e-05
6.35184e-05
0.000104574
0.000169816
0.000271959
0.00042918
0.000666555
0.0010172
0.00152256
0.0022312
0.00319541
0.0044659
0.00608531
0.00808239
0.0104685
0.0132374
0.0163671
0.0198237
0.0235654
0.0275453
0.0317148
0.0360251
0.0404289
0.0448817
0.0493423
0.0537736
0.0581427
0.0624215
0.0665861
0.0706171
0.0744984
0.0782175
0.0817656
0.0851367
0.0883276
0.0913371
0.0941659
0.096816
0.0992903
0.101593
0.103727
0.105696
0.107504
0.109153
0.110644
0.111976
0.113145
0.114143
0.11496
0.115577
0.115966
0.116095
0.115923
0.115378
0.114375
0.107613
0.0983509
0.0890794
0.0799391
0.0710377
0.0624599
0.0542733
0.0465332
0.0392862
0.0325729
0.026431
0.0208947
0.016006
0.011802
0.00831143
0.00554788
0.00349058
0.0020672
0.0011564
0.000615315
0.000313856
0.000154484
7.42141e-05
3.48962e-05
1.60922e-05
7.29901e-06
3.26173e-06
1.43783e-06
6.2596e-07
2.69453e-07
1.14812e-07
4.84699e-08
2.02851e-08
8.41243e-09
3.44725e-09
1.38297e-09
5.28993e-10
1.76607e-10
3.12877e-11
3.63569e-07
1.58892e-06
3.65004e-06
7.10526e-06
1.28691e-05
2.24221e-05
3.81279e-05
6.37016e-05
0.000104874
0.000170302
0.000272729
0.000430377
0.000668372
0.00101989
0.00152644
0.00223659
0.00320267
0.00447533
0.00609711
0.00809663
0.0104851
0.0132561
0.0163875
0.0198454
0.0235878
0.0275679
0.0317371
0.0360465
0.040449
0.0449001
0.0493585
0.0537873
0.0581538
0.0624298
0.0665916
0.0706199
0.0744985
0.078215
0.0817608
0.0851299
0.088319
0.0913272
0.0941551
0.0968048
0.0992792
0.101582
0.103717
0.105689
0.107499
0.109151
0.110646
0.111981
0.113155
0.114158
0.11498
0.115603
0.115996
0.116128
0.115957
0.11541
0.114395
0.108011
0.0987633
0.0894968
0.0803522
0.07144
0.0628468
0.0546416
0.0468802
0.0396095
0.0328707
0.0267014
0.021136
0.0162163
0.0119797
0.00845528
0.00565807
0.0035694
0.00211943
0.00118854
0.000633938
0.000324295
0.000159814
7.66511e-05
3.60073e-05
1.66129e-05
7.53967e-06
3.37036e-06
1.48586e-06
6.46864e-07
2.78425e-07
1.1862e-07
5.00696e-08
2.09511e-08
8.68712e-09
3.55921e-09
1.42774e-09
5.46025e-10
1.82296e-10
3.22765e-11
3.64857e-07
1.59455e-06
3.66297e-06
7.13046e-06
1.29149e-05
2.2502e-05
3.82641e-05
6.39294e-05
0.000105249
0.000170907
0.000273691
0.000431873
0.000670649
0.00102327
0.0015313
0.00224339
0.00321184
0.00448727
0.00611208
0.00811473
0.0105063
0.01328
0.0164137
0.0198733
0.0236168
0.0275973
0.0317662
0.0360747
0.0404756
0.0449245
0.0493803
0.053806
0.0581691
0.0624415
0.0665997
0.0706242
0.0744992
0.0782123
0.0817548
0.085121
0.0883076
0.0913136
0.0941399
0.0967884
0.0992623
0.101565
0.103701
0.105674
0.107486
0.109141
0.110639
0.111979
0.113157
0.114166
0.114993
0.115621
0.116019
0.116156
0.115987
0.115437
0.114414
0.108503
0.0992721
0.0900108
0.0808588
0.0719331
0.0633215
0.055094
0.047307
0.0400078
0.0332379
0.0270351
0.0214342
0.0164764
0.0121996
0.00863372
0.00579512
0.00366781
0.00218499
0.0012292
0.000657799
0.000336322
0.000165598
7.95025e-05
3.73953e-05
1.72663e-05
7.83896e-06
3.50477e-06
1.54525e-06
6.7272e-07
2.89536e-07
1.2334e-07
5.20544e-08
2.17782e-08
9.0286e-09
3.69859e-09
1.48351e-09
5.67272e-10
1.89395e-10
3.3511e-11
3.6641e-07
1.60133e-06
3.67856e-06
7.16087e-06
1.29701e-05
2.25985e-05
3.84289e-05
6.42054e-05
0.000105704
0.000171644
0.000274862
0.0004337
0.000673433
0.0010274
0.00153728
0.00225175
0.00322316
0.00450204
0.00613066
0.00813727
0.0105327
0.0133099
0.0164466
0.0199086
0.0236536
0.0276349
0.0318036
0.0361111
0.0405103
0.0449566
0.0494093
0.0538313
0.0581903
0.0624582
0.0666118
0.0706316
0.074502
0.0782106
0.0817488
0.085111
0.0882941
0.0912971
0.0941208
0.0967675
0.0992401
0.101542
0.103678
0.105652
0.107466
0.109123
0.110624
0.111968
0.11315
0.114164
0.114997
0.11563
0.116034
0.116175
0.116009
0.115459
0.11443
0.1091
0.0998806
0.0906188
0.0814658
0.0725276
0.0638932
0.0556394
0.0478224
0.0404893
0.0336821
0.0274391
0.0217954
0.0167917
0.0124666
0.00885084
0.00596256
0.00378877
0.00226638
0.00128052
0.000684871
0.000350292
0.000172882
8.31218e-05
3.91244e-05
1.80717e-05
8.20671e-06
3.66969e-06
1.61802e-06
7.04366e-07
3.03122e-07
1.29106e-07
5.44778e-08
2.27875e-08
9.4452e-09
3.86862e-09