/*--------------------------------*- C++ -*----------------------------------*\
  =========                 |
  \\      /  F ield         | OpenFOAM: The Open Source CFD Toolbox
   \\    /   O peration     | Website:  https://openfoam.org
    \\  /    A nd           | Version:  8
     \\/     M anipulation  |
\*---------------------------------------------------------------------------*/
FoamFile
{
    version     2.0;
    format      ascii;
    class       volScalarField;
    location    "960/fluid";
    object      N2;
}
// * * * * * * * * * * * * * * * * * * * * * * * * * * * * * * * * * * * * * //

dimensions      [0 0 0 0 0 0 0];

internalField   nonuniform List<scalar> 
4000
(
2.30604e-06
1.00767e-05
2.3143e-05
4.50455e-05
8.16034e-05
0.000142287
0.000242328
0.000405872
0.000670549
0.00109381
0.00176118
0.00279613
0.0043701
0.00670992
0.0100979
0.0148595
0.021335
0.0298369
0.0406036
0.0537634
0.0693202
0.087162
0.107085
0.128822
0.152072
0.17652
0.201853
0.227772
0.253999
0.28028
0.306388
0.332128
0.357333
0.381866
0.405616
0.428498
0.450444
0.47141
0.491369
0.510308
0.52823
0.545147
0.561078
0.576051
0.590099
0.603258
0.615568
0.627068
0.637802
0.64781
0.657135
0.665817
0.673895
0.681409
0.688395
0.694889
0.700924
0.706455
0.711536
0.716396
0.720917
0.725125
0.728991
0.732702
0.736252
0.739647
0.742886
0.745972
0.748901
0.751673
0.754282
0.756722
0.758988
0.761058
0.762945
0.764622
0.766074
0.767283
0.768235
0.768932
0.769399
0.769684
0.769843
0.769925
0.769966
0.769984
0.769993
0.769997
0.769999
0.769999
0.77
0.77
0.77
0.77
0.77
0.77
0.77
0.77
0.77
0.77
2.30809e-06
1.0088e-05
2.31792e-05
4.51436e-05
8.18375e-05
0.000142787
0.000243291
0.00040754
0.000673098
0.00109704
0.0017639
0.00279505
0.00435828
0.00667443
0.0100178
0.014705
0.0210685
0.0294173
0.0399931
0.0529345
0.0682606
0.0858764
0.105593
0.127157
0.150274
0.174633
0.199921
0.225836
0.252095
0.278438
0.304634
0.330481
0.355807
0.380469
0.404353
0.42737
0.44945
0.470546
0.490629
0.509686
0.527717
0.544734
0.560757
0.575814
0.589937
0.603162
0.615532
0.627085
0.637864
0.647913
0.657271
0.665982
0.674085
0.681619
0.688622
0.695129
0.701175
0.706712
0.711797
0.716661
0.721185
0.725391
0.729263
0.732983
0.736542
0.739944
0.74319
0.74628
0.749214
0.751988
0.754597
0.757035
0.759295
0.761354
0.763224
0.764877
0.766297
0.767465
0.768371
0.769023
0.769453
0.769712
0.769856
0.769931
0.769968
0.769985
0.769993
0.769997
0.769999
0.769999
0.77
0.77
0.77
0.77
0.77
0.77
0.77
0.77
0.77
0.77
2.31315e-06
1.01114e-05
2.32389e-05
4.52738e-05
8.20968e-05
0.000143266
0.000244109
0.000408824
0.0006749
0.00109915
0.0017654
0.00279346
0.00434809
0.006646
0.00995582
0.0145872
0.0208657
0.0290953
0.0395161
0.05227
0.0673844
0.0847762
0.10427
0.125626
0.14856
0.17277
0.197949
0.223797
0.250029
0.276384
0.302626
0.328549
0.353976
0.378759
0.402779
0.425941
0.448172
0.469421
0.489655
0.508859
0.527032
0.544184
0.560333
0.575506
0.589736
0.603059
0.615516
0.627147
0.637995
0.648103
0.657515
0.666271
0.674412
0.681979
0.689008
0.695537
0.701599
0.707142
0.712231
0.717097
0.721612
0.725816
0.729706
0.73344
0.737008
0.740416
0.743664
0.746754
0.749683
0.752448
0.755044
0.757464
0.759699
0.76173
0.763561
0.765168
0.766534
0.767646
0.768498
0.769104
0.769499
0.769736
0.769868
0.769936
0.76997
0.769986
0.769994
0.769997
0.769999
0.769999
0.77
0.77
0.77
0.77
0.77
0.77
0.77
0.77
0.77
0.77
2.31015e-06
1.00981e-05
2.32076e-05
4.52085e-05
8.19623e-05
0.000142981
0.000243491
0.000407476
0.000672017
0.00109318
0.00175358
0.00277121
0.00430832
0.00657799
0.0098444
0.0144124
0.0206036
0.0287196
0.0390012
0.0515945
0.0665334
0.0837431
0.103058
0.124244
0.147027
0.17111
0.19619
0.221969
0.248166
0.274518
0.300788
0.326767
0.352273
0.377156
0.401293
0.424584
0.446953
0.468345
0.488724
0.508073
0.526386
0.543673
0.55995
0.575244
0.589587
0.603015
0.615565
0.62728
0.638204
0.648378
0.657847
0.666653
0.674837
0.682439
0.689497
0.696049
0.702129
0.707672
0.712755
0.717619
0.722142
0.726342
0.730248
0.733989
0.737561
0.740968
0.744212
0.747294
0.75021
0.752957
0.75553
0.757921
0.76012
0.762117
0.7639
0.765455
0.766767
0.767823
0.768623
0.769184
0.769546
0.769762
0.76988
0.769942
0.769973
0.769987
0.769994
0.769997
0.769999
0.77
0.77
0.77
0.77
0.77
0.77
0.77
0.77
0.77
0.77
0.77
2.30053e-06
1.00556e-05
2.31077e-05
4.50077e-05
8.15815e-05
0.000142277
0.000242203
0.000405136
0.000667796
0.00108565
0.00174032
0.0027483
0.00426962
0.00651438
0.00974306
0.0142566
0.0203732
0.0283928
0.0385567
0.0510142
0.0658049
0.0828611
0.102024
0.123068
0.145723
0.169698
0.194694
0.220415
0.246581
0.272928
0.29922
0.325244
0.350817
0.375785
0.400022
0.423426
0.445917
0.467436
0.487945
0.507424
0.525867
0.543279
0.559677
0.575085
0.589533
0.603055
0.615694
0.627489
0.638484
0.648721
0.658245
0.667097
0.675321
0.682955
0.69004
0.696613
0.702701
0.708227
0.713317
0.718195
0.722717
0.726884
0.730818
0.734562
0.738133
0.741536
0.744771
0.747839
0.750738
0.753462
0.756008
0.758366
0.760525
0.76248
0.764217
0.765721
0.76698
0.767983
0.768734
0.769255
0.769587
0.769783
0.769891
0.769947
0.769975
0.769989
0.769995
0.769998
0.769999
0.77
0.77
0.77
0.77
0.77
0.77
0.77
0.77
0.77
0.77
0.77
2.28574e-06
9.99037e-06
2.29551e-05
4.47027e-05
8.10101e-05
0.00014124
0.000240354
0.000401886
0.000662149
0.00107597
0.00172398
0.00272124
0.00422581
0.00644526
0.00963722
0.0140999
0.0201492
0.0280844
0.0381481
0.0504926
0.0651624
0.0820948
0.101137
0.122068
0.144624
0.168516
0.193447
0.219125
0.245269
0.271617
0.29793
0.323996
0.349629
0.374672
0.398996
0.422498
0.445094
0.466724
0.487347
0.50694
0.525494
0.543015
0.559519
0.575028
0.589568
0.603178
0.615896
0.627762
0.638819
0.649112
0.658682
0.667574
0.675829
0.683489
0.690593
0.697174
0.703274
0.708801
0.713907
0.718788
0.723305
0.727433
0.731368
0.735115
0.738684
0.742079
0.745303
0.748356
0.751235
0.753935
0.756452
0.758778
0.760897
0.762813
0.764504
0.765961
0.76717
0.768125
0.768832
0.769317
0.769624
0.769803
0.769901
0.769952
0.769978
0.76999
0.769995
0.769998
0.769999
0.77
0.77
0.77
0.77
0.77
0.77
0.77
0.77
0.77
0.77
0.77
2.26876e-06
9.91577e-06
2.27819e-05
4.43602e-05
8.03768e-05
0.000140108
0.000238376
0.000398477
0.000656352
0.00106624
0.00170793
0.00269519
0.00418441
0.00638104
0.00954034
0.0139582
0.019949
0.0278117
0.0377902
0.0500398
0.064609
0.0814401
0.100385
0.121226
0.143704
0.167533
0.192417
0.218066
0.244198
0.270553
0.29689
0.322996
0.348684
0.373794
0.398196
0.421784
0.444473
0.4662
0.486922
0.506616
0.525269
0.542885
0.559478
0.575068
0.589688
0.603371
0.616155
0.628081
0.639191
0.649528
0.659137
0.66806
0.676339
0.684015
0.691126
0.697714
0.703818
0.709295
0.714528
0.71938
0.723876
0.727971
0.731894
0.735634
0.739194
0.74258
0.745791
0.748827
0.751685
0.754362
0.756851
0.759146
0.761227
0.763104
0.764757
0.766172
0.767336
0.768248
0.768917
0.769371
0.769655
0.76982
0.76991
0.769957
0.769979
0.769991
0.769996
0.769998
0.769999
0.77
0.77
0.77
0.77
0.77
0.77
0.77
0.77
0.77
0.77
0.77
2.25117e-06
9.83866e-06
2.26034e-05
4.40086e-05
7.973e-05
0.00013896
0.000236381
0.000395067
0.000650609
0.00105671
0.00169236
0.00267024
0.00414527
0.00632113
0.00945117
0.0138296
0.0197697
0.0275704
0.037477
0.0496478
0.0641347
0.080884
0.0997511
0.120523
0.142941
0.166723
0.191574
0.217205
0.243335
0.269701
0.296065
0.32221
0.347948
0.37312
0.397591
0.421254
0.444023
0.465833
0.486638
0.506414
0.525151
0.542849
0.559518
0.575182
0.589869
0.603613
0.616452
0.628427
0.639579
0.649954
0.659594
0.668542
0.676842
0.684534
0.691661
0.69826
0.704343
0.709816
0.715054
0.719902
0.724388
0.728466
0.732379
0.736109
0.73966
0.743034
0.746231
0.74925
0.752088
0.754741
0.757203
0.759468
0.761519
0.763362
0.764978
0.766355
0.767481
0.768355
0.76899
0.769417
0.769682
0.769835
0.769917
0.76996
0.769981
0.769991
0.769996
0.769998
0.769999
0.77
0.77
0.77
0.77
0.77
0.77
0.77
0.77
0.77
0.77
0.77
2.23417e-06
9.76419e-06
2.24315e-05
4.36711e-05
7.91117e-05
0.000137868
0.000234495
0.000391865
0.000645253
0.00104789
0.00167808
0.00264754
0.00410996
0.00626755
0.00937207
0.0137163
0.019613
0.0273611
0.0372075
0.0493128
0.0637322
0.0804154
0.099221
0.119939
0.142312
0.16606
0.19089
0.216511
0.242644
0.269027
0.295418
0.321601
0.347386
0.372613
0.397146
0.420877
0.443716
0.465599
0.486478
0.506327
0.525131
0.542893
0.559626
0.575349
0.59009
0.603884
0.616767
0.628781
0.639968
0.650371
0.660033
0.669
0.677313
0.685014
0.692143
0.698739
0.704801
0.71027
0.715503
0.720344
0.724823
0.728897
0.732807
0.736531
0.740074
0.743436
0.746619
0.74962
0.752438
0.755066
0.757501
0.759734
0.76175
0.763558
0.765142
0.766491
0.767595
0.768443
0.769051
0.769455
0.769704
0.769847
0.769924
0.769963
0.769983
0.769992
0.769996
0.769998
0.769999
0.77
0.77
0.77
0.77
0.77
0.77
0.77
0.77
0.77
0.77
0.77
2.21836e-06
9.69504e-06
2.2272e-05
4.33588e-05
7.8541e-05
0.000136863
0.000232765
0.00038894
0.000640385
0.00103991
0.00166523
0.00262724
0.00407859
0.00622025
0.00930272
0.0136178
0.0194775
0.0271813
0.0369776
0.0490289
0.0633934
0.0800237
0.0987808
0.119457
0.141797
0.165521
0.190338
0.215956
0.242098
0.268498
0.294917
0.321136
0.346964
0.37224
0.396828
0.420615
0.443514
0.465457
0.486398
0.506307
0.525171
0.542989
0.559775
0.575547
0.590333
0.604167
0.617086
0.62913
0.640343
0.650767
0.660447
0.669427
0.677749
0.685454
0.692585
0.69918
0.705225
0.710682
0.715908
0.72074
0.725209
0.729278
0.733186
0.736906
0.740442
0.743795
0.746966
0.749953
0.752754
0.755364
0.757776
0.759985
0.761984
0.763766
0.765319
0.766632
0.767696
0.768518
0.769104
0.769488
0.769723
0.769857
0.769929
0.769966
0.769984
0.769993
0.769997
0.769998
0.769999
0.77
0.77
0.77
0.77
0.77
0.77
0.77
0.77
0.77
0.77
0.77
2.20411e-06
9.63272e-06
2.21285e-05
4.30781e-05
7.80291e-05
0.000135963
0.000231222
0.000386339
0.000636071
0.00103288
0.00165394
0.00260949
0.00405128
0.00617928
0.00924295
0.0135332
0.0193619
0.0270288
0.0367835
0.0487906
0.0631107
0.0796987
0.098418
0.119062
0.141378
0.165087
0.189896
0.215517
0.241669
0.268088
0.294533
0.320786
0.346654
0.371974
0.396609
0.420448
0.443399
0.465395
0.486386
0.506344
0.525256
0.543121
0.559949
0.57576
0.590582
0.604448
0.617395
0.629464
0.640696
0.651137
0.660829
0.669817
0.678145
0.685854
0.692985
0.699577
0.705612
0.711061
0.716277
0.721095
0.725547
0.729616
0.733519
0.737232
0.740759
0.744102
0.74726
0.750232
0.753016
0.755606
0.758002
0.760195
0.76218
0.763942
0.765472
0.766759
0.767796
0.768584
0.769147
0.769517
0.76974
0.769866
0.769934
0.769968
0.769985
0.769993
0.769997
0.769999
0.769999
0.77
0.77
0.77
0.77
0.77
0.77
0.77
0.77
0.77
0.77
0.77
2.19155e-06
9.57782e-06
2.20022e-05
4.28312e-05
7.75797e-05
0.000135175
0.000229873
0.000384071
0.00063232
0.00102677
0.00164419
0.0025942
0.00402786
0.00614427
0.00919208
0.0134616
0.0192644
0.0269007
0.0366213
0.0485925
0.0628769
0.0794314
0.0981213
0.118742
0.141041
0.164739
0.189545
0.215171
0.241335
0.267773
0.294243
0.320526
0.34643
0.371788
0.396464
0.420346
0.443341
0.46538
0.486415
0.506416
0.525368
0.54327
0.560133
0.575976
0.590827
0.604718
0.617686
0.629773
0.641021
0.651473
0.661174
0.670168
0.678498
0.686207
0.693333
0.699918
0.705945
0.711387
0.716595
0.721403
0.725844
0.729912
0.733811
0.737519
0.741037
0.744369
0.747515
0.750476
0.753249
0.755832
0.758215
0.760392
0.762354
0.764095
0.765602
0.766865
0.767879
0.768646
0.769185
0.76954
0.769753
0.769873
0.769937
0.76997
0.769986
0.769993
0.769997
0.769999
0.769999
0.77
0.77
0.77
0.77
0.77
0.77
0.77
0.77
0.77
0.77
0.77
2.1807e-06
9.53041e-06
2.18932e-05
4.26185e-05
7.71928e-05
0.000134498
0.000228715
0.000382128
0.000629114
0.00102157
0.0016359
0.00258125
0.00400806
0.00611478
0.00914938
0.0134017
0.0191831
0.0267944
0.0364872
0.0484294
0.0626853
0.0792136
0.0978809
0.118483
0.14077
0.164462
0.189269
0.214901
0.241078
0.267534
0.294027
0.320338
0.346272
0.371664
0.396375
0.420293
0.443325
0.465401
0.486472
0.506507
0.525492
0.543424
0.560316
0.576184
0.591057
0.604968
0.617953
0.630054
0.641313
0.651773
0.66148
0.670477
0.678807
0.686513
0.693636
0.70022
0.706239
0.711671
0.71687
0.721668
0.726097
0.730166
0.734062
0.737764
0.741276
0.744603
0.747745
0.750698
0.75346
0.756028
0.758396
0.760556
0.762502
0.764223
0.765711
0.766955
0.767948
0.768696
0.76922
0.769559
0.769764
0.769879
0.769941
0.769971
0.769987
0.769994
0.769997
0.769999
0.769999
0.77
0.77
0.77
0.77
0.77
0.77
0.77
0.77
0.77
0.77
0.77
2.17151e-06
9.49025e-06
2.18009e-05
4.24385e-05
7.68658e-05
0.000133926
0.000227739
0.000380494
0.000626422
0.00101721
0.00162896
0.00257044
0.00399159
0.00609031
0.00911404
0.0133522
0.0191162
0.0267072
0.0363776
0.0482967
0.0625301
0.0790379
0.097688
0.118278
0.140556
0.164245
0.189054
0.214693
0.240882
0.267355
0.293869
0.320203
0.346163
0.371584
0.396325
0.420274
0.443337
0.465443
0.486543
0.506606
0.525617
0.543575
0.560488
0.576377
0.591268
0.605194
0.618192
0.630303
0.64157
0.652036
0.661745
0.670742
0.67907
0.686776
0.693899
0.700479
0.706489
0.711913
0.717104
0.721892
0.726311
0.730382
0.734275
0.737974
0.741483
0.744805
0.747939
0.750883
0.753636
0.756192
0.758547
0.760694
0.762625
0.764331
0.765802
0.767029
0.768006
0.768738
0.769248
0.769577
0.769774
0.769884
0.769943
0.769973
0.769987
0.769994
0.769997
0.769999
0.769999
0.77
0.77
0.77
0.77
0.77
0.77
0.77
0.77
0.77
0.77
0.77
2.16389e-06
9.45696e-06
2.17244e-05
4.22894e-05
7.65952e-05
0.000133453
0.000226934
0.000379147
0.000624206
0.00101363
0.00162327
0.00256159
0.00397813
0.00607035
0.0090853
0.0133121
0.0190622
0.0266369
0.0362895
0.0481904
0.0624062
0.0788982
0.0975354
0.118116
0.140388
0.164076
0.188888
0.214535
0.240734
0.267222
0.293754
0.320108
0.346091
0.371535
0.396301
0.420275
0.443363
0.465494
0.486618
0.506704
0.525737
0.543714
0.560645
0.576549
0.591454
0.605392
0.618399
0.630518
0.641789
0.652258
0.661968
0.670967
0.679298
0.687003
0.694123
0.700698
0.706701
0.712118
0.717302
0.722084
0.726485
0.730561
0.734453
0.738149
0.741654
0.744971
0.748098
0.751035
0.75378
0.756327
0.758672
0.760807
0.762726
0.764419
0.765877
0.76709
0.768053
0.768771
0.76927
0.769591
0.769782
0.769888
0.769945
0.769974
0.769988
0.769994
0.769997
0.769999
0.769999
0.77
0.77
0.77
0.77
0.77
0.77
0.77
0.77
0.77
0.77
0.77
2.15774e-06
9.43009e-06
2.16626e-05
4.21692e-05
7.63772e-05
0.000133073
0.000226285
0.000378064
0.000622427
0.00101075
0.00161872
0.00255452
0.0039674
0.00605447
0.00906245
0.0132803
0.0190193
0.0265814
0.0362202
0.0481069
0.0623092
0.0787894
0.0974169
0.11799
0.14026
0.163947
0.188763
0.214416
0.240625
0.267126
0.293672
0.320043
0.346044
0.371508
0.396294
0.420288
0.443397
0.465548
0.486691
0.506795
0.525844
0.543836
0.560781
0.576697
0.591612
0.605558
0.618572
0.630695
0.64197
0.652442
0.662157
0.671157
0.679487
0.68719
0.694306
0.700878
0.706874
0.712286
0.717465
0.722241
0.726626
0.730705
0.734595
0.738289
0.741792
0.745104
0.748227
0.751158
0.753896
0.756436
0.758772
0.760899
0.762808
0.764491
0.765938
0.767139
0.76809
0.768798
0.769288
0.769602
0.769788
0.769892
0.769947
0.769974
0.769988
0.769994
0.769997
0.769999
0.77
0.77
0.77
0.77
0.77
0.77
0.77
0.77
0.77
0.77
0.77
0.77
2.15295e-06
9.40919e-06
2.16147e-05
4.20757e-05
7.62078e-05
0.000132777
0.000225783
0.000377225
0.00062105
0.00100853
0.0016152
0.00254906
0.00395912
0.00604224
0.0090449
0.0132559
0.0189866
0.026539
0.0361673
0.0480434
0.0622357
0.0787071
0.0973277
0.117896
0.140164
0.163852
0.18867
0.214329
0.240547
0.267057
0.293615
0.319999
0.346015
0.371494
0.396296
0.420306
0.443429
0.465595
0.486753
0.506871
0.525932
0.543936
0.560891
0.576816
0.591738
0.60569
0.618709
0.630838
0.642118
0.652593
0.662308
0.671308
0.679637
0.687337
0.694452
0.70102
0.707012
0.712419
0.717593
0.722364
0.726736
0.730819
0.734707
0.7384
0.741899
0.745209
0.748327
0.751254
0.753987
0.756521
0.758851
0.76097
0.762872
0.764546
0.765985
0.767177
0.768119
0.768819
0.769302
0.76961
0.769793
0.769895
0.769948
0.769975
0.769988
0.769995
0.769998
0.769999
0.77
0.77
0.77
0.77
0.77
0.77
0.77
0.77
0.77
0.77
0.77
0.77
2.14945e-06
9.3939e-06
2.15795e-05
4.20074e-05
7.60839e-05
0.000132561
0.000225415
0.000376612
0.000620045
0.00100691
0.00161264
0.00254509
0.00395311
0.00603336
0.00903217
0.0132382
0.0189629
0.0265083
0.0361292
0.0479977
0.0621829
0.0786481
0.097264
0.11783
0.140096
0.163784
0.188606
0.214269
0.240492
0.26701
0.293577
0.319972
0.345998
0.371488
0.396302
0.420323
0.443458
0.465635
0.486802
0.50693
0.526
0.544012
0.560974
0.576906
0.591835
0.605792
0.618816
0.630948
0.642229
0.652706
0.662421
0.671421
0.679748
0.687447
0.69456
0.701125
0.707114
0.712518
0.717689
0.722456
0.726818
0.730903
0.73479
0.738481
0.741979
0.745286
0.748401
0.751325
0.754054
0.756583
0.758909
0.761023
0.762919
0.764587
0.766019
0.767205
0.768141
0.768834
0.769312
0.769616
0.769796
0.769896
0.769949
0.769976
0.769989
0.769995
0.769998
0.769999
0.77
0.77
0.77
0.77
0.77
0.77
0.77
0.77
0.77
0.77
0.77
0.77
2.14716e-06
9.38391e-06
2.15566e-05
4.19627e-05
7.6003e-05
0.00013242
0.000225176
0.000376213
0.000619391
0.00100586
0.00161098
0.00254251
0.0039492
0.0060276
0.00902392
0.0132268
0.0189475
0.0264885
0.0361045
0.0479682
0.0621489
0.0786102
0.0972231
0.117787
0.140052
0.163742
0.188565
0.214231
0.240458
0.266982
0.293554
0.319955
0.345989
0.371486
0.396308
0.420336
0.443479
0.465663
0.486838
0.506972
0.526048
0.544066
0.561033
0.576969
0.591901
0.605862
0.618888
0.631021
0.642304
0.65278
0.662496
0.671495
0.679822
0.68752
0.694631
0.701195
0.707182
0.712584
0.717752
0.722517
0.726872
0.730958
0.734845
0.738534
0.742031
0.745336
0.74845
0.751372
0.754098
0.756625
0.758947
0.761058
0.76295
0.764614
0.766042
0.767223
0.768155
0.768844
0.769319
0.76962
0.769799
0.769898
0.76995
0.769976
0.769989
0.769995
0.769998
0.769999
0.77
0.77
0.77
0.77
0.77
0.77
0.77
0.77
0.77
0.77
0.77
0.77
2.14605e-06
9.37906e-06
2.15455e-05
4.19412e-05
7.59641e-05
0.000132353
0.000225061
0.000376022
0.000619079
0.00100536
0.00161019
0.00254129
0.00394736
0.00602488
0.00902002
0.0132214
0.0189403
0.0264792
0.0360929
0.0479543
0.0621328
0.0785923
0.0972037
0.117767
0.140032
0.163721
0.188545
0.214213
0.240443
0.266968
0.293544
0.319948
0.345985
0.371486
0.396311
0.420344
0.44349
0.465678
0.486856
0.506993
0.526073
0.544093
0.561062
0.577001
0.591934
0.605896
0.618923
0.631057
0.64234
0.652817
0.662533
0.671532
0.679859
0.687556
0.694667
0.70123
0.707216
0.712616
0.717784
0.722548
0.726899
0.730986
0.734872
0.738561
0.742057
0.745361
0.748474
0.751395
0.75412
0.756645
0.758965
0.761074
0.762965
0.764627
0.766053
0.767232
0.768161
0.768849
0.769322
0.769622
0.7698
0.769898
0.76995
0.769976
0.769989
0.769995
0.769998
0.769999
0.77
0.77
0.77
0.77
0.77
0.77
0.77
0.77
0.77
0.77
0.77
0.77
2.14605e-06
9.37908e-06
2.15456e-05
4.19413e-05
7.59642e-05
0.000132353
0.000225062
0.000376023
0.000619081
0.00100536
0.00161019
0.00254129
0.00394736
0.00602489
0.00902004
0.0132214
0.0189403
0.0264792
0.036093
0.0479543
0.0621328
0.0785924
0.0972038
0.117767
0.140032
0.163721
0.188545
0.214213
0.240443
0.266968
0.293544
0.319948
0.345985
0.371486
0.396311
0.420344
0.44349
0.465677
0.486856
0.506993
0.526073
0.544093
0.561062
0.577
0.591934
0.605896
0.618923
0.631057
0.64234
0.652817
0.662533
0.671532
0.679859
0.687556
0.694667
0.70123
0.707216
0.712616
0.717784
0.722548
0.726899
0.730986
0.734872
0.738561
0.742057
0.745361
0.748474
0.751395
0.75412
0.756645
0.758965
0.761074
0.762965
0.764627
0.766053
0.767232
0.768161
0.768849
0.769322
0.769622
0.7698
0.769898
0.76995
0.769976
0.769989
0.769995
0.769998
0.769999
0.77
0.77
0.77
0.77
0.77
0.77
0.77
0.77
0.77
0.77
0.77
0.77
2.14718e-06
9.38398e-06
2.15568e-05
4.19631e-05
7.60036e-05
0.000132421
0.000225178
0.000376215
0.000619395
0.00100587
0.00161099
0.00254253
0.00394923
0.00602764
0.00902396
0.0132268
0.0189476
0.0264886
0.0361047
0.0479683
0.062149
0.0786104
0.0972233
0.117787
0.140052
0.163742
0.188565
0.214231
0.240459
0.266982
0.293555
0.319956
0.345989
0.371487
0.396308
0.420337
0.443479
0.465663
0.486838
0.506972
0.526049
0.544066
0.561033
0.576969
0.591901
0.605862
0.618888
0.631021
0.642303
0.65278
0.662496
0.671495
0.679822
0.68752
0.694631
0.701195
0.707182
0.712584
0.717752
0.722517
0.726872
0.730958
0.734845
0.738534
0.742031
0.745336
0.74845
0.751372
0.754098
0.756625
0.758947
0.761057
0.762949
0.764614
0.766042
0.767223
0.768155
0.768844
0.769319
0.76962
0.769799
0.769898
0.76995
0.769976
0.769989
0.769995
0.769998
0.769999
0.77
0.77
0.77
0.77
0.77
0.77
0.77
0.77
0.77
0.77
0.77
0.77
2.14948e-06
9.39401e-06
2.15798e-05
4.20079e-05
7.60848e-05
0.000132563
0.000225418
0.000376616
0.000620052
0.00100693
0.00161266
0.00254512
0.00395314
0.00603341
0.00903224
0.0132383
0.018963
0.0265085
0.0361294
0.0479979
0.0621831
0.0786484
0.0972643
0.11783
0.140096
0.163785
0.188606
0.214269
0.240493
0.267011
0.293578
0.319972
0.345998
0.371488
0.396302
0.420323
0.443458
0.465635
0.486802
0.506929
0.526
0.544012
0.560974
0.576906
0.591835
0.605792
0.618816
0.630948
0.642229
0.652705
0.662421
0.67142
0.679748
0.687447
0.694559
0.701125
0.707114
0.712518
0.717689
0.722456
0.726818
0.730903
0.73479
0.738481
0.741979
0.745285
0.748401
0.751325
0.754053
0.756583
0.758908
0.761023
0.762918
0.764587
0.766019
0.767205
0.768141
0.768834
0.769312
0.769616
0.769796
0.769896
0.769949
0.769976
0.769989
0.769995
0.769998
0.769999
0.77
0.77
0.77
0.77
0.77
0.77
0.77
0.77
0.77
0.77
0.77
0.77
2.15299e-06
9.40935e-06
2.1615e-05
4.20764e-05
7.62091e-05
0.000132779
0.000225786
0.000377231
0.00062106
0.00100855
0.00161523
0.0025491
0.00395918
0.00604232
0.00904501
0.013256
0.0189868
0.0265392
0.0361676
0.0480437
0.0622361
0.0787075
0.0973282
0.117897
0.140164
0.163852
0.188671
0.21433
0.240547
0.267057
0.293615
0.32
0.346015
0.371494
0.396296
0.420306
0.44343
0.465595
0.486753
0.506871
0.525932
0.543936
0.560891
0.576816
0.591738
0.60569
0.618709
0.630838
0.642118
0.652593
0.662308
0.671308
0.679637
0.687337
0.694451
0.701019
0.707011
0.712419
0.717593
0.722364
0.726736
0.730819
0.734707
0.738399
0.741899
0.745208
0.748327
0.751254
0.753986
0.75652
0.758851
0.76097
0.762871
0.764546
0.765985
0.767177
0.768119
0.768819
0.769302
0.76961
0.769793
0.769895
0.769948
0.769975
0.769988
0.769995
0.769998
0.769999
0.77
0.77
0.77
0.77
0.77
0.77
0.77
0.77
0.77
0.77
0.77
0.77
2.15778e-06
9.43029e-06
2.16631e-05
4.21701e-05
7.63788e-05
0.000133075
0.00022629
0.000378071
0.000622439
0.00101077
0.00161875
0.00255456
0.00396746
0.00605456
0.00906258
0.0132805
0.0190196
0.0265817
0.0362205
0.0481073
0.0623097
0.0787899
0.0974175
0.117991
0.14026
0.163948
0.188763
0.214416
0.240626
0.267126
0.293672
0.320043
0.346044
0.371508
0.396295
0.420289
0.443397
0.465548
0.486691
0.506795
0.525844
0.543836
0.560781
0.576697
0.591612
0.605557
0.618571
0.630694
0.64197
0.652442
0.662157
0.671157
0.679487
0.687189
0.694306
0.700877
0.706874
0.712286
0.717465
0.722241
0.726625
0.730705
0.734594
0.738289
0.741792
0.745104
0.748227
0.751158
0.753896
0.756435
0.758772
0.760899
0.762808
0.764491
0.765937
0.767139
0.76809
0.768798
0.769288
0.769602
0.769788
0.769892
0.769947
0.769974
0.769988
0.769994
0.769997
0.769999
0.77
0.77
0.77
0.77
0.77
0.77
0.77
0.77
0.77
0.77
0.77
0.77
2.16395e-06
9.45721e-06
2.17249e-05
4.22905e-05
7.65972e-05
0.000133457
0.000226939
0.000379156
0.000624221
0.00101365
0.00162331
0.00256164
0.00397821
0.00607047
0.00908545
0.0133123
0.0190624
0.0266373
0.03629
0.0481908
0.0624067
0.0788988
0.097536
0.118116
0.140389
0.164077
0.188889
0.214535
0.240735
0.267223
0.293754
0.320108
0.346091
0.371535
0.396302
0.420275
0.443363
0.465494
0.486618
0.506704
0.525737
0.543714
0.560645
0.576549
0.591454
0.605391
0.618399
0.630517
0.641789
0.652257
0.661968
0.670967
0.679298
0.687003
0.694122
0.700697
0.7067
0.712118
0.717302
0.722084
0.726485
0.73056
0.734452
0.738149
0.741654
0.74497
0.748098
0.751035
0.753779
0.756327
0.758672
0.760807
0.762726
0.764419
0.765877
0.76709
0.768053
0.768771
0.76927
0.769591
0.769782
0.769888
0.769945
0.769974
0.769988
0.769994
0.769997
0.769999
0.769999
0.77
0.77
0.77
0.77
0.77
0.77
0.77
0.77
0.77
0.77
0.77
2.17158e-06
9.49054e-06
2.18015e-05
4.24397e-05
7.68681e-05
0.00013393
0.000227746
0.000380505
0.000626439
0.00101724
0.001629
0.0025705
0.00399168
0.00609043
0.00911422
0.0133525
0.0191166
0.0267076
0.0363781
0.0482973
0.0625307
0.0790386
0.0976887
0.118278
0.140557
0.164246
0.189055
0.214694
0.240882
0.267356
0.293869
0.320203
0.346163
0.371584
0.396326
0.420274
0.443337
0.465443
0.486543
0.506606
0.525617
0.543575
0.560488
0.576377
0.591268
0.605194
0.618192
0.630303
0.641569
0.652035
0.661745
0.670741
0.67907
0.686775
0.693899
0.700478
0.706489
0.711913
0.717104
0.721892
0.726311
0.730382
0.734275
0.737973
0.741483
0.744805
0.747938
0.750883
0.753635
0.756192
0.758547
0.760694
0.762624
0.764331
0.765802
0.767029
0.768006
0.768738
0.769248
0.769577
0.769774
0.769884
0.769943
0.769973
0.769987
0.769994
0.769997
0.769999
0.769999
0.77
0.77
0.77
0.77
0.77
0.77
0.77
0.77
0.77
0.77
0.77
2.18078e-06
9.53074e-06
2.18939e-05
4.26199e-05
7.71953e-05
0.000134502
0.000228722
0.00038214
0.000629133
0.0010216
0.00163594
0.00258132
0.00400817
0.00611492
0.00914958
0.0134019
0.0191834
0.0267949
0.0364877
0.04843
0.062686
0.0792143
0.0978817
0.118484
0.140771
0.164463
0.18927
0.214902
0.241078
0.267535
0.294028
0.320338
0.346272
0.371664
0.396376
0.420293
0.443325
0.465401
0.486472
0.506507
0.525491
0.543424
0.560315
0.576184
0.591057
0.604968
0.617953
0.630054
0.641312
0.651773
0.661479
0.670476
0.678807
0.686512
0.693635
0.700219
0.706239
0.711671
0.716869
0.721667
0.726097
0.730166
0.734062
0.737764
0.741276
0.744602
0.747744
0.750697
0.75346
0.756028
0.758396
0.760556
0.762501
0.764223
0.765711
0.766955
0.767948
0.768696
0.76922
0.769559
0.769764
0.769879
0.76994
0.769971
0.769987
0.769994
0.769997
0.769999
0.769999
0.77
0.77
0.77
0.77
0.77
0.77
0.77
0.77
0.77
0.77
0.77
2.19164e-06
9.57818e-06
2.2003e-05
4.28328e-05
7.75826e-05
0.00013518
0.000229881
0.000384084
0.000632341
0.00102681
0.00164424
0.00259428
0.00402797
0.00614443
0.00919231
0.0134619
0.0192648
0.0269012
0.0366219
0.0485932
0.0628777
0.0794323
0.0981223
0.118743
0.141041
0.164739
0.189546
0.215172
0.241336
0.267774
0.294244
0.320527
0.34643
0.371789
0.396465
0.420346
0.443341
0.465381
0.486415
0.506416
0.525367
0.54327
0.560133
0.575976
0.590826
0.604717
0.617686
0.629773
0.64102
0.651472
0.661173
0.670167
0.678497
0.686206
0.693333
0.699917
0.705944
0.711386
0.716594
0.721403
0.725844
0.729911
0.733811
0.737518
0.741037
0.744368
0.747514
0.750475
0.753249
0.755831
0.758214
0.760391
0.762354
0.764094
0.765601
0.766865
0.767879
0.768646
0.769185
0.76954
0.769753
0.769873
0.769937
0.76997
0.769986
0.769993
0.769997
0.769999
0.769999
0.77
0.77
0.77
0.77
0.77
0.77
0.77
0.77
0.77
0.77
0.77
2.2042e-06
9.63312e-06
2.21294e-05
4.30798e-05
7.80322e-05
0.000135969
0.000231231
0.000386354
0.000636095
0.00103291
0.001654
0.00260958
0.00405141
0.00617946
0.0092432
0.0135336
0.0193623
0.0270294
0.0367841
0.0487914
0.0631116
0.0796997
0.098419
0.119063
0.141379
0.165088
0.189897
0.215518
0.241669
0.268089
0.294534
0.320786
0.346654
0.371974
0.396609
0.420447
0.443398
0.465394
0.486386
0.506344
0.525256
0.543121
0.559949
0.57576
0.590582
0.604448
0.617395
0.629463
0.640696
0.651136
0.660829
0.669817
0.678144
0.685853
0.692984
0.699576
0.705611
0.71106
0.716276
0.721094
0.725547
0.729616
0.73352
0.737233
0.74076
0.744103
0.747261
0.750233
0.753016
0.755606
0.758001
0.760195
0.76218
0.763942
0.765471
0.766758
0.767795
0.768584
0.769147
0.769516
0.76974
0.769866
0.769934
0.769968
0.769985
0.769993
0.769997
0.769999
0.769999
0.77
0.77
0.77
0.77
0.77
0.77
0.77
0.77
0.77
0.77
0.77
2.21846e-06
9.69547e-06
2.2273e-05
4.33607e-05
7.85444e-05
0.000136868
0.000232775
0.000388956
0.00064041
0.00103995
0.00166529
0.00262733
0.00407873
0.00622044
0.00930299
0.0136181
0.0194779
0.0271819
0.0369783
0.0490297
0.0633944
0.0800247
0.0987819
0.119458
0.141798
0.165522
0.190339
0.215957
0.242099
0.268499
0.294917
0.321136
0.346965
0.372241
0.396828
0.420616
0.443516
0.465459
0.486399
0.506308
0.525171
0.542989
0.559774
0.575546
0.590333
0.604166
0.617085
0.62913
0.640343
0.650767
0.660447
0.669427
0.677748
0.685454
0.692585
0.69918
0.705225
0.710682
0.715908
0.72074
0.725209
0.729278
0.733186
0.736905
0.740441
0.743794
0.746966
0.749953
0.752754
0.755363
0.757776
0.759984
0.761983
0.763766
0.765319
0.766632
0.767696
0.768518
0.769104
0.769488
0.769723
0.769857
0.769929
0.769966
0.769984
0.769993
0.769997
0.769998
0.769999
0.77
0.77
0.77
0.77
0.77
0.77
0.77
0.77
0.77
0.77
0.77
2.23427e-06
9.76465e-06
2.24325e-05
4.36731e-05
7.91153e-05
0.000137874
0.000234505
0.000391882
0.000645281
0.00104793
0.00167814
0.00264764
0.00411011
0.00626776
0.00937237
0.0137167
0.0196135
0.0273617
0.0372083
0.0493137
0.0637332
0.0804165
0.0992222
0.11994
0.142314
0.166061
0.190891
0.216512
0.242645
0.269028
0.295419
0.321602
0.347387
0.372613
0.397146
0.420876
0.443715
0.465597
0.486476
0.506325
0.52513
0.542893
0.559625
0.575348
0.59009
0.603884
0.616767
0.628781
0.639967
0.65037
0.660033
0.669
0.677313
0.685014
0.692143
0.698739
0.704801
0.71027
0.715504
0.720344
0.724824
0.728897
0.732808
0.736533
0.740075
0.743438
0.746622
0.749624
0.752442
0.755072
0.757506
0.759739
0.761752
0.763559
0.765143
0.766491
0.767596
0.768444
0.769051
0.769455
0.769704
0.769847
0.769924
0.769963
0.769983
0.769992
0.769996
0.769998
0.769999
0.77
0.77
0.77
0.77
0.77
0.77
0.77
0.77
0.77
0.77
0.77
2.25129e-06
9.83915e-06
2.26046e-05
4.40108e-05
7.97339e-05
0.000138967
0.000236392
0.000395085
0.000650638
0.00105676
0.00169243
0.00267034
0.00414542
0.00632136
0.00945149
0.01383
0.0197702
0.027571
0.0374779
0.0496487
0.0641358
0.0808852
0.0997523
0.120524
0.142943
0.166724
0.191576
0.217206
0.243336
0.269703
0.296066
0.322211
0.347949
0.37312
0.397592
0.421255
0.444024
0.465834
0.48664
0.506417
0.525153
0.54285
0.559518
0.575182
0.589869
0.603613
0.616452
0.628426
0.639579
0.649954
0.659593
0.668542
0.676842
0.684534
0.691661
0.69826
0.704343
0.709816
0.715054
0.719902
0.724389
0.728466
0.732379
0.736109
0.73966
0.743034
0.746231
0.74925
0.752088
0.754741
0.757204
0.75947
0.761522
0.763363