/*--------------------------------*- C++ -*----------------------------------*\
  =========                 |
  \\      /  F ield         | OpenFOAM: The Open Source CFD Toolbox
   \\    /   O peration     | Website:  https://openfoam.org
    \\  /    A nd           | Version:  8
     \\/     M anipulation  |
\*---------------------------------------------------------------------------*/
FoamFile
{
    version     2.0;
    format      ascii;
    class       volScalarField;
    location    "960/fluid";
    object      O2;
}
// * * * * * * * * * * * * * * * * * * * * * * * * * * * * * * * * * * * * * //

dimensions      [0 0 0 0 0 0 0];

internalField   nonuniform List<scalar> 
4000
(
4.5872e-10
2.00299e-09
4.59244e-09
8.91423e-09
1.60864e-08
2.79066e-08
4.72252e-08
7.84858e-08
1.28478e-07
2.07329e-07
3.29704e-07
5.16123e-07
7.94175e-07
1.19863e-06
1.77019e-06
2.552e-06
3.58366e-06
4.89387e-06
6.49347e-06
8.37164e-06
1.04963e-05
1.28182e-05
1.5277e-05
1.78076e-05
2.03449e-05
2.28274e-05
2.51999e-05
2.74146e-05
2.94323e-05
3.12228e-05
3.27669e-05
3.40596e-05
3.51165e-05
3.59833e-05
3.67493e-05
3.75611e-05
3.86344e-05
4.02648e-05
4.28376e-05
4.68448e-05
5.29139e-05
6.18528e-05
7.47097e-05
9.28502e-05
0.000118057
0.000152665
0.00019974
0.000263311
0.000348546
0.000462596
0.000614621
0.000816668
0.00108455
0.00143902
0.00190728
0.00252501
0.00333908
0.00439655
0.00577074
0.00762691
0.0100695
0.0132914
0.0183885
0.0348139
0.0514468
0.0680274
0.0843536
0.100266
0.115639
0.130366
0.144361
0.157544
0.169841
0.181121
0.191427
0.200599
0.208537
0.215145
0.220351
0.224161
0.226714
0.228272
0.229143
0.229592
0.229812
0.229915
0.229962
0.229984
0.229993
0.229997
0.229999
0.229999
0.23
0.23
0.23
0.23
0.23
0.23
0.23
0.23
4.65751e-10
2.0351e-09
4.67179e-09
9.08301e-09
1.64215e-08
2.85435e-08
4.83938e-08
8.05615e-08
1.32046e-07
2.13246e-07
3.39095e-07
5.30088e-07
8.14807e-07
1.22828e-06
1.81151e-06
2.60806e-06
3.6582e-06
4.99158e-06
6.62043e-06
8.53535e-06
1.07054e-05
1.30821e-05
1.56048e-05
1.82075e-05
2.08233e-05
2.33888e-05
2.58464e-05
2.81459e-05
3.02459e-05
3.21142e-05
3.37301e-05
3.50873e-05
3.62012e-05
3.71184e-05
3.79312e-05
3.87918e-05
3.99251e-05
4.16389e-05
4.43331e-05
4.85157e-05
5.48302e-05
6.41e-05
7.73864e-05
9.60663e-05
0.000121933
0.000157333
0.000205304
0.000269721
0.000356273
0.000471761
0.000625374
0.000829178
0.001099
0.0014556
0.00192623
0.00254663
0.00336381
0.00442451
0.00580285
0.0076661
0.0101193
0.0133566
0.01967
0.0362018
0.0529189
0.069568
0.0859504
0.101909
0.117316
0.132066
0.14607
0.159246
0.171516
0.182739
0.192956
0.201996
0.209755
0.216141
0.221096
0.224662
0.227011
0.228427
0.229215
0.229623
0.229824
0.22992
0.229964
0.229984
0.229993
0.229997
0.229999
0.229999
0.23
0.23
0.23
0.23
0.23
0.23
0.23
0.23
4.75045e-10
2.07573e-09
4.76564e-09
9.26737e-09
1.67587e-08
2.91352e-08
4.94027e-08
8.22451e-08
1.34815e-07
2.17782e-07
3.46645e-07
5.43267e-07
8.35282e-07
1.25843e-06
1.85455e-06
2.66822e-06
3.741e-06
5.10414e-06
6.77164e-06
8.73595e-06
1.09677e-05
1.3419e-05
1.60296e-05
1.87325e-05
2.14593e-05
2.41443e-05
2.67272e-05
2.91549e-05
3.13827e-05
3.33756e-05
3.51104e-05
3.65787e-05
3.77948e-05
3.88065e-05
3.97098e-05
4.06654e-05
4.19118e-05
4.37754e-05
4.66793e-05
5.11569e-05
5.7878e-05
6.76913e-05
8.16815e-05
0.000101246
0.000128196
0.000164849
0.000214131
0.000280553
0.000369215
0.000487141
0.000643548
0.000850536
0.00112398
0.0014847
0.00196005
0.00258595
0.00340974
0.00447744
0.00586521
0.0077427
0.0102151
0.0134851
0.0219323
0.0385418
0.055329
0.0720343
0.0884552
0.104431
0.119833
0.134553
0.148498
0.161582
0.173723
0.184797
0.194801
0.203584
0.211055
0.217133
0.221791
0.225102
0.227262
0.228557
0.229277
0.229652
0.229837
0.229925
0.229966
0.229985
0.229993
0.229997
0.229999
0.229999
0.23
0.23
0.23
0.23
0.23
0.23
0.23
0.23
4.86065e-10
2.12447e-09
4.87983e-09
9.49471e-09
1.71792e-08
2.98795e-08
5.0678e-08
8.4368e-08
1.38247e-07
2.23154e-07
3.54707e-07
5.54631e-07
8.51832e-07
1.28276e-06
1.89029e-06
2.72038e-06
3.81639e-06
5.21175e-06
6.92279e-06
8.94413e-06
1.1248e-05
1.37876e-05
1.65023e-05
1.93241e-05
2.21829e-05
2.50104e-05
2.77435e-05
3.0326e-05
3.27099e-05
3.48571e-05
3.67412e-05
3.83517e-05
3.97017e-05
4.08401e-05
4.18682e-05
4.29568e-05
4.43615e-05
4.64325e-05
4.96217e-05
5.44947e-05
6.17555e-05
7.22872e-05
8.721e-05
0.00010796
0.000136321
0.000174593
0.000226098
0.00029497
0.000386584
0.000508019
0.000668573
0.000880448
0.00115966
0.00152721
0.0020107
0.00264645
0.00348232
0.00456258
0.00596627
0.00786774
0.0103764
0.0136934
0.0247466
0.0413857
0.0582039
0.07493
0.0913533
0.107308
0.12266
0.137299
0.15113
0.164064
0.176017
0.18691
0.196656
0.205157
0.212328
0.218103
0.222475
0.225542
0.227521
0.228697
0.229347
0.229684
0.229852
0.229932
0.229969
0.229986
0.229994
0.229997
0.229999
0.23
0.23
0.23
0.23
0.23
0.23
0.23
0.23
0.23
4.95828e-10
2.16712e-09
4.97781e-09
9.68529e-09
1.75236e-08
3.04767e-08
5.16857e-08
8.60339e-08
1.40955e-07
2.27487e-07
3.6155e-07
5.65306e-07
8.68304e-07
1.30789e-06
1.92814e-06
2.77662e-06
3.89872e-06
5.3302e-06
7.08989e-06
9.1747e-06
1.15587e-05
1.41958e-05
1.70257e-05
1.99793e-05
2.29847e-05
2.59712e-05
2.88727e-05
3.16297e-05
3.41909e-05
3.65147e-05
3.85715e-05
4.03483e-05
4.18572e-05
4.3149e-05
4.43311e-05
4.55871e-05
4.71931e-05
4.95272e-05
5.3075e-05
5.84395e-05
6.63635e-05
7.77684e-05
9.38139e-05
0.000115904
0.000145859
0.000186261
0.000240625
0.000312848
0.000408469
0.000534732
0.000701123
0.000920071
0.00120787
0.00158588
0.00208218
0.0027337
0.00358746
0.00468547
0.00611752
0.00806052
0.0106209
0.0139889
0.0277079
0.0443392
0.0611642
0.0778913
0.0942973
0.110209
0.125489
0.140024
0.153719
0.166487
0.178224
0.188896
0.198386
0.206609
0.213489
0.218974
0.22308
0.225927
0.227744
0.228816
0.229406
0.229713
0.229865
0.229938
0.229972
0.229987
0.229994
0.229998
0.229999
0.23
0.23
0.23
0.23
0.23
0.23
0.23
0.23
0.23
5.04292e-10
2.204e-09
5.06211e-09
9.84847e-09
1.78174e-08
3.09856e-08
5.25467e-08
8.74668e-08
1.43309e-07
2.31315e-07
3.67713e-07
5.7513e-07
8.83814e-07
1.33211e-06
1.96551e-06
2.83343e-06
3.9836e-06
5.45445e-06
7.26755e-06
9.42229e-06
1.18945e-05
1.46392e-05
1.75958e-05
2.06943e-05
2.38609e-05
2.70224e-05
3.01098e-05
3.30601e-05
3.58184e-05
3.83395e-05
4.05906e-05
4.25561e-05
4.42473e-05
4.57175e-05
4.70821e-05
4.85397e-05
5.03906e-05
5.3045e-05
5.70273e-05
6.29832e-05
7.17025e-05
8.41462e-05
0.000101439
0.000125095
0.000157176
0.000200512
0.000258145
0.000334442
0.000435118
0.000567648
0.000741816
0.000970423
0.00127022
0.00166317
0.00217805
0.00285158
0.00373361
0.00486454
0.0063392
0.0083285
0.010939
0.0143334
0.0303378
0.0470119
0.0638913
0.0806512
0.0970565
0.112931
0.128138
0.142568
0.156126
0.168728
0.180256
0.190715
0.199959
0.20792
0.21453
0.219752
0.223618
0.226269
0.227945
0.228925
0.229462
0.22974
0.229877
0.229943
0.229974
0.229989
0.229995
0.229998
0.229999
0.23
0.23
0.23
0.23
0.23
0.23
0.23
0.23
0.23
5.12091e-10
2.23802e-09
5.14009e-09
1e-08
1.80917e-08
3.14645e-08
5.33647e-08
8.88438e-08
1.45602e-07
2.35095e-07
3.73885e-07
5.85111e-07
8.9978e-07
1.35734e-06
2.00482e-06
2.89369e-06
4.07419e-06
5.58765e-06
7.45861e-06
9.68914e-06
1.22571e-05
1.51185e-05
1.82128e-05
2.1469e-05
2.48115e-05
2.81645e-05
3.14557e-05
3.46186e-05
3.75947e-05
4.0335e-05
4.28031e-05
4.49808e-05
4.68787e-05
4.85534e-05
5.01304e-05
5.18263e-05
5.3968e-05
5.70014e-05
6.14911e-05
6.81242e-05
7.77293e-05
9.12422e-05
0.000109906
0.000135607
0.000170434
0.000216824
0.000278286
0.000359397
0.000466139
0.000606344
0.000790255
0.00103127
0.0013469
0.00176
0.0023004
0.00300801
0.00393508
0.0051095
0.00669009
0.00875427
0.0114452
0.0148833
0.0318104
0.0489992
0.066162
0.0830651
0.0995219
0.115384
0.130529
0.144859
0.158286
0.170731
0.182059
0.192312
0.201348
0.209079
0.215446
0.22043
0.224083
0.226563
0.228115
0.229017
0.229509
0.229762
0.229888
0.229948
0.229976
0.229989
0.229995
0.229998
0.229999
0.23
0.23
0.23
0.23
0.23
0.23
0.23
0.23
0.23
5.19552e-10
2.2706e-09
5.21487e-09
1.01457e-08
1.83564e-08
3.19283e-08
5.41609e-08
9.01925e-08
1.47863e-07
2.38853e-07
3.80076e-07
5.95217e-07
9.16101e-07
1.38338e-06
2.04574e-06
2.95688e-06
4.16981e-06
5.72899e-06
7.66218e-06
9.97434e-06
1.26455e-05
1.5633e-05
1.88763e-05
2.23036e-05
2.58373e-05
2.93992e-05
3.29137e-05
3.63107e-05
3.95275e-05
4.25112e-05
4.52216e-05
4.76378e-05
4.97698e-05
5.16787e-05
5.35018e-05
5.54769e-05
5.79618e-05
6.14435e-05
6.65347e-05
7.3958e-05
8.45098e-05
9.92827e-05
0.000119884
0.000147785
0.000185162
0.000234816
0.000300413
0.000386759
0.000500158
0.00064889
0.000843835
0.0010993
0.00143414
0.00187323
0.00244951
0.00320673
0.0041973
0.00546465
0.00718856
0.00946308
0.0124731
0.0163929
0.0336139
0.0510199
0.068321
0.0852939
0.101764
0.117593
0.132667
0.146893
0.160188
0.172479
0.183654
0.193721
0.202554
0.21008
0.216234
0.22101
0.22448
0.226813
0.228261
0.229096
0.229549
0.229782
0.229897
0.229952
0.229978
0.22999
0.229996
0.229998
0.229999
0.23
0.23
0.23
0.23
0.23
0.23
0.23
0.23
0.23
5.26881e-10
2.30263e-09
5.28853e-09
1.02895e-08
1.86185e-08
3.23896e-08
5.49565e-08
9.15473e-08
1.50148e-07
2.42674e-07
3.86413e-07
6.05626e-07
9.33012e-07
1.4105e-06
2.08857e-06
3.0233e-06
4.27064e-06
5.87842e-06
7.8779e-06
1.02772e-05
1.30588e-05
1.61815e-05
1.95853e-05
2.31974e-05
2.69387e-05
3.07283e-05
3.44874e-05
3.81421e-05
4.16256e-05
4.48806e-05
4.7863e-05
5.05485e-05
5.29471e-05
5.51246e-05
5.72318e-05
5.95296e-05
6.24071e-05
6.63909e-05
7.213e-05
8.03363e-05
9.19596e-05
0.000108356
0.000130722
0.000160818
0.0002009
0.000253897
0.000323635
0.000415123
0.000534936
0.00069171
0.0008968
0.00116516
0.0015165
0.00197691
0.00258093
0.00337456
0.00441393
0.0057518
0.00758021
0.0100095
0.0132597
0.0180201
0.0354462
0.0529809
0.070351
0.0873443
0.103794
0.119566
0.134553
0.148663
0.161815
0.17394
0.184926
0.194802
0.203458
0.210829
0.216864
0.221498
0.224817
0.227025
0.228384
0.229163
0.229584
0.229799
0.229905
0.229956
0.22998
0.229991
0.229996
0.229998
0.229999
0.23
0.23
0.23
0.23
0.23
0.23
0.23
0.23
0.23
5.34149e-10
2.33441e-09
5.36168e-09
1.04326e-08
1.88798e-08
3.28507e-08
5.57546e-08
9.29114e-08
1.52459e-07
2.46555e-07
3.92877e-07
6.16292e-07
9.50418e-07
1.43853e-06
2.133e-06
3.09243e-06
4.37591e-06
6.03488e-06
8.10433e-06
1.05959e-05
1.34949e-05
1.67618e-05
2.03373e-05
2.41484e-05
2.81143e-05
3.21518e-05
3.61789e-05
4.0118e-05
4.38979e-05
4.74569e-05
5.07464e-05
5.37389e-05
5.6444e-05
5.89336e-05
6.13742e-05
6.40526e-05
6.73927e-05
7.19571e-05
7.83653e-05
8.74662e-05
0.000100458
0.000118326
0.000142511
0.000174828
0.000217607
0.000273871
0.00034756
0.000443823
0.000569404
0.000733136
0.000946607
0.00122503
0.00158839
0.00206302
0.00268361
0.00349601
0.00455201
0.00590569
0.00774466
0.0101634
0.0133525
0.0197605
0.0372628
0.0548439
0.0722317
0.0892152
0.10563
0.121345
0.136256
0.150272
0.163314
0.175309
0.186204
0.195939
0.204428
0.211602
0.217416
0.221904
0.225104
0.227206
0.228489
0.22922
0.229613
0.229813
0.229912
0.229959
0.229982
0.229992
0.229996
0.229998
0.229999
0.23
0.23
0.23
0.23
0.23
0.23
0.23
0.23
0.23
5.41352e-10
2.36591e-09
5.43428e-09
1.05748e-08
1.914e-08
3.33109e-08
5.65532e-08
9.42807e-08
1.54785e-07
2.50477e-07
3.99432e-07
6.27146e-07
9.68189e-07
1.46724e-06
2.17864e-06
3.16365e-06
4.48464e-06
6.19689e-06
8.33942e-06
1.09277e-05
1.39502e-05
1.73697e-05
2.1128e-05
2.5152e-05
2.936e-05
3.36667e-05
3.79872e-05
4.22402e-05
4.63505e-05
5.02515e-05
5.38901e-05
5.72356e-05
6.02975e-05
6.31544e-05
6.59905e-05
6.9119e-05
7.29946e-05
7.81664e-05
8.53601e-05
9.56671e-05
0.00010993
0.000129356
0.000155423
0.000189998
0.000235473
0.000294939
0.00037242
0.000473158
0.000603995
0.000773867
0.000994458
0.00128105
0.00165367
0.00213856
0.00277025
0.00359398
0.00465946
0.00602026
0.00786186
0.0102752
0.0134483
0.0214682
0.0389844
0.0565594
0.0739249
0.0908694
0.107225
0.122866
0.137687
0.1516
0.164549
0.176465
0.187284
0.196908
0.205265
0.212296
0.21796
0.222266
0.225343
0.22736
0.228578
0.229268
0.229637
0.229825
0.229918
0.229962
0.229983
0.229992
0.229997
0.229999
0.229999
0.23
0.23
0.23
0.23
0.23
0.23
0.23
0.23
0.23
5.48426e-10
2.39686e-09
5.50565e-09
1.07147e-08
1.93965e-08
3.37654e-08
5.73436e-08
9.56393e-08
1.571e-07
2.54389e-07
4.05991e-07
6.38037e-07
9.86073e-07
1.49621e-06
2.22484e-06
3.23592e-06
4.5953e-06
6.36225e-06
8.58011e-06
1.12685e-05
1.44196e-05
1.79989e-05
2.195e-05
2.62002e-05
3.06674e-05
3.52649e-05
3.99054e-05
4.45043e-05
4.89825e-05
5.32689e-05
5.7306e-05
6.10598e-05
6.45406e-05
6.78365e-05
7.11531e-05
7.48353e-05
7.93347e-05
8.52701e-05
9.35087e-05
0.000104936
0.000120577
0.00014166
0.000169702
0.000206612
0.000254832
0.000317518
0.000398757
0.000503861
0.000639742
0.000815398
0.00104256
0.00133651
0.00171724
0.00221079
0.00285104
0.00368281
0.00475623
0.00612354
0.0079686
0.0103797
0.0135419
0.0230011
0.040525
0.0580898
0.0754217
0.0923127
0.108608
0.124193
0.138963
0.152834
0.165716
0.177539
0.18824
0.197744
0.205977
0.212881
0.218417
0.222604
0.225552
0.227486
0.228653
0.229309
0.229658
0.229835
0.229923
0.229964
0.229984
0.229993
0.229997
0.229999
0.229999
0.23
0.23
0.23
0.23
0.23
0.23
0.23
0.23
0.23
5.55267e-10
2.42681e-09
5.57473e-09
1.08503e-08
1.96453e-08
3.42071e-08
5.81132e-08
9.69649e-08
1.59364e-07
2.58225e-07
4.12438e-07
6.48771e-07
1.00374e-06
1.52492e-06
2.27073e-06
3.30794e-06
4.7059e-06
6.52808e-06
8.82235e-06
1.16129e-05
1.4896e-05
1.86404e-05
2.27921e-05
2.72799e-05
3.2022e-05
3.6931e-05
4.19179e-05
4.68959e-05
5.17823e-05
5.6502e-05
6.09933e-05
6.52193e-05
6.91911e-05
7.30063e-05
7.68912e-05
8.12062e-05
8.63647e-05
9.32083e-05
0.000102627
0.000115388
0.000132573
0.000155456
0.000185599
0.00022496
0.000276035
0.000342035
0.000427111
0.000536637
0.000677585
0.000859006
0.00109267
0.00139383
0.00178226
0.0022838
0.00293269
0.00377426
0.00485544
0.00622833
0.00807674
0.0104862
0.0136384
0.0243224
0.0418614
0.0594182
0.0767253
0.0935954
0.10987
0.125412
0.140122
0.153914
0.166712
0.178445
0.18905
0.198452
0.206578
0.213371
0.218798
0.222882
0.225742
0.227594
0.228713
0.229342
0.229675
0.229844
0.229926
0.229966
0.229985
0.229993
0.229997
0.229999
0.229999
0.23
0.23
0.23
0.23
0.23
0.23
0.23
0.23
0.23
5.61741e-10
2.45515e-09
5.64016e-09
1.09789e-08
1.98815e-08
3.46269e-08
5.88459e-08
9.82294e-08
1.61528e-07
2.619e-07
4.1863e-07
6.59105e-07
1.0208e-06
1.5527e-06
2.31529e-06
3.37807e-06
4.81397e-06
6.6907e-06
9.06087e-06
1.19535e-05
1.53693e-05
1.92813e-05
2.36383e-05
2.83716e-05
3.34007e-05
3.86387e-05
4.39964e-05
4.93854e-05
5.4721e-05
5.99253e-05
6.49335e-05
6.97071e-05
7.42611e-05
7.87075e-05
8.3301e-05
8.83914e-05
9.45818e-05
0.000102538
0.000113135
0.000127308
0.000146146
0.000170954
0.000203328
0.000245274
0.00029934
0.000368795
0.000457846
0.000571931
0.000718083
0.000905353
0.00114541
0.00145341
0.00184932
0.00235965
0.00301817
0.00386843
0.00495686
0.00633524
0.0081862
0.0105922
0.0137313
0.0254464
0.0430062
0.060561
0.0778654
0.0947112
0.110943
0.126436
0.14109
0.154818
0.167546
0.179204
0.189728
0.199044
0.207079
0.213779
0.219112
0.223109
0.225895
0.227691
0.228764
0.229368
0.229689
0.229851
0.22993
0.229968
0.229985
0.229993
0.229997
0.229999
0.229999
0.23
0.23
0.23
0.23
0.23
0.23
0.23
0.23
0.23
5.67697e-10
2.48123e-09
5.70039e-09
1.10973e-08
2.00992e-08
3.50144e-08
5.95235e-08
9.94009e-08
1.63536e-07
2.65319e-07
4.24403e-07
6.68765e-07
1.03679e-06
1.57882e-06
2.35728e-06
3.44439e-06
4.91653e-06
6.84564e-06
9.28912e-06
1.2281e-05
1.5827e-05
1.99044e-05
2.44664e-05
2.94473e-05
3.47693e-05
4.03475e-05
4.60938e-05
5.19203e-05
5.7742e-05
6.34798e-05
6.90673e-05
7.44657e-05
7.96941e-05
8.48784e-05
9.02954e-05
9.62866e-05
0.000103572
0.000112868
0.000124908
0.000140685
0.000161336
0.000188211
0.000222955
0.000267626
0.000324832
0.000397898
0.00049108
0.000609834
0.000761135
0.000954087
0.00120053
0.00151623
0.001921
0.00244014
0.00310719
0.00396583
0.00506118
0.00644456
0.0082973
0.0106989
0.0138157
0.0263739
0.0439627
0.0615262
0.0788161
0.0956365
0.111834
0.127285
0.14189
0.155565
0.168235
0.17983
0.190288
0.199532
0.207492
0.214114
0.21937
0.223294
0.226018
0.227767
0.228809
0.229391
0.2297
0.229856
0.229932
0.229969
0.229986
0.229994
0.229997
0.229999
0.229999
0.23
0.23
0.23
0.23
0.23
0.23
0.23
0.23
0.23
5.72975e-10
2.50434e-09
5.75379e-09
1.12023e-08
2.02926e-08
3.53591e-08
6.01269e-08
1.00446e-07
1.65331e-07
2.6838e-07
4.29583e-07
6.77451e-07
1.0512e-06
1.60243e-06
2.39537e-06
3.50473e-06
5.01019e-06
6.98772e-06
9.49938e-06
1.25842e-05
1.6253e-05
2.04882e-05
2.52473e-05
3.04693e-05
3.60801e-05
4.19984e-05
4.81394e-05
5.44183e-05
6.07521e-05
6.70641e-05
7.32901e-05
7.93954e-05
8.54087e-05
9.14761e-05
9.78848e-05
0.000105172
0.000113773
0.000124464
0.000138016
0.000155485
0.000178048
0.000207093
0.00024431
0.0002918
0.000352206
0.000428872
0.000526105
0.000649457
0.000806086
0.00100544
0.00125936
0.00158279
0.0019955
0.00252302
0.00319852
0.00406514
0.0051668
0.00655409
0.00840679
0.0108013
0.013893
0.0271237
0.0447375
0.0623094
0.0795906
0.0963908
0.112559
0.127976
0.142541
0.156172
0.168794
0.180338
0.190741
0.199927
0.207826
0.214384
0.219576
0.223442
0.226116
0.227827
0.228844
0.22941
0.22971
0.229861
0.229934
0.22997
0.229986
0.229994
0.229997
0.229999
0.229999
0.23
0.23
0.23
0.23
0.23
0.23
0.23
0.23
0.23
5.77418e-10
2.5238e-09
5.79876e-09
1.12909e-08
2.04557e-08
3.565e-08
6.06369e-08
1.0133e-07
1.66853e-07
2.7098e-07
4.33991e-07
6.84861e-07
1.06353e-06
1.62267e-06
2.42811e-06
3.55679e-06
5.09128e-06
7.11124e-06
9.68297e-06
1.28503e-05
1.6629e-05
2.10065e-05
2.59455e-05
3.13897e-05
3.72704e-05
4.35112e-05
5.00327e-05
5.67555e-05
6.36027e-05
7.05039e-05
7.74027e-05
8.42754e-05
9.11698e-05
9.82634e-05
0.000105873
0.000114396
0.000124317
0.000136389
0.000151625
0.000170922
0.000195477
0.000226722
0.000266399
0.000316664
0.000380232
0.000460549
0.000562158
0.000690657
0.000853266
0.00105898
0.00131966
0.0016505
0.00207112
0.00260683
0.00329041
0.00416442
0.00527156
0.00666137
0.00851185
0.0108961
0.0139597
0.0277162
0.0453587
0.0629354
0.0802084
0.0969909
0.113135
0.128522
0.143055
0.15665
0.169233
0.180736
0.191096
0.200236
0.208086
0.214594
0.219737
0.223556
0.226192
0.227874
0.22887
0.229425
0.229717
0.229864
0.229936
0.229971
0.229987
0.229994
0.229997
0.229999
0.23
0.23
0.23
0.23
0.23
0.23
0.23
0.23
0.23
0.23
5.80883e-10
2.53898e-09
5.83385e-09
1.136e-08
2.05831e-08
3.58775e-08
6.1036e-08
1.02023e-07
1.68047e-07
2.73024e-07
4.37462e-07
6.90706e-07
1.07327e-06
1.63871e-06
2.45414e-06
3.59827e-06
5.15613e-06
7.21036e-06
9.83093e-06
1.30657e-05
1.69349e-05
2.14307e-05
2.65204e-05
3.21531e-05
3.82652e-05
4.47865e-05
5.16442e-05
5.87662e-05
6.60844e-05
7.35384e-05
8.10844e-05
8.87154e-05
9.65043e-05
0.000104661
0.000113542
0.000123459
0.000134838
0.000148439
0.000165161
0.000186136
0.000212591
0.000245999
0.000288161
0.000341308
0.000408242
0.000492507
0.000598438
0.000731724
0.000899595
0.00111126
0.00137854
0.00171657
0.00214482
0.00268837
0.00337957
0.0042603
0.00537211
0.00676312
0.0086093
0.0109802
0.0140128
0.0281545
0.0458247
0.0634092
0.0806767
0.0974452
0.11357
0.128934
0.14344
0.157007
0.16956
0.181032
0.191359
0.200464
0.208278
0.214749
0.219855
0.22364
0.226247
0.227907
0.22889
0.229435
0.229722
0.229867
0.229937
0.229971
0.229987
0.229994
0.229997
0.229999
0.23
0.23
0.23
0.23
0.23
0.23
0.23
0.23
0.23
0.23
5.8325e-10
2.54935e-09
5.85782e-09
1.14072e-08
2.06702e-08
3.60329e-08
6.13089e-08
1.02497e-07
1.68865e-07
2.74424e-07
4.39843e-07
6.9472e-07
1.07997e-06
1.64976e-06
2.4721e-06
3.62699e-06
5.20114e-06
7.2794e-06
9.93436e-06
1.32169e-05
1.71506e-05
2.17312e-05
2.69301e-05
3.27003e-05
3.89833e-05
4.57141e-05
5.28263e-05
6.02554e-05
6.79426e-05
7.58391e-05
8.39164e-05
9.21892e-05
0.000100763
0.000109888
0.000119924
0.000131219
0.000144074
0.000159183
0.000177485
0.000200091
0.000228296
0.000263636
0.000307967
0.000363573
0.000433295
0.000520698
0.000630278
0.000767743
0.000940354
0.00115736
0.00143057
0.00177509
0.00221027
0.00276094
0.00345906
0.00434584
0.00546174
0.00685324
0.00869411
0.01105
0.0140502
0.0284434
0.0461418
0.0637353
0.0809998
0.0977579
0.113868
0.129214
0.143701
0.157247
0.169779
0.181229
0.191534
0.200615
0.208405
0.214851
0.219932
0.223695
0.226283
0.227929
0.228902
0.229442
0.229726
0.229869
0.229938
0.229972
0.229987
0.229994
0.229997
0.229999
0.23
0.23
0.23
0.23
0.23
0.23
0.23
0.23
0.23
0.23
5.84434e-10
2.55452e-09
5.86977e-09
1.14306e-08
2.07133e-08
3.61097e-08
6.14433e-08
1.0273e-07
1.69265e-07
2.75108e-07
4.41005e-07
6.96677e-07
1.08324e-06
1.65515e-06
2.48087e-06
3.64103e-06
5.2232e-06
7.31334e-06
9.9854e-06
1.32919e-05
1.72581e-05
2.18818e-05
2.71364e-05
3.29777e-05
3.93497e-05
4.61907e-05
5.34383e-05
6.10329e-05
6.89217e-05
7.70639e-05
8.54414e-05
9.40839e-05
0.000103116
0.000112795
0.000123516
0.000135716
0.000149777
0.00016602
0.000185402
0.000209096
0.000238452
0.000275051
0.000320795
0.00037801
0.000449576
0.000539104
0.000651138
0.000791432
0.000967285
0.00118798
0.00146535
0.00181448
0.00225466
0.00281061
0.00351402
0.00440562
0.00552502
0.0069174
0.00875444
0.011098
0.0140699
0.0285854
0.0463082
0.0639094
0.0811721
0.0979232
0.114023
0.129359
0.143835
0.157369
0.169889
0.181327
0.19162
0.200689
0.208466
0.2149
0.219969
0.223721
0.2263
0.227939
0.228908
0.229445
0.229728
0.229869
0.229939
0.229972
0.229987
0.229994
0.229997
0.229999
0.23
0.23
0.23
0.23
0.23
0.23
0.23
0.23
0.23
0.23
5.84435e-10
2.55453e-09
5.86978e-09
1.14307e-08
2.07133e-08
3.61098e-08
6.14434e-08
1.0273e-07
1.69266e-07
2.75109e-07
4.41005e-07
6.96678e-07
1.08324e-06
1.65515e-06
2.48088e-06
3.64104e-06
5.22321e-06
7.31336e-06
9.98543e-06
1.32919e-05
1.72582e-05
2.18819e-05
2.71365e-05
3.29778e-05
3.93498e-05
4.61909e-05
5.34385e-05
6.10331e-05
6.89218e-05
7.7064e-05
8.54414e-05
9.40838e-05
0.000103116
0.000112795
0.000123516
0.000135716
0.000149777
0.00016602
0.000185402
0.000209097
0.000238452
0.000275052
0.000320796
0.00037801
0.000449577
0.000539104
0.000651139
0.000791432
0.000967285
0.00118798
0.00146535
0.00181448
0.00225466
0.00281061
0.00351402
0.00440562
0.00552502
0.0069174
0.00875444
0.011098
0.0140699
0.0285853
0.0463081
0.0639093
0.081172
0.0979231
0.114023
0.129359
0.143834
0.157369
0.169889
0.181327
0.19162
0.200689
0.208466
0.2149
0.219969
0.223721
0.2263
0.227939
0.228908
0.229445
0.229728
0.229869
0.229939
0.229972
0.229987
0.229994
0.229997
0.229999
0.23
0.23
0.23
0.23
0.23
0.23
0.23
0.23
0.23
0.23
5.83252e-10
2.54935e-09
5.85784e-09
1.14072e-08
2.06702e-08
3.6033e-08
6.13091e-08
1.02498e-07
1.68865e-07
2.74425e-07
4.39845e-07
6.94723e-07
1.07998e-06
1.64977e-06
2.47212e-06
3.62701e-06
5.20118e-06
7.27946e-06
9.93445e-06
1.3217e-05
1.71508e-05
2.17315e-05
2.69304e-05
3.27007e-05
3.89837e-05
4.57146e-05
5.28269e-05
6.02561e-05
6.79433e-05
7.58397e-05
8.39168e-05
9.21892e-05
0.000100762
0.000109886
0.000119924
0.00013122
0.000144075
0.000159184
0.000177487
0.000200093
0.000228298
0.000263637
0.000307968
0.000363574
0.000433296
0.000520699
0.000630279
0.000767744
0.000940354
0.00115736
0.00143057
0.00177509
0.00221027
0.00276093
0.00345905
0.00434584
0.00546173
0.00685323
0.00869409
0.01105
0.0140502
0.0284432
0.0461415
0.063735
0.0809995
0.0977576
0.113867
0.129214
0.143701
0.157247
0.169779
0.181229
0.191534
0.200615
0.208405
0.214851
0.219932
0.223695
0.226283
0.227929
0.228902
0.229442
0.229726
0.229869
0.229938
0.229972
0.229987
0.229994
0.229997
0.229999
0.23
0.23
0.23
0.23
0.23
0.23
0.23
0.23
0.23
0.23
5.80885e-10
2.53898e-09
5.83387e-09
1.136e-08
2.05832e-08
3.58776e-08
6.10362e-08
1.02024e-07
1.68048e-07
2.73025e-07
4.37464e-07
6.9071e-07
1.07328e-06
1.63872e-06
2.45415e-06
3.5983e-06
5.15617e-06
7.21043e-06
9.83103e-06
1.30658e-05
1.69351e-05
2.14309e-05
2.65207e-05
3.21534e-05
3.82657e-05
4.47871e-05
5.16448e-05
5.8767e-05
6.60854e-05
7.35398e-05
8.10864e-05
8.87187e-05
9.65097e-05
0.00010467
0.000113547
0.000123462
0.00013484
0.00014844
0.000165162
0.000186137
0.000212592
0.000246
0.000288162
0.000341309
0.000408243
0.000492508
0.000598439
0.000731725
0.000899596
0.00111126
0.00137854
0.00171657
0.00214482
0.00268837
0.00337956
0.0042603
0.0053721
0.00676311
0.00860928
0.0109802
0.0140128
0.028154
0.0458242
0.0634087
0.0806762
0.0974448
0.113569
0.128933
0.14344
0.157006
0.16956
0.181031
0.191359
0.200464
0.208278
0.214749
0.219855
0.22364
0.226247
0.227907
0.22889
0.229435
0.229722
0.229867
0.229937
0.229971
0.229987
0.229994
0.229997
0.229999
0.23
0.23
0.23
0.23
0.23
0.23
0.23
0.23
0.23
0.23
5.77421e-10
2.52381e-09
5.79879e-09
1.12909e-08
2.04558e-08
3.56502e-08
6.06371e-08
1.01331e-07
1.66854e-07
2.70982e-07
4.33994e-07
6.84865e-07
1.06353e-06
1.62268e-06
2.42813e-06
3.55682e-06
5.09133e-06
7.11131e-06
9.68309e-06
1.28504e-05
1.66292e-05
2.10068e-05
2.59458e-05
3.13902e-05
3.72709e-05
4.35118e-05
5.00335e-05
5.67564e-05
6.36037e-05
7.0505e-05
7.74038e-05
8.42762e-05
9.11697e-05
9.82609e-05
0.000105873
0.000114398
0.000124319
0.000136391
0.000151626
0.000170923
0.000195478
0.000226723
0.0002664
0.000316666
0.000380233
0.00046055
0.00056216
0.000690659
0.000853268
0.00105898
0.00131966
0.0016505
0.00207112
0.00260682
0.00329041
0.00416442
0.00527155
0.00666135
0.00851182
0.010896
0.0139597
0.0277156
0.045358
0.0629347
0.0802077
0.0969902
0.113135
0.128522
0.143054
0.156649
0.169232
0.180735
0.191095
0.200235
0.208086
0.214594
0.219737
0.223556
0.226192
0.227874
0.22887
0.229425
0.229717
0.229864
0.229936
0.229971
0.229987
0.229994
0.229997
0.229999
0.23
0.23
0.23
0.23
0.23
0.23
0.23
0.23
0.23
0.23
5.72978e-10
2.50435e-09
5.75382e-09
1.12024e-08
2.02927e-08
3.53592e-08
6.01272e-08
1.00446e-07
1.65332e-07
2.68382e-07
4.29585e-07
6.77456e-07
1.05121e-06
1.60244e-06
2.39539e-06
3.50476e-06
5.01024e-06
6.98781e-06
9.4995e-06
1.25844e-05
1.62532e-05
2.04885e-05
2.52477e-05
3.04697e-05
3.60807e-05
4.19991e-05
4.81402e-05
5.44192e-05
6.07532e-05
6.70653e-05
7.32916e-05
7.93973e-05
8.54113e-05
9.14799e-05
9.7889e-05
0.000105177
0.000113778
0.00012447
0.000138022
0.00015549
0.000178052
0.000207097
0.000244313
0.000291803
0.000352209
0.000428875
0.000526108
0.000649461
0.000806089
0.00100545
0.00125937
0.00158279
0.0019955
0.00252302
0.00319851
0.00406514
0.00516679
0.00655407
0.00840676
0.0108012
0.0138929
0.0271228
0.0447366
0.0623084
0.0795897
0.09639
0.112559
0.127975
0.14254
0.156171
0.168793
0.180337
0.19074
0.199926
0.207825
0.214384
0.219576
0.223442
0.226116
0.227827
0.228844
0.22941
0.22971
0.229861
0.229934
0.22997
0.229986
0.229994
0.229997
0.229999
0.229999
0.23
0.23
0.23
0.23
0.23
0.23
0.23
0.23
0.23
5.67701e-10
2.48124e-09
5.70042e-09
1.10974e-08
2.00994e-08
3.50147e-08
5.95239e-08
9.94015e-08
1.63537e-07
2.65321e-07
4.24406e-07
6.68769e-07
1.0368e-06
1.57883e-06
2.3573e-06
3.44442e-06
4.91658e-06
6.84571e-06
9.28922e-06
1.22811e-05
1.58271e-05
1.99047e-05
2.44667e-05
2.94477e-05
3.47698e-05
4.03481e-05
4.60945e-05
5.19212e-05
5.7743e-05
6.3481e-05
6.90688e-05
7.44677e-05
7.9697e-05
8.48828e-05
9.03022e-05
9.62975e-05
0.000103591
0.00011288
0.000124916
0.00014069
0.000161341
0.000188215
0.000222959
0.00026763
0.000324835
0.000397902
0.000491083
0.000609838
0.000761139
0.000954091
0.00120054
0.00151624
0.001921
0.00244014
0.00310719
0.00396583
0.00506117
0.00644455
0.00829728
0.0106989
0.0138157
0.0263728
0.0439616
0.0615251
0.078815
0.0956355
0.111833
0.127284
0.141889
0.155564
0.168234
0.179829
0.190287
0.199531
0.207491
0.214113
0.219369
0.223294
0.226018
0.227767
0.228809
0.229391
0.2297
0.229856
0.229932
0.229969
0.229986
0.229994
0.229997
0.229999
0.229999
0.23
0.23
0.23
0.23
0.23
0.23
0.23
0.23
0.23
5.61745e-10
2.45517e-09
5.6402e-09
1.0979e-08
1.98816e-08
3.46271e-08
5.88463e-08
9.823e-08
1.61529e-07
2.61902e-07
4.18632e-07
6.59109e-07
1.02081e-06
1.55271e-06
2.3153e-06
3.37809e-06
4.814e-06
6.69074e-06
9.06093e-06
1.19536e-05
1.53694e-05
1.92814e-05
2.36385e-05
2.83718e-05
3.3401e-05
3.8639e-05
4.39966e-05
4.93857e-05
5.47212e-05
5.99255e-05
6.49335e-05
6.97069e-05
7.42604e-05
7.87058e-05
8.32973e-05
8.83847e-05
9.45681e-05
0.000102532
0.000113134
0.000127308
0.000146148
0.000170956
0.000203331
0.000245278
0.000299344
0.000368799
0.000457851
0.000571936
0.000718088
0.000905359
0.00114542
0.00145342
0.00184933
0.00235966
0.00301818
0.00386845
0.00495688
0.00633526
0.00818622
0.0105922
0.0137313
0.0254453
0.0430051
0.0605599
0.0778642
0.09471
0.110942
0.126435
0.141088
0.154817
0.167545
0.179203
0.189727
0.199043
0.207078
0.213778
0.219112
0.223109
0.225895
0.22769
0.228764
0.229368
0.229689
0.229851
0.22993
0.229968
0.229985
0.229993
0.229997
0.229999
0.229999
0.23
0.23
0.23
0.23
0.23
0.23
0.23
0.23
0.23
5.55271e-10
2.42683e-09
5.57478e-09
1.08504e-08
1.96455e-08
3.42073e-08
5.81136e-08
9.69655e-08
1.59365e-07
2.58227e-07
4.12441e-07
6.48774e-07
1.00375e-06
1.52492e-06
2.27074e-06
3.30795e-06
4.70591e-06
6.52809e-06
8.82237e-06
1.16129e-05
1.4896e-05
1.86404e-05
2.27921e-05
2.72799e-05
3.20219e-05
3.69308e-05
4.19177e-05
4.68956e-05
5.17818e-05
5.65014e-05
6.09924e-05
6.52181e-05
6.91895e-05
7.30043e-05
7.68887e-05
8.12032e-05
8.63608e-05
9.32057e-05
0.000102626
0.000115389
0.000132574
0.000155458
0.000185602
0.000224964
0.00027604
0.000342041
0.000427117
0.000536644
0.000677593
0.000859014
0.00109267
0.00139384
0.00178226
0.00228379
0.00293269
0.00377427
0.00485545
0.00622835
0.00807676
0.0104862
0.0136384
0.0243214
0.0418605
0.0594173
0.0767241
0.093594
0.109869
0.125411
0.140121
0.153913
0.166711
0.178444
0.189049
0.198451
0.206577
0.213371
0.218797
0.222881
0.225742
0.227594
0.228713
0.229342
0.229675
0.229844
0.229926
0.229966
0.229985
0.229993
0.229997
0.229999
0.229999
0.23
0.23
0.23
0.23
0.23
0.23
0.23
0.23
0.23
5.48431e-10
2.39689e-09
5.5057e-09
1.07148e-08
1.93967e-08
3.37657e-08
5.73441e-08
9.56399e-08
1.57101e-07
2.54391e-07
4.05993e-07
6.3804e-07
9.86076e-07
1.49621e-06
2.22484e-06
3.23592e-06
4.59529e-06
6.36223e-06
8.58008e-06
1.12685e-05
1.44195e-05
1.79988e-05
2.19497e-05
2.61999e-05
3.0667e-05
3.52644e-05
3.99047e-05
4.45036e-05
4.89816e-05
5.32678e-05
5.73047e-05
6.10584e-05
6.4539e-05
6.78347e-05
7.11511e-05
7.48329e-05
7.93324e-05
8.52692e-05
9.35087e-05
0.000104937
0.000120579
0.000141663
0.000169706