/*--------------------------------*- C++ -*----------------------------------*\
  =========                 |
  \\      /  F ield         | OpenFOAM: The Open Source CFD Toolbox
   \\    /   O peration     | Website:  https://openfoam.org
    \\  /    A nd           | Version:  8
     \\/     M anipulation  |
\*---------------------------------------------------------------------------*/
FoamFile
{
    version     2.0;
    format      ascii;
    class       surfaceScalarField;
    location    "960/fluid";
    object      phi;
}
// * * * * * * * * * * * * * * * * * * * * * * * * * * * * * * * * * * * * * //

dimensions      [1 0 -1 0 0 0 0];

internalField   nonuniform List<scalar> 
7860
(
6.57257e-07
-1.7779e-08
6.54562e-07
-5.33385e-08
6.50725e-07
-8.87233e-08
6.45637e-07
-1.23827e-07
6.39162e-07
-1.5865e-07
6.31136e-07
-1.93149e-07
6.21373e-07
-2.2724e-07
6.09673e-07
-2.60799e-07
5.9583e-07
-2.93659e-07
5.79648e-07
-3.25597e-07
5.60956e-07
-3.56325e-07
5.39633e-07
-3.85475e-07
5.15654e-07
-4.12589e-07
4.892e-07
-4.37125e-07
4.6055e-07
-4.58441e-07
4.30073e-07
-4.75873e-07
3.98242e-07
-4.88866e-07
3.65605e-07
-4.97126e-07
3.32724e-07
-5.00743e-07
3.00111e-07
-5.00205e-07
2.6817e-07
-4.96302e-07
2.37188e-07
-4.89943e-07
2.07343e-07
-4.81986e-07
1.78768e-07
-4.73127e-07
1.5151e-07
-4.63849e-07
1.2553e-07
-4.5445e-07
1.0076e-07
-4.4509e-07
7.71229e-08
-4.35836e-07
5.45489e-08
-4.26699e-07
3.29759e-08
-4.17659e-07
1.23514e-08
-4.08689e-07
-7.3645e-09
-3.9976e-07
-2.62001e-08
-3.90853e-07
-4.41849e-08
-3.81959e-07
-6.13499e-08
-3.73081e-07
-7.7718e-08
-3.64208e-07
-9.3309e-08
-3.55301e-07
-1.08142e-07
-3.46374e-07
-1.22235e-07
-3.37446e-07
-1.35608e-07
-3.28541e-07
-1.48279e-07
-3.19683e-07
-1.60267e-07
-3.10899e-07
-1.71592e-07
-3.02214e-07
-1.82274e-07
-2.93658e-07
-1.92333e-07
-2.85257e-07
-2.0179e-07
-2.77039e-07
-2.10665e-07
-2.69031e-07
-2.1898e-07
-2.61258e-07
-2.26756e-07
-2.53749e-07
-2.34014e-07
-2.46527e-07
-2.40777e-07
-2.39621e-07
-2.47068e-07
-2.33057e-07
-2.5291e-07
-2.26865e-07
-2.5833e-07
-2.21077e-07
-2.63357e-07
-2.15731e-07
-2.68025e-07
-2.10871e-07
-2.72379e-07
-2.0655e-07
-2.76471e-07
-2.02862e-07
-2.80359e-07
-1.99875e-07
-2.84119e-07
-1.97651e-07
-2.87884e-07
-1.96429e-07
-2.92092e-07
-1.96382e-07
-2.97003e-07
-1.98627e-07
-3.03855e-07
-2.09756e-07
-3.11757e-07
-2.22204e-07
-3.20516e-07
-2.35942e-07
-3.30185e-07
-2.51152e-07
-3.40882e-07
-2.68071e-07
-3.52768e-07
-2.86974e-07
-3.66059e-07
-3.08185e-07
-3.81051e-07
-3.32098e-07
-3.98136e-07
-3.59179e-07
-4.17844e-07
-3.89959e-07
-4.40859e-07
-4.25161e-07
-4.68041e-07
-4.65444e-07
-5.00362e-07
-5.10833e-07
-5.38715e-07
-5.60272e-07
-5.83378e-07
-6.10853e-07
-6.34112e-07
-6.57119e-07
-6.89728e-07
-6.91974e-07
-7.47875e-07
-7.09761e-07
-8.05635e-07
-7.09345e-07
-8.60498e-07
-6.93928e-07
-9.1091e-07
-6.68185e-07
-9.56212e-07
-6.36153e-07
-9.9622e-07
-6.00458e-07
-1.03082e-06
-5.62551e-07
-1.06035e-06
-5.23127e-07
-1.08535e-06
-4.82626e-07
-1.10636e-06
-4.41379e-07
-1.12387e-06
-3.9964e-07
-1.13834e-06
-3.57604e-07
-1.15016e-06
-3.15421e-07
-1.1597e-06
-2.732e-07
-1.16728e-06
-2.31015e-07
-1.17318e-06
-1.88905e-07
-1.17763e-06
-1.46879e-07
-1.18083e-06
-1.04907e-07
-1.18292e-06
-6.29364e-08
-2.09733e-08
6.57905e-07
-1.71505e-08
6.5576e-07
-5.11935e-08
6.5202e-07
-8.49831e-08
6.46683e-07
-1.1849e-07
6.39681e-07
-1.51648e-07
6.30913e-07
-1.84382e-07
6.20266e-07
-2.16593e-07
6.07623e-07
-2.48156e-07
5.92879e-07
-2.78915e-07
5.75954e-07
-3.08672e-07
5.56801e-07
-3.37172e-07
5.35424e-07
-3.64098e-07
5.11892e-07
-3.89057e-07
4.86368e-07
-4.11602e-07
4.59086e-07
-4.31159e-07
4.30341e-07
-4.47129e-07
4.00506e-07
-4.59031e-07
3.69999e-07
-4.6662e-07
3.39248e-07
-4.69992e-07
3.08638e-07
-4.69596e-07
2.78478e-07
-4.66143e-07
2.48989e-07
-4.60455e-07
2.20312e-07
-4.5331e-07
1.92545e-07
-4.45361e-07
1.65739e-07
-4.37044e-07
1.39904e-07
-4.28616e-07
1.15031e-07
-4.20217e-07
9.11009e-08
-4.11906e-07
6.80922e-08
-4.0369e-07
4.59843e-08
-3.95552e-07
2.47572e-08
-3.87462e-07
4.39164e-09
-3.79395e-07
-1.51306e-08
-3.71331e-07
-3.38261e-08
-3.63263e-07
-5.17126e-08
-3.55195e-07
-6.88038e-08
-3.47117e-07
-8.51134e-08
-3.38992e-07
-1.00657e-07
-3.30831e-07
-1.1545e-07
-3.22653e-07
-1.2951e-07
-3.14481e-07
-1.42855e-07
-3.06338e-07
-1.55504e-07
-2.9825e-07
-1.67478e-07
-2.90241e-07
-1.78796e-07
-2.8234e-07
-1.89481e-07
-2.74572e-07
-1.99555e-07
-2.66965e-07
-2.09042e-07
-2.59544e-07
-2.17965e-07
-2.52336e-07
-2.26348e-07
-2.45365e-07
-2.34219e-07
-2.38658e-07
-2.41603e-07
-2.32237e-07
-2.4853e-07
-2.2613e-07
-2.55031e-07
-2.20363e-07
-2.61144e-07
-2.14965e-07
-2.66908e-07
-2.09967e-07
-2.72375e-07
-2.05405e-07
-2.77604e-07
-2.01321e-07
-2.82674e-07
-1.97793e-07
-2.87686e-07
-1.94864e-07
-2.92784e-07
-1.92553e-07
-2.98198e-07
-1.91015e-07
-3.04209e-07
-1.90373e-07
-3.09961e-07
-1.92872e-07
-3.16984e-07
-2.02733e-07
-3.25236e-07
-2.13951e-07
-3.34617e-07
-2.2656e-07
-3.4512e-07
-2.40648e-07
-3.56819e-07
-2.56371e-07
-3.69848e-07
-2.73944e-07
-3.84389e-07
-2.93642e-07
-4.00677e-07
-3.15808e-07
-4.19006e-07
-3.40847e-07
-4.3972e-07
-3.69242e-07
-4.63202e-07
-4.01676e-07
-4.89926e-07
-4.38716e-07
-5.20423e-07
-4.80331e-07
-5.55202e-07
-5.25487e-07
-5.94579e-07
-5.7147e-07
-6.38627e-07
-6.13065e-07
-6.86767e-07
-6.43829e-07
-7.37463e-07
-6.59062e-07
-7.88585e-07
-6.58221e-07
-8.38187e-07
-6.44325e-07
-8.84955e-07
-6.21416e-07
-9.28244e-07
-5.92863e-07
-9.67796e-07
-5.60906e-07
-1.00345e-06
-5.26893e-07
-1.03521e-06
-4.91373e-07
-1.06316e-06
-4.54671e-07
-1.08749e-06
-4.17052e-07
-1.10841e-06
-3.78721e-07
-1.12617e-06
-3.39841e-07
-1.14105e-06
-3.00547e-07
-1.1533e-06
-2.60947e-07
-1.16319e-06
-2.21128e-07
-1.17094e-06
-1.81155e-07
-1.17675e-06
-1.41068e-07
-1.18077e-06
-1.00884e-07
-1.18309e-06
-6.06164e-08
-2.0244e-08
6.57605e-07
-1.62223e-08
6.5492e-07
-4.85084e-08
6.5049e-07
-8.05523e-08
6.44278e-07
-1.12279e-07
6.36244e-07
-1.43614e-07
6.26339e-07
-1.74476e-07
6.14515e-07
-2.04769e-07
6.00735e-07
-2.34377e-07
5.84982e-07
-2.63162e-07
5.67263e-07
-2.90953e-07
5.47622e-07
-3.17531e-07
5.26136e-07
-3.42613e-07
5.02918e-07
-3.65839e-07
4.78084e-07
-3.86769e-07
4.51817e-07
-4.04892e-07
4.24382e-07
-4.19695e-07
3.96106e-07
-4.30755e-07
3.67344e-07
-4.37859e-07
3.38446e-07
-4.41095e-07
3.09719e-07
-4.40871e-07
2.81405e-07
-4.3783e-07
2.53671e-07
-4.32722e-07
2.26615e-07
-4.26255e-07
2.00265e-07
-4.19011e-07
1.74626e-07
-4.11405e-07
1.49707e-07
-4.03698e-07
1.25517e-07
-3.96028e-07
1.02063e-07
-3.88452e-07
7.93493e-08
-3.80978e-07
5.73804e-08
-3.73583e-07
3.61574e-08
-3.66239e-07
1.56804e-08
-3.58918e-07
-4.05225e-09
-3.51599e-07
-2.30447e-08
-3.44271e-07
-4.13033e-08
-3.36937e-07
-5.88322e-08
-3.29588e-07
-7.56367e-08
-3.22187e-07
-9.17249e-08
-3.14743e-07
-1.07107e-07
-3.07271e-07
-1.21795e-07
-2.99793e-07
-1.35804e-07
-2.9233e-07
-1.49147e-07
-2.84906e-07
-1.61844e-07
-2.77544e-07
-1.73914e-07
-2.70271e-07
-1.85376e-07
-2.6311e-07
-1.96255e-07
-2.56086e-07
-2.06574e-07
-2.49226e-07
-2.16358e-07
-2.42552e-07
-2.25637e-07
-2.36087e-07
-2.3444e-07
-2.29855e-07
-2.428e-07
-2.23877e-07
-2.50754e-07
-2.18177e-07
-2.58343e-07
-2.12775e-07
-2.65613e-07
-2.07696e-07
-2.72617e-07
-2.02963e-07
-2.79417e-07
-1.98606e-07
-2.86086e-07
-1.94653e-07
-2.92707e-07
-1.91173e-07
-2.99384e-07
-1.88187e-07
-3.06239e-07
-1.85699e-07
-3.1341e-07
-1.83846e-07
-3.2106e-07
-1.82727e-07
-3.27796e-07
-1.86132e-07
-3.35569e-07
-1.9496e-07
-3.44417e-07
-2.05102e-07
-3.54368e-07
-2.16608e-07
-3.65468e-07
-2.29547e-07
-3.77792e-07
-2.44044e-07
-3.91445e-07
-2.6029e-07
-4.0655e-07
-2.78535e-07
-4.23254e-07
-2.99102e-07
-4.41718e-07
-3.2238e-07
-4.62098e-07
-3.48859e-07
-4.84545e-07
-3.79224e-07
-5.0929e-07
-4.13967e-07
-5.36659e-07
-4.52956e-07
-5.67154e-07
-4.94986e-07
-6.01551e-07
-5.37067e-07
-6.404e-07
-5.7421e-07
-6.83484e-07
-6.0074e-07
-7.29544e-07
-6.12999e-07
-7.7667e-07
-6.11093e-07
-8.23046e-07
-5.97948e-07
-8.67382e-07
-5.77079e-07
-9.08956e-07
-5.51289e-07
-9.47462e-07
-5.224e-07
-9.82901e-07
-4.91453e-07
-1.01524e-06
-4.5903e-07
-1.04445e-06
-4.25465e-07
-1.07053e-06
-3.90969e-07
-1.09356e-06
-3.55697e-07
-1.11362e-06
-3.19773e-07
-1.13086e-06
-2.83306e-07
-1.14542e-06
-2.46389e-07
-1.15745e-06
-2.09105e-07
-1.16708e-06
-1.71525e-07
-1.17444e-06
-1.33702e-07
-1.17965e-06
-9.56794e-08
-1.18277e-06
-5.74956e-08
-1.91887e-08
6.57625e-07
-1.53139e-08
6.54876e-07
-4.57591e-08
6.5028e-07
-7.59566e-08
6.43835e-07
-1.05833e-07
6.35531e-07
-1.3531e-07
6.25357e-07
-1.64302e-07
6.13303e-07
-1.92715e-07
5.99368e-07
-2.20442e-07
5.83559e-07
-2.47353e-07
5.65899e-07
-2.73293e-07
5.46429e-07
-2.98061e-07
5.25219e-07
-3.21403e-07
5.02373e-07
-3.42993e-07
4.78037e-07
-3.62433e-07
4.52412e-07
-3.79267e-07
4.25748e-07
-3.93032e-07
3.98338e-07
-4.03346e-07
3.7049e-07
-4.10012e-07
3.42505e-07
-4.13111e-07
3.14645e-07
-4.13012e-07
2.87119e-07
-4.10305e-07
2.60076e-07
-4.05679e-07
2.3361e-07
-3.99791e-07
2.07775e-07
-3.93177e-07
1.82594e-07
-3.86226e-07
1.58078e-07
-3.79182e-07
1.34228e-07
-3.72178e-07
1.11043e-07
-3.65268e-07
8.85228e-08
-3.58458e-07
6.6667e-08
-3.51728e-07
4.54767e-08
-3.45049e-07
2.49528e-08
-3.38395e-07
5.09601e-09
-3.31742e-07
-1.40946e-08
-3.25081e-07
-3.26212e-08
-3.1841e-07
-5.04848e-08
-3.11725e-07
-6.76865e-08
-3.04986e-07
-8.42307e-08
-2.98199e-07
-1.00124e-07
-2.91378e-07
-1.15375e-07
-2.84543e-07
-1.29995e-07
-2.77711e-07
-1.43996e-07
-2.70905e-07
-1.57395e-07
-2.64146e-07
-1.70209e-07
-2.57457e-07
-1.82458e-07
-2.50861e-07
-1.94164e-07
-2.44382e-07
-2.0535e-07
-2.3804e-07
-2.16044e-07
-2.31859e-07
-2.26274e-07
-2.25857e-07
-2.36072e-07
-2.20057e-07
-2.45475e-07
-2.14476e-07
-2.54519e-07
-2.09133e-07
-2.63248e-07
-2.04046e-07
-2.71709e-07
-1.99235e-07
-2.79956e-07
-1.94717e-07
-2.88049e-07
-1.90513e-07
-2.96053e-07
-1.86649e-07
-3.04042e-07
-1.83184e-07
-3.12103e-07
-1.80126e-07
-3.20326e-07
-1.77476e-07
-3.28807e-07
-1.75366e-07
-3.37638e-07
-1.73901e-07
-3.45368e-07
-1.78399e-07
-3.5396e-07
-1.86367e-07
-3.63475e-07
-1.95587e-07
-3.73972e-07
-2.06109e-07
-3.85523e-07
-2.17995e-07
-3.98206e-07
-2.3136e-07
-4.12108e-07
-2.46385e-07
-4.27331e-07
-2.63311e-07
-4.43983e-07
-2.82446e-07
-4.6219e-07
-3.04169e-07
-4.82069e-07
-3.28975e-07
-5.03777e-07
-3.57511e-07
-5.27586e-07
-3.90153e-07
-5.53888e-07
-4.26648e-07
-5.83217e-07
-4.65651e-07
-6.16173e-07
-5.04105e-07
-6.53125e-07
-5.37251e-07
-6.93785e-07
-5.60075e-07
-7.37027e-07
-5.69753e-07
-7.81254e-07
-5.66864e-07
-8.24975e-07
-5.54226e-07
-8.67106e-07
-5.34947e-07
-9.06983e-07
-5.11411e-07
-9.44249e-07
-4.85134e-07
-9.78738e-07
-4.56964e-07
-1.0104e-06
-4.27371e-07
-1.03923e-06
-3.96635e-07
-1.06525e-06
-3.64942e-07
-1.08852e-06
-3.32431e-07
-1.10908e-06
-2.99215e-07
-1.12699e-06
-2.65393e-07
-1.14233e-06
-2.31053e-07
-1.15516e-06
-1.96274e-07
-1.16555e-06
-1.61129e-07
-1.17358e-06
-1.2568e-07
-1.17928e-06
-8.99803e-08
-1.18269e-06
-5.40856e-08
-1.80531e-08
6.57563e-07
-1.43427e-08
6.54675e-07
-4.28718e-08
6.49884e-07
-7.11659e-08
6.43196e-07
-9.91445e-08
6.34615e-07
-1.26729e-07
6.2415e-07
-1.53838e-07
6.11816e-07
-1.80381e-07
5.97632e-07
-2.06258e-07
5.81631e-07
-2.31352e-07
5.6386e-07
-2.55522e-07
5.44384e-07
-2.78586e-07
5.23294e-07
-3.00313e-07
5.00709e-07
-3.20409e-07
4.76784e-07
-3.38509e-07
4.51713e-07
-3.54196e-07
4.25726e-07
-3.67047e-07
3.99087e-07
-3.76707e-07
3.72068e-07
-3.82994e-07
3.4493e-07
-3.85975e-07
3.17904e-07
-3.85986e-07
2.91167e-07
-3.8357e-07
2.64847e-07
-3.79361e-07
2.39028e-07
-3.73972e-07
2.13755e-07
-3.67906e-07
1.89054e-07
-3.61525e-07
1.64935e-07
-3.55064e-07
1.41402e-07
-3.48647e-07
1.18459e-07
-3.42325e-07
9.61058e-08
-3.36106e-07
7.4346e-08
-3.29969e-07
5.31818e-08
-3.23886e-07
3.26161e-08
-3.17829e-07
1.26513e-08
-3.11778e-07
-6.71141e-09
-3.05719e-07
-2.54721e-08
-2.9965e-07
-4.36309e-08
-2.93567e-07
-6.11867e-08
-2.87431e-07
-7.81419e-08
-2.81244e-07
-9.45007e-08
-2.7502e-07
-1.1027e-07
-2.68774e-07
-1.25458e-07
-2.62523e-07
-1.40077e-07
-2.56286e-07
-1.5414e-07
-2.50083e-07
-1.67664e-07
-2.43934e-07
-1.80666e-07
-2.3786e-07
-1.93166e-07
-2.31881e-07
-2.05189e-07
-2.26018e-07
-2.1676e-07
-2.20289e-07
-2.27906e-07
-2.14712e-07
-2.38658e-07
-2.09305e-07
-2.4905e-07
-2.04084e-07
-2.59117e-07
-1.99066e-07
-2.689e-07
-1.94264e-07
-2.7844e-07
-1.89695e-07
-2.87785e-07
-1.85372e-07
-2.96985e-07
-1.81314e-07
-3.06097e-07
-1.77538e-07
-3.15176e-07
-1.74106e-07
-3.24296e-07
-1.71006e-07
-3.33525e-07
-1.68248e-07
-3.42937e-07
-1.65954e-07
-3.52601e-07
-1.64243e-07
-3.61298e-07
-1.69699e-07
-3.707e-07
-1.76965e-07
-3.80866e-07
-1.8542e-07
-3.9188e-07
-1.95094e-07
-4.03829e-07
-2.06044e-07
-4.16798e-07
-2.1839e-07
-4.30873e-07
-2.32308e-07
-4.46145e-07
-2.48036e-07
-4.62713e-07
-2.65876e-07
-4.80685e-07
-2.86194e-07
-5.00159e-07
-3.09496e-07
-5.21285e-07
-3.3638e-07
-5.44319e-07
-3.67113e-07
-5.69625e-07
-4.01335e-07
-5.97696e-07
-4.37573e-07
-6.2907e-07
-4.72724e-07
-6.64065e-07
-5.0225e-07
-7.02401e-07
-5.21734e-07
-7.4308e-07
-5.29071e-07
-7.8473e-07
-5.25212e-07
-8.26087e-07
-5.12868e-07
-8.66228e-07
-4.94805e-07
-9.04568e-07
-4.73071e-07
-9.40762e-07
-4.4894e-07
-9.74606e-07
-4.2312e-07
-1.00597e-06
-3.96002e-07
-1.0348e-06
-3.67813e-07
-1.06103e-06
-3.38705e-07
-1.08467e-06
-3.08791e-07
-1.10572e-06
-2.78168e-07
-1.12419e-06
-2.46919e-07
-1.14012e-06
-2.15126e-07
-1.15353e-06
-1.82863e-07
-1.16446e-06
-1.50202e-07
-1.17293e-06
-1.17207e-07
-1.17898e-06
-8.39367e-08
-1.18261e-06
-5.04558e-08
-1.6838e-08
6.5756e-07
-1.33692e-08
6.54647e-07
-3.99586e-08
6.49807e-07
-6.63254e-08
6.43054e-07
-9.23924e-08
6.34408e-07
-1.18083e-07
6.23889e-07
-1.43319e-07
6.11524e-07
-1.68015e-07
5.97346e-07
-1.9208e-07
5.81398e-07
-2.15404e-07
5.63735e-07
-2.37859e-07
5.44427e-07
-2.59278e-07
5.23566e-07
-2.79453e-07
5.0127e-07
-2.98112e-07
4.77687e-07
-3.14926e-07
4.53004e-07
-3.29514e-07
4.27442e-07
-3.41485e-07
4.01248e-07
-3.50515e-07
3.74684e-07
-3.56431e-07
3.47999e-07
-3.59291e-07
3.21409e-07
-3.59398e-07
2.95087e-07
-3.57249e-07
2.69155e-07
-3.53431e-07
2.43692e-07
-3.4851e-07
2.1874e-07
-3.42955e-07
1.94322e-07
-3.37109e-07
1.70446e-07
-3.31189e-07
1.47114e-07
-3.25315e-07
1.24323e-07
-3.19536e-07
1.02074e-07
-3.13858e-07
8.03674e-08
-3.08262e-07
5.92037e-08
-3.02723e-07
3.85852e-08
-2.97211e-07
1.85141e-08
-2.91707e-07
-1.00839e-09
-2.86197e-07
-1.99823e-08
-2.80676e-07
-3.84067e-08
-2.75143e-07
-5.62803e-08
-2.69557e-07
-7.36039e-08
-2.63921e-07
-9.03805e-08
-2.58244e-07
-1.06615e-07
-2.5254e-07
-1.22315e-07
-2.46824e-07
-1.37491e-07
-2.41112e-07
-1.52153e-07
-2.35422e-07
-1.66316e-07
-2.29772e-07
-1.79997e-07
-2.24181e-07
-1.93213e-07
-2.18666e-07
-2.05986e-07
-2.13245e-07
-2.1834e-07
-2.07936e-07
-2.30298e-07
-2.02754e-07
-2.41889e-07
-1.97714e-07
-2.53142e-07
-1.92832e-07
-2.64089e-07
-1.8812e-07
-2.74762e-07
-1.83592e-07
-2.85196e-07
-1.79261e-07
-2.95428e-07
-1.75141e-07
-3.05496e-07
-1.71246e-07
-3.15443e-07
-1.67592e-07
-3.25307e-07
-1.64243e-07
-3.35157e-07
-1.61156e-07
-3.45026e-07
-1.5838e-07
-3.54995e-07
-1.55985e-07
-3.65154e-07
-1.54091e-07
-3.74876e-07
-1.59977e-07
-3.8501e-07
-1.6683e-07
-3.95735e-07
-1.74695e-07
-4.07184e-07
-1.83643e-07
-4.1946e-07
-1.93767e-07
-4.32655e-07
-2.05193e-07
-4.46858e-07
-2.18102e-07
-4.62162e-07
-2.32729e-07
-4.78664e-07
-2.49369e-07
-4.96476e-07
-2.68378e-07
-5.15706e-07
-2.90261e-07
-5.36532e-07
-3.15547e-07
-5.59231e-07
-3.44407e-07
-5.84186e-07
-3.76373e-07
-6.11883e-07
-4.09868e-07
-6.428e-07
-4.41799e-07
-6.77135e-07
-4.67909e-07
-7.14488e-07
-4.84377e-07
-7.53837e-07
-4.89719e-07
-7.93908e-07
-4.85139e-07
-8.33587e-07
-4.73188e-07
-8.72087e-07
-4.56305e-07
-9.08913e-07
-4.36244e-07
-9.43773e-07
-4.1408e-07
-9.76492e-07
-3.90402e-07
-1.00696e-06
-3.65536e-07
-1.0351e-06
-3.39675e-07
-1.06085e-06
-3.12947e-07
-1.0842e-06
-2.85449e-07
-1.1051e-06
-2.57265e-07
-1.12355e-06
-2.2847e-07
-1.13954e-06
-1.99138e-07
-1.15306e-06
-1.69336e-07
-1.16413e-06
-1.39135e-07
-1.17274e-06
-1.08598e-07
-1.17889e-06
-7.77836e-08
-1.18259e-06
-4.67593e-08
-1.56034e-08
6.57551e-07
-1.23865e-08
6.54618e-07
-3.70251e-08
6.4975e-07
-6.14575e-08
6.42966e-07
-8.5609e-08
6.34291e-07
-1.09407e-07
6.23751e-07
-1.32779e-07
6.1138e-07
-1.55645e-07
5.97221e-07
-1.77921e-07
5.81324e-07
-1.99507e-07
5.63749e-07
-2.20284e-07
5.44575e-07
-2.40104e-07
5.23896e-07
-2.58774e-07
5.01833e-07
-2.76049e-07
4.78533e-07
-2.91627e-07
4.54176e-07
-3.05158e-07
4.28974e-07
-3.16284e-07
4.03163e-07
-3.24704e-07
3.76987e-07
-3.30256e-07
3.50681e-07
-3.32987e-07
3.24452e-07
-3.33171e-07
2.98464e-07
-3.31262e-07
2.72834e-07
-3.27802e-07
2.47637e-07
-3.23315e-07
2.22918e-07
-3.18238e-07
1.98697e-07
-3.12889e-07
1.74982e-07
-3.07475e-07
1.51773e-07
-3.02107e-07
1.29069e-07
-2.96832e-07
1.06866e-07
-2.91656e-07
8.51653e-08
-2.86562e-07
6.39656e-08
-2.81523e-07
4.32684e-08
-2.76515e-07
2.30752e-08
-2.71514e-07
3.38728e-09
-2.66509e-07
-1.57951e-08
-2.61494e-07
-3.44717e-08
-2.56466e-07
-5.26407e-08
-2.51389e-07
-7.03023e-08
-2.4626e-07
-8.74582e-08
-2.41088e-07
-1.04112e-07
-2.35886e-07
-1.2027e-07
-2.30666e-07
-1.35941e-07
-2.25441e-07
-1.51133e-07
-2.2023e-07
-1.6586e-07
-2.15046e-07
-1.80135e-07
-2.09906e-07
-1.93974e-07
-2.04827e-07
-2.07397e-07
-1.99823e-07
-2.20423e-07
-1.9491e-07
-2.33074e-07
-1.90103e-07
-2.45374e-07
-1.85415e-07
-2.57348e-07
-1.80859e-07
-2.69023e-07
-1.76447e-07
-2.80425e-07
-1.72191e-07
-2.91582e-07
-1.68104e-07
-3.02524e-07
-1.642e-07
-3.13277e-07
-1.60493e-07
-3.23866e-07
-1.57004e-07
-3.34313e-07
-1.53796e-07
-3.44661e-07
-1.50809e-07
-3.54912e-07
-1.4813e-07
-3.65091e-07
-1.45806e-07
-3.75229e-07
-1.43953e-07
-3.85611e-07
-1.49595e-07
-3.96376e-07
-1.56064e-07
-4.07654e-07
-1.63416e-07
-4.19564e-07
-1.71732e-07
-4.32216e-07
-1.81114e-07
-4.45705e-07
-1.91703e-07
-4.60128e-07
-2.03679e-07
-4.75581e-07
-2.17275e-07
-4.92173e-07
-2.32778e-07
-5.10021e-07
-2.50532e-07
-5.29254e-07
-2.71031e-07
-5.50069e-07
-2.94734e-07
-5.72747e-07
-3.21725e-07
-5.97659e-07
-3.51454e-07
-6.25238e-07
-3.82281e-07
-6.5586e-07
-4.11169e-07
-6.89597e-07
-4.34166e-07
-7.25975e-07
-4.47994e-07
-7.64024e-07
-4.51666e-07
-8.0262e-07
-4.46542e-07
-8.40803e-07
-4.35003e-07
-8.779e-07
-4.19208e-07
-9.13476e-07
-4.00669e-07
-9.47259e-07
-3.80296e-07
-9.79076e-07
-3.58584e-07
-1.00881e-06
-3.35807e-07
-1.03636e-06
-3.12123e-07
-1.06166e-06
-2.8764e-07
-1.08467e-06
-2.6244e-07
-1.10534e-06
-2.36595e-07
-1.12364e-06
-2.10172e-07
-1.13955e-06
-1.83235e-07
-1.15303e-06
-1.55849e-07
-1.16409e-06
-1.28077e-07
-1.17271e-06
-9.99807e-08
-1.17887e-06
-7.16168e-08
-1.18258e-06
-4.30516e-08
-1.43644e-08
6.57554e-07
-1.14072e-08
6.54628e-07
-3.40983e-08
6.4977e-07
-5.65998e-08
6.43003e-07
-7.8842e-08
6.34353e-07
-1.00757e-07
6.23852e-07
-1.22278e-07
6.11539e-07
-1.43332e-07
5.97458e-07
-1.6384e-07
5.81663e-07
-1.83712e-07
5.64219e-07
-2.0284e-07
5.45203e-07
-2.21088e-07
5.2471e-07
-2.38282e-07
5.02858e-07
-2.54198e-07
4.79791e-07
-2.6856e-07
4.55684e-07
-2.81051e-07
4.3074e-07
-2.91341e-07
4.05187e-07
-2.99153e-07
3.79264e-07
-3.04334e-07
3.53198e-07
-3.06923e-07
3.27193e-07
-3.07167e-07
3.01409e-07
-3.0548e-07
2.75962e-07
-3.02357e-07
2.50928e-07
-2.98282e-07
2.26349e-07
-2.9366e-07
2.02245e-07
-2.88786e-07
1.78622e-07
-2.83853e-07
1.55479e-07
-2.78965e-07
1.32812e-07
-2.74166e-07
1.10617e-07
-2.69462e-07
8.88915e-08
-2.64837e-07
6.76344e-08
-2.60267e-07
4.68456e-08
-2.55726e-07
2.6526e-08
-2.51195e-07
6.6762e-09
-2.4666e-07
-1.27034e-08
-2.42115e-07
-3.16128e-08
-2.37557e-07
-5.005e-08
-2.32952e-07
-6.80143e-08
-2.28296e-07
-8.55067e-08
-2.23597e-07
-1.0253e-07
-2.18864e-07
-1.19088e-07
-2.14108e-07
-1.35188e-07
-2.09343e-07
-1.50837e-07
-2.04581e-07
-1.66046e-07
-1.99838e-07
-1.80827e-07
-1.95126e-07
-1.95193e-07
-1.90461e-07
-2.0916e-07
-1.85856e-07
-2.22746e-07
-1.81326e-07
-2.35968e-07
-1.76881e-07
-2.48849e-07
-1.72536e-07
-2.61408e-07
-1.683e-07
-2.73668e-07
-1.64187e-07
-2.85654e-07
-1.60206e-07
-2.97388e-07
-1.56371e-07
-3.08896e-07
-1.52693e-07
-3.20201e-07
-1.49189e-07
-3.31319e-07
-1.45886e-07
-3.42279e-07
-1.42837e-07
-3.5309e-07
-1.39998e-07
-3.63749e-07
-1.37472e-07
-3.74226e-07
-1.3533e-07
-3.84373e-07
-1.338e-07
-3.94935e-07
-1.39032e-07
-4.05977e-07
-1.4502e-07
-4.17573e-07
-1.51818e-07
-4.29802e-07
-1.595e-07
-4.42748e-07
-1.68164e-07
-4.56497e-07
-1.77947e-07
-4.71142e-07
-1.89026e-07
-4.86782e-07
-2.01624e-07
-5.0353e-07
-2.16016e-07
-5.21511e-07
-2.32534e-07
-5.40875e-07
-2.51648e-07
-5.61844e-07
-2.73751e-07
-5.84708e-07
-2.9885e-07
-6.09822e-07
-3.26331e-07
-6.3757e-07
-3.54525e-07
-6.68234e-07
-3.80498e-07
-7.01763e-07
-4.00631e-07
-7.37603e-07
-4.12149e-07
-7.74799e-07
-4.14468e-07
-8.12318e-07
-4.09021e-07
-8.49319e-07
-3.98001e-07
-8.85221e-07
-3.83305e-07
-9.19652e-07
-3.66237e-07
-9.52379e-07
-3.47568e-07
-9.83247e-07
-3.27717e-07
-1.01214e-06
-3.06912e-07
-1.03898e-06
-2.85289e-07
-1.06368e-06
-2.62938e-07
-1.08619e-06
-2.3993e-07
-1.10645e-06
-2.16329e-07
-1.12443e-06
-1.92193e-07
-1.14009e-06
-1.6758e-07
-1.15339e-06
-1.42549e-07
-1.16431e-06
-1.17157e-07
-1.17283e-06
-9.14613e-08
-1.17893e-06
-6.55158e-08
-1.1826e-06
-3.93831e-08
-1.31392e-08
6.57558e-07
-1.04315e-08
6.54643e-07
-3.11833e-08
6.49806e-07
-5.17625e-08
6.43069e-07
-7.21048e-08
6.34459e-07
-9.21484e-08
6.24012e-07
-1.11831e-07
6.11767e-07
-1.31087e-07
5.9777e-07
-1.49843e-07
5.82078e-07
-1.6802e-07
5.64755e-07
-1.85518e-07
5.45881e-07
-2.02214e-07
5.2555e-07
-2.17951e-07
5.03877e-07
-2.32525e-07
4.81003e-07
-2.45687e-07
4.571e-07
-2.57148e-07
4.32364e-07
-2.66606e-07
4.07017e-07
-2.73807e-07
3.8129e-07
-2.78608e-07
3.55406e-07
-2.81041e-07
3.29565e-07
-2.81327e-07
3.03925e-07
-2.79841e-07
2.78602e-07
-2.77036e-07
2.53673e-07
-2.73354e-07
2.29178e-07
-2.69167e-07
2.05139e-07
-2.64749e-07
1.81561e-07
-2.60276e-07
1.58441e-07
-2.55846e-07
1.35775e-07
-2.515e-07
1.13558e-07
-2.47245e-07
9.17844e-08
-2.43065e-07
7.04533e-08
-2.38936e-07
4.95635e-08
-2.34837e-07
2.91149e-08
-2.30747e-07
9.10819e-09
-2.26653e-07
-1.04566e-08
-2.22551e-07
-2.95794e-08
-2.18435e-07
-4.82581e-08
-2.14274e-07
-6.64912e-08
-2.10063e-07
-8.42788e-08
-2.05809e-07
-1.01622e-07
-2.0152e-07
-1.18525e-07
-1.97206e-07
-1.34991e-07
-1.92877e-07
-1.51027e-07
-1.88546e-07
-1.66641e-07
-1.84224e-07
-1.81842e-07
-1.79925e-07
-1.96643e-07
-1.75661e-07
-2.11056e-07
-1.71444e-07
-2.25095e-07
-1.67287e-07
-2.38776e-07
-1.63201e-07
-2.52116e-07
-1.59196e-07
-2.65133e-07
-1.55284e-07
-2.77846e-07
-1.51475e-07
-2.90275e-07
-1.47778e-07
-3.0244e-07
-1.44206e-07
-3.14363e-07
-1.40771e-07
-3.26065e-07
-1.37488e-07
-3.37565e-07
-1.34388e-07
-3.48891e-07
-1.31512e-07
-3.60059e-07
-1.28831e-07
-3.71075e-07
-1.26457e-07
-3.81922e-07
-1.24486e-07
-3.92164e-07
-1.23555e-07
-4.02881e-07
-1.28316e-07
-4.14123e-07
-1.33779e-07
-4.25941e-07
-1.40003e-07
-4.384e-07
-1.47045e-07
-4.51574e-07
-1.54996e-07
-4.65544e-07
-1.63983e-07
-4.804e-07
-1.74177e-07
-4.96246e-07
-1.85787e-07
-5.13198e-07
-1.99071e-07
-5.31392e-07
-2.14347e-07
-5.50992e-07
-2.32051e-07
-5.72229e-07
-2.5251e-07
-5.95395e-07
-2.75677e-07
-6.20825e-07
-3.00892e-07
-6.48843e-07
-3.26498e-07
-6.79628e-07
-3.49706e-07
-7.13014e-07
-3.67237e-07
-7.48392e-07
-3.76767e-07
-7.8484e-07
-3.78017e-07
-8.21426e-07
-3.72433e-07
-8.57413e-07
-3.62013e-07
-8.92296e-07
-3.48421e-07
-9.25751e-07
-3.32782e-07
-9.57569e-07
-3.1575e-07
-9.87606e-07
-2.9768e-07
-1.01575e-06
-2.78765e-07
-1.04192e-06
-2.59119e-07
-1.06604e-06
-2.38819e-07
-1.08805e-06
-2.17926e-07
-1.10788e-06
-1.96495e-07
-1.1255e-06
-1.74578e-07
-1.14085e-06
-1.52227e-07
-1.15391e-06
-1.29492e-07
-1.16463e-06
-1.06429e-07
-1.17301e-06
-8.30867e-08
-1.17901e-06
-5.95162e-08
-1.18262e-06
-3.57751e-08
-1.19345e-08
6.57564e-07
-9.4618e-09
6.54666e-07
-2.82853e-08
6.49857e-07
-4.69532e-08
6.43159e-07
-6.5407e-08
6.34601e-07
-8.35905e-08
6.24217e-07
-1.01447e-07
6.12049e-07
-1.18918e-07
5.98143e-07
-1.35937e-07
5.82555e-07
-1.52432e-07
5.65351e-07
-1.68314e-07
5.46609e-07
-1.83472e-07
5.26421e-07
-1.97763e-07
5.04901e-07
-2.11006e-07
4.82187e-07
-2.22974e-07
4.58445e-07
-2.33406e-07
4.33868e-07
-2.42029e-07
4.08672e-07
-2.48612e-07
3.83084e-07
-2.53022e-07
3.57326e-07
-2.55284e-07
3.31592e-07
-2.55595e-07
3.06044e-07
-2.54294e-07
2.80796e-07
-2.5179e-07
2.55926e-07
-2.48485e-07
2.31476e-07
-2.44718e-07
2.07465e-07
-2.4074e-07
1.839e-07
-2.36711e-07
1.60777e-07
-2.32723e-07
1.38089e-07
-2.28814e-07
1.15831e-07
-2.24988e-07
9.39979e-08
-2.21232e-07
7.25859e-08
-2.17525e-07
5.15937e-08
-2.13845e-07
3.10208e-08
-2.10175e-07
1.08674e-08
-2.065e-07
-8.86636e-09
-2.02817e-07
-2.81803e-08
-1.99122e-07
-4.7072e-08
-1.95383e-07
-6.55395e-08
-1.91596e-07
-8.35817e-08
-1.87768e-07
-1.01199e-07
-1.83904e-07
-1.18393e-07
-1.80013e-07
-1.35167e-07
-1.76104e-07
-1.51525e-07
-1.72188e-07
-1.67474e-07
-1.68276e-07
-1.83021e-07
-1.64379e-07
-1.98175e-07
-1.60508e-07
-2.12947e-07
-1.56673e-07
-2.27349e-07
-1.52887e-07
-2.41392e-07
-1.49159e-07
-2.55091e-07
-1.45498e-07
-2.68461e-07
-1.41915e-07
-2.81518e-07
-1.38419e-07
-2.94278e-07
-1.35019e-07
-3.06759e-07
-1.31726e-07
-3.18979e-07
-1.28552e-07
-3.30956e-07
-1.25511e-07
-3.42711e-07
-1.22634e-07
-3.54268e-07
-1.19956e-07
-3.65649e-07
-1.17453e-07
-3.76884e-07
-1.15224e-07
-3.88028e-07
-1.13348e-07
-3.98485e-07
-1.13084e-07
-4.09413e-07
-1.17384e-07
-4.20859e-07
-1.22327e-07
-4.32882e-07
-1.27972e-07
-4.45546e-07
-1.3437e-07
-4.58924e-07
-1.41605e-07
-4.73096e-07
-1.49797e-07
-4.88156e-07
-1.59103e-07
-5.04209e-07
-1.69719e-07
-5.21382e-07
-1.81884e-07
-5.39818e-07
-1.95897e-07
-5.59699e-07
-2.12158e-07
-5.81266e-07
-2.30934e-07
-6.04803e-07
-2.52131e-07
-6.30618e-07
-2.75068e-07
-6.58976e-07
-2.98132e-07
-6.89959e-07
-3.18714e-07
-7.23307e-07
-3.33883e-07
-7.58359e-07
-3.4171e-07
-7.94227e-07
-3.42145e-07
-8.3006e-07
-3.36599e-07
-8.65203e-07
-3.26869e-07
-8.99217e-07
-3.14407e-07
-9.31817e-07
-3.00182e-07
-9.62818e-07
-2.84749e-07
-9.9209e-07
-2.68408e-07
-1.01953e-06
-2.51323e-07
-1.04506e-06
-2.3359e-07
-1.0686e-06
-2.15276e-07
-1.0901e-06
-1.96434e-07
-1.10948e-06
-1.7711e-07
-1.12671e-06
-1.57351e-07
-1.14173e-06
-1.37202e-07
-1.15451e-06
-1.1671e-07
-1.16502e-06
-9.59207e-08
-1.17323e-06
-7.48817e-08
-1.17911e-06
-5.36372e-08
-1.18264e-06
-3.22398e-08
-1.07543e-08
6.5757e-07
-8.49801e-09
6.5469e-07
-2.54049e-08
6.49909e-07
-4.21727e-08
6.43251e-07
-5.87492e-08
6.34745e-07
-7.50838e-08
6.24423e-07
-9.11262e-08
6.12328e-07
-1.06823e-07
5.98507e-07
-1.22116e-07
5.83015e-07
-1.3694e-07
5.65917e-07
-1.51216e-07
5.47289e-07
-1.64844e-07
5.27223e-07
-1.77698e-07
5.05832e-07
-1.89614e-07
4.83249e-07
-2.00391e-07
4.59636e-07
-2.09794e-07
4.35184e-07
-2.17578e-07
4.10105e-07
-2.23533e-07
3.84621e-07
-2.2754e-07
3.58953e-07
-2.29617e-07
3.33294e-07
-2.29938e-07
3.07805e-07
-2.28806e-07
2.82602e-07
-2.26589e-07
2.57762e-07
-2.23647e-07
2.3333e-07
-2.20287e-07
2.09325e-07
-2.16736e-07
1.85752e-07
-2.13139e-07
1.62608e-07
-2.0958e-07
1.39885e-07
-2.06092e-07
1.17577e-07
-2.02681e-07
9.56782e-08
-1.99333e-07
7.41839e-08
-1.96031e-07
5.30924e-08
-1.92754e-07
3.24029e-08
-1.89486e-07
1.21156e-08
-1.86214e-07
-7.76953e-09
-1.82933e-07
-2.7252e-08
-1.79639e-07
-4.63291e-08
-1.76306e-07
-6.49981e-08
-1.72928e-07
-8.32572e-08
-1.69509e-07
-1.01106e-07
-1.66056e-07
-1.18544e-07
-1.62575e-07
-1.35573e-07
-1.59075e-07
-1.52198e-07
-1.55565e-07
-1.68421e-07
-1.52054e-07
-1.84249e-07
-1.48552e-07
-1.99689e-07
-1.45069e-07
-2.14749e-07
-1.41614e-07
-2.29438e-07
-1.38198e-07
-2.43768e-07
-1.3483e-07
-2.57748e-07
-1.31518e-07
-2.71393e-07
-1.28271e-07
-2.84716e-07
-1.25097e-07
-2.9773e-07
-1.22006e-07
-3.1045e-07
-1.19006e-07
-3.22894e-07
-1.1611e-07
-3.35077e-07
-1.13329e-07
-3.47021e-07
-1.10691e-07
-3.5875e-07
-1.08228e-07
-3.70286e-07
-1.05918e-07
-3.81665e-07
-1.03846e-07
-3.92926e-07
-1.02097e-07
-4.0362e-07
-1.02385e-07
-4.14764e-07
-1.0624e-07
-4.26416e-07
-1.10677e-07
-4.38638e-07
-1.15751e-07
-4.51497e-07
-1.21511e-07
-4.65069e-07
-1.28034e-07
-4.79437e-07
-1.3543e-07
-4.94697e-07
-1.43842e-07
-5.10962e-07
-1.53454e-07
-5.28364e-07
-1.6448e-07
-5.47056e-07
-1.772e-07
-5.67233e-07
-1.91975e-07
-5.89142e-07
-2.09017e-07
-6.13064e-07
-2.282e-07
-6.39275e-07
-2.48847e-07
-6.67979e-07
-2.69419e-07
-6.99171e-07
-2.87515e-07
-7.32505e-07
-3.00543e-07
-7.67287e-07
-3.06923e-07
-8.02666e-07
-3.06764e-07
-8.37861e-07
-3.01402e-07
-8.7229e-07
-2.92439e-07
-9.05564e-07
-2.81133e-07
-9.37431e-07
-2.68314e-07
-9.67725e-07
-2.54454e-07
-9.96328e-07
-2.39806e-07
-1.02314e-06
-2.24507e-07
-1.04809e-06
-2.08641e-07
-1.0711e-06
-1.92264e-07
-1.09212e-06
-1.75421e-07
-1.11107e-06
-1.58153e-07
-1.12793e-06
-1.405e-07
-1.14263e-06
-1.22502e-07
-1.15514e-06
-1.042e-07
-1.16542e-06
-8.5636e-08
-1.17345e-06
-6.68501e-08
-1.17921e-06
-4.78823e-08
-1.18267e-06
-2.87793e-08
-9.59943e-09
6.57576e-07
-7.53996e-09
6.54712e-07
-2.25413e-08
6.49959e-07
-3.74199e-08
6.43339e-07
-5.21294e-08
6.34881e-07
-6.66255e-08
6.24618e-07
-8.08633e-08
6.12591e-07
-9.47958e-08
5.98846e-07
-1.08372e-07
5.83439e-07
-1.21533e-07
5.66433e-07
-1.3421e-07
5.47904e-07
-1.46315e-07
5.27943e-07
-1.57736e-07
5.06657e-07
-1.68329e-07
4.8418e-07
-1.77915e-07
4.60671e-07
-1.86285e-07
4.36315e-07
-1.93224e-07
4.11324e-07
-1.98543e-07
3.85916e-07
-2.02134e-07
3.6031e-07
-2.04012e-07
3.34701e-07
-2.0433e-07
3.09247e-07
-2.03354e-07
2.84068e-07
-2.01411e-07
2.59241e-07
-1.98821e-07
2.3481e-07
-1.95858e-07
2.10796e-07
-1.92723e-07
1.87204e-07
-1.89548e-07
1.64029e-07
-1.86406e-07
1.41265e-07
-1.83329e-07
1.18903e-07
-1.8032e-07
9.69381e-08
-1.77369e-07
7.53649e-08
-1.74459e-07
5.41811e-08
-1.71571e-07
3.33858e-08
-1.68691e-07
1.2979e-08
-1.65807e-07
-7.03894e-09
-1.62915e-07
-2.66675e-08
-1.60011e-07
-4.59034e-08
-1.57071e-07
-6.47435e-08
-1.54088e-07
-8.31849e-08
-1.51068e-07
-1.01226e-07
-1.48015e-07
-1.18867e-07
-1.44935e-07
-1.36107e-07
-1.41835e-07
-1.52949e-07
-1.38724e-07
-1.69395e-07
-1.35608e-07
-1.85449e-07
-1.32498e-07
-2.01118e-07
-1.29401e-07
-2.16407e-07
-1.26326e-07
-2.31324e-07
-1.23282e-07
-2.45878e-07
-1.20277e-07
-2.60079e-07
-1.17318e-07
-2.73937e-07
-1.14414e-07
-2.87464e-07
-1.11572e-07
-3.00671e-07
-1.08799e-07
-3.13574e-07
-1.06105e-07
-3.26186e-07
-1.03499e-07
-3.38523e-07
-1.00992e-07
-3.50605e-07
-9.86103e-08