/*--------------------------------*- C++ -*----------------------------------*\
  =========                 |
  \\      /  F ield         | OpenFOAM: The Open Source CFD Toolbox
   \\    /   O peration     | Website:  https://openfoam.org
    \\  /    A nd           | Version:  8
     \\/     M anipulation  |
\*---------------------------------------------------------------------------*/
FoamFile
{
    version     2.0;
    format      ascii;
    class       volScalarField;
    location    "960/fluid";
    object      Qdot;
}
// * * * * * * * * * * * * * * * * * * * * * * * * * * * * * * * * * * * * * //

dimensions      [1 -1 -3 0 0 0 0];

internalField   nonuniform List<scalar> 
4000
(
0
-2.0517e-17
0
1.78941e-16
0
1.31754e-11
0
-3.475e-07
0
-3.64198e-07
5.01069e-19
1.01872e-18
-1.43945e-14
-2.0919e-18
-2.2498e-09
2.50805e-09
-2.0631e-09
-3.1403e-15
4.37972e-07
3.04557e-07
4.36765e-06
5.74778e-05
0.00067769
0.00666945
0.0535467
0.350219
1.88311
8.44559
32.1166
105.245
301.598
765.444
1739.73
3576.88
6712.97
11627.5
18836.2
28927
42701.9
61341.9
86535.8
120531
166249
227545
309548
419158
565554
760812
1.02051e+06
1.36607e+06
1.82487e+06
2.43286e+06
3.23724e+06
4.30006e+06
5.70305e+06
7.55422e+06
9.99697e+06
1.31798e+07
1.73364e+07
2.29876e+07
3.05011e+07
7.01674e+07
3.77772e+08
2.95569e+07
2.12746e+07
1.51274e+07
1.06057e+07
7.31736e+06
4.95841e+06
3.29403e+06
2.14404e+06
1.37196e+06
877118
563383
150387
11322.4
312.933
4.43833
0.0422147
0.000431626
8.10923e-06
3.80601e-07
4.29843e-08
9.22053e-09
2.75492e-09
1.08807e-09
3.97454e-10
2.00323e-10
6.95542e-11
3.10228e-11
1.54816e-11
6.365e-12
2.46107e-12
9.51358e-13
4.12438e-13
1.80623e-13
7.30406e-14
2.51939e-14
8.8549e-15
1.83587e-15
-7.00099e-22
2.78706e-07
6.14076e-21
6.09565e-12
-2.64807e-20
0
5.98429e-11
-3.42031e-07
0
-1.14741e-10
-3.62397e-07
-3.6776e-07
3.7202e-07
3.75473e-07
-4.09498e-18
-2.89533e-17
-4.44551e-09
-3.00196e-15
2.73062e-08
4.87158e-07
3.9271e-06
5.11964e-05
0.000610055
0.0060538
0.0491991
0.326364
1.78088
8.10332
31.2388
103.668
300.509
770.465
1765.88
3655.28
6896.32
11985.1
19445.3
29858.8
44009.2
63050.4
88641.2
122994
169023
230592
312860
422755
569415
764543
1.0252e+06
1.3719e+06
1.83229e+06
2.44272e+06
3.251e+06
4.32017e+06
5.73349e+06
7.60139e+06
1.0071e+07
1.3295e+07
1.75165e+07
2.32757e+07
3.0959e+07
1.10247e+08
3.42694e+08
2.94007e+07
2.10881e+07
1.49458e+07
1.04437e+07
7.17966e+06
4.84568e+06
3.20496e+06
2.07649e+06
1.32366e+06
846221
519150
113124
6831.14
163.55
2.09473
0.0195355
0.000219199
4.90113e-06
2.76622e-07
3.56064e-08
8.35233e-09
2.76867e-09
9.939e-10
4.41368e-10
1.76296e-10
8.20686e-11
3.00918e-11
1.50003e-11
6.63079e-12
2.4172e-12
1.1117e-13
6.23633e-12
1.64957e-13
6.91918e-14
2.51222e-14
9.58855e-15
1.47536e-15
0
2.03876e-17
0
0
0
1.28337e-11
0
1.12823e-19
0
0
2.25993e-10
3.5495e-07
-5.67434e-10
0
1.15508e-09
-3.18046e-17
2.35467e-09
-2.94002e-15
2.62302e-08
2.65663e-07
3.66023e-06
4.7565e-05
0.000563468
0.00561858
0.0460418
0.308793
1.70624
7.86703
30.7341
103.328
303.279
786.74
1821.73
3801.08
7220.37
12605.9
20500.2
31484.4
46325
66148.7
92588.2
127830
174805
237421
320918
432146
579939
777905
1.04157e+06
1.39228e+06
1.85819e+06
2.47636e+06
3.29579e+06
4.38126e+06
5.81881e+06
7.72303e+06
1.02473e+07
1.35494e+07
1.78883e+07
2.38262e+07
3.17605e+07
1.79825e+08
2.77016e+08
2.94715e+07
2.09963e+07
1.47798e+07
1.02567e+07
7.00148e+06
4.69108e+06
3.07971e+06
1.98127e+06
1.25673e+06
805257
444677
75468.2
3673.94
78.1396
0.946526
0.00916835
0.000117586
3.14615e-06
2.09211e-07
2.98412e-08
7.13431e-09
2.53797e-09
1.00867e-09
3.67667e-10
1.57368e-10
7.15494e-11
3.28205e-11
1.29264e-11
7.3714e-12
2.37207e-12
1.01916e-12
4.3195e-13
1.7498e-13
7.22233e-14
2.50371e-14
8.83482e-15
-5.06348e-12
3.71259e-13
-1.3909e-12
0
-2.97239e-07
-3.06351e-07
-3.14585e-07
0
-5.28667e-11
0
-2.43078e-10
-4.62499e-19
0
1.00149e-09
0
-1.12083e-09
-3.85348e-17
2.28025e-09
-2.85297e-15
3.85138e-07
4.43322e-07
3.40049e-06
4.41208e-05
0.000528348
0.0053034
0.0438834
0.297684
1.6652
7.77552
30.7627
104.711
311.028
816.044
1909.11
4015.63
7673.06
13454.3
21923.2
33662.4
49421.6
70307.4
97933.8
134494
182974
247376
332939
446543
598155
800391
1.06974e+06
1.42799e+06
1.90397e+06
2.53576e+06
3.3738e+06
4.48501e+06
5.95847e+06
7.9131e+06
1.05084e+07
1.39024e+07
1.83697e+07
2.44975e+07
3.27036e+07
2.63459e+08
1.95908e+08
2.94613e+07
2.08299e+07
1.45454e+07
1.00105e+07
6.77548e+06
4.50064e+06
2.92969e+06
1.87057e+06
1.18143e+06
760655
356650
46853.3
1886.75
35.9192
0.413849
0.00417867
6.12232e-05
1.95271e-06
1.52539e-07
2.43825e-08
6.28781e-09
2.26176e-09
9.29436e-10
3.58782e-10
1.69664e-10
7.57507e-11
3.47324e-11
1.36756e-11
4.66095e-12
2.22475e-12
1.06662e-12
4.28375e-13
1.62528e-13
6.22887e-14
2.50012e-14
8.83922e-15
1.48104e-15
0
-2.9031e-21
-3.52838e-12
-2.94453e-07
0
-2.85859e-12
0
3.22313e-07
0
-1.06539e-10
0
0
5.36513e-10
0
-7.40752e-18
-3.7291e-17
1.7937e-09
-2.78674e-15
3.75569e-07
4.27952e-07
3.06645e-06
4.24445e-05
0.000506218
0.00511428
0.0427078
0.2928
1.65666
7.82674
31.3294
107.87
323.985
859.051
2029.35
4300.52
8253.5
14520.9
23685.3
36326.5
53174.4
75321.7
104373
142565
192972
259507
347519
464737
621748
830645
1.10853e+06
1.47795e+06
1.96865e+06
2.62001e+06
3.48423e+06
4.63062e+06
6.15153e+06
8.17031e+06
1.08473e+07
1.43374e+07
1.89527e+07
2.52962e+07
3.37795e+07
3.45235e+08
1.13754e+08
2.92207e+07
2.0473e+07
1.41677e+07
9.66392e+06
6.48367e+06
4.26996e+06
2.75701e+06
1.74833e+06
1.10098e+06
711964
256738
28088.6
966.664
16.7668
0.187481
0.00200844
3.3807e-05
1.27643e-06
1.14359e-07
2.0484e-08
5.52365e-09
1.98523e-09
7.49008e-10
3.51552e-10
1.43244e-10
6.94594e-11
2.73303e-11
1.25113e-11
5.44664e-12
2.31429e-12
-4.75399e-12
3.73804e-13
1.36462e-13
6.20978e-14
2.49747e-14
5.19963e-12
-5.05339e-12
-2.64075e-07
2.01394e-17
5.97686e-21
0
0
-1.23117e-11
0
-1.068e-19
0
-4.37041e-19
3.26615e-07
-3.28892e-07
-3.30005e-07
0
-8.57803e-10
-3.61588e-17
1.73721e-09
-2.74762e-15
1.22469e-08
2.30735e-07
3.13595e-06
4.11786e-05
0.000493285
0.00502349
0.0423407
0.2933
1.67758
8.01305
32.4262
112.84
342.403
916.731
2184.72
4659.41
8969.6
15814.5
25789.3
39462.9
57539.6
81100.6
111749
151791
204257
273379
365138
487946
651266
868540
1.15751e+06
1.54159e+06
2.05175e+06
2.72897e+06
3.62754e+06
4.81954e+06
6.40085e+06
8.49608e+06
1.12763e+07
1.48944e+07
1.968e+07
2.62212e+07
3.49249e+07
4.18761e+08
4.02724e+07
2.82019e+07
1.95841e+07
1.345e+07
9.11209e+06
6.07481e+06
3.97694e+06
2.55411e+06
1.61343e+06
1.01624e+06
653699
194877
16638.6
503.993
8.08637
0.0888644
0.00101593
1.95567e-05
8.63006e-07
8.73118e-08
1.76875e-08
4.59079e-09
1.95009e-09
7.89491e-10
3.7217e-10
1.48286e-10
6.91946e-11
2.77869e-11
1.23445e-11
4.96433e-12
1.96909e-12
7.95317e-13
3.71403e-13
5.62984e-12
5.918e-14
2.49537e-14
8.12039e-15
1.31134e-15
-2.63689e-07
2.00544e-17
0
0
1.19065e-11
1.49243e-11
7.20964e-16
-5.00463e-11
-2.95438e-15
0
0
-1.20403e-14
3.21209e-07
-1.73925e-18
8.32425e-10
4.87828e-14
-2.06667e-09
-2.72753e-15
1.10456e-08
2.31171e-07
2.91683e-06
4.04958e-05
0.000489083
0.00501685
0.0426729
0.298558
1.72535
8.32703
34.0425
119.647
366.539
990.154
2378.41
5102.41
9843.5
17344
28236.6
43054.4
62471.5
87572
119947
161792
216389
288961
385691
514069
684776
911893
1.21401e+06
1.61572e+06
2.14956e+06
2.85864e+06
3.80005e+06
5.04942e+06
6.70683e+06
8.90793e+06
1.18331e+07
1.56001e+07
2.07357e+07
2.75421e+07
3.65269e+07
4.51582e+08
3.55579e+07
2.52693e+07
1.77119e+07
1.22322e+07
8.31139e+06
5.54686e+06
3.63052e+06
2.32967e+06
1.47124e+06
930005
581785
143709
10007.6
273.168
4.11493
0.0450054
0.000552203
1.20864e-05
6.12832e-07
6.91989e-08
1.49673e-08
4.51405e-09
1.70679e-09
6.88397e-10
3.13745e-10
1.32596e-10
6.06457e-11
2.40793e-11
1.05315e-11
9.31605e-12
2.06302e-12
1.70918e-12
3.57757e-13
-6.64361e-13
6.17618e-14
-5.24296e-12
7.39582e-15
5.04586e-12
2.63304e-07
-2.71848e-07
0
1.68315e-16
-1.177e-11
2.66986e-11
0
4.91627e-11
0
3.10019e-07
4.46934e-10
0
3.127e-07
1.69043e-18
-6.77263e-18
-3.73505e-17
-2.72834e-16
9.28972e-14
1.47201e-08
3.92842e-07
3.08633e-06
4.04505e-05
0.000491409
0.00508411
0.0436362
0.308242
1.79891
8.76759
36.1904
128.39
396.85
1080.93
2614.84
5636.74
10881.2
19118.9
31023.4
47062.3
67868.8
94497.7
128502
172396
230253
306451
407384
541462
719809
957159
1.27304e+06
1.69339e+06
2.2527e+06
2.99697e+06
3.98759e+06
5.30675e+06
7.06482e+06
9.41056e+06
1.25276e+07
1.65845e+07
2.21764e+07
2.96676e+07
3.97006e+07
4.41423e+08
3.26234e+07
2.31876e+07
1.62674e+07
1.12462e+07
7.64865e+06
5.10899e+06
3.34742e+06
2.15216e+06
1.36531e+06
871895
520498
107189
6290.65
156.852
2.23907
0.0245418
0.000323066
7.95981e-06
4.57381e-07
5.81845e-08
1.31484e-08
4.03675e-09
1.57579e-09
6.53705e-10
2.56216e-10
1.30513e-10
5.32527e-11
2.93437e-11
1.00394e-11
4.44833e-12
1.84157e-12
1.5821e-12
3.1696e-13
1.4152e-13
5.55168e-14
2.04253e-14
6.67289e-15
1.27102e-15
-2.6292e-07
2.70707e-07
0
-1.66766e-16
1.69884e-16
1.18138e-11
6.98375e-16
0
-1.19508e-10
-1.20036e-10
0
0
-8.73576e-10
0
3.0491e-07
-1.92786e-09
-2.83561e-16
-3.06857e-07
1.81054e-08
2.32168e-07
2.95586e-06
4.09594e-05
0.000500564
0.00521794
0.0451808
0.322125
1.89772
9.33618
38.8928
139.209
433.948
1191.13
2899.63
6273
12094.2
21149.4
34150.3
51478.8
73713.2
101757
137378
183717
244116
323560
428649
568108
753454
999934
1.32778e+06
1.76389e+06
2.34411e+06
3.11627e+06
4.14437e+06
5.51424e+06
7.34132e+06
9.78144e+06
1.30306e+07
1.72878e+07
2.31869e+07
3.11502e+07
5.73439e+07
4.20854e+08
3.07251e+07
2.18175e+07
1.5291e+07
1.05596e+07
7.17248e+06
4.78379e+06
3.12941e+06
2.0096e+06
1.27568e+06
820069
461894
80494.8
4127
95.448
1.30492
0.0144169
0.000203206
5.57747e-06
3.56894e-07
4.96421e-08
1.13734e-08
3.85698e-09
1.44818e-09
5.92122e-10
2.7719e-10
1.21167e-10
5.24695e-11
1.87497e-11
1.02757e-11
4.39942e-12
-3.6495e-12
8.21261e-13
3.14955e-13
1.34107e-13
5.53468e-14
5.23342e-12
6.67945e-15
1.1048e-15
0
-6.78112e-13
2.75784e-07
-1.18603e-20
0
-4.88436e-20
-2.89311e-11
-2.94617e-07
2.95974e-07
-2.78985e-15
0
-5.57667e-15
0
1.59421e-18
-9.54783e-18
-3.81685e-17
2.94919e-07
-2.79276e-15
1.36662e-08
2.30123e-07
3.18189e-06
4.19751e-05
0.000515263
0.00541348
0.047277
0.340105
2.02191
10.0373
42.1853
152.296
478.62
1323.38
3239.66
7024.19
13494.9
23430
37570.9
56164.3
79663.4
109103
146704
194976
257749
340156
448968
593099
784297
1.03809e+06
1.37506e+06
1.82252e+06
2.4168e+06
3.20627e+06
4.25547e+06
5.6506e+06
7.50708e+06
9.97971e+06
1.3251e+07
1.75226e+07
2.34088e+07
3.12805e+07
1.17967e+08
3.69777e+08
2.96316e+07
2.10163e+07
1.47167e+07
1.01575e+07
6.89807e+06
4.60179e+06
3.01262e+06
1.93775e+06
1.23445e+06
799888
410717
62460.8
2855.63
61.6735
0.812814
0.00908916
0.000136642
4.13043e-06
2.92141e-07
4.28238e-08
1.04122e-08
3.50642e-09
1.42112e-09
6.30461e-10
2.61295e-10
1.26321e-10
5.16784e-11
2.22431e-11
9.35742e-12
8.57605e-12
1.60943e-12
7.65299e-13
2.88481e-13
1.26758e-13
4.91736e-14
1.88961e-14
6.6823e-15
1.05852e-15
4.81458e-18
1.50521e-12
-2.7392e-07
6.89042e-12
1.39716e-11
0
0
0
1.36323e-15
0
2.8967e-07
0
0
2.86427e-07
7.35069e-10
-3.68862e-17
-2.85965e-07
-2.84969e-07
1.97087e-08
1.07186e-07
3.12494e-06
4.33025e-05
0.000535196
0.005666
0.0498982
0.362102
2.17176
10.8763
46.1089
167.869
531.793
1480.83
3643.4
7906.49
15099.8
25969.9
41303.3
61116.7
85850.4
116914
156055
206139
271116
356222
468334
616467
812479
1.07201e+06
1.41572e+06
1.871e+06
2.47417e+06
3.27345e+06
4.33297e+06
5.73816e+06
7.60299e+06
1.00794e+07
1.33425e+07
1.75909e+07
2.34252e+07
3.12019e+07
1.71996e+08
3.1859e+08
2.89406e+07
2.04995e+07
1.43368e+07
9.88341e+06
6.70462e+06
4.46878e+06
2.92432e+06
1.88213e+06
1.2023e+06
784496
374090
49762.4
2073.05
42.2532
0.53995
0.00611519
9.76142e-05
3.2142e-06
2.46525e-07
3.83711e-08
9.47034e-09
3.24829e-09
1.39295e-09
5.70407e-10
2.67479e-10
1.11936e-10
4.91715e-11
2.12287e-11
9.23629e-12
-1.04479e-12
1.70053e-12
7.10115e-13
2.86472e-13
1.087e-13
4.89942e-14
7.78289e-13
5.59369e-15
7.39648e-13
0
1.49891e-12
0
0
0
-4.74958e-20
2.83083e-07
1.33464e-15
-1.33547e-15
2.66624e-15
0
0
0
0
7.10924e-10
-4.74717e-17
-3.0187e-16
-8.53874e-14
1.54394e-08
2.4109e-07
3.26831e-06
4.48917e-05
0.000559585
0.00597066
0.0530142
0.388
2.34727
11.8574
50.7007
186.142
594.396
1666.64
4118.88
8931.36
16903.4
28720.4
45215
66253.4
92370.8
124723
165333
217155
284228
371854
486971
638641
838757
1.10296e+06
1.45189e+06
1.91281e+06
2.5218e+06
3.32665e+06
4.39075e+06
5.79811e+06
7.6598e+06
1.01249e+07
1.33679e+07
1.75816e+07
2.33533e+07
3.10262e+07
2.19841e+08
2.7332e+08
2.83713e+07
2.01049e+07
1.40668e+07
9.70146e+06
6.58399e+06
4.3905e+06
2.87506e+06
1.8528e+06
1.18715e+06
779497
339201
40867.8
1575.01
30.5268
0.380453
0.00436946
7.3578e-05
2.60985e-06
2.14219e-07
3.54362e-08
9.26372e-09
3.27937e-09
1.36371e-09
5.59002e-10
2.33536e-10
1.09209e-10
4.86832e-11
2.09137e-11
9.11168e-12
3.69085e-12
2.54417e-12
6.55729e-13
2.84337e-13
1.19981e-13
4.8791e-14
-7.39451e-13
6.31597e-15
1.15184e-15
-6.89155e-22
1.95548e-17
2.70203e-07
-5.50255e-12
-6.82328e-12
4.68261e-20
0
0
1.30739e-15
0
0
5.14037e-15
0
0
-8.63717e-18
-4.00394e-17
-3.13134e-16
-3.02754e-15
1.20805e-08
2.54076e-07
3.40965e-06
4.68591e-05
0.000588006
0.00632137
0.0565789
0.417553
2.54763
12.9804
55.9811
207.276
667.232
1883.69
4672.76
10102.2
18866.8
31552.3
49068
71222.5
98594.1
132262
174343
227893
297014
387063
505009
659932
863719
1.13197e+06
1.48523e+06
1.95056e+06
2.56372e+06
3.37189e+06
4.43715e+06
5.84195e+06
7.69695e+06
1.01508e+07
1.33675e+07
1.75367e+07
2.32363e+07
3.0796e+07
2.60167e+08
2.35698e+08
2.78078e+07
1.97303e+07
1.38205e+07
9.5419e+06
6.48301e+06
4.32861e+06
2.83897e+06
1.83369e+06
1.17946e+06
779036
304706
34547.3
1247.66
23.1609
0.282839
0.00329454
5.81979e-05
2.19978e-06
1.92229e-07
3.25321e-08
9.20525e-09
3.18532e-09
1.3334e-09
5.93242e-10
2.57246e-10
1.07947e-10
4.32394e-11
2.05882e-11
8.98348e-12
3.43573e-12
2.46273e-12
5.8628e-12
2.82085e-13
1.07423e-13
4.56332e-14
1.7307e-14
5.94926e-15
9.74611e-16
-6.88173e-22
1.48641e-12
-7.8855e-17
-1.21505e-11
6.74245e-12
0
-2.73808e-07
-5.40851e-11
0
0
0
2.65615e-07
1.4188e-18
-2.80669e-18
-8.33297e-18
-2.54919e-07
-3.22558e-16
-3.12374e-15
1.99129e-08
2.57076e-07
3.57352e-06
4.90924e-05
0.000619599
0.0067089
0.0605165
0.450269
2.77038
14.2367
61.9333
231.304
750.743
2133.98
5309.5
11414.1
20929.2
34334.2
52953.1
76184.2
104564
139406
182885
238120
309244
401643
522292
680271
887430
1.1593e+06
1.51629e+06
1.98512e+06
2.60086e+06
3.40976e+06
4.47354e+06
5.87524e+06
7.72293e+06
1.01586e+07
1.33427e+07
1.74614e+07
2.30791e+07
3.05115e+07
2.93938e+08
2.04525e+08
2.72452e+07
1.93677e+07
1.35911e+07
9.40036e+06
6.39844e+06
4.28033e+06
2.81339e+06
1.82211e+06
1.17661e+06
780446
281629
29962.6
1025.9
18.3684
0.220732
0.00260648
4.80125e-05
1.91877e-06
1.74701e-07
3.17132e-08
8.81817e-09
3.20301e-09
1.21331e-09
5.10237e-10
2.39309e-10
1.02676e-10
4.53954e-11
2.02537e-11
8.85108e-12
3.76416e-12
1.54115e-12
1.40122e-12
2.79735e-13
1.06716e-13
4.54088e-14
1.7254e-14
5.06432e-12
9.75406e-16
-6.87194e-22
0
0
-2.68308e-07
0
-2.41896e-11
0
2.6805e-07
-1.91114e-10
-2.63919e-07
0
0
-4.02838e-10
-2.71101e-18
-5.35208e-18
-3.68959e-14
2.78641e-09
-3.22596e-15
1.65214e-08
2.72043e-07
3.61802e-06
5.15179e-05
0.000652975
0.00711936
0.0647043
0.485255
3.01033
15.6019
68.4674
257.966
844.337
2416.04
6020.88
12814.3
22885.9
36677.2
56075.4
80208.7
109570
145552
190408
247295
320371
415031
538257
699106
909350
1.18435e+06
1.54408e+06
2.01499e+06
2.63198e+06
3.44202e+06
4.50573e+06
5.90206e+06
7.73683e+06
1.01501e+07
1.32966e+07
1.73587e+07
2.28866e+07
3.01824e+07
3.21413e+08
1.79772e+08
2.6681e+07
1.901e+07
1.33701e+07
9.2685e+06
6.32329e+06
4.24033e+06
2.79449e+06
1.81546e+06
1.17689e+06
782579
269445
26650.5
873.844
15.1862
0.1802
0.00215472
4.11363e-05
1.71716e-06
1.6488e-07
3.01799e-08
8.42839e-09
2.94897e-09
1.18309e-09
5.23239e-10
2.34093e-10
1.03731e-10
4.81485e-11
2.13615e-11
9.44722e-12
8.02928e-12
-3.47121e-12
5.89892e-13
2.77282e-13
1.05969e-13
5.14131e-12
1.71936e-14
5.57284e-15
9.75709e-16
0
-1.47399e-12
0
-1.12099e-20
0
0
0
-9.4299e-11
-2.60391e-07
1.84725e-10
-2.53929e-07
-2.50142e-07
-3.17052e-10
-2.61515e-18
1.36878e-09
-1.48783e-09
-3.4086e-16
2.91052e-09
1.80681e-08
2.86489e-07
3.80666e-06
5.37487e-05
0.000686543
0.00753358
0.0689565
0.521059
3.25825
17.0283
75.38
286.552
945.94
2724.17
6787.37
14217.5
24469
38299.5
58248.3
82983
113097
150060
196175
254597
329484
426204
551685
714868
927430
1.20466e+06
1.56659e+06
2.03999e+06
2.65933e+06
3.4691e+06
4.52879e+06
5.91657e+06
7.73565e+06
1.01225e+07
1.32265e+07
1.72252e+07
2.26536e+07
2.98003e+07
3.43322e+08
1.60313e+08
2.61163e+07
1.86562e+07
1.31555e+07
9.14371e+06
6.255e+06
4.20638e+06
2.78053e+06
1.81252e+06
1.17961e+06
786340
260532
24335.4
770.523
13.0668
0.153492
0.00185505
3.64767e-05
1.58101e-06
1.56015e-07
2.89237e-08
8.47459e-09
2.94119e-09
1.23642e-09
5.09709e-10
2.40823e-10
1.01544e-10
4.65084e-11
2.0986e-11
8.57688e-12
2.92608e-12
2.24197e-12
6.75369e-13
2.74754e-13
1.10953e-13
4.20341e-14
-7.25696e-13
5.9198e-15
9.75667e-16
0
2.61766e-07
0
1.54684e-16
0
-2.34817e-11
0
0
1.19616e-15
-1.8002e-10
0
-6.54346e-19
0
-2.33285e-07
1.31452e-09
-4.85863e-17
-3.49268e-16
-3.41017e-15
1.76521e-08
2.95603e-07
3.86401e-06
5.58781e-05
0.000717924
0.00792551
0.0730104
0.55551
3.49941
18.4333
82.2849
315.53
1050.27
3041.51
7551.92
15420.2
25175.8
38245.7
58255.4
83159.9
113801
151561
198708
258369
334665
432934
560079
725059
939772
1.2194e+06
1.58382e+06
2.05851e+06
2.67735e+06
3.4846e+06
4.53839e+06
5.91507e+06
7.7152e+06
1.00714e+07
1.31278e+07
1.7056e+07
2.23752e+07
2.93601e+07
3.60583e+08
1.45451e+08
2.55508e+07
1.83047e+07
1.29448e+07
9.02343e+06
6.19115e+06
4.17638e+06
2.76981e+06
1.81199e+06
1.18384e+06
790863
254718
22795.9
702.201
11.6769
0.136062
0.0016582
3.33571e-05
1.48954e-06
1.50383e-07
2.86784e-08
8.24541e-09
3.01593e-09
1.20239e-09
5.38589e-10
2.41012e-10
1.0232e-10
4.70993e-11
1.92014e-11
7.72584e-12
8.52693e-12
1.48392e-12
6.22357e-13
4.52821e-12
4.39523e-12
4.46486e-14
-4.2749e-12
-7.32195e-13
9.75338e-16
0
-2.60664e-07
2.61032e-07
1.16931e-11
2.59591e-07
-4.34948e-20
8.61556e-20
-9.05066e-11
-4.91697e-11
0
0
0
3.63275e-10
-2.42282e-18
-7.1094e-18
-4.64196e-17
-3.59904e-16
2.13847e-09
2.8206e-08
2.95113e-07
4.0147e-06
5.7845e-05
0.000745036
0.00826347
0.0765329
0.585728
3.71327
19.695
88.5727
342.293
1147.57
3334.46
8199.45
16042.5
24163.6
35654.2
55390.7
80213.4
110895
148966
196664
257089
334337
433745
562226
728754
944716
1.22515e+06
1.58959e+06
2.06347e+06
2.67997e+06
3.4825e+06
4.52784e+06
5.89045e+06
7.66808e+06
9.98939e+06
1.29931e+07
1.68445e+07
2.20458e+07
2.88575e+07
3.73486e+08
1.34861e+08
2.4984e+07
1.79531e+07
1.27346e+07
8.904e+06
6.12819e+06
4.14717e+06
2.75967e+06
1.81175e+06
1.18795e+06
795115
251560
21863.2
659.699
10.806
0.125124
0.00153399
3.13759e-05
1.43079e-06
1.46269e-07
2.85671e-08
8.28234e-09
3.00937e-09
1.24783e-09
5.24191e-10
2.39754e-10
1.02376e-10
4.46252e-11
1.88364e-11
8.29098e-12
3.55064e-12
1.50391e-12
6.60019e-13
9.77384e-13
1.09211e-13
4.15245e-14
1.69833e-14
5.89142e-15
9.7475e-16
6.83302e-22
-8.02487e-13
-3.20559e-12
-2.58123e-07
-2.16244e-20
0
0
2.46959e-07
-2.42553e-07
9.40644e-11
-1.49669e-10
0
0
-2.32634e-18
-6.80172e-18
-2.06179e-07
-3.05021e-14
4.50985e-09
2.19044e-07
3.05191e-07
4.22528e-06
5.90219e-05
0.000764866
0.00851257
0.0791488
0.608359
3.87501
20.6598
93.4376
363.206
1223.47
3551.13
8548.09
15511.6
23594.3
31271.7
48729.2
73097.4
103522
141464
189124
249546
326770
426063
554242
720125
935118
1.21403e+06
1.57608e+06
2.04632e+06
2.65731e+06
3.45158e+06
4.48462e+06
5.82899e+06
7.57971e+06
9.86143e+06
1.28079e+07
1.65776e+07
2.1655e+07
2.82866e+07
3.82287e+08
1.28258e+08
2.44125e+07
1.7595e+07
1.2517e+07
8.77706e+06
6.05821e+06
4.1118e+06
2.74436e+06
1.80723e+06
1.18842e+06
796775
250226
21394.8
636.529
10.3163
0.11891
0.00146314
3.02439e-05
1.39524e-06
1.44142e-07
2.81091e-08
8.42717e-09
2.9804e-09
1.21031e-09
5.09519e-10
2.33591e-10
1.05168e-10
4.63169e-11
1.92112e-11
8.83783e-12
3.4947e-12
1.58017e-12
6.07692e-13
-4.65629e-12
1.08307e-13
4.12582e-14
7.50169e-13
7.39787e-13
9.7396e-16
-2.58821e-07
-1.44928e-12
0
5.14337e-12
0
2.24196e-11
0
2.41614e-07
4.68179e-11
7.4415e-11
-2.25393e-07
0
-3.36764e-10
-1.5532e-14
-6.49329e-18
-4.62772e-17
-3.6459e-16
-1.80889e-07
2.49589e-08
3.11551e-07
4.20376e-06
5.97597e-05
0.000774826
0.008641
0.0805068
0.620202
3.96038
21.1736
96.048
374.388
1261.92
3629.77
8357.94
15846.3
24582
32602.2
39286.7
60988.7
90287.8
127029
173358
232238
307616
404649
530030
692425
903057
1.17648e+06
1.53159e+06
1.99296e+06
2.59255e+06
3.37201e+06
4.38564e+06
5.7043e+06
7.42062e+06
9.6558e+06
1.25393e+07
1.62237e+07
2.11768e+07
2.76313e+07
3.86976e+08
1.25362e+08
2.38231e+07
1.72095e+07
1.22681e+07
8.61913e+06
5.96017e+06
4.05256e+06
2.70968e+06
1.78751e+06
1.17713e+06
790073
249057
21240
627.556
10.1134
0.116279
0.00143302
2.97668e-05
1.38118e-06
1.44819e-07
2.81376e-08
8.40866e-09
2.96051e-09
1.24787e-09
5.72394e-10
2.47269e-10
1.01026e-10
4.78895e-11
1.94174e-11
7.9959e-12
3.60948e-12
1.59678e-12
1.35404e-12
2.41811e-13
1.01802e-13
7.70712e-13
4.98217e-12
5.85941e-15
-4.98312e-12
-6.82331e-22
-2.72555e-21
0
6.32149e-12
1.48728e-16
0
0
-1.13594e-15
4.68168e-11
-3.11948e-19
-2.25214e-07
-4.11867e-15
2.13014e-07
-2.22963e-18
-6.49328e-18
-4.62771e-17
1.20106e-09
4.25224e-09
2.30927e-08
4.02516e-07
4.12042e-06
5.97561e-05
0.000774831
0.00864118
0.0805084
0.620215
3.96047
21.1742
96.0507
374.4
1261.97
3629.92
8358.28
15846.8
24582.5
32602.6
39286.9
60988.6
90287.7
127029
173358
232238
307616
404649
530030
692425
903057
1.17648e+06
1.53159e+06
1.99296e+06
2.59255e+06
3.37201e+06
4.38564e+06
5.7043e+06
7.42062e+06
9.65579e+06
1.25393e+07
1.62237e+07
2.11767e+07
2.76312e+07
3.86973e+08
1.25364e+08
2.38231e+07
1.72095e+07
1.22682e+07
8.61914e+06
5.96017e+06
4.05256e+06
2.70968e+06
1.78751e+06
1.17713e+06
790075
249061
21240.5
627.577
10.1138
0.116283
0.00143307
2.97689e-05
1.38117e-06
1.43723e-07
2.81375e-08
8.12141e-09
2.87933e-09
1.17218e-09
5.33508e-10
2.41581e-10
1.06048e-10
4.78895e-11
1.80897e-11
7.99589e-12
3.60948e-12
1.5099e-12
6.63883e-13
2.54051e-13
1.07394e-13
-4.9026e-12
1.68276e-14
5.50529e-15
9.73113e-16
0
0
-5.81377e-12
0
5.15847e-12
0
2.50691e-07
8.86082e-11
0
7.65316e-11
0
-2.2684e-07
2.21123e-07
-2.32633e-18
5.40848e-10
-4.42475e-17
1.03206e-09
2.0232e-09
2.45968e-08
3.0519e-07
4.03844e-06
5.90216e-05
0.000764716
0.00851295
0.0791528
0.608392
3.87523
20.661
93.4441
363.236
1223.59
3551.58
8549.41
15514.3
23596.1
31272.7
48729.5
73097.3
103521
141464
189124
249546
326770
426063
554242
720126
935118
1.21403e+06
1.57608e+06
2.04632e+06
2.65731e+06
3.45158e+06
4.48461e+06
5.82898e+06
7.57969e+06
9.86141e+06
1.28079e+07
1.65775e+07
2.16549e+07
2.82865e+07
3.8228e+08
1.28266e+08
2.44126e+07
1.7595e+07
1.2517e+07
8.77709e+06
6.05823e+06
4.11182e+06
2.74438e+06
1.80724e+06
1.18842e+06
796781
250236
21396.5
636.591
10.3174
0.118924
0.00146329
3.02459e-05
1.39522e-06
1.4528e-07
2.81088e-08
8.1307e-09
2.91218e-09
1.2103e-09
5.09517e-10
2.38173e-10
9.99514e-11
4.63177e-11
1.90722e-11
8.83782e-12
3.66871e-12
1.53163e-12
6.07692e-13
5.1674e-12
1.02674e-13
4.12582e-14
1.61242e-14
5.7164e-15
9.7396e-16
0
-1.46162e-12
0
0
2.59591e-07
-2.31279e-11
0
-1.1857e-15
4.00049e-11
-3.29698e-19
-1.89637e-10
0
1.23904e-18
-2.42282e-18
1.2601e-09
2.14939e-07
-3.20915e-14
4.76677e-09
2.3505e-08
2.97195e-07
4.01881e-06
5.78407e-05
0.000745008
0.00826404
0.0765375
0.585761
3.71346
19.6958
88.5751
342.294
1147.54
3334.2
8198.27
16039
24161.8
35653.4
55390.8
80214.3
110896
148968
196666
257091
334339
433747
562228
728756
944718
1.22515e+06
1.58959e+06
2.06347e+06
2.67997e+06
3.48249e+06
4.52783e+06
5.89043e+06
7.66806e+06
9.98935e+06
1.29931e+07
1.68445e+07
2.20457e+07
2.88574e+07
3.73474e+08
1.34874e+08
2.49842e+07
1.79532e+07
1.27347e+07
8.90406e+06
6.12823e+06
4.1472e+06
2.75969e+06
1.81176e+06
1.18796e+06
795124
251578
21866.1
659.808
10.808
0.125148
0.00153426
3.13815e-05
1.42971e-06
1.4745e-07
2.79668e-08
8.2823e-09
2.85282e-09
1.20365e-09
5.24176e-10
2.39753e-10
9.94372e-11
4.73378e-11
1.8141e-11
7.59285e-12
3.62985e-12
1.5531e-12
-4.32372e-12
2.46864e-13
-4.14885e-12
4.15255e-14
1.55582e-14
7.41715e-13
1.06348e-15
-6.85244e-22
2.61767e-07
0
0
1.54438e-16
-2.61754e-07
0
4.14528e-11
1.71708e-19
-1.80022e-10
-2.46767e-07
0
3.76487e-10
-6.00926e-10
2.29525e-07
1.15902e-09
2.5441e-09
-3.4196e-15
1.98819e-08
1.81211e-07
3.98012e-06
5.58973e-05
0.000717988
0.00792636
0.0730163
0.555553
3.49967
18.4346
82.2905
315.551
1050.35
3041.76
7552.76
15422.8
25177.8
38247.6
58257.3
83161.9
113802
151563
198710
258371
334668
432937
560082
725063
939775
1.2194e+06
1.58382e+06
2.05851e+06
2.67734e+06
3.4846e+06
4.53838e+06
5.91505e+06
7.71518e+06
1.00714e+07
1.31277e+07
1.7056e+07
2.23751e+07
2.93599e+07
3.60565e+08
1.4547e+08
2.5551e+07
1.83048e+07
1.29449e+07
9.02351e+06
6.19121e+06
4.17643e+06
2.76985e+06
1.81202e+06
1.18386e+06
790877
254742
22800.2
702.364
11.68
0.136099
0.00165861
3.33676e-05
1.49086e-06
1.51604e-07
2.86148e-08
8.56093e-09
2.94359e-09
1.20236e-09
5.15428e-10
2.45814e-10
1.04763e-10
4.6815e-11
1.92014e-11
7.72583e-12
3.52538e-12
1.57422e-12
-1.11663e-13
2.49322e-13
1.04374e-13
7.83252e-13
-5.01596e-12
5.9062e-15
1.06415e-15
0
0
-2.64695e-07
0
1.1936e-11
-2.65675e-07
0
0
-1.75708e-19
0
-2.53928e-07
0
3.17042e-10
-2.61514e-18
1.79246e-14
-1.21058e-09
-1.46965e-09
5.2786e-09
1.57177e-08
2.86488e-07
3.69386e-06
5.37542e-05
0.00068638
0.00753452
0.0689631
0.521108
3.25855
17.0298
75.3866
286.577
946.018
2724.38
6787.82
14218.1
24470.7
38302.5
58252.8
82988.1
113103
150066
196180
254602
329489
426210
551691
714874
927436
1.20466e+06
1.56659e+06
2.04e+06
2.65933e+06
3.4691e+06
4.52878e+06
5.91655e+06
7.73563e+06
1.01225e+07
1.32265e+07
1.72251e+07
2.26535e+07
2.98001e+07
3.43298e+08
1.60338e+08
2.61165e+07
1.86564e+07
1.31557e+07
9.14382e+06
6.25509e+06
4.20644e+06
2.78058e+06
1.81256e+06
1.17963e+06
786357
260564
24341.3
770.756
13.0713
0.153546
0.00185565
3.64835e-05
1.58098e-06
1.55444e-07
2.89891e-08
8.00365e-09
2.86688e-09
1.15195e-09
5.09693e-10
2.40822e-10
1.01541e-10
4.65073e-11
2.09195e-11
8.90013e-12
4.39329e-12
-3.42909e-12
-4.3932e-12
2.74753e-13
1.07774e-13
4.20331e-14
1.77724e-14
5.56196e-15
-7.34143e-13
2.60665e-07
-1.48019e-12
2.66522e-07
1.20359e-11
6.66179e-12
2.69645e-07
2.6923e-07
-4.31548e-11
0
0
0
6.96175e-19
0
-2.71101e-18
-8.02811e-18
-4.7613e-17
-3.35371e-16
-3.22595e-15
1.65215e-08
3.97052e-07
3.50371e-06
5.1399e-05
0.000653189
0.00712008
0.064711
0.485304
3.01063
15.6034
68.4737
257.989
844.415
2416.26
6021.5
12815.7
22889.1
36684.2
56091
80220
109579
145559
190414
247301
320377
415037
538263
699112
909357
1.18436e+06
1.54409e+06
2.015e+06
2.63199e+06
3.44203e+06
4.50573e+06
5.90206e+06
7.73682e+06
1.01501e+07
1.32966e+07
1.73587e+07
2.28865e+07
3.01823e+07
3.21383e+08
1.79804e+08
2.66813e+07
1.90102e+07
1.33703e+07
9.26864e+06
6.3234e+06
4.24041e+06
2.79454e+06
1.8155e+06
1.17692e+06
782599
269483
26658.3
874.166
15.1926
0.180278
0.0021556
4.11484e-05
1.72093e-06
1.64876e-07
3.01785e-08
8.57823e-09
3.02531e-09
1.27033e-09
5.22543e-10
2.46432e-10
1.01184e-10
4.74227e-11
1.4928e-11
8.7152e-12
3.71236e-12
1.52256e-12
5.89891e-13
2.77282e-13
1.17588e-13
4.51679e-14
1.71931e-14
5.57296e-15
9.75709e-16
-6.88172e-22
0
-5.65983e-21
0
6.74244e-12
2.73573e-07
0
1.28487e-15
0
-2.54313e-15
0
0
0
2.59918e-07
2.5723e-07
-3.83956e-14
-1.60289e-09
-3.12373e-15
-2.34083e-07
2.65435e-07
3.44273e-06
4.92241e-05
0.000619662
0.00670953
0.0605225
0.450311
2.77062
14.2378
61.9379
231.319
750.786
2134.08
5309.66
11414.1
20928.6
34330.9
52942.3
76179
104563
139408
182888
238124
309249
401649
522299
680280
887439
1.15931e+06
1.5163e+06
1.98513e+06
2.60087e+06
3.40977e+06
4.47355e+06
5.87524e+06
7.72293e+06
1.01586e+07
1.33427e+07
1.74614e+07
2.30791e+07
3.05115e+07
2.93903e+08
2.04564e+08
2.72454e+07
1.93678e+07
1.35912e+07
9.40046e+06
6.39853e+06
4.28041e+06
2.81345e+06
1.82216e+06
1.17665e+06
780476
281678
29973.1
1026.35
18.3775
0.220846
0.00260774
4.80331e-05
1.91871e-06
1.7544e-07
3.13373e-08
8.62857e-09
3.0284e-09
1.2133e-09
4.90017e-10
2.29781e-10
1.0008e-10
4.53944e-11
2.17289e-11
8.10093e-12
3.76416e-12
-3.60784e-12
1.40122e-12
5.43675e-12
1.06716e-13
4.54078e-14
1.7253e-14
5.78014e-15
9.75376e-16
0
-6.69632e-13
-2.70203e-07
2.73431e-07
6.82328e-12
0
0
1.8804e-19
-1.30757e-15
0
0
5.14036e-15
0
-2.90219e-18
-1.53089e-09
-4.00393e-17
3.02737e-09
6.04075e-09
1.81207e-08
2.54075e-07
3.40964e-06
4.6859e-05
0.000588066
0.00632204
0.056584
0.417587
2.54781
12.9812
55.984
207.284
667.251
1883.72
4672.75
10102
18865.9
31550.3
49065.1
71220.5
98593.5
132263
174346
227898
297020
387071
505018
659944
863732
1.13199e+06
1.48524e+06
1.95057e+06
2.56374e+06
3.37189e+06
4.43714e+06
5.84191e+06
7.69694e+06
1.01508e+07
1.33675e+07
1.75367e+07
2.32363e+07
3.0796e+07
2.60137e+08
2.3573e+08
2.78085e+07
1.9731e+07
1.3821e+07
9.5423e+06
6.48327e+06
4.32876e+06
2.83904e+06
1.83371e+06
1.17945e+06
779014
304783
34559.3
1248.25
23.1737
0.283006
0.00329637
5.82244e-05
2.20252e-06
1.92223e-07
3.25316e-08
9.04697e-09
3.10507e-09
1.2426e-09
5.47209e-10
2.33922e-10
1.07944e-10
4.62154e-11
2.05882e-11
8.22901e-12
3.81434e-12
2.42018e-12
-6.93793e-14
-4.92261e-12
1.19225e-13
4.56322e-14
1.7307e-14
-7.39672e-13
9.74641e-16
2.02343e-13
1.49891e-12
0
0
-5.61762e-12
-2.81501e-07
-2.83083e-07
0
0
0
0
7.5875e-19
0
0
-8.94084e-18
-2.74763e-07
-4.15408e-14
2.74006e-07
1.26107e-08
1.09021e-07
3.26831e-06
4.49044e-05
0.000559643
0.00597124
0.0530181
0.388026
2.3474
11.8579
50.7025
186.146
594.407
1666.66
4118.89
8931.34
16903.3
28720.6
45215.8
66253.7
92371.8
124725
165337
217161
284236
371864
486984
638658
838778
1.10299e+06
1.45192e+06
1.91285e+06
2.52185e+06
3.3267e+06
4.3908e+06
5.79817e+06
7.65978e+06
1.01248e+07
1.33679e+07
1.75815e+07
2.33532e+07
3.10259e+07
2.19843e+08
2.73334e+08
2.83703e+07
2.01035e+07
1.40653e+07
9.70028e+06
6.58321e+06
4.39009e+06
2.87494e+06
1.85285e+06
1.18727e+06
779601
339320
40886.9
1575.91
30.5462
0.380706
0.00437222