/*--------------------------------*- C++ -*----------------------------------*\
  =========                 |
  \\      /  F ield         | OpenFOAM: The Open Source CFD Toolbox
   \\    /   O peration     | Website:  https://openfoam.org
    \\  /    A nd           | Version:  8
     \\/     M anipulation  |
\*---------------------------------------------------------------------------*/
FoamFile
{
    version     2.0;
    format      ascii;
    class       volScalarField;
    location    "960/fluid";
    object      rDeltaT;
}
// * * * * * * * * * * * * * * * * * * * * * * * * * * * * * * * * * * * * * //

dimensions      [0 0 -1 0 0 0 0];

internalField   nonuniform List<scalar> 
4000
(
513.502
539.556
564.416
588.225
610.923
632.409
652.552
671.212
688.254
703.578
717.145
729.009
739.348
748.496
756.947
765.202
773.649
782.468
791.56
800.534
808.785
815.621
820.386
822.559
821.822
817.988
810.95
800.679
787.212
770.638
751.079
741.699
765.195
809.842
853.662
896.54
938.395
979.154
1018.76
1057.18
1094.38
1130.34
1165.06
1198.54
1230.77
1261.77
1291.54
1320.1
1347.47
1373.65
1398.66
1422.51
1445.22
1466.78
1487.2
1506.48
1524.63
1541.5
1557.08
1571.62
1585.02
2774.63
15133.6
1574.66
1538.11
1496.66
1450.8
1401.05
1347.82
1291.49
1232.48
1171.25
1108.39
1044.4
980.034
916.725
856.475
801.7
755.359
720.098
696.911
684.363
679.207
677.919
677.673
676.701
674.014
669.255
662.454
653.798
643.519
631.854
619.022
605.215
590.598
575.304
559.435
543.06
526.217
508.867
513.025
538.42
562.486
585.156
606.4
626.143
644.292
660.756
675.469
688.413
699.649
709.338
717.766
725.361
732.608
739.978
747.855
756.426
765.602
774.997
783.984
791.823
797.78
801.257
801.802
799.108
793.02
783.497
770.588
754.406
735.102
712.851
715.54
753.129
798.162
842.453
885.898
928.407
969.907
1010.34
1049.68
1087.88
1124.93
1160.82
1195.54
1229.11
1261.52
1292.79
1322.94
1351.97
1379.9
1406.75
1432.54
1457.29
1481.02
1503.73
1525.44
1546.01
1565.48
1584.18
1601.98
4362.68
13745.8
1585.33
1544.05
1499.15
1450.5
1398.22
1342.48
1283.5
1221.57
1157.05
1090.43
1022.13
953.072
885.121
820.902
763.67
716.679
682.276
660.695
649.766
645.971
645.903
647.021
647.764
647.306
645.19
641.262
635.546
628.148
619.211
608.89
597.337
584.693
571.083
556.607
541.336
525.308
508.558
512.321
536.154
558.484
579.277
598.472
616.007
631.829
645.9
658.224
668.861
677.946
685.713
692.493
698.709
704.808
711.246
718.408
726.493
735.43
744.855
754.163
762.618
769.475
774.072
775.861
774.457
769.649
761.361
749.619
734.516
716.195
694.825
677.99
694.964
740.291
785.18
829.51
873.178
916.097
958.199
999.431
1039.75
1079.14
1117.56
1155.02
1191.5
1227.02
1261.57
1295.18
1327.86
1359.63
1390.51
1420.55
1449.75
1478.15
1505.76
1532.58
1558.41
1583.23
1607.17
1629.67
7124.8
11134.9
1604.37
1558.37
1508.65
1455.25
1398.28
1337.87
1274.22
1207.59
1138.37
1067.09
994.289
921.269
850.313
784.417
727.072
681.367
648.996
629.458
620.185
617.661
618.659
620.823
622.698
623.566
623.06
621.007
617.36
612.147
605.433
597.306
587.86
577.189
565.384
552.521
538.662
523.851
508.113
511.631
534.081
554.961
574.223
591.827
607.734
621.917
634.371
645.128
654.269
661.943
668.381
673.909
678.939
683.945
689.402
695.701
703.041
711.355
720.283
729.225
737.446
744.193
748.799
750.729
749.61
745.212
737.432
726.266
711.776
694.075
673.31
649.647
649.873
685.603
730.806
775.736
820.285
864.361
907.891
950.814
993.081
1034.66
1075.52
1115.64
1155.03
1193.66
1231.54
1268.69
1305.11
1340.82
1375.82
1410.15
1443.79
1476.75
1508.99
1540.45
1570.82
1599.94
1627.85
1653.74
10455.1
7895.16
1616.71
1566.87
1512.75
1454.67
1392.88
1327.64
1259.25
1188.11
1114.76
1039.87
964.198
889.385
817.942
752.885
697.412
654.178
624.35
606.968
599.277
597.859
599.707
602.665
605.385
607.146
607.6
606.607
604.131
600.19
594.828
588.103
580.074
570.803
560.35
548.767
536.098
522.377
507.633
510.894
531.841
551.17
568.842
584.822
599.085
611.619
622.44
631.6
639.202
645.415
650.487
654.757
658.642
662.617
667.151
672.625
679.235
686.914
695.311
703.834
711.756
718.323
722.86
724.824
723.825
719.622
712.097
701.226
687.059
669.693
649.257
625.903
612.443
633.862
679.236
724.605
769.86
814.911
859.677
904.097
948.116
991.695
1034.8
1077.41
1119.5
1161.06
1202.08
1242.56
1282.49
1321.87
1360.68
1398.92
1436.55
1473.52
1509.73
1545.03
1578.96
1611.39
1642.16
1670.25
13723.6
4596.43
1620.48
1567.72
1510.02
1447.96
1382.04
1312.69
1240.38
1165.66
1089.2
1011.75
934.259
858.595
787.344
723.478
669.985
629.134
601.609
586.068
579.643
579.046
581.499
585.039
588.438
591.023
592.447
592.546
591.259
588.577
584.519
579.118
572.414
564.451
555.271
544.916
533.418
520.809
507.119
510.155
529.627
547.473
563.654
578.146
590.932
602.014
611.42
619.214
625.507
630.474
634.368
637.523
640.353
643.323
646.894
651.443
657.165
664.002
671.613
679.425
686.721
692.761
696.871
698.507
697.272
692.915
685.305
674.406
660.251
642.923
622.535
599.224
575.042
585.318
630.776
676.471
722.296
768.16
813.982
859.697
905.249
950.59
995.683
1040.49
1084.99
1129.15
1172.95
1216.37
1259.38
1301.96
1344.06
1385.63
1426.6
1466.85
1506.22
1544.5
1581.11
1615.87
1648.5
1677.84
16674.8
1664.2
1616.24
1561.14
1500.42
1435.06
1365.76
1293.16
1217.86
1140.52
1061.95
982.939
904.607
828.987
758.693
696.619
645.527
607.319
582.251
568.664
563.604
563.896
566.945
570.956
574.819
577.925
579.961
580.773
580.297
578.513
575.425
571.05
565.413
558.538
550.456
541.196
530.782
519.239
506.597
509.409
527.393
543.753
558.459
571.487
582.831
592.499
600.528
606.989
612.001
615.746
618.478
620.531
622.316
624.29
626.908
630.538
635.372
641.352
648.146
655.19
661.777
667.172
670.708
671.838
670.165
665.432
657.5
646.324
631.929
614.385
593.797
570.288
543.995
545.791
584.699
630.639
676.925
723.466
770.182
817.004
863.872
910.734
957.538
1004.25
1050.82
1097.22
1143.41
1189.34
1234.98
1280.26
1325.11
1369.45
1413.15
1456.06
1497.95
1538.55
1577.05
1613.68
1647.33
1677.02
18013.8
1657.65
1606.06
1547.98
1484.52
1416.55
1344.81
1269.97
1192.7
1113.76
1034.02
954.304
875.871
800.865
731.892
671.754
623.002
587.216
564.304
552.38
548.463
549.504
553.086
557.55
561.88
565.514
568.155
569.656
569.944
568.993
566.797
563.361
558.699
552.828
545.769
537.543
528.17
517.671
506.074
508.665
525.173
540.072
553.334
564.943
574.897
583.21
589.925
595.118
598.913
601.492
603.108
604.092
604.848
605.825
607.468
610.138
614.025
619.072
624.955
631.118
636.867
641.475
644.277
644.732
642.44
637.141
628.691
617.04
602.204
584.246
563.262
539.365
512.685
508.049
540.546
586.646
633.283
680.367
727.814
775.554
823.521
871.655
919.903
968.213
1016.53
1064.82
1113.01
1161.04
1208.85
1256.37
1303.49
1350.09
1396.02
1441.08
1485.01
1527.37
1567.44
1605.2
1639.34
1668.47
17643.6
1643.65
1589.43
1529.1
1463.63
1393.83
1320.45
1244.18
1165.74
1085.96
1005.73
925.918
847.907
773.906
706.508
648.422
602.011
568.576
547.728
537.395
534.585
536.365
540.466
545.354
550.097
554.182
557.335
559.416
560.356
560.123
558.704
556.1
552.315
547.36
541.248
533.994
525.615
516.126
505.556
507.924
522.962
536.41
548.244
558.452
567.036
574.017
579.44
583.385
585.978
587.403
587.911
587.829
587.555
587.529
588.188
589.885
592.804
596.89
601.821
607.051
611.891
615.623
617.588
617.247
614.202
608.193
599.073
586.789
571.352
552.822
531.285
506.851
479.639
470.095
497.791
543.969
590.852
638.349
686.375
734.855
783.717
832.899
882.337
931.97
981.737
1031.57
1081.41
1131.17
1180.76
1230.09
1279.03
1327.44
1375.14
1421.88
1467.37
1511.11
1552.4
1591.12
1625.9
2266.82
16852.4
1624.46
1568.25
1506.26
1439.36
1368.35
1293.94
1216.85
1137.85
1057.78
977.574
898.092
820.839
748.075
682.363
626.322
582.142
550.877
531.897
522.991
521.182
523.65
528.26
533.579
538.748
543.289
546.95
549.597
551.162
551.611
550.928
549.108
546.151
542.063
536.854
530.533
523.114
514.61
505.046
507.188
520.766
532.775
543.195
552.019
559.252
564.918
569.066
571.78
573.186
573.467
572.873
571.727
570.419
569.381
569.04
569.742
571.664
574.752
578.686
582.926
586.791
589.57
590.61
589.376
585.472
578.639
568.732
555.693
539.535
520.31
498.104
473.02
445.172
431.906
456.046
502.22
549.247
597.034
645.496
694.551
744.126
794.15
844.553
895.265
946.213
997.32
1048.5
1099.67
1150.72
1201.53
1251.95
1301.83
1350.96
1399.08
1445.87
1490.8
1533.21
1573.02
1608.99
4667.52
14833.1
1600.18
1542.96
1480.08
1412.42
1340.78
1265.9
1188.52
1109.42
1029.49
949.659
870.821
794.572
723.187
659.207
605.172
563.114
533.875
516.621
509.038
508.172
511.309
516.427
522.185
527.783
532.78
536.938
540.132
542.296
543.396
543.415
542.342
540.177
536.92
532.578
527.159
520.671
513.127
504.547
506.457
518.583
529.162
538.178
545.626
551.516
555.875
558.756
560.243
560.464
559.602
557.904
555.688
553.337
551.277
549.923
549.613
550.52
552.585
555.491
558.702
561.544
563.312
563.359
561.157
556.312
548.569
537.782
523.897
506.923
486.913
463.949
438.132
409.572
393.479
414.991
461.081
508.156
556.122
604.89
654.376
704.501
755.189
806.363
857.944
909.851
961.996
1014.28
1066.61
1118.86
1170.89
1222.55
1273.67
1324
1373.3
1421.22
1467.22
1510.64
1551.43
1588.32
6810.8
12801.2
1572.35
1514.8
1451.61
1383.69
1311.88
1236.95
1159.66
1080.82
1001.34
922.143
844.158
769.052
699.12
636.872
584.769
544.706
517.336
501.661
495.292
495.309
499.093
504.725
510.939
516.987
522.455
527.121
530.867
533.629
535.373
536.08
535.738
534.345
531.898
528.402
523.861
518.282
511.675
504.059
505.729
516.413
525.57
533.188
539.267
543.82
546.877
548.492
548.754
547.789
545.781
542.974
539.681
536.279
533.184
530.805
529.468
529.341
530.36
532.211
534.359
536.137
536.848
535.85
532.619
526.77
518.049
506.314
491.512
473.652
452.79
429.005
402.396
373.072
354.821
374.388
420.319
467.355
515.397
564.356
614.144
664.678
715.877
767.655
819.93
872.609
925.598
978.791
1032.07
1085.31
1138.37
1191.07
1243.21
1294.58
1344.87
1393.76
1440.68
1484.99
1526.6
1564.25
8712.92
10997.1
1542.23
1484.71
1421.56
1353.73
1282.09
1207.43
1130.52
1052.21
973.415
895.043
818.058
744.193
675.75
615.207
564.953
526.756
501.115
486.892
481.648
482.501
486.921
493.076
499.764
506.282
512.24
517.428
521.736
525.1
527.487
528.877
529.259
528.626
526.975
524.309
520.629
515.942
510.253
503.581
505.006
514.254
521.995
528.22
532.934
536.152
537.907
538.258
537.291
535.138
531.978
528.054
523.676
519.213
515.074
511.657
509.281
508.104
508.06
508.833
509.893
510.576
510.192
508.107
503.803
496.9
487.149
474.413
458.642
439.846
418.082
393.431
365.99
335.868
315.946
334.058
379.762
426.678
474.707
523.755
573.734
624.555
676.132
728.376
781.196
834.494
888.166
942.1
996.17
1050.24
1104.15
1157.72
1210.75
1262.99
1314.16
1363.9
1411.64
1456.72
1499.07
1537.4
10318.6
9495.1
1510.54
1453.28
1390.42
1322.96
1251.75
1177.59
1101.3
1023.71
945.767
868.359
792.48
719.922
652.978
594.097
545.6
509.145
485.097
472.209
468.008
469.658
474.705
481.393
488.577
495.589
502.059
507.79
512.674
516.651
519.688
521.765
522.869
522.993
522.131
520.285
517.455
513.645
508.859
503.113
504.286
512.104
518.434
523.27
526.62
528.504
528.958
528.041
525.844
522.496
518.178
513.131
507.659
502.127
496.933
492.468
489.041
486.802
485.68
485.358
485.307
484.87
483.362
480.157
474.744
466.75
455.931
442.155
425.375
405.608
382.908
357.36
329.061
298.119
276.875
293.873
339.288
386.013
433.948
482.998
533.07
584.074
635.918
688.51
741.751
795.539
849.763
904.303
959.027
1013.79
1068.42
1122.74
1176.53
1229.54
1281.47
1331.97
1380.44
1426.25
1469.29
1508.29
11665.4
8247.57
1477.79
1420.94
1358.56
1291.65
1221.05
1147.59
1072.08
995.369
918.409
842.074
767.384
696.17
630.719
573.448
526.615
491.784
469.203
457.544
454.317
456.729
462.398
469.633
477.334
484.863
491.87
498.163
503.641
508.246
511.943
514.714
516.543
517.424
517.349
516.317
514.329
511.384
507.488
502.652
503.569
509.962
514.884
518.333
520.321
520.87
520.021
517.834
514.401
509.854
504.372
498.194
491.621
485.01
478.754
473.232
468.744
465.432
463.22
461.789
460.611
459.033
456.379
452.028
445.479
436.365
424.449
409.605
391.79
371.024
347.366
320.901
291.729
259.958
237.633
253.744
298.813
345.283
393.054
442.029
492.112
543.209
595.226
648.065
701.625
755.796
810.464
865.5
920.767
976.111
1031.36
1086.32
1140.78
1194.47
1247.1
1298.28
1347.44
1393.92
1437.65
1477.34
12762.5
7255.42
1444.3
1387.97
1326.21
1259.98
1190.14
1117.52
1042.93
967.22
891.346
816.164
742.721
672.873
608.898
553.182
507.927
474.609
453.383
442.853
440.53
443.675
449.964
457.759
465.999
474.071
481.637
488.516
494.607
499.854
504.225
507.699
510.26
511.901
512.613
512.393
511.241
509.155
506.138
502.199
502.853
507.826
511.342
513.406
514.032
513.246
511.091
507.63
502.958
497.206
490.554
483.238
475.556
467.86
460.533
453.947
448.39
443.998
440.686
438.133
435.814
433.081
429.262
423.747
416.041
405.786
392.752
376.819
357.95
336.169
311.539
284.147
254.095
221.492
198.244
213.611
258.283
304.443
351.989
400.821
450.843
501.957
554.067
607.07
660.86
715.326
770.346
825.788
881.509
937.352
993.138
1048.67
1103.72
1158.02
1211.27
1263.1
1312.9
1360.05
1404.46
1444.85
13638.3
6474.32
1410.27
1354.57
1293.53
1228.1
1159.14
1087.47
1013.89
939.278
864.564
790.598
718.44
649.967
587.444
533.229
489.475
457.583
437.623
428.133
426.62
430.471
437.382
445.753
454.554
463.191
471.34
478.825
485.548
491.455
496.513
500.7
504.002
506.408
507.91
508.502
508.183
506.95
504.804
501.752
502.14
505.694
507.807
508.486
507.75
505.627
502.163
497.425
491.509
484.547
476.719
468.26
459.463
450.674
442.271
434.613
427.982
422.501
418.082
414.399
410.929
407.027
402.031
395.336
386.458
375.046
360.879
343.844
323.909
301.104
275.494
247.171
216.237
182.805
158.735
173.436
217.667
263.467
310.734
359.365
409.264
460.329
512.462
565.557
619.505
674.191
729.488
785.263
841.366
897.634
953.885
1009.92
1065.5
1120.36
1174.19
1226.62
1277.05
1324.85
1369.95
1411.06
14328.8
5877.15
1375.85
1320.85
1260.62
1196.08
1128.1
1057.47
985
911.547
838.052
765.344
694.496
627.392
566.286
513.507
471.166
440.61
421.866
413.402
412.625
417.146
424.67
433.623
442.997
452.217
460.967
469.076
476.448
483.031
488.789
493.702
497.753
500.932
503.227
504.634
505.147
504.764
503.484
501.31
501.428
503.566
504.276
503.57
501.47
498.009
493.234
487.215
480.051
471.874
462.865
453.256
443.338
433.452
423.966
415.232
407.52
400.946
395.413
390.593
385.963
380.885
374.699
366.814
356.753
344.174
328.865
310.718
289.711
265.876
239.285
210.031
178.221
143.967
119.132
133.203
176.953
222.349
269.288
317.668
367.388
418.348
470.444
523.569
577.612
632.453
687.964
744.005
800.425
857.058
913.716
970.194
1026.26
1081.63
1136.01
1189.02
1240.06
1288.5
1334.28
1376.13
14845.4
5451.29
1341.13
1286.91
1227.56
1164.01
1097.08
1027.56
956.266
884.036
811.805
740.389
670.866
605.122
545.392
493.978
452.952
423.617
405.996
398.553
398.521
403.7
411.827
421.361
431.317
441.134
450.501
459.251
467.29
474.563
481.036
486.687
491.499
495.458
498.554
500.778
502.126
502.591
502.173
500.871
500.716
501.439
500.747
498.656
495.191
490.388
484.299
476.996
468.579
459.183
448.987
438.223
427.18
416.191
405.618
395.803
387.007
379.335
372.683
366.721
360.925
354.662
347.28
338.197
326.945
313.191
296.733
277.471
255.388
230.523
202.953
172.773
140.095
105.031
100
100
136.14
181.093
227.663
275.745
325.239
376.042
428.048
481.148
535.229
590.168
645.833
702.085
758.767
815.71
872.725
929.603
986.106
1041.96
1096.86
1150.42
1202.04
1251.11
1297.57
1340.17
15197.7
5185.68
1306.17
1252.8
1194.42
1131.91
1066.11
997.772
927.704
856.743
785.814
715.72
647.535
583.138
524.746
474.629
434.822
406.592
389.964
383.462
384.247
390.086
398.814
408.934
419.485
429.914
439.916
449.326
458.048
466.03
473.234
479.638
485.222
489.972
493.876
496.925
499.11
500.426
500.868
500.435
500.006
499.313
497.219
493.741
488.909
482.762
475.356
466.764
457.09
446.47
435.082
423.159
410.985
398.889
387.225
376.326
366.441
357.667
349.894
342.784
335.818
328.364
319.781
309.493
297.044
282.112
264.502
244.122
220.964
195.073
166.528
135.431
101.894
100
100
100
100
139.717
185.878
233.622
282.845
333.444
385.311
438.336
492.403
547.387
603.155
659.564
716.457
773.661
830.987
888.222
945.127
1001.43
1056.81
1110.9
1163.1
1212.79
1259.92
1303.25
15385.4
5069.18
1271
1218.56
1161.22
1099.83
1035.2
968.103
899.31
829.658
760.063
691.314
624.478
561.419
504.332
455.459
416.799
389.586
373.809
368.051
369.669
376.191
385.542
396.275
407.445
418.512
429.175
439.268
448.697
457.407
465.361
472.533
478.905
484.459
489.182
493.063
496.092
498.261
499.565
500
500.006
499.313
497.219
493.741
488.909
482.762
475.356
466.764
457.09
446.469
435.082
423.159
410.984
398.888
387.224
376.325
366.44
357.667
349.893
342.784
335.817
328.363
319.78
309.492
297.043
282.111
264.501
244.122
220.964
195.072
166.527
135.43
101.893
100
100
100
100
139.716
185.877
233.621
282.845
333.444
385.311
438.336
492.402
547.386
603.155
659.564
716.456
773.661
830.987
888.222
945.127
1001.43
1056.81
1110.9
1163.1
1212.79
1259.92
1303.25
15385.3
5069.27
1271
1218.56
1161.22
1099.83
1035.2
968.103
899.31
829.658
760.062
691.314
624.478
561.419
504.332
455.458
416.798
389.586
373.808
368.05
369.668
376.19
385.542
396.274
407.444
418.511
429.174
439.267
448.696
457.406
465.36
472.533
478.905
484.459
489.182
493.063
496.092
498.261
499.565
500
500.716
501.439
500.747
498.656
495.191
490.388
484.299
476.996
468.578
459.182
448.986
438.223
427.179
416.19
405.617
395.802
387.006
379.334
372.682
366.72
360.924
354.66
347.279
338.195
326.943
313.19
296.731
277.469
255.386
230.522
202.951
172.772
140.093
105.029
100
100
136.138
181.092
227.662
275.744
325.238
376.041
428.047
481.147
535.228
590.167
645.833
702.084
758.767
815.709
872.725
929.603
986.106
1041.96
1096.86
1150.42
1202.04
1251.11
1297.57
1340.17
15197.4
5185.98
1306.17
1252.8
1194.42
1131.92
1066.11
997.773
927.705
856.744
785.815
715.72
647.535
583.138
524.745
474.628
434.821
406.591
389.962
383.46
384.246
390.085
398.812
408.933
419.483
429.912
439.915
449.325
458.047
466.029
473.233
479.637
485.221
489.971
493.876
496.924
499.11
500.426
500.868
500.435
501.428
503.566
504.276
503.57
501.47
498.008
493.233
487.215
480.05
471.873
462.864
453.255
443.337
433.451
423.965
415.231
407.519
400.945
395.412
390.592
385.962
380.883
374.698
366.813
356.752
344.173
328.863
310.717
289.709
265.874
239.283
210.029
178.219
143.966
119.13
133.201
176.951
222.348
269.287
317.667
367.387
418.347
470.443
523.569
577.612
632.453
687.963
744.005
800.425
857.058
913.717
970.195
1026.26
1081.64
1136.01
1189.02
1240.06
1288.5
1334.28
1376.13
14844.8
5451.81
1341.13
1286.91
1227.57
1164.01
1097.08
1027.57
956.268
884.038
811.807
740.391
670.868
605.123
545.393
493.978
452.951
423.616
405.995
398.551
398.519
403.698
411.825
421.359
431.316
441.132
450.5
459.25
467.289
474.562
481.035
486.687
491.498
495.457
498.553
500.778
502.126
502.591
502.173
500.871
502.14
505.694
507.807
508.486
507.749
505.626
502.163
497.425
491.509
484.547
476.719
468.259
459.462
450.674
442.27
434.612
427.981
422.5
418.081
414.398
410.927
407.026
402.029
395.335
386.457
375.045
360.878
343.842
323.908
301.102
275.492
247.169
216.236
182.804
158.734
173.435
217.666
263.466
310.732
359.364
409.263
460.328
512.461
565.556
619.505
674.191
729.488
785.263
841.366
897.634
953.886
1009.92
1065.5
1120.36
1174.19
1226.62
1277.05
1324.85
1369.95
1411.06
14328.1
5877.89
1375.85
1320.85
1260.62
1196.09
1128.1
1057.47
985.003
911.551
838.055
765.347
694.498
627.394
566.288
513.508
471.166
440.609
421.865
413.401
412.623
417.145
424.668
433.621
442.995
452.215
460.966
469.075
476.447
483.03
488.788
493.701
497.753
500.931
503.227
504.634
505.147
504.764
503.484
501.31
502.853
507.826
511.342
513.406
514.032
513.246
511.09
507.63
502.957
497.205
490.553
483.238
475.556
467.859
460.533
453.946
448.389
443.997
440.685
438.132
435.813
433.08
429.261
423.746
416.04
405.784
392.75
376.817
357.948
336.168
311.537
284.145
254.093
221.49
198.243
213.61
258.282
304.442
351.988
400.82
450.842
501.956
554.066
607.069
660.86
715.326
770.346
825.788
881.51
937.352
993.139
1048.67
1103.72
1158.02
1211.27
1263.1
1312.9
1360.05
1404.46
1444.85
13637.3
6475.31
1410.27
1354.57
1293.53
1228.1
1159.14
1087.47
1013.9
939.283
864.569
790.602
718.444
649.97
587.447
533.232
489.476
457.583
437.622
428.132
426.619
430.469
437.38
445.752
454.552
463.19
471.339
478.824
485.547
491.454
496.512
500.7
504.002
506.407
507.909
508.502
508.183
506.95
504.804
501.752
503.568
509.962
514.883
518.333
520.321
520.87
520.02
517.833
514.401
509.853
504.372
498.193
491.62
485.009
478.753
473.231
468.743
465.431
463.219
461.788
460.609
459.032
456.378
452.027
445.478
436.364
424.448
409.603
391.788
371.022
347.365
320.9
291.728
259.957
237.632
253.743
298.812
345.282
393.053
442.028
492.111
543.208
595.226
648.065
701.625
755.796
810.464
865.501
920.768
976.112
1031.36
1086.33
1140.78
1194.48
1247.1
1298.28
1347.44
1393.92
1437.65
1477.34
12761.3
7256.68
1444.3
1387.98
1326.22
1259.99
1190.15
1117.53
1042.93
967.227
891.352
816.17
742.727
672.878
608.903
553.185
507.929
474.61
453.382
442.852
440.528
443.673
449.962
457.757
465.997
474.069
481.636
488.515
494.606
499.853
504.224
507.698
510.26
511.9
512.612
512.393
511.241
509.155
506.138
502.199
504.286
512.104
518.433
523.27
526.62
528.504
528.957
528.04
525.843
522.495
518.177
513.13
507.658
502.126
496.932
492.467
489.04
486.801
485.679
485.357
485.306
484.869
483.361
480.156
474.743
466.749
455.929
442.153
425.374
405.606
382.907
357.358
329.059
298.118
276.874
293.872
339.287
386.012
433.947
482.997
533.069
584.074
635.918
688.51
741.751
795.539
849.764
904.304
959.028
1013.79
1068.42
1122.74
1176.53
1229.54
1281.47
1331.97
1380.45
1426.25
1469.29
1508.29
11663.9
8249.12
1477.79
1420.94
1358.57
1291.65
1221.06
1147.59
1072.08
995.377
918.417
842.082
767.391
696.177
630.725
573.452
526.618
491.785
469.203
457.543
454.315
456.728
462.396
469.631
477.332
484.862
491.868
498.162
503.64
508.245
511.943
514.713
516.543
517.423
517.349
516.317
514.329
511.384
507.488
502.652
505.006
514.254
521.995
528.22
532.934
536.151
537.907
538.257
537.291
535.137
531.977
528.053
523.675
519.212
515.073
511.656
509.28
508.103
508.059
508.832
509.892
510.575
510.191
508.105
503.802
496.899
487.148
474.412
458.64
439.845
418.081
393.429
365.988
335.866
315.945
334.057
379.762
426.677
474.706
523.755
573.733
624.555
676.132
728.376
781.196
834.494
888.167
942.1
996.171
1050.24
1104.15
1157.72
1210.75
1262.99
1314.16
1363.9
1411.64
1456.73
1499.07
1537.4
10317.3
9496.31
1510.55
1453.28
1390.43
1322.97
1251.76
1177.6
1101.31
1023.72
945.776
868.368
792.489
719.931
652.986
594.103
545.604
509.148
485.098
472.209
468.007
469.657
474.703
481.391
488.576
495.587
502.058
507.789
512.673
516.65
519.687
521.764
522.869
522.992
522.131
520.285
517.455
513.645
508.859
503.113
505.729
516.413
525.57
533.188
539.267
543.819
546.876
548.492
548.753
547.789
545.78
542.973
539.68
536.278
533.183
530.804
529.467
529.34
530.359
532.21
534.358
536.137
536.847
535.849
532.618
526.769
518.048
506.312
491.51
473.651
452.788
429.003
402.394
373.071
354.82
374.387
420.319
467.354
515.397
564.355
614.144
664.678
715.876
767.656
819.93
872.61
925.598
978.791
1032.07
1085.31
1138.37
1191.07
1243.22
1294.58
1344.88
1393.76
1440.69
1485
1526.61
1564.25
8713.13
10997.8
1542.23
1484.71
1421.56
1353.74
1282.1
1207.44
1130.53
1052.22
973.426
895.055
818.069
744.203
675.759
615.214
564.958
526.76
501.117
486.892
481.647
482.5
486.919
493.074
499.763
506.28
512.238
517.427
521.735
525.099
527.486
528.876
529.258
528.626
526.975
524.309
520.629
515.942
510.253
503.581
506.457
518.583
529.162
538.178
545.626
551.516
555.875
558.755
560.242
560.463
559.601
557.903
555.687
553.336
551.276
549.922
549.612
550.519
552.584
555.49
558.701
561.543
563.311
563.358
561.156
556.311
548.568
537.781
523.896
506.921
486.911
463.948
438.13
409.571
393.479
414.991
461.081
508.156
556.122
604.889
654.375
704.501
755.189
806.363
857.944
909.851
961.996
1014.28
1066.61
1118.86
1170.89
1222.56
1273.67
1324.01
1373.3
1421.22
1467.22
1510.65
1551.43
1588.32
6812.46
12799.6
1572.36
1514.81
1451.61
1383.7
1311.89
1236.96
1159.67
1080.83
1001.35
922.156
844.17
769.063
699.13
636.88
584.776
544.71
517.339
501.661
495.291
495.308
499.092
504.724
510.938
516.985
522.453
527.12
530.866
533.629
535.373
536.079
535.738
534.345
531.898
528.401
523.861
518.282
511.675
504.059
507.188
520.766
532.775
543.195
552.019
559.251
564.917
569.066
571.779
573.185
573.466
572.873
571.727
570.418
569.38
569.039
569.741
571.664
574.751
578.686
582.925
586.791
589.569
590.609
589.375
585.471
578.638
568.73
555.692
539.533
520.309
498.103
473.019
445.171
431.906
456.046
502.219
549.247
597.034
645.496
694.551
744.126
794.15
844.553
895.265
946.213
997.32
1048.5
1099.67
1150.72
1201.53
1251.96
1301.84
1350.96
1399.08
1445.87
1490.81
1533.22
1573.03
1609
4670.62
14832.5
1600.19
1542.97
1480.09
1412.44
1340.8
1265.92
1188.53
1109.44
1029.51
949.673
870.834
794.584
723.198
659.216
605.18
563.119
533.878
516.622
509.038
508.171
511.308
516.426
522.184
527.782
532.778
536.937
540.131
542.296
543.396
543.414
542.342
540.177
536.92
532.578
527.159
520.671
513.127
504.547
507.924
522.962
536.41
548.244
558.452
567.036
574.017
579.439
583.384
585.978
587.402
587.91
587.829
587.554
587.529
588.188
589.884
592.804
596.889
601.821
607.05
611.89
615.622
617.587
617.246
614.202
608.192
599.072
586.788
571.351
552.821
531.284
506.85
479.638
470.094
497.791
543.969
590.852
638.349
686.375
734.855
783.717
832.898
882.336
931.97
981.737
1031.57
1081.41
1131.17
1180.76
1230.09
1279.03
1327.44
1375.14
1421.88
1467.37
1511.11
1552.4
1591.13
1625.91
2272.68
16848.1
1624.47
1568.26
1506.27
1439.37
1368.36
1293.95
1216.87
1137.87
1057.8
977.59
898.106
820.854
748.089
682.375
626.332
582.149
550.881
531.899
522.991
521.181
523.649
528.258
533.578
538.746
543.288
546.949
549.597
551.162
551.611
550.928
549.107
546.151
542.063
536.854
530.533
523.114
514.61
505.046
508.665
525.173
540.072
553.334
564.943
574.897
583.21
589.925
595.118
598.912
601.491
603.107
604.091
604.847
605.824
607.467
610.137
614.024
619.071
624.954
631.118
636.867
641.474
644.277
644.731
642.439
637.14
628.69
617.039
602.203
584.245
563.261
539.364
512.684
508.049
540.546
586.646
633.283
680.366
727.814
775.554
823.521
871.654
919.902
968.212
1016.53
1064.82
1113
1161.04
1208.85
1256.37
1303.49
1350.09
1396.02
1441.08
1485.01
1527.38
1567.45
1605.2
1639.35
1668.48
17643.6
1643.66
1589.45
1529.12
1463.64
1393.85
1320.47
1244.2
1165.76
1085.98
1005.76
925.94
847.925
773.921
706.519
648.431
602.018
568.58
547.73
537.396
534.584
536.364
540.465
545.353
550.096
554.181
557.334
559.416
560.356
560.123
558.704
556.1
552.315
547.36
541.248
533.994
525.615
516.126
505.556
509.409
527.393
543.753
558.459
571.487
582.831
592.499
600.528
606.988
612.001
615.746
618.477
620.531
622.315
624.289
626.907
630.537
635.371
641.352
648.146
655.19
661.777
667.172
670.707
671.837
670.164
665.431
657.499
646.323
631.928
614.384
593.796
570.287
543.994
545.79
584.7
630.639
676.925
723.466
770.182
817.004
863.872
910.733
957.537
1004.25
1050.82
1097.22
1143.41
1189.34
1234.98
1280.26
1325.11
1369.45
1413.15
1456.06
1497.95
1538.55
1577.05
1613.68
1647.34
1677.02
18013.7
1657.67
1606.08
1548
1484.54
1416.57
1344.83
1269.98
1192.71
1113.77
1034.03
954.318
875.889
800.883
731.909
671.768
623.012
587.222
564.308
552.382
548.463
549.504
553.085
557.549
561.879
565.513
568.155
569.655
569.944
568.993
566.796
563.361
558.699
552.828
545.769
537.543
528.17
517.671
506.074
510.155
529.627
547.473
563.654
578.146
590.932
602.014
611.42
619.213
625.506
630.474
634.368
637.523
640.353
643.322
646.894
651.443
657.165
664.001
671.613
679.424
686.721
692.761
696.871
698.506
697.271
692.915
685.305
674.405
660.25
642.922
622.534
599.223
575.042
585.319
630.777
676.472
722.297
768.16
813.982
859.697
905.248
950.589
995.682
1040.49
1084.98
1129.14
1172.95
1216.36
1259.38
1301.96
1344.06
1385.63
1426.6
1466.85
1506.22
1544.5
1581.11
1615.87
1648.5
1677.84
16674.2
1664.22
1616.26
1561.16
1500.44
1435.07
1365.78
1293.18
1217.87
1140.53
1061.96
982.955
904.622
829.002
758.707
696.631
645.537
607.326
582.255
568.666
563.605
563.896
566.945
570.955
574.818
577.925
579.96
580.773
580.296
578.512
575.425
571.05
565.413
558.538
550.457
541.196
530.782
519.239
506.597
510.894
531.841
551.17
568.842
584.822
599.085
611.619
622.44
631.6
639.202
645.415
650.487
654.756
658.641
662.616
667.15
672.625
679.235
686.914
695.311
703.834
711.756
718.323
722.86
724.824
723.825
719.622
712.096
701.225
687.058
669.692
649.256
625.902
612.442
633.863
679.237
724.606
769.861
814.911
859.678
904.097
948.116
991.694
1034.8
1077.41
1119.5
1161.06
1202.08
1242.56
1282.49
1321.87
1360.68
1398.92
1436.55
1473.52
1509.73
1545.03
1578.96
1611.39
1642.15
1670.25
13722.3
4597.06
1620.5
1567.73
1510.03
1447.97
1382.05
1312.7
1240.4
1165.67
1089.22
1011.77
934.274
858.61
787.358
723.49
669.995
629.142
601.614
586.07
579.643
579.046
581.499
585.038
588.438
591.023
592.446
592.546
591.259
588.577
584.519
579.118
572.414
564.451
555.271
544.916
533.418
520.809
507.119
511.631
534.081
554.961
574.223
591.827
607.734
621.917
634.371
645.128
654.269
661.943
668.381
673.909
678.939
683.944
689.402
695.701
703.041
711.355
720.283
729.225
737.446
744.193
748.798
750.729
749.609
745.211
737.431
726.265
711.774
694.074
673.308
649.645
649.873
685.605
730.807
775.737
820.286
864.362
907.892
950.814
993.081
1034.66
1075.52
1115.64
1155.03
1193.66
1231.54
1268.69
1305.11
1340.81
1375.82
1410.14
1443.79
1476.74
1508.99
1540.45
1570.81
1599.94
1627.84
1653.74
10452.8
7896.93
1616.73
1566.88
1512.77
1454.68
1392.89
1327.65
1259.26
1188.13
1114.78
1039.89
964.213
889.399
817.955
752.897
697.422
654.186
624.355
606.971
599.278
597.859
599.707
602.665
605.385
607.146
607.6
606.607
604.131
600.19
594.828
588.103
580.074
570.803
560.35
548.767
536.098
522.377
507.633
512.321
536.154
558.484
579.277
598.472
616.008
631.829
645.9
658.224
668.861
677.946
685.713
692.493
698.709
704.808
711.246
718.408
726.493
735.43