/*--------------------------------*- C++ -*----------------------------------*\
  =========                 |
  \\      /  F ield         | OpenFOAM: The Open Source CFD Toolbox
   \\    /   O peration     | Website:  https://openfoam.org
    \\  /    A nd           | Version:  8
     \\/     M anipulation  |
\*---------------------------------------------------------------------------*/
FoamFile
{
    version     2.0;
    format      ascii;
    class       volScalarField;
    location    "960/fluid";
    object      rho;
}
// * * * * * * * * * * * * * * * * * * * * * * * * * * * * * * * * * * * * * //

dimensions      [1 -3 0 0 0 0 0];

internalField   nonuniform List<scalar> 
4000
(
0.658526
0.658499
0.658454
0.65838
0.658254
0.658047
0.657705
0.657148
0.656248
0.654814
0.652569
0.649122
0.64396
0.636463
0.625963
0.61188
0.5939
0.572144
0.547241
0.520235
0.492352
0.464747
0.438316
0.413631
0.390973
0.370398
0.351824
0.33509
0.320005
0.306377
0.294022
0.28278
0.272512
0.263101
0.25445
0.24646
0.239029
0.232095
0.225606
0.219521
0.213801
0.208416
0.203339
0.198546
0.19402
0.189745
0.185706
0.181894
0.178299
0.174914
0.171735
0.168759
0.165987
0.163422
0.161071
0.158946
0.157064
0.155477
0.154211
0.153273
0.152779
0.152847
0.154212
0.163087
0.173577
0.1859
0.200351
0.217321
0.237326
0.261035
0.289317
0.323296
0.364408
0.414605
0.476256
0.551532
0.641584
0.744824
0.854728
0.959401
1.0458
1.10688
1.14432
1.16469
1.1749
1.17977
1.18202
1.18304
1.18348
1.18368
1.18376
1.1838
1.18381
1.18382
1.18382
1.18382
1.18382
1.18382
1.18382
1.18382
0.658526
0.658499
0.658454
0.658379
0.658254
0.658045
0.657702
0.657142
0.656239
0.654804
0.65256
0.649126
0.643999
0.636575
0.626207
0.612326
0.594616
0.573174
0.548583
0.521839
0.494132
0.466604
0.44016
0.415394
0.39261
0.371888
0.353159
0.336274
0.321049
0.307292
0.294822
0.283478
0.273118
0.263625
0.254902
0.24685
0.239364
0.23238
0.225847
0.219722
0.213967
0.20855
0.203444
0.198626
0.194076
0.18978
0.185723
0.181893
0.178283
0.174885
0.171694
0.168708
0.165927
0.163354
0.160997
0.158866
0.15698
0.15539
0.154123
0.153184
0.152692
0.152766
0.154874
0.163914
0.174601
0.187165
0.201919
0.219275
0.239778
0.264134
0.293265
0.328358
0.370938
0.423077
0.487185
0.565323
0.658237
0.763459
0.87327
0.975129
1.05688
1.11334
1.14752
1.16612
1.17549
1.18
1.18211
1.18307
1.18349
1.18368
1.18376
1.1838
1.18381
1.18382
1.18382
1.18382
1.18382
1.18382
1.18382
1.18382
0.658526
0.658499
0.658454
0.658379
0.658253
0.658044
0.657699
0.657138
0.656233
0.654797
0.652555
0.649131
0.644033
0.636666
0.626396
0.612667
0.595163
0.573968
0.549638
0.523135
0.495617
0.468209
0.441813
0.417034
0.39419
0.373375
0.354536
0.337534
0.322192
0.308321
0.295744
0.2843
0.273848
0.26427
0.255467
0.247345
0.239795
0.232752
0.226165
0.21999
0.214189
0.208729
0.203584
0.19873
0.194148
0.189821
0.185735
0.181881
0.178248
0.174829
0.17162
0.168619
0.165824
0.163239
0.160871
0.158732
0.156841
0.155249
0.153982
0.153047
0.152565
0.152654
0.156075
0.165338
0.176311
0.189234
0.204436
0.222357
0.24357
0.268824
0.299088
0.335609
0.379985
0.434364
0.501078
0.581913
0.677027
0.78302
0.891311
0.989402
1.06644
1.11884
1.15032
1.16743
1.17607
1.18025
1.18221
1.18311
1.18351
1.18369
1.18376
1.1838
1.18381
1.18382
1.18382
1.18382
1.18382
1.18382
1.18382
1.18382
0.658526
0.658499
0.658454
0.658379
0.658253
0.658045
0.657702
0.657143
0.656243
0.654817
0.652595
0.649205
0.644162
0.636882
0.626736
0.613173
0.595871
0.574897
0.550783
0.52446
0.497071
0.46973
0.443345
0.41853
0.395617
0.374714
0.355777
0.338673
0.32323
0.309263
0.296594
0.285063
0.27453
0.264877
0.256003
0.247816
0.240207
0.233109
0.22647
0.220246
0.214399
0.208897
0.203712
0.19882
0.194203
0.189843
0.185729
0.181847
0.178189
0.174749
0.17152
0.168501
0.165691
0.163094
0.160717
0.158572
0.156677
0.155088
0.153829
0.152904
0.152436
0.15255
0.157595
0.167106
0.1784
0.19173
0.207441
0.225994
0.247993
0.274225
0.305705
0.343729
0.38997
0.446631
0.515937
0.59939
0.696564
0.803169
0.909829
1.00414
1.07649
1.1248
1.15346
1.16896
1.17678
1.18057
1.18235
1.18317
1.18354
1.1837
1.18377
1.1838
1.18381
1.18382
1.18382
1.18382
1.18382
1.18382
1.18382
1.18382
0.658526
0.658499
0.658455
0.65838
0.658255
0.658047
0.657706
0.657151
0.656257
0.654842
0.652639
0.649281
0.644289
0.637084
0.627046
0.613626
0.596495
0.575709
0.551776
0.525606
0.498325
0.47104
0.444662
0.419815
0.396843
0.375863
0.356841
0.339651
0.324121
0.310071
0.297324
0.285719
0.275117
0.265398
0.256463
0.24822
0.240559
0.233412
0.226727
0.220459
0.21457
0.209029
0.203806
0.19888
0.194229
0.18984
0.185697
0.18179
0.178109
0.174648
0.171401
0.168367
0.165545
0.162938
0.160555
0.158407
0.156515
0.154939
0.15369
0.15278
0.152341
0.152509
0.15922
0.168982
0.180608
0.19436
0.210597
0.2298
0.252602
0.279823
0.31252
0.352034
0.40012
0.459003
0.530764
0.6166
0.715476
0.82225
0.92692
1.01739
1.08533
1.12996
1.15618
1.17029
1.1774
1.18085
1.18247
1.18322
1.18356
1.18371
1.18377
1.1838
1.18381
1.18382
1.18382
1.18382
1.18382
1.18382
1.18382
1.18382
0.658526
0.6585
0.658455
0.658381
0.658257
0.658051
0.657712
0.657162
0.656277
0.654875
0.652694
0.649371
0.644431
0.637303
0.62737
0.614081
0.597104
0.576477
0.552693
0.526642
0.499438
0.472186
0.445801
0.420916
0.397885
0.376834
0.357736
0.340468
0.324864
0.310742
0.297928
0.28626
0.275599
0.265824
0.256837
0.248546
0.24084
0.23365
0.226925
0.220619
0.214694
0.209118
0.203863
0.198905
0.194227
0.189811
0.185643
0.181714
0.178013
0.174534
0.171273
0.168227
0.165397
0.162786
0.160403
0.158259
0.156374
0.154813
0.153576
0.152688
0.152274
0.15248
0.160695
0.170718
0.182697
0.196887
0.213659
0.233512
0.257104
0.28529
0.319165
0.360114
0.409972
0.47096
0.545018
0.633027
0.733356
0.840081
0.942699
1.02951
1.0934
1.1347
1.15871
1.17154
1.17799
1.18112
1.1826
1.18327
1.18358
1.18372
1.18378
1.1838
1.18381
1.18382
1.18382
1.18382
1.18382
1.18382
1.18382
1.18382
0.658526
0.6585
0.658456
0.658382
0.658259
0.658055
0.657719
0.657173
0.656296
0.654908
0.652748
0.649458
0.644567
0.637507
0.627667
0.614494
0.597649
0.577159
0.5535
0.527546
0.500402
0.473172
0.446774
0.42185
0.398763
0.377648
0.358481
0.341144
0.325474
0.31129
0.298418
0.286696
0.275984
0.266162
0.25713
0.248798
0.241053
0.233828
0.227068
0.22073
0.214774
0.209168
0.203885
0.198902
0.194199
0.18976
0.185572
0.181624
0.177907
0.174415
0.171143
0.16809
0.165257
0.162648
0.160272
0.158142
0.156276
0.154756
0.153524
0.152685
0.152324
0.152574
0.161437
0.171988
0.184457
0.199154
0.216486
0.236986
0.261345
0.290454
0.325448
0.367758
0.419294
0.482251
0.558426
0.648381
0.749902
0.856349
0.956848
1.04019
1.10041
1.13878
1.16087
1.17261
1.1785
1.18136
1.1827
1.18332
1.1836
1.18373
1.18378
1.1838
1.18381
1.18382
1.18382
1.18382
1.18382
1.18382
1.18382
1.18382
0.658526
0.6585
0.658456
0.658383
0.658261
0.658059
0.657726
0.657185
0.656316
0.65494
0.652801
0.649541
0.644694
0.637698
0.627941
0.61487
0.598139
0.577765
0.554208
0.528332
0.501233
0.474014
0.447598
0.422636
0.399496
0.378322
0.359094
0.341697
0.325969
0.311732
0.298809
0.287041
0.276285
0.266423
0.257353
0.248986
0.241209
0.233953
0.227165
0.220799
0.214817
0.209186
0.20388
0.198875
0.194152
0.189695
0.18549
0.181526
0.177797
0.174294
0.171016
0.167959
0.165126
0.162522
0.160157
0.158046
0.156221
0.154751
0.153594
0.152875
0.152704
0.15326
0.162436
0.173333
0.186186
0.201315
0.219147
0.240235
0.265299
0.29526
0.33129
0.374867
0.42796
0.492734
0.570836
0.662512
0.764997
0.871012
0.969423
1.04956
1.1065
1.14232
1.16275
1.17355
1.17895
1.18156
1.18279
1.18336
1.18362
1.18373
1.18378
1.18381
1.18381
1.18382
1.18382
1.18382
1.18382
1.18382
1.18382
1.18382
0.658526
0.6585
0.658457
0.658384
0.658263
0.658062
0.657732
0.657196
0.656334
0.65497
0.652849
0.649616
0.64481
0.637869
0.628184
0.615201
0.598568
0.578292
0.55482
0.529007
0.501942
0.474727
0.448292
0.423292
0.400105
0.378877
0.359595
0.342145
0.326368
0.312084
0.299118
0.28731
0.276518
0.266621
0.257519
0.249123
0.241319
0.234037
0.227224
0.220835
0.214831
0.209181
0.203855
0.198833
0.194093
0.18962
0.185401
0.181427
0.177687
0.174177
0.170893
0.167835
0.165003
0.162405
0.160051
0.157958
0.156165
0.154733
0.153635
0.153006
0.152978
0.154058
0.1635
0.174687
0.187864
0.203368
0.22164
0.243255
0.268956
0.299692
0.336668
0.381408
0.435931
0.502356
0.582189
0.675367
0.778607
0.884074
0.980468
1.05767
1.11173
1.14533
1.16434
1.17434
1.17933
1.18174
1.18287
1.1834
1.18363
1.18374
1.18379
1.18381
1.18382
1.18382
1.18382
1.18382
1.18382
1.18382
1.18382
1.18382
0.658526
0.658501
0.658458
0.658385
0.658265
0.658066
0.657738
0.657206
0.656351
0.654997
0.652892
0.649684
0.644912
0.63802
0.628397
0.615489
0.59894
0.578745
0.555344
0.529581
0.502541
0.475326
0.448871
0.423837
0.400606
0.379331
0.360001
0.342506
0.326685
0.312361
0.299359
0.287517
0.276694
0.266769
0.25764
0.249219
0.241392
0.234089
0.227256
0.220847
0.214826
0.209159
0.203818
0.19878
0.194027
0.189542
0.185313
0.181328
0.177581
0.174066
0.170778
0.167717
0.164886
0.162291
0.159942
0.157857
0.156077
0.154656
0.153563
0.152929
0.152868
0.154966
0.164605
0.176019
0.189465
0.205288
0.223944
0.246024
0.272291
0.303723
0.341551
0.387348
0.443166
0.51108
0.592455
0.686934
0.790754
0.895602
0.990092
1.06466
1.11618
1.14788
1.1657
1.17501
1.17965
1.18189
1.18294
1.18343
1.18365
1.18375
1.18379
1.18381
1.18382
1.18382
1.18382
1.18382
1.18382
1.18382
1.18382
1.18382
0.658526
0.658501
0.658458
0.658386
0.658267
0.658069
0.657744
0.657215
0.656366
0.655021
0.65293
0.649743
0.645002
0.63815
0.628581
0.615737
0.599257
0.579131
0.555788
0.530064
0.503042
0.475826
0.449351
0.424285
0.401016
0.3797
0.360329
0.342794
0.326937
0.312579
0.299545
0.287675
0.276826
0.266876
0.257725
0.249283
0.241438
0.234117
0.227267
0.220844
0.214808
0.209126
0.203773
0.198723
0.193959
0.189465
0.185227
0.181236
0.177483
0.173963
0.170672
0.167611
0.16478
0.162187
0.159841
0.15776
0.155985
0.154569
0.153479
0.152845
0.152778
0.155878
0.165674
0.177279
0.190953
0.207052
0.226044
0.248534
0.275305
0.307356
0.345946
0.392688
0.449666
0.518905
0.601639
0.697231
0.801488
0.905682
0.998408
1.07063
1.11996
1.15004
1.16683
1.17558
1.17992
1.18202
1.183
1.18345
1.18366
1.18375
1.18379
1.18381
1.18382
1.18382
1.18382
1.18382
1.18382
1.18382
1.18382
1.18382
0.658526
0.658501
0.658459
0.658387
0.658268
0.658072
0.657748
0.657223
0.656378
0.655042
0.652963
0.649794
0.645079
0.638262
0.628738
0.615948
0.599526
0.579456
0.55616
0.530468
0.503459
0.476238
0.449745
0.424651
0.401348
0.379997
0.36059
0.343023
0.327134
0.312748
0.299688
0.287794
0.276923
0.266954
0.257784
0.249325
0.241464
0.234129
0.227266
0.220829
0.214781
0.209089
0.203725
0.198667
0.193894
0.189393
0.185149
0.181152
0.177395
0.173872
0.17058
0.167518
0.164688
0.162097
0.159755
0.157679
0.155909
0.154496
0.15341
0.152776
0.152706
0.156709
0.166646
0.178417
0.192291
0.208632
0.227918
0.250768
0.277981
0.310577
0.349839
0.397424
0.455435
0.525844
0.609762
0.706299
0.810874
0.914415
1.00554
1.0757
1.12314
1.15184
1.16778
1.17605
1.18015
1.18212
1.18305
1.18348
1.18367
1.18376
1.18379
1.18381
1.18382
1.18382
1.18382
1.18382
1.18382
1.18382
1.18382
1.18382
0.658526
0.658501
0.658459
0.658388
0.65827
0.658074
0.657752
0.657229
0.656389
0.65506
0.652991
0.649837
0.645143
0.638357
0.62887
0.616124
0.59975
0.579726
0.556468
0.530801
0.503802
0.476576
0.450066
0.424947
0.401616
0.380234
0.360798
0.343202
0.327288
0.312878
0.299797
0.287883
0.276994
0.267008
0.257824
0.249351
0.241478
0.23413
0.227256
0.22081
0.214752
0.209052
0.20368
0.198614
0.193835
0.189328
0.185079
0.181079
0.177319
0.173795
0.170502
0.167441
0.164613
0.162025
0.159686
0.157614
0.155849
0.154441
0.153358
0.152726
0.152653
0.157427
0.167495
0.179415
0.193466
0.210017
0.229558
0.25272
0.28032
0.313394
0.353246
0.401571
0.460488
0.531916
0.616856
0.714185
0.818985
0.9219
1.01159
1.07997
1.1258
1.15335
1.16857
1.17644
1.18034
1.18221
1.18309
1.18349
1.18368
1.18376
1.18379
1.18381
1.18382
1.18382
1.18382
1.18382
1.18382
1.18382
1.18382
1.18382
0.658526
0.658501
0.658459
0.658389
0.658271
0.658076
0.657756
0.657235
0.656398
0.655075
0.653014
0.649873
0.645197
0.638435
0.628979
0.61627
0.599935
0.579948
0.55672
0.531073
0.504081
0.476849
0.450325
0.425185
0.401829
0.380423
0.360962
0.343343
0.327407
0.312977
0.299879
0.287949
0.277045
0.267046
0.25785
0.249366
0.241483
0.234126
0.227243
0.220789
0.214724
0.209016
0.203638
0.198567
0.193784
0.189273
0.185021
0.181018
0.177257
0.173732
0.17044
0.167381
0.164556
0.16197
0.159635
0.157566
0.155808
0.154404
0.153323
0.152691
0.152614
0.158038
0.168221
0.180272
0.194475
0.211208
0.23097
0.254403
0.282335
0.31582
0.356181
0.405146
0.464844
0.537147
0.622957
0.720945
0.8259
0.928234
1.01667
1.08352
1.128
1.15459
1.16922
1.17676
1.18049
1.18228
1.18312
1.18351
1.18368
1.18376
1.1838
1.18381
1.18382
1.18382
1.18382
1.18382
1.18382
1.18382
1.18382
1.18382
0.658526
0.658501
0.658459
0.658389
0.658272
0.658078
0.657758
0.657239
0.656406
0.655087
0.653034
0.649903
0.645242
0.638499
0.629068
0.616388
0.600085
0.580127
0.556924
0.531292
0.504304
0.477068
0.45053
0.425373
0.401998
0.38057
0.36109
0.343452
0.327498
0.313053
0.29994
0.287998
0.277083
0.267073
0.257867
0.249375
0.241483
0.234119
0.22723
0.220769
0.214699
0.208986
0.203604
0.198529
0.193742
0.189228
0.184974
0.180971
0.17721
0.173685
0.170395
0.167337
0.164514
0.161932
0.159601
0.157537
0.155782
0.154382
0.153303
0.15267
0.152588
0.158542
0.168828
0.180993
0.195327
0.212216
0.232164
0.255825
0.284039
0.317872
0.358664
0.40817
0.468527
0.541569
0.628106
0.726634
0.831694
0.933509
1.02087
1.08645
1.1298
1.1556
1.16975
1.17702
1.18062
1.18234
1.18315
1.18352
1.18369
1.18376
1.1838
1.18381
1.18382
1.18382
1.18382
1.18382
1.18382
1.18382
1.18382
1.18382
0.658526
0.658502
0.65846
0.65839
0.658273
0.658079
0.657761
0.657243
0.656412
0.655096
0.653049
0.649926
0.645277
0.63855
0.629139
0.616482
0.600203
0.580269
0.557084
0.531464
0.504479
0.477239
0.450691
0.42552
0.402128
0.380684
0.361187
0.343534
0.327568
0.31311
0.299986
0.288034
0.27711
0.267092
0.257879
0.24938
0.241483
0.234113
0.227219
0.220754
0.214679
0.208963
0.203577
0.198499
0.193711
0.189195
0.184941
0.180937
0.177176
0.173653
0.170364
0.167308
0.164489
0.16191
0.159583
0.157523
0.155773
0.154376
0.153298
0.152661
0.152574
0.158953
0.169327
0.181589
0.196033
0.21305
0.233153
0.257002
0.285447
0.319567
0.360713
0.410667
0.471566
0.545215
0.632346
0.731307
0.836434
0.937804
1.02428
1.0888
1.13125
1.15641
1.17017
1.17723
1.18072
1.18239
1.18317
1.18353
1.18369
1.18377
1.1838
1.18381
1.18382
1.18382
1.18382
1.18382
1.18382
1.18382
1.18382
1.18382
0.658526
0.658502
0.65846
0.65839
0.658273
0.65808
0.657762
0.657246
0.656417
0.655104
0.653061
0.649944
0.645304
0.638589
0.629194
0.616554
0.600294
0.580378
0.557207
0.531595
0.504613
0.477369
0.450813
0.42563
0.402226
0.380769
0.36126
0.343596
0.327619
0.313152
0.30002
0.28806
0.27713
0.267106
0.257888
0.249384
0.241483
0.234109
0.227211
0.220743
0.214666
0.208947
0.203559
0.19848
0.19369
0.189174
0.184919
0.180916
0.177156
0.173634
0.170347
0.167295
0.164478
0.161904
0.15958
0.157524
0.155778
0.154383
0.153304
0.152663
0.152565
0.159275
0.169725
0.182067
0.1966
0.213721
0.233946
0.257945
0.286573
0.320919
0.362347
0.412654
0.473984
0.548111
0.635708
0.735002
0.840169
0.941176
1.02694
1.09064
1.13238
1.15704
1.1705
1.1774
1.18079
1.18242
1.18319
1.18354
1.1837
1.18377
1.1838
1.18381
1.18382
1.18382
1.18382
1.18382
1.18382
1.18382
1.18382
1.18382
0.658526
0.658502
0.65846
0.65839
0.658274
0.658081
0.657764
0.657248
0.65642
0.65511
0.653069
0.649958
0.645324
0.638618
0.629233
0.616607
0.60036
0.580457
0.557296
0.53169
0.504709
0.477462
0.4509
0.425709
0.402296
0.38083
0.361313
0.34364
0.327656
0.313182
0.300044
0.288079
0.277144
0.267117
0.257895
0.249389
0.241484
0.234108
0.227208
0.220738
0.214659
0.208938
0.203549
0.198469
0.193679
0.189163
0.184908
0.180906
0.177147
0.173627
0.170343
0.167294
0.164481
0.16191
0.159591
0.157538
0.155795
0.1544
0.15332
0.152672
0.152562
0.159515
0.170027
0.182432
0.197034
0.214233
0.234551
0.258661
0.287426
0.321941
0.363577
0.414148
0.475797
0.550278
0.638217
0.737751
0.842937
0.943664
1.0289
1.09199
1.13321
1.1575
1.17074
1.17752
1.18085
1.18245
1.1832
1.18354
1.1837
1.18377
1.1838
1.18381
1.18382
1.18382
1.18382
1.18382
1.18382
1.18382
1.18382
1.18382
0.658526
0.658502
0.65846
0.65839
0.658274
0.658081
0.657764
0.65725
0.656423
0.655113
0.653075
0.649966
0.645337
0.638636
0.629259
0.616641
0.600403
0.580508
0.557353
0.531751
0.504771
0.477522
0.450956
0.42576
0.402341
0.380869
0.361346
0.343668
0.327679
0.313202
0.30006
0.288092
0.277154
0.267124
0.257901
0.249393
0.241487
0.23411
0.227208
0.220736
0.214656
0.208935
0.203546
0.198466
0.193675
0.18916
0.184906
0.180905
0.177148
0.17363
0.170349
0.167302
0.164493
0.161925
0.15961
0.15756
0.155819
0.154425
0.153342
0.152687
0.152561
0.159674
0.170234
0.182687
0.197337
0.21459
0.23497
0.259154
0.288008
0.322635
0.364409
0.415154
0.477012
0.551726
0.639886
0.739571
0.84476
0.945292
1.03017
1.09287
1.13375
1.1578
1.1709
1.17759
1.18089
1.18247
1.18321
1.18355
1.1837
1.18377
1.1838
1.18381
1.18382
1.18382
1.18382
1.18382
1.18382
1.18382
1.18382
1.18382
0.658526
0.658502
0.65846
0.65839
0.658274
0.658081
0.657765
0.65725
0.656424
0.655115
0.653078
0.64997
0.645343
0.638645
0.629271
0.616657
0.600423
0.580532
0.55738
0.53178
0.5048
0.477551
0.450983
0.425785
0.402363
0.380888
0.361362
0.343682
0.32769
0.313211
0.300067
0.288098
0.277159
0.267128
0.257904
0.249395
0.241489
0.234112
0.22721
0.220738
0.214657
0.208936
0.203547
0.198466
0.193676
0.189161
0.184908
0.180908
0.177153
0.173637
0.170357
0.167313
0.164506
0.161941
0.159628
0.157581
0.155842
0.154449
0.153364
0.152701
0.15256
0.159752
0.170345
0.182824
0.1975
0.21478
0.235191
0.25941
0.288309
0.322989
0.364829
0.415657
0.477613
0.552436
0.640697
0.740448
0.845631
0.946063
1.03077
1.09327
1.134
1.15794
1.17098
1.17763
1.18091
1.18248
1.18321
1.18355
1.1837
1.18377
1.1838
1.18381
1.18382
1.18382
1.18382
1.18382
1.18382
1.18382
1.18382
1.18382
0.658526
0.658502
0.65846
0.65839
0.658274
0.658081
0.657765
0.65725
0.656424
0.655115
0.653078
0.64997
0.645343
0.638645
0.629271
0.616657
0.600423
0.580532
0.55738
0.53178
0.5048
0.477551
0.450983
0.425785
0.402363
0.380888
0.361362
0.343682
0.32769
0.313211
0.300067
0.288098
0.277159
0.267128
0.257904
0.249395
0.241489
0.234111
0.227209
0.220738
0.214657
0.208936
0.203547
0.198466
0.193676
0.189161
0.184908
0.180908
0.177153
0.173637
0.170357
0.167313
0.164506
0.161941
0.159628
0.157581
0.155842
0.154449
0.153364
0.152701
0.15256
0.159752
0.170345
0.182824
0.1975
0.21478
0.23519
0.25941
0.288309
0.322988
0.364829
0.415656
0.477613
0.552435
0.640697
0.740448
0.845631
0.946062
1.03077
1.09327
1.134
1.15794
1.17098
1.17763
1.18091
1.18248
1.18321
1.18355
1.1837
1.18377
1.1838
1.18381
1.18382
1.18382
1.18382
1.18382
1.18382
1.18382
1.18382
1.18382
0.658526
0.658502
0.65846
0.65839
0.658274
0.658081
0.657764
0.65725
0.656423
0.655113
0.653075
0.649966
0.645337
0.638636
0.629259
0.616641
0.600403
0.580508
0.557353
0.531751
0.504771
0.477522
0.450956
0.42576
0.402341
0.380869
0.361346
0.343668
0.327679
0.313201
0.30006
0.288092
0.277154
0.267124
0.2579
0.249392
0.241487
0.234109
0.227208
0.220736
0.214656
0.208935
0.203546
0.198465
0.193675
0.189159
0.184906
0.180905
0.177148
0.17363
0.170349
0.167302
0.164492
0.161925
0.159609
0.15756
0.155819
0.154425
0.153342
0.152686
0.15256
0.159673
0.170234
0.182686
0.197336
0.214589
0.234969
0.259153
0.288008
0.322634
0.364408
0.415153
0.47701
0.551724
0.639884
0.739568
0.844758
0.94529
1.03017
1.09287
1.13375
1.1578
1.1709
1.17759
1.18089
1.18247
1.18321
1.18355
1.1837
1.18377
1.1838
1.18381
1.18382
1.18382
1.18382
1.18382
1.18382
1.18382
1.18382
1.18382
0.658526
0.658502
0.65846
0.65839
0.658274
0.658081
0.657764
0.657248
0.65642
0.65511
0.653069
0.649958
0.645324
0.638617
0.629233
0.616606
0.60036
0.580456
0.557295
0.531689
0.504708
0.477461
0.450899
0.425709
0.402296
0.38083
0.361312
0.34364
0.327655
0.313182
0.300044
0.288079
0.277144
0.267117
0.257895
0.249388
0.241484
0.234108
0.227208
0.220737
0.214658
0.208938
0.203549
0.198469
0.193678
0.189162
0.184908
0.180905
0.177147
0.173627
0.170343
0.167293
0.164481
0.16191
0.15959
0.157538
0.155794
0.1544
0.15332
0.152672
0.152561
0.159514
0.170027
0.182432
0.197033
0.214232
0.23455
0.25866
0.287424
0.321939
0.363575
0.414146
0.475794
0.550275
0.638213
0.737746
0.842933
0.94366
1.02889
1.09199
1.1332
1.1575
1.17074
1.17752
1.18085
1.18245
1.1832
1.18354
1.1837
1.18377
1.1838
1.18381
1.18382
1.18382
1.18382
1.18382
1.18382
1.18382
1.18382
1.18382
0.658526
0.658502
0.65846
0.65839
0.658273
0.65808
0.657762
0.657246
0.656417
0.655104
0.653061
0.649944
0.645304
0.638589
0.629193
0.616554
0.600294
0.580378
0.557207
0.531594
0.504612
0.477368
0.450812
0.42563
0.402225
0.380769
0.36126
0.343596
0.327619
0.313152
0.30002
0.28806
0.277129
0.267106
0.257887
0.249384
0.241482
0.234109
0.227211
0.220743
0.214665
0.208946
0.203559
0.198479
0.193689
0.189174
0.184919
0.180915
0.177155
0.173633
0.170347
0.167294
0.164478
0.161903
0.15958
0.157524
0.155778
0.154382
0.153304
0.152663
0.152565
0.159275
0.169725
0.182066
0.196599
0.213719
0.233945
0.257943
0.286571
0.320917
0.362344
0.412651
0.473979
0.548106
0.635702
0.734996
0.840163
0.94117
1.02693
1.09064
1.13238
1.15704
1.1705
1.1774
1.18079
1.18242
1.18319
1.18354
1.1837
1.18377
1.1838
1.18381
1.18382
1.18382
1.18382
1.18382
1.18382
1.18382
1.18382
1.18382
0.658526
0.658502
0.65846
0.65839
0.658273
0.658079
0.657761
0.657243
0.656412
0.655096
0.653049
0.649926
0.645277
0.63855
0.629139
0.616482
0.600203
0.580269
0.557084
0.531463
0.504478
0.477238
0.45069
0.425519
0.402127
0.380683
0.361187
0.343534
0.327567
0.313109
0.299986
0.288033
0.277109
0.267092
0.257878
0.24938
0.241482
0.234113
0.227218
0.220753
0.214678
0.208962
0.203576
0.198499
0.19371
0.189195
0.18494
0.180936
0.177176
0.173652
0.170363
0.167308
0.164488
0.16191
0.159583
0.157522
0.155773
0.154375
0.153297
0.152661
0.152573
0.158952
0.169326
0.181588
0.196031
0.213049
0.233151
0.257
0.285444
0.319564
0.360709
0.410662
0.471561
0.545208
0.632339
0.731299
0.836426
0.937797
1.02427
1.0888
1.13125
1.15641
1.17017
1.17723
1.18072
1.18239
1.18317
1.18353
1.18369
1.18377
1.1838
1.18381
1.18382
1.18382
1.18382
1.18382
1.18382
1.18382
1.18382
1.18382
0.658526
0.658501
0.658459
0.658389
0.658272
0.658078
0.657758
0.657239
0.656406
0.655087
0.653033
0.649902
0.645241
0.638499
0.629068
0.616388
0.600084
0.580127
0.556923
0.531291
0.504303
0.477067
0.450529
0.425372
0.401997
0.380569
0.361089
0.343451
0.327498
0.313052
0.299939
0.287997
0.277082
0.267072
0.257866
0.249374
0.241483
0.234119
0.227229
0.220769
0.214698
0.208986
0.203603
0.198528
0.193741
0.189227
0.184974
0.18097
0.177209
0.173685
0.170394
0.167336
0.164513
0.161931
0.1596
0.157536
0.155782
0.154381
0.153303
0.152669
0.152587
0.158541
0.168827
0.180992
0.195325
0.212214
0.232162
0.255823
0.284035
0.317868
0.358659
0.408165
0.46852
0.541561
0.628097
0.726624
0.831683
0.9335
1.02087
1.08644
1.1298
1.15559
1.16975
1.17702
1.18062
1.18234
1.18315
1.18352
1.18369
1.18376
1.1838
1.18381
1.18382
1.18382
1.18382
1.18382
1.18382
1.18382
1.18382
1.18382
0.658526
0.658501
0.658459
0.658389
0.658271
0.658076
0.657756
0.657235
0.656398
0.655074
0.653014
0.649873
0.645197
0.638435
0.628979
0.616269
0.599934
0.579947
0.556719
0.531072
0.504079
0.476848
0.450323
0.425184
0.401828
0.380421
0.360961
0.343342
0.327406
0.312976
0.299878
0.287948
0.277045
0.267046
0.257849
0.249365
0.241482
0.234125
0.227242
0.220788
0.214723
0.209016
0.203638
0.198566
0.193783
0.189272
0.18502
0.181017
0.177256
0.173731
0.170439
0.16738
0.164555
0.16197
0.159634
0.157566
0.155807
0.154403
0.153322
0.15269
0.152613
0.158037
0.168219
0.18027
0.194473
0.211206
0.230967
0.254399
0.282331
0.315816
0.356176
0.40514
0.464836
0.537138
0.622945
0.720933
0.825887
0.928223
1.01666
1.08352
1.128
1.15458
1.16922
1.17676
1.18049
1.18228
1.18312
1.18351
1.18368
1.18376
1.1838
1.18381
1.18382
1.18382
1.18382
1.18382
1.18382
1.18382
1.18382
1.18382
0.658526
0.658501
0.658459
0.658388
0.65827
0.658074
0.657752
0.657229
0.656389
0.65506
0.652991
0.649837
0.645143
0.638356
0.62887
0.616123
0.599749
0.579725
0.556467
0.5308
0.503801
0.476575
0.450064
0.424946
0.401615
0.380233
0.360797
0.343201
0.327287
0.312877
0.299796
0.287882
0.276993
0.267007
0.257823
0.24935
0.241477
0.234129
0.227255
0.220809
0.214751
0.209051
0.203679
0.198613
0.193834
0.189327
0.185078
0.181078
0.177318
0.173794
0.170501
0.16744
0.164612
0.162024
0.159685
0.157612
0.155848
0.15444
0.153357
0.152725
0.152652
0.157426
0.167493
0.179413
0.193463
0.210014
0.229554
0.252717
0.280315
0.313389
0.35324
0.401564
0.460479
0.531905
0.616843
0.714171
0.818971
0.921887
1.01158
1.07996
1.12579
1.15334
1.16857
1.17644
1.18033
1.18221
1.18309
1.18349
1.18368
1.18376
1.18379
1.18381
1.18382
1.18382
1.18382
1.18382
1.18382
1.18382
1.18382
1.18382
0.658526
0.658501
0.658459
0.658387
0.658268
0.658072
0.657748
0.657223
0.656378
0.655042
0.652963
0.649794
0.645078
0.638262
0.628738
0.615947
0.599525
0.579454
0.556158
0.530466
0.503458
0.476237
0.449743
0.424649
0.401347
0.379995
0.360589
0.343021
0.327133
0.312746
0.299687
0.287793
0.276922
0.266952
0.257783
0.249324
0.241463
0.234128
0.227264
0.220828
0.21478
0.209088
0.203724
0.198666
0.193893
0.189391
0.185147
0.181151
0.177394
0.173871
0.170579
0.167516
0.164687
0.162095
0.159753
0.157677
0.155908
0.154495
0.153408
0.152774
0.152704
0.156706
0.166644
0.178414
0.192288
0.208629
0.227914
0.250764
0.277976
0.310571
0.349832
0.397415
0.455425
0.525832
0.609748
0.706283
0.810857
0.9144
1.00552
1.07569
1.12313
1.15184
1.16778
1.17605
1.18015
1.18212
1.18305
1.18348
1.18367
1.18376
1.18379
1.18381
1.18382
1.18382
1.18382
1.18382
1.18382
1.18382
1.18382
1.18382
0.658526
0.658501
0.658458
0.658386
0.658267
0.658069
0.657744
0.657215
0.656365
0.655021
0.65293
0.649743
0.645002
0.63815
0.628581
0.615736
0.599256
0.57913
0.555786
0.530063
0.503041
0.475824
0.449349
0.424283
0.401014
0.379698
0.360327
0.342793
0.326935
0.312577
0.299544
0.287674
0.276824
0.266875
0.257724
0.249282
0.241437
0.234116
0.227266
0.220842
0.214806
0.209125
0.203771
0.198722
0.193958
0.189463
0.185226
0.181234
0.177481
0.173961
0.170671
0.167609
0.164778
0.162185
0.159839
0.157758
0.155983
0.154567
0.153477
0.152842
0.152775
0.155875
0.165672
0.177275
0.190949
0.207048
0.226039
0.248529
0.275299
0.30735
0.345938
0.392679
0.449655
0.518892
0.601623
0.697214
0.80147
0.905665
0.998394
1.07062
1.11995
1.15003
1.16683
1.17557
1.17992
1.18202
1.183
1.18345
1.18366
1.18375
1.18379
1.18381
1.18382
1.18382
1.18382
1.18382
1.18382
1.18382
1.18382
1.18382
0.658526
0.658501
0.658458
0.658385
0.658265
0.658066
0.657738
0.657206
0.656351
0.654997
0.652892
0.649684
0.644912
0.638019
0.628397
0.615488
0.598938
0.578744
0.555343
0.529579
0.502539
0.475324
0.448869
0.423835
0.400604
0.379329
0.359999
0.342504
0.326684
0.31236
0.299357
0.287515
0.276692
0.266767
0.257639
0.249217
0.241391
0.234087
0.227254
0.220846
0.214825
0.209157
0.203816
0.198778
0.194025
0.18954
0.185311
0.181327
0.177579
0.174064
0.170776
0.167715
0.164884
0.162289
0.15994
0.157855
0.156074
0.154653
0.15356
0.152926
0.152864
0.154963
0.164602
0.176016
0.189462
0.205285
0.22394
0.246019
0.272286
0.303716
0.341544
0.387338
0.443155
0.511066
0.592438
0.686915
0.790735
0.895583
0.990077
1.06465
1.11618
1.14788
1.16569
1.17501
1.17965
1.18189
1.18294
1.18343
1.18365
1.18375
1.18379
1.18381
1.18382
1.18382
1.18382
1.18382
1.18382
1.18382
1.18382
1.18382
0.658526
0.6585
0.658457
0.658384
0.658263
0.658062
0.657732
0.657196
0.656334
0.65497
0.652849
0.649616
0.644809
0.637868
0.628183
0.6152
0.598567
0.57829
0.554819
0.529005
0.501939
0.474725
0.44829
0.42329
0.400103
0.378875
0.359593
0.342144
0.326366
0.312082
0.299116
0.287308
0.276516
0.26662
0.257518
0.249121
0.241317
0.234035
0.227223
0.220833
0.21483
0.209179
0.203854
0.198831
0.194091
0.189618
0.1854
0.181425
0.177685
0.174175
0.170891
0.167832
0.165001
0.162403
0.160048
0.157955
0.156162
0.15473
0.153632
0.153002
0.152974
0.154055
0.163498
0.174683
0.18786
0.203363
0.221635
0.243249
0.268948
0.299683
0.336658
0.381397
0.435919
0.502342
0.582172
0.675348
0.778587
0.884054
0.980451
1.05766
1.11172
1.14532
1.16434
1.17434
1.17933
1.18174
1.18287
1.1834
1.18363
1.18374
1.18379
1.18381
1.18382
1.18382
1.18382
1.18382
1.18382
1.18382
1.18382
1.18382
0.658526
0.6585
0.658456
0.658383
0.658261
0.658059
0.657726
0.657185
0.656316
0.65494
0.652801
0.64954
0.644694
0.637697
0.62794
0.614868
0.598138
0.577763
0.554206
0.52833
0.501231
0.474011
0.447596
0.422633
0.399494
0.37832
0.359091
0.341695
0.325967
0.31173
0.298807
0.287039
0.276284
0.266421
0.257351
0.248984
0.241208
0.233952
0.227163
0.220797
0.214815
0.209184
0.203878
0.198874
0.19415
0.189693
0.185488
0.181525
0.177795
0.174292
0.171013
0.167957
0.165124
0.16252
0.160154
0.158043
0.156218
0.154748
0.153591
0.152873
0.152701
0.153258
0.162433
0.17333
0.186183
0.201312
0.219143
0.240231
0.265294
0.295254
0.331283
0.374857
0.427948
0.492718
0.570817
0.662491
0.764974
0.87099
0.969404
1.04954
1.10649
1.14231
1.16275
1.17355
1.17895
1.18156
1.18279
1.18336
1.18362
1.18373
1.18378
1.18381
1.18381
1.18382
1.18382
1.18382
1.18382
1.18382
1.18382
1.18382
0.658526
0.6585
0.658456
0.658382
0.658259
0.658055
0.657719
0.657173
0.656296
0.654908
0.652748
0.649458
0.644566
0.637507
0.627666
0.614493
0.597648
0.577158
0.553498
0.527544
0.5004
0.473169
0.446771
0.421848
0.398761
0.377645
0.358478
0.341142
0.325472
0.311288
0.298416
0.286694
0.275982
0.26616
0.257128
0.248796
0.241052
0.233826
0.227066
0.220728
0.214772
0.209166
0.203883
0.1989
0.194197
0.189758
0.18557
0.181622
0.177905
0.174413
0.171141
0.168088
0.165255
0.162646
0.16027
0.158139
0.156274
0.154754
0.153521
0.152683
0.152322
0.152572
0.161435
0.171985
0.184454
0.199151
0.216482
0.236981
0.261339
0.290447
0.325439
0.367748
0.419281
0.482235
0.558408
0.648361
0.749881
0.856328
0.956828
1.04017
1.1004
1.13878