/*--------------------------------*- C++ -*----------------------------------*\
  =========                 |
  \\      /  F ield         | OpenFOAM: The Open Source CFD Toolbox
   \\    /   O peration     | Website:  https://openfoam.org
    \\  /    A nd           | Version:  8
     \\/     M anipulation  |
\*---------------------------------------------------------------------------*/
FoamFile
{
    version     2.0;
    format      ascii;
    class       volScalarField;
    location    "960/fluid";
    object      T;
}
// * * * * * * * * * * * * * * * * * * * * * * * * * * * * * * * * * * * * * //

dimensions      [0 0 0 1 0 0 0];

internalField   nonuniform List<scalar> 
4000
(
293.004
293.017
293.039
293.076
293.138
293.241
293.41
293.687
294.134
294.85
295.979
297.728
300.387
304.337
310.05
318.064
328.931
343.141
361.035
382.749
408.201
437.129
469.16
503.885
540.915
579.917
620.619
662.815
706.347
751.093
796.954
843.837
891.648
940.283
989.618
1039.59
1090.22
1141.41
1193.08
1245.11
1297.4
1349.84
1402.32
1454.72
1506.91
1558.78
1610.19
1661
1711.06
1760.22
1808.31
1855.14
1900.47
1944.07
1985.61
2024.72
2060.92
2093.16
2120.82
2143.98
2160.49
2168.53
2157.58
2047.73
1930.8
1808.96
1683.97
1557.31
1430.27
1304.03
1179.68
1058.33
941.109
828.925
723.022
625.418
538.441
464.387
405.072
361.138
331.462
313.266
303.066
297.791
295.215
294
293.444
293.194
293.083
293.036
293.015
293.006
293.003
293.001
293
293
293
293
293
293
293.004
293.017
293.039
293.076
293.138
293.242
293.412
293.689
294.139
294.855
295.983
297.726
300.367
304.277
309.915
317.803
328.484
342.44
360.022
381.385
406.472
435.05
466.767
501.227
538.048
576.896
617.495
659.633
703.147
747.909
793.817
840.774
888.686
937.445
986.926
1037.05
1087.85
1139.24
1191.1
1243.34
1295.85
1348.51
1401.21
1453.84
1506.27
1558.36
1609.99
1661.03
1711.31
1760.68
1808.97
1855.99
1901.5
1945.26
1986.95
2026.2
2062.52
2094.85
2122.57
2145.78
2162.3
2170.24
2148.94
2037.96
1920.04
1797.27
1671.4
1543.91
1416.1
1289.14
1164.18
1042.35
924.833
812.573
707.005
610.321
524.939
453.137
396.528
355.347
328.008
311.455
302.223
297.427
295.067
293.943
293.422
293.186
293.081
293.035
293.015
293.006
293.003
293.001
293
293
293
293
293
293
293.004
293.017
293.039
293.077
293.139
293.242
293.413
293.692
294.142
294.859
295.986
297.723
300.35
304.229
309.81
317.605
328.143
341.902
359.23
380.29
405.042
433.27
464.642
498.781
535.314
573.913
614.308
656.284
699.678
744.363
790.232
837.191
885.144
933.981
983.579
1033.85
1084.82
1136.4
1188.49
1240.99
1293.77
1346.73
1399.74
1452.69
1505.45
1557.88
1609.86
1661.23
1711.85
1761.55
1810.16
1857.47
1903.27
1947.3
1989.24
2028.7
2065.2
2097.63
2125.41
2148.62
2165
2172.76
2133.35
2021.33
1902.31
1778.47
1651.61
1523.24
1394.71
1267.25
1142.03
1020.27
903.188
791.764
687.641
593.099
510.495
441.899
388.552
350.25
325.082
309.932
301.493
297.095
294.921
293.881
293.397
293.175
293.076
293.033
293.014
293.006
293.002
293.001
293
293
293
293
293
293
293.004
293.017
293.039
293.076
293.139
293.242
293.412
293.689
294.137
294.849
295.965
297.686
300.282
304.114
309.622
317.31
327.703
341.274
358.375
379.176
403.651
431.596
462.693
496.572
532.868
571.255
611.465
653.287
696.557
741.149
786.958
833.892
881.855
930.741
980.426
1030.81
1081.93
1133.7
1186.01
1238.75
1291.81
1345.07
1398.41
1451.7
1504.82
1557.64
1609.99
1661.74
1712.74
1762.81
1811.78
1859.44
1905.56
1949.88
1992.07
2031.76
2068.43
2100.88
2128.62
2151.73
2167.97
2175.36
2113.91
2001.04
1881.07
1756.29
1628.59
1499.55
1370.57
1242.93
1117.87
996.639
880.441
770.323
668.07
575.977
496.296
430.893
380.693
345.139
322.062
308.299
300.675
296.707
294.745
293.803
293.363
293.161
293.07
293.03
293.013
293.005
293.002
293.001
293
293
293
293
293
293
293.004
293.017
293.039
293.076
293.138
293.241
293.41
293.685
294.129
294.836
295.943
297.647
300.217
304.006
309.451
317.048
327.316
340.728
357.636
378.219
402.46
430.167
461.031
494.691
530.786
568.994
609.049
650.739
693.902
738.413
784.169
831.078
879.048
927.975
977.735
1028.23
1079.48
1131.42
1183.93
1236.9
1290.23
1343.78
1397.43
1451.07
1504.55
1557.72
1610.45
1662.58
1713.95
1764.39
1813.7
1861.69
1908.12
1952.7
1995.12
2034.98
2071.72
2104.04
2131.71
2154.69
2170.55
2177.12
2093.52
1979.96
1859.14
1733.51
1605.09
1475.53
1346.29
1218.69
1094.02
973.57
858.463
749.84
649.619
560.054
483.284
420.963
373.717
340.669
319.452
306.897
299.971
296.372
294.59
293.734
293.332
293.148
293.065
293.028
293.012
293.005
293.002
293.001
293
293
293
293
293
293
293.004
293.017
293.039
293.076
293.137
293.239
293.407
293.68
294.12
294.82
295.915
297.601
300.143
303.889
309.272
316.784
326.94
340.212
356.957
377.358
401.408
428.924
459.604
493.091
529.03
567.1
607.034
648.624
691.707
736.158
781.878
828.775
876.76
925.729
975.563
1026.15
1077.53
1129.63
1182.33
1235.52
1289.08
1342.91
1396.86
1450.81
1504.61
1558.13
1611.2
1663.68
1715.4
1766.17
1815.8
1864.07
1910.73
1955.52
1998.07
2037.97
2074.73
2106.94
2134.52
2157.25
2172.76
2178.72
2075.44
1960.91
1838.9
1712.2
1582.93
1452.83
1323.38
1195.92
1071.73
952.128
838.154
731.052
632.816
545.655
471.593
412.088
367.499
336.68
317.106
305.621
299.32
296.057
294.443
293.667
293.302
293.135
293.059
293.026
293.011
293.005
293.002
293.001
293
293
293
293
293
293
293.004
293.017
293.039
293.075
293.136
293.237
293.403
293.674
294.11
294.803
295.888
297.557
300.073
303.781
309.108
316.545
326.603
339.756
356.361
376.611
400.502
427.861
458.392
491.743
527.56
565.524
605.369
646.886
689.914
734.328
780.03
826.93
874.94
923.959
973.868
1024.56
1076.06
1128.3
1181.18
1234.57
1288.37
1342.44
1396.66
1450.89
1504.99
1558.81
1612.2
1664.99
1717
1768.06
1817.94
1866.43
1913.27
1958.15
2000.72
2040.55
2077.13
2108.73
2136.55
2158.55
2173.28
2178.54
2066.99
1947.45
1822.29
1693.56
1563.03
1432.22
1302.5
1175.16
1051.47
932.687
819.798
714.151
617.784
532.85
461.267
404.311
362.096
333.243
315.098
304.531
298.765
295.788
294.316
293.608
293.276
293.123
293.054
293.024
293.01
293.004
293.002
293.001
293
293
293
293
293
293
293.004
293.017
293.038
293.074
293.135
293.235
293.4
293.668
294.1
294.787
295.862
297.514
300.006
303.679
308.958
316.328
326.302
339.351
355.84
375.963
399.724
426.957
457.37
490.615
526.339
564.224
604.006
645.474
688.467
732.862
778.562
825.477
873.521
922.596
972.583
1023.37
1074.99
1127.37
1180.41
1233.98
1287.98
1342.28
1396.74
1451.22
1505.59
1559.68
1613.34
1666.4
1718.67
1769.97
1820.07
1868.74
1915.7
1960.64
2003.19
2042.86
2078.92
2109.87
2136.68
2156.97
2168.98
2169.85
2055.27
1933.25
1806.21
1676.15
1544.74
1413.45
1283.61
1156.48
1033.3
915.302
803.438
699.143
604.491
521.583
452.233
397.549
357.426
330.283
313.371
303.593
298.284
295.553
294.205
293.557
293.253
293.113
293.05
293.022
293.009
293.004
293.002
293.001
293
293
293
293
293
293
293.004
293.017
293.038
293.074
293.134
293.233
293.397
293.663
294.091
294.772
295.837
297.476
299.947
303.589
308.824
316.137
326.038
339.001
355.391
375.409
399.064
426.195
456.514
489.677
525.331
563.159
602.897
644.333
687.308
731.699
777.408
824.349
872.434
921.567
971.632
1022.51
1074.25
1126.76
1179.95
1233.69
1287.87
1342.37
1397.04
1451.74
1506.34
1560.67
1614.56
1667.85
1720.35
1771.84
1822.12
1870.93
1917.98
1962.96
2005.44
2044.94
2080.59
2111.04
2137.05
2156.06
2166.02
2159.55
2042.76
1919.08
1790.82
1659.91
1527.97
1396.43
1266.61
1139.76
1017.1
899.851
788.935
685.89
592.803
511.728
444.381
391.711
353.422
327.761
311.906
302.799
297.878
295.354
294.111
293.514
293.233
293.104
293.046
293.02
293.009
293.004
293.002
293.001
293
293
293
293
293
293
293.004
293.016
293.038
293.073
293.133
293.231
293.394
293.658
294.083
294.759
295.816
297.442
299.893
303.509
308.707
315.971
325.81
338.7
355.008
374.939
398.508
425.557
455.803
488.902
524.504
562.292
602.001
643.42
686.389
730.785
776.512
823.483
871.614
920.806
970.946
1021.92
1073.75
1126.38
1179.71
1233.6
1287.95
1342.62
1397.47
1452.37
1507.17
1561.7
1615.8
1669.28
1721.96
1773.62
1824.05
1872.98
1920.13
1965.16
2007.65
2047.12
2082.62
2112.95
2138.89
2157.99
2168.41
2147.7
2029.82
1905.27
1776.35
1644.98
1512.78
1381.19
1251.5
1124.97
1002.85
886.281
776.241
674.327
582.638
503.184
437.6
386.699
350.006
325.621
310.666
302.128
297.534
295.186
294.031
293.477
293.217
293.097
293.043
293.019
293.008
293.003
293.001
293.001
293
293
293
293
293
293
293.004
293.016
293.037
293.073
293.132
293.23
293.391
293.653
294.076
294.747
295.797
297.411
299.847
303.439
308.605
315.828
325.616
338.444
354.684
374.544
398.043
425.027
455.215
488.266
523.831
561.591
601.282
642.693
685.664
730.073
775.822
822.827
871.004
920.255
970.466
1021.52
1073.45
1126.19
1179.64
1233.66
1288.15
1342.97
1397.99
1453.06
1508.02
1562.72
1616.99
1670.64
1723.47
1775.28
1825.83
1874.86
1922.09
1967.17
2009.7
2049.17
2084.63
2114.92
2140.84
2159.94
2170.42
2135.86
2017.39
1892.35
1763.07
1631.46
1499.17
1367.62
1238.13
1111.95
990.336
874.418
765.175
664.278
573.834
495.818
431.784
382.421
347.106
323.814
309.624
301.565
297.246
295.045
293.964
293.446
293.202
293.091
293.04
293.017
293.007
293.003
293.001
293.001
293
293
293
293
293
293
293.004
293.016
293.037
293.072
293.131
293.229
293.389
293.65
294.069
294.736
295.78
297.386
299.807
303.38
308.519
315.707
325.451
338.229
354.413
374.215
397.658
424.59
454.734
487.749
523.286
561.028
600.709
642.119
685.097
729.522
775.296
822.336
870.557
919.863
970.139
1021.27
1073.29
1126.12
1179.67
1233.81
1288.42
1343.38
1398.53
1453.74
1508.85
1563.69
1618.1
1671.88
1724.83
1776.75
1827.4
1876.52
1923.81
1968.92
2011.45
2050.9
2086.32
2116.59
2142.48
2161.57
2172.08
2125.16
2006.21
1880.82
1751.29
1619.55
1487.23
1355.77
1226.5
1100.67
979.528
864.171
755.618
655.615
566.265
489.506
426.823
378.793
344.66
322.296
308.752
301.095
297.005
294.928
293.908
293.419
293.191
293.085
293.038
293.016
293.007
293.003
293.001
293.001
293
293
293
293
293
293
293.004
293.016
293.037
293.072
293.131
293.227
293.387
293.646
294.064
294.727
295.766
297.364
299.774
303.33
308.447
315.605
325.314
338.05
354.189
373.944
397.342
424.233
454.343
487.331
522.848
560.579
600.256
641.669
684.657
729.1
774.899
821.972
870.234
919.59
969.925
1021.12
1073.21
1126.13
1179.77
1234.01
1288.73
1343.79
1399.06
1454.39
1509.61
1564.57
1619.09
1672.98
1726.03
1778.04
1828.75
1877.93
1925.25
1970.37
2012.9
2052.34
2087.72
2117.93
2143.78
2162.84
2173.37
2115.99
1996.55
1870.81
1741.08
1609.25
1476.95
1345.6
1216.53
1091
970.26
855.39
747.439
648.217
559.816
484.145
422.626
375.737
342.609
321.029
308.026
300.705
296.806
294.83
293.861
293.398
293.181
293.081
293.036
293.016
293.007
293.003
293.001
293.001
293
293
293
293
293
293
293.004
293.016
293.037
293.072
293.13
293.226
293.385
293.643
294.059
294.72
295.754
297.345
299.746
303.288
308.387
315.522
325.201
337.903
354.005
373.723
397.085
423.945
454.028
486.996
522.5
560.224
599.9
641.318
684.319
728.778
774.602
821.705
870.005
919.405
969.791
1021.05
1073.2
1126.19
1179.91
1234.23
1289.04
1344.19
1399.55
1454.97
1510.29
1565.34
1619.95
1673.92
1727.04
1779.11
1829.87
1879.06
1926.4
1971.53
2014.05
2053.47
2088.78
2118.95
2144.76
2163.81
2174.39
2108.26
1988.35
1862.31
1732.4
1600.5
1468.2
1336.96
1208.07
1082.8
962.413
847.962
740.529
641.975
554.386
479.643
419.112
373.189
340.907
319.982
307.427
300.383
296.641
294.75
293.823
293.38
293.173
293.077
293.034
293.015
293.006
293.003
293.001
293
293
293
293
293
293
293
293.004
293.016
293.037
293.072
293.13
293.226
293.384
293.641
294.056
294.714
295.744
297.33
299.723
303.255
308.338
315.454
325.11
337.785
353.857
373.546
396.88
423.715
453.779
486.732
522.227
559.946
599.624
641.049
684.06
728.536
774.381
821.511
869.842
919.28
969.709
1021.01
1073.22
1126.27
1180.05
1234.44
1289.31
1344.54
1399.98
1455.47
1510.86
1565.99
1620.66
1674.68
1727.85
1779.95
1830.74
1879.95
1927.3
1972.42
2014.92
2054.3
2089.55
2119.67
2145.45
2164.53
2175.13
2101.93
1981.55
1855.22
1725.14
1593.16
1460.89
1329.73
1200.99
1075.96
955.874
841.777
734.784
636.791
549.883
475.917
416.213
371.093
339.511
319.126
306.939
300.122
296.508
294.684
293.792
293.366
293.166
293.074
293.033
293.014
293.006
293.003
293.001
293
293
293
293
293
293
293
293.004
293.016
293.037
293.071
293.129
293.225
293.383
293.639
294.053
294.709
295.737
297.318
299.705
303.228
308.3
315.4
325.037
337.691
353.741
373.406
396.719
423.535
453.584
486.527
522.015
559.733
599.413
640.844
683.865
728.356
774.219
821.371
869.728
919.196
969.659
1021
1073.25
1126.35
1180.18
1234.62
1289.55
1344.83
1400.32
1455.87
1511.32
1566.49
1621.2
1675.26
1728.46
1780.59
1831.4
1880.61
1927.94
1973.04
2015.5
2054.83
2090.03
2120.1
2145.87
2164.98
2175.64
2096.81
1975.99
1849.39
1719.17
1587.14
1454.88
1323.8
1195.21
1070.37
950.541
836.739
730.11
632.58
546.23
472.9
413.87
369.404
338.389
318.439
306.549
299.913
296.401
294.632
293.767
293.354
293.161
293.072
293.032
293.014
293.006
293.003
293.001
293
293
293
293
293
293
293
293.004
293.016
293.037
293.071
293.129
293.225
293.382
293.638
294.05
294.705
295.731
297.309
299.691
303.207
308.27
315.359
324.982
337.62
353.652
373.3
396.597
423.399
453.437
486.372
521.857
559.573
599.256
640.692
683.722
728.224
774.101
821.27
869.647
919.138
969.627
1021
1073.28
1126.41
1180.27
1234.75
1289.72
1345.04
1400.58
1456.16
1511.65
1566.85
1621.59
1675.68
1728.9
1781.03
1831.83
1881.04
1928.34
1973.4
2015.81
2055.09
2090.24
2120.28
2146.06
2165.22
2176
2092.8
1971.58
1844.74
1714.39
1582.33
1450.1
1319.09
1190.63
1065.95
946.332
832.77
726.434
629.273
543.368
470.541
412.043
368.089
337.517
317.905
306.246
299.75
296.319
294.592
293.748
293.345
293.157
293.07
293.031
293.013
293.006
293.002
293.001
293
293
293
293
293
293
293
293.004
293.016
293.036
293.071
293.129
293.224
293.381
293.637
294.048
294.703
295.726
297.302
299.68
303.192
308.248
315.328
324.942
337.568
353.588
373.223
396.508
423.301
453.331
486.261
521.743
559.46
599.144
640.585
683.621
728.131
774.018
821.2
869.591
919.098
969.604
1020.99
1073.3
1126.45
1180.34
1234.84
1289.84
1345.19
1400.74
1456.36
1511.86
1567.08
1621.84
1675.94
1729.16
1781.28
1832.07
1881.24
1928.51
1973.53
2015.89
2055.12
2090.23
2120.25
2146.04
2165.29
2176.23
2089.83
1968.24
1841.2
1710.75
1578.66
1446.46
1315.54
1187.17
1062.64
943.185
829.811
723.701
626.821
541.251
468.802
410.699
367.124
336.878
317.514
306.023
299.631
296.257
294.562
293.734
293.338
293.153
293.069
293.03
293.013
293.006
293.002
293.001
293
293
293
293
293
293
293
293.004
293.016
293.036
293.071
293.129
293.224
293.381
293.636
294.047
294.701
295.724
297.298
299.674
303.182
308.234
315.309
324.916
337.534
353.546
373.174
396.452
423.238
453.264
486.19
521.671
559.387
599.073
640.516
683.556
728.072
773.965
821.154
869.555
919.071
969.587
1020.99
1073.3
1126.47
1180.37
1234.89
1289.9
1345.26
1400.84
1456.46
1511.98
1567.21
1621.96
1676.05
1729.27
1781.38
1832.14
1881.28
1928.51
1973.48
2015.79
2054.98
2090.04
2120.04
2145.86
2165.21
2176.36
2087.87
1965.95
1838.73
1708.22
1576.12
1443.96
1313.1
1184.82
1060.4
941.068
827.829
721.88
625.194
539.852
467.657
409.818
366.495
336.463
317.261
305.878
299.553
296.218
294.542
293.724
293.334
293.152
293.068
293.03
293.013
293.006
293.002
293.001
293
293
293
293
293
293
293
293.004
293.016
293.036
293.071
293.128
293.224
293.381
293.636
294.047
294.7
295.722
297.296
299.671
303.177
308.227
315.3
324.903
337.518
353.527
373.15
396.425
423.208
453.231
486.156
521.636
559.352
599.039
640.483
683.526
728.043
773.94
821.133
869.537
919.057
969.578
1020.98
1073.3
1126.47
1180.38
1234.9
1289.92
1345.29
1400.87
1456.5
1512.01
1567.24
1621.99
1676.08
1729.28
1781.37
1832.11
1881.23
1928.42
1973.36
2015.63
2054.77
2089.8
2119.79
2145.63
2165.07
2176.42
2086.91
1964.73
1837.4
1706.85
1574.76
1442.64
1311.83
1183.62
1059.26
940.002
826.842
720.982
624.399
539.175
467.107
409.399
366.198
336.269
317.143
305.81
299.516
296.199
294.533
293.72
293.332
293.151
293.067
293.03
293.013
293.006
293.002
293.001
293
293
293
293
293
293
293
293.004
293.016
293.036
293.071
293.128
293.224
293.381
293.636
294.047
294.7
295.722
297.296
299.671
303.177
308.227
315.3
324.903
337.518
353.527
373.15
396.425
423.208
453.232
486.157
521.636
559.353
599.039
640.484
683.526
728.043
773.94
821.133
869.537
919.058
969.578
1020.98
1073.3
1126.47
1180.38
1234.91
1289.92
1345.29
1400.87
1456.5
1512.01
1567.24
1621.99
1676.08
1729.28
1781.37
1832.11
1881.23
1928.42
1973.36
2015.63
2054.77
2089.8
2119.79
2145.63
2165.07
2176.42
2086.91
1964.73
1837.4
1706.85
1574.77
1442.64
1311.83
1183.62
1059.26
940.003
826.843
720.983
624.4
539.175
467.107
409.399
366.199
336.269
317.143
305.811
299.517
296.199
294.533
293.72
293.332
293.151
293.067
293.03
293.013
293.006
293.002
293.001
293
293
293
293
293
293
293
293.004
293.016
293.036
293.071
293.129
293.224
293.381
293.636
294.047
294.701
295.724
297.298
299.674
303.182
308.234
315.309
324.916
337.534
353.546
373.174
396.452
423.239
453.264
486.191
521.671
559.387
599.073
640.517
683.557
728.072
773.966
821.155
869.555
919.072
969.588
1020.99
1073.3
1126.47
1180.37
1234.89
1289.9
1345.27
1400.84
1456.46
1511.98
1567.21
1621.97
1676.06
1729.27
1781.38
1832.14
1881.28
1928.51
1973.48
2015.79
2054.98
2090.04
2120.04
2145.86
2165.22
2176.36
2087.88
1965.96
1838.74
1708.22
1576.13
1443.96
1313.1
1184.83
1060.4
941.071
827.832
721.882
625.196
539.854
467.658
409.82
366.496
336.464
317.261
305.878
299.553
296.218
294.542
293.724
293.334
293.152
293.068
293.03
293.013
293.006
293.002
293.001
293
293
293
293
293
293
293
293.004
293.016
293.036
293.071
293.129
293.224
293.381
293.637
294.048
294.703
295.726
297.302
299.68
303.192
308.248
315.329
324.942
337.568
353.588
373.224
396.509
423.302
453.332
486.262
521.744
559.46
599.145
640.586
683.622
728.132
774.019
821.201
869.592
919.099
969.605
1020.99
1073.3
1126.45
1180.34
1234.84
1289.84
1345.19
1400.75
1456.36
1511.86
1567.09
1621.84
1675.94
1729.16
1781.29
1832.07
1881.25
1928.52
1973.53
2015.9
2055.13
2090.23
2120.25
2146.04
2165.29
2176.23
2089.84
1968.25
1841.2
1710.76
1578.67
1446.47
1315.54
1187.18
1062.64
943.19
829.816
723.706
626.825
541.255
468.804
410.701
367.126
336.879
317.515
306.023
299.631
296.258
294.562
293.734
293.338
293.153
293.069
293.03
293.013
293.006
293.002
293.001
293
293
293
293
293
293
293
293.004
293.016
293.037
293.071
293.129
293.225
293.382
293.638
294.05
294.705
295.731
297.309
299.691
303.207
308.27
315.359
324.982
337.62
353.652
373.3
396.597
423.4
453.438
486.373
521.858
559.574
599.257
640.693
683.723
728.225
774.102
821.271
869.649
919.14
969.629
1021
1073.28
1126.41
1180.27
1234.75
1289.72
1345.05
1400.58
1456.17
1511.65
1566.85
1621.59
1675.68
1728.9
1781.04
1831.84
1881.04
1928.34
1973.4
2015.82
2055.1
2090.25
2120.29
2146.06
2165.23
2176
2092.81
1971.59
1844.75
1714.4
1582.34
1450.1
1319.1
1190.63
1065.96
946.339
832.777
726.44
629.279
543.373
470.545
412.046
368.091
337.518
317.906
306.246
299.75
296.319
294.592
293.748
293.345
293.157
293.07
293.031
293.013
293.006
293.002
293.001
293
293
293
293
293
293
293
293.004
293.016
293.037
293.071
293.129
293.225
293.383
293.639
294.053
294.709
295.737
297.318
299.705
303.228
308.3
315.4
325.038
337.692
353.741
373.407
396.72
423.536
453.585
486.528
522.016
559.734
599.414
640.845
683.867
728.357
774.22
821.373
869.73
919.198
969.661
1021
1073.25
1126.35
1180.18
1234.62
1289.55
1344.83
1400.33
1455.88
1511.32
1566.49
1621.21
1675.27
1728.47
1780.59
1831.4
1880.62
1927.95
1973.05
2015.51
2054.84
2090.03
2120.11
2145.88
2164.99
2175.65
2096.82
1976
1849.4
1719.18
1587.15
1454.89
1323.81
1195.22
1070.38
950.551
836.748
730.118
632.587
546.237
472.905
413.874
369.407
338.391
318.44
306.55
299.913
296.402
294.632
293.767
293.354
293.161
293.072
293.032
293.014
293.006
293.003
293.001
293
293
293
293
293
293
293
293.004
293.016
293.037
293.072
293.13
293.226
293.384
293.641
294.056
294.714
295.745
297.33
299.723
303.255
308.339
315.454
325.11
337.785
353.858
373.546
396.881
423.716
453.78
486.733
522.228
559.948
599.625
641.051
684.062
728.538
774.383
821.514
869.845
919.283
969.711
1021.01
1073.22
1126.27
1180.05
1234.44
1289.32
1344.54
1399.98
1455.48
1510.87
1565.99
1620.66
1674.69
1727.86
1779.96
1830.75
1879.96
1927.31
1972.43
2014.93
2054.3
2089.56
2119.68
2145.46
2164.54
2175.14
2101.95
1981.57
1855.23
1725.15
1593.18
1460.9
1329.74
1201.01
1075.97
955.886
841.789
734.795
636.801
549.891
475.923
416.218
371.097
339.514
319.127
306.94
300.122
296.508
294.684
293.792
293.366
293.166
293.074
293.033
293.014
293.006
293.003
293.001
293
293
293
293
293
293
293
293.004
293.016
293.037
293.072
293.13
293.226
293.385
293.643
294.059
294.72
295.754
297.345
299.746
303.289
308.387
315.522
325.202
337.904
354.006
373.724
397.086
423.946
454.03
486.998
522.502
560.225
599.902
641.321
684.321
728.781
774.605
821.708
870.008
919.408
969.794
1021.05
1073.21
1126.2
1179.91
1234.24
1289.04
1344.19
1399.56
1454.98
1510.3
1565.35
1619.96
1673.92
1727.05
1779.12
1829.88
1879.07
1926.41
1971.54
2014.06
2053.48
2088.8
2118.96
2144.77
2163.82
2174.4
2108.28
1988.37
1862.33
1732.42
1600.51
1468.22
1336.97
1208.08
1082.81
962.428
847.976
740.542
641.986
554.396
479.651
419.119
373.194
340.91
319.984
307.428
300.384
296.642
294.75
293.823
293.38
293.173
293.077
293.034
293.015
293.006
293.003
293.001
293
293
293
293
293
293
293
293.004
293.016
293.037
293.072
293.131
293.227
293.387
293.646
294.064
294.727
295.766
297.364
299.774
303.33
308.447
315.606
325.315
338.051
354.189
373.945
397.343
424.235
454.344
487.332
522.85
560.581
600.258
641.671
684.66
729.103
774.902
821.976
870.238
919.594
969.929
1021.13
1073.22
1126.14
1179.78
1234.02
1288.74
1343.8
1399.07
1454.4
1509.62
1564.58
1619.1
1672.99
1726.04
1778.05
1828.77
1877.94
1925.26
1970.38
2012.91
2052.36
2087.73
2117.95
2143.8
2162.86
2173.39
2116.01
1996.57
1870.84
1741.1
1609.27
1476.97
1345.62
1216.55
1091.02
970.278
855.406
747.454
648.23
559.827
484.154
422.633
375.742
342.613
321.032
308.027
300.705
296.806
294.83
293.861
293.398
293.181
293.081
293.036
293.016
293.007
293.003
293.001
293.001
293
293
293
293
293
293
293.004
293.016
293.037
293.072
293.131
293.229
293.389
293.65
294.069
294.736
295.78
297.386
299.808
303.38
308.52
315.707
325.452
338.23
354.414
374.216
397.659
424.591
454.736
487.751
523.288
561.03
600.712
642.122
685.1
729.525
775.3
822.34
870.561
919.867
970.144
1021.27
1073.29
1126.13
1179.68
1233.82
1288.43
1343.38
1398.54
1453.75
1508.86
1563.7
1618.11
1671.89
1724.85
1776.77
1827.42
1876.53
1923.82
1968.94
2011.47
2050.92
2086.34
2116.61
2142.5
2161.6
2172.11
2125.19
2006.24
1880.84
1751.31
1619.57
1487.25
1355.8
1226.53
1100.69
979.547
864.189
755.635
655.63
566.278
489.517
426.832
378.799
344.664
322.299
308.753
301.096
297.006
294.928
293.908
293.42
293.191
293.085
293.038
293.016
293.007
293.003
293.001
293.001
293
293
293
293
293
293
293.004
293.016
293.037
293.073
293.132
293.23
293.391
293.653
294.076
294.747
295.797
297.412
299.847
303.44
308.606
315.828
325.616
338.445
354.685
374.545
398.044
425.028
455.217
488.269
523.833
561.594
601.285
642.696
685.667
730.076
775.826
822.832
871.008
920.26
970.471
1021.53
1073.46
1126.2
1179.64
1233.67
1288.16
1342.98
1398
1453.07
1508.03
1562.74
1617
1670.65
1723.48
1775.29
1825.84
1874.88
1922.11
1967.19
2009.72
2049.19
2084.65
2114.95
2140.87
2159.98
2170.45
2135.89
2017.43
1892.39
1763.1
1631.5
1499.2
1367.65
1238.16
1111.97
990.357
874.438
765.194
664.295
573.849
495.83
431.794
382.428
347.111
323.817
309.626
301.566
297.246
295.046
293.964
293.446
293.202
293.091
293.04
293.017
293.007
293.003
293.001
293.001
293
293
293
293
293
293
293.004
293.016
293.038
293.073
293.133
293.231
293.394
293.658
294.083
294.759
295.816
297.442
299.894
303.509
308.707
315.971
325.811
338.701
355.009
374.94
398.509
425.559
455.805
488.905
524.507
562.295
602.004
643.423
686.393
730.789
776.516
823.488
871.619
920.812
970.952
1021.92
1073.76
1126.39
1179.72
1233.61
1287.96
1342.63
1397.48
1452.39
1507.18
1561.71
1615.81
1669.3
1721.98
1773.64
1824.07
1873
1920.15
1965.18
2007.68
2047.15
2082.66
2112.99
2138.93
2158.03
2168.46
2147.74
2029.86
1905.3
1776.37
1645
1512.8
1381.21
1251.53
1125
1002.87
886.302
776.261
674.345
582.654
503.198
437.611
386.707
350.011
325.624
310.668
302.129
297.535
295.187
294.031
293.477
293.217
293.097
293.043
293.019
293.008
293.003
293.001
293.001
293
293
293
293
293
293
293.004
293.017
293.038
293.074
293.134
293.233
293.397
293.663
294.091
294.772
295.838
297.476
299.947
303.589
308.824
316.138
326.039
339.002
355.392
375.41
399.066
426.197
456.517
489.679
525.334
563.163
602.9
644.337
687.313
731.704
777.413
824.354
872.44
921.573
971.638
1022.52
1074.25
1126.77
1179.95
1233.7
1287.88
1342.38
1397.05
1451.76
1506.35
1560.68
1614.58
1667.87
1720.36
1771.86
1822.14
1870.95
1918.01
1962.98
2005.47
2044.98
2080.63
2111.09
2137.09
2156.12
2166.08
2159.58
2042.8
1919.12
1790.86
1659.95
1528.01
1396.47
1266.66
1139.8
1017.14
899.883
788.959
685.91
592.821
511.742
444.393
391.72
353.428
327.765
311.908
302.8
297.878
295.355
294.111
293.514
293.233
293.104
293.046
293.02
293.009
293.004
293.002
293.001
293
293
293
293
293
293
293.004
293.017
293.038
293.074
293.135
293.235
293.4
293.668
294.1
294.787
295.862
297.515
300.007
303.68
308.958
316.329
326.303
339.353
355.841
375.964
399.727
426.959
457.373
490.618
526.342
564.228
604.01
645.478
688.471
732.867
778.567
825.483
873.528
922.602
972.59
1023.38
1075
1127.38
1180.42
1233.99
1288
1342.29
1396.75
1451.24
1505.6
1559.7
1613.36
1666.42
1718.69
1769.99
1820.09
1868.76
1915.73
1960.67
2003.22
2042.89
2078.96
2109.91
2136.71
2157.01
2169.02
2169.89
2055.3
1933.28
1806.24
1676.18
1544.77
1413.48
1283.64
1156.51
1033.32
915.328
803.463
699.166
604.511
521.6
452.247
397.559
357.433
330.287
313.373
303.594
298.285
295.553
294.205
293.557
293.253
293.113
293.05
293.022
293.009
293.004
293.002
293.001
293
293
293
293
293
293
293.004
293.017
293.039
293.075
293.136
293.237
293.403
293.674
294.11
294.803
295.888
297.557
300.073
303.781
309.109
316.546
326.604
339.757
356.363
376.612
400.504
427.863
458.395
491.746
527.563
565.528
605.374
646.891
689.919
734.333
780.035
826.936
874.946
923.965
973.876
1024.57
1076.07
1128.31
1181.19
1234.58
1288.37
1342.45
1396.67
1450.9
1505
1558.82
1612.21
1665
1717.02
1768.08
1817.96
1866.46
1913.3
1958.18
2000.75
2040.58
2077.16
2108.76
2136.59
2158.58
2173.31
2178.57
2067.02
1947.47
1822.32
1693.59
1563.06
1432.25
1302.53
1175.19
1051.5
932.714
819.826
714.178
617.806
532.868
461.281
404.322
362.104
333.247
315.101
304.533
298.766
295.788
294.316
293.609
293.276
293.123
293.054
293.024
293.01
293.004
293.002
293.001
293
293
293
293
293
293
293.004
293.017
293.039
293.076
293.137
293.239
293.407
293.68
294.12
294.82
295.915
297.601
300.143
303.89
309.272
316.784
326.941
340.213
356.958
377.36
401.411
428.926
459.607
493.095
529.034
567.104
607.039
648.629
691.712
736.164
781.884
828.782
876.767
925.736
975.571
1026.16
1077.54
1129.64
1182.34
1235.53
1289.1
1342.92
1396.88
1450.83
1504.63
1558.14
1611.22
1663.7
1715.42
1766.19
1815.82
1864.09
1910.76
1955.54
1998.1
2038
2074.76
2106.96
2134.54
2157.27
2172.79
2178.74
2075.47
1960.93
1838.93
1712.22
1582.96
1452.86
1323.4
1195.94
1071.76
952.148
838.172
731.07
632.834
545.671
471.607
412.099
367.506
336.685
317.11
305.622
299.321
296.058
294.443
293.667
293.302
293.135
293.059
293.026
293.011
293.005
293.002
293.001
293
293
293
293
293
293
293.004
293.017
293.039
293.076
293.138
293.241
293.41
293.685
294.13
294.836
295.943
297.647
300.217
304.007
309.451
317.049
327.317
340.729
357.638
378.221
402.462
430.17
461.034
494.695
530.79
568.999
609.054
650.744
693.908
738.419
784.175
831.085
879.056
927.982
977.743
1028.23
1079.49
1131.43
1183.94
1236.91
1290.24
1343.79
1397.45
1451.08
1504.56
1557.73
1610.46
1662.59
1713.96
1764.4
1813.72
1861.71
1908.13
1952.72
1995.14
2034.99
2071.74
2104.06
2131.73
2154.71
2170.57
2177.13
2093.54
1979.98
1859.16
1733.54
1605.11
1475.55
1346.31
1218.72
1094.05
973.591
858.483
749.859
649.637
560.07
483.297
420.973
373.725
340.675
319.455
306.899
299.972
296.373
294.59
293.734
293.332
293.148
293.065
293.028
293.012
293.005
293.002
293.001
293
293
293
293
293
293
293.004
293.017
293.039
293.076
293.139
293.242
293.412
293.689
294.137
294.849
295.966
297.686
300.283
304.114
309.622
317.311
327.704
341.276
358.377
379.179
403.654
431.6
462.697
496.576
532.872
571.26
611.47
653.292
696.563
741.155
786.965
833.899
881.863
930.749
980.435
1030.82
1081.94
1133.71
1186.02
1238.76
1291.82
1345.08
1398.42
1451.72
1504.84
1557.65
1610.01
1661.76
1712.75
1762.83
1811.79
1859.45
1905.57
1949.89
1992.09
2031.77
2068.44
2100.9
2128.63
2151.74
2167.98
2175.37
2113.93
2001.06
1881.09
1756.31
1628.61
1499.57
1370.59
1242.95
1117.89
996.659
880.461
770.342
668.088
575.993
496.31
430.904
380.702
345.144
322.066
308.301
300.676
296.708
294.745
293.803
293.363
293.161
293.07
293.03
293.013
293.005
293.002
293.001
293
293
293
293
293
293
293.004
293.017
293.039
293.077
293.139
293.242
293.413
293.692
294.142
294.859
295.986
297.723
300.35
304.229
309.81
317.606
328.144
341.904
359.232
380.292
405.044
433.273
464.646
498.785
535.319
573.918
614.313
656.29
699.685
744.369
790.239
837.199
885.151
933.989
983.587
1033.86
1084.83
1136.41
1188.5
1241
1293.78
1346.74
1399.75
1452.7
1505.46
1557.9
1609.87
1661.25
1711.86
1761.56
1810.17
1857.49
1903.29
1947.31
1989.25
2028.71
2065.21
2097.64
2125.42
2148.63
2165.01
2172.76
2133.37
2021.35
1902.33
1778.49
1651.63
1523.26
1394.73
1267.27
1142.05
1020.29
903.207
791.783
687.659
593.116
510.509
441.911
388.561
350.256
325.086
309.934
301.494
297.095
294.922
293.882
293.397
293.175
293.076
293.033
293.014
293.006
293.002
293.001
293
293
293
293
293
293
293.004
293.017
293.039
293.076
293.138
293.242
293.412
293.689
294.139
294.856
295.983
297.726
300.367
304.278
309.915
317.804
328.485
342.442
360.024
381.387
406.476
435.054
466.771
501.232
538.053
576.901
617.501
659.639
703.153
747.916
793.824
840.782
888.694
937.453
986.934
1037.06
1087.86
1139.25