/*--------------------------------*- C++ -*----------------------------------*\
  =========                 |
  \\      /  F ield         | OpenFOAM: The Open Source CFD Toolbox
   \\    /   O peration     | Website:  https://openfoam.org
    \\  /    A nd           | Version:  8
     \\/     M anipulation  |
\*---------------------------------------------------------------------------*/
FoamFile
{
    version     2.0;
    format      ascii;
    class       volVectorField;
    location    "960/fluid";
    object      U;
}
// * * * * * * * * * * * * * * * * * * * * * * * * * * * * * * * * * * * * * //

dimensions      [0 1 -1 0 0 0 0];

internalField   nonuniform List<vector> 
4000
(
(0.0999452 -0.00706236 0)
(0.0996474 -0.0210147 0)
(0.0991668 -0.0348532 0)
(0.0985029 -0.0486152 0)
(0.0976476 -0.0623191 0)
(0.096583 -0.075967 0)
(0.0952884 -0.0895479 0)
(0.0937442 -0.103041 0)
(0.0919349 -0.116421 0)
(0.0898517 -0.129656 0)
(0.0874964 -0.14272 0)
(0.0848845 -0.155593 0)
(0.08205 -0.168265 0)
(0.0790523 -0.180722 0)
(0.07597 -0.193011 0)
(0.0728756 -0.205201 0)
(0.0698197 -0.217353 0)
(0.0668197 -0.229509 0)
(0.0638513 -0.241681 0)
(0.0608504 -0.253842 0)
(0.0577245 -0.265929 0)
(0.0543727 -0.277851 0)
(0.0507054 -0.2895 0)
(0.0466664 -0.300745 0)
(0.042231 -0.311493 0)
(0.0373919 -0.321681 0)
(0.0321556 -0.331244 0)
(0.0265399 -0.340125 0)
(0.0205711 -0.348276 0)
(0.014281 -0.355663 0)
(0.00770366 -0.362262 0)
(0.000875145 -0.368061 0)
(-0.00616714 -0.373056 0)
(-0.0133868 -0.377252 0)
(-0.0207508 -0.380664 0)
(-0.028229 -0.38331 0)
(-0.0357939 -0.385216 0)
(-0.0434194 -0.386413 0)
(-0.0510806 -0.386936 0)
(-0.0587541 -0.386824 0)
(-0.0664179 -0.38612 0)
(-0.0740512 -0.384868 0)
(-0.0816339 -0.383115 0)
(-0.0891471 -0.380907 0)
(-0.0965724 -0.378295 0)
(-0.103892 -0.375327 0)
(-0.111087 -0.372055 0)
(-0.118141 -0.368529 0)
(-0.125036 -0.364803 0)
(-0.131753 -0.360928 0)
(-0.138274 -0.356959 0)
(-0.144579 -0.352953 0)
(-0.150648 -0.348967 0)
(-0.156457 -0.345063 0)
(-0.161984 -0.341308 0)
(-0.167198 -0.337776 0)
(-0.172061 -0.334548 0)
(-0.17652 -0.331712 0)
(-0.18055 -0.329366 0)
(-0.184187 -0.327665 0)
(-0.187499 -0.326886 0)
(-0.189877 -0.327382 0)
(-0.189221 -0.329007 0)
(-0.184339 -0.330021 0)
(-0.177288 -0.329319 0)
(-0.169803 -0.327023 0)
(-0.162087 -0.323422 0)
(-0.154077 -0.318662 0)
(-0.145794 -0.312801 0)
(-0.137308 -0.305874 0)
(-0.128698 -0.297913 0)
(-0.120049 -0.28895 0)
(-0.111449 -0.279027 0)
(-0.102992 -0.268189 0)
(-0.0948233 -0.256495 0)
(-0.0871859 -0.244057 0)
(-0.0804069 -0.231071 0)
(-0.0748549 -0.217818 0)
(-0.0709061 -0.20486 0)
(-0.0688579 -0.19271 0)
(-0.0687466 -0.181613 0)
(-0.0702758 -0.171484 0)
(-0.0729321 -0.162017 0)
(-0.0761775 -0.152878 0)
(-0.0795831 -0.143825 0)
(-0.0828665 -0.134712 0)
(-0.0858548 -0.125443 0)
(-0.0884799 -0.116059 0)
(-0.0907394 -0.106611 0)
(-0.092658 -0.097131 0)
(-0.0942692 -0.0876498 0)
(-0.0956083 -0.0781949 0)
(-0.0967094 -0.0687872 0)
(-0.097604 -0.0594408 0)
(-0.0983207 -0.0501628 0)
(-0.0988848 -0.0409531 0)
(-0.0993182 -0.0318041 0)
(-0.099638 -0.0227011 0)
(-0.0998559 -0.013624 0)
(-0.0999821 -0.00454891 0)
(0.0999999 -0.00662238 0)
(0.0997931 -0.019809 0)
(0.0993656 -0.0329105 0)
(0.0986932 -0.0459079 0)
(0.0977773 -0.0587826 0)
(0.0966136 -0.0715116 0)
(0.0951926 -0.0840666 0)
(0.0935064 -0.0964156 0)
(0.0915527 -0.108526 0)
(0.0893387 -0.120368 0)
(0.086884 -0.131921 0)
(0.084223 -0.143185 0)
(0.0814063 -0.154189 0)
(0.0785008 -0.165018 0)
(0.0755797 -0.175732 0)
(0.0727094 -0.186389 0)
(0.0699363 -0.197065 0)
(0.0672722 -0.207828 0)
(0.0646865 -0.218718 0)
(0.0621059 -0.229732 0)
(0.0594265 -0.240826 0)
(0.0565329 -0.25192 0)
(0.0533189 -0.262918 0)
(0.0497025 -0.273741 0)
(0.0456361 -0.284269 0)
(0.0411015 -0.29437 0)
(0.0361017 -0.303942 0)
(0.0306568 -0.312904 0)
(0.0247985 -0.321201 0)
(0.0185652 -0.32879 0)
(0.0119981 -0.335645 0)
(0.00513883 -0.341751 0)
(-0.00197162 -0.347101 0)
(-0.00929367 -0.351701 0)
(-0.0167899 -0.355563 0)
(-0.0244255 -0.358705 0)
(-0.032169 -0.361151 0)
(-0.0399916 -0.362929 0)
(-0.0478663 -0.36407 0)
(-0.0557682 -0.36461 0)
(-0.0636738 -0.364588 0)
(-0.0715611 -0.364043 0)
(-0.0794097 -0.363018 0)
(-0.0871998 -0.361558 0)
(-0.094913 -0.359707 0)
(-0.102531 -0.357513 0)
(-0.110038 -0.355022 0)
(-0.117415 -0.352283 0)
(-0.124645 -0.349343 0)
(-0.131714 -0.346254 0)
(-0.138603 -0.343064 0)
(-0.145296 -0.339825 0)
(-0.151776 -0.33659 0)
(-0.158025 -0.333411 0)
(-0.164025 -0.330344 0)
(-0.169757 -0.327444 0)
(-0.175186 -0.324768 0)
(-0.180271 -0.32237 0)
(-0.185012 -0.320299 0)
(-0.18951 -0.318608 0)
(-0.193874 -0.317349 0)
(-0.197154 -0.316511 0)
(-0.196718 -0.3156 0)
(-0.191403 -0.31402 0)
(-0.183845 -0.311559 0)
(-0.175984 -0.308108 0)
(-0.167984 -0.303621 0)
(-0.159715 -0.298071 0)
(-0.151162 -0.291443 0)
(-0.142376 -0.28373 0)
(-0.133416 -0.274931 0)
(-0.124348 -0.26506 0)
(-0.115235 -0.254159 0)
(-0.106149 -0.242306 0)
(-0.0972391 -0.229655 0)
(-0.0887811 -0.216488 0)
(-0.081168 -0.203257 0)
(-0.0748613 -0.190593 0)
(-0.070318 -0.178914 0)
(-0.0678316 -0.168495 0)
(-0.0673777 -0.15935 0)
(-0.0686019 -0.151211 0)
(-0.0709744 -0.14367 0)
(-0.0739781 -0.136364 0)
(-0.0772144 -0.129057 0)
(-0.0804229 -0.121641 0)
(-0.0834606 -0.114107 0)
(-0.0862417 -0.106371 0)
(-0.0887305 -0.0984061 0)
(-0.0909209 -0.0902428 0)
(-0.0928208 -0.081921 0)
(-0.0944465 -0.0734791 0)
(-0.0958181 -0.0649504 0)
(-0.0969578 -0.0563623 0)
(-0.0978876 -0.047736 0)
(-0.0986284 -0.0390867 0)
(-0.0991979 -0.0304228 0)
(-0.0996079 -0.0217466 0)
(-0.0998665 -0.0130575 0)
(-0.0999951 -0.00435531 0)
(0.0999786 -0.00634244 0)
(0.0997134 -0.0189592 0)
(0.0991938 -0.0314882 0)
(0.0984009 -0.043908 0)
(0.0973387 -0.0561962 0)
(0.096008 -0.0683292 0)
(0.0944084 -0.0802818 0)
(0.0925426 -0.0920287 0)
(0.0904212 -0.103547 0)
(0.0880641 -0.114817 0)
(0.0855038 -0.125828 0)
(0.0827862 -0.136582 0)
(0.07997 -0.147093 0)
(0.0771198 -0.157394 0)
(0.0743011 -0.16754 0)
(0.071576 -0.177605 0)
(0.0689895 -0.187668 0)
(0.0665542 -0.197801 0)
(0.06424 -0.208049 0)
(0.0619736 -0.218419 0)
(0.0596503 -0.228875 0)
(0.0571518 -0.239347 0)
(0.0543649 -0.249741 0)
(0.0511936 -0.259954 0)
(0.0475678 -0.269888 0)
(0.0434501 -0.279448 0)
(0.0388326 -0.288555 0)
(0.0337293 -0.297137 0)
(0.0281683 -0.305138 0)
(0.0221862 -0.312515 0)
(0.0158237 -0.319235 0)
(0.00912285 -0.325279 0)
(0.0021254 -0.330636 0)
(-0.00512789 -0.335305 0)
(-0.0125983 -0.339291 0)
(-0.0202499 -0.342609 0)
(-0.0280495 -0.345277 0)
(-0.0359669 -0.347318 0)
(-0.0439741 -0.348761 0)
(-0.052045 -0.349636 0)
(-0.0601552 -0.349978 0)
(-0.0682822 -0.349822 0)
(-0.0764046 -0.349208 0)
(-0.0845028 -0.348175 0)
(-0.092558 -0.346765 0)
(-0.100553 -0.345021 0)
(-0.108471 -0.342986 0)
(-0.116295 -0.340704 0)
(-0.124012 -0.338219 0)
(-0.131607 -0.335576 0)
(-0.139066 -0.332818 0)
(-0.146377 -0.329992 0)
(-0.153527 -0.32714 0)
(-0.160506 -0.324306 0)
(-0.167301 -0.321532 0)
(-0.173899 -0.318858 0)
(-0.18027 -0.316317 0)
(-0.186375 -0.313937 0)
(-0.192229 -0.311736 0)
(-0.197946 -0.309729 0)
(-0.203516 -0.307921 0)
(-0.207424 -0.30625 0)
(-0.206717 -0.304087 0)
(-0.200796 -0.301151 0)
(-0.192738 -0.297527 0)
(-0.184324 -0.293132 0)
(-0.175702 -0.287868 0)
(-0.166769 -0.281672 0)
(-0.157523 -0.274514 0)
(-0.148008 -0.26639 0)
(-0.138278 -0.257318 0)
(-0.128391 -0.247348 0)
(-0.118408 -0.236565 0)
(-0.108414 -0.225105 0)
(-0.0986011 -0.213169 0)
(-0.0893102 -0.201045 0)
(-0.0810032 -0.189098 0)
(-0.0742081 -0.177733 0)
(-0.0693893 -0.16732 0)
(-0.0667706 -0.158069 0)
(-0.0662314 -0.14993 0)
(-0.0673558 -0.142618 0)
(-0.0696034 -0.135763 0)
(-0.0724745 -0.129047 0)
(-0.0755923 -0.122263 0)
(-0.0787148 -0.115308 0)
(-0.0817105 -0.108148 0)
(-0.0845127 -0.100793 0)
(-0.0870837 -0.0932635 0)
(-0.0894049 -0.0855783 0)
(-0.0914713 -0.0777584 0)
(-0.0932863 -0.0698248 0)
(-0.0948581 -0.0617974 0)
(-0.0961975 -0.0536941 0)
(-0.097317 -0.0455308 0)
(-0.0982291 -0.0373206 0)
(-0.098945 -0.0290731 0)
(-0.0994713 -0.0207943 0)
(-0.099812 -0.01249 0)
(-0.0999872 -0.00416684 0)
(0.0999835 -0.00598714 0)
(0.099714 -0.0178971 0)
(0.0991772 -0.0297148 0)
(0.0983536 -0.0414119 0)
(0.0972517 -0.0529616 0)
(0.0958785 -0.0643367 0)
(0.0942393 -0.0755102 0)
(0.0923426 -0.0864564 0)
(0.0902032 -0.0971529 0)
(0.0878441 -0.107583 0)
(0.0852982 -0.117739 0)
(0.08261 -0.127626 0)
(0.0798358 -0.137267 0)
(0.0770419 -0.146705 0)
(0.0742987 -0.156002 0)
(0.0716713 -0.165235 0)
(0.0692049 -0.174487 0)
(0.0669112 -0.183833 0)
(0.0647589 -0.193321 0)
(0.062673 -0.202964 0)
(0.0605464 -0.212733 0)
(0.0582571 -0.222566 0)
(0.0556882 -0.232379 0)
(0.0527429 -0.242073 0)
(0.049352 -0.251551 0)
(0.0454754 -0.26072 0)
(0.0410994 -0.269498 0)
(0.0362304 -0.277816 0)
(0.0308897 -0.285615 0)
(0.0251078 -0.292854 0)
(0.0189203 -0.299499 0)
(0.0123653 -0.305529 0)
(0.00548138 -0.31093 0)
(-0.00169328 -0.3157 0)
(-0.00912159 -0.319842 0)
(-0.0167686 -0.323365 0)
(-0.024602 -0.326285 0)
(-0.0325921 -0.328621 0)
(-0.0407115 -0.330398 0)
(-0.0489344 -0.33164 0)
(-0.0572369 -0.33238 0)
(-0.0655967 -0.332647 0)
(-0.0739929 -0.332477 0)
(-0.0824063 -0.331904 0)
(-0.0908189 -0.330966 0)
(-0.0992135 -0.329699 0)
(-0.107574 -0.328142 0)
(-0.115885 -0.326333 0)
(-0.124134 -0.32431 0)
(-0.132308 -0.32211 0)
(-0.140393 -0.319772 0)
(-0.14838 -0.31733 0)
(-0.156255 -0.314819 0)
(-0.16401 -0.31227 0)
(-0.171631 -0.309711 0)
(-0.179102 -0.307166 0)
(-0.186382 -0.304651 0)
(-0.193425 -0.302173 0)
(-0.200251 -0.29973 0)
(-0.20698 -0.297324 0)
(-0.21344 -0.294948 0)
(-0.21748 -0.292545 0)
(-0.216061 -0.289393 0)
(-0.209435 -0.285433 0)
(-0.200933 -0.280857 0)
(-0.191993 -0.275625 0)
(-0.182708 -0.269643 0)
(-0.173025 -0.262851 0)
(-0.162976 -0.255223 0)
(-0.152627 -0.246763 0)
(-0.14205 -0.237499 0)
(-0.131323 -0.227494 0)
(-0.120527 -0.216847 0)
(-0.109792 -0.2057 0)
(-0.0993676 -0.194263 0)
(-0.0896465 -0.182819 0)
(-0.0811135 -0.171716 0)
(-0.0742681 -0.161329 0)
(-0.0695022 -0.151969 0)
(-0.0669563 -0.143773 0)
(-0.0664455 -0.136634 0)
(-0.0675306 -0.130254 0)
(-0.0696847 -0.124277 0)
(-0.0724381 -0.118411 0)
(-0.0754411 -0.112469 0)
(-0.0784664 -0.106353 0)
(-0.0813826 -0.100022 0)
(-0.0841213 -0.0934701 0)
(-0.0866499 -0.0867059 0)
(-0.0889543 -0.0797486 0)
(-0.09103 -0.0726203 0)
(-0.0928773 -0.0653432 0)
(-0.0944997 -0.0579387 0)
(-0.095902 -0.0504262 0)
(-0.0970901 -0.0428234 0)
(-0.0980703 -0.0351461 0)
(-0.0988475 -0.0274075 0)
(-0.0994229 -0.0196182 0)
(-0.0997961 -0.0117894 0)
(-0.0999874 -0.00393387 0)
(0.0999805 -0.00563123 0)
(0.0996959 -0.0168318 0)
(0.099134 -0.0279428 0)
(0.0982764 -0.0389361 0)
(0.0971342 -0.0497845 0)
(0.095717 -0.060462 0)
(0.0940331 -0.0709433 0)
(0.0920946 -0.081205 0)
(0.0899196 -0.0912276 0)
(0.0875345 -0.100997 0)
(0.0849754 -0.110508 0)
(0.0822897 -0.119766 0)
(0.0795361 -0.128792 0)
(0.0767827 -0.137624 0)
(0.0741005 -0.146319 0)
(0.0715543 -0.154948 0)
(0.0691887 -0.163586 0)
(0.0670152 -0.172303 0)
(0.0650024 -0.181148 0)
(0.0630755 -0.190137 0)
(0.0611264 -0.199249 0)
(0.0590313 -0.208432 0)
(0.0566697 -0.217612 0)
(0.0539401 -0.226702 0)
(0.0507683 -0.235614 0)
(0.0471096 -0.244264 0)
(0.042945 -0.252575 0)
(0.0382768 -0.260484 0)
(0.0331219 -0.267936 0)
(0.0275073 -0.274889 0)
(0.0214654 -0.281311 0)
(0.0150313 -0.287179 0)
(0.00824095 -0.292479 0)
(0.00113008 -0.297204 0)
(-0.0062661 -0.301356 0)
(-0.0139143 -0.304942 0)
(-0.0217838 -0.307973 0)
(-0.0298463 -0.310464 0)
(-0.0380755 -0.312437 0)
(-0.0464469 -0.313912 0)
(-0.0549373 -0.314916 0)
(-0.0635253 -0.315476 0)
(-0.0721909 -0.315621 0)
(-0.0809156 -0.315381 0)
(-0.0896817 -0.314789 0)
(-0.0984723 -0.313875 0)
(-0.107272 -0.312672 0)
(-0.116066 -0.311213 0)
(-0.124841 -0.309529 0)
(-0.133583 -0.307652 0)
(-0.14228 -0.30561 0)
(-0.150918 -0.303433 0)
(-0.159483 -0.301145 0)
(-0.167961 -0.298768 0)
(-0.176335 -0.29632 0)
(-0.184577 -0.293814 0)
(-0.192634 -0.291255 0)
(-0.200446 -0.288639 0)
(-0.208044 -0.285957 0)
(-0.215548 -0.283208 0)
(-0.222604 -0.280378 0)
(-0.226416 -0.277424 0)
(-0.224069 -0.273599 0)
(-0.216759 -0.269014 0)
(-0.207878 -0.263871 0)
(-0.198464 -0.25814 0)
(-0.188561 -0.25175 0)
(-0.178174 -0.24466 0)
(-0.167377 -0.236863 0)
(-0.156266 -0.228377 0)
(-0.144934 -0.219245 0)
(-0.13348 -0.209542 0)
(-0.122008 -0.199374 0)
(-0.110682 -0.188888 0)
(-0.0997942 -0.178286 0)
(-0.0897656 -0.167832 0)
(-0.0810845 -0.157827 0)
(-0.0742253 -0.148574 0)
(-0.0695261 -0.140299 0)
(-0.0670584 -0.133058 0)
(-0.0665819 -0.126703 0)
(-0.0676372 -0.12095 0)
(-0.0697094 -0.115493 0)
(-0.0723553 -0.110094 0)
(-0.0752516 -0.104604 0)
(-0.0781889 -0.0989444 0)
(-0.0810442 -0.0930866 0)
(-0.0837498 -0.0870258 0)
(-0.0862694 -0.0807705 0)
(-0.0885845 -0.0743352 0)
(-0.0906862 -0.0677365 0)
(-0.0925711 -0.0609922 0)
(-0.0942388 -0.0541193 0)
(-0.0956906 -0.0471343 0)
(-0.0969289 -0.0400532 0)
(-0.0979567 -0.0328907 0)
(-0.0987761 -0.0256601 0)
(-0.0993854 -0.0183733 0)
(-0.0997821 -0.0110432 0)
(-0.0999862 -0.00368502 0)
(0.0999811 -0.0052605 0)
(0.0996942 -0.0157241 0)
(0.0991264 -0.0261022 0)
(0.09826 -0.0363658 0)
(0.0971074 -0.0464879 0)
(0.0956803 -0.0564427 0)
(0.0939891 -0.0662058 0)
(0.0920475 -0.0757548 0)
(0.0898755 -0.0850716 0)
(0.0875005 -0.0941436 0)
(0.0849595 -0.102966 0)
(0.0823 -0.111547 0)
(0.0795806 -0.119906 0)
(0.0768687 -0.128082 0)
(0.074235 -0.13613 0)
(0.071744 -0.144119 0)
(0.0694412 -0.152122 0)
(0.067339 -0.160208 0)
(0.0654077 -0.168425 0)
(0.0635745 -0.17679 0)
(0.0617326 -0.185286 0)
(0.0597584 -0.193866 0)
(0.0575304 -0.202462 0)
(0.0549446 -0.210995 0)
(0.0519237 -0.219381 0)
(0.0484189 -0.227544 0)
(0.0444072 -0.235411 0)
(0.0398865 -0.242923 0)
(0.0348697 -0.250029 0)
(0.0293801 -0.256687 0)
(0.0234466 -0.262866 0)
(0.0171014 -0.268544 0)
(0.0103776 -0.273707 0)
(0.00330832 -0.278346 0)
(-0.00407307 -0.282461 0)
(-0.0117352 -0.286057 0)
(-0.0196493 -0.289142 0)
(-0.0277886 -0.291729 0)
(-0.0361281 -0.293834 0)
(-0.0446444 -0.295477 0)
(-0.0533156 -0.296678 0)
(-0.0621213 -0.297461 0)
(-0.0710421 -0.29785 0)
(-0.0800597 -0.297872 0)
(-0.0891566 -0.297553 0)
(-0.0983163 -0.296919 0)
(-0.107523 -0.295998 0)
(-0.116762 -0.294816 0)
(-0.126018 -0.2934 0)
(-0.135275 -0.291775 0)
(-0.144519 -0.289964 0)
(-0.153732 -0.287988 0)
(-0.162896 -0.285866 0)
(-0.171991 -0.283614 0)
(-0.18099 -0.281243 0)
(-0.189855 -0.27876 0)
(-0.198517 -0.276163 0)
(-0.206906 -0.273443 0)
(-0.215058 -0.270589 0)
(-0.223092 -0.267591 0)
(-0.230479 -0.264422 0)
(-0.233863 -0.261068 0)
(-0.230587 -0.256875 0)
(-0.222692 -0.251996 0)
(-0.213446 -0.246553 0)
(-0.20357 -0.240545 0)
(-0.193092 -0.233942 0)
(-0.18207 -0.226735 0)
(-0.17062 -0.218933 0)
(-0.158857 -0.210565 0)
(-0.146899 -0.201684 0)
(-0.13486 -0.192366 0)
(-0.122866 -0.182714 0)
(-0.111112 -0.172867 0)
(-0.0999279 -0.163013 0)
(-0.0897517 -0.153387 0)
(-0.0810692 -0.144256 0)
(-0.0743256 -0.135878 0)
(-0.0698033 -0.128435 0)
(-0.0675064 -0.121948 0)
(-0.0671429 -0.116261 0)
(-0.0682341 -0.111102 0)
(-0.0702748 -0.106194 0)
(-0.0728444 -0.101323 0)
(-0.0756426 -0.0963571 0)
(-0.0784778 -0.0912261 0)
(-0.0812383 -0.0859024 0)
(-0.0838627 -0.0803811 0)
(-0.0863175 -0.0746687 0)
(-0.0885848 -0.0687778 0)
(-0.0906547 -0.0627235 0)
(-0.0925217 -0.0565215 0)
(-0.094183 -0.0501879 0)
(-0.0956371 -0.0437384 0)
(-0.0968835 -0.0371883 0)
(-0.0979228 -0.0305525 0)
(-0.0987543 -0.0238448 0)
(-0.0993742 -0.0170779 0)
(-0.0997783 -0.010266 0)
(-0.0999862 -0.00342571 0)
(0.0999807 -0.00488906 0)
(0.0996915 -0.014614 0)
(0.09912 -0.024259 0)
(0.0982488 -0.0337964 0)
(0.0970912 -0.0432004 0)
(0.0956598 -0.0524467 0)
(0.0939659 -0.0615124 0)
(0.0920245 -0.0703772 0)
(0.0898563 -0.0790243 0)
(0.08749 -0.0874427 0)
(0.0849631 -0.0956287 0)
(0.0823239 -0.103589 0)
(0.0796312 -0.111344 0)
(0.0769524 -0.118928 0)
(0.0743585 -0.126392 0)
(0.0719141 -0.133801 0)
(0.0696647 -0.141221 0)
(0.0676236 -0.148718 0)
(0.065762 -0.156337 0)
(0.0640079 -0.164096 0)
(0.0622549 -0.171983 0)
(0.0603792 -0.179957 0)
(0.0582581 -0.187957 0)
(0.0557858 -0.195912 0)
(0.052882 -0.203746 0)
(0.0494949 -0.211388 0)
(0.0455984 -0.218773 0)
(0.0411872 -0.225844 0)
(0.0362714 -0.232554 0)
(0.030871 -0.238863 0)
(0.0250127 -0.244742 0)
(0.018726 -0.250169 0)
(0.0120417 -0.255129 0)
(0.00499108 -0.259614 0)
(-0.0023948 -0.263621 0)
(-0.0100862 -0.267153 0)
(-0.0180557 -0.270216 0)
(-0.0262779 -0.272821 0)
(-0.0347293 -0.274981 0)
(-0.0433874 -0.276711 0)
(-0.0522313 -0.278029 0)
(-0.0612412 -0.278955 0)
(-0.0703981 -0.279509 0)
(-0.0796839 -0.279713 0)
(-0.0890814 -0.279588 0)
(-0.0985736 -0.279157 0)
(-0.108144 -0.278443 0)
(-0.117776 -0.277468 0)
(-0.127454 -0.276252 0)
(-0.137158 -0.274816 0)
(-0.146872 -0.273178 0)
(-0.156573 -0.271356 0)
(-0.166239 -0.269363 0)
(-0.175841 -0.267212 0)
(-0.185346 -0.26491 0)
(-0.194704 -0.262461 0)
(-0.203826 -0.259863 0)
(-0.212639 -0.257105 0)
(-0.221173 -0.254175 0)
(-0.229512 -0.251051 0)
(-0.237011 -0.247688 0)
(-0.240028 -0.244081 0)
(-0.236018 -0.239726 0)
(-0.227479 -0.234749 0)
(-0.217709 -0.229205 0)
(-0.207342 -0.223118 0)
(-0.196364 -0.216498 0)
(-0.184831 -0.20936 0)
(-0.172868 -0.201726 0)
(-0.160606 -0.193633 0)
(-0.148176 -0.185139 0)
(-0.135705 -0.176318 0)
(-0.123336 -0.167269 0)
(-0.111295 -0.158123 0)
(-0.099933 -0.149053 0)
(-0.0897012 -0.140269 0)
(-0.0810766 -0.132007 0)
(-0.0744741 -0.124483 0)
(-0.0701253 -0.117828 0)
(-0.0679791 -0.11203 0)
(-0.067706 -0.10692 0)
(-0.068819 -0.102247 0)
(-0.0708264 -0.0977681 0)
(-0.0733291 -0.0933027 0)
(-0.076046 -0.0887406 0)
(-0.0787991 -0.0840252 0)
(-0.0814842 -0.0791334 0)
(-0.0840434 -0.0740612 0)
(-0.0864445 -0.068814 0)
(-0.0886692 -0.063402 0)
(-0.0907067 -0.0578377 0)
(-0.0925504 -0.0521347 0)
(-0.0941959 -0.0463067 0)
(-0.0956404 -0.0403676 0)
(-0.0968819 -0.0343312 0)
(-0.0979195 -0.0282115 0)
(-0.0987512 -0.0220216 0)
(-0.0993723 -0.0157739 0)
(-0.0997775 -0.00948257 0)
(-0.0999861 -0.0031642 0)
(0.0999809 -0.00451625 0)
(0.0996924 -0.0135001 0)
(0.099122 -0.02241 0)
(0.0982526 -0.0312197 0)
(0.097098 -0.0399051 0)
(0.0956711 -0.0484432 0)
(0.093984 -0.0568129 0)
(0.092052 -0.0649951 0)
(0.0898966 -0.0729745 0)
(0.0875464 -0.0807411 0)
(0.0850392 -0.0882919 0)
(0.0824232 -0.0956334 0)
(0.0797568 -0.102784 0)
(0.0771074 -0.109777 0)
(0.0745455 -0.11666 0)
(0.0721356 -0.123492 0)
(0.069924 -0.130337 0)
(0.0679246 -0.137256 0)
(0.0661102 -0.144291 0)
(0.06441 -0.151461 0)
(0.0627186 -0.158756 0)
(0.0609123 -0.16614 0)
(0.0588676 -0.173559 0)
(0.0564771 -0.180945 0)
(0.0536584 -0.188233 0)
(0.050357 -0.195354 0)
(0.0465441 -0.20225 0)
(0.0422117 -0.208868 0)
(0.0373672 -0.215164 0)
(0.0320285 -0.221101 0)
(0.0262197 -0.226651 0)
(0.0199684 -0.231792 0)
(0.0133036 -0.236511 0)
(0.00625452 -0.240798 0)
(-0.0011493 -0.24465 0)
(-0.0088796 -0.248068 0)
(-0.0169101 -0.251057 0)
(-0.0252167 -0.253624 0)
(-0.0337768 -0.255781 0)
(-0.0425689 -0.25754 0)
(-0.0515726 -0.258915 0)
(-0.0607685 -0.259923 0)
(-0.0701377 -0.260581 0)
(-0.0796622 -0.260906 0)
(-0.0893244 -0.260918 0)
(-0.0991069 -0.260634 0)
(-0.108992 -0.260072 0)
(-0.118961 -0.259252 0)
(-0.128996 -0.258189 0)
(-0.139077 -0.2569 0)
(-0.149181 -0.2554 0)
(-0.159285 -0.253702 0)
(-0.16936 -0.251817 0)
(-0.179373 -0.249755 0)
(-0.189283 -0.24752 0)
(-0.199028 -0.245116 0)
(-0.208506 -0.242539 0)
(-0.217636 -0.239782 0)
(-0.226425 -0.236835 0)
(-0.234905 -0.233679 0)
(-0.242303 -0.230277 0)
(-0.244895 -0.226576 0)
(-0.240249 -0.222154 0)
(-0.231155 -0.217174 0)
(-0.22091 -0.211681 0)
(-0.210107 -0.205697 0)
(-0.198704 -0.199242 0)
(-0.186753 -0.192337 0)
(-0.174384 -0.185013 0)
(-0.161734 -0.177314 0)
(-0.148944 -0.169295 0)
(-0.136152 -0.16103 0)
(-0.123514 -0.152611 0)
(-0.11128 -0.144159 0)
(-0.0998252 -0.135833 0)
(-0.0896046 -0.127822 0)
(-0.0810862 -0.120332 0)
(-0.0746558 -0.113548 0)
(-0.0704999 -0.107571 0)
(-0.0685191 -0.102366 0)
(-0.0683517 -0.0977668 0)
(-0.0695035 -0.0935419 0)
(-0.0714943 -0.0894749 0)
(-0.0739435 -0.0854087 0)
(-0.0765875 -0.0812483 0)
(-0.0792609 -0.0769452 0)
(-0.081868 -0.0724795 0)
(-0.0843552 -0.0678478 0)
(-0.0866924 -0.0630545 0)
(-0.0888621 -0.0581086 0)
(-0.0908535 -0.0530209 0)
(-0.0926593 -0.0478035 0)
(-0.0942746 -0.0424686 0)
(-0.0956953 -0.0370288 0)
(-0.0969187 -0.0314971 0)
(-0.0979427 -0.0258862 0)
(-0.0987646 -0.0202086 0)
(-0.0993789 -0.0144761 0)
(-0.0997799 -0.00870253 0)
(-0.0999863 -0.0029038 0)
(0.0999809 -0.00414508 0)
(0.0996935 -0.0123909 0)
(0.0991255 -0.0205691 0)
(0.0982598 -0.0286555 0)
(0.0971103 -0.0366275 0)
(0.0956903 -0.0444642 0)
(0.0940119 -0.052146 0)
(0.0920909 -0.0596557 0)
(0.0899487 -0.0669792 0)
(0.0876142 -0.0741075 0)
(0.0851252 -0.0810379 0)
(0.0825296 -0.0877766 0)
(0.0798858 -0.0943408 0)
(0.0772609 -0.100761 0)
(0.0747251 -0.10708 0)
(0.0723434 -0.113352 0)
(0.070162 -0.119637 0)
(0.068196 -0.12599 0)
(0.0664188 -0.132453 0)
(0.0647607 -0.139042 0)
(0.063117 -0.14575 0)
(0.0613638 -0.152546 0)
(0.059377 -0.159381 0)
(0.0570478 -0.166194 0)
(0.0542921 -0.172925 0)
(0.0510532 -0.179513 0)
(0.0473003 -0.185903 0)
(0.0430232 -0.192047 0)
(0.0382273 -0.197904 0)
(0.0329286 -0.20344 0)
(0.0271494 -0.208629 0)
(0.0209155 -0.21345 0)
(0.0142545 -0.217889 0)
(0.00719429 -0.221937 0)
(-0.000237068 -0.22559 0)
(-0.0080124 -0.228848 0)
(-0.0161064 -0.231714 0)
(-0.0244959 -0.234195 0)
(-0.0331589 -0.236298 0)
(-0.0420746 -0.238034 0)
(-0.0512229 -0.239415 0)
(-0.0605844 -0.240455 0)
(-0.0701405 -0.241166 0)
(-0.0798729 -0.241564 0)
(-0.0897632 -0.241665 0)
(-0.099793 -0.241482 0)
(-0.109943 -0.241032 0)
(-0.120194 -0.240329 0)
(-0.130525 -0.239387 0)
(-0.140913 -0.238218 0)
(-0.151333 -0.236834 0)
(-0.161757 -0.235246 0)
(-0.172153 -0.233462 0)
(-0.182482 -0.231489 0)
(-0.192697 -0.229332 0)
(-0.202726 -0.226992 0)
(-0.212461 -0.224466 0)
(-0.221819 -0.22175 0)
(-0.230803 -0.218845 0)
(-0.239415 -0.215757 0)
(-0.246658 -0.212478 0)
(-0.248764 -0.208821 0)
(-0.243498 -0.204424 0)
(-0.233945 -0.199531 0)
(-0.223313 -0.194198 0)
(-0.212142 -0.188438 0)
(-0.200384 -0.182266 0)
(-0.188092 -0.175707 0)
(-0.175398 -0.168795 0)
(-0.162447 -0.161573 0)
(-0.149385 -0.154095 0)
(-0.136356 -0.146432 0)
(-0.123528 -0.13867 0)
(-0.111172 -0.130921 0)
(-0.0996774 -0.123329 0)
(-0.0895042 -0.116065 0)
(-0.0811095 -0.10931 0)
(-0.0748521 -0.10322 0)
(-0.070878 -0.0978679 0)
(-0.069047 -0.093205 0)
(-0.0689726 -0.0890684 0)
(-0.0701578 -0.0852471 0)
(-0.0721342 -0.081551 0)
(-0.0745378 -0.0778455 0)
(-0.0771197 -0.0740503 0)
(-0.079725 -0.0701247 0)
(-0.0822643 -0.0660523 0)
(-0.0846876 -0.0618302 0)
(-0.0869665 -0.0574625 0)
(-0.0890842 -0.0529567 0)
(-0.0910299 -0.0483222 0)
(-0.0927965 -0.0435695 0)
(-0.0943783 -0.0387095 0)
(-0.0957711 -0.0337533 0)
(-0.0969716 -0.0287125 0)
(-0.0979773 -0.0235987 0)
(-0.0987851 -0.0184234 0)
(-0.0993891 -0.0131974 0)
(-0.0997836 -0.00793369 0)
(-0.0999865 -0.00264712 0)
(0.099981 -0.00377575 0)
(0.0996954 -0.0112873 0)
(0.0991306 -0.0187374 0)
(0.0982699 -0.0261041 0)
(0.0971272 -0.0333668 0)
(0.0957156 -0.0405063 0)
(0.0940476 -0.0475049 0)
(0.0921388 -0.0543468 0)
(0.0900106 -0.0610193 0)
(0.0876919 -0.0675143 0)
(0.0852203 -0.0738294 0)
(0.0826435 -0.0799703 0)
(0.0800196 -0.0859526 0)
(0.0774152 -0.091804 0)
(0.0749007 -0.0975639 0)
(0.0725407 -0.103282 0)
(0.0703822 -0.109013 0)
(0.0684407 -0.114807 0)
(0.0666906 -0.120703 0)
(0.0650633 -0.126717 0)
(0.0634543 -0.132844 0)
(0.0617401 -0.139056 0)
(0.0597957 -0.145308 0)
(0.0575113 -0.151548 0)
(0.0548012 -0.157718 0)
(0.0516072 -0.163765 0)
(0.0478965 -0.169639 0)
(0.0436573 -0.175295 0)
(0.0388933 -0.180695 0)
(0.0336188 -0.18581 0)
(0.027855 -0.190613 0)
(0.0216262 -0.195086 0)
(0.0149588 -0.199216 0)
(0.00787953 -0.202993 0)
(0.00041553 -0.206414 0)
(-0.00740693 -0.209476 0)
(-0.0155633 -0.212182 0)
(-0.024031 -0.214537 0)
(-0.0327886 -0.216547 0)
(-0.0418155 -0.218221 0)
(-0.0510919 -0.219568 0)
(-0.0605984 -0.220599 0)
(-0.0703161 -0.221326 0)
(-0.0802263 -0.22176 0)
(-0.0903097 -0.221915 0)
(-0.100547 -0.221803 0)
(-0.110918 -0.221436 0)
(-0.121401 -0.220826 0)
(-0.131973 -0.219985 0)
(-0.142609 -0.218922 0)
(-0.153281 -0.217648 0)
(-0.163958 -0.216171 0)
(-0.174604 -0.214498 0)
(-0.185176 -0.212635 0)
(-0.195623 -0.210585 0)
(-0.205866 -0.208351 0)
(-0.215796 -0.205932 0)
(-0.225339 -0.203328 0)
(-0.234532 -0.200547 0)
(-0.243331 -0.197609 0)
(-0.250323 -0.194526 0)
(-0.251714 -0.190921 0)
(-0.245764 -0.186636 0)
(-0.235897 -0.181917 0)
(-0.225016 -0.176828 0)
(-0.213579 -0.171374 0)
(-0.201548 -0.165567 0)
(-0.188991 -0.159429 0)
(-0.176046 -0.152994 0)
(-0.162863 -0.146303 0)
(-0.149594 -0.139407 0)
(-0.136388 -0.132372 0)
(-0.123427 -0.125276 0)
(-0.110996 -0.118223 0)
(-0.099499 -0.111342 0)
(-0.089396 -0.104786 0)
(-0.081134 -0.0987171 0)
(-0.0750473 -0.0932654 0)
(-0.0712461 -0.0884849 0)
(-0.0695555 -0.0843173 0)
(-0.0695689 -0.080608 0)
(-0.0707878 -0.0771663 0)
(-0.0727548 -0.0738254 0)
(-0.0751202 -0.0704692 0)
(-0.077648 -0.0670292 0)
(-0.0801923 -0.0634711 0)
(-0.0826697 -0.0597811 0)
(-0.0850333 -0.0559569 0)
(-0.0872564 -0.0520021 0)
(-0.0893231 -0.0479233 0)
(-0.0912231 -0.0437288 0)
(-0.0929492 -0.0394278 0)
(-0.0944957 -0.0350299 0)
(-0.0958583 -0.0305449 0)
(-0.0970334 -0.0259833 0)
(-0.0980183 -0.0213556 0)
(-0.0988096 -0.0166721 0)
(-0.0994014 -0.0119427 0)
(-0.0997879 -0.00717919 0)
(-0.0999868 -0.00239526 0)
(0.0999811 -0.00340875 0)
(0.0996972 -0.0101904 0)
(0.0991358 -0.016917 0)
(0.0982802 -0.0235685 0)
(0.0971444 -0.0301265 0)
(0.0957413 -0.0365737 0)
(0.0940833 -0.0428941 0)
(0.0921861 -0.0490734 0)
(0.0900709 -0.0551005 0)
(0.0877665 -0.0609677 0)
(0.0853103 -0.0666732 0)
(0.0827497 -0.072222 0)
(0.0801425 -0.0776282 0)
(0.0775552 -0.0829168 0)
(0.0750577 -0.0881234 0)
(0.072715 -0.0932927 0)
(0.0705743 -0.0984742 0)
(0.0686516 -0.103714 0)
(0.0669222 -0.109047 0)
(0.0653181 -0.114489 0)
(0.0637353 -0.120036 0)
(0.06205 -0.125663 0)
(0.0601371 -0.131331 0)
(0.0578856 -0.136992 0)
(0.0552085 -0.142596 0)
(0.0520462 -0.148093 0)
(0.0483646 -0.153439 0)
(0.0441503 -0.158593 0)
(0.0394059 -0.163521 0)
(0.0341446 -0.168194 0)
(0.0283861 -0.172591 0)
(0.022154 -0.176694 0)
(0.0154737 -0.180489 0)
(0.00837098 -0.183968 0)
(0.000872286 -0.187127 0)
(-0.00699674 -0.189963 0)
(-0.0152121 -0.192478 0)
(-0.0237516 -0.194676 0)
(-0.0325942 -0.196561 0)
(-0.0417194 -0.198141 0)
(-0.0511074 -0.199422 0)
(-0.0607389 -0.200414 0)
(-0.0705945 -0.201127 0)
(-0.0806549 -0.201571 0)
(-0.0909002 -0.201755 0)
(-0.10131 -0.20169 0)
(-0.111863 -0.201386 0)
(-0.122535 -0.200854 0)
(-0.133303 -0.200102 0)
(-0.144139 -0.199139 0)
(-0.155013 -0.197973 0)
(-0.165892 -0.196612 0)
(-0.176735 -0.195061 0)
(-0.1875 -0.193326 0)
(-0.198129 -0.19141 0)
(-0.208541 -0.189315 0)
(-0.218624 -0.187043 0)
(-0.22832 -0.184593 0)
(-0.237681 -0.181975 0)
(-0.246602 -0.179205 0)
(-0.25323 -0.176306 0)
(-0.253857 -0.172843 0)
(-0.247328 -0.168776 0)
(-0.237252 -0.164333 0)
(-0.226209 -0.159573 0)
(-0.214579 -0.154499 0)
(-0.202342 -0.149121 0)
(-0.189582 -0.143461 0)
(-0.176445 -0.137552 0)
(-0.163087 -0.131431 0)
(-0.149663 -0.125146 0)
(-0.136326 -0.118757 0)
(-0.12327 -0.112335 0)
(-0.110796 -0.105973 0)
(-0.0993156 -0.0997882 0)
(-0.0892916 -0.0939181 0)
(-0.08116 -0.0885031 0)
(-0.0752328 -0.083654 0)
(-0.0715884 -0.0794084 0)
(-0.0700228 -0.0757035 0)
(-0.0701136 -0.0723949 0)
(-0.0713623 -0.0693124 0)
(-0.0733217 -0.0663106 0)
(-0.0756548 -0.0632899 0)
(-0.0781362 -0.0601923 0)
(-0.080628 -0.056989 0)
(-0.0830512 -0.0536686 0)
(-0.085362 -0.0502294 0)
(-0.087535 -0.0466745 0)
(-0.0895553 -0.0430098 0)
(-0.0914129 -0.0392425 0)
(-0.0931007 -0.0353806 0)
(-0.0946134 -0.0314326 0)
(-0.0959464 -0.027407 0)
(-0.0970963 -0.0233131 0)
(-0.0980602 -0.0191604 0)
(-0.0988348 -0.0149578 0)
(-0.0994141 -0.0107144 0)
(-0.0997924 -0.00644053 0)
(-0.0999871 -0.00214871 0)
(0.0999813 -0.00304398 0)
(0.099699 -0.00910012 0)
(0.0991408 -0.0151074 0)
(0.0982902 -0.0210479 0)
(0.0971608 -0.0269053 0)
(0.0957657 -0.0326641 0)
(0.094117 -0.0383101 0)
(0.0922304 -0.0438307 0)
(0.090127 -0.0492158 0)
(0.0878353 -0.0544588 0)
(0.0853925 -0.0595579 0)
(0.0828457 -0.0645177 0)
(0.0802525 -0.0693507 0)
(0.077679 -0.0740792 0)
(0.0751952 -0.0787349 0)
(0.072866 -0.083358 0)
(0.0707387 -0.0879925 0)
(0.0688302 -0.0926801 0)
(0.0671162 -0.0974522 0)
(0.0655292 -0.102324 0)
(0.0639656 -0.107291 0)
(0.0623018 -0.112333 0)
(0.0604118 -0.117415 0)
(0.058184 -0.122494 0)
(0.0555304 -0.127525 0)
(0.0523902 -0.132465 0)
(0.048728 -0.137273 0)
(0.0445296 -0.141913 0)
(0.0397963 -0.146355 0)
(0.0345404 -0.150572 0)
(0.0287808 -0.154545 0)
(0.0225403 -0.158258 0)
(0.0158435 -0.161698 0)
(0.00871577 -0.164857 0)
(0.00118278 -0.167731 0)
(-0.00673022 -0.170318 0)
(-0.0149996 -0.172618 0)
(-0.0236034 -0.174633 0)
(-0.0325207 -0.176368 0)
(-0.0417313 -0.177829 0)
(-0.0512153 -0.17902 0)
(-0.0609529 -0.179951 0)
(-0.0709246 -0.180627 0)
(-0.0811105 -0.181059 0)
(-0.09149 -0.181253 0)
(-0.102042 -0.181219 0)
(-0.112743 -0.180965 0)
(-0.12357 -0.1805 0)
(-0.134496 -0.17983 0)
(-0.145492 -0.178964 0)
(-0.156527 -0.177908 0)
(-0.167564 -0.176668 0)
(-0.178562 -0.175249 0)
(-0.189476 -0.173655 0)
(-0.200245 -0.17189 0)
(-0.210785 -0.169956 0)
(-0.220985 -0.167854 0)
(-0.230794 -0.165585 0)
(-0.240282 -0.163157 0)
(-0.249278 -0.16058 0)
(-0.255526 -0.157905 0)
(-0.255445 -0.154674 0)
(-0.248428 -0.150911 0)
(-0.238198 -0.146819 0)
(-0.227038 -0.142451 0)
(-0.215262 -0.13781 0)
(-0.202867 -0.132909 0)
(-0.189951 -0.127769 0)
(-0.176668 -0.122419 0)
(-0.163176 -0.116894 0)
(-0.149636 -0.111238 0)
(-0.136203 -0.105504 0)
(-0.123081 -0.0997557 0)
(-0.110584 -0.0940773 0)
(-0.099134 -0.0885738 0)
(-0.0891916 -0.0833663 0)
(-0.0811837 -0.0785771 0)
(-0.0754022 -0.0742991 0)
(-0.0718983 -0.0705578 0)
(-0.0704434 -0.0672896 0)
(-0.0706025 -0.0643624 0)
(-0.071878 -0.0616258 0)
(-0.0738317 -0.0589539 0)
(-0.0761375 -0.0562618 0)
(-0.0785793 -0.0535004 0)
(-0.0810255 -0.0506454 0)
(-0.0834015 -0.0476876 0)
(-0.0856657 -0.0446256 0)
(-0.0877941 -0.0414623 0)
(-0.0897725 -0.0382027 0)
(-0.0915915 -0.0348532 0)
(-0.0932442 -0.0314206 0)
(-0.0947254 -0.0279123 0)
(-0.0960307 -0.0243361 0)
(-0.0971566 -0.0206997 0)