/*--------------------------------*- C++ -*----------------------------------*\
  =========                 |
  \\      /  F ield         | OpenFOAM: The Open Source CFD Toolbox
   \\    /   O peration     | Website:  https://openfoam.org
    \\  /    A nd           | Version:  8
     \\/     M anipulation  |
\*---------------------------------------------------------------------------*/
FoamFile
{
    version     2.0;
    format      ascii;
    class       volScalarField;
    location    "460/fluid";
    object      CH4;
}
// * * * * * * * * * * * * * * * * * * * * * * * * * * * * * * * * * * * * * //

dimensions      [0 0 0 0 0 0 0];

internalField   nonuniform List<scalar> 
4000
(
0.999997
0.999987
0.99997
0.999941
0.999894
0.999815
0.999685
0.999472
0.999129
0.998582
0.997718
0.996381
0.994347
0.991322
0.986937
0.980762
0.972337
0.961233
0.947109
0.929768
0.909172
0.885446
0.858842
0.829704
0.798429
0.765438
0.731152
0.695976
0.660292
0.624447
0.588754
0.553487
0.518879
0.485126
0.452385
0.42078
0.39041
0.361343
0.333623
0.307275
0.282302
0.258695
0.236429
0.215475
0.195793
0.177337
0.160058
0.143903
0.128818
0.114749
0.101643
0.0894475
0.0781117
0.0675882
0.0578322
0.0488026
0.0404624
0.0327971
0.0259284
0.0194822
0.0136356
0.00838657
0.00380605
0.00265743
0.00183408
0.00124883
0.000837212
0.000551392
0.000355936
0.000224698
0.000138525
8.35465e-05
4.98965e-05
3.08392e-05
2.1791e-05
1.66253e-05
1.23604e-05
8.7301e-06
5.79312e-06
3.58187e-06
2.05738e-06
1.10211e-06
5.55546e-07
2.6767e-07
1.25051e-07
5.70107e-08
2.54797e-08
1.12019e-08
4.85747e-09
2.08201e-09
8.83651e-10
3.71917e-10
1.55406e-10
6.45076e-11
2.6587e-11
1.08484e-11
4.34198e-12
1.65957e-12
5.54671e-13
9.72695e-14
0.999997
0.999987
0.99997
0.999941
0.999893
0.999813
0.999681
0.999466
0.999119
0.998565
0.997694
0.996347
0.994306
0.991281
0.98691
0.980774
0.972423
0.961437
0.947474
0.930326
0.909946
0.886439
0.86004
0.831079
0.799942
0.767044
0.732806
0.697635
0.661916
0.626005
0.59022
0.55484
0.520105
0.486217
0.453336
0.421592
0.391084
0.361885
0.334041
0.307576
0.282494
0.258784
0.236431
0.215399
0.195648
0.177132
0.159801
0.143601
0.128478
0.114379
0.101248
0.0890324
0.0776824
0.0671496
0.0573892
0.0483602
0.0400263
0.0323805
0.0255244
0.0191005
0.0132908
0.00809578
0.00359281
0.00251544
0.00173917
0.00118522
0.00079455
0.000522845
0.000336955
0.000212225
0.000130488
7.85389e-05
4.69669e-05
2.93805e-05
2.11889e-05
1.61307e-05
1.18737e-05
8.28896e-06
5.43366e-06
3.32313e-06
1.895e-06
1.01337e-06
5.12909e-07
2.48912e-07
1.17326e-07
5.39922e-08
2.43474e-08
1.07892e-08
4.70934e-09
2.02886e-09
8.64286e-10
3.64647e-10
1.52571e-10
6.33603e-11
2.611e-11
1.0648e-11
4.25885e-12
1.62672e-12
5.43406e-13
9.52838e-14
0.999997
0.999987
0.999969
0.99994
0.999891
0.99981
0.999677
0.99946
0.999109
0.99855
0.997674
0.996321
0.994276
0.99125
0.986885
0.980768
0.97246
0.961547
0.947693
0.930691
0.910485
0.887171
0.860971
0.832199
0.801231
0.76847
0.734331
0.699219
0.663518
0.627585
0.591744
0.556277
0.521432
0.487414
0.45439
0.422494
0.391831
0.362476
0.334477
0.307857
0.282633
0.258798
0.236327
0.215187
0.195338
0.176735
0.159327
0.143061
0.127882
0.113735
0.100566
0.0883203
0.0769477
0.0663996
0.0566314
0.0476023
0.0392769
0.0317024
0.0248766
0.0184819
0.0127336
0.00764795
0.0033367
0.00234091
0.00161959
0.00110324
0.000738539
0.000484885
0.000311559
0.000195553
0.000119846
7.20424e-05
4.33281e-05
2.77612e-05
2.05008e-05
1.55515e-05
1.13411e-05
7.83773e-06
5.0888e-06
3.08837e-06
1.75307e-06
9.36429e-07
4.74859e-07
2.31194e-07
1.09429e-07
5.05916e-08
2.29233e-08
1.02056e-08
4.47392e-09
1.93483e-09
8.26891e-10
3.49765e-10
1.46621e-10
6.09658e-11
2.51408e-11
1.02553e-11
4.10154e-12
1.56628e-12
5.23054e-13
9.1688e-14
0.999997
0.999987
0.999969
0.99994
0.999891
0.999809
0.999675
0.999457
0.999105
0.998545
0.997667
0.996315
0.994272
0.991255
0.98691
0.980828
0.972574
0.961735
0.947978
0.931092
0.911018
0.887845
0.861785
0.833147
0.802297
0.769635
0.735568
0.700499
0.664812
0.628863
0.592976
0.557439
0.522499
0.488368
0.455217
0.423181
0.392368
0.362857
0.334707
0.307952
0.282597
0.258634
0.236042
0.21479
0.194841
0.176147
0.158659
0.142323
0.127085
0.112888
0.0996782
0.0874011
0.0760053
0.0654418
0.0556652
0.0466345
0.0383136
0.0307724
0.0239762
0.0176207
0.0119075
0.0068513
0.00318962
0.00222673
0.00153296
0.00103894
0.000691868
0.0004518
0.00028871
0.000180248
0.000109986
6.60508e-05
4.0087e-05
2.65128e-05
1.99008e-05
1.4986e-05
1.0809e-05
7.38195e-06
4.73663e-06
2.84469e-06
1.60211e-06
8.51869e-07
4.31344e-07
2.10208e-07
9.97249e-08
4.62482e-08
2.10295e-08
9.39761e-09
4.13532e-09
1.79498e-09
7.69764e-10
3.26617e-10
1.37292e-10
5.72191e-11
2.36405e-11
9.65777e-12
3.8669e-12
1.47782e-12
4.9371e-13
8.65519e-14
0.999997
0.999986
0.999969
0.999939
0.99989
0.999809
0.999674
0.999455
0.999103
0.998542
0.997664
0.996313
0.994273
0.991264
0.986934
0.980878
0.972663
0.961881
0.948196
0.931399
0.911425
0.888358
0.862405
0.833867
0.803105
0.770513
0.736496
0.701454
0.665769
0.629798
0.593866
0.558262
0.523236
0.489
0.455729
0.423562
0.392619
0.362986
0.334715
0.307833
0.282353
0.258271
0.235568
0.214215
0.194172
0.175395
0.157834
0.141436
0.126144
0.111904
0.0986598
0.0863571
0.074944
0.0643708
0.0545918
0.0455652
0.0372545
0.0297456
0.0229888
0.0166735
0.0109913
0.00595808
0.00313413
0.00216661
0.00147807
0.00099322
0.00065608
0.000425119
0.00026966
0.000167217
0.000101497
6.08864e-05
3.73386e-05
2.55456e-05
1.93232e-05
1.44203e-05
1.02872e-05
6.94631e-06
4.40921e-06
2.62411e-06
1.46848e-06
7.78162e-07
3.93703e-07
1.92065e-07
9.12989e-08
4.24446e-08
1.93506e-08
8.66983e-09
3.82448e-09
1.66381e-09
7.14961e-10
3.03903e-10
1.27938e-10
5.33883e-11
2.20804e-11
9.02754e-12
3.61662e-12
1.38267e-12
4.61978e-13
8.09809e-14
0.999997
0.999986
0.999969
0.999939
0.99989
0.999808
0.999674
0.999455
0.999103
0.998543
0.997667
0.996318
0.994285
0.991286
0.986972
0.98094
0.972759
0.962021
0.948392
0.931659
0.911756
0.888762
0.862879
0.834406
0.803697
0.771145
0.737153
0.702116
0.666419
0.630417
0.594433
0.558759
0.523646
0.489313
0.455941
0.423677
0.392631
0.362886
0.334499
0.307504
0.281916
0.257731
0.234932
0.213491
0.19337
0.174523
0.156901
0.140451
0.125118
0.110845
0.0975763
0.0852577
0.0738366
0.0632628
0.0534901
0.044476
0.0361898
0.0287458
0.0220142
0.0157048
0.0100522
0.00509767
0.00307002
0.00210327
0.00142244
0.000947946
0.000621272
0.00039958
0.000251698
0.00015511
9.37206e-05
5.62173e-05
3.49294e-05
2.46675e-05
1.86917e-05
1.38285e-05
9.7683e-06
6.5293e-06
4.1043e-06
2.4223e-06
1.34715e-06
7.11133e-07
3.59157e-07
1.75237e-07
8.33865e-08
3.88283e-08
1.7736e-08
7.96305e-09
3.5202e-09
1.53464e-09
6.6076e-10
2.81375e-10
1.18647e-10
4.95807e-11
2.05296e-11
8.40131e-12
3.36802e-12
1.28818e-12
4.30466e-13
7.54482e-14
0.999997
0.999986
0.999969
0.999939
0.99989
0.999808
0.999674
0.999456
0.999104
0.998545
0.99767
0.996325
0.994297
0.991306
0.987006
0.980993
0.972838
0.962134
0.948546
0.93186
0.912007
0.889062
0.863225
0.83479
0.804111
0.771577
0.737588
0.70254
0.666814
0.630767
0.594725
0.558984
0.5238
0.489393
0.455937
0.423578
0.392431
0.362584
0.334097
0.307006
0.281326
0.257055
0.234177
0.212665
0.192479
0.173577
0.155909
0.13942
0.124057
0.109763
0.096481
0.0841573
0.0727386
0.0621747
0.0524186
0.0434272
0.0351698
0.0277716
0.0210535
0.0147801
0.00916887
0.00429801
0.00293787
0.00199319
0.00133811
0.000886496
0.000578072
0.000370122
0.000232198
0.000142616
8.60398e-05
5.1786e-05
3.27092e-05
2.36843e-05
1.79744e-05
1.32236e-05
9.27595e-06
6.15292e-06
3.83869e-06
2.25091e-06
1.2459e-06
6.55784e-07
3.30753e-07
1.61393e-07
7.68498e-08
3.58197e-08
1.63806e-08
7.36355e-09
3.25925e-09
1.42263e-09
6.13256e-10
2.61434e-10
1.1035e-10
4.6154e-11
1.9125e-11
7.83101e-12
3.14064e-12
1.20146e-12
4.01483e-13
7.03524e-14
0.999997
0.999986
0.999969
0.999939
0.99989
0.999809
0.999675
0.999456
0.999105
0.998547
0.997674
0.996332
0.994309
0.991326
0.987036
0.981039
0.972904
0.962225
0.948666
0.932012
0.91219
0.889275
0.863464
0.835047
0.804378
0.771842
0.737839
0.702764
0.667002
0.63091
0.59482
0.559023
0.523772
0.489286
0.455746
0.423299
0.392064
0.362131
0.33356
0.306388
0.280632
0.256291
0.23335
0.21178
0.191545
0.172601
0.154899
0.138384
0.123003
0.108697
0.0954126
0.0830932
0.0716865
0.0611426
0.0514156
0.0424645
0.034243
0.0269621
0.0201272
0.013951
0.00843548
0.00368034
0.00257265
0.00177178
0.00120146
0.000801268
0.00052474
0.000336874
0.000211701
0.000130234
7.88204e-05
4.78598e-05
3.09184e-05
2.28661e-05
1.73643e-05
1.27236e-05
8.87776e-06
5.85191e-06
3.62731e-06
2.11462e-06
1.16512e-06
6.11313e-07
3.07708e-07
1.50049e-07
7.14376e-08
3.33036e-08
1.52365e-08
6.85328e-09
3.0355e-09
1.32596e-09
5.72034e-10
2.4405e-10
1.03088e-10
4.31454e-11
1.78884e-11
7.3279e-12
2.93969e-12
1.12472e-12
3.75812e-13
6.58355e-14
0.999997
0.999986
0.999969
0.999939
0.99989
0.999809
0.999675
0.999457
0.999106
0.998549
0.997678
0.996339
0.99432
0.991342
0.987061
0.981075
0.972955
0.962293
0.948754
0.932119
0.912316
0.889416
0.863615
0.835201
0.804526
0.771975
0.737949
0.702847
0.667051
0.630918
0.594773
0.558912
0.523591
0.489032
0.455417
0.422894
0.391584
0.361577
0.332936
0.305697
0.279879
0.255482
0.232491
0.210877
0.190606
0.171632
0.153907
0.137376
0.121985
0.107677
0.0943954
0.0820856
0.0706943
0.0601712
0.0504698
0.0415479
0.0334157
0.0261844
0.0194016
0.0133129
0.00792865
0.00337508
0.00235872
0.00162648
0.00110487
0.000738164
0.000484182
0.000311264
0.000195872
0.000120734
7.33834e-05
4.5046e-05
2.98394e-05
2.24418e-05
1.70301e-05
1.2422e-05
8.61557e-06
5.64261e-06
3.47464e-06
2.01356e-06
1.10407e-06
5.77185e-07
2.8978e-07
1.41119e-07
6.71296e-08
3.12799e-08
1.43073e-08
6.4351e-09
2.85062e-09
1.2455e-09
5.37494e-10
2.294e-10
9.69375e-11
4.05869e-11
1.68333e-11
6.8974e-12
2.76738e-12
1.05882e-12
3.53747e-13
6.19469e-14
0.999997
0.999986
0.999969
0.99994
0.99989
0.999809
0.999675
0.999458
0.999108
0.998552
0.997682
0.996344
0.994328
0.991355
0.987081
0.981102
0.972992
0.962342
0.948813
0.932189
0.912394
0.889497
0.863694
0.835273
0.804585
0.772017
0.737968
0.702833
0.666994
0.63081
0.594609
0.558688
0.523304
0.48868
0.454998
0.42241
0.391035
0.360966
0.332266
0.304973
0.279106
0.254665
0.231635
0.209989
0.189691
0.170698
0.152958
0.136419
0.121026
0.106721
0.0934483
0.0811524
0.0697799
0.0592808
0.0496086
0.0407221
0.0326547
0.0254668
0.0187216
0.01267
0.00732239
0.00322865
0.0022522
0.00155064
0.0010521
0.000702263
0.000460331
0.000295821
0.000186176
0.000114898
7.01187e-05
4.35159e-05
2.95069e-05
2.23975e-05
1.69495e-05
1.23056e-05
8.48211e-06
5.51462e-06
3.37199e-06
1.94165e-06
1.05903e-06
5.51348e-07
2.75937e-07
1.34122e-07
6.3713e-08
2.96582e-08
1.35561e-08
6.09446e-09
2.69903e-09
1.17916e-09
5.08881e-10
2.17214e-10
9.18048e-11
3.84456e-11
1.59482e-11
6.53564e-12
2.62239e-12
1.0033e-12
3.35133e-13
5.86859e-14
0.999997
0.999986
0.999969
0.99994
0.999891
0.999809
0.999676
0.999458
0.999109
0.998553
0.997684
0.996349
0.994335
0.991365
0.987094
0.981121
0.973017
0.962373
0.948849
0.932228
0.912433
0.889533
0.863723
0.835291
0.804586
0.771993
0.737911
0.702737
0.666854
0.630621
0.594368
0.558392
0.522951
0.488269
0.45453
0.421884
0.390455
0.360335
0.331587
0.30425
0.278344
0.253869
0.23081
0.209141
0.188825
0.169819
0.152072
0.135531
0.12014
0.105843
0.0925822
0.0803021
0.068949
0.0584722
0.0488247
0.0399641
0.0319281
0.0247727
0.0180626
0.0120438
0.00671634
0.00318015
0.00221126
0.00151867
0.00102841
0.000685424
0.000448798
0.000288214
0.000181374
0.000112058
6.86425e-05
4.30102e-05
2.97606e-05
2.26871e-05
1.70861e-05
1.23269e-05
8.44139e-06
5.44937e-06
3.30762e-06
1.8922e-06
1.02645e-06
5.32078e-07
2.65389e-07
1.28711e-07
6.10387e-08
2.83762e-08
1.29572e-08
5.82098e-09
2.57659e-09
1.12529e-09
4.85545e-10
2.07239e-10
8.75898e-11
3.66829e-11
1.52182e-11
6.23682e-12
2.50248e-12
9.57349e-13
3.19718e-13
5.59863e-14
0.999997
0.999986
0.999969
0.99994
0.999891
0.999809
0.999676
0.999459
0.999109
0.998554
0.997686
0.996352
0.994339
0.991372
0.987104
0.981133
0.973032
0.962389
0.948867
0.932244
0.912446
0.889539
0.863717
0.835267
0.804538
0.771916
0.7378
0.702588
0.666662
0.630384
0.594082
0.558056
0.522565
0.487832
0.454043
0.421349
0.389875
0.359712
0.330924
0.303553
0.277616
0.253115
0.230035
0.20835
0.188023
0.16901
0.151261
0.134723
0.119339
0.105052
0.0918047
0.0795417
0.0682088
0.0577549
0.0481328
0.0392999
0.0313029
0.0241839
0.0175047
0.0115131
0.00621262
0.00315166
0.00219038
0.00150358
0.00101774
0.000678112
0.000443965
0.000285158
0.000179566
0.000111115
6.83264e-05
4.32176e-05
3.049e-05
2.32367e-05
1.73924e-05
1.2461e-05
8.47024e-06
5.42861e-06
3.27159e-06
1.85962e-06
1.00346e-06
5.1795e-07
2.57465e-07
1.2458e-07
5.89717e-08
2.73756e-08
1.24861e-08
5.60439e-09
2.47909e-09
1.0822e-09
4.66799e-10
1.99199e-10
8.4183e-11
3.52549e-11
1.46258e-11
5.99408e-12
2.40503e-12
9.19949e-13
3.07212e-13
5.37913e-14
0.999997
0.999987
0.999969
0.99994
0.999891
0.99981
0.999676
0.999459
0.99911
0.998555
0.997688
0.996354
0.994342
0.991376
0.987109
0.981139
0.973038
0.962396
0.948871
0.932245
0.912439
0.889521
0.863683
0.835212
0.804458
0.771806
0.737657
0.702408
0.666443
0.630123
0.593778
0.557707
0.522171
0.487394
0.453563
0.420829
0.389317
0.359119
0.330301
0.302902
0.276942
0.252422
0.229327
0.207631
0.187298
0.168283
0.150535
0.134002
0.118626
0.104351
0.091119
0.0788735
0.0675605
0.0571288
0.0475312
0.0387275
0.0307668
0.0236725
0.0170145
0.0110488
0.00577742
0.00312705
0.00217558
0.00149484
0.00101276
0.000675415
0.000442615
0.000284592
0.000179454
0.000111286
6.87032e-05
4.37923e-05
3.12675e-05
2.38307e-05
1.77517e-05
1.26447e-05
8.54011e-06
5.43682e-06
3.25667e-06
1.84035e-06
9.88125e-07
5.08009e-07
2.51708e-07
1.21519e-07
5.74179e-08
2.66148e-08
1.21246e-08
5.43691e-09
2.4032e-09
1.04847e-09
4.52062e-10
1.92852e-10
8.14849e-11
3.41208e-11
1.41543e-11
5.80056e-12
2.32724e-12
8.90137e-13
2.97252e-13
5.20412e-14
0.999997
0.999987
0.999969
0.99994
0.999891
0.99981
0.999676
0.999459
0.99911
0.998556
0.997689
0.996355
0.994344
0.991378
0.987111
0.981142
0.97304
0.962395
0.948867
0.932233
0.912417
0.889486
0.863631
0.835139
0.80436
0.771681
0.737501
0.702218
0.666217
0.629859
0.593476
0.557366
0.521792
0.486978
0.453111
0.420344
0.3888
0.358575
0.329732
0.302312
0.276334
0.2518
0.228695
0.206993
0.186657
0.167642
0.149898
0.133372
0.118006
0.103743
0.0905255
0.0782969
0.0670027
0.0565922
0.0470189
0.0382369
0.030302
0.0232303
0.0165967
0.0106538
0.00542515
0.0031066
0.00216502
0.00149007
0.00101121
0.000675509
0.000443456
0.000285681
0.000180545
0.000112286
6.96173e-05
4.46834e-05
3.21803e-05
2.45038e-05
1.81726e-05
1.2877e-05
8.64688e-06
5.47172e-06
3.25837e-06
1.83241e-06
9.79535e-07
5.01666e-07
2.47803e-07
1.19376e-07
5.63042e-08
2.60597e-08
1.18571e-08
5.31162e-09
2.34591e-09
1.02282e-09
4.40781e-10
1.8797e-10
7.94003e-11
3.32415e-11
1.37877e-11
5.64977e-12
2.26657e-12
8.66876e-13
2.8948e-13
5.06766e-14
0.999997
0.999987
0.999969
0.99994
0.999891
0.99981
0.999676
0.99946
0.99911
0.998556
0.997689
0.996355
0.994344
0.991378
0.987111
0.981141
0.973038
0.962389
0.948856
0.932214
0.912388
0.889443
0.863571
0.835059
0.804258
0.771552
0.737344
0.702031
0.665999
0.629608
0.593192
0.55705
0.521444
0.486599
0.452702
0.419908
0.388339
0.358091
0.329229
0.301793
0.275802
0.251258
0.228147
0.206441
0.186104
0.167092
0.149353
0.132834
0.117478
0.103227
0.0900237
0.0778111
0.0665363
0.0561467
0.0465903
0.037824
0.0299164
0.0228659
0.0162533
0.010332
0.00514312
0.00308968
0.00215787
0.00148839
0.0010123
0.000677788
0.00044602
0.000288073
0.000182584
0.00011395
7.09754e-05
4.58533e-05
3.32379e-05
2.52669e-05
1.866e-05
1.31583e-05
8.78917e-06
5.5314e-06
3.27649e-06
1.8337e-06
9.76491e-07
4.9849e-07
2.45512e-07
1.18024e-07
5.55673e-08
2.56802e-08
1.16697e-08
5.2222e-09
2.30443e-09
1.00403e-09
4.32446e-10
1.84336e-10
7.78397e-11
3.25802e-11
1.3511e-11
5.53569e-12
2.22067e-12
8.49266e-13
2.8359e-13
4.9643e-14
0.999997
0.999987
0.999969
0.99994
0.999891
0.99981
0.999676
0.99946
0.999111
0.998556
0.997689
0.996356
0.994345
0.991378
0.98711
0.981139
0.973033
0.962381
0.948842
0.932193
0.912356
0.889398
0.863511
0.834981
0.804159
0.771432
0.737199
0.701861
0.665801
0.629383
0.59294
0.55677
0.521138
0.486268
0.452348
0.419532
0.387944
0.357678
0.328801
0.301353
0.275353
0.250802
0.227687
0.205979
0.185643
0.166634
0.148901
0.13239
0.117043
0.102803
0.0896134
0.0774162
0.0661556
0.0557778
0.0462367
0.0374884
0.029601
0.0225675
0.0159693
0.0100588
0.00489224
0.00307539
0.0021535
0.00148929
0.00101564
0.000681912
0.00045004
0.000291574
0.000185436
0.000116189
7.27231e-05
4.72715e-05
3.44227e-05
2.61107e-05
1.92059e-05
1.34822e-05
8.96177e-06
5.61196e-06
3.30828e-06
1.84345e-06
9.77948e-07
4.977e-07
2.4451e-07
1.17311e-07
5.51379e-08
2.5444e-08
1.15479e-08
5.16225e-09
2.276e-09
9.90937e-10
4.26561e-10
1.81745e-10
7.67192e-11
3.21028e-11
1.33108e-11
5.4531e-12
2.18736e-12
8.36485e-13
2.79304e-13
4.88919e-14
0.999997
0.999987
0.999969
0.99994
0.999891
0.99981
0.999677
0.99946
0.999111
0.998556
0.997689
0.996355
0.994344
0.991377
0.987109
0.981136
0.973027
0.962372
0.948827
0.932172
0.912326
0.889357
0.863457
0.834912
0.804073
0.771327
0.737074
0.701715
0.665634
0.629194
0.592729
0.556538
0.520885
0.485995
0.452057
0.419224
0.387621
0.357343
0.328455
0.300998
0.274991
0.250436
0.227318
0.20561
0.185276
0.16627
0.148542
0.132038
0.1167
0.102472
0.0892926
0.0771053
0.0658546
0.0554897
0.0459622
0.0372279
0.0293591
0.0223395
0.0157539
0.00985506
0.00471102
0.00306459
0.0021521
0.00149269
0.00102104
0.00068769
0.000455346
0.000296045
0.000188997
0.000118924
7.47983e-05
4.88801e-05
3.56961e-05
2.70084e-05
1.97901e-05
1.3834e-05
9.15479e-06
5.707e-06
3.34974e-06
1.85923e-06
9.82942e-07
4.98763e-07
2.4443e-07
1.17049e-07
5.49295e-08
2.53153e-08
1.14765e-08
5.1254e-09
2.25791e-09
9.82412e-10
4.22666e-10
1.80014e-10
7.59661e-11
3.17813e-11
1.31754e-11
5.39701e-12
2.16464e-12
8.27737e-13
2.76362e-13
4.83763e-14
0.999997
0.999987
0.999969
0.99994
0.999891
0.99981
0.999677
0.99946
0.999111
0.998556
0.997689
0.996355
0.994344
0.991377
0.987107
0.981133
0.973023
0.962364
0.948815
0.932154
0.912301
0.889323
0.863413
0.834856
0.804004
0.771244
0.736976
0.701601
0.665503
0.629047
0.592565
0.556358
0.52069
0.485786
0.451834
0.418989
0.387375
0.357088
0.328192
0.300729
0.274718
0.25016
0.227041
0.205334
0.185002
0.165999
0.148277
0.131778
0.116448
0.102225
0.0890526
0.0768738
0.0656335
0.0552794
0.0457628
0.0370395
0.0291858
0.0221767
0.0156002
0.0097091
0.00457918
0.00305621
0.00215303
0.00149814
0.00102813
0.000694809
0.00046168
0.000301278
0.000193102
0.000122032
7.7105e-05
5.06014e-05
3.69966e-05
2.79114e-05
2.03757e-05
1.41878e-05
9.35133e-06
5.80635e-06
3.39517e-06
1.87794e-06
9.89817e-07
5.00939e-07
2.44995e-07
1.17117e-07
5.48828e-08
2.52638e-08
1.14423e-08
5.10613e-09
2.248e-09
9.77596e-10
4.20421e-10
1.78997e-10
7.5516e-11
3.15859e-11
1.30921e-11
5.36211e-12
2.15039e-12
8.22221e-13
2.74499e-13
4.80496e-14
0.999997
0.999987
0.999969
0.99994
0.999891
0.99981
0.999677
0.99946
0.999111
0.998556
0.997689
0.996355
0.994343
0.991376
0.987106
0.981131
0.973019
0.962358
0.948807
0.932141
0.912283
0.8893
0.863382
0.834818
0.803957
0.771187
0.736909
0.701522
0.665414
0.628947
0.592454
0.556237
0.520558
0.485645
0.451685
0.418832
0.387211
0.356918
0.328018
0.300551
0.274538
0.249978
0.226859
0.205152
0.184821
0.165822
0.148102
0.131607
0.116279
0.102062
0.088896
0.0767241
0.0654911
0.0551446
0.0456359
0.0369205
0.029077
0.0220749
0.0155041
0.00961667
0.0044933
0.00305063
0.00215613
0.00150517
0.00103631
0.000702643
0.000468468
0.000306788
0.000197368
0.000125219
7.94281e-05
5.22772e-05
3.81983e-05
2.8723e-05
2.0893e-05
1.44969e-05
9.52252e-06
5.89341e-06
3.43567e-06
1.89514e-06
9.9646e-07
5.03244e-07
2.45773e-07
1.17348e-07
5.49339e-08
2.5265e-08
1.14344e-08
5.09951e-09
2.24395e-09
9.7542e-10
4.19339e-10
1.78485e-10
7.52825e-11
3.14822e-11
1.30471e-11
5.34296e-12
2.14248e-12
8.19137e-13
2.73452e-13
4.78658e-14
0.999997
0.999987
0.999969
0.99994
0.999891
0.99981
0.999677
0.99946
0.999111
0.998556
0.997689
0.996355
0.994343
0.991376
0.987105
0.98113
0.973017
0.962355
0.948802
0.932135
0.912275
0.889288
0.863367
0.834798
0.803933
0.771158
0.736875
0.701484
0.66537
0.628897
0.592399
0.556177
0.520493
0.485575
0.45161
0.418754
0.38713
0.356834
0.327931
0.300463
0.274448
0.249888
0.226768
0.205062
0.184732
0.165733
0.148015
0.131522
0.116198
0.101983
0.0888206
0.0766525
0.0654235
0.0550812
0.0455768
0.0368657
0.0290279
0.0220295
0.0154611
0.00957427
0.00445121
0.00304787
0.00216028
0.00151199
0.00104358
0.000709285
0.000474049
0.000311223
0.000200747
0.000127707
8.12091e-05
5.35132e-05
3.90192e-05
2.92477e-05
2.12145e-05
1.46835e-05
9.62373e-06
5.94423e-06
3.45922e-06
1.90521e-06
1.00042e-06
5.04668e-07
2.46282e-07
1.17517e-07
5.49832e-08
2.52761e-08
1.1435e-08
5.09807e-09
2.2427e-09
9.74653e-10
4.1893e-10
1.78283e-10
7.51873e-11
3.1439e-11
1.3028e-11
5.33477e-12
2.13907e-12
8.17796e-13
2.72993e-13
4.77856e-14
0.999997
0.999987
0.999969
0.99994
0.999891
0.99981
0.999677
0.99946
0.999111
0.998556
0.997689
0.996355
0.994343
0.991375
0.987105
0.981129
0.973017
0.962355
0.948802
0.932135
0.912274
0.889287
0.863366
0.834798
0.803932
0.771157
0.736874
0.701483
0.665369
0.628896
0.592398
0.556175
0.520492
0.485574
0.451609
0.418753
0.387129
0.356833
0.32793
0.300462
0.274447
0.249887
0.226768
0.205061
0.184731
0.165732
0.148014
0.131521
0.116197
0.101983
0.0888202
0.0766521
0.0654231
0.0550809
0.0455765
0.0368654
0.0290277
0.0220293
0.0154609
0.0095741
0.00445107
0.00304786
0.00216027
0.00151198
0.00104357
0.000709282
0.000474046
0.000311221
0.000200746
0.000127706
8.12086e-05
5.3513e-05
3.90191e-05
2.92476e-05
2.12145e-05
1.46834e-05
9.62368e-06
5.9442e-06
3.4592e-06
1.90519e-06
1.00041e-06
5.04664e-07
2.4628e-07
1.17516e-07
5.49827e-08
2.52759e-08
1.14349e-08
5.09803e-09
2.24268e-09
9.74645e-10
4.18926e-10
1.78281e-10
7.51867e-11
3.14387e-11
1.30279e-11
5.33472e-12
2.13905e-12
8.17789e-13
2.72989e-13
4.77856e-14
0.999997
0.999987
0.999969
0.99994
0.999891
0.99981
0.999677
0.99946
0.999111
0.998556
0.997689
0.996355
0.994343
0.991376
0.987106
0.98113
0.973018
0.962357
0.948806
0.93214
0.912282
0.889298
0.86338
0.834815
0.803954
0.771184
0.736906
0.701519
0.665411
0.628944
0.592451
0.556234
0.520555
0.485642
0.451682
0.418829
0.387209
0.356916
0.328015
0.300549
0.274535
0.249976
0.226857
0.20515
0.18482
0.16582
0.1481
0.131605
0.116278
0.102061
0.0888948
0.076723
0.0654901
0.0551437
0.045635
0.0369197
0.0290763
0.0220743
0.0155035
0.00961617
0.00449289
0.00305059
0.0021561
0.00150514
0.00103629
0.000702633
0.00046846
0.000306783
0.000197365
0.000125216
7.94268e-05
5.22765e-05
3.81981e-05
2.87228e-05
2.08928e-05
1.44967e-05
9.52239e-06
5.89332e-06
3.43561e-06
1.8951e-06
9.96439e-07
5.03233e-07
2.45768e-07
1.17346e-07
5.49327e-08
2.52644e-08
1.14342e-08
5.0994e-09
2.2439e-09
9.75398e-10
4.1933e-10
1.78481e-10
7.52808e-11
3.14814e-11
1.30467e-11
5.34283e-12
2.14243e-12
8.19118e-13
2.7344e-13
4.78658e-14
0.999997
0.999987
0.999969
0.99994
0.999891
0.99981
0.999676
0.99946
0.999111
0.998556
0.997689
0.996355
0.994344
0.991376
0.987107
0.981132
0.973021
0.962362
0.948813
0.932152
0.912298
0.88932
0.863409
0.834852
0.804
0.771239
0.736971
0.701596
0.665498
0.629042
0.59256
0.556353
0.520685
0.485781
0.451829
0.418984
0.387371
0.357084
0.328188
0.300725
0.274714
0.250157
0.227038
0.205331
0.184999
0.165997
0.148274
0.131776
0.116445
0.102223
0.0890505
0.0768719
0.0656318
0.0552778
0.0457613
0.0370382
0.0291846
0.0221756
0.0155993
0.00970825
0.00457849
0.00305615
0.00215298
0.00149811
0.00102811
0.000694792
0.000461669
0.00030127
0.000193098
0.000122029
7.71032e-05
5.06006e-05
3.69963e-05
2.79112e-05
2.03755e-05
1.41875e-05
9.35115e-06
5.80621e-06
3.39507e-06
1.87788e-06
9.89785e-07
5.00922e-07
2.44986e-07
1.17113e-07
5.48807e-08
2.52629e-08
1.14419e-08
5.10594e-09
2.24792e-09
9.77559e-10
4.20405e-10
1.7899e-10
7.55131e-11
3.15847e-11
1.30916e-11
5.36189e-12
2.1503e-12
8.22189e-13
2.7448e-13
4.80495e-14
0.999997
0.999987
0.999969
0.99994
0.999891
0.99981
0.999676
0.99946
0.999111
0.998556
0.997689
0.996355
0.994344
0.991377
0.987108
0.981135
0.973026
0.96237
0.948825
0.932169
0.912322
0.889353
0.863452
0.834906
0.804067
0.771321
0.737068
0.701708
0.665626
0.629186
0.592721
0.55653
0.520877
0.485988
0.45205
0.419217
0.387614
0.357336
0.328448
0.300992
0.274985
0.250431
0.227313
0.205605
0.185271
0.166266
0.148538
0.132034
0.116697
0.102468
0.0892896
0.0771025
0.065852
0.0554874
0.04596
0.0372259
0.0293574
0.022338
0.0157525
0.00985385
0.00471003
0.00306449
0.00215203
0.00149264
0.001021
0.000687667
0.000455331
0.000296035
0.00018899
0.00011892
7.47959e-05
4.8879e-05
3.56958e-05
2.70081e-05
1.97898e-05
1.38337e-05
9.15454e-06
5.70681e-06
3.34961e-06
1.85915e-06
9.82897e-07
4.98738e-07
2.44418e-07
1.17043e-07
5.49267e-08
2.5314e-08
1.1476e-08
5.12514e-09
2.2578e-09
9.8236e-10
4.22643e-10
1.80004e-10
7.59618e-11
3.17794e-11
1.31746e-11
5.39668e-12
2.16451e-12
8.2769e-13
2.76335e-13
4.83758e-14
0.999997
0.999987
0.999969
0.99994
0.999891
0.99981
0.999676
0.99946
0.999111
0.998556
0.997689
0.996355
0.994344
0.991377
0.987109
0.981137
0.973031
0.962378
0.948838
0.932189
0.912351
0.889392
0.863504
0.834974
0.804152
0.771423
0.73719
0.701851
0.665792
0.629374
0.59293
0.556761
0.521129
0.486259
0.452339
0.419523
0.387935
0.35767
0.328793
0.301346
0.275346
0.250796
0.22768
0.205973
0.185638
0.166629
0.148896
0.132385
0.117039
0.102799
0.0896097
0.0774128
0.0661524
0.0557748
0.046234
0.037486
0.0295988
0.0225656
0.0159675
0.0100573
0.00489094
0.00307531
0.00215343
0.00148923
0.0010156
0.000681887
0.000450022
0.000291562
0.000185428
0.000116184
7.27202e-05
4.72702e-05
3.44225e-05
2.61104e-05
1.92056e-05
1.34818e-05
8.96147e-06
5.61173e-06
3.30812e-06
1.84335e-06
9.77888e-07
4.97668e-07
2.44494e-07
1.17303e-07
5.51342e-08
2.54423e-08
1.15471e-08
5.1619e-09
2.27584e-09
9.90866e-10
4.26531e-10
1.81732e-10
7.67134e-11
3.21003e-11
1.33097e-11
5.45266e-12
2.18719e-12
8.36421e-13
2.79268e-13
4.88909e-14
0.999997
0.999987
0.999969
0.99994
0.999891
0.99981
0.999676
0.999459
0.99911
0.998556
0.997689
0.996355
0.994344
0.991378
0.98711
0.981139
0.973035
0.962386
0.948852
0.93221
0.912382
0.889436
0.863563
0.83505
0.804248
0.771542
0.737333
0.70202
0.665987
0.629596
0.59318
0.557038
0.521432
0.486587
0.452691
0.419897
0.388329
0.358081
0.329219
0.301783
0.275793
0.25125
0.228139
0.206434
0.186097
0.167085
0.149347
0.132828
0.117473
0.103222
0.0900192
0.077807
0.0665325
0.0561432
0.0465871
0.0378211
0.0299138
0.0228635
0.0162512
0.0103301
0.00514156
0.00308957
0.00215778
0.00148833
0.00101226
0.000677759
0.000445999
0.00028806
0.000182574
0.000113944
7.09719e-05
4.58517e-05
3.32376e-05
2.52666e-05
1.86596e-05
1.3158e-05
8.78881e-06
5.53112e-06
3.27629e-06
1.83358e-06
9.76417e-07
4.98451e-07
2.45492e-07
1.18014e-07
5.55626e-08
2.5678e-08
1.16687e-08
5.22174e-09
2.30423e-09
1.00394e-09
4.32406e-10
1.84318e-10
7.78322e-11
3.2577e-11
1.35097e-11
5.53512e-12
2.22044e-12
8.49181e-13
2.83545e-13
4.96414e-14
0.999997
0.999987
0.999969
0.99994
0.999891
0.99981
0.999676
0.999459
0.99911
0.998556
0.997688
0.996354
0.994343
0.991377
0.98711
0.98114
0.973037
0.962391
0.948862
0.932228
0.91241
0.889477
0.863621
0.835128
0.804349
0.771669
0.737488
0.702204
0.666203
0.629845
0.593462
0.557352
0.521778
0.486964
0.453098
0.420331
0.388788
0.358562
0.32972
0.3023
0.276324
0.25179
0.228686
0.206984
0.186648
0.167634
0.149891
0.133365
0.118
0.103737
0.0905202
0.078292
0.0669982
0.0565881
0.0470153
0.0382336
0.030299
0.0232276
0.0165942
0.0106515
0.00542323
0.00310649
0.00216492
0.00149
0.00101116
0.000675474
0.000443432
0.000285665
0.000180534
0.000112279
6.96132e-05
4.46816e-05
3.218e-05
2.45036e-05
1.81723e-05
1.28766e-05
8.64649e-06
5.47139e-06
3.25814e-06
1.83226e-06
9.79448e-07
5.01618e-07
2.47779e-07
1.19364e-07
5.62983e-08
2.6057e-08
1.18558e-08
5.31104e-09
2.34565e-09
1.0227e-09
4.40731e-10
1.87948e-10
7.93908e-11
3.32374e-11
1.3786e-11
5.64906e-12
2.26629e-12
8.66758e-13
2.89427e-13
5.06734e-14
0.999997
0.999987
0.999969
0.99994
0.999891
0.99981
0.999676
0.999459
0.99911
0.998555
0.997687
0.996353
0.994341
0.991375
0.987107
0.981137
0.973035
0.962391
0.948866
0.932238
0.912431
0.889511
0.863672
0.8352
0.804445
0.771792
0.737643
0.702393
0.666427
0.630106
0.593762
0.557691
0.522155
0.487379
0.453547
0.420814
0.389302
0.359105
0.330287
0.302889
0.27693
0.25241
0.229316
0.207621
0.187288
0.168273
0.150527
0.133994
0.118619
0.104344
0.0911126
0.0788676
0.0675551
0.0571238
0.0475267
0.0387234
0.0307631
0.0236692
0.0170115
0.011046
0.005775
0.00312691
0.00217546
0.00149475
0.00101269
0.00067537
0.000442584
0.000284571
0.000179441
0.000111277
6.86982e-05
4.379e-05
3.12673e-05
2.38306e-05
1.77514e-05
1.26444e-05
8.5397e-06
5.43647e-06
3.2564e-06
1.84018e-06
9.88022e-07
5.07952e-07
2.51679e-07
1.21505e-07
5.74108e-08
2.66114e-08
1.2123e-08
5.4362e-09
2.40288e-09
1.04833e-09
4.51999e-10
1.92825e-10
8.14732e-11
3.41157e-11
1.41522e-11
5.79969e-12
2.32689e-12
8.8999e-13
2.97188e-13
5.20367e-14
0.999997
0.999986
0.999969
0.99994
0.999891
0.999809
0.999676
0.999459
0.999109
0.998554
0.997686
0.996351
0.994338
0.99137
0.987102
0.981131
0.973028
0.962384
0.94886
0.932236
0.912436
0.889528
0.863705
0.835253
0.804523
0.7719
0.737783
0.70257
0.666644
0.630365
0.594064
0.558037
0.522546
0.487813
0.454025
0.421332
0.389858
0.359695
0.330909
0.303538
0.277602
0.253102
0.230023
0.208338
0.188012
0.169
0.151251
0.134714
0.11933
0.105044
0.0917973
0.0795349
0.0682025
0.0577491
0.0481275
0.039295
0.0312986
0.0241799
0.0175011
0.0115098
0.00620974
0.00315151
0.00219024
0.00150345
0.00101764
0.00067804
0.000443915
0.000285125
0.000179544
0.000111102
6.83191e-05
4.32148e-05
3.04907e-05
2.32372e-05
1.73924e-05
1.24607e-05
8.46985e-06
5.42823e-06
3.2713e-06
1.85942e-06
1.00334e-06
5.17883e-07
2.5743e-07
1.24562e-07
5.89631e-08
2.73715e-08
1.24842e-08
5.60352e-09
2.4787e-09
1.08202e-09
4.66722e-10
1.99165e-10
8.41684e-11
3.52486e-11
1.46232e-11
5.993e-12
2.40459e-12