/*--------------------------------*- C++ -*----------------------------------*\
  =========                 |
  \\      /  F ield         | OpenFOAM: The Open Source CFD Toolbox
   \\    /   O peration     | Website:  https://openfoam.org
    \\  /    A nd           | Version:  8
     \\/     M anipulation  |
\*---------------------------------------------------------------------------*/
FoamFile
{
    version     2.0;
    format      ascii;
    class       volScalarField;
    location    "460/fluid";
    object      CO2;
}
// * * * * * * * * * * * * * * * * * * * * * * * * * * * * * * * * * * * * * //

dimensions      [0 0 0 0 0 0 0];

internalField   nonuniform List<scalar> 
4000
(
4.50357e-07
1.96755e-06
4.51691e-06
8.786e-06
1.59031e-05
2.77015e-05
4.71254e-05
7.88364e-05
0.000130092
0.000211964
0.000340936
0.000540819
0.000844754
0.00129676
0.00195203
0.00287486
0.00413382
0.00579323
0.00790372
0.0104952
0.0135729
0.0171184
0.0210939
0.0254481
0.0301217
0.0350517
0.0401755
0.0454322
0.0507651
0.0561222
0.0614567
0.0667279
0.0719008
0.0769461
0.0818403
0.0865648
0.0911048
0.0954497
0.0995927
0.10353
0.107261
0.110785
0.114107
0.11723
0.120158
0.122897
0.125453
0.127831
0.130035
0.132071
0.133941
0.135645
0.137182
0.138548
0.139734
0.140727
0.141507
0.142047
0.142304
0.142244
0.141793
0.140865
0.139363
0.129022
0.118383
0.107664
0.0970317
0.0866132
0.0765087
0.0667984
0.0575484
0.0488157
0.0406528
0.0331349
0.0262607
0.0201212
0.0147821
0.0103084
0.00675262
0.00412078
0.00233594
0.00123512
0.000614744
0.000292635
0.000135179
6.09867e-05
2.69957e-05
1.17644e-05
5.06069e-06
2.15342e-06
9.08001e-07
3.79931e-07
1.57929e-07
6.52542e-08
2.67877e-08
1.08934e-08
4.34809e-09
1.65847e-09
5.5355e-10
9.70134e-11
4.53286e-07
1.98102e-06
4.55076e-06
8.85959e-06
1.60523e-05
2.7989e-05
4.7655e-05
7.97686e-05
0.000131653
0.000214434
0.000344598
0.000545822
0.000850861
0.00130295
0.00195604
0.00287309
0.00412092
0.00576262
0.00784921
0.0104116
0.0134571
0.0169699
0.0209148
0.0252426
0.0298956
0.0348117
0.0399283
0.0451843
0.0505223
0.0558893
0.0612377
0.0665257
0.0717174
0.076783
0.0816981
0.0864434
0.0910038
0.0953684
0.09953
0.103484
0.107231
0.110771
0.114105
0.117239
0.120177
0.122925
0.125487
0.127871
0.130079
0.132118
0.133989
0.135692
0.137227
0.138587
0.139764
0.140742
0.141501
0.142005
0.142214
0.14208
0.141524
0.140446
0.138755
0.128213
0.117433
0.106613
0.0959085
0.0854379
0.0752969
0.0655633
0.0563024
0.047572
0.0394266
0.0319547
0.0251394
0.0190893
0.0138723
0.00955322
0.00617538
0.00372353
0.00209369
0.00110458
0.000552021
0.000264782
0.000123493
5.62895e-05
2.51657e-05
1.10657e-05
4.79648e-06
2.05356e-06
8.69967e-07
3.65254e-07
1.52176e-07
6.29667e-08
2.58693e-08
1.05242e-08
4.20162e-09
1.60285e-09
5.3506e-10
9.37985e-11
4.57961e-07
2.00193e-06
4.60081e-06
8.96177e-06
1.62455e-05
2.83354e-05
4.8247e-05
8.07331e-05
0.00013315
0.000216636
0.000347637
0.000549705
0.000855345
0.00130749
0.00195974
0.00287394
0.00411542
0.00574618
0.00781639
0.0103571
0.0133765
0.0168604
0.0207756
0.0250751
0.0297029
0.0345985
0.0397003
0.0449476
0.050283
0.0556532
0.06101
0.0663109
0.0715192
0.0766042
0.0815406
0.0863085
0.090892
0.0952798
0.0994643
0.103442
0.107209
0.110768
0.114119
0.117268
0.12022
0.122979
0.125552
0.127943
0.130158
0.132201
0.134074
0.135777
0.137308
0.138662
0.139827
0.140787
0.141518
0.141977
0.14212
0.141878
0.14114
0.139757
0.137538
0.126758
0.115815
0.104887
0.0941131
0.0836051
0.0734537
0.0637342
0.0545115
0.045844
0.0377875
0.0304331
0.023766
0.0178957
0.0128852
0.00878891
0.00563141
0.00337301
0.00189027
0.000997445
0.000500015
0.000240848
0.000112878
5.17143e-05
2.32376e-05
1.02671e-05
4.46986e-06
1.92106e-06
8.16452e-07
3.43663e-07
1.43455e-07
5.94369e-08
2.44392e-08
9.9468e-09
3.97183e-09
1.51526e-09
5.05788e-10
8.86542e-11
4.61078e-07
2.01553e-06
4.63196e-06
9.02188e-06
1.63521e-05
2.8514e-05
4.85322e-05
8.11674e-05
0.000133775
0.000217471
0.000348641
0.000550704
0.00085594
0.00130683
0.00195609
0.00286493
0.00409835
0.00571795
0.00777373
0.010297
0.0132967
0.0167597
0.0206538
0.0249334
0.0295435
0.0344245
0.0395155
0.0447563
0.0500897
0.0554624
0.060826
0.0661376
0.07136
0.0764618
0.0814172
0.0862059
0.0908118
0.0952228
0.0994298
0.103427
0.107214
0.110791
0.11416
0.117325
0.12029
0.123062
0.125645
0.128045
0.130266
0.132313
0.134188
0.135891
0.137419
0.138767
0.139924
0.140872
0.141585
0.14202
0.142135
0.141858
0.141084
0.139671
0.135661
0.124767
0.113743
0.102764
0.0919671
0.081464
0.0713438
0.0616814
0.0525417
0.0439832
0.0360619
0.0288469
0.0223665
0.0167027
0.0119128
0.00804214
0.00509975
0.00302674
0.00168488
0.000885842
0.00044375
0.000214071
0.000100602
4.62469e-05
2.0859e-05
9.25224e-06
4.04381e-06
1.74453e-06
7.44047e-07
3.14189e-07
1.31522e-07
5.46236e-08
2.25049e-08
9.17426e-09
3.66791e-09
1.40058e-09
4.67747e-10
8.19994e-11
4.6283e-07
2.02308e-06
4.64888e-06
9.05361e-06
1.64066e-05
2.86021e-05
4.86672e-05
8.13626e-05
0.000134038
0.0002178
0.000348992
0.000550936
0.000855691
0.00130538
0.00195236
0.00285737
0.00408489
0.00569616
0.00774105
0.0102511
0.0132358
0.0166828
0.0205611
0.0248257
0.0294227
0.0342933
0.0393768
0.0446137
0.0499468
0.0553228
0.0606932
0.0660147
0.07125
0.0763674
0.0813409
0.0861491
0.0907745
0.0952035
0.0994284
0.103445
0.107249
0.110843
0.114228
0.117407
0.120385
0.123168
0.12576
0.128167
0.130393
0.132443
0.134319
0.136021
0.137546
0.138888
0.140037
0.140974
0.141675
0.142095
0.142195
0.141906
0.141128
0.139728
0.133358
0.122473
0.111451
0.100479
0.0897053
0.0792435
0.0691861
0.0596091
0.0505778
0.042151
0.034385
0.0273299
0.021045
0.0155911
0.0110201
0.00736801
0.00462847
0.00272519
0.00150862
0.000790926
0.000396023
0.000191282
9.00753e-05
4.15088e-05
1.87698e-05
8.34654e-06
3.65666e-06
1.58097e-06
6.75621e-07
2.85793e-07
1.19815e-07
4.98255e-08
2.05498e-08
8.38431e-09
3.35422e-09
1.28135e-09
4.28004e-10
7.50275e-11
4.63509e-07
2.02594e-06
4.655e-06
9.06435e-06
1.64235e-05
2.86264e-05
4.86982e-05
8.1393e-05
0.000134043
0.000217711
0.000348667
0.000550119
0.000853967
0.00130213
0.00194669
0.00284808
0.00407052
0.0056751
0.0077117
0.0102121
0.0131863
0.0166224
0.0204901
0.0247451
0.0293341
0.0341987
0.0392787
0.0445147
0.0498496
0.0552303
0.0606084
0.0659405
0.0711888
0.0763207
0.0813091
0.086132
0.0907726
0.0952184
0.0994603
0.103493
0.107313
0.110922
0.11432
0.117511
0.1205
0.123291
0.125889
0.128301
0.130531
0.132582
0.134456
0.136154
0.137673
0.139006
0.140142
0.141065
0.141746
0.142143
0.142219
0.141902
0.141088
0.139649
0.131041
0.12019
0.10919
0.0982446
0.0875087
0.0771023
0.0671197
0.0576375
0.0487206
0.0404271
0.0328319
0.0259423
0.0198421
0.0145857
0.0102189
0.0067676
0.00421142
0.00245913
0.00135273
0.000706298
0.000352911
0.000170425
8.03128e-05
3.70594e-05
1.67867e-05
7.47914e-06
3.28332e-06
1.42245e-06
6.09078e-07
2.5812e-07
1.08395e-07
4.51426e-08
1.86417e-08
7.61353e-09
3.04819e-09
1.16503e-09
3.89229e-10
6.82245e-11
4.63611e-07
2.02632e-06
4.65561e-06
9.06477e-06
1.64223e-05
2.86197e-05
4.86769e-05
8.1338e-05
0.000133917
0.000217445
0.00034814
0.000549127
0.000852185
0.00129907
0.00194166
0.00284018
0.00405868
0.00565816
0.00768859
0.010182
0.0131488
0.0165775
0.0204384
0.0246876
0.0292722
0.0341341
0.0392135
0.0444512
0.0497905
0.0551779
0.0605646
0.0659068
0.0711657
0.0763089
0.0813097
0.0861468
0.0908024
0.095263
0.0995195
0.103566
0.1074
0.11102
0.114429
0.11763
0.120626
0.123423
0.126026
0.128441
0.130671
0.13272
0.13459
0.13628
0.137789
0.139108
0.140226
0.141124
0.141777
0.142138
0.142175
0.141812
0.140954
0.139495
0.129069
0.118187
0.107162
0.096212
0.0854974
0.0751375
0.0652249
0.055834
0.0470272
0.0388608
0.0314191
0.0246865
0.01876
0.0136886
0.00951106
0.00624329
0.00385161
0.00223216
0.0012209
0.000635108
0.0003167
0.000152875
7.20628e-05
3.32768e-05
1.50883e-05
6.73025e-06
2.95824e-06
1.28325e-06
5.50167e-07
2.33436e-07
9.81399e-08
4.09133e-08
1.691e-08
6.91116e-09
2.7684e-09
1.05841e-09
3.53629e-10
6.19726e-11
4.63334e-07
2.02505e-06
4.65242e-06
9.05778e-06
1.64078e-05
2.85908e-05
4.86207e-05
8.1231e-05
0.000133718
0.000217083
0.000347501
0.000548027
0.000850348
0.0012961
0.00193704
0.00283326
0.00404873
0.00564447
0.00767056
0.0101593
0.0131212
0.0165455
0.0204025
0.0246489
0.029232
0.0340942
0.0391758
0.0444175
0.0497622
0.0551563
0.0605503
0.0659008
0.0711698
0.0763246
0.0813381
0.086188
0.0908565
0.0953298
0.0995985
0.103657
0.107501
0.111131
0.114548
0.117756
0.120758
0.123559
0.126164
0.128579
0.130807
0.132852
0.134715
0.136395
0.137889
0.139189
0.140281
0.141144
0.14175
0.142049
0.142006
0.141536
0.140541
0.138928
0.127889
0.116673
0.105474
0.0944465
0.0837171
0.0733855
0.0635324
0.0542247
0.0455194
0.0374677
0.0301459
0.023552
0.0177896
0.0128944
0.00889423
0.00579184
0.00354474
0.00203986
0.00110955
0.000574938
0.000285985
0.000137918
6.49947e-05
3.00186e-05
1.3618e-05
6.0789e-06
2.67432e-06
1.16123e-06
4.9836e-07
2.1167e-07
8.90755e-08
3.71676e-08
1.53738e-08
6.28717e-09
2.51955e-09
9.63499e-10
3.21916e-10
5.64012e-11
4.62898e-07
2.02311e-06
4.64776e-06
9.04819e-06
1.63893e-05
2.85561e-05
4.85571e-05
8.11166e-05
0.000133516
0.000216734
0.000346908
0.000547046
0.000848767
0.00129363
0.0019333
0.00282781
0.0040411
0.00563423
0.00765742
0.0101431
0.0131023
0.0165242
0.0203798
0.0246258
0.0292098
0.0340742
0.039159
0.0444049
0.0497546
0.0551549
0.060557
0.065917
0.0711963
0.0763619
0.0813865
0.0862477
0.0909272
0.0954112
0.0996901
0.103758
0.10761
0.111248
0.114671
0.117884
0.12089
0.123693
0.126299
0.128712
0.130937
0.132976
0.134831
0.1365
0.137979
0.139258
0.140322
0.141147
0.141697
0.141921
0.141763
0.141114
0.139828
0.137735
0.1265
0.115152
0.103877
0.0928235
0.0821054
0.0718153
0.0620284
0.0528073
0.0442065
0.0362765
0.0290854
0.0226467
0.0170143
0.0122426
0.00837655
0.00541293
0.00328772
0.00187927
0.00101677
0.000524839
0.000260386
0.000125425
5.90729e-05
2.72793e-05
1.23771e-05
5.52703e-06
2.43283e-06
1.05705e-06
4.53973e-07
1.9296e-07
8.12614e-08
3.39304e-08
1.40432e-08
5.74576e-09
2.30331e-09
8.80939e-10
2.94318e-10
5.15481e-11
4.62433e-07
2.02105e-06
4.6429e-06
9.03837e-06
1.63707e-05
2.8522e-05
4.84962e-05
8.10099e-05
0.000133332
0.000216424
0.000346396
0.000546219
0.000847469
0.00129165
0.0019304
0.00282369
0.00403551
0.00562697
0.00764843
0.0101326
0.0130905
0.0165119
0.0203677
0.0246149
0.0292008
0.0340677
0.039156
0.0444067
0.0497627
0.0551705
0.0605809
0.0659497
0.0712384
0.0764137
0.081448
0.0863188
0.0910077
0.0955007
0.0997878
0.103863
0.107722
0.111365
0.114793
0.118009
0.121017
0.123821
0.126426
0.128837
0.131058
0.133091
0.134939
0.136597
0.138063
0.139326
0.140371
0.141172
0.141692
0.141883
0.141687
0.141
0.139686
0.136371
0.125061
0.113668
0.102378
0.091333
0.0806461
0.0704074
0.0606905
0.0515575
0.0430632
0.035261
0.028203
0.0218933
0.0163893
0.0117351
0.00795808
0.0050955
0.0030718
0.00174448
0.000939022
0.000482888
0.000238946
0.00011495
5.41003e-05
2.49749e-05
1.13312e-05
5.06092e-06
2.22844e-06
9.68701e-07
4.16259e-07
1.77035e-07
7.45994e-08
3.11663e-08
1.29056e-08
5.28237e-09
2.11808e-09
8.10165e-10
2.70639e-10
4.7401e-11
4.62013e-07
2.01919e-06
4.63856e-06
9.02968e-06
1.63544e-05
2.84927e-05
4.84446e-05
8.09207e-05
0.000133181
0.000216174
0.000345991
0.00054558
0.000846487
0.00129019
0.00192831
0.00282083
0.00403175
0.0056223
0.00764299
0.0101266
0.0130846
0.0165064
0.0203632
0.0246119
0.0292002
0.0340708
0.039164
0.0444204
0.0497829
0.0551979
0.060616
0.065993
0.07129
0.0764738
0.0815166
0.0863956
0.0910923
0.0955926
0.0998863
0.103967
0.107832
0.111479
0.11491
0.118128
0.121136
0.12394
0.126543
0.128951
0.131168
0.133196
0.135036
0.136686
0.138142
0.139393
0.140425
0.141213
0.14172
0.141901
0.141701
0.141023
0.139745
0.134918
0.123623
0.11225
0.100987
0.0899794
0.079341
0.069162
0.0595153
0.0504634
0.0420587
0.0343466
0.0273412
0.0211184
0.0157262
0.0112049
0.00758165
0.00482023
0.00288553
0.00162962
0.000873355
0.000447668
0.00022101
0.000106201
4.9949e-05
2.30503e-05
1.04569e-05
4.67083e-06
2.05715e-06
8.94545e-07
3.84554e-07
1.63626e-07
6.89823e-08
2.88329e-08
1.19442e-08
4.89043e-09
1.9613e-09
7.50231e-10
2.50582e-10
4.38888e-11
4.61669e-07
2.01768e-06
4.63504e-06
9.02267e-06
1.63414e-05
2.84694e-05
4.84039e-05
8.08514e-05
0.000133066
0.000215985
0.000345691
0.000545116
0.000845794
0.00128919
0.00192693
0.00281902
0.00402953
0.00561977
0.00764034
0.0101241
0.0130825
0.0165053
0.0203638
0.0246151
0.029207
0.0340818
0.0391799
0.044442
0.0498107
0.0552324
0.0606575
0.0660418
0.0713462
0.0765374
0.0815874
0.0864733
0.0911765
0.0956826
0.0999816
0.104067
0.107935
0.111585
0.115018
0.118236
0.121244
0.124047
0.126648
0.129053
0.131265
0.133287
0.13512
0.136763
0.138209
0.139451
0.140472
0.141249
0.141744
0.141915
0.141708
0.141026
0.139747
0.133618
0.12233
0.110978
0.0997471
0.0887836
0.078202
0.0680883
0.0585129
0.0495343
0.0411898
0.0335257
0.0266032
0.0204713
0.0151766
0.0107568
0.00723346
0.00458916
0.00272807
0.00153276
0.000818414
0.000418349
0.000206122
9.8947e-05
4.65074e-05
2.14544e-05
9.73142e-06
4.34682e-06
1.91472e-06
8.32814e-07
3.58129e-07
1.52437e-07
6.42896e-08
2.68815e-08
1.11396e-08
4.56218e-09
1.82995e-09
6.99978e-10
2.33798e-10
4.09461e-11
4.6141e-07
2.01654e-06
4.63239e-06
9.01743e-06
1.63317e-05
2.84522e-05
4.83742e-05
8.08014e-05
0.000132983
0.000215854
0.000345486
0.000544809
0.00084535
0.00128858
0.00192614
0.00281807
0.00402849
0.00561876
0.00763953
0.0101239
0.0130834
0.0165079
0.0203687
0.024623
0.0292185
0.0340976
0.0392005
0.0444679
0.0498424
0.0552701
0.0607016
0.0660923
0.0714031
0.0766005
0.0816565
0.0865481
0.0912565
0.0957672
0.10007
0.104159
0.108029
0.111681
0.115114
0.118333
0.12134
0.124141
0.126739
0.12914
0.131347
0.133364
0.13519
0.136825
0.138263
0.139494
0.140505
0.141271
0.141754
0.141915
0.141698
0.141009
0.139728
0.13248
0.121201
0.109871
0.0986773
0.0877645
0.0772293
0.0671602
0.0576271
0.048686
0.0403999
0.0328137
0.0259705
0.0199217
0.0147132
0.0103813
0.00694458
0.00438015
0.00260182
0.0014536
0.000773118
0.000394234
0.00019389
9.29885e-05
4.36802e-05
2.01426e-05
9.13472e-06
4.0801e-06
1.79736e-06
7.81891e-07
3.36307e-07
1.43187e-07
6.04056e-08
2.52646e-08
1.04723e-08
4.28977e-09
1.72089e-09
6.58293e-10
2.19882e-10
3.8505e-11
4.6123e-07
2.01575e-06
4.63055e-06
9.0138e-06
1.6325e-05
2.84404e-05
4.83542e-05
8.07682e-05
0.00013293
0.00021577
0.000345361
0.000544628
0.000845106
0.00128827
0.00192579
0.00281771
0.00402822
0.00561877
0.00764014
0.0101255
0.0130864
0.0165129
0.0203762
0.0246335
0.0292326
0.0341157
0.0392231
0.0444954
0.049875
0.0553081
0.060745
0.0661412
0.0714574
0.07666
0.081721
0.0866171
0.0913295
0.0958438
0.10015
0.10424
0.108112
0.111765
0.115198
0.118416
0.121422
0.12422
0.126815
0.129212
0.131414
0.133425
0.135244
0.136871
0.1383
0.139523
0.140523
0.141278
0.14175
0.141901
0.141673
0.140975
0.139693
0.131519
0.120237
0.10892
0.09775
0.0868548
0.0763504
0.0663218
0.0568385
0.0479589
0.039735
0.032214
0.0254387
0.0194611
0.0143264
0.0100696
0.00670656
0.00420994
0.00248826
0.00139043
0.000736809
0.00037457
0.000183902
8.81302e-05
4.13761e-05
1.90735e-05
8.64812e-06
3.86244e-06
1.7015e-06
7.40256e-07
3.18447e-07
1.35609e-07
5.72209e-08
2.39379e-08
9.92431e-09
4.06596e-09
1.63128e-09
6.24044e-10
2.08451e-10
3.65006e-11
4.61116e-07
2.01525e-06
4.62939e-06
9.01151e-06
1.63208e-05
2.84331e-05
4.83419e-05
8.07482e-05
0.000132899
0.000215723
0.000345295
0.000544542
0.000845002
0.00128817
0.00192571
0.00281777
0.00402855
0.00561959
0.00764173
0.0101282
0.0130906
0.0165191
0.0203848
0.024645
0.0292474
0.0341342
0.0392456
0.0445221
0.0499063
0.0553439
0.0607855
0.0661862
0.0715068
0.0767136
0.0817784
0.0866781
0.0913935
0.0959104
0.100218
0.10431
0.108183
0.111836
0.115269
0.118485
0.121489
0.124284
0.126876
0.129268
0.131466
0.13347
0.135283
0.136902
0.138323
0.139536
0.140527
0.141272
0.141734
0.141876
0.14164
0.140934
0.139649
0.130721
0.119431
0.108122
0.0969632
0.0860943
0.0756223
0.0656316
0.0561912
0.0473591
0.0391861
0.0317188
0.0249997
0.0190813
0.0140081
0.00981404
0.00651257
0.00407236
0.0023976
0.0013346
0.000707694
0.000359148
0.00017595
8.42362e-05
3.95261e-05
1.8214e-05
8.25644e-06
3.68702e-06
1.62416e-06
7.06631e-07
3.0401e-07
1.29478e-07
5.46428e-08
2.28632e-08
9.48028e-09
3.88456e-09
1.5587e-09
5.96314e-10
1.99192e-10
3.48782e-11
4.6105e-07
2.01496e-06
4.62872e-06
9.01021e-06
1.63185e-05
2.84291e-05
4.83353e-05
8.07378e-05
0.000132883
0.000215702
0.000345268
0.000544514
0.000844987
0.0012882
0.00192585
0.0028181
0.00402922
0.00562081
0.00764376
0.0101313
0.0130953
0.0165255
0.0203935
0.0246562
0.0292615
0.0341515
0.0392663
0.0445465
0.0499343
0.0553758
0.060821
0.0662254
0.0715495
0.0767595
0.0818272
0.0867294
0.091447
0.0959655
0.100275
0.104367
0.10824
0.111892
0.115325
0.118539
0.121541
0.124333
0.126921
0.129309
0.131501
0.1335
0.135306
0.136918
0.138331
0.139536
0.140518
0.141256
0.141711
0.141849
0.141614
0.14092
0.13967
0.130069
0.118769
0.107462
0.0963194
0.0854737
0.0750298
0.0650715
0.055667
0.0468737
0.038742
0.0313184
0.0246451
0.0187749
0.0137519
0.00960883
0.00635737
0.00396287
0.00232603
0.00129109
0.000682721
0.000346692
0.000169782
8.12024e-05
3.80715e-05
1.75355e-05
7.94675e-06
3.54819e-06
1.5629e-06
6.7998e-07
2.92562e-07
1.24615e-07
5.25976e-08
2.20106e-08
9.12825e-09
3.74094e-09
1.50124e-09
5.74372e-10
1.91862e-10
3.35947e-11
4.61018e-07
2.01482e-06
4.62839e-06
9.00957e-06
1.63173e-05
2.84272e-05
4.83323e-05
8.07335e-05
0.000132878
0.000215696
0.000345266
0.000544524
0.000845028
0.0012883
0.00192607
0.00281854
0.00403001
0.00562212
0.00764581
0.0101344
0.0130996
0.0165315
0.0204013
0.0246662
0.0292738
0.0341664
0.0392841
0.0445671
0.0499579
0.0554023
0.0608504
0.0662575
0.0715842
0.0767965
0.0818663
0.0867701
0.0914891
0.0960086
0.100318
0.104411
0.108284
0.111935
0.115366
0.118579
0.121578
0.124367
0.126951
0.129335
0.131522
0.133515
0.135314
0.136919
0.138325
0.139522
0.140496
0.141225
0.141673
0.141804
0.141565
0.140869
0.139623
0.12957
0.118255
0.106946
0.0958132
0.0849846
0.0745631
0.0646308
0.0552552
0.0464929
0.0383942
0.0310052
0.024368
0.0185359
0.0135523
0.00944945
0.0062372
0.0038784
0.00227105
0.00125786
0.000663872
0.000336463
0.000164829
7.88732e-05
3.69655e-05
1.70173e-05
7.70918e-06
3.44146e-06
1.51578e-06
6.59497e-07
2.83772e-07
1.20888e-07
5.10331e-08
2.13599e-08
8.85988e-09
3.63144e-09
1.45743e-09
5.57638e-10
1.86271e-10
3.26158e-11
4.61005e-07
2.01476e-06
4.62826e-06
9.00931e-06
1.63169e-05
2.84265e-05
4.83313e-05
8.07325e-05
0.000132877
0.000215699
0.000345276
0.000544551
0.000845088
0.00128843
0.00192631
0.00281896
0.00403073
0.00562328
0.00764758
0.010137
0.0131032
0.0165363
0.0204076
0.0246742
0.0292837
0.0341783
0.039298
0.0445832
0.0499761
0.0554227
0.0608729
0.0662819
0.0716102
0.0768241
0.081895
0.0867998
0.0915194
0.0960393
0.100349
0.104442
0.108314
0.111964
0.115393
0.118604
0.121601
0.124387
0.126968
0.129348
0.13153
0.133517
0.135311
0.13691
0.138308
0.139497
0.140464
0.141185
0.141626
0.141752
0.14151
0.140815
0.139579
0.129202
0.117868
0.106558
0.095432
0.0846169
0.074213
0.0643012
0.054948
0.0462096
0.0381361
0.0307732
0.0241632
0.0183596
0.0134055
0.0093325
0.00614933
0.00381686
0.00223112
0.00123379
0.000650243
0.000329114
0.000161009
7.70073e-05
3.61167e-05
1.66355e-05
7.53682e-06
3.36469e-06
1.48204e-06
6.44855e-07
2.77495e-07
1.18226e-07
4.99147e-08
2.08942e-08
8.66759e-09
3.55292e-09
1.42599e-09
5.45627e-10
1.82256e-10
3.19132e-11
4.61002e-07
2.01475e-06
4.62823e-06
9.00925e-06
1.63168e-05
2.84264e-05
4.83313e-05
8.07329e-05
0.000132879
0.000215703
0.000345287
0.000544576
0.00084514
0.00128853
0.0019265
0.00281929
0.00403127
0.00562412
0.00764886
0.0101388
0.0131058
0.0165397
0.020412
0.0246798
0.0292905
0.0341864
0.0393075
0.0445941
0.0499885
0.0554364
0.0608879
0.0662981
0.0716274
0.0768421
0.0819136
0.0868186
0.0915384
0.0960582
0.100368
0.10446
0.108331
0.11198
0.115408
0.118618
0.121612
0.124396
0.126974
0.12935
0.131528
0.133511
0.1353
0.136893
0.138285
0.139468
0.140427
0.141142
0.141577
0.141699
0.141457
0.140767
0.139547
0.128959
0.117608
0.106293
0.0951715
0.084366
0.0739751
0.0640783
0.0547412
0.0460197
0.0379638
0.030619
0.0240275
0.0182432
0.0133089
0.00925586
0.00609201
0.00377694
0.00220535
0.00121829
0.000641489
0.000324423
0.000158659
7.58577e-05
3.55599e-05
1.6377e-05
7.4223e-06
3.31428e-06
1.46008e-06
6.35395e-07
2.73461e-07
1.1652e-07
4.91996e-08
2.05965e-08
8.54469e-09
3.5027e-09
1.40587e-09
5.37937e-10
1.79684e-10
3.14631e-11
4.61004e-07
2.01476e-06
4.62825e-06
9.00928e-06
1.63168e-05
2.84265e-05
4.83315e-05
8.07334e-05
0.00013288
0.000215706
0.000345294
0.00054459
0.000845168
0.00128858
0.00192659
0.00281945
0.00403154
0.00562455
0.0076495
0.0101397
0.0131071
0.0165414
0.0204142
0.0246825
0.0292938
0.0341904
0.0393122
0.0445995
0.0499946
0.0554432
0.0608953
0.066306
0.0716358
0.0768508
0.0819225
0.0868275
0.091547
0.0960665
0.100376
0.104467
0.108338
0.111987
0.115414
0.118622
0.121615
0.124397
0.126973
0.129347
0.131523
0.133503
0.135288
0.136877
0.138265
0.139443
0.140398
0.141109
0.141539
0.141659
0.141417
0.140734
0.139529
0.128839
0.117472
0.106153
0.0950341
0.0842347
0.0738518
0.0639638
0.054636
0.045924
0.0378777
0.0305426
0.023961
0.0181865
0.0132622
0.00921913
0.00606476
0.00375812
0.0021933
0.00121111
0.000637445
0.00032226
0.000157584
7.53352e-05
3.53106e-05
1.62601e-05
7.36814e-06
3.29005e-06
1.44947e-06
6.30815e-07
2.71508e-07
1.15696e-07
4.88542e-08
2.04529e-08
8.48542e-09
3.47849e-09
1.39616e-09
5.34222e-10
1.7844e-10
3.12454e-11
4.61009e-07
2.01478e-06
4.6283e-06
9.00938e-06
1.6317e-05
2.84268e-05
4.83321e-05
8.07344e-05
0.000132882
0.000215709
0.000345298
0.000544596
0.000845177
0.00128859
0.00192661
0.00281948
0.00403157
0.0056246
0.00764956
0.0101398
0.0131071
0.0165415
0.0204143
0.0246826
0.029294
0.0341906
0.0393124
0.0445997
0.0499947
0.0554433
0.0608954
0.0663062
0.071636
0.076851
0.0819226
0.0868277
0.0915471
0.0960667
0.100376
0.104468
0.108338
0.111987
0.115414
0.118622
0.121615
0.124397
0.126973
0.129347
0.131523
0.133503
0.135288
0.136877
0.138265
0.139443
0.140398
0.141109
0.141539
0.141659
0.141417
0.140734
0.139529
0.128839
0.117472
0.106153
0.0950338
0.0842345
0.0738515
0.0639636
0.0546358
0.0459239
0.0378775
0.0305424
0.0239608
0.0181864
0.0132621
0.00921907
0.00606471
0.00375809
0.00219328
0.0012111
0.000637438
0.000322256
0.000157582
7.53343e-05
3.53102e-05
1.62599e-05
7.36805e-06
3.29001e-06
1.44945e-06
6.30808e-07
2.71505e-07
1.15695e-07
4.88537e-08
2.04527e-08
8.48532e-09
3.47845e-09
1.39615e-09
5.34216e-10
1.78437e-10
3.12452e-11
4.61017e-07
2.01482e-06
4.62839e-06
9.00955e-06
1.63173e-05
2.84273e-05
4.83329e-05
8.07355e-05
0.000132883
0.00021571
0.000345298
0.000544593
0.000845165
0.00128856
0.00192655
0.00281936
0.00403137
0.00562426
0.00764903
0.010139
0.013106
0.01654
0.0204124
0.0246801
0.0292909
0.0341868
0.0393079
0.0445946
0.0499889
0.0554368
0.0608883
0.0662985
0.0716279
0.0768425
0.081914
0.086819
0.0915388
0.0960586
0.100368
0.10446
0.108331
0.111981
0.115409
0.118618
0.121612
0.124396
0.126974
0.12935
0.131528
0.133511
0.1353
0.136893
0.138285
0.139468
0.140427
0.141143
0.141577
0.141699
0.141457
0.140767
0.139547
0.128958
0.117607
0.106292
0.0951706
0.0843652
0.0739744
0.0640776
0.0547406
0.0460192
0.0379633
0.0306186
0.0240272
0.0182429
0.0133086
0.00925567
0.00609187
0.00377684
0.00220529
0.00121826
0.00064147
0.000324413
0.000158654
7.58552e-05
3.55587e-05
1.63764e-05
7.42206e-06
3.31418e-06
1.46004e-06
6.35376e-07
2.73452e-07
1.16517e-07
4.91979e-08
2.05958e-08
8.54438e-09
3.50258e-09
1.40582e-09
5.37918e-10
1.79675e-10
3.14626e-11
4.6103e-07
2.01487e-06
4.62852e-06
9.0098e-06
1.63178e-05
2.8428e-05
4.83339e-05
8.07369e-05
0.000132884
0.00021571
0.000345294
0.000544579
0.000845132
0.00128849
0.00192641
0.0028191
0.00403091
0.00562351
0.00764788
0.0101373
0.0131036
0.0165368
0.0204082
0.0246748
0.0292843
0.034179
0.0392987
0.0445839
0.0499769
0.0554234
0.0608736
0.0662826
0.071611
0.0768248
0.0818957
0.0868005
0.0915201
0.09604
0.10035
0.104442
0.108314
0.111964
0.115394
0.118605
0.121601
0.124388
0.126968
0.129348
0.13153
0.133518
0.135311
0.13691
0.138308
0.139498
0.140464
0.141186
0.141626
0.141752
0.14151
0.140815
0.139579
0.1292
0.117867
0.106556
0.0954305
0.0846155
0.0742117
0.0643001
0.0549469
0.0462087
0.0381352
0.0307725
0.0241626
0.0183591
0.0134051
0.00933217
0.00614908
0.00381669
0.00223101
0.00123372
0.000650207
0.000329095
0.000161
7.70027e-05
3.61145e-05
1.66345e-05
7.53639e-06
3.36449e-06
1.48195e-06
6.44816e-07
2.77478e-07
1.18218e-07
4.99114e-08
2.08928e-08
8.66699e-09
3.55267e-09
1.42589e-09
5.45591e-10
1.82239e-10
3.19121e-11
4.61053e-07
2.01497e-06
4.62874e-06
9.01024e-06
1.63186e-05
2.84293e-05
4.83359e-05
8.07395e-05
0.000132887
0.000215712
0.000345291
0.000544564
0.000845088
0.00128839
0.0019262
0.00281872
0.00403026
0.00562244
0.00764622
0.0101349
0.0131002
0.0165321
0.0204021
0.024667
0.0292747
0.0341674
0.0392851
0.0445682
0.049959
0.0554034
0.0608515
0.0662586
0.0715852
0.0767976
0.0818673
0.0867711
0.0914901
0.0960095
0.100319
0.104412
0.108285
0.111936
0.115367
0.118579
0.121578
0.124368
0.126952
0.129335
0.131522
0.133515
0.135315
0.13692
0.138325
0.139522
0.140496
0.141226
0.141673
0.141804
0.141565
0.140869
0.139622
0.129567
0.118252
0.106944
0.0958111
0.0849826
0.0745613
0.0646292
0.0552537
0.0464916
0.0383931
0.0310042
0.0243671
0.0185352
0.0135517
0.00944897
0.00623685
0.00387816
0.00227089
0.00125777
0.00066382
0.000336436
0.000164815
7.88667e-05
3.69625e-05
1.70159e-05
7.70851e-06
3.44114e-06
1.51564e-06
6.59432e-07
2.83743e-07
1.20876e-07
5.10278e-08
2.13577e-08
8.85896e-09
3.63106e-09
1.45728e-09
5.57583e-10
1.86245e-10
3.26141e-11
4.61095e-07
2.01516e-06
4.62917e-06
9.01107e-06
1.632e-05
2.84318e-05
4.83399e-05
8.07455e-05
0.000132896
0.000215722
0.0003453
0.000544565
0.000845064
0.00128831
0.00192601
0.00281833
0.00402954
0.00562122
0.00764428
0.010132
0.013096
0.0165264
0.0203945
0.0246573
0.0292626
0.0341527
0.0392676
0.0445478
0.0499357
0.0553772
0.0608224
0.0662268
0.0715508
0.0767609
0.0818286
0.0867307
0.0914483
0.0959667
0.100276
0.104368
0.108241
0.111893
0.115325
0.11854
0.121542
0.124334
0.126922
0.12931
0.131502
0.1335
0.135306
0.136918
0.138331
0.139536
0.140518
0.141256
0.141711
0.141849
0.141614
0.14092
0.13967
0.130065
0.118765
0.107459
0.0963166
0.0854711
0.0750275
0.0650694
0.0556651
0.0468719
0.0387405
0.0313171
0.0246439
0.0187739
0.0137511
0.0096082
0.0063569
0.00396254
0.00232582
0.00129096
0.000682652
0.000346656
0.000169765
8.1194e-05
3.80673e-05
1.75334e-05
7.94578e-06
3.54775e-06
1.5627e-06
6.79891e-07
2.92523e-07
1.24599e-07
5.25904e-08
2.20076e-08
9.12698e-09
3.74042e-09
1.50104e-09
5.74296e-10
1.91827e-10
3.35921e-11
4.6117e-07
2.01549e-06
4.62993e-06
9.01256e-06
1.63227e-05
2.84364e-05
4.83475e-05
8.07575e-05
0.000132914
0.000215748
0.000345333
0.000544601
0.000845093
0.0012883
0.00192591
0.00281805
0.00402893
0.00562009
0.00764236
0.010129
0.0130916
0.0165202
0.020386
0.0246463
0.0292488
0.0341357
0.0392472
0.0445238
0.049908
0.0553457
0.0607872
0.0661879
0.0715085
0.0767153
0.0817801
0.0866796
0.0913951
0.0959118
0.10022
0.104312
0.108184
0.111837
0.11527
0.118486
0.12149
0.124285
0.126877
0.129269
0.131466
0.133471
0.135283
0.136902
0.138323
0.139536
0.140527
0.141272
0.141734
0.141876
0.14164
0.140934
0.139649
0.130717
0.119427
0.108119
0.0969597
0.0860911
0.0756193
0.0656289
0.0561888
0.0473569
0.0391841
0.0317171
0.0249982
0.0190801
0.0140071
0.00981324
0.00651197
0.00407194
0.00239733
0.00133444
0.000707604
0.000359102
0.000175926
8.42241e-05
3.95203e-05
1.82113e-05
8.25517e-06
3.68644e-06
1.6239e-06
7.06517e-07
3.0396e-07
1.29457e-07
5.46338e-08
2.28593e-08
9.47867e-09
3.8839e-09
1.55844e-09
5.96216e-10
1.99148e-10
3.48746e-11
4.61294e-07
2.01603e-06
4.63119e-06
9.01504e-06
1.63273e-05
2.84443e-05
4.83608e-05
8.07791e-05
0.000132948
0.000215799
0.000345406
0.000544699
0.000845213
0.00128843
0.00192602
0.00281804
0.00402867
0.00561936
0.00764089
0.0101264
0.0130875
0.0165141
0.0203776
0.0246351
0.0292343
0.0341175
0.039225
0.0444973
0.049877
0.0553102
0.0607471
0.0661432
0.0714594
0.076662
0.0817229
0.086619
0.0913314
0.0958456
0.100151
0.104242
0.108114
0.111766
0.1152
0.118418
0.121423
0.124221
0.126816
0.129213
0.131415
0.133426
0.135245
0.136872
0.138301
0.139523
0.140523
0.141278
0.14175
0.141901
0.141673
0.140975
0.139693
0.131514
0.120232
0.108915
0.0977458
0.0868509
0.0763468
0.0663185
0.0568355
0.0479562
0.0397327
0.032212
0.0254369
0.0194596
0.0143251
0.0100686
0.00670581
0.00420942
0.00248792
0.00139023
0.000736698
0.000374508
0.000183871
8.8115e-05
4.13689e-05
1.90702e-05
8.64658e-06
3.86174e-06
1.70119e-06
7.4012e-07
3.18388e-07
1.35583e-07
5.72101e-08
2.39333e-08
9.92239e-09
4.06517e-09
1.63097e-09
6.23919e-10
2.08399e-10
3.64957e-11
4.61483e-07
2.01686e-06
4.63312e-06
9.01884e-06
1.63342e-05
2.84566e-05
4.83818e-05
8.0814e-05
0.000133004
0.000215887
0.000345539
0.00054489
0.000845473
0.00128876
0.0019264
0.00281844
0.004029
0.00561944
0.0076404
0.0101249
0.0130846
0.0165093
0.0203704
0.0246248
0.0292205
0.0340997
0.0392027
0.0444702
0.0498447
0.0552725
0.060704
0.0660946
0.0714054
0.0766028
0.0816588
0.0865503
0.0912586
0.0957693
0.100072
0.104161
0.108031
0.111682
0.115116
0.118334
0.121342
0.124142
0.12674
0.129141
0.131349
0.133365
0.135191
0.136826
0.138263
0.139495
0.140505
0.141271
0.141755
0.141916
0.141699
0.141009
0.139728
0.132474
0.121195
0.109865
0.0986722
0.0877598
0.077225
0.0671563
0.0576235
0.0486829
0.040397
0.0328112
0.0259684
0.0199199
0.0147117
0.0103801
0.00694366
0.0043795
0.0026014
0.00145335
0.000772977
0.00039416
0.000193853
9.29703e-05
4.36716e-05
2.01387e-05
9.1329e-06
4.07929e-06
1.797e-06
7.81732e-07
3.36238e-07
1.43157e-07
6.03928e-08
2.52592e-08
1.047e-08
4.28885e-09
1.72052e-09
6.58144e-10
2.19821e-10
3.84987e-11
4.61751e-07
2.01804e-06
4.63586e-06
9.02426e-06
1.63442e-05
2.84744e-05
4.84124e-05
8.08656e-05
0.000133089
0.000216022
0.00034575
0.000545208
0.000845934
0.0012894
0.00192723
0.00281944
0.0040301
0.00562052
0.00764129
0.0101253
0.013084
0.016507