/*--------------------------------*- C++ -*----------------------------------*\
  =========                 |
  \\      /  F ield         | OpenFOAM: The Open Source CFD Toolbox
   \\    /   O peration     | Website:  https://openfoam.org
    \\  /    A nd           | Version:  8
     \\/     M anipulation  |
\*---------------------------------------------------------------------------*/
FoamFile
{
    version     2.0;
    format      ascii;
    class       volScalarField;
    location    "460/fluid";
    object      H2O;
}
// * * * * * * * * * * * * * * * * * * * * * * * * * * * * * * * * * * * * * //

dimensions      [0 0 0 0 0 0 0];

internalField   nonuniform List<scalar> 
4000
(
3.68704e-07
1.61081e-06
3.69795e-06
7.19302e-06
1.30197e-05
2.2679e-05
3.85812e-05
6.45427e-05
0.000106505
0.000173533
0.000279121
0.000442764
0.000691593
0.00106165
0.00159811
0.00235363
0.00338432
0.00474287
0.0064707
0.00859232
0.011112
0.0140147
0.0172694
0.0208342
0.0246604
0.0286966
0.0328913
0.037195
0.041561
0.0459467
0.0503141
0.0546296
0.0588645
0.0629951
0.067002
0.0708698
0.0745867
0.0781438
0.0815357
0.0847591
0.0878132
0.0906988
0.0934184
0.0959748
0.098372
0.100615
0.102707
0.104654
0.106459
0.108126
0.109656
0.111051
0.11231
0.113428
0.114399
0.115212
0.11585
0.116293
0.116503
0.116454
0.116085
0.115325
0.114095
0.105629
0.096919
0.0881437
0.079439
0.0709094
0.062637
0.0546873
0.0471143
0.039965
0.0332821
0.0271273
0.0214994
0.0164731
0.012102
0.00843939
0.00552831
0.00337364
0.00191241
0.00101118
0.000503286
0.000239578
0.00011067
4.99293e-05
2.21011e-05
9.63142e-06
4.14314e-06
1.76299e-06
7.43372e-07
3.11046e-07
1.29295e-07
5.3423e-08
2.19309e-08
8.91837e-09
3.55974e-09
1.35777e-09
4.53186e-10
7.9424e-11
3.71101e-07
1.62184e-06
3.72567e-06
7.25327e-06
1.31418e-05
2.29143e-05
3.90148e-05
6.53059e-05
0.000107783
0.000175556
0.000282119
0.00044686
0.000696592
0.00106671
0.00160139
0.00235217
0.00337376
0.0047178
0.00642608
0.00852389
0.0110172
0.0138931
0.0171227
0.0206659
0.0244752
0.0285
0.0326889
0.036992
0.0413622
0.0457561
0.0501347
0.054464
0.0587144
0.0628616
0.0668855
0.0707704
0.074504
0.0780773
0.0814843
0.0847218
0.0877891
0.0906871
0.0934171
0.0959827
0.0983879
0.100637
0.102735
0.104687
0.106495
0.108164
0.109695
0.11109
0.112346
0.11346
0.114423
0.115224
0.115845
0.116259
0.116429
0.11632
0.115864
0.114982
0.113597
0.104967
0.0961411
0.0872835
0.0785195
0.0699472
0.0616449
0.0536761
0.0460943
0.0389468
0.0322782
0.026161
0.0205814
0.0156282
0.0113571
0.00782114
0.00505573
0.00304842
0.00171409
0.000904314
0.000451935
0.000216775
0.000101102
4.60837e-05
2.06029e-05
9.05935e-06
3.92683e-06
1.68123e-06
7.12234e-07
2.9903e-07
1.24585e-07
5.15503e-08
2.1179e-08
8.61608e-09
3.43983e-09
1.31224e-09
4.38049e-10
7.6792e-11
3.74929e-07
1.63896e-06
3.76665e-06
7.33692e-06
1.33e-05
2.31979e-05
3.94994e-05
6.60955e-05
0.000109008
0.000177358
0.000284607
0.000450039
0.000700263
0.00107043
0.00160442
0.00235287
0.00336925
0.00470435
0.00639921
0.00847927
0.0109512
0.0138035
0.0170088
0.0205287
0.0243175
0.0283255
0.0325023
0.0367982
0.0411663
0.0455628
0.0499483
0.0542881
0.0585522
0.0627151
0.0667566
0.07066
0.0744125
0.0780047
0.0814306
0.0846869
0.0877715
0.0906844
0.0934284
0.0960066
0.098423
0.100682
0.102788
0.104746
0.10656
0.108232
0.109765
0.111159
0.112413
0.113521
0.114475
0.115261
0.115859
0.116236
0.116352
0.116154
0.11555
0.114418
0.112601
0.103775
0.0948169
0.0858701
0.0770496
0.0684468
0.0601359
0.0521786
0.0446281
0.0375321
0.0309363
0.0249153
0.019457
0.0146511
0.010549
0.0071954
0.00461038
0.00276146
0.00154755
0.000816599
0.000409358
0.00019718
9.24121e-05
4.23381e-05
1.90244e-05
8.40558e-06
3.65943e-06
1.57276e-06
6.68422e-07
2.81354e-07
1.17446e-07
4.86605e-08
2.00082e-08
8.14336e-09
3.2517e-09
1.24053e-09
4.14084e-10
7.25804e-11
3.77481e-07
1.6501e-06
3.79215e-06
7.38613e-06
1.33873e-05
2.33442e-05
3.97329e-05
6.6451e-05
0.00010952
0.000178042
0.000285429
0.000450857
0.00070075
0.00106989
0.00160143
0.0023455
0.00335528
0.00468124
0.00636429
0.00843008
0.0108859
0.013721
0.0169091
0.0204127
0.024187
0.028183
0.032351
0.0366416
0.041008
0.0454066
0.0497977
0.0541463
0.0584218
0.0625986
0.0666556
0.0705761
0.0743468
0.0779581
0.0814023
0.084675
0.0877752
0.0907034
0.0934616
0.0960527
0.0984806
0.10075
0.102864
0.104829
0.106648
0.108323
0.109858
0.111253
0.112504
0.113608
0.114555
0.11533
0.115914
0.116271
0.116364
0.116138
0.115504
0.114348
0.111065
0.102146
0.0931202
0.0841316
0.0752927
0.0666938
0.0584085
0.0504981
0.0430154
0.0360086
0.0295236
0.0236167
0.0183113
0.0136744
0.00975292
0.00658403
0.00417512
0.00247796
0.0013794
0.000725231
0.000363294
0.000175258
8.23616e-05
3.78619e-05
1.70771e-05
7.57473e-06
3.31063e-06
1.42823e-06
6.09144e-07
2.57224e-07
1.07676e-07
4.47198e-08
1.84246e-08
7.51089e-09
3.00289e-09
1.14664e-09
3.8294e-10
6.71322e-11
3.78915e-07
1.65628e-06
3.806e-06
7.41211e-06
1.34319e-05
2.34163e-05
3.98434e-05
6.66109e-05
0.000109736
0.000178311
0.000285716
0.000451046
0.000700547
0.0010687
0.00159838
0.0023393
0.00334426
0.0046634
0.00633753
0.00839249
0.0108361
0.0136581
0.0168332
0.0203246
0.0240881
0.0280756
0.0322375
0.0365249
0.040891
0.0452923
0.049689
0.0540457
0.0583317
0.0625213
0.0665931
0.0705295
0.0743162
0.0779423
0.0814012
0.0846891
0.0878042
0.0907464
0.0935175
0.0961203
0.0985585
0.100836
0.102958
0.104929
0.106752
0.10843
0.109966
0.111359
0.112608
0.113707
0.114647
0.115414
0.115988
0.116332
0.116414
0.116177
0.11554
0.114394
0.109179
0.100268
0.0912437
0.0822615
0.0734409
0.064876
0.0566421
0.0488014
0.0414076
0.0345086
0.0281507
0.0223747
0.0172293
0.0127643
0.00902209
0.00603213
0.00378929
0.00223109
0.00123509
0.000647524
0.00032422
0.000156601
7.37439e-05
3.39829e-05
1.53667e-05
6.83324e-06
2.99367e-06
1.29432e-06
5.53125e-07
2.33976e-07
9.80919e-08
4.07917e-08
1.68239e-08
6.86416e-09
2.74607e-09
1.04903e-09
3.50403e-10
6.14243e-11
3.79471e-07
1.65862e-06
3.81101e-06
7.42091e-06
1.34458e-05
2.34362e-05
3.98688e-05
6.66357e-05
0.00010974
0.000178238
0.000285451
0.000450378
0.000699135
0.00106604
0.00159374
0.0023317
0.0033325
0.00464615
0.0063135
0.00836057
0.0107955
0.0136086
0.0167751
0.0202586
0.0240156
0.0279981
0.0321571
0.0364438
0.0408114
0.0452166
0.0496196
0.0539849
0.0582816
0.0624831
0.0665671
0.0705155
0.0743147
0.0779545
0.0814273
0.0847287
0.0878566
0.0908108
0.0935928
0.0962054
0.0986521
0.100937
0.103065
0.105039
0.106864
0.108543
0.110078
0.111468
0.112711
0.113803
0.114733
0.115488
0.116046
0.116372
0.116434
0.116174
0.115508
0.114329
0.107282
0.0983988
0.0893931
0.080432
0.0716426
0.063123
0.0549503
0.0471873
0.0398871
0.0330973
0.0268792
0.0212387
0.0162445
0.0119412
0.00836611
0.00554057
0.00344785
0.00201327
0.00110747
0.00057824
0.000288925
0.000139526
6.57514e-05
3.03402e-05
1.37431e-05
6.1231e-06
2.68802e-06
1.16455e-06
4.98647e-07
2.1132e-07
8.87419e-08
3.69579e-08
1.52618e-08
6.23313e-09
2.49553e-09
9.53799e-10
3.18658e-10
5.58548e-11
3.79555e-07
1.65893e-06
3.81151e-06
7.42125e-06
1.34448e-05
2.34307e-05
3.98514e-05
6.65907e-05
0.000109636
0.00017802
0.000285019
0.000449566
0.000697676
0.00106353
0.00158962
0.00232523
0.0033228
0.00463228
0.00629458
0.00833593
0.0107648
0.0135718
0.0167327
0.0202115
0.0239649
0.0279453
0.0321038
0.0363918
0.040763
0.0451736
0.0495837
0.0539573
0.0582627
0.0624734
0.0665676
0.0705277
0.0743391
0.077991
0.0814758
0.0847886
0.0879272
0.0908913
0.0936821
0.0963024
0.0987555
0.101046
0.103177
0.105153
0.106979
0.108656
0.110187
0.111571
0.112806
0.113886
0.114801
0.115537
0.116071
0.116367
0.116397
0.1161
0.115398
0.114203
0.105668
0.096759
0.0877324
0.0787679
0.069996
0.0615144
0.0533991
0.0457108
0.0385008
0.031815
0.0257225
0.0202106
0.0153586
0.0112067
0.00778662
0.00511132
0.00315328
0.00182745
0.000999541
0.000519957
0.000259279
0.000125157
5.89972e-05
2.72434e-05
1.23527e-05
5.50999e-06
2.42188e-06
1.05059e-06
4.50417e-07
1.91112e-07
8.03463e-08
3.34954e-08
1.38441e-08
5.65811e-09
2.26647e-09
8.66515e-10
2.89513e-10
5.07364e-11
3.79328e-07
1.65789e-06
3.8089e-06
7.41553e-06
1.34329e-05
2.34071e-05
3.98054e-05
6.65031e-05
0.000109473
0.000177724
0.000284496
0.000448665
0.000696172
0.0010611
0.00158584
0.00231957
0.00331466
0.00462108
0.00627982
0.00831729
0.0107422
0.0135456
0.0167034
0.0201799
0.023932
0.0279126
0.0320729
0.0363642
0.0407399
0.045156
0.049572
0.0539524
0.0582661
0.0624863
0.0665908
0.0705614
0.0743834
0.0780457
0.0815405
0.0848627
0.0880101
0.090982
0.0937797
0.0964057
0.0988634
0.101157
0.10329
0.105267
0.107091
0.108765
0.11029
0.111666
0.112889
0.113953
0.114846
0.115554
0.11605
0.116295
0.116259
0.115874
0.115059
0.113739
0.104702
0.0955194
0.0863503
0.0773225
0.0685384
0.06008
0.0520134
0.0443933
0.0372663
0.0306745
0.0246802
0.0192818
0.0145642
0.0105565
0.00728163
0.00474173
0.00290205
0.00167002
0.000908381
0.000470697
0.000234133
0.000112912
5.32106e-05
2.4576e-05
1.11489e-05
4.97674e-06
2.18944e-06
9.50687e-07
4.08003e-07
1.73292e-07
7.29253e-08
3.04288e-08
1.25864e-08
5.14725e-09
2.06273e-09
7.88808e-10
2.6355e-10
4.61751e-11
3.78971e-07
1.6563e-06
3.80508e-06
7.40767e-06
1.34177e-05
2.33786e-05
3.97533e-05
6.64095e-05
0.000109308
0.000177438
0.000284011
0.000447862
0.000694878
0.00105908
0.00158278
0.0023151
0.00330841
0.0046127
0.00626906
0.00830409
0.0107267
0.0135282
0.0166847
0.0201609
0.0239138
0.0278962
0.0320592
0.0363539
0.0407336
0.0451548
0.0495775
0.0539657
0.0582878
0.0625168
0.0666304
0.0706102
0.0744413
0.0781123
0.0816154
0.0849454
0.0880996
0.0910776
0.0938805
0.0965106
0.0989712
0.101266
0.1034
0.105375
0.107197
0.108866
0.110385
0.111751
0.112962
0.114009
0.11488
0.115556
0.116006
0.116189
0.11606
0.115528
0.114476
0.112763
0.103564
0.0942736
0.0850435
0.0759938
0.067219
0.0587946
0.0507821
0.0432329
0.0361914
0.0296992
0.023812
0.0185406
0.0139295
0.0100229
0.00685781
0.00443152
0.00269163
0.00153854
0.000832423
0.000429681
0.000213176
0.000102684
4.83625e-05
2.23333e-05
1.0133e-05
4.52493e-06
1.99173e-06
8.65395e-07
3.71663e-07
1.57975e-07
6.6528e-08
2.77785e-08
1.1497e-08
4.70401e-09
1.8857e-09
7.21217e-10
2.40956e-10
4.2202e-11
3.7859e-07
1.65461e-06
3.8011e-06
7.39963e-06
1.34025e-05
2.33507e-05
3.97035e-05
6.63221e-05
0.000109158
0.000177184
0.000283591
0.000447185
0.000693816
0.00105746
0.0015804
0.00231173
0.00330384
0.00460675
0.0062617
0.00829543
0.0107171
0.0135182
0.0166749
0.020152
0.0239064
0.0278909
0.0320567
0.0363553
0.0407403
0.0451676
0.049597
0.0539925
0.0583222
0.0625592
0.0666808
0.0706684
0.0745072
0.0781856
0.0816954
0.0850315
0.0881911
0.0911737
0.0939802
0.096613
0.0990753
0.101371
0.103504
0.105478
0.107296
0.108961
0.110473
0.111831
0.113031
0.114065
0.11492
0.115576
0.116002
0.116159
0.115998
0.115435
0.11436
0.111645
0.102386
0.0930594
0.083816
0.0747735
0.0660242
0.0576419
0.0496868
0.0422097
0.0352554
0.0288678
0.0230896
0.0179239
0.0134178
0.00960738
0.00651521
0.00417164
0.00251485
0.00142819
0.000768769
0.000395336
0.000195623
9.41084e-05
4.42914e-05
2.04467e-05
9.27675e-06
4.14333e-06
1.82441e-06
7.93067e-07
3.40788e-07
1.44937e-07
6.10739e-08
2.55156e-08
1.05657e-08
4.32463e-09
1.73405e-09
6.63275e-10
2.2157e-10
3.88068e-11
3.78246e-07
1.6531e-06
3.79755e-06
7.39252e-06
1.33892e-05
2.33267e-05
3.96611e-05
6.62491e-05
0.000109034
0.00017698
0.00028326
0.000446661
0.000693012
0.00105627
0.00157869
0.00230939
0.00330076
0.00460293
0.00625725
0.00829059
0.0107122
0.0135137
0.0166712
0.0201495
0.023906
0.0278935
0.0320632
0.0363666
0.0407569
0.04519
0.0496258
0.0540279
0.0583645
0.0626084
0.0667369
0.0707313
0.0745765
0.0782608
0.0817761
0.085117
0.0882807
0.0912666
0.0940756
0.09671
0.0991729
0.101468
0.1036
0.105571
0.107386
0.109046
0.110553
0.111904
0.113096
0.11412
0.114965
0.11561
0.116025
0.116173
0.116009
0.115454
0.114408
0.110456
0.101209
0.0918979
0.0826772
0.0736653
0.0649558
0.0566223
0.0487247
0.041314
0.0344331
0.0281192
0.022384
0.0172895
0.0128749
0.00917339
0.00620703
0.00394628
0.00236236
0.00133415
0.000715008
0.000366502
0.000180939
8.6946e-05
4.08928e-05
1.88711e-05
8.561e-06
3.82397e-06
1.68417e-06
7.32356e-07
3.14831e-07
1.33959e-07
5.64752e-08
2.36053e-08
9.77865e-09
4.00375e-09
1.6057e-09
6.14207e-10
2.05149e-10
3.59313e-11
3.77964e-07
1.65186e-06
3.79466e-06
7.38678e-06
1.33785e-05
2.33076e-05
3.96278e-05
6.61923e-05
0.00010894
0.000176825
0.000283014
0.000446282
0.000692444
0.00105545
0.00157756
0.0023079
0.00329894
0.00460086
0.00625508
0.00828855
0.0107106
0.0135128
0.0166717
0.0201522
0.0239115
0.0279025
0.0320763
0.0363843
0.0407796
0.0452183
0.0496598
0.0540678
0.0584105
0.0626605
0.0667948
0.0707949
0.0746454
0.0783345
0.081854
0.0851986
0.0883653
0.0913534
0.0941639
0.0967989
0.0992617
0.101556
0.103686
0.105654
0.107466
0.109121
0.110622
0.111967
0.113151
0.114167
0.115003
0.115639
0.116044
0.116185
0.116015
0.115457
0.11441
0.109392
0.10015
0.0908565
0.081662
0.0726864
0.0640233
0.0557433
0.047904
0.0405533
0.0337217
0.0274472
0.0217798
0.0167597
0.012425
0.00880648
0.00592197
0.00375711
0.00223345
0.00125486
0.000670028
0.000342499
0.000168751
8.1007e-05
3.80752e-05
1.75645e-05
7.96703e-06
3.55871e-06
1.56757e-06
6.81817e-07
2.93197e-07
1.24799e-07
5.26333e-08
2.20076e-08
9.11987e-09
3.73502e-09
1.49816e-09
5.73066e-10
1.91408e-10
3.35222e-11
3.77753e-07
1.65093e-06
3.7925e-06
7.38249e-06
1.33706e-05
2.32935e-05
3.96035e-05
6.61514e-05
0.000108872
0.000176717
0.000282847
0.00044603
0.00069208
0.00105495
0.00157691
0.00230713
0.00329809
0.00460003
0.00625442
0.00828833
0.0107112
0.0135149
0.0166757
0.0201587
0.0239209
0.0279154
0.0320931
0.0364055
0.0408055
0.0452492
0.0496959
0.0541092
0.0584571
0.0627121
0.0668515
0.0708562
0.0747109
0.0784038
0.0819265
0.0852738
0.0884425
0.091432
0.0942431
0.0968781
0.0993401
0.101633
0.10376
0.105726
0.107533
0.109184
0.110679
0.112017
0.113194
0.114203
0.11503
0.115657
0.116053
0.116185
0.116007
0.115443
0.114394
0.10846
0.0992259
0.0899503
0.0807863
0.0718521
0.063227
0.0549835
0.0471788
0.0398588
0.033075
0.0268642
0.0212619
0.0163097
0.0120456
0.0084991
0.00568546
0.00358599
0.00213009
0.00119005
0.000632945
0.000322756
0.000158736
7.61289e-05
3.57606e-05
1.64906e-05
7.47851e-06
3.34035e-06
1.47149e-06
6.40128e-07
2.75332e-07
1.17226e-07
4.94535e-08
2.06839e-08
8.57356e-09
3.512e-09
1.40887e-09
5.38938e-10
1.80016e-10
3.15237e-11
3.77605e-07
1.65028e-06
3.79099e-06
7.37952e-06
1.33652e-05
2.32839e-05
3.95871e-05
6.61242e-05
0.000108828
0.000176649
0.000282744
0.000445882
0.000691881
0.0010547
0.00157662
0.00230684
0.00329787
0.00460004
0.00625492
0.00828964
0.0107137
0.0135189
0.0166818
0.0201672
0.0239324
0.0279302
0.0321116
0.036428
0.0408322
0.0452803
0.0497314
0.0541492
0.0585015
0.0627609
0.0669042
0.0709126
0.0747707
0.0784665
0.0819916
0.0853407
0.0885107
0.0915008
0.094312
0.0969464
0.0994071
0.101698
0.103822
0.105785
0.107588
0.109234
0.110723
0.112055
0.113225
0.114226
0.115045
0.115663
0.11605
0.116173
0.115987
0.115415
0.114366
0.107674
0.0984372
0.0891717
0.0800271
0.0711073
0.0625074
0.0542971
0.0465332
0.0392635
0.0325307
0.0263734
0.0208265
0.0159326
0.0117289
0.00824386
0.0054906
0.00344664
0.00203711
0.00113833
0.000603219
0.000306657
0.000150559
7.21514e-05
3.38743e-05
1.56153e-05
7.08014e-06
3.16214e-06
1.393e-06
6.06041e-07
2.6071e-07
1.11022e-07
4.68463e-08
1.95977e-08
8.12495e-09
3.32876e-09
1.33551e-09
5.109e-10
1.70657e-10
2.98827e-11
3.77511e-07
1.64987e-06
3.79004e-06
7.37764e-06
1.33617e-05
2.3278e-05
3.95771e-05
6.61079e-05
0.000108803
0.000176611
0.00028269
0.000445811
0.000691796
0.00105461
0.00157657
0.00230688
0.00329814
0.00460071
0.00625622
0.00829186
0.0107172
0.013524
0.0166889
0.0201767
0.0239446
0.0279453
0.03213
0.0364499
0.0408578
0.0453096
0.0497645
0.054186
0.058542
0.0628048
0.0669513
0.0709626
0.0748231
0.078521
0.0820477
0.0853979
0.0885685
0.0915588
0.0943695
0.0970028
0.0994619
0.10175
0.103872
0.105831
0.10763
0.109271
0.110755
0.11208
0.113244
0.114237
0.115048
0.115658
0.116037
0.116152
0.115959
0.115381
0.114329
0.10702
0.097777
0.0885188
0.0793829
0.0704847
0.0619113
0.053732
0.0460033
0.0387725
0.0320813
0.0259679
0.020467
0.0156217
0.0114683
0.00803467
0.00533178
0.003334
0.0019629
0.00109262
0.000579383
0.000294031
0.000144049
6.89635e-05
3.23597e-05
1.49117e-05
6.75947e-06
3.01853e-06
1.32968e-06
5.78512e-07
2.4889e-07
1.06003e-07
4.47356e-08
1.87179e-08
7.76142e-09
3.18026e-09
1.27609e-09
4.88197e-10
1.63077e-10
2.85545e-11
3.77458e-07
1.64963e-06
3.78949e-06
7.37658e-06
1.33598e-05
2.32746e-05
3.95717e-05
6.60994e-05
0.00010879
0.000176593
0.000282668
0.000445789
0.000691783
0.00105463
0.00157667
0.00230715
0.00329869
0.00460171
0.00625788
0.00829444
0.010721
0.0135293
0.016696
0.0201858
0.0239561
0.0279595
0.032147
0.0364698
0.0408808
0.0453357
0.0497936
0.0542181
0.0585769
0.0628423
0.0669912
0.0710046
0.0748669
0.0785661
0.0820939
0.0854447
0.0886154
0.0916053
0.0944152
0.0970471
0.0995043
0.10179
0.103909
0.105864
0.107659
0.109295
0.110774
0.112093
0.11325
0.114237
0.115041
0.115645
0.116018
0.11613
0.115938
0.11537
0.114347
0.106486
0.0972347
0.0879784
0.0788559
0.0699765
0.0614263
0.0532735
0.0455741
0.0383751
0.0317178
0.0256401
0.0201767
0.0153709
0.0112585
0.00786667
0.00520472
0.00324436
0.0019043
0.001057
0.000558938
0.000283834
0.000138999
6.64797e-05
3.11688e-05
1.43561e-05
6.50593e-06
2.90487e-06
1.27953e-06
5.56693e-07
2.39518e-07
1.02022e-07
4.30612e-08
1.80199e-08
7.47322e-09
3.06267e-09
1.22905e-09
4.70233e-10
1.57076e-10
2.75037e-11
3.77431e-07
1.64952e-06
3.78923e-06
7.37605e-06
1.33589e-05
2.32731e-05
3.95692e-05
6.60958e-05
0.000108786
0.000176589
0.000282666
0.000445797
0.000691817
0.00105472
0.00157686
0.00230751
0.00329934
0.00460278
0.00625956
0.00829694
0.0107245
0.0135342
0.0167024
0.020194
0.0239662
0.0279718
0.0321615
0.0364867
0.0409001
0.0453574
0.0498177
0.0542445
0.0586053
0.0628726
0.0670232
0.0710379
0.0749013
0.0786014
0.0821296
0.0854805
0.088651
0.0916402
0.094449
0.0970794
0.0995346
0.101818
0.103934
0.105885
0.107676
0.109307
0.110781
0.112095
0.113245
0.114225
0.115023
0.11562
0.115986
0.116094
0.115898
0.115328
0.114308
0.106078
0.0968141
0.0875561
0.0784414
0.0695761
0.0610441
0.0529127
0.0452369
0.0380633
0.031433
0.0253837
0.0199499
0.0151752
0.0110952
0.00773618
0.00510634
0.00317521
0.00185929
0.0010298
0.000543506
0.000275459
0.000134944
6.45728e-05
3.02633e-05
1.39319e-05
6.31144e-06
2.81749e-06
1.24096e-06
5.39924e-07
2.32321e-07
9.897e-08
4.17803e-08
1.74872e-08
7.25351e-09
2.97303e-09
1.19318e-09
4.56534e-10
1.52498e-10
2.67023e-11
3.77421e-07
1.64947e-06
3.78912e-06
7.37585e-06
1.33585e-05
2.32725e-05
3.95684e-05
6.6095e-05
0.000108785
0.000176591
0.000282674
0.000445819
0.000691866
0.00105482
0.00157705
0.00230786
0.00329993
0.00460373
0.00626101
0.00829906
0.0107275
0.0135381
0.0167075
0.0202005
0.0239743
0.0279814
0.0321729
0.0364999
0.040915
0.045374
0.0498361
0.0542644
0.0586267
0.0628952
0.0670467
0.0710622
0.0749262
0.0786265
0.0821548
0.0855055
0.0886755
0.0916639
0.0944715
0.0971003
0.0995535
0.101835
0.103947
0.105896
0.107682
0.10931
0.110778
0.112087
0.113232
0.114205
0.114996
0.115587
0.115948
0.116051
0.115853
0.115284
0.114272
0.105776
0.0964977
0.0872381
0.0781293
0.0692751
0.0607575
0.0526428
0.0449854
0.0378314
0.0312217
0.0251938
0.0197822
0.0150308
0.010975
0.00764044
0.0050344
0.00312483
0.0018266
0.00101009
0.000532348
0.000269443
0.000131817
6.30452e-05
2.95684e-05
1.36194e-05
6.17033e-06
2.75464e-06
1.21334e-06
5.27937e-07
2.27183e-07
9.67903e-08
4.08647e-08
1.71059e-08
7.09608e-09
2.90874e-09
1.16744e-09
4.467e-10
1.49212e-10
2.6127e-11
3.77418e-07
1.64946e-06
3.78909e-06
7.3758e-06
1.33584e-05
2.32724e-05
3.95684e-05
6.60953e-05
0.000108787
0.000176594
0.000282683
0.000445839
0.000691908
0.00105491
0.00157721
0.00230813
0.00330036
0.00460442
0.00626206
0.00830057
0.0107296
0.0135409
0.0167112
0.0202051
0.0239799
0.0279881
0.0321807
0.0365088
0.0409251
0.0453853
0.0498484
0.0542776
0.0586408
0.0629099
0.0670619
0.0710776
0.0749417
0.078642
0.0821701
0.0855204
0.0886898
0.0916773
0.0944838
0.0971113
0.0995627
0.101842
0.103952
0.105898
0.107681
0.109304
0.110769
0.112073
0.113213
0.114181
0.114967
0.115552
0.115908
0.116008
0.115809
0.115245
0.114246
0.105578
0.0962844
0.0870212
0.077916
0.0690697
0.0605628
0.0524603
0.0448161
0.0376759
0.0310806
0.0250675
0.0196711
0.0149355
0.0108958
0.00757769
0.00498747
0.00309215
0.0018055
0.000997406
0.000525182
0.000265602
0.000129893
6.2104e-05
2.91126e-05
1.34077e-05
6.07657e-06
2.71337e-06
1.19536e-06
5.20192e-07
2.2388e-07
9.53942e-08
4.02792e-08
1.68622e-08
6.99546e-09
2.86763e-09
1.15097e-09
4.40404e-10
1.47106e-10
2.57585e-11
3.7742e-07
1.64946e-06
3.78911e-06
7.37582e-06
1.33585e-05
2.32725e-05
3.95686e-05
6.60958e-05
0.000108788
0.000176597
0.000282689
0.000445851
0.000691931
0.00105495
0.00157728
0.00230826
0.00330059
0.00460477
0.00626258
0.00830132
0.0107306
0.0135423
0.016713
0.0202074
0.0239826
0.0279914
0.0321846
0.0365132
0.0409301
0.0453908
0.0498544
0.0542841
0.0586476
0.0629171
0.0670692
0.0710849
0.0749487
0.0786488
0.0821767
0.0855266
0.0886955
0.0916825
0.0944882
0.0971148
0.0995652
0.101843
0.103952
0.105895
0.107676
0.109298
0.110759
0.11206
0.113196
0.114161
0.114943
0.115524
0.115877
0.115975
0.115777
0.115217
0.114231
0.105479
0.0961732
0.0869068
0.0778036
0.0689622
0.0604618
0.0523666
0.04473
0.0375976
0.0310101
0.0250049
0.0196166
0.0148892
0.0108576
0.00754762
0.00496516
0.00307674
0.00179564
0.000991523
0.00052187
0.000263831
0.000129012
6.16762e-05
2.89084e-05
1.3312e-05
6.03223e-06
2.69353e-06
1.18667e-06
5.16443e-07
2.22281e-07
9.47192e-08
3.99965e-08
1.67446e-08
6.94694e-09
2.84781e-09
1.14303e-09
4.37363e-10
1.46087e-10
2.55803e-11
3.77424e-07
1.64948e-06
3.78915e-06
7.3759e-06
1.33586e-05
2.32728e-05
3.9569e-05
6.60965e-05
0.000108789
0.000176599
0.000282692
0.000445856
0.000691939
0.00105496
0.0015773
0.00230828
0.00330061
0.00460481
0.00626263
0.00830138
0.0107307
0.0135424
0.016713
0.0202075
0.0239827
0.0279915
0.0321847
0.0365134
0.0409303
0.045391
0.0498545
0.0542843
0.0586478
0.0629172
0.0670693
0.071085
0.0749488
0.0786489
0.0821768
0.0855267
0.0886956
0.0916826
0.0944883
0.0971149
0.0995652
0.101843
0.103952
0.105895
0.107677
0.109298
0.110759
0.11206
0.113196
0.114161
0.114943
0.115524
0.115877
0.115975
0.115777
0.115217
0.114231
0.105479
0.096173
0.0869065
0.0778034
0.068962
0.0604616
0.0523664
0.0447298
0.0375975
0.03101
0.0250048
0.0196165
0.0148891
0.0108576
0.00754757
0.00496513
0.00307671
0.00179562
0.000991513
0.000521865
0.000263828
0.000129011
6.16756e-05
2.89081e-05
1.33119e-05
6.03216e-06
2.6935e-06
1.18665e-06
5.16437e-07
2.22279e-07
9.47182e-08
3.99961e-08
1.67445e-08
6.94686e-09
2.84777e-09
1.14301e-09
4.37358e-10
1.46085e-10
2.55802e-11
3.77431e-07
1.64951e-06
3.78922e-06
7.37604e-06
1.33589e-05
2.32732e-05
3.95697e-05
6.60974e-05
0.00010879
0.0001766
0.000282692
0.000445853
0.000691929
0.00105494
0.00157725
0.00230819
0.00330045
0.00460453
0.0062622
0.00830074
0.0107298
0.0135412
0.0167114
0.0202054
0.0239802
0.0279884
0.0321811
0.0365092
0.0409255
0.0453857
0.0498487
0.054278
0.0586411
0.0629103
0.0670622
0.071078
0.074942
0.0786423
0.0821704
0.0855206
0.08869
0.0916776
0.094484
0.0971115
0.0995629
0.101842
0.103952
0.105898
0.107681
0.109305
0.110769
0.112073
0.113213
0.114181
0.114967
0.115552
0.115908
0.116008
0.115809
0.115245
0.114245
0.105577
0.0962836
0.0870205
0.0779153
0.0690691
0.0605622
0.0524598
0.0448156
0.0376755
0.0310802
0.0250671
0.0196708
0.0149353
0.0108957
0.00757754
0.00498736
0.00309207
0.00180545
0.000997377
0.000525166
0.000265594
0.000129888
6.2102e-05
2.91116e-05
1.34072e-05
6.07637e-06
2.71329e-06
1.19532e-06
5.20176e-07
2.23873e-07
9.53911e-08
4.02779e-08
1.68616e-08
6.99521e-09
2.86753e-09
1.15093e-09
4.40389e-10
1.47098e-10
2.57582e-11
3.77441e-07
1.64956e-06
3.78932e-06
7.37625e-06
1.33592e-05
2.32738e-05
3.95706e-05
6.60986e-05
0.000108791
0.0001766
0.000282689
0.000445842
0.000691902
0.00105488
0.00157713
0.00230797
0.00330007
0.00460392
0.00626125
0.00829935
0.0107278
0.0135385
0.016708
0.020201
0.0239748
0.027982
0.0321735
0.0365005
0.0409157
0.0453747
0.0498367
0.054265
0.0586273
0.0628958
0.0670473
0.0710628
0.0749267
0.0786271
0.0821554
0.085506
0.088676
0.0916643
0.0944719
0.0971007
0.0995539
0.101835
0.103948
0.105896
0.107683
0.10931
0.110778
0.112087
0.113232
0.114205
0.114996
0.115587
0.115948
0.116051
0.115853
0.115284
0.114272
0.105775
0.0964964
0.0872368
0.0781281
0.069274
0.0607565
0.0526419
0.0449846
0.0378306
0.031221
0.0251932
0.0197817
0.0150304
0.0109746
0.00764017
0.0050342
0.00312469
0.00182651
0.00101004
0.000532319
0.000269427
0.000131809
6.30415e-05
2.95666e-05
1.36185e-05
6.16998e-06
2.75448e-06
1.21326e-06
5.27905e-07
2.27169e-07
9.67841e-08
4.0862e-08
1.71047e-08
7.09559e-09
2.90854e-09
1.16736e-09
4.46671e-10
1.49197e-10
2.61262e-11
3.7746e-07
1.64964e-06
3.78951e-06
7.37661e-06
1.33599e-05
2.32748e-05
3.95722e-05
6.61007e-05
0.000108794
0.000176602
0.000282687
0.00044583
0.000691866
0.00105479
0.00157697
0.00230766
0.00329954
0.00460304
0.00625989
0.00829735
0.010725
0.0135347
0.016703
0.0201947
0.023967
0.0279726
0.0321624
0.0364876
0.040901
0.0453583
0.0498186
0.0542453
0.0586062
0.0628735
0.067024
0.0710387
0.0749021
0.0786021
0.0821303
0.0854812
0.0886516
0.0916408
0.0944496
0.09708
0.0995351
0.101819
0.103934
0.105886
0.107676
0.109308
0.110781
0.112095
0.113246
0.114226
0.115023
0.11562
0.115986
0.116094
0.115898
0.115328
0.114308
0.106076
0.0968122
0.0875543
0.0784397
0.0695745
0.0610427
0.0529114
0.0452357
0.0380622
0.0314321
0.0253828
0.0199491
0.0151746
0.0110947
0.00773579
0.00510605
0.00317501
0.00185916
0.00102973
0.000543464
0.000275437
0.000134933
6.45674e-05
3.02609e-05
1.39308e-05
6.31089e-06
2.81723e-06
1.24084e-06
5.39871e-07
2.32298e-07
9.896e-08
4.1776e-08
1.74854e-08
7.25276e-09
2.97272e-09
1.19306e-09
4.56488e-10
1.52477e-10
2.67009e-11
3.77494e-07
1.64979e-06
3.78986e-06
7.37728e-06
1.33611e-05
2.32769e-05
3.95754e-05
6.61056e-05
0.000108801
0.00017661
0.000282694
0.00044583
0.000691846
0.00105473
0.00157681
0.00230734
0.00329895
0.00460204
0.0062583
0.00829496
0.0107216
0.01353
0.0166968
0.0201867
0.0239571
0.0279605
0.0321481
0.0364709
0.0408819
0.0453368
0.0497948
0.0542193
0.058578
0.0628434
0.0669923
0.0710056
0.0748679
0.0785671
0.0820948
0.0854455
0.0886163
0.0916061
0.0944159
0.0970478
0.099505
0.101791
0.10391
0.105865
0.107659
0.109296
0.110774
0.112094
0.11325
0.114237
0.115041
0.115645
0.116018
0.11613
0.115938
0.11537
0.114347
0.106483
0.0972321
0.0879759
0.0788536
0.0699744
0.0614243
0.0532717
0.0455725
0.0383736
0.0317165
0.025639
0.0201757
0.0153701
0.0112579
0.00786615
0.00520434
0.0032441
0.00190413
0.0010569
0.000558881
0.000283804
0.000138985
6.64728e-05
3.11654e-05
1.43545e-05
6.50514e-06
2.90451e-06
1.27937e-06
5.56621e-07
2.39486e-07
1.02008e-07
4.30553e-08
1.80174e-08
7.47218e-09
3.06225e-09
1.22889e-09
4.70171e-10
1.57047e-10
2.75015e-11
3.77555e-07
1.65006e-06
3.79048e-06
7.3785e-06
1.33633e-05
2.32807e-05
3.95817e-05
6.61155e-05
0.000108815
0.000176631
0.000282721
0.00044586
0.000691871
0.00105472
0.00157673
0.00230711
0.00329845
0.00460112
0.00625674
0.0082925
0.010718
0.0135249
0.0166899
0.0201777
0.0239457
0.0279466
0.0321313
0.0364512
0.0408592
0.045311
0.0497659
0.0541874
0.0585434
0.0628061
0.0669526
0.0709639
0.0748243
0.0785222
0.0820489
0.085399
0.0885696
0.0915598
0.0943704
0.0970037
0.0994627
0.101751
0.103873
0.105832
0.10763
0.109271
0.110755
0.112081
0.113244
0.114237
0.115048
0.115659
0.116037
0.116152
0.115959
0.115381
0.114329
0.107017
0.0977737
0.0885158
0.07938
0.070482
0.0619088
0.0537298
0.0460013
0.0387707
0.0320797
0.0259665
0.0204658
0.0156207
0.0114675
0.00803401
0.00533129
0.00333366
0.00196268
0.00109249
0.00057931
0.000293993
0.000144029
6.89535e-05
3.23549e-05
1.49094e-05
6.75843e-06
3.01806e-06
1.32947e-06
5.78419e-07
2.4885e-07
1.05985e-07
4.47282e-08
1.87147e-08
7.76011e-09
3.17972e-09
1.27588e-09
4.88117e-10
1.6304e-10
2.85516e-11
3.77657e-07
1.65051e-06
3.79151e-06
7.38053e-06
1.3367e-05
2.32871e-05
3.95925e-05
6.61331e-05
0.000108843
0.000176672
0.000282781
0.00044594
0.000691968
0.00105483
0.00157681
0.00230711
0.00329824
0.00460052
0.00625553
0.00829039
0.0107146
0.01352
0.016683
0.0201685
0.0239338
0.0279317
0.0321132
0.0364296
0.0408339
0.0452819
0.0497331
0.0541509
0.0585032
0.0627625
0.0669058
0.0709142
0.0747722
0.0784679
0.081993
0.085342
0.0885119
0.091502
0.0943131
0.0969474
0.0994081
0.101699
0.103823
0.105786
0.107589
0.109234
0.110724
0.112056
0.113226
0.114226
0.115045
0.115663
0.11605
0.116173
0.115987
0.115415
0.114366
0.10767
0.0984332
0.089168
0.0800236
0.071104
0.0625044
0.0542944
0.0465307
0.0392613
0.0325288
0.0263716
0.020825
0.0159314
0.0117278
0.00824304
0.00548999
0.00344622
0.00203684
0.00113817
0.000603128
0.000306607
0.000150534
7.2139e-05
3.38683e-05
1.56126e-05
7.07888e-06
3.16157e-06
1.39275e-06
6.0593e-07
2.60661e-07
1.11001e-07
4.68374e-08
1.9594e-08
8.12338e-09
3.32812e-09
1.33526e-09
5.10797e-10
1.70614e-10
2.98787e-11
3.77812e-07
1.65119e-06
3.79309e-06
7.38364e-06
1.33727e-05
2.32972e-05
3.96097e-05
6.61617e-05
0.000108889
0.000176745
0.00028289
0.000446097
0.000692182
0.0010551
0.00157713
0.00230743
0.00329851
0.00460058
0.00625513
0.0082892
0.0107123
0.0135161
0.016677
0.0201601
0.0239225
0.0279171
0.0320949
0.0364073
0.0408075
0.0452511
0.0496978
0.0541111
0.058459
0.062714
0.0668533
0.070858
0.0747126
0.0784055
0.0819282
0.0852753
0.088444
0.0914334
0.0942444
0.0968794
0.0993413
0.101634
0.103761
0.105727
0.107534
0.109185
0.11068
0.112018
0.113195
0.114203
0.11503
0.115657
0.116053
0.116185
0.116007
0.115443
0.114394
0.108455
0.0992211
0.0899458
0.0807821
0.0718482
0.0632234
0.0549803
0.0471759
0.0398562
0.0330727
0.0268622
0.0212601
0.0163082
0.0120443
0.00849811
0.00568472
0.00358546
0.00212975
0.00118985
0.000632829
0.000322695
0.000158706
7.6114e-05
3.57535e-05
1.64873e-05
7.47702e-06
3.33968e-06
1.47119e-06
6.39997e-07
2.75275e-07
1.17201e-07
4.94431e-08
2.06795e-08
8.57171e-09
3.51124e-09
1.40857e-09