/*--------------------------------*- C++ -*----------------------------------*\
  =========                 |
  \\      /  F ield         | OpenFOAM: The Open Source CFD Toolbox
   \\    /   O peration     | Website:  https://openfoam.org
    \\  /    A nd           | Version:  8
     \\/     M anipulation  |
\*---------------------------------------------------------------------------*/
FoamFile
{
    version     2.0;
    format      ascii;
    class       volScalarField;
    location    "460/fluid";
    object      N2;
}
// * * * * * * * * * * * * * * * * * * * * * * * * * * * * * * * * * * * * * //

dimensions      [0 0 0 0 0 0 0];

internalField   nonuniform List<scalar> 
4000
(
2.19427e-06
9.58646e-06
2.20077e-05
4.28079e-05
7.74844e-05
0.00013497
0.000229609
0.000384114
0.000633845
0.00103275
0.00166114
0.00263503
0.00411589
0.00631824
0.00951093
0.0140073
0.0201414
0.0282267
0.0385099
0.0511367
0.0661329
0.0834087
0.10278
0.123996
0.146769
0.170791
0.195756
0.221369
0.247353
0.273453
0.299442
0.325121
0.35032
0.374896
0.398735
0.421747
0.443859
0.465022
0.485204
0.504388
0.522571
0.539759
0.555971
0.571229
0.585562
0.599003
0.611589
0.62336
0.634356
0.644616
0.654181
0.663092
0.671388
0.679106
0.686283
0.692956
0.699157
0.704906
0.710121
0.7151
0.719726
0.724027
0.727974
0.731759
0.735378
0.738835
0.742135
0.745278
0.748263
0.751088
0.75375
0.756242
0.758558
0.760681
0.762617
0.764343
0.765844
0.767102
0.768101
0.768841
0.769343
0.769653
0.769827
0.769918
0.769962
0.769983
0.769992
0.769997
0.769999
0.769999
0.77
0.77
0.77
0.77
0.77
0.77
0.77
0.77
0.77
0.77
2.20849e-06
9.65193e-06
2.21723e-05
4.31661e-05
7.82109e-05
0.00013637
0.00023219
0.000388659
0.000641456
0.0010448
0.00167901
0.00265944
0.00414571
0.00634845
0.00953054
0.0139987
0.0200786
0.0280777
0.0382445
0.0507297
0.065569
0.0826852
0.101907
0.122995
0.145667
0.169621
0.194551
0.220161
0.246169
0.272317
0.298374
0.324135
0.349426
0.374101
0.398041
0.421154
0.443367
0.464626
0.484899
0.504168
0.52243
0.539693
0.555969
0.571284
0.585667
0.599152
0.611777
0.623581
0.634604
0.644887
0.654472
0.663398
0.671705
0.679432
0.686616
0.693291
0.699494
0.705238
0.710457
0.715439
0.720067
0.724368
0.728309
0.732095
0.735717
0.739179
0.742483
0.74563
0.748618
0.751444
0.754105
0.756594
0.758904
0.761013
0.762932
0.764633
0.766099
0.767314
0.768264
0.768953
0.769411
0.769689
0.769845
0.769926
0.769965
0.769984
0.769993
0.769997
0.769999
0.769999
0.77
0.77
0.77
0.77
0.77
0.77
0.77
0.77
0.77
0.77
2.23136e-06
9.75418e-06
2.2417e-05
4.36654e-05
7.91546e-05
0.000138062
0.00023508
0.000393367
0.000648762
0.00105554
0.00169383
0.00267839
0.00416758
0.0063706
0.0095486
0.014003
0.020052
0.0279979
0.0380849
0.0504645
0.0651767
0.0821521
0.101229
0.122178
0.144728
0.168582
0.19344
0.219006
0.245001
0.271165
0.297263
0.323086
0.348458
0.373227
0.397272
0.420496
0.442821
0.464194
0.48458
0.503962
0.522328
0.539682
0.556044
0.571438
0.585892
0.599441
0.612122
0.623975
0.63504
0.645358
0.654972
0.663921
0.672247
0.679988
0.68718
0.693862
0.700065
0.705767
0.710981
0.715972
0.720603
0.724906
0.728846
0.732637
0.736263
0.739726
0.743029
0.746173
0.749154
0.75197
0.754616
0.757084
0.759366
0.761441
0.763317
0.764968
0.766377
0.767529
0.768416
0.769051
0.769468
0.769719
0.769859
0.769932
0.769968
0.769985
0.769993
0.769997
0.769999
0.769999
0.77
0.77
0.77
0.77
0.77
0.77
0.77
0.77
0.77
0.77
2.24662e-06
9.82075e-06
2.25694e-05
4.39596e-05
7.96766e-05
0.000138936
0.000236476
0.000395493
0.000651824
0.00105964
0.00169876
0.00268331
0.00417056
0.00636753
0.00953105
0.0139594
0.0199691
0.0278606
0.0378774
0.050172
0.0647881
0.0816613
0.100636
0.121488
0.14395
0.167733
0.192538
0.218072
0.244057
0.270233
0.296363
0.322239
0.347679
0.37253
0.396668
0.419993
0.442427
0.463914
0.484411
0.503891
0.522351
0.539799
0.556249
0.571724
0.586253
0.599869
0.612609
0.624513
0.635622
0.645977
0.655621
0.664595
0.67294
0.680694
0.687896
0.694582
0.700787
0.70647
0.711669
0.716639
0.721254
0.725542
0.729486
0.733283
0.73691
0.740371
0.743667
0.746798
0.749763
0.752557
0.755176
0.75761
0.759853
0.761887
0.76371
0.765303
0.76665
0.767738
0.768566
0.769149
0.769526
0.769751
0.769875
0.76994
0.769972
0.769987
0.769994
0.769997
0.769999
0.77
0.77
0.77
0.77
0.77
0.77
0.77
0.77
0.77
0.77
0.77
2.25522e-06
9.8578e-06
2.26525e-05
4.41152e-05
7.99437e-05
0.000139368
0.000237138
0.00039645
0.000653116
0.00106125
0.00170049
0.00268448
0.00416942
0.00636054
0.00951301
0.0139227
0.0199038
0.0277547
0.0377184
0.0499486
0.0644916
0.081287
0.100184
0.120963
0.143361
0.167092
0.191861
0.217376
0.243359
0.26955
0.295713
0.321637
0.34714
0.372067
0.396292
0.419713
0.442243
0.463818
0.484402
0.503974
0.522526
0.540061
0.556592
0.572142
0.586738
0.600415
0.613209
0.625159
0.636308
0.646696
0.656367
0.665361
0.67372
0.681483
0.688689
0.695375
0.701576
0.707238
0.712411
0.717354
0.721946
0.726213
0.730174
0.733972
0.737595
0.741046
0.744329
0.747441
0.750383
0.753148
0.755733
0.758128
0.760325
0.762313
0.764081
0.765615
0.766901
0.767928
0.768698
0.769233
0.769576
0.769778
0.769889
0.769946
0.769975
0.769988
0.769995
0.769998
0.769999
0.77
0.77
0.77
0.77
0.77
0.77
0.77
0.77
0.77
0.77
0.77
2.25859e-06
9.87198e-06
2.26828e-05
4.41686e-05
8.00279e-05
0.00013949
0.000237294
0.000396607
0.000653156
0.00106084
0.00169895
0.00268055
0.00416109
0.00634479
0.0094855
0.0138776
0.0198339
0.0276523
0.0375756
0.0497588
0.0642504
0.0809928
0.099838
0.12057
0.142929
0.166631
0.191382
0.216892
0.242884
0.269098
0.295298
0.321273
0.346839
0.371837
0.396135
0.419626
0.442231
0.463888
0.484556
0.504211
0.522842
0.540452
0.557053
0.572667
0.587321
0.601049
0.613888
0.625877
0.637057
0.647471
0.65716
0.666168
0.674535
0.682301
0.689506
0.696186
0.702374
0.707993
0.713153
0.718099
0.722679
0.726896
0.730872
0.734661
0.738271
0.741707
0.744971
0.748061
0.750976
0.75371
0.756259
0.758615
0.760762
0.762703
0.764419
0.765897
0.767126
0.768096
0.768815
0.769308
0.769619
0.769801
0.769901
0.769952
0.769977
0.76999
0.769995
0.769998
0.769999
0.77
0.77
0.77
0.77
0.77
0.77
0.77
0.77
0.77
0.77
0.77
2.25914e-06
9.87409e-06
2.26864e-05
4.41717e-05
8.00239e-05
0.00013946
0.000237196
0.000396347
0.000652552
0.00105956
0.00169641
0.00267576
0.00415246
0.00632995
0.00946108
0.0138392
0.0197764
0.0275699
0.0374633
0.0496125
0.0640678
0.0807742
0.0995859
0.12029
0.142627
0.166316
0.191064
0.216582
0.242595
0.268841
0.295083
0.321107
0.346724
0.371776
0.396135
0.419696
0.442373
0.464104
0.484845
0.50457
0.523269
0.540941
0.5576
0.573267
0.587968
0.601738
0.614611
0.626629
0.637832
0.648263
0.657964
0.666978
0.675345
0.683108
0.690305
0.696975
0.703149
0.708743
0.713904
0.718835
0.723395
0.727554
0.731526
0.735307
0.738905
0.742324
0.745568
0.748635
0.751522
0.754226
0.75674
0.759058
0.76116
0.763056
0.764723
0.76615
0.767325
0.768244
0.768917
0.769372
0.769657
0.769821
0.769911
0.769957
0.76998
0.769991
0.769996
0.769998
0.769999
0.77
0.77
0.77
0.77
0.77
0.77
0.77
0.77
0.77
0.77
0.77
2.25783e-06
9.8681e-06
2.26713e-05
4.41385e-05
7.9955e-05
0.000139322
0.000236926
0.000395832
0.000651592
0.00105782
0.00169331
0.00267043
0.00414356
0.00631557
0.00943867
0.0138056
0.0197281
0.0275034
0.0373756
0.0495018
0.0639339
0.0806184
0.0994116
0.120102
0.142432
0.166122
0.19088
0.216418
0.242457
0.268735
0.295012
0.321077
0.346742
0.371852
0.396272
0.419896
0.442637
0.464431
0.485234
0.505018
0.523771
0.541496
0.558202
0.57391
0.588648
0.602448
0.615347
0.627385
0.638603
0.649044
0.658749
0.667762
0.676125
0.683878
0.69106
0.697709
0.703868
0.70939
0.714663
0.71955
0.724075
0.728188
0.732138
0.735901
0.739483
0.742885
0.746108
0.749151
0.752012
0.754686
0.757168
0.759451
0.761519
0.763375
0.764996
0.766373
0.767498
0.768371
0.769003
0.769426
0.769688
0.769838
0.76992
0.769961
0.769982
0.769992
0.769996
0.769998
0.769999
0.77
0.77
0.77
0.77
0.77
0.77
0.77
0.77
0.77
0.77
0.77
2.25575e-06
9.8588e-06
2.2649e-05
4.40925e-05
7.98659e-05
0.000139155
0.000236619
0.00039528
0.000650617
0.00105613
0.00169045
0.00266568
0.0041359
0.00630358
0.00942053
0.0137792
0.0196911
0.0274537
0.0373118
0.0494236
0.063842
0.0805152
0.099301
0.119989
0.142324
0.166024
0.190798
0.216356
0.242419
0.268728
0.295045
0.321155
0.346872
0.372034
0.396509
0.420188
0.442984
0.464832
0.485686
0.505519
0.524318
0.542083
0.558826
0.574566
0.589332
0.603155
0.616071
0.628122
0.639348
0.649792
0.659498
0.668507
0.676862
0.684605
0.691775
0.698412
0.704519
0.710023
0.715289
0.720158
0.724664
0.728756
0.732691
0.736439
0.740004
0.743388
0.746591
0.749611
0.752446
0.755091
0.757541
0.759787
0.761817
0.763629
0.765213
0.766556
0.767643
0.768477
0.769075
0.769471
0.769714
0.769852
0.769927
0.769965
0.769983
0.769992
0.769997
0.769998
0.769999
0.77
0.77
0.77
0.77
0.77
0.77
0.77
0.77
0.77
0.77
0.77
2.25352e-06
9.84892e-06
2.26256e-05
4.40453e-05
7.97764e-05
0.000138991
0.000236326
0.000394765
0.00064973
0.00105463
0.00168797
0.00266168
0.00412961
0.006294
0.00940644
0.0137592
0.019664
0.0274186
0.0372683
0.0493723
0.0637851
0.0804557
0.0992429
0.119936
0.14228
0.165993
0.190784
0.216365
0.242459
0.268805
0.295162
0.321316
0.347079
0.372288
0.396811
0.420539
0.443382
0.465275
0.486172
0.506044
0.524879
0.542677
0.559448
0.575213
0.589998
0.603836
0.616764
0.628822
0.640051
0.650494
0.660195
0.669196
0.677541
0.68527
0.692423
0.69904
0.705105
0.710585
0.715833
0.720684
0.725169
0.729251
0.733176
0.736913
0.740465
0.743833
0.747018
0.750018
0.752828
0.755446
0.757864
0.760073
0.762064
0.76384
0.765389
0.766698
0.767761
0.768566
0.769136
0.769509
0.769736
0.769864
0.769933
0.769968
0.769985
0.769993
0.769997
0.769999
0.769999
0.77
0.77
0.77
0.77
0.77
0.77
0.77
0.77
0.77
0.77
0.77
2.2515e-06
9.84002e-06
2.26048e-05
4.40036e-05
7.96981e-05
0.00013885
0.000236077
0.000394335
0.000649001
0.00105342
0.00168601
0.00265858
0.00412486
0.00628695
0.00939634
0.0137453
0.0196458
0.027396
0.037242
0.0493438
0.0637564
0.0804294
0.0992212
0.119922
0.142279
0.166009
0.190824
0.216434
0.24256
0.268941
0.295336
0.32153
0.347334
0.372586
0.397151
0.420919
0.443803
0.465733
0.486665
0.506569
0.525433
0.543256
0.560048
0.575831
0.590629
0.604477
0.617411
0.629471
0.640699
0.651139
0.660832
0.669824
0.678157
0.685872
0.69301
0.69961
0.705655
0.711113
0.716335
0.721159
0.725619
0.729695
0.733611
0.737335
0.740873
0.744226
0.747393
0.750373
0.753162
0.755755
0.758146
0.76033
0.762306
0.764057
0.765575
0.766847
0.767866
0.768643
0.769188
0.769541
0.769754
0.769874
0.769938
0.76997
0.769986
0.769994
0.769997
0.769999
0.769999
0.77
0.77
0.77
0.77
0.77
0.77
0.77
0.77
0.77
0.77
0.77
2.24985e-06
9.83275e-06
2.25878e-05
4.39698e-05
7.96353e-05
0.000138737
0.000235881
0.000394
0.000648442
0.00105251
0.00168456
0.00265634
0.00412151
0.00628212
0.00938967
0.0137366
0.0196351
0.0273839
0.0372294
0.049332
0.0637469
0.0804247
0.0992251
0.119939
0.142313
0.166065
0.190904
0.216542
0.242699
0.269113
0.295543
0.321774
0.347614
0.372903
0.397504
0.421308
0.444224
0.466186
0.487146
0.507076
0.525962
0.543804
0.560612
0.576407
0.591214
0.605068
0.618004
0.630063
0.641288
0.651721
0.661406
0.670387
0.678706
0.686407
0.693528
0.700111
0.706129
0.711561
0.716761
0.721566
0.726005
0.730081
0.733989
0.737703
0.741228
0.744566
0.747716
0.750676
0.753444
0.756016
0.75839
0.76056
0.762512
0.764238
0.765728
0.766972
0.767964
0.768708
0.769232
0.769569
0.76977
0.769882
0.769942
0.769972
0.769987
0.769994
0.769997
0.769999
0.769999
0.77
0.77
0.77
0.77
0.77
0.77
0.77
0.77
0.77
0.77
0.77
2.24861e-06
9.82729e-06
2.25751e-05
4.39446e-05
7.95887e-05
0.000138654
0.000235738
0.000393759
0.000648046
0.00105188
0.00168357
0.00265486
0.00411937
0.00627918
0.00938589
0.0137321
0.0196302
0.0273791
0.0372257
0.0493311
0.0637515
0.0804379
0.0992501
0.119979
0.142371
0.166144
0.191007
0.216671
0.242857
0.269302
0.295764
0.322027
0.3479
0.37322
0.397852
0.421685
0.444629
0.466617
0.4876
0.50755
0.526453
0.544309
0.561129
0.576931
0.591744
0.6056
0.618536
0.630592
0.641812
0.652237
0.661913
0.670882
0.679189
0.686875
0.693981
0.700544
0.706537
0.711954
0.717141
0.721927
0.726345
0.730419
0.734316
0.73802
0.741532
0.744854
0.747989
0.750936
0.753692
0.756254
0.758611
0.760759
0.762689
0.764392
0.765858
0.767077
0.768045
0.768767
0.769267
0.769591
0.769782
0.769889
0.769945
0.769974
0.769988
0.769994
0.769997
0.769999
0.769999
0.77
0.77
0.77
0.77
0.77
0.77
0.77
0.77
0.77
0.77
0.77
2.24774e-06
9.82349e-06
2.25663e-05
4.39272e-05
7.95567e-05
0.000138598
0.000235641
0.000393599
0.000647787
0.00105147
0.00168297
0.002654
0.0041182
0.00627772
0.00938422
0.0137304
0.019629
0.0273794
0.037229
0.0493394
0.063767
0.0804631
0.0992877
0.120032
0.142441
0.166235
0.191121
0.21681
0.243021
0.269493
0.295983
0.322274
0.348175
0.373523
0.398181
0.422038
0.445005
0.467013
0.488014
0.50798
0.526896
0.544763
0.56159
0.577398
0.592213
0.606069
0.619004
0.631056
0.642269
0.652687
0.662353
0.671312
0.679607
0.687279
0.694369
0.700919
0.706895
0.712298
0.717469
0.72224
0.726625
0.730704
0.734594
0.73829
0.741793
0.745109
0.748235
0.75117
0.753912
0.756457
0.758797
0.760927
0.762837
0.764521
0.765966
0.767165
0.768112
0.768815
0.769299
0.769608
0.769793
0.769895
0.769948
0.769975
0.769988
0.769995
0.769998
0.769999
0.77
0.77
0.77
0.77
0.77
0.77
0.77
0.77
0.77
0.77
0.77
0.77
2.24719e-06
9.82106e-06
2.25607e-05
4.39161e-05
7.95365e-05
0.000138563
0.000235582
0.000393503
0.000647637
0.00105125
0.00168265
0.00265358
0.00411771
0.00627722
0.00938392
0.0137308
0.0196307
0.0273836
0.0372371
0.049353
0.0637883
0.0804943
0.099331
0.12009
0.142516
0.166328
0.191234
0.216945
0.24318
0.269675
0.296189
0.322504
0.348428
0.373798
0.398478
0.422356
0.445341
0.467365
0.48838
0.508358
0.527285
0.545159
0.561991
0.577802
0.592619
0.606474
0.619405
0.631453
0.64266
0.65307
0.662728
0.671676
0.679959
0.687618
0.694697
0.701238
0.707196
0.712585
0.717742
0.722499
0.726854
0.73094
0.734826
0.738515
0.742013
0.74532
0.748437
0.751362
0.754092
0.756623
0.75895
0.761065
0.76296
0.764627
0.766055
0.767236
0.768166
0.768853
0.769325
0.769624
0.769801
0.769899
0.76995
0.769976
0.769989
0.769995
0.769998
0.769999
0.77
0.77
0.77
0.77
0.77
0.77
0.77
0.77
0.77
0.77
0.77
0.77
2.24687e-06
9.81967e-06
2.25574e-05
4.39098e-05
7.9525e-05
0.000138543
0.00023555
0.000393452
0.000647563
0.00105115
0.00168253
0.00265345
0.00411765
0.00627738
0.0093846
0.0137324
0.0196341
0.0273897
0.0372472
0.0493688
0.0638114
0.0805265
0.0993744
0.120146
0.142587
0.166415
0.191339
0.217069
0.243323
0.269839
0.296373
0.322707
0.348651
0.374039
0.398736
0.42263
0.445629
0.467666
0.488693
0.50868
0.527613
0.545493
0.562329
0.578141
0.592958
0.606811
0.619739
0.631783
0.642984
0.653387
0.663036
0.671975
0.680249
0.687901
0.694971
0.7015
0.707445
0.712821
0.717967
0.722712
0.727041
0.731134
0.735015
0.738699
0.74219
0.745491
0.7486
0.751516
0.754237
0.756758
0.759073
0.761176
0.763058
0.764712
0.766127
0.767293
0.768209
0.768884
0.769345
0.769636
0.769808
0.769902
0.769952
0.769977
0.769989
0.769995
0.769998
0.769999
0.77
0.77
0.77
0.77
0.77
0.77
0.77
0.77
0.77
0.77
0.77
0.77
2.24671e-06
9.81896e-06
2.25558e-05
4.39066e-05
7.95193e-05
0.000138533
0.000235535
0.000393431
0.000647535
0.00105112
0.00168251
0.0026535
0.00411785
0.00627791
0.00938573
0.0137346
0.019638
0.0273962
0.0372574
0.049384
0.0638331
0.0805562
0.0994136
0.120196
0.142649
0.166491
0.19143
0.217175
0.243445
0.269976
0.296526
0.322876
0.348835
0.374238
0.398949
0.422855
0.445865
0.467912
0.488947
0.50894
0.527879
0.545762
0.5626
0.578414
0.59323
0.607081
0.620006
0.632045
0.643241
0.653638
0.66328
0.672213
0.680482
0.688126
0.695188
0.701708
0.707641
0.713009
0.718146
0.722883
0.727193
0.731282
0.73516
0.738841
0.742328
0.745623
0.748727
0.751636
0.75435
0.756862
0.759169
0.761262
0.763135
0.764778
0.766182
0.767338
0.768243
0.768907
0.76936
0.769646
0.769813
0.769905
0.769954
0.769978
0.76999
0.769995
0.769998
0.769999
0.77
0.77
0.77
0.77
0.77
0.77
0.77
0.77
0.77
0.77
0.77
0.77
2.24664e-06
9.81866e-06
2.25551e-05
4.39052e-05
7.95169e-05
0.00013853
0.000235529
0.000393425
0.000647531
0.00105113
0.00168256
0.00265363
0.00411814
0.00627851
0.00938688
0.0137367
0.0196415
0.0274019
0.0372661
0.0493968
0.0638511
0.0805805
0.0994454
0.120237
0.142699
0.166551
0.191501
0.217258
0.24354
0.270083
0.296645
0.323007
0.348977
0.374391
0.399111
0.423026
0.446045
0.468098
0.489139
0.509138
0.52808
0.545965
0.562805
0.578618
0.593433
0.607283
0.620205
0.632241
0.643433
0.653826
0.663465
0.672394
0.680656
0.688294
0.69535
0.701864
0.707787
0.713149
0.71828
0.72301
0.727307
0.731391
0.735267
0.738945
0.742429
0.745721
0.74882
0.751725
0.754433
0.756939
0.75924
0.761326
0.763191
0.764827
0.766223
0.76737
0.768267
0.768925
0.769371
0.769652
0.769817
0.769907
0.769955
0.769978
0.76999
0.769995
0.769998
0.769999
0.77
0.77
0.77
0.77
0.77
0.77
0.77
0.77
0.77
0.77
0.77
0.77
2.24662e-06
9.81856e-06
2.25549e-05
4.39048e-05
7.95162e-05
0.000138529
0.000235528
0.000393425
0.000647537
0.00105114
0.00168261
0.00265374
0.00411838
0.00627898
0.00938776
0.0137383
0.0196441
0.027406
0.0372724
0.0494059
0.0638638
0.0805976
0.0994676
0.120265
0.142734
0.166593
0.19155
0.217314
0.243605
0.270156
0.296726
0.323096
0.349073
0.374494
0.399221
0.423142
0.446165
0.468223
0.489268
0.509269
0.528214
0.5461
0.562941
0.578754
0.593569
0.607417
0.620338
0.632372
0.643563
0.653953
0.663589
0.672514
0.680772
0.688406
0.695458
0.701968
0.707885
0.713241
0.718368
0.723095
0.727382
0.731463
0.735338
0.739014
0.742496
0.745785
0.748881
0.751783
0.754487
0.75699
0.759286
0.761368
0.763228
0.764859
0.766249
0.767392
0.768283
0.768936
0.769379
0.769657
0.769819
0.769909
0.769955
0.769979
0.76999
0.769995
0.769998
0.769999
0.77
0.77
0.77
0.77
0.77
0.77
0.77
0.77
0.77
0.77
0.77
0.77
2.24662e-06
9.81855e-06
2.25548e-05
4.39047e-05
7.95161e-05
0.000138528
0.000235529
0.000393426
0.000647541
0.00105116
0.00168264
0.0026538
0.0041185
0.00627922
0.0093882
0.013739
0.0196454
0.027408
0.0372755
0.0494104
0.0638701
0.080606
0.0994786
0.120279
0.142751
0.166614
0.191575
0.217343
0.243637
0.270192
0.296766
0.32314
0.349121
0.374545
0.399275
0.423199
0.446225
0.468286
0.489332
0.509335
0.52828
0.546168
0.563009
0.578822
0.593637
0.607485
0.620405
0.632438
0.643627
0.654016
0.66365
0.672573
0.680829
0.688462
0.695512
0.702019
0.707933
0.713287
0.718412
0.723137
0.727419
0.731499
0.735372
0.739048
0.742529
0.745817
0.748912
0.751812
0.754514
0.757015
0.759309
0.761388
0.763246
0.764874
0.766262
0.767402
0.768291
0.768941
0.769382
0.769659
0.76982
0.769909
0.769956
0.769979
0.76999
0.769995
0.769998
0.769999
0.77
0.77
0.77
0.77
0.77
0.77
0.77
0.77
0.77
0.77
0.77
0.77
2.24664e-06
9.81863e-06
2.2555e-05
4.39051e-05
7.95167e-05
0.00013853
0.00023553
0.000393429
0.000647546
0.00105116
0.00168265
0.00265382
0.00411854
0.00627927
0.00938828
0.0137391
0.0196456
0.0274082
0.0372758
0.0494107
0.0638704
0.0806065
0.0994791
0.120279
0.142751
0.166614
0.191575
0.217343
0.243637
0.270193
0.296767
0.32314
0.349122
0.374546
0.399276
0.4232
0.446226
0.468286
0.489333
0.509335
0.528281
0.546169
0.563009
0.578823
0.593637
0.607485
0.620406
0.632439
0.643627
0.654016
0.66365
0.672573
0.68083
0.688462
0.695512
0.702019
0.707933
0.713288
0.718413
0.723137
0.727419
0.731499
0.735373
0.739048
0.742529
0.745817
0.748912
0.751812
0.754514
0.757015
0.759309
0.761389
0.763247
0.764874
0.766262
0.767402
0.768291
0.768941
0.769382
0.769659
0.76982
0.769909
0.769956
0.769979
0.76999
0.769995
0.769998
0.769999
0.77
0.77
0.77
0.77
0.77
0.77
0.77
0.77
0.77
0.77
0.77
0.77
2.24667e-06
9.81878e-06
2.25554e-05
4.39058e-05
7.9518e-05
0.000138532
0.000235534
0.000393434
0.000647552
0.00105117
0.00168265
0.0026538
0.00411848
0.00627913
0.00938798
0.0137386
0.0196446
0.0274066
0.0372731
0.0494068
0.0638649
0.0805989
0.0994691
0.120266
0.142736
0.166595
0.191552
0.217317
0.243607
0.270158
0.296728
0.323098
0.349075
0.374496
0.399223
0.423144
0.446167
0.468225
0.48927
0.509271
0.528215
0.546102
0.562942
0.578756
0.59357
0.607419
0.620339
0.632373
0.643564
0.653954
0.66359
0.672515
0.680773
0.688407
0.695459
0.701968
0.707885
0.713242
0.718369
0.723095
0.727382
0.731464
0.735338
0.739014
0.742496
0.745785
0.748881
0.751783
0.754488
0.75699
0.759286
0.761368
0.763229
0.764859
0.76625
0.767392
0.768283
0.768936
0.769379
0.769657
0.769819
0.769909
0.769955
0.769979
0.76999
0.769995
0.769998
0.769999
0.77
0.77
0.77
0.77
0.77
0.77
0.77
0.77
0.77
0.77
0.77
0.77
2.24673e-06
9.81904e-06
2.2556e-05
4.3907e-05
7.95201e-05
0.000138535
0.000235539
0.000393441
0.000647558
0.00105117
0.00168263
0.00265374
0.00411831
0.00627876
0.00938726
0.0137372
0.0196423
0.0274029
0.0372674
0.0493984
0.063853
0.0805828
0.099448
0.12024
0.142702
0.166555
0.191505
0.217261
0.243543
0.270087
0.296649
0.323011
0.348981
0.374394
0.399115
0.42303
0.446048
0.468102
0.489142
0.509141
0.528083
0.545968
0.562807
0.578621
0.593436
0.607285
0.620207
0.632243
0.643435
0.653828
0.663467
0.672395
0.680657
0.688296
0.695352
0.701865
0.707788
0.713149
0.71828
0.723011
0.727307
0.731392
0.735268
0.738946
0.74243
0.745721
0.74882
0.751725
0.754433
0.75694
0.75924
0.761326
0.763192
0.764827
0.766223
0.767371
0.768267
0.768925
0.769371
0.769652
0.769817
0.769907
0.769955
0.769978
0.76999
0.769995
0.769998
0.769999
0.77
0.77
0.77
0.77
0.77
0.77
0.77
0.77
0.77
0.77
0.77
0.77
2.24684e-06
9.81951e-06
2.25571e-05
4.39091e-05
7.95238e-05
0.000138541
0.000235548
0.000393453
0.000647572
0.00105118
0.00168261
0.00265366
0.0041181
0.00627827
0.00938627
0.0137354
0.0196391
0.0273976
0.0372592
0.0493862
0.0638358
0.0805594
0.0994172
0.1202
0.142654
0.166496
0.191435
0.21718
0.24345
0.269982
0.296532
0.322882
0.34884
0.374243
0.398954
0.42286
0.44587
0.467916
0.488951
0.508945
0.527883
0.545766
0.562604
0.578417
0.593233
0.607084
0.620009
0.632048
0.643244
0.65364
0.663282
0.672216
0.680484
0.688128
0.69519
0.70171
0.707642
0.71301
0.718147
0.722884
0.727194
0.731283
0.73516
0.738841
0.742329
0.745624
0.748727
0.751637
0.75435
0.756863
0.759169
0.761263
0.763135
0.764778
0.766182
0.767338
0.768243
0.768907
0.76936
0.769646
0.769813
0.769905
0.769954
0.769978
0.76999
0.769995
0.769998
0.769999
0.77
0.77
0.77
0.77
0.77
0.77
0.77
0.77
0.77
0.77
0.77
0.77
2.24704e-06
9.82039e-06
2.25591e-05
4.3913e-05
7.95309e-05
0.000138553
0.000235567
0.000393482
0.000647611
0.00105123
0.00168266
0.00265366
0.00411796
0.00627786
0.00938529
0.0137334
0.0196355
0.0273915
0.0372495
0.0493716
0.0638149
0.0805306
0.099379
0.120151
0.142592
0.166421
0.191346
0.217075
0.24333
0.269846
0.29638
0.322714
0.348658
0.374046
0.398743
0.422636
0.445636
0.467672
0.488699
0.508685
0.527619
0.545498
0.562333
0.578146
0.592962
0.606815
0.619743
0.631786
0.642987
0.65339
0.663039
0.671978
0.680251
0.687903
0.694973
0.701502
0.707446
0.712823
0.717968
0.722713
0.727042
0.731135
0.735016
0.7387
0.742191
0.745491
0.748601
0.751517
0.754238
0.756758
0.759074
0.761176
0.763059
0.764712
0.766127
0.767294
0.768209
0.768884
0.769345
0.769636
0.769808
0.769902
0.769952
0.769977
0.769989
0.769995
0.769998
0.769999
0.77
0.77
0.77
0.77
0.77
0.77
0.77
0.77
0.77
0.77
0.77
0.77
2.2474e-06
9.82195e-06
2.25627e-05
4.39201e-05
7.95438e-05
0.000138575
0.000235604
0.000393539
0.000647697
0.00105135
0.00168281
0.00265383
0.0041181
0.00627781
0.00938478
0.013732
0.0196324
0.0273858
0.0372399
0.0493566
0.0637926
0.0804992
0.0993367
0.120096
0.142523
0.166335
0.191242
0.216953
0.243188
0.269684
0.296198
0.322513
0.348437
0.373807
0.398486
0.422364
0.445349
0.467372
0.488388
0.508365
0.527291
0.545165
0.561997
0.577808
0.592624
0.606479
0.61941
0.631457
0.642664
0.653074
0.662731
0.67168
0.679962
0.68762
0.6947
0.70124
0.707198
0.712586
0.717743
0.7225
0.726855
0.730941
0.734827
0.738516
0.742014
0.745321
0.748438
0.751363
0.754093
0.756624
0.758951
0.761065
0.76296
0.764627
0.766055
0.767236
0.768166
0.768853
0.769325
0.769624
0.769801
0.769899
0.76995
0.769976
0.769989
0.769995
0.769998
0.769999
0.77
0.77
0.77
0.77
0.77
0.77
0.77
0.77
0.77
0.77
0.77
0.77
2.24799e-06
9.82456e-06
2.25688e-05
4.3932e-05
7.95655e-05
0.000138613
0.000235667
0.000393643
0.00064786
0.00105159
0.00168316
0.00265429
0.00411866
0.0062784
0.00938522
0.0137319
0.019631
0.027382
0.0372324
0.0493436
0.0637721
0.080469
0.0992944
0.12004
0.142449
0.166243
0.19113
0.216819
0.243031
0.269504
0.295994
0.322284
0.348185
0.373533
0.398191
0.422048
0.445014
0.467022
0.488023
0.507988
0.526904
0.54477
0.561597
0.577405
0.59222
0.606075
0.619009
0.631061
0.642274
0.652691
0.662357
0.671316
0.67961
0.687282
0.694372
0.700921
0.706898
0.7123
0.717471
0.722242
0.726626
0.730705
0.734596
0.738291
0.741794
0.74511
0.748236
0.751171
0.753913
0.756457
0.758798
0.760927
0.762838
0.764521
0.765967
0.767165
0.768112
0.768815
0.769299
0.769609
0.769793
0.769895
0.769948
0.769975
0.769988
0.769995
0.769998
0.769999
0.77
0.77
0.77
0.77
0.77
0.77
0.77
0.77
0.77
0.77
0.77
0.77
2.2489e-06
9.82855e-06
2.2578e-05
4.39503e-05
7.95991e-05
0.000138672
0.000235769
0.000393811
0.000648131
0.00105201
0.0016838
0.00265521
0.0041199
0.00627998
0.00938705
0.0137337
0.0196324
0.0273822
0.0372297
0.049336
0.0637574
0.0804448
0.0992579
0.119988
0.14238
0.166154
0.191018
0.216683
0.242869
0.269314
0.295776
0.322039
0.347912
0.373232
0.397864
0.421697
0.44464
0.466627
0.48761
0.50756
0.526462
0.544318
0.561137
0.576939
0.591751
0.605607
0.618542
0.630598
0.641817
0.652242
0.661917
0.670887
0.679193
0.686879
0.693984
0.700547
0.70654
0.711956
0.717143
0.721929
0.726347
0.730421
0.734318
0.738021
0.741533
0.744855
0.747991
0.750937
0.753693
0.756254
0.758612
0.76076
0.76269
0.764392
0.765859
0.767078
0.768045
0.768767
0.769268
0.769591
0.769782
0.769889
0.769945
0.769974
0.769988
0.769994
0.769997
0.769999
0.769999
0.77
0.77
0.77
0.77
0.77
0.77
0.77
0.77
0.77
0.77
0.77
2.25019e-06
9.83422e-06
2.25912e-05
4.39764e-05
7.96473e-05
0.000138758
0.000235916
0.00039406
0.000648541
0.00105267
0.00168482
0.00265675
0.00412213
0.00628304
0.00939102
0.0137385
0.0196377
0.0273873
0.0372338
0.0493375
0.0637536
0.0804326
0.0992341
0.119949
0.142324
0.166076
0.190916
0.216554
0.242712
0.269126
0.295557
0.321787
0.347628
0.372916
0.397517
0.421321
0.444237
0.466198
0.487158
0.507087
0.525973
0.543814
0.560622
0.576416
0.591223
0.605075
0.618011
0.63007
0.641294
0.651727
0.661411
0.670392
0.678711
0.686411
0.693532
0.700114
0.706132
0.711564
0.716764
0.721568
0.726007
0.730083
0.733991
0.737705
0.74123
0.744568
0.747717
0.750677
0.753445
0.756017
0.758391
0.760561
0.762513
0.764239
0.765729
0.766973
0.767964
0.768708
0.769232
0.769569
0.76977
0.769882
0.769942
0.769972
0.769987
0.769994
0.769997
0.769999
0.769999
0.77
0.77
0.77
0.77
0.77
0.77
0.77
0.77
0.77
0.77
0.77
2.25189e-06
9.84169e-06
2.26086e-05
4.40111e-05
7.97118e-05
0.000138873
0.000236118
0.000394403
0.000649113
0.0010536
0.0016863
0.00265904
0.00412556
0.006288
0.00939787
0.0137475
0.0196488
0.0273999
0.037247
0.0493499
0.0637638
0.0804381
0.0992313
0.119934
0.142291
0.166023
0.190838
0.216448
0.242575
0.268956
0.295352
0.321546
0.34735
0.372601
0.397166
0.420934
0.443817
0.465747
0.486678
0.506582
0.525445
0.543267
0.560059
0.575841
0.590639
0.604486
0.61742
0.629479
0.640707
0.651145
0.660839
0.66983
0.678162
0.685877
0.693015
0.699615
0.705659
0.711117
0.716338
0.721162
0.725621
0.729698
0.733613
0.737337
0.740875
0.744227
0.747395
0.750374
0.753163
0.755756
0.758148
0.760331
0.762307
0.764058
0.765575
0.766847
0.767867
0.768644
0.769188
0.769541
0.769754
0.769874
0.769938
0.76997
0.769986
0.769994
0.769997
0.769999
0.769999
0.77
0.77
0.77
0.77
0.77
0.77
0.77
0.77
0.77
0.77
0.77
2.25395e-06
9.85082e-06
2.263e-05
4.40538e-05
7.97918e-05
0.000139018
0.000236372
0.000394843
0.000649857
0.00105484
0.0016883
0.00266219
0.0041304
0.00629518
0.00940816
0.0137616
0.0196673
0.027423
0.037274
0.0493793
0.0637934
0.0804654
0.0992539
0.119949
0.142294
0.166008
0.190799
0.216382
0.242476
0.268822
0.29518
0.321334
0.347096
0.372305
0.396828
0.420555
0.443398
0.46529
0.486186
0.506058
0.524893
0.54269
0.55946
0.575224
0.590008
0.603846
0.616773
0.62883
0.640059
0.650501
0.660202
0.669203
0.677547
0.685275
0.692428
0.699045
0.705109
0.710589
0.715836
0.720687
0.725173
0.729254
0.733179
0.736916
0.740468
0.743836
0.74702
0.75002
0.75283
0.755447
0.757865
0.760074
0.762065
0.763841
0.765389
0.766699
0.767761
0.768566
0.769136
0.769509
0.769736
0.769864
0.769933
0.769968
0.769985
0.769993
0.769997
0.769999
0.769999
0.77
0.77
0.77
0.77
0.77
0.77
0.77
0.77
0.77
0.77
0.77
2.25624e-06
9.86093e-06
2.26539e-05
4.41021e-05
7.98832e-05
0.000139185
0.000236671
0.000395367
0.000650759
0.00105636
0.00169082
0.00266626
0.00413678
0.0063049
0.00942245
0.0137819
0.0196948
0.0274587
0.0373182
0.0494314
0.0638515
0.0805262
0.0993134
0.120003
0.142339
0.16604
0.190815
0.216374
0.242438
0.268747
0.295064
0.321174
0.346891
0.372053
0.396527
0.420206
0.443002
0.464849
0.485703
0.505535
0.524333
0.542097
0.558839
0.574579
0.589344
0.603166
0.616082
0.628132
0.639357
0.649801
0.659506
0.668514
0.676869
0.684612
0.691781
0.698418
0.704524
0.710027
0.715293
0.720162
0.724668
0.72876
0.732695
0.736443
0.740008
0.743391
0.746594
0.749614
0.752448
0.755093
0.757542
0.759789
0.761818
0.76363
0.765214
0.766556
0.767644
0.768477
0.769075
0.769471
0.769714
0.769852
0.769927
0.769965
0.769983
0.769992
0.769997
0.769998
0.769999
0.77
0.77
0.77
0.77
0.77
0.77
0.77
0.77
0.77
0.77
0.77
2.25838e-06
9.87048e-06
2.26767e-05
4.41492e-05
7.99744e-05
0.000139356
0.000236984
0.000395928
0.00065175
0.00105807
0.00169372
0.00267107
0.00414453
0.00631702
0.00944079
0.0138086
0.0197322
0.0275089
0.0373826
0.0495105
0.0639443
0.0806305
0.0994254
0.120117
0.142449
0.166139
0.190899
0.216437
0.242477
0.268756
0.295033
0.321098
0.346764
0.371872
0.396292
0.419916
0.442657
0.46445
0.485252
0.505035
0.523788
0.541511
0.558216
0.573924
0.588661
0.60246
0.615359
0.627396
0.638613
0.649053
0.658758
0.667771
0.676133
0.683886
0.691068
0.697716
0.703875
0.709395
0.714669
0.719554
0.724079
0.728191
0.73214
0.735903
0.739485
0.742887
0.74611
0.749154
0.752014
0.754688
0.75717
0.759453
0.76152
0.763376
0.764997
0.766373
0.767499
0.768371
0.769003
0.769426