/*--------------------------------*- C++ -*----------------------------------*\
  =========                 |
  \\      /  F ield         | OpenFOAM: The Open Source CFD Toolbox
   \\    /   O peration     | Website:  https://openfoam.org
    \\  /    A nd           | Version:  8
     \\/     M anipulation  |
\*---------------------------------------------------------------------------*/
FoamFile
{
    version     2.0;
    format      ascii;
    class       volScalarField;
    location    "460/fluid";
    object      O2;
}
// * * * * * * * * * * * * * * * * * * * * * * * * * * * * * * * * * * * * * //

dimensions      [0 0 0 0 0 0 0];

internalField   nonuniform List<scalar> 
4000
(
4.35934e-10
1.90316e-09
4.36195e-09
8.46239e-09
1.52613e-08
2.64569e-08
4.47417e-08
7.43154e-08
1.21602e-07
1.96204e-07
3.12071e-07
4.88786e-07
7.52667e-07
1.13724e-06
1.68253e-06
2.43262e-06
3.4197e-06
4.6816e-06
6.23462e-06
8.07233e-06
1.01673e-05
1.24743e-05
1.49363e-05
1.749e-05
2.00714e-05
2.26192e-05
2.50774e-05
2.73971e-05
2.95373e-05
3.14653e-05
3.3159e-05
3.4609e-05
3.58243e-05
3.68422e-05
3.77409e-05
3.86541e-05
3.97855e-05
4.14196e-05
4.3932e-05
4.78031e-05
5.36414e-05
6.22256e-05
7.44954e-05
9.17132e-05
0.000115621
0.000148355
0.000192711
0.00025235
0.000332062
0.000438105
0.000578649
0.00076433
0.00100897
0.00133047
0.001752
0.00230344
0.00302326
0.00395752
0.00514315
0.00672015
0.00876004
0.0113972
0.0147625
0.0309327
0.0474863
0.0641079
0.080557
0.0966481
0.112235
0.127201
0.141449
0.154894
0.167458
0.179026
0.189601
0.199046
0.20726
0.214142
0.219612
0.223661
0.226406
0.2281
0.229054
0.22955
0.229792
0.229906
0.229958
0.229982
0.229992
0.229997
0.229999
0.229999
0.23
0.23
0.23
0.23
0.23
0.23
0.23
0.23
4.44802e-10
1.9432e-09
4.45924e-09
8.66548e-09
1.56573e-08
2.71978e-08
4.60849e-08
7.66817e-08
1.2565e-07
2.02924e-07
3.22889e-07
5.05638e-07
7.77949e-07
1.17331e-06
1.731e-06
2.49227e-06
3.50359e-06
4.79782e-06
6.38771e-06
8.2678e-06
1.04115e-05
1.27742e-05
1.52988e-05
1.79212e-05
2.05763e-05
2.32009e-05
2.57373e-05
2.81346e-05
3.03498e-05
3.23489e-05
3.41083e-05
3.5618e-05
3.68874e-05
3.79551e-05
3.89028e-05
3.98709e-05
4.10725e-05
4.2805e-05
4.54603e-05
4.954e-05
5.56523e-05
6.45395e-05
7.72544e-05
9.52276e-05
0.000120041
0.000153893
0.00019965
0.000261066
0.000343063
0.000452092
0.000596603
0.000787657
0.00103972
0.00137168
0.00180822
0.00238154
0.00313368
0.0041175
0.00537535
0.00705997
0.00925437
0.0121075
0.0157465
0.0322099
0.0489699
0.0657389
0.0822946
0.0984625
0.114104
0.129104
0.143368
0.156808
0.169344
0.180842
0.191326
0.200634
0.208659
0.215304
0.2205
0.224272
0.226779
0.228301
0.229151
0.229593
0.22981
0.229913
0.229961
0.229983
0.229993
0.229997
0.229999
0.229999
0.23
0.23
0.23
0.23
0.23
0.23
0.23
0.23
4.58147e-10
2.00231e-09
4.59827e-09
8.94366e-09
1.61742e-08
2.81151e-08
4.76535e-08
7.92759e-08
1.29811e-07
2.09395e-07
3.32653e-07
5.19949e-07
7.9826e-07
1.20069e-06
1.77151e-06
2.55646e-06
3.60229e-06
4.93371e-06
6.56807e-06
8.50183e-06
1.07098e-05
1.31479e-05
1.5759e-05
1.84784e-05
2.12393e-05
2.39766e-05
2.66302e-05
2.91466e-05
3.14803e-05
3.35947e-05
3.54644e-05
3.70778e-05
3.84442e-05
3.96043e-05
4.0645e-05
4.17157e-05
4.30459e-05
4.49495e-05
4.78285e-05
5.21492e-05
5.8585e-05
6.81157e-05
8.17902e-05
0.000100837
0.000127001
0.000162545
0.000210426
0.000274516
0.000359905
0.000473283
0.000623451
0.000821985
0.00108412
0.00142995
0.00188597
0.00248729
0.00328055
0.00431765
0.00566957
0.00751523
0.00997307
0.0132723
0.0176779
0.0344884
0.0514856
0.0684136
0.0850694
0.101291
0.116945
0.131922
0.146125
0.159468
0.171867
0.183183
0.193439
0.20247
0.210178
0.216479
0.221337
0.224811
0.227092
0.228466
0.229231
0.229629
0.229826
0.22992
0.229964
0.229984
0.229993
0.229997
0.229999
0.229999
0.23
0.23
0.23
0.23
0.23
0.23
0.23
0.23
4.71126e-10
2.05925e-09
4.72999e-09
9.20216e-09
1.66458e-08
2.894e-08
4.90574e-08
8.16171e-08
1.33643e-07
2.1552e-07
3.42265e-07
5.34687e-07
8.20452e-07
1.23852e-06
1.82856e-06
2.63629e-06
3.70554e-06
5.07109e-06
6.75164e-06
8.74494e-06
1.10266e-05
1.35531e-05
1.62666e-05
1.91012e-05
2.19884e-05
2.4861e-05
2.76561e-05
3.03173e-05
3.27963e-05
3.50538e-05
3.70618e-05
3.88073e-05
4.02991e-05
4.15812e-05
4.27481e-05
4.39521e-05
4.54285e-05
4.74843e-05
5.05859e-05
5.53287e-05
6.25126e-05
7.28831e-05
8.75364e-05
0.000107858
0.000135638
0.0001732
0.000223581
0.000290765
0.000379981
0.000498109
0.000654196
0.000860145
0.00113164
0.00148935
0.0019606
0.00258157
0.00340031
0.00446682
0.00585532
0.00774417
0.0102501
0.0135874
0.0205986
0.0375773
0.0546938
0.0716952
0.0883814
0.104592
0.120196
0.135083
0.149157
0.162332
0.174522
0.185623
0.195592
0.204305
0.211674
0.217628
0.222155
0.225344
0.227408
0.228637
0.229317
0.229671
0.229845
0.229929
0.229968
0.229986
0.229994
0.229997
0.229999
0.23
0.23
0.23
0.23
0.23
0.23
0.23
0.23
0.23
4.82781e-10
2.11007e-09
4.84614e-09
9.42641e-09
1.70469e-08
2.96272e-08
5.02029e-08
8.34835e-08
1.36619e-07
2.20196e-07
3.49983e-07
5.47839e-07
8.43532e-07
1.27251e-06
1.87828e-06
2.70815e-06
3.8078e-06
5.21408e-06
6.94769e-06
9.00809e-06
1.13722e-05
1.39968e-05
1.68239e-05
1.97867e-05
2.28148e-05
2.58387e-05
2.87929e-05
3.16181e-05
3.42626e-05
3.66839e-05
3.8851e-05
4.07508e-05
4.23858e-05
4.37943e-05
4.5067e-05
4.63627e-05
4.79608e-05
5.02521e-05
5.38062e-05
5.92207e-05
6.7121e-05
7.84228e-05
9.42655e-05
0.000116091
0.000145749
0.000185635
0.000238876
0.000309563
0.000403058
0.000526397
0.000688811
0.000902412
0.00118311
0.00155181
0.002036
0.00267194
0.00350749
0.00458932
0.00599112
0.00788989
0.010395
0.0137069
0.0241549
0.04112
0.0582327
0.0752197
0.0918692
0.108014
0.123519
0.138274
0.15218
0.165151
0.177102
0.187957
0.197625
0.206015
0.213047
0.218665
0.22288
0.225808
0.227679
0.228783
0.229391
0.229706
0.229861
0.229936
0.229971
0.229987
0.229994
0.229998
0.229999
0.23
0.23
0.23
0.23
0.23
0.23
0.23
0.23
0.23
4.93418e-10
2.15631e-09
4.95131e-09
9.628e-09
1.74035e-08
3.02478e-08
5.128e-08
8.53635e-08
1.39946e-07
2.26212e-07
3.59855e-07
5.63106e-07
8.65705e-07
1.30541e-06
1.92717e-06
2.78013e-06
3.91212e-06
5.36232e-06
7.1537e-06
9.28761e-06
1.17422e-05
1.44748e-05
1.74271e-05
2.0531e-05
2.37145e-05
2.69056e-05
3.00361e-05
3.30437e-05
3.58747e-05
3.84803e-05
4.0818e-05
4.28624e-05
4.46093e-05
4.60985e-05
4.744e-05
4.89475e-05
5.08924e-05
5.36886e-05
5.7757e-05
6.3752e-05
7.24539e-05
8.4818e-05
0.000102031
0.000125593
0.000157424
0.000200011
0.000256594
0.000331406
0.000429984
0.000559578
0.000729675
0.000952696
0.0012449
0.00162759
0.0021287
0.00278491
0.0036436
0.00474638
0.00617908
0.00812015
0.0106731
0.0140281
0.0277352
0.0446469
0.0617231
0.078668
0.0952564
0.111314
0.126703
0.14131
0.155039
0.167804
0.179492
0.190091
0.199476
0.207562
0.21428
0.219589
0.223521
0.226217
0.227919
0.228913
0.229457
0.229738
0.229876
0.229943
0.229974
0.229988
0.229995
0.229998
0.229999
0.23
0.23
0.23
0.23
0.23
0.23
0.23
0.23
0.23
5.04145e-10
2.20324e-09
5.06028e-09
9.84631e-09
1.78223e-08
3.10057e-08
5.25956e-08
8.7572e-08
1.43527e-07
2.31754e-07
3.68572e-07
5.76799e-07
8.8704e-07
1.33829e-06
1.97714e-06
2.85477e-06
4.0214e-06
5.51879e-06
7.37239e-06
9.58567e-06
1.21382e-05
1.4988e-05
1.80763e-05
2.13341e-05
2.46871e-05
2.80611e-05
3.1386e-05
3.45901e-05
3.76094e-05
4.03889e-05
4.2867e-05
4.50373e-05
4.69137e-05
4.86607e-05
5.03946e-05
5.22267e-05
5.44883e-05
5.76249e-05
6.21946e-05
6.88821e-05
7.85141e-05
9.20957e-05
0.000110871
0.000136412
0.000170729
0.000216427
0.000276899
0.000356577
0.000461256
0.000598516
0.000778271
0.00101348
0.00132111
0.0017233
0.00224906
0.00293633
0.00383294
0.00498019
0.00647039
0.00847259
0.0110844
0.01445
0.0307988
0.0477537
0.0648631
0.0818092
0.0983606
0.114343
0.129622
0.144087
0.157646
0.170215
0.181666
0.192023
0.20114
0.208942
0.215368
0.220395
0.224075
0.226566
0.228122
0.229023
0.229513
0.229765
0.229889
0.229949
0.229977
0.22999
0.229995
0.229998
0.229999
0.23
0.23
0.23
0.23
0.23
0.23
0.23
0.23
0.23
5.15481e-10
2.25297e-09
5.17494e-09
1.00691e-08
1.82192e-08
3.16905e-08
5.37547e-08
8.95058e-08
1.46714e-07
2.36953e-07
3.76983e-07
5.90274e-07
9.08373e-07
1.3716e-06
2.0283e-06
2.93187e-06
4.13517e-06
5.68277e-06
7.60289e-06
9.90134e-06
1.25593e-05
1.55356e-05
1.87712e-05
2.21968e-05
2.57334e-05
2.92979e-05
3.28102e-05
3.61918e-05
3.93768e-05
4.23186e-05
4.49916e-05
4.74591e-05
4.97317e-05
5.17706e-05
5.37211e-05
5.58178e-05
5.84128e-05
6.19891e-05
6.71537e-05
7.46395e-05
8.53228e-05
0.000100263
0.000120768
0.00014849
0.000185547
0.000234683
0.000299479
0.000384615
0.000496221
0.000642328
0.000833459
0.00108341
0.00141026
0.00183772
0.00239689
0.00312849
0.00408836
0.00530434
0.00694402
0.0090892
0.0118897
0.0154642
0.0326989
0.0501343
0.0674919
0.0845451
0.101112
0.117046
0.13223
0.146565
0.159967
0.172359
0.183624
0.193769
0.202633
0.210164
0.216317
0.22109
0.224547
0.226862
0.228293
0.229116
0.22956
0.229788
0.2299
0.229954
0.229979
0.229991
0.229996
0.229998
0.229999
0.23
0.23
0.23
0.23
0.23
0.23
0.23
0.23
0.23
5.26075e-10
2.29921e-09
5.28093e-09
1.0275e-08
1.85916e-08
3.23401e-08
5.48647e-08
9.13765e-08
1.49833e-07
2.42102e-07
3.85398e-07
6.03872e-07
9.30065e-07
1.40569e-06
2.08098e-06
3.01171e-06
4.25354e-06
5.85416e-06
7.84481e-06
1.02339e-05
1.30046e-05
1.61168e-05
1.9508e-05
2.31027e-05
2.6818e-05
3.05558e-05
3.42423e-05
3.78032e-05
4.12567e-05
4.45412e-05
4.76296e-05
5.04102e-05
5.29054e-05
5.51818e-05
5.73909e-05
5.97932e-05
6.27741e-05
6.68585e-05
7.26989e-05
8.10746e-05
9.29091e-05
0.000109314
0.000131662
0.000161684
0.000201605
0.00025431
0.000323566
0.000414306
0.000532999
0.000688142
0.000890907
0.00115601
0.00150288
0.00195723
0.0025532
0.0033364
0.0043621
0.00568226
0.00748699
0.00988685
0.013103
0.0173709
0.0348858
0.0525091
0.06997
0.0870565
0.103601
0.119468
0.134548
0.148748
0.161988
0.174192
0.185256
0.195161
0.203826
0.211166
0.217114
0.221673
0.224942
0.227109
0.228436
0.229193
0.229599
0.229807
0.229909
0.229958
0.229981
0.229991
0.229996
0.229998
0.229999
0.23
0.23
0.23
0.23
0.23
0.23
0.23
0.23
0.23
5.36214e-10
2.34349e-09
5.38265e-09
1.04732e-08
1.89522e-08
3.29728e-08
5.59521e-08
9.322e-08
1.52925e-07
2.47235e-07
3.93832e-07
6.17573e-07
9.52035e-07
1.4404e-06
2.13487e-06
3.09375e-06
4.37575e-06
6.03185e-06
8.09684e-06
1.05813e-05
1.34678e-05
1.67135e-05
2.02518e-05
2.40062e-05
2.78988e-05
3.18586e-05
3.58611e-05
3.98393e-05
4.36501e-05
4.72431e-05
5.05754e-05
5.3618e-05
5.63811e-05
5.8937e-05
6.14533e-05
6.42173e-05
6.76489e-05
7.23157e-05
7.89137e-05
8.82649e-05
0.000101335
0.000119284
0.000143538
0.000175901
0.000218688
0.000274899
0.00034845
0.00044446
0.000569637
0.00073278
0.000945441
0.00122282
0.00158492
0.00205818
0.00267755
0.00348942
0.00454654
0.00590646
0.00776024
0.0102105
0.0134626
0.0195042
0.0371246
0.0548085
0.072289
0.0893579
0.105851
0.121637
0.136608
0.150672
0.163748
0.175754
0.186613
0.19632
0.204787
0.211947
0.217758
0.222161
0.225274
0.227316
0.228555
0.229257
0.229632
0.229823
0.229917
0.229962
0.229983
0.229992
0.229997
0.229999
0.229999
0.23
0.23
0.23
0.23
0.23
0.23
0.23
0.23
0.23
5.46031e-10
2.3864e-09
5.48137e-09
1.06661e-08
1.9304e-08
3.35922e-08
5.70206e-08
9.50381e-08
1.55985e-07
2.52337e-07
4.0225e-07
6.31303e-07
9.74142e-07
1.47546e-06
2.18952e-06
3.17729e-06
4.50075e-06
6.21374e-06
8.35293e-06
1.09304e-05
1.39255e-05
1.72989e-05
2.09903e-05
2.49685e-05
2.91553e-05
3.34795e-05
3.78052e-05
4.20617e-05
4.61759e-05
5.00837e-05
5.37339e-05
5.70978e-05
6.01867e-05
6.30818e-05
6.59704e-05
6.91685e-05
7.31313e-05
7.84682e-05
8.59158e-05
9.63338e-05
0.000110725
0.00013029
0.000156504
0.000191229
0.000236852
0.000296464
0.000374084
0.000474954
0.000605924
0.000775943
0.000996727
0.00128362
0.00165675
0.00214254
0.00277576
0.00360226
0.00467262
0.00604072
0.00789251
0.0103203
0.0135122
0.0217499
0.0393467
0.0569987
0.0744345
0.0914444
0.107862
0.123555
0.138417
0.152356
0.165293
0.177161
0.187939
0.197512
0.205807
0.212763
0.218337
0.222585
0.225561
0.227493
0.228656
0.229311
0.22966
0.229837
0.229923
0.229965
0.229984
0.229993
0.229997
0.229999
0.229999
0.23
0.23
0.23
0.23
0.23
0.23
0.23
0.23
0.23
5.55511e-10
2.42786e-09
5.57685e-09
1.0853e-08
1.96454e-08
3.41946e-08
5.80624e-08
9.68159e-08
1.58987e-07
2.57356e-07
4.10558e-07
6.44903e-07
9.96119e-07
1.51046e-06
2.24427e-06
3.26084e-06
4.62444e-06
6.39129e-06
8.60009e-06
1.12675e-05
1.43881e-05
1.79486e-05
2.19028e-05
2.61457e-05
3.06004e-05
3.5183e-05
3.98062e-05
4.43866e-05
4.88463e-05
5.31159e-05
5.71394e-05
6.08852e-05
6.43659e-05
6.76731e-05
7.10159e-05
7.47401e-05
7.93345e-05
8.5448e-05
9.38542e-05
0.000105446
0.000121258
0.000142529
0.000170776
0.000207913
0.000256391
0.00031937
0.000400951
0.000506467
0.000642856
0.000819161
0.00104717
0.00134228
0.0017246
0.00222045
0.00286434
0.00370158
0.00478045
0.00615501
0.00801121
0.010439
0.0136253
0.0237571
0.0413404
0.0589592
0.0763448
0.0932857
0.109615
0.125207
0.13996
0.153785
0.16663
0.178424
0.189074
0.198508
0.206653
0.213452
0.218872
0.22294
0.225803
0.227642
0.228741
0.229356
0.229683
0.229848
0.229928
0.229967
0.229985
0.229993
0.229997
0.229999
0.229999
0.23
0.23
0.23
0.23
0.23
0.23
0.23
0.23
0.23
5.64561e-10
2.46745e-09
5.66809e-09
1.10318e-08
1.99725e-08
3.47728e-08
5.90644e-08
9.85296e-08
1.61888e-07
2.62221e-07
4.18635e-07
6.5817e-07
1.01759e-06
1.54454e-06
2.29715e-06
3.34062e-06
4.74201e-06
6.56168e-06
8.85515e-06
1.16478e-05
1.49412e-05
1.86866e-05
2.28321e-05
2.73066e-05
3.20289e-05
3.69123e-05
4.18692e-05
4.68138e-05
5.16648e-05
5.63489e-05
6.08062e-05
6.50026e-05
6.89533e-05
7.27618e-05
7.66617e-05
8.10273e-05
8.63773e-05
9.33961e-05
0.00010289
0.00011578
0.000133134
0.000156223
0.000186608
0.000226253
0.000277667
0.000344076
0.000429653
0.000539808
0.000681559
0.000864024
0.00109906
0.0014021
0.00179326
0.00229882
0.00295306
0.00380054
0.0048886
0.00627318
0.00813913
0.0105721
0.0137564
0.0255139
0.0430814
0.0606641
0.0779917
0.0948542
0.111112
0.126635
0.141322
0.15509
0.167845
0.179519
0.190047
0.199353
0.207365
0.214029
0.219316
0.223262
0.225997
0.227764
0.228811
0.229394
0.229702
0.229857
0.229933
0.229969
0.229986
0.229994
0.229997
0.229999
0.229999
0.23
0.23
0.23
0.23
0.23
0.23
0.23
0.23
0.23
5.7304e-10
2.50455e-09
5.75365e-09
1.11995e-08
2.02799e-08
3.5317e-08
6.00093e-08
1.00149e-07
1.64636e-07
2.66838e-07
4.26299e-07
6.70706e-07
1.03779e-06
1.5764e-06
2.34674e-06
3.4179e-06
4.86561e-06
6.75964e-06
9.14518e-06
1.205e-05
1.54733e-05
1.93858e-05
2.37353e-05
2.84526e-05
3.34573e-05
3.86631e-05
4.39817e-05
4.9326e-05
5.46126e-05
5.97655e-05
6.47219e-05
6.94464e-05
7.39585e-05
7.83764e-05
8.29597e-05
8.81073e-05
9.43601e-05
0.000102433
0.00011316
0.00012749
0.00014652
0.000171558
0.00020421
0.000246491
0.000300967
0.000370931
0.000460627
0.000575539
0.000722759
0.00091148
0.00115362
0.00146467
0.00186477
0.00238004
0.00304446
0.00390329
0.00500287
0.00639863
0.00827493
0.0107162
0.013891
0.0269967
0.0445661
0.0621285
0.0794187
0.0962538
0.112464
0.127925
0.142535
0.156209
0.168868
0.180441
0.190865
0.200061
0.20796
0.214509
0.219683
0.223523
0.226172
0.227861
0.228866
0.229424
0.229717
0.229864
0.229936
0.229971
0.229987
0.229994
0.229997
0.229999
0.23
0.23
0.23
0.23
0.23
0.23
0.23
0.23
0.23
0.23
5.80782e-10
2.53844e-09
5.83184e-09
1.1353e-08
2.05613e-08
3.58158e-08
6.0876e-08
1.01635e-07
1.67153e-07
2.71057e-07
4.33291e-07
6.82147e-07
1.05638e-06
1.60683e-06
2.39722e-06
3.501e-06
4.99218e-06
6.9417e-06
9.40479e-06
1.2413e-05
1.59695e-05
2.00495e-05
2.46046e-05
2.95686e-05
3.48633e-05
4.04044e-05
4.61046e-05
5.18773e-05
5.76389e-05
6.33123e-05
6.8834e-05
7.41697e-05
7.93457e-05
8.44984e-05
8.99142e-05
9.60067e-05
0.000103328
0.000112617
0.00012473
0.000140644
0.000161487
0.000188608
0.00022366
0.000268711
0.000326389
0.000400052
0.000494014
0.000613827
0.000766655
0.000961751
0.00121109
0.0015301
0.00193866
0.00246295
0.00313787
0.00400803
0.00511683
0.00652169
0.00840641
0.0108546
0.0140248
0.0282292
0.0458085
0.0633559
0.0806292
0.0974232
0.113583
0.128986
0.143531
0.157131
0.169712
0.181203
0.19154
0.200645
0.20845
0.214902
0.219981
0.223735
0.226311
0.227947
0.228911
0.229447
0.229729
0.22987
0.229939
0.229972
0.229987
0.229994
0.229998
0.229999
0.23
0.23
0.23
0.23
0.23
0.23
0.23
0.23
0.23
0.23
5.87602e-10
2.56829e-09
5.90072e-09
1.14882e-08
2.08093e-08
3.62555e-08
6.16407e-08
1.02948e-07
1.69383e-07
2.74809e-07
4.39573e-07
6.92827e-07
1.07452e-06
1.63719e-06
2.44518e-06
3.5734e-06
5.10093e-06
7.10229e-06
9.63723e-06
1.2742e-05
1.64244e-05
2.06645e-05
2.5418e-05
3.06226e-05
3.62041e-05
4.20814e-05
4.81704e-05
5.43871e-05
6.06504e-05
6.68853e-05
7.30308e-05
7.90573e-05
8.50024e-05
9.1025e-05
9.74365e-05
0.000104648
0.000113206
0.000123868
0.00013751
0.000155136
0.000177913
0.000207231
0.000244795
0.000292733
0.000353733
0.00043122
0.000529575
0.00065442
0.00081298
0.00101451
0.0012709
0.00159758
0.00201475
0.00254881
0.003233
0.00411121
0.00522566
0.00663218
0.00851094
0.0109383
0.0140501
0.0292362
0.0468286
0.0643714
0.0816188
0.0983772
0.114494
0.129847
0.144336
0.157877
0.170394
0.181818
0.192086
0.201116
0.208844
0.215218
0.22022
0.223903
0.226422
0.228014
0.22895
0.229467
0.229739
0.229875
0.229941
0.229973
0.229988
0.229995
0.229998
0.229999
0.23
0.23
0.23
0.23
0.23
0.23
0.23
0.23
0.23
0.23
5.93353e-10
2.59346e-09
5.95882e-09
1.16023e-08
2.10189e-08
3.6628e-08
6.22905e-08
1.0407e-07
1.71316e-07
2.78158e-07
4.45384e-07
7.02513e-07
1.09021e-06
1.66192e-06
2.48403e-06
3.63362e-06
5.19271e-06
7.2394e-06
9.83756e-06
1.30279e-05
1.68231e-05
2.12076e-05
2.61421e-05
3.15691e-05
3.7419e-05
4.36158e-05
5.00803e-05
5.6734e-05
6.35013e-05
7.03133e-05
7.71163e-05
8.38914e-05
9.0694e-05
9.77115e-05
0.000105274
0.000113762
0.0001237
0.000135857
0.000151128
0.00017055
0.000195327
0.000226901
0.000267032
0.000317908
0.000382286
0.000463656
0.000566458
0.000696355
0.000860577
0.00106843
0.00133198
0.001667
0.00209347
0.00263687
0.00333065
0.00421824
0.00534044
0.00675342
0.00863639
0.0110643
0.0141656
0.0300062
0.0476195
0.0651642
0.0823964
0.0991283
0.115211
0.130524
0.144969
0.158462
0.170929
0.1823
0.192512
0.201484
0.209151
0.215463
0.220404
0.224033
0.226506
0.228065
0.228979
0.229482
0.229746
0.229879
0.229943
0.229974
0.229988
0.229995
0.229998
0.229999
0.23
0.23
0.23
0.23
0.23
0.23
0.23
0.23
0.23
0.23
5.97887e-10
2.6133e-09
6.00464e-09
1.16925e-08
2.11851e-08
3.6925e-08
6.28125e-08
1.04981e-07
1.72895e-07
2.80823e-07
4.49774e-07
7.09736e-07
1.10199e-06
1.68089e-06
2.51421e-06
3.68085e-06
5.26525e-06
7.34851e-06
9.99798e-06
1.32583e-05
1.71462e-05
2.16509e-05
2.67373e-05
3.2353e-05
3.84337e-05
4.49089e-05
5.17064e-05
5.87547e-05
6.59868e-05
7.33442e-05
8.07859e-05
8.83109e-05
9.60021e-05
0.000104083
0.000112893
0.000122752
0.00013414
0.00014783
0.000164741
0.000185941
0.00021268
0.000246452
0.000289073
0.000342791
0.000410421
0.000495513
0.000602572
0.000737327
0.000907148
0.0011216
0.00139275
0.00173587
0.0021709
0.00272346
0.0034267
0.00432356
0.00545335
0.00687222
0.00875764
0.0111815
0.0142629
0.0305747
0.0482139
0.0657605
0.0829813
0.0996924
0.115748
0.13103
0.145441
0.158898
0.171326
0.182656
0.192826
0.201755
0.209376
0.215642
0.22054
0.224128
0.226568
0.228102
0.229
0.229494
0.229752
0.229882
0.229944
0.229974
0.229988
0.229995
0.229998
0.229999
0.23
0.23
0.23
0.23
0.23
0.23
0.23
0.23
0.23
0.23
6.01026e-10
2.62706e-09
6.03645e-09
1.17551e-08
2.13005e-08
3.71306e-08
6.31729e-08
1.056e-07
1.73938e-07
2.82577e-07
4.52703e-07
7.14591e-07
1.10996e-06
1.69383e-06
2.53489e-06
3.7134e-06
5.31549e-06
7.42444e-06
1.01102e-05
1.34202e-05
1.73745e-05
2.19656e-05
2.71624e-05
3.29165e-05
3.91681e-05
4.58523e-05
5.2903e-05
6.02563e-05
6.78546e-05
7.5651e-05
8.36203e-05
9.17836e-05
0.000100257
0.000109301
0.000119244
0.000130458
0.000143232
0.000158341
0.000176727
0.000199497
0.000227948
0.000263626
0.000308404
0.000364591
0.00043507
0.000523468
0.000634385
0.000773676
0.000948774
0.00116904
0.00144658
0.00179685
0.00223967
0.00280054
0.00351228
0.00441731
0.00555353
0.00697648
0.00886145
0.0112767
0.0143329
0.0309493
0.0486142
0.0661665
0.0833802
0.100077
0.116112
0.131372
0.145758
0.159189
0.17159
0.182893
0.193035
0.201934
0.209525
0.21576
0.220628
0.224189
0.226607
0.228126
0.229013
0.229501
0.229756
0.229883
0.229945
0.229975
0.229989
0.229995
0.229998
0.229999
0.23
0.23
0.23
0.23
0.23
0.23
0.23
0.23
0.23
0.23
6.02591e-10
2.63391e-09
6.05225e-09
1.17861e-08
2.13572e-08
3.72307e-08
6.33453e-08
1.05894e-07
1.74438e-07
2.83418e-07
4.5411e-07
7.16927e-07
1.1138e-06
1.70007e-06
2.5449e-06
3.72918e-06
5.33993e-06
7.4615e-06
1.01651e-05
1.34999e-05
1.74875e-05
2.21224e-05
2.73755e-05
3.32007e-05
3.95412e-05
4.63351e-05
5.35201e-05
6.10372e-05
6.88348e-05
7.68735e-05
8.51384e-05
9.36649e-05
0.000102587
0.000112169
0.000122808
0.00013493
0.000148904
0.000165087
0.00018451
0.000208345
0.000237939
0.000274886
0.000321107
0.000378957
0.000451366
0.000542011
0.00065553
0.0007978
0.00097628
0.00120046
0.00148245
0.00183772
0.00228608
0.00285292
0.00357087
0.00448193
0.00562294
0.00704868
0.00893234
0.0113383
0.0143697
0.0311346
0.0488221
0.06638
0.0835899
0.100277
0.116301
0.131547
0.145919
0.159336
0.171722
0.18301
0.193137
0.202021
0.209597
0.215817
0.22067
0.224218
0.226626
0.228137
0.229019
0.229504
0.229758
0.229884
0.229946
0.229975
0.229989
0.229995
0.229998
0.229999
0.23
0.23
0.23
0.23
0.23
0.23
0.23
0.23
0.23
0.23
6.0259e-10
2.6339e-09
6.05222e-09
1.1786e-08
2.1357e-08
3.72302e-08
6.33441e-08
1.05892e-07
1.74433e-07
2.8341e-07
4.54099e-07
7.16913e-07
1.11379e-06
1.70005e-06
2.54488e-06
3.72915e-06
5.33989e-06
7.46145e-06
1.01651e-05
1.34998e-05
1.74874e-05
2.21223e-05
2.73753e-05
3.32005e-05
3.9541e-05
4.63348e-05
5.35198e-05
6.1037e-05
6.88345e-05
7.68732e-05
8.51381e-05
9.36646e-05
0.000102586
0.000112169
0.000122808
0.00013493
0.000148904
0.000165087
0.000184511
0.000208345
0.00023794
0.000274887
0.000321108
0.000378958
0.000451368
0.000542014
0.000655534
0.000797805
0.000976287
0.00120047
0.00148246
0.00183773
0.0022861
0.00285294
0.0035709
0.00448196
0.00562298
0.00704872
0.0089324
0.0113384
0.0143698
0.0311351
0.0488226
0.0663805
0.0835903
0.100277
0.116301
0.131547
0.145919
0.159336
0.171722
0.183011
0.193137
0.202021
0.209597
0.215817
0.22067
0.224218
0.226626
0.228137
0.229019
0.229504
0.229758
0.229884
0.229946
0.229975
0.229989
0.229995
0.229998
0.229999
0.23
0.23
0.23
0.23
0.23
0.23
0.23
0.23
0.23
0.23
6.01041e-10
2.62713e-09
6.03663e-09
1.17554e-08
2.13009e-08
3.71307e-08
6.31707e-08
1.05593e-07
1.73922e-07
2.82543e-07
4.52656e-07
7.14537e-07
1.1099e-06
1.69375e-06
2.53481e-06
3.71329e-06
5.31536e-06
7.42427e-06
1.01099e-05
1.34199e-05
1.73742e-05
2.19652e-05
2.71619e-05
3.29159e-05
3.91675e-05
4.58516e-05
5.29022e-05
6.02554e-05
6.78537e-05
7.565e-05
8.36193e-05
9.17826e-05
0.000100256
0.0001093
0.000119244
0.000130458
0.000143232
0.000158341
0.000176728
0.000199498
0.000227949
0.000263628
0.000308406
0.000364595
0.000435075
0.000523475
0.000634396
0.000773691
0.000948793
0.00116907
0.00144661
0.00179689
0.00223971
0.00280059
0.00351235
0.0044174
0.00555363
0.00697661
0.00886162
0.0112769
0.0143332
0.0309509
0.0486157
0.0661679
0.0833816
0.100078
0.116114
0.131373
0.145759
0.15919
0.171591
0.182894
0.193035
0.201934
0.209525
0.215761
0.220628
0.224189
0.226607
0.228126
0.229013
0.229501
0.229756
0.229883
0.229945
0.229975
0.229989
0.229995
0.229998
0.229999
0.23
0.23
0.23
0.23
0.23
0.23
0.23
0.23
0.23
0.23
5.97946e-10
2.61358e-09
6.00532e-09
1.16939e-08
2.11877e-08
3.69294e-08
6.28193e-08
1.04987e-07
1.7289e-07
2.80815e-07
4.49788e-07
7.09769e-07
1.10205e-06
1.68098e-06
2.51434e-06
3.68103e-06
5.26551e-06
7.34884e-06
9.99841e-06
1.32588e-05
1.71469e-05
2.16516e-05
2.67381e-05
3.23538e-05
3.84345e-05
4.49099e-05
5.17073e-05
5.87557e-05
6.59879e-05
7.33453e-05
8.07871e-05
8.83123e-05
9.60038e-05
0.000104085
0.000112895
0.000122755
0.000134143
0.000147834
0.000164746
0.000185947
0.000212688
0.000246461
0.000289083
0.000342803
0.000410435
0.000495529
0.000602589
0.000737349
0.000907178
0.00112164
0.0013928
0.00173593
0.00217096
0.00272354
0.0034268
0.0043237
0.00545351
0.00687243
0.0087579
0.0111818
0.0142633
0.0305773
0.0482164
0.065763
0.0829835
0.0996945
0.11575
0.131032
0.145442
0.158899
0.171327
0.182657
0.192827
0.201756
0.209377
0.215643
0.22054
0.224128
0.226568
0.228102
0.229
0.229494
0.229752
0.229882
0.229944
0.229974
0.229988
0.229995
0.229998
0.229999
0.23
0.23
0.23
0.23
0.23
0.23
0.23
0.23
0.23
0.23
5.93413e-10
2.59372e-09
5.95942e-09
1.16035e-08
2.10212e-08
3.66325e-08
6.22994e-08
1.04088e-07
1.71347e-07
2.78175e-07
4.45324e-07
7.02486e-07
1.09021e-06
1.66194e-06
2.48409e-06
3.63373e-06
5.19288e-06
7.23965e-06
9.8379e-06
1.30283e-05
1.68236e-05
2.12082e-05
2.61427e-05
3.15697e-05
3.74197e-05
4.36164e-05
5.00809e-05
5.67346e-05
6.35019e-05
7.0314e-05
7.71171e-05
8.38922e-05
9.0695e-05
9.77128e-05
0.000105276
0.000113764
0.000123703
0.00013586
0.000151132
0.000170555
0.000195333
0.000226909
0.000267041
0.00031792
0.000382301
0.000463674
0.000566479
0.000696378
0.000860602
0.00106846
0.00133202
0.00166706
0.00209354
0.00263697
0.00333078
0.00421841
0.00534065
0.00675369
0.00863673
0.0110647
0.0141661
0.0300099
0.0476231
0.0651676
0.0823997
0.0991313
0.115214
0.130527
0.144971
0.158464
0.170931
0.182302
0.192513
0.201485
0.209152
0.215463
0.220405
0.224034
0.226506
0.228065
0.228979
0.229482
0.229746
0.229879
0.229943
0.229974
0.229988
0.229995
0.229998
0.229999
0.23
0.23
0.23
0.23
0.23
0.23
0.23
0.23
0.23
0.23
5.87653e-10
2.56851e-09
5.9012e-09
1.14891e-08
2.0811e-08
3.62589e-08
6.16475e-08
1.02962e-07
1.69418e-07
2.74889e-07
4.3971e-07
6.92877e-07
1.07449e-06
1.63717e-06
2.44516e-06
3.57342e-06
5.10099e-06
7.10241e-06
9.63741e-06
1.27422e-05
1.64247e-05
2.06649e-05
2.54184e-05
3.0623e-05
3.62045e-05
4.20818e-05
4.81707e-05
5.43874e-05
6.06507e-05
6.68855e-05
7.3031e-05
7.90575e-05
8.50027e-05
9.10254e-05
9.74371e-05
0.000104649
0.000113208
0.00012387
0.000137513
0.00015514
0.000177918
0.000207237
0.000244803
0.000292744
0.000353747
0.000431238
0.000529598
0.00065445
0.000813018
0.00101456
0.00127095
0.00159765
0.00201485
0.00254893
0.00323315
0.0041114
0.0052259
0.00663249
0.00851134
0.0109388
0.0140506
0.0292413
0.0468335
0.064376
0.0816231
0.0983811
0.114498
0.12985
0.144339
0.15788
0.170397
0.181821
0.192087
0.201118
0.208845
0.215219
0.22022
0.223904
0.226422
0.228014
0.22895
0.229467
0.229739
0.229875
0.229941
0.229973
0.229988
0.229995
0.229998
0.229999
0.23
0.23
0.23
0.23
0.23
0.23
0.23
0.23
0.23
0.23
5.80828e-10
2.53863e-09
5.83226e-09
1.13538e-08
2.05627e-08
3.58182e-08
6.08805e-08
1.01644e-07
1.67174e-07
2.711e-07
4.33383e-07
6.82329e-07
1.05663e-06
1.60698e-06
2.39727e-06
3.50099e-06
4.99215e-06
6.94166e-06
9.40474e-06
1.24129e-05
1.59694e-05
2.00495e-05
2.46047e-05
2.95686e-05
3.48634e-05
4.04044e-05
4.61046e-05
5.18773e-05
5.76388e-05
6.33121e-05
6.88338e-05
7.41694e-05
7.93454e-05
8.44981e-05
8.9914e-05
9.60068e-05
0.000103328
0.000112618
0.000124732
0.000140646
0.000161491
0.000188613
0.000223666
0.00026872
0.000326401
0.000400067
0.000494033
0.000613851
0.000766686
0.000961791
0.00121114
0.00153016
0.00193873
0.00246305
0.00313801
0.00400821
0.00511708
0.00652202
0.00840685
0.0108551
0.0140254
0.0282356
0.0458146
0.0633616
0.0806345
0.0974282
0.113588
0.12899
0.143534
0.157134
0.169715
0.181206
0.191543
0.200647
0.208451
0.214903
0.219982
0.223736
0.226312
0.227947
0.228911
0.229448
0.229729
0.22987
0.229939
0.229972
0.229987
0.229994
0.229998
0.229999
0.23
0.23
0.23
0.23
0.23
0.23
0.23
0.23
0.23
0.23
5.73093e-10
2.50478e-09
5.75417e-09
1.12005e-08
2.02817e-08
3.53201e-08
6.00145e-08
1.00158e-07
1.6465e-07
2.66862e-07
4.26347e-07
6.70799e-07
1.03796e-06
1.57679e-06
2.3473e-06
3.41825e-06
4.86576e-06
6.75953e-06
9.14478e-06
1.20493e-05
1.54725e-05
1.9385e-05
2.37347e-05
2.84521e-05
3.34569e-05
3.86627e-05
4.39814e-05
4.93257e-05
5.46123e-05
5.97651e-05
6.47214e-05
6.94458e-05
7.39579e-05
7.83757e-05
8.29591e-05
8.81069e-05
9.436e-05
0.000102434
0.000113161
0.000127492
0.000146523
0.000171562
0.000204216
0.000246499
0.000300977
0.000370944
0.000460644
0.000575561
0.000722788
0.000911517
0.00115367
0.00146473
0.00186486
0.00238015
0.00304461
0.0039035
0.00500312
0.00639898
0.00827539
0.0107168
0.0138916
0.0270046
0.0445736
0.0621356
0.0794253
0.0962598
0.112469
0.12793
0.14254
0.156213
0.168871
0.180444
0.190868
0.200064
0.207962
0.214511
0.219684
0.223524
0.226173
0.227861
0.228867
0.229424
0.229717
0.229864
0.229936
0.229971
0.229987
0.229994
0.229997
0.229999
0.23
0.23
0.23
0.23
0.23
0.23
0.23
0.23
0.23
0.23
5.64619e-10
2.4677e-09
5.66868e-09
1.10329e-08
1.99746e-08
3.47765e-08
5.90707e-08
9.85402e-08
1.61906e-07
2.62249e-07
4.18678e-07
6.5823e-07
1.01769e-06
1.54471e-06
2.29738e-06
3.34115e-06
4.74256e-06
6.5614e-06
8.85367e-06
1.1645e-05
1.49388e-05
1.86848e-05
2.28309e-05
2.73058e-05
3.20282e-05
3.69118e-05
4.18689e-05
4.68135e-05
5.16644e-05
5.63484e-05
6.08056e-05
6.50019e-05
6.89525e-05
7.2761e-05
7.66609e-05
8.10267e-05
8.63771e-05
9.33965e-05
0.000102891
0.000115782
0.000133138
0.000156228
0.000186615
0.000226263
0.00027768
0.000344093
0.000429675
0.000539837
0.000681596
0.00086407
0.00109912
0.00140217
0.00179336
0.00229894
0.00295321
0.00380073
0.00488884
0.0062735
0.00813955
0.0105727
0.013757
0.0255234
0.0430904
0.0606726
0.0779996
0.0948614
0.111118
0.126641
0.141328
0.155095
0.167849
0.179523
0.190051
0.199356
0.207368
0.214031
0.219318
0.223263
0.225998
0.227764
0.228811
0.229394
0.229702
0.229857
0.229933
0.229969
0.229986
0.229994
0.229997
0.229999
0.229999
0.23
0.23
0.23
0.23
0.23
0.23
0.23
0.23
0.23
5.55573e-10
2.42813e-09
5.57748e-09
1.08542e-08
1.96476e-08
3.41985e-08
5.80692e-08
9.68273e-08
1.59006e-07
2.57387e-07
4.10607e-07
6.44976e-07
9.96223e-07
1.51059e-06
2.24444e-06
3.26115e-06
4.62505e-06
6.39282e-06
8.60285e-06
1.12715e-05
1.43911e-05
1.79507e-05
2.19042e-05
2.61467e-05
3.06008e-05
3.51829e-05
3.98058e-05
4.43861e-05
4.88458e-05
5.31153e-05
5.71388e-05
6.08844e-05
6.43651e-05
6.76723e-05
7.10151e-05
7.47395e-05
7.93344e-05
8.54486e-05
9.38557e-05
0.000105448
0.000121263
0.000142535
0.000170784
0.000207925