/*--------------------------------*- C++ -*----------------------------------*\
  =========                 |
  \\      /  F ield         | OpenFOAM: The Open Source CFD Toolbox
   \\    /   O peration     | Website:  https://openfoam.org
    \\  /    A nd           | Version:  8
     \\/     M anipulation  |
\*---------------------------------------------------------------------------*/
FoamFile
{
    version     2.0;
    format      ascii;
    class       surfaceScalarField;
    location    "460/fluid";
    object      phi;
}
// * * * * * * * * * * * * * * * * * * * * * * * * * * * * * * * * * * * * * //

dimensions      [1 0 -1 0 0 0 0];

internalField   nonuniform List<scalar> 
7860
(
6.57327e-07
-1.75464e-08
6.54779e-07
-5.26096e-08
6.51152e-07
-8.74878e-08
6.46343e-07
-1.22092e-07
6.40226e-07
-1.56423e-07
6.32648e-07
-1.90442e-07
6.23432e-07
-2.24072e-07
6.12391e-07
-2.57201e-07
5.99329e-07
-2.89674e-07
5.84058e-07
-3.21283e-07
5.66408e-07
-3.51757e-07
5.46253e-07
-3.80746e-07
5.23543e-07
-4.07811e-07
4.98388e-07
-4.32425e-07
4.71056e-07
-4.53977e-07
4.41877e-07
-4.71804e-07
4.1128e-07
-4.85331e-07
3.7978e-07
-4.94212e-07
3.47917e-07
-4.98462e-07
3.16199e-07
-4.9849e-07
2.85047e-07
-4.95025e-07
2.54766e-07
-4.88943e-07
2.25552e-07
-4.81104e-07
1.97532e-07
-4.72227e-07
1.70786e-07
-4.62836e-07
1.4529e-07
-4.53261e-07
1.20981e-07
-4.43694e-07
9.77837e-08
-4.34227e-07
7.56236e-08
-4.24889e-07
5.44343e-08
-4.15676e-07
3.41583e-08
-4.06572e-07
1.47467e-08
-3.97555e-07
-3.84055e-09
-3.88612e-07
-2.1631e-08
-3.79738e-07
-3.86517e-08
-3.70936e-07
-5.49327e-08
-3.62211e-07
-7.04969e-08
-3.53521e-07
-8.53651e-08
-3.44872e-07
-9.9557e-08
-3.36279e-07
-1.13091e-07
-3.27761e-07
-1.25986e-07
-3.19337e-07
-1.3826e-07
-3.11026e-07
-1.4993e-07
-3.02848e-07
-1.61012e-07
-2.94822e-07
-1.71524e-07
-2.86967e-07
-1.81484e-07
-2.79301e-07
-1.90907e-07
-2.71842e-07
-1.9981e-07
-2.64607e-07
-2.08209e-07
-2.57613e-07
-2.16122e-07
-2.50878e-07
-2.23563e-07
-2.44421e-07
-2.3055e-07
-2.38261e-07
-2.371e-07
-2.3242e-07
-2.43231e-07
-2.26925e-07
-2.48962e-07
-2.21806e-07
-2.54318e-07
-2.171e-07
-2.59328e-07
-2.12854e-07
-2.6403e-07
-2.0913e-07
-2.68469e-07
-2.06035e-07
-2.72689e-07
-2.03575e-07
-2.76783e-07
-2.01952e-07
-2.8113e-07
-2.0132e-07
-2.86673e-07
-2.01629e-07
-2.93824e-07
-2.12454e-07
-3.01991e-07
-2.24651e-07
-3.10983e-07
-2.38109e-07
-3.20851e-07
-2.52983e-07
-3.31712e-07
-2.69497e-07
-3.4372e-07
-2.87904e-07
-3.5708e-07
-3.08511e-07
-3.72071e-07
-3.31696e-07
-3.89066e-07
-3.5791e-07
-4.08566e-07
-3.87672e-07
-4.31223e-07
-4.21672e-07
-4.57872e-07
-4.60634e-07
-4.89488e-07
-5.04728e-07
-5.27024e-07
-5.53119e-07
-5.70968e-07
-6.03241e-07
-6.21166e-07
-6.50028e-07
-6.76645e-07
-6.8644e-07
-7.35224e-07
-7.06352e-07
-7.93951e-07
-7.07916e-07
-8.50121e-07
-6.93912e-07
-9.01959e-07
-6.69001e-07
-9.48657e-07
-6.37389e-07
-9.89968e-07
-6.01876e-07
-1.02577e-06
-5.64019e-07
-1.05633e-06
-5.24586e-07
-1.08219e-06
-4.84027e-07
-1.10392e-06
-4.42687e-07
-1.12201e-06
-4.00835e-07
-1.13694e-06
-3.58675e-07
-1.14914e-06
-3.16365e-07
-1.15897e-06
-2.74019e-07
-1.16679e-06
-2.3171e-07
-1.17286e-06
-1.89477e-07
-1.17745e-06
-1.47327e-07
-1.18074e-06
-1.05247e-07
-1.1829e-06
-6.31886e-08
-2.11034e-08
6.57934e-07
-1.69471e-08
6.55893e-07
-5.05686e-08
6.52338e-07
-8.39325e-08
6.47268e-07
-1.17021e-07
6.40618e-07
-1.49774e-07
6.32295e-07
-1.82118e-07
6.22188e-07
-2.13965e-07
6.10187e-07
-2.45199e-07
5.96188e-07
-2.75674e-07
5.80108e-07
-3.05202e-07
5.61897e-07
-3.33543e-07
5.41548e-07
-3.60391e-07
5.1911e-07
-3.85365e-07
4.94713e-07
-4.08018e-07
4.68566e-07
-4.27813e-07
4.4093e-07
-4.44146e-07
4.12141e-07
-4.56512e-07
3.82591e-07
-4.64624e-07
3.52693e-07
-4.68518e-07
3.22835e-07
-4.68582e-07
2.93342e-07
-4.65478e-07
2.6446e-07
-4.60004e-07
2.36349e-07
-4.52937e-07
2.09114e-07
-4.44938e-07
1.82823e-07
-4.36492e-07
1.57492e-07
-4.27881e-07
1.33113e-07
-4.19269e-07
1.09664e-07
-4.10734e-07
8.71174e-08
-4.02303e-07
6.54477e-08
-3.9397e-07
4.46279e-08
-3.85718e-07
2.46329e-08
-3.77529e-07
5.43867e-09
-3.69389e-07
-1.2977e-08
-3.61295e-07
-3.06347e-08
-3.53252e-07
-4.75542e-08
-3.45264e-07
-6.3753e-08
-3.37295e-07
-7.92492e-08
-3.29348e-07
-9.40609e-08
-3.21439e-07
-1.08207e-07
-3.13587e-07
-1.21704e-07
-3.05811e-07
-1.34571e-07
-2.98131e-07
-1.46825e-07
-2.90565e-07
-1.58486e-07
-2.83133e-07
-1.69573e-07
-2.75852e-07
-1.80104e-07
-2.68742e-07
-1.90099e-07
-2.61819e-07
-1.99578e-07
-2.55101e-07
-2.0856e-07
-2.48604e-07
-2.17066e-07
-2.42346e-07
-2.25117e-07
-2.36345e-07
-2.32736e-07
-2.30618e-07
-2.39947e-07
-2.25186e-07
-2.46777e-07
-2.20073e-07
-2.53258e-07
-2.15306e-07
-2.59426e-07
-2.10915e-07
-2.65327e-07
-2.0694e-07
-2.71008e-07
-2.0344e-07
-2.7655e-07
-2.00488e-07
-2.82048e-07
-1.98079e-07
-2.87657e-07
-1.96356e-07
-2.9359e-07
-1.95414e-07
-3.00371e-07
-1.95336e-07
-3.07766e-07
-2.05121e-07
-3.16289e-07
-2.16206e-07
-3.25882e-07
-2.28608e-07
-3.36553e-07
-2.4242e-07
-3.48383e-07
-2.57791e-07
-3.61504e-07
-2.74925e-07
-3.76093e-07
-2.94084e-07
-3.92374e-07
-3.15597e-07
-4.10626e-07
-3.39863e-07
-4.31184e-07
-3.67348e-07
-4.54409e-07
-3.98711e-07
-4.80754e-07
-4.34588e-07
-5.10752e-07
-4.7506e-07
-5.44946e-07
-5.19278e-07
-5.83753e-07
-5.6479e-07
-6.27349e-07
-6.0676e-07
-6.75344e-07
-6.38712e-07
-7.26351e-07
-6.55534e-07
-7.78222e-07
-6.56162e-07
-8.28856e-07
-6.43343e-07
-8.76768e-07
-6.21122e-07
-9.21193e-07
-5.9298e-07
-9.61815e-07
-5.61262e-07
-9.98467e-07
-5.2737e-07
-1.03112e-06
-4.91939e-07
-1.05986e-06
-4.55283e-07
-1.08487e-06
-4.17675e-07
-1.10638e-06
-3.7933e-07
-1.12463e-06
-3.40419e-07
-1.13992e-06
-3.01083e-07
-1.1525e-06
-2.61434e-07
-1.16265e-06
-2.2156e-07
-1.1706e-06
-1.81522e-07
-1.17657e-06
-1.41365e-07
-1.18069e-06
-1.0112e-07
-1.18307e-06
-6.08087e-08
-2.0355e-08
6.57649e-07
-1.60626e-08
6.55089e-07
-4.80085e-08
6.50864e-07
-7.97076e-08
6.44942e-07
-1.11099e-07
6.37281e-07
-1.42113e-07
6.27836e-07
-1.72673e-07
6.16559e-07
-2.02687e-07
6.03411e-07
-2.3205e-07
5.88369e-07
-2.60631e-07
5.71436e-07
-2.88267e-07
5.52642e-07
-3.14746e-07
5.32053e-07
-3.39798e-07
5.09767e-07
-3.63074e-07
4.85898e-07
-3.84139e-07
4.60591e-07
-4.02493e-07
4.3408e-07
-4.17616e-07
4.06662e-07
-4.29068e-07
3.78672e-07
-4.36603e-07
3.50452e-07
-4.40262e-07
3.22314e-07
-4.40402e-07
2.94515e-07
-4.37634e-07
2.67243e-07
-4.32685e-07
2.4062e-07
-4.26267e-07
2.147e-07
-4.18972e-07
1.89492e-07
-4.1124e-07
1.65006e-07
-4.03354e-07
1.4125e-07
-3.95473e-07
1.18227e-07
-3.87675e-07
9.59377e-08
-3.7998e-07
7.4379e-08
-3.7238e-07
5.35465e-08
-3.64857e-07
3.34341e-08
-3.5739e-07
1.40339e-08
-3.49964e-07
-4.66287e-09
-3.42575e-07
-2.26661e-08
-3.35226e-07
-3.99869e-08
-3.2792e-07
-5.66355e-08
-3.20623e-07
-7.26245e-08
-3.13335e-07
-8.79665e-08
-3.06073e-07
-1.02675e-07
-2.98854e-07
-1.16764e-07
-2.91697e-07
-1.30251e-07
-2.84619e-07
-1.43152e-07
-2.77638e-07
-1.55487e-07
-2.70773e-07
-1.67273e-07
-2.6404e-07
-1.78531e-07
-2.57458e-07
-1.89283e-07
-2.51042e-07
-1.99549e-07
-2.44809e-07
-2.09355e-07
-2.38774e-07
-2.18725e-07
-2.32952e-07
-2.27687e-07
-2.2736e-07
-2.36271e-07
-2.22012e-07
-2.4451e-07
-2.16925e-07
-2.52444e-07
-2.12119e-07
-2.60117e-07
-2.07614e-07
-2.67578e-07
-2.03436e-07
-2.74889e-07
-1.99614e-07
-2.8211e-07
-1.96208e-07
-2.89331e-07
-1.9326e-07
-2.96639e-07
-1.90769e-07
-3.04113e-07
-1.88891e-07
-3.11797e-07
-1.87756e-07
-3.19438e-07
-1.88306e-07
-3.27468e-07
-1.97164e-07
-3.36522e-07
-2.07237e-07
-3.46637e-07
-2.18591e-07
-3.57868e-07
-2.31301e-07
-3.70297e-07
-2.45488e-07
-3.84027e-07
-2.61336e-07
-3.99179e-07
-2.7909e-07
-4.15892e-07
-2.99062e-07
-4.34319e-07
-3.21635e-07
-4.5461e-07
-3.47281e-07
-4.76897e-07
-3.76677e-07
-5.01383e-07
-4.10381e-07
-5.28382e-07
-4.48366e-07
-5.58381e-07
-4.89598e-07
-5.92163e-07
-5.3132e-07
-6.30474e-07
-5.68728e-07
-6.7331e-07
-5.96097e-07
-7.19541e-07
-6.09455e-07
-7.67229e-07
-6.08568e-07
-8.14424e-07
-5.962e-07
-8.59697e-07
-5.75875e-07
-9.02228e-07
-5.50462e-07
-9.41655e-07
-5.21841e-07
-9.77938e-07
-4.9109e-07
-1.01107e-06
-4.58812e-07
-1.04099e-06
-4.25356e-07
-1.06773e-06
-3.90941e-07
-1.09133e-06
-3.55729e-07
-1.1119e-06
-3.19849e-07
-1.12957e-06
-2.83413e-07
-1.14449e-06
-2.46516e-07
-1.15681e-06
-2.09242e-07
-1.16667e-06
-1.71658e-07
-1.17421e-06
-1.33822e-07
-1.17954e-06
-9.57911e-08
-1.18274e-06
-5.76119e-08
-1.92726e-08
6.57662e-07
-1.51907e-08
6.55025e-07
-4.53714e-08
6.50618e-07
-7.53008e-08
6.44439e-07
-1.04919e-07
6.36477e-07
-1.34152e-07
6.26721e-07
-1.62917e-07
6.15161e-07
-1.91127e-07
6.01792e-07
-2.1868e-07
5.86617e-07
-2.45456e-07
5.69653e-07
-2.71301e-07
5.50934e-07
-2.96025e-07
5.30517e-07
-3.19378e-07
5.08491e-07
-3.41042e-07
4.84983e-07
-3.60624e-07
4.60172e-07
-3.7767e-07
4.34284e-07
-3.91712e-07
4.0759e-07
-4.02354e-07
3.80383e-07
-4.09371e-07
3.5296e-07
-4.12808e-07
3.25587e-07
-4.12996e-07
2.98487e-07
-4.10497e-07
2.71827e-07
-4.05987e-07
2.45719e-07
-4.0012e-07
2.2023e-07
-3.93446e-07
1.95396e-07
-3.8637e-07
1.71231e-07
-3.79153e-07
1.47737e-07
-3.71947e-07
1.24912e-07
-3.6482e-07
1.02753e-07
-3.57792e-07
8.12539e-08
-3.50854e-07
6.04102e-08
-3.43988e-07
4.02172e-08
-3.37174e-07
2.06697e-08
-3.30396e-07
1.76138e-09
-3.23647e-07
-1.65146e-08
-3.16931e-07
-3.41653e-08
-3.10251e-07
-5.11971e-08
-3.03572e-07
-6.76175e-08
-2.96894e-07
-8.34364e-08
-2.90233e-07
-9.86646e-08
-2.83605e-07
-1.13316e-07
-2.77024e-07
-1.27405e-07
-2.70508e-07
-1.40947e-07
-2.64073e-07
-1.53961e-07
-2.57736e-07
-1.66465e-07
-2.51514e-07
-1.78479e-07
-2.45421e-07
-1.90025e-07
-2.39474e-07
-2.01126e-07
-2.33686e-07
-2.11807e-07
-2.2807e-07
-2.22096e-07
-2.22641e-07
-2.32023e-07
-2.17411e-07
-2.41621e-07
-2.12393e-07
-2.50925e-07
-2.076e-07
-2.59977e-07
-2.03047e-07
-2.68823e-07
-1.9875e-07
-2.77513e-07
-1.94729e-07
-2.86105e-07
-1.91005e-07
-2.94661e-07
-1.87636e-07
-3.03258e-07
-1.84648e-07
-3.1197e-07
-1.82042e-07
-3.20879e-07
-1.79963e-07
-3.30037e-07
-1.78517e-07
-3.38449e-07
-1.80587e-07
-3.47139e-07
-1.88563e-07
-3.56769e-07
-1.977e-07
-3.67388e-07
-2.08075e-07
-3.79056e-07
-2.19745e-07
-3.91846e-07
-2.32821e-07
-4.05842e-07
-2.47478e-07
-4.21133e-07
-2.63951e-07
-4.37821e-07
-2.82544e-07
-4.56017e-07
-3.03628e-07
-4.75826e-07
-3.27682e-07
-4.97376e-07
-3.55361e-07
-5.20914e-07
-3.87101e-07
-5.46822e-07
-4.22734e-07
-5.75651e-07
-4.61051e-07
-6.08075e-07
-4.99167e-07
-6.44603e-07
-5.32436e-07
-6.85099e-07
-5.55782e-07
-7.28513e-07
-5.66164e-07
-7.73206e-07
-5.63948e-07
-8.17585e-07
-5.51862e-07
-8.60468e-07
-5.33013e-07
-9.01122e-07
-5.09817e-07
-9.3915e-07
-4.83818e-07
-9.74362e-07
-4.5588e-07
-1.00669e-06
-4.26481e-07
-1.03614e-06
-3.9591e-07
-1.06272e-06
-3.64357e-07
-1.08649e-06
-3.31964e-07
-1.10749e-06
-2.9885e-07
-1.12578e-06
-2.65116e-07
-1.14145e-06
-2.30852e-07
-1.15455e-06
-1.96137e-07
-1.16517e-06
-1.61042e-07
-1.17336e-06
-1.25631e-07
-1.17918e-06
-8.99722e-08
-1.18266e-06
-5.41292e-08
-1.81113e-08
6.57598e-07
-1.42553e-08
6.54817e-07
-4.25904e-08
6.50203e-07
-7.06867e-08
6.43761e-07
-9.84771e-08
6.35496e-07
-1.25886e-07
6.25414e-07
-1.52836e-07
6.13527e-07
-1.7924e-07
5.99852e-07
-2.05005e-07
5.84416e-07
-2.30019e-07
5.67259e-07
-2.54143e-07
5.48437e-07
-2.77202e-07
5.2803e-07
-2.98969e-07
5.06144e-07
-3.19152e-07
4.82918e-07
-3.37391e-07
4.58526e-07
-3.53269e-07
4.3318e-07
-3.66355e-07
4.07125e-07
-3.76283e-07
3.80624e-07
-3.8285e-07
3.53934e-07
-3.86094e-07
3.2729e-07
-3.86324e-07
3.00883e-07
-3.84062e-07
2.74859e-07
-3.79932e-07
2.49314e-07
-3.74544e-07
2.24309e-07
-3.68411e-07
1.99878e-07
-3.61908e-07
1.76035e-07
-3.55283e-07
1.52788e-07
-3.48673e-07
1.30138e-07
-3.42144e-07
1.08083e-07
-3.35714e-07
8.66223e-08
-3.29372e-07
6.57535e-08
-3.23099e-07
4.54742e-08
-3.16876e-07
2.57812e-08
-3.10686e-07
6.67108e-09
-3.04521e-07
-1.18603e-08
-2.98385e-07
-2.98169e-08
-2.92279e-07
-4.72031e-08
-2.86169e-07
-6.4025e-08
-2.80056e-07
-8.0291e-08
-2.7395e-07
-9.60117e-08
-2.67866e-07
-1.11199e-07
-2.61819e-07
-1.25865e-07
-2.55823e-07
-1.40026e-07
-2.49893e-07
-1.53697e-07
-2.44046e-07
-1.66896e-07
-2.38295e-07
-1.79643e-07
-2.32654e-07
-1.9196e-07
-2.27137e-07
-2.03868e-07
-2.21757e-07
-2.15394e-07
-2.16525e-07
-2.26564e-07
-2.11452e-07
-2.37408e-07
-2.06549e-07
-2.47956e-07
-2.01826e-07
-2.58243e-07
-1.97294e-07
-2.68308e-07
-1.92965e-07
-2.7819e-07
-1.88851e-07
-2.87936e-07
-1.84967e-07
-2.97594e-07
-1.81331e-07
-3.07216e-07
-1.77999e-07
-3.16871e-07
-1.74981e-07
-3.26621e-07
-1.72278e-07
-3.36545e-07
-1.70026e-07
-3.46676e-07
-1.68312e-07
-3.55715e-07
-1.71996e-07
-3.65154e-07
-1.7921e-07
-3.75409e-07
-1.87537e-07
-3.86542e-07
-1.97041e-07
-3.9862e-07
-2.07774e-07
-4.11716e-07
-2.19843e-07
-4.25905e-07
-2.33419e-07
-4.41266e-07
-2.48733e-07
-4.57886e-07
-2.66082e-07
-4.75858e-07
-2.85831e-07
-4.95263e-07
-3.0847e-07
-5.16225e-07
-3.34613e-07
-5.38982e-07
-3.64576e-07
-5.63897e-07
-3.98064e-07
-5.91488e-07
-4.33706e-07
-6.22372e-07
-4.68513e-07
-6.56992e-07
-4.98011e-07
-6.95185e-07
-5.17734e-07
-7.35997e-07
-5.25449e-07
-7.78009e-07
-5.21993e-07
-8.19875e-07
-5.10026e-07
-8.60601e-07
-4.92303e-07
-8.99551e-07
-4.70875e-07
-9.36351e-07
-4.47022e-07
-9.70781e-07
-4.21451e-07
-1.00271e-06
-3.94557e-07
-1.03205e-06
-3.66569e-07
-1.05876e-06
-3.37641e-07
-1.08284e-06
-3.0789e-07
-1.10427e-06
-2.77415e-07
-1.12309e-06
-2.46301e-07
-1.13931e-06
-2.14631e-07
-1.15297e-06
-1.82479e-07
-1.1641e-06
-1.49913e-07
-1.17273e-06
-1.17002e-07
-1.17888e-06
-8.3817e-08
-1.18258e-06
-5.04308e-08
-1.68713e-08
6.57591e-07
-1.33127e-08
6.54771e-07
-3.97702e-08
6.50086e-07
-6.60014e-08
6.4355e-07
-9.19413e-08
6.3518e-07
-1.17516e-07
6.24995e-07
-1.4265e-07
6.13018e-07
-1.67263e-07
5.99279e-07
-1.91266e-07
5.83817e-07
-2.14556e-07
5.66678e-07
-2.37004e-07
5.47927e-07
-2.5845e-07
5.27645e-07
-2.78685e-07
5.05938e-07
-2.97441e-07
4.8294e-07
-3.14389e-07
4.58822e-07
-3.29144e-07
4.33789e-07
-3.41312e-07
4.08074e-07
-3.50556e-07
3.81928e-07
-3.56688e-07
3.55598e-07
-3.59746e-07
3.29308e-07
-3.60013e-07
3.0324e-07
-3.57971e-07
2.7753e-07
-3.54199e-07
2.52272e-07
-3.49262e-07
2.2752e-07
-3.43635e-07
2.03305e-07
-3.3767e-07
1.79639e-07
-3.31595e-07
1.56527e-07
-3.2554e-07
1.33967e-07
-3.19565e-07
1.11957e-07
-3.13684e-07
9.04925e-08
-3.0789e-07
6.95719e-08
-3.02163e-07
4.91926e-08
-2.96482e-07
2.93529e-08
-2.90832e-07
1.00507e-08
-2.85206e-07
-8.7172e-09
-2.79604e-07
-2.69552e-08
-2.74028e-07
-4.46674e-08
-2.68444e-07
-6.18594e-08
-2.6285e-07
-7.85381e-08
-2.57257e-07
-9.4712e-08
-2.51677e-07
-1.10391e-07
-2.46124e-07
-1.25587e-07
-2.40611e-07
-1.40313e-07
-2.35151e-07
-1.54584e-07
-2.29758e-07
-1.68417e-07
-2.24445e-07
-1.8183e-07
-2.19224e-07
-1.94842e-07
-2.14107e-07
-2.07477e-07
-2.09105e-07
-2.19755e-07
-2.04229e-07
-2.31702e-07
-1.99487e-07
-2.43344e-07
-1.94889e-07
-2.54709e-07
-1.90444e-07
-2.65827e-07
-1.8616e-07
-2.76729e-07
-1.82047e-07
-2.8745e-07
-1.78115e-07
-2.98025e-07
-1.74377e-07
-3.08495e-07
-1.70848e-07
-3.18898e-07
-1.67584e-07
-3.29292e-07
-1.64576e-07
-3.39734e-07
-1.61828e-07
-3.50293e-07
-1.5946e-07
-3.60993e-07
-1.57574e-07
-3.70703e-07
-1.62519e-07
-3.80862e-07
-1.6913e-07
-3.91689e-07
-1.76794e-07
-4.03269e-07
-1.85551e-07
-4.15686e-07
-1.95456e-07
-4.29016e-07
-2.0662e-07
-4.43337e-07
-2.19216e-07
-4.58729e-07
-2.33471e-07
-4.75278e-07
-2.49678e-07
-4.93079e-07
-2.68188e-07
-5.12221e-07
-2.89501e-07
-5.32859e-07
-3.14165e-07
-5.5526e-07
-3.4238e-07
-5.79812e-07
-3.73723e-07
-6.07042e-07
-4.06686e-07
-6.37509e-07
-4.38238e-07
-6.7152e-07
-4.64157e-07
-7.0876e-07
-4.8061e-07
-7.4822e-07
-4.86065e-07
-7.88576e-07
-4.81681e-07
-8.28648e-07
-4.69978e-07
-8.67595e-07
-4.53367e-07
-9.04889e-07
-4.33587e-07
-9.40216e-07
-4.11697e-07
-9.7339e-07
-3.88279e-07
-1.00429e-06
-3.63657e-07
-1.03284e-06
-3.38022e-07
-1.05898e-06
-3.11503e-07
-1.08267e-06
-2.84199e-07
-1.10389e-06
-2.56197e-07
-1.12261e-06
-2.27572e-07
-1.13885e-06
-1.98398e-07
-1.15258e-06
-1.68744e-07
-1.16382e-06
-1.38676e-07
-1.17256e-06
-1.0826e-07
-1.17881e-06
-7.75685e-08
-1.18257e-06
-4.66752e-08
-1.5615e-08
6.57578e-07
-1.23568e-08
6.54725e-07
-3.69172e-08
6.49991e-07
-6.12673e-08
6.43394e-07
-8.5344e-08
6.34955e-07
-1.09077e-07
6.247e-07
-1.32396e-07
6.12661e-07
-1.55224e-07
5.98875e-07
-1.7748e-07
5.83387e-07
-1.99067e-07
5.66253e-07
-2.1987e-07
5.47543e-07
-2.39739e-07
5.27344e-07
-2.58484e-07
5.05764e-07
-2.7586e-07
4.82941e-07
-2.91562e-07
4.59041e-07
-3.05239e-07
4.34262e-07
-3.16526e-07
4.08829e-07
-3.25114e-07
3.82979e-07
-3.30827e-07
3.56946e-07
-3.337e-07
3.30941e-07
-3.33993e-07
3.05138e-07
-3.32151e-07
2.79666e-07
-3.28709e-07
2.54615e-07
-3.24192e-07
2.30037e-07
-3.19039e-07
2.05961e-07
-3.13577e-07
1.82399e-07
-3.08016e-07
1.59355e-07
-3.02479e-07
1.36825e-07
-2.9702e-07
1.14807e-07
-2.91652e-07
9.32973e-08
-2.86367e-07
7.22941e-08
-2.81147e-07
5.17953e-08
-2.75971e-07
3.17988e-08
-2.70825e-07
1.23017e-08
-2.65699e-07
-6.69959e-09
-2.60593e-07
-2.52097e-08
-2.55508e-07
-4.32317e-08
-2.50412e-07
-6.07696e-08
-2.45301e-07
-7.78288e-08
-2.40186e-07
-9.44165e-08
-2.35078e-07
-1.10541e-07
-2.29987e-07
-1.26214e-07
-2.24926e-07
-1.41445e-07
-2.19906e-07
-1.5625e-07
-2.1494e-07
-1.70642e-07
-2.10038e-07
-1.84639e-07
-2.05213e-07
-1.98257e-07
-2.00474e-07
-2.11516e-07
-1.95831e-07
-2.24436e-07
-1.91293e-07
-2.37039e-07
-1.86869e-07
-2.49347e-07
-1.82566e-07
-2.61384e-07
-1.78392e-07
-2.73174e-07
-1.74356e-07
-2.84741e-07
-1.70466e-07
-2.96112e-07
-1.66731e-07
-3.07313e-07
-1.63164e-07
-3.1837e-07
-1.5978e-07
-3.29309e-07
-1.56637e-07
-3.40182e-07
-1.53697e-07
-3.51003e-07
-1.51003e-07
-3.61851e-07
-1.4861e-07
-3.72814e-07
-1.46616e-07
-3.83283e-07
-1.5208e-07
-3.94096e-07
-1.58365e-07
-4.05427e-07
-1.65524e-07
-4.17411e-07
-1.73641e-07
-4.30145e-07
-1.82806e-07
-4.43715e-07
-1.93145e-07
-4.58204e-07
-2.04831e-07
-4.73699e-07
-2.18092e-07
-4.90293e-07
-2.33211e-07
-5.08089e-07
-2.50532e-07
-5.27195e-07
-2.70548e-07
-5.47792e-07
-2.93734e-07
-5.70158e-07
-3.2019e-07
-5.94673e-07
-3.49389e-07
-6.21814e-07
-3.79721e-07
-6.52033e-07
-4.08177e-07
-6.85487e-07
-4.3083e-07
-7.21757e-07
-4.4443e-07
-7.59869e-07
-4.48011e-07
-7.98653e-07
-4.42931e-07
-8.37103e-07
-4.31545e-07
-8.74509e-07
-4.1597e-07
-9.10413e-07
-3.97687e-07
-9.44531e-07
-3.7758e-07
-9.76679e-07
-3.56132e-07
-1.00673e-06
-3.33606e-07
-1.03459e-06
-3.10162e-07
-1.06019e-06
-2.85906e-07
-1.08346e-06
-2.60922e-07
-1.10438e-06
-2.35282e-07
-1.1229e-06
-2.09054e-07
-1.13899e-06
-1.82302e-07
-1.15265e-06
-1.55091e-07
-1.16384e-06
-1.27481e-07
-1.17256e-06
-9.95358e-08
-1.17881e-06
-7.13246e-08
-1.18256e-06
-4.29191e-08
-1.43578e-08
6.57577e-07
-1.13996e-08
6.54717e-07
-3.40573e-08
6.4997e-07
-5.65209e-08
6.43358e-07
-7.87316e-08
6.34904e-07
-1.00624e-07
6.2464e-07
-1.22131e-07
6.12599e-07
-1.43183e-07
5.98824e-07
-1.63705e-07
5.83364e-07
-1.83607e-07
5.66278e-07
-2.02783e-07
5.47638e-07
-2.21098e-07
5.27531e-07
-2.38376e-07
5.06066e-07
-2.54394e-07
4.83378e-07
-2.68872e-07
4.5963e-07
-2.81488e-07
4.35015e-07
-2.91907e-07
4.09752e-07
-2.99845e-07
3.84074e-07
-3.05141e-07
3.58209e-07
-3.07825e-07
3.32362e-07
-3.08135e-07
3.06704e-07
-3.06481e-07
2.81361e-07
-3.03354e-07
2.5642e-07
-2.99238e-07
2.31932e-07
-2.94538e-07
2.07922e-07
-2.89555e-07
1.84403e-07
-2.84484e-07
1.61374e-07
-2.79439e-07
1.38834e-07
-2.74468e-07
1.16778e-07
-2.69586e-07
9.52021e-08
-2.64781e-07
7.41029e-08
-2.60038e-07
5.3477e-08
-2.55336e-07
3.33214e-08
-2.5066e-07
1.36329e-08
-2.46003e-07
-5.59149e-09
-2.41361e-07
-2.43554e-08
-2.36737e-07
-4.2661e-08
-2.32098e-07
-6.05115e-08
-2.27442e-07
-7.79113e-08
-2.22777e-07
-9.48663e-08
-2.18113e-07
-1.11384e-07
-2.13459e-07
-1.27473e-07
-2.08826e-07
-1.43143e-07
-2.04224e-07
-1.58407e-07
-1.99664e-07
-1.73277e-07
-1.95156e-07
-1.87768e-07
-1.9071e-07
-2.01895e-07
-1.86335e-07
-2.15674e-07
-1.82039e-07
-2.29123e-07
-1.77831e-07
-2.4226e-07
-1.73718e-07
-2.55105e-07
-1.69708e-07
-2.67678e-07
-1.65807e-07
-2.79998e-07
-1.62024e-07
-2.92085e-07
-1.58367e-07
-3.03959e-07
-1.54846e-07
-3.15639e-07
-1.51475e-07
-3.27137e-07
-1.48274e-07
-3.38468e-07
-1.45303e-07
-3.49656e-07
-1.42509e-07
-3.60684e-07
-1.39983e-07
-3.71541e-07
-1.3777e-07
-3.8252e-07
-1.35987e-07
-3.93437e-07
-1.41203e-07
-4.04734e-07
-1.47119e-07
-4.16515e-07
-1.53802e-07
-4.28889e-07
-1.61334e-07
-4.41955e-07
-1.69816e-07
-4.55801e-07
-1.79383e-07
-4.70517e-07
-1.90208e-07
-4.86195e-07
-2.02515e-07
-5.02939e-07
-2.16578e-07
-5.20862e-07
-2.3273e-07
-5.40096e-07
-2.51446e-07
-5.60847e-07
-2.73124e-07
-5.83407e-07
-2.97779e-07
-6.08149e-07
-3.24798e-07
-6.35501e-07
-3.52514e-07
-6.6581e-07
-3.77994e-07
-6.99093e-07
-3.97648e-07
-7.34823e-07
-4.0877e-07
-7.72032e-07
-4.10846e-07
-8.09651e-07
-4.05336e-07
-8.46808e-07
-3.94402e-07
-8.82897e-07
-3.79887e-07
-9.17534e-07
-3.63054e-07
-9.50475e-07
-3.44641e-07
-9.8156e-07
-3.25048e-07
-1.01067e-06
-3.04497e-07
-1.03771e-06
-2.83119e-07
-1.06261e-06
-2.61005e-07
-1.08531e-06
-2.38225e-07
-1.10575e-06
-2.14843e-07
-1.12388e-06
-1.90918e-07
-1.13968e-06
-1.66508e-07
-1.1531e-06
-1.4167e-07
-1.16412e-06
-1.16461e-07
-1.17272e-06
-9.09374e-08
-1.17888e-06
-6.5166e-08
-1.18258e-06
-3.92138e-08
-1.31182e-08
6.57576e-07
-1.04417e-08
6.54715e-07
-3.11959e-08
6.49967e-07
-5.1773e-08
6.43354e-07
-7.21186e-08
6.34902e-07
-9.21722e-08
6.24643e-07
-1.11872e-07
6.12615e-07
-1.31155e-07
5.98861e-07
-1.49951e-07
5.83433e-07
-1.68179e-07
5.66392e-07
-1.85742e-07
5.47811e-07
-2.02517e-07
5.27778e-07
-2.18343e-07
5.06403e-07
-2.33018e-07
4.83817e-07
-2.46285e-07
4.60183e-07
-2.57852e-07
4.3569e-07
-2.67412e-07
4.10553e-07
-2.74704e-07
3.84997e-07
-2.79581e-07
3.59248e-07
-2.8207e-07
3.33507e-07
-2.82388e-07
3.07942e-07
-2.80907e-07
2.82675e-07
-2.7808e-07
2.57793e-07
-2.74347e-07
2.33346e-07
-2.70082e-07
2.09359e-07
-2.65559e-07
1.85842e-07
-2.6096e-07
1.62797e-07
-2.56386e-07
1.4022e-07
-2.51883e-07
1.18105e-07
-2.47462e-07
9.64454e-08
-2.43115e-07
7.52373e-08
-2.38823e-07
5.44771e-08
-2.34569e-07
3.4162e-08
-2.30339e-07
1.42894e-08
-2.26124e-07
-5.14334e-09
-2.21923e-07
-2.41397e-08
-2.17735e-07
-4.27014e-08
-2.1353e-07
-6.08306e-08
-2.09306e-07
-7.85308e-08
-2.0507e-07
-9.58066e-08
-2.00829e-07
-1.12664e-07
-1.96593e-07
-1.2911e-07
-1.92371e-07
-1.45154e-07
-1.88171e-07
-1.60805e-07
-1.84003e-07
-1.76074e-07
-1.79877e-07
-1.90974e-07
-1.758e-07
-2.05518e-07
-1.71781e-07
-2.19719e-07
-1.67827e-07
-2.33593e-07
-1.63946e-07
-2.47155e-07
-1.60145e-07
-2.60422e-07
-1.5643e-07
-2.73412e-07
-1.52807e-07
-2.8614e-07
-1.49285e-07
-2.98626e-07
-1.45871e-07
-3.10887e-07
-1.42576e-07
-3.22941e-07
-1.39413e-07
-3.34799e-07
-1.36411e-07
-3.46485e-07
-1.33613e-07
-3.58008e-07
-1.30987e-07
-3.69353e-07
-1.28645e-07
-3.80465e-07
-1.26676e-07
-3.91343e-07
-1.25521e-07
-4.02312e-07
-1.30279e-07
-4.13788e-07
-1.35694e-07
-4.25813e-07
-1.41832e-07
-4.38453e-07
-1.48756e-07
-4.51782e-07
-1.56555e-07
-4.65879e-07
-1.65359e-07
-4.80831e-07
-1.75338e-07
-4.96732e-07
-1.86702e-07
-5.13694e-07
-1.99711e-07
-5.3184e-07
-2.14688e-07
-5.51323e-07
-2.32075e-07
-5.72369e-07
-2.52198e-07
-5.95271e-07
-2.75001e-07
-6.20381e-07
-2.99812e-07
-6.48062e-07
-3.2495e-07
-6.78546e-07
-3.47611e-07
-7.11714e-07
-3.64558e-07
-7.46968e-07
-3.7357e-07
-7.83373e-07
-3.74475e-07
-8.19972e-07
-3.68756e-07
-8.56009e-07
-3.58374e-07
-8.90967e-07
-3.44934e-07
-9.24514e-07
-3.29509e-07
-9.56437e-07
-3.1272e-07
-9.86585e-07
-2.949e-07
-1.01485e-06
-2.76234e-07
-1.04114e-06
-2.56832e-07
-1.06537e-06
-2.3677e-07
-1.08749e-06
-2.16109e-07
-1.10743e-06
-1.94904e-07
-1.12514e-06
-1.73206e-07
-1.14058e-06
-1.51066e-07
-1.15372e-06
-1.28536e-07
-1.16451e-06
-1.05667e-07
-1.17294e-06
-8.2511e-08
-1.17897e-06
-5.91283e-08
-1.18261e-06
-3.55806e-08
-1.19029e-08
6.57578e-07
-9.48557e-09
6.54721e-07
-2.83392e-08
6.4998e-07
-4.70323e-08
6.43377e-07
-6.55159e-08
6.3494e-07
-8.37346e-08
6.247e-07
-1.01632e-07
6.12696e-07
-1.19151e-07
5.98974e-07
-1.36228e-07
5.83584e-07
-1.5279e-07
5.6659e-07
-1.68748e-07
5.48064e-07
-1.83991e-07
5.28095e-07
-1.98374e-07
5.0679e-07
-2.11712e-07
4.84281e-07
-2.23776e-07
4.60727e-07
-2.34297e-07
4.36315e-07
-2.42999e-07
4.11257e-07
-2.49644e-07
3.85776e-07
-2.54098e-07
3.60093e-07
-2.56385e-07
3.34409e-07
-2.567e-07
3.08888e-07
-2.55383e-07
2.83655e-07
-2.52843e-07
2.58794e-07
-2.49482e-07
2.34355e-07
-2.45638e-07
2.10362e-07
-2.41562e-07
1.86826e-07
-2.37419e-07
1.63745e-07
-2.33299e-07
1.41113e-07
-2.29246e-07
1.18924e-07
-2.25268e-07
9.71722e-08
-2.21357e-07
7.58522e-08
-2.17498e-07
5.49608e-08
-2.13673e-07
3.44951e-08
-2.09869e-07
1.44527e-08
-2.06077e-07
-5.16923e-09
-2.02297e-07
-2.43735e-08
-1.98526e-07
-4.31613e-08
-1.94737e-07
-6.1534e-08
-1.90928e-07
-7.94939e-08
-1.87104e-07
-9.70445e-08
-1.83273e-07
-1.1419e-07
-1.79441e-07
-1.30937e-07
-1.75617e-07
-1.47292e-07
-1.71809e-07
-1.63263e-07
-1.68025e-07
-1.78859e-07
-1.64273e-07
-1.9409e-07
-1.6056e-07
-2.08967e-07
-1.56895e-07
-2.23502e-07
-1.53283e-07
-2.37707e-07
-1.49732e-07
-2.51596e-07
-1.46247e-07
-2.65182e-07
-1.42835e-07
-2.78479e-07
-1.39501e-07
-2.91501e-07
-1.36253e-07
-3.04266e-07
-1.33098e-07
-3.16787e-07
-1.30046e-07
-3.29081e-07
-1.27111e-07
-3.41163e-07
-1.24321e-07
-3.53056e-07
-1.21712e-07
-3.64773e-07
-1.19262e-07
-3.76331e-07
-1.17078e-07
-3.87732e-07
-1.15243e-07
-3.98715e-07
-1.14941e-07
-4.09828e-07
-1.19211e-07
-4.21471e-07
-1.24098e-07
-4.33686e-07
-1.29668e-07
-4.46531e-07
-1.35966e-07
-4.6007e-07
-1.43075e-07
-4.74381e-07
-1.51113e-07
-4.89548e-07
-1.6024e-07
-5.05672e-07
-1.70653e-07
-5.22871e-07
-1.82594e-07
-5.41277e-07
-1.96368e-07
-5.61064e-07
-2.12382e-07
-5.82468e-07
-2.30892e-07
-6.0578e-07
-2.5179e-07
-6.31326e-07
-2.74366e-07
-6.59401e-07
-2.96967e-07
-6.90129e-07
-3.16961e-07
-7.23274e-07
-3.31471e-07
-7.58181e-07
-3.38703e-07
-7.93948e-07
-3.38732e-07
-8.29712e-07
-3.33006e-07
-8.6481e-07
-3.23283e-07
-8.98798e-07
-3.10949e-07
-9.3139e-07
-2.96919e-07
-9.62398e-07
-2.81713e-07
-9.91688e-07
-2.6561e-07
-1.01916e-06
-2.48764e-07
-1.04472e-06
-2.31269e-07
-1.0683e-06
-2.13189e-07
-1.08984e-06
-1.94575e-07
-1.10926e-06
-1.75476e-07
-1.12653e-06
-1.55937e-07
-1.1416e-06
-1.36002e-07
-1.15442e-06
-1.15717e-07
-1.16496e-06
-9.51272e-08
-1.17319e-06
-7.42801e-08
-1.17909e-06
-5.32296e-08
-1.18263e-06
-3.20312e-08
-1.07159e-08
6.5758e-07
-8.53139e-09
6.54729e-07
-2.54881e-08
6.49997e-07
-4.23011e-08
6.43408e-07
-5.89262e-08
6.34987e-07
-7.53138e-08
6.24768e-07
-9.14135e-08
6.1279e-07
-1.07173e-07
5.99097e-07
-1.22535e-07
5.83743e-07
-1.37435e-07
5.66789e-07
-1.51794e-07
5.48308e-07
-1.6551e-07
5.28388e-07
-1.78454e-07
5.07137e-07
-1.90461e-07
4.84683e-07
-2.01323e-07
4.61185e-07
-2.108e-07
4.36829e-07
-2.18642e-07
4.11822e-07
-2.24638e-07
3.86386e-07
-2.28664e-07
3.60742e-07
-2.3074e-07
3.35087e-07
-2.31045e-07
3.09586e-07
-2.29882e-07
2.84363e-07
-2.2762e-07
2.59502e-07
-2.24619e-07
2.35052e-07
-2.21186e-07
2.11037e-07
-2.17545e-07
1.87464e-07
-2.13843e-07
1.64332e-07
-2.10164e-07
1.41636e-07
-2.06546e-07
1.19368e-07
-2.02997e-07
9.75227e-08
-1.99509e-07
7.60944e-08
-1.96067e-07
5.50795e-08
-1.92655e-07
3.44751e-08
-1.89261e-07
1.42788e-08
-1.85878e-07
-5.51162e-09
-1.82504e-07
-2.48989e-08
-1.79136e-07
-4.38834e-08
-1.7575e-07
-6.24657e-08
-1.72342e-07
-8.0647e-08
-1.68919e-07
-9.84298e-08
-1.65485e-07
-1.15817e-07
-1.62048e-07
-1.32814e-07
-1.58615e-07
-1.49425e-07
-1.55192e-07
-1.65658e-07
-1.51786e-07
-1.81518e-07
-1.48406e-07
-1.97015e-07
-1.45057e-07
-2.12157e-07
-1.41745e-07
-2.26955e-07
-1.38479e-07
-2.41418e-07
-1.35262e-07
-2.55557e-07
-1.321e-07
-2.69384e-07
-1.29e-07
-2.8291e-07
-1.25966e-07
-2.96149e-07
-1.23006e-07
-3.09114e-07
-1.20126e-07
-3.21817e-07
-1.17335e-07
-3.34274e-07
-1.14646e-07
-3.46502e-07
-1.12086e-07
-3.58523e-07
-1.09685e-07
-3.70354e-07
-1.07423e-07
-3.82033e-07
-1.05393e-07
-3.93577e-07
-1.03667e-07
-4.04712e-07
-1.04107e-07
-4.16037e-07
-1.07925e-07
-4.27873e-07
-1.12305e-07
-4.40277e-07
-1.17308e-07
-4.53311e-07
-1.2298e-07
-4.67043e-07
-1.29394e-07
-4.8155e-07
-1.36661e-07
-4.96923e-07
-1.44925e-07
-5.13267e-07
-1.54371e-07
-5.3071e-07
-1.65218e-07
-5.49394e-07
-1.77755e-07
-5.69507e-07
-1.92345e-07
-5.91296e-07
-2.09183e-07
-6.15044e-07
-2.28123e-07
-6.41042e-07
-2.48446e-07
-6.69518e-07
-2.68562e-07
-7.00491e-07
-2.86047e-07
-7.33628e-07
-2.98378e-07
-7.68237e-07
-3.04123e-07
-8.03456e-07
-3.03529e-07
-8.38506e-07
-2.97966e-07
-8.72804e-07
-2.8899e-07
-9.05963e-07
-2.77792e-07
-9.37732e-07
-2.6515e-07
-9.67946e-07
-2.51499e-07
-9.96483e-07
-2.37073e-07
-1.02325e-06
-2.22e-07
-1.04816e-06
-2.0636e-07
-1.07114e-06
-1.90206e-07
-1.09213e-06
-1.73583e-07
-1.11107e-06
-1.56533e-07
-1.12792e-06
-1.39094e-07
-1.14261e-06
-1.21306e-07
-1.15512e-06
-1.03209e-07
-1.16541e-06
-8.48412e-08
-1.17344e-06
-6.62466e-08
-1.1792e-06
-4.7472e-08
-1.18266e-06
-2.85667e-08
-9.55756e-09
6.57582e-07
-7.57932e-09
6.54737e-07
-2.26432e-08
6.50016e-07
-3.75798e-08
6.43439e-07
-5.23501e-08
6.35036e-07
-6.69102e-08
6.24837e-07
-8.12151e-08
6.12883e-07
-9.52186e-08
5.99218e-07
-1.0887e-07
5.83894e-07
-1.22112e-07
5.66973e-07
-1.34873e-07
5.48528e-07
-1.47065e-07
5.28646e-07
-1.58573e-07
5.07433e-07
-1.69249e-07
4.85019e-07
-1.78909e-07
4.61559e-07
-1.87341e-07
4.37236e-07
-1.94322e-07
4.12259e-07
-1.99663e-07
3.86848e-07
-2.03255e-07
3.61222e-07
-2.05116e-07
3.35578e-07
-2.05403e-07
3.1008e-07
-2.04387e-07
2.84852e-07
-2.02393e-07
2.59976e-07
-1.99744e-07
2.35501e-07
-1.96711e-07
2.11451e-07
-1.93495e-07
1.87834e-07
-1.90225e-07
1.64647e-07
-1.86977e-07
1.41885e-07
-1.83783e-07
1.1954e-07
-1.80651e-07
9.76055e-08
-1.77573e-07
7.60765e-08
-1.74536e-07
5.4949e-08
-1.71526e-07
3.42201e-08
-1.68531e-07
1.38878e-08
-1.65544e-07
-6.04993e-09
-1.62564e-07
-2.55953e-08
-1.59589e-07
-4.47482e-08
-1.56594e-07
-6.35082e-08
-1.5358e-07
-8.18758e-08
-1.50548e-07
-9.98523e-08
-1.47506e-07
-1.1744e-07
-1.44457e-07
-1.34642e-07
-1.41409e-07
-1.51462e-07
-1.38367e-07
-1.67905e-07
-1.35338e-07
-1.83978e-07
-1.32328e-07
-1.99686e-07
-1.29343e-07
-2.15038e-07
-1.26388e-07
-2.3004e-07
-1.2347e-07
-2.44703e-07
-1.20593e-07
-2.59035e-07
-1.17762e-07
-2.73045e-07
-1.14983e-07
-2.86745e-07
-1.1226e-07
-3.00146e-07
-1.09599e-07
-3.13258e-07
-1.07007e-07
-3.26094e-07
-1.04493e-07
-3.38669e-07
-1.02065e-07
-3.50999e-07
-9.9751e-08
-3.63104e-07