/*--------------------------------*- C++ -*----------------------------------*\
  =========                 |
  \\      /  F ield         | OpenFOAM: The Open Source CFD Toolbox
   \\    /   O peration     | Website:  https://openfoam.org
    \\  /    A nd           | Version:  8
     \\/     M anipulation  |
\*---------------------------------------------------------------------------*/
FoamFile
{
    version     2.0;
    format      ascii;
    class       volScalarField;
    location    "460/fluid";
    object      Qdot;
}
// * * * * * * * * * * * * * * * * * * * * * * * * * * * * * * * * * * * * * //

dimensions      [1 -1 -3 0 0 0 0];

internalField   nonuniform List<scalar> 
4000
(
0
0
-6.15317e-21
0
1.85485e-16
2.93095e-11
-5.68767e-20
0
-2.55288e-10
3.42032e-15
2.38891e-10
3.77818e-07
-1.44036e-14
2.91834e-14
1.24309e-09
-3.0025e-17
-2.0705e-09
-2.07333e-15
9.45985e-09
4.00035e-07
2.57925e-06
3.47406e-05
0.000417934
0.00422495
0.0350156
0.237006
1.31948
6.123
24.0616
81.3669
240.316
627.945
1467.15
3094.92
5952.66
10534.7
17371.4
27037.3
40261.2
58087.7
82015.3
114076
156750
213492
289185
390040
524315
702904
940063
1.25441e+06
1.67018e+06
2.21895e+06
2.94173e+06
3.89182e+06
5.1384e+06
6.77131e+06
8.90735e+06
1.16891e+07
1.52374e+07
1.99839e+07
2.61783e+07
3.42824e+07
4.23633e+08
3.37335e+07
2.42165e+07
1.71911e+07
1.20437e+07
8.31014e+06
5.63561e+06
3.74894e+06
2.44371e+06
1.56427e+06
995746
650726
215448
20584.4
638.584
9.7192
0.0931443
0.000879635
1.42538e-05
5.71921e-07
5.70844e-08
1.14483e-08
3.70502e-09
1.19588e-09
5.16117e-10
2.14942e-10
9.05427e-11
3.44225e-11
1.71887e-11
6.71154e-12
2.43495e-12
1.09985e-12
4.91317e-13
1.90629e-13
6.88686e-14
3.10945e-14
1.10066e-14
1.82081e-15
6.99878e-22
7.00468e-13
0
7.48041e-12
1.84136e-16
1.60065e-11
0
0
1.64228e-15
-1.14683e-10
4.88903e-19
0
4.79271e-10
0
-1.20426e-09
5.78219e-14
-2.18361e-16
-2.11677e-15
1.3266e-08
-2.66537e-08
2.48271e-06
3.32048e-05
0.000401389
0.00406506
0.0338839
0.231153
1.29839
6.08066
24.1101
82.2211
244.73
643.966
1513.6
3206.44
6183.05
10959.9
18075
28099.1
41747.5
60051.5
84447
116802
159857
217494
294201
396371
532476
713707
954758
1.27491e+06
1.69943e+06
2.26149e+06
3.00458e+06
3.98582e+06
5.28034e+06
6.9871e+06
9.23686e+06
1.21976e+07
1.60132e+07
2.11662e+07
2.7959e+07
3.69025e+07
4.25195e+08
3.23351e+07
2.321e+07
1.64701e+07
1.15285e+07
7.94252e+06
5.37411e+06
3.56425e+06
2.31509e+06
1.47706e+06
939737
603492
162595
11900.1
311.365
4.17305
0.0382367
0.000391439
7.63571e-06
3.75734e-07
4.36678e-08
9.61632e-09
3.18427e-09
1.14645e-09
4.95739e-10
1.90629e-10
8.11982e-11
3.91478e-11
1.49451e-11
6.5741e-12
2.83638e-12
1.24266e-12
4.86651e-13
1.04043e-12
7.49267e-14
2.79717e-14
-7.6098e-13
1.64272e-15
-2.65129e-07
2.77348e-07
-8.48659e-17
0
-1.81857e-16
-3.18565e-07
0
0
1.60167e-15
-3.25734e-15
2.78087e-10
0
5.68916e-10
0
9.43677e-10
-3.19607e-17
-2.36798e-09
-2.20683e-15
1.76115e-08
2.05404e-09
2.49866e-06
3.31253e-05
0.000397589
0.00402389
0.0336379
0.230712
1.30501
6.16041
24.6315
84.7098
254.22
674.183
1596.03
3399.5
6575.05
11681.4
19275.6
29929.5
44324.4
63344.9
88434.4
121928
166620
225898
304689
409605
549426
735763
983935
1.31416e+06
1.75312e+06
2.33617e+06
3.11011e+06
4.13723e+06
5.50061e+06
7.31168e+06
9.7208e+06
1.2902e+07
1.70964e+07
2.28875e+07
3.0707e+07
4.13295e+07
4.13353e+08
3.07587e+07
2.20569e+07
1.56182e+07
1.08984e+07
7.47872e+06
5.03634e+06
3.32238e+06
2.14631e+06
1.36416e+06
870184
522074
106956
5971.06
135.188
1.67692
0.0157508
0.0001853
4.42902e-06
2.6431e-07
3.50387e-08
8.36847e-09
2.72973e-09
1.04825e-09
4.21569e-10
1.91112e-10
7.87324e-11
2.89395e-11
1.53769e-11
5.95199e-12
2.7862e-12
1.07043e-12
4.81309e-13
1.87947e-13
7.45765e-14
-5.34111e-12
8.77762e-15
1.64711e-15
4.86281e-18
2.76314e-07
0
-2.97008e-07
1.79876e-16
-2.82065e-11
0
3.28384e-07
0
-1.34166e-10
0
0
5.53946e-10
0
-3.84096e-18
-3.09963e-17
-2.34767e-16
-2.27125e-15
1.23447e-08
1.89975e-07
2.52191e-06
3.32799e-05
0.000398509
0.00404611
0.0339946
0.234651
1.33698
6.3605
25.6351
88.8671
268.782
718.123
1711.65
3665.1
7108.2
12642.2
20837.5
32208.6
47423.3
67524
94229.7
129384
175799
237256
318863
427468
572169
765000
1.02188e+06
1.36385e+06
1.81881e+06
2.42379e+06
3.22803e+06
4.29725e+06
5.71942e+06
7.6128e+06
1.01372e+07
1.34681e+07
1.78658e+07
2.3929e+07
3.21049e+07
1.29915e+08
3.34156e+08
2.98497e+07
2.12726e+07
1.49648e+07
1.03708e+07
7.06549e+06
4.72247e+06
3.09191e+06
1.98392e+06
1.25641e+06
806400
417849
64210.4
2822.72
55.8638
0.647156
0.00628984
8.54063e-05
2.49213e-06
1.79821e-07
2.7464e-08
7.31639e-09
2.44379e-09
9.19154e-10
4.12079e-10
1.80757e-10
7.65733e-11
3.71034e-11
8.38988e-12
6.34986e-12
2.21069e-12
1.06096e-12
4.54731e-13
1.61687e-13
6.81857e-14
2.48799e-14
8.79916e-15
1.47405e-15
3.7067e-13
-2.75197e-07
2.85168e-07
0
-3.02606e-07
-5.23125e-20
1.06846e-19
0
1.05371e-10
-3.31253e-07
0
-3.38118e-07
4.38101e-10
0
-3.72279e-18
-2.62574e-17
4.02481e-09
-2.34054e-15
8.23196e-09
1.85958e-08
2.57738e-06
3.39552e-05
0.000406942
0.0041455
0.0349991
0.243045
1.39418
6.68026
27.122
94.7107
288.503
776.085
1860.7
4000.46
7760.52
13751.4
22573.6
34779.2
51168.9
72824.6
101081
138028
186589
250713
335742
448786
599280
799684
1.06647e+06
1.42143e+06
1.89344e+06
2.52077e+06
3.35433e+06
4.46189e+06
5.93389e+06
7.89146e+06
1.04973e+07
1.39214e+07
1.84268e+07
2.46155e+07
3.29153e+07
2.45443e+08
2.24598e+08
2.95112e+07
2.08222e+07
1.45063e+07
9.95783e+06
6.72075e+06
4.45087e+06
2.88863e+06
1.83975e+06
1.16115e+06
749840
313572
36476.3
1318.73
23.2806
0.258039
0.00265873
4.21553e-05
1.49525e-06
1.27551e-07
2.18977e-08
5.88472e-09
2.18016e-09
8.99249e-10
3.48589e-10
1.43527e-10
6.89984e-11
2.99113e-11
1.16776e-11
5.42036e-12
2.30427e-12
8.9097e-13
3.72401e-13
1.68046e-13
6.18952e-14
-7.5651e-13
8.82281e-15
7.44706e-13
0
1.69481e-12
3.50365e-12
1.30849e-11
-1.48025e-11
2.74461e-11
0
-6.26755e-11
2.16597e-19
-1.28369e-10
0
0
0
-1.05418e-09
8.62356e-10
-3.27397e-17
-3.89861e-09
-2.42026e-15
1.59169e-08
3.84785e-07
2.67644e-06
3.50531e-05
0.00042135
0.0043109
0.0365928
0.255661
1.47613
7.12086
29.1112
102.346
313.672
847.866
2038.81
4385.79
8484.4
15023.4
24706.2
38132.5
55893.9
78993.6
108926
147872
198894
266145
355221
473545
630943
840379
1.11898e+06
1.4894e+06
1.98161e+06
2.63535e+06
3.5033e+06
4.65551e+06
6.18518e+06
8.21668e+06
1.09139e+07
1.4434e+07
1.90797e+07
2.54624e+07
3.39909e+07
3.46612e+08
1.22177e+08
2.8949e+07
2.02393e+07
1.3972e+07
9.50508e+06
6.35883e+06
4.17535e+06
2.68835e+06
1.70128e+06
1.0716e+06
691943
221396
20242.9
624.073
9.99659
0.107802
0.00119069
2.2e-05
9.35792e-07
9.45358e-08
1.79616e-08
5.38468e-09
1.93456e-09
7.78204e-10
3.55182e-10
1.4145e-10
6.80209e-11
2.76698e-11
1.31461e-11
4.71872e-12
3.12011e-12
8.39331e-13
3.70667e-13
1.48137e-13
6.18427e-14
-5.26736e-12
-7.52588e-13
7.43758e-13
2.63673e-07
2.72962e-07
-2.81427e-07
-1.29669e-11
1.73868e-16
0
0
1.46298e-15
0
0
0
4.13669e-10
9.25778e-10
0
3.24881e-07
-2.82033e-17
-2.08061e-09
-3.34755e-07
1.19249e-08
2.10667e-07
2.61385e-06
3.65404e-05
0.000441746
0.00454087
0.0387566
0.272413
1.58278
7.68211
31.5801
111.57
343.116
930.051
2242.15
4852.26
9452.98
16733
27423
42018.8
61148.3
85817
117564
158699
212455
283229
376909
501291
666678
886666
1.17923e+06
1.56814e+06
2.0849e+06
2.77123e+06
3.68247e+06
4.89203e+06
6.49743e+06
8.62834e+06
1.14516e+07
1.51263e+07
1.99754e+07
2.65832e+07
3.5331e+07
4.33104e+08
3.94182e+07
2.75902e+07
1.91392e+07
1.31246e+07
8.87481e+06
5.90364e+06
3.85578e+06
2.47087e+06
1.55896e+06
983785
622223
158519
11243.8
304.646
4.51087
0.0481812
0.000576733
1.23817e-05
6.20646e-07
7.11816e-08
1.40509e-08
4.48534e-09
1.69715e-09
6.84995e-10
3.11583e-10
1.32116e-10
6.04621e-11
2.40215e-11
1.08808e-11
4.67419e-12
1.94823e-12
1.636e-14
3.43803e-13
1.35329e-13
5.56722e-14
2.12683e-14
7.39844e-15
1.22714e-15
-3.69097e-13
0
-2.79558e-07
-2.86468e-07
1.71906e-16
2.74494e-12
0
1.03167e-19
-2.08238e-19
2.22977e-10
0
0
-4.96898e-10
0
-8.12003e-10
-3.75719e-17
3.2157e-07
-2.64817e-15
1.48364e-08
3.87914e-07
3.11927e-06
3.85181e-05
0.000467688
0.00483425
0.041488
0.293153
1.71141
8.33877
34.3942
121.917
376.835
1030.75
2513.92
5465.04
10613.7
18681.2
30435.2
46299
66873.4
93166.6
126797
170222
226865
301384
399979
530856
704847
936283
1.24414e+06
1.65358e+06
2.19804e+06
2.92193e+06
3.88435e+06
5.16393e+06
6.86535e+06
9.1279e+06
1.21445e+07
1.60361e+07
2.13568e+07
2.84274e+07
3.77757e+07
4.56371e+08
3.44497e+07
2.44888e+07
1.71612e+07
1.18441e+07
8.03948e+06
5.3586e+06
3.50283e+06
2.24609e+06
1.42012e+06
903043
540845
111191
6429.91
156.527
2.17594
0.0233189
0.000303699
7.5094e-06
4.36993e-07
5.56117e-08
1.24846e-08
4.33316e-09
1.57069e-09
6.51896e-10
2.81332e-10
1.30286e-10
5.96709e-11
2.51986e-11
1.04014e-11
4.44922e-12
1.95376e-12
7.28606e-13
3.1735e-13
1.22673e-13
5.56042e-14
7.90332e-13
6.68594e-15
1.23325e-15
0
1.36195e-12
-2.77698e-07
-7.02088e-12
0
-2.93706e-07
0
-4.83496e-11
0
-2.85767e-15
0
0
-3.05413e-07
-3.06429e-07
-7.87329e-10
-3.63703e-17
-2.85359e-16
-2.78278e-15
2.14502e-08
2.30817e-07
2.97978e-06
4.1159e-05
0.00049941
0.00518336
0.0446615
0.316687
1.85512
9.07427
37.7309
135.182
423.055
1165.11
2846.73
6186.26
11957
20886.8
33776.8
50954.4
72989.6
100897
136396
182092
241602
319828
423257
560468
742792
985235
1.30772e+06
1.73676e+06
2.30769e+06
3.06775e+06
4.08016e+06
5.42988e+06
7.23141e+06
9.63982e+06
1.28492e+07
1.70562e+07
2.28886e+07
3.07692e+07
4.14573e+07
4.39752e+08
3.14458e+07
2.23723e+07
1.57004e+07
1.08512e+07
7.37379e+06
4.91886e+06
3.2176e+06
2.0657e+06
1.31058e+06
841734
466272
78451.9
3853.64
85.7061
1.1326
0.0122895
0.000174165
4.90349e-06
3.26618e-07
4.58012e-08
1.09787e-08
3.76486e-09
1.34806e-09
5.91784e-10
2.77088e-10
1.15743e-10
4.61323e-11
2.11439e-11
9.48918e-12
4.18646e-12
1.62872e-12
8.22928e-13
2.91198e-13
1.27756e-13
4.34762e-14
1.83189e-14
4.38132e-12
4.29509e-12
-2.62545e-07
0
2.75831e-07
0
0
0
0
0
1.39376e-15
0
0
0
2.96978e-07
1.7023e-09
-9.37501e-10
-4.15691e-17
-2.96675e-07
-2.93333e-15
1.75583e-08
2.39523e-07
3.20281e-06
4.37288e-05
0.000534856
0.00556649
0.0480917
0.343519
2.03352
10.0838
42.3058
152.49
478.701
1322.8
3238.36
7027.98
13494.3
23352.2
37431.9
55935.5
79403.1
108866
146157
194017
256241
337918
445764
588626
778180
1.02988e+06
1.36424e+06
1.80853e+06
2.39909e+06
3.18444e+06
4.22945e+06
5.6211e+06
7.47621e+06
9.95225e+06
1.32363e+07
1.75425e+07
2.35004e+07
3.15127e+07
1.02257e+08
3.85359e+08
2.98137e+07
2.11692e+07
1.4832e+07
1.0237e+07
6.94838e+06
4.63077e+06
3.02763e+06
1.94481e+06
1.23797e+06
803067
399805
56572.7
2434.84
50.1405
0.637007
0.00703914
0.00010819
3.4241e-06
2.54667e-07
3.92105e-08
9.67647e-09
3.31958e-09
1.23435e-09
5.82184e-10
2.48082e-10
1.0951e-10
4.55284e-11
2.0799e-11
9.39243e-12
8.98356e-12
1.81196e-12
7.18938e-13
2.6533e-13
1.21844e-13
5.29823e-12
1.89795e-14
5.11966e-12
1.06375e-15
-2.6217e-07
3.01077e-12
0
-2.78681e-07
0
0
0
0
-1.36552e-15
2.90661e-07
0
-3.72956e-10
0
-1.5522e-18
2.15482e-14
-3.70659e-17
-3.15072e-16
-3.08964e-15
1.98386e-08
2.66023e-07
3.4424e-06
4.65786e-05
0.000573782
0.00603036
0.0528142
0.380668
2.26755
11.2844
47.5646
172.289
543.393
1507.46
3697.5
8005.02
15234.8
26067.2
41363.6
61179.9
86014.9
116953
155940
205835
270582
355404
467167
614885
810428
1.06947e+06
1.41276e+06
1.86784e+06
2.47128e+06
3.27174e+06
4.33404e+06
5.74469e+06
7.61924e+06
1.01125e+07
1.3404e+07
1.76953e+07
2.35928e+07
3.1461e+07
1.79045e+08
3.13717e+08
2.89862e+07
2.05242e+07
1.43469e+07
9.88312e+06
6.6976e+06
4.45824e+06
2.91291e+06
1.872e+06
1.19528e+06
781582
346591
42211.9
1630.4
31.3796
0.385888
0.00435851
7.22606e-05
2.53734e-06
2.0919e-07
3.42096e-08
9.30588e-09
3.07211e-09
1.30214e-09
5.7212e-10
2.44792e-10
1.1231e-10
4.48926e-11
2.13128e-11
1.00583e-11
8.87565e-12
1.50408e-12
7.13493e-13
5.56143e-12
1.09333e-13
4.62843e-14
1.74934e-14
5.10486e-12
1.06714e-15
0
0
-5.73919e-21
0
-1.12413e-11
0
0
0
-2.84451e-07
0
2.83085e-07
-7.60561e-19
2.80946e-07
7.17414e-10
-5.98319e-18
-4.17184e-17
2.75419e-07
-3.27247e-15
1.90286e-08
1.4155e-07
3.71198e-06
5.02829e-05
0.000625194
0.00661761
0.058194
0.421564
2.5247
12.6331
53.5496
195.063
618.507
1723.24
4233.95
9130.85
17175.4
28994.7
45499.4
66579.4
92704.1
125042
165640
217472
284589
372310
487597
639556
840150
1.10514e+06
1.45533e+06
1.91826e+06
2.53041e+06
3.34016e+06
4.41174e+06
5.8306e+06
7.71049e+06
1.02033e+07
1.34803e+07
1.77411e+07
2.35838e+07
3.13608e+07
2.41211e+08
2.53954e+08
2.83594e+07
2.00664e+07
1.40166e+07
9.64911e+06
6.53548e+06
4.3489e+06
2.84171e+06
1.828e+06
1.1709e+06
770518
291108
32595.7
1150.81
20.9065
0.250672
0.00289637
5.14688e-05
1.97955e-06
1.75436e-07
3.07358e-08
8.44005e-09
2.82998e-09
1.18369e-09
5.56545e-10
2.39806e-10
9.84958e-11
3.90371e-11
1.42718e-11
8.39531e-12
3.8843e-12
1.49007e-12
6.3829e-13
2.62176e-13
1.08819e-13
4.31878e-14
1.60082e-14
5.6327e-15
9.80482e-16
3.6647e-13
2.66237e-07
0
1.227e-11
-2.76007e-07
-3.26415e-16
0
0
0
0
2.75842e-07
-2.73892e-07
0
-2.91029e-18
-8.66529e-18
-4.59315e-17
-3.43065e-16
-8.29653e-14
2.42874e-08
2.98072e-07
3.89405e-06
5.47207e-05
0.000681219
0.00724312
0.0640213
0.466366
2.80942
14.1434
60.3249
221.114
705.241
1973.98
4856.25
10411
19284.1
32045.1
49701.2
71957.6
99285.4
132956
175108
228819
298210
388673
507224
663025
868075
1.13815e+06
1.49404e+06
1.96318e+06
2.58183e+06
3.39799e+06
4.47522e+06
5.89791e+06
7.77799e+06
1.02635e+07
1.35213e+07
1.77539e+07
2.35473e+07
3.12355e+07
2.9393e+08
2.03181e+08
2.77564e+07
1.96556e+07
1.37388e+07
9.4635e+06
6.41319e+06
4.27002e+06
2.79248e+06
1.79912e+06
1.15622e+06
762813
261635
25928.7
851.056
14.7381
0.173437
0.00205171
3.88078e-05
1.61163e-06
1.54041e-07
2.80146e-08
8.06532e-09
2.76995e-09
1.16011e-09
5.50587e-10
2.12113e-10
9.68204e-11
4.27861e-11
1.92197e-11
7.52586e-12
-1.73545e-12
6.58812e-12
6.06712e-13
2.60366e-13
1.11489e-13
4.30319e-14
1.59805e-14
5.27222e-15
9.82446e-16
0
0
0
-1.14293e-20
0
-3.21732e-16
0
0
0
0
-5.05115e-15
-2.66044e-07
2.6404e-07
-2.81303e-18
-1.11402e-17
-4.97032e-17
-1.30886e-09
-3.66097e-15
2.63973e-08
3.18865e-07
4.38045e-06
5.91011e-05
0.000739079
0.00789999
0.0702317
0.514696
3.12009
15.8101
67.889
250.533
804.2
2261.91
5567.9
11831
21472
35039.4
53736.2
77028.5
105460
140400
184066
239617
311221
404318
525957
685327
894437
1.16904e+06
1.52986e+06
2.00417e+06
2.62797e+06
3.44879e+06
4.52953e+06
5.95309e+06
7.82916e+06
1.03057e+07
1.35451e+07
1.77459e+07
2.3483e+07
3.10814e+07
3.36774e+08
1.62492e+08
2.71614e+07
1.92636e+07
1.34841e+07
9.30054e+06
6.31135e+06
4.20833e+06
2.75682e+06
1.78021e+06
1.14818e+06
757706
239751
21322.8
659.265
10.9721
0.127346
0.00154098
3.07883e-05
1.36967e-06
1.3797e-07
2.66884e-08
7.68627e-09
2.88062e-09
1.17432e-09
4.941e-10
2.12391e-10
9.82623e-11
4.57367e-11
1.8928e-11
8.17328e-12
3.41876e-12
1.45946e-12
1.35893e-12
2.34959e-13
8.57946e-13
4.41151e-12
1.59431e-14
5.27008e-15
8.947e-16
-2.01488e-13
2.96079e-12
0
0
0
-4.55127e-20
0
-9.62558e-11
-1.91255e-10
1.89586e-10
0
-4.08705e-10
-4.03404e-10
0
-7.86168e-10
-4.77291e-17
-3.88882e-16
3.061e-09
2.45874e-08
3.41682e-07
4.57131e-06
6.34285e-05
0.000797726
0.00857537
0.0766885
0.565522
3.45066
17.6054
76.1399
283.034
914.791
2585.72
6360.91
13337.5
23553.7
37662.9
57197.2
81350
110769
146897
192031
249366
323110
418720
543267
705943
918741
1.19736e+06
1.5624e+06
2.04091e+06
2.66856e+06
3.49213e+06
4.57307e+06
5.99339e+06
7.86234e+06
1.03255e+07
1.35352e+07
1.76923e+07
2.336e+07
3.08556e+07
3.70276e+08
1.30294e+08
2.65702e+07
1.88824e+07
1.32432e+07
9.15237e+06
6.2232e+06
4.15827e+06
2.73039e+06
1.76816e+06
1.14486e+06
754744
222657
18150.6
534.423
8.60782
0.0988822
0.00122142
2.5568e-05
1.20181e-06
1.26691e-07
2.46781e-08
7.33957e-09
2.90317e-09
1.10784e-09
4.83863e-10
2.26068e-10
9.14353e-11
3.91943e-11
1.78265e-11
7.32408e-12
-1.68378e-12
-3.73358e-12
5.95403e-13
2.33085e-13
1.01106e-13
3.97563e-14
1.44545e-14
4.90617e-15
8.95586e-16
0
0
-1.11669e-20
-6.57486e-12
1.56417e-16
0
0
9.43385e-11
0
1.84822e-10
2.54082e-07
2.50321e-07
0
-6.24525e-10
-7.73322e-18
-5.08346e-17
2.67097e-09
-4.05015e-15
2.6267e-08
2.4149e-07
4.7744e-06
6.76927e-05
0.000855079
0.00924366
0.0831462
0.616939
3.78919
19.4682
84.8212
317.717
1034.28
2937.22
7205.43
14806.9
25192.6
39428.2
59500.7
84288.2
114535
151736
198237
257245
332980
430907
558100
723735
939766
1.2218e+06
1.59027e+06
2.07185e+06
2.70144e+06
3.52507e+06
4.60381e+06
6.01875e+06
7.87585e+06
1.0314e+07
1.34805e+07
1.75683e+07
2.31194e+07
3.04244e+07
4.03076e+08
1.01968e+08
2.59785e+07
1.85076e+07
1.3012e+07
9.01454e+06
6.14477e+06
4.11657e+06
2.71069e+06
1.76118e+06
1.14501e+06
752762
209965
15987.1
452.53
7.09733
0.080899
0.00101703
2.21287e-05
1.08597e-06
1.19341e-07
2.42718e-08
7.31587e-09
2.73498e-09
1.08014e-09
4.7186e-10
2.21158e-10
9.38856e-11
4.00256e-11
1.83143e-11
2.26467e-12
7.40434e-12
1.33457e-12
4.89416e-12
2.31108e-13
9.46559e-14
3.95552e-14
1.44085e-14
5.25701e-15
8.51536e-16
-3.64384e-13
2.76063e-21
5.89647e-12
0
0
0
-4.66506e-11
0
2.54468e-07
-1.80054e-10
-2.46974e-07
0
-3.06425e-10
6.01218e-10
7.2529e-10
-2.58604e-09
-4.26364e-16
-4.21025e-15
2.48964e-08
3.75111e-07
5.084e-06
7.15487e-05
0.000908136
0.00986715
0.0892389
0.666018
4.11645
21.2941
93.458
352.747
1156.45
3296.63
8033.8
16000.6
25840.7
39610.8
59864.1
85011.2
115852
153927
201579
262011
339434
439305
568690
736739
955330
1.23992e+06
1.61062e+06
2.0938e+06
2.72417e+06
3.5478e+06
4.62449e+06
6.03207e+06
7.87405e+06
1.0287e+07
1.34122e+07
1.74403e+07
2.28997e+07
3.0072e+07
4.23872e+08
8.25399e+07
2.53951e+07
1.81415e+07
1.27895e+07
8.88494e+06
6.07361e+06
4.08095e+06
2.69577e+06
1.75765e+06
1.14732e+06
752921
201161
14551.5
399.348
6.1327
0.0694916
0.000886028
1.98652e-05
1.009e-06
1.1442e-07
2.35915e-08
7.2371e-09
2.65819e-09
1.05154e-09
4.81249e-10
2.05406e-10
8.94628e-11
4.17347e-11
1.79932e-11
7.49015e-12
3.28244e-12
6.78966e-13
5.37613e-13
2.29041e-13
9.39692e-14
-4.99241e-12
5.04524e-12
4.89024e-15
8.51591e-16
2.59564e-07
-2.74893e-21
0
0
0
0
0
0
0
7.86358e-11
6.46667e-19
-2.34567e-07
3.6319e-10
-2.42251e-18
-2.20029e-07
1.10758e-09
-4.37553e-16
2.13993e-09
2.82287e-08
3.92932e-07
5.23896e-06
7.47144e-05
0.000953129
0.0104003
0.0944968
0.708845
4.40558
22.9295
101.31
385.063
1270.22
3626.65
8719.14
16507.6
24704.5
37303.5
57355.9
82506.4
113600
152184
200567
261925
340439
441538
572243
741645
961535
1.24723e+06
1.61878e+06
2.10261e+06
2.73295e+06
3.55412e+06
4.62472e+06
6.02154e+06
7.84557e+06
1.02298e+07
1.33099e+07
1.72729e+07
2.26313e+07
2.96538e+07
4.39542e+08
6.88245e+07
2.48134e+07
1.77789e+07
1.25711e+07
8.75924e+06
6.00582e+06
4.04803e+06
2.68281e+06
1.75533e+06
1.15e+06
754533
195693
13657.8
366.227
5.53497
0.062439
0.000804424
1.84339e-05
9.62949e-07
1.11206e-07
2.30846e-08
7.01357e-09
2.5792e-09
1.10247e-09
4.688e-10
2.06257e-10
9.28253e-11
4.36527e-11
1.76638e-11
7.29461e-12
3.23406e-12
1.30093e-12
5.47091e-12
2.26887e-13
-4.15899e-12
-6.96595e-13
1.57226e-14
4.8797e-15
8.51357e-16
0
0
-7.61665e-17
0
0
2.27713e-11
-2.0176e-11
1.66589e-19
0
-3.20665e-19
0
-6.11945e-19
-6.34363e-10
2.15278e-07
-9.06301e-18
-5.30695e-17
-2.29969e-09
2.02278e-09
3.10102e-08
4.00989e-07
5.34885e-06
7.70362e-05
0.000986091
0.0107921
0.0983969
0.740914
4.62439
24.1819
107.398
410.376
1359
3868.09
9053.01
15787.8
24024.1
31545.6
51034.6
75728.1
106533
144969
193304
254656
333154
434177
564696
733743
953048
1.23788e+06
1.60807e+06
2.08925e+06
2.71505e+06
3.52933e+06
4.58946e+06
5.97052e+06
7.77098e+06
1.01202e+07
1.31482e+07
1.70372e+07
2.22823e+07
2.91383e+07
4.50046e+08
6.02431e+07
2.42324e+07
1.74145e+07
1.23492e+07
8.62926e+06
5.93361e+06
4.01095e+06
2.66617e+06
1.74979e+06
1.14969e+06
754748
192835
13174
347.695
5.19687
0.0584368
0.000757931
1.76192e-05
9.34954e-07
1.09919e-07
2.28514e-08
7.07242e-09
2.6505e-09
1.07023e-09
4.65035e-10
2.05675e-10
9.30338e-11
4.15035e-11
1.79345e-11
7.35858e-12
3.18468e-12
1.28337e-12
1.28801e-12
5.15976e-12
9.25124e-14
7.67392e-13
1.49462e-14
4.99748e-12
8.95174e-16
-6.82332e-22
2.72553e-21
0
0
1.48703e-16
1.23585e-11
1.97997e-11
-2.41487e-07
1.59576e-19
1.65736e-10
2.2499e-07
-2.19075e-07
-6.10005e-10
-2.22672e-18
-1.08081e-17
-5.88253e-17
9.76098e-10
1.90557e-09
2.09999e-07
4.91503e-07
5.46939e-06
7.8186e-05
0.00100259
0.0109926
0.100409
0.757599
4.73926
24.8453
110.643
423.777
1402.91
3945.13
8848.55
16451.7
25025.3
32767
40318
63962.5
93643.6
130886
177902
237733
314423
413253
541082
706801
921944
1.20148e+06
1.56488e+06
2.03746e+06
2.6522e+06
3.45216e+06
4.49352e+06
5.84974e+06
7.61696e+06
9.92112e+06
1.28879e+07
1.6694e+07
2.18178e+07
2.85001e+07
4.55547e+08
5.63789e+07
2.36393e+07
1.70276e+07
1.21002e+07
8.47171e+06
5.83612e+06
3.95224e+06
2.63191e+06
1.73033e+06
1.13848e+06
748408
191324
12988.8
340.079
5.0536
0.0567252
0.000738009
1.72708e-05
9.22027e-07
1.08337e-07
2.31064e-08
6.82556e-09
2.56286e-09
1.11321e-09
4.62549e-10
2.10275e-10
9.36223e-11
4.06e-11
1.77169e-11
7.56556e-12
3.13432e-12
6.50276e-13
5.63043e-13
2.33491e-13
8.14374e-13
-6.91186e-13
7.45008e-13
4.85484e-15
-4.98322e-12
6.82332e-22
-1.89865e-17
-7.56141e-17
-6.32072e-12
-2.13463e-20
-2.49826e-07
0
-1.62977e-19
0
1.65734e-10
0
3.46332e-10
-3.36331e-10
-2.22668e-18
2.01327e-07
-5.88241e-17
2.17573e-09
4.24753e-09
3.13761e-08
3.98824e-07
5.46482e-06
7.81911e-05
0.00100265
0.0109931
0.100413
0.757624
4.73941
24.846
110.646
423.786
1402.93
3945.14
8848.65
16451.8
25025.4
32767.1
40315.2
63959.5
93640.5
130882
177899
237730
314420
413250
541080
706800
921944
1.20149e+06
1.56489e+06
2.03747e+06
2.65222e+06
3.45218e+06
4.49355e+06
5.84978e+06
7.61701e+06
9.92119e+06
1.28879e+07
1.66941e+07
2.18179e+07
2.85003e+07
4.55561e+08
5.63649e+07
2.36392e+07
1.70276e+07
1.21002e+07
8.47168e+06
5.8361e+06
3.95223e+06
2.6319e+06
1.73032e+06
1.13848e+06
748405
191317
12988
340.055
5.05321
0.0567209
0.000737953
1.72711e-05
9.22035e-07
1.08836e-07
2.31103e-08
6.8256e-09
2.56288e-09
1.11322e-09
4.82042e-10
2.04771e-10
9.36243e-11
4.05992e-11
1.7717e-11
7.41392e-12
3.30598e-12
1.26553e-12
5.19066e-13
2.33491e-13
9.73404e-14
3.86231e-14
7.45008e-13
5.20896e-15
8.94494e-16
-2.59192e-07
0
2.60822e-12
0
-1.5063e-16
-1.25555e-11
0
2.46833e-07
-1.13971e-15
1.70507e-10
1.49569e-10
0
2.21237e-07
-2.32456e-18
6.64257e-10
-5.74896e-17
2.01517e-07
-4.44306e-15
2.85662e-08
3.04131e-07
5.33995e-06
7.71443e-05
0.00098604
0.0107934
0.0984079
0.740989
4.62481
24.1838
107.405
410.402
1359.07
3868.22
9052.9
15788.1
24024.3
31541.9
51030.6
75723.8
106528
144965
193299
254652
333150
434175
564695
733746
953058
1.2379e+06
1.6081e+06
2.08929e+06
2.7151e+06
3.52941e+06
4.58957e+06
5.97066e+06
7.77115e+06
1.01204e+07
1.31485e+07
1.70375e+07
2.22827e+07
2.91389e+07
4.50088e+08
6.02005e+07
2.42321e+07
1.74143e+07
1.23491e+07
8.62915e+06
5.93354e+06
4.01091e+06
2.66615e+06
1.74977e+06
1.14968e+06
754733
192815
13171.6
347.621
5.19567
0.0584235
0.000757772
1.76174e-05
9.3498e-07
1.08777e-07
2.34337e-08
7.07649e-09
2.58218e-09
1.07024e-09
4.87121e-10
2.05677e-10
9.06904e-11
4.15029e-11
1.73275e-11
7.5481e-12
3.18475e-12
5.72084e-13
5.25409e-13
-4.67683e-12
9.81472e-14
-6.95312e-13
1.4237e-14
4.86778e-15
8.5086e-16
0
0
0
0
0
2.57805e-07
0
-2.52182e-07
1.16795e-15
-2.2963e-15
1.89587e-10
0
2.95493e-10
-2.42243e-18
-2.19456e-07
2.1634e-07
1.33623e-09
2.62996e-09
3.08213e-08
3.92433e-07
5.13872e-06
7.475e-05
0.000953292
0.0104035
0.0945245
0.709034
4.40665
22.9345
101.33
385.132
1270.42
3627.14
8719.94
16507.7
24703.3
37303.7
57356.5
82507.7
113603
152187
200572
261933
340450
441553
572264
741672
961569
1.24728e+06
1.61885e+06
2.10271e+06
2.73309e+06
3.5543e+06
4.62495e+06
6.02183e+06
7.84592e+06
1.02303e+07
1.33104e+07
1.72736e+07
2.26321e+07
2.96549e+07
4.39614e+08
6.87512e+07
2.48128e+07
1.77785e+07
1.25708e+07
8.75905e+06
6.0057e+06
4.04795e+06
2.68276e+06
1.7553e+06
1.14998e+06
754509
195659
13653.6
366.095
5.53278
0.0624143
0.000804133
1.84298e-05
9.61677e-07
1.11741e-07
2.24836e-08
7.01365e-09
2.57928e-09
1.10248e-09
4.89326e-10
2.10958e-10
9.2826e-11
4.23921e-11
1.76639e-11
7.67976e-12
3.23407e-12
2.11045e-12
5.47091e-12
-5.0365e-13
9.32547e-14
7.74815e-13
1.42986e-14
4.87969e-15
7.34794e-13
0
2.61789e-07
0
-2.63265e-07
0
3.07684e-16
0
2.5757e-07
-2.54464e-07
0
0
-6.54487e-19
2.38284e-07
2.33391e-07
-2.29812e-07
-5.34948e-17
-4.26346e-16
-4.21006e-15
1.99162e-08
2.67648e-07
4.87066e-06
7.15831e-05
0.000908683
0.00987135
0.0892727
0.666247
4.11774
21.3001
93.4818
352.828
1156.69
3297.21
8034.87
16001.5
25841.1
39612.7
59866.7
85014.7
115856
153934
201588
262023
339451
439329
568723
736784
955392
1.24e+06
1.61073e+06
2.09395e+06
2.72439e+06
3.54811e+06
4.62491e+06
6.0326e+06
7.87466e+06
1.02877e+07
1.34129e+07
1.74413e+07
2.29008e+07
3.00735e+07
4.23975e+08
8.24382e+07
2.53943e+07
1.81409e+07
1.27891e+07
8.88468e+06
6.07344e+06
4.08083e+06
2.69569e+06
1.7576e+06
1.14729e+06
752888
201112
14545.3
399.145
6.12928
0.0694528
0.000885581
1.98597e-05
1.01149e-06
1.13199e-07
2.38705e-08
7.24142e-09
2.58584e-09
1.05155e-09
4.71821e-10
2.05407e-10
8.94634e-11
4.04935e-11
1.72204e-11
7.4175e-12
3.18362e-12
1.36783e-12
5.62649e-13
5.24467e-12
9.39712e-14
4.06229e-14
-7.25161e-13
4.89035e-15
-7.33681e-13
-2.60306e-07
-2.629e-07
0
0
0
0
0
0
0
0
-2.54441e-07
-2.50315e-07
0
6.24505e-10
7.55742e-10
1.21257e-09
-4.11876e-16
-4.04997e-15
2.62658e-08
3.63293e-07
4.78453e-06
6.76131e-05
0.000855577
0.00924813
0.0831847
0.6172
3.79064
19.4749
84.8476
317.806
1034.53
2937.85
7206.67
14808.4
25194.1
39431.4
59504.7
84293.3
114541
151744
198248
257259
333000
430934
558136
723785
939834
1.2219e+06
1.5904e+06
2.07204e+06
2.70171e+06
3.5255e+06
4.60453e+06
6.02e+06
7.87675e+06
1.03148e+07
1.34814e+07
1.75694e+07
2.31208e+07
3.04262e+07
4.0322e+08
1.01822e+08
2.59778e+07
1.8507e+07
1.30116e+07
9.01425e+06
6.14456e+06
4.11643e+06
2.7106e+06
1.76111e+06
1.14498e+06
752709
209902
15978.3
452.23
7.09215
0.0808397
0.00101637
2.2117e-05
1.08856e-06
1.19346e-07
2.46251e-08
7.46192e-09
2.73506e-09
1.08013e-09
4.81534e-10
2.15127e-10
9.7654e-11
4.12896e-11
1.9035e-11
7.21351e-12
-9.27211e-13
1.33457e-12
5.89346e-13
2.08087e-13
9.46559e-14
7.84006e-13
1.58451e-14
-5.02605e-12
8.96007e-16
0
-2.78405e-21
0
0
-2.27304e-20
0
0
0
-1.25259e-15
-2.6414e-07
0
0
1.37587e-18
-2.51475e-07
6.39646e-10
3.68889e-14
-1.5407e-09
-3.86276e-15
2.21069e-08
3.44138e-07
4.46353e-06
6.35891e-05
0.000798041
0.00858043
0.0767304
0.565804
3.45222
17.6126
76.168
283.127
915.061
2586.38
6362.24
13339.4
23556
37667
57202.3
81356.2
110777
146906
192043
249382
323131
418748
543303
705989
918799
1.19743e+06
1.56248e+06
2.04102e+06
2.66866e+06
3.49219e+06
4.57299e+06
5.99293e+06
7.86247e+06
1.0326e+07
1.3536e+07
1.76934e+07
2.33615e+07
3.08575e+07
3.70446e+08
1.30118e+08
2.65693e+07
1.88817e+07
1.32427e+07
9.15203e+06
6.22296e+06
4.1581e+06
2.73028e+06
1.76809e+06
1.14481e+06
754697
222576
18138.3
533.982
8.59998
0.098791
0.0012204
2.55509e-05
1.19926e-06
1.27417e-07
2.53419e-08
7.33976e-09
2.80937e-09
1.19445e-09
4.83882e-10
2.14887e-10
9.39817e-11
4.07762e-11
1.71759e-11
7.32434e-12
4.11855e-12
1.35055e-12
5.95419e-13
5.31758e-12
9.53006e-14
4.10561e-14
1.4455e-14
4.90617e-15
8.95615e-16
0
-2.79578e-21
0
1.59237e-16
-1.60273e-16
2.4558e-11
6.44089e-16
0
0
-1.94343e-10
0
-7.1819e-19
-7.55855e-10
2.60498e-07
6.64353e-10
-4.97014e-17
-3.67598e-16
-3.66082e-15
2.63962e-08
1.86847e-07
4.12143e-06
5.91327e-05
0.000739476
0.00790535
0.0702744
0.514987
3.12171
15.8176
67.918
250.629
804.475
2262.59
5569.29
11833.2
21474.9
35044.2
53742.3
77035.9
105469
140411
184080
239634
311243
404346
525991
685368
894486
1.1691e+06
1.52992e+06
2.00424e+06
2.62804e+06
3.44886e+06
4.52962e+06
5.95325e+06
7.82951e+06
1.03063e+07
1.3546e+07
1.77471e+07
2.34846e+07
3.10835e+07
3.36995e+08
1.62267e+08
2.71603e+07
1.92628e+07
1.34835e+07
9.30013e+06
6.31107e+06
4.20813e+06
2.75668e+06
1.78012e+06
1.14812e+06
757650
239653
21305.5
658.609
10.96
0.127202
0.00153939
3.07601e-05
1.36555e-06
1.37973e-07
2.66893e-08
7.87582e-09
2.88071e-09
1.13528e-09
4.94119e-10
2.1869e-10
1.00858e-10
4.5737e-11
1.95904e-11
8.17355e-12
3.41883e-12
2.21589e-12
6.01215e-13
-4.89586e-12
5.24023e-12
3.99384e-14
1.59431e-14
5.06303e-12
5.0111e-12
-2.61423e-07
-1.95577e-17
-2.70273e-07
-1.15377e-20
-1.62203e-16
0
2.78694e-07
-4.49014e-11
0
-2.77402e-07
-3.95951e-10
-2.73886e-07
-1.46701e-18
-2.91021e-18
-5.77668e-18
2.6584e-07
3.04025e-09
-3.44715e-15
2.42865e-08
2.98059e-07
3.89387e-06
5.47545e-05
0.000681585
0.00724815
0.0640648
0.466664
2.81108
14.151
60.3544
221.212
705.52
1974.67
4857.7
10413.4
19287.6
32050.7
49708.5
71966.6
99296.6
132970
175126
228842
298240
388712
507275
663089
868158
1.13826e+06
1.49417e+06
1.96334e+06
2.58203e+06
3.39824e+06
4.47554e+06
5.89831e+06
7.77854e+06
1.02642e+07
1.35222e+07
1.77551e+07
2.35488e+07
3.12374e+07
2.94208e+08
2.02897e+08
2.77553e+07
1.96547e+07
1.37381e+07
9.46299e+06
6.41283e+06
4.26976e+06
2.7923e+06
1.79901e+06
1.15615e+06
762769
261519
25904.5
850.06
14.7188
0.173203
0.00204917
3.87683e-05
1.61175e-06
1.54192e-07
2.80158e-08
7.71346e-09
2.77004e-09
1.16015e-09
5.04601e-10
2.30409e-10
1.0007e-10
4.65116e-11
1.92198e-11
8.28689e-12
-1.73545e-12
1.38042e-12
5.80592e-13
2.60367e-13
-5.07517e-12
4.30329e-14
7.68355e-13
5.27245e-15
-5.01386e-12
2.61796e-07
2.81928e-21
-5.73917e-21
0
1.38161e-11
2.81699e-07
2.83338e-07
1.02004e-10
-2.04156e-10
0
-2.83079e-07
4.45968e-10
0
-2.09526e-14
1.5907e-09
-4.17171e-17
-2.78573e-07
-3.27235e-15
1.90279e-08
4.25139e-07
3.55982e-06
5.04843e-05
0.000625994
0.00662364
0.0582419
0.421883
2.52645
12.6411
53.5801
195.163
618.793
1723.95
4235.45
9133.48
17179.5
29001
45507.8
66590.1
92717.7
125059
165662
217501
284627
372360
487663
639641
840260
1.10528e+06
1.45551e+06
1.91849e+06
2.53069e+06
3.34051e+06
4.41218e+06
5.83113e+06
7.71116e+06
1.02041e+07
1.34813e+07
1.77424e+07
2.35854e+07
3.13627e+07
2.41541e+08
2.53611e+08
2.8358e+07
2.00652e+07
1.40156e+07
9.64837e+06
6.53495e+06
4.34853e+06
2.84146e+06
1.82784e+06
1.17081e+06
770471
290850
32562
1149.27
20.8748
0.250276
0.00289211
5.14091e-05
1.97683e-06
1.76085e-07
3.00224e-08
8.24141e-09
3.01285e-09
1.18944e-09
5.14647e-10