/*--------------------------------*- C++ -*----------------------------------*\
  =========                 |
  \\      /  F ield         | OpenFOAM: The Open Source CFD Toolbox
   \\    /   O peration     | Website:  https://openfoam.org
    \\  /    A nd           | Version:  8
     \\/     M anipulation  |
\*---------------------------------------------------------------------------*/
FoamFile
{
    version     2.0;
    format      ascii;
    class       volScalarField;
    location    "460/fluid";
    object      rDeltaT;
}
// * * * * * * * * * * * * * * * * * * * * * * * * * * * * * * * * * * * * * //

dimensions      [0 0 -1 0 0 0 0];

internalField   nonuniform List<scalar> 
4000
(
513.318
539.039
563.622
587.207
609.736
631.116
651.229
669.945
687.139
702.716
716.639
728.952
739.818
749.533
758.547
767.369
776.402
785.862
795.693
805.556
814.886
823.005
829.251
833.071
834.092
832.118
827.023
818.766
807.373
792.925
775.542
755.368
739.279
754.69
796.545
837.731
878.192
917.88
956.76
994.805
1031.99
1068.31
1103.74
1138.28
1171.91
1204.62
1236.4
1267.22
1297.07
1325.93
1353.77
1380.57
1406.29
1430.9
1454.36
1476.64
1497.7
1517.49
1535.78
1552.92
1568.8
1584.23
16893
1572.92
1540.11
1501.61
1458.03
1409.98
1357.97
1302.42
1243.81
1182.65
1119.54
1055.09
989.992
925.631
863.994
807.523
759.159
721.74
696.629
682.731
676.902
675.484
675.442
674.825
672.545
668.165
661.681
653.277
643.192
631.671
618.943
605.209
590.638
575.367
559.5
543.113
526.257
508.885
512.864
537.951
561.77
584.259
605.391
625.096
643.289
659.886
674.824
688.089
699.733
709.906
718.874
727.031
734.852
742.802
751.263
760.439
770.279
780.436
790.323
799.222
806.405
811.254
813.312
812.254
807.905
800.209
789.203
774.988
757.709
737.539
714.665
713.413
745.838
788.231
830.048
871.226
911.719
951.489
990.51
1028.76
1066.22
1102.86
1138.69
1173.68
1207.82
1241.1
1273.5
1305.01
1335.59
1365.25
1393.94
1421.65
1448.35
1474.01
1498.59
1521.99
1543.99
1564.94
1584.62
1602.93
16985.8
1586.62
1548.5
1505.96
1459.08
1408.08
1353.2
1294.72
1232.95
1168.29
1101.26
1032.34
962.36
893.115
827.22
767.966
718.799
682.324
659.112
647.191
643.011
642.983
644.378
645.49
645.42
643.684
640.094
634.666
627.507
618.764
608.596
597.161
584.605
571.055
556.612
541.353
525.327
508.57
512.192
535.791
557.952
578.645
597.81
615.392
631.339
645.618
658.232
669.233
678.75
687.001
694.301
701.059
707.725
714.736
722.468
731.13
740.677
750.774
760.847
770.178
778.03
783.741
786.77
786.714
783.345
776.576
766.424
752.978
736.377
716.787
694.397
677.925
694.594
737.578
780.226
822.467
864.245
905.512
946.226
986.351
1025.87
1064.76
1103.01
1140.6
1177.52
1213.76
1249.3
1284.13
1318.25
1351.63
1384.28
1416.16
1447.28
1477.58
1507.02
1535.36
1562.43
1588.28
1612.09
1632.73
16558
1610.13
1565.91
1517.53
1465.11
1408.8
1348.75
1285.18
1218.36
1148.7
1076.76
1003.1
928.935
856.503
788.828
729.472
681.762
647.657
626.875
616.925
614.208
615.34
617.813
620.068
621.319
621.181
619.469
616.128
611.182
604.697
596.764
587.477
576.936
565.228
552.433
538.617
523.837
508.113
511.53
533.799
554.558
573.767
591.383
607.372
621.709
634.392
645.449
654.959
663.064
669.985
676.033
681.606
687.163
693.169
700.012
707.902
716.786
726.331
735.957
744.943
752.544
758.09
761.042
761.018
757.783
751.229
741.346
728.199
711.901
692.599
670.461
645.669
650.237
690.014
733.327
776.474
819.386
862.004
904.29
946.213
987.743
1028.86
1069.54
1109.77
1149.53
1188.81
1227.59
1265.85
1303.59
1340.79
1377.42
1413.45
1448.84
1483.52
1517.38
1550.11
1581.45
1611.37
1639.01
5059.09
13488.6
1625.7
1576.38
1522.73
1464.98
1403.33
1338.02
1269.35
1197.7
1123.62
1047.82
971.056
894.91
821.913
755.152
697.939
653.103
621.996
603.782
595.714
594.273
596.328
599.609
602.698
604.829
605.635
604.965
602.78
599.099
593.965
587.438
579.579
570.45
560.111
548.614
536.007
522.334
507.624
510.82
531.64
550.898
568.561
584.593
598.97
611.683
622.749
632.217
640.187
646.82
652.356
657.121
661.523
666.022
671.079
677.073
684.203
692.413
701.368
710.491
719.065
726.342
731.646
734.43
734.301
731.014
724.448
714.583
701.469
685.207
665.93
643.793
618.964
614.434
645.061
688.939
732.87
776.79
820.648
864.398
908.003
951.43
994.651
1037.64
1080.39
1122.85
1165.03
1206.88
1248.4
1289.54
1330.27
1370.56
1410.33
1449.52
1487.99
1525.58
1561.89
1596.59
1629.62
1660.11
9676.31
9105.69
1630.35
1577.5
1519.81
1457.72
1391.63
1321.93
1249.07
1173.59
1096.19
1017.66
938.947
861.897
789.161
723.796
668.9
626.873
598.507
582.502
575.946
575.458
578.161
582.018
585.759
588.682
590.429
590.83
589.819
587.388
583.555
578.354
571.826
564.014
554.96
544.704
533.284
520.741
507.101
510.105
529.494
547.306
563.509
578.076
590.992
602.261
611.91
620.002
626.644
632.007
636.336
639.956
643.271
646.737
650.807
655.852
662.07
669.404
677.526
685.867
693.721
700.346
705.07
707.347
706.781
703.12
696.233
686.088
672.723
656.226
636.719
614.344
589.254
578.356
602.723
647.074
691.695
736.52
781.491
826.558
871.68
916.822
961.95
1007.04
1052.05
1096.95
1141.73
1186.32
1230.71
1274.84
1318.64
1362.05
1404.96
1447.26
1488.77
1529.24
1568.14
1605.2
1640.24
1672.18
13729
4994.39
1625.41
1570.05
1509.25
1443.71
1374.08
1300.93
1224.88
1146.6
1066.93
986.731
907.112
830.148
758.529
695.237
643.126
604.175
578.676
564.947
559.962
560.463
563.793
568.111
572.284
575.692
578.013
579.093
578.865
577.31
574.431
570.245
564.776
558.051
550.098
540.942
530.615
519.149
506.572
509.379
527.318
543.677
558.428
571.548
583.031
592.886
601.15
607.893
613.231
617.342
620.474
622.956
625.189
627.625
630.709
634.806
640.105
646.546
653.8
661.305
668.357
674.223
678.233
679.845
678.661
674.425
667.004
656.36
642.521
625.57
605.615
582.789
557.234
541.96
562.209
606.977
652.205
697.824
743.774
790.003
836.465
883.118
929.925
976.847
1023.85
1070.88
1117.9
1164.86
1211.7
1258.35
1304.71
1350.7
1396.16
1440.92
1484.77
1527.38
1568.13
1606.73
1642.85
1675.28
17231.8
1663.19
1613.46
1556.11
1492.76
1424.51
1352.19
1276.51
1198.23
1118.12
1037.13
956.126
876.394
800.141
730.054
669.012
619.626
583.5
560.512
548.702
545.008
546.322
550.191
554.937
559.54
563.434
566.322
568.055
568.562
567.814
565.806
562.544
558.041
552.313
545.379
537.26
527.979
517.564
506.042
508.653
525.146
540.067
553.391
565.101
575.194
583.687
590.622
596.074
600.165
603.074
605.052
606.425
607.59
608.992
611.069
614.175
618.495
623.966
630.26
636.82
642.949
647.921
651.071
651.861
649.895
644.917
636.791
625.474
610.99
593.411
572.842
549.406
523.239
505.211
523.061
568.163
613.894
660.181
706.963
754.183
801.791
849.739
897.981
946.471
995.159
1043.99
1092.91
1141.85
1190.73
1239.46
1287.92
1335.98
1383.47
1430.17
1475.8
1520
1561.89
1601.6
1637.91
1669.61
18226.8
1650.78
1597.29
1537.08
1471.3
1400.87
1326.61
1249.27
1169.63
1088.55
1007
925.872
846.618
771.522
703.258
644.598
597.929
564.519
543.897
533.885
531.411
533.504
537.889
543.03
548.006
552.309
555.667
557.942
559.067
559.008
557.753
555.303
551.661
546.837
540.844
533.695
525.408
516.008
505.519
507.926
522.973
536.461
548.367
558.679
567.398
574.546
580.169
584.347
587.204
588.922
589.751
590.016
590.109
590.47
591.527
593.626
596.943
601.414
606.707
612.27
617.409
621.406
623.604
623.466
620.603
614.758
605.796
593.671
578.406
560.069
538.758
514.59
487.692
468.083
484.768
530.117
576.244
623.073
670.54
718.584
767.149
816.18
865.623
915.424
965.523
1015.86
1066.35
1116.92
1167.47
1217.89
1268.06
1317.79
1366.91
1415.16
1462.21
1507.56
1550.46
1590.77
1627.04
1657.59
17609.3
1631.99
1575.76
1513.42
1445.9
1374.02
1298.56
1220.28
1139.99
1058.58
977.051
896.309
817.937
744.278
677.97
621.682
577.591
546.674
528.17
519.746
518.352
521.155
526.032
531.572
536.932
541.649
545.474
548.278
549.993
550.586
550.041
548.353
545.521
541.552
536.451
530.229
522.9
514.486
505.007
507.2
520.806
532.867
543.364
552.288
559.647
565.464
569.789
572.706
574.341
574.877
574.563
573.72
572.738
572.046
572.066
573.135
575.421
578.853
583.101
587.612
591.702
594.654
595.821
594.671
590.817
584.01
574.114
561.083
544.94
525.747
503.601
478.614
450.908
430.568
446.963
492.469
538.883
586.13
634.139
682.845
732.186
782.102
832.531
883.409
934.666
986.226
1038
1089.9
1141.81
1193.6
1245.12
1296.18
1346.57
1396.02
1444.17
1490.48
1534.25
1575.34
1612.42
4000.52
15492.1
1607.83
1550
1486.37
1417.81
1345.1
1269.02
1190.35
1109.92
1028.65
947.527
867.504
790.276
718.21
653.909
599.937
558.284
529.67
513.098
506.121
505.726
509.204
514.57
520.513
526.263
531.393
535.675
538.988
541.269
542.483
542.612
541.649
539.589
536.434
532.189
526.86
520.458
513
504.507
506.476
518.643
529.28
538.373
545.916
551.919
556.41
559.443
561.102
561.516
560.869
559.409
557.454
555.387
553.633
552.602
552.623
553.856
556.225
559.397
562.822
565.816
567.674
567.75
565.525
560.615
552.775
541.872
527.862
510.767
490.65
467.604
441.74
413.176
392.676
409.356
454.928
501.526
549.071
597.489
646.709
696.666
747.291
798.516
850.268
902.469
955.032
1007.86
1060.85
1113.87
1166.77
1219.41
1271.57
1323.02
1373.48
1422.59
1469.79
1514.4
1556.33
1594.32
7058.95
12638.8
1579.25
1520.9
1456.78
1387.81
1314.82
1238.61
1159.99
1079.8
999.018
918.591
839.528
763.607
693.208
630.895
579.138
539.755
513.244
498.415
492.744
493.267
497.39
503.245
509.61
515.77
521.332
526.084
529.913
532.758
534.586
535.377
535.121
533.813
531.451
528.037
523.575
518.075
511.551
504.019
505.753
516.485
525.702
533.393
539.557
544.207
547.375
549.117
549.519
548.712
546.88
544.269
541.195
538.036
535.208
533.113
532.071
532.233
533.516
535.586
537.891
539.755
540.478
539.422
536.074
530.057
521.131
509.168
494.127
476.031
454.944
430.957
404.18
374.729
354.428
371.738
417.289
463.973
511.706
560.411
610.014
660.442
711.622
763.479
815.932
868.896
922.275
975.964
1029.84
1083.78
1137.62
1191.18
1244.26
1296.61
1347.94
1397.88
1445.85
1491.18
1533.78
1572.39
9536.95
10250.8
1548.16
1489.75
1425.58
1356.62
1283.74
1207.76
1129.51
1049.87
969.821
890.298
812.344
737.827
669.12
608.748
559.09
521.811
497.22
483.973
479.494
480.873
485.621
491.973
498.778
505.371
511.386
516.624
520.98
524.396
526.837
528.286
528.729
528.16
526.577
523.978
520.366
515.748
510.135
503.543
505.032
514.331
522.13
528.421
533.207
536.505
538.35
538.798
537.942
535.91
532.889
529.122
524.922
520.662
516.751
513.582
511.464
510.54
510.72
511.666
512.829
513.537
513.094
510.873
506.366
499.206
489.158
476.099
459.993
440.863
418.776
393.825
366.116
335.765
315.854
333.959
379.409
426.088
473.91
522.793
572.66
623.434
675.035
727.382
780.39
833.965
888.003
942.393
997.006
1051.7
1106.31
1160.65
1214.51
1267.63
1319.7
1370.35
1418.98
1464.95
1508.14
1547.24
11643.3
8215.7
1515.47
1457.27
1393.35
1324.71
1252.22
1176.75
1099.13
1020.26
941.125
862.646
785.915
712.854
645.829
587.328
539.642
504.303
481.46
469.646
466.258
468.442
473.803
480.661
487.929
494.981
501.474
507.221
512.121
516.12
519.184
521.293
522.436
522.603
521.79
519.995
517.22
513.468
508.75
503.077
504.312
512.181
518.563
523.455
526.863
528.808
529.328
528.482
526.364
523.105
518.889
513.96
508.628
503.261
498.258
494.005
490.8
488.777
487.84
487.648
487.651
487.181
485.551
482.14
476.45
468.122
456.927
442.749
425.555
405.373
382.272
356.344
327.697
296.446
276.99
295.92
341.193
387.785
435.605
484.57
534.598
585.607
637.514
690.232
743.669
797.727
852.296
907.256
962.473
1017.8
1073.06
1128.06
1182.58
1236.36
1289.07
1340.35
1389.59
1436.13
1479.86
1519.45
13358.8
6579.71
1481.81
1423.99
1360.51
1292.4
1220.52
1145.76
1068.95
991.011
912.929
835.606
760.172
688.593
623.224
566.513
520.673
487.118
465.865
455.353
452.968
455.916
461.882
469.26
477.014
484.552
491.549
497.828
503.293
507.891
511.589
514.367
516.212
517.116
517.071
516.075
514.127
511.23
507.391
502.62
503.594
510.033
514.999
518.492
520.522
521.114
520.306
518.164
514.781
510.29
504.876
498.781
492.312
485.83
479.729
474.384
470.084
466.953
464.889
463.545
462.375
460.713
457.879
453.262
446.373
436.86
424.503
409.192
390.899
369.657
345.536
318.63
289.049
256.908
237.874
257.557
302.585
349.014
396.753
445.715
495.812
546.962
599.075
652.061
705.823
760.257
815.248
870.671
926.386
982.237
1038.05
1093.61
1148.71
1203.06
1256.36
1308.22
1358.01
1405.1
1449.37
1489.48
14703.2
5282.36
1447.52
1390.2
1327.32
1259.89
1188.79
1114.89
1039.04
962.155
885.227
809.138
735.051
664.961
601.209
546.204
502.091
470.178
450.371
441.038
439.576
443.251
449.818
457.731
465.996
474.047
481.575
488.41
494.461
499.676
504.022
507.48
510.036
511.679
512.403
512.203
511.077
509.026
506.055
502.171
502.875
507.886
511.437
513.531
514.183
513.419
511.284
507.843
503.192
497.466
490.85
483.585
475.973
468.372
461.167
454.725
449.324
445.078
441.878
439.374
437.021
434.157
430.109
424.276
416.177
405.47
391.943
375.493
356.098
333.795
308.657
280.78
250.276
217.258
198.544
218.835
263.556
309.755
357.341
406.223
456.311
507.518
559.752
612.918
666.916
721.637
776.961
832.759
888.886
945.18
1001.46
1057.52
1113.12
1168.01
1221.84
1274.24
1324.57
1372.22
1417.08
1457.83
16017.9
4138.96
1412.72
1356.03
1293.89
1227.29
1157.1
1084.19
1009.42
933.689
857.993
783.194
710.484
641.875
579.694
526.312
483.815
453.425
434.954
426.687
426.049
430.42
437.59
446.054
454.853
463.443
471.526
478.942
485.6
491.45
496.461
500.611
503.887
506.276
507.772
508.368
508.061
506.85
504.738
501.729
502.158
505.741
507.876
508.572
507.844
505.724
502.259
497.517
491.596
484.634
476.812
468.373
459.616
450.893
442.58
435.036
428.529
423.163
418.821
415.152
411.609
407.536
402.268
395.213
385.899
373.995
359.297
341.709
321.214
297.855
271.708
242.874
211.461
177.588
159.04
179.741
224.096
270.006
317.375
366.109
416.118
467.31
519.591
572.862
627.019
681.95
737.533
793.633
850.102
906.773
963.464
1019.96
1076.04
1131.41
1185.75
1238.68
1289.54
1337.75
1383.19
1424.54
16855.3
3353.07
1377.67
1321.7
1260.4
1194.72
1125.55
1053.74
980.122
905.618
831.206
757.736
686.414
619.263
558.591
506.738
465.739
436.753
419.553
412.319
412.412
417.442
425.206
434.23
443.579
452.728
461.39
469.407
476.692
483.195
488.886
493.742
497.747
500.891
503.164
504.558
505.069
504.694
503.434
501.292
501.44
503.597
504.317
503.613
501.505
498.028
493.232
487.187
479.995
471.793
462.765
453.15
443.245
433.396
423.973
415.324
407.708
401.218
395.732
390.893
386.157
380.872
374.382
366.102
355.574
342.474
326.607
307.885
286.299
261.894
234.752
204.975
172.675
137.97
119.398
140.276
184.215
229.78
276.873
325.4
375.267
426.379
478.641
531.95
586.199
641.275
697.05
753.389
810.14
867.135
924.186
981.082
1037.58
1093.41
1148.23
1201.66
1253.06
1301.83
1347.86
1389.85
17486.5
2798
1342.44
1287.29
1226.91
1162.25
1094.18
1023.54
951.154
877.934
804.85
732.735
662.805
597.083
537.856
487.432
447.801
420.072
404.021
397.823
398.651
404.321
412.669
422.254
432.164
441.889
451.147
459.785
467.716
474.891
481.277
486.853
491.601
495.508
498.565
500.761
502.092
502.552
502.141
500.859
500.723
501.453
500.758
498.654
495.166
490.331
484.202
476.854
468.389
458.946
448.709
437.917
426.863
415.886
405.352
395.597
386.869
379.255
372.622
366.612
360.68
354.183
346.47
336.968
325.227
310.935
293.906
274.06
251.393
225.957
197.837
167.137
133.973
100
100
100.455
143.93
189.1
235.865
284.129
333.796
384.77
436.952
490.238
544.52
599.68
655.59
712.112
769.092
826.36
883.725
940.975
997.866
1054.12
1109.41
1163.34
1215.26
1264.61
1311.26
1353.92
17909.8
2450.39
1307.09
1252.82
1193.45
1129.9
1063.01
993.603
922.512
850.625
778.902
708.164
639.627
575.304
517.463
468.375
429.991
403.381
388.313
383.051
384.683
390.999
399.932
410.087
420.574
430.893
440.769
450.049
458.647
466.513
473.613
479.924
485.429
490.112
493.961
496.967
499.121
500.419
500.855
500.429
500.006
499.309
497.199
493.695
488.825
482.632
475.171
466.518
456.779
446.094
434.648
422.678
410.473
398.369
386.721
375.859
366.02
357.28
349.499
342.318
335.192
327.482
318.549
307.828
294.88
279.404
261.222
240.263
216.529
190.079
161
129.401
100
100
100
100
103.271
147.998
194.385
242.335
291.749
342.53
394.576
447.783
502.04
557.229
613.219
669.87
727.029
784.522
842.16
899.727
956.979
1013.64
1069.37
1123.8
1176.25
1226.19
1273.47
1316.84
18131.4
2293.79
1271.6
1218.32
1160.05
1097.68
1032.04
963.937
894.185
823.667
753.332
683.989
616.843
553.893
497.381
449.55
412.316
386.718
372.484
367.953
370.396
377.375
386.916
397.665
408.757
419.699
430.22
440.168
449.457
458.036
465.871
472.936
479.213
484.686
489.34
493.164
496.149
498.286
499.572
500
500.006
499.308
497.198
493.693
488.823
482.629
475.167
466.514
456.775
446.09
434.643
422.672
410.466
398.362
386.714
375.852
366.012
357.271
349.49
342.307
335.181
327.471
318.537
307.815
294.867
279.39
261.208
240.248
216.515
190.064
160.985
129.386
100
100
100
100
103.262
147.989
194.378
242.328
291.743
342.524
394.571
447.778
502.036
557.225
613.215
669.867
727.026
784.52
842.158
899.725
956.978
1013.64
1069.37
1123.8
1176.25
1226.19
1273.47
1316.84
18132
2293.22
1271.6
1218.32
1160.05
1097.68
1032.04
963.937
894.185
823.668
753.334
683.991
616.845
553.895
497.383
449.552
412.319
386.72
372.487
367.956
370.399
377.378
386.918
397.668
408.759
419.701
430.222
440.169
449.459
458.037
465.872
472.937
479.214
484.686
489.34
493.164
496.149
498.286
499.571
500
500.723
501.451
500.755
498.65
495.161
490.325
484.196
476.847
468.381
458.936
448.699
437.905
426.85
415.873
405.337
395.581
386.852
379.237
372.602
366.591
360.659
354.16
346.445
336.942
325.2
310.907
293.877
274.03
251.362
225.926
197.805
167.105
133.941
100
100
100.439
143.916
189.086
235.853
284.118
333.787
384.762
436.945
490.232
544.515
599.676
655.587
712.11
769.091
826.359
883.725
940.976
997.867
1054.12
1109.41
1163.34
1215.26
1264.61
1311.26
1353.93
17911.5
2448.67
1307.08
1252.81
1193.44
1129.89
1063
993.6
922.51
850.624
778.902
708.165
639.628
575.307
517.466
468.379
429.996
403.385
388.318
383.056
384.688
391.004
399.937
410.091
420.578
430.897
440.773
450.052
458.65
466.515
473.615
479.926
485.43
490.112
493.962
496.967
499.122
500.418
500.854
500.428
501.44
503.595
504.314
503.609
501.501
498.023
493.225
487.18
479.987
471.783
462.754
453.138
443.232
433.381
423.957
415.308
407.69
401.2
395.712
390.872
386.134
380.848
374.356
366.075
355.545
342.444
326.576
307.853
286.265
261.86
234.717
204.939
172.639
137.934
119.374
140.266
184.206
229.773
276.868
325.396
375.264
426.378
478.64
531.95
586.201
641.278
697.054
753.394
810.145
867.141
924.193
981.089
1037.59
1093.41
1148.24
1201.67
1253.06
1301.84
1347.87
1389.85
17489.5
2795.05
1342.43
1287.27
1226.89
1162.24
1094.17
1023.53
951.146
877.928
804.845
732.731
662.802
597.081
537.856
487.433
447.803
420.075
404.025
397.827
398.656
404.326
412.674
422.258
432.169
441.893
451.151
459.788
467.719
474.893
481.279
486.854
491.602
495.509
498.565
500.762
502.092
502.552
502.14
500.859
502.157
505.74
507.874
508.568
507.84
505.719
502.252
497.509
491.588
484.623
476.801
468.361
459.603
450.878
442.564
435.019
428.511
423.144
418.801
415.13
411.585
407.511
402.242
395.185
385.87
373.964
359.264
341.674
321.178
297.818
271.67
242.834
211.421
177.548
159.016
179.737
224.094
270.005
317.376
366.112
416.122
467.315
519.597
572.869
627.028
681.96
737.544
793.645
850.114
906.786
963.477
1019.98
1076.05
1131.42
1185.76
1238.69
1289.55
1337.76
1383.2
1424.55
16859.5
3349
1377.64
1321.68
1260.38
1194.7
1125.54
1053.72
980.109
905.606
831.196
757.727
686.407
619.258
558.587
506.736
465.739
436.755
419.556
412.323
412.416
417.447
425.211
434.234
443.583
452.732
461.393
469.41
476.695
483.198
488.887
493.743
497.748
500.892
503.164
504.558
505.069
504.694
503.433
501.292
502.875
507.885
511.434
513.528
514.179
513.414
511.277
507.835
503.183
497.456
490.839
483.572
475.96
468.357
461.151
454.708
449.306
445.059
441.857
439.352
436.997
434.131
430.082
424.247
416.146
405.437
391.908
375.456
356.06
333.755
308.615
280.737
250.232
217.213
198.522
218.838
263.56
309.761
357.349
406.232
456.322
507.53
559.765
612.933
666.932
721.653
776.979
832.778
888.905
945.2
1001.48
1057.54
1113.14
1168.03
1221.86
1274.26
1324.59
1372.24
1417.09
1457.85
16023.8
4133.07
1412.69
1356.01
1293.87
1227.26
1157.08
1084.17
1009.4
933.672
857.977
783.18
710.473
641.866
579.686
526.307
483.813
453.425
434.956
426.69
426.053
430.425
437.594
446.058
454.857
463.447
471.53
478.945
485.603
491.453
496.463
500.613
503.888
506.277
507.773
508.368
508.061
506.849
504.737
501.728
503.593
510.031
514.996
518.489
520.518
521.108
520.3
518.157
514.772
510.28
504.865
498.769
492.298
485.815
479.712
474.366
470.066
466.934
464.868
463.523
462.351
460.687
457.851
453.233
446.341
436.825
424.466
409.153
390.858
369.614
345.491
318.584
289.001
256.858
237.853
257.566
302.596
349.027
396.768
445.731
495.83
546.981
599.095
652.083
705.846
760.281
815.273
870.696
926.412
982.262
1038.07
1093.64
1148.73
1203.09
1256.39
1308.25
1358.03
1405.12
1449.39
1489.49
14710.2
5275.25
1447.49
1390.17
1327.29
1259.86
1188.76
1114.86
1039.02
962.132
885.206
809.119
735.035
664.947
601.198
546.196
502.086
470.176
450.372
441.041
439.58
443.255
449.823
457.736
466
474.051
481.578
488.413
494.464
499.678
504.024
507.482
510.037
511.68
512.404
512.204
511.078
509.026
506.055
502.171
504.312
512.18
518.561
523.452
526.859
528.803
529.322
528.475
526.355
523.095
518.877
513.948
508.615
503.246
498.242
493.987
490.782
488.758
487.819
487.625
487.627
487.155
485.523
482.109
476.417
468.086
456.889
442.708
425.512
405.328
382.224
356.294
327.645
296.393
276.97
295.936
341.211
387.805
435.627
484.594
534.624
585.634
637.542
690.261
743.7
797.758
852.327
907.288
962.505
1017.83
1073.09
1128.09
1182.61
1236.38
1289.1
1340.38
1389.61
1436.15
1479.88
1519.47
13367.8
6570.66
1481.77
1423.95
1360.48
1292.36
1220.49
1145.73
1068.92
990.982
912.903
835.581
760.151
688.574
623.209
566.501
520.665
487.115
465.864
455.355
452.972
455.92
461.886
469.264
477.018
484.556
491.552
497.831
503.296
507.893
511.59
514.368
516.213
517.116
517.071
516.075
514.127
511.23
507.391
502.619
505.032
514.33
522.128
528.419
533.204
536.501
538.344
538.791
537.933
535.901
532.878
529.109
524.908
520.647
516.735
513.565
511.446
510.52
510.699
511.644
512.805
513.511
513.066
510.842
506.332
499.169
489.118
476.057
459.947
440.815
418.726
393.772
366.06
335.707
315.835
333.983
379.435
426.115
473.939
522.825
572.693
623.468
675.07
727.419
780.428
834.003
888.042
942.432
997.045
1051.74
1106.35
1160.69
1214.55
1267.66
1319.73
1370.38
1419.01
1464.98
1508.17
1547.26
11654.6
8204.28
1515.43
1457.23
1393.31
1324.66
1252.18
1176.71
1099.09
1020.22
941.092
862.616
785.888
712.83
645.809
587.312
539.631
504.297
481.458
469.648
466.261
468.446
473.808
480.666
487.933
494.985
501.477
507.224
512.124
516.122
519.186
521.295
522.437
522.603
521.79
519.996
517.22
513.468
508.75
503.076
505.753
516.484
525.701
533.391
539.554
544.203
547.37
549.11
549.511
548.703
546.869
544.256
541.181
538.021
535.192
533.096
532.053
532.214
533.496
535.564
537.868
539.729
540.449
539.391
536.039
530.019
521.09
509.124
494.08
475.98
454.89
430.901
404.121
374.667
354.41
371.769
417.323
464.009
511.744
560.451
610.055
660.485
711.666
763.524
815.978
868.942
922.322
976.01
1029.89
1083.82
1137.66
1191.22
1244.3
1296.65
1347.98
1397.92
1445.88
1491.21
1533.81
1572.41
9550.28
10237
1548.11
1489.7
1425.53
1356.57
1283.69
1207.71
1129.47
1049.83
969.781
890.261
812.31
737.797
669.094
608.728
559.075
521.803
497.216
483.973
479.497
480.877
485.626
491.978
498.782
505.375
511.389
516.627
520.983
524.398
526.839
528.287
528.73
528.161
526.577
523.978
520.366
515.748
510.135
503.542
506.476
518.642
529.279
538.371
545.913
551.915
556.405
559.436
561.094
561.507
560.859
559.397
557.44
555.373
553.617
552.585
552.606
553.838
556.205
559.375
562.798
565.79
567.645
567.719
565.489
560.577
552.733
541.826
527.813
510.713
490.593
467.544
441.677
413.11
392.66
409.395
454.969
501.57
549.117
597.537
646.759
696.717
747.343
798.569
850.322
902.523
955.086
1007.91
1060.9
1113.92
1166.83
1219.46
1271.61
1323.06
1373.52
1422.63
1469.83
1514.44
1556.36
1594.35
7074.66
12622.6
1579.2
1520.84
1456.72
1387.75
1314.76
1238.56
1159.94
1079.75
998.971
918.547
839.487
763.571
693.176
630.87
579.12
539.743
513.238
498.415
492.747
493.271
497.395
503.25
509.615
515.774
521.336
526.087
529.916
532.761
534.588
535.378
535.122
533.813
531.451
528.037
523.576
518.075
511.551
504.019
507.2
520.805
532.866
543.362
552.286
559.643
565.46
569.784
572.699
574.333
574.867
574.551
573.707
572.724
572.031
572.05
573.118
575.402
578.833
583.08
587.589
591.676
594.626
595.789
594.636
590.778
583.966
574.066
561.032
544.884
525.688
503.538
478.547
450.838
430.555
447.011
492.519
538.936
586.185
634.196
682.903
732.246
782.163
832.593
883.471
934.729
986.288
1038.07
1089.96
1141.87
1193.66
1245.17
1296.23
1346.62
1396.06
1444.21
1490.52
1534.28
1575.37
1612.45
4023.17
15472.5
1607.78
1549.94
1486.32
1417.75
1345.04
1268.96
1190.29
1109.86
1028.6
947.475
867.455
790.232
718.173
653.878
599.914
558.269
529.662
513.096
506.123
505.73
509.209
514.575
520.518
526.268
531.397
535.678
538.991
541.271
542.484
542.614
541.65
539.59
536.435
532.189
526.86
520.458
513
504.507
507.926
522.973
536.46
548.366
558.677
567.395
574.542
580.164
584.34
587.196
588.912
589.74
590.003
590.096
590.455
591.511
593.609
596.926
601.395
606.687
612.247
617.384
621.378
623.572
623.43
620.562
614.714
605.747
593.617
578.348
560.007
538.692
514.519
487.618
468.072
484.825
530.177
576.306
623.138
670.607
718.652
767.218
816.25
865.694
915.495
965.594
1015.93
1066.42
1116.99
1167.54
1217.96
1268.12
1317.85
1366.97
1415.21
1462.26
1507.61
1550.5
1590.8
1627.06
1657.59
17603.2
1631.95
1575.7
1513.36
1445.83
1373.95
1298.49
1220.21
1139.92
1058.52
976.99
896.252
817.885
744.233
677.933
621.653
577.572
546.663
528.166
519.747
518.356
521.16
526.038
531.577
536.937
541.653
545.478
548.281
549.995
550.588
550.042
548.354
545.522
541.552
536.451
530.229
522.9
514.486
505.008
508.653
525.146
540.067
553.391
565.1
575.192
583.684
590.617
596.068
600.158
603.066
605.042
606.414
607.578
608.978
611.054
614.16
618.478
623.948
630.241
636.798
642.925
647.893
651.039
651.825
649.854
644.872
636.741
625.419
610.93
593.346
572.772
549.331
523.16
505.202
523.128
568.233
613.966
660.255
707.039
754.261
801.87
849.819
898.061
946.551
995.239
1044.07
1092.99
1141.93
1190.8
1239.53
1287.99
1336.05
1383.54
1430.24
1475.86
1520.05
1561.94
1601.64
1637.94
1669.62
18223.6
1650.73
1597.22
1537.01
1471.22
1400.8
1326.53
1249.19
1169.55
1088.47
1006.93
925.807
846.559
771.47
703.214
644.564
597.905
564.506
543.892
533.885
531.415
533.51
537.895
543.036
548.012
552.313
555.671
557.946
559.069
559.01
557.755
555.304
551.662
546.838
540.844
533.695
525.408
516.009
505.52
509.379
527.318
543.677
558.428
571.548
583.03
592.884
601.147
607.888
613.225
617.335
620.465
622.946
625.177
627.612
630.696
634.792
640.089
646.529
653.782
661.284
668.333
674.195
678.201
679.809
678.619
674.379
666.952
656.302
642.459
625.501
605.542
582.71
557.151
541.953
562.287
607.057
652.288
697.909
743.86
790.09
836.553
883.208
930.015
976.936
1023.93
1070.97
1117.99
1164.95
1211.78
1258.43
1304.79
1350.77
1396.23
1440.99
1484.83
1527.44
1568.18
1606.77
1642.89
1675.31
17240.7
1663.14
1613.39
1556.03
1492.68
1424.43
1352.1
1276.43
1198.15
1118.05
1037.06
956.055
876.328
800.082
730.005
668.973
619.599
583.484
560.505
548.702
545.012
546.328
550.198
554.944
559.546
563.439
566.326
568.058
568.564
567.816
565.808
562.545
558.041
552.313
545.379
537.26
527.979
517.565
506.042
510.105
529.494
547.307
563.51
578.076
590.992
602.26
611.908
619.998
626.639
632.001
636.328
639.947
643.261
646.725
650.794
655.839
662.055
669.388
677.508
685.848
693.698
700.319
705.038
707.311
706.74
703.072
696.18
686.029
672.658
656.155
636.642
614.261
589.166
578.352
602.811
647.165
691.789
736.615
781.587
826.656
871.779
916.921
962.049
1007.13
1052.14
1097.05
1141.82
1186.42
1230.8
1274.92
1318.72
1362.13
1405.04
1447.34
1488.84
1529.31
1568.2
1605.25
1640.29
1672.22
13748.9
4971.29
1625.33
1569.97
1509.16
1443.63
1374
1300.85
1224.79
1146.51
1066.85
986.654
907.039
830.082
758.472
695.192
643.093
604.155
578.668
564.947
559.966
560.47
563.801
568.118
572.29
575.697
578.018
579.097
578.868
577.312
574.432
570.246
564.777
558.052
550.098
540.942
530.615
519.15
506.572
510.821
531.641
550.899
568.562
584.594
598.97
611.683
622.748
632.215
640.183
646.814
652.349
657.113
661.514
666.011
671.068
677.061
684.19
692.399
701.352
710.473
719.043
726.316
731.615
734.393
734.259
730.965
724.393
714.522
701.401
685.132
665.848
643.705
618.87
614.433
645.162
689.042
732.975
776.897
820.756
864.507
908.111
951.538
994.759
1037.75
1080.49
1122.96
1165.13
1206.98
1248.49
1289.63
1330.36
1370.65
1410.42
1449.6
1488.06
1525.66
1561.96
1596.65
1629.68
1660.16
9700.28
9081.66
1630.27
1577.42
1519.72
1457.63
1391.54
1321.84
1248.98
1173.5
1096.1
1017.58
938.869
861.826
789.099
723.745
668.863
626.85
598.497
582.501
575.951
575.466
578.17
582.027
585.766
588.688
590.434
590.834
589.822
587.39
583.557
578.355
571.827
564.014
554.96
544.703
533.284
520.741
507.102
511.531
533.8
554.56
573.769
591.385
607.374
621.71
634.392
645.448
654.957
663.061
669.98
676.026
681.599
687.154
693.159
700.002
707.89
716.774
726.317
735.94
744.922
752.519
758.059
761.005
760.975
757.733
751.172
741.282
728.127
711.822
692.513
670.368
645.569
650.239
690.127
733.441
776.59
819.504
862.123
904.409
946.331
987.861
1028.98
1069.65
1109.88
1149.64
1188.91
1227.69
1265.96
1303.69
1340.88
1377.51
1413.54
1448.92
1483.6
1517.45
1550.18
1581.52
1611.43
1639.08
5095.76
13456.8
1625.61
1576.29
1522.64
1464.89
1403.24
1337.93
1269.26
1197.61
1123.53
1047.73
970.973
894.833
821.845
755.096
697.897
653.077
621.983
603.781
595.719
594.282
596.338
599.618
602.705
604.835
605.64
604.969
602.783
599.101
593.967
587.439
579.579
570.45
560.11
548.613
536.007
522.335
507.624
512.193
535.793
557.955
578.647
597.813
615.395
631.341
645.62
658.232
669.233
678.749
686.997
694.297
701.053
707.719
714.728
722.459
731.121
740.666
750.761
760.831
770.159
778.006