/*--------------------------------*- C++ -*----------------------------------*\
  =========                 |
  \\      /  F ield         | OpenFOAM: The Open Source CFD Toolbox
   \\    /   O peration     | Website:  https://openfoam.org
    \\  /    A nd           | Version:  8
     \\/     M anipulation  |
\*---------------------------------------------------------------------------*/
FoamFile
{
    version     2.0;
    format      ascii;
    class       volScalarField;
    location    "460/fluid";
    object      rho;
}
// * * * * * * * * * * * * * * * * * * * * * * * * * * * * * * * * * * * * * //

dimensions      [1 -3 0 0 0 0 0];

internalField   nonuniform List<scalar> 
4000
(
0.658526
0.658501
0.658458
0.658387
0.658269
0.658072
0.657749
0.657222
0.656373
0.655021
0.652905
0.649657
0.64479
0.637707
0.627759
0.614354
0.597131
0.576132
0.551895
0.525384
0.497785
0.470257
0.443735
0.418841
0.395905
0.375022
0.356135
0.339102
0.32374
0.309857
0.297273
0.285824
0.275369
0.265787
0.256978
0.248852
0.2413
0.234253
0.22766
0.221476
0.215662
0.210187
0.205023
0.200147
0.19554
0.191185
0.187069
0.18318
0.179509
0.176049
0.172795
0.169744
0.166895
0.16425
0.161813
0.159594
0.157607
0.155875
0.154458
0.153321
0.152557
0.152246
0.152509
0.160922
0.170963
0.182823
0.196776
0.21319
0.232556
0.255514
0.282901
0.3158
0.355602
0.404171
0.46388
0.537023
0.625051
0.726993
0.837171
0.94422
1.03458
1.09979
1.14041
1.16274
1.17399
1.17936
1.18184
1.18296
1.18345
1.18366
1.18375
1.18379
1.18381
1.18382
1.18382
1.18382
1.18382
1.18382
1.18382
1.18382
0.658526
0.658501
0.658458
0.658386
0.658266
0.658067
0.65774
0.657207
0.656347
0.654981
0.652846
0.649577
0.644693
0.637612
0.627699
0.61438
0.597302
0.576504
0.55249
0.526189
0.498757
0.471331
0.444846
0.419934
0.396938
0.375972
0.356991
0.33986
0.324404
0.310433
0.297769
0.286249
0.275729
0.266089
0.257228
0.249058
0.241466
0.234384
0.22776
0.221547
0.215708
0.21021
0.205026
0.200132
0.195509
0.19114
0.187011
0.183111
0.179431
0.175964
0.172704
0.169649
0.166798
0.164153
0.161721
0.159511
0.157539
0.155834
0.154454
0.153374
0.152696
0.152509
0.152946
0.16162
0.171932
0.184095
0.198402
0.21525
0.23516
0.258817
0.287112
0.321199
0.362563
0.413207
0.475581
0.551901
0.643251
0.747766
0.858417
0.962871
1.04822
1.10807
1.14468
1.16471
1.17483
1.1797
1.18198
1.18301
1.18347
1.18367
1.18376
1.18379
1.18381
1.18382
1.18382
1.18382
1.18382
1.18382
1.18382
1.18382
0.658526
0.6585
0.658457
0.658384
0.658263
0.658062
0.65773
0.657191
0.656322
0.654944
0.652796
0.649514
0.644622
0.637542
0.627644
0.614368
0.597375
0.576703
0.552849
0.526716
0.499436
0.472128
0.445714
0.42083
0.397825
0.376822
0.357785
0.340588
0.325061
0.31102
0.298287
0.2867
0.276118
0.266421
0.257506
0.249287
0.241651
0.234528
0.227864
0.221615
0.215743
0.210215
0.205004
0.200086
0.19544
0.191051
0.186903
0.182987
0.179293
0.175814
0.172544
0.169482
0.166626
0.163981
0.161552
0.159352
0.157399
0.155737
0.154407
0.153412
0.152881
0.152953
0.153864
0.162913
0.173624
0.186236
0.201071
0.218558
0.239256
0.263896
0.293427
0.32907
0.372389
0.425494
0.490787
0.570223
0.664284
0.770074
0.879474
0.979963
1.05996
1.11497
1.14825
1.16641
1.17559
1.18004
1.18212
1.18307
1.18349
1.18368
1.18376
1.1838
1.18381
1.18382
1.18382
1.18382
1.18382
1.18382
1.18382
1.18382
0.658526
0.6585
0.658456
0.658383
0.658261
0.658059
0.657726
0.657184
0.656312
0.654931
0.65278
0.649498
0.644613
0.637552
0.627699
0.614495
0.597601
0.577047
0.553316
0.527299
0.500111
0.472863
0.446478
0.421592
0.398563
0.377519
0.358432
0.34118
0.325595
0.311497
0.298707
0.287066
0.276433
0.266686
0.257725
0.249461
0.241784
0.23462
0.22792
0.221639
0.215736
0.21018
0.204941
0.199997
0.195328
0.190917
0.18675
0.182816
0.179107
0.175614
0.172334
0.169263
0.166402
0.163753
0.161325
0.159129
0.157184
0.155541
0.154233
0.153265
0.152764
0.15286
0.155377
0.164761
0.175871
0.188963
0.20438
0.222579
0.244153
0.269878
0.300754
0.338064
0.383454
0.439117
0.507364
0.589858
0.686456
0.793245
0.901115
0.997479
1.0721
1.12226
1.15214
1.16832
1.17648
1.18044
1.18229
1.18314
1.18352
1.18369
1.18377
1.1838
1.18381
1.18382
1.18382
1.18382
1.18382
1.18382
1.18382
1.18382
0.658526
0.6585
0.658456
0.658383
0.65826
0.658057
0.657723
0.65718
0.656308
0.654925
0.652774
0.649494
0.644617
0.637575
0.627754
0.614603
0.59778
0.577312
0.553675
0.527746
0.500628
0.473427
0.447062
0.422174
0.399124
0.378048
0.35892
0.341623
0.325992
0.311846
0.299011
0.287327
0.27665
0.266862
0.257861
0.249559
0.241846
0.234652
0.227923
0.221613
0.215682
0.210099
0.204835
0.199868
0.195177
0.190745
0.18656
0.18261
0.178886
0.175382
0.172091
0.169013
0.166147
0.163496
0.161069
0.158875
0.156936
0.155303
0.154008
0.15305
0.152552
0.152635
0.157282
0.16695
0.178435
0.192
0.208005
0.226929
0.2494
0.276231
0.308473
0.347462
0.394933
0.453127
0.524218
0.609533
0.708251
0.815463
0.921253
1.01328
1.08275
1.12854
1.15546
1.16995
1.17725
1.18078
1.18245
1.18321
1.18355
1.18371
1.18377
1.1838
1.18381
1.18382
1.18382
1.18382
1.18382
1.18382
1.18382
1.18382
0.658526
0.6585
0.658456
0.658383
0.65826
0.658057
0.657723
0.65718
0.656308
0.654927
0.652779
0.649507
0.644644
0.637625
0.627839
0.614735
0.597971
0.577569
0.553998
0.528126
0.50105
0.473871
0.44751
0.422611
0.399538
0.37843
0.359267
0.341932
0.326262
0.312079
0.299206
0.287485
0.276772
0.26695
0.257918
0.249589
0.24185
0.23463
0.227874
0.221538
0.215584
0.209978
0.204692
0.199704
0.194994
0.190546
0.186346
0.182382
0.178647
0.175133
0.171835
0.168753
0.165885
0.163236
0.160813
0.158627
0.1567
0.155092
0.153814
0.152875
0.152406
0.152543
0.159239
0.169188
0.181044
0.195079
0.211668
0.231311
0.254666
0.282586
0.316166
0.356793
0.406296
0.46693
0.540704
0.628597
0.729101
0.836378
0.939876
1.02766
1.09237
1.1342
1.15849
1.17145
1.17796
1.18111
1.18259
1.18327
1.18358
1.18372
1.18378
1.1838
1.18381
1.18382
1.18382
1.18382
1.18382
1.18382
1.18382
1.18382
0.658526
0.6585
0.658456
0.658383
0.65826
0.658057
0.657723
0.657181
0.65631
0.654931
0.652788
0.649524
0.644673
0.637673
0.627914
0.614847
0.598128
0.577776
0.554252
0.528419
0.50137
0.474203
0.447839
0.422924
0.399828
0.378692
0.359497
0.34213
0.326427
0.312212
0.299308
0.287557
0.276819
0.266973
0.257918
0.249565
0.241803
0.234559
0.227782
0.221425
0.21545
0.209825
0.204522
0.199518
0.194793
0.190331
0.186118
0.182144
0.178401
0.174881
0.171581
0.168498
0.165633
0.162991
0.160579
0.158409
0.156504
0.154924
0.153673
0.15277
0.152338
0.152514
0.160947
0.171209
0.183463
0.197984
0.215159
0.235512
0.259729
0.288702
0.323569
0.36577
0.417221
0.480159
0.556425
0.646625
0.748568
0.855561
0.95659
1.04029
1.10066
1.13902
1.16105
1.17272
1.17856
1.18139
1.18272
1.18333
1.1836
1.18373
1.18378
1.1838
1.18381
1.18382
1.18382
1.18382
1.18382
1.18382
1.18382
1.18382
0.658526
0.6585
0.658456
0.658383
0.65826
0.658057
0.657724
0.657183
0.656313
0.654937
0.652798
0.649541
0.644702
0.637719
0.627983
0.614945
0.598261
0.577943
0.554451
0.528642
0.501605
0.474439
0.448066
0.423135
0.400017
0.378854
0.359632
0.342237
0.326507
0.312267
0.299342
0.287571
0.276812
0.266945
0.257869
0.249496
0.241715
0.234453
0.227658
0.221284
0.215294
0.209654
0.204336
0.199319
0.194582
0.190109
0.185888
0.181907
0.178158
0.174636
0.171336
0.168257
0.1654
0.162771
0.160377
0.158236
0.156366
0.154849
0.153632
0.152824
0.152513
0.15284
0.161938
0.172753
0.185529
0.200592
0.21837
0.239422
0.26447
0.294445
0.330531
0.37422
0.427505
0.492584
0.571126
0.663359
0.766431
0.872888
0.971415
1.0513
1.10779
1.14315
1.16323
1.1738
1.17908
1.18163
1.18282
1.18338
1.18363
1.18374
1.18379
1.18381
1.18382
1.18382
1.18382
1.18382
1.18382
1.18382
1.18382
1.18382
0.658526
0.6585
0.658456
0.658383
0.658261
0.658058
0.657725
0.657185
0.656316
0.654943
0.652808
0.649557
0.644727
0.637757
0.628039
0.615023
0.598362
0.578069
0.554597
0.5288
0.501767
0.474597
0.448211
0.423262
0.400122
0.378937
0.359692
0.342277
0.326529
0.312271
0.299327
0.287537
0.276761
0.266877
0.257785
0.249396
0.2416
0.234324
0.227514
0.221127
0.215124
0.209472
0.204144
0.199116
0.19437
0.18989
0.185662
0.181677
0.177926
0.174403
0.171106
0.168032
0.165184
0.162569
0.160196
0.158083
0.156265
0.15481
0.153686
0.153028
0.152967
0.153734
0.163173
0.174359
0.187545
0.203072
0.221387
0.243074
0.268885
0.299785
0.336997
0.382072
0.43706
0.504104
0.584696
0.678692
0.782612
0.888344
0.984403
1.06078
1.11385
1.14662
1.16507
1.17471
1.17951
1.18183
1.18292
1.18342
1.18364
1.18374
1.18379
1.18381
1.18382
1.18382
1.18382
1.18382
1.18382
1.18382
1.18382
1.18382
0.658526
0.6585
0.658456
0.658383
0.658261
0.658059
0.657726
0.657186
0.656319
0.654948
0.652816
0.649571
0.644748
0.637788
0.628083
0.615081
0.598437
0.578158
0.554696
0.528904
0.501868
0.474688
0.448289
0.423322
0.400165
0.378964
0.359704
0.342272
0.326508
0.312233
0.299274
0.287469
0.276679
0.266782
0.257678
0.249277
0.241469
0.234181
0.227361
0.220964
0.214951
0.20929
0.203953
0.198918
0.194165
0.18968
0.185448
0.18146
0.177708
0.174186
0.170891
0.167823
0.164983
0.162379
0.160021
0.157927
0.156139
0.154712
0.153619
0.152995
0.152963
0.154832
0.164523
0.175997
0.189516
0.205434
0.224217
0.246467
0.272964
0.304703
0.342942
0.389287
0.445833
0.514654
0.59707
0.692572
0.797102
0.901986
0.995683
1.06889
1.11898
1.14954
1.1666
1.17547
1.17988
1.182
1.18299
1.18345
1.18366
1.18375
1.18379
1.18381
1.18382
1.18382
1.18382
1.18382
1.18382
1.18382
1.18382
1.18382
0.658526
0.6585
0.658456
0.658383
0.658261
0.658059
0.657727
0.657188
0.656322
0.654952
0.652823
0.649581
0.644763
0.63781
0.628114
0.615122
0.598487
0.578215
0.554757
0.528962
0.50192
0.47473
0.448318
0.423339
0.400168
0.378952
0.359676
0.34223
0.326452
0.312165
0.299194
0.287379
0.276578
0.266671
0.257558
0.249148
0.241331
0.234034
0.227206
0.220801
0.214781
0.209113
0.20377
0.19873
0.193973
0.189483
0.185249
0.18126
0.177508
0.173988
0.170696
0.167632
0.164799
0.162202
0.159854
0.15777
0.155993
0.154575
0.153487
0.152856
0.152795
0.156027
0.165896
0.177593
0.191387
0.20764
0.22683
0.249579
0.276686
0.309177
0.34834
0.395834
0.453781
0.52419
0.608212
0.704989
0.809935
0.913908
1.00539
1.07578
1.12328
1.15197
1.16787
1.1761
1.18018
1.18214
1.18306
1.18348
1.18367
1.18376
1.18379
1.18381
1.18382
1.18382
1.18382
1.18382
1.18382
1.18382
1.18382
1.18382
0.658526
0.6585
0.658457
0.658383
0.658261
0.65806
0.657728
0.657189
0.656324
0.654955
0.652828
0.649588
0.644774
0.637826
0.628135
0.615148
0.598517
0.578246
0.554786
0.528987
0.501938
0.474738
0.448315
0.423322
0.400137
0.378908
0.359621
0.342164
0.326376
0.31208
0.2991
0.287277
0.276468
0.266554
0.257434
0.249018
0.241194
0.233891
0.227056
0.220645
0.21462
0.208947
0.2036
0.198556
0.193796
0.189305
0.18507
0.18108
0.17733
0.173812
0.170523
0.167464
0.164637
0.162048
0.159707
0.157632
0.155867
0.154459
0.153379
0.152754
0.152695
0.157116
0.167154
0.179054
0.193091
0.209639
0.229189
0.252379
0.28003
0.313189
0.353173
0.401694
0.460895
0.532706
0.618123
0.715964
0.821172
0.92422
1.01368
1.08158
1.12688
1.15399
1.16893
1.17662
1.18043
1.18225
1.18311
1.1835
1.18368
1.18376
1.1838
1.18381
1.18382
1.18382
1.18382
1.18382
1.18382
1.18382
1.18382
1.18382
0.658526
0.6585
0.658457
0.658383
0.658262
0.65806
0.657728
0.65719
0.656325
0.654958
0.652831
0.649593
0.644781
0.637835
0.628146
0.615162
0.598531
0.578259
0.554795
0.52899
0.501931
0.47472
0.448284
0.42328
0.400084
0.378845
0.359549
0.342084
0.326289
0.311986
0.299
0.287171
0.276357
0.266438
0.257313
0.248892
0.241063
0.233755
0.226916
0.220501
0.214472
0.208796
0.203446
0.1984
0.193639
0.189147
0.184911
0.180923
0.177174
0.173659
0.170375
0.167321
0.1645
0.161918
0.159586
0.157521
0.155768
0.15437
0.153298
0.152682
0.15263
0.158079
0.16827
0.180349
0.194601
0.211409
0.231275
0.254851
0.282977
0.316722
0.357429
0.406857
0.467157
0.540193
0.62681
0.725531
0.830887
0.933041
1.02069
1.08644
1.12986
1.15566
1.1698
1.17705
1.18063
1.18235
1.18315
1.18352
1.18369
1.18376
1.1838
1.18381
1.18382
1.18382
1.18382
1.18382
1.18382
1.18382
1.18382
1.18382
0.658526
0.6585
0.658457
0.658384
0.658262
0.65806
0.657729
0.65719
0.656326
0.654959
0.652834
0.649596
0.644785
0.63784
0.628152
0.615167
0.598534
0.578259
0.554789
0.528975
0.501905
0.474683
0.448237
0.423223
0.400019
0.378772
0.35947
0.341999
0.326199
0.311892
0.298902
0.287069
0.276251
0.266329
0.257201
0.248776
0.240944
0.233633
0.226791
0.220373
0.214341
0.208663
0.203312
0.198264
0.193502
0.189011
0.184776
0.18079
0.177043
0.173532
0.170252
0.167204
0.164389
0.161815
0.159492
0.157436
0.155693
0.154304
0.153243
0.152635
0.152595
0.158894
0.169225
0.181465
0.195905
0.212938
0.233077
0.256987
0.285525
0.319779
0.361115
0.411331
0.472581
0.546669
0.634303
0.733742
0.839164
0.940488
1.02655
1.09046
1.13232
1.15703
1.17051
1.1774
1.1808
1.18243
1.18319
1.18354
1.1837
1.18377
1.1838
1.18381
1.18382
1.18382
1.18382
1.18382
1.18382
1.18382
1.18382
1.18382
0.658526
0.6585
0.658457
0.658384
0.658262
0.65806
0.657729
0.657191
0.656327
0.65496
0.652835
0.649598
0.644787
0.637842
0.628153
0.615166
0.59853
0.578249
0.554771
0.528948
0.50187
0.474638
0.448183
0.423161
0.39995
0.378698
0.359391
0.341917
0.326114
0.311803
0.298811
0.286975
0.276155
0.26623
0.2571
0.248674
0.240839
0.233526
0.226682
0.220262
0.214229
0.20855
0.203198
0.19815
0.193388
0.188897
0.184665
0.18068
0.176937
0.173429
0.170154
0.167111
0.164303
0.161737
0.159421
0.157372
0.15564
0.15426
0.153207
0.152608
0.152582
0.15957
0.170026
0.182405
0.197008
0.214233
0.234605
0.2588
0.287687
0.322374
0.364244
0.415129
0.477185
0.552159
0.64064
0.740659
0.846093
0.946672
1.03137
1.09375
1.13431
1.15813
1.17108
1.17769
1.18093
1.18249
1.18322
1.18355
1.1837
1.18377
1.1838
1.18381
1.18382
1.18382
1.18382
1.18382
1.18382
1.18382
1.18382
1.18382
0.658526
0.6585
0.658457
0.658384
0.658262
0.65806
0.657729
0.657191
0.656327
0.65496
0.652835
0.649598
0.644787
0.637841
0.628151
0.615162
0.598521
0.578234
0.554749
0.528918
0.501831
0.474591
0.448129
0.423101
0.399885
0.378629
0.359319
0.341842
0.326037
0.311725
0.29873
0.286893
0.276072
0.266146
0.257015
0.248588
0.240751
0.233437
0.226592
0.220172
0.214138
0.208458
0.203106
0.198058
0.193297
0.188808
0.184577
0.180595
0.176855
0.173351
0.170081
0.167043
0.164242
0.161681
0.159371
0.15733
0.155604
0.154228
0.153175
0.152569
0.152523
0.160122
0.170684
0.183182
0.19792
0.215306
0.23587
0.2603
0.289477
0.32452
0.366832
0.418271
0.480991
0.556693
0.645862
0.746337
0.851752
0.951691
1.03526
1.09638
1.1359
1.15901
1.17154
1.17791
1.18104
1.18254
1.18324
1.18356
1.18371
1.18377
1.1838
1.18381
1.18382
1.18382
1.18382
1.18382
1.18382
1.18382
1.18382
1.18382
0.658526
0.6585
0.658457
0.658384
0.658262
0.65806
0.657729
0.657191
0.656327
0.65496
0.652835
0.649598
0.644787
0.63784
0.628148
0.615155
0.598511
0.578219
0.554727
0.528888
0.501794
0.474548
0.44808
0.423047
0.399828
0.378569
0.359257
0.341778
0.325972
0.311659
0.298664
0.286826
0.276005
0.266078
0.256947
0.248519
0.240682
0.233367
0.226522
0.220101
0.214067
0.208387
0.203035
0.197989
0.193229
0.188741
0.184512
0.180533
0.176796
0.173297
0.170031
0.166999
0.164202
0.161647
0.159344
0.157309
0.15559
0.15422
0.153171
0.152566
0.152523
0.160557
0.171209
0.183803
0.198652
0.216166
0.236884
0.261501
0.290907
0.326233
0.368895
0.420774
0.48402
0.560296
0.650002
0.750823
0.856204
0.955619
1.03829
1.09843
1.13713
1.15969
1.17189
1.17808
1.18112
1.18258
1.18326
1.18357
1.18371
1.18377
1.1838
1.18381
1.18382
1.18382
1.18382
1.18382
1.18382
1.18382
1.18382
1.18382
0.658526
0.6585
0.658457
0.658384
0.658262
0.65806
0.657729
0.657191
0.656327
0.65496
0.652835
0.649598
0.644786
0.637838
0.628144
0.615149
0.598501
0.578205
0.554707
0.528863
0.501763
0.474512
0.44804
0.423004
0.399782
0.378522
0.359208
0.341729
0.325922
0.311609
0.298614
0.286776
0.275954
0.266028
0.256896
0.248469
0.240632
0.233317
0.226472
0.220051
0.214017
0.208338
0.202987
0.197941
0.193183
0.188696
0.18447
0.180494
0.17676
0.173264
0.170002
0.166974
0.164183
0.161634
0.159337
0.157308
0.155595
0.154229
0.153183
0.152577
0.152528
0.160879
0.171604
0.184276
0.199209
0.21682
0.237654
0.26241
0.291987
0.327524
0.370448
0.422654
0.486291
0.562991
0.653089
0.754157
0.859496
0.958509
1.04051
1.09992
1.13804
1.16019
1.17214
1.17821
1.18118
1.18261
1.18327
1.18358
1.18371
1.18377
1.1838
1.18381
1.18382
1.18382
1.18382
1.18382
1.18382
1.18382
1.18382
1.18382
0.658526
0.6585
0.658457
0.658384
0.658262
0.65806
0.657729
0.657191
0.656327
0.65496
0.652835
0.649597
0.644785
0.637836
0.628141
0.615145
0.598494
0.578194
0.554693
0.528845
0.501741
0.474487
0.448012
0.422974
0.399751
0.378489
0.359175
0.341696
0.325888
0.311575
0.29858
0.286742
0.275921
0.265995
0.256864
0.248437
0.240601
0.233286
0.226441
0.22002
0.213987
0.208308
0.202958
0.197913
0.193156
0.188672
0.184447
0.180473
0.176742
0.173249
0.169991
0.166967
0.16418
0.161636
0.159344
0.15732
0.155613
0.15425
0.153204
0.152594
0.152535
0.161093
0.171874
0.184601
0.199593
0.217271
0.238182
0.263031
0.292722
0.328398
0.371494
0.423917
0.487811
0.564789
0.655142
0.756362
0.861661
0.960397
1.04195
1.10089
1.13862
1.16051
1.17231
1.17829
1.18122
1.18262
1.18328
1.18358
1.18371
1.18378
1.1838
1.18381
1.18382
1.18382
1.18382
1.18382
1.18382
1.18382
1.18382
1.18382
0.658526
0.6585
0.658457
0.658384
0.658262
0.65806
0.657729
0.657191
0.656327
0.65496
0.652835
0.649597
0.644785
0.637835
0.62814
0.615142
0.598491
0.578189
0.554686
0.528836
0.50173
0.474474
0.447998
0.422959
0.399735
0.378473
0.359159
0.341679
0.325872
0.311558
0.298563
0.286726
0.275904
0.265979
0.256848
0.248422
0.240586
0.233272
0.226427
0.220007
0.213974
0.208296
0.202946
0.197902
0.193146
0.188662
0.184439
0.180466
0.176737
0.173246
0.169991
0.16697
0.164187
0.161646
0.159357
0.157337
0.155633
0.154272
0.153225
0.152611
0.152539
0.161198
0.172016
0.184774
0.199798
0.217509
0.238458
0.263352
0.293098
0.328841
0.37202
0.424546
0.488561
0.565668
0.656138
0.757424
0.862695
0.96129
1.04262
1.10134
1.13889
1.16066
1.17238
1.17833
1.18124
1.18263
1.18328
1.18358
1.18372
1.18378
1.1838
1.18381
1.18382
1.18382
1.18382
1.18382
1.18382
1.18382
1.18382
1.18382
0.658526
0.6585
0.658457
0.658384
0.658262
0.65806
0.657729
0.657191
0.656327
0.65496
0.652835
0.649597
0.644784
0.637835
0.62814
0.615142
0.59849
0.578188
0.554686
0.528836
0.50173
0.474474
0.447997
0.422959
0.399735
0.378473
0.359158
0.341678
0.325871
0.311558
0.298563
0.286725
0.275904
0.265978
0.256848
0.248422
0.240586
0.233272
0.226427
0.220007
0.213974
0.208296
0.202946
0.197902
0.193146
0.188662
0.184439
0.180466
0.176737
0.173246
0.169991
0.16697
0.164186
0.161646
0.159357
0.157337
0.155633
0.154271
0.153225
0.15261
0.152539
0.161199
0.172016
0.184775
0.199798
0.217509
0.238458
0.263353
0.293098
0.328842
0.372021
0.424547
0.488562
0.56567
0.656139
0.757426
0.862697
0.961292
1.04262
1.10134
1.13889
1.16066
1.17238
1.17833
1.18124
1.18263
1.18328
1.18358
1.18372
1.18378
1.1838
1.18381
1.18382
1.18382
1.18382
1.18382
1.18382
1.18382
1.18382
1.18382
0.658526
0.6585
0.658457
0.658384
0.658262
0.65806
0.657729
0.657191
0.656327
0.65496
0.652835
0.649597
0.644785
0.637836
0.628141
0.615144
0.598493
0.578193
0.554691
0.528843
0.501739
0.474485
0.44801
0.422972
0.399749
0.378488
0.359174
0.341694
0.325887
0.311574
0.298579
0.286741
0.27592
0.265994
0.256863
0.248436
0.2406
0.233285
0.22644
0.22002
0.213986
0.208308
0.202957
0.197913
0.193156
0.188671
0.184447
0.180472
0.176741
0.173248
0.16999
0.166967
0.16418
0.161636
0.159344
0.15732
0.155613
0.15425
0.153204
0.152594
0.152535
0.161093
0.171875
0.184602
0.199594
0.217273
0.238184
0.263033
0.292724
0.328401
0.371497
0.42392
0.487815
0.564793
0.655147
0.756368
0.861667
0.960402
1.04195
1.10089
1.13862
1.16051
1.17231
1.17829
1.18122
1.18262
1.18328
1.18358
1.18371
1.18378
1.1838
1.18381
1.18382
1.18382
1.18382
1.18382
1.18382
1.18382
1.18382
1.18382
0.658526
0.6585
0.658457
0.658384
0.658262
0.65806
0.657729
0.657191
0.656327
0.65496
0.652835
0.649597
0.644785
0.637837
0.628143
0.615147
0.598499
0.578202
0.554704
0.52886
0.501759
0.474508
0.448036
0.423001
0.399779
0.378519
0.359206
0.341727
0.32592
0.311607
0.298612
0.286774
0.275952
0.266026
0.256895
0.248468
0.240631
0.233316
0.226471
0.22005
0.214016
0.208337
0.202986
0.19794
0.193182
0.188696
0.184469
0.180493
0.176759
0.173263
0.170001
0.166974
0.164182
0.161633
0.159336
0.157307
0.155595
0.154229
0.153183
0.152577
0.152528
0.160881
0.171606
0.184278
0.199211
0.216823
0.237657
0.262413
0.291991
0.327528
0.370453
0.42266
0.486297
0.562999
0.653098
0.754166
0.859505
0.958517
1.04051
1.09993
1.13804
1.16019
1.17214
1.17821
1.18118
1.18261
1.18327
1.18358
1.18371
1.18377
1.1838
1.18381
1.18382
1.18382
1.18382
1.18382
1.18382
1.18382
1.18382
1.18382
0.658526
0.6585
0.658457
0.658384
0.658262
0.65806
0.657729
0.657191
0.656327
0.65496
0.652835
0.649597
0.644786
0.637838
0.628146
0.615153
0.598508
0.578215
0.554722
0.528883
0.501789
0.474542
0.448075
0.423042
0.399824
0.378565
0.359253
0.341775
0.325969
0.311656
0.298662
0.286824
0.276002
0.266076
0.256945
0.248517
0.240681
0.233366
0.22652
0.2201
0.214066
0.208386
0.203034
0.197988
0.193228
0.18874
0.184511
0.180532
0.176796
0.173296
0.17003
0.166998
0.164201
0.161646
0.159344
0.157309
0.15559
0.15422
0.153171
0.152566
0.152522
0.160559
0.171211
0.183806
0.198655
0.216169
0.236888
0.261505
0.290912
0.326239
0.368902
0.420782
0.48403
0.560307
0.650014
0.750836
0.856217
0.95563
1.0383
1.09843
1.13714
1.15969
1.17189
1.17808
1.18112
1.18258
1.18326
1.18357
1.18371
1.18377
1.1838
1.18381
1.18382
1.18382
1.18382
1.18382
1.18382
1.18382
1.18382
1.18382
0.658526
0.6585
0.658457
0.658384
0.658262
0.65806
0.657729
0.657191
0.656327
0.65496
0.652834
0.649597
0.644786
0.63784
0.628148
0.615158
0.598517
0.578229
0.554743
0.528912
0.501824
0.474584
0.448122
0.423095
0.39988
0.378624
0.359314
0.341838
0.326033
0.311721
0.298727
0.28689
0.276069
0.266143
0.257013
0.248585
0.240749
0.233435
0.22659
0.22017
0.214136
0.208456
0.203104
0.198057
0.193296
0.188807
0.184576
0.180594
0.176854
0.17335
0.17008
0.167043
0.164241
0.16168
0.159371
0.157329
0.155603
0.154228
0.153175
0.152568
0.152522
0.160124
0.170687
0.183185
0.197924
0.21531
0.235876
0.260306
0.289484
0.324528
0.366841
0.418282
0.481003
0.556708
0.645878
0.746354
0.85177
0.951706
1.03527
1.09639
1.13591
1.15901
1.17154
1.17791
1.18104
1.18254
1.18324
1.18356
1.18371
1.18377
1.1838
1.18381
1.18382
1.18382
1.18382
1.18382
1.18382
1.18382
1.18382
1.18382
0.658526
0.6585
0.658457
0.658384
0.658262
0.65806
0.657729
0.657191
0.656326
0.654959
0.652834
0.649597
0.644786
0.63784
0.62815
0.615162
0.598525
0.578243
0.554764
0.528941
0.501862
0.47463
0.448175
0.423154
0.399944
0.378692
0.359386
0.341912
0.326109
0.311799
0.298807
0.286972
0.276152
0.266227
0.257097
0.248671
0.240836
0.233523
0.22668
0.22026
0.214227
0.208548
0.203196
0.198148
0.193387
0.188896
0.184663
0.180679
0.176936
0.173428
0.170153
0.16711
0.164302
0.161736
0.15942
0.157372
0.155639
0.15426
0.153207
0.152608
0.152582
0.159574
0.17003
0.18241
0.197013
0.214239
0.234611
0.258807
0.287696
0.322384
0.364255
0.415143
0.477201
0.552178
0.640661
0.740681
0.846115
0.946691
1.03139
1.09376
1.13432
1.15814
1.17108
1.17769
1.18093
1.18249
1.18322
1.18355
1.1837
1.18377
1.1838
1.18381
1.18382
1.18382
1.18382
1.18382
1.18382
1.18382
1.18382
1.18382
0.658526
0.6585
0.658457
0.658384
0.658262
0.65806
0.657729
0.65719
0.656326
0.654958
0.652833
0.649595
0.644784
0.637838
0.628148
0.615162
0.598528
0.578252
0.55478
0.528966
0.501896
0.474674
0.448228
0.423215
0.400011
0.378765
0.359463
0.341993
0.326194
0.311887
0.298897
0.287065
0.276247
0.266325
0.257197
0.248773
0.240941
0.23363
0.226788
0.22037
0.214339
0.208661
0.203309
0.198262
0.1935
0.189009
0.184775
0.180788
0.177042
0.17353
0.170251
0.167202
0.164388
0.161814
0.159491
0.157435
0.155692
0.154304
0.153242
0.152635
0.152595
0.158898
0.16923
0.18147
0.195911
0.212945
0.233084
0.256996
0.285535
0.319791
0.361129
0.411347
0.4726
0.546691
0.634328
0.73377
0.839191
0.940511
1.02657
1.09047
1.13233
1.15703
1.17051
1.1774
1.1808
1.18243
1.18319
1.18354
1.1837
1.18377
1.1838
1.18381
1.18382
1.18382
1.18382
1.18382
1.18382
1.18382
1.18382
1.18382
0.658526
0.6585
0.658457
0.658383
0.658262
0.65806
0.657728
0.65719
0.656325
0.654957
0.652831
0.649592
0.64478
0.637832
0.628142
0.615156
0.598524
0.578251
0.554786
0.52898
0.50192
0.474709
0.448274
0.42327
0.400075
0.378836
0.359541
0.342077
0.326282
0.31198
0.298995
0.287166
0.276353
0.266434
0.257309
0.248889
0.24106
0.233752
0.226913
0.220498
0.214469
0.208793
0.203444
0.198398
0.193636
0.189144
0.184909
0.180921
0.177172
0.173657
0.170373
0.16732
0.164499
0.161917
0.159585
0.15752
0.155767
0.154369
0.153298
0.152681
0.152629
0.158084
0.168276
0.180356
0.194608
0.211417
0.231284
0.254861
0.282989
0.316736
0.357445
0.406877
0.46718
0.540219
0.626841
0.725563
0.830919
0.93307
1.02071
1.08645
1.12987
1.15567
1.1698
1.17705
1.18063
1.18235
1.18315
1.18352
1.18369
1.18376
1.1838
1.18381
1.18382
1.18382
1.18382
1.18382
1.18382
1.18382
1.18382
1.18382
0.658526
0.6585
0.658457
0.658383
0.658261
0.658059
0.657728
0.657189
0.656323
0.654955
0.652827
0.649587
0.644772
0.637822
0.62813
0.615142
0.598509
0.578237
0.554776
0.528976
0.501925
0.474726
0.448303
0.423311
0.400127
0.378898
0.359612
0.342156
0.326369
0.312073
0.299094
0.287271
0.276463
0.266549
0.257429
0.249014
0.24119
0.233887
0.227053
0.220642
0.214616
0.208944
0.203597
0.198553
0.193793
0.189302
0.185067
0.181078
0.177327
0.17381
0.170521
0.167463
0.164635
0.162046
0.159706
0.157631
0.155866
0.154459
0.153378
0.152753
0.152695
0.157122
0.167161
0.179061
0.193099
0.209648
0.2292
0.252391
0.280043
0.313205
0.353192
0.401716
0.460921
0.532736
0.618158
0.716002
0.821211
0.924254
1.01371
1.0816
1.12689
1.154
1.16893
1.17663
1.18043
1.18225
1.18311
1.1835
1.18368
1.18376
1.1838
1.18381
1.18382
1.18382
1.18382
1.18382
1.18382
1.18382
1.18382
1.18382
0.658526
0.6585
0.658456
0.658383
0.658261
0.658059
0.657727
0.657188
0.656321
0.654952
0.652822
0.649579
0.644761
0.637807
0.628109
0.615115
0.598478
0.578205
0.554745
0.52895
0.501907
0.474716
0.448305
0.423326
0.400156
0.378941
0.359666
0.342221
0.326444
0.312158
0.299187
0.287372
0.276572
0.266666
0.257553
0.249144
0.241326
0.23403
0.227202
0.220797
0.214777
0.209109
0.203767
0.198726
0.19397
0.189481
0.185247
0.181258
0.177506
0.173986
0.170694
0.16763
0.164797
0.162201
0.159852
0.157768
0.155991
0.154574
0.153485
0.152855
0.152794
0.156034
0.165903
0.177601
0.191396
0.20765
0.226842
0.249592
0.276702
0.309196
0.348361
0.39586
0.453811
0.524225
0.608252
0.705033
0.809979
0.913949
1.00543
1.0758
1.1233
1.15198
1.16788
1.1761
1.18018
1.18214
1.18306
1.18348
1.18367
1.18376
1.18379
1.18381
1.18382
1.18382
1.18382
1.18382
1.18382
1.18382
1.18382
1.18382
0.658526
0.6585
0.658456
0.658383
0.658261
0.658059
0.657726
0.657186
0.656319
0.654947
0.652815
0.649569
0.644745
0.637784
0.628077
0.615074
0.598427
0.578146
0.554683
0.52889
0.501854
0.474674
0.448274
0.423309
0.400152
0.378952
0.359693
0.342262
0.326498
0.312224
0.299266
0.287462
0.276672
0.266776
0.257672
0.249272
0.241464
0.234176
0.227356
0.220959
0.214947
0.209286
0.203949
0.198914
0.194162
0.189677
0.185445
0.181457
0.177705
0.174184
0.170889
0.16782
0.164981
0.162377
0.160019
0.157925
0.156137
0.15471
0.153617
0.152993
0.152961
0.154839
0.164531
0.176005
0.189525
0.205445
0.22423
0.246482
0.272981
0.304723
0.342966
0.389315
0.445866
0.514694
0.597116
0.692622
0.797154
0.902034
0.995722
1.06892
1.11899
1.14955
1.1666
1.17547
1.17988
1.182
1.18299
1.18345
1.18366
1.18375
1.18379
1.18381
1.18382
1.18382
1.18382
1.18382
1.18382
1.18382
1.18382
1.18382
0.658526
0.6585
0.658456
0.658383
0.658261
0.658058
0.657725
0.657184
0.656316
0.654942
0.652807
0.649555
0.644724
0.637752
0.628033
0.615015
0.598352
0.578056
0.554582
0.528784
0.501751
0.47458
0.448195
0.423247
0.400108
0.378924
0.35968
0.342265
0.326519
0.312262
0.299318
0.287529
0.276753
0.26687
0.257778
0.24939
0.241594
0.234318
0.227509
0.221123
0.21512
0.209468
0.20414
0.199112
0.194366
0.189886
0.185659
0.181674
0.177923
0.1744
0.171103
0.168029
0.165181
0.162566
0.160193
0.15808
0.156262
0.154807
0.153683
0.153025
0.152967
0.153738
0.163177
0.174365
0.187553
0.203082
0.221399
0.243089
0.268903
0.299806
0.337023
0.382102
0.437096
0.504147
0.584746
0.678748
0.782671
0.888399
0.984449
1.06081
1.11387
1.14663
1.16507
1.17471
1.17951
1.18183
1.18292
1.18342
1.18364
1.18374
1.18379
1.18381
1.18382
1.18382
1.18382
1.18382
1.18382
1.18382
1.18382
1.18382
0.658526
0.6585
0.658456
0.658383
0.65826
0.658057
0.657724
0.657182
0.656312
0.654936
0.652797
0.649539
0.644699
0.637714
0.627976
0.614936
0.598249
0.57793
0.554436
0.528625
0.501587
0.474421
0.448049
0.423118
0.400001
0.37884
0.359619
0.342224
0.326496
0.312256
0.299332
0.287562
0.276804
0.266937
0.257862
0.24949
0.241709
0.234447
0.227652
0.221279
0.215289
0.209649
0.204332
0.199314
0.194578
0.190105
0.185884
0.181903
0.178155
0.174633
0.171333
0.168253
0.165396
0.162767
0.160373
0.15823
0.156359
0.154841
0.153622
0.152812
0.1525
0.152831
0.161928
0.172745
0.185525
0.200593
0.218377
0.239433
0.264486
0.294466
0.330556
0.374251
0.427544
0.49263
0.57118
0.663421
0.766496
0.872951
0.971468
1.05134
1.10782
1.14316
1.16324
1.17381
1.17908
1.18163
1.18283
1.18338
1.18363
1.18374
1.18379
1.18381
1.18382
1.18382
1.18382
1.18382
1.18382
1.18382
1.18382
1.18382
0.658526
0.6585
0.658456
0.658383
0.65826
0.658057
0.657723
0.65718
0.656309
0.65493
0.652786
0.649521
0.644669
0.637667
0.627907
0.614837
0.598116
0.577761
0.554235
0.528401
0.50135
0.474183
0.44782
0.422906
0.399811
0.378676
0.359483
0.342117
0.326415
0.3122
0.299297
0.287547
0.27681
0.266965
0.25791
0.249557
0.241796
0.234553
0.227776
0.221419
0.215445
0.20982
0.204517
0.199513
0.194788
0.190326
0.186114
0.18214
0.178397
0.174877
0.171577
0.168494
0.165629
0.162986
0.160573
0.158402
0.156493
0.154908
0.153648
0.15273
0.152272
0.152398
0.16088
0.171171
0.183444
0.197976
0.215161
0.235521
0.259744
0.288722
0.323596
0.365803
0.417262
0.480208
0.556484
0.646693
0.748641
0.855632
0.956651
1.04033
1.10068
1.13904
1.16106
1.17272