/*--------------------------------*- C++ -*----------------------------------*\
  =========                 |
  \\      /  F ield         | OpenFOAM: The Open Source CFD Toolbox
   \\    /   O peration     | Website:  https://openfoam.org
    \\  /    A nd           | Version:  8
     \\/     M anipulation  |
\*---------------------------------------------------------------------------*/
FoamFile
{
    version     2.0;
    format      ascii;
    class       volScalarField;
    location    "460/fluid";
    object      T;
}
// * * * * * * * * * * * * * * * * * * * * * * * * * * * * * * * * * * * * * //

dimensions      [0 0 0 1 0 0 0];

internalField   nonuniform List<scalar> 
4000
(
293.004
293.016
293.037
293.072
293.131
293.228
293.388
293.65
294.072
294.747
295.809
297.455
299.957
303.674
309.058
316.626
326.923
340.444
357.548
378.406
402.974
431.023
462.206
496.123
532.389
570.664
610.67
652.192
695.068
739.173
784.406
830.679
877.904
925.983
974.805
1024.27
1074.41
1125.16
1176.44
1228.13
1280.15
1332.38
1384.71
1437.04
1489.23
1541.17
1592.73
1643.76
1694.13
1743.67
1792.23
1839.61
1885.6
1929.98
1972.44
2012.67
2050.25
2084.6
2114.43
2140.51
2161.03
2174.66
2179.41
2073.28
1958.57
1837.87
1713.23
1586.35
1458.65
1331.4
1205.77
1082.91
963.981
849.989
742.057
642.128
552.549
475.687
413.51
366.91
335.038
315.274
304.1
298.287
295.443
294.102
293.488
293.213
293.091
293.039
293.016
293.007
293.003
293.001
293
293
293
293
293
293
293.004
293.016
293.038
293.073
293.132
293.231
293.393
293.657
294.085
294.767
295.839
297.496
300.007
303.725
309.091
316.611
326.818
340.195
357.107
377.736
402.053
429.853
460.805
494.525
530.635
568.796
608.73
650.219
693.094
737.228
782.517
828.869
876.194
924.393
973.35
1022.96
1073.26
1124.18
1175.64
1227.52
1279.73
1332.16
1384.7
1437.22
1489.61
1541.74
1593.49
1644.7
1695.25
1744.96
1793.66
1841.17
1887.27
1931.71
1974.2
2014.38
2051.81
2085.82
2115.18
2140.49
2159.79
2171.64
2173.92
2065.01
1948.19
1825.81
1699.79
1571.73
1443.01
1314.88
1188.52
1065.09
945.809
831.685
724.034
625.004
537.058
462.573
403.343
359.844
330.702
312.928
302.97
297.785
295.232
294.018
293.455
293.2
293.087
293.037
293.016
293.007
293.003
293.001
293
293
293
293
293
293
293.004
293.016
293.038
293.074
293.134
293.234
293.398
293.665
294.097
294.785
295.864
297.528
300.044
303.762
309.121
316.618
326.773
340.061
356.842
377.298
401.412
428.99
459.717
493.223
529.14
567.137
606.942
648.335
691.151
735.259
780.556
826.95
874.348
922.651
971.742
1021.51
1071.99
1123.12
1174.8
1226.94
1279.42
1332.12
1384.93
1437.74
1490.43
1542.86
1594.9
1646.4
1697.22
1747.2
1796.15
1843.88
1890.17
1934.75
1977.32
2017.48
2054.76
2088.2
2116.9
2141.07
2158.32
2166.49
2162.11
2049.73
1930.26
1805.81
1678.14
1548.79
1419.08
1290.27
1163.55
1040.13
921.29
808.025
701.879
605.131
520.202
449.273
393.748
353.604
327.058
311.002
302.033
297.353
295.041
293.935
293.42
293.186
293.081
293.035
293.015
293.006
293.003
293.001
293
293
293
293
293
293
293.004
293.017
293.038
293.074
293.135
293.235
293.4
293.669
294.102
294.792
295.872
297.536
300.049
303.757
309.091
316.544
326.633
339.831
356.497
376.816
400.777
428.195
458.764
492.121
527.902
565.783
605.492
646.813
689.582
733.669
778.973
825.402
872.866
921.264
970.482
1020.41
1071.08
1122.43
1174.36
1226.74
1279.48
1332.47
1385.6
1438.73
1491.75
1544.52
1596.9
1648.74
1699.89
1750.19
1799.43
1847.44
1893.96
1938.75
1981.46
2021.71
2059.01
2092.26
2120.73
2144.53
2161.36
2169.17
2142.4
2028.05
1906.84
1780.91
1652.04
1521.77
1391.48
1262.42
1135.85
1013.01
895.152
783.316
679.222
585.19
503.542
436.244
384.351
347.43
323.375
308.993
301.018
296.869
294.819
293.836
293.377
293.167
293.073
293.032
293.013
293.006
293.002
293.001
293
293
293
293
293
293
293.004
293.017
293.038
293.075
293.135
293.236
293.401
293.67
294.105
294.795
295.875
297.538
300.047
303.745
309.06
316.482
326.523
339.654
356.233
376.447
400.292
427.589
458.038
491.283
526.965
564.762
604.405
645.679
688.422
732.506
777.831
824.305
871.841
920.344
969.701
1019.79
1070.65
1122.19
1174.33
1226.97
1279.99
1333.28
1386.72
1440.19
1493.55
1546.66
1599.38
1651.57
1703.06
1753.67
1803.22
1851.49
1898.26
1943.25
1986.13
2026.49
2063.85
2097.03
2125.37
2149.05
2165.85
2173.83
2117.91
2002.84
1880.73
1753.93
1624.33
1493.57
1363.06
1234.13
1108.06
986.132
869.556
759.429
657.636
566.483
488.173
424.441
376.001
342.043
320.209
307.283
300.156
296.457
294.628
293.75
293.339
293.151
293.066
293.029
293.012
293.005
293.002
293.001
293
293
293
293
293
293
293.004
293.017
293.038
293.075
293.135
293.236
293.401
293.671
294.105
294.794
295.873
297.531
300.032
303.718
309.014
316.406
326.406
339.483
355.995
376.134
399.898
427.112
457.482
490.656
526.277
564.026
603.635
644.891
687.633
731.736
777.101
823.641
871.27
919.887
969.374
1019.61
1070.62
1122.37
1174.74
1227.62
1280.91
1334.49
1388.24
1442.02
1495.7
1549.15
1602.2
1654.71
1706.51
1757.41
1807.23
1855.75
1902.72
1947.86
1990.84
2031.25
2068.55
2101.44
2129.6
2153.1
2169.49
2176.61
2093.34
1977.7
1854.89
1727.39
1597.26
1466.2
1335.68
1207.07
1081.68
960.822
845.615
737.276
637.807
549.463
474.323
413.9
368.596
337.282
317.405
305.755
299.376
296.08
294.451
293.67
293.303
293.135
293.059
293.026
293.011
293.005
293.002
293.001
293
293
293
293
293
293
293.004
293.017
293.038
293.075
293.135
293.236
293.401
293.67
294.103
294.792
295.868
297.523
300.018
303.693
308.972
316.341
326.309
339.345
355.808
375.892
399.599
426.757
457.077
490.207
525.796
563.523
603.123
644.387
687.153
731.298
776.723
823.338
871.053
919.769
969.376
1019.76
1070.96
1122.9
1175.49
1228.61
1282.16
1336.01
1390.04
1444.12
1498.1
1551.85
1605.2
1658
1710.07
1761.23
1811.27
1859.97
1907.08
1952.29
1995.27
2035.59
2072.71
2105.25
2133.12
2156.14
2172
2178.45
2072.47
1955.63
1831.59
1703.11
1572.3
1440.88
1310.37
1182.12
1057.45
937.665
823.809
717.223
619.981
534.283
462.083
404.681
362.193
333.209
315.027
304.467
298.72
295.761
294.301
293.601
293.272
293.121
293.053
293.023
293.01
293.004
293.002
293.001
293
293
293
293
293
293
293.004
293.017
293.038
293.075
293.135
293.236
293.401
293.669
294.102
294.789
295.863
297.514
300.003
303.669
308.934
316.285
326.228
339.233
355.662
375.709
399.379
426.505
456.796
489.906
525.484
563.212
602.827
644.117
686.922
731.116
776.598
823.283
871.088
919.919
969.661
1020.2
1071.57
1123.7
1176.5
1229.84
1283.63
1337.73
1392.02
1446.36
1500.62
1554.63
1608.25
1661.3
1713.6
1764.97
1815.18
1864.01
1911.18
1956.38
1999.23
2039.27
2075.99
2107.6
2135.28
2156.9
2170.97
2175.17
2061.05
1939.31
1812.26
1681.92
1550.02
1418.1
1287.52
1159.61
1035.63
916.864
804.288
699.361
604.193
520.925
451.394
396.7
356.698
329.738
313.008
303.374
298.161
295.489
294.173
293.542
293.246
293.11
293.048
293.021
293.009
293.004
293.002
293.001
293
293
293
293
293
293
293.004
293.017
293.038
293.075
293.135
293.235
293.4
293.668
294.1
294.786
295.858
297.506
299.989
303.648
308.904
316.24
326.165
339.15
355.556
375.58
399.228
426.337
456.618
489.726
525.31
563.055
602.694
644.016
686.859
731.104
776.654
823.426
871.332
920.279
970.152
1020.84
1072.37
1124.68
1177.67
1231.22
1285.23
1339.55
1394.08
1448.66
1503.15
1557.4
1611.25
1664.51
1717.01
1768.55
1818.9
1867.81
1915.01
1960.16
2002.87
2042.64
2078.63
2109.44
2135.84
2155.32
2165.78
2163.75
2046.58
1922.47
1793.71
1662.22
1529.65
1397.44
1266.95
1139.42
1016.14
898.33
786.946
683.558
590.302
509.253
442.128
389.841
352.018
326.806
311.313
302.459
297.694
295.261
294.065
293.492
293.223
293.1
293.044
293.019
293.008
293.003
293.001
293.001
293
293
293
293
293
293
293.004
293.017
293.038
293.074
293.135
293.235
293.4
293.668
294.099
294.783
295.854
297.499
299.979
303.632
308.88
316.206
326.119
339.091
355.483
375.495
399.134
426.239
456.523
489.64
525.24
563.004
602.67
644.029
686.924
731.233
776.858
823.716
871.722
920.78
970.777
1021.6
1073.28
1125.76
1178.92
1232.66
1286.86
1341.39
1396.12
1450.91
1505.62
1560.07
1614.11
1667.56
1720.23
1771.9
1822.36
1871.35
1918.58
1963.7
2006.31
2045.89
2081.5
2111.94
2137.91
2156.91
2166.93
2149.46
2030.77
1905.49
1775.89
1643.85
1510.99
1378.77
1248.5
1121.44
998.86
881.939
771.657
669.691
578.173
499.12
434.143
383.98
348.052
324.34
309.895
301.695
297.305
295.071
293.975
293.45
293.204
293.091
293.04
293.017
293.008
293.003
293.001
293.001
293
293
293
293
293
293
293.004
293.017
293.038
293.074
293.135
293.235
293.399
293.667
294.097
294.781
295.85
297.494
299.971
303.62
308.863
316.182
326.089
339.053
355.439
375.447
399.087
426.195
456.487
489.617
525.235
563.028
602.732
644.138
687.088
731.46
777.159
824.101
872.201
921.365
971.477
1022.43
1074.25
1126.87
1180.2
1234.1
1288.47
1343.18
1398.09
1453.07
1507.95
1562.57
1616.78
1670.38
1723.19
1774.98
1825.53
1874.59
1921.85
1966.97
2009.54
2049.06
2084.57
2114.9
2140.82
2159.87
2170.29
2133.95
2014.85
1889.16
1759.25
1627.03
1494.15
1362.08
1232.12
1105.56
983.668
867.58
758.33
657.656
567.69
490.405
427.311
379.002
344.708
322.275
308.713
301.061
296.982
294.914
293.9
293.416
293.189
293.084
293.037
293.016
293.007
293.003
293.001
293.001
293
293
293
293
293
293
293.004
293.017
293.038
293.074
293.135
293.235
293.399
293.666
294.096
294.78
295.848
297.49
299.965
303.612
308.851
316.168
326.07
339.032
355.417
375.427
399.07
426.187
456.492
489.642
525.287
563.114
602.857
644.309
687.313
731.747
777.516
824.537
872.725
921.985
972.202
1023.27
1075.21
1127.97
1181.43
1235.49
1290.01
1344.87
1399.94
1455.06
1510.09
1564.87
1619.21
1672.94
1725.85
1777.74
1828.36
1877.46
1924.74
1969.85
2012.38
2051.84
2087.21
2117.41
2143.21
2162.19
2172.54
2119.97
2000.43
1874.44
1744.35
1612.07
1479.26
1347.38
1217.76
1091.69
970.447
855.126
746.784
647.263
558.677
482.95
421.506
374.798
341.905
320.553
307.732
300.537
296.715
294.784
293.839
293.387
293.175
293.078
293.035
293.015
293.006
293.003
293.001
293
293
293
293
293
293
293
293.004
293.017
293.038
293.074
293.135
293.234
293.399
293.666
294.096
294.779
295.846
297.488
299.961
303.607
308.845
316.16
326.062
339.024
355.411
375.425
399.077
426.207
456.53
489.703
525.377
563.236
603.018
644.515
687.57
732.061
777.895
824.988
873.256
922.603
972.913
1024.08
1076.13
1129.01
1182.59
1236.77
1291.42
1346.42
1401.61
1456.87
1512.03
1566.92
1621.37
1675.2
1728.2
1780.15
1830.82
1879.95
1927.22
1972.31
2014.79
2054.15
2089.37
2119.46
2145.14
2163.99
2174.2
2107.77
1987.82
1861.57
1731.34
1599.03
1466.33
1334.66
1205.38
1079.77
959.11
844.447
736.907
638.393
551.007
476.633
416.613
371.277
339.571
319.128
306.923
300.105
296.496
294.677
293.788
293.363
293.165
293.074
293.032
293.014
293.006
293.003
293.001
293
293
293
293
293
293
293
293.004
293.017
293.038
293.074
293.135
293.234
293.398
293.666
294.095
294.778
295.845
297.486
299.959
303.604
308.842
316.157
326.06
339.024
355.416
375.437
399.101
426.246
456.588
489.784
525.486
563.377
603.195
644.734
687.835
732.379
778.271
825.427
873.765
923.188
973.58
1024.83
1076.98
1129.95
1183.64
1237.93
1292.69
1347.79
1403.09
1458.46
1513.71
1568.7
1623.24
1677.14
1730.2
1782.2
1832.9
1882.03
1929.29
1974.34
2016.74
2056.01
2091.11
2121.07
2146.62
2165.31
2175.3
2097.55
1977.15
1850.63
1720.27
1587.96
1455.35
1323.88
1194.89
1069.67
949.501
835.407
728.561
630.914
544.559
471.342
412.532
368.356
337.644
317.957
306.261
299.752
296.317
294.59
293.746
293.344
293.156
293.07
293.031
293.013
293.006
293.002
293.001
293
293
293
293
293
293
293
293.004
293.017
293.038
293.074
293.134
293.234
293.398
293.665
294.095
294.777
295.845
297.485
299.958
303.603
308.841
316.157
326.062
339.03
355.428
375.459
399.135
426.295
456.656
489.874
525.6
563.521
603.372
644.947
688.089
732.678
778.621
825.833
874.23
923.717
974.178
1025.5
1077.73
1130.79
1184.56
1238.93
1293.78
1348.97
1404.36
1459.81
1515.14
1570.2
1624.81
1678.76
1731.86
1783.89
1834.6
1883.72
1930.95
1975.93
2018.27
2057.47
2092.44
2122.28
2147.69
2166.25
2175.99
2089.15
1968.3
1841.51
1711.02
1578.7
1446.17
1314.87
1186.13
1061.24
941.493
827.881
721.623
624.709
539.222
466.975
409.177
365.964
336.074
317.006
305.725
299.468
296.173
294.519
293.713
293.329
293.149
293.066
293.029
293.013
293.005
293.002
293.001
293
293
293
293
293
293
293
293.004
293.017
293.038
293.074
293.134
293.234
293.398
293.665
294.095
294.777
295.845
297.485
299.958
303.604
308.842
316.16
326.068
339.04
355.445
375.484
399.171
426.345
456.723
489.961
525.71
563.655
603.535
645.141
688.318
732.946
778.93
826.187
874.634
924.174
974.69
1026.07
1078.37
1131.49
1185.33
1239.77
1294.69
1349.95
1405.4
1460.91
1516.31
1571.42
1626.07
1680.06
1733.18
1785.22
1835.92
1885.01
1932.21
1977.15
2019.43
2058.56
2093.43
2123.21
2148.62
2167.27
2177.23
2082.36
1961.08
1834.04
1703.44
1571.11
1438.65
1307.49
1178.97
1054.37
934.969
821.756
715.986
619.676
534.902
463.45
406.476
364.046
334.819
316.248
305.299
299.242
296.058
294.464
293.686
293.316
293.143
293.064
293.028
293.012
293.005
293.002
293.001
293
293
293
293
293
293
293
293.004
293.017
293.038
293.074
293.134
293.234
293.398
293.665
294.095
294.777
295.844
297.485
299.959
303.604
308.844
316.164
326.074
339.051
355.461
375.509
399.206
426.392
456.784
490.038
525.806
563.772
603.674
645.306
688.511
733.169
779.186
826.48
874.965
924.546
975.105
1026.53
1078.87
1132.05
1185.94
1240.43
1295.4
1350.71
1406.22
1461.77
1517.21
1572.35
1627.03
1681.04
1734.17
1786.19
1836.87
1885.94
1933.1
1977.99
2020.2
2059.24
2094.01
2123.71
2149.05
2167.67
2177.56
2077.02
1955.35
1828.1
1697.4
1565.07
1432.68
1301.65
1173.31
1048.95
929.83
816.94
711.561
615.733
531.526
460.702
404.377
362.558
333.848
315.663
304.97
299.067
295.97
294.421
293.666
293.307
293.139
293.062
293.027
293.012
293.005
293.002
293.001
293
293
293
293
293
293
293
293.004
293.017
293.038
293.074
293.134
293.234
293.398
293.665
294.095
294.777
295.845
297.486
299.959
303.605
308.846
316.167
326.08
339.06
355.476
375.529
399.234
426.431
456.834
490.101
525.882
563.864
603.784
645.435
688.66
733.341
779.383
826.703
875.216
924.826
975.415
1026.88
1079.25
1132.46
1186.38
1240.91
1295.92
1351.26
1406.8
1462.38
1517.84
1573.01
1627.69
1681.7
1734.83
1786.84
1837.51
1886.54
1933.64
1978.47
2020.61
2059.57
2094.25
2123.88
2149.17
2167.8
2177.74
2073.09
1951.06
1823.61
1692.83
1560.5
1428.17
1297.26
1169.07
1044.89
926.001
813.36
708.279
612.817
529.035
458.681
402.838
361.472
333.139
315.236
304.73
298.939
295.906
294.389
293.651
293.3
293.136
293.061
293.027
293.012
293.005
293.002
293.001
293
293
293
293
293
293
293
293.004
293.017
293.038
293.074
293.134
293.234
293.398
293.665
294.095
294.777
295.845
297.486
299.96
303.606
308.848
316.17
326.084
339.067
355.486
375.544
399.255
426.457
456.869
490.144
525.935
563.928
603.859
645.523
688.762
733.457
779.515
826.852
875.383
925.011
975.618
1027.1
1079.49
1132.72
1186.67
1241.22
1296.24
1351.61
1407.16
1462.76
1518.23
1573.4
1628.09
1682.1
1735.21
1787.21
1837.84
1886.83
1933.89
1978.65
2020.72
2059.62
2094.21
2123.79
2149.07
2167.74
2177.8
2070.49
1948.13
1820.52
1689.68
1557.36
1425.09
1294.27
1166.2
1042.17
923.435
810.972
706.099
610.886
527.393
457.353
401.833
360.765
332.681
314.96
304.575
298.857
295.864
294.369
293.642
293.295
293.134
293.06
293.026
293.011
293.005
293.002
293.001
293
293
293
293
293
293
293
293.004
293.017
293.038
293.074
293.134
293.234
293.398
293.665
294.095
294.777
295.845
297.486
299.96
303.607
308.848
316.171
326.087
339.07
355.491
375.552
399.265
426.471
456.886
490.166
525.962
563.959
603.896
645.566
688.812
733.515
779.58
826.925
875.465
925.102
975.718
1027.21
1079.61
1132.84
1186.8
1241.36
1296.39
1351.77
1407.33
1462.93
1518.41
1573.58
1628.26
1682.26
1735.36
1787.34
1837.94
1886.91
1933.92
1978.64
2020.66
2059.5
2094.04
2123.58
2148.86
2167.59
2177.82
2069.21
1946.59
1818.87
1688.01
1555.71
1423.49
1292.73
1164.74
1040.79
922.152
809.788
705.028
609.946
526.599
456.717
401.354
360.432
332.467
314.832
304.502
298.818
295.845
294.36
293.637
293.293
293.133
293.059
293.026
293.011
293.005
293.002
293.001
293
293
293
293
293
293
293
293.004
293.017
293.038
293.074
293.134
293.234
293.398
293.665
294.095
294.777
295.845
297.486
299.96
303.607
308.848
316.171
326.087
339.071
355.491
375.552
399.266
426.472
456.887
490.166
525.963
563.96
603.897
645.567
688.813
733.516
779.582
826.927
875.466
925.103
975.719
1027.21
1079.61
1132.85
1186.8
1241.36
1296.4
1351.77
1407.33
1462.93
1518.41
1573.58
1628.26
1682.26
1735.36
1787.34
1837.95
1886.91
1933.92
1978.64
2020.66
2059.5
2094.04
2123.58
2148.86
2167.59
2177.82
2069.2
1946.59
1818.87
1688
1555.7
1423.49
1292.73
1164.73
1040.79
922.149
809.785
705.026
609.944
526.598
456.716
401.354
360.431
332.466
314.831
304.502
298.818
295.845
294.36
293.637
293.293
293.133
293.059
293.026
293.011
293.005
293.002
293.001
293
293
293
293
293
293
293
293.004
293.017
293.038
293.074
293.134
293.234
293.398
293.665
294.095
294.777
295.845
297.486
299.96
303.607
308.848
316.17
326.085
339.068
355.487
375.546
399.257
426.46
456.871
490.147
525.938
563.931
603.862
645.526
688.765
733.461
779.519
826.856
875.387
925.015
975.623
1027.1
1079.5
1132.72
1186.67
1241.22
1296.25
1351.61
1407.17
1462.77
1518.24
1573.41
1628.1
1682.1
1735.22
1787.21
1837.84
1886.84
1933.89
1978.66
2020.73
2059.62
2094.21
2123.79
2149.07
2167.74
2177.8
2070.48
1948.12
1820.51
1689.67
1557.35
1425.08
1294.26
1166.19
1042.16
923.428
810.965
706.093
610.881
527.389
457.35
401.83
360.763
332.68
314.959
304.574
298.857
295.864
294.369
293.642
293.295
293.134
293.06
293.026
293.011
293.005
293.002
293.001
293
293
293
293
293
293
293
293.004
293.017
293.038
293.074
293.134
293.234
293.398
293.665
294.095
294.777
295.845
297.486
299.96
303.606
308.847
316.168
326.081
339.062
355.478
375.532
399.238
426.434
456.838
490.106
525.888
563.87
603.79
645.441
688.666
733.347
779.389
826.71
875.223
924.833
975.422
1026.88
1079.26
1132.46
1186.39
1240.92
1295.93
1351.27
1406.81
1462.39
1517.85
1573.02
1627.7
1681.71
1734.84
1786.85
1837.51
1886.55
1933.65
1978.48
2020.62
2059.58
2094.25
2123.88
2149.18
2167.8
2177.74
2073.07
1951.04
1823.59
1692.81
1560.48
1428.16
1297.24
1169.05
1044.88
925.989
813.349
708.269
612.808
529.028
458.675
402.834
361.469
333.138
315.235
304.729
298.939
295.906
294.389
293.651
293.3
293.136
293.061
293.027
293.012
293.005
293.002
293.001
293
293
293
293
293
293
293
293.004
293.017
293.038
293.074
293.134
293.234
293.398
293.665
294.095
294.777
295.845
297.486
299.959
303.605
308.845
316.165
326.076
339.053
355.465
375.513
399.211
426.398
456.79
490.045
525.813
563.78
603.682
645.315
688.52
733.178
779.196
826.49
874.975
924.556
975.115
1026.55
1078.88
1132.06
1185.95
1240.44
1295.41
1350.72
1406.23
1461.78
1517.22
1572.37
1627.04
1681.05
1734.18
1786.2
1836.88
1885.95
1933.11
1978
2020.21
2059.25
2094.02
2123.72
2149.06
2167.68
2177.57
2077
1955.33
1828.07
1697.37
1565.04
1432.65
1301.63
1173.29
1048.93
929.813
816.924
711.547
615.721
531.516
460.694
404.371
362.554
333.845
315.661
304.97
299.067
295.97
294.421
293.666
293.307
293.139
293.062
293.027
293.012
293.005
293.002
293.001
293
293
293
293
293
293
293
293.004
293.017
293.038
293.074
293.134
293.234
293.398
293.665
294.095
294.777
295.845
297.486
299.959
303.605
308.844
316.162
326.07
339.043
355.449
375.489
399.177
426.352
456.731
489.969
525.719
563.665
603.545
645.152
688.329
732.957
778.942
826.2
874.647
924.188
974.704
1026.09
1078.38
1131.5
1185.34
1239.78
1294.7
1349.96
1405.42
1460.93
1516.32
1571.44
1626.09
1680.08
1733.2
1785.23
1835.93
1885.03
1932.22
1977.16
2019.45
2058.57
2093.44
2123.22
2148.62
2167.28
2177.24
2082.33
1961.04
1834.01
1703.4
1571.07
1438.62
1307.47
1178.94
1054.35
934.946
821.735
715.967
619.66
534.889
463.439
406.468
364.04
334.815
316.246
305.298
299.241
296.058
294.463
293.686
293.316
293.143
293.064
293.028
293.012
293.005
293.002
293.001
293
293
293
293
293
293
293
293.004
293.017
293.038
293.074
293.135
293.234
293.398
293.665
294.095
294.778
295.845
297.486
299.959
303.604
308.843
316.16
326.065
339.034
355.433
375.465
399.142
426.303
456.665
489.884
525.611
563.532
603.384
644.96
688.103
732.693
778.636
825.848
874.246
923.734
974.195
1025.52
1077.75
1130.8
1184.58
1238.95
1293.8
1348.99
1404.38
1459.83
1515.16
1570.22
1624.83
1678.78
1731.88
1783.91
1834.61
1883.74
1930.96
1975.94
2018.29
2057.49
2092.45
2122.29
2147.7
2166.25
2175.99
2089.11
1968.25
1841.46
1710.98
1578.66
1446.13
1314.83
1186.1
1061.21
941.464
827.854
721.599
624.688
539.205
466.961
409.166
365.957
336.07
317.003
305.724
299.467
296.172
294.519
293.713
293.328
293.149
293.066
293.029
293.013
293.005
293.002
293.001
293
293
293
293
293
293
293
293.004
293.017
293.038
293.074
293.135
293.234
293.399
293.666
294.096
294.778
295.846
297.487
299.96
303.606
308.844
316.16
326.063
339.028
355.422
375.445
399.11
426.256
456.599
489.797
525.499
563.391
603.21
644.749
687.851
732.396
778.288
825.446
873.784
923.207
973.6
1024.85
1077
1129.98
1183.66
1237.95
1292.71
1347.81
1403.12
1458.48
1513.74
1568.72
1623.26
1677.16
1730.22
1782.22
1832.92
1882.05
1929.31
1974.35
2016.76
2056.03
2091.12
2121.08
2146.63
2165.32
2175.31
2097.5
1977.1
1850.58
1720.21
1587.91
1455.31
1323.84
1194.85
1069.63
949.465
835.374
728.532
630.889
544.538
471.325
412.519
368.347
337.638
317.953
306.259
299.751
296.316
294.589
293.746
293.344
293.156
293.07
293.031
293.013
293.006
293.002
293.001
293
293
293
293
293
293
293
293.004
293.017
293.038
293.074
293.135
293.235
293.399
293.666
294.096
294.779
295.847
297.488
299.962
303.608
308.847
316.163
326.066
339.029
355.418
375.433
399.087
426.218
456.543
489.717
525.392
563.252
603.035
644.533
687.589
732.081
777.916
825.009
873.278
922.625
972.937
1024.1
1076.16
1129.03
1182.62
1236.8
1291.45
1346.44
1401.64
1456.9
1512.05
1566.95
1621.4
1675.23
1728.22
1780.18
1830.85
1879.97
1927.25
1972.33
2014.81
2054.17
2089.39
2119.47
2145.16
2164
2174.21
2107.7
1987.76
1861.51
1731.28
1598.98
1466.27
1334.61
1205.33
1079.73
959.067
844.408
736.872
638.362
550.981
476.612
416.597
371.266
339.563
319.123
306.921
300.104
296.495
294.676
293.788
293.363
293.165
293.074
293.032
293.014
293.006
293.003
293.001
293
293
293
293
293
293
293
293.004
293.017
293.038
293.074
293.135
293.235
293.399
293.666
294.097
294.78
295.848
297.491
299.966
303.614
308.854
316.171
326.075
339.038
355.425
375.436
399.082
426.2
456.506
489.658
525.305
563.132
602.876
644.33
687.334
731.769
777.539
824.561
872.75
922.011
972.229
1023.29
1075.24
1128
1181.46
1235.52
1290.04
1344.9
1399.97
1455.09
1510.13
1564.9
1619.24
1672.97
1725.88
1777.77
1828.39
1877.49
1924.77
1969.88
2012.41
2051.86
2087.23
2117.43
2143.23
2162.2
2172.55
2119.9
2000.36
1874.37
1744.27
1612
1479.19
1347.32
1217.7
1091.63
970.397
855.08
746.742
647.226
558.645
482.924
421.487
374.784
341.896
320.548
307.729
300.535
296.714
294.783
293.838
293.387
293.175
293.078
293.035
293.015
293.006
293.003
293.001
293
293
293
293
293
293
293
293.004
293.017
293.038
293.074
293.135
293.235
293.399
293.667
294.098
294.782
295.851
297.495
299.972
303.622
308.865
316.186
326.094
339.059
355.447
375.457
399.099
426.21
456.503
489.635
525.255
563.049
602.754
644.161
687.112
731.485
777.185
824.128
872.23
921.394
971.507
1022.46
1074.28
1126.9
1180.23
1234.14
1288.51
1343.22
1398.13
1453.1
1507.98
1562.61
1616.82
1670.42
1723.22
1775.01
1825.57
1874.62
1921.88
1967
2009.57
2049.09
2084.59
2114.93
2140.84
2159.89
2170.3
2133.86
2014.76
1889.08
1759.17
1626.95
1494.08
1362
1232.05
1105.49
983.608
867.526
758.28
657.612
567.653
490.374
427.288
378.985
344.697
322.268
308.709
301.059
296.981
294.913
293.9
293.415
293.188
293.084
293.037
293.016
293.007
293.003
293.001
293.001
293
293
293
293
293
293
293.004
293.017
293.038
293.075
293.135
293.235
293.4
293.668
294.099
294.784
295.854
297.5
299.98
303.634
308.883
316.21
326.125
339.098
355.493
375.506
399.148
426.255
456.54
489.66
525.261
563.027
602.694
644.055
686.951
731.261
776.888
823.747
871.754
920.813
970.811
1021.63
1073.32
1125.79
1178.96
1232.7
1286.9
1341.43
1396.16
1450.95
1505.66
1560.11
1614.15
1667.6
1720.27
1771.94
1822.4
1871.39
1918.62
1963.74
2006.34
2045.93
2081.53
2111.97
2137.95
2156.94
2166.97
2149.37
2030.69
1905.41
1775.8
1643.76
1510.91
1378.69
1248.42
1121.37
998.792
881.876
771.6
669.641
578.129
499.085
434.115
383.96
348.038
324.332
309.89
301.693
297.304
295.071
293.975
293.45
293.204
293.091
293.04
293.017
293.008
293.003
293.001
293.001
293
293
293
293
293
293
293.004
293.017
293.038
293.075
293.135
293.235
293.4
293.669
294.1
294.786
295.859
297.507
299.991
303.651
308.907
316.245
326.172
339.158
355.566
375.593
399.244
426.354
456.637
489.747
525.334
563.08
602.721
644.044
686.889
731.135
776.687
823.46
871.368
920.315
970.189
1020.88
1072.41
1124.72
1177.71
1231.26
1285.27
1339.6
1394.12
1448.7
1503.2
1557.45
1611.29
1664.56
1717.06
1768.59
1818.94
1867.86
1915.06
1960.21
2002.92
2042.69
2078.68
2109.49
2135.89
2155.36
2165.79
2163.7
2046.54
1922.42
1793.64
1662.14
1529.57
1397.36
1266.86
1139.34
1016.07
898.26
786.881
683.5
590.252
509.211
442.095
389.817
352.002
326.797
311.308
302.456
297.693
295.261
294.065
293.492
293.223
293.1
293.044
293.019
293.008
293.003
293.001
293.001
293
293
293
293
293
293
293.004
293.017
293.038
293.075
293.135
293.236
293.401
293.67
294.102
294.789
295.864
297.515
300.004
303.671
308.938
316.29
326.235
339.242
355.674
375.724
399.396
426.524
456.818
489.93
525.51
563.24
602.856
644.148
686.955
731.151
776.634
823.321
871.127
919.959
969.702
1020.24
1071.61
1123.74
1176.54
1229.89
1283.68
1337.78
1392.07
1446.41
1500.67
1554.68
1608.3
1661.35
1713.65
1765.02
1815.24
1864.06
1911.23
1956.44
1999.29
2039.35
2076.08
2107.72
2135.43
2157.08
2171.16
2175.31
2061.19
1939.4
1812.29
1681.91
1549.98
1418.03
1287.45
1159.53
1035.55
916.788
804.217
699.296
604.136
520.877
451.356
396.672
356.678
329.726
313.001
303.37
298.159
295.488
294.172
293.541
293.246
293.11
293.048
293.021
293.009
293.004
293.002
293.001
293
293
293
293
293
293
293.004
293.017
293.038
293.075
293.135
293.236
293.401
293.67
294.104
294.792
295.869
297.524
300.02
303.696
308.976
316.347
326.316
339.355
355.821
375.908
399.617
426.778
457.101
490.233
525.824
563.554
603.156
644.421
687.188
731.335
776.762
823.379
871.096
919.814
969.421
1019.81
1071
1122.95
1175.54
1228.67
1282.21
1336.07
1390.1
1444.17
1498.16
1551.9
1605.25
1658.05
1710.13
1761.28
1811.33
1860.03
1907.14
1952.37
1995.36
2035.71
2072.87
2105.48
2133.47
2156.72
2172.96
2180.12
2073.35
1956.07
1831.8
1703.18
1572.29
1440.83
1310.3
1182.04
1057.36
937.582
823.73
717.15
619.916
534.228
462.038
404.648
362.17
333.195
315.019
304.463
298.718
295.76
294.301
293.601
293.272
293.121
293.053
293.023
293.01
293.004
293.002
293.001
293
293
293
293
293
293
293.004
293.017
293.038
293.075
293.135
293.236
293.401
293.671
294.105
294.794
295.873
297.533
300.034
303.721
309.018
316.412
326.414
339.493
356.009
376.151
399.917
427.135
457.508
490.684
526.308
564.059
603.67
644.929
687.673
731.777
777.144
823.686
871.316
919.936
969.424
1019.66
1070.68
1122.42
1174.79
1227.68
1280.97
1334.55
1388.3
1442.08
1495.76
1549.21
1602.26
1654.77
1706.57
1757.47
1807.29
1855.81
1902.79
1947.94
1990.93
2031.35
2068.67
2101.6
2129.81
2153.36
2169.8
2176.89
2093.46
1977.78
1854.91
1727.37
1597.21
1466.12
1335.59
1206.98
1081.58
960.729
845.526
737.193
637.733
549.399
474.271
413.86
368.568
337.264
317.395
305.75
299.374
296.078
294.451
293.669
293.303
293.135
293.059
293.026
293.011
293.005
293.002
293.001
293
293
293
293
293
293
293.004
293.017
293.038
293.075
293.135
293.236
293.401
293.671
294.105
294.795
295.876
297.54
300.049
303.748
309.065
316.489
326.532
339.666
356.247
376.465
400.313
427.613
458.066
491.313
526.998
564.798
604.443
645.72
688.465
732.551
777.877
824.353
871.892
920.397
969.755
1019.85
1070.71
1122.25
1174.4
1227.03
1280.05
1333.35
1386.79
1440.25
1493.61
1546.72
1599.45
1651.63
1703.12
1753.73
1803.28
1851.55
1898.32
1943.31
1986.19
2026.56
2063.92
2097.11
2125.46
2149.15
2165.94
2173.91
2117.83
2002.76
1880.65
1753.84
1624.23
1493.46
1362.95
1234.02
1107.95
986.027
869.455
759.335
657.551
566.41
488.113
424.395
375.968
342.022
320.197
307.276
300.153
296.456
294.627
293.75
293.339
293.151
293.066
293.029
293.012
293.005
293.002
293.001
293
293
293
293
293
293
293.004
293.017
293.038
293.074
293.135
293.235
293.4
293.669
294.103
294.792
295.873
297.538
300.051
303.761
309.096
316.551
326.643
339.844
356.513
376.835
400.8
428.222
458.794
492.153
527.938
565.822
605.533
646.857
689.628
733.718
779.024
825.455
872.921
921.321
970.541
1020.47
1071.14
1122.49
1174.42
1226.81
1279.55
1332.54
1385.67
1438.8
1491.82
1544.59
1596.97
1648.81
1699.96
1750.25
1799.5
1847.5
1894.03
1938.81
1981.52
2021.77
2059.06
2092.32
2120.78
2144.59
2161.42
2169.24
2142.27
2027.92
1906.71
1780.78
1651.91
1521.64
1391.35
1262.3
1135.72
1012.89
895.039
783.21
679.126
585.106
503.472
436.189
384.312
347.404
323.36
308.985
301.014
296.868
294.818
293.836
293.377
293.167
293.073
293.032
293.013
293.006
293.002
293.001
293
293
293
293
293
293
293.004
293.017
293.038
293.074
293.134
293.234
293.398
293.666
294.098
294.786
295.865
297.53
300.046
303.766
309.126
316.626
326.783
340.074
356.859
377.319
401.437
429.018
459.749
493.258
529.178
567.179
606.986
648.382
691.2
735.311
780.611
827.007
874.407
922.712
971.805
1021.58
1072.06
1123.19
1174.87
1227.01
1279.49
1332.19
1385
1437.82
1490.5
1542.93
1594.97
1646.48
1697.3
1747.27
1796.22
1843.95
1890.24
1934.82
1977.38
2017.54
2054.81
2088.24
2116.93
2141.09
2158.31
2166.45
2162
2049.61
1930.13
1805.67
1678
1548.64
1418.94
1290.13
1163.41
1040
921.164
807.906
701.77
605.034
520.12
449.208
393.701
353.573
327.04
310.992
302.028
297.351
295.04
293.935
293.42
293.186
293.081
293.035
293.015
293.006
293.003
293.001
293
293
293
293
293
293
293.004
293.016
293.038
293.073
293.132
293.231
293.393
293.658
294.085
294.768
295.84
297.498
300.009
303.729
309.096
316.619
326.829
340.209
357.126
377.758
402.079
429.883
460.839
494.563
530.676
568.84
608.777
650.268
693.147
737.283
782.575
828.93
876.257
924.458
973.418
1023.03