/*--------------------------------*- C++ -*----------------------------------*\
  =========                 |
  \\      /  F ield         | OpenFOAM: The Open Source CFD Toolbox
   \\    /   O peration     | Website:  https://openfoam.org
    \\  /    A nd           | Version:  8
     \\/     M anipulation  |
\*---------------------------------------------------------------------------*/
FoamFile
{
    version     2.0;
    format      ascii;
    class       volVectorField;
    location    "460/fluid";
    object      U;
}
// * * * * * * * * * * * * * * * * * * * * * * * * * * * * * * * * * * * * * //

dimensions      [0 1 -1 0 0 0 0];

internalField   nonuniform List<vector> 
4000
(
(0.0999483 -0.00695697 0)
(0.0996668 -0.0206964 0)
(0.0992124 -0.0343202 0)
(0.0985849 -0.0478681 0)
(0.0977768 -0.0613577 0)
(0.0967714 -0.0747913 0)
(0.0955494 -0.0881598 0)
(0.0940925 -0.101445 0)
(0.092386 -0.114624 0)
(0.0904217 -0.127668 0)
(0.088201 -0.140552 0)
(0.0857384 -0.153256 0)
(0.0830651 -0.165773 0)
(0.0802338 -0.178093 0)
(0.0773191 -0.190237 0)
(0.0743968 -0.202276 0)
(0.0715222 -0.214267 0)
(0.0687199 -0.226249 0)
(0.0659748 -0.238232 0)
(0.0632316 -0.250192 0)
(0.0604051 -0.262064 0)
(0.0573971 -0.273761 0)
(0.0541162 -0.285179 0)
(0.050496 -0.2962 0)
(0.046505 -0.306713 0)
(0.0421311 -0.316662 0)
(0.0373755 -0.32599 0)
(0.0322505 -0.334648 0)
(0.0267772 -0.342598 0)
(0.0209825 -0.349811 0)
(0.0148963 -0.356275 0)
(0.00854932 -0.361985 0)
(0.00197278 -0.366948 0)
(-0.00480073 -0.371178 0)
(-0.0117394 -0.374696 0)
(-0.0188155 -0.377529 0)
(-0.0260045 -0.379707 0)
(-0.0332837 -0.381265 0)
(-0.0406312 -0.382239 0)
(-0.0480263 -0.382669 0)
(-0.0554496 -0.382592 0)
(-0.0628823 -0.38205 0)
(-0.0703064 -0.381082 0)
(-0.0777038 -0.379725 0)
(-0.0850573 -0.37802 0)
(-0.0923495 -0.376002 0)
(-0.0995628 -0.37371 0)
(-0.106679 -0.371179 0)
(-0.113681 -0.368448 0)
(-0.120549 -0.365552 0)
(-0.127262 -0.362531 0)
(-0.1338 -0.359423 0)
(-0.14014 -0.356273 0)
(-0.146257 -0.353125 0)
(-0.152126 -0.350031 0)
(-0.157715 -0.347051 0)
(-0.162989 -0.344254 0)
(-0.167895 -0.341717 0)
(-0.172393 -0.339525 0)
(-0.176513 -0.337806 0)
(-0.180363 -0.336799 0)
(-0.183582 -0.336885 0)
(-0.184159 -0.338099 0)
(-0.180505 -0.339012 0)
(-0.174261 -0.338199 0)
(-0.167413 -0.335681 0)
(-0.160259 -0.331754 0)
(-0.152744 -0.326581 0)
(-0.14489 -0.320234 0)
(-0.13677 -0.312765 0)
(-0.128467 -0.304219 0)
(-0.120066 -0.294649 0)
(-0.111659 -0.284112 0)
(-0.103338 -0.272676 0)
(-0.0952422 -0.260414 0)
(-0.0875995 -0.247444 0)
(-0.0807337 -0.233966 0)
(-0.0750224 -0.220265 0)
(-0.070855 -0.206842 0)
(-0.0685592 -0.194259 0)
(-0.0682283 -0.182807 0)
(-0.0696133 -0.172424 0)
(-0.072214 -0.162797 0)
(-0.0754767 -0.153563 0)
(-0.078945 -0.144451 0)
(-0.0823128 -0.135295 0)
(-0.085394 -0.125993 0)
(-0.0881063 -0.116565 0)
(-0.0904422 -0.107068 0)
(-0.0924253 -0.097539 0)
(-0.09409 -0.088009 0)
(-0.0954727 -0.078507 0)
(-0.096609 -0.069055 0)
(-0.0975316 -0.0596676 0)
(-0.0982704 -0.0503514 0)
(-0.0988517 -0.0411053 0)
(-0.099298 -0.0319218 0)
(-0.0996271 -0.0227889 0)
(-0.0998515 -0.0136873 0)
(-0.0999816 -0.00458012 0)
(0.0999997 -0.0065403 0)
(0.0998029 -0.0195549 0)
(0.0993963 -0.0324822 0)
(0.0987574 -0.0453081 0)
(0.0978876 -0.0580156 0)
(0.0967829 -0.0705834 0)
(0.0954344 -0.0829859 0)
(0.0938345 -0.095194 0)
(0.0919809 -0.107178 0)
(0.0898801 -0.118909 0)
(0.0875505 -0.130369 0)
(0.0850246 -0.141551 0)
(0.0823503 -0.15248 0)
(0.0795909 -0.163223 0)
(0.0768182 -0.173858 0)
(0.0740992 -0.184434 0)
(0.0714826 -0.195017 0)
(0.0689862 -0.205669 0)
(0.0665867 -0.216428 0)
(0.0642195 -0.227291 0)
(0.061788 -0.238211 0)
(0.0591814 -0.249111 0)
(0.0562945 -0.259894 0)
(0.053043 -0.270469 0)
(0.0493728 -0.280747 0)
(0.0452611 -0.290596 0)
(0.0407056 -0.299916 0)
(0.0357206 -0.308634 0)
(0.0303325 -0.316697 0)
(0.0245745 -0.324073 0)
(0.0184832 -0.330742 0)
(0.0120957 -0.336698 0)
(0.00544835 -0.341946 0)
(-0.00142355 -0.346498 0)
(-0.00848607 -0.350373 0)
(-0.0157081 -0.353597 0)
(-0.0230615 -0.356201 0)
(-0.0305212 -0.358218 0)
(-0.0380637 -0.359682 0)
(-0.0456676 -0.36063 0)
(-0.0533125 -0.361098 0)
(-0.0609788 -0.361124 0)
(-0.0686479 -0.360744 0)
(-0.0763022 -0.359995 0)
(-0.0839246 -0.358913 0)
(-0.0914983 -0.357534 0)
(-0.0990067 -0.355894 0)
(-0.106433 -0.354026 0)
(-0.11376 -0.351966 0)
(-0.120971 -0.349749 0)
(-0.128048 -0.347411 0)
(-0.134972 -0.344987 0)
(-0.141723 -0.342516 0)
(-0.148282 -0.340039 0)
(-0.154627 -0.337596 0)
(-0.160734 -0.335233 0)
(-0.16657 -0.332995 0)
(-0.172084 -0.330928 0)
(-0.177247 -0.329071 0)
(-0.182114 -0.327466 0)
(-0.186828 -0.326137 0)
(-0.190983 -0.325066 0)
(-0.192124 -0.324034 0)
(-0.188325 -0.32238 0)
(-0.181505 -0.319774 0)
(-0.174156 -0.316069 0)
(-0.16662 -0.311235 0)
(-0.15877 -0.305265 0)
(-0.150583 -0.298157 0)
(-0.142107 -0.289914 0)
(-0.133405 -0.280552 0)
(-0.124545 -0.2701 0)
(-0.11559 -0.258613 0)
(-0.106611 -0.246179 0)
(-0.0977416 -0.232957 0)
(-0.0892456 -0.219224 0)
(-0.0815118 -0.205423 0)
(-0.0750113 -0.192182 0)
(-0.0702257 -0.18002 0)
(-0.0674936 -0.169211 0)
(-0.0668436 -0.159788 0)
(-0.0679522 -0.15148 0)
(-0.0702893 -0.143859 0)
(-0.0733169 -0.136526 0)
(-0.0766115 -0.129218 0)
(-0.0798937 -0.121807 0)
(-0.0830076 -0.114272 0)
(-0.0858642 -0.106547 0)
(-0.088422 -0.0985885 0)
(-0.0906737 -0.0904244 0)
(-0.0926268 -0.0820956 0)
(-0.0942976 -0.0736423 0)
(-0.095707 -0.0650995 0)
(-0.0968777 -0.0564957 0)
(-0.0978325 -0.0478524 0)
(-0.0985929 -0.0391844 0)
(-0.0991773 -0.0305008 0)
(-0.0995978 -0.021807 0)
(-0.0998629 -0.0131042 0)
(-0.099995 -0.00438066 0)
(0.0999797 -0.0062733 0)
(0.0997269 -0.0187446 0)
(0.0992315 -0.0311263 0)
(0.0984756 -0.0434017 0)
(0.0974631 -0.05555 0)
(0.0961947 -0.0675489 0)
(0.0946698 -0.0793754 0)
(0.092891 -0.0910064 0)
(0.0908676 -0.10242 0)
(0.0886184 -0.113599 0)
(0.0861736 -0.124533 0)
(0.0835769 -0.135222 0)
(0.0808849 -0.14568 0)
(0.0781622 -0.155938 0)
(0.0754741 -0.166043 0)
(0.0728813 -0.176064 0)
(0.0704302 -0.186074 0)
(0.0681373 -0.196139 0)
(0.0659786 -0.206301 0)
(0.0638881 -0.216563 0)
(0.0617669 -0.226891 0)
(0.0595009 -0.237215 0)
(0.0569789 -0.24744 0)
(0.054106 -0.257467 0)
(0.0508106 -0.267195 0)
(0.0470502 -0.276536 0)
(0.0428121 -0.285412 0)
(0.0381056 -0.29376 0)
(0.0329542 -0.30153 0)
(0.0273906 -0.308686 0)
(0.0214513 -0.315206 0)
(0.0151746 -0.321076 0)
(0.00859797 -0.326298 0)
(0.00175817 -0.330876 0)
(-0.00530934 -0.334827 0)
(-0.0125718 -0.338171 0)
(-0.02 -0.340934 0)
(-0.0275675 -0.343144 0)
(-0.0352503 -0.344833 0)
(-0.0430257 -0.346033 0)
(-0.0508722 -0.346777 0)
(-0.0587699 -0.3471 0)
(-0.0667006 -0.347036 0)
(-0.0746471 -0.346618 0)
(-0.0825928 -0.34588 0)
(-0.0905216 -0.344854 0)
(-0.0984182 -0.343574 0)
(-0.106267 -0.34207 0)
(-0.114054 -0.340375 0)
(-0.121764 -0.338518 0)
(-0.129382 -0.336532 0)
(-0.136895 -0.334447 0)
(-0.144286 -0.332293 0)
(-0.151543 -0.330103 0)
(-0.158649 -0.327906 0)
(-0.165586 -0.325731 0)
(-0.172321 -0.323605 0)
(-0.178807 -0.321548 0)
(-0.185015 -0.319574 0)
(-0.19099 -0.317694 0)
(-0.1968 -0.315906 0)
(-0.20179 -0.314152 0)
(-0.203076 -0.312084 0)
(-0.198777 -0.309073 0)
(-0.191242 -0.305245 0)
(-0.183137 -0.300532 0)
(-0.174841 -0.294863 0)
(-0.166228 -0.288196 0)
(-0.157263 -0.280514 0)
(-0.147987 -0.271826 0)
(-0.138452 -0.262163 0)
(-0.128719 -0.251588 0)
(-0.118845 -0.240201 0)
(-0.108912 -0.228145 0)
(-0.0990978 -0.215633 0)
(-0.0897308 -0.20296 0)
(-0.0812738 -0.190504 0)
(-0.0742663 -0.178686 0)
(-0.0692071 -0.167892 0)
(-0.0663694 -0.15835 0)
(-0.0656713 -0.150019 0)
(-0.0667113 -0.142608 0)
(-0.0689404 -0.13572 0)
(-0.0718391 -0.12901 0)
(-0.0750111 -0.12225 0)
(-0.0781995 -0.115321 0)
(-0.0812629 -0.108184 0)
(-0.0841308 -0.100846 0)
(-0.0867641 -0.0933266 0)
(-0.0891427 -0.0856477 0)
(-0.0912608 -0.0778307 0)
(-0.0931212 -0.0698971 0)
(-0.0947322 -0.0618677 0)
(-0.0961048 -0.0537608 0)
(-0.0972518 -0.0455923 0)
(-0.0981863 -0.0373746 0)
(-0.0989195 -0.029118 0)
(-0.0994584 -0.0208316 0)
(-0.0998072 -0.0125228 0)
(-0.0999868 -0.00418744 0)
(0.0999841 -0.0059337 0)
(0.0997256 -0.0177297 0)
(0.0992109 -0.0294319 0)
(0.0984213 -0.0410174 0)
(0.0973652 -0.0524608 0)
(0.0960491 -0.0637362 0)
(0.0944779 -0.0748189 0)
(0.0926598 -0.085685 0)
(0.0906087 -0.0963137 0)
(0.0883464 -0.106689 0)
(0.0859045 -0.116804 0)
(0.0833256 -0.126662 0)
(0.0806641 -0.136284 0)
(0.0779846 -0.145711 0)
(0.0753561 -0.154999 0)
(0.0728435 -0.164222 0)
(0.0704938 -0.173457 0)
(0.0683222 -0.182772 0)
(0.0663022 -0.192214 0)
(0.0643649 -0.20179 0)
(0.0624082 -0.211472 0)
(0.0603138 -0.221196 0)
(0.0579666 -0.230875 0)
(0.0552693 -0.240413 0)
(0.0521514 -0.249714 0)
(0.0485705 -0.258688 0)
(0.0445097 -0.267255 0)
(0.0399725 -0.275352 0)
(0.034977 -0.282927 0)
(0.0295505 -0.289944 0)
(0.0237257 -0.29638 0)
(0.0175375 -0.302219 0)
(0.011021 -0.30746 0)
(0.00421074 -0.312106 0)
(-0.00285929 -0.316169 0)
(-0.0101573 -0.319668 0)
(-0.0176545 -0.322623 0)
(-0.0253246 -0.32506 0)
(-0.0331433 -0.327006 0)
(-0.0410882 -0.328491 0)
(-0.0491386 -0.329544 0)
(-0.0572757 -0.330196 0)
(-0.065482 -0.330478 0)
(-0.0737407 -0.330419 0)
(-0.0820359 -0.33005 0)
(-0.0903525 -0.329399 0)
(-0.0986761 -0.328495 0)
(-0.106993 -0.327366 0)
(-0.115289 -0.326037 0)
(-0.123551 -0.324535 0)
(-0.131767 -0.322884 0)
(-0.139923 -0.321108 0)
(-0.148006 -0.319228 0)
(-0.156001 -0.317267 0)
(-0.163894 -0.31524 0)
(-0.171664 -0.313166 0)
(-0.179271 -0.311052 0)
(-0.186658 -0.308903 0)
(-0.193806 -0.306717 0)
(-0.200782 -0.304497 0)
(-0.207567 -0.302258 0)
(-0.212895 -0.299939 0)
(-0.213565 -0.296905 0)
(-0.20831 -0.292768 0)
(-0.200104 -0.28788 0)
(-0.191319 -0.282251 0)
(-0.182254 -0.275808 0)
(-0.172806 -0.268502 0)
(-0.162967 -0.260321 0)
(-0.152791 -0.25128 0)
(-0.142348 -0.24142 0)
(-0.131715 -0.230816 0)
(-0.120973 -0.219579 0)
(-0.110245 -0.207865 0)
(-0.0997685 -0.195891 0)
(-0.0899353 -0.183952 0)
(-0.081239 -0.172408 0)
(-0.0741986 -0.161648 0)
(-0.0692366 -0.151995 0)
(-0.0665265 -0.143598 0)
(-0.0659063 -0.136345 0)
(-0.066941 -0.129923 0)
(-0.0690933 -0.123952 0)
(-0.0718774 -0.118119 0)
(-0.0749295 -0.11222 0)
(-0.0780119 -0.106148 0)
(-0.0809869 -0.0998581 0)
(-0.0837827 -0.0933418 0)
(-0.0863649 -0.086608 0)
(-0.0887185 -0.0796759 0)
(-0.0908386 -0.0725682 0)
(-0.0927256 -0.0653081 0)
(-0.0943827 -0.0579174 0)
(-0.095815 -0.050416 0)
(-0.0970284 -0.0428217 0)
(-0.0980294 -0.0351499 0)
(-0.098823 -0.0274143 0)
(-0.0994105 -0.0196287 0)
(-0.0997916 -0.0118061 0)
(-0.0999871 -0.00394884 0)
(0.0999812 -0.0055914 0)
(0.0997072 -0.0167053 0)
(0.0991661 -0.0277284 0)
(0.0983403 -0.0386373 0)
(0.0972406 -0.0494063 0)
(0.0958759 -0.0600103 0)
(0.0942544 -0.0704259 0)
(0.0923873 -0.0806316 0)
(0.0902919 -0.090609 0)
(0.0879936 -0.100345 0)
(0.085527 -0.109834 0)
(0.082938 -0.119082 0)
(0.0802836 -0.128108 0)
(0.0776303 -0.136948 0)
(0.0750482 -0.145656 0)
(0.0726018 -0.154297 0)
(0.070337 -0.162943 0)
(0.0682677 -0.17166 0)
(0.0663664 -0.180492 0)
(0.0645627 -0.18945 0)
(0.0627527 -0.198512 0)
(0.0608158 -0.207623 0)
(0.0586332 -0.216707 0)
(0.0561037 -0.225677 0)
(0.0531525 -0.234446 0)
(0.0497331 -0.24293 0)
(0.0458249 -0.251056 0)
(0.0414279 -0.258766 0)
(0.0365569 -0.266009 0)
(0.0312366 -0.272751 0)
(0.0254971 -0.278966 0)
(0.019371 -0.284641 0)
(0.0128913 -0.28977 0)
(0.00609091 -0.294354 0)
(-0.00099783 -0.298403 0)
(-0.008344 -0.301931 0)
(-0.0159194 -0.304955 0)
(-0.0236986 -0.307498 0)
(-0.0316586 -0.309583 0)
(-0.0397784 -0.311236 0)
(-0.0480386 -0.312484 0)
(-0.0564209 -0.313352 0)
(-0.0649083 -0.313867 0)
(-0.0734846 -0.314057 0)
(-0.0821347 -0.313946 0)
(-0.0908443 -0.313559 0)
(-0.0995993 -0.312921 0)
(-0.108386 -0.312054 0)
(-0.117192 -0.310979 0)
(-0.126003 -0.309717 0)
(-0.134807 -0.308287 0)
(-0.143589 -0.306705 0)
(-0.152334 -0.304987 0)
(-0.161025 -0.303145 0)
(-0.169644 -0.301189 0)
(-0.178163 -0.299126 0)
(-0.186529 -0.296956 0)
(-0.194676 -0.294672 0)
(-0.2026 -0.292266 0)
(-0.210398 -0.289742 0)
(-0.217904 -0.28711 0)
(-0.223018 -0.284298 0)
(-0.222472 -0.280501 0)
(-0.216136 -0.275604 0)
(-0.207423 -0.270047 0)
(-0.198112 -0.263859 0)
(-0.188377 -0.256973 0)
(-0.178167 -0.249353 0)
(-0.167522 -0.240998 0)
(-0.156527 -0.231938 0)
(-0.145273 -0.222227 0)
(-0.13386 -0.211953 0)
(-0.122392 -0.201234 0)
(-0.111027 -0.190229 0)
(-0.100055 -0.179152 0)
(-0.0899 -0.168278 0)
(-0.0810643 -0.15792 0)
(-0.0740418 -0.148393 0)
(-0.0691943 -0.139925 0)
(-0.0666149 -0.13257 0)
(-0.0660735 -0.126171 0)
(-0.0671076 -0.120422 0)
(-0.0691915 -0.115 0)
(-0.0718698 -0.10965 0)
(-0.0748093 -0.104213 0)
(-0.0777945 -0.0986054 0)
(-0.0806985 -0.0927954 0)
(-0.0834516 -0.0867774 0)
(-0.0860164 -0.0805601 0)
(-0.0883735 -0.0741584 0)
(-0.0905138 -0.0675896 0)
(-0.0924335 -0.0608719 0)
(-0.094132 -0.0540228 0)
(-0.0956106 -0.0470592 0)
(-0.0968718 -0.0399968 0)
(-0.0979187 -0.0328499 0)
(-0.0987532 -0.0256325 0)
(-0.0993737 -0.0183593 0)
(-0.0997778 -0.0110449 0)
(-0.0999858 -0.00369464 0)
(0.0999817 -0.00523342 0)
(0.099704 -0.015636 0)
(0.0991546 -0.0259516 0)
(0.0983161 -0.0361562 0)
(0.0972008 -0.0462239 0)
(0.0958198 -0.0561298 0)
(0.0941831 -0.065851 0)
(0.0923038 -0.0753669 0)
(0.0902011 -0.0846604 0)
(0.0879015 -0.0937196 0)
(0.0854408 -0.10254 0)
(0.0828653 -0.111129 0)
(0.0802322 -0.119506 0)
(0.0776077 -0.127708 0)
(0.0750616 -0.135786 0)
(0.0726581 -0.143805 0)
(0.0704431 -0.151838 0)
(0.0684309 -0.159946 0)
(0.0665944 -0.168174 0)
(0.0648639 -0.176535 0)
(0.0631357 -0.185009 0)
(0.0612887 -0.193546 0)
(0.0592031 -0.202075 0)
(0.0567755 -0.210516 0)
(0.0539286 -0.218786 0)
(0.0506128 -0.226808 0)
(0.0468041 -0.234514 0)
(0.0424992 -0.241846 0)
(0.0377097 -0.248758 0)
(0.0324571 -0.255217 0)
(0.0267688 -0.261198 0)
(0.0206749 -0.266685 0)
(0.0142067 -0.271672 0)
(0.00739538 -0.27616 0)
(0.000271679 -0.280155 0)
(-0.00713496 -0.283667 0)
(-0.0147979 -0.286714 0)
(-0.0226934 -0.289313 0)
(-0.0307998 -0.291486 0)
(-0.0390969 -0.293253 0)
(-0.0475657 -0.294639 0)
(-0.0561887 -0.295666 0)
(-0.0649494 -0.296357 0)
(-0.0738322 -0.296734 0)
(-0.0828224 -0.29682 0)
(-0.0919055 -0.296635 0)
(-0.101068 -0.296198 0)
(-0.110295 -0.295528 0)
(-0.119573 -0.294643 0)
(-0.128888 -0.293557 0)
(-0.138225 -0.292284 0)
(-0.147565 -0.290837 0)
(-0.156892 -0.289224 0)
(-0.166182 -0.287453 0)
(-0.175411 -0.285527 0)
(-0.18454 -0.283446 0)
(-0.193503 -0.281205 0)
(-0.202224 -0.27879 0)
(-0.210717 -0.27619 0)
(-0.219098 -0.273404 0)
(-0.226998 -0.270427 0)
(-0.231519 -0.267199 0)
(-0.229597 -0.262857 0)
(-0.222314 -0.257559 0)
(-0.213194 -0.251667 0)
(-0.203427 -0.245207 0)
(-0.193093 -0.23813 0)
(-0.182206 -0.230419 0)
(-0.170855 -0.222093 0)
(-0.159155 -0.21319 0)
(-0.147222 -0.203775 0)
(-0.135173 -0.193937 0)
(-0.123137 -0.183792 0)
(-0.11131 -0.173492 0)
(-0.100021 -0.163236 0)
(-0.0897191 -0.153271 0)
(-0.0809052 -0.143874 0)
(-0.0740408 -0.135308 0)
(-0.069424 -0.12775 0)
(-0.0670687 -0.121215 0)
(-0.0666825 -0.11553 0)
(-0.0677792 -0.110406 0)
(-0.0698436 -0.105551 0)
(-0.0724469 -0.10074 0)
(-0.0752833 -0.0958352 0)
(-0.0781579 -0.0907629 0)
(-0.0809574 -0.0854939 0)
(-0.0836194 -0.0800228 0)
(-0.08611 -0.0743564 0)
(-0.0884108 -0.0685076 0)
(-0.0905116 -0.0624918 0)
(-0.0924067 -0.0563253 0)
(-0.0940932 -0.0500246 0)
(-0.0955695 -0.0436054 0)
(-0.0968351 -0.037083 0)
(-0.0978903 -0.0304719 0)
(-0.0987346 -0.0237863 0)
(-0.0993641 -0.0170418 0)
(-0.0997745 -0.0102541 0)
(-0.0999858 -0.0034304 0)
(0.0999812 -0.00487292 0)
(0.0997001 -0.0145588 0)
(0.0991444 -0.0241632 0)
(0.0982974 -0.033663 0)
(0.097172 -0.0430335 0)
(0.0957803 -0.052251 0)
(0.0941332 -0.061294 0)
(0.0922451 -0.0701435 0)
(0.0901363 -0.0787837 0)
(0.0878343 -0.0872043 0)
(0.0853761 -0.0954019 0)
(0.0828087 -0.103383 0)
(0.08019 -0.111167 0)
(0.0775865 -0.118788 0)
(0.0750682 -0.126295 0)
(0.0726994 -0.133747 0)
(0.0705258 -0.141212 0)
(0.0685616 -0.148749 0)
(0.0667795 -0.156398 0)
(0.0651095 -0.164176 0)
(0.0634474 -0.172064 0)
(0.0616713 -0.180018 0)
(0.05966 -0.187977 0)
(0.0573085 -0.195864 0)
(0.0545371 -0.203606 0)
(0.051294 -0.211131 0)
(0.0475527 -0.218376 0)
(0.0433073 -0.225287 0)
(0.0385671 -0.231821 0)
(0.0333514 -0.237946 0)
(0.0276858 -0.243637 0)
(0.0215988 -0.248879 0)
(0.0151198 -0.253665 0)
(0.00827833 -0.257994 0)
(0.00110339 -0.26187 0)
(-0.00637728 -0.265303 0)
(-0.0141384 -0.268307 0)
(-0.0221571 -0.270895 0)
(-0.0304124 -0.273088 0)
(-0.0388849 -0.274902 0)
(-0.0475563 -0.276358 0)
(-0.0564094 -0.277475 0)
(-0.0654282 -0.278272 0)
(-0.0745973 -0.278769 0)
(-0.0839018 -0.278984 0)
(-0.093327 -0.278933 0)
(-0.102858 -0.278632 0)
(-0.11248 -0.278097 0)
(-0.122178 -0.27734 0)
(-0.131934 -0.276374 0)
(-0.141731 -0.275207 0)
(-0.151548 -0.273848 0)
(-0.161362 -0.272303 0)
(-0.171144 -0.270574 0)
(-0.180861 -0.268662 0)
(-0.190464 -0.266564 0)
(-0.199871 -0.264269 0)
(-0.208997 -0.261763 0)
(-0.21787 -0.259031 0)
(-0.226604 -0.256057 0)
(-0.234641 -0.252808 0)
(-0.238435 -0.249259 0)
(-0.235249 -0.244686 0)
(-0.227187 -0.239323 0)
(-0.217674 -0.233367 0)
(-0.207468 -0.226857 0)
(-0.196598 -0.219788 0)
(-0.18513 -0.212175 0)
(-0.173195 -0.204049 0)
(-0.160926 -0.19546 0)
(-0.148458 -0.186477 0)
(-0.135925 -0.177188 0)
(-0.123473 -0.167705 0)
(-0.111329 -0.158171 0)
(-0.0998541 -0.14877 0)
(-0.0895105 -0.139724 0)
(-0.0807882 -0.131273 0)
(-0.0741133 -0.123633 0)
(-0.0697239 -0.116929 0)
(-0.0675678 -0.111134 0)
(-0.0673073 -0.106061 0)
(-0.0684459 -0.101445 0)
(-0.0704844 -0.0970302 0)
(-0.0730195 -0.0926306 0)
(-0.0757682 -0.0881326 0)
(-0.0785519 -0.0834782 0)
(-0.0812666 -0.0786437 0)
(-0.0838542 -0.0736248 0)
(-0.0862822 -0.0684274 0)
(-0.0885323 -0.063062 0)
(-0.0905935 -0.0575416 0)
(-0.092459 -0.0518798 0)
(-0.0941242 -0.0460908 0)
(-0.0955861 -0.0401885 0)
(-0.0968428 -0.0341866 0)
(-0.0978932 -0.0280985 0)
(-0.0987352 -0.0219378 0)
(-0.099364 -0.0157196 0)
(-0.0997744 -0.00945932 0)
(-0.0999858 -0.00316468 0)
(0.0999813 -0.00450943 0)
(0.0996995 -0.0134729 0)
(0.0991423 -0.0223608 0)
(0.0982932 -0.0311512 0)
(0.0971654 -0.0398207 0)
(0.0957715 -0.048347 0)
(0.0941233 -0.0567099 0)
(0.0922357 -0.0648917 0)
(0.0901295 -0.072878 0)
(0.0878329 -0.0806591 0)
(0.0853831 -0.0882325 0)
(0.0828273 -0.0956047 0)
(0.0802234 -0.102794 0)
(0.0776379 -0.109832 0)
(0.0751407 -0.116766 0)
(0.072796 -0.123652 0)
(0.0706497 -0.130552 0)
(0.0687159 -0.137522 0)
(0.0669678 -0.144602 0)
(0.0653356 -0.151807 0)
(0.0637152 -0.15912 0)
(0.0619841 -0.166504 0)
(0.0600203 -0.1739 0)
(0.0577174 -0.18124 0)
(0.0549939 -0.188455 0)
(0.051796 -0.19548 0)
(0.0480952 -0.202255 0)
(0.0438836 -0.208731 0)
(0.0391687 -0.214868 0)
(0.0339681 -0.220634 0)
(0.0283055 -0.226007 0)
(0.0222075 -0.230971 0)
(0.0157021 -0.23552 0)
(0.00881707 -0.239652 0)
(0.00158012 -0.243369 0)
(-0.00598202 -0.246679 0)
(-0.0138448 -0.249593 0)
(-0.0219863 -0.252124 0)
(-0.0303863 -0.254287 0)
(-0.0390257 -0.256097 0)
(-0.0478867 -0.257572 0)
(-0.0569526 -0.258728 0)
(-0.0662071 -0.259581 0)
(-0.0756348 -0.260147 0)
(-0.0852202 -0.260441 0)
(-0.0949479 -0.260477 0)
(-0.104802 -0.260267 0)
(-0.114766 -0.259823 0)
(-0.124823 -0.259156 0)
(-0.134954 -0.258273 0)
(-0.145136 -0.257182 0)
(-0.155346 -0.255889 0)
(-0.165555 -0.254396 0)
(-0.175729 -0.252706 0)
(-0.185827 -0.250816 0)
(-0.195788 -0.248723 0)
(-0.205513 -0.246417 0)
(-0.214913 -0.243882 0)
(-0.224004 -0.241105 0)
(-0.232845 -0.238059 0)
(-0.240757 -0.234686 0)
(-0.244011 -0.230964 0)
(-0.239977 -0.226343 0)
(-0.231174 -0.221053 0)
(-0.221089 -0.215179 0)
(-0.21038 -0.208773 0)
(-0.199024 -0.201865 0)
(-0.18708 -0.19449 0)
(-0.174683 -0.186691 0)
(-0.161977 -0.178521 0)
(-0.149109 -0.170049 0)
(-0.136221 -0.16136 0)
(-0.123477 -0.152559 0)
(-0.111131 -0.143777 0)
(-0.0995699 -0.135182 0)
(-0.0892624 -0.126971 0)
(-0.0806869 -0.119354 0)
(-0.0742353 -0.112512 0)
(-0.0700911 -0.106533 0)
(-0.0681443 -0.101366 0)
(-0.06802 -0.0968268 0)
(-0.0692138 -0.0926703 0)
(-0.071241 -0.0886731 0)
(-0.0737207 -0.0846748 0)
(-0.0763903 -0.0805794 0)
(-0.0790863 -0.076338 0)
(-0.0817141 -0.0719308 0)
(-0.0842208 -0.0673542 0)
(-0.0865764 -0.0626131 0)
(-0.0887637 -0.0577168 0)
(-0.0907715 -0.0526765 0)
(-0.0925927 -0.0475044 0)
(-0.0942219 -0.0422129 0)
(-0.0956552 -0.0368146 0)
(-0.0968896 -0.0313222 0)
(-0.097923 -0.0257481 0)
(-0.0987526 -0.0201051 0)
(-0.0993726 -0.0144076 0)
(-0.0997774 -0.00867028 0)
(-0.099986 -0.00290082 0)
(0.0999813 -0.00414583 0)
(0.0996993 -0.0123865 0)
(0.0991419 -0.020558 0)
(0.0982925 -0.0286398 0)
(0.0971647 -0.0366101 0)
(0.0957713 -0.0444485 0)
(0.0941244 -0.0521362 0)
(0.0922391 -0.0596569 0)
(0.0901367 -0.0669974 0)
(0.0878457 -0.0741493 0)
(0.0854033 -0.0811101 0)
(0.082857 -0.0878862 0)
(0.0802649 -0.0944946 0)
(0.0776934 -0.100965 0)
(0.0752125 -0.10734 0)
(0.0728862 -0.113672 0)
(0.0707605 -0.120019 0)
(0.0688498 -0.126433 0)
(0.0671271 -0.13295 0)
(0.0655227 -0.139585 0)
(0.0639322 -0.146325 0)
(0.0622326 -0.153135 0)
(0.0603009 -0.159963 0)
(0.0580297 -0.166746 0)
(0.0553361 -0.173422 0)
(0.0521648 -0.179929 0)
(0.048486 -0.186216 0)
(0.0442901 -0.192234 0)
(0.0395831 -0.197948 0)
(0.0343811 -0.203327 0)
(0.0287061 -0.208351 0)
(0.0225836 -0.213005 0)
(0.0160401 -0.217282 0)
(0.00910254 -0.221179 0)
(0.0017978 -0.224697 0)
(-0.00584827 -0.227843 0)
(-0.013812 -0.230625 0)
(-0.0220719 -0.233055 0)
(-0.0306084 -0.235145 0)
(-0.0394027 -0.236908 0)
(-0.0484372 -0.238359 0)
(-0.057695 -0.23951 0)
(-0.0671598 -0.240377 0)
(-0.0768156 -0.240971 0)
(-0.0866464 -0.241304 0)
(-0.0966356 -0.241389 0)
(-0.106766 -0.241236 0)
(-0.11702 -0.240853 0)
(-0.127378 -0.240248 0)
(-0.137817 -0.239427 0)
(-0.148315 -0.238396 0)
(-0.158842 -0.237157 0)
(-0.169366 -0.235712 0)
(-0.17985 -0.234062 0)
(-0.190244 -0.232205 0)
(-0.200477 -0.230137 0)
(-0.210438 -0.227849 0)
(-0.220037 -0.22533 0)
(-0.229265 -0.222577 0)
(-0.238124 -0.21958 0)
(-0.245758 -0.216305 0)
(-0.248394 -0.212599 0)
(-0.243576 -0.207974 0)
(-0.234158 -0.202765 0)
(-0.223579 -0.197059 0)
(-0.212435 -0.190888 0)
(-0.200673 -0.184281 0)
(-0.188345 -0.177277 0)
(-0.175587 -0.169921 0)
(-0.162548 -0.162266 0)
(-0.149382 -0.15438 0)
(-0.136238 -0.146342 0)
(-0.123293 -0.13825 0)
(-0.110828 -0.130225 0)
(-0.0992463 -0.122418 0)
(-0.0890204 -0.115008 0)
(-0.0806148 -0.108177 0)
(-0.074388 -0.102073 0)
(-0.0704746 -0.0967544 0)
(-0.0687164 -0.0921534 0)
(-0.0687103 -0.0880902 0)
(-0.0699499 -0.0843435 0)
(-0.0719658 -0.0807189 0)
(-0.074397 -0.0770808 0)
(-0.0769983 -0.0733493 0)
(-0.0796185 -0.0694842 0)
(-0.0821703 -0.0654694 0)
(-0.0846049 -0.0613023 0)
(-0.0868945 -0.0569872 0)
(-0.0890224 -0.0525321 0)
(-0.0909779 -0.0479467 0)
(-0.0927537 -0.0432414 0)
(-0.0943442 -0.0384272 0)
(-0.0957449 -0.0335152 0)
(-0.0969525 -0.0285168 0)
(-0.0979642 -0.0234432 0)
(-0.098777 -0.0183061 0)
(-0.0993848 -0.0131188 0)
(-0.0997818 -0.0078949 0)
(-0.0999863 -0.00264151 0)
(0.0999813 -0.00378244 0)
(0.0996998 -0.0113008 0)
(0.0991433 -0.0187561 0)
(0.0982952 -0.0261299 0)
(0.0971692 -0.033402 0)
(0.0957782 -0.0405536 0)
(0.0941345 -0.0475677 0)
(0.0922533 -0.0544292 0)
(0.0901561 -0.0611264 0)
(0.0878713 -0.0676514 0)
(0.0854364 -0.0740022 0)
(0.0828988 -0.0801847 0)
(0.0803166 -0.0862148 0)
(0.0777561 -0.0921197 0)
(0.0752872 -0.0979385 0)
(0.0729741 -0.10372 0)
(0.0708626 -0.109516 0)
(0.0689673 -0.115375 0)
(0.0672613 -0.121332 0)
(0.0656749 -0.1274 0)
(0.0641034 -0.133568 0)
(0.0624236 -0.139804 0)
(0.0605116 -0.14606 0)
(0.058259 -0.152282 0)
(0.055582 -0.158411 0)
(0.052424 -0.164392 0)
(0.0487538 -0.170176 0)
(0.0445608 -0.175722 0)
(0.0398493 -0.180994 0)
(0.0346344 -0.185966 0)
(0.0289371 -0.190618 0)
(0.0227819 -0.194937 0)
(0.0161945 -0.198914 0)
(0.00920103 -0.202546 0)
(0.00182756 -0.205835 0)
(-0.00590069 -0.208784 0)
(-0.0139606 -0.211402 0)
(-0.0223311 -0.213697 0)
(-0.0309929 -0.21568 0)
(-0.0399273 -0.217362 0)
(-0.0491167 -0.218754 0)
(-0.058544 -0.219869 0)
(-0.0681924 -0.220716 0)
(-0.0780454 -0.221308 0)
(-0.0880859 -0.221655 0)
(-0.0982964 -0.221764 0)
(-0.108658 -0.221645 0)
(-0.119152 -0.221304 0)
(-0.129755 -0.220747 0)
(-0.140445 -0.21998 0)
(-0.151193 -0.219004 0)
(-0.161968 -0.217822 0)
(-0.172735 -0.216435 0)
(-0.18345 -0.214843 0)
(-0.19406 -0.213044 0)
(-0.204485 -0.211033 0)
(-0.214613 -0.208806 0)
(-0.224364 -0.206357 0)
(-0.233755 -0.203692 0)
(-0.242741 -0.200833 0)
(-0.25001 -0.197775 0)
(-0.251777 -0.194125 0)
(-0.246093 -0.18958 0)
(-0.236244 -0.184536 0)
(-0.225334 -0.179089 0)
(-0.21386 -0.173252 0)
(-0.201775 -0.167043 0)
(-0.189141 -0.160498 0)
(-0.176098 -0.15366 0)
(-0.162803 -0.146582 0)
(-0.149412 -0.139326 0)
(-0.136079 -0.131965 0)
(-0.122997 -0.124589 0)
(-0.110467 -0.117309 0)
(-0.0989062 -0.110262 0)
(-0.0887871 -0.103607 0)
(-0.0805601 -0.0975018 0)
(-0.0745527 -0.092069 0)
(-0.0708564 -0.0873458 0)
(-0.069272 -0.0832546 0)
(-0.0693745 -0.0796255 0)
(-0.0706575 -0.07626 0)
(-0.0726656 -0.0729894 0)
(-0.0750554 -0.0696981 0)
(-0.0775967 -0.0663192 0)
(-0.0801488 -0.0628191 0)
(-0.0826311 -0.0591847 0)
(-0.0849986 -0.0554141 0)
(-0.0872253 -0.0515111 0)
(-0.0892956 -0.0474827 0)
(-0.0911992 -0.0433374 0)
(-0.092929 -0.0390843 0)
(-0.0944791 -0.034733 0)
(-0.0958452 -0.0302935 0)
(-0.0970236 -0.0257757 0)
(-0.0980114 -0.0211899 0)
(-0.0988052 -0.0165467 0)
(-0.0993989 -0.011858 0)
(-0.0997868 -0.00713628 0)
(-0.0999866 -0.00238781 0)
(0.0999813 -0.00341981 0)
(0.0997004 -0.0102173 0)
(0.099145 -0.016958 0)
(0.0982986 -0.0236252 0)
(0.0971748 -0.0302007 0)
(0.0957867 -0.0366675 0)
(0.0941464 -0.0430102 0)
(0.0922694 -0.0492152 0)
(0.090177 -0.0552718 0)
(0.0878978 -0.061173 0)
(0.0854692 -0.0669172 0)
(0.0829386 -0.0725097 0)
(0.080364 -0.077965 0)
(0.0778118 -0.0833078 0)
(0.0753518 -0.0885737 0)
(0.0730481 -0.0938067 0)
(0.0709467 -0.0990545 0)
(0.0690621 -0.104361 0)
(0.0673675 -0.109758 0)
(0.0657931 -0.115258 0)
(0.064234 -0.120851 0)
(0.0625663 -0.126509 0)
(0.0606658 -0.13219 0)
(0.0584231 -0.137843 0)
(0.0557535 -0.143416 0)
(0.0525994 -0.148859 0)
(0.0489285 -0.154129 0)
(0.0447292 -0.159186 0)
(0.0400052 -0.164 0)
(0.0347704 -0.168546 0)
(0.0290452 -0.172806 0)
(0.0228534 -0.176766 0)
(0.0162199 -0.180419 0)
(0.00917028 -0.183762 0)
(0.00173009 -0.186795 0)
(-0.00607593 -0.189521 0)
(-0.014225 -0.191947 0)
(-0.0226964 -0.19408 0)
(-0.0314708 -0.195928 0)
(-0.0405296 -0.197502 0)
(-0.049855 -0.19881 0)
(-0.0594295 -0.199862 0)
(-0.0692359 -0.200668 0)
(-0.079257 -0.201237 0)
(-0.0894747 -0.201576 0)
(-0.0998705 -0.201693 0)
(-0.110425 -0.201595 0)
(-0.121115 -0.201287 0)
(-0.131919 -0.200774 0)
(-0.142809 -0.200059 0)
(-0.153757 -0.199144 0)
(-0.164729 -0.198031 0)
(-0.175684 -0.196722 0)
(-0.186579 -0.195214 0)
(-0.197356 -0.193508 0)
(-0.20793 -0.1916 0)
(-0.218188 -0.189487 0)
(-0.228069 -0.187167 0)
(-0.237621 -0.18465 0)
(-0.246729 -0.181957 0)
(-0.253492 -0.179099 0)
(-0.254209 -0.175544 0)
(-0.247716 -0.171198 0)
(-0.237606 -0.166431 0)
(-0.226503 -0.16133 0)
(-0.214799 -0.1559 0)
(-0.202471 -0.150155 0)
(-0.189602 -0.144129 0)
(-0.176341 -0.13786 0)
(-0.162851 -0.131397 0)
(-0.149292 -0.124798 0)
(-0.135823 -0.118131 0)
(-0.12265 -0.111474 0)
(-0.110092 -0.104929 0)
(-0.0985757 -0.0986196 0)
(-0.0885733 -0.092686 0)
(-0.0805212 -0.0872654 0)
(-0.0747184 -0.0824582 0)
(-0.071218 -0.0782847 0)
(-0.0697871 -0.0746637 0)
(-0.0699837 -0.0714371 0)
(-0.0713037 -0.0684292 0)
(-0.0733048 -0.0654942 0)
(-0.0756588 -0.0625347 0)
(-0.0781482 -0.0594943 0)
(-0.0806413 -0.0563456 0)
(-0.0830628 -0.0530778 0)
(-0.0853708 -0.0496896 0)
(-0.0875411 -0.0461846 0)
(-0.0895589 -0.0425687 0)
(-0.0914146 -0.0388493 0)
(-0.0931011 -0.0350344 0)
(-0.0946129 -0.0311324 0)
(-0.0959454 -0.027152 0)
(-0.0970951 -0.023102 0)
(-0.0980591 -0.0189913 0)
(-0.0988338 -0.0148296 0)
(-0.0994133 -0.0106273 0)
(-0.0997919 -0.00639574 0)
(-0.0999869 -0.00214017 0)
(0.0999814 -0.00305798 0)
(0.099701 -0.00913605 0)
(0.0991468 -0.0151635 0)
(0.0983022 -0.0211256 0)
(0.0971808 -0.0270059 0)
(0.0957955 -0.0327893 0)
(0.0941585 -0.0384619 0)
(0.0922854 -0.0440118 0)
(0.0901973 -0.0494292 0)
(0.0879229 -0.0547081 0)
(0.0854994 -0.0598469 0)
(0.0829744 -0.0648506 0)
(0.0804056 -0.0697321 0)
(0.0778594 -0.0745137 0)
(0.0754056 -0.0792272 0)
(0.0731084 -0.0839123 0)
(0.0710138 -0.088612 0)
(0.0691362 -0.0933656 0)
(0.0674489 -0.0982017 0)
(0.0658818 -0.103132 0)
(0.0643299 -0.108148 0)
(0.0626689 -0.113225 0)
(0.0607739 -0.118324 0)
(0.0585348 -0.123402 0)
(0.0558661 -0.128411 0)
(0.0527095 -0.133308 0)
(0.0490319 -0.138052 0)
(0.044821 -0.142608 0)
(0.0400798 -0.14695 0)
(0.0348217 -0.151054 0)
(0.0290663 -0.154903 0)
(0.0228369 -0.158487 0)
(0.0161579 -0.161797 0)
(0.00905453 -0.16483 0)
(0.00155191 -0.167587 0)
(-0.00632552 -0.170069 0)
(-0.0145552 -0.172281 0)
(-0.0231166 -0.174231 0)
(-0.0319902 -0.175924 0)
(-0.0411575 -0.177368 0)
(-0.0506004 -0.178572 0)
(-0.0603009 -0.179544 0)
(-0.0702415 -0.180291 0)
(-0.0804041 -0.180821 0)
(-0.0907699 -0.18114 0)
(-0.101319 -0.181254 0)
(-0.112031 -0.181169 0)
(-0.122883 -0.180889 0)
(-0.133848 -0.180418 0)
(-0.1449 -0.179757 0)
(-0.156007 -0.17891 0)
(-0.167133 -0.177878 0)
(-0.178237 -0.17666 0)
(-0.189271 -0.175257 0)
(-0.200175 -0.173668 0)
(-0.210861 -0.17189 0)
(-0.221215 -0.169921 0)
(-0.231189 -0.167759 0)
(-0.240858 -0.165412 0)
(-0.250017 -0.162896 0)
(-0.256227 -0.160243 0)
(-0.255961 -0.156887 0)
(-0.248803 -0.152854 0)
(-0.238506 -0.148459 0)
(-0.227271 -0.143777 0)
(-0.215396 -0.138814 0)
(-0.202881 -0.133585 0)
(-0.189832 -0.128119 0)
(-0.176406 -0.122454 0)
(-0.162769 -0.116632 0)
(-0.149084 -0.110708 0)
(-0.135518 -0.104739 0)
(-0.122286 -0.0987983 0)
(-0.109723 -0.0929758 0)
(-0.0982642 -0.0873817 0)
(-0.0883798 -0.082139 0)
(-0.0804927 -0.077366 0)
(-0.0748762 -0.0731446 0)
(-0.0715502 -0.069483 0)
(-0.0702538 -0.0663003 0)
(-0.0705321 -0.0634531 0)
(-0.0718842 -0.060787 0)
(-0.0738794 -0.0581773 0)
(-0.0762027 -0.0555414 0)
(-0.0786474 -0.0528326 0)
(-0.0810892 -0.050028 0)
(-0.0834576 -0.047119 0)
(-0.0857132 -0.0441046 0)
(-0.0878332 -0.0409881 0)
(-0.0898039 -0.0377746 0)
(-0.0916161 -0.0344706 0)
(-0.0932629 -0.031083 0)
(-0.0947392 -0.027619 0)
(-0.0960405 -0.0240863 0)
(-0.0971632 -0.0204924 0)
(-0.0981046 -0.0168454 0)