/*--------------------------------*- C++ -*----------------------------------*\
  =========                 |
  \\      /  F ield         | OpenFOAM: The Open Source CFD Toolbox
   \\    /   O peration     | Website:  https://openfoam.org
    \\  /    A nd           | Version:  8
     \\/     M anipulation  |
\*---------------------------------------------------------------------------*/
FoamFile
{
    version     2.0;
    format      ascii;
    class       volScalarField;
    location    "0.25/fluid";
    object      CH4;
}
// * * * * * * * * * * * * * * * * * * * * * * * * * * * * * * * * * * * * * //

dimensions      [0 0 0 0 0 0 0];

internalField   nonuniform List<scalar> 
4000
(
0.999997
0.999987
0.99997
0.999942
0.999895
0.999816
0.999686
0.999473
0.999127
0.998574
0.997699
0.996341
0.99427
0.991184
0.986702
0.980386
0.97177
0.960418
0.945989
0.928292
0.907301
0.883154
0.856121
0.826558
0.794879
0.761517
0.726909
0.691477
0.655503
0.619313
0.583373
0.547938
0.513226
0.479424
0.446683
0.415123
0.384836
0.355888
0.328319
0.302146
0.277371
0.253978
0.231942
0.211225
0.191785
0.173571
0.156532
0.140611
0.125753
0.1119
0.0989967
0.0869893
0.0758259
0.0654582
0.0558426
0.0469414
0.0387252
0.0312458
0.0245356
0.0183207
0.0128581
0.00827622
0.00481209
0.00275563
0.00154472
0.00084259
0.00044466
0.000225677
0.000109415
5.03421e-05
2.18276e-05
8.88917e-06
3.51369e-06
1.67789e-06
1.1495e-06
8.86408e-07
6.64485e-07
4.72658e-07
3.15762e-07
1.96597e-07
1.13767e-07
6.1426e-08
3.12141e-08
1.51304e-08
7.10736e-09
3.25603e-09
1.4614e-09
6.44817e-10
2.8047e-10
1.20534e-10
5.12772e-11
2.16272e-11
9.05421e-12
3.76479e-12
1.55403e-12
6.34927e-13
2.54405e-13
9.73115e-14
3.25328e-14
5.70555e-15
0.999997
0.999987
0.99997
0.999942
0.999894
0.999816
0.999685
0.999472
0.999126
0.998573
0.9977
0.996348
0.994293
0.991242
0.986825
0.980613
0.972148
0.960999
0.946823
0.929413
0.908725
0.884875
0.858109
0.828771
0.797259
0.764
0.729424
0.693873
0.657744
0.621627
0.58566
0.550133
0.515288
0.481328
0.448415
0.416676
0.38621
0.357087
0.329348
0.303016
0.278091
0.25456
0.232396
0.211564
0.19202
0.173714
0.156593
0.140599
0.125677
0.111769
0.0988191
0.0867715
0.0755744
0.0651788
0.0555406
0.0466222
0.0383944
0.0309299
0.0242244
0.0180204
0.0125836
0.00804997
0.00466944
0.00266807
0.00149138
0.000810605
0.000425919
0.000215016
0.000103565
4.72816e-05
2.03141e-05
8.19997e-06
3.25798e-06
1.65457e-06
1.16254e-06
8.87533e-07
6.55637e-07
4.59573e-07
3.02682e-07
1.86087e-07
1.06699e-07
5.73663e-08
2.91825e-08
1.42061e-08
6.71452e-09
3.09775e-09
1.40024e-09
6.21914e-10
2.72048e-10
1.17447e-10
5.01314e-11
2.11911e-11
8.88283e-12
3.69536e-12
1.5253e-12
6.22967e-13
2.49487e-13
9.5384e-14
3.18756e-14
5.59066e-15
0.999997
0.999987
0.99997
0.999942
0.999894
0.999815
0.999684
0.99947
0.999124
0.998571
0.997699
0.996352
0.994309
0.991282
0.986909
0.980769
0.972414
0.961422
0.947451
0.93029
0.909884
0.886332
0.859865
0.830804
0.799535
0.76647
0.731995
0.696462
0.660552
0.62442
0.588397
0.552772
0.517796
0.483677
0.450583
0.41865
0.38798
0.35865
0.330705
0.304171
0.279052
0.255337
0.233001
0.21201
0.192319
0.173878
0.156634
0.140533
0.125516
0.111524
0.0985011
0.086391
0.0751409
0.0647012
0.0550274
0.0460816
0.0378349
0.0303999
0.0237014
0.0175169
0.012126
0.00767642
0.00443983
0.00252728
0.00140603
0.000759869
0.000396545
0.000198563
9.47107e-05
4.27563e-05
1.81373e-05
7.24019e-06
2.91102e-06
1.58497e-06
1.14918e-06
8.71284e-07
6.36284e-07
4.40936e-07
2.87406e-07
1.75256e-07
9.99895e-08
5.3675e-08
2.73413e-08
1.33428e-08
6.32736e-09
2.92991e-09
1.32941e-09
5.92637e-10
2.6013e-10
1.12638e-10
4.81973e-11
2.0412e-11
8.5674e-12
3.56691e-12
1.47283e-12
6.01552e-13
2.40845e-13
9.20466e-14
3.07475e-14
5.39175e-15
0.999997
0.999987
0.99997
0.999942
0.999894
0.999815
0.999685
0.999472
0.999128
0.998579
0.997716
0.996382
0.994363
0.991373
0.987056
0.980999
0.972761
0.96192
0.948136
0.931191
0.911022
0.887717
0.861494
0.832663
0.801598
0.768703
0.734279
0.699021
0.663138
0.626998
0.59093
0.555227
0.520141
0.485886
0.452634
0.420526
0.389669
0.360144
0.332002
0.305272
0.27996
0.25606
0.233547
0.21239
0.192543
0.173958
0.156587
0.14037
0.125249
0.111166
0.0980639
0.0858862
0.0745793
0.0640933
0.054383
0.0454098
0.0371438
0.0297517
0.0230511
0.0168923
0.0115625
0.00722068
0.00416291
0.00235934
0.00130545
0.000700866
0.000362882
0.000180009
8.49354e-05
3.78661e-05
1.58438e-05
6.26321e-06
2.58293e-06
1.50655e-06
1.11877e-06
8.4328e-07
6.09907e-07
4.18196e-07
2.69681e-07
1.62862e-07
9.22203e-08
4.92701e-08
2.50479e-08
1.22265e-08
5.80676e-09
2.695e-09
1.22614e-09
5.48193e-10
2.41339e-10
1.04809e-10
4.49735e-11
1.90963e-11
8.03398e-12
3.35174e-12
1.38645e-12
5.67088e-13
2.27294e-13
8.69332e-14
2.90497e-14
5.09605e-15
0.999997
0.999987
0.99997
0.999942
0.999895
0.999816
0.999687
0.999475
0.999134
0.998589
0.997733
0.996412
0.994413
0.991456
0.987189
0.981204
0.973064
0.962351
0.948724
0.931961
0.911992
0.888896
0.862879
0.834244
0.803358
0.770584
0.736403
0.701194
0.665338
0.629195
0.593094
0.557327
0.52215
0.487778
0.45439
0.422129
0.391107
0.361409
0.33309
0.306182
0.280695
0.256623
0.233947
0.212632
0.192639
0.173923
0.15643
0.140102
0.124883
0.110714
0.097538
0.0852979
0.0739406
0.0634162
0.0536802
0.0446955
0.0364353
0.029106
0.0222703
0.0161833
0.0109427
0.00672884
0.00386813
0.00218302
0.00120132
0.000640654
0.000329048
0.000161666
7.54455e-05
3.32131e-05
1.37125e-05
5.38776e-06
2.31998e-06
1.44319e-06
1.08649e-06
8.1378e-07
5.83447e-07
3.96299e-07
2.53192e-07
1.51661e-07
8.53551e-08
4.54336e-08
2.30619e-08
1.12573e-08
5.35123e-09
2.48699e-09
1.13332e-09
5.07547e-10
2.23812e-10
9.73477e-11
4.1831e-11
1.77844e-11
7.49043e-12
3.1281e-12
1.29501e-12
5.3005e-13
2.1256e-13
8.1322e-14
2.71755e-14
4.76839e-15
0.999997
0.999987
0.99997
0.999942
0.999896
0.999818
0.999689
0.999479
0.999141
0.998601
0.997754
0.996447
0.99447
0.991546
0.987327
0.981409
0.973358
0.962759
0.949266
0.932655
0.912849
0.88992
0.864065
0.835579
0.804822
0.77213
0.738078
0.702948
0.667132
0.630994
0.594865
0.559044
0.523787
0.489315
0.455809
0.423414
0.392249
0.3624
0.333926
0.306862
0.281221
0.256999
0.234175
0.212723
0.192605
0.173771
0.156169
0.139744
0.124438
0.110194
0.0969529
0.0846591
0.0732587
0.062702
0.0529444
0.043949
0.0356896
0.028376
0.0215546
0.0155113
0.0103469
0.00625455
0.00358484
0.00201466
0.00110274
0.000584252
0.00029774
0.000144926
6.69196e-05
2.9106e-05
1.18712e-05
4.65784e-06
2.12602e-06
1.39482e-06
1.05634e-06
7.85791e-07
5.58557e-07
3.7587e-07
2.37889e-07
1.41275e-07
7.89571e-08
4.18196e-08
2.11624e-08
1.03174e-08
4.90331e-09
2.27988e-09
1.03991e-09
4.66291e-10
2.05912e-10
8.96968e-11
3.86016e-11
1.64355e-11
6.93208e-12
2.89858e-12
1.2013e-12
4.92141e-13
1.975e-13
7.5592e-14
2.52629e-14
4.43426e-15
0.999997
0.999987
0.999971
0.999943
0.999896
0.999819
0.999692
0.999484
0.999148
0.998613
0.997774
0.99648
0.994524
0.991629
0.987453
0.981594
0.973621
0.963118
0.94974
0.933258
0.91359
0.890799
0.865077
0.83671
0.806024
0.773518
0.739515
0.704416
0.66861
0.632459
0.596297
0.56042
0.525089
0.490526
0.456914
0.424403
0.393113
0.363133
0.334525
0.307326
0.281551
0.257198
0.234251
0.212684
0.192456
0.17352
0.155826
0.139319
0.12394
0.109633
0.0963389
0.0840013
0.0725666
0.0619846
0.0522109
0.0432086
0.0349695
0.0276739
0.0208794
0.0148829
0.00979316
0.00581702
0.0033255
0.00186188
0.00101416
0.000534097
0.000270217
0.000130395
5.96197e-05
2.56438e-05
1.03482e-05
4.07304e-06
1.98035e-06
1.35584e-06
1.02849e-06
7.59867e-07
5.35693e-07
3.57292e-07
2.24137e-07
1.32052e-07
7.33353e-08
3.86674e-08
1.95117e-08
9.50079e-09
4.5132e-09
2.09867e-09
9.57674e-10
4.29704e-10
1.89909e-10
8.27999e-11
3.56669e-11
1.52008e-11
6.41721e-12
2.68556e-12
1.11385e-12
4.56599e-13
1.83326e-13
7.01873e-14
2.34558e-14
4.11838e-15
0.999997
0.999987
0.999971
0.999943
0.999897
0.999821
0.999694
0.999488
0.999155
0.998626
0.997794
0.996512
0.994574
0.991706
0.987569
0.981762
0.973856
0.963436
0.950155
0.93378
0.914226
0.891552
0.865947
0.8377
0.807133
0.774664
0.740689
0.705607
0.6698
0.633631
0.597432
0.561502
0.526102
0.491456
0.457751
0.425137
0.393737
0.363644
0.334921
0.307606
0.281716
0.257255
0.234205
0.212539
0.192219
0.1732
0.15543
0.138855
0.123417
0.109059
0.0957232
0.0833519
0.0718917
0.0612923
0.0515094
0.0425063
0.0342981
0.0270245
0.0202609
0.0143133
0.00929774
0.00543383
0.00310048
0.00173042
0.000938535
0.000491621
0.000247104
0.000118306
5.36112e-05
2.28293e-05
9.13182e-06
3.6265e-06
1.88645e-06
1.32923e-06
1.00477e-06
7.36515e-07
5.14893e-07
3.40474e-07
2.11806e-07
1.23859e-07
6.83726e-08
3.58921e-08
1.80574e-08
8.77995e-09
4.16784e-09
1.9377e-09
8.84371e-10
3.96983e-10
1.75554e-10
7.65967e-11
3.30219e-11
1.40854e-11
5.9512e-12
2.49242e-12
1.03444e-12
4.24285e-13
1.70425e-13
6.52658e-14
2.1812e-14
3.83087e-15
0.999997
0.999987
0.999971
0.999944
0.999898
0.999822
0.999697
0.999492
0.999162
0.998637
0.997812
0.996542
0.994619
0.991776
0.987671
0.981909
0.974061
0.963711
0.95051
0.934223
0.914759
0.892171
0.86664
0.838436
0.807962
0.775555
0.741618
0.706551
0.670742
0.634553
0.598318
0.562337
0.526873
0.492153
0.458365
0.425662
0.394167
0.363976
0.335154
0.30774
0.281757
0.257205
0.234068
0.21232
0.191925
0.172837
0.155005
0.138376
0.122892
0.108495
0.0951268
0.0827309
0.0712532
0.0606434
0.0508573
0.0418588
0.0336895
0.0264406
0.0197114
0.0138166
0.00888148
0.00514165
0.00292564
0.00162697
0.000878533
0.000457767
0.000228655
0.000108678
4.88437e-05
2.06104e-05
8.18238e-06
3.28178e-06
1.78879e-06
1.29201e-06
9.75879e-07
7.11875e-07
4.94657e-07
3.24893e-07
2.00741e-07
1.16666e-07
6.40786e-08
3.35125e-08
1.68164e-08
8.16588e-09
3.8735e-09
1.80026e-09
8.21605e-10
3.68871e-10
1.63177e-10
7.12294e-11
3.07251e-11
1.31134e-11
5.54376e-12
2.32308e-12
9.64631e-13
3.95817e-13
1.59038e-13
6.09163e-14
2.03592e-14
3.57667e-15
0.999997
0.999988
0.999971
0.999944
0.999899
0.999823
0.999699
0.999496
0.999168
0.998647
0.997829
0.996567
0.99466
0.991836
0.987761
0.982037
0.974238
0.963947
0.950813
0.9346
0.915213
0.892704
0.867254
0.839124
0.808678
0.776294
0.742371
0.707307
0.671486
0.635273
0.599002
0.562973
0.527451
0.492664
0.458803
0.426021
0.394445
0.36417
0.335264
0.307769
0.281707
0.257078
0.23387
0.212055
0.191598
0.172455
0.154575
0.137903
0.122383
0.107956
0.0945648
0.0821517
0.0706629
0.0600482
0.0502635
0.0412732
0.0331484
0.0259246
0.0192305
0.0133892
0.008535
0.0049207
0.00279153
0.00154676
0.000831655
0.000431184
0.000214125
0.000101106
4.5102e-05
1.88777e-05
7.45125e-06
3.03124e-06
1.72026e-06
1.26247e-06
9.51502e-07
6.90825e-07
4.7736e-07
3.11627e-07
1.9137e-07
1.10603e-07
6.04713e-08
3.15155e-08
1.57741e-08
7.64924e-09
3.62525e-09
1.68402e-09
7.6837e-10
3.44961e-10
1.52622e-10
6.66422e-11
2.87572e-11
1.22787e-11
5.19313e-12
2.17706e-12
9.04341e-13
3.71193e-13
1.49177e-13
5.71458e-14
1.90991e-14
3.35619e-15
0.999997
0.999988
0.999972
0.999944
0.999899
0.999824
0.999701
0.999499
0.999174
0.998656
0.997843
0.99659
0.994694
0.991889
0.987838
0.982147
0.974388
0.964145
0.951067
0.934912
0.915583
0.893128
0.867723
0.839645
0.809236
0.776877
0.742965
0.7079
0.672067
0.635829
0.599522
0.563448
0.527874
0.493029
0.459103
0.426253
0.394607
0.364262
0.335286
0.307723
0.281594
0.256903
0.233636
0.211767
0.191261
0.172074
0.154155
0.137451
0.121904
0.107455
0.0940468
0.0816223
0.0701272
0.0595114
0.0497307
0.0407502
0.0326708
0.025472
0.0188118
0.0130205
0.00824106
0.0047417
0.0026831
0.00148202
0.000793878
0.000409802
0.000202466
9.50516e-05
4.21236e-05
1.75081e-05
6.8823e-06
2.8492e-06
1.6736e-06
1.24072e-06
9.32403e-07
6.73845e-07
4.63188e-07
3.00675e-07
1.83613e-07
1.05583e-07
5.74846e-08
2.98615e-08
1.49098e-08
7.22004e-09
3.41857e-09
1.587e-09
7.23832e-10
3.2491e-10
1.43754e-10
6.27782e-11
2.70956e-11
1.15723e-11
4.8958e-12
2.05301e-12
8.5304e-13
3.50212e-13
1.40765e-13
5.39267e-14
1.80227e-14
3.16795e-15
0.999997
0.999988
0.999972
0.999945
0.9999
0.999825
0.999702
0.999502
0.999178
0.998663
0.997855
0.996609
0.994724
0.991934
0.987903
0.982239
0.974514
0.964312
0.951279
0.935172
0.91589
0.893478
0.868103
0.840065
0.809683
0.777341
0.743435
0.708364
0.672516
0.636253
0.599913
0.563799
0.528178
0.493281
0.459299
0.426392
0.394686
0.364281
0.335247
0.307627
0.281444
0.256701
0.233386
0.211475
0.19093
0.171708
0.15376
0.13703
0.121463
0.106998
0.0935789
0.0811474
0.0696494
0.059035
0.0492602
0.0402903
0.0322554
0.0250793
0.0184498
0.012703
0.0079892
0.00459008
0.00259198
0.00142798
0.000762547
0.000392172
0.00019291
9.01184e-05
3.97126e-05
1.64079e-05
6.43148e-06
2.7118e-06
1.64002e-06
1.22405e-06
9.17282e-07
6.60167e-07
4.51639e-07
2.9169e-07
1.7723e-07
1.01448e-07
5.5023e-08
2.84972e-08
1.41959e-08
6.86502e-09
3.2473e-09
1.50647e-09
6.86802e-10
3.0822e-10
1.36358e-10
5.95498e-11
2.57048e-11
1.098e-11
4.64614e-12
1.94871e-12
8.09853e-13
3.3253e-13
1.3367e-13
5.12097e-14
1.71137e-14
3.00921e-15
0.999997
0.999988
0.999972
0.999945
0.9999
0.999826
0.999704
0.999504
0.999182
0.99867
0.997866
0.996626
0.994749
0.991971
0.987958
0.982316
0.974619
0.96445
0.951454
0.935386
0.916145
0.893773
0.868437
0.840416
0.810047
0.777711
0.743804
0.708725
0.67286
0.636573
0.600203
0.564052
0.52839
0.493448
0.459419
0.426462
0.394706
0.364252
0.33517
0.307503
0.281276
0.256491
0.233138
0.211192
0.190617
0.171368
0.153397
0.136649
0.121067
0.106591
0.0931642
0.0807288
0.0692304
0.0586189
0.0488507
0.0398912
0.0318981
0.0247422
0.0181396
0.0124315
0.00777443
0.00446134
0.00251499
0.00138257
0.000736354
0.000377517
0.000185012
8.60659e-05
3.77452e-05
1.55174e-05
6.07187e-06
2.60823e-06
1.61601e-06
1.21153e-06
9.05485e-07
6.4925e-07
4.42285e-07
2.84354e-07
1.71998e-07
9.80542e-08
5.3002e-08
2.73765e-08
1.36091e-08
6.5729e-09
3.10624e-09
1.44009e-09
6.56259e-10
2.94432e-10
1.30239e-10
5.68744e-11
2.45507e-11
1.04879e-11
4.43844e-12
1.86184e-12
7.73849e-13
3.17778e-13
1.27746e-13
4.89404e-14
1.63543e-14
2.87668e-15
0.999997
0.999988
0.999972
0.999945
0.999901
0.999827
0.999705
0.999506
0.999186
0.998675
0.997875
0.996639
0.99477
0.992003
0.988003
0.98238
0.974705
0.964562
0.951595
0.935557
0.916343
0.893993
0.868687
0.840686
0.81033
0.777999
0.744089
0.709001
0.67312
0.636811
0.600413
0.564231
0.528533
0.493553
0.459484
0.426485
0.394689
0.364194
0.335072
0.307367
0.281104
0.256287
0.232904
0.21093
0.190331
0.171062
0.153074
0.136312
0.120719
0.106236
0.0928045
0.0803673
0.0688698
0.058262
0.0485001
0.03955
0.0315942
0.0244561
0.017877
0.0122019
0.00759305
0.00435288
0.00245033
0.00134456
0.000714526
0.000365359
0.000178492
8.27384e-05
3.61395e-05
1.47969e-05
5.78797e-06
2.53851e-06
1.60209e-06
1.2035e-06
8.96813e-07
6.40716e-07
4.34764e-07
2.7838e-07
1.67718e-07
9.52742e-08
5.13465e-08
2.64587e-08
1.31286e-08
6.33365e-09
2.99074e-09
1.38573e-09
6.31222e-10
2.83119e-10
1.25212e-10
5.46747e-11
2.36008e-11
1.00826e-11
4.26721e-12
1.79018e-12
7.44131e-13
3.05595e-13
1.22852e-13
4.70652e-14
1.57267e-14
2.7672e-15
0.999997
0.999988
0.999972
0.999945
0.999901
0.999827
0.999706
0.999508
0.999189
0.99868
0.997882
0.996651
0.994787
0.992028
0.98804
0.982431
0.974775
0.964653
0.95171
0.935697
0.916509
0.894183
0.868891
0.840901
0.810551
0.778221
0.744308
0.709209
0.673313
0.636985
0.600563
0.564354
0.528626
0.493614
0.459512
0.42648
0.394649
0.364121
0.334967
0.307232
0.280941
0.256097
0.232691
0.210697
0.190079
0.170795
0.152795
0.136023
0.120422
0.105935
0.0925006
0.080063
0.0685674
0.0579634
0.0482075
0.039266
0.0313436
0.0242188
0.0176581
0.0120103
0.00744164
0.00426243
0.0023965
0.001313
0.000696455
0.00035533
0.000173137
8.00183e-05
3.48336e-05
1.42143e-05
5.5597e-06
2.48195e-06
1.58979e-06
1.19587e-06
8.8901e-07
6.3329e-07
4.28348e-07
2.73352e-07
1.64151e-07
9.29758e-08
4.99858e-08
2.57073e-08
1.27361e-08
6.13876e-09
2.89675e-09
1.3415e-09
6.10849e-10
2.7391e-10
1.2112e-10
5.28833e-11
2.2827e-11
9.75224e-12
4.12765e-12
1.73176e-12
7.19897e-13
2.95659e-13
1.18861e-13
4.55358e-14
1.52149e-14
2.67793e-15
0.999997
0.999988
0.999972
0.999946
0.999901
0.999828
0.999707
0.999509
0.999191
0.998683
0.997887
0.996659
0.994801
0.992048
0.988069
0.982471
0.974829
0.964725
0.9518
0.935806
0.916635
0.894326
0.869046
0.841065
0.810719
0.778389
0.744471
0.709364
0.673454
0.63711
0.600668
0.564436
0.528684
0.493646
0.459517
0.426458
0.3946
0.364046
0.334867
0.307108
0.280795
0.255931
0.232507
0.210497
0.189866
0.170571
0.152562
0.135783
0.120178
0.105688
0.092253
0.0798164
0.0683231
0.0577228
0.0479717
0.039036
0.0311396
0.0240235
0.0174768
0.011851
0.00731572
0.00418722
0.00235181
0.00128688
0.000681549
0.000347093
0.00016876
7.78066e-05
3.37776e-05
1.37448e-05
5.37372e-06
2.42832e-06
1.57499e-06
1.18664e-06
8.80925e-07
6.26298e-07
4.2264e-07
2.69034e-07
1.61157e-07
9.1076e-08
4.8873e-08
2.50972e-08
1.24189e-08
5.98166e-09
2.82111e-09
1.30595e-09
5.94485e-10
2.66518e-10
1.17836e-10
5.14464e-11
2.22066e-11
9.48744e-12
4.01579e-12
1.68494e-12
7.00482e-13
2.87701e-13
1.15665e-13
4.43115e-14
1.48052e-14
2.60653e-15
0.999997
0.999988
0.999972
0.999946
0.999902
0.999828
0.999707
0.99951
0.999192
0.998686
0.997892
0.996666
0.994811
0.992063
0.988091
0.982502
0.974871
0.964779
0.951867
0.935887
0.916729
0.894432
0.869161
0.841186
0.810843
0.778512
0.74459
0.709475
0.673555
0.637196
0.600739
0.564489
0.528718
0.493659
0.459509
0.426429
0.394551
0.363977
0.334778
0.307002
0.280672
0.255794
0.232356
0.210335
0.189695
0.170392
0.152377
0.135594
0.119987
0.105496
0.0920622
0.0796282
0.0681389
0.0575435
0.0477977
0.0388662
0.0309848
0.0238598
0.0173214
0.0117148
0.00720894
0.00412378
0.00231439
0.00126517
0.000669267
0.000340363
0.000165214
7.60287e-05
3.29352e-05
1.33733e-05
5.22784e-06
2.38644e-06
1.56225e-06
1.17825e-06
8.73779e-07
6.20313e-07
4.17884e-07
2.6551e-07
1.58749e-07
8.95625e-08
4.7992e-08
2.46161e-08
1.21695e-08
5.85837e-09
2.76183e-09
1.27812e-09
5.8169e-10
2.60744e-10
1.15274e-10
5.03259e-11
2.1723e-11
9.28119e-12
3.92872e-12
1.64852e-12
6.85387e-13
2.81517e-13
1.13183e-13
4.3361e-14
1.44872e-14
2.55117e-15
0.999997
0.999988
0.999972
0.999946
0.999902
0.999828
0.999708
0.999511
0.999194
0.998688
0.997895
0.996671
0.994819
0.992074
0.988107
0.982524
0.974901
0.964817
0.951915
0.935945
0.916796
0.894507
0.869242
0.841271
0.81093
0.778598
0.744672
0.709551
0.673623
0.637254
0.600785
0.564522
0.528736
0.493662
0.459497
0.426402
0.394509
0.36392
0.334708
0.306919
0.280577
0.255688
0.232242
0.210213
0.189566
0.170258
0.15224
0.135455
0.119847
0.105357
0.0919264
0.0794972
0.068015
0.0574301
0.0476998
0.0387917
0.0309539
0.0236435
0.0171556
0.0115864
0.00711503
0.00406985
0.0022834
0.00124757
0.000659474
0.000335071
0.000162459
7.46617e-05
3.22935e-05
1.30926e-05
5.11845e-06
2.35534e-06
1.55218e-06
1.17145e-06
8.68079e-07
6.15632e-07
4.1423e-07
2.62841e-07
1.56944e-07
8.84337e-08
4.73358e-08
2.42581e-08
1.19841e-08
5.76675e-09
2.71782e-09
1.25748e-09
5.7221e-10
2.5647e-10
1.13379e-10
4.94979e-11
2.13661e-11
9.12907e-12
3.86455e-12
1.6217e-12
6.7428e-13
2.7697e-13
1.11359e-13
4.26631e-14
1.42538e-14
2.51056e-15
0.999997
0.999988
0.999972
0.999946
0.999902
0.999829
0.999708
0.999512
0.999194
0.998689
0.997897
0.996674
0.994824
0.992082
0.988117
0.982539
0.97492
0.964842
0.951946
0.935982
0.916839
0.894555
0.869294
0.841325
0.810985
0.778652
0.744723
0.709598
0.673664
0.637289
0.600812
0.56454
0.528745
0.493662
0.459486
0.426381
0.394478
0.36388
0.334659
0.306862
0.280513
0.255617
0.232165
0.210131
0.18948
0.17017
0.152149
0.135364
0.119756
0.105267
0.0918376
0.0794109
0.067932
0.0573508
0.047624
0.0387179
0.0308784
0.0235555
0.0170704
0.0115118
0.00705691
0.00403549
0.00226327
0.00123599
0.000652986
0.000331552
0.000160624
7.37515e-05
3.18669e-05
1.29065e-05
5.04632e-06
2.33501e-06
1.54531e-06
1.1667e-06
8.64124e-07
6.12426e-07
4.11762e-07
2.6106e-07
1.5575e-07
8.76904e-08
4.69036e-08
2.4022e-08
1.18617e-08
5.70633e-09
2.68882e-09
1.24389e-09
5.65969e-10
2.53658e-10
1.12132e-10
4.89538e-11
2.11316e-11
9.02921e-12
3.82245e-12
1.60411e-12
6.66998e-13
2.7399e-13
1.10164e-13
4.22059e-14
1.41009e-14
2.484e-15
0.999997
0.999988
0.999972
0.999946
0.999902
0.999829
0.999708
0.999512
0.999195
0.99869
0.997898
0.996676
0.994826
0.992085
0.988122
0.982546
0.974929
0.964854
0.951961
0.936
0.91686
0.894578
0.869319
0.841351
0.811011
0.778677
0.744748
0.70962
0.673684
0.637305
0.600824
0.564548
0.528748
0.49366
0.45948
0.42637
0.394462
0.36386
0.334634
0.306833
0.28048
0.255582
0.232127
0.21009
0.189438
0.170126
0.152105
0.135319
0.119711
0.105222
0.0917936
0.0793678
0.0678899
0.0573096
0.0475835
0.0386778
0.0308383
0.0235152
0.017032
0.0114778
0.00702999
0.00401945
0.0022538
0.0012305
0.000649893
0.000329866
0.000159742
7.33128e-05
3.16611e-05
1.28167e-05
5.01162e-06
2.32532e-06
1.54195e-06
1.16433e-06
8.62151e-07
6.10843e-07
4.10559e-07
2.60204e-07
1.55182e-07
8.73388e-08
4.66993e-08
2.39104e-08
1.18039e-08
5.67774e-09
2.67508e-09
1.23744e-09
5.63008e-10
2.52322e-10
1.1154e-10
4.86947e-11
2.10198e-11
8.98147e-12
3.80228e-12
1.59567e-12
6.63493e-13
2.72552e-13
1.09586e-13
4.19842e-14
1.40266e-14
2.47111e-15
0.999997
0.999988
0.999972
0.999946
0.999902
0.999829
0.999708
0.999512
0.999195
0.99869
0.997898
0.996676
0.994826
0.992085
0.988122
0.982546
0.974929
0.964854
0.951961
0.936
0.91686
0.894578
0.869319
0.841351
0.811011
0.778678
0.744748
0.709621
0.673684
0.637305
0.600824
0.564548
0.528748
0.49366
0.45948
0.42637
0.394462
0.36386
0.334634
0.306833
0.28048
0.255582
0.232127
0.21009
0.189438
0.170126
0.152105
0.135319
0.119711
0.105222
0.091793
0.079367
0.0678889
0.0573085
0.0475823
0.0386768
0.0308379
0.0235154
0.0170328
0.011479
0.00703116
0.00402023
0.00225429
0.00123079
0.000650052
0.000329949
0.000159783
7.33316e-05
3.16692e-05
1.282e-05
5.01283e-06
2.32578e-06
1.54211e-06
1.16437e-06
8.62152e-07
6.10835e-07
4.10552e-07
2.60199e-07
1.5518e-07
8.73373e-08
4.66986e-08
2.39101e-08
1.18038e-08
5.67768e-09
2.67505e-09
1.23743e-09
5.63003e-10
2.5232e-10
1.11539e-10
4.86943e-11
2.10196e-11
8.98139e-12
3.80224e-12
1.59565e-12
6.63487e-13
2.72549e-13
1.09585e-13
4.19838e-14
1.40264e-14
2.47112e-15
0.999997
0.999988
0.999972
0.999946
0.999902
0.999829
0.999708
0.999512
0.999194
0.998689
0.997897
0.996674
0.994824
0.992082
0.988117
0.982539
0.97492
0.964843
0.951947
0.935982
0.916839
0.894555
0.869294
0.841325
0.810985
0.778652
0.744724
0.709598
0.673665
0.637289
0.600812
0.56454
0.528745
0.493662
0.459486
0.426381
0.394478
0.36388
0.334659
0.306861
0.280512
0.255617
0.232165
0.210131
0.18948
0.17017
0.152149
0.135363
0.119755
0.105265
0.0918356
0.0794082
0.0679286
0.0573469
0.0476201
0.0387148
0.0308771
0.0235566
0.0170735
0.0115158
0.0070604
0.00403758
0.00226448
0.00123667
0.000653349
0.000331737
0.000160714
7.37924e-05
3.18844e-05
1.29135e-05
5.04893e-06
2.33603e-06
1.54571e-06
1.16681e-06
8.64122e-07
6.12402e-07
4.11741e-07
2.61046e-07
1.55742e-07
8.76864e-08
4.69017e-08
2.40212e-08
1.18614e-08
5.70616e-09
2.68874e-09
1.24385e-09
5.65953e-10
2.53651e-10
1.12129e-10
4.89525e-11
2.1131e-11
9.02895e-12
3.82234e-12
1.60407e-12
6.66979e-13
2.73982e-13
1.10161e-13
4.22046e-14
1.41004e-14
2.48405e-15
0.999997
0.999988
0.999972
0.999946
0.999902
0.999828
0.999708
0.999511
0.999194
0.998688
0.997895
0.996671
0.994819
0.992074
0.988107
0.982525
0.974901
0.964818
0.951916
0.935945
0.916797
0.894507
0.869243
0.841271
0.81093
0.778598
0.744672
0.709551
0.673623
0.637254
0.600785
0.564522
0.528736
0.493662
0.459497
0.426402
0.394509
0.36392
0.334708
0.306918
0.280577
0.255688
0.232241
0.210212
0.189566
0.170258
0.152239
0.135454
0.119846
0.105355
0.0919232
0.0794928
0.0680096
0.0574241
0.0476941
0.0387879
0.0309532
0.0236461
0.0171606
0.0115919
0.0071195
0.00407239
0.00228483
0.00124835
0.000659886
0.000335279
0.000162559
7.47068e-05
3.23127e-05
1.31002e-05
5.12127e-06
2.35646e-06
1.55262e-06
1.17156e-06
8.6806e-07
6.1559e-07
4.14197e-07
2.62819e-07
1.56932e-07
8.84278e-08
4.7333e-08
2.42568e-08
1.19835e-08
5.76649e-09
2.71771e-09
1.25743e-09
5.72187e-10
2.5646e-10
1.13374e-10
4.94959e-11
2.13652e-11
9.12869e-12
3.86439e-12
1.62164e-12
6.74252e-13
2.76958e-13
1.11354e-13
4.26612e-14
1.4253e-14
2.51065e-15
0.999997
0.999988
0.999972
0.999946
0.999902
0.999828
0.999707
0.99951
0.999192
0.998686
0.997892
0.996666
0.994811
0.992063
0.988091
0.982502
0.974871
0.964779
0.951867
0.935887
0.91673
0.894432
0.869162
0.841186
0.810844
0.778512
0.74459
0.709475
0.673555
0.637197
0.600739
0.564489
0.528718
0.493659
0.459509
0.426429
0.394551
0.363977
0.334778
0.307002
0.280672
0.255794
0.232356
0.210335
0.189694
0.170392
0.152376
0.135593
0.119986
0.105494
0.0920595
0.0796245
0.0681344
0.0575386
0.0477934
0.0388638
0.0309857
0.0238629
0.0173255
0.0117189
0.00721207
0.00412558
0.0023154
0.00126573
0.000669562
0.000340512
0.000165285
7.60611e-05
3.2949e-05
1.33787e-05
5.22985e-06
2.38722e-06
1.56253e-06
1.17828e-06
8.73725e-07
6.20254e-07
4.17842e-07
2.65484e-07
1.58735e-07
8.95554e-08
4.79886e-08
2.46146e-08
1.21688e-08
5.85803e-09
2.76168e-09
1.27805e-09
5.81658e-10
2.60729e-10
1.15267e-10
5.0323e-11
2.17218e-11
9.28065e-12
3.92849e-12
1.64843e-12
6.85347e-13
2.815e-13
1.13176e-13
4.33584e-14
1.44861e-14
2.55128e-15
0.999997
0.999988
0.999972
0.999946
0.999901
0.999828
0.999707
0.999509
0.999191
0.998683
0.997888
0.99666
0.994801
0.992048
0.988069
0.982472
0.97483
0.964725
0.9518
0.935806
0.916636
0.894327
0.869047
0.841065
0.81072
0.77839
0.744472
0.709364
0.673455
0.63711
0.600668
0.564436
0.528684
0.493646
0.459517
0.426458
0.3946
0.364046
0.334866
0.307108
0.280794
0.255931
0.232507
0.210497
0.189866
0.170571
0.152561
0.135783
0.120177
0.105687
0.0922516
0.0798146
0.0683209
0.0577205
0.0479698
0.0390352
0.0311402
0.0240249
0.0174786
0.0118528
0.00731706
0.00418803
0.00235228
0.00128714
0.000681691
0.000347165
0.000168795
7.78223e-05
3.37842e-05
1.37474e-05
5.37465e-06
2.42866e-06
1.57507e-06
1.18659e-06
8.80847e-07
6.26233e-07
4.22596e-07
2.69008e-07
1.61143e-07
9.10684e-08
4.88692e-08
2.50954e-08
1.2418e-08
5.98125e-09
2.82091e-09
1.30586e-09
5.94443e-10
2.66499e-10
1.17828e-10
5.14428e-11
2.2205e-11
9.48675e-12
4.0155e-12
1.68482e-12
7.00431e-13
2.8768e-13
1.15656e-13
4.43081e-14
1.48037e-14
2.60667e-15
0.999997
0.999988
0.999972
0.999945
0.999901
0.999827
0.999706
0.999508
0.999189
0.99868
0.997882
0.996651
0.994787
0.992028
0.98804
0.982431
0.974775
0.964654
0.951711
0.935698
0.916509
0.894184
0.868892
0.840902
0.810552
0.778222
0.744308
0.70921
0.673314
0.636986
0.600564
0.564354
0.528627
0.493614
0.459512
0.42648
0.394649
0.364121
0.334967
0.307232
0.28094
0.256097
0.23269
0.210696
0.190079
0.170795
0.152794
0.136023
0.120422
0.105934
0.0925001
0.0800625
0.0685667
0.0579627
0.0482069
0.0392655
0.0313432
0.0242189
0.0176585
0.0120108
0.00744198
0.00426265
0.00239663
0.00131308
0.000696495
0.00035535
0.000173146
8.00221e-05
3.48351e-05
1.42148e-05
5.55984e-06
2.48198e-06
1.58975e-06
1.19579e-06
8.88928e-07
6.33227e-07
4.28307e-07
2.73327e-07
1.64137e-07
9.29681e-08
4.99818e-08
2.57053e-08
1.27351e-08
6.13828e-09
2.89652e-09
1.3414e-09
6.10799e-10
2.73887e-10
1.2111e-10
5.28788e-11
2.28251e-11
9.7514e-12
4.12729e-12
1.73161e-12
7.19834e-13
2.95633e-13
1.1885e-13
4.55316e-14
1.52131e-14
2.67808e-15
0.999997
0.999988
0.999972
0.999945
0.999901
0.999827
0.999705
0.999506
0.999186
0.998675
0.997875
0.99664
0.99477
0.992003
0.988003
0.98238
0.974706
0.964563
0.951596
0.935558
0.916344
0.893994
0.868688
0.840687
0.810331
0.778
0.74409
0.709002
0.67312
0.636812
0.600414
0.564231
0.528534
0.493553
0.459484
0.426485
0.394689
0.364194
0.335071
0.307367
0.281104
0.256286
0.232903
0.21093
0.190331
0.171062
0.153074
0.136312
0.120719
0.106236
0.0928042
0.080367
0.0688696
0.0582618
0.0485
0.0395502
0.0315947
0.0244564
0.0178771
0.012202
0.00759306
0.00435288
0.00245032
0.00134456
0.00071452
0.000365354
0.000178489
8.27364e-05
3.61383e-05
1.47963e-05
5.7877e-06
2.53842e-06
1.60201e-06
1.20342e-06
8.96744e-07
6.40664e-07
4.34729e-07
2.78358e-07
1.67704e-07
9.52665e-08
5.13424e-08
2.64565e-08
1.31275e-08
6.33311e-09
2.99048e-09
1.38561e-09
6.31165e-10
2.83092e-10
1.252e-10
5.46694e-11
2.35985e-11
1.00816e-11
4.26679e-12
1.79e-12
7.44055e-13
3.05563e-13
1.22839e-13
4.70602e-14
1.57246e-14
2.76734e-15
0.999997
0.999988
0.999972
0.999945
0.9999
0.999826
0.999704
0.999504
0.999182
0.99867
0.997866
0.996626
0.99475
0.991972
0.987958
0.982317
0.97462
0.964451
0.951455
0.935387
0.916146
0.893774
0.868439
0.840417
0.810049
0.777712
0.743805
0.708726
0.672861
0.636574
0.600203
0.564053
0.52839
0.493448
0.459419
0.426462
0.394706
0.364252
0.335169
0.307503
0.281275
0.256491
0.233138
0.211192
0.190616
0.171368
0.153397
0.136649
0.121066
0.106591
0.0931639
0.0807285
0.0692301
0.0586187
0.0488504
0.039891
0.031898
0.024742
0.0181395
0.0124314
0.00777429
0.00446125
0.00251493
0.00138253
0.000736329
0.000377502
0.000185003
8.60613e-05
3.77428e-05
1.55163e-05
6.0714e-06
2.60807e-06
1.61593e-06
1.21146e-06
9.05431e-07
6.49208e-07
4.42255e-07
2.84334e-07
1.71985e-07
9.80465e-08
5.29977e-08
2.73741e-08
1.36079e-08
6.5723e-09
3.10594e-09
1.43995e-09
6.56192e-10
2.94402e-10
1.30225e-10
5.68682e-11
2.45479e-11
1.04867e-11
4.43793e-12
1.86163e-12
7.73758e-13
3.1774e-13
1.2773e-13
4.89343e-14
1.63519e-14
2.87678e-15
0.999997
0.999988
0.999972
0.999945
0.9999
0.999825
0.999702
0.999502
0.999178
0.998663
0.997856
0.99661
0.994725
0.991934
0.987904
0.98224
0.974515
0.964313
0.95128
0.935173
0.915892
0.89348
0.868105
0.840067
0.809685
0.777342
0.743436
0.708366
0.672517
0.636254
0.599914
0.5638
0.528179
0.493281
0.4593
0.426392
0.394686
0.364281
0.335247
0.307627
0.281444
0.256701
0.233386
0.211474
0.190929
0.171708
0.153759
0.13703
0.121462
0.106998
0.0935784
0.0811469
0.069649
0.0590346
0.0492598
0.0402899
0.0322551
0.025079
0.0184495
0.0127027
0.00798898
0.00458994
0.00259189
0.00142793
0.000762513
0.000392153
0.000192899
9.01126e-05
3.97098e-05
1.64066e-05
6.43092e-06
2.71159e-06
1.63993e-06
1.22399e-06
9.17231e-07
6.60128e-07
4.5161e-07
2.9167e-07
1.77217e-07
1.0144e-07
5.50184e-08
2.84946e-08
1.41946e-08
6.86433e-09
3.24696e-09
1.50631e-09
6.86725e-10
3.08184e-10
1.36342e-10
5.95424e-11
2.57016e-11
1.09786e-11
4.64554e-12
1.94846e-12