/*--------------------------------*- C++ -*----------------------------------*\
  =========                 |
  \\      /  F ield         | OpenFOAM: The Open Source CFD Toolbox
   \\    /   O peration     | Website:  https://openfoam.org
    \\  /    A nd           | Version:  8
     \\/     M anipulation  |
\*---------------------------------------------------------------------------*/
FoamFile
{
    version     2.0;
    format      ascii;
    class       volScalarField;
    location    "0.25/fluid";
    object      CO2;
}
// * * * * * * * * * * * * * * * * * * * * * * * * * * * * * * * * * * * * * //

dimensions      [0 0 0 0 0 0 0];

internalField   nonuniform List<scalar> 
4000
(
4.26486e-07
1.86524e-06
4.29149e-06
8.37412e-06
1.52178e-05
2.66285e-05
4.55235e-05
7.6547e-05
0.000126966
0.000207917
0.00033604
0.000535463
0.000839831
0.00129442
0.00195551
0.0028886
0.00416332
0.00584494
0.0079847
0.0106122
0.0137316
0.017323
0.021347
0.0257506
0.0304725
0.0354479
0.0406118
0.0459012
0.0512736
0.0566805
0.0620517
0.0673494
0.0725404
0.0775968
0.0824959
0.0872195
0.0917535
0.096088
0.100217
0.104138
0.107849
0.111355
0.114657
0.117762
0.120675
0.123404
0.125957
0.128341
0.130563
0.13263
0.134548
0.13632
0.137947
0.139424
0.14074
0.14187
0.142774
0.143377
0.143575
0.143197
0.141949
0.139362
0.134656
0.126885
0.117466
0.107255
0.0967759
0.086357
0.0762045
0.0664641
0.0572312
0.0485723
0.0405627
0.0332151
0.0263071
0.0201698
0.0148672
0.0104044
0.00684538
0.00420129
0.00239895
0.0012795
0.000643077
0.000308722
0.000143825
6.5432e-05
2.91989e-05
1.28234e-05
5.55709e-06
2.38147e-06
1.01106e-06
4.25871e-07
1.78169e-07
7.40751e-08
3.05884e-08
1.25072e-08
5.01663e-09
1.92101e-09
6.42821e-10
1.12793e-10
4.26379e-07
1.86508e-06
4.29247e-06
8.37981e-06
1.52359e-05
2.66724e-05
4.56121e-05
7.66963e-05
0.000127165
0.000208071
0.00033587
0.000534303
0.000836442
0.00128588
0.00193732
0.00285504
0.00410729
0.00575862
0.00786088
0.0104455
0.0135198
0.0170671
0.021051
0.025421
0.0301178
0.0350779
0.0402368
0.0455438
0.0509394
0.0563351
0.0617103
0.0670217
0.0722326
0.0773126
0.0822374
0.0869877
0.0915485
0.0959093
0.100063
0.104008
0.107742
0.111268
0.114589
0.117711
0.12064
0.123383
0.125948
0.128343
0.130574
0.132649
0.134573
0.13635
0.13798
0.139458
0.140772
0.141896
0.142788
0.143368
0.143531
0.143096
0.141754
0.139015
0.13406
0.126116
0.116581
0.10629
0.0957561
0.0852992
0.0751219
0.0653723
0.0561447
0.0475111
0.0395606
0.0322716
0.0254841
0.0194205
0.0141392
0.00976966
0.0063463
0.00385113
0.00218192
0.00116074
0.000585143
0.000282709
0.00013281
6.09754e-05
2.74582e-05
1.21606e-05
5.30853e-06
2.28863e-06
9.76165e-07
4.12563e-07
1.72995e-07
7.20257e-08
2.97653e-08
1.21752e-08
4.88416e-09
1.87038e-09
6.25884e-10
1.09851e-10
4.27215e-07
1.86894e-06
4.30232e-06
8.40123e-06
1.52784e-05
2.67508e-05
4.57475e-05
7.69069e-05
0.000127452
0.000208379
0.000336005
0.000533785
0.000834159
0.00127985
0.00192491
0.00283198
0.00406783
0.00569591
0.0077677
0.0103153
0.0133475
0.0168502
0.0207897
0.0251182
0.0297787
0.0347096
0.0398533
0.0451575
0.0505201
0.055918
0.0613016
0.0666274
0.0718579
0.0769616
0.0819133
0.0866927
0.0912839
0.0956756
0.0998606
0.103835
0.107598
0.111152
0.114499
0.117645
0.120596
0.123359
0.125942
0.128352
0.130597
0.132684
0.134618
0.136403
0.138037
0.139517
0.140827
0.14194
0.142812
0.143353
0.143458
0.142927
0.14143
0.138439
0.133068
0.124858
0.115153
0.104754
0.094155
0.0836657
0.0734811
0.063751
0.0545642
0.0459944
0.038134
0.0309057
0.0242038
0.0182922
0.0132309
0.0090771
0.00585787
0.00353821
0.0020011
0.00106591
0.00053935
0.000261729
0.000123542
5.69931e-05
2.5784e-05
1.14688e-05
5.02623e-06
2.1743e-06
9.29997e-07
3.93906e-07
1.65431e-07
6.89464e-08
2.85098e-08
1.16645e-08
4.67898e-09
1.79148e-09
5.99318e-10
1.05175e-10
4.26678e-07
1.86658e-06
4.29675e-06
8.38957e-06
1.52539e-05
2.66969e-05
4.56221e-05
7.66299e-05
0.000126862
0.000207172
0.000333633
0.000529327
0.000826208
0.00126655
0.00190322
0.00279792
0.00401657
0.00562213
0.00766617
0.0101815
0.0131784
0.0166442
0.0205472
0.0248413
0.0294712
0.0343766
0.0395126
0.0447755
0.0501339
0.0555329
0.0609231
0.0662606
0.0715073
0.0766314
0.0816067
0.0864122
0.0910314
0.0954522
0.0996668
0.103671
0.107463
0.111044
0.114417
0.117588
0.120562
0.123347
0.125949
0.128376
0.130636
0.132736
0.134681
0.136473
0.138112
0.139591
0.140896
0.141996
0.142842
0.143336
0.143371
0.142723
0.141039
0.137745
0.131877
0.123361
0.113467
0.102958
0.0923049
0.0818017
0.0716396
0.061961
0.0528518
0.0443883
0.0366567
0.0295253
0.0229746
0.0172372
0.0123671
0.00841033
0.00537982
0.00322395
0.0018127
0.000962434
0.000486675
0.000236503
0.000111921
5.1799e-05
2.35174e-05
1.04989e-05
4.61785e-06
2.00465e-06
8.60261e-07
3.65468e-07
1.539e-07
6.42913e-08
2.66381e-08
1.09164e-08
4.38425e-09
1.68006e-09
5.6228e-10
9.87144e-11
4.24922e-07
1.85878e-06
4.27825e-06
8.35192e-06
1.51818e-05
2.65629e-05
4.5379e-05
7.6189e-05
0.000126066
0.000205747
0.000331113
0.000524958
0.000818801
0.00125433
0.00188368
0.00276775
0.00397177
0.0055583
0.00757895
0.0100672
0.0130342
0.016469
0.0203411
0.0246059
0.029209
0.0340961
0.0391957
0.0444512
0.0498055
0.0552048
0.0606
0.0659469
0.0712073
0.0763487
0.0813443
0.0861726
0.0908164
0.0952631
0.0995041
0.103535
0.107353
0.11096
0.114358
0.117552
0.120548
0.123352
0.125972
0.128416
0.13069
0.132802
0.134756
0.136555
0.138197
0.139675
0.140973
0.142057
0.142873
0.143319
0.14328
0.142509
0.140627
0.137014
0.130624
0.121794
0.111716
0.101108
0.0904142
0.0799141
0.0697943
0.0601873
0.0511762
0.0428404
0.0352461
0.0282063
0.0218197
0.0162607
0.0115785
0.00781076
0.00495709
0.00295079
0.00165139
0.000874737
0.000442201
0.000215137
0.000102
4.73117e-05
2.15301e-05
9.63376e-06
4.24652e-06
1.84712e-06
7.94077e-07
3.37884e-07
1.42481e-07
5.95934e-08
2.47164e-08
1.01371e-08
4.07375e-09
1.56162e-09
5.22673e-10
9.17814e-11
4.22278e-07
1.84708e-06
4.25078e-06
8.2967e-06
1.50777e-05
2.63727e-05
4.50382e-05
7.55864e-05
0.000125013
0.000203932
0.000328035
0.000519833
0.000810462
0.0012411
0.00186332
0.00273744
0.00392821
0.00549802
0.00749868
0.00996425
0.0129069
0.0163167
0.0201646
0.0244071
0.0289908
0.0338656
0.0389459
0.0441894
0.0495377
0.0549363
0.0603354
0.0656904
0.0709626
0.076119
0.0811323
0.0859805
0.0906458
0.095115
0.0993792
0.103433
0.107274
0.110904
0.114324
0.117538
0.120553
0.123375
0.126011
0.128469
0.130756
0.132878
0.13484
0.136644
0.138288
0.139764
0.141053
0.14212
0.142907
0.143305
0.143189
0.142295
0.140219
0.136295
0.129399
0.12027
0.110021
0.0993262
0.0886051
0.0781199
0.0680529
0.0585261
0.0496201
0.0414189
0.0339528
0.0269917
0.0207672
0.0153783
0.0108708
0.00727531
0.00458052
0.0027071
0.00150652
0.000795029
0.000401119
0.000195099
9.25561e-05
4.29818e-05
1.95899e-05
8.78102e-06
3.87785e-06
1.68993e-06
7.27837e-07
3.10237e-07
1.31037e-07
5.48862e-08
2.27922e-08
9.35741e-09
3.7634e-09
1.44332e-09
4.8313e-10
8.48644e-11
4.19273e-07
1.83386e-06
4.21997e-06
8.23546e-06
1.49637e-05
2.61679e-05
4.46774e-05
7.49603e-05
0.000123942
0.000202123
0.000325028
0.000514927
0.000802619
0.00122887
0.00184476
0.00271013
0.00388939
0.00544481
0.00742841
0.00987481
0.012797
0.0161861
0.0200141
0.0242388
0.0288118
0.0336587
0.0387317
0.0439705
0.0493173
0.0547176
0.0601217
0.0654849
0.0707682
0.0759382
0.0809672
0.0858327
0.0905168
0.0950056
0.0992898
0.103364
0.107225
0.110874
0.114312
0.117544
0.120575
0.123412
0.126062
0.128532
0.130829
0.132959
0.134928
0.136736
0.138381
0.139853
0.141133
0.142182
0.142938
0.14329
0.143099
0.142088
0.139827
0.135608
0.128245
0.118844
0.108443
0.0976764
0.0869377
0.0764738
0.0664628
0.0570164
0.0482128
0.0401405
0.032785
0.0259118
0.0198348
0.0145997
0.0102496
0.00680844
0.00425472
0.00249795
0.001383
0.000727347
0.000366268
0.000178065
8.44924e-05
3.92619e-05
1.79105e-05
8.03672e-06
3.55321e-06
1.55029e-06
6.68484e-07
2.85276e-07
1.20627e-07
5.05762e-08
2.10206e-08
8.63629e-09
3.4753e-09
1.33327e-09
4.46285e-10
7.84157e-11
4.16172e-07
1.82024e-06
4.18832e-06
8.17278e-06
1.48477e-05
2.59605e-05
4.43145e-05
7.43358e-05
0.000122882
0.000200353
0.000322121
0.000510238
0.00079522
0.00121748
0.0018277
0.00268538
0.00385466
0.00539778
0.00736699
0.00979738
0.0127026
0.0160742
0.0198847
0.0240915
0.0286467
0.0334881
0.0385566
0.043793
0.0491398
0.0545428
0.0599523
0.0653235
0.070617
0.0757993
0.0808423
0.0857232
0.0904235
0.0949293
0.0992308
0.103322
0.107201
0.110866
0.114319
0.117566
0.120611
0.12346
0.126121
0.128601
0.130906
0.133043
0.135016
0.136827
0.138471
0.139939
0.141208
0.142239
0.142963
0.143268
0.143004
0.141878
0.139439
0.134939
0.127167
0.117531
0.107004
0.096182
0.0854349
0.0749964
0.065041
0.0556706
0.0469621
0.0390082
0.0317356
0.024977
0.0190255
0.013924
0.00971146
0.00640549
0.00397469
0.00231874
0.00127727
0.000669302
0.00033625
0.000163322
7.74759e-05
3.60079e-05
1.64341e-05
7.37943e-06
3.26539e-06
1.42605e-06
6.1554e-07
2.6295e-07
1.11295e-07
4.67048e-08
1.94268e-08
7.98667e-09
3.21547e-09
1.23397e-09
4.13076e-10
7.26006e-11
4.1318e-07
1.80711e-06
4.1579e-06
8.11278e-06
1.47371e-05
2.57638e-05
4.39726e-05
7.37512e-05
0.000121898
0.000198721
0.000319461
0.000505986
0.000788566
0.00120732
0.00181262
0.00266366
0.00382443
0.00535717
0.0073144
0.00973173
0.0126235
0.0159824
0.0197818
0.0239821
0.0285233
0.0333554
0.0384183
0.0436522
0.0489993
0.0544053
0.0598201
0.0651988
0.0705018
0.0756952
0.0807506
0.0856449
0.0903594
0.0948797
0.099196
0.103302
0.107195
0.110873
0.11434
0.117599
0.120655
0.123514
0.126184
0.128672
0.130984
0.133126
0.135102
0.136913
0.138556
0.140018
0.141276
0.142288
0.142978
0.143236
0.142894
0.141647
0.139015
0.134201
0.126131
0.116323
0.105704
0.094845
0.0840989
0.07369
0.063788
0.0544879
0.0458657
0.0380129
0.0308197
0.0241632
0.0183225
0.0133385
0.00924709
0.00605952
0.00373567
0.00216667
0.00118794
0.000620378
0.000310959
0.000150884
7.15422e-05
3.32473e-05
1.5177e-05
6.81756e-06
3.01838e-06
1.31905e-06
5.69769e-07
2.4358e-07
1.03172e-07
4.33258e-08
1.80323e-08
7.41716e-09
2.98732e-09
1.14668e-09
3.83883e-10
6.74879e-11
4.10406e-07
1.79495e-06
4.12977e-06
8.0574e-06
1.46353e-05
2.55833e-05
4.36598e-05
7.32187e-05
0.000121006
0.00019725
0.000317076
0.000502194
0.00078267
0.00119837
0.00179942
0.00264479
0.00379833
0.00532232
0.00726949
0.00967582
0.0125561
0.0159031
0.0196906
0.0238797
0.0284168
0.0332454
0.0383062
0.0435397
0.0488884
0.0542979
0.0597182
0.065104
0.0704157
0.075619
0.0806853
0.0855913
0.090318
0.0948509
0.0991798
0.103298
0.107202
0.110892
0.11437
0.117639
0.120704
0.123571
0.126249
0.128742
0.131059
0.133204
0.135182
0.136994
0.138634
0.140089
0.141336
0.142329
0.142985
0.143196
0.142777
0.141409
0.138582
0.133448
0.125161
0.115228
0.104546
0.0936641
0.0829252
0.0725488
0.0626966
0.0534604
0.0449163
0.0371508
0.0300217
0.0234565
0.0177139
0.0128335
0.00884821
0.00576386
0.00353254
0.00203805
0.00111264
0.000579199
0.000289665
0.000140398
6.65302e-05
3.09101e-05
1.41101e-05
6.33961e-06
2.80779e-06
1.22764e-06
5.30582e-07
2.26962e-07
9.61897e-08
4.04166e-08
1.683e-08
6.9255e-09
2.79016e-09
1.0712e-09
3.58629e-10
6.30649e-11
4.07911e-07
1.78403e-06
4.10451e-06
8.00776e-06
1.45443e-05
2.54223e-05
4.33817e-05
7.27467e-05
0.000120218
0.000195955
0.000314987
0.000498888
0.000777554
0.00119065
0.0017881
0.00262868
0.00377618
0.00529295
0.00723197
0.00962963
0.0125012
0.0158402
0.0196209
0.0238023
0.0283338
0.0331587
0.0382176
0.0434513
0.0488019
0.0542151
0.0596406
0.0650331
0.0703526
0.0755647
0.0806406
0.0855567
0.0902939
0.0948374
0.0991766
0.103305
0.107219
0.110919
0.114405
0.117682
0.120754
0.123628
0.126311
0.128809
0.131129
0.133277
0.135257
0.137067
0.138704
0.140153
0.141389
0.142363
0.142989
0.143155
0.142665
0.141185
0.138179
0.132754
0.124294
0.114262
0.103532
0.0926356
0.0819068
0.0715617
0.0617548
0.0525757
0.0441012
0.0364099
0.0293308
0.0228464
0.01719
0.0124002
0.00850743
0.00551257
0.00336083
0.00192987
0.00104955
0.000544773
0.000271877
0.000131636
6.23374e-05
2.89521e-05
1.32148e-05
5.9378e-06
2.63049e-06
1.15051e-06
4.9745e-07
2.12884e-07
9.02647e-08
3.79438e-08
1.58066e-08
6.50653e-09
2.62198e-09
1.00677e-09
3.37065e-10
5.92905e-11
4.05719e-07
1.77443e-06
4.08235e-06
7.96426e-06
1.44646e-05
2.52817e-05
4.31393e-05
7.23364e-05
0.000119534
0.000194836
0.000313187
0.000496051
0.00077318
0.00118408
0.00177848
0.00261506
0.00375754
0.00526833
0.00720064
0.00959121
0.0124558
0.0157883
0.0195644
0.0237399
0.0282672
0.0330897
0.0381478
0.0433822
0.0487351
0.0541519
0.0595824
0.0649809
0.0703074
0.0755272
0.0806114
0.0855362
0.0902823
0.0948346
0.0991825
0.103319
0.107242
0.110949
0.114442
0.117726
0.120804
0.123683
0.12637
0.128872
0.131194
0.133344
0.135323
0.137133
0.138766
0.14021
0.141435
0.142392
0.14299
0.143117
0.142566
0.140988
0.137826
0.132147
0.12354
0.113427
0.102657
0.0917511
0.0810329
0.070716
0.0609493
0.0518203
0.0434067
0.035778
0.0287374
0.0223235
0.0167421
0.012031
0.00821821
0.00530027
0.00321648
0.00183934
0.000996922
0.000516115
0.000257081
0.000124347
5.88471e-05
2.73206e-05
1.2468e-05
5.60241e-06
2.48226e-06
1.08593e-06
4.69665e-07
2.01061e-07
8.52818e-08
3.58616e-08
1.49439e-08
6.15303e-09
2.47999e-09
9.52337e-10
3.18841e-10
5.61043e-11
4.03832e-07
1.76617e-06
4.0633e-06
7.92689e-06
1.43962e-05
2.51612e-05
4.2932e-05
7.19863e-05
0.000118953
0.000193886
0.000311663
0.000493655
0.000769498
0.00117856
0.00177045
0.00260372
0.00374206
0.00524795
0.00717475
0.00955944
0.012418
0.0157446
0.0195148
0.0236878
0.0282132
0.0330346
0.0380928
0.0433285
0.0486839
0.0541043
0.0595393
0.0649432
0.0702758
0.0755023
0.0805936
0.0855258
0.0902793
0.094839
0.0991942
0.103338
0.107267
0.11098
0.11448
0.117768
0.120851
0.123734
0.126424
0.128928
0.131253
0.133403
0.135383
0.137191
0.138821
0.140259
0.141475
0.142418
0.142991
0.143085
0.14248
0.140818
0.137524
0.131628
0.122896
0.112714
0.101912
0.0909988
0.0802907
0.0699988
0.0602669
0.0511812
0.0428203
0.0352435
0.0282322
0.0218792
0.0163626
0.011719
0.00797466
0.00512226
0.00309599
0.00176408
0.000953311
0.000492413
0.000244855
0.000118325
5.59628e-05
2.59719e-05
1.18506e-05
5.32472e-06
2.35936e-06
1.03231e-06
4.46566e-07
1.91219e-07
8.1129e-08
3.41245e-08
1.42236e-08
5.85762e-09
2.36125e-09
9.06806e-10
3.03594e-10
5.34399e-11
4.0224e-07
1.7592e-06
4.04723e-06
7.8954e-06
1.43387e-05
2.506e-05
4.2758e-05
7.16929e-05
0.000118466
0.000193093
0.000310394
0.000491665
0.000766447
0.001174
0.00176383
0.0025944
0.0037294
0.00523137
0.00715386
0.00953416
0.0123886
0.015712
0.0194778
0.0236477
0.0281712
0.0329918
0.0380504
0.0432875
0.0486452
0.0540689
0.059508
0.0649166
0.0702545
0.0754868
0.080584
0.0855224
0.090282
0.0948478
0.0992089
0.103359
0.107293
0.111011
0.114515
0.117807
0.120893
0.123779
0.126472
0.128978
0.131304
0.133455
0.135434
0.137241
0.138868
0.140301
0.141509
0.14244
0.142992
0.143058
0.142407
0.140674
0.137268
0.131189
0.122352
0.112113
0.101285
0.0903663
0.0796674
0.0693972
0.0596953
0.0506465
0.0423313
0.034795
0.0278067
0.021506
0.0160444
0.0114581
0.00777169
0.00497445
0.00299634
0.00170206
0.000917474
0.00047297
0.000234836
0.000113391
5.36007e-05
2.48673e-05
1.13443e-05
5.09678e-06
2.25837e-06
9.88195e-07
4.27541e-07
1.83105e-07
7.7702e-08
3.26898e-08
1.36282e-08
5.61332e-09
2.26302e-09
8.69125e-10
2.90973e-10
5.12352e-11
4.00925e-07
1.75345e-06
4.03397e-06
7.86943e-06
1.42913e-05
2.49766e-05
4.2615e-05
7.14519e-05
0.000118067
0.000192444
0.000309356
0.000490041
0.000763962
0.00117029
0.00175846
0.00258686
0.00371916
0.00521795
0.0071369
0.00951346
0.0123642
0.0156838
0.0194475
0.0236158
0.0281383
0.0329588
0.038018
0.0432565
0.0486164
0.054043
0.0594856
0.0648984
0.0702407
0.0754777
0.0805799
0.0855233
0.0902879
0.0948587
0.0992246
0.103379
0.107317
0.111039
0.114547
0.117842
0.120931
0.123819
0.126514
0.129021
0.131348
0.133499
0.135477
0.137283
0.138908
0.140336
0.141537
0.142458
0.142993
0.143034
0.142346
0.140555
0.137054
0.130823
0.121899
0.111613
0.100764
0.0898416
0.079151
0.0688995
0.0592228
0.0502052
0.0419283
0.034425
0.0274544
0.0211974
0.0157818
0.0112433
0.007605
0.00485344
0.00291502
0.00165161
0.000888393
0.000457217
0.000226723
0.0001094
5.16893e-05
2.39727e-05
1.09338e-05
4.91182e-06
2.17634e-06
9.52334e-07
4.12062e-07
1.76498e-07
7.49096e-08
3.152e-08
1.31425e-08
5.41395e-09
2.18283e-09
8.3836e-10
2.80668e-10
4.94352e-11
3.99868e-07
1.74882e-06
4.02331e-06
7.84857e-06
1.42532e-05
2.49097e-05
4.25003e-05
7.12591e-05
0.000117748
0.000191925
0.00030853
0.000488749
0.00076199
0.00116736
0.00175421
0.00258091
0.00371111
0.00520744
0.00712369
0.00949745
0.0123454
0.0156627
0.0194246
0.0235915
0.0281134
0.0329339
0.0379938
0.0432336
0.0485955
0.0540245
0.0594701
0.0648862
0.0702322
0.075473
0.0805793
0.0855266
0.0902953
0.09487
0.0992397
0.103397
0.107339
0.111064
0.114574
0.117872
0.120963
0.123853
0.126548
0.129056
0.131383
0.133535
0.135513
0.137317
0.13894
0.140365
0.14156
0.142472
0.142993
0.143015
0.142296
0.140456
0.136879
0.130523
0.121527
0.111204
0.100338
0.0894141
0.0787311
0.0684955
0.05884
0.0498479
0.041602
0.0341273
0.0271697
0.0209483
0.0155701
0.0110704
0.00747107
0.00475643
0.00284998
0.00161135
0.000865235
0.000444688
0.000220273
0.000106225
5.01682e-05
2.32602e-05
1.06067e-05
4.7643e-06
2.11088e-06
9.23697e-07
3.99694e-07
1.71216e-07
7.26762e-08
3.05841e-08
1.27538e-08
5.25435e-09
2.11863e-09
8.13728e-10
2.72417e-10
4.79948e-11
3.9905e-07
1.74524e-06
4.01506e-06
7.83242e-06
1.42238e-05
2.48581e-05
4.24118e-05
7.11103e-05
0.000117503
0.000191527
0.000307895
0.000487758
0.000760478
0.00116511
0.00175097
0.00257638
0.003705
0.0051995
0.00711374
0.00948546
0.0123315
0.015647
0.0194076
0.0235736
0.028095
0.0329156
0.0379762
0.0432171
0.0485806
0.0540117
0.0594596
0.0648783
0.0702272
0.0754711
0.0805804
0.0855309
0.0903027
0.0948803
0.0992529
0.103413
0.107357
0.111085
0.114597
0.117896
0.120988
0.123879
0.126576
0.129084
0.131412
0.133563
0.13554
0.137343
0.138964
0.140386
0.141577
0.142482
0.142992
0.143
0.142256
0.140377
0.136738
0.13028
0.121229
0.110877
0.0999999
0.0890754
0.0783996
0.0681776
0.0585396
0.0495682
0.0413471
0.0338946
0.0269472
0.020754
0.0154053
0.0109361
0.0073672
0.00468132
0.00279969
0.00158024
0.000847336
0.000435001
0.000215285
0.000103769
4.89906e-05
2.27084e-05
1.03533e-05
4.64999e-06
2.06014e-06
9.01495e-07
3.90103e-07
1.6712e-07
7.09437e-08
2.9858e-08
1.24522e-08
5.13053e-09
2.06882e-09
7.94622e-10
2.66017e-10
4.68782e-11
3.98453e-07
1.74263e-06
4.00904e-06
7.82066e-06
1.42023e-05
2.48204e-05
4.23474e-05
7.10021e-05
0.000117324
0.000191237
0.000307433
0.000487039
0.000759384
0.00116349
0.00174863
0.00257312
0.0037006
0.00519379
0.00710662
0.00947691
0.0123216
0.0156359
0.0193955
0.0235609
0.0280822
0.0329029
0.037964
0.0432058
0.0485705
0.0540031
0.0594528
0.0648735
0.0702245
0.0754706
0.0805822
0.085535
0.090309
0.0948888
0.0992634
0.103426
0.107372
0.111101
0.114614
0.117914
0.121007
0.123899
0.126596
0.129105
0.131432
0.133583
0.135559
0.137361
0.13898
0.140399
0.141587
0.142487
0.14299
0.142989
0.142227
0.140318
0.13663
0.130093
0.121
0.110628
0.0997445
0.0888212
0.078152
0.067941
0.0583166
0.0493612
0.041159
0.033723
0.0267831
0.020611
0.0152843
0.0108376
0.00729127
0.00462652
0.00276302
0.00155752
0.000834236
0.000427896
0.000211623
0.000101964
4.81253e-05
2.2303e-05
1.01671e-05
4.56602e-06
2.02287e-06
8.85191e-07
3.83061e-07
1.64112e-07
6.96721e-08
2.93251e-08
1.22309e-08
5.0397e-09
2.0323e-09
7.80614e-10
2.61326e-10
4.60602e-11
3.98064e-07
1.74093e-06
4.00513e-06
7.813e-06
1.41884e-05
2.4796e-05
4.23055e-05
7.09318e-05
0.000117208
0.000191049
0.000307135
0.000486574
0.000758676
0.00116244
0.00174712
0.00257101
0.00369777
0.00519012
0.00710205
0.00947142
0.0123153
0.0156288
0.0193879
0.0235529
0.028074
0.0328949
0.0379564
0.0431988
0.0485643
0.053998
0.0594488
0.0648708
0.0702232
0.0754708
0.0805839
0.0855381
0.0903136
0.0948948
0.0992707
0.103434
0.107381
0.111111
0.114625
0.117926
0.12102
0.123912
0.126609
0.129118
0.131446
0.133596
0.135572
0.137373
0.138991
0.140409
0.141594
0.142491
0.14299
0.142981
0.142207
0.140278
0.136557
0.129968
0.120847
0.110462
0.0995737
0.0886516
0.0779872
0.0677838
0.0581689
0.0492244
0.041035
0.0336099
0.0266751
0.0205172
0.015205
0.0107734
0.00724185
0.00459096
0.00273927
0.0015428
0.000825714
0.000423262
0.00020923
0.000100784
4.75594e-05
2.20378e-05
1.00454e-05
4.51112e-06
1.9985e-06
8.74532e-07
3.78457e-07
1.62146e-07
6.88408e-08
2.89767e-08
1.20863e-08
4.98032e-09
2.00842e-09
7.71454e-10
2.58258e-10
4.55258e-11
3.97876e-07
1.74011e-06
4.00324e-06
7.80931e-06
1.41817e-05
2.47842e-05
4.22855e-05
7.08983e-05
0.000117153
0.00019096
0.000306993
0.000486354
0.000758342
0.00116195
0.00174641
0.00257002
0.00369643
0.00518838
0.00709987
0.0094688
0.0123122
0.0156254
0.0193842
0.0235491
0.0280702
0.0328911
0.0379528
0.0431955
0.0485614
0.0539956
0.059447
0.0648696
0.0702227
0.075471
0.0805848
0.0855398
0.090316
0.0948978
0.0992744
0.103438
0.107386
0.111116
0.114631
0.117932
0.121026
0.123919
0.126616
0.129125
0.131452
0.133602
0.135578
0.137379
0.138996
0.140413
0.141598
0.142493
0.142989
0.142977
0.142197
0.140258
0.136522
0.129907
0.120772
0.11038
0.0994893
0.0885677
0.0779058
0.0677064
0.0580963
0.0491573
0.0409744
0.0335547
0.0266227
0.0204718
0.015167
0.0107427
0.00721842
0.00457421
0.00272814
0.00153591
0.000821724
0.000421088
0.000208106
0.00010023
4.7293e-05
2.19128e-05
9.98795e-06
4.48518e-06
1.98697e-06
8.6948e-07
3.76271e-07
1.6121e-07
6.84441e-08
2.88101e-08
1.20169e-08
4.95175e-09
1.99689e-09
7.67023e-10
2.5677e-10
4.52668e-11
3.97877e-07
1.74011e-06
4.00324e-06
7.80933e-06
1.41817e-05
2.47843e-05
4.22856e-05
7.08984e-05
0.000117153
0.00019096
0.000306994
0.000486355
0.000758343
0.00116195
0.00174641
0.00257002
0.00369643
0.00518838
0.00709987
0.0094688
0.0123122
0.0156254
0.0193842
0.0235491
0.0280702
0.0328911
0.0379528
0.0431955
0.0485614
0.0539955
0.059447
0.0648696
0.0702227
0.075471
0.0805848
0.0855398
0.090316
0.0948978
0.0992744
0.103438
0.107386
0.111116
0.114631
0.117932
0.121026
0.123919
0.126616
0.129125
0.131452
0.133602
0.135578
0.137379
0.138996
0.140414
0.141598
0.142493
0.14299
0.142977
0.142197
0.140258
0.136522
0.129908
0.120773
0.110381
0.0994898
0.088568
0.077906
0.0677064
0.0580962
0.0491573
0.0409744
0.0335546
0.0266226
0.0204718
0.0151669
0.0107427
0.00721841
0.0045742
0.00272814
0.00153591
0.000821722
0.000421087
0.000208105
0.000100229
4.7293e-05
2.19128e-05
9.98795e-06
4.48518e-06
1.98697e-06
8.6948e-07
3.76271e-07
1.61211e-07
6.84442e-08
2.88101e-08
1.20169e-08
4.95176e-09
1.9969e-09
7.67025e-10
2.56771e-10
4.52677e-11
3.98067e-07
1.74094e-06
4.00515e-06
7.81305e-06
1.41885e-05
2.47961e-05
4.23057e-05
7.09321e-05
0.000117209
0.00019105
0.000307136
0.000486576
0.000758678
0.00116244
0.00174712
0.00257102
0.00369777
0.00519013
0.00710205
0.00947143
0.0123153
0.0156288
0.0193879
0.0235529
0.028074
0.0328949
0.0379563
0.0431988
0.0485643
0.0539979
0.0594488
0.0648708
0.0702232
0.0754707
0.0805838
0.0855381
0.0903136
0.0948947
0.0992706
0.103434
0.107381
0.111111
0.114625
0.117926
0.12102
0.123912
0.126609
0.129118
0.131446
0.133596
0.135572
0.137373
0.138991
0.140409
0.141595
0.142491
0.14299
0.142982
0.142207
0.140279
0.136559
0.129972
0.120851
0.110465
0.0995754
0.0886526
0.0779877
0.067784
0.0581689
0.0492243
0.0410349
0.0336096
0.026675
0.0205171
0.0152049
0.0107733
0.00724181
0.00459093
0.00273926
0.00154279
0.000825709
0.00042326
0.000209229
0.000100784
4.75592e-05
2.20377e-05
1.00454e-05
4.51112e-06
1.9985e-06
8.74534e-07
3.78459e-07
1.62147e-07
6.88412e-08
2.89769e-08
1.20864e-08
4.98036e-09
2.00844e-09
7.71462e-10
2.58259e-10
4.55283e-11
3.98456e-07
1.74265e-06
4.00908e-06
7.82072e-06
1.42025e-05
2.48206e-05
4.23477e-05
7.10025e-05
0.000117325
0.000191238
0.000307435
0.000487041
0.000759386
0.00116349
0.00174863
0.00257312
0.00370061
0.00519379
0.00710663
0.00947691
0.0123216
0.0156359
0.0193955
0.0235609
0.0280821
0.0329029
0.0379639
0.0432058
0.0485704
0.054003
0.0594527
0.0648734
0.0702244
0.0754705
0.0805821
0.0855349
0.0903089
0.0948887
0.0992633
0.103426
0.107372
0.1111
0.114613
0.117914
0.121007
0.123899
0.126596
0.129105
0.131432
0.133583
0.13556
0.137362
0.138981
0.1404
0.141588
0.142488
0.142991
0.142989
0.142227
0.140319
0.136632
0.130098
0.121005
0.110632
0.0997468
0.0888224
0.0781526
0.0679411
0.0583165
0.0493609
0.0411587
0.0337227
0.0267829
0.0206109
0.0152841
0.0108375
0.0072912
0.00462648
0.002763
0.00155751
0.00083423
0.000427894
0.000211622
0.000101964
4.81252e-05
2.2303e-05
1.01672e-05
4.56604e-06
2.02288e-06
8.85198e-07
3.83065e-07
1.64114e-07
6.9673e-08
2.93256e-08
1.22311e-08
5.0398e-09
2.03234e-09
7.80629e-10
2.61328e-10
4.60645e-11
3.99055e-07
1.74527e-06
4.01511e-06
7.83252e-06
1.42239e-05
2.48583e-05
4.24122e-05
7.11109e-05
0.000117503
0.000191528
0.000307896
0.00048776
0.000760481
0.00116512
0.00175097
0.00257639
0.003705
0.0051995
0.00711374
0.00948545
0.0123315
0.015647
0.0194075
0.0235735
0.028095
0.0329156
0.0379761
0.043217
0.0485805
0.0540116
0.0594595
0.0648782
0.0702271
0.0754709
0.0805802
0.0855307
0.0903025
0.0948801
0.0992527
0.103413
0.107357
0.111085
0.114596
0.117896
0.120988
0.123879
0.126576
0.129084
0.131412
0.133563
0.13554
0.137343
0.138964
0.140386
0.141577
0.142482
0.142992
0.143
0.142256
0.140378
0.136739
0.130283
0.121232
0.110879
0.100001
0.0890759
0.0783997
0.0681774
0.0585392
0.0495678
0.0413467
0.0338942
0.0269469
0.0207538
0.0154051
0.0109359
0.00736711
0.00468127
0.00279966
0.00158022
0.000847328
0.000434997
0.000215284
0.000103768
4.89905e-05
2.27084e-05
1.03534e-05
4.65002e-06
2.06015e-06
9.01505e-07
3.90108e-07
1.67122e-07
7.0945e-08
2.98586e-08
1.24525e-08
5.13066e-09
2.06888e-09
7.94643e-10
2.66021e-10
4.68842e-11
3.99875e-07
1.74885e-06
4.02337e-06
7.84868e-06
1.42534e-05
2.49101e-05
4.25009e-05
7.12599e-05
0.000117749
0.000191927
0.000308532
0.000488752
0.000761994
0.00116736
0.00175421
0.00258091
0.00371111
0.00520744
0.00712368
0.00949743
0.0123454
0.0156626
0.0194245
0.0235914
0.0281133
0.0329338
0.0379936
0.0432335
0.0485953
0.0540244
0.0594699
0.064886
0.070232
0.0754728
0.080579
0.0855264
0.0902951
0.0948697
0.0992394
0.103397
0.107339
0.111064
0.114574
0.117872
0.120962
0.123852
0.126548
0.129056
0.131383
0.133534
0.135513
0.137317
0.13894
0.140365
0.14156
0.142472
0.142993
0.143015
0.142295
0.140456
0.136879
0.130523
0.121528
0.111204
0.100338
0.0894138
0.0787306
0.0684949
0.0588395
0.0498474
0.0416015
0.0341268
0.0271693
0.020948
0.0155699
0.0110703
0.00747096
0.00475636
0.00284994
0.00161133
0.000865226
0.000444684
0.000220272
0.000106225
5.01681e-05
2.32602e-05
1.06068e-05
4.76433e-06
2.1109e-06
9.23709e-07
3.997e-07
1.7122e-07
7.26778e-08
3.05848e-08
1.27541e-08
5.25451e-09
2.1187e-09
8.13756e-10
2.72422e-10
4.80023e-11
4.00933e-07
1.75348e-06
4.03404e-06
7.86957e-06
1.42915e-05
2.4977e-05
4.26156e-05
7.14528e-05
0.000118068
0.000192445
0.000309359
0.000490044
0.000763966
0.0011703
0.00175846
0.00258686
0.00371916
0.00521794
0.00713688
0.00951342
0.0123641
0.0156837
0.0194474
0.0236157
0.0281382
0.0329586
0.0380178
0.0432563
0.0486162
0.0540428
0.0594854
0.0648981
0.0702405
0.0754774
0.0805797
0.085523
0.0902877
0.0948584
0.0992243
0.103378
0.107317
0.111039
0.114546
0.117842
0.120931
0.123819
0.126513
0.129021
0.131347
0.133498
0.135477
0.137282
0.138907
0.140336
0.141537
0.142457
0.142993
0.143034
0.142345
0.140554
0.137054
0.130823
0.121899
0.111613
0.100763
0.0898409
0.0791502
0.0688987
0.0592222
0.0502046
0.0419278
0.0344246
0.027454
0.0211971
0.0157816
0.0112432
0.00760487
0.00485336
0.00291498
0.00165158
0.000888381
0.000457212
0.000226721
0.000109399
5.16892e-05
2.39727e-05
1.09339e-05
4.91185e-06
2.17636e-06
9.52348e-07
4.1207e-07
1.76502e-07
7.49116e-08
3.1521e-08
1.3143e-08
5.41415e-09
2.18292e-09
8.38395e-10
2.80675e-10
4.94442e-11
4.02249e-07
1.75924e-06
4.04732e-06
7.89556e-06
1.4339e-05
2.50604e-05
4.27587e-05
7.16939e-05
0.000118468
0.000193095
0.000310397
0.000491668
0.000766451
0.001174
0.00176383
0.0025944
0.0037294
0.00523136
0.00715384
0.00953412
0.0123886
0.0157119
0.0194777
0.0236475
0.028171
0.0329916
0.0380502
0.0432873
0.048645
0.0540686
0.0595077
0.0649164
0.0702542
0.0754865
0.0805837
0.085522
0.0902817
0.0948474
0.0992086
0.103358
0.107292
0.111011
0.114514
0.117807
0.120893
0.123779
0.126472
0.128978
0.131303
0.133454
0.135434
0.13724
0.138868
0.140301
0.141508
0.142439
0.142992
0.143057
0.142406
0.140674
0.137267
0.131189
0.122351
0.112112
0.101284
0.0903654
0.0796665
0.0693964
0.0596945
0.0506458
0.0423308
0.0347945
0.0278062
0.0215056
0.0160441
0.0114579
0.00777155
0.00497436
0.00299628
0.00170203
0.00091746
0.000472964
0.000234833
0.00011339
5.36005e-05
2.48673e-05
1.13443e-05
5.09682e-06
2.2584e-06
9.88212e-07
4.2755e-07
1.8311e-07
7.77044e-08
3.26909e-08
1.36287e-08
5.61357e-09
2.26313e-09
8.69168e-10
2.90982e-10
5.12454e-11
4.03843e-07
1.76621e-06
4.0634e-06
7.92708e-06
1.43966e-05
2.51618e-05
4.29328e-05
7.19875e-05
0.000118954
0.000193888
0.000311666
0.000493659
0.000769503
0.00117856
0.00177045
0.00260372
0.00374206
0.00524793
0.00717472
0.0095594
0.012418
0.0157445
0.0195147
0.0236876
0.028213
0.0330344
0.0380926
0.0433282
0.0486836
0.054104
0.059539
0.0649429
0.0702755
0.075502
0.0805933
0.0855254
0.0902789
0.0948386
0.0991938
0.103338
0.107267
0.11098
0.114479
0.117768
0.12085
0.123733
0.126423
0.128928
0.131252
0.133403
0.135382
0.13719
0.138821
0.140258
0.141474
0.142417
0.142991
0.143084
0.142479
0.140817
0.137523
0.131627
0.122895
0.112713
0.101911
0.0909978
0.0802897
0.069998
0.0602662
0.0511805
0.0428197
0.035243
0.0282317
0.0218789
0.0163623
0.0117188
0.0079745
0.00512215
0.00309592
0.00176404
0.000953293
0.000492405
0.000244852
0.000118323
5.59625e-05
2.59719e-05
1.18506e-05
5.32477e-06
2.3594e-06
1.03233e-06
4.46576e-07
1.91225e-07
8.11318e-08
3.41259e-08
1.42242e-08
5.85792e-09
2.36138e-09
9.06858e-10
3.03606e-10
5.34511e-11
4.05731e-07
1.77448e-06
4.08247e-06
7.96447e-06
1.44649e-05
2.52823e-05
4.31402e-05
7.23377e-05
0.000119536
0.000194839
0.00031319
0.000496055
0.000773185
0.00118408
0.00177849
0.00261506
0.00375753
0.00526831
0.0072006