/*--------------------------------*- C++ -*----------------------------------*\
  =========                 |
  \\      /  F ield         | OpenFOAM: The Open Source CFD Toolbox
   \\    /   O peration     | Website:  https://openfoam.org
    \\  /    A nd           | Version:  8
     \\/     M anipulation  |
\*---------------------------------------------------------------------------*/
FoamFile
{
    version     2.0;
    format      ascii;
    class       volScalarField;
    location    "0.25/fluid";
    object      H2O;
}
// * * * * * * * * * * * * * * * * * * * * * * * * * * * * * * * * * * * * * //

dimensions      [0 0 0 0 0 0 0];

internalField   nonuniform List<scalar> 
4000
(
3.4916e-07
1.52705e-06
3.5134e-06
6.85582e-06
1.24587e-05
2.18006e-05
3.72697e-05
6.26684e-05
0.000103946
0.00017022
0.000275113
0.000438379
0.000687562
0.00105973
0.00160096
0.00236487
0.00340848
0.0047852
0.006537
0.00868808
0.0112419
0.0141822
0.0174766
0.0210818
0.0249475
0.0290209
0.0332485
0.0375789
0.0419772
0.0464038
0.0508012
0.0551383
0.0593882
0.0635278
0.0675387
0.0714058
0.0751178
0.0786664
0.0820468
0.0852565
0.0882953
0.091165
0.0938686
0.0964104
0.0987956
0.10103
0.10312
0.105071
0.106891
0.108583
0.110153
0.111604
0.112936
0.114146
0.115223
0.116148
0.116888
0.117382
0.117544
0.117234
0.116213
0.114094
0.110241
0.10388
0.0961685
0.0878085
0.0792295
0.0706998
0.062388
0.0544136
0.0468547
0.0397657
0.0332083
0.0271929
0.0215374
0.0165129
0.0121717
0.00851803
0.00560425
0.00343956
0.001964
0.00104751
0.000526482
0.000252748
0.000117748
5.35686e-05
2.39049e-05
1.04984e-05
4.54954e-06
1.94969e-06
8.27745e-07
3.48657e-07
1.45865e-07
6.06447e-08
2.50424e-08
1.02395e-08
4.10707e-09
1.57271e-09
5.26272e-10
9.23429e-11
3.49073e-07
1.52692e-06
3.51421e-06
6.86048e-06
1.24735e-05
2.18365e-05
3.73422e-05
6.27906e-05
0.000104109
0.000170346
0.000274974
0.000437429
0.000684788
0.00105274
0.00158607
0.0023374
0.00336261
0.00471453
0.00643563
0.00855168
0.0110685
0.0139727
0.0172343
0.020812
0.0246572
0.0287179
0.0329415
0.0372863
0.0417036
0.0461211
0.0505217
0.0548701
0.0591362
0.0632952
0.0673271
0.0712161
0.0749499
0.0785201
0.0819211
0.0851504
0.0882075
0.0910941
0.0938132
0.0963692
0.0987671
0.101013
0.103113
0.105073
0.1069
0.108598
0.110174
0.111629
0.112963
0.114173
0.115249
0.116169
0.116899
0.117374
0.117508
0.117151
0.116053
0.113811
0.109754
0.10325
0.0954439
0.0870189
0.0783947
0.0698337
0.0615016
0.0535197
0.0459652
0.0388969
0.0323879
0.0264205
0.0208636
0.0158994
0.0115757
0.00799834
0.00519566
0.00315288
0.00178632
0.000950285
0.000479052
0.000231451
0.00010873
4.992e-05
2.24798e-05
9.9558e-06
4.34605e-06
1.87368e-06
7.99177e-07
3.37762e-07
1.4163e-07
5.89668e-08
2.43686e-08
9.96775e-09
3.99862e-09
1.53127e-09
5.12406e-10
8.99344e-11
3.49757e-07
1.53009e-06
3.52227e-06
6.87802e-06
1.25083e-05
2.19007e-05
3.74531e-05
6.2963e-05
0.000104344
0.000170598
0.000275085
0.000437005
0.000682918
0.0010478
0.00157591
0.00231852
0.0033303
0.0046632
0.00635935
0.00844504
0.0109275
0.0137951
0.0170203
0.020564
0.0243795
0.0284164
0.0326276
0.0369701
0.0413603
0.0457795
0.0501871
0.0545473
0.0588294
0.0630078
0.0670617
0.0709745
0.0747333
0.0783288
0.081755
0.085009
0.0880899
0.090999
0.0937392
0.0963147
0.0987306
0.100993
0.103107
0.105081
0.106919
0.108627
0.110211
0.111672
0.11301
0.114221
0.115294
0.116205
0.116919
0.117362
0.117448
0.117013
0.115788
0.113339
0.108941
0.10222
0.0942744
0.0857608
0.0770838
0.0684963
0.0601583
0.0521924
0.0446712
0.0376552
0.03122
0.0253023
0.0198154
0.0149757
0.010832
0.00743134
0.00479578
0.0028967
0.00163828
0.000872655
0.000441561
0.000214275
0.000101143
4.66597e-05
2.11091e-05
9.38941e-06
4.11493e-06
1.78008e-06
7.6138e-07
3.22488e-07
1.35437e-07
5.64458e-08
2.33408e-08
9.54964e-09
3.83064e-09
1.46667e-09
4.90656e-10
8.61055e-11
3.49318e-07
1.52816e-06
3.51772e-06
6.86847e-06
1.24882e-05
2.18565e-05
3.73504e-05
6.27362e-05
0.000103861
0.00016961
0.000273142
0.000433355
0.00067641
0.00103691
0.00155815
0.00229063
0.00328833
0.00460279
0.00627623
0.00833553
0.010789
0.0136264
0.0168218
0.0203374
0.0241278
0.0281438
0.0323486
0.0366573
0.0410442
0.0454643
0.0498772
0.0542469
0.0585424
0.0627375
0.0668107
0.0707449
0.0745266
0.0781459
0.0815963
0.0848743
0.0879788
0.0909106
0.0936725
0.0962683
0.0987032
0.100983
0.103113
0.1051
0.106951
0.10867
0.110262
0.111729
0.113071
0.114282
0.11535
0.116251
0.116943
0.117348
0.117377
0.116846
0.115468
0.112771
0.107967
0.100994
0.0928942
0.0842909
0.0755692
0.0669703
0.0586507
0.0507269
0.0432693
0.0363403
0.0300106
0.0241721
0.0188091
0.014112
0.0101248
0.00688547
0.00440441
0.00263942
0.00148404
0.000787936
0.000398436
0.000193623
9.16291e-05
4.24074e-05
1.92535e-05
8.59534e-06
3.78059e-06
1.64119e-06
7.04288e-07
2.99206e-07
1.25996e-07
5.26347e-08
2.18084e-08
8.93719e-09
3.58935e-09
1.37545e-09
4.60334e-10
8.08166e-11
3.4788e-07
1.52176e-06
3.50257e-06
6.83764e-06
1.24292e-05
2.17468e-05
3.71514e-05
6.23753e-05
0.000103209
0.000168443
0.00027108
0.000429778
0.000670345
0.00102691
0.00154215
0.00226593
0.00325166
0.00455053
0.00620482
0.00824191
0.010671
0.013483
0.0166531
0.0201446
0.0239131
0.0279142
0.0320892
0.0363918
0.0407753
0.0451957
0.0496126
0.0539901
0.0582968
0.062506
0.0665958
0.0705487
0.0743506
0.077991
0.0814632
0.0847629
0.0878889
0.0908417
0.0936236
0.0962387
0.0986915
0.100987
0.103132
0.105133
0.106995
0.108724
0.110323
0.111796
0.113141
0.114351
0.115413
0.116301
0.116969
0.117334
0.117302
0.116671
0.11513
0.112172
0.106941
0.0997119
0.0914607
0.0827759
0.0740213
0.065425
0.05714
0.0492748
0.0418975
0.035073
0.0288557
0.0230922
0.0178636
0.0133125
0.00947925
0.0063946
0.00405832
0.00241579
0.00135198
0.00071614
0.000362026
0.00017613
8.35064e-05
3.87336e-05
1.76265e-05
7.88707e-06
3.47659e-06
1.51222e-06
6.50104e-07
2.76623e-07
1.16648e-07
4.87886e-08
2.02351e-08
8.29912e-09
3.33514e-09
1.27849e-09
4.27907e-10
7.51406e-11
3.45715e-07
1.51219e-06
3.48008e-06
6.79244e-06
1.23439e-05
2.15911e-05
3.68724e-05
6.18819e-05
0.000102347
0.000166957
0.000268559
0.000425583
0.000663518
0.00101608
0.00152549
0.00224112
0.00321599
0.00450118
0.0061391
0.00815764
0.0105668
0.0133584
0.0165086
0.0199819
0.0237345
0.0277255
0.0318847
0.0361775
0.0405561
0.0449759
0.0493961
0.0537802
0.0580965
0.062318
0.0664223
0.0703915
0.0742109
0.0778698
0.0813609
0.0846798
0.0878247
0.0907959
0.0935958
0.0962276
0.0986957
0.101006
0.103164
0.105176
0.107048
0.108786
0.110392
0.111869
0.113216
0.114424
0.115479
0.116352
0.116997
0.117323
0.117228
0.116496
0.114796
0.111583
0.105938
0.0984641
0.090073
0.0813175
0.0725402
0.063956
0.0557143
0.0479148
0.0406236
0.0339093
0.0277969
0.0220979
0.0170019
0.01259
0.0088998
0.00595624
0.00375003
0.00221628
0.00123337
0.000650883
0.000328393
0.000159726
7.57749e-05
3.51889e-05
1.60381e-05
7.18895e-06
3.17476e-06
1.38353e-06
5.95873e-07
2.53989e-07
1.07279e-07
4.49348e-08
1.86598e-08
7.66083e-09
3.08106e-09
1.18164e-09
3.95535e-10
6.94778e-11
3.43255e-07
1.50137e-06
3.45485e-06
6.7423e-06
1.22507e-05
2.14234e-05
3.6577e-05
6.13693e-05
0.00010147
0.000165476
0.000266098
0.000421566
0.000657097
0.00100606
0.00151029
0.00221876
0.00318421
0.00445762
0.00608157
0.00808442
0.0104768
0.0132514
0.0163854
0.0198441
0.023588
0.0275561
0.0317093
0.0359983
0.0403756
0.0447968
0.0492211
0.0536119
0.0579373
0.0621699
0.0662871
0.0702705
0.0741053
0.0777802
0.0812877
0.0846231
0.0877843
0.0907716
0.0935866
0.0962325
0.098714
0.101037
0.103206
0.105228
0.107109
0.108853
0.110464
0.111945
0.113291
0.114497
0.115544
0.116404
0.117022
0.11731
0.117154
0.116326
0.114475
0.111021
0.104993
0.0972963
0.0887812
0.0799668
0.0711752
0.0626084
0.0544125
0.0466788
0.0394714
0.0328627
0.0268408
0.0212138
0.0162386
0.0119527
0.00839122
0.00557401
0.0034833
0.00204505
0.00113225
0.000595472
0.00029986
0.00014578
6.91731e-05
3.21434e-05
1.46632e-05
6.57959e-06
2.90899e-06
1.26921e-06
5.47282e-07
2.33553e-07
9.87563e-08
4.14063e-08
1.72094e-08
7.07045e-09
2.8452e-09
1.09153e-09
3.6537e-10
6.41982e-11
3.40716e-07
1.49021e-06
3.42894e-06
6.69099e-06
1.21557e-05
2.12536e-05
3.62799e-05
6.08581e-05
0.000100603
0.000164027
0.000263717
0.000417727
0.000651039
0.000996737
0.00149632
0.00219849
0.00315578
0.00441912
0.00603129
0.00802103
0.0103995
0.0131598
0.0162795
0.0197235
0.0234528
0.0274164
0.031566
0.0358529
0.0402303
0.0446537
0.0490824
0.0534797
0.0578135
0.0620562
0.0661849
0.0701808
0.0740289
0.0777178
0.0812394
0.0845889
0.0877642
0.0907648
0.0935923
0.0962503
0.098743
0.101076
0.103254
0.105284
0.107172
0.108921
0.110537
0.112019
0.113365
0.114567
0.115606
0.11645
0.117042
0.117292
0.117076
0.116154
0.114158
0.110474
0.104111
0.096222
0.0876036
0.0787434
0.0699448
0.0613989
0.0532485
0.045577
0.0384475
0.0319357
0.0259817
0.0204485
0.015576
0.0113994
0.00795069
0.00524412
0.00325404
0.00189833
0.00104569
0.000547951
0.000275285
0.00013371
6.34288e-05
2.94794e-05
1.34545e-05
6.04147e-06
2.67334e-06
1.1675e-06
5.03937e-07
2.15275e-07
9.11159e-08
3.82368e-08
1.59046e-08
6.53861e-09
2.63248e-09
1.01024e-09
3.38182e-10
5.94375e-11
3.38266e-07
1.47947e-06
3.40404e-06
6.64186e-06
1.20652e-05
2.10926e-05
3.6e-05
6.03795e-05
9.97969e-05
0.000162691
0.00026154
0.000414246
0.000645592
0.00098842
0.00148397
0.00218071
0.00313103
0.00438587
0.00598824
0.00796728
0.0103348
0.0130846
0.0161952
0.019634
0.0233518
0.0273078
0.0314528
0.0357377
0.0401153
0.0445411
0.0489742
0.0533777
0.0577192
0.061971
0.0661098
0.0701167
0.0739764
0.0776772
0.0812109
0.0845726
0.0877593
0.090771
0.0936092
0.0962772
0.0987791
0.10112
0.103306
0.105342
0.107235
0.108989
0.110607
0.11209
0.113434
0.114631
0.115661
0.11649
0.117055
0.117266
0.116986
0.115965
0.11381
0.10987
0.103262
0.0952323
0.0865393
0.0776488
0.068851
0.0603294
0.0522227
0.0446088
0.0375499
0.0311208
0.0252318
0.0197822
0.0150005
0.0109201
0.00757051
0.00496087
0.00305836
0.00177383
0.000972553
0.000507898
0.000254579
0.000123527
5.8571e-05
2.72193e-05
1.24253e-05
5.58148e-06
2.47112e-06
1.07989e-06
4.66465e-07
1.99417e-07
8.44657e-08
3.54705e-08
1.47629e-08
6.07236e-09
2.44569e-09
9.3878e-10
3.14282e-10
5.52517e-11
3.35995e-07
1.46951e-06
3.38101e-06
6.59652e-06
1.19818e-05
2.09448e-05
3.57439e-05
5.99435e-05
9.90663e-05
0.000161486
0.000259587
0.000411142
0.000640765
0.000981098
0.00147317
0.00216526
0.00310966
0.00435733
0.00595147
0.00792151
0.0102796
0.0130198
0.0161205
0.0195501
0.0232646
0.0272177
0.0313609
0.0356455
0.0400245
0.0444532
0.0488907
0.0533001
0.0576487
0.0619086
0.0660564
0.0700729
0.0739426
0.0776536
0.0811976
0.0845692
0.0877656
0.0907866
0.0936336
0.0963098
0.0988191
0.101167
0.103359
0.1054
0.107297
0.109053
0.110673
0.112156
0.113498
0.11469
0.11571
0.116523
0.117061
0.117233
0.11689
0.11577
0.113456
0.109253
0.102468
0.0943363
0.0855908
0.076682
0.0678901
0.0593951
0.0513291
0.0437676
0.0367726
0.0304151
0.0245785
0.0192037
0.0145022
0.0105067
0.00724395
0.00471883
0.00289206
0.00166853
0.000910906
0.000474185
0.000237146
0.000114943
5.44677e-05
2.53059e-05
1.15518e-05
5.19019e-06
2.29872e-06
1.00505e-06
4.34383e-07
1.85811e-07
7.87497e-08
3.30887e-08
1.37786e-08
5.66984e-09
2.28428e-09
8.7698e-10
2.93606e-10
5.16307e-11
3.33953e-07
1.46057e-06
3.36033e-06
6.55588e-06
1.19073e-05
2.0813e-05
3.55162e-05
5.95571e-05
9.8421e-05
0.000160427
0.000257877
0.000408435
0.000636577
0.000974777
0.0014639
0.00215207
0.00309153
0.00433329
0.00592075
0.0078837
0.0102346
0.0129683
0.0160634
0.0194867
0.0231966
0.0271467
0.0312884
0.0355732
0.0399537
0.0443854
0.0488272
0.053242
0.057597
0.0618641
0.0660197
0.0700445
0.0739228
0.0776425
0.081195
0.0845749
0.0877795
0.0908082
0.0936624
0.0963451
0.0988605
0.101213
0.10341
0.105455
0.107354
0.109113
0.110733
0.112216
0.113556
0.114742
0.115754
0.116551
0.117063
0.117199
0.116799
0.115587
0.113126
0.108684
0.101758
0.0935456
0.0847604
0.0758399
0.0670564
0.0585869
0.0505581
0.0430433
0.0361052
0.0298085
0.0240129
0.0187041
0.0140733
0.0101519
0.00696496
0.00451309
0.00275148
0.00157997
0.000859254
0.000446001
0.000222583
0.000107769
5.10351e-05
2.37028e-05
1.08189e-05
4.86123e-06
2.15356e-06
9.4191e-07
4.07258e-07
1.74286e-07
7.38989e-08
3.10643e-08
1.29407e-08
5.32683e-09
2.14659e-09
8.24231e-10
2.75952e-10
4.85406e-11
3.32159e-07
1.45271e-06
3.34219e-06
6.52027e-06
1.1842e-05
2.06979e-05
3.53178e-05
5.92212e-05
9.78617e-05
0.000159511
0.000256403
0.000406112
0.000632996
0.000969393
0.00145603
0.00214093
0.00307627
0.00431314
0.0058951
0.00785224
0.0101974
0.0129258
0.0160172
0.0194357
0.0231421
0.0270902
0.0312313
0.0355166
0.039899
0.0443337
0.0487796
0.0531993
0.05756
0.0618334
0.0659958
0.0700277
0.0739133
0.0776402
0.0811999
0.0845867
0.0877979
0.0908329
0.093693
0.096381
0.0989011
0.101258
0.103458
0.105506
0.107408
0.109167
0.110788
0.112269
0.113607
0.114788
0.115791
0.116575
0.117065
0.117169
0.116717
0.115425
0.112837
0.108188
0.101141
0.0928615
0.0840444
0.0751158
0.0663409
0.0578946
0.0498986
0.0424248
0.0355367
0.0292912
0.0235271
0.018276
0.0137066
0.00984968
0.00672818
0.00433928
0.00263331
0.00150585
0.000816171
0.000422539
0.00021047
0.000101802
4.81776e-05
2.23671e-05
1.02075e-05
4.58664e-06
2.0322e-06
8.89038e-07
3.84511e-07
1.64607e-07
6.98194e-08
2.93596e-08
1.22345e-08
5.03743e-09
2.03034e-09
7.7967e-10
2.61032e-10
4.59321e-11
3.30614e-07
1.44595e-06
3.32659e-06
6.48967e-06
1.17861e-05
2.05993e-05
3.51481e-05
5.89345e-05
9.73855e-05
0.000158733
0.000255156
0.000404151
0.000629981
0.000964877
0.00144945
0.00213164
0.00306359
0.00429645
0.0058739
0.00782623
0.0101665
0.01289
0.0159766
0.019393
0.0230979
0.0270451
0.0311863
0.0354727
0.0398571
0.0442947
0.0487443
0.0531684
0.0575342
0.0618131
0.0659813
0.0700192
0.0739109
0.0776438
0.0812094
0.084602
0.0878186
0.0908587
0.0937234
0.0964156
0.0989394
0.1013
0.103502
0.105552
0.107455
0.109216
0.110837
0.112317
0.113652
0.114829
0.115824
0.116596
0.117066
0.117142
0.116647
0.115286
0.112589
0.107763
0.100614
0.0922779
0.0834345
0.0744999
0.0657333
0.0573074
0.04934
0.0419016
0.0350566
0.0288535
0.0231134
0.0179123
0.0133959
0.00959424
0.00652879
0.00419355
0.00253466
0.00144424
0.000780467
0.000403134
0.000200461
9.68714e-05
4.58163e-05
2.1263e-05
9.70195e-06
4.3593e-06
1.93159e-06
8.45142e-07
3.656e-07
1.5655e-07
6.64196e-08
2.79374e-08
1.16447e-08
4.79558e-09
1.93314e-09
7.42394e-10
2.48549e-10
4.37507e-11
3.29311e-07
1.44024e-06
3.31343e-06
6.46389e-06
1.1739e-05
2.05164e-05
3.50056e-05
5.86943e-05
9.69871e-05
0.000158083
0.000254117
0.000402521
0.000627483
0.000961143
0.00144403
0.00212401
0.00305323
0.00428288
0.00585681
0.00780553
0.0101425
0.0128633
0.0159463
0.0193601
0.0230635
0.0270101
0.0311515
0.0354391
0.0398254
0.0442657
0.0487186
0.0531467
0.0575168
0.0618004
0.0659734
0.0700164
0.0739131
0.077651
0.0812215
0.0846187
0.0878397
0.0908838
0.0937522
0.0964477
0.0989743
0.101337
0.103542
0.105593
0.107497
0.109258
0.110879
0.112358
0.11369
0.114863
0.115852
0.116614
0.117067
0.11712
0.116587
0.115169
0.11238
0.107403
0.100168
0.091786
0.0829211
0.0739821
0.065223
0.0568149
0.048872
0.0414638
0.0346563
0.0284863
0.0227651
0.0176067
0.0131354
0.00938067
0.00636261
0.00407254
0.00245308
0.00139346
0.000751128
0.000387217
0.000192258
9.2832e-05
4.38824e-05
2.03587e-05
9.28746e-06
4.17269e-06
1.84891e-06
8.09027e-07
3.50024e-07
1.49907e-07
6.3614e-08
2.67629e-08
1.11573e-08
4.59557e-09
1.85271e-09
7.11545e-10
2.38217e-10
4.19458e-11
3.28234e-07
1.43553e-06
3.30257e-06
6.44263e-06
1.17002e-05
2.04481e-05
3.48885e-05
5.8497e-05
9.66605e-05
0.000157552
0.000253267
0.000401192
0.000625449
0.00095811
0.00143963
0.00211784
0.00304484
0.00427189
0.00584292
0.00778858
0.0101224
0.0128402
0.0159215
0.019334
0.0230366
0.0269831
0.031125
0.0354137
0.0398019
0.0442446
0.0487004
0.0531317
0.0575055
0.0617929
0.0659701
0.0700171
0.0739179
0.07766
0.0812343
0.0846353
0.0878597
0.090907
0.0937782
0.0964762
0.0990051
0.10137
0.103576
0.105628
0.107533
0.109294
0.110914
0.112392
0.113723
0.114892
0.115875
0.116629
0.117067
0.117101
0.116537
0.115071
0.112205
0.107104
0.0997976
0.0913768
0.0824946
0.0735525
0.0648002
0.0564074
0.0484852
0.0411025
0.0343264
0.0281835
0.0224767
0.0173541
0.0129204
0.00920482
0.00622614
0.00397347
0.0023865
0.00135216
0.000727319
0.00037432
0.000185616
8.95644e-05
4.23176e-05
1.96262e-05
8.95144e-06
4.02126e-06
1.78175e-06
7.79668e-07
3.37352e-07
1.44497e-07
6.13278e-08
2.58052e-08
1.07596e-08
4.43235e-09
1.78706e-09
6.86358e-10
2.2978e-10
4.04722e-11
3.27369e-07
1.43175e-06
3.29385e-06
6.42555e-06
1.1669e-05
2.03934e-05
3.47947e-05
5.83392e-05
9.63995e-05
0.000157128
0.000252591
0.000400135
0.000623834
0.000955707
0.00143616
0.00211297
0.00303825
0.00426329
0.0058321
0.00777548
0.0101071
0.0128229
0.0159027
0.0193142
0.0230162
0.0269627
0.0311052
0.035395
0.0397847
0.0442294
0.0486876
0.0531217
0.0574985
0.0617891
0.0659695
0.0700199
0.073924
0.0776692
0.0812466
0.0846505
0.0878776
0.0909273
0.0938007
0.0965007
0.0990311
0.101397
0.103604
0.105657
0.107563
0.109324
0.110943
0.11242
0.113749
0.114915
0.115894
0.11664
0.117067
0.117085
0.116496
0.11499
0.112061
0.106858
0.0994934
0.0910417
0.0821462
0.0732025
0.0644564
0.0560766
0.0481718
0.0408101
0.0340592
0.0279397
0.0222436
0.0171502
0.0127471
0.00906326
0.0061165
0.00389404
0.00233325
0.0013192
0.000708361
0.000364062
0.000180336
8.69656e-05
4.10722e-05
1.90429e-05
8.68363e-06
3.90049e-06
1.72816e-06
7.56223e-07
3.27226e-07
1.40173e-07
5.94994e-08
2.50389e-08
1.04414e-08
4.30169e-09
1.7345e-09
6.66192e-10
2.23025e-10
3.92929e-11
3.26698e-07
1.42882e-06
3.28709e-06
6.41234e-06
1.16449e-05
2.03511e-05
3.47222e-05
5.82174e-05
9.61983e-05
0.000156801
0.000252071
0.000399323
0.000622597
0.000953868
0.0014335
0.00210926
0.00303325
0.00425678
0.00582396
0.00776566
0.0100957
0.0128101
0.0158888
0.0192995
0.0230012
0.0269477
0.0310908
0.0353815
0.0397725
0.0442189
0.048679
0.0531153
0.0574944
0.0617875
0.0659705
0.0700234
0.07393
0.0776777
0.0812575
0.0846635
0.0878926
0.0909441
0.0938192
0.0965205
0.0990521
0.101419
0.103626
0.10568
0.107586
0.109346
0.110965
0.112441
0.113768
0.114932
0.115908
0.116649
0.117067
0.117073
0.116464
0.114926
0.111946
0.106659
0.099249
0.0907739
0.0818691
0.0729252
0.0641851
0.0558164
0.0479258
0.040581
0.0338505
0.0277492
0.0220614
0.0169911
0.0126122
0.00895326
0.00603146
0.00383256
0.00229208
0.00129373
0.000693707
0.000356131
0.000176252
8.49547e-05
4.01082e-05
1.85912e-05
8.47617e-06
3.80691e-06
1.68661e-06
7.38046e-07
3.19374e-07
1.36819e-07
5.8081e-08
2.44444e-08
1.01945e-08
4.20032e-09
1.69373e-09
6.5055e-10
2.17786e-10
3.83788e-11
3.2621e-07
1.42668e-06
3.28217e-06
6.4027e-06
1.16273e-05
2.03203e-05
3.46694e-05
5.81288e-05
9.6052e-05
0.000156564
0.000251693
0.000398735
0.000621701
0.000952539
0.00143159
0.00210659
0.00302965
0.00425211
0.00581813
0.00775866
0.0100876
0.012801
0.0158789
0.0192891
0.0229906
0.0269373
0.0310808
0.0353722
0.0397643
0.0442119
0.0486735
0.0531114
0.0574922
0.0617871
0.065972
0.0700268
0.0739352
0.0776847
0.0812661
0.0846737
0.0879043
0.090957
0.0938332
0.0965354
0.0990678
0.101435
0.103643
0.105697
0.107602
0.109363
0.110981
0.112456
0.113782
0.114944
0.115916
0.116653
0.117065
0.117064
0.11644
0.114877
0.111858
0.106506
0.0990619
0.0905704
0.0816599
0.0727171
0.0639824
0.0556227
0.0477433
0.0404116
0.0336965
0.0276087
0.0219271
0.0168741
0.0125131
0.00887267
0.0059693
0.00378769
0.00226206
0.00127513
0.000682982
0.000350315
0.000173254
8.34773e-05
3.93998e-05
1.82592e-05
8.32375e-06
3.73816e-06
1.6561e-06
7.24698e-07
3.13609e-07
1.34357e-07
5.70399e-08
2.40082e-08
1.00134e-08
4.12596e-09
1.66382e-09
6.39082e-10
2.13945e-10
3.77091e-11
3.25892e-07
1.42529e-06
3.27896e-06
6.39644e-06
1.16159e-05
2.03002e-05
3.46352e-05
5.80713e-05
9.59572e-05
0.00015641
0.000251449
0.000398354
0.000621122
0.00095168
0.00143035
0.00210487
0.00302733
0.00424911
0.00581438
0.00775417
0.0100824
0.0127952
0.0158727
0.0192826
0.022984
0.0269308
0.0310745
0.0353665
0.0397592
0.0442077
0.0486702
0.0531092
0.0574911
0.0617873
0.0659733
0.0700293
0.073939
0.0776896
0.0812721
0.0846807
0.0879121
0.0909657
0.0938425
0.0965454
0.0990782
0.101446
0.103654
0.105708
0.107613
0.109374
0.110992
0.112466
0.113791
0.114951
0.115922
0.116656
0.117064
0.117058
0.116423
0.114844
0.111798
0.106404
0.0989368
0.0904343
0.0815201
0.0725783
0.0638475
0.055494
0.0476224
0.0402996
0.033595
0.0275161
0.0218387
0.0167972
0.0124482
0.00882006
0.00592884
0.00375858
0.00224262
0.00126308
0.000676005
0.000346521
0.000171294
8.25113e-05
3.89364e-05
1.80421e-05
8.22407e-06
3.69321e-06
1.63616e-06
7.15972e-07
3.0984e-07
1.32748e-07
5.63593e-08
2.3723e-08
9.89491e-09
4.07734e-09
1.64427e-09
6.31583e-10
2.11433e-10
3.72716e-11
3.25737e-07
1.42461e-06
3.27741e-06
6.39342e-06
1.16104e-05
2.02906e-05
3.46188e-05
5.80438e-05
9.59121e-05
0.000156337
0.000251333
0.000398174
0.000620848
0.000951275
0.00142977
0.00210405
0.00302624
0.00424768
0.0058126
0.00775202
0.0100799
0.0127924
0.0158697
0.0192795
0.0229808
0.0269277
0.0310716
0.0353638
0.0397568
0.0442057
0.0486687
0.0531082
0.0574907
0.0617874
0.0659741
0.0700307
0.0739409
0.077692
0.0812751
0.0846841
0.0879161
0.09097
0.0938472
0.0965503
0.0990833
0.101451
0.103659
0.105714
0.107619
0.109379
0.110997
0.112471
0.113795
0.114955
0.115925
0.116658
0.117064
0.117054
0.116415
0.114828
0.111769
0.106354
0.098875
0.090367
0.081451
0.0725096
0.0637808
0.0554306
0.0475629
0.0402447
0.0335454
0.0274709
0.0217958
0.0167601
0.0124171
0.00879495
0.00590966
0.00374487
0.00223351
0.00125744
0.000672738
0.000344741
0.000170374
8.20571e-05
3.87184e-05
1.79399e-05
8.17705e-06
3.67198e-06
1.62672e-06
7.11836e-07
3.0805e-07
1.31981e-07
5.60346e-08
2.35865e-08
9.83809e-09
4.05395e-09
1.63484e-09
6.27955e-10
2.10216e-10
3.70596e-11
3.25738e-07
1.42462e-06
3.27742e-06
6.39343e-06
1.16104e-05
2.02907e-05
3.46188e-05
5.80439e-05
9.59122e-05
0.000156337
0.000251333
0.000398174
0.000620848
0.000951276
0.00142977
0.00210405
0.00302624
0.00424768
0.0058126
0.00775202
0.0100799
0.0127924
0.0158697
0.0192795
0.0229808
0.0269277
0.0310716
0.0353638
0.0397568
0.0442057
0.0486687
0.0531082
0.0574907
0.0617874
0.065974
0.0700307
0.0739409
0.077692
0.0812751
0.0846841
0.087916
0.09097
0.0938472
0.0965503
0.0990833
0.101451
0.103659
0.105714
0.107619
0.109379
0.110997
0.112471
0.113795
0.114955
0.115925
0.116658
0.117064
0.117054
0.116415
0.114828
0.111769
0.106354
0.0988758
0.0903677
0.0814514
0.0725099
0.0637809
0.0554306
0.0475629
0.0402446
0.0335454
0.0274709
0.0217957
0.0167601
0.012417
0.00879493
0.00590965
0.00374486
0.0022335
0.00125744
0.000672736
0.00034474
0.000170374
8.20569e-05
3.87183e-05
1.79398e-05
8.17704e-06
3.67197e-06
1.62672e-06
7.11836e-07
3.0805e-07
1.31982e-07
5.60347e-08
2.35866e-08
9.83812e-09
4.05396e-09
1.63484e-09
6.27957e-10
2.10216e-10
3.70602e-11
3.25894e-07
1.4253e-06
3.27898e-06
6.39647e-06
1.1616e-05
2.03003e-05
3.46353e-05
5.80715e-05
9.59576e-05
0.000156411
0.000251449
0.000398355
0.000621123
0.000951682
0.00143035
0.00210487
0.00302733
0.00424911
0.00581439
0.00775418
0.0100824
0.0127952
0.0158727
0.0192826
0.0229839
0.0269308
0.0310745
0.0353665
0.0397592
0.0442076
0.0486702
0.0531091
0.0574911
0.0617872
0.0659733
0.0700293
0.0739389
0.0776895
0.081272
0.0846806
0.0879121
0.0909656
0.0938425
0.0965453
0.0990781
0.101446
0.103654
0.105708
0.107613
0.109374
0.110992
0.112466
0.113791
0.114952
0.115922
0.116656
0.117065
0.117058
0.116424
0.114845
0.1118
0.106407
0.0989395
0.0904364
0.0815215
0.0725791
0.0638478
0.0554941
0.0476223
0.0402995
0.0335949
0.0275159
0.0218386
0.0167971
0.0124481
0.00882001
0.0059288
0.00375855
0.0022426
0.00126307
0.000676001
0.000346519
0.000171294
8.25109e-05
3.89363e-05
1.80421e-05
8.22407e-06
3.69321e-06
1.63616e-06
7.15974e-07
3.09841e-07
1.32748e-07
5.63597e-08
2.37232e-08
9.89499e-09
4.07738e-09
1.64429e-09
6.31589e-10
2.11434e-10
3.72737e-11
3.26213e-07
1.42669e-06
3.2822e-06
6.40276e-06
1.16274e-05
2.03204e-05
3.46697e-05
5.81291e-05
9.60526e-05
0.000156565
0.000251694
0.000398736
0.000621703
0.000952541
0.00143159
0.00210659
0.00302965
0.00425211
0.00581813
0.00775866
0.0100876
0.012801
0.0158789
0.0192891
0.0229906
0.0269373
0.0310807
0.0353722
0.0397642
0.0442118
0.0486734
0.0531113
0.0574921
0.061787
0.0659719
0.0700267
0.0739351
0.0776845
0.081266
0.0846736
0.0879041
0.0909569
0.093833
0.0965353
0.0990677
0.101435
0.103643
0.105697
0.107602
0.109363
0.110982
0.112457
0.113782
0.114944
0.115917
0.116653
0.117065
0.117064
0.11644
0.114878
0.111859
0.10651
0.0990657
0.0905733
0.0816618
0.0727181
0.0639828
0.0556227
0.0477432
0.0404114
0.0336963
0.0276084
0.0219269
0.0168739
0.012513
0.00887259
0.00596924
0.00378765
0.00226204
0.00127512
0.000682977
0.000350313
0.000173253
8.3477e-05
3.93997e-05
1.82592e-05
8.32377e-06
3.73818e-06
1.65611e-06
7.24704e-07
3.13612e-07
1.34359e-07
5.70407e-08
2.40086e-08
1.00135e-08
4.12604e-09
1.66386e-09
6.39094e-10
2.13947e-10
3.77126e-11
3.26703e-07
1.42883e-06
3.28713e-06
6.41241e-06
1.1645e-05
2.03513e-05
3.47225e-05
5.82179e-05
9.6199e-05
0.000156802
0.000252072
0.000399325
0.000622599
0.000953871
0.00143351
0.00210926
0.00303325
0.00425678
0.00582396
0.00776565
0.0100957
0.0128101
0.0158888
0.0192994
0.0230011
0.0269477
0.0310907
0.0353814
0.0397724
0.0442188
0.0486789
0.0531152
0.0574943
0.0617874
0.0659703
0.0700233
0.0739299
0.0776775
0.0812573
0.0846633
0.0878925
0.090944
0.093819
0.0965203
0.0990519
0.101419
0.103626
0.10568
0.107585
0.109347
0.110966
0.112442
0.113769
0.114933
0.115908
0.116649
0.117067
0.117073
0.116464
0.114926
0.111947
0.106661
0.0992512
0.0907756
0.0818701
0.0729257
0.0641852
0.0558162
0.0479255
0.0405807
0.0338502
0.0277489
0.0220612
0.0169909
0.012612
0.00895316
0.00603139
0.00383251
0.00229206
0.00129371
0.0006937
0.000356129
0.000176251
8.49543e-05
4.01081e-05
1.85912e-05
8.4762e-06
3.80693e-06
1.68663e-06
7.38054e-07
3.19378e-07
1.36821e-07
5.8082e-08
2.44449e-08
1.01947e-08
4.20042e-09
1.69377e-09
6.50567e-10
2.17789e-10
3.83837e-11
3.27374e-07
1.43177e-06
3.2939e-06
6.42565e-06
1.16692e-05
2.03937e-05
3.47951e-05
5.83398e-05
9.64004e-05
0.000157129
0.000252593
0.000400137
0.000623837
0.00095571
0.00143616
0.00211297
0.00303825
0.00426328
0.00583209
0.00777546
0.0101071
0.0128228
0.0159027
0.0193141
0.0230161
0.0269626
0.0311051
0.0353949
0.0397846
0.0442293
0.0486875
0.0531216
0.0574983
0.0617889
0.0659693
0.0700197
0.0739238
0.077669
0.0812464
0.0846503
0.0878774
0.0909271
0.0938005
0.0965004
0.0990309
0.101397
0.103604
0.105657
0.107562
0.109324
0.110943
0.11242
0.113749
0.114915
0.115894
0.11664
0.117067
0.117085
0.116496
0.11499
0.112062
0.106858
0.0994939
0.091042
0.0821462
0.0732023
0.0644561
0.0560762
0.0481714
0.0408096
0.0340588
0.0279393
0.0222433
0.01715
0.0127469
0.00906314
0.00611641
0.00389399
0.00233322
0.00131918
0.000708353
0.000364059
0.000180335
8.69652e-05
4.10721e-05
1.90429e-05
8.68367e-06
3.90052e-06
1.72817e-06
7.56232e-07
3.27231e-07
1.40176e-07
5.95007e-08
2.50395e-08
1.04417e-08
4.30182e-09
1.73456e-09
6.66215e-10
2.2303e-10
3.92991e-11
3.2824e-07
1.43556e-06
3.30263e-06
6.44275e-06
1.17003e-05
2.04484e-05
3.4889e-05
5.84978e-05
9.66616e-05
0.000157553
0.000253269
0.000401195
0.000625452
0.000958113
0.00143964
0.00211784
0.00304484
0.00427188
0.0058429
0.00778856
0.0101224
0.0128401
0.0159215
0.0193339
0.0230365
0.0269829
0.0311249
0.0354136
0.0398017
0.0442444
0.0487002
0.0531315
0.0575053
0.0617927
0.0659699
0.0700169
0.0739177
0.0776597
0.0812341
0.084635
0.0878595
0.0909067
0.0937779
0.096476
0.0990048
0.101369
0.103575
0.105628
0.107533
0.109294
0.110914
0.112392
0.113722
0.114892
0.115875
0.116629
0.117067
0.117101
0.116537
0.11507
0.112205
0.107104
0.0997973
0.0913763
0.082494
0.073552
0.0647996
0.0564068
0.0484847
0.041102
0.0343259
0.0281831
0.0224763
0.0173539
0.0129202
0.00920468
0.00622604
0.00397341
0.00238647
0.00135214
0.00072731
0.000374316
0.000185615
8.95639e-05
4.23175e-05
1.96262e-05
8.95147e-06
4.02129e-06
1.78177e-06
7.79679e-07
3.37358e-07
1.44501e-07
6.13294e-08
2.58059e-08
1.076e-08
4.43252e-09
1.78713e-09
6.86387e-10
2.29786e-10
4.04795e-11
3.29318e-07
1.44028e-06
3.3135e-06
6.46403e-06
1.17392e-05
2.05168e-05
3.50062e-05
5.86952e-05
9.69884e-05
0.000158085
0.000254119
0.000402524
0.000627487
0.000961147
0.00144403
0.00212402
0.00305323
0.00428287
0.00585679
0.0078055
0.0101424
0.0128632
0.0159462
0.01936
0.0230634
0.02701
0.0311514
0.0354389
0.0398252
0.0442655
0.0487184
0.0531465
0.0575165
0.0618001
0.0659732
0.0700161
0.0739128
0.0776507
0.0812212
0.0846184
0.0878394
0.0908835
0.0937518
0.0964473
0.098974
0.101337
0.103541
0.105593
0.107497
0.109258
0.110878
0.112357
0.11369
0.114863
0.115852
0.116614
0.117066
0.117119
0.116587
0.115168
0.112379
0.107403
0.100168
0.0917853
0.0829204
0.0739814
0.0652223
0.0568142
0.0488714
0.0414633
0.0346558
0.0284859
0.0227647
0.0176065
0.0131352
0.00938051
0.0063625
0.00407246
0.00245303
0.00139344
0.000751116
0.000387212
0.000192256
9.28313e-05
4.38822e-05
2.03587e-05
9.2875e-06
4.17272e-06
1.84893e-06
8.0904e-07
3.50031e-07
1.4991e-07
6.36159e-08
2.67638e-08
1.11577e-08
4.59578e-09
1.8528e-09
7.1158e-10
2.38225e-10
4.19542e-11
3.30622e-07
1.44598e-06
3.32667e-06
6.48983e-06
1.17863e-05
2.05997e-05
3.51487e-05
5.89355e-05
9.73869e-05
0.000158735
0.000255158
0.000404154
0.000629985
0.00096488
0.00144945
0.00213164
0.00306359
0.00429644
0.00587388
0.0078262
0.0101665
0.0128899
0.0159765
0.0193929
0.0230977
0.0270449
0.0311861
0.0354725
0.0398568
0.0442944
0.048744
0.0531682
0.0575339
0.0618128
0.065981
0.0700189
0.0739106
0.0776435
0.0812091
0.0846017
0.0878183
0.0908583
0.093723
0.0964152
0.098939
0.101299
0.103502
0.105552
0.107455
0.109216
0.110836
0.112316
0.113651
0.114828
0.115824
0.116596
0.117065
0.117142
0.116646
0.115286
0.112589
0.107762
0.100613
0.0922771
0.0834337
0.0744991
0.0657325
0.0573067
0.0493394
0.041901
0.0350561
0.0288531
0.0231131
0.017912
0.0133956
0.00959405
0.00652865
0.00419346
0.00253461
0.00144421
0.000780453
0.000403127
0.000200458
9.68704e-05
4.5816e-05
2.1263e-05
9.70199e-06
4.35934e-06
1.93162e-06
8.45157e-07
3.65608e-07
1.56554e-07