/*--------------------------------*- C++ -*----------------------------------*\
  =========                 |
  \\      /  F ield         | OpenFOAM: The Open Source CFD Toolbox
   \\    /   O peration     | Website:  https://openfoam.org
    \\  /    A nd           | Version:  8
     \\/     M anipulation  |
\*---------------------------------------------------------------------------*/
FoamFile
{
    version     2.0;
    format      ascii;
    class       volScalarField;
    location    "0.25/fluid";
    object      N2;
}
// * * * * * * * * * * * * * * * * * * * * * * * * * * * * * * * * * * * * * //

dimensions      [0 0 0 0 0 0 0];

internalField   nonuniform List<scalar> 
4000
(
2.19001e-06
9.57252e-06
2.19984e-05
4.28541e-05
7.77144e-05
0.000135665
0.000231337
0.000387958
0.000641766
0.00104815
0.00168964
0.00268559
0.00420204
0.00646175
0.0097409
0.0143598
0.0206579
0.0289518
0.0394882
0.0524072
0.0677246
0.0853388
0.105054
0.126607
0.149698
0.174011
0.199227
0.225039
0.251241
0.277598
0.303768
0.329569
0.354839
0.379444
0.403275
0.426245
0.448285
0.469349
0.489409
0.508451
0.526475
0.543492
0.559522
0.57459
0.58873
0.601976
0.614369
0.625947
0.636754
0.64683
0.656216
0.664955
0.673084
0.680643
0.687669
0.694197
0.700262
0.705843
0.710947
0.715831
0.72038
0.724627
0.728608
0.732365
0.735933
0.739332
0.742571
0.745655
0.748584
0.751354
0.753958
0.756389
0.758632
0.760688
0.76262
0.764336
0.76582
0.76707
0.768068
0.768811
0.769319
0.769635
0.769816
0.769911
0.769958
0.769981
0.769991
0.769996
0.769998
0.769999
0.77
0.77
0.77
0.77
0.77
0.77
0.77
0.77
0.77
0.77
2.18919e-06
9.57057e-06
2.20009e-05
4.28787e-05
7.77991e-05
0.000135877
0.000231771
0.000388693
0.000642747
0.0010489
0.00168878
0.00267983
0.00418523
0.00641952
0.00965105
0.0141943
0.0203818
0.0285269
0.0388794
0.0515888
0.0666855
0.084084
0.103603
0.124994
0.147963
0.172201
0.197394
0.223292
0.249608
0.275912
0.302102
0.32797
0.353337
0.378057
0.402014
0.425113
0.447284
0.468476
0.488659
0.507817
0.52595
0.543068
0.55919
0.574342
0.588557
0.601871
0.614324
0.625955
0.636808
0.646924
0.656345
0.665113
0.673268
0.680848
0.687892
0.694435
0.700512
0.706089
0.711199
0.716091
0.720647
0.7249
0.728886
0.732649
0.736224
0.739628
0.742872
0.745961
0.748893
0.751663
0.754264
0.756687
0.758914
0.760952
0.76285
0.764546
0.766024
0.767248
0.768208
0.76891
0.76938
0.769669
0.769832
0.769919
0.769962
0.769982
0.769992
0.769996
0.769998
0.769999
0.77
0.77
0.77
0.77
0.77
0.77
0.77
0.77
0.77
0.77
2.1933e-06
9.58963e-06
2.20497e-05
4.29853e-05
7.80117e-05
0.00013627
0.000232451
0.000389751
0.000644189
0.00105046
0.00168949
0.0026773
0.00417397
0.00638972
0.0095897
0.0140803
0.0201872
0.028218
0.0384211
0.0509489
0.06584
0.0830208
0.102323
0.123511
0.146305
0.170401
0.19552
0.221407
0.247563
0.273877
0.300109
0.326048
0.351511
0.376347
0.400435
0.423676
0.445995
0.467338
0.48767
0.506975
0.52525
0.542501
0.558749
0.574018
0.58834
0.601752
0.614293
0.626003
0.636925
0.647102
0.656577
0.665391
0.673585
0.681199
0.688271
0.694838
0.700935
0.706501
0.711622
0.716526
0.72109
0.725348
0.729341
0.73311
0.73669
0.740098
0.743343
0.746431
0.74936
0.752121
0.754708
0.757113
0.759313
0.761335
0.763209
0.764862
0.766279
0.767442
0.768346
0.768998
0.769431
0.769696
0.769846
0.769925
0.769964
0.769983
0.769992
0.769997
0.769999
0.769999
0.77
0.77
0.77
0.77
0.77
0.77
0.77
0.77
0.77
0.77
2.19045e-06
9.57715e-06
2.20205e-05
4.29245e-05
7.78852e-05
0.000135994
0.000231814
0.000388355
0.000641234
0.00104443
0.00167765
0.00265511
0.00413444
0.00632364
0.00948216
0.0139118
0.019934
0.0278542
0.0379213
0.0502914
0.0650096
0.0820105
0.101135
0.122156
0.144801
0.168774
0.193856
0.219542
0.245679
0.272
0.298264
0.32426
0.349803
0.374738
0.398941
0.42231
0.444765
0.46625
0.486726
0.506174
0.524588
0.541975
0.558351
0.573741
0.588176
0.601693
0.614327
0.626122
0.637119
0.647363
0.656895
0.665759
0.673995
0.681645
0.688747
0.695339
0.701458
0.707004
0.712146
0.717063
0.721632
0.725893
0.729887
0.733659
0.737239
0.740646
0.743887
0.746967
0.749882
0.752625
0.755189
0.757563
0.759727
0.761721
0.763553
0.765158
0.766521
0.76763
0.76848
0.769087
0.769485
0.769725
0.769861
0.769932
0.769968
0.769985
0.769993
0.769997
0.769999
0.769999
0.77
0.77
0.77
0.77
0.77
0.77
0.77
0.77
0.77
0.77
2.18136e-06
9.5368e-06
2.19251e-05
4.27311e-05
7.7516e-05
0.00013531
0.000230579
0.000386121
0.000637212
0.00103725
0.00166501
0.00263325
0.00409748
0.00626282
0.00938515
0.0137624
0.0197125
0.0275393
0.0374916
0.0497289
0.0643015
0.0811509
0.100125
0.121003
0.143518
0.167402
0.192308
0.217959
0.244076
0.270399
0.296688
0.32273
0.34834
0.37336
0.397662
0.421142
0.443718
0.465328
0.485934
0.505511
0.524053
0.541564
0.55806
0.573564
0.588105
0.601718
0.614441
0.626316
0.637385
0.647691
0.657278
0.666188
0.674462
0.682142
0.689265
0.695871
0.701994
0.707505
0.712771
0.717668
0.722224
0.726475
0.730464
0.734232
0.737809
0.74121
0.744442
0.747509
0.750406
0.753125
0.755659
0.757996
0.760121
0.76209
0.763876
0.765431
0.766742
0.767798
0.768599
0.769164
0.76953
0.76975
0.769873
0.769938
0.769971
0.769986
0.769994
0.769997
0.769999
0.769999
0.77
0.77
0.77
0.77
0.77
0.77
0.77
0.77
0.77
0.77
2.16771e-06
9.47647e-06
2.17836e-05
4.24474e-05
7.69827e-05
0.00013434
0.000228845
0.000383066
0.000631891
0.00102811
0.00164955
0.0026076
0.00405585
0.00619699
0.00928405
0.0136121
0.0194971
0.0272417
0.037096
0.0492224
0.0636758
0.0804036
0.0992601
0.12003
0.14245
0.166275
0.191088
0.216681
0.242769
0.269089
0.295398
0.32148
0.347147
0.372241
0.396629
0.420206
0.442886
0.464607
0.485325
0.505016
0.52367
0.541291
0.557893
0.573497
0.58813
0.601828
0.61463
0.626576
0.637708
0.64807
0.657704
0.666654
0.674961
0.682666
0.689808
0.696427
0.702557
0.708069
0.713347
0.718244
0.722796
0.727041
0.731025
0.734788
0.738359
0.741752
0.744972
0.748023
0.750899
0.753593
0.756096
0.758394
0.760483
0.76243
0.764171
0.765678
0.76694
0.767948
0.768705
0.769233
0.769571
0.769773
0.769885
0.769944
0.769973
0.769988
0.769994
0.769997
0.769999
0.77
0.77
0.77
0.77
0.77
0.77
0.77
0.77
0.77
0.77
0.77
2.15219e-06
9.40827e-06
2.16249e-05
4.21328e-05
7.63991e-05
0.000133294
0.000227009
0.00037989
0.000626474
0.00101899
0.00163445
0.00258302
0.00401668
0.00613602
0.00919176
0.0134767
0.0193049
0.0269788
0.0367494
0.0487819
0.0631354
0.079762
0.0985215
0.119205
0.141574
0.165264
0.190041
0.215611
0.241693
0.268021
0.294355
0.320477
0.346199
0.371359
0.395824
0.419486
0.442257
0.464073
0.484889
0.504678
0.523429
0.541145
0.557837
0.573525
0.588238
0.60201
0.614879
0.626885
0.63807
0.648478
0.658151
0.667133
0.675467
0.683192
0.69035
0.696978
0.703102
0.708613
0.713891
0.718785
0.723331
0.72757
0.731547
0.735305
0.738869
0.742252
0.74546
0.748495
0.75135
0.754017
0.756491
0.758752
0.76081
0.762732
0.764432
0.765897
0.767115
0.76808
0.768797
0.769292
0.769606
0.769792
0.769895
0.769949
0.769976
0.769989
0.769995
0.769998
0.769999
0.77
0.77
0.77
0.77
0.77
0.77
0.77
0.77
0.77
0.77
0.77
2.13619e-06
9.338e-06
2.14619e-05
4.18108e-05
7.58048e-05
0.000132235
0.000225162
0.000376722
0.000621119
0.00101007
0.00161984
0.00255952
0.0039797
0.00607924
0.00910695
0.0133539
0.019133
0.0267464
0.0364464
0.0484004
0.0626708
0.0792124
0.0978866
0.118483
0.140765
0.164428
0.189184
0.214743
0.240825
0.267167
0.293528
0.319689
0.345461
0.370682
0.395215
0.418951
0.441802
0.4637
0.4846
0.504473
0.523308
0.541103
0.55787
0.573629
0.588409
0.602243
0.615167
0.627222
0.63845
0.648895
0.6586
0.667607
0.67596
0.6837
0.690868
0.697502
0.703611
0.709118
0.714393
0.719281
0.72382
0.728051
0.732022
0.735773
0.73933
0.742702
0.745898
0.748917
0.751752
0.754396
0.756841
0.759069
0.761104
0.762994
0.764658
0.766086
0.767266
0.768193
0.768876
0.769342
0.769636
0.769809
0.769904
0.769953
0.769978
0.76999
0.769995
0.769998
0.769999
0.77
0.77
0.77
0.77
0.77
0.77
0.77
0.77
0.77
0.77
0.77
2.12074e-06
9.2703e-06
2.13053e-05
4.15025e-05
7.52382e-05
0.00013123
0.000223421
0.000373755
0.000616139
0.00100184
0.00160647
0.00253821
0.00394644
0.00602858
0.0090319
0.0132461
0.0189832
0.0265455
0.0361868
0.0480769
0.0622817
0.0787608
0.0973813
0.117946
0.14016
0.163779
0.188508
0.214055
0.240139
0.266496
0.292882
0.31908
0.344899
0.370173
0.394767
0.418569
0.441489
0.463458
0.48443
0.504375
0.523278
0.541139
0.557969
0.573788
0.588623
0.602506
0.615475
0.62757
0.638832
0.649306
0.659034
0.66806
0.676427
0.684177
0.69135
0.697986
0.704075
0.709576
0.714846
0.719728
0.724259
0.728482
0.732446
0.736191
0.73974
0.743103
0.746286
0.74929
0.752106
0.754728
0.757149
0.759348
0.76136
0.763221
0.764855
0.76625
0.767396
0.76829
0.768943
0.769385
0.769662
0.769823
0.769911
0.769957
0.769979
0.76999
0.769996
0.769998
0.769999
0.77
0.77
0.77
0.77
0.77
0.77
0.77
0.77
0.77
0.77
0.77
2.10642e-06
9.20756e-06
2.11604e-05
4.12178e-05
7.47162e-05
0.000130308
0.000221828
0.000371051
0.000611622
0.000994418
0.00159447
0.00251919
0.00391694
0.00598396
0.00896623
0.0131523
0.0188538
0.0263731
0.035965
0.0478012
0.0619497
0.0783713
0.0969333
0.117443
0.139638
0.16324
0.187958
0.213504
0.239596
0.26597
0.292384
0.318617
0.344478
0.369801
0.394448
0.418307
0.441286
0.463316
0.484349
0.504353
0.523314
0.541231
0.558113
0.573981
0.58886
0.602784
0.615788
0.627914
0.639203
0.649698
0.659443
0.668483
0.676859
0.684614
0.69179
0.698425
0.704489
0.709984
0.715249
0.720123
0.724647
0.728863
0.732821
0.736559
0.7401
0.743453
0.746625
0.749615
0.752414
0.755017
0.757415
0.759589
0.761583
0.763419
0.765026
0.766392
0.767508
0.768373
0.769001
0.769422
0.769683
0.769834
0.769917
0.76996
0.769981
0.769991
0.769996
0.769998
0.769999
0.77
0.77
0.77
0.77
0.77
0.77
0.77
0.77
0.77
0.77
0.77
2.09353e-06
9.15113e-06
2.10302e-05
4.09625e-05
7.42492e-05
0.000129484
0.00022041
0.000368653
0.000607631
0.000987882
0.00158395
0.0025026
0.00389134
0.00594542
0.00890982
0.0130723
0.018744
0.0262278
0.0357796
0.0475734
0.0616795
0.0780617
0.0965905
0.117063
0.139231
0.162815
0.187525
0.213071
0.239173
0.265565
0.292004
0.31827
0.344169
0.369535
0.394229
0.418137
0.441167
0.463249
0.484333
0.504387
0.523396
0.541358
0.558283
0.57419
0.589105
0.603061
0.616093
0.628243
0.639551
0.650063
0.659821
0.668869
0.677251
0.685009
0.692185
0.698817
0.704855
0.710344
0.715602
0.720469
0.724985
0.729195
0.733147
0.73688
0.740413
0.743758
0.746919
0.749896
0.75268
0.755266
0.757643
0.759797
0.761776
0.76359
0.765172
0.766513
0.767604
0.768444
0.769049
0.769452
0.769701
0.769844
0.769922
0.769962
0.769982
0.769992
0.769996
0.769998
0.769999
0.77
0.77
0.77
0.77
0.77
0.77
0.77
0.77
0.77
0.77
0.77
2.08219e-06
9.10154e-06
2.09158e-05
4.07385e-05
7.38402e-05
0.000128765
0.000219173
0.000366567
0.000604168
0.00098223
0.00157489
0.00248835
0.00386943
0.00591257
0.00886194
0.0130046
0.0186516
0.0261059
0.0356248
0.0473838
0.0614555
0.0778064
0.0963131
0.116757
0.138905
0.162476
0.187183
0.212733
0.238846
0.265256
0.291719
0.318015
0.343948
0.369352
0.394086
0.418036
0.44111
0.463235
0.484361
0.504456
0.523505
0.541505
0.558464
0.574403
0.589346
0.603326
0.616381
0.628548
0.639872
0.650395
0.660162
0.669216
0.677601
0.68536
0.692533
0.699163
0.705174
0.710656
0.715908
0.720769
0.725278
0.729482
0.733428
0.737155
0.740682
0.744019
0.747171
0.750137
0.752907
0.755478
0.757838
0.759973
0.761943
0.763736
0.765298
0.766617
0.767685
0.768504
0.76909
0.769478
0.769716
0.769852
0.769926
0.769964
0.769983
0.769992
0.769996
0.769998
0.769999
0.77
0.77
0.77
0.77
0.77
0.77
0.77
0.77
0.77
0.77
0.77
2.07243e-06
9.05882e-06
2.08174e-05
4.0546e-05
7.3489e-05
0.000128148
0.000218115
0.000364785
0.000601219
0.000977427
0.00156721
0.00247631
0.00385098
0.005885
0.00882187
0.0129482
0.0185747
0.0260049
0.0354967
0.047227
0.0612693
0.0775908
0.0960692
0.116501
0.138639
0.162206
0.186913
0.21247
0.238595
0.265023
0.291508
0.31783
0.343793
0.36923
0.393999
0.417985
0.441095
0.463256
0.484417
0.504546
0.523627
0.541657
0.558645
0.574608
0.589574
0.603574
0.616644
0.628826
0.64016
0.650692
0.660464
0.669522
0.677908
0.685666
0.692837
0.699463
0.705448
0.710924
0.716171
0.721025
0.725528
0.729726
0.733668
0.73739
0.740911
0.744241
0.747385
0.75034
0.7531
0.755657
0.758002
0.760123
0.762084
0.763861
0.765404
0.766704
0.767753
0.768554
0.769124
0.769499
0.769728
0.769859
0.76993
0.769966
0.769984
0.769992
0.769997
0.769998
0.769999
0.77
0.77
0.77
0.77
0.77
0.77
0.77
0.77
0.77
0.77
0.77
2.06418e-06
9.02275e-06
2.07344e-05
4.03836e-05
7.31931e-05
0.000127628
0.000217226
0.000363291
0.000598749
0.000973414
0.00156081
0.0024663
0.00383568
0.00586219
0.00878883
0.0129018
0.0185118
0.0259227
0.0353934
0.047102
0.0611244
0.0774303
0.0958871
0.116304
0.138433
0.161996
0.186705
0.212268
0.238405
0.264849
0.291355
0.3177
0.343689
0.369153
0.393951
0.417967
0.441107
0.463298
0.484488
0.504645
0.523752
0.541806
0.558815
0.574799
0.589782
0.603796
0.616879
0.629071
0.640413
0.650951
0.660727
0.669786
0.678172
0.685929
0.693097
0.699719
0.705682
0.711152
0.716393
0.721242
0.72574
0.729933
0.73387
0.737588
0.741103
0.744428
0.747565
0.750512
0.753261
0.755808
0.758139
0.760249
0.762203
0.763965
0.765493
0.766777
0.76781
0.768596
0.769152
0.769517
0.769739
0.769865
0.769933
0.769967
0.769984
0.769993
0.769997
0.769999
0.769999
0.77
0.77
0.77
0.77
0.77
0.77
0.77
0.77
0.77
0.77
0.77
2.05735e-06
8.99293e-06
2.06657e-05
4.02495e-05
7.29489e-05
0.0001272
0.000216494
0.000362063
0.000596722
0.000970126
0.00155557
0.00245813
0.00382321
0.00584364
0.00876201
0.0128642
0.0184609
0.0258562
0.0353094
0.0469997
0.0610036
0.0772912
0.0957379
0.116147
0.138271
0.161834
0.186546
0.212116
0.238264
0.264722
0.291245
0.31761
0.343621
0.369108
0.393931
0.417971
0.441136
0.463351
0.484564
0.504743
0.523871
0.541944
0.55897
0.574969
0.589965
0.60399
0.617083
0.629282
0.64063
0.65117
0.660948
0.670008
0.678394
0.686149
0.693315
0.699933
0.705875
0.711342
0.716579
0.721423
0.725916
0.730105
0.734039
0.737752
0.741264
0.744583
0.747714
0.750653
0.753394
0.755932
0.758252
0.760352
0.762302
0.764052
0.765567
0.766837
0.767857
0.76863
0.769175
0.769531
0.769747
0.769869
0.769935
0.769968
0.769985
0.769993
0.769997
0.769999
0.769999
0.77
0.77
0.77
0.77
0.77
0.77
0.77
0.77
0.77
0.77
0.77
2.05186e-06
8.96892e-06
2.06105e-05
4.01416e-05
7.27527e-05
0.000126857
0.000215907
0.000361079
0.0005951
0.0009675
0.0015514
0.00245162
0.0038133
0.00582894
0.0087408
0.0128346
0.0184209
0.025804
0.0352439
0.0469205
0.0609111
0.077187
0.0956247
0.116027
0.138148
0.161711
0.186426
0.212004
0.238161
0.264631
0.291168
0.31755
0.343578
0.369085
0.393927
0.417987
0.441171
0.463405
0.484637
0.504833
0.523977
0.542064
0.559104
0.575114
0.59012
0.604154
0.617252
0.629456
0.640808
0.65135
0.661129
0.670189
0.678573
0.686326
0.69349
0.700106
0.706032
0.711498
0.716733
0.721574
0.726063
0.730248
0.734178
0.737888
0.741395
0.744709
0.747835
0.750768
0.753502
0.756032
0.758344
0.760436
0.762381
0.764121
0.765626
0.766886
0.767895
0.768657
0.769193
0.769542
0.769753
0.769873
0.769937
0.769969
0.769985
0.769993
0.769997
0.769999
0.769999
0.77
0.77
0.77
0.77
0.77
0.77
0.77
0.77
0.77
0.77
0.77
2.0476e-06
8.95029e-06
2.05676e-05
4.0058e-05
7.26006e-05
0.000126591
0.000215453
0.000360318
0.000593849
0.000965475
0.00154818
0.00244662
0.0038057
0.00581768
0.00872459
0.012812
0.0183904
0.0257645
0.0351945
0.0468611
0.0608422
0.0771097
0.0955407
0.115939
0.138058
0.161621
0.18634
0.211923
0.238088
0.264568
0.291117
0.317511
0.343554
0.369075
0.393932
0.418008
0.441207
0.463456
0.484701
0.504911
0.524066
0.542165
0.559214
0.575232
0.590245
0.604284
0.617387
0.629594
0.640947
0.65149
0.661269
0.670327
0.678709
0.686459
0.69362
0.700234
0.706152
0.711628
0.716864
0.721701
0.726185
0.730365
0.734291
0.737996
0.741499
0.74481
0.747931
0.750859
0.753587
0.756111
0.758415
0.760501
0.762444
0.764176
0.765672
0.766924
0.767924
0.768678
0.769207
0.769551
0.769759
0.769876
0.769938
0.76997
0.769986
0.769993
0.769997
0.769999
0.769999
0.77
0.77
0.77
0.77
0.77
0.77
0.77
0.77
0.77
0.77
0.77
2.04449e-06
8.93668e-06
2.05363e-05
3.99969e-05
7.24896e-05
0.000126397
0.000215122
0.000359764
0.000592937
0.000964001
0.00154584
0.00244299
0.00380019
0.00580952
0.00871287
0.0127957
0.0183685
0.0257361
0.0351592
0.0468187
0.0607932
0.0770548
0.0954813
0.115877
0.137994
0.161559
0.18628
0.211867
0.238038
0.264526
0.291083
0.317487
0.34354
0.369072
0.393941
0.418028
0.441238
0.463497
0.484753
0.504971
0.524135
0.542241
0.559297
0.575321
0.590338
0.604381
0.617487
0.629695
0.641049
0.651591
0.661368
0.670423
0.6788
0.686542
0.693692
0.70029
0.706176
0.711798
0.717
0.721817
0.726288
0.730459
0.734379
0.73808
0.741579
0.744885
0.748003
0.750926
0.75365
0.756169
0.758468
0.760549
0.762489
0.764216
0.765706
0.766951
0.767945
0.768693
0.769218
0.769558
0.769762
0.769878
0.769939
0.769971
0.769986
0.769994
0.769997
0.769999
0.769999
0.77
0.77
0.77
0.77
0.77
0.77
0.77
0.77
0.77
0.77
0.77
2.04245e-06
8.92779e-06
2.05159e-05
3.9957e-05
7.24171e-05
0.00012627
0.000214906
0.000359403
0.000592343
0.000963043
0.00154433
0.00244063
0.00379661
0.00580424
0.00870528
0.0127851
0.0183543
0.0257178
0.0351364
0.0467914
0.0607618
0.0770197
0.0954433
0.115837
0.137954
0.161519
0.186242
0.211832
0.238007
0.2645
0.291063
0.317474
0.343534
0.369073
0.393949
0.418043
0.44126
0.463526
0.484788
0.505013
0.524182
0.542293
0.559353
0.57538
0.590401
0.604446
0.617553
0.629762
0.641116
0.651658
0.661433
0.670486
0.678861
0.686601
0.693749
0.700346
0.706235
0.711868
0.717072
0.721886
0.726353
0.730521
0.734438
0.738136
0.741632
0.744936
0.748051
0.750971
0.753692
0.756208
0.758503
0.760581
0.76252
0.764242
0.765728
0.766969
0.767959
0.768703
0.769224
0.769562
0.769765
0.769879
0.76994
0.769971
0.769986
0.769994
0.769997
0.769999
0.769999
0.77
0.77
0.77
0.77
0.77
0.77
0.77
0.77
0.77
0.77
0.77
2.04145e-06
8.92343e-06
2.05059e-05
3.99376e-05
7.23819e-05
0.000126209
0.000214802
0.000359229
0.000592059
0.000962586
0.0015436
0.00243951
0.00379492
0.00580173
0.00870169
0.0127801
0.0183476
0.0257091
0.0351256
0.0467784
0.0607466
0.077003
0.0954253
0.115818
0.137935
0.161501
0.186224
0.211816
0.237993
0.264488
0.291054
0.317468
0.343531
0.369074
0.393953
0.418051
0.441272
0.463541
0.484806
0.505034
0.524206
0.542319
0.559381
0.57541
0.590432
0.604478
0.617585
0.629795
0.641148
0.65169
0.661465
0.670517
0.678892
0.686631
0.693779
0.700377
0.706266
0.7119
0.717104
0.721918
0.726384
0.730551
0.734467
0.738163
0.741658
0.74496
0.748074
0.750993
0.753713
0.756226
0.75852
0.760596
0.762534
0.764254
0.765739
0.766978
0.767966
0.768708
0.769227
0.769564
0.769766
0.76988
0.76994
0.769971
0.769986
0.769994
0.769997
0.769999
0.769999
0.77
0.77
0.77
0.77
0.77
0.77
0.77
0.77
0.77
0.77
0.77
2.04144e-06
8.92338e-06
2.05058e-05
3.99374e-05
7.23816e-05
0.000126208
0.0002148
0.000359227
0.000592057
0.000962582
0.0015436
0.00243951
0.00379491
0.00580172
0.00870167
0.0127801
0.0183476
0.0257091
0.0351255
0.0467783
0.0607466
0.0770029
0.0954253
0.115818
0.137935
0.1615
0.186224
0.211816
0.237993
0.264488
0.291054
0.317468
0.343531
0.369074
0.393953
0.418051
0.441272
0.463541
0.484806
0.505034
0.524206
0.542319
0.559381
0.57541
0.590432
0.604478
0.617586
0.629795
0.641149
0.651691
0.661465
0.670518
0.678892
0.686632
0.69378
0.700377
0.706266
0.7119
0.717103
0.721917
0.726383
0.73055
0.734466
0.738163
0.741658
0.74496
0.748074
0.750993
0.753713
0.756226
0.75852
0.760596
0.762534
0.764254
0.765739
0.766978
0.767966
0.768708
0.769227
0.769564
0.769766
0.76988
0.76994
0.769971
0.769986
0.769994
0.769997
0.769999
0.769999
0.77
0.77
0.77
0.77
0.77
0.77
0.77
0.77
0.77
0.77
0.77
2.04241e-06
8.92763e-06
2.05155e-05
3.99563e-05
7.24159e-05
0.000126268
0.000214902
0.000359397
0.000592335
0.000963031
0.00154431
0.00244061
0.00379658
0.00580419
0.00870522
0.012785
0.0183542
0.0257177
0.0351363
0.0467913
0.0607617
0.0770196
0.0954432
0.115837
0.137954
0.161519
0.186242
0.211832
0.238007
0.2645
0.291063
0.317474
0.343534
0.369073
0.393949
0.418043
0.44126
0.463526
0.484788
0.505013
0.524183
0.542293
0.559353
0.575381
0.590401
0.604446
0.617553
0.629763
0.641116
0.651659
0.661434
0.670488
0.678863
0.686604
0.693752
0.700349
0.706236
0.711868
0.717069
0.721882
0.72635
0.730519
0.734436
0.738135
0.741631
0.744935
0.74805
0.750971
0.753692
0.756208
0.758503
0.760581
0.76252
0.764242
0.765728
0.766969
0.767959
0.768703
0.769224
0.769562
0.769765
0.769879
0.76994
0.769971
0.769986
0.769994
0.769997
0.769999
0.769999
0.77
0.77
0.77
0.77
0.77
0.77
0.77
0.77
0.77
0.77
0.77
2.04442e-06
8.93641e-06
2.05357e-05
3.99957e-05
7.24875e-05
0.000126393
0.000215116
0.000359755
0.000592923
0.000963981
0.00154581
0.00244295
0.00380013
0.00580943
0.00871276
0.0127955
0.0183683
0.0257359
0.0351589
0.0468184
0.060793
0.0770546
0.095481
0.115876
0.137994
0.161559
0.18628
0.211867
0.238038
0.264526
0.291083
0.317487
0.343541
0.369073
0.393941
0.418028
0.441238
0.463497
0.484753
0.504972
0.524136
0.542242
0.559298
0.575321
0.590339
0.604382
0.617488
0.629696
0.64105
0.651593
0.66137
0.670426
0.678804
0.686547
0.693697
0.700293
0.706177
0.711796
0.716997
0.721813
0.726284
0.730456
0.734377
0.738078
0.741578
0.744885
0.748003
0.750926
0.75365
0.756169
0.758468
0.760549
0.762489
0.764216
0.765706
0.766951
0.767945
0.768693
0.769218
0.769558
0.769762
0.769878
0.769939
0.769971
0.769986
0.769994
0.769997
0.769999
0.769999
0.77
0.77
0.77
0.77
0.77
0.77
0.77
0.77
0.77
0.77
0.77
2.04751e-06
8.94992e-06
2.05668e-05
4.00564e-05
7.25978e-05
0.000126586
0.000215445
0.000360306
0.000593829
0.000965446
0.00154814
0.00244656
0.00380562
0.00581756
0.00872443
0.0128118
0.0183902
0.0257642
0.0351942
0.0468607
0.0608418
0.0771093
0.0955403
0.115939
0.138058
0.161621
0.18634
0.211922
0.238087
0.264568
0.291117
0.317511
0.343554
0.369075
0.393932
0.418008
0.441208
0.463456
0.484702
0.504911
0.524067
0.542165
0.559214
0.575232
0.590245
0.604285
0.617388
0.629595
0.640948
0.651492
0.661271
0.67033
0.678713
0.686463
0.693623
0.700236
0.706151
0.711626
0.716861
0.721698
0.726182
0.730363
0.73429
0.737995
0.741499
0.744809
0.747931
0.750859
0.753587
0.756111
0.758415
0.760501
0.762444
0.764176
0.765672
0.766923
0.767924
0.768678
0.769207
0.769551
0.769759
0.769876
0.769938
0.76997
0.769986
0.769993
0.769997
0.769999
0.769999
0.77
0.77
0.77
0.77
0.77
0.77
0.77
0.77
0.77
0.77
0.77
2.05175e-06
8.96843e-06
2.06094e-05
4.01395e-05
7.2749e-05
0.000126851
0.000215897
0.000361063
0.000595075
0.000967462
0.00155134
0.00245154
0.00381319
0.00582878
0.00874059
0.0128343
0.0184205
0.0258036
0.0352434
0.0469199
0.0609105
0.0771864
0.0956241
0.116027
0.138148
0.161711
0.186426
0.212003
0.238161
0.264631
0.291168
0.31755
0.343579
0.369085
0.393927
0.417988
0.441172
0.463406
0.484638
0.504834
0.523978
0.542065
0.559105
0.575115
0.590121
0.604154
0.617253
0.629457
0.640809
0.651352
0.661131
0.670191
0.678576
0.686329
0.693492
0.700107
0.706032
0.711497
0.716732
0.721573
0.726062
0.730248
0.734178
0.737887
0.741395
0.744709
0.747835
0.750769
0.753503
0.756032
0.758344
0.760436
0.762381
0.764121
0.765626
0.766886
0.767895
0.768657
0.769193
0.769542
0.769753
0.769873
0.769937
0.769969
0.769985
0.769993
0.769997
0.769999
0.769999
0.77
0.77
0.77
0.77
0.77
0.77
0.77
0.77
0.77
0.77
0.77
2.05722e-06
8.99232e-06
2.06644e-05
4.02469e-05
7.29443e-05
0.000127193
0.000216482
0.000362043
0.000596691
0.00097008
0.0015555
0.00245803
0.00382307
0.00584345
0.00876175
0.0128639
0.0184605
0.0258556
0.0353088
0.046999
0.0610028
0.0772904
0.0957372
0.116146
0.13827
0.161833
0.186545
0.212116
0.238264
0.264722
0.291245
0.31761
0.343621
0.369108
0.393931
0.417972
0.441137
0.463351
0.484565
0.504744
0.523872
0.541945
0.558971
0.57497
0.589966
0.603991
0.617084
0.629283
0.640631
0.651171
0.66095
0.67001
0.678395
0.68615
0.693316
0.699934
0.705876
0.711342
0.71658
0.721424
0.725917
0.730106
0.73404
0.737753
0.741264
0.744583
0.747714
0.750654
0.753395
0.755932
0.758252
0.760352
0.762302
0.764052
0.765567
0.766837
0.767857
0.768629
0.769175
0.769531
0.769747
0.769869
0.769935
0.769968
0.769985
0.769993
0.769997
0.769999
0.769999
0.77
0.77
0.77
0.77
0.77
0.77
0.77
0.77
0.77
0.77
0.77
2.06401e-06
9.02203e-06
2.07327e-05
4.03805e-05
7.31876e-05
0.000127619
0.000217211
0.000363267
0.000598712
0.000973358
0.00156072
0.00246618
0.00383551
0.00586195
0.00878851
0.0129014
0.0185113
0.0259221
0.0353926
0.0471012
0.0611235
0.0774294
0.0958861
0.116303
0.138432
0.161995
0.186704
0.212268
0.238405
0.264849
0.291355
0.3177
0.343689
0.369153
0.393952
0.417968
0.441108
0.463299
0.484489
0.504646
0.523753
0.541807
0.558817
0.5748
0.589783
0.603797
0.61688
0.629072
0.640415
0.650952
0.660728
0.669787
0.678174
0.68593
0.693098
0.69972
0.705683
0.711153
0.716394
0.721243
0.725741
0.729934
0.733871
0.737588
0.741104
0.744428
0.747566
0.750512
0.753261
0.755808
0.758139
0.760249
0.762203
0.763965
0.765493
0.766777
0.76781
0.768595
0.769152
0.769517
0.769739
0.769865
0.769933
0.769967
0.769984
0.769993
0.769997
0.769999
0.769999
0.77
0.77
0.77
0.77
0.77
0.77
0.77
0.77
0.77
0.77
0.77
2.07223e-06
9.05798e-06
2.08155e-05
4.05423e-05
7.34825e-05
0.000128137
0.000218097
0.000364757
0.000601175
0.000977361
0.00156711
0.00247617
0.00385078
0.00588472
0.00882149
0.0129477
0.0185741
0.0260042
0.0354959
0.047226
0.0612683
0.0775898
0.0960682
0.1165
0.138638
0.162205
0.186912
0.212469
0.238594
0.265022
0.291508
0.31783
0.343794
0.36923
0.393999
0.417986
0.441096
0.463257
0.484418
0.504547
0.523629
0.541658
0.558646
0.57461
0.589575
0.603575
0.616646
0.628827
0.640162
0.650693
0.660466
0.669523
0.677909
0.685667
0.692839
0.699464
0.70545
0.710926
0.716172
0.721026
0.725529
0.729727
0.733669
0.737391
0.740911
0.744242
0.747386
0.750341
0.7531
0.755658
0.758002
0.760123
0.762084
0.763861
0.765404
0.766704
0.767753
0.768554
0.769124
0.769499
0.769728
0.769859
0.76993
0.769966
0.769984
0.769992
0.769997
0.769998
0.769999
0.77
0.77
0.77
0.77
0.77
0.77
0.77
0.77
0.77
0.77
0.77
2.08197e-06
9.10056e-06
2.09136e-05
4.07343e-05
7.38327e-05
0.000128752
0.000219153
0.000366535
0.000604118
0.000982153
0.00157478
0.00248818
0.0038692
0.00591225
0.0088615
0.0130041
0.0186508
0.0261051
0.0356238
0.0473826
0.0614542
0.077805
0.0963119
0.116756
0.138903
0.162475
0.187182
0.212732
0.238845
0.265256
0.291719
0.318015
0.343948
0.369352
0.394086
0.418037
0.441111
0.463236
0.484362
0.504457
0.523506
0.541506
0.558466
0.574404
0.589348
0.603328
0.616382
0.62855
0.639874
0.650397
0.660164
0.669218
0.677603
0.685361
0.692535
0.699164
0.705175
0.710658
0.71591
0.72077
0.725279
0.729483
0.73343
0.737156
0.740683
0.74402
0.747172
0.750137
0.752907
0.755478
0.757838
0.759974
0.761943
0.763736
0.765298
0.766617
0.767685
0.768504
0.76909
0.769478
0.769716
0.769852
0.769926
0.769964
0.769983
0.769992
0.769996
0.769998
0.769999
0.77
0.77
0.77
0.77
0.77
0.77
0.77
0.77
0.77
0.77
0.77
2.09327e-06
9.15001e-06
2.10276e-05
4.09577e-05
7.42407e-05
0.00012947
0.000220386
0.000368616
0.000607574
0.000987795
0.00158382
0.00250241
0.00389107
0.00594504
0.00890932
0.0130716
0.0187432
0.0262268
0.0357785
0.0475721
0.0616781
0.0780604
0.0965893
0.117062
0.13923
0.162814
0.187524
0.21307
0.239172
0.265565
0.292004
0.31827
0.34417
0.369536
0.39423
0.418138
0.441168
0.463251
0.484334
0.504388
0.523397
0.54136
0.558285
0.574192
0.589107
0.603062
0.616095
0.628244
0.639553
0.650065
0.659823
0.668871
0.677253
0.685011
0.692186
0.698819
0.704857
0.710345
0.715604
0.720471
0.724987
0.729197
0.733149
0.736881
0.740414
0.743759
0.74692
0.749897
0.75268
0.755266
0.757643
0.759797
0.761777
0.76359
0.765172
0.766513
0.767604
0.768444
0.769049
0.769452
0.769701
0.769844
0.769922
0.769962
0.769982
0.769992
0.769996
0.769998
0.769999
0.77
0.77
0.77
0.77
0.77
0.77
0.77
0.77
0.77
0.77
0.77
2.10613e-06
9.20629e-06
2.11575e-05
4.12123e-05
7.47066e-05
0.000130291
0.000221801
0.00037101
0.000611557
0.000994319
0.00159432
0.00251897
0.00391664
0.00598353
0.00896566
0.0131516
0.0188529
0.026372
0.0359637
0.0477998
0.0619481
0.0783696
0.0969315
0.117442
0.139637
0.163239
0.187957
0.213503
0.239595
0.26597
0.292384
0.318617
0.344478
0.369801
0.394449
0.418308
0.441287
0.463318
0.484351
0.504355
0.523316
0.541233
0.558115
0.573983
0.588862
0.602786
0.61579
0.627916
0.639205
0.6497
0.659445
0.668485
0.676861
0.684616
0.691792
0.698427
0.704491
0.709986
0.715251
0.720125
0.724649
0.728865
0.732822
0.736561
0.740101
0.743454
0.746626
0.749616
0.752415
0.755018
0.757415
0.759589
0.761583
0.763419
0.765026
0.766392
0.767508
0.768373
0.769
0.769422
0.769683
0.769834
0.769917
0.76996
0.769981
0.769991
0.769996
0.769998
0.769999
0.77
0.77
0.77
0.77
0.77
0.77
0.77
0.77
0.77
0.77
0.77
2.12042e-06
9.26888e-06
2.13021e-05
4.14964e-05
7.52274e-05
0.000131212
0.000223391
0.000373708
0.000616067
0.00100173
0.0016063
0.00253797
0.00394609
0.00602811
0.00903127
0.0132452
0.0189821
0.0265443
0.0361853
0.0480752
0.0622799
0.0787588
0.0973793
0.117944
0.140159
0.163777
0.188506
0.214054
0.240138
0.266495
0.292882
0.31908
0.344899
0.370174
0.394768
0.41857
0.44149
0.463459
0.484431
0.504377
0.52328
0.541141
0.557971
0.57379
0.588625
0.602508
0.615477
0.627572
0.638835
0.649308
0.659036
0.668062
0.676429
0.684179
0.691352
0.697988
0.704077
0.709579
0.714848
0.71973
0.724261
0.728484
0.732448
0.736193
0.739741
0.743104
0.746287
0.749291
0.752107
0.754729
0.757149
0.759348
0.76136
0.763221
0.764855
0.76625
0.767396
0.76829
0.768943
0.769385
0.769662
0.769823
0.769911
0.769957
0.769979
0.76999
0.769996
0.769998
0.769999
0.77
0.77
0.77
0.77
0.77
0.77
0.77
0.77
0.77
0.77
0.77
2.13582e-06
9.33642e-06
2.14584e-05
4.1804e-05
7.57928e-05
0.000132215
0.000225129
0.00037667
0.000621038
0.00100995
0.00161965
0.00255925
0.00397932
0.00607871
0.00910624
0.0133529
0.0191318
0.0267449
0.0364447
0.0483986
0.0626688
0.0792103
0.0978846
0.118481
0.140763
0.164427
0.189183
0.214742
0.240824
0.267167
0.293527
0.319689
0.345462
0.370682
0.395216
0.418952
0.441803
0.463702
0.484602
0.504475
0.52331
0.541106
0.557872
0.573632
0.588412
0.602245
0.615169
0.627224
0.638453
0.648898
0.658602
0.66761
0.675963
0.683703
0.69087
0.697505
0.703614
0.709121
0.714395
0.719284
0.723823
0.728053
0.732023
0.735775
0.739331
0.742704
0.745899
0.748918
0.751753
0.754397
0.756842