/*--------------------------------*- C++ -*----------------------------------*\
  =========                 |
  \\      /  F ield         | OpenFOAM: The Open Source CFD Toolbox
   \\    /   O peration     | Website:  https://openfoam.org
    \\  /    A nd           | Version:  8
     \\/     M anipulation  |
\*---------------------------------------------------------------------------*/
FoamFile
{
    version     2.0;
    format      ascii;
    class       volScalarField;
    location    "0.25/fluid";
    object      O2;
}
// * * * * * * * * * * * * * * * * * * * * * * * * * * * * * * * * * * * * * //

dimensions      [0 0 0 0 0 0 0];

internalField   nonuniform List<scalar> 
4000
(
4.18397e-11
1.82904e-10
4.20421e-10
8.19256e-10
1.48619e-09
2.59522e-09
4.4265e-09
7.42442e-09
1.22819e-08
2.00565e-08
3.23224e-08
5.13397e-08
8.02576e-08
1.23247e-07
1.8549e-07
2.72938e-07
3.91805e-07
5.47756e-07
7.4502e-07
9.85692e-07
1.26944e-06
1.59366e-06
1.95395e-06
2.34469e-06
2.75956e-06
3.19199e-06
3.63546e-06
4.08375e-06
4.53133e-06
4.97273e-06
5.40332e-06
5.8193e-06
6.21787e-06
6.59766e-06
6.95942e-06
7.307e-06
7.64872e-06
7.99918e-06
8.38133e-06
8.82904e-06
9.39063e-06
1.01342e-05
1.11565e-05
1.25991e-05
1.46759e-05
1.77226e-05
2.22839e-05
2.9264e-05
4.01865e-05
5.76126e-05
8.58045e-05
0.000131743
0.000206689
0.000328594
0.00052587
0.000843256
0.00135098
0.00215168
0.00339847
0.00541629
0.00859964
0.0136405
0.0216828
0.034115
0.0488875
0.0647625
0.0809793
0.097063
0.112714
0.127718
0.141934
0.155264
0.167593
0.178902
0.189535
0.19898
0.20714
0.214007
0.219482
0.223548
0.226318
0.228038
0.229015
0.229527
0.22978
0.2299
0.229955
0.22998
0.229992
0.229996
0.229998
0.229999
0.23
0.23
0.23
0.23
0.23
0.23
0.23
0.23
4.18845e-11
1.83141e-10
4.21148e-10
8.21145e-10
1.49057e-09
2.60445e-09
4.44418e-09
7.45516e-09
1.23296e-08
2.01196e-08
3.23836e-08
5.13691e-08
8.01682e-08
1.22856e-07
1.84498e-07
2.70955e-07
3.88357e-07
5.42364e-07
7.3731e-07
9.75509e-07
1.25692e-06
1.57927e-06
1.9384e-06
2.32891e-06
2.74461e-06
3.17898e-06
3.62553e-06
4.07813e-06
4.53056e-06
4.97763e-06
5.41467e-06
5.83772e-06
6.24386e-06
6.63158e-06
7.00153e-06
7.35748e-06
7.70772e-06
8.06693e-06
8.45836e-06
8.91647e-06
9.49061e-06
1.02506e-05
1.12959e-05
1.27726e-05
1.49019e-05
1.80322e-05
2.27298e-05
2.99215e-05
4.12104e-05
5.92637e-05
8.85243e-05
0.000136268
0.00021423
0.00034112
0.000546551
0.000877173
0.00140623
0.00223856
0.00353749
0.00564133
0.00896196
0.0142245
0.0226311
0.0353169
0.0502597
0.0662521
0.0825509
0.0986914
0.11438
0.129397
0.143605
0.156896
0.169134
0.180354
0.190801
0.200133
0.20826
0.214983
0.220249
0.224086
0.226651
0.22822
0.229103
0.229567
0.229797
0.229907
0.229958
0.229981
0.229992
0.229997
0.229999
0.229999
0.23
0.23
0.23
0.23
0.23
0.23
0.23
0.23
4.20374e-11
1.83831e-10
4.22831e-10
8.24663e-10
1.49736e-09
2.61679e-09
4.46535e-09
7.48951e-09
1.23817e-08
2.01926e-08
3.24751e-08
5.14538e-08
8.01925e-08
1.22714e-07
1.84012e-07
2.69853e-07
3.86291e-07
5.38951e-07
7.32209e-07
9.68511e-07
1.24804e-06
1.56876e-06
1.92685e-06
2.31713e-06
2.73364e-06
3.17002e-06
3.61994e-06
4.07703e-06
4.53538e-06
4.98965e-06
5.43506e-06
5.86755e-06
6.28406e-06
6.68299e-06
7.06483e-06
7.43325e-06
7.79655e-06
8.16953e-06
8.57587e-06
9.05094e-06
9.64571e-06
1.04326e-05
1.15157e-05
1.30477e-05
1.52616e-05
1.85238e-05
2.34222e-05
3.09903e-05
4.29019e-05
6.20116e-05
9.30699e-05
0.000143852
0.000226894
0.000362182
0.000581364
0.000934309
0.00149935
0.00238407
0.00377045
0.00601776
0.0095667
0.0151977
0.0242106
0.0372843
0.0524772
0.068628
0.0850212
0.101209
0.116906
0.131893
0.146038
0.159231
0.17133
0.182456
0.192771
0.201869
0.209658
0.216049
0.221
0.224567
0.226929
0.228365
0.229174
0.229599
0.229811
0.229913
0.229961
0.229983
0.229992
0.229997
0.229999
0.229999
0.23
0.23
0.23
0.23
0.23
0.23
0.23
0.23
4.20676e-11
1.83963e-10
4.23133e-10
8.25221e-10
1.49822e-09
2.61769e-09
4.46516e-09
7.48467e-09
1.23638e-08
2.01436e-08
3.23602e-08
5.12107e-08
7.97211e-08
1.21872e-07
1.82606e-07
2.67637e-07
3.82996e-07
5.34326e-07
7.26084e-07
9.60863e-07
1.23904e-06
1.55882e-06
1.91657e-06
2.30735e-06
2.72536e-06
3.16437e-06
3.61815e-06
4.0803e-06
4.54509e-06
5.00713e-06
5.46156e-06
5.90429e-06
6.33219e-06
6.74354e-06
7.13875e-06
7.52143e-06
7.89988e-06
8.28912e-06
8.71337e-06
9.2091e-06
9.82924e-06
1.06495e-05
1.17792e-05
1.33798e-05
1.56962e-05
1.91135e-05
2.42998e-05
3.23181e-05
4.49947e-05
6.54094e-05
9.8687e-05
0.000153209
0.000242483
0.000388043
0.000624007
0.00100419
0.00161325
0.00256071
0.0040554
0.0064758
0.0102984
0.0163701
0.0261066
0.0396273
0.0550945
0.0714045
0.0878759
0.104081
0.119742
0.134649
0.148674
0.161703
0.173604
0.18458
0.194662
0.203492
0.210987
0.217074
0.221735
0.22505
0.227218
0.228524
0.229254
0.229638
0.229829
0.229921
0.229964
0.229984
0.229993
0.229997
0.229999
0.229999
0.23
0.23
0.23
0.23
0.23
0.23
0.23
0.23
4.19894e-11
1.83613e-10
4.22296e-10
8.23482e-10
1.49477e-09
2.61096e-09
4.45212e-09
7.45973e-09
1.23166e-08
2.0056e-08
3.22011e-08
5.09288e-08
7.92371e-08
1.21069e-07
1.81327e-07
2.65689e-07
3.80167e-07
5.30428e-07
7.21005e-07
9.54621e-07
1.23183e-06
1.55103e-06
1.9088e-06
2.30038e-06
2.72013e-06
3.16203e-06
3.61965e-06
4.08702e-06
4.55832e-06
5.02814e-06
5.49163e-06
5.94466e-06
6.38405e-06
6.80802e-06
7.2169e-06
7.61429e-06
8.00853e-06
8.4149e-06
8.85825e-06
9.37627e-06
1.0024e-05
1.08807e-05
1.20615e-05
1.37346e-05
1.61593e-05
1.97732e-05
2.52554e-05
3.37684e-05
4.72821e-05
6.9119e-05
0.0001048
0.000163337
0.000259227
0.000415544
0.000668777
0.00107636
0.00172844
0.00273627
0.00437592
0.00696974
0.0110764
0.0176094
0.0281026
0.0420784
0.0578131
0.0742661
0.0907934
0.106991
0.122585
0.13738
0.151253
0.164085
0.175774
0.18661
0.19644
0.204995
0.2122
0.217996
0.222385
0.22547
0.227466
0.228659
0.229322
0.229671
0.229844
0.229928
0.229967
0.229985
0.229994
0.229997
0.229999
0.229999
0.23
0.23
0.23
0.23
0.23
0.23
0.23
0.23
4.18115e-11
1.82824e-10
4.20427e-10
8.1969e-10
1.48754e-09
2.59761e-09
4.42794e-09
7.41658e-09
1.22408e-08
1.99248e-08
3.19785e-08
5.05596e-08
7.86407e-08
1.20135e-07
1.79916e-07
2.6364e-07
3.77322e-07
5.26669e-07
7.16294e-07
9.49045e-07
1.22563e-06
1.54462e-06
1.90276e-06
2.29545e-06
2.71717e-06
3.16195e-06
3.62365e-06
4.09623e-06
4.5739e-06
5.05129e-06
5.52356e-06
5.98656e-06
6.43707e-06
6.87327e-06
7.29547e-06
7.70725e-06
8.11707e-06
8.54048e-06
9.00303e-06
9.54366e-06
1.02197e-05
1.11139e-05
1.23449e-05
1.40917e-05
1.66472e-05
2.04502e-05
2.62421e-05
3.52726e-05
4.96622e-05
7.29858e-05
0.000111175
0.000173896
0.000276671
0.000444183
0.000715434
0.00115179
0.00184952
0.00292691
0.00468176
0.00745366
0.0118416
0.0188264
0.0300529
0.0444628
0.0604444
0.0770204
0.0935846
0.109756
0.125267
0.139937
0.153648
0.166273
0.177765
0.188479
0.198059
0.206353
0.213288
0.21882
0.222964
0.225844
0.227689
0.228781
0.229385
0.229701
0.229858
0.229934
0.22997
0.229987
0.229994
0.229997
0.229999
0.23
0.23
0.23
0.23
0.23
0.23
0.23
0.23
0.23
4.1588e-11
1.81839e-10
4.18126e-10
8.15103e-10
1.47899e-09
2.58221e-09
4.40079e-09
7.36951e-09
1.21604e-08
1.97897e-08
3.17554e-08
5.0199e-08
7.80717e-08
1.19263e-07
1.78622e-07
2.61794e-07
3.74802e-07
5.23392e-07
7.12259e-07
9.44366e-07
1.22056e-06
1.53958e-06
1.8983e-06
2.29225e-06
2.71609e-06
3.16383e-06
3.62949e-06
4.10707e-06
4.59083e-06
5.07542e-06
5.556e-06
6.02841e-06
6.48943e-06
6.9372e-06
7.37201e-06
7.79746e-06
8.22215e-06
8.66197e-06
9.14317e-06
9.70601e-06
1.04098e-05
1.13391e-05
1.26205e-05
1.44543e-05
1.71299e-05
2.11249e-05
2.72315e-05
3.67882e-05
5.20685e-05
7.69026e-05
0.000117635
0.000184584
0.000294294
0.000473037
0.000762286
0.00122722
0.00196843
0.00311321
0.00497718
0.00791885
0.0125735
0.0199846
0.0318886
0.0466931
0.0628929
0.079571
0.0961571
0.112292
0.127715
0.142262
0.155815
0.168241
0.179562
0.190141
0.199494
0.20755
0.214244
0.219537
0.223465
0.226165
0.227878
0.228885
0.229439
0.229727
0.229871
0.22994
0.229973
0.229988
0.229995
0.229998
0.229999
0.23
0.23
0.23
0.23
0.23
0.23
0.23
0.23
0.23
4.1347e-11
1.80779e-10
4.15662e-10
8.10223e-10
1.46995e-09
2.56607e-09
4.37262e-09
7.32118e-09
1.20788e-08
1.96544e-08
3.1535e-08
4.98479e-08
7.75265e-08
1.18441e-07
1.77424e-07
2.60114e-07
3.72551e-07
5.20522e-07
7.08799e-07
9.40454e-07
1.21646e-06
1.53568e-06
1.89513e-06
2.29044e-06
2.71635e-06
3.16704e-06
3.63652e-06
4.11886e-06
4.60836e-06
5.09968e-06
5.588e-06
6.06915e-06
6.53991e-06
6.9984e-06
7.44491e-06
7.88309e-06
8.32168e-06
8.77694e-06
9.27583e-06
9.8597e-06
1.05886e-05
1.15531e-05
1.28931e-05
1.48039e-05
1.7599e-05
2.17853e-05
2.82061e-05
3.82893e-05
5.44617e-05
8.08083e-05
0.000124084
0.000195255
0.000311875
0.000501788
0.000808891
0.0013021
0.00208549
0.00329635
0.00526678
0.00837326
0.0132849
0.0211017
0.0335995
0.0487427
0.0651238
0.0818805
0.0984752
0.114569
0.129905
0.144334
0.15774
0.169983
0.181177
0.19158
0.200739
0.20859
0.215072
0.220157
0.223895
0.22644
0.22804
0.228974
0.229485
0.22975
0.229881
0.229945
0.229975
0.229989
0.229995
0.229998
0.229999
0.23
0.23
0.23
0.23
0.23
0.23
0.23
0.23
0.23
4.111e-11
1.79739e-10
4.13253e-10
8.05472e-10
1.46121e-09
2.55055e-09
4.34573e-09
7.27542e-09
1.20023e-08
1.95286e-08
3.13323e-08
4.95283e-08
7.70354e-08
1.17708e-07
1.76368e-07
2.58651e-07
3.70613e-07
5.18086e-07
7.05914e-07
9.37263e-07
1.21322e-06
1.53277e-06
1.89303e-06
2.28977e-06
2.71772e-06
3.17121e-06
3.64429e-06
4.13107e-06
4.62588e-06
5.1234e-06
5.61882e-06
6.10798e-06
6.58763e-06
7.0559e-06
7.5131e-06
7.96293e-06
8.4143e-06
8.88383e-06
9.39902e-06
1.00014e-05
1.07554e-05
1.176e-05
1.31499e-05
1.51357e-05
1.80477e-05
2.24216e-05
2.91514e-05
3.97541e-05
5.68089e-05
8.46541e-05
0.000130453
0.000205817
0.000329316
0.00053038
0.000855384
0.00137711
0.00220282
0.00348158
0.00556271
0.00884368
0.014034
0.022305
0.0352349
0.0506268
0.0671383
0.0839458
0.100536
0.116582
0.131835
0.146154
0.159428
0.171515
0.182587
0.192832
0.201821
0.209491
0.215786
0.220689
0.224262
0.226674
0.228178
0.229049
0.229524
0.229769
0.229891
0.229949
0.229977
0.22999
0.229995
0.229998
0.229999
0.23
0.23
0.23
0.23
0.23
0.23
0.23
0.23
0.23
4.08882e-11
1.78767e-10
4.11005e-10
8.01053e-10
1.4531e-09
2.53622e-09
4.32099e-09
7.23354e-09
1.19326e-08
1.94148e-08
3.11501e-08
4.92432e-08
7.66008e-08
1.17065e-07
1.7545e-07
2.57394e-07
3.68969e-07
5.16048e-07
7.03541e-07
9.34704e-07
1.21072e-06
1.53067e-06
1.89178e-06
2.28988e-06
2.71983e-06
3.17596e-06
3.65239e-06
4.14325e-06
4.64291e-06
5.14607e-06
5.64792e-06
6.1443e-06
6.63197e-06
7.10906e-06
7.57588e-06
8.0362e-06
8.49911e-06
8.98151e-06
9.51075e-06
1.01314e-05
1.09133e-05
1.19504e-05
1.33876e-05
1.54448e-05
1.84684e-05
2.30219e-05
3.00489e-05
4.11523e-05
5.90593e-05
8.83538e-05
0.000136595
0.000216023
0.000346196
0.0005581
0.000900553
0.00145016
0.0023168
0.00366275
0.00585384
0.00930936
0.0147809
0.023515
0.0367578
0.0523293
0.0689319
0.0857693
0.102345
0.11834
0.133515
0.147736
0.160889
0.172842
0.183815
0.193919
0.202757
0.210268
0.216399
0.221144
0.224575
0.226872
0.228293
0.229112
0.229556
0.229785
0.229898
0.229953
0.229978
0.22999
0.229996
0.229998
0.229999
0.23
0.23
0.23
0.23
0.23
0.23
0.23
0.23
0.23
4.06882e-11
1.77892e-10
4.08983e-10
7.97083e-10
1.44584e-09
2.52342e-09
4.29898e-09
7.19642e-09
1.18711e-08
1.93149e-08
3.09911e-08
4.89958e-08
7.62261e-08
1.16515e-07
1.74671e-07
2.56335e-07
3.67599e-07
5.14374e-07
7.01629e-07
9.32697e-07
1.20885e-06
1.52926e-06
1.89123e-06
2.29064e-06
2.72244e-06
3.181e-06
3.66049e-06
4.15506e-06
4.65909e-06
5.1673e-06
5.6749e-06
6.17772e-06
6.67251e-06
7.15741e-06
7.63275e-06
8.10238e-06
8.57553e-06
9.06884e-06
9.61158e-06
1.02518e-05
1.10552e-05
1.21223e-05
1.36031e-05
1.57264e-05
1.88535e-05
2.35743e-05
3.08782e-05
4.24494e-05
6.11531e-05
9.18023e-05
0.000142325
0.000225545
0.000361941
0.000583947
0.000942647
0.0015182
0.00242233
0.00383022
0.00612256
0.00973845
0.0154677
0.0246249
0.0381182
0.0538306
0.0705014
0.0873569
0.103915
0.11986
0.134965
0.149098
0.162144
0.173982
0.184878
0.194858
0.203563
0.210934
0.216923
0.22153
0.224838
0.227038
0.22839
0.229165
0.229584
0.229799
0.229905
0.229956
0.22998
0.229991
0.229996
0.229998
0.229999
0.23
0.23
0.23
0.23
0.23
0.23
0.23
0.23
0.23
4.05127e-11
1.77123e-10
4.0721e-10
7.93609e-10
1.43949e-09
2.51226e-09
4.27984e-09
7.16425e-09
1.18181e-08
1.92289e-08
3.08548e-08
4.8785e-08
7.59086e-08
1.16052e-07
1.7402e-07
2.55458e-07
3.66476e-07
5.13021e-07
7.00112e-07
9.31152e-07
1.20749e-06
1.52836e-06
1.89115e-06
2.29181e-06
2.72532e-06
3.18609e-06
3.66833e-06
4.16621e-06
4.67412e-06
5.1868e-06
5.69946e-06
6.20793e-06
6.70896e-06
7.20069e-06
7.68348e-06
8.16125e-06
8.64299e-06
9.14631e-06
9.70303e-06
1.03578e-05
1.11804e-05
1.22743e-05
1.37942e-05
1.5977e-05
1.91974e-05
2.40692e-05
3.16237e-05
4.36182e-05
6.30428e-05
9.49162e-05
0.000147496
0.000234127
0.000376107
0.000607149
0.000980337
0.00157895
0.0025157
0.00397825
0.00635943
0.0101154
0.016069
0.0255932
0.039299
0.0551286
0.0718544
0.088722
0.105262
0.121163
0.136205
0.150261
0.163212
0.174955
0.185791
0.195663
0.204253
0.211502
0.217368
0.221856
0.22506
0.227177
0.228471
0.229209
0.229606
0.22981
0.22991
0.229958
0.229981
0.229991
0.229996
0.229998
0.229999
0.23
0.23
0.23
0.23
0.23
0.23
0.23
0.23
0.23
4.0362e-11
1.76464e-10
4.05691e-10
7.90635e-10
1.43407e-09
2.50274e-09
4.26356e-09
7.13695e-09
1.17731e-08
1.91565e-08
3.07404e-08
4.86087e-08
7.56444e-08
1.15669e-07
1.73485e-07
2.54744e-07
3.65572e-07
5.11946e-07
6.98934e-07
9.29995e-07
1.20654e-06
1.52788e-06
1.89144e-06
2.29324e-06
2.72828e-06
3.19103e-06
3.67569e-06
4.17647e-06
4.68778e-06
5.20435e-06
5.72139e-06
6.23474e-06
6.74114e-06
7.23873e-06
7.7279e-06
8.21249e-06
8.7017e-06
9.2152e-06
9.78197e-06
1.04493e-05
1.12886e-05
1.24059e-05
1.39601e-05
1.61949e-05
1.94974e-05
2.45021e-05
3.22773e-05
4.46449e-05
6.47044e-05
9.76545e-05
0.00015204
0.000241658
0.000388515
0.000627428
0.0010132
0.0016318
0.00259626
0.00410583
0.00656319
0.010439
0.0165843
0.0264218
0.0403078
0.0562358
0.0730065
0.0898828
0.106406
0.122267
0.137256
0.151244
0.164115
0.175777
0.186569
0.196346
0.204837
0.211982
0.217743
0.22213
0.225245
0.227292
0.228538
0.229245
0.229625
0.229819
0.229914
0.22996
0.229982
0.229992
0.229996
0.229998
0.229999
0.23
0.23
0.23
0.23
0.23
0.23
0.23
0.23
0.23
4.02355e-11
1.75911e-10
4.04416e-10
7.88143e-10
1.42953e-09
2.49478e-09
4.24997e-09
7.11422e-09
1.17358e-08
1.90965e-08
3.0646e-08
4.84638e-08
7.54283e-08
1.15357e-07
1.73052e-07
2.54171e-07
3.64854e-07
5.11106e-07
6.98036e-07
9.2915e-07
1.20592e-06
1.5277e-06
1.89196e-06
2.29477e-06
2.73116e-06
3.19563e-06
3.6824e-06
4.18569e-06
4.69991e-06
5.2198e-06
5.74057e-06
6.25805e-06
6.76899e-06
7.27151e-06
7.766e-06
8.25618e-06
8.75287e-06
9.2735e-06
9.84874e-06
1.05267e-05
1.13802e-05
1.25173e-05
1.41007e-05
1.63802e-05
1.9753e-05
2.48718e-05
3.2837e-05
4.55257e-05
6.61317e-05
0.000100007
0.000155943
0.000248123
0.000399155
0.000644798
0.00104133
0.00167698
0.00266471
0.00421399
0.0067357
0.0107127
0.0170197
0.0271215
0.0411589
0.0571687
0.0739762
0.0908586
0.107366
0.123194
0.138136
0.152067
0.164867
0.176467
0.187224
0.196921
0.205326
0.212383
0.218055
0.222357
0.225399
0.227388
0.228593
0.229275
0.22964
0.229826
0.229918
0.229962
0.229983
0.229992
0.229997
0.229998
0.229999
0.23
0.23
0.23
0.23
0.23
0.23
0.23
0.23
0.23
4.01316e-11
1.75456e-10
4.0337e-10
7.86099e-10
1.42581e-09
2.48828e-09
4.23888e-09
7.0957e-09
1.17055e-08
1.90478e-08
3.05697e-08
4.8347e-08
7.52549e-08
1.15108e-07
1.72709e-07
2.5372e-07
3.64295e-07
5.10462e-07
6.97363e-07
9.28546e-07
1.20553e-06
1.5277e-06
1.89259e-06
2.29628e-06
2.73384e-06
3.19977e-06
3.68832e-06
4.19372e-06
4.71038e-06
5.23305e-06
5.75693e-06
6.27785e-06
6.79256e-06
7.29921e-06
7.79816e-06
8.29358e-06
8.79529e-06
9.3217e-06
9.90384e-06
1.05905e-05
1.14556e-05
1.26092e-05
1.42168e-05
1.65333e-05
1.99647e-05
2.5179e-05
3.33031e-05
4.62607e-05
6.73246e-05
0.000101976
0.000159211
0.000253535
0.000408059
0.000659327
0.00106483
0.00171467
0.00272138
0.00430414
0.00687965
0.010941
0.0173828
0.0277048
0.0418676
0.0579447
0.0747815
0.0916678
0.108162
0.12396
0.138863
0.152746
0.165487
0.177037
0.187766
0.197396
0.20573
0.212714
0.218311
0.222543
0.225524
0.227465
0.228637
0.229299
0.229653
0.229833
0.229921
0.229963
0.229983
0.229993
0.229997
0.229999
0.229999
0.23
0.23
0.23
0.23
0.23
0.23
0.23
0.23
0.23
4.00485e-11
1.75093e-10
4.02534e-10
7.84467e-10
1.42284e-09
2.48309e-09
4.23005e-09
7.08099e-09
1.16815e-08
1.90094e-08
3.05095e-08
4.82553e-08
7.51191e-08
1.14914e-07
1.72443e-07
2.53373e-07
3.63869e-07
5.0998e-07
6.96873e-07
9.28131e-07
1.2053e-06
1.52782e-06
1.89324e-06
2.29767e-06
2.7362e-06
3.20334e-06
3.69336e-06
4.20048e-06
4.71913e-06
5.24404e-06
5.77041e-06
6.29407e-06
6.81175e-06
7.32158e-06
7.82389e-06
8.32325e-06
8.82913e-06
9.36018e-06
9.9478e-06
1.06414e-05
1.15156e-05
1.26822e-05
1.4309e-05
1.66551e-05
2.01332e-05
2.54238e-05
3.36752e-05
4.68488e-05
6.82808e-05
0.000103557
0.00016184
0.000257899
0.000415263
0.00067113
0.00108402
0.00174563
0.00276799
0.00437844
0.00699824
0.0111289
0.0176815
0.0281845
0.0424492
0.0585799
0.0754391
0.0923271
0.108808
0.124582
0.139452
0.153296
0.16599
0.177495
0.188204
0.197779
0.206056
0.21298
0.218517
0.222692
0.225623
0.227527
0.228673
0.229318
0.229663
0.229837
0.229923
0.229964
0.229984
0.229993
0.229997
0.229999
0.229999
0.23
0.23
0.23
0.23
0.23
0.23
0.23
0.23
0.23
3.99845e-11
1.74813e-10
4.0189e-10
7.8321e-10
1.42056e-09
2.47911e-09
4.22327e-09
7.06971e-09
1.16631e-08
1.898e-08
3.04636e-08
4.81855e-08
7.50162e-08
1.14768e-07
1.72243e-07
2.53114e-07
3.63555e-07
5.09629e-07
6.96527e-07
9.27855e-07
1.20519e-06
1.528e-06
1.89385e-06
2.29887e-06
2.73817e-06
3.20627e-06
3.69744e-06
4.20592e-06
4.72612e-06
5.25277e-06
5.78109e-06
6.30688e-06
6.82687e-06
7.33921e-06
7.84433e-06
8.34637e-06
8.85526e-06
9.38972e-06
9.9814e-06
1.06801e-05
1.15612e-05
1.27374e-05
1.43785e-05
1.67465e-05
2.02595e-05
2.56067e-05
3.39525e-05
4.72857e-05
6.8989e-05
0.000104724
0.000163774
0.000261103
0.00042055
0.000679822
0.00109828
0.00176908
0.00280439
0.00443952
0.00709502
0.0112811
0.0179228
0.0285717
0.0429167
0.0590877
0.0759624
0.0928495
0.109319
0.125071
0.139914
0.153727
0.166382
0.177853
0.188546
0.198078
0.20631
0.213187
0.218677
0.222808
0.225701
0.227575
0.2287
0.229333
0.22967
0.229841
0.229925
0.229965
0.229984
0.229993
0.229997
0.229999
0.229999
0.23
0.23
0.23
0.23
0.23
0.23
0.23
0.23
0.23
3.9938e-11
1.7461e-10
4.01423e-10
7.82298e-10
1.4189e-09
2.47622e-09
4.21836e-09
7.06155e-09
1.16498e-08
1.89588e-08
3.04306e-08
4.81354e-08
7.49424e-08
1.14663e-07
1.72101e-07
2.52931e-07
3.63335e-07
5.09387e-07
6.96293e-07
9.2768e-07
1.20515e-06
1.52817e-06
1.89435e-06
2.29981e-06
2.73969e-06
3.20851e-06
3.70053e-06
4.21001e-06
4.73134e-06
5.25927e-06
5.78899e-06
6.3163e-06
6.83793e-06
7.35199e-06
7.85903e-06
8.36308e-06
8.87411e-06
9.41098e-06
1.00055e-05
1.07077e-05
1.15935e-05
1.27765e-05
1.44274e-05
1.68106e-05
2.03473e-05
2.57329e-05
3.41419e-05
4.75801e-05
6.94581e-05
0.000105479
0.000164989
0.000263035
0.000423562
0.000684387
0.00110493
0.00177818
0.00281447
0.00450519
0.00717728
0.0114013
0.0181098
0.0288713
0.043275
0.0594738
0.0763574
0.0932416
0.1097
0.125435
0.140257
0.154045
0.166671
0.178117
0.188799
0.198298
0.206496
0.213338
0.218794
0.222892
0.225757
0.22761
0.22872
0.229344
0.229676
0.229844
0.229926
0.229966
0.229984
0.229993
0.229997
0.229999
0.229999
0.23
0.23
0.23
0.23
0.23
0.23
0.23
0.23
0.23
3.99077e-11
1.74478e-10
4.01119e-10
7.81705e-10
1.41782e-09
2.47434e-09
4.21518e-09
7.05626e-09
1.16412e-08
1.8945e-08
3.04092e-08
4.81031e-08
7.4895e-08
1.14596e-07
1.7201e-07
2.52815e-07
3.63196e-07
5.09235e-07
6.9615e-07
9.27579e-07
1.20513e-06
1.5283e-06
1.8947e-06
2.30046e-06
2.74072e-06
3.21001e-06
3.70259e-06
4.21272e-06
4.7348e-06
5.26356e-06
5.79419e-06
6.32251e-06
6.84521e-06
7.36045e-06
7.86863e-06
8.37391e-06
8.88629e-06
9.42466e-06
1.0021e-05
1.07254e-05
1.16143e-05
1.28015e-05
1.44589e-05
1.68519e-05
2.04042e-05
2.5815e-05
3.4266e-05
4.77751e-05
6.97731e-05
0.000105997
0.000165845
0.000264452
0.000425904
0.00068826
0.00111136
0.00178899
0.00283266
0.00453742
0.00722769
0.01148
0.0182342
0.029071
0.0435144
0.0597319
0.0766213
0.093503
0.109954
0.125677
0.140485
0.154256
0.166862
0.178291
0.188965
0.198443
0.206618
0.213437
0.21887
0.222947
0.225794
0.227632
0.228734
0.229351
0.22968
0.229846
0.229927
0.229966
0.229985
0.229993
0.229997
0.229999
0.229999
0.23
0.23
0.23
0.23
0.23
0.23
0.23
0.23
0.23
3.98929e-11
1.74413e-10
4.0097e-10
7.81417e-10
1.4173e-09
2.47343e-09
4.21365e-09
7.05372e-09
1.16371e-08
1.89385e-08
3.03991e-08
4.80877e-08
7.48726e-08
1.14564e-07
1.71967e-07
2.5276e-07
3.63131e-07
5.09165e-07
6.96083e-07
9.27533e-07
1.20513e-06
1.52837e-06
1.89487e-06
2.30078e-06
2.74122e-06
3.21074e-06
3.7036e-06
4.21404e-06
4.73648e-06
5.26565e-06
5.79672e-06
6.32552e-06
6.84874e-06
7.36451e-06
7.87325e-06
8.37913e-06
8.89215e-06
9.43126e-06
1.00284e-05
1.0734e-05
1.16244e-05
1.28139e-05
1.44745e-05
1.68725e-05
2.04328e-05
2.58566e-05
3.43293e-05
4.78753e-05
6.99364e-05
0.000106268
0.0001663
0.000265216
0.000427184
0.000690398
0.00111492
0.00179486
0.00284214
0.0045528
0.00725207
0.0115184
0.0182953
0.0291691
0.0436325
0.0598595
0.0767518
0.0936323
0.110079
0.125796
0.140596
0.154359
0.166955
0.178376
0.189046
0.198512
0.206676
0.213484
0.218906
0.222973
0.225811
0.227643
0.22874
0.229355
0.229681
0.229847
0.229928
0.229967
0.229985
0.229993
0.229997
0.229999
0.229999
0.23
0.23
0.23
0.23
0.23
0.23
0.23
0.23
0.23
3.98928e-11
1.74412e-10
4.00969e-10
7.81413e-10
1.4173e-09
2.47342e-09
4.21363e-09
7.0537e-09
1.1637e-08
1.89384e-08
3.0399e-08
4.80876e-08
7.48724e-08
1.14564e-07
1.71967e-07
2.5276e-07
3.6313e-07
5.09164e-07
6.96082e-07
9.27532e-07
1.20513e-06
1.52837e-06
1.89487e-06
2.30078e-06
2.74122e-06
3.21074e-06
3.7036e-06
4.21404e-06
4.73648e-06
5.26565e-06
5.79672e-06
6.32551e-06
6.84874e-06
7.3645e-06
7.87324e-06
8.37912e-06
8.89215e-06
9.43128e-06
1.00285e-05
1.07342e-05
1.16247e-05
1.28143e-05
1.44752e-05
1.68735e-05
2.04341e-05
2.58584e-05
3.43315e-05
4.78779e-05
6.99396e-05
0.000106272
0.000166303
0.000265216
0.000427178
0.00069038
0.00111488
0.00179479
0.00284201
0.0045526
0.00725174
0.0115178
0.0182943
0.0291675
0.0436309
0.0598583
0.076751
0.0936319
0.110079
0.125796
0.140596
0.154359
0.166955
0.178376
0.189046
0.198513
0.206676
0.213484
0.218906
0.222973
0.225811
0.227643
0.22874
0.229355
0.229681
0.229847
0.229928
0.229967
0.229985
0.229993
0.229997
0.229999
0.229999
0.23
0.23
0.23
0.23
0.23
0.23
0.23
0.23
0.23
3.99072e-11
1.74475e-10
4.01113e-10
7.81694e-10
1.41781e-09
2.47431e-09
4.21513e-09
7.05618e-09
1.1641e-08
1.89449e-08
3.0409e-08
4.81026e-08
7.48944e-08
1.14595e-07
1.72009e-07
2.52813e-07
3.63194e-07
5.09233e-07
6.96147e-07
9.27575e-07
1.20513e-06
1.5283e-06
1.8947e-06
2.30046e-06
2.74072e-06
3.21001e-06
3.70259e-06
4.21272e-06
4.7348e-06
5.26356e-06
5.79419e-06
6.32249e-06
6.8452e-06
7.36043e-06
7.86861e-06
8.37389e-06
8.88629e-06
9.42472e-06
1.00211e-05
1.07258e-05
1.1615e-05
1.28027e-05
1.44607e-05
1.68545e-05
2.04078e-05
2.58197e-05
3.42718e-05
4.77819e-05
6.97808e-05
0.000106005
0.000165851
0.00026445
0.000425883
0.000688198
0.00111122
0.0017887
0.00283215
0.00453658
0.0072267
0.0114782
0.018231
0.0290653
0.0435089
0.0597278
0.0766186
0.0935015
0.109953
0.125677
0.140485
0.154256
0.166862
0.178292
0.188965
0.198443
0.206618
0.213437
0.21887
0.222947
0.225794
0.227632
0.228734
0.229351
0.22968
0.229846
0.229927
0.229966
0.229985
0.229993
0.229997
0.229999
0.229999
0.23
0.23
0.23
0.23
0.23
0.23
0.23
0.23
0.23
3.99371e-11
1.74606e-10
4.01414e-10
7.8228e-10
1.41887e-09
2.47616e-09
4.21828e-09
7.06141e-09
1.16496e-08
1.89584e-08
3.04301e-08
4.81346e-08
7.49414e-08
1.14661e-07
1.72099e-07
2.52929e-07
3.63332e-07
5.09383e-07
6.96288e-07
9.27674e-07
1.20514e-06
1.52816e-06
1.89434e-06
2.29981e-06
2.73969e-06
3.20851e-06
3.70053e-06
4.21e-06
4.73134e-06
5.25927e-06
5.78898e-06
6.31629e-06
6.83791e-06
7.35196e-06
7.859e-06
8.36305e-06
8.87412e-06
9.41106e-06
1.00057e-05
1.07082e-05
1.15945e-05
1.27781e-05
1.44301e-05
1.68145e-05
2.03528e-05
2.57402e-05
3.41511e-05
4.75917e-05
6.94724e-05
0.000105497
0.000165011
0.00026306
0.000423588
0.000684409
0.00110493
0.00177816
0.00281439
0.00450396
0.00717557
0.0113987
0.0181055
0.0288638
0.0432678
0.0594684
0.0763538
0.0932396
0.109699
0.125435
0.140258
0.154046
0.166672
0.178118
0.188799
0.198299
0.206496
0.213338
0.218794
0.222892
0.225757
0.22761
0.22872
0.229344
0.229676
0.229844
0.229926
0.229966
0.229984
0.229993
0.229997
0.229999
0.229999
0.23
0.23
0.23
0.23
0.23
0.23
0.23
0.23
0.23
3.99832e-11
1.74808e-10
4.01878e-10
7.83186e-10
1.42051e-09
2.47903e-09
4.22315e-09
7.06952e-09
1.16628e-08
1.89795e-08
3.04629e-08
4.81845e-08
7.50147e-08
1.14766e-07
1.7224e-07
2.5311e-07
3.6355e-07
5.09623e-07
6.96519e-07
9.27847e-07
1.20518e-06
1.52799e-06
1.89384e-06
2.29886e-06
2.73816e-06
3.20627e-06
3.69744e-06
4.20592e-06
4.72611e-06
5.25277e-06
5.78108e-06
6.30686e-06
6.82685e-06
7.33917e-06
7.84429e-06
8.34634e-06
8.85526e-06
9.38979e-06
9.98162e-06
1.06806e-05
1.15621e-05
1.2739e-05
1.43812e-05
1.67506e-05
2.02654e-05
2.56146e-05
3.39623e-05
4.72968e-05
6.89996e-05
0.00010473
0.000163768
0.000261068
0.00042046
0.000679641
0.00109798
0.00176871
0.00280414
0.00443894
0.00709392
0.0112793
0.0179198
0.0285669
0.0429122
0.0590845
0.0759604
0.0928486
0.109319
0.125071
0.139915
0.153727
0.166383
0.177854
0.188547
0.198079
0.20631
0.213187
0.218677
0.222808
0.225701
0.227575
0.2287
0.229333
0.22967
0.229841
0.229925
0.229965
0.229984
0.229993
0.229997
0.229999
0.229999
0.23
0.23
0.23
0.23
0.23
0.23
0.23
0.23
0.23
4.00468e-11
1.75086e-10
4.02518e-10
7.84435e-10
1.42278e-09
2.483e-09
4.22989e-09
7.08074e-09
1.16811e-08
1.90087e-08
3.05086e-08
4.82539e-08
7.51171e-08
1.14911e-07
1.72439e-07
2.53368e-07
3.63863e-07
5.09971e-07
6.96863e-07
9.28119e-07
1.20529e-06
1.52781e-06
1.89323e-06
2.29766e-06
2.73619e-06
3.20333e-06
3.69335e-06
4.20047e-06
4.71912e-06
5.24403e-06
5.77039e-06
6.29405e-06
6.81172e-06
7.32154e-06
7.82385e-06
8.32321e-06
8.8291e-06
9.36019e-06
9.9479e-06
1.06416e-05
1.15162e-05
1.26833e-05
1.43109e-05
1.66582e-05
2.01383e-05
2.54314e-05
3.36864e-05
4.68648e-05
6.83032e-05
0.000103587
0.000161878
0.000257942
0.000415299
0.000671138
0.00108395
0.00174546
0.00276774
0.00437807
0.00699769
0.0111281
0.0176803
0.0281828
0.0424479
0.0585792
0.075439
0.0923275
0.108809
0.124583
0.139453
0.153297
0.16599
0.177496
0.188204
0.19778
0.206056
0.21298
0.218517
0.222693
0.225624
0.227527
0.228673
0.229318
0.229663
0.229837
0.229923
0.229964
0.229984
0.229993
0.229997
0.229999
0.229999
0.23
0.23
0.23
0.23
0.23
0.23
0.23
0.23
0.23
4.01295e-11
1.75447e-10
4.0335e-10
7.86059e-10
1.42574e-09
2.48816e-09
4.23868e-09
7.09539e-09
1.1705e-08
1.90471e-08
3.05686e-08
4.83453e-08
7.52524e-08
1.15105e-07
1.72704e-07
2.53713e-07
3.64286e-07
5.10452e-07
6.9735e-07
9.28532e-07
1.20551e-06
1.52768e-06
1.89257e-06
2.29626e-06
2.73382e-06
3.19975e-06
3.6883e-06
4.1937e-06
4.71036e-06
5.23303e-06
5.7569e-06
6.27782e-06
6.79253e-06
7.29917e-06
7.7981e-06
8.29353e-06
8.79524e-06
9.32165e-06
9.90383e-06
1.05906e-05
1.14558e-05
1.26096e-05
1.42175e-05
1.65346e-05
1.99669e-05
2.51826e-05
3.33086e-05
4.62689e-05
6.73363e-05
0.000101992
0.000159231
0.000253557
0.00040808
0.00065934
0.00106483
0.00171466
0.00272139
0.00430406
0.00687951
0.0109408
0.0173827
0.0277048
0.0418678
0.0579452
0.0747822
0.0916687
0.108163
0.123961
0.138864
0.152747
0.165488
0.177038
0.187766
0.197396
0.205731
0.212714
0.218312
0.222543
0.225524
0.227465
0.228637
0.229299
0.229653
0.229833
0.229921
0.229963
0.229983
0.229993
0.229997
0.229999
0.229999
0.23
0.23
0.23
0.23
0.23
0.23
0.23
0.23
0.23
4.0233e-11
1.759e-10
4.04392e-10
7.88095e-10
1.42944e-09
2.49464e-09
4.24974e-09
7.11385e-09
1.17353e-08
1.90956e-08
3.06446e-08
4.84617e-08
7.54253e-08
1.15353e-07
1.73046e-07
2.54163e-07
3.64844e-07
5.11093e-07
6.9802e-07
9.29132e-07
1.2059e-06
1.52767e-06
1.89194e-06
2.29474e-06
2.73114e-06
3.1956e-06
3.68237e-06
4.18566e-06
4.69988e-06
5.21977e-06
5.74054e-06
6.25801e-06
6.76894e-06
7.27146e-06
7.76594e-06
8.25612e-06
8.7528e-06
9.27342e-06
9.84867e-06
1.05267e-05
1.13801e-05
1.25173e-05
1.41008e-05
1.63804e-05
1.97534e-05
2.48725e-05
3.28382e-05
4.55274e-05
6.61341e-05
0.000100011
0.000155946
0.000248125
0.000399152
0.000644785
0.00104129
0.00167691
0.00266457
0.00421392
0.00673568
0.0107127
0.0170199
0.0271219
0.0411595
0.0571695
0.0739771
0.0908596
0.107367
0.123195
0.138137
0.152068
0.164868
0.176468
0.187224
0.196922
0.205327
0.212384
0.218055
0.222357
0.225399
0.227388
0.228593
0.229275
0.22964
0.229826
0.229918
0.229962
0.229983
0.229992
0.229997
0.229998
0.229999
0.23
0.23
0.23
0.23
0.23
0.23
0.23
0.23
0.23
4.03591e-11
1.76451e-10
4.05662e-10
7.9058e-10
1.43397e-09
2.50257e-09
4.26328e-09
7.13651e-09
1.17724e-08
1.91554e-08
3.07388e-08
4.86062e-08
7.56409e-08
1.15664e-07
1.73478e-07
2.54734e-07
3.65559e-07
5.1193e-07
6.98916e-07
9.29973e-07
1.20652e-06
1.52785e-06
1.89141e-06
2.2932e-06
2.72825e-06
3.19099e-06
3.67565e-06
4.17644e-06
4.68774e-06
5.20431e-06
5.72135e-06
6.23469e-06
6.74108e-06
7.23867e-06
7.72783e-06
8.21241e-06
8.70161e-06
9.21509e-06
9.78186e-06
1.04492e-05
1.12885e-05
1.24058e-05
1.39599e-05
1.61947e-05
1.94971e-05
2.45018e-05
3.2277e-05
4.46444e-05
6.47037e-05
9.76532e-05
0.000152038
0.000241655
0.000388509
0.000627418
0.00101319
0.00163179
0.00259625
0.00410584
0.00656324
0.0104392
0.0165845
0.0264223
0.0403085
0.0562367
0.0730075
0.0898838
0.106407
0.122268
0.137257
0.151245
0.164116
0.175778
0.18657
0.196347
0.204837
0.211982
0.217743
0.22213
0.225246
0.227293
0.228538
0.229245
0.229625
0.229819
0.229914
0.22996
0.229982
0.229992
0.229996
0.229998
0.229999
0.23
0.23
0.23
0.23
0.23
0.23
0.23
0.23
0.23
4.05093e-11
1.77108e-10
4.07177e-10
7.93545e-10
1.43937e-09
2.51206e-09
4.27952e-09
7.16374e-09
1.18172e-08
1.92277e-08
3.08529e-08
4.87822e-08
7.59045e-08
1.16046e-07
1.74012e-07
2.55447e-07
3.66462e-07
5.13003e-07
7.0009e-07
9.31125e-07
1.20746e-06
1.52833e-06
1.89112e-06
2.29177e-06
2.72527e-06
3.18605e-06
3.66828e-06