/*--------------------------------*- C++ -*----------------------------------*\
  =========                 |
  \\      /  F ield         | OpenFOAM: The Open Source CFD Toolbox
   \\    /   O peration     | Website:  https://openfoam.org
    \\  /    A nd           | Version:  8
     \\/     M anipulation  |
\*---------------------------------------------------------------------------*/
FoamFile
{
    version     2.0;
    format      ascii;
    class       surfaceScalarField;
    location    "0.25/fluid";
    object      phi;
}
// * * * * * * * * * * * * * * * * * * * * * * * * * * * * * * * * * * * * * //

dimensions      [1 0 -1 0 0 0 0];

internalField   nonuniform List<scalar> 
7860
(
6.572e-07
-1.77469e-08
6.54375e-07
-5.3379e-08
6.5031e-07
-8.88623e-08
6.44937e-07
-1.24032e-07
6.38141e-07
-1.5889e-07
6.2977e-07
-1.93392e-07
6.19645e-07
-2.27454e-07
6.0757e-07
-2.60956e-07
5.93345e-07
-2.93735e-07
5.76787e-07
-3.25579e-07
5.57765e-07
-3.56221e-07
5.36296e-07
-3.85329e-07
5.12421e-07
-4.12455e-07
4.86258e-07
-4.37049e-07
4.58024e-07
-4.58473e-07
4.28053e-07
-4.76068e-07
3.96788e-07
-4.89273e-07
3.6474e-07
-4.97772e-07
3.32437e-07
-5.01618e-07
3.00362e-07
-5.01264e-07
2.68901e-07
-4.97474e-07
2.38327e-07
-4.9115e-07
2.08806e-07
-4.83159e-07
1.80421e-07
-4.74216e-07
1.53203e-07
-4.64835e-07
1.27186e-07
-4.55346e-07
1.0236e-07
-4.45918e-07
7.86706e-08
-4.36622e-07
5.60507e-08
-4.27468e-07
3.44317e-08
-4.1843e-07
1.3763e-08
-4.09475e-07
-5.99961e-09
-4.00575e-07
-2.48935e-08
-3.91705e-07
-4.29497e-08
-3.82855e-07
-6.01965e-08
-3.74025e-07
-7.66559e-08
-3.65207e-07
-9.2346e-08
-3.56356e-07
-1.07284e-07
-3.47482e-07
-1.21488e-07
-3.38603e-07
-1.34974e-07
-3.29741e-07
-1.47761e-07
-3.20918e-07
-1.59866e-07
-3.12159e-07
-1.71307e-07
-3.0349e-07
-1.82104e-07
-2.94937e-07
-1.92274e-07
-2.86527e-07
-2.01837e-07
-2.78286e-07
-2.10813e-07
-2.70239e-07
-2.19219e-07
-2.62411e-07
-2.27077e-07
-2.54826e-07
-2.34404e-07
-2.4751e-07
-2.41221e-07
-2.40488e-07
-2.47548e-07
-2.33787e-07
-2.53409e-07
-2.27436e-07
-2.58829e-07
-2.21473e-07
-2.63838e-07
-2.15939e-07
-2.68477e-07
-2.10893e-07
-2.72798e-07
-2.06406e-07
-2.76869e-07
-2.02603e-07
-2.80786e-07
-1.99621e-07
-2.84677e-07
-1.97594e-07
-2.88741e-07
-1.96899e-07
-2.93293e-07
-1.98027e-07
-2.9871e-07
-2.01825e-07
-3.05216e-07
-2.09557e-07
-3.12778e-07
-2.2007e-07
-3.21352e-07
-2.32796e-07
-3.30954e-07
-2.47504e-07
-3.4166e-07
-2.6417e-07
-3.53605e-07
-2.82905e-07
-3.6699e-07
-3.03931e-07
-3.82093e-07
-3.27572e-07
-3.99293e-07
-3.54241e-07
-4.19093e-07
-3.84431e-07
-4.42136e-07
-4.18792e-07
-4.69199e-07
-4.57971e-07
-5.01106e-07
-5.02176e-07
-5.38452e-07
-5.50605e-07
-5.81416e-07
-6.00679e-07
-6.29871e-07
-6.47338e-07
-6.82983e-07
-6.83672e-07
-7.38941e-07
-7.03688e-07
-7.95203e-07
-7.05566e-07
-8.49307e-07
-6.9199e-07
-8.99546e-07
-6.67521e-07
-9.451e-07
-6.36241e-07
-9.85743e-07
-6.00962e-07
-1.02153e-06
-5.63282e-07
-1.05258e-06
-5.24073e-07
-1.07897e-06
-4.83821e-07
-1.10117e-06
-4.42749e-07
-1.1197e-06
-4.01096e-07
-1.13503e-06
-3.59067e-07
-1.1476e-06
-3.16826e-07
-1.15778e-06
-2.74495e-07
-1.16592e-06
-2.32159e-07
-1.17228e-06
-1.89865e-07
-1.17711e-06
-1.4763e-07
-1.18059e-06
-1.05434e-07
-1.18286e-06
-6.32168e-08
-2.1038e-08
6.57968e-07
-1.71816e-08
6.55849e-07
-5.12595e-08
6.5206e-07
-8.50726e-08
6.46626e-07
-1.18598e-07
6.39499e-07
-1.51763e-07
6.30594e-07
-1.84485e-07
6.19808e-07
-2.16665e-07
6.07036e-07
-2.4818e-07
5.92183e-07
-2.78874e-07
5.75173e-07
-3.0856e-07
5.55977e-07
-3.37009e-07
5.34633e-07
-3.6396e-07
5.11214e-07
-3.89e-07
4.85854e-07
-4.11637e-07
4.58758e-07
-4.31307e-07
4.30217e-07
-4.47436e-07
4.00595e-07
-4.59536e-07
3.70303e-07
-4.67344e-07
3.39758e-07
-4.7092e-07
3.0934e-07
-4.70684e-07
2.79357e-07
-4.67326e-07
2.50032e-07
-4.61663e-07
2.21506e-07
-4.54479e-07
1.93857e-07
-4.46422e-07
1.67118e-07
-4.37965e-07
1.41316e-07
-4.29423e-07
1.16457e-07
-4.20951e-07
9.25327e-08
-4.12599e-07
6.95139e-08
-4.0436e-07
4.7379e-08
-3.96214e-07
2.61112e-08
-3.88134e-07
5.69333e-09
-3.80089e-07
-1.3892e-08
-3.72058e-07
-3.26597e-08
-3.64031e-07
-5.06272e-08
-3.56006e-07
-6.78078e-08
-3.47978e-07
-8.42131e-08
-3.39906e-07
-9.98574e-08
-3.31796e-07
-1.14756e-07
-3.23666e-07
-1.28923e-07
-3.15536e-07
-1.42378e-07
-3.07428e-07
-1.55137e-07
-2.99367e-07
-1.6722e-07
-2.91376e-07
-1.78646e-07
-2.83482e-07
-1.89436e-07
-2.7571e-07
-1.9961e-07
-2.68086e-07
-2.0919e-07
-2.60634e-07
-2.18199e-07
-2.53378e-07
-2.2666e-07
-2.46344e-07
-2.34596e-07
-2.39553e-07
-2.42034e-07
-2.33031e-07
-2.49001e-07
-2.26801e-07
-2.55529e-07
-2.20891e-07
-2.61653e-07
-2.15332e-07
-2.67419e-07
-2.10159e-07
-2.72879e-07
-2.05419e-07
-2.78101e-07
-2.01172e-07
-2.83163e-07
-1.97531e-07
-2.88183e-07
-1.94595e-07
-2.93293e-07
-1.92481e-07
-2.98665e-07
-1.9153e-07
-3.04455e-07
-1.92251e-07
-3.10764e-07
-1.95545e-07
-3.17907e-07
-2.02458e-07
-3.26041e-07
-2.11991e-07
-3.35247e-07
-2.23658e-07
-3.45594e-07
-2.37239e-07
-3.57175e-07
-2.52686e-07
-3.7012e-07
-2.70076e-07
-3.84603e-07
-2.89587e-07
-4.00851e-07
-3.11491e-07
-4.19149e-07
-3.36147e-07
-4.39839e-07
-3.63989e-07
-4.63306e-07
-3.95632e-07
-4.90008e-07
-4.31651e-07
-5.20443e-07
-4.72207e-07
-5.55052e-07
-5.1655e-07
-5.94128e-07
-5.62225e-07
-6.37747e-07
-6.04354e-07
-6.85358e-07
-6.36629e-07
-7.35526e-07
-6.53958e-07
-7.86226e-07
-6.55157e-07
-8.35547e-07
-6.4284e-07
-8.82148e-07
-6.21011e-07
-9.25318e-07
-5.93116e-07
-9.6478e-07
-5.61522e-07
-1.00048e-06
-5.27589e-07
-1.03246e-06
-4.92099e-07
-1.06072e-06
-4.55563e-07
-1.0854e-06
-4.18073e-07
-1.10669e-06
-3.79807e-07
-1.12482e-06
-3.40935e-07
-1.14005e-06
-3.01601e-07
-1.15262e-06
-2.61923e-07
-1.16278e-06
-2.21996e-07
-1.17075e-06
-1.81892e-07
-1.17673e-06
-1.41658e-07
-1.18084e-06
-1.01324e-07
-1.18315e-06
-6.09075e-08
-2.0362e-08
6.57577e-07
-1.62251e-08
6.54844e-07
-4.85264e-08
6.50353e-07
-8.0581e-08
6.44067e-07
-1.12312e-07
6.35951e-07
-1.43646e-07
6.25965e-07
-1.74497e-07
6.14073e-07
-2.0477e-07
6.0025e-07
-2.34353e-07
5.84494e-07
-2.63112e-07
5.66824e-07
-2.90879e-07
5.47275e-07
-3.17444e-07
5.25874e-07
-3.42535e-07
5.02706e-07
-3.65798e-07
4.77918e-07
-3.86799e-07
4.51718e-07
-4.0504e-07
4.24378e-07
-4.20006e-07
3.96217e-07
-4.31264e-07
3.67582e-07
-4.38577e-07
3.3881e-07
-4.42002e-07
3.102e-07
-4.41915e-07
2.81984e-07
-4.38949e-07
2.54329e-07
-4.33849e-07
2.27339e-07
-4.27338e-07
2.01071e-07
-4.20013e-07
1.75545e-07
-4.12309e-07
1.50745e-07
-4.04505e-07
1.2666e-07
-3.96759e-07
1.03282e-07
-3.89123e-07
8.06128e-08
-3.81604e-07
5.86642e-08
-3.74186e-07
3.74399e-08
-3.66837e-07
1.6943e-08
-3.59526e-07
-2.82525e-09
-3.52229e-07
-2.18685e-08
-3.44932e-07
-4.01889e-08
-3.37633e-07
-5.77898e-08
-3.30329e-07
-7.46741e-08
-3.22977e-07
-9.08489e-08
-3.15579e-07
-1.06323e-07
-3.08153e-07
-1.21106e-07
-3.00715e-07
-1.35212e-07
-2.93288e-07
-1.48655e-07
-2.85891e-07
-1.61451e-07
-2.78549e-07
-1.73619e-07
-2.71286e-07
-1.85178e-07
-2.64124e-07
-1.9615e-07
-2.57088e-07
-2.06557e-07
-2.50202e-07
-2.16425e-07
-2.43487e-07
-2.25781e-07
-2.36966e-07
-2.34654e-07
-2.30659e-07
-2.43077e-07
-2.24588e-07
-2.51086e-07
-2.18774e-07
-2.5872e-07
-2.13239e-07
-2.66027e-07
-2.08009e-07
-2.73059e-07
-2.03113e-07
-2.79876e-07
-1.98588e-07
-2.8655e-07
-1.94487e-07
-2.93147e-07
-1.90925e-07
-2.99769e-07
-1.87966e-07
-3.06504e-07
-1.85744e-07
-3.13435e-07
-1.84602e-07
-3.20637e-07
-1.85062e-07
-3.281e-07
-1.88113e-07
-3.36165e-07
-1.94436e-07
-3.45052e-07
-2.03161e-07
-3.54913e-07
-2.13866e-07
-3.65871e-07
-2.26364e-07
-3.78044e-07
-2.40613e-07
-3.91554e-07
-2.56685e-07
-4.06534e-07
-2.74749e-07
-4.2313e-07
-2.95067e-07
-4.415e-07
-3.17986e-07
-4.61799e-07
-3.43947e-07
-4.84174e-07
-3.73575e-07
-5.0882e-07
-4.07396e-07
-5.36035e-07
-4.45467e-07
-5.66322e-07
-4.8682e-07
-6.00375e-07
-5.28786e-07
-6.38686e-07
-5.66655e-07
-6.8114e-07
-5.94711e-07
-7.26658e-07
-6.08843e-07
-7.73457e-07
-6.08624e-07
-8.19737e-07
-5.96714e-07
-8.64164e-07
-5.76666e-07
-9.05945e-07
-5.51376e-07
-9.44693e-07
-5.22794e-07
-9.80262e-07
-4.92029e-07
-1.01266e-06
-4.59707e-07
-1.04202e-06
-4.26201e-07
-1.06836e-06
-3.91738e-07
-1.09169e-06
-3.56477e-07
-1.11208e-06
-3.20542e-07
-1.12964e-06
-2.84041e-07
-1.1445e-06
-2.47068e-07
-1.15678e-06
-2.09709e-07
-1.16664e-06
-1.72037e-07
-1.17418e-06
-1.34114e-07
-1.17952e-06
-9.59883e-08
-1.18273e-06
-5.76987e-08
-1.92684e-08
6.57626e-07
-1.53173e-08
6.54867e-07
-4.57672e-08
6.5025e-07
-7.59639e-08
6.43775e-07
-1.05837e-07
6.35435e-07
-1.35305e-07
6.25223e-07
-1.64284e-07
6.13134e-07
-1.92679e-07
5.9917e-07
-2.20385e-07
5.8334e-07
-2.47276e-07
5.65671e-07
-2.73199e-07
5.46205e-07
-2.97963e-07
5.25014e-07
-3.21321e-07
5.02205e-07
-3.42955e-07
4.77929e-07
-3.62475e-07
4.52387e-07
-3.79431e-07
4.25825e-07
-3.93358e-07
3.9853e-07
-4.03861e-07
3.70803e-07
-4.10724e-07
3.4294e-07
-4.13995e-07
3.15198e-07
-4.1402e-07
2.87781e-07
-4.11375e-07
2.60837e-07
-4.06749e-07
2.34458e-07
-4.00811e-07
2.08701e-07
-3.94117e-07
1.83591e-07
-3.87071e-07
1.59138e-07
-3.79936e-07
1.3534e-07
-3.72855e-07
1.12191e-07
-3.65879e-07
8.96961e-08
-3.59022e-07
6.78538e-08
-3.52264e-07
4.66645e-08
-3.45576e-07
2.61293e-08
-3.38925e-07
6.24926e-09
-3.32289e-07
-1.29745e-08
-3.25652e-07
-3.1544e-08
-3.19013e-07
-4.94596e-08
-3.12366e-07
-6.67212e-08
-3.05671e-07
-8.33321e-08
-2.98927e-07
-9.92977e-08
-2.92148e-07
-1.14626e-07
-2.85351e-07
-1.29325e-07
-2.78553e-07
-1.4341e-07
-2.71775e-07
-1.56892e-07
-2.65036e-07
-1.69791e-07
-2.58359e-07
-1.82123e-07
-2.51764e-07
-1.93911e-07
-2.45275e-07
-2.05177e-07
-2.38911e-07
-2.15948e-07
-2.32693e-07
-2.26252e-07
-2.2664e-07
-2.3612e-07
-2.2077e-07
-2.45587e-07
-2.15102e-07
-2.54691e-07
-2.09652e-07
-2.63473e-07
-2.0444e-07
-2.7198e-07
-1.99486e-07
-2.80263e-07
-1.94816e-07
-2.88375e-07
-1.90463e-07
-2.96379e-07
-1.86472e-07
-3.04327e-07
-1.82967e-07
-3.12313e-07
-1.79973e-07
-3.20371e-07
-1.77684e-07
-3.28553e-07
-1.76423e-07
-3.3689e-07
-1.76738e-07
-3.45334e-07
-1.79699e-07
-3.54233e-07
-1.85582e-07
-3.63816e-07
-1.93635e-07
-3.74253e-07
-2.03501e-07
-3.85679e-07
-2.15023e-07
-3.98216e-07
-2.28178e-07
-4.11976e-07
-2.43046e-07
-4.27075e-07
-2.59797e-07
-4.43629e-07
-2.7869e-07
-4.61767e-07
-3.00063e-07
-4.8162e-07
-3.24358e-07
-5.03346e-07
-3.52175e-07
-5.27186e-07
-3.83956e-07
-5.53508e-07
-4.19627e-07
-5.82812e-07
-4.58075e-07
-6.15651e-07
-4.96551e-07
-6.52377e-07
-5.30518e-07
-6.92736e-07
-5.54855e-07
-7.35672e-07
-5.66278e-07
-7.79648e-07
-5.64886e-07
-8.23201e-07
-5.533e-07
-8.65256e-07
-5.34684e-07
-9.05146e-07
-5.11522e-07
-9.425e-07
-4.85458e-07
-9.77125e-07
-4.57412e-07
-1.00894e-06
-4.27899e-07
-1.03793e-06
-3.97214e-07
-1.06412e-06
-3.65549e-07
-1.08755e-06
-3.33044e-07
-1.10828e-06
-2.99815e-07
-1.12636e-06
-2.65962e-07
-1.14185e-06
-2.31575e-07
-1.15482e-06
-1.96736e-07
-1.16534e-06
-1.61521e-07
-1.17346e-06
-1.25996e-07
-1.17923e-06
-9.02205e-08
-1.18267e-06
-5.42493e-08
-1.81216e-08
6.57557e-07
-1.43407e-08
6.54658e-07
-4.28675e-08
6.49849e-07
-7.11553e-08
6.43139e-07
-9.91256e-08
6.34534e-07
-1.267e-07
6.24047e-07
-1.53795e-07
6.11693e-07
-1.80323e-07
5.97496e-07
-2.06184e-07
5.81492e-07
-2.31265e-07
5.63728e-07
-2.55426e-07
5.44271e-07
-2.78492e-07
5.23212e-07
-3.00239e-07
5.00668e-07
-3.20378e-07
4.76795e-07
-3.38556e-07
4.51786e-07
-3.54359e-07
4.25873e-07
-3.67361e-07
3.99315e-07
-3.77199e-07
3.72384e-07
-3.83668e-07
3.45338e-07
-3.8681e-07
3.18404e-07
-3.86936e-07
2.91759e-07
-3.84576e-07
2.65528e-07
-3.80367e-07
2.39793e-07
-3.74931e-07
2.14599e-07
-3.68787e-07
1.89972e-07
-3.62318e-07
1.6592e-07
-3.5577e-07
1.42442e-07
-3.49272e-07
1.19542e-07
-3.42884e-07
9.7222e-08
-3.36616e-07
7.54839e-08
-3.30448e-07
5.43302e-08
-3.24351e-07
3.37639e-08
-3.18294e-07
1.37868e-08
-3.12252e-07
-5.60008e-09
-3.06211e-07
-2.43863e-08
-3.00176e-07
-4.25816e-08
-2.94124e-07
-6.01826e-08
-2.88026e-07
-7.71895e-08
-2.81879e-07
-9.36056e-08
-2.75694e-07
-1.09437e-07
-2.69484e-07
-1.24691e-07
-2.63266e-07
-1.39378e-07
-2.57055e-07
-1.53512e-07
-2.50872e-07
-1.67107e-07
-2.44735e-07
-1.80181e-07
-2.38664e-07
-1.92754e-07
-2.32677e-07
-2.04848e-07
-2.26793e-07
-2.16489e-07
-2.2103e-07
-2.27703e-07
-2.15405e-07
-2.38521e-07
-2.09932e-07
-2.48976e-07
-2.04628e-07
-2.59104e-07
-1.99507e-07
-2.68942e-07
-1.94585e-07
-2.78533e-07
-1.8988e-07
-2.87919e-07
-1.85416e-07
-2.97146e-07
-1.81222e-07
-3.06261e-07
-1.77346e-07
-3.15309e-07
-1.73911e-07
-3.24359e-07
-1.70917e-07
-3.33436e-07
-1.68604e-07
-3.42575e-07
-1.67288e-07
-3.51791e-07
-1.67536e-07
-3.61045e-07
-1.70476e-07
-3.70667e-07
-1.76006e-07
-3.80878e-07
-1.83483e-07
-3.91844e-07
-1.92607e-07
-4.03698e-07
-2.03255e-07
-4.16558e-07
-2.15422e-07
-4.3053e-07
-2.29198e-07
-4.45719e-07
-2.44758e-07
-4.6223e-07
-2.6236e-07
-4.80178e-07
-2.82336e-07
-4.99671e-07
-3.05135e-07
-5.20859e-07
-3.31319e-07
-5.43969e-07
-3.61252e-07
-5.6934e-07
-3.94743e-07
-5.97424e-07
-4.30549e-07
-6.28715e-07
-4.65851e-07
-6.6352e-07
-4.96276e-07
-7.01609e-07
-5.17235e-07
-7.42061e-07
-5.26165e-07
-7.8355e-07
-5.23614e-07
-8.24814e-07
-5.1216e-07
-8.64919e-07
-4.94644e-07
-9.03261e-07
-4.73213e-07
-9.39485e-07
-4.4925e-07
-9.73382e-07
-4.23523e-07
-1.00483e-06
-3.96455e-07
-1.03375e-06
-3.68292e-07
-1.06011e-06
-3.39193e-07
-1.08388e-06
-3.09275e-07
-1.10506e-06
-2.78633e-07
-1.12367e-06
-2.47355e-07
-1.13972e-06
-2.15522e-07
-1.15324e-06
-1.83212e-07
-1.16427e-06
-1.50495e-07
-1.17282e-06
-1.17443e-07
-1.17893e-06
-8.41181e-08
-1.18259e-06
-5.05824e-08
-1.68927e-08
6.57559e-07
-1.3366e-08
6.54641e-07
-3.99494e-08
6.49793e-07
-6.63068e-08
6.43031e-07
-9.23631e-08
6.34374e-07
-1.18042e-07
6.23845e-07
-1.43265e-07
6.11472e-07
-1.67947e-07
5.97291e-07
-1.91998e-07
5.81344e-07
-2.15312e-07
5.63689e-07
-2.37761e-07
5.44397e-07
-2.59185e-07
5.23561e-07
-2.7938e-07
5.01299e-07
-2.98084e-07
4.77761e-07
-3.14973e-07
4.53133e-07
-3.29669e-07
4.27636e-07
-3.41783e-07
4.01516e-07
-3.50978e-07
3.75032e-07
-3.57063e-07
3.4843e-07
-3.60072e-07
3.21925e-07
-3.60285e-07
2.95687e-07
-3.58188e-07
2.69837e-07
-3.54368e-07
2.4445e-07
-3.49402e-07
2.19571e-07
-3.43775e-07
1.95221e-07
-3.37845e-07
1.71404e-07
-3.3184e-07
1.48121e-07
-3.25887e-07
1.25373e-07
-3.20043e-07
1.03158e-07
-3.14317e-07
8.14764e-08
-3.0869e-07
6.03291e-08
-3.03134e-07
3.97187e-08
-2.97619e-07
1.96496e-08
-2.92124e-07
1.24568e-10
-2.86632e-07
-1.88759e-08
-2.81126e-07
-3.73303e-08
-2.75623e-07
-5.5238e-08
-2.70075e-07
-7.26011e-08
-2.64476e-07
-8.94225e-08
-2.58835e-07
-1.05706e-07
-2.53165e-07
-1.2146e-07
-2.47479e-07
-1.36691e-07
-2.41793e-07
-1.51412e-07
-2.36122e-07
-1.65635e-07
-2.30484e-07
-1.79376e-07
-2.24896e-07
-1.92654e-07
-2.19374e-07
-2.05489e-07
-2.13935e-07
-2.17903e-07
-2.08594e-07
-2.29921e-07
-2.03365e-07
-2.41571e-07
-1.98262e-07
-2.52881e-07
-1.93299e-07
-2.63882e-07
-1.88488e-07
-2.74608e-07
-1.83843e-07
-2.85092e-07
-1.79381e-07
-2.9537e-07
-1.75123e-07
-3.0548e-07
-1.711e-07
-3.15456e-07
-1.67359e-07
-3.25342e-07
-1.64016e-07
-3.35174e-07
-1.61078e-07
-3.44987e-07
-1.58789e-07
-3.5481e-07
-1.57469e-07
-3.64664e-07
-1.57696e-07
-3.74541e-07
-1.60631e-07
-3.84742e-07
-1.65851e-07
-3.95468e-07
-1.72815e-07
-4.06875e-07
-1.81274e-07
-4.19087e-07
-1.91131e-07
-4.32215e-07
-2.02399e-07
-4.46362e-07
-2.15177e-07
-4.61628e-07
-2.29644e-07
-4.78117e-07
-2.46054e-07
-4.95946e-07
-2.64731e-07
-5.15232e-07
-2.86124e-07
-5.36149e-07
-3.1074e-07
-5.58952e-07
-3.38861e-07
-5.84e-07
-3.70183e-07
-6.11745e-07
-4.03356e-07
-6.42634e-07
-4.3554e-07
-6.76857e-07
-4.62591e-07
-7.14053e-07
-4.80479e-07
-7.53253e-07
-4.87277e-07
-7.93212e-07
-4.8385e-07
-8.32823e-07
-4.7266e-07
-8.71292e-07
-4.56233e-07
-9.08117e-07
-4.36418e-07
-9.42999e-07
-4.14382e-07
-9.75757e-07
-3.90772e-07
-1.00627e-06
-3.65941e-07
-1.03447e-06
-3.40094e-07
-1.0603e-06
-3.13366e-07
-1.08372e-06
-2.85858e-07
-1.1047e-06
-2.57652e-07
-1.12323e-06
-2.28828e-07
-1.13929e-06
-1.99459e-07
-1.15289e-06
-1.69616e-07
-1.16401e-06
-1.39369e-07
-1.17267e-06
-1.08785e-07
-1.17886e-06
-7.79285e-08
-1.18258e-06
-4.68631e-08
-1.56501e-08
6.5755e-07
-1.23821e-08
6.54613e-07
-3.70127e-08
6.49741e-07
-6.14341e-08
6.42952e-07
-8.5574e-08
6.34271e-07
-1.0936e-07
6.23727e-07
-1.32719e-07
6.11355e-07
-1.55573e-07
5.97197e-07
-1.77837e-07
5.81305e-07
-1.99414e-07
5.63742e-07
-2.20188e-07
5.44585e-07
-2.40014e-07
5.23932e-07
-2.58706e-07
5.01901e-07
-2.76023e-07
4.78643e-07
-2.9167e-07
4.54337e-07
-3.05303e-07
4.29194e-07
-3.16561e-07
4.0345e-07
-3.25134e-07
3.77347e-07
-3.30842e-07
3.51118e-07
-3.3371e-07
3.24969e-07
-3.33992e-07
2.99059e-07
-3.32131e-07
2.73506e-07
-3.28669e-07
2.48384e-07
-3.24139e-07
2.23734e-07
-3.18993e-07
1.99577e-07
-3.13566e-07
1.75917e-07
-3.08069e-07
1.52758e-07
-3.02627e-07
1.30097e-07
-2.9729e-07
1.07931e-07
-2.92067e-07
8.62583e-08
-2.86941e-07
6.50792e-08
-2.81885e-07
4.43947e-08
-2.76872e-07
2.42053e-08
-2.71877e-07
4.51122e-09
-2.66884e-07
-1.46768e-08
-2.61889e-07
-3.33685e-08
-2.56886e-07
-5.15601e-08
-2.51841e-07
-6.92501e-08
-2.46746e-07
-8.64396e-08
-2.41608e-07
-1.03132e-07
-2.36437e-07
-1.19333e-07
-2.31246e-07
-1.35049e-07
-2.26046e-07
-1.50289e-07
-2.20852e-07
-1.65066e-07
-2.1568e-07
-1.79392e-07
-2.10543e-07
-1.93284e-07
-2.05458e-07
-2.06759e-07
-2.00437e-07
-2.19836e-07
-1.95494e-07
-2.32537e-07
-1.90643e-07
-2.44885e-07
-1.85895e-07
-2.56905e-07
-1.81261e-07
-2.68622e-07
-1.76753e-07
-2.80064e-07
-1.72385e-07
-2.91258e-07
-1.68172e-07
-3.02234e-07
-1.64134e-07
-3.1302e-07
-1.60301e-07
-3.23643e-07
-1.56725e-07
-3.34141e-07
-1.5351e-07
-3.44541e-07
-1.50672e-07
-3.54876e-07
-1.48453e-07
-3.6518e-07
-1.47169e-07
-3.75488e-07
-1.47404e-07
-3.85841e-07
-1.50311e-07
-3.96506e-07
-1.55233e-07
-4.07664e-07
-1.61717e-07
-4.19455e-07
-1.69556e-07
-4.31997e-07
-1.78679e-07
-4.45394e-07
-1.89109e-07
-4.59747e-07
-2.00953e-07
-4.75158e-07
-2.14388e-07
-4.91737e-07
-2.29662e-07
-5.09606e-07
-2.47089e-07
-5.28899e-07
-2.6711e-07
-5.49805e-07
-2.90177e-07
-5.7259e-07
-3.16491e-07
-5.97602e-07
-3.45661e-07
-6.25241e-07
-3.76263e-07
-6.55855e-07
-4.05489e-07
-6.89509e-07
-4.29452e-07
-7.25766e-07
-4.44633e-07
-7.63699e-07
-4.49632e-07
-8.02204e-07
-4.45523e-07
-8.40327e-07
-4.34638e-07
-8.7739e-07
-4.19223e-07
-9.12952e-07
-4.00882e-07
-9.46739e-07
-3.80608e-07
-9.78574e-07
-3.58944e-07
-1.00833e-06
-3.36185e-07
-1.03592e-06
-3.12504e-07
-1.06128e-06
-2.88013e-07
-1.08434e-06
-2.62797e-07
-1.10506e-06
-2.36928e-07
-1.12342e-06
-2.10475e-07
-1.13937e-06
-1.83504e-07
-1.15291e-06
-1.5608e-07
-1.16401e-06
-1.28269e-07
-1.17266e-06
-1.00133e-07
-1.17885e-06
-7.17357e-08
-1.18258e-06
-4.31387e-08
-1.44048e-08
6.57554e-07
-1.14024e-08
6.54626e-07
-3.40846e-08
6.49767e-07
-5.65746e-08
6.42998e-07
-7.8805e-08
6.34348e-07
-1.00709e-07
6.23847e-07
-1.22217e-07
6.11536e-07
-1.4326e-07
5.9746e-07
-1.63757e-07
5.81674e-07
-1.83622e-07
5.64243e-07
-2.02748e-07
5.45245e-07
-2.21003e-07
5.24778e-07
-2.38217e-07
5.02958e-07
-2.54173e-07
4.79931e-07
-2.686e-07
4.55871e-07
-2.81184e-07
4.30982e-07
-2.91595e-07
4.05492e-07
-2.99547e-07
3.79637e-07
-3.04872e-07
3.53644e-07
-3.07586e-07
3.27713e-07
-3.0792e-07
3.02004e-07
-3.06277e-07
2.76631e-07
-3.03152e-07
2.51667e-07
-2.99038e-07
2.27156e-07
-2.94352e-07
2.03113e-07
-2.89403e-07
1.79546e-07
-2.84393e-07
1.56454e-07
-2.79435e-07
1.33831e-07
-2.74577e-07
1.11675e-07
-2.69828e-07
8.99807e-08
-2.65173e-07
6.8748e-08
-2.60585e-07
4.79764e-08
-2.56038e-07
2.76669e-08
-2.5151e-07
7.82099e-09
-2.46986e-07
-1.1561e-08
-2.42458e-07
-3.04787e-08
-2.37923e-07
-4.89305e-08
-2.33348e-07
-6.69151e-08
-2.28722e-07
-8.4433e-08
-2.24054e-07
-1.01486e-07
-2.1935e-07
-1.18079e-07
-2.14621e-07
-1.34216e-07
-2.09878e-07
-1.49906e-07
-2.05134e-07
-1.65157e-07
-2.00401e-07
-1.79981e-07
-1.95694e-07
-1.94391e-07
-1.91023e-07
-2.08403e-07
-1.86403e-07
-2.22031e-07
-1.81844e-07
-2.35294e-07
-1.77359e-07
-2.48211e-07
-1.72958e-07
-2.60803e-07
-1.68651e-07
-2.73091e-07
-1.64449e-07
-2.85096e-07
-1.60364e-07
-2.96841e-07
-1.56411e-07
-3.0835e-07
-1.52611e-07
-3.19646e-07
-1.48993e-07
-3.30749e-07
-1.45612e-07
-3.41693e-07
-1.42558e-07
-3.525e-07
-1.39861e-07
-3.632e-07
-1.37753e-07
-3.73829e-07
-1.36547e-07
-3.84435e-07
-1.36817e-07
-3.95147e-07
-1.39634e-07
-4.06184e-07
-1.44245e-07
-4.177e-07
-1.50263e-07
-4.29822e-07
-1.5751e-07
-4.42659e-07
-1.65932e-07
-4.56313e-07
-1.75564e-07
-4.70883e-07
-1.86512e-07
-4.86476e-07
-1.98952e-07
-5.03207e-07
-2.13121e-07
-5.21207e-07
-2.29319e-07
-5.40629e-07
-2.47971e-07
-5.6168e-07
-2.69472e-07
-5.84638e-07
-2.93952e-07
-6.0984e-07
-3.20948e-07
-6.37647e-07
-3.48998e-07
-6.68316e-07
-3.75369e-07
-7.01793e-07
-3.96468e-07
-7.37552e-07
-4.09262e-07
-7.74666e-07
-4.12784e-07
-8.1212e-07
-4.08232e-07
-8.49074e-07
-3.97775e-07
-8.84946e-07
-3.83398e-07
-9.19361e-07
-3.66491e-07
-9.52082e-07
-3.47898e-07
-9.82954e-07
-3.28077e-07
-1.01186e-06
-3.0728e-07
-1.03872e-06
-2.85651e-07
-1.06344e-06
-2.63286e-07
-1.08598e-06
-2.40258e-07
-1.10628e-06
-2.16631e-07
-1.12429e-06
-1.92464e-07
-1.13998e-06
-1.67818e-07
-1.15331e-06
-1.4275e-07
-1.16425e-06
-1.17322e-07
-1.17279e-06
-9.15917e-08
-1.17891e-06
-6.5618e-08
-1.18259e-06
-3.9459e-08
-1.31752e-08
6.57558e-07
-1.04266e-08
6.54643e-07
-3.11693e-08
6.49805e-07
-5.17371e-08
6.43069e-07
-7.20679e-08
6.34461e-07
-9.21003e-08
6.24017e-07
-1.11772e-07
6.11776e-07
-1.31017e-07
5.97787e-07
-1.49764e-07
5.82105e-07
-1.67935e-07
5.64797e-07
-1.85431e-07
5.45941e-07
-2.02134e-07
5.25635e-07
-2.1789e-07
5.03994e-07
-2.32502e-07
4.81159e-07
-2.45723e-07
4.57301e-07
-2.57269e-07
4.32619e-07
-2.66837e-07
4.07332e-07
-2.74166e-07
3.81671e-07
-2.79098e-07
3.55858e-07
-2.81645e-07
3.30089e-07
-2.82013e-07
3.04522e-07
-2.80567e-07
2.79271e-07
-2.7776e-07
2.54411e-07
-2.74042e-07
2.29982e-07
-2.69796e-07
2.06004e-07
-2.65307e-07
1.82482e-07
-2.60763e-07
1.59414e-07
-2.56268e-07
1.36794e-07
-2.51868e-07
1.14616e-07
-2.4757e-07
9.2877e-08
-2.4336e-07
7.15737e-08
-2.39214e-07
5.07052e-08
-2.35108e-07
3.02717e-08
-2.3102e-07
1.02738e-08
-2.26936e-07
-9.28817e-09
-2.22848e-07
-2.84141e-08
-2.18753e-07
-4.71017e-08
-2.14619e-07
-6.53492e-08
-2.10436e-07
-8.31565e-08
-2.0621e-07
-1.00524e-07
-2.01948e-07
-1.17455e-07
-1.97658e-07
-1.33953e-07
-1.9335e-07
-1.50024e-07
-1.89035e-07
-1.65675e-07
-1.84724e-07
-1.80915e-07
-1.80428e-07
-1.95756e-07
-1.76159e-07
-2.10208e-07
-1.71928e-07
-2.24286e-07
-1.67745e-07
-2.38003e-07
-1.63621e-07
-2.51376e-07
-1.59566e-07
-2.64422e-07
-1.55588e-07
-2.77156e-07
-1.51697e-07
-2.89599e-07
-1.47906e-07
-3.01768e-07
-1.44228e-07
-3.13682e-07
-1.40684e-07
-3.25362e-07
-1.37302e-07
-3.36824e-07
-1.34141e-07
-3.48099e-07
-1.31277e-07
-3.59207e-07
-1.28749e-07
-3.7018e-07
-1.26782e-07
-3.81052e-07
-1.25685e-07
-3.91869e-07
-1.26025e-07
-4.02847e-07
-1.28694e-07
-4.14171e-07
-1.32973e-07
-4.25975e-07
-1.38521e-07
-4.38375e-07
-1.45186e-07
-4.51473e-07
-1.52926e-07
-4.65369e-07
-1.61778e-07
-4.80164e-07
-1.71849e-07
-4.95967e-07
-1.83307e-07
-5.12903e-07
-1.96377e-07
-5.31112e-07
-2.11344e-07
-5.50762e-07
-2.28607e-07
-5.72076e-07
-2.48508e-07
-5.95333e-07
-2.71116e-07
-6.20851e-07
-2.95918e-07
-6.48932e-07
-3.21452e-07
-6.79734e-07
-3.45102e-07
-7.13092e-07
-3.63584e-07
-7.48413e-07
-3.74306e-07
-7.84802e-07
-3.76643e-07
-8.21338e-07
-3.71846e-07
-8.57286e-07
-3.6191e-07
-8.92142e-07
-3.48586e-07
-9.25579e-07
-3.33076e-07
-9.57388e-07
-3.161e-07
-9.87423e-07
-2.98047e-07
-1.01557e-06
-2.7913e-07
-1.04175e-06
-2.59472e-07
-1.06589e-06
-2.39153e-07
-1.08791e-06
-2.18236e-07
-1.10777e-06
-1.96777e-07
-1.1254e-06
-1.74828e-07
-1.14078e-06
-1.52443e-07
-1.15385e-06
-1.29675e-07
-1.1646e-06
-1.06576e-07
-1.17299e-06
-8.32027e-08
-1.179e-06
-5.9607e-08
-1.18261e-06
-3.5843e-08
-1.19671e-08
6.57564e-07
-9.4571e-09
6.54667e-07
-2.82718e-08
6.49859e-07
-4.69287e-08
6.43163e-07
-6.53716e-08
6.34608e-07
-8.35446e-08
6.24229e-07
-1.01391e-07
6.12067e-07
-1.18852e-07
5.98169e-07
-1.35864e-07
5.82593e-07
-1.52353e-07
5.65405e-07
-1.68234e-07
5.46682e-07
-1.83398e-07
5.26519e-07
-1.97708e-07
5.05031e-07
-2.10984e-07
4.82355e-07
-2.23006e-07
4.58657e-07
-2.33515e-07
4.34132e-07
-2.42238e-07
4.08995e-07
-2.48936e-07
3.83472e-07
-2.53464e-07
3.57782e-07
-2.55829e-07
3.3212e-07
-2.56215e-07
3.06643e-07
-2.5495e-07
2.81465e-07
-2.52444e-07
2.56663e-07
-2.49105e-07
2.32277e-07
-2.45284e-07
2.08328e-07
-2.41242e-07
1.8482e-07
-2.37148e-07
1.61749e-07
-2.331e-07
1.39109e-07
-2.2914e-07
1.16893e-07
-2.25274e-07
9.50962e-08
-2.21491e-07
7.3715e-08
-2.17767e-07
5.27475e-08
-2.1408e-07
3.21933e-08
-2.10411e-07
1.20527e-08
-2.06745e-07
-7.67402e-09
-2.03075e-07
-2.69868e-08
-1.99397e-07
-4.5883e-08
-1.95682e-07
-6.43604e-08
-1.91921e-07
-8.24178e-08
-1.88117e-07
-1.00055e-07
-1.84278e-07
-1.17273e-07
-1.80409e-07
-1.34075e-07
-1.76519e-07
-1.50464e-07
-1.72617e-07
-1.66447e-07
-1.68714e-07
-1.8203e-07
-1.6482e-07
-1.97221e-07
-1.60944e-07
-2.12031e-07
-1.57096e-07
-2.26469e-07
-1.53286e-07
-2.40548e-07
-1.49523e-07
-2.54281e-07
-1.45815e-07
-2.6768e-07
-1.42171e-07
-2.80761e-07
-1.386e-07
-2.93539e-07
-1.35113e-07
-3.06028e-07
-1.31725e-07
-3.18246e-07
-1.28453e-07
-3.30211e-07
-1.25326e-07
-3.41937e-07
-1.22406e-07
-3.53455e-07
-1.19752e-07
-3.64787e-07
-1.17415e-07
-3.75965e-07
-1.15607e-07
-3.87025e-07
-1.14636e-07
-3.98026e-07
-1.15052e-07
-4.09216e-07
-1.17544e-07
-4.20765e-07
-1.21476e-07
-4.32801e-07
-1.2655e-07
-4.45431e-07
-1.32634e-07
-4.58754e-07
-1.39695e-07
-4.7287e-07
-1.47773e-07
-4.87881e-07
-1.56971e-07
-5.03901e-07
-1.67446e-07
-5.21061e-07
-1.7941e-07
-5.39512e-07
-1.93129e-07
-5.59436e-07
-2.08972e-07
-5.81066e-07
-2.2723e-07
-6.0468e-07
-2.47923e-07
-6.30576e-07
-2.7051e-07
-6.58997e-07
-2.9356e-07
-6.90011e-07
-3.1461e-07
-7.23354e-07
-3.30697e-07
-7.5838e-07
-3.39628e-07
-7.94215e-07
-3.4104e-07
-8.30017e-07
-3.36184e-07
-8.65135e-07
-3.2687e-07
-8.99128e-07
-3.14632e-07
-9.31714e-07
-3.0051e-07
-9.62707e-07
-2.85117e-07
-9.91975e-07
-2.68783e-07
-1.01942e-06
-2.51689e-07
-1.04495e-06
-2.33939e-07
-1.0685e-06
-2.15602e-07
-1.09001e-06
-1.96733e-07
-1.1094e-06
-1.77379e-07
-1.12664e-06
-1.57588e-07
-1.14168e-06
-1.37406e-07
-1.15448e-06
-1.16879e-07
-1.165e-06
-9.60572e-08
-1.17321e-06
-7.49881e-08
-1.1791e-06
-5.37202e-08
-1.18264e-06
-3.23018e-08
-1.07843e-08
6.5757e-07
-8.49362e-09
6.54691e-07
-2.53922e-08
6.49912e-07
-4.21498e-08
6.43257e-07
-5.87161e-08
6.34754e-07
-7.50412e-08
6.24439e-07
-9.10743e-08
6.12351e-07
-1.06763e-07
5.9854e-07
-1.22049e-07
5.8306e-07
-1.36868e-07
5.65978e-07
-1.51143e-07
5.4737e-07
-1.64778e-07
5.2733e-07
-1.77648e-07
5.05969e-07
-1.89595e-07
4.83423e-07
-2.0042e-07
4.59855e-07
-2.09892e-07
4.35454e-07
-2.17765e-07
4.10433e-07
-2.23823e-07
3.85013e-07
-2.27935e-07
3.59412e-07
-2.30104e-07
3.33823e-07
-2.30492e-07
3.08405e-07
-2.29393e-07
2.83271e-07
-2.27173e-07
2.585e-07
-2.24202e-07
2.34133e-07
-2.20793e-07
2.10189e-07
-2.17183e-07
1.86674e-07
-2.13527e-07
1.63582e-07
-2.09913e-07
1.40908e-07
-2.06379e-07
1.18644e-07
-2.02931e-07
9.67834e-08
-1.99558e-07
7.53222e-08
-1.9624e-07
5.42581e-08
-1.92956e-07
3.35904e-08
-1.89688e-07
1.3319e-08
-1.86423e-07
-6.55579e-09
-1.83153e-07
-2.60337e-08
-1.79876e-07
-4.51118e-08
-1.76564e-07
-6.37873e-08
-1.73208e-07
-8.20579e-08
-1.69812e-07
-9.99226e-08
-1.6638e-07
-1.17382e-07
-1.62919e-07
-1.34436e-07
-1.59435e-07
-1.51089e-07
-1.55937e-07
-1.67343e-07
-1.52434e-07
-1.83205e-07
-1.48934e-07
-1.98679e-07
-1.45446e-07
-2.13775e-07
-1.41979e-07
-2.285e-07
-1.3854e-07
-2.42864e-07
-1.35139e-07
-2.56877e-07
-1.31783e-07
-2.7055e-07
-1.2848e-07
-2.83896e-07
-1.25238e-07
-2.96928e-07
-1.22067e-07
-3.09657e-07
-1.18981e-07
-3.221e-07
-1.15997e-07
-3.34273e-07
-1.13143e-07
-3.46191e-07
-1.10479e-07
-3.57883e-07
-1.08054e-07
-3.69374e-07
-1.05922e-07
-3.807e-07
-1.04285e-07
-3.91903e-07
-1.03446e-07
-4.03067e-07
-1.03917e-07
-4.14437e-07
-1.06216e-07
-4.26175e-07
-1.09791e-07
-4.38405e-07
-1.14386e-07
-4.51232e-07
-1.19886e-07
-4.64754e-07
-1.26267e-07
-4.79071e-07
-1.33569e-07
-4.94289e-07
-1.41888e-07
-5.10525e-07
-1.51372e-07
-5.27918e-07
-1.62213e-07
-5.46626e-07
-1.74659e-07
-5.66844e-07
-1.89045e-07
-5.88813e-07
-2.05616e-07
-6.12808e-07
-2.24353e-07
-6.39097e-07
-2.44708e-07
-6.6787e-07
-2.65311e-07
-6.99107e-07
-2.83884e-07
-7.32459e-07
-2.97785e-07
-7.67242e-07
-3.05176e-07
-8.02612e-07
-3.0589e-07
-8.37796e-07
-3.01132e-07
-8.72214e-07
-2.92524e-07
-9.05478e-07
-2.81404e-07
-9.37339e-07
-2.68667e-07
-9.6763e-07
-2.54834e-07
-9.96233e-07
-2.40186e-07
-1.02305e-06
-2.24873e-07
-1.04801e-06
-2.08985e-07
-1.07103e-06
-1.92582e-07
-1.09205e-06
-1.75711e-07
-1.11102e-06
-1.58412e-07
-1.12788e-06
-1.40726e-07
-1.14259e-06
-1.22695e-07
-1.15511e-06
-1.0436e-07
-1.1654e-06
-8.5764e-08
-1.17344e-06
-6.69494e-08
-1.1792e-06
-4.79593e-08
-1.18266e-06
-2.88366e-08
-9.62698e-09
6.57576e-07
-7.53598e-09
6.54714e-07
-2.25296e-08
6.49963e-07
-3.7399e-08
6.43347e-07
-5.20994e-08
6.34893e-07
-6.65868e-08
6.24637e-07
-8.08164e-08
6.12617e-07
-9.47414e-08
5.98883e-07
-1.08311e-07
5.83489e-07
-1.21469e-07
5.665e-07
-1.34145e-07
5.47991e-07
-1.46256e-07
5.28054e-07
-1.57692e-07
5.06799e-07
-1.68312e-07
4.84359e-07
-1.7794e-07
4.60894e-07
-1.86372e-07
4.3659e-07
-1.93389e-07
4.11655e-07
-1.98798e-07
3.86311e-07
-2.02483e-07
3.60772e-07
-2.04443e-07
3.35232e-07
-2.0482e-07
3.09849e-07
-2.03873e-07
2.84739e-07
-2.01927e-07
2.59979e-07
-1.99311e-07
2.35613e-07
-1.96304e-07
2.1166e-07
-1.93116e-07
1.88126e-07
-1.89888e-07
1.65005e-07
-1.86697e-07
1.4229e-07
-1.83578e-07
1.19974e-07
-1.80537e-07
9.80492e-08
-1.77562e-07
7.6511e-08
-1.74637e-07
5.5357e-08
-1.71743e-07
3.45859e-08
-1.68863e-07
1.41977e-08
-1.65985e-07
-5.80714e-09
-1.63103e-07
-2.54282e-08
-1.60212e-07
-4.46624e-08
-1.5729e-07
-6.35059e-08
-1.54328e-07
-8.1956e-08
-1.51327e-07
-1.00011e-07
-1.48293e-07
-1.17669e-07
-1.4523e-07
-1.34932e-07
-1.42144e-07
-1.51799e-07
-1.39043e-07
-1.68274e-07
-1.35934e-07
-1.84359e-07
-1.32824e-07
-2.0006e-07
-1.29722e-07
-2.15383e-07
-1.26635e-07
-2.30333e-07
-1.2357e-07
-2.44919e-07
-1.20534e-07
-2.5915e-07
-1.17535e-07
-2.73033e-07
-1.14579e-07
-2.86581e-07
-1.11674e-07
-2.99803e-07
-1.0883e-07
-3.12711e-07
-1.06059e-07
-3.2532e-07
-1.03377e-07
-3.37643e-07
-1.00809e-07
-3.49698e-07
-9.84154e-08
-3.61513e-07
-9.6233e-08