/*--------------------------------*- C++ -*----------------------------------*\
  =========                 |
  \\      /  F ield         | OpenFOAM: The Open Source CFD Toolbox
   \\    /   O peration     | Website:  https://openfoam.org
    \\  /    A nd           | Version:  8
     \\/     M anipulation  |
\*---------------------------------------------------------------------------*/
FoamFile
{
    version     2.0;
    format      ascii;
    class       volScalarField;
    location    "0.25/fluid";
    object      Qdot;
}
// * * * * * * * * * * * * * * * * * * * * * * * * * * * * * * * * * * * * * //

dimensions      [1 -1 -3 0 0 0 0];

internalField   nonuniform List<scalar> 
4000
(
-2.18443e-06
-2.18443e-06
6.41866e-16
-1.15176e-20
-2.18452e-06
-2.18462e-06
-2.18482e-06
-2.18521e-06
-2.18486e-06
-2.18529e-06
-2.18442e-06
-2.1907e-06
-2.18788e-06
-2.18442e-06
-2.19697e-06
-2.50855e-08
-2.20951e-06
-2.2346e-06
-2.20693e-06
-6.32161e-15
-9.91871e-07
-3.8982e-07
8.3399e-06
9.12026e-05
0.000793796
0.00564265
0.0329312
0.160273
0.661933
2.35889
7.36007
20.395
50.8259
115.176
239.681
462.485
836.19
1429.45
2332.26
3669.02
5626.63
8508.16
12830
19495.1
30100.2
47478.8
76624.5
126170
210606
353331
591154
981625
1.61499e+06
2.63335e+06
4.25991e+06
6.84423e+06
1.09335e+07
1.73285e+07
2.72376e+07
4.32685e+07
6.87235e+07
1.09628e+08
1.58002e+08
9.47266e+07
5.60265e+07
3.25835e+07
1.84928e+07
1.01718e+07
5.384e+06
2.72429e+06
1.30893e+06
595416
263932
93336.6
15916.7
1065.83
32.4556
0.509359
0.00509757
5.03092e-05
8.24968e-07
2.19491e-08
-2.70419e-10
-6.33835e-09
-3.11773e-09
-7.4843e-10
-3.94617e-10
-8.90396e-11
-4.44364e-11
-2.02932e-13
-5.58074e-12
-1.23441e-11
-3.07732e-12
-6.18977e-12
4.16804e-11
-1.92448e-13
3.58818e-11
3.58714e-11
-5.43865e-17
-6.18498e-12
-3.06215e-12
-1.22486e-11
-2.18442e-06
-2.18442e-06
-9.79888e-11
-2.18462e-06
-2.18482e-06
-7.8392e-10
-2.18564e-06
-1.56784e-09
-3.13568e-09
-2.18442e-06
-6.27136e-09
-1.25426e-08
-1.25426e-08
-2.18442e-06
-2.20951e-06
-2.2346e-06
6.569e-13
-1.19255e-06
-1.19255e-06
-5.90503e-07
5.74256e-06
7.79909e-05
0.000689237
0.0049708
0.02946
0.14568
0.610659
2.20266
6.95192
19.4699
48.9944
112.008
234.947
456.552
830.634
1427.86
2341.15
3699.14
5695.11
8642.73
13077.4
19937.5
30886.5
48883.1
79147.6
130598
218419
366943
614433
1.02074e+06
1.67983e+06
2.73974e+06
4.43309e+06
7.12436e+06
1.13844e+07
1.80315e+07
2.83571e+07
4.50822e+07
7.1672e+07
1.14466e+08
1.5462e+08
9.21044e+07
5.43802e+07
3.15474e+07
1.78464e+07
9.77564e+06
5.14723e+06
2.58816e+06
1.23428e+06
557574
247035
76946.4
11723.5
665.305
17.6444
0.24736
0.0023716
2.49436e-05
4.81474e-07
1.0373e-08
-2.56171e-10
-1.10566e-11
-1.58428e-09
-7.96288e-10
-1.76584e-10
-1.15317e-10
-6.0676e-11
-7.12714e-12
3.52281e-11
4.20303e-11
3.89887e-11
-1.53728e-12
3.58797e-11
3.58812e-11
-6.27959e-12
4.20524e-11
-5.3269e-17
-6.18431e-12
-3.06219e-12
-2.18444e-06
-4.89944e-11
-2.18452e-06
-2.18452e-06
-2.18453e-06
-2.18482e-06
-2.18521e-06
-2.18442e-06
-2.18599e-06
-2.18442e-06
-2.1907e-06
-7.37128e-19
-2.19697e-06
-2.18442e-06
-2.18442e-06
-1.38313e-08
-3.53822e-17
-2.2346e-06
6.5243e-13
-1.09221e-06
5.01709e-07
4.63881e-06
6.78449e-05
0.000603653
0.00439306
0.0263389
0.131902
0.559207
2.04218
6.52272
18.4766
46.9966
108.53
229.804
450.439
826.034
1430.33
2360.89
3753.17
5810.96
8865.46
13483.3
20660.6
32169.2
51159.9
83132.7
137894
231456
389737
653456
1.08635e+06
1.78867e+06
2.91846e+06
4.72427e+06
7.59567e+06
1.21433e+07
1.92078e+07
3.0232e+07
4.81169e+07
7.65997e+07
1.22535e+08
1.47833e+08
8.78548e+07
5.17155e+07
2.98789e+07
1.68145e+07
9.1508e+06
4.7798e+06
2.38106e+06
1.12341e+06
502932
220230
59838.9
7587.68
367.776
8.66957
0.113639
0.00111182
1.31744e-05
2.86455e-07
1.09677e-08
-6.47851e-09
-1.41792e-09
-6.82554e-10
-3.95941e-10
-1.36172e-10
-7.32025e-11
-4.40449e-13
-4.43776e-11
2.35529e-11
-1.2342e-11
-1.43044e-14
-1.1936e-12
4.16805e-11
-8.68654e-14
3.57862e-11
-2.40771e-14
-1.20131e-14
-9.00234e-18
-1.37372e-12
-1.22486e-11
-2.18447e-06
-2.18442e-06
-9.79888e-11
-2.18462e-06
-2.18442e-06
-7.8392e-10
-2.18442e-06
0
4.10794e-14
-7.37128e-19
-2.1907e-06
-1.25426e-08
-2.19697e-06
3.28636e-13
-2.20951e-06
-2.18442e-06
-2.2346e-06
-1.09221e-06
-5.53265e-08
-5.90503e-07
5.92016e-06
5.90251e-05
0.000535352
0.00393205
0.0238482
0.12062
0.517226
1.91004
6.16695
17.6513
45.3465
105.717
225.876
446.493
825.276
1439.61
2392.64
3828.25
5963.39
9151.32
13998.2
21573.2
33776
53972.7
88306.7
147128
247796
418139
701845
1.16736e+06
1.92253e+06
3.13753e+06
5.08022e+06
8.17093e+06
1.30699e+07
2.06336e+07
3.25228e+07
5.18087e+07
8.25695e+07
1.32252e+08
1.39456e+08
8.27093e+07
4.8518e+07
2.78978e+07
1.56039e+07
8.42768e+06
4.36263e+06
2.15029e+06
1.00266e+06
445389
188987
44731.5
4578.39
191.868
4.04362
0.0497899
0.000498472
6.60725e-06
1.58616e-07
4.48161e-09
-6.43574e-09
-1.4469e-09
-8.35804e-10
-7.89145e-10
-2.18902e-12
-2.0311e-10
-8.48702e-12
-2.46735e-11
-1.17539e-11
-3.40883e-12
4.20523e-11
4.12946e-11
-6.1858e-12
4.20648e-11
-6.23662e-12
-6.19681e-12
4.20537e-11
-8.32933e-16
-3.06215e-12
-1.22486e-11
-2.18447e-06
-9.79901e-11
-2.18452e-06
-2.18462e-06
-4.60705e-20
-2.18486e-06
-2.18521e-06
-2.18599e-06
-3.13568e-09
-2.18442e-06
8.21589e-14
-2.18442e-06
-2.19005e-06
-2.19568e-06
-1.38316e-08
-2.35881e-17
6.57006e-13
-1.14238e-06
-1.00341e-07
-7.91188e-07
4.32624e-06
5.33391e-05
0.000483329
0.00358332
0.0219148
0.111945
0.484801
1.80782
5.89244
17.0208
44.1146
103.722
223.421
445.053
828.603
1455.38
2434.62
3919.49
6141.6
9478.98
14582.2
22594.6
35554.7
57221.7
94090.1
157418
265901
449386
754666
1.25505e+06
2.06609e+06
3.36996e+06
5.45295e+06
8.76357e+06
1.40049e+07
2.20485e+07
3.50932e+07
5.57853e+07
8.89206e+07
1.42432e+08
1.30418e+08
7.7213e+07
4.51402e+07
2.58302e+07
1.43571e+07
7.6936e+06
3.94601e+06
1.92399e+06
886851
392159
157090
32194.8
2714.73
100.108
1.91603
0.0226161
0.000236267
3.55366e-06
8.95786e-08
6.09345e-09
-6.36952e-09
-3.1346e-09
3.00546e-11
-3.14386e-10
4.00517e-11
-8.87935e-11
-4.93724e-11
1.74047e-11
3.5242e-11
3.58525e-11
-6.196e-12
-6.18869e-12
-6.18564e-12
-6.18436e-12
3.58819e-11
-1.08684e-14
-4.53221e-17
4.20657e-11
-3.06219e-12
-5.49488e-12
-2.18447e-06
-2.18452e-06
-2.18442e-06
-2.18462e-06
-2.18442e-06
-7.8391e-10
-7.8391e-10
-2.18442e-06
-2.18442e-06
-2.1907e-06
-2.18442e-06
-5.62693e-09
-5.62693e-09
-2.18442e-06
-2.19568e-06
-2.18442e-06
6.57029e-13
-1.14238e-06
-1.19255e-06
-7.91188e-07
3.82453e-06
4.92136e-05
0.000444551
0.00331785
0.0204557
0.105394
0.460364
1.73125
5.68949
16.566
43.2673
102.487
222.339
445.916
835.566
1476.64
2484.68
4022.51
6337.22
9833.07
15201.9
23670.7
37502.3
60664.5
100218
168299
284980
482181
809890
1.34644e+06
2.2154e+06
3.61147e+06
5.84046e+06
9.38139e+06
1.49856e+07
2.35811e+07
3.7545e+07
5.96838e+07
9.51772e+07
1.52259e+08
1.21639e+08
7.18868e+07
4.18856e+07
2.38541e+07
1.31774e+07
7.00737e+06
3.56193e+06
1.7187e+06
783913
346203
127137
22777.1
1625.31
53.4895
0.939999
0.0107464
0.000117694
1.97062e-06
5.69646e-08
-6.10771e-10
-1.16009e-10
-1.39481e-09
-6.72009e-10
-4.31294e-12
-2.17958e-10
-5.67238e-11
-4.93429e-11
2.47414e-11
-5.55976e-12
4.20382e-11
3.43396e-11
-6.61043e-12
4.16809e-11
4.19594e-11
3.58341e-11
4.20417e-11
-6.1862e-12
3.58814e-11
-3.06219e-12
-1.22486e-11
-2.18442e-06
-9.79901e-11
-2.18452e-06
2.56747e-15
-3.91955e-10
-2.18521e-06
-2.18478e-06
-2.18599e-06
-2.18756e-06
-2.18756e-06
-7.37128e-19
1.64319e-13
-2.19697e-06
-2.50855e-08
-2.50855e-08
-2.94851e-17
-5.01709e-08
-7.26786e-08
-1.09221e-06
-7.91186e-07
3.42316e-06
4.41077e-05
0.000414715
0.00311315
0.0193391
0.100418
0.441998
1.6746
5.54306
16.252
42.7317
101.871
222.372
448.618
845.352
1501.97
2540.33
4133.07
6542.85
10197.1
15836.5
24811.6
39501
64201.7
106513
179460
304492
515595
865948
1.43891e+06
2.366e+06
3.85428e+06
6.22869e+06
9.99786e+06
1.59468e+07
2.50765e+07
3.99117e+07
6.34329e+07
1.0117e+08
1.6124e+08
1.13526e+08
6.6991e+07
3.89152e+07
2.20659e+07
1.21202e+07
6.39913e+06
3.22567e+06
1.5415e+06
696664
307408
102094
16073.8
996.719
29.6682
0.484495
0.00542681
6.27012e-05
1.16745e-06
3.15059e-08
-4.41764e-10
-6.36953e-09
9.45127e-12
-1.57744e-09
-1.01139e-11
-3.99828e-10
-1.0491e-10
-4.9316e-11
1.12456e-11
-1.23085e-11
-6.20897e-12
-7.72529e-12
3.55343e-11
-6.56811e-12
-9.64563e-14
-4.81527e-14
-2.40406e-14
-6.18352e-12
4.20651e-11
-3.06215e-12
-2.18444e-06
-2.18445e-06
-2.18442e-06
-2.18447e-06
2.56747e-15
-2.18482e-06
-2.18521e-06
-2.18521e-06
-2.18529e-06
-2.18756e-06
-1.40665e-09
-2.1907e-06
-2.19697e-06
-2.19697e-06
-2.50855e-08
3.28636e-13
-2.18442e-06
-5.01702e-08
-1.14238e-06
-1.13723e-06
2.56011e-07
3.02179e-06
4.09971e-05
0.000389919
0.00295685
0.0184921
0.096676
0.428383
1.63356
5.44103
16.0486
42.4401
101.735
223.257
452.689
857.142
1529.98
2599.26
4247.12
6749.82
10563.1
16494.3
25956.1
41509.5
67761.6
112852
190692
324090
549079
921998
1.5312e+06
2.51604e+06
4.09584e+06
6.61428e+06
1.0609e+07
1.68922e+07
2.6546e+07
4.22328e+07
6.71008e+07
1.07007e+08
1.68676e+08
1.06451e+08
6.27448e+07
3.63535e+07
2.05329e+07
1.122e+07
5.88521e+06
2.94411e+06
1.39475e+06
625650
275468
79750.5
11515.2
633.141
17.2322
0.264233
0.0029242
3.57114e-05
7.31678e-07
2.16215e-08
-1.28854e-08
-6.30755e-09
1.24459e-11
-1.54068e-09
-3.93769e-10
-4.74052e-11
-6.08927e-11
4.17697e-11
-1.11188e-11
-1.84875e-11
3.41702e-11
-6.96814e-13
-6.95319e-12
3.58805e-11
-5.34726e-14
4.20176e-11
3.58821e-11
-6.01728e-15
3.58807e-11
-2.18443e-06
-2.18444e-06
-2.18445e-06
-9.79901e-11
-9.79901e-11
-2.18462e-06
-1.75841e-10
-2.18521e-06
-2.18521e-06
-1.56782e-09
-2.18442e-06
-2.18442e-06
-6.27136e-09
-1.25427e-08
-2.19697e-06
-2.94851e-18
-2.50851e-08
-5.01702e-08
-5.01709e-08
-2.2507e-08
-1.13723e-06
2.00683e-07
2.82111e-06
3.97364e-05
0.000371545
0.00283615
0.0178509
0.0938822
0.418424
1.60453
5.37301
15.9295
42.3323
101.956
224.751
457.685
870.165
1559.37
2659.24
4360.19
6954.84
10934.8
17140.5
27081.8
43489.3
71277.6
119122
201807
343478
582186
977419
1.62252e+06
2.66478e+06
4.33586e+06
6.99872e+06
1.1221e+07
1.78403e+07
2.80342e+07
4.46106e+07
7.09141e+07
1.13191e+08
1.68271e+08
1.01009e+08
5.94204e+07
3.43231e+07
1.93082e+07
1.04974e+07
5.47258e+06
2.71837e+06
1.27761e+06
569463
247940
66179
8315.39
414.675
10.4624
0.152426
0.00168053
2.17114e-05
4.92849e-07
-2.59934e-09
-1.28219e-08
-2.58996e-11
-3.12086e-09
2.79237e-11
-3.9528e-10
-7.61977e-12
-5.6553e-11
-2.75153e-13
3.57627e-11
-6.23497e-12
-9.26767e-12
-7.03696e-12
-6.18736e-12
-1.60925e-15
-9.6353e-14
-4.81124e-14
-6.18358e-12
-6.18949e-12
-7.53565e-16
-3.06219e-12
-1.22486e-11
6.41872e-16
0
-4.39591e-11
-2.18462e-06
-2.18442e-06
0
-2.18486e-06
2.05399e-14
-2.18756e-06
-1.72891e-09
-2.1907e-06
-2.19697e-06
-2.19697e-06
-1.12539e-08
-2.19568e-06
-2.18442e-06
-2.18442e-06
-1.11987e-06
-1.19255e-06
-8.91529e-07
2.67576e-06
3.7875e-05
0.000358678
0.00274395
0.0173666
0.091813
0.411253
1.58461
5.33066
15.873
42.3582
102.424
226.644
463.218
883.738
1588.95
2717.92
4470.54
7158.9
11292.1
17761.2
28164.3
45396.1
74670
125178
212547
362204
614150
1.03092e+06
1.71074e+06
2.80863e+06
4.56842e+06
7.37205e+06
1.18171e+07
1.8762e+07
2.94918e+07
4.69555e+07
7.4704e+07
1.19391e+08
1.63494e+08
9.68918e+07
5.68659e+07
3.27447e+07
1.83479e+07
9.92747e+06
5.14675e+06
2.54003e+06
1.18536e+06
525824
224824
55535.2
6175.8
283.388
6.69342
0.0934676
0.00103193
1.40432e-05
3.42371e-07
1.04952e-08
-5.89846e-09
-2.87349e-09
-8.41549e-10
-7.55362e-10
-1.85101e-10
-1.97315e-10
3.52943e-11
-2.57352e-13
-3.07926e-11
-8.97919e-12
3.8983e-11
-1.53976e-12
-7.69179e-13
-6.29052e-12
3.57859e-11
4.20391e-11
-6.19554e-12
3.58822e-11
3.58819e-11
4.01166e-17
-1.22486e-11
-2.18442e-06
-9.79901e-11
-9.79888e-11
-2.18442e-06
-1.75836e-10
1.027e-14
-7.8391e-10
-2.18599e-06
-2.18442e-06
-2.18756e-06
-2.1907e-06
-2.19134e-06
-2.19697e-06
-2.20951e-06
-2.20951e-06
-2.2346e-06
6.57088e-13
-5.01703e-08
-1.00342e-07
-8.91529e-07
3.66763e-06
3.75624e-05
0.00034793
0.00267464
0.0170052
0.0902994
0.406209
1.57156
5.30728
15.8617
42.4763
103.053
228.76
468.959
897.273
1617.56
2774.33
4578.18
7350.76
11627.1
18342.7
29178.7
47184.2
77853.4
130862
222619
379739
644032
1.08087e+06
1.79302e+06
2.94271e+06
4.78507e+06
7.71969e+06
1.2372e+07
1.96152e+07
3.08399e+07
4.91229e+07
7.82051e+07
1.2511e+08
1.58191e+08
9.35788e+07
5.48091e+07
3.14731e+07
1.75742e+07
9.46849e+06
4.88481e+06
2.39708e+06
1.11183e+06
491600
205335
47274.7
4734.79
202.363
4.5141
0.0608666
0.000675206
9.68482e-06
2.50635e-07
1.65096e-08
-3.68693e-09
-3.15383e-09
-8.88236e-10
-4.03175e-10
-1.4284e-10
-1.55172e-10
-9.85424e-11
-5.54206e-11
4.19604e-11
3.58369e-11
-1.70775e-12
-8.1853e-15
-3.43306e-15
-6.37629e-12
4.19695e-11
4.20655e-11
-6.19553e-12
-3.01113e-17
-6.18423e-12
-2.18442e-06
-1.22486e-11
-2.18447e-06
-2.1845e-06
-9.79888e-11
-8.79181e-11
-2.18442e-06
-2.18478e-06
-3.51683e-10
-2.18599e-06
-3.13568e-09
-2.18756e-06
-2.1907e-06
-1.25427e-08
-2.19697e-06
-2.50855e-08
-2.20951e-06
-2.2346e-06
-2.2346e-06
-2.18442e-06
-1.09221e-06
-8.91528e-07
2.52009e-06
3.64586e-05
0.000338899
0.00262291
0.016738
0.0892111
0.402766
1.5636
5.29754
15.8813
42.6529
103.768
230.954
474.641
910.236
1644.65
2828.32
4677.36
7526.76
11933.6
18873.8
30104.4
48815.7
80757
136042
231781
395650
671075
1.12596e+06
1.86713e+06
3.0632e+06
4.9793e+06
8.0306e+06
1.28669e+07
2.03697e+07
3.20312e+07
5.10342e+07
8.12851e+07
1.30128e+08
1.53606e+08
9.07842e+07
5.30847e+07
3.04129e+07
1.69324e+07
9.08966e+06
4.66972e+06
2.28036e+06
1.05221e+06
464237
189275
40831.2
3745.36
150.717
3.20165
0.041954
0.000468615
6.9984e-06
2.0603e-07
-1.38431e-09
-6.4315e-09
-3.18496e-09
-6.83889e-10
-6.42872e-12
-1.78563e-10
-7.37361e-12
-6.26317e-11
-7.15918e-12
-1.85322e-11
-8.97411e-12
3.89852e-11
4.2058e-11
-3.25028e-15
-1.92742e-13
4.19695e-11
-4.80702e-14
-1.20471e-14
-6.18949e-12
-5.01337e-18
-3.06219e-12
-5.49488e-12
-4.8995e-11
-2.18445e-06
-2.18452e-06
-1.95978e-10
-2.18482e-06
-2.18486e-06
-7.8391e-10
-2.18599e-06
-2.18756e-06
-2.18756e-06
-2.18442e-06
-1.25426e-08
-2.19697e-06
3.28636e-13
-2.50851e-08
-5.01709e-08
-5.01702e-08
-2.2507e-08
-1.19255e-06
-8.91529e-07
2.41975e-06
3.44634e-05
0.000334662
0.00258324
0.0165406
0.088443
0.400507
1.55928
5.29715
15.9205
42.8608
104.51
233.106
480.025
922.299
1670.09
2877.13
4766.51
7684.27
12207.1
19346.8
30928
50266.2
83336.5
140637
239894
409702
694894
1.16557e+06
1.93209e+06
3.16859e+06
5.14882e+06
8.30132e+06
1.32968e+07
2.10199e+07
3.30573e+07
5.26783e+07
8.39312e+07
1.3442e+08
1.49694e+08
8.84093e+07
5.16257e+07
2.95202e+07
1.63948e+07
8.77401e+06
4.4915e+06
2.18424e+06
1.0035e+06
442196
175911
35830.7
3055.21
116.848
2.38141
0.0304918
0.000343318
5.36957e-06
1.59574e-07
-1.15664e-09
-2.95355e-09
-1.73877e-09
-1.58949e-09
-3.15712e-10
-1.84621e-10
-1.61233e-10
-5.00463e-13
-4.92142e-11
-1.85273e-11
3.30935e-11
-6.20099e-12
-7.4065e-15
-5.96934e-13
-8.71514e-14
-6.18401e-12
-4.80603e-14
-1.20434e-14
-6.18351e-12
-3.40179e-16
-3.06215e-12
1.60467e-16
-2.18447e-06
-2.1845e-06
-2.18447e-06
-1.9598e-10
-3.91955e-10
-9.2141e-20
-7.8392e-10
-2.18599e-06
-3.13568e-09
-2.18756e-06
-2.1907e-06
-1.25426e-08
-2.18442e-06
-1.12539e-08
-2.50851e-08
-1.76911e-17
6.57094e-13
-1.14238e-06
-1.09221e-06
-8.91528e-07
3.31127e-06
3.50088e-05
0.000328151
0.0025545
0.0163987
0.0879157
0.39911
1.55748
5.30273
15.9703
43.0785
105.233
235.123
484.941
933.41
1692.65
2920.12
4844.6
7821.68
12444.9
19757.5
31642.2
51523.1
85570.1
144612
246900
421815
715387
1.1996e+06
1.9878e+06
3.25885e+06
5.29382e+06
8.53261e+06
1.36638e+07
2.15715e+07
3.39265e+07
5.40698e+07
8.61697e+07
1.38041e+08
1.46386e+08
8.6404e+07
5.03972e+07
2.87711e+07
1.59455e+07
8.51141e+06
4.34397e+06
2.10513e+06
963765
424656
163598
32032.7
2569.69
94.1292
1.85232
0.0232767
0.000264224
4.26647e-06
1.37047e-07
4.58805e-09
-6.44447e-09
-4.29015e-11
-7.24229e-10
-3.95998e-10
-2.24792e-10
-1.0915e-10
-5.64044e-11
1.48403e-11
2.9037e-11
3.58427e-11
3.28032e-11
4.20586e-11
3.54965e-11
-1.92631e-13
-5.10588e-16
-6.23153e-12
-5.44485e-15
3.58762e-11
3.58819e-11
-1.37372e-12
-2.18444e-06
0
-2.18447e-06
-2.18452e-06
-1.95978e-10
-2.16114e-10
-2.18442e-06
-4.32227e-10
-2.18442e-06
-2.18756e-06
-2.18756e-06
-6.27128e-09
-1.25426e-08
-2.19697e-06
-2.50855e-08
-2.20951e-06
-2.20693e-06
-2.2346e-06
-1.14238e-06
-1.14754e-06
2.00683e-07
2.3194e-06
3.34599e-05
0.000325631
0.00253351
0.0162987
0.0875633
0.398314
1.55732
5.31159
16.0235
43.2897
105.905
236.95
489.389
943.059
1712.07
2956.86
4911
7938.05
12645.8
20103.5
32243.2
52579.9
87447.2
147951
252779
431967
732547
1.22807e+06
2.0344e+06
3.33433e+06
5.41502e+06
8.72583e+06
1.397e+07
2.20288e+07
3.46507e+07
5.52305e+07
8.80371e+07
1.41055e+08
1.43617e+08
8.47268e+07
4.93712e+07
2.8147e+07
1.55723e+07
8.29414e+06
4.22243e+06
2.04027e+06
931363
410371
153819
29063.9
2219.18
78.4584
1.5002
0.0185762
0.000212561
3.55415e-06
1.2499e-07
-9.58089e-10
-3.61954e-09
-3.1343e-09
-8.78537e-10
-7.95727e-10
-2.40467e-12
-1.05179e-12
-6.64834e-12
1.36986e-11
-1.23373e-11
-8.96927e-12
-9.26198e-12
-7.72147e-12
3.54966e-11
-6.37607e-12
3.58818e-11
3.58821e-11
-5.44225e-15
-6.18949e-12
4.20657e-11
-2.18443e-06
-2.18443e-06
-2.18442e-06
0
-4.39591e-11
-2.18462e-06
-2.18464e-06
-4.32227e-10
-3.51683e-10
-8.64455e-10
-2.18615e-06
-3.13564e-09
-2.1907e-06
-5.62693e-09
-2.19134e-06
3.28636e-13
-2.50855e-08
-5.01709e-08
-2.20693e-06
-1.14238e-06
-1.19255e-06
-7.91186e-07
2.11872e-06
3.30586e-05
0.000323713
0.00251775
0.016228
0.0873371
0.397918
1.55809
5.32158
16.0744
43.4791
106.486
238.494
493.085
951.069
1728.12
2987.09
4965.37
8032.94
12808.9
20383.8
32728.8
53432.3
88959
150636
257503
440121
746329
1.25096e+06
2.07193e+06
3.39529e+06
5.51329e+06
8.88327e+06
1.42209e+07
2.24036e+07
3.52467e+07
5.61857e+07
8.95729e+07
1.43525e+08
1.41308e+08
8.33279e+07
4.85168e+07
2.76287e+07
1.52635e+07
8.11516e+06
4.1228e+06
1.98738e+06
905019
398572
146941
26707.6
1962.34
67.4626
1.26102
0.0154416
0.000178016
3.05395e-06
8.99234e-08
6.0331e-09
-6.42422e-09
-3.17461e-09
-8.35967e-10
-7.89364e-10
-2.18454e-10
-9.51295e-11
-5.6376e-11
1.11869e-11
-1.17645e-11
3.59042e-11
3.44926e-11
4.2059e-11
3.56684e-11
-6.37604e-12
-4.80787e-16
-2.16582e-14
-1.20357e-14
4.20657e-11
3.58815e-11
-1.37372e-12
-2.18443e-06
-2.18447e-06
-2.19789e-11
-2.18448e-06
-2.18451e-06
-2.1846e-06
-7.8391e-10
-4.32238e-10
-2.18513e-06
-3.13568e-09
-1.40669e-09
-6.27136e-09
-1.25426e-08
-2.19697e-06
-2.19826e-06
-2.50851e-08
-1.17941e-17
-5.01709e-08
-5.01703e-08
-1.14754e-06
-8.46513e-07
2.11872e-06
3.27576e-05
0.000320614
0.0025072
0.0161809
0.0871979
0.397766
1.55926
5.3312
16.1192
43.6401
106.971
239.777
496.074
957.458
1740.8
3010.82
5007.79
8106.54
12934.8
20598.8
33099.3
54079.2
90100.1
152652
261028
446169
756496
1.26777e+06
2.09942e+06
3.43992e+06
5.58548e+06
9.00003e+06
1.44107e+07
2.26961e+07
3.57358e+07
5.69636e+07
9.08146e+07
1.4551e+08
1.39348e+08
8.21465e+07
4.78001e+07
2.71972e+07
1.50085e+07
7.96856e+06
4.04185e+06
1.94474e+06
883955
389125
141359
24938.2
1778.84
59.8419
1.09922
0.0133501
0.00015488
2.6567e-06
9.08446e-08
-8.21704e-10
-6.41146e-09
-3.17331e-09
-1.53896e-09
-7.95418e-10
-2.18397e-10
-8.89237e-11
-5.44722e-11
1.1191e-11
-1.85164e-11
3.92818e-11
-7.88742e-12
3.51888e-11
-1.74478e-13
-6.37601e-12
3.58818e-11
3.58689e-11
4.20591e-11
4.20644e-11
3.58822e-11
-2.18443e-06
-2.18444e-06
-4.8995e-11
-2.70142e-11
-4.39591e-11
-1.95978e-10
-2.18464e-06
-7.8392e-10
-7.8391e-10
2.05397e-14
-2.18756e-06
-1.40669e-09
-2.1907e-06
-2.19134e-06
-2.19697e-06
-1.12539e-08
-1.38313e-08
-5.01702e-08
-5.01702e-08
-5.01703e-08
-1.19255e-06
-8.46513e-07
2.11872e-06
3.25569e-05
0.00031941
0.00250066
0.0161512
0.0871161
0.397743
1.56044
5.33925
16.1547
43.7641
107.338
240.732
498.298
962.19
1750.15
3028.19
5038.68
8159.82
13025.4
20752.5
33362.4
54534.7
90895.5
154040
263418
450192
763099
1.27835e+06
2.11601e+06
3.46535e+06
5.62339e+06
9.05447e+06
1.44845e+07
2.27777e+07
3.62589e+07
5.76208e+07
9.17911e+07
1.47037e+08
1.3766e+08
8.11546e+07
4.72105e+07
2.68483e+07
1.48052e+07
7.85321e+06
3.97885e+06
1.91189e+06
867866
381996
137100
23675.7
1652.84
54.7308
0.992724
0.0119881
0.000139777
2.47713e-06
9.14607e-08
4.86453e-09
-2.90681e-09
-1.44335e-09
-6.74223e-10
-3.14833e-10
3.98238e-11
-7.31618e-11
-9.84244e-11
-3.08712e-11
2.35506e-11
-2.78332e-12
-7.5725e-12
-6.93333e-13
3.57078e-11
-1.92511e-13
3.58818e-11
-6.20759e-12
-1.2033e-14
-1.6727e-15
-7.51788e-16
-2.18443e-06
-2.18444e-06
-4.89944e-11
-2.18447e-06
-2.18448e-06
-2.18453e-06
-3.9196e-10
-3.51673e-10
-4.32227e-10
-2.18599e-06
-1.72891e-09
-2.18583e-06
-2.1907e-06
-2.18442e-06
-2.19697e-06
-1.38313e-08
-2.19568e-06
-2.25077e-08
-2.2346e-06
-1.14238e-06
-1.19255e-06
-8.91529e-07
3.31127e-06
3.24565e-05
0.000318496
0.00249565
0.0161329
0.0870731
0.397771
1.56137
5.345
16.1793
43.8489
107.587
241.37
499.771
965.302
1756.26
3039.52
5058.74
8194.36
13084.1
20852.2
33533.2
54831.3
91415.3
154951
265000
452888
767603
1.28576e+06
2.12812e+06
3.48506e+06
5.65553e+06
9.10724e+06
1.45723e+07
2.29246e+07
3.65178e+07
5.8027e+07
9.24345e+07
1.48058e+08
1.36583e+08
8.05081e+07
4.68208e+07
2.66156e+07
1.4669e+07
7.77572e+06
3.93652e+06
1.88984e+06
857103
377224
134238
22865.3
1574.09
51.5911
0.928235
0.0111706
0.000130713
2.33945e-06
8.05852e-08
-7.38304e-10
-2.90381e-09
-1.76502e-09
2.93385e-11
-3.95323e-10
-8.40098e-12
-2.03136e-10
-9.84203e-11
-1.73623e-11
3.64887e-11
3.247e-11
-7.88701e-12
-6.87675e-12
-2.13732e-13
-6.27045e-12
3.58818e-11
4.20524e-11
3.58756e-11
4.20627e-11
-3.3952e-16
-2.18443e-06
-1.22486e-11
0
-7.09739e-11
-2.18452e-06
-1.9598e-10
-2.1846e-06
-2.18478e-06
-2.18521e-06
-2.18442e-06
0
-2.18756e-06
-2.18442e-06
-1.25427e-08
-2.19005e-06
-2.50855e-08
-2.50851e-08
-2.18442e-06
-2.76632e-08
-5.01709e-08
-1.09221e-06
-8.91528e-07
2.11872e-06
3.35487e-05
0.000318206
0.00249344
0.0161252
0.0870562
0.397795
1.56186
5.34791
16.1916
43.8908
107.709
241.682
500.488
966.815
1759.23
3045.01
5068.48
8211.19
13112.8
20901.5
33618.8
54981.8
91682.8
155427
265839
454338
770061
1.28987e+06
2.1349e+06
3.4962e+06
5.67373e+06
9.13689e+06
1.46204e+07
2.30014e+07
3.6642e+07
5.82248e+07
9.27517e+07
1.48563e+08
1.36077e+08
8.02018e+07
4.66346e+07
2.65035e+07
1.4603e+07
7.738e+06
3.91586e+06
1.87906e+06
851838
374884
132828
22477.7
1537.13
50.1381
0.898777
0.0108008
0.00012665
2.29505e-06
9.19842e-08
-7.06204e-10
-8.89825e-11
-3.12939e-09
-1.5446e-09
-7.46973e-10
-2.18324e-10
-6.696e-11
-1.85757e-11
2.83711e-11
-1.30187e-11
-6.1596e-12
-1.38876e-12
4.12152e-11
3.56685e-11
3.57953e-11
-5.32183e-14
-2.41061e-14
-1.20318e-14
3.58809e-11
-4.16327e-16
-3.06215e-12
-2.18444e-06
6.41872e-16
-2.19802e-11
-2.30353e-20
-2.18462e-06
-2.18442e-06
-7.8392e-10
-2.18521e-06
2.05397e-14
-1.40669e-09
-2.18615e-06
-3.45782e-09
-2.18442e-06
-1.47426e-18
-2.18442e-06
-2.50851e-08
-2.18442e-06
-5.01709e-08
-1.14238e-06
-1.09221e-06
-8.91529e-07
2.01838e-06
3.24565e-05
0.000319187
0.00249364
0.0161252
0.0870545
0.397794
1.56185
5.3479
16.1916
43.8906
107.709
241.681
500.485
966.81
1759.22
3045.01
5068.51
8211.36
13113.4
20903.1
33622.6
54990.2
91699.4
155457
265890
454420
770192
1.29007e+06
2.13521e+06
3.49665e+06
5.67437e+06
9.13771e+06
1.46213e+07
2.3002e+07
3.66418e+07
5.82229e+07
9.27491e+07
1.48561e+08
1.36104e+08
8.02185e+07
4.66446e+07
2.65093e+07
1.46061e+07
7.73962e+06
3.91665e+06
1.87943e+06
851996
374947
132842
22478.3
1537.09
50.1363
0.89874
0.0108004
0.0001266
2.29504e-06
6.69201e-08
-7.27237e-10
-6.40241e-09
-3.17142e-09
-1.58049e-09
-3.5681e-10
-3.521e-10
-7.14982e-12
-2.32185e-12
1.73811e-11
2.3552e-11
-8.96622e-12
-7.57224e-12
-7.71889e-13
-6.3972e-12
3.57756e-11
4.20125e-11
-6.20759e-12
4.20591e-11
-6.18515e-12
-6.18382e-12
-2.18442e-06
-2.18444e-06
-2.18442e-06
-2.18447e-06
-2.18447e-06
-2.18442e-06
-2.18482e-06
-2.18521e-06
-3.51673e-10
-1.84282e-19
-3.68564e-19
-2.18756e-06
-2.18442e-06
-2.18442e-06
-2.19697e-06
-2.50855e-08
-2.50855e-08
-1.76911e-17
-2.2507e-08
-5.01703e-08
-1.19255e-06
2.56011e-07
2.11872e-06
3.24565e-05
0.000318607
0.00249565
0.0161338
0.0870721
0.397767
1.56135
5.34495
16.1792
43.8484
107.586
241.367
499.763
965.288
1756.24
3039.52
5058.85
8194.86
13085.7
20856.8
33544.6
54856.5
91466.6
155047
265169
453166
768041
1.28643e+06
2.12909e+06
3.48641e+06
5.65733e+06
9.10947e+06
1.45748e+07
2.2927e+07
3.65194e+07
5.80174e+07
9.24215e+07
1.48043e+08
1.36697e+08
8.05742e+07
4.68581e+07
2.66358e+07
1.46796e+07
7.781e+06
3.93904e+06
1.89097e+06
857581
377412
134282
22867.4
1574.01
51.5856
0.928124
0.0111693
0.000130687
2.33946e-06
8.05831e-08
-7.59337e-10
-6.40384e-09
-3.13583e-09
-1.53852e-09
-3.20952e-10
-2.2175e-12
-1.09032e-10
-4.30276e-13
-3.08692e-11
3.03053e-11
-8.96641e-12
3.2805e-11
-4.28496e-13
-2.13732e-13
4.18732e-11
-6.2367e-12
4.20416e-11
-5.43678e-15
4.20641e-11
-6.18348e-12
-1.37372e-12
-2.18444e-06
-4.8995e-11
-2.18445e-06
-2.18452e-06
-2.18451e-06
0
-2.18478e-06
-2.18478e-06
-1.56784e-09
-3.13568e-09
-2.18583e-06
-2.1907e-06
-2.18442e-06
-2.19697e-06
0
-2.20951e-06
-2.18442e-06
-5.01702e-08
-1.11987e-06
-1.13723e-06
-8.91529e-07
2.16374e-06
3.36491e-05
0.00031941
0.00250046
0.016151
0.087115
0.397737
1.56042
5.33916
16.1545
43.7633
107.336
240.727
498.287
962.17
1750.12
3028.2
5038.84
8160.55
13027.7
20759.1
33378.7
54571.5
90971.6
154185
263673
450609
763731
1.27923e+06
2.1171e+06
3.46641e+06
5.6237e+06
9.05237e+06
1.44766e+07
2.27586e+07
3.62688e+07
5.7618e+07
9.1778e+07
1.47012e+08
1.37811e+08
8.12357e+07
4.72543e+07
2.68715e+07
1.48172e+07
7.85913e+06
3.98166e+06
1.91315e+06
868402
382208
137151
23677.8
1652.68
54.7213
0.992533
0.0119859
0.000139729
2.47718e-06
6.63698e-08
6.13251e-09
-3.59325e-09
-1.40132e-09
-7.22472e-10
-3.63083e-10
-1.76295e-10
-1.61083e-10
4.16314e-11
-1.36981e-11
-1.30201e-11
-6.16017e-12
-6.19874e-12
4.13724e-11
4.18913e-11
-1.92511e-13
-6.22687e-12
-6.20759e-12
4.20603e-11
-3.01426e-15
-7.5178e-16
-1.68843e-12
-2.18443e-06
6.41872e-16
-4.89944e-11
-2.18452e-06
-2.18451e-06
-3.9196e-10
-2.18521e-06
-7.8391e-10
-8.64475e-10
-1.40669e-09
-2.18756e-06
-6.27128e-09
-2.19697e-06
-1.25426e-08
-1.12535e-08
-2.20951e-06
-5.01702e-08
-5.01709e-08
-1.11472e-06
-1.19255e-06
-8.91529e-07
2.11872e-06
3.38498e-05
0.000320614
0.002507
0.0161803
0.0871947
0.397756
1.55923
5.33107
16.1188
43.639
106.969
239.77
496.061
957.434
1740.77
3010.8
5007.89
8107.1
12936.8
20604.5
33114.3
54115.2
90180.2
152818
261349
446753
757504
1.26943e+06
2.10204e+06
3.44382e+06
5.59081e+06
9.0061e+06
1.44143e+07
2.26875e+07
3.57271e+07
5.69551e+07
9.08047e+07
1.45498e+08
1.39433e+08
8.21955e+07
4.78275e+07
2.72121e+07
1.50163e+07
7.97246e+06
4.04371e+06
1.94558e+06
884307
389262
141389
24937.7
1778.53
59.828
1.09895
0.0133471
0.000154832
2.67927e-06
1.04677e-07
4.82007e-09
-3.59793e-09
-1.40229e-09
-1.58722e-09
-3.6318e-10
-1.76332e-10
-7.18644e-12
-5.44712e-11
2.46984e-11
3.52278e-11
-6.16074e-12
-7.88739e-12
3.43446e-11
3.57078e-11
4.19787e-11
-6.22688e-12
-6.20759e-12
-6.19551e-12
-4.66349e-15
-7.5185e-16
-2.18443e-06
-6.75355e-12
-2.18445e-06
-2.18447e-06
-2.18452e-06
-1.95978e-10
-2.18464e-06
-4.32238e-10
-7.8391e-10
-7.03366e-10
-3.13564e-09
-2.18756e-06
8.21596e-14
-2.19697e-06
-1.25427e-08
-2.20951e-06
-2.20951e-06
-2.76632e-08
-5.01709e-08
-1.14238e-06
-1.19255e-06
-8.46513e-07
3.31127e-06
3.30586e-05
0.000322621
0.00251775
0.0162271
0.0873333
0.397903
1.55804
5.32141
16.0739
43.4779
106.483
238.487
493.069
951.04
1728.07
2987.03
4965.34
8033.06
12809.6
20386.1
32735.4
53449.1
88998.3
150721
257669
440421
746831
1.25174e+06
2.07307e+06
3.39679e+06
5.51502e+06
8.88475e+06
1.42212e+07
2.24015e+07
3.5244e+07
5.61832e+07
8.95709e+07
1.43524e+08
1.41336e+08
8.3345e+07
4.85269e+07
2.76343e+07
1.52665e+07
8.11664e+06
4.1235e+06
1.98768e+06
905140
398615
146944
26704.1
1961.88
67.4449
1.26069
0.0154378
0.00017797
3.05399e-06
8.99457e-08
-8.55486e-10
-6.38215e-09
-3.17461e-09
-1.58758e-09
-4.37682e-10
-3.58413e-10
3.48569e-11
-5.05955e-11
-1.73719e-11
2.35473e-11
3.24682e-11
3.58664e-11
-7.72128e-12
-6.56907e-12
-6.37604e-12
-6.23672e-12
4.20284e-11
-6.18355e-12
4.20657e-11
-4.16552e-16
-2.18443e-06
-1.22486e-11
-2.18447e-06
-2.18447e-06
-5.40284e-11
-1.08057e-10
5.13498e-15
-2.18442e-06
-2.18486e-06
-2.18513e-06
4.10798e-14
-2.18756e-06
-3.4579e-09
-2.18442e-06
-2.19005e-06
-2.18442e-06
-1.38313e-08
-2.2346e-06
-2.76625e-08
-1.11472e-06
-3.4533e-14
-8.91528e-07
2.21906e-06
3.44518e-05
0.000325631
0.00253331
0.0162977
0.087559
0.398296
1.55726
5.31138
16.0229
43.2881
105.901
236.941
489.371
943.026
1712.01
2956.77
4910.87
7937.9
12645.7
20103.6
32243.9
52582.5
87454.3
147968
252814
432035
732664
1.22826e+06
2.03468e+06
3.3347e+06
5.41546e+06
8.72629e+06
1.39704e+07
2.20291e+07
3.46507e+07
5.52307e+07
8.80381e+07
1.41058e+08
1.43622e+08
8.47298e+07
4.93729e+07
2.81479e+07
1.55727e+07
8.29428e+06
4.22246e+06
2.04026e+06
931346
410358
153805
29058.6
2218.64
78.4373
1.49979
0.0185713
0.000212488
3.53169e-06
1.13759e-07
4.71722e-09
-6.43307e-09
-1.4115e-09
-8.42655e-10
-1.17984e-11
-2.24707e-10
4.10139e-11
-6.64732e-12
-1.11935e-11
3.64819e-11
-2.78573e-12
4.0361e-11
3.51885e-11
-1.74605e-13
-1.06729e-13
3.5829e-11
3.58821e-11
-1.20378e-14
-6.00629e-15
-6.18348e-12
-2.18443e-06
-2.18444e-06
-2.18442e-06
-7.09752e-11
-9.79888e-11
-1.9598e-10
-3.91955e-10
-9.2141e-20
-2.18486e-06
-1.56782e-09
-2.18442e-06
-2.18756e-06
-2.18442e-06
-2.18442e-06
-2.19134e-06
-2.18442e-06
-2.50851e-08
-2.21209e-06
-5.01702e-08
-1.14238e-06
-1.19255e-06
-8.91529e-07
2.21906e-06
3.50539e-05
0.000329243
0.0025542
0.0163974
0.0879108
0.399086
1.5574
5.30246
15.9695
43.0766
105.229
235.113
484.922
933.373
1692.58
2920.01
4844.43
7821.43
12444.6
19757
31641.4
51521.9
85568.3
144610
246897
421813
715387
1.1996e+06
1.98781e+06
3.25886e+06
5.29381e+06
8.53255e+06
1.36636e+07
2.15711e+07
3.39265e+07
5.40703e+07
8.6171e+07
1.38044e+08
1.46384e+08
8.6403e+07
5.03964e+07
2.87705e+07
1.5945e+07
8.51109e+06
4.34376e+06
2.10501e+06
963697
424622
163576
32027
2569.08
94.1045
1.85182
0.0232706
0.000264157
4.26655e-06
1.37028e-07
-1.03887e-09
-6.43828e-09
-3.13652e-09
-1.58867e-09
-7.89747e-10
-2.49418e-12