/*--------------------------------*- C++ -*----------------------------------*\
  =========                 |
  \\      /  F ield         | OpenFOAM: The Open Source CFD Toolbox
   \\    /   O peration     | Website:  https://openfoam.org
    \\  /    A nd           | Version:  8
     \\/     M anipulation  |
\*---------------------------------------------------------------------------*/
FoamFile
{
    version     2.0;
    format      ascii;
    class       volScalarField;
    location    "0.25/fluid";
    object      rho;
}
// * * * * * * * * * * * * * * * * * * * * * * * * * * * * * * * * * * * * * //

dimensions      [1 -3 0 0 0 0 0];

internalField   nonuniform List<scalar> 
4000
(
0.658526
0.658502
0.658461
0.658391
0.658275
0.658082
0.657763
0.65724
0.656394
0.655041
0.652915
0.64964
0.644717
0.637537
0.627433
0.613808
0.596306
0.57499
0.550428
0.523624
0.495793
0.468109
0.441503
0.416586
0.39367
0.372837
0.354018
0.33706
0.321781
0.307983
0.295479
0.284105
0.27372
0.264205
0.255461
0.247393
0.239893
0.232896
0.226351
0.220213
0.214444
0.209012
0.203889
0.199051
0.194478
0.190152
0.18606
0.182187
0.178523
0.17506
0.171789
0.168706
0.165809
0.163099
0.160586
0.158286
0.15623
0.154486
0.153145
0.152288
0.1522
0.153307
0.156409
0.162766
0.171733
0.183099
0.196911
0.213402
0.23297
0.256202
0.283892
0.317095
0.357174
0.405955
0.465703
0.538693
0.626333
0.727584
0.836822
0.942955
1.0328
1.09805
1.13906
1.16189
1.1735
1.1791
1.18171
1.18289
1.18342
1.18365
1.18375
1.18379
1.18381
1.18382
1.18382
1.18382
1.18382
1.18382
1.18382
1.18382
0.658526
0.658502
0.658461
0.658391
0.658275
0.658081
0.657762
0.657238
0.656391
0.655039
0.65292
0.649663
0.644784
0.637683
0.627714
0.614289
0.597051
0.576039
0.55178
0.525228
0.497568
0.469958
0.443339
0.418343
0.395306
0.374329
0.355359
0.338258
0.322842
0.308909
0.296285
0.284806
0.274328
0.264732
0.255915
0.247784
0.240229
0.233183
0.226593
0.220416
0.214611
0.209146
0.203994
0.199129
0.194533
0.190186
0.186074
0.182184
0.178504
0.175027
0.171744
0.168651
0.165745
0.16303
0.160513
0.158213
0.156163
0.154437
0.153121
0.152308
0.152295
0.153533
0.156875
0.163456
0.17265
0.184272
0.19839
0.215259
0.235306
0.259154
0.287647
0.321901
0.363357
0.413957
0.476028
0.551774
0.642282
0.745757
0.855428
0.95937
1.04492
1.1055
1.14296
1.16371
1.17429
1.17942
1.18184
1.18294
1.18344
1.18366
1.18375
1.18379
1.18381
1.18382
1.18382
1.18382
1.18382
1.18382
1.18382
1.18382
0.658526
0.658502
0.658461
0.658391
0.658274
0.65808
0.657759
0.657234
0.656386
0.655034
0.652917
0.649671
0.644818
0.63777
0.627894
0.614613
0.597572
0.5768
0.552799
0.526489
0.499021
0.471536
0.444971
0.419967
0.396874
0.37581
0.356736
0.339524
0.323983
0.309938
0.297208
0.285629
0.275059
0.265377
0.256482
0.24828
0.240661
0.233556
0.226912
0.220685
0.214834
0.209326
0.204134
0.199233
0.194603
0.190224
0.186084
0.182167
0.178464
0.174966
0.171664
0.168555
0.165636
0.162911
0.160389
0.15809
0.156049
0.154355
0.15308
0.15234
0.152453
0.153913
0.157661
0.164599
0.174155
0.186178
0.200763
0.218195
0.238936
0.263649
0.293227
0.328842
0.372001
0.424722
0.489291
0.567694
0.660487
0.765002
0.873563
0.974091
1.05504
1.11145
1.14603
1.16517
1.17494
1.17971
1.18196
1.18299
1.18346
1.18366
1.18375
1.18379
1.18381
1.18382
1.18382
1.18382
1.18382
1.18382
1.18382
1.18382
0.658526
0.658502
0.658461
0.658391
0.658275
0.658081
0.657761
0.657239
0.656395
0.655053
0.652954
0.649741
0.644939
0.637973
0.628216
0.615096
0.598253
0.577701
0.553915
0.52779
0.500456
0.473044
0.446494
0.421458
0.398299
0.377148
0.357982
0.340658
0.325018
0.310877
0.298056
0.286391
0.275741
0.265984
0.257017
0.248751
0.241073
0.233913
0.227217
0.220941
0.215044
0.209493
0.20426
0.199321
0.194655
0.190243
0.186072
0.182127
0.178398
0.174876
0.171554
0.168427
0.165494
0.162759
0.160233
0.157936
0.155908
0.154252
0.153026
0.152375
0.152642
0.154372
0.158617
0.165986
0.175973
0.188465
0.20359
0.221661
0.243178
0.268841
0.299591
0.336649
0.381591
0.436496
0.503592
0.584629
0.679637
0.785102
0.892489
0.989597
1.06594
1.11809
1.14962
1.16695
1.17578
1.18008
1.18212
1.18306
1.18349
1.18368
1.18376
1.1838
1.18381
1.18382
1.18382
1.18382
1.18382
1.18382
1.18382
1.18382
0.658526
0.658502
0.658461
0.658392
0.658276
0.658083
0.657765
0.657246
0.656408
0.655076
0.652996
0.649811
0.645057
0.638163
0.628509
0.615527
0.598851
0.578483
0.554878
0.528908
0.501686
0.474335
0.447798
0.422734
0.399518
0.378295
0.359037
0.341629
0.325905
0.311682
0.298783
0.287045
0.276326
0.266504
0.257477
0.249154
0.241424
0.234215
0.227473
0.221152
0.215213
0.209623
0.204353
0.199377
0.194677
0.190234
0.186033
0.182062
0.178308
0.174763
0.171421
0.168277
0.165332
0.162589
0.160061
0.157771
0.155761
0.15415
0.15295
0.152402
0.152838
0.154858
0.15964
0.167469
0.177911
0.190895
0.20658
0.22531
0.247618
0.274243
0.306168
0.344662
0.391369
0.448401
0.517907
0.601359
0.69823
0.804179
0.909964
1.0035
1.07546
1.12377
1.15267
1.16845
1.17649
1.18041
1.18227
1.18312
1.18351
1.18369
1.18376
1.1838
1.18381
1.18382
1.18382
1.18382
1.18382
1.18382
1.18382
1.18382
0.658527
0.658502
0.658461
0.658393
0.658278
0.658086
0.657771
0.657256
0.656426
0.655107
0.653046
0.649895
0.64519
0.638369
0.628815
0.61596
0.599433
0.579224
0.555768
0.52992
0.502779
0.475465
0.448925
0.423827
0.400555
0.379265
0.359929
0.342443
0.326643
0.312349
0.299383
0.287583
0.276805
0.266928
0.257849
0.249478
0.241703
0.234452
0.227669
0.22131
0.215335
0.209709
0.204405
0.199398
0.194668
0.190197
0.18597
0.181974
0.178197
0.174632
0.171273
0.168115
0.165158
0.162409
0.159881
0.157598
0.155607
0.15403
0.152886
0.152435
0.153036
0.155344
0.160657
0.168944
0.179838
0.193307
0.209541
0.228914
0.251991
0.279546
0.312605
0.352477
0.400879
0.459934
0.5317
0.617363
0.715853
0.822059
0.926148
1.01625
1.08416
1.129
1.15549
1.16987
1.17716
1.18072
1.18241
1.18319
1.18354
1.1837
1.18377
1.1838
1.18381
1.18382
1.18382
1.18382
1.18382
1.18382
1.18382
1.18382
0.658527
0.658503
0.658462
0.658394
0.65828
0.65809
0.657777
0.657267
0.656444
0.655137
0.653096
0.649975
0.645316
0.63856
0.629095
0.616351
0.599953
0.579879
0.556549
0.5308
0.503723
0.476434
0.449885
0.424751
0.401429
0.380067
0.360665
0.343113
0.327248
0.312893
0.299869
0.288015
0.277187
0.267262
0.258139
0.249727
0.241914
0.234627
0.22781
0.221418
0.215411
0.209755
0.204422
0.199388
0.194633
0.190137
0.185887
0.181869
0.178074
0.174492
0.171117
0.167947
0.164982
0.162228
0.159701
0.157427
0.155459
0.153915
0.152829
0.152473
0.153231
0.155815
0.161633
0.170356
0.181678
0.195606
0.21236
0.23234
0.256142
0.284575
0.3187
0.359871
0.409871
0.470818
0.544669
0.632321
0.732164
0.838381
0.940667
1.02748
1.0917
1.13347
1.15791
1.17108
1.17774
1.18099
1.18253
1.18324
1.18356
1.18371
1.18377
1.1838
1.18381
1.18382
1.18382
1.18382
1.18382
1.18382
1.18382
1.18382
0.658527
0.658503
0.658462
0.658395
0.658282
0.658093
0.657783
0.657277
0.656461
0.655166
0.653144
0.650051
0.645434
0.638738
0.629351
0.616706
0.60042
0.580459
0.557232
0.531563
0.504534
0.477259
0.450694
0.425522
0.402147
0.38073
0.361269
0.343658
0.327738
0.313329
0.300256
0.288355
0.277484
0.26752
0.258359
0.249912
0.242067
0.234748
0.227903
0.221482
0.215449
0.209768
0.204411
0.199354
0.194576
0.19006
0.185791
0.181756
0.177944
0.174348
0.170961
0.167782
0.16481
0.162054
0.15953
0.157266
0.155323
0.153815
0.152785
0.152522
0.153436
0.156286
0.162562
0.171682
0.183396
0.197746
0.214977
0.235517
0.259988
0.289231
0.324341
0.366714
0.418192
0.480881
0.556626
0.64604
0.747003
0.85306
0.953548
1.03732
1.09825
1.13734
1.15999
1.17213
1.17824
1.18122
1.18263
1.18329
1.18359
1.18372
1.18378
1.1838
1.18381
1.18382
1.18382
1.18382
1.18382
1.18382
1.18382
1.18382
0.658527
0.658503
0.658463
0.658396
0.658283
0.658097
0.657789
0.657287
0.656478
0.655193
0.653188
0.65012
0.645541
0.638897
0.629579
0.617017
0.600827
0.580963
0.557822
0.532217
0.505224
0.477958
0.451377
0.426173
0.402748
0.381278
0.361763
0.3441
0.32813
0.313675
0.300559
0.288619
0.277712
0.267713
0.25852
0.250044
0.242172
0.234828
0.227957
0.221513
0.215458
0.209756
0.204379
0.199303
0.194507
0.189973
0.185688
0.181638
0.177814
0.174206
0.17081
0.167624
0.164648
0.161892
0.159372
0.15712
0.155206
0.153734
0.152766
0.152603
0.153686
0.156838
0.163478
0.17293
0.184985
0.199708
0.217367
0.238412
0.26349
0.293469
0.329477
0.372948
0.425776
0.490048
0.567493
0.658452
0.760325
0.866091
0.964828
1.04582
1.10384
1.14062
1.16176
1.17301
1.17867
1.18142
1.18273
1.18333
1.1836
1.18373
1.18378
1.1838
1.18381
1.18382
1.18382
1.18382
1.18382
1.18382
1.18382
1.18382
0.658527
0.658503
0.658464
0.658397
0.658285
0.6581
0.657794
0.657296
0.656493
0.655218
0.653227
0.650182
0.645635
0.639036
0.629778
0.617289
0.601178
0.581395
0.558324
0.53277
0.505804
0.47854
0.45194
0.426701
0.403237
0.381722
0.362161
0.344453
0.32844
0.313946
0.300794
0.28882
0.277882
0.267855
0.258635
0.250134
0.24224
0.234874
0.227983
0.22152
0.215446
0.209726
0.204332
0.19924
0.194429
0.189882
0.185584
0.181522
0.177687
0.174071
0.170668
0.167476
0.164499
0.161743
0.15923
0.156991
0.155106
0.153671
0.152764
0.152703
0.153958
0.157424
0.164352
0.174082
0.18643
0.20148
0.219518
0.241013
0.266634
0.297274
0.334089
0.378552
0.432597
0.498288
0.577243
0.669541
0.772143
0.877535
0.974616
1.0531
1.10859
1.1434
1.16324
1.17376
1.17903
1.18159
1.1828
1.18336
1.18362
1.18373
1.18378
1.18381
1.18381
1.18382
1.18382
1.18382
1.18382
1.18382
1.18382
1.18382
0.658527
0.658503
0.658464
0.658398
0.658287
0.658102
0.657799
0.657304
0.656506
0.655239
0.653262
0.650236
0.645717
0.639157
0.629949
0.617521
0.601478
0.581761
0.558748
0.533235
0.506289
0.479025
0.452408
0.427139
0.403636
0.382081
0.36248
0.344733
0.328684
0.314156
0.300973
0.288971
0.278007
0.267956
0.258714
0.250193
0.242279
0.234895
0.227988
0.221509
0.215419
0.209685
0.204277
0.199172
0.194349
0.189791
0.185482
0.181411
0.177568
0.173945
0.170537
0.167342
0.164363
0.16161
0.159103
0.156876
0.15502
0.15362
0.15277
0.152803
0.154218
0.157974
0.165147
0.175116
0.187718
0.203055
0.221426
0.243319
0.269421
0.300649
0.338182
0.383531
0.438659
0.50561
0.585891
0.679339
0.782517
0.887488
0.983035
1.0593
1.1126
1.14572
1.16449
1.17438
1.17933
1.18173
1.18287
1.18339
1.18363
1.18374
1.18379
1.18381
1.18382
1.18382
1.18382
1.18382
1.18382
1.18382
1.18382
1.18382
0.658527
0.658504
0.658464
0.658398
0.658288
0.658105
0.657803
0.657311
0.656517
0.655258
0.653291
0.650282
0.645787
0.63926
0.630095
0.617717
0.60173
0.582068
0.559101
0.533621
0.50669
0.479424
0.45279
0.427493
0.403958
0.382368
0.362732
0.344952
0.328872
0.314316
0.301108
0.289083
0.278097
0.268026
0.258766
0.250228
0.242298
0.2349
0.227978
0.221486
0.215384
0.209638
0.204219
0.199104
0.194271
0.189704
0.185387
0.181308
0.177459
0.17383
0.170418
0.167221
0.164242
0.161492
0.158991
0.156776
0.154946
0.153577
0.152777
0.152893
0.154449
0.15846
0.165847
0.176024
0.188847
0.204433
0.223096
0.245338
0.271862
0.303605
0.341769
0.3879
0.443984
0.512039
0.593472
0.687899
0.791527
0.896061
0.990216
1.06454
1.11596
1.14766
1.16552
1.1749
1.17958
1.18185
1.18292
1.18342
1.18364
1.18374
1.18379
1.18381
1.18382
1.18382
1.18382
1.18382
1.18382
1.18382
1.18382
1.18382
0.658527
0.658504
0.658465
0.658399
0.658289
0.658107
0.657806
0.657317
0.656527
0.655274
0.653316
0.650321
0.645846
0.639347
0.630216
0.61788
0.601939
0.582322
0.559393
0.533938
0.507017
0.479746
0.453096
0.427777
0.404214
0.382595
0.36293
0.345122
0.329017
0.314437
0.301207
0.289163
0.27816
0.268073
0.258798
0.250245
0.242303
0.234893
0.22796
0.221457
0.215345
0.209589
0.204162
0.199038
0.194197
0.189622
0.185299
0.181215
0.177361
0.173728
0.170313
0.167115
0.164136
0.161388
0.158893
0.156689
0.154882
0.15354
0.152784
0.152971
0.154648
0.15888
0.166451
0.176807
0.189822
0.205624
0.224539
0.247082
0.273972
0.306162
0.344876
0.391688
0.448602
0.517613
0.600036
0.695287
0.799262
0.903367
0.996283
1.06893
1.11876
1.14927
1.16638
1.17533
1.17979
1.18195
1.18297
1.18344
1.18365
1.18375
1.18379
1.18381
1.18382
1.18382
1.18382
1.18382
1.18382
1.18382
1.18382
1.18382
0.658527
0.658504
0.658465
0.6584
0.65829
0.658109
0.657809
0.657321
0.656535
0.655287
0.653337
0.650354
0.645895
0.639418
0.630316
0.618015
0.602111
0.582529
0.55963
0.534194
0.507281
0.480007
0.453342
0.428002
0.404416
0.382772
0.363083
0.345252
0.329126
0.314527
0.30128
0.28922
0.278202
0.268102
0.258815
0.250251
0.242299
0.234879
0.227936
0.221425
0.215305
0.209542
0.204107
0.198976
0.19413
0.189549
0.185221
0.181133
0.177274
0.173639
0.170222
0.167023
0.164045
0.1613
0.15881
0.156615
0.154828
0.153509
0.152791
0.153037
0.154818
0.159237
0.166966
0.177475
0.190653
0.206639
0.225769
0.248569
0.275771
0.308344
0.347528
0.394925
0.452549
0.522376
0.605638
0.701575
0.805816
0.909516
1.00135
1.07258
1.12107
1.1506
1.16708
1.17568
1.17996
1.18203
1.183
1.18345
1.18366
1.18375
1.18379
1.18381
1.18382
1.18382
1.18382
1.18382
1.18382
1.18382
1.18382
1.18382
0.658527
0.658504
0.658465
0.6584
0.658291
0.65811
0.657812
0.657326
0.656542
0.655298
0.653354
0.65038
0.645935
0.639476
0.630397
0.618123
0.602249
0.582696
0.55982
0.534399
0.50749
0.480211
0.453535
0.428178
0.404573
0.382909
0.3632
0.345351
0.329207
0.314593
0.301332
0.289259
0.278229
0.268119
0.258822
0.25025
0.242289
0.234861
0.227912
0.221394
0.215267
0.209498
0.204057
0.198922
0.19407
0.189486
0.185154
0.181062
0.177201
0.173564
0.170145
0.166946
0.163969
0.161226
0.158741
0.156554
0.154784
0.153484
0.152796
0.153093
0.154959
0.159536
0.167398
0.178035
0.19135
0.20749
0.2268
0.249815
0.27728
0.310174
0.349752
0.397641
0.455862
0.526373
0.610332
0.706832
0.811273
0.91461
1.00552
1.07555
1.12295
1.15167
1.16765
1.17596
1.1801
1.18209
1.18303
1.18347
1.18366
1.18375
1.18379
1.18381
1.18382
1.18382
1.18382
1.18382
1.18382
1.18382
1.18382
1.18382
0.658527
0.658504
0.658465
0.6584
0.658292
0.658111
0.657814
0.657329
0.656547
0.655306
0.653368
0.650402
0.645967
0.639522
0.630462
0.618209
0.602358
0.582826
0.559968
0.534558
0.507653
0.48037
0.453684
0.428314
0.404693
0.383012
0.363288
0.345424
0.329267
0.31464
0.301368
0.289285
0.278246
0.268127
0.258823
0.250244
0.242277
0.234843
0.227888
0.221365
0.215233
0.209459
0.204015
0.198875
0.19402
0.189432
0.185097
0.181003
0.17714
0.173502
0.170083
0.166883
0.163907
0.161166
0.158685
0.156504
0.154748
0.153463
0.1528
0.153139
0.155076
0.159783
0.167754
0.178497
0.191924
0.208189
0.227647
0.250838
0.278517
0.311673
0.351574
0.399866
0.458575
0.529644
0.614169
0.711119
0.815709
0.918732
1.00888
1.07794
1.12445
1.15252
1.1681
1.17619
1.18021
1.18214
1.18306
1.18348
1.18367
1.18376
1.18379
1.18381
1.18382
1.18382
1.18382
1.18382
1.18382
1.18382
1.18382
1.18382
0.658527
0.658504
0.658465
0.658401
0.658292
0.658112
0.657815
0.657331
0.656551
0.655313
0.653379
0.650418
0.645991
0.639557
0.630511
0.618275
0.602441
0.582926
0.560081
0.534679
0.507776
0.480489
0.453795
0.428414
0.404781
0.383088
0.363351
0.345476
0.329309
0.314673
0.301392
0.289302
0.278256
0.268131
0.258821
0.250237
0.242265
0.234827
0.227867
0.22134
0.215205
0.209428
0.20398
0.198837
0.19398
0.18939
0.185053
0.180957
0.177093
0.173454
0.170035
0.166835
0.16386
0.161122
0.158644
0.156468
0.154722
0.153445
0.152801
0.153174
0.155169
0.159983
0.168042
0.178869
0.192383
0.208748
0.22832
0.25165
0.279497
0.312859
0.353014
0.401623
0.460715
0.532221
0.617188
0.714485
0.819182
0.921948
1.0115
1.0798
1.12561
1.15319
1.16845
1.17636
1.18029
1.18218
1.18307
1.18349
1.18367
1.18376
1.18379
1.18381
1.18382
1.18382
1.18382
1.18382
1.18382
1.18382
1.18382
1.18382
0.658527
0.658504
0.658466
0.658401
0.658293
0.658113
0.657816
0.657333
0.656554
0.655318
0.653386
0.650429
0.646009
0.639583
0.630546
0.618322
0.6025
0.582997
0.560162
0.534766
0.507864
0.480574
0.453875
0.428485
0.404843
0.383141
0.363396
0.345512
0.329338
0.314695
0.301408
0.289312
0.278262
0.268132
0.258818
0.25023
0.242254
0.234813
0.227851
0.22132
0.215183
0.209403
0.203953
0.198809
0.193949
0.189358
0.18502
0.180923
0.177059
0.173419
0.17
0.166802
0.163829
0.161093
0.15862
0.156451
0.154718
0.153414
0.152792
0.153195
0.155238
0.160136
0.168262
0.179152
0.192732
0.209169
0.228827
0.252259
0.280229
0.313744
0.354086
0.402929
0.462304
0.534132
0.619422
0.71697
0.821738
0.924309
1.01341
1.08115
1.12646
1.15367
1.16871
1.17649
1.18035
1.18221
1.18309
1.18349
1.18368
1.18376
1.18379
1.18381
1.18382
1.18382
1.18382
1.18382
1.18382
1.18382
1.18382
1.18382
0.658527
0.658504
0.658466
0.658401
0.658293
0.658113
0.657817
0.657334
0.656556
0.655321
0.653391
0.650437
0.64602
0.639599
0.630569
0.618352
0.602539
0.583043
0.560214
0.534821
0.50792
0.480628
0.453925
0.428531
0.404883
0.383175
0.363423
0.345535
0.329355
0.314708
0.301417
0.289318
0.278264
0.268132
0.258815
0.250224
0.242247
0.234803
0.227839
0.221307
0.215168
0.209387
0.203935
0.19879
0.193929
0.189337
0.184998
0.180901
0.177036
0.173396
0.169978
0.16678
0.163808
0.161074
0.158602
0.156436
0.154706
0.153404
0.152792
0.153212
0.155285
0.16024
0.16841
0.179342
0.192966
0.209452
0.229166
0.252665
0.280717
0.314332
0.354798
0.403795
0.463355
0.535393
0.620893
0.718601
0.82341
0.925846
1.01465
1.08203
1.12702
1.15399
1.16888
1.17658
1.18039
1.18223
1.1831
1.1835
1.18368
1.18376
1.18379
1.18381
1.18382
1.18382
1.18382
1.18382
1.18382
1.18382
1.18382
1.18382
0.658527
0.658504
0.658466
0.658401
0.658293
0.658113
0.657817
0.657335
0.656557
0.655322
0.653393
0.650441
0.646025
0.639607
0.63058
0.618366
0.602557
0.583065
0.560238
0.534847
0.507947
0.480654
0.453949
0.428552
0.404901
0.38319
0.363436
0.345545
0.329363
0.314714
0.301421
0.28932
0.278265
0.268131
0.258813
0.250222
0.242243
0.234798
0.227833
0.221301
0.21516
0.209378
0.203927
0.19878
0.193919
0.189326
0.184987
0.18089
0.177025
0.173385
0.169967
0.166769
0.163797
0.161064
0.158593
0.156428
0.154699
0.1534
0.152792
0.153221
0.155309
0.16029
0.168484
0.179436
0.193082
0.209592
0.229334
0.252866
0.280958
0.314622
0.355147
0.404218
0.463867
0.536004
0.621602
0.719381
0.824205
0.926572
1.01524
1.08244
1.12728
1.15414
1.16896
1.17662
1.18041
1.18224
1.1831
1.1835
1.18368
1.18376
1.18379
1.18381
1.18382
1.18382
1.18382
1.18382
1.18382
1.18382
1.18382
1.18382
0.658527
0.658504
0.658466
0.658401
0.658293
0.658113
0.657817
0.657335
0.656557
0.655322
0.653393
0.650441
0.646025
0.639607
0.63058
0.618366
0.602557
0.583065
0.560238
0.534847
0.507947
0.480654
0.453949
0.428552
0.404901
0.38319
0.363437
0.345545
0.329363
0.314714
0.301422
0.28932
0.278265
0.268131
0.258813
0.250222
0.242243
0.234798
0.227833
0.221301
0.21516
0.209379
0.203927
0.19878
0.193919
0.189326
0.184987
0.18089
0.177025
0.173385
0.169967
0.166769
0.163797
0.161064
0.158593
0.156427
0.154699
0.1534
0.152792
0.153221
0.155308
0.16029
0.168483
0.179436
0.193081
0.209591
0.229333
0.252865
0.280958
0.314622
0.355147
0.404218
0.463867
0.536004
0.621602
0.719382
0.824205
0.926572
1.01524
1.08244
1.12728
1.15414
1.16896
1.17662
1.18041
1.18224
1.1831
1.1835
1.18368
1.18376
1.18379
1.18381
1.18382
1.18382
1.18382
1.18382
1.18382
1.18382
1.18382
1.18382
0.658527
0.658504
0.658466
0.658401
0.658293
0.658113
0.657817
0.657334
0.656556
0.655321
0.653391
0.650437
0.64602
0.639599
0.630569
0.618352
0.602539
0.583043
0.560214
0.534821
0.50792
0.480629
0.453925
0.428531
0.404883
0.383175
0.363424
0.345535
0.329355
0.314708
0.301417
0.289318
0.278264
0.268132
0.258815
0.250225
0.242247
0.234803
0.227839
0.221307
0.215168
0.209387
0.203935
0.19879
0.193929
0.189337
0.184998
0.180901
0.177036
0.173396
0.169977
0.166779
0.163807
0.161073
0.158601
0.156435
0.154705
0.153404
0.152792
0.153212
0.155284
0.160237
0.168407
0.179339
0.192963
0.20945
0.229165
0.252664
0.280717
0.314333
0.354799
0.403796
0.463357
0.535395
0.620895
0.718602
0.823412
0.925847
1.01465
1.08203
1.12702
1.15399
1.16888
1.17658
1.18039
1.18223
1.1831
1.1835
1.18368
1.18376
1.18379
1.18381
1.18382
1.18382
1.18382
1.18382
1.18382
1.18382
1.18382
1.18382
0.658527
0.658504
0.658466
0.658401
0.658293
0.658113
0.657816
0.657333
0.656554
0.655318
0.653386
0.650429
0.646009
0.639583
0.630546
0.618322
0.6025
0.582997
0.560162
0.534766
0.507864
0.480574
0.453875
0.428486
0.404844
0.383141
0.363396
0.345513
0.329338
0.314695
0.301408
0.289312
0.278262
0.268132
0.258818
0.25023
0.242255
0.234813
0.227851
0.221321
0.215183
0.209403
0.203953
0.198809
0.193949
0.189358
0.18502
0.180923
0.177058
0.173419
0.17
0.166801
0.163827
0.161092
0.158619
0.15645
0.154718
0.153414
0.152793
0.153195
0.155237
0.160133
0.168258
0.179148
0.192729
0.209167
0.228826
0.252259
0.28023
0.313745
0.354088
0.402931
0.462306
0.534134
0.619425
0.716972
0.821741
0.92431
1.01341
1.08115
1.12646
1.15367
1.16871
1.17649
1.18035
1.18221
1.18309
1.18349
1.18368
1.18376
1.18379
1.18381
1.18382
1.18382
1.18382
1.18382
1.18382
1.18382
1.18382
1.18382
0.658527
0.658504
0.658465
0.658401
0.658292
0.658112
0.657815
0.657331
0.656551
0.655313
0.653379
0.650418
0.645991
0.639557
0.630511
0.618274
0.602441
0.582926
0.560081
0.534679
0.507776
0.480489
0.453796
0.428415
0.404781
0.383088
0.363352
0.345477
0.329309
0.314673
0.301392
0.289302
0.278257
0.268131
0.258821
0.250237
0.242265
0.234827
0.227867
0.22134
0.215205
0.209428
0.20398
0.198837
0.19398
0.18939
0.185053
0.180957
0.177093
0.173453
0.170034
0.166835
0.163859
0.161121
0.158643
0.156467
0.154722
0.153446
0.152802
0.153174
0.155169
0.159981
0.168039
0.178867
0.192382
0.208747
0.22832
0.251651
0.279498
0.312861
0.353016
0.401625
0.460718
0.532224
0.617192
0.714488
0.819185
0.921951
1.0115
1.0798
1.12561
1.15319
1.16845
1.17636
1.18029
1.18218
1.18307
1.18349
1.18367
1.18376
1.18379
1.18381
1.18382
1.18382
1.18382
1.18382
1.18382
1.18382
1.18382
1.18382
0.658527
0.658504
0.658465
0.6584
0.658292
0.658111
0.657814
0.657329
0.656547
0.655306
0.653368
0.650401
0.645967
0.639522
0.630461
0.618209
0.602358
0.582826
0.559968
0.534559
0.507653
0.48037
0.453684
0.428314
0.404693
0.383013
0.363288
0.345424
0.329267
0.314641
0.301368
0.289285
0.278247
0.268128
0.258823
0.250244
0.242277
0.234843
0.227888
0.221365
0.215233
0.20946
0.204015
0.198875
0.19402
0.189432
0.185098
0.181003
0.177141
0.173502
0.170083
0.166883
0.163907
0.161166
0.158685
0.156504
0.154749
0.153463
0.152801
0.153139
0.155076
0.159783
0.167754
0.178497
0.191924
0.20819
0.227648
0.25084
0.278518
0.311675
0.351577
0.399869
0.458578
0.529647
0.614173
0.711123
0.815713
0.918735
1.00889
1.07794
1.12445
1.15252
1.1681
1.17619
1.18021
1.18214
1.18306
1.18348
1.18367
1.18376
1.18379
1.18381
1.18382
1.18382
1.18382
1.18382
1.18382
1.18382
1.18382
1.18382
0.658527
0.658504
0.658465
0.6584
0.658291
0.65811
0.657812
0.657326
0.656542
0.655298
0.653354
0.65038
0.645935
0.639476
0.630397
0.618123
0.602249
0.582696
0.55982
0.534399
0.507491
0.480211
0.453536
0.428179
0.404574
0.382909
0.363201
0.345351
0.329208
0.314594
0.301332
0.289259
0.27823
0.268119
0.258822
0.25025
0.242289
0.234862
0.227912
0.221394
0.215267
0.209498
0.204058
0.198922
0.194071
0.189486
0.185154
0.181062
0.177201
0.173564
0.170146
0.166946
0.163969
0.161226
0.158741
0.156554
0.154784
0.153484
0.152796
0.153094
0.15496
0.159536
0.167398
0.178036
0.19135
0.207491
0.226801
0.249817
0.277282
0.310176
0.349755
0.397644
0.455866
0.526377
0.610337
0.706836
0.811277
0.914613
1.00553
1.07556
1.12295
1.15167
1.16765
1.17596
1.1801
1.18209
1.18303
1.18347
1.18366
1.18375
1.18379
1.18381
1.18382
1.18382
1.18382
1.18382
1.18382
1.18382
1.18382
1.18382
0.658527
0.658504
0.658465
0.6584
0.65829
0.658109
0.657809
0.657321
0.656535
0.655287
0.653337
0.650354
0.645895
0.639418
0.630316
0.618015
0.602111
0.582529
0.55963
0.534195
0.507282
0.480007
0.453343
0.428003
0.404417
0.382773
0.363084
0.345253
0.329127
0.314528
0.301281
0.28922
0.278203
0.268102
0.258815
0.250252
0.242299
0.234879
0.227937
0.221426
0.215305
0.209542
0.204107
0.198977
0.19413
0.18955
0.185221
0.181133
0.177275
0.17364
0.170223
0.167023
0.164045
0.1613
0.15881
0.156616
0.154829
0.15351
0.152791
0.153038
0.154818
0.159237
0.166967
0.177476
0.190654
0.20664
0.22577
0.248571
0.275773
0.308347
0.347531
0.394928
0.452553
0.522381
0.605643
0.70158
0.805821
0.90952
1.00136
1.07258
1.12107
1.1506
1.16708
1.17568
1.17996
1.18203
1.183
1.18345
1.18366
1.18375
1.18379
1.18381
1.18382
1.18382
1.18382
1.18382
1.18382
1.18382
1.18382
1.18382
0.658527
0.658504
0.658465
0.658399
0.658289
0.658107
0.657806
0.657317
0.656527
0.655274
0.653316
0.650321
0.645846
0.639347
0.630216
0.61788
0.601939
0.582322
0.559393
0.533938
0.507017
0.479746
0.453097
0.427777
0.404215
0.382596
0.362931
0.345123
0.329018
0.314438
0.301208
0.289164
0.27816
0.268073
0.258798
0.250246
0.242304
0.234893
0.22796
0.221458
0.215345
0.20959
0.204162
0.199038
0.194197
0.189623
0.185299
0.181216
0.177361
0.173729
0.170314
0.167115
0.164137
0.161389
0.158894
0.15669
0.154883
0.153541
0.152785
0.152972
0.154649
0.15888
0.166452
0.176808
0.189823
0.205626
0.224541
0.247084
0.273974
0.306165
0.344879
0.391692
0.448606
0.517618
0.600041
0.695293
0.799268
0.903371
0.996287
1.06894
1.11876
1.14927
1.16638
1.17533
1.17979
1.18195
1.18297
1.18344
1.18365
1.18375
1.18379
1.18381
1.18382
1.18382
1.18382
1.18382
1.18382
1.18382
1.18382
1.18382
0.658527
0.658504
0.658464
0.658398
0.658288
0.658105
0.657803
0.657311
0.656517
0.655258
0.653291
0.650282
0.645787
0.63926
0.630094
0.617717
0.60173
0.582068
0.559102
0.533622
0.506691
0.479424
0.452791
0.427494
0.403959
0.382369
0.362733
0.344953
0.328873
0.314317
0.301108
0.289084
0.278098
0.268027
0.258767
0.250228
0.242299
0.234901
0.227979
0.221487
0.215385
0.209639
0.20422
0.199104
0.194272
0.189704
0.185387
0.181309
0.177459
0.173831
0.170419
0.167221
0.164243
0.161492
0.158991
0.156777
0.154946
0.153577
0.152778
0.152893
0.15445
0.158461
0.165848
0.176025
0.188848
0.204435
0.223098
0.24534
0.271864
0.303608
0.341773
0.387905
0.443989
0.512045
0.593478
0.687905
0.791533
0.896066
0.99022
1.06455
1.11596
1.14766
1.16552
1.1749
1.17958
1.18185
1.18292
1.18342
1.18364
1.18374
1.18379
1.18381
1.18382
1.18382
1.18382
1.18382
1.18382
1.18382
1.18382
1.18382
0.658527
0.658503
0.658464
0.658398
0.658287
0.658102
0.657799
0.657304
0.656506
0.655239
0.653261
0.650236
0.645717
0.639157
0.629949
0.617521
0.601478
0.581761
0.558748
0.533236
0.50629
0.479026
0.452409
0.42714
0.403638
0.382082
0.362481
0.344734
0.328685
0.314157
0.300974
0.288972
0.278008
0.267957
0.258715
0.250194
0.24228
0.234896
0.227988
0.221509
0.21542
0.209686
0.204278
0.199173
0.19435
0.189791
0.185483
0.181412
0.177569
0.173945
0.170537
0.167342
0.164363
0.16161
0.159103
0.156877
0.15502
0.15362
0.15277
0.152803
0.154219
0.157975
0.165149
0.175118
0.18772
0.203057
0.221429
0.243322
0.269424
0.300652
0.338186
0.383535
0.438665
0.505617
0.585898
0.679347
0.782524
0.887495
0.98304
1.05931
1.1126
1.14572
1.16449
1.17438
1.17933
1.18173
1.18287
1.18339
1.18363
1.18374
1.18379
1.18381
1.18382
1.18382
1.18382
1.18382
1.18382
1.18382
1.18382
1.18382
0.658527
0.658503
0.658464
0.658397
0.658285
0.6581
0.657794
0.657296
0.656493
0.655218
0.653227
0.650182
0.645635
0.639036
0.629778
0.617289
0.601179
0.581395
0.558325
0.532771
0.505805
0.478541
0.451941
0.426703
0.403238
0.381723
0.362162
0.344454
0.328441
0.313947
0.300795
0.288822
0.277883
0.267856
0.258636
0.250135
0.24224
0.234875
0.227983
0.22152
0.215446
0.209727
0.204333
0.199241
0.19443
0.189883
0.185584
0.181523
0.177688
0.174071
0.170668
0.167477
0.164499
0.161744
0.15923
0.156991
0.155106
0.153671
0.152764
0.152703
0.153959
0.157425
0.164353
0.174084
0.186431
0.201482
0.219521
0.241016
0.266638
0.297278
0.334094
0.378557
0.432603
0.498296
0.577251
0.66955
0.772151
0.877543
0.974622
1.05311
1.10859
1.1434
1.16324
1.17376
1.17903
1.18159
1.1828
1.18336
1.18362
1.18373
1.18378
1.18381
1.18381
1.18382
1.18382
1.18382
1.18382
1.18382
1.18382
1.18382
0.658527
0.658503
0.658463
0.658396
0.658283
0.658097
0.657789
0.657287
0.656478
0.655193
0.653188
0.65012
0.645541
0.638897
0.629579
0.617018
0.600827
0.580963
0.557822
0.532218
0.505225
0.477959
0.451378
0.426174
0.40275
0.381279
0.361765
0.344101
0.328131
0.313676
0.30056
0.28862
0.277713
0.267714
0.258521
0.250045
0.242173
0.234829
0.227958
0.221514
0.215458
0.209756
0.204379
0.199303
0.194507
0.189974
0.185689
0.181639
0.177814
0.174207
0.170811
0.167624
0.164649
0.161892
0.159372
0.157121
0.155206
0.153734
0.152766
0.152604
0.153686
0.156839
0.163479
0.172932
0.184987
0.19971
0.21737
0.238415
0.263494
0.293473
0.329482
0.372954
0.425783
0.490056
0.567502
0.658462
0.760335
0.8661
0.964835
1.04582
1.10384
1.14062
1.16176
1.17301
1.17867
1.18142
1.18273
1.18333
1.1836
1.18373
1.18378
1.1838
1.18381
1.18382
1.18382
1.18382
1.18382
1.18382
1.18382
1.18382
0.658527
0.658503
0.658462
0.658395
0.658282
0.658093
0.657783
0.657277
0.656461
0.655166
0.653144
0.650051
0.645434
0.638738
0.629351
0.616706
0.60042
0.58046
0.557233
0.531564
0.504535
0.477261
0.450696
0.425524
0.402149
0.380732
0.361271
0.34366
0.327739
0.31333
0.300257
0.288357
0.277486
0.267521
0.25836
0.249913
0.242068
0.234749
0.227903
0.221483
0.215449
0.209768
0.204412
0.199355
0.194577
0.190061
0.185791
0.181756
0.177944
0.174348
0.170962
0.167782
0.164811
0.162055
0.15953
0.157266
0.155324
0.153815
0.152786
0.152523
0.153437
0.156287
0.162564
0.171684
0.183399
0.197749
0.21498
0.23552
0.259992
0.289236
0.324347
0.36672
0.4182
0.48089
0.556636
0.646052
0.747015
0.853071
0.953557
1.03733
1.09825
1.13735
1.16
1.17213
1.17824
1.18122
1.18263
1.18329
1.18359
1.18372
1.18378
1.1838
1.18381
1.18382
1.18382
1.18382
1.18382
1.18382
1.18382
1.18382
0.658527
0.658503
0.658462
0.658394
0.65828
0.65809
0.657777
0.657267
0.656444
0.655137
0.653096
0.649974
0.645315
0.63856
0.629095
0.616351
0.599954
0.579879
0.556549
0.530801
0.503724
0.476436
0.449887
0.424753
0.401431
0.380069
0.360667
0.343114
0.32725
0.312894
0.299871
0.288017
0.277188
0.267264
0.25814
0.249728
0.241915
0.234628
0.227811
0.221419
0.215412
0.209756
0.204423
0.199389
0.194633
0.190138
0.185888
0.18187
0.178074
0.174492
0.171118
0.167948
0.164983
0.162229
0.159701
0.157428
0.155459
0.153916
0.15283
0.152473
0.153232
0.155816
0.161635
0.170358
0.18168
0.195609
0.212363
0.232344
0.256147
0.284581
0.318707
0.359878