/*--------------------------------*- C++ -*----------------------------------*\
  =========                 |
  \\      /  F ield         | OpenFOAM: The Open Source CFD Toolbox
   \\    /   O peration     | Website:  https://openfoam.org
    \\  /    A nd           | Version:  8
     \\/     M anipulation  |
\*---------------------------------------------------------------------------*/
FoamFile
{
    version     2.0;
    format      ascii;
    class       volScalarField;
    location    "0.25/fluid";
    object      T;
}
// * * * * * * * * * * * * * * * * * * * * * * * * * * * * * * * * * * * * * //

dimensions      [0 0 0 1 0 0 0];

internalField   nonuniform List<scalar> 
4000
(
293.004
293.016
293.036
293.07
293.128
293.224
293.382
293.642
294.063
294.739
295.807
297.468
300.001
303.774
309.249
316.958
327.455
341.24
358.675
379.922
404.926
433.442
465.11
499.523
536.288
575.061
615.562
657.572
700.949
745.584
791.336
838.117
885.835
934.388
983.657
1033.56
1084.13
1135.28
1186.92
1238.94
1291.25
1343.73
1396.29
1448.8
1501.17
1553.28
1605.01
1656.24
1706.87
1756.77
1805.81
1853.84
1900.69
1946.12
1989.85
2031.44
2070.26
2104.99
2134.02
2156.32
2167.26
2160.67
2126.21
2050.83
1950.71
1835.88
1712.68
1585.28
1456.45
1328.12
1201.77
1078.62
959.797
846.254
739.154
640.137
551.411
475.29
413.673
367.395
335.61
315.77
304.458
298.503
295.564
294.167
293.521
293.229
293.099
293.042
293.018
293.008
293.003
293.001
293.001
293
293
293
293
293
293.004
293.016
293.036
293.071
293.128
293.224
293.383
293.643
294.064
294.74
295.805
297.456
299.967
303.696
309.095
316.68
326.994
340.534
357.669
378.578
403.23
431.409
462.773
496.927
533.486
572.108
612.51
654.488
697.878
742.493
788.267
835.105
882.91
931.577
980.984
1031.04
1081.77
1133.1
1184.94
1237.17
1289.69
1342.39
1395.18
1447.92
1500.52
1552.86
1604.82
1656.29
1707.14
1757.26
1806.5
1854.72
1901.74
1947.33
1991.18
2032.84
2071.65
2106.16
2134.88
2156.59
2166.48
2158.06
2120.47
2042.76
1940.91
1824.73
1700.43
1572.09
1442.44
1313.41
1186.46
1062.84
943.737
830.12
723.293
625.096
537.832
463.794
404.734
361.145
331.739
313.652
303.424
298.039
295.368
294.087
293.49
293.217
293.095
293.041
293.017
293.007
293.003
293.001
293.001
293
293
293
293
293
293.004
293.016
293.036
293.071
293.128
293.225
293.384
293.645
294.067
294.742
295.806
297.452
299.949
303.65
308.995
316.492
326.672
340.023
356.913
377.529
401.853
429.689
460.715
494.551
530.824
569.199
609.404
651.235
694.464
738.998
784.73
831.563
879.403
928.142
977.66
1027.85
1078.75
1130.28
1182.33
1234.81
1287.61
1340.6
1393.7
1446.77
1499.7
1552.38
1604.69
1656.51
1707.71
1758.16
1807.73
1856.26
1903.57
1949.4
1993.44
2035.21
2074.01
2108.13
2136.34
2157.06
2165.17
2153.7
2110.86
2029.51
1925.04
1806.9
1681.13
1551.67
1421.2
1291.62
1164.41
1040.86
922.186
809.399
703.947
607.765
523.145
452.217
396.389
355.72
328.574
311.982
302.614
297.667
295.203
294.016
293.46
293.204
293.09
293.039
293.017
293.007
293.003
293.001
293.001
293
293
293
293
293
293.004
293.016
293.036
293.071
293.128
293.224
293.383
293.642
294.062
294.733
295.787
297.417
299.886
303.542
308.817
316.213
326.252
339.421
356.089
376.451
400.503
428.059
458.81
492.388
528.425
566.59
606.627
648.27
691.378
735.821
781.493
828.3
876.147
924.932
974.532
1024.84
1075.88
1127.59
1179.86
1232.58
1285.65
1338.95
1392.36
1445.78
1499.08
1552.15
1604.84
1657.05
1708.64
1759.48
1809.43
1858.31
1905.94
1952.05
1996.3
2038.18
2076.94
2110.56
2138.19
2157.7
2163.65
2148.46
2099.28
2013.65
1906.2
1785.96
1658.7
1528.24
1397.15
1267.33
1140.24
1017.19
899.392
787.881
684.199
590.34
508.532
440.725
388.037
350.178
325.231
310.139
301.674
297.217
294.996
293.924
293.419
293.187
293.082
293.036
293.015
293.007
293.003
293.001
293
293
293
293
293
293
293.004
293.016
293.036
293.07
293.128
293.223
293.381
293.639
294.056
294.721
295.766
297.381
299.825
303.441
308.656
315.964
325.885
338.9
355.381
375.53
399.352
426.672
457.192
490.553
526.389
564.379
604.239
645.754
688.757
733.119
778.737
825.518
873.371
922.192
971.864
1022.27
1073.44
1125.32
1177.78
1230.74
1284.07
1337.66
1391.39
1445.15
1498.82
1552.26
1605.34
1657.94
1709.93
1761.16
1811.48
1860.71
1908.65
1955.02
1999.44
2041.36
2079.97
2113
2140.56
2158.6
2162.14
2142.94
2087.03
1996.97
1886.52
1764.23
1635.62
1504.32
1372.83
1243
1116.28
993.986
877.278
767.253
665.51
574.079
495.104
430.344
380.631
345.355
322.368
308.578
300.881
296.835
294.818
293.843
293.384
293.172
293.076
293.033
293.014
293.006
293.003
293.001
293
293
293
293
293
293
293.004
293.016
293.036
293.07
293.127
293.222
293.378
293.634
294.047
294.706
295.741
297.338
299.755
303.331
308.488
315.715
325.527
338.408
354.73
374.701
398.335
425.466
455.804
488.993
524.675
562.532
602.267
643.678
686.598
730.9
776.479
823.246
871.111
919.972
969.714
1020.22
1071.52
1123.54
1176.19
1229.36
1282.94
1336.8
1390.84
1444.92
1498.92
1552.71
1606.16
1659.13
1711.49
1763.09
1813.76
1863.32
1911.55
1958.16
2002.73
2044.69
2083.17
2115.81
2142.66
2159.36
2160.57
2137.45
2074.97
1980.63
1867.34
1743.17
1613.37
1481.41
1349.69
1220
1093.78
972.347
856.785
748.277
648.444
559.339
483.014
421.05
374.021
341.045
319.794
307.158
300.148
296.477
294.65
293.766
293.349
293.156
293.069
293.03
293.013
293.006
293.002
293.001
293
293
293
293
293
293
293.004
293.015
293.036
293.069
293.126
293.22
293.375
293.628
294.038
294.691
295.716
297.298
299.69
303.23
308.335
315.49
325.209
337.973
354.16
373.983
397.46
424.437
454.626
487.68
523.246
560.984
600.631
641.97
684.836
729.1
774.661
821.43
869.318
918.227
968.042
1018.64
1070.06
1122.23
1175.06
1228.43
1282.23
1336.35
1390.66
1445.03
1499.34
1553.45
1607.23
1660.55
1713.24
1765.17
1816.16
1866.02
1914.51
1961.32
2006.03
2048.01
2086.26
2118.5
2144.61
2159.98
2158.96
2132.11
2063.52
1965.24
1849.37
1723.55
1592.74
1460.26
1328.42
1198.96
1073.3
952.72
838.272
731.207
633.175
546.232
472.339
412.909
368.283
337.337
317.596
305.95
299.525
296.173
294.506
293.7
293.319
293.143
293.063
293.028
293.012
293.005
293.002
293.001
293
293
293
293
293
293
293.004
293.015
293.035
293.069
293.125
293.218
293.372
293.623
294.029
294.676
295.692
297.259
299.629
303.136
308.194
315.286
324.924
337.59
353.663
373.361
396.712
423.563
453.634
486.58
522.047
559.709
599.294
640.585
683.417
727.662
773.221
820.004
867.926
916.889
966.78
1017.48
1069.01
1121.32
1174.31
1227.87
1281.88
1336.22
1390.77
1445.41
1500
1554.4
1608.48
1662.09
1715.09
1767.31
1818.58
1868.69
1917.4
1964.38
2009.18
2051.14
2089.11
2120.94
2146.27
2160.33
2157.13
2126.7
2052.7
1950.97
1832.89
1705.68
1574.05
1441.19
1309.31
1180.12
1055.01
935.247
821.841
716.098
619.718
534.736
463.028
405.851
363.337
334.155
315.712
304.915
298.989
295.91
294.38
293.641
293.293
293.131
293.058
293.025
293.011
293.005
293.002
293.001
293
293
293
293
293
293
293.003
293.015
293.035
293.068
293.124
293.217
293.369
293.618
294.021
294.663
295.67
297.223
299.574
303.052
308.069
315.107
324.676
337.258
353.236
372.832
396.078
422.829
452.809
485.676
521.071
558.675
598.215
639.474
682.287
726.528
772.095
818.903
866.865
915.886
965.853
1016.65
1068.29
1120.73
1173.87
1227.6
1281.79
1336.34
1391.11
1445.98
1500.81
1555.47
1609.81
1663.69
1716.95
1769.42
1820.92
1871.25
1920.14
1967.24
2012.1
2054.01
2091.64
2123
2147.51
2160.15
2154.56
2120.12
2042.07
1937.7
1817.9
1689.6
1557.35
1424.22
1292.38
1163.47
1038.89
919.877
807.416
702.869
607.975
524.746
454.976
399.785
359.114
331.455
314.122
304.042
298.538
295.688
294.274
293.592
293.27
293.121
293.054
293.023
293.01
293.004
293.002
293.001
293
293
293
293
293
293
293.003
293.015
293.035
293.068
293.123
293.215
293.367
293.614
294.014
294.65
295.65
297.192
299.525
302.978
307.96
314.951
324.461
336.973
352.872
372.384
395.545
422.215
452.121
484.924
520.269
557.834
597.346
638.588
681.396
725.642
771.227
818.065
866.071
915.151
965.193
1016.08
1067.82
1120.39
1173.66
1227.54
1281.9
1336.63
1391.6
1446.67
1501.72
1556.6
1611.17
1665.27
1718.75
1771.43
1823.14
1873.64
1922.67
1969.87
2014.74
2056.57
2093.83
2124.72
2148.38
2159.58
2151.57
2113.04
2031.97
1925.59
1804.47
1675.34
1542.62
1409.32
1277.54
1148.92
1024.83
906.483
794.867
691.386
597.811
516.13
448.065
394.605
355.529
329.174
312.782
303.308
298.158
295.501
294.185
293.55
293.251
293.113
293.05
293.022
293.009
293.004
293.002
293.001
293
293
293
293
293
293
293.003
293.015
293.035
293.067
293.122
293.214
293.364
293.61
294.007
294.639
295.632
297.164
299.482
302.914
307.866
314.818
324.279
336.732
352.566
372.009
395.102
421.709
451.559
484.314
519.622
557.159
596.654
637.889
680.699
724.957
770.565
817.438
865.49
914.628
964.741
1015.71
1067.55
1120.22
1173.62
1227.64
1282.15
1337.03
1392.17
1447.43
1502.66
1557.73
1612.49
1666.78
1720.45
1773.31
1825.18
1875.83
1924.97
1972.24
2017.12
2058.85
2095.73
2126.17
2149.04
2158.9
2148.66
2106.38
2022.84
1914.84
1792.65
1662.86
1529.79
1396.36
1264.67
1136.31
1012.67
894.908
784.038
681.494
589.076
508.75
442.168
390.208
352.502
327.258
311.661
302.696
297.841
295.344
294.11
293.516
293.235
293.106
293.047
293.02
293.009
293.004
293.002
293.001
293
293
293
293
293
293
293.003
293.015
293.034
293.067
293.122
293.212
293.362
293.607
294.001
294.63
295.617
297.141
299.446
302.859
307.787
314.706
324.126
336.531
352.311
371.698
394.737
421.294
451.102
483.821
519.102
556.621
596.107
637.342
680.16
724.435
770.069
816.976
865.073
914.267
964.445
1015.49
1067.42
1120.19
1173.7
1227.83
1282.47
1337.5
1392.78
1448.19
1503.58
1558.82
1613.74
1668.19
1722.01
1775.03
1827.03
1877.79
1927.02
1974.34
2019.21
2060.85
2097.38
2127.42
2149.58
2158.27
2146.07
2100.51
2014.88
1905.49
1782.42
1652.08
1518.72
1385.21
1253.6
1125.49
1002.24
884.987
774.768
673.039
581.627
502.473
437.172
386.499
349.96
325.656
310.727
302.186
297.578
295.215
294.048
293.486
293.222
293.1
293.044
293.019
293.008
293.004
293.002
293.001
293
293
293
293
293
293
293.003
293.015
293.034
293.067
293.121
293.211
293.36
293.604
293.996
294.622
295.605
297.121
299.416
302.813
307.721
314.613
323.999
336.365
352.101
371.444
394.439
420.956
450.731
483.424
518.687
556.196
595.679
636.918
679.747
724.041
769.701
816.643
864.782
914.027
964.266
1015.38
1067.39
1120.24
1173.85
1228.08
1282.83
1337.98
1393.39
1448.93
1504.46
1559.82
1614.88
1669.47
1723.42
1776.56
1828.67
1879.53
1928.83
1976.18
2021.04
2062.59
2098.8
2128.48
2150.04
2157.71
2143.84
2095.48
2008.04
1897.49
1773.67
1642.88
1509.29
1375.72
1244.19
1116.3
993.376
876.564
766.905
665.877
575.328
497.179
432.971
383.393
347.841
324.325
309.954
301.765
297.361
295.107
293.997
293.462
293.211
293.095
293.042
293.018
293.008
293.003
293.001
293.001
293
293
293
293
293
293
293.003
293.015
293.034
293.066
293.121
293.211
293.359
293.601
293.992
294.616
295.594
297.104
299.39
302.776
307.666
314.536
323.895
336.229
351.931
371.238
394.199
420.687
450.436
483.111
518.361
555.865
595.348
636.593
679.436
723.749
769.434
816.408
864.586
913.877
964.169
1015.34
1067.42
1120.35
1174.03
1228.36
1283.2
1338.45
1393.97
1449.61
1505.25
1560.73
1615.9
1670.6
1724.66
1777.89
1830.1
1881.03
1930.38
1977.76
2022.61
2064.08
2100.01
2129.39
2150.42
2157.23
2141.94
2091.21
2002.26
1890.73
1766.29
1635.13
1501.35
1367.73
1236.28
1108.57
985.935
869.493
760.309
659.876
570.059
492.76
429.475
380.817
346.09
323.23
309.319
301.42
297.182
295.02
293.955
293.443
293.202
293.091
293.04
293.018
293.008
293.003
293.001
293.001
293
293
293
293
293
293
293.003
293.015
293.034
293.066
293.12
293.21
293.358
293.599
293.989
294.61
295.585
297.091
299.37
302.745
307.621
314.474
323.811
336.12
351.794
371.073
394.009
420.473
450.204
482.865
518.108
555.609
595.095
636.349
679.204
723.535
769.244
816.246
864.458
913.789
964.127
1015.35
1067.48
1120.48
1174.23
1228.63
1283.56
1338.89
1394.49
1450.22
1505.95
1561.53
1616.79
1671.57
1725.71
1779.03
1831.3
1882.29
1931.69
1979.09
2023.91
2065.32
2101
2130.13
2150.74
2156.83
2140.36
2087.64
1997.43
1885.09
1760.14
1628.67
1494.75
1361.1
1229.72
1102.17
979.777
863.645
754.86
654.924
565.717
489.126
426.607
378.709
344.662
322.339
308.804
301.14
297.038
294.949
293.92
293.427
293.195
293.087
293.039
293.017
293.007
293.003
293.001
293.001
293
293
293
293
293
293
293.003
293.015
293.034
293.066
293.12
293.209
293.357
293.598
293.986
294.606
295.579
297.08
299.353
302.721
307.586
314.425
323.745
336.034
351.687
370.945
393.861
420.308
450.025
482.677
517.915
555.416
594.906
636.167
679.035
723.382
769.111
816.138
864.379
913.744
964.119
1015.39
1067.56
1120.61
1174.42
1228.88
1283.87
1339.27
1394.94
1450.75
1506.55
1562.19
1617.52
1672.38
1726.58
1779.96
1832.28
1883.31
1932.74
1980.15
2024.96
2066.32
2101.81
2130.75
2151
2156.51
2139.06
2084.7
1993.46
1880.46
1755.1
1623.41
1489.37
1355.71
1224.4
1096.98
974.792
858.914
750.456
650.927
562.217
486.201
424.303
377.021
343.521
321.629
308.394
300.918
296.924
294.892
293.893
293.414
293.189
293.085
293.038
293.016
293.007
293.003
293.001
293.001
293
293
293
293
293
293
293.003
293.015
293.034
293.066
293.12
293.209
293.356
293.596
293.984
294.603
295.573
297.072
299.341
302.702
307.56
314.387
323.695
335.969
351.606
370.848
393.749
420.184
449.891
482.538
517.773
555.274
594.768
636.037
678.915
723.275
769.021
816.068
864.333
913.725
964.131
1015.43
1067.65
1120.74
1174.59
1229.1
1284.14
1339.58
1395.31
1451.17
1507.03
1562.72
1618.11
1673.01
1727.27
1780.68
1833.04
1884.1
1933.54
1980.95
2025.74
2067.05
2102.41
2131.27
2151.26
2156.29
2138.03
2082.34
1990.27
1876.76
1751.09
1619.23
1485.12
1351.46
1220.21
1092.91
970.887
855.214
747.018
647.811
559.494
483.93
422.517
375.714
342.638
321.08
308.077
300.746
296.835
294.848
293.872
293.404
293.184
293.083
293.037
293.016
293.007
293.003
293.001
293.001
293
293
293
293
293
293
293.003
293.015
293.034
293.066
293.119
293.209
293.356
293.595
293.983
294.6
295.569
297.066
299.332
302.689
307.54
314.36
323.659
335.922
351.548
370.779
393.67
420.095
449.797
482.439
517.673
555.175
594.673
635.947
678.833
723.204
768.963
816.025
864.309
913.72
964.149
1015.47
1067.72
1120.84
1174.72
1229.26
1284.34
1339.83
1395.59
1451.49
1507.38
1563.12
1618.54
1673.48
1727.76
1781.2
1833.58
1884.64
1934.08
1981.46
2026.18
2067.38
2102.51
2132.05
2151.68
2156.24
2137.31
2080.54
1987.84
1873.95
1748.07
1616.09
1481.94
1348.29
1217.1
1089.89
967.999
852.483
744.485
645.521
557.495
482.266
421.212
374.76
341.995
320.679
307.845
300.62
296.77
294.816
293.857
293.397
293.181
293.081
293.036
293.016
293.007
293.003
293.001
293.001
293
293
293
293
293
293
293.003
293.015
293.034
293.066
293.119
293.208
293.355
293.595
293.982
294.599
295.567
297.062
299.326
302.68
307.528
314.343
323.635
335.892
351.511
370.735
393.619
420.039
449.736
482.376
517.61
555.113
594.613
635.892
678.783
723.162
768.929
816.001
864.296
913.722
964.166
1015.51
1067.77
1120.91
1174.82
1229.38
1284.48
1339.99
1395.78
1451.7
1507.62
1563.38
1618.83
1673.79
1728.09
1781.54
1833.93
1885
1934.43
1981.81
2026.52
2067.7
2102.8
2132.34
2151.83
2156.15
2136.79
2079.33
1986.21
1872.07
1746.04
1613.99
1479.82
1346.19
1215.03
1087.89
966.092
850.684
742.82
644.017
556.187
481.181
420.363
374.142
341.579
320.42
307.694
300.538
296.728
294.795
293.847
293.392
293.179
293.08
293.036
293.016
293.007
293.003
293.001
293.001
293
293
293
293
293
293
293.003
293.015
293.034
293.066
293.119
293.208
293.355
293.595
293.981
294.598
295.566
297.06
299.323
302.676
307.522
314.335
323.624
335.878
351.493
370.714
393.595
420.013
449.708
482.347
517.58
555.084
594.585
635.866
678.76
723.142
768.913
815.991
864.292
913.723
964.175
1015.52
1067.8
1120.95
1174.86
1229.44
1284.55
1340.07
1395.87
1451.81
1507.74
1563.51
1618.97
1673.94
1728.25
1781.71
1834.11
1885.18
1934.62
1981.99
2026.7
2067.87
2102.96
2132.46
2151.89
2156.09
2136.53
2078.73
1985.4
1871.14
1745.04
1612.95
1478.77
1345.15
1214.02
1086.91
965.16
849.807
742.012
643.292
555.56
480.663
419.961
373.85
341.384
320.298
307.624
300.499
296.708
294.786
293.842
293.39
293.178
293.08
293.035
293.015
293.007
293.003
293.001
293.001
293
293
293
293
293
293
293.003
293.015
293.034
293.066
293.119
293.208
293.355
293.595
293.981
294.598
295.566
297.06
299.323
302.676
307.522
314.335
323.624
335.878
351.493
370.714
393.595
420.013
449.708
482.347
517.58
555.083
594.585
635.865
678.76
723.142
768.913
815.991
864.292
913.723
964.175
1015.52
1067.8
1120.95
1174.86
1229.44
1284.55
1340.07
1395.87
1451.81
1507.74
1563.51
1618.97
1673.94
1728.25
1781.71
1834.11
1885.18
1934.62
1981.99
2026.7
2067.87
2102.96
2132.46
2151.89
2156.09
2136.53
2078.74
1985.41
1871.15
1745.04
1612.96
1478.77
1345.15
1214.02
1086.91
965.159
849.806
742.011
643.291
555.559
480.662
419.96
373.85
341.384
320.298
307.624
300.499
296.708
294.786
293.842
293.39
293.178
293.08
293.035
293.015
293.007
293.003
293.001
293.001
293
293
293
293
293
293
293.003
293.015
293.034
293.066
293.119
293.208
293.355
293.595
293.982
294.599
295.567
297.062
299.326
302.68
307.528
314.343
323.635
335.892
351.511
370.735
393.619
420.039
449.736
482.376
517.609
555.113
594.612
635.891
678.783
723.161
768.929
816.001
864.296
913.721
964.165
1015.51
1067.77
1120.91
1174.82
1229.38
1284.48
1339.99
1395.78
1451.7
1507.62
1563.38
1618.83
1673.79
1728.09
1781.55
1833.94
1885.01
1934.45
1981.82
2026.54
2067.71
2102.81
2132.33
2151.82
2156.14
2136.8
2079.36
1986.24
1872.1
1746.06
1614
1479.82
1346.19
1215.03
1087.89
966.09
850.681
742.817
644.016
556.186
481.18
420.362
374.141
341.578
320.42
307.694
300.538
296.728
294.795
293.847
293.392
293.179
293.08
293.036
293.016
293.007
293.003
293.001
293.001
293
293
293
293
293
293
293.003
293.015
293.034
293.066
293.119
293.209
293.356
293.595
293.983
294.6
295.569
297.066
299.332
302.689
307.54
314.36
323.659
335.922
351.548
370.779
393.669
420.095
449.796
482.439
517.673
555.175
594.672
635.947
678.833
723.204
768.963
816.025
864.308
913.719
964.148
1015.47
1067.72
1120.84
1174.72
1229.26
1284.34
1339.82
1395.59
1451.49
1507.38
1563.12
1618.54
1673.48
1727.77
1781.21
1833.59
1884.66
1934.1
1981.48
2026.21
2067.4
2102.52
2132.04
2151.66
2156.22
2137.31
2080.58
1987.88
1873.99
1748.09
1616.1
1481.94
1348.29
1217.09
1089.89
967.995
852.479
744.482
645.517
557.493
482.265
421.211
374.759
341.995
320.679
307.845
300.62
296.77
294.816
293.857
293.397
293.181
293.081
293.036
293.016
293.007
293.003
293.001
293.001
293
293
293
293
293
293
293.003
293.015
293.034
293.066
293.12
293.209
293.356
293.596
293.984
294.603
295.573
297.072
299.341
302.702
307.56
314.387
323.695
335.969
351.606
370.848
393.749
420.183
449.891
482.537
517.772
555.274
594.767
636.036
678.914
723.274
769.02
816.067
864.332
913.724
964.13
1015.43
1067.65
1120.73
1174.59
1229.09
1284.13
1339.58
1395.31
1451.17
1507.02
1562.72
1618.11
1673.01
1727.27
1780.68
1833.05
1884.11
1933.56
1980.97
2025.76
2067.07
2102.41
2131.25
2151.24
2156.28
2138.03
2082.36
1990.3
1876.79
1751.11
1619.23
1485.12
1351.46
1220.2
1092.9
970.881
855.208
747.013
647.807
559.491
483.927
422.516
375.713
342.638
321.08
308.077
300.746
296.835
294.848
293.872
293.404
293.184
293.083
293.037
293.016
293.007
293.003
293.001
293.001
293
293
293
293
293
293
293.003
293.015
293.034
293.066
293.12
293.209
293.357
293.598
293.986
294.606
295.579
297.08
299.353
302.721
307.586
314.425
323.745
336.034
351.687
370.945
393.86
420.307
450.024
482.677
517.915
555.415
594.905
636.166
679.033
723.381
769.11
816.136
864.378
913.742
964.118
1015.38
1067.56
1120.61
1174.42
1228.88
1283.87
1339.27
1394.94
1450.74
1506.55
1562.19
1617.52
1672.38
1726.58
1779.96
1832.28
1883.32
1932.75
1980.16
2024.97
2066.32
2101.8
2130.74
2150.99
2156.5
2139.05
2084.71
1993.46
1880.47
1755.1
1623.4
1489.36
1355.7
1224.39
1096.97
974.784
858.907
750.451
650.923
562.213
486.199
424.301
377.019
343.52
321.629
308.394
300.918
296.924
294.892
293.893
293.414
293.189
293.085
293.038
293.016
293.007
293.003
293.001
293.001
293
293
293
293
293
293
293.003
293.015
293.034
293.066
293.12
293.21
293.358
293.599
293.989
294.61
295.585
297.091
299.37
302.745
307.621
314.474
323.811
336.12
351.794
371.073
394.008
420.472
450.203
482.865
518.107
555.608
595.094
636.347
679.202
723.533
769.242
816.244
864.457
913.787
964.125
1015.35
1067.48
1120.48
1174.23
1228.63
1283.55
1338.88
1394.49
1450.22
1505.95
1561.52
1616.78
1671.57
1725.71
1779.02
1831.3
1882.29
1931.69
1979.09
2023.91
2065.32
2101
2130.13
2150.73
2156.83
2140.35
2087.63
1997.42
1885.08
1760.13
1628.67
1494.74
1361.09
1229.71
1102.16
979.769
863.638
754.854
654.919
565.713
489.123
426.605
378.708
344.662
322.339
308.804
301.14
297.038
294.949
293.92
293.427
293.195
293.087
293.039
293.017
293.007
293.003
293.001
293.001
293
293
293
293
293
293
293.003
293.015
293.034
293.066
293.121
293.211
293.359
293.601
293.992
294.616
295.594
297.104
299.39
302.776
307.666
314.536
323.895
336.229
351.93
371.237
394.199
420.686
450.435
483.11
518.36
555.863
595.346
636.592
679.434
723.747
769.432
816.406
864.584
913.875
964.167
1015.34
1067.41
1120.35
1174.03
1228.35
1283.2
1338.45
1393.96
1449.61
1505.25
1560.73
1615.9
1670.6
1724.66
1777.89
1830.09
1881.02
1930.38
1977.76
2022.6
2064.08
2100
2129.38
2150.41
2157.23
2141.94
2091.2
2002.25
1890.72
1766.28
1635.12
1501.34
1367.72
1236.27
1108.56
985.926
869.485
760.303
659.871
570.054
492.757
429.473
380.815
346.089
323.229
309.319
301.42
297.182
295.02
293.955
293.443
293.202
293.091
293.04
293.018
293.008
293.003
293.001
293.001
293
293
293
293
293
293
293.003
293.015
293.034
293.067
293.121
293.211
293.36
293.604
293.996
294.622
295.605
297.121
299.416
302.813
307.721
314.613
323.999
336.364
352.101
371.443
394.439
420.956
450.73
483.423
518.686
556.195
595.677
636.916
679.745
724.039
769.699
816.64
864.78
914.025
964.263
1015.38
1067.38
1120.24
1173.84
1228.08
1282.83
1337.98
1393.39
1448.93
1504.45
1559.82
1614.88
1669.47
1723.42
1776.55
1828.67
1879.52
1928.82
1976.18
2021.04
2062.59
2098.8
2128.48
2150.03
2157.7
2143.83
2095.47
2008.03
1897.48
1773.66
1642.87
1509.28
1375.71
1244.18
1116.29
993.367
876.556
766.897
665.871
575.322
497.175
432.968
383.391
347.84
324.324
309.953
301.765
297.36
295.107
293.997
293.462
293.211
293.095
293.042
293.018
293.008
293.003
293.001
293.001
293
293
293
293
293
293
293.003
293.015
293.034
293.067
293.122
293.212
293.362
293.607
294.001
294.63
295.617
297.141
299.446
302.859
307.787
314.706
324.126
336.531
352.311
371.698
394.736
421.293
451.101
483.82
519.1
556.62
596.105
637.339
680.157
724.432
770.066
816.973
865.07
914.264
964.443
1015.49
1067.42
1120.19
1173.7
1227.83
1282.47
1337.49
1392.78
1448.19
1503.58
1558.81
1613.73
1668.19
1722.01
1775.02
1827.03
1877.79
1927.02
1974.34
2019.21
2060.85
2097.38
2127.41
2149.58
2158.26
2146.07
2100.5
2014.86
1905.48
1782.4
1652.07
1518.71
1385.2
1253.59
1125.48
1002.23
884.978
774.76
673.032
581.621
502.468
437.168
386.496
349.959
325.655
310.727
302.186
297.578
295.215
294.048
293.486
293.222
293.1
293.044
293.019
293.008
293.004
293.002
293.001
293
293
293
293
293
293
293.003
293.015
293.035
293.067
293.122
293.214
293.364
293.61
294.007
294.639
295.632
297.164
299.482
302.914
307.866
314.818
324.279
336.732
352.565
372.008
395.101
421.708
451.558
484.313
519.62
557.157
596.651
637.886
680.696
724.954
770.562
817.435
865.487
914.625
964.738
1015.7
1067.55
1120.22
1173.62
1227.63
1282.14
1337.03
1392.17
1447.42
1502.66
1557.73
1612.49
1666.78
1720.45
1773.31
1825.18
1875.82
1924.97
1972.23
2017.11
2058.85
2095.73
2126.17
2149.03
2158.9
2148.65
2106.36
2022.83
1914.82
1792.64
1662.84
1529.77
1396.35
1264.65
1136.3
1012.65
894.897
784.028
681.485
589.069
508.744
442.164
390.205
352.5
327.257
311.661
302.695
297.841
295.344
294.11
293.516
293.235
293.106
293.047
293.02
293.009
293.004
293.002
293.001
293
293
293
293
293
293
293.003
293.015
293.035
293.068
293.123
293.215
293.367
293.614
294.014
294.65
295.65
297.192
299.525
302.978
307.96
314.951
324.461
336.973
352.871
372.383
395.544
422.214
452.12
484.922
520.267
557.831
597.343
638.585
681.392
725.638
771.223
818.062
866.068
915.148
965.189
1016.07
1067.82
1120.38
1173.66
1227.54
1281.9
1336.63
1391.59
1446.67
1501.72
1556.6
1611.17
1665.27
1718.75
1771.43
1823.13
1873.64
1922.66
1969.86
2014.74
2056.57
2093.82
2124.71
2148.37
2159.57
2151.56
2113.03
2031.95
1925.57
1804.45
1675.32
1542.61
1409.3
1277.52
1148.9
1024.82
906.471
794.856
691.376
597.803
516.123
448.06
394.602
355.527
329.173
312.782
303.308
298.158
295.5
294.185
293.55
293.251
293.113
293.05
293.022
293.009
293.004
293.002
293.001
293
293
293
293
293
293
293.003
293.015
293.035
293.068
293.124
293.217
293.369
293.618
294.021
294.663
295.67
297.223
299.574
303.052
308.069
315.107
324.675
337.257
353.235
372.831
396.076
422.827
452.807
485.674
521.068
558.672
598.212
639.471
682.284
726.524
772.091
818.899
866.861
915.882
965.849
1016.64
1068.28
1120.73
1173.87
1227.59
1281.79
1336.33
1391.11
1445.98
1500.81
1555.47
1609.81
1663.69
1716.94
1769.42
1820.92
1871.25
1920.13
1967.24
2012.09
2054
2091.63
2123
2147.5
2160.14
2154.55
2120.11
2042.06
1937.69
1817.89
1689.59
1557.33
1424.21
1292.36
1163.45
1038.88
919.863
807.403
702.857
607.965
524.738
454.97
399.781
359.112
331.454
314.121
304.042
298.538
295.687
294.274
293.592
293.27
293.121
293.054
293.023
293.01
293.004
293.002
293.001
293
293
293
293
293
293
293.004
293.015
293.035
293.069
293.125
293.218
293.372
293.623
294.029
294.676
295.692
297.259
299.629
303.136
308.194
315.286
324.924
337.589
353.662
373.36
396.71
423.561
453.632
486.577
522.044
559.706
599.291
640.582
683.413
727.658
773.217
820
867.921
916.885
966.775
1017.47
1069.01
1121.32
1174.31
1227.86
1281.87
1336.22
1390.77
1445.4
1499.99
1554.39
1608.48
1662.09
1715.09
1767.31
1818.58
1868.69
1917.4
1964.37
2009.17
2051.14
2089.11
2120.93
2146.27
2160.33
2157.12
2126.69
2052.68
1950.95
1832.87
1705.66
1574.03
1441.17
1309.29
1180.1
1054.99
935.23
821.826
716.085
619.707
534.727
463.021
405.846
363.334
334.153
315.711
304.914
298.989
295.91
294.38
293.641
293.293
293.131
293.058
293.025
293.011
293.005
293.002
293.001
293
293
293
293
293
293
293.004
293.015
293.036
293.069
293.126
293.22
293.375
293.629
294.038
294.691
295.716
297.298
299.69
303.23
308.335
315.49
325.209
337.973
354.16
373.981
397.459
424.435
454.624
487.678
523.242
560.98
600.627
641.966
684.832
729.095
774.656
821.425
869.313
918.222
968.037
1018.64
1070.06
1122.23
1175.05
1228.42
1282.22
1336.34
1390.65
1445.02
1499.33
1553.45
1607.23
1660.54
1713.24
1765.17
1816.16
1866.02
1914.51
1961.32
2006.02
2048
2086.25
2118.5
2144.6
2159.98
2158.95
2132.1
2063.5
1965.21
1849.35
1723.53
1592.72
1460.24
1328.4
1198.94
1073.28
952.701
838.255
731.191
633.161
546.22
472.33
412.902
368.279
337.335
317.594
305.95
299.525
296.173
294.506
293.7
293.319
293.143
293.063
293.028
293.012
293.005
293.002
293.001
293
293
293
293
293
293
293.004
293.016
293.036
293.07
293.127
293.222
293.378
293.634
294.047
294.706
295.741
297.338
299.755
303.331
308.488
315.714
325.527
338.407
354.729
374.7
398.333
425.464
455.801
488.99
524.672
562.529
602.263
643.674
686.594
730.895
776.474
823.241
871.105
919.967
969.709
1020.21
1071.51
1123.54
1176.19
1229.36
1282.93
1336.8
1390.83
1444.92
1498.92
1552.71
1606.15
1659.13
1711.49
1763.08
1813.76
1863.32
1911.55
1958.15
2002.73
2044.69
2083.16
2115.8
2142.65
2159.35
2160.56
2137.43
2074.95
1980.6
1867.31
1743.15
1613.34
1481.38
1349.66
1219.97
1093.76
972.324
856.764
748.258
648.428
559.326
483.003
421.042
374.015
341.041
319.792
307.157
300.147
296.477
294.65
293.766
293.349
293.156
293.069
293.03
293.013
293.006
293.002
293.001
293
293
293
293
293
293
293.004
293.016
293.036
293.07
293.128
293.223
293.381
293.639
294.056
294.721
295.766
297.381
299.825
303.441
308.656
315.964
325.884
338.899
355.38
375.529
399.35
426.67
457.189
490.549
526.386
564.375
604.235
645.749
688.752
733.114
778.732
825.513
873.365
922.187
971.858
1022.27
1073.44
1125.31
1177.78
1230.73
1284.06
1337.65
1391.39
1445.15
1498.82
1552.25
1605.33
1657.94
1709.92
1761.15
1811.47
1860.71
1908.65
1955.01
1999.43
2041.35
2079.96
2112.99
2140.55
2158.6
2162.13
2142.93
2087.01
1996.94
1886.49
1764.2
1635.58
1504.28
1372.8
1242.97
1116.25
993.959
877.253
767.231
665.491
574.063
495.091
430.335
380.625
345.351
322.366
308.577
300.88
296.835
294.818
293.843
293.384
293.172
293.076
293.033
293.014
293.006
293.003
293.001
293
293
293
293
293
293
293.004
293.016
293.036
293.071
293.128
293.224
293.383
293.642
294.062
294.733
295.787
297.417
299.886
303.542
308.817
316.212
326.252
339.42
356.088
376.45
400.501
428.056
458.807
492.385
528.421
566.586
606.623
648.265
691.373
735.815
781.487
828.294
876.142
924.926
974.526
1024.83
1075.87
1127.58
1179.85
1232.57
1285.64
1338.94
1392.36
1445.78
1499.08
1552.14
1604.84
1657.05
1708.64
1759.48
1809.42
1858.31
1905.93
1952.05
1996.3
2038.17
2076.93
2110.56
2138.18
2157.69
2163.64
2148.44
2099.25
2013.62
1906.17
1785.92
1658.67
1528.2
1397.12
1267.29
1140.2
1017.16
899.363
787.854
684.176
590.321
508.516
440.713
388.028
350.173
325.228
310.137
301.673
297.216
294.995
293.923
293.419
293.187
293.082
293.036
293.015
293.007
293.003
293.001
293
293
293
293
293
293
293.004
293.016
293.036
293.071
293.128
293.225
293.384
293.645
294.067
294.742
295.806
297.452
299.949
303.65
308.995
316.492
326.672
340.022
356.912
377.527
401.851
429.687
460.711
494.547
530.82
569.194
609.399
651.23
694.458
738.992
784.723
831.557
879.397
928.136
977.654
1027.84
1078.74
1130.27
1182.33
1234.81
1287.6
1340.6
1393.69
1446.76
1499.69
1552.38
1604.69
1656.5
1707.7
1758.16
1807.73
1856.26
1903.56
1949.4
1993.44
2035.21
2074
2108.12
2136.33
2157.05
2165.16
2153.68
2110.83
2029.47
1924.99
1806.86
1681.09
1551.63
1421.16
1291.58
1164.37
1040.83
922.153
809.369
703.92
607.742
523.126
452.203
396.378
355.713
328.57
311.98
302.613
297.667
295.203
294.016
293.46
293.204
293.09
293.039
293.017
293.007
293.003
293.001
293.001
293
293
293
293
293
293.004
293.016
293.036
293.071
293.128
293.224
293.383
293.643
294.065
294.74
295.805
297.456
299.967
303.696
309.095
316.68
326.994
340.533
357.667
378.576
403.228
431.406
462.769
496.923
533.482