/*--------------------------------*- C++ -*----------------------------------*\
  =========                 |
  \\      /  F ield         | OpenFOAM: The Open Source CFD Toolbox
   \\    /   O peration     | Website:  https://openfoam.org
    \\  /    A nd           | Version:  8
     \\/     M anipulation  |
\*---------------------------------------------------------------------------*/
FoamFile
{
    version     2.0;
    format      ascii;
    class       volVectorField;
    location    "0.25/fluid";
    object      U;
}
// * * * * * * * * * * * * * * * * * * * * * * * * * * * * * * * * * * * * * //

dimensions      [0 1 -1 0 0 0 0];

internalField   nonuniform List<vector> 
4000
(
(0.0999463 -0.00713908 0)
(0.0996317 -0.0212113 0)
(0.0991223 -0.0351413 0)
(0.0984183 -0.0489747 0)
(0.097515 -0.062735 0)
(0.0963973 -0.0764262 0)
(0.0950456 -0.0900391 0)
(0.0934405 -0.103554 0)
(0.0915663 -0.116943 0)
(0.0894141 -0.130176 0)
(0.0869881 -0.143218 0)
(0.0843163 -0.156019 0)
(0.0814493 -0.168594 0)
(0.0784473 -0.180965 0)
(0.0753779 -0.19317 0)
(0.072307 -0.205263 0)
(0.0692851 -0.217302 0)
(0.0663319 -0.229336 0)
(0.0634261 -0.241383 0)
(0.0605051 -0.253424 0)
(0.0574766 -0.265402 0)
(0.0542371 -0.27723 0)
(0.0506917 -0.28881 0)
(0.0467671 -0.300038 0)
(0.0424203 -0.310814 0)
(0.0376455 -0.321025 0)
(0.0324608 -0.330607 0)
(0.0268922 -0.339519 0)
(0.0209686 -0.347719 0)
(0.014721 -0.355172 0)
(0.00818234 -0.361853 0)
(0.001388 -0.367746 0)
(-0.0056258 -0.372845 0)
(-0.0128253 -0.377154 0)
(-0.0201786 -0.380683 0)
(-0.0276545 -0.383451 0)
(-0.0352245 -0.38548 0)
(-0.0428624 -0.386801 0)
(-0.0505428 -0.387446 0)
(-0.058242 -0.387453 0)
(-0.0659377 -0.386863 0)
(-0.0736088 -0.385718 0)
(-0.0812352 -0.384064 0)
(-0.0887978 -0.381947 0)
(-0.0962782 -0.379415 0)
(-0.103659 -0.376517 0)
(-0.110922 -0.373303 0)
(-0.118052 -0.369825 0)
(-0.12503 -0.366133 0)
(-0.131842 -0.362283 0)
(-0.13847 -0.358331 0)
(-0.144896 -0.354335 0)
(-0.151103 -0.35036 0)
(-0.157071 -0.346474 0)
(-0.162776 -0.342754 0)
(-0.168188 -0.339286 0)
(-0.17326 -0.336164 0)
(-0.177923 -0.333489 0)
(-0.182103 -0.331365 0)
(-0.185685 -0.329914 0)
(-0.188407 -0.329246 0)
(-0.189694 -0.329348 0)
(-0.188802 -0.329902 0)
(-0.185297 -0.330178 0)
(-0.179732 -0.329508 0)
(-0.172913 -0.327616 0)
(-0.16533 -0.324455 0)
(-0.157246 -0.320054 0)
(-0.148827 -0.31446 0)
(-0.140191 -0.307724 0)
(-0.131438 -0.299894 0)
(-0.122657 -0.291019 0)
(-0.113936 -0.281154 0)
(-0.105359 -0.270356 0)
(-0.0970479 -0.258685 0)
(-0.0892062 -0.24623 0)
(-0.0821315 -0.233133 0)
(-0.0761993 -0.219723 0)
(-0.0718336 -0.206575 0)
(-0.0693675 -0.194206 0)
(-0.0688511 -0.182907 0)
(-0.0700101 -0.172626 0)
(-0.0723711 -0.163056 0)
(-0.0754231 -0.15385 0)
(-0.078732 -0.144751 0)
(-0.0819956 -0.135616 0)
(-0.085039 -0.126382 0)
(-0.0877736 -0.117027 0)
(-0.0901499 -0.107532 0)
(-0.0921741 -0.0979912 0)
(-0.0938768 -0.0884445 0)
(-0.0952946 -0.0789195 0)
(-0.0964635 -0.0694382 0)
(-0.0974166 -0.0600154 0)
(-0.0981838 -0.0506588 0)
(-0.0987909 -0.0413686 0)
(-0.0992602 -0.0321376 0)
(-0.0996083 -0.0229511 0)
(-0.0998463 -0.0137855 0)
(-0.0999827 -0.00460983 0)
(0.100007 -0.00661042 0)
(0.0998056 -0.0197895 0)
(0.0993757 -0.0328877 0)
(0.0986914 -0.0458794 0)
(0.0977569 -0.0587414 0)
(0.0965706 -0.0714474 0)
(0.0951251 -0.0839669 0)
(0.0934135 -0.0962669 0)
(0.0914343 -0.108315 0)
(0.0891952 -0.120085 0)
(0.0867164 -0.131572 0)
(0.0840356 -0.142816 0)
(0.0812052 -0.153816 0)
(0.0782889 -0.164602 0)
(0.0753561 -0.17523 0)
(0.0724726 -0.185776 0)
(0.0696866 -0.196325 0)
(0.0670146 -0.206954 0)
(0.0644311 -0.21771 0)
(0.0618674 -0.228601 0)
(0.0592228 -0.239586 0)
(0.0563821 -0.250587 0)
(0.0532368 -0.261499 0)
(0.0496996 -0.272216 0)
(0.0457138 -0.282636 0)
(0.0412529 -0.292689 0)
(0.0363209 -0.302277 0)
(0.0309401 -0.311296 0)
(0.0251409 -0.319675 0)
(0.0189592 -0.327366 0)
(0.0124352 -0.334336 0)
(0.0056101 -0.340569 0)
(-0.00147362 -0.346055 0)
(-0.00877607 -0.350799 0)
(-0.0162609 -0.354808 0)
(-0.0238929 -0.3581 0)
(-0.03164 -0.360697 0)
(-0.0394727 -0.362624 0)
(-0.0473641 -0.363912 0)
(-0.0552886 -0.364596 0)
(-0.0632226 -0.364711 0)
(-0.0711441 -0.364298 0)
(-0.0790323 -0.363398 0)
(-0.0868678 -0.362053 0)
(-0.0946321 -0.36031 0)
(-0.102308 -0.358213 0)
(-0.109878 -0.355809 0)
(-0.117327 -0.353148 0)
(-0.124639 -0.350279 0)
(-0.131799 -0.347251 0)
(-0.138794 -0.344118 0)
(-0.14561 -0.340933 0)
(-0.152232 -0.337752 0)
(-0.158646 -0.334631 0)
(-0.164835 -0.331628 0)
(-0.170776 -0.328802 0)
(-0.176426 -0.326209 0)
(-0.18172 -0.323896 0)
(-0.186588 -0.321895 0)
(-0.190912 -0.32022 0)
(-0.194392 -0.318834 0)
(-0.19628 -0.317647 0)
(-0.195675 -0.31633 0)
(-0.192109 -0.314591 0)
(-0.186294 -0.312156 0)
(-0.179164 -0.308838 0)
(-0.171264 -0.304521 0)
(-0.162867 -0.299136 0)
(-0.154128 -0.292645 0)
(-0.145152 -0.285032 0)
(-0.136019 -0.276293 0)
(-0.126801 -0.266448 0)
(-0.117558 -0.255539 0)
(-0.108357 -0.243652 0)
(-0.0993179 -0.230946 0)
(-0.0906848 -0.217708 0)
(-0.0828362 -0.204411 0)
(-0.0762601 -0.191594 0)
(-0.0714483 -0.179673 0)
(-0.0687047 -0.168992 0)
(-0.0679902 -0.159623 0)
(-0.068953 -0.151332 0)
(-0.0710976 -0.143715 0)
(-0.0739357 -0.136388 0)
(-0.0770694 -0.129083 0)
(-0.0802224 -0.121657 0)
(-0.08323 -0.114058 0)
(-0.0860057 -0.10629 0)
(-0.088514 -0.0983941 0)
(-0.0907304 -0.0903001 0)
(-0.0926603 -0.0820282 0)
(-0.0943172 -0.0736163 0)
(-0.0957193 -0.0651011 0)
(-0.0968874 -0.0565131 0)
(-0.0978425 -0.0478764 0)
(-0.0986046 -0.0392086 0)
(-0.0991905 -0.0305208 0)
(-0.099611 -0.0218187 0)
(-0.0998733 -0.0131028 0)
(-0.0999991 -0.00437179 0)
(0.099977 -0.00635067 0)
(0.0997065 -0.0189825 0)
(0.0991774 -0.0315242 0)
(0.098373 -0.0439541 0)
(0.0972974 -0.0562486 0)
(0.0959521 -0.0683831 0)
(0.0943376 -0.0803317 0)
(0.0924584 -0.0920687 0)
(0.0903264 -0.10357 0)
(0.0879632 -0.114815 0)
(0.0854006 -0.125791 0)
(0.0826791 -0.136495 0)
(0.0798495 -0.146942 0)
(0.0769756 -0.157166 0)
(0.0741275 -0.167224 0)
(0.0713716 -0.177189 0)
(0.068756 -0.187143 0)
(0.0662969 -0.197161 0)
(0.0639684 -0.207293 0)
(0.0617012 -0.217553 0)
(0.0593923 -0.227912 0)
(0.0569225 -0.238303 0)
(0.0541767 -0.248636 0)
(0.0510601 -0.25881 0)
(0.0475051 -0.26872 0)
(0.0434706 -0.278274 0)
(0.0389399 -0.28739 0)
(0.0339194 -0.295998 0)
(0.0284332 -0.304044 0)
(0.0225166 -0.311481 0)
(0.0162102 -0.318277 0)
(0.00955582 -0.324408 0)
(0.00259464 -0.329864 0)
(-0.00462989 -0.33464 0)
(-0.0120789 -0.33874 0)
(-0.0197181 -0.342177 0)
(-0.0275128 -0.344967 0)
(-0.0354321 -0.347131 0)
(-0.0434476 -0.348697 0)
(-0.051533 -0.349694 0)
(-0.0596637 -0.350153 0)
(-0.0678168 -0.350112 0)
(-0.0759711 -0.349606 0)
(-0.0841069 -0.348677 0)
(-0.092206 -0.347363 0)
(-0.100251 -0.345708 0)
(-0.108228 -0.343754 0)
(-0.11612 -0.341546 0)
(-0.123915 -0.339129 0)
(-0.131601 -0.336548 0)
(-0.139169 -0.333848 0)
(-0.146608 -0.331076 0)
(-0.153911 -0.328278 0)
(-0.161068 -0.325499 0)
(-0.168068 -0.322781 0)
(-0.17489 -0.320163 0)
(-0.181485 -0.317678 0)
(-0.187779 -0.315343 0)
(-0.193684 -0.313161 0)
(-0.199026 -0.311117 0)
(-0.203377 -0.309146 0)
(-0.205842 -0.307127 0)
(-0.205375 -0.304787 0)
(-0.201614 -0.301942 0)
(-0.195389 -0.298447 0)
(-0.187708 -0.294181 0)
(-0.17917 -0.289048 0)
(-0.17008 -0.282979 0)
(-0.160611 -0.275936 0)
(-0.150871 -0.267908 0)
(-0.140938 -0.258909 0)
(-0.130877 -0.248987 0)
(-0.120743 -0.238228 0)
(-0.110609 -0.226763 0)
(-0.100631 -0.214787 0)
(-0.0911179 -0.202573 0)
(-0.0825365 -0.190475 0)
(-0.0754507 -0.1789 0)
(-0.0703568 -0.168238 0)
(-0.0674834 -0.158733 0)
(-0.0666953 -0.150374 0)
(-0.0675809 -0.142909 0)
(-0.0696307 -0.135972 0)
(-0.0723694 -0.12923 0)
(-0.0754186 -0.122457 0)
(-0.0785159 -0.115531 0)
(-0.0815036 -0.108401 0)
(-0.084301 -0.101063 0)
(-0.0868751 -0.0935345 0)
(-0.0892117 -0.0858432 0)
(-0.0913011 -0.078013 0)
(-0.0931427 -0.0700649 0)
(-0.0947417 -0.0620188 0)
(-0.0961073 -0.0538931 0)
(-0.0972506 -0.0457041 0)
(-0.0981834 -0.0374653 0)
(-0.0989163 -0.0291875 0)
(-0.0994563 -0.0208787 0)
(-0.0998077 -0.0125444 0)
(-0.0999873 -0.00418795 0)
(0.0999843 -0.00598768 0)
(0.0997139 -0.0178991 0)
(0.0991735 -0.0297157 0)
(0.0983449 -0.0414097 0)
(0.0972368 -0.0529533 0)
(0.0958559 -0.0643188 0)
(0.094208 -0.0754788 0)
(0.0923018 -0.0864072 0)
(0.0901519 -0.0970817 0)
(0.087781 -0.107485 0)
(0.0852215 -0.117611 0)
(0.0825169 -0.127462 0)
(0.0797231 -0.137061 0)
(0.0769061 -0.146446 0)
(0.0741368 -0.155676 0)
(0.071481 -0.164829 0)
(0.068986 -0.173987 0)
(0.0666673 -0.183228 0)
(0.0644985 -0.192607 0)
(0.06241 -0.202141 0)
(0.0602974 -0.211808 0)
(0.0580392 -0.221551 0)
(0.0555162 -0.231288 0)
(0.052628 -0.240923 0)
(0.0493019 -0.250359 0)
(0.0454946 -0.259507 0)
(0.041189 -0.268284 0)
(0.0363887 -0.276621 0)
(0.0311129 -0.284458 0)
(0.025391 -0.29175 0)
(0.0192578 -0.298463 0)
(0.0127504 -0.304572 0)
(0.00590674 -0.310065 0)
(-0.00123422 -0.314933 0)
(-0.00863498 -0.319182 0)
(-0.0162614 -0.322816 0)
(-0.024081 -0.325851 0)
(-0.0320637 -0.328304 0)
(-0.0401817 -0.330198 0)
(-0.0484091 -0.331557 0)
(-0.0567219 -0.332411 0)
(-0.0650978 -0.33279 0)
(-0.0735159 -0.332727 0)
(-0.0819574 -0.332257 0)
(-0.0904047 -0.331415 0)
(-0.0988416 -0.33024 0)
(-0.107253 -0.328767 0)
(-0.115626 -0.327037 0)
(-0.123949 -0.325086 0)
(-0.132212 -0.322954 0)
(-0.140406 -0.320678 0)
(-0.148524 -0.318296 0)
(-0.156557 -0.315841 0)
(-0.164497 -0.313346 0)
(-0.172328 -0.310839 0)
(-0.180023 -0.308343 0)
(-0.187517 -0.305872 0)
(-0.194717 -0.303425 0)
(-0.201514 -0.300995 0)
(-0.207668 -0.298553 0)
(-0.212626 -0.296025 0)
(-0.215356 -0.293283 0)
(-0.214738 -0.29011 0)
(-0.210584 -0.28636 0)
(-0.203837 -0.281961 0)
(-0.195531 -0.276847 0)
(-0.186282 -0.270959 0)
(-0.176417 -0.264249 0)
(-0.166129 -0.256692 0)
(-0.155543 -0.248287 0)
(-0.144755 -0.239063 0)
(-0.133848 -0.229077 0)
(-0.122901 -0.218427 0)
(-0.112023 -0.207253 0)
(-0.101426 -0.195754 0)
(-0.0914751 -0.184205 0)
(-0.0826642 -0.172947 0)
(-0.0755336 -0.162356 0)
(-0.0705099 -0.15276 0)
(-0.0677316 -0.144329 0)
(-0.0669917 -0.13699 0)
(-0.0678532 -0.130466 0)
(-0.0698181 -0.124403 0)
(-0.0724386 -0.118495 0)
(-0.0753642 -0.112538 0)
(-0.0783535 -0.106421 0)
(-0.0812589 -0.100098 0)
(-0.0840001 -0.0935568 0)
(-0.0865372 -0.0868062 0)
(-0.088853 -0.0798608 0)
(-0.0909416 -0.0727403 0)
(-0.0928029 -0.0654661 0)
(-0.0944393 -0.0580593 0)
(-0.0958553 -0.05054 0)
(-0.097056 -0.0429263 0)
(-0.0980472 -0.0352347 0)
(-0.0988335 -0.0274797 0)
(-0.0994165 -0.0196736 0)
(-0.099796 -0.011827 0)
(-0.0999886 -0.00394939 0)
(0.0999807 -0.00563155 0)
(0.0996947 -0.0168328 0)
(0.0991292 -0.0279428 0)
(0.0982675 -0.0389338 0)
(0.0971206 -0.0497785 0)
(0.0956978 -0.0604503 0)
(0.0940077 -0.0709235 0)
(0.0920623 -0.0811744 0)
(0.0898795 -0.0911828 0)
(0.0874853 -0.100934 0)
(0.0849152 -0.110421 0)
(0.0822156 -0.119649 0)
(0.0794442 -0.128636 0)
(0.0766681 -0.137419 0)
(0.0739581 -0.146052 0)
(0.0713799 -0.154606 0)
(0.0689807 -0.163159 0)
(0.066776 -0.171781 0)
(0.06474 -0.180526 0)
(0.0628035 -0.189416 0)
(0.0608618 -0.198434 0)
(0.058792 -0.207534 0)
(0.0564718 -0.216644 0)
(0.0537965 -0.22568 0)
(0.0506878 -0.234554 0)
(0.0470973 -0.243182 0)
(0.0430025 -0.251489 0)
(0.0384027 -0.25941 0)
(0.0333134 -0.266888 0)
(0.0277602 -0.273882 0)
(0.0217748 -0.280357 0)
(0.0153916 -0.28629 0)
(0.00864553 -0.291664 0)
(0.00157146 -0.296473 0)
(-0.00579194 -0.30072 0)
(-0.0134117 -0.304402 0)
(-0.0212602 -0.307533 0)
(-0.0293078 -0.310128 0)
(-0.0375275 -0.312206 0)
(-0.0458949 -0.313787 0)
(-0.0543869 -0.314896 0)
(-0.0629821 -0.315559 0)
(-0.071661 -0.315804 0)
(-0.0804052 -0.315661 0)
(-0.0891978 -0.31516 0)
(-0.098023 -0.314334 0)
(-0.106867 -0.313213 0)
(-0.115717 -0.311831 0)
(-0.124561 -0.310219 0)
(-0.13339 -0.308408 0)
(-0.142195 -0.306428 0)
(-0.150965 -0.304309 0)
(-0.159691 -0.302075 0)
(-0.168359 -0.299749 0)
(-0.176947 -0.297351 0)
(-0.185414 -0.294892 0)
(-0.193678 -0.292377 0)
(-0.201634 -0.2898 0)
(-0.209143 -0.287148 0)
(-0.215893 -0.284385 0)
(-0.221218 -0.281441 0)
(-0.223961 -0.278192 0)
(-0.222996 -0.274454 0)
(-0.218331 -0.270108 0)
(-0.211024 -0.26513 0)
(-0.202108 -0.259493 0)
(-0.192189 -0.253166 0)
(-0.181608 -0.246129 0)
(-0.170572 -0.238376 0)
(-0.159228 -0.229922 0)
(-0.147688 -0.22081 0)
(-0.136056 -0.21111 0)
(-0.12443 -0.200924 0)
(-0.11295 -0.190397 0)
(-0.10187 -0.179722 0)
(-0.0915886 -0.169152 0)
(-0.082613 -0.158987 0)
(-0.0754628 -0.149537 0)
(-0.0705069 -0.141044 0)
(-0.0678101 -0.133595 0)
(-0.0671118 -0.127068 0)
(-0.0679575 -0.121195 0)
(-0.0698583 -0.115667 0)
(-0.0723863 -0.110233 0)
(-0.0752132 -0.10473 0)
(-0.0781152 -0.0990686 0)
(-0.0809554 -0.0932126 0)
(-0.0836574 -0.0871537 0)
(-0.0861803 -0.0808991 0)
(-0.0885027 -0.0744624 0)
(-0.0906141 -0.0678603 0)
(-0.0925099 -0.0611099 0)
(-0.0941888 -0.0542286 0)
(-0.0956515 -0.0472331 0)
(-0.0968999 -0.0401396 0)
(-0.0979366 -0.0329632 0)
(-0.0987635 -0.0257182 0)
(-0.0993793 -0.0184177 0)
(-0.0997819 -0.0110737 0)
(-0.0999872 -0.003698 0)
(0.0999816 -0.00525938 0)
(0.0996942 -0.0157211 0)
(0.0991241 -0.0260956 0)
(0.0982552 -0.0363548 0)
(0.0970999 -0.0464715 0)
(0.0956693 -0.0564193 0)
(0.0939738 -0.0661736 0)
(0.092027 -0.0757117 0)
(0.0898483 -0.0850149 0)
(0.0874649 -0.0940699 0)
(0.0849128 -0.102871 0)
(0.082239 -0.111425 0)
(0.079501 -0.119749 0)
(0.0767656 -0.127882 0)
(0.0741034 -0.135875 0)
(0.0715796 -0.143797 0)
(0.0692418 -0.151722 0)
(0.0671068 -0.159721 0)
(0.0651504 -0.167845 0)
(0.063305 -0.176117 0)
(0.0614678 -0.184525 0)
(0.059516 -0.193026 0)
(0.0573264 -0.201555 0)
(0.0547919 -0.210034 0)
(0.0518312 -0.218382 0)
(0.0483915 -0.226522 0)
(0.044447 -0.234382 0)
(0.0399931 -0.241901 0)
(0.0350411 -0.249028 0)
(0.029613 -0.25572 0)
(0.0237374 -0.261945 0)
(0.017446 -0.26768 0)
(0.0107685 -0.272908 0)
(0.00372968 -0.277622 0)
(-0.00361419 -0.281819 0)
(-0.0112329 -0.285501 0)
(-0.0191194 -0.288678 0)
(-0.0272382 -0.291359 0)
(-0.0355619 -0.293562 0)
(-0.0440671 -0.295302 0)
(-0.0527324 -0.296602 0)
(-0.0615376 -0.297482 0)
(-0.0704638 -0.297966 0)
(-0.0794931 -0.29808 0)
(-0.088609 -0.297849 0)
(-0.0977963 -0.2973 0)
(-0.107041 -0.296459 0)
(-0.11633 -0.295354 0)
(-0.12565 -0.294008 0)
(-0.134992 -0.292449 0)
(-0.144342 -0.290698 0)
(-0.153688 -0.288779 0)
(-0.163016 -0.286711 0)
(-0.172306 -0.284509 0)
(-0.181527 -0.282185 0)
(-0.190626 -0.279748 0)
(-0.199505 -0.277195 0)
(-0.208042 -0.274519 0)
(-0.216064 -0.271702 0)
(-0.223203 -0.268709 0)
(-0.228701 -0.265478 0)
(-0.231275 -0.261894 0)
(-0.229832 -0.257788 0)
(-0.224592 -0.253072 0)
(-0.216722 -0.24775 0)
(-0.207233 -0.241823 0)
(-0.196715 -0.235283 0)
(-0.185509 -0.228127 0)
(-0.173834 -0.220366 0)
(-0.161851 -0.212027 0)
(-0.149694 -0.20316 0)
(-0.13748 -0.193838 0)
(-0.125329 -0.184162 0)
(-0.113411 -0.174267 0)
(-0.102015 -0.164333 0)
(-0.0915667 -0.154589 0)
(-0.0825803 -0.1453 0)
(-0.0755471 -0.136734 0)
(-0.070775 -0.129087 0)
(-0.0682554 -0.122409 0)
(-0.067676 -0.116566 0)
(-0.0685664 -0.111299 0)
(-0.070446 -0.106327 0)
(-0.0729065 -0.101423 0)
(-0.0756411 -0.096444 0)
(-0.0784438 -0.09131 0)
(-0.08119 -0.0859878 0)
(-0.0838098 -0.080469 0)
(-0.0862655 -0.0747589 0)
(-0.0885366 -0.0688688 0)
(-0.0906118 -0.0628132 0)
(-0.092485 -0.0566078 0)
(-0.0941528 -0.0502686 0)
(-0.0956133 -0.0438117 0)
(-0.0968658 -0.0372526 0)
(-0.0979103 -0.0306066 0)
(-0.0987464 -0.0238883 0)
(-0.0993706 -0.0171117 0)
(-0.0997791 -0.01029 0)
(-0.0999873 -0.00343637 0)
(0.0999811 -0.00488758 0)
(0.0996915 -0.0146098 0)
(0.0991181 -0.0242508 0)
(0.0982451 -0.0337836 0)
(0.0970856 -0.0431824 0)
(0.0956516 -0.0524225 0)
(0.0939543 -0.0614807 0)
(0.0920084 -0.0703363 0)
(0.0898345 -0.0789722 0)
(0.0874604 -0.0873763 0)
(0.0849231 -0.0955441 0)
(0.0822699 -0.103481 0)
(0.0795588 -0.111205 0)
(0.0768566 -0.118751 0)
(0.0742338 -0.126166 0)
(0.0717559 -0.133514 0)
(0.0694706 -0.140864 0)
(0.0673953 -0.148281 0)
(0.0655067 -0.155815 0)
(0.0637384 -0.163489 0)
(0.0619879 -0.171294 0)
(0.0601325 -0.179193 0)
(0.0580478 -0.18713 0)
(0.0556247 -0.195033 0)
(0.0527791 -0.20283 0)
(0.0494557 -0.210448 0)
(0.0456252 -0.217823 0)
(0.0412803 -0.224897 0)
(0.0364291 -0.231622 0)
(0.0310907 -0.237959 0)
(0.025291 -0.243877 0)
(0.0190588 -0.249353 0)
(0.0124242 -0.254371 0)
(0.00541729 -0.258921 0)
(-0.00192781 -0.262997 0)
(-0.00958139 -0.266606 0)
(-0.017519 -0.269753 0)
(-0.0257144 -0.272444 0)
(-0.0341437 -0.274693 0)
(-0.0427845 -0.276513 0)
(-0.0516162 -0.277922 0)
(-0.0606193 -0.278938 0)
(-0.0697752 -0.279581 0)
(-0.0790664 -0.279872 0)
(-0.0884768 -0.279832 0)
(-0.0979907 -0.279482 0)
(-0.107594 -0.278846 0)
(-0.117271 -0.277944 0)
(-0.127009 -0.276798 0)
(-0.136795 -0.275427 0)
(-0.146613 -0.27385 0)
(-0.156448 -0.272084 0)
(-0.166279 -0.270143 0)
(-0.17608 -0.26804 0)
(-0.185812 -0.265782 0)
(-0.19541 -0.263373 0)
(-0.20476 -0.260811 0)
(-0.213724 -0.258084 0)
(-0.222103 -0.255177 0)
(-0.229481 -0.252057 0)
(-0.235013 -0.248665 0)
(-0.237307 -0.244895 0)
(-0.235326 -0.240597 0)
(-0.229503 -0.235708 0)
(-0.221107 -0.230253 0)
(-0.211114 -0.22425 0)
(-0.200088 -0.217705 0)
(-0.188366 -0.21063 0)
(-0.176175 -0.203046 0)
(-0.163689 -0.194988 0)
(-0.151053 -0.18651 0)
(-0.138399 -0.177686 0)
(-0.125862 -0.168614 0)
(-0.113636 -0.15942 0)
(-0.10204 -0.150272 0)
(-0.0915173 -0.141375 0)
(-0.0825787 -0.132965 0)
(-0.0756851 -0.125266 0)
(-0.0710879 -0.118428 0)
(-0.0687194 -0.11246 0)
(-0.0682322 -0.107214 0)
(-0.0691502 -0.102448 0)
(-0.0710048 -0.0979123 0)
(-0.0734053 -0.0934168 0)
(-0.0760626 -0.0888405 0)
(-0.0787846 -0.0841191 0)
(-0.0814551 -0.0792248 0)
(-0.0840088 -0.0741512 0)
(-0.0864091 -0.0689022 0)
(-0.0886358 -0.0634876 0)
(-0.0906767 -0.0579194 0)
(-0.0925246 -0.0522111 0)
(-0.0941746 -0.0463764 0)
(-0.0956236 -0.0404296 0)
(-0.0968693 -0.0343848 0)
(-0.0979105 -0.028256 0)
(-0.0987454 -0.0220571 0)
(-0.0993697 -0.0158016 0)
(-0.0997787 -0.00950262 0)
(-0.0999873 -0.00317338 0)
(0.0999813 -0.00451447 0)
(0.0996927 -0.013495 0)
(0.0991208 -0.0224004 0)
(0.0982502 -0.0312054 0)
(0.0970942 -0.0398855 0)
(0.0956654 -0.0484176 0)
(0.0939756 -0.0567801 0)
(0.09204 -0.064954 0)
(0.0898793 -0.0729232 0)
(0.0875218 -0.0806771 0)
(0.0850046 -0.0882115 0)
(0.0823748 -0.095532 0)
(0.0796903 -0.102656 0)
(0.0770174 -0.109614 0)
(0.0744264 -0.116452 0)
(0.0719827 -0.123229 0)
(0.0697346 -0.13001 0)
(0.0677001 -0.136856 0)
(0.0658575 -0.143813 0)
(0.0641415 -0.150904 0)
(0.0624509 -0.158124 0)
(0.0606632 -0.165439 0)
(0.0586534 -0.172798 0)
(0.0563109 -0.180136 0)
(0.0535492 -0.187387 0)
(0.0503105 -0.194485 0)
(0.046563 -0.20137 0)
(0.0422966 -0.207988 0)
(0.037517 -0.214295 0)
(0.0322409 -0.220255 0)
(0.0264917 -0.225838 0)
(0.0202964 -0.231022 0)
(0.0136835 -0.235791 0)
(0.00668197 -0.240136 0)
(-0.000678149 -0.244052 0)
(-0.00836839 -0.24754 0)
(-0.0163633 -0.250603 0)
(-0.0246387 -0.253249 0)
(-0.0331722 -0.255486 0)
(-0.0419423 -0.257328 0)
(-0.050929 -0.258787 0)
(-0.060113 -0.25988 0)
(-0.0694762 -0.260621 0)
(-0.0790013 -0.261029 0)
(-0.0886719 -0.261121 0)
(-0.0984717 -0.260915 0)
(-0.108385 -0.26043 0)
(-0.118396 -0.259682 0)
(-0.12849 -0.258688 0)
(-0.138649 -0.257466 0)
(-0.148857 -0.256029 0)
(-0.159094 -0.254391 0)
(-0.169334 -0.252563 0)
(-0.179545 -0.250554 0)
(-0.189681 -0.24837 0)
(-0.199664 -0.246013 0)
(-0.209367 -0.243479 0)
(-0.218638 -0.240758 0)
(-0.227256 -0.237835 0)
(-0.234759 -0.234679 0)
(-0.240218 -0.231232 0)
(-0.242159 -0.227389 0)
(-0.239626 -0.223028 0)
(-0.233258 -0.218122 0)
(-0.224393 -0.212699 0)
(-0.213971 -0.206785 0)
(-0.202525 -0.200394 0)
(-0.190386 -0.193544 0)
(-0.177786 -0.186264 0)
(-0.164907 -0.178592 0)
(-0.151904 -0.170585 0)
(-0.138919 -0.162312 0)
(-0.1261 -0.153867 0)
(-0.113665 -0.145366 0)
(-0.101953 -0.136962 0)
(-0.0914234 -0.12884 0)
(-0.0825815 -0.121209 0)
(-0.0758585 -0.114261 0)
(-0.0714549 -0.108114 0)
(-0.0692516 -0.102755 0)
(-0.0688713 -0.0980344 0)
(-0.069833 -0.0937264 0)
(-0.071678 -0.0896092 0)
(-0.0740312 -0.0855158 0)
(-0.0766194 -0.081342 0)
(-0.0792635 -0.0770324 0)
(-0.0818562 -0.0725635 0)
(-0.0843371 -0.0679294 0)
(-0.0866723 -0.0631336 0)
(-0.0888423 -0.0581845 0)
(-0.0908353 -0.0530926 0)
(-0.0926434 -0.0478698 0)
(-0.0942613 -0.0425286 0)
(-0.0956847 -0.0370817 0)
(-0.0969106 -0.0315423 0)
(-0.0979368 -0.0259235 0)
(-0.0987607 -0.0202382 0)
(-0.0993773 -0.0144993 0)
(-0.0997814 -0.00871966 0)
(-0.0999875 -0.00291185 0)
(0.0999814 -0.00414323 0)
(0.0996939 -0.0123857 0)
(0.0991245 -0.0205594 0)
(0.0982579 -0.028641 0)
(0.0971074 -0.036608 0)
(0.0956859 -0.0444391 0)
(0.0940053 -0.0521146 0)
(0.092081 -0.0596168 0)
(0.0899339 -0.0669314 0)
(0.0875925 -0.0740485 0)
(0.0850937 -0.0809645 0)
(0.0824846 -0.0876846 0)
(0.0798228 -0.0942246 0)
(0.0771745 -0.100613 0)
(0.0746098 -0.106892 0)
(0.0721941 -0.113115 0)
(0.069976 -0.119342 0)
(0.0679743 -0.125629 0)
(0.0661682 -0.13202 0)
(0.0644935 -0.138537 0)
(0.0628494 -0.145176 0)
(0.0611135 -0.151908 0)
(0.0591603 -0.158687 0)
(0.056878 -0.165455 0)
(0.0541787 -0.172152 0)
(0.0510023 -0.178716 0)
(0.0473148 -0.185094 0)
(0.0431038 -0.191236 0)
(0.0383731 -0.197102 0)
(0.0331376 -0.202657 0)
(0.027419 -0.207874 0)
(0.0212426 -0.212731 0)
(0.0146354 -0.217215 0)
(0.0076251 -0.221314 0)
(0.00023977 -0.225025 0)
(-0.00749302 -0.228345 0)
(-0.0155484 -0.231279 0)
(-0.0239036 -0.23383 0)
(-0.0325366 -0.236007 0)
(-0.0414268 -0.23782 0)
(-0.0505544 -0.239278 0)
(-0.0599006 -0.240395 0)
(-0.0694474 -0.241185 0)
(-0.0791773 -0.241661 0)
(-0.0890732 -0.241838 0)
(-0.0991182 -0.24173 0)
(-0.109295 -0.241354 0)
(-0.119588 -0.240722 0)
(-0.129977 -0.239849 0)
(-0.140446 -0.238747 0)
(-0.150973 -0.237429 0)
(-0.161535 -0.235905 0)
(-0.172103 -0.234185 0)
(-0.182639 -0.232275 0)
(-0.19309 -0.23018 0)
(-0.203366 -0.227901 0)
(-0.21333 -0.225433 0)
(-0.22282 -0.222768 0)
(-0.23159 -0.219892 0)
(-0.239127 -0.216775 0)
(-0.244419 -0.213358 0)
(-0.245963 -0.209538 0)
(-0.242928 -0.205231 0)
(-0.236101 -0.200437 0)
(-0.226846 -0.195183 0)
(-0.216066 -0.189491 0)
(-0.204276 -0.183378 0)
(-0.191802 -0.176868 0)
(-0.17888 -0.169992 0)
(-0.165697 -0.162791 0)
(-0.152417 -0.155319 0)
(-0.139187 -0.147645 0)
(-0.126166 -0.139854 0)
(-0.113591 -0.132054 0)
(-0.101822 -0.124384 0)
(-0.0913254 -0.117013 0)
(-0.0826 -0.110123 0)
(-0.0760481 -0.10388 0)
(-0.071825 -0.0983726 0)
(-0.0697692 -0.0935705 0)
(-0.0694815 -0.0893254 0)
(-0.0704801 -0.0854299 0)
(-0.0723162 -0.0816886 0)
(-0.0746287 -0.0779577 0)
(-0.0771581 -0.0741488 0)
(-0.0797357 -0.0702154 0)
(-0.0822612 -0.066138 0)
(-0.0846781 -0.0619118 0)
(-0.0869545 -0.0575399 0)
(-0.0890717 -0.0530296 0)
(-0.0910182 -0.0483899 0)
(-0.0927861 -0.0436312 0)
(-0.0943695 -0.0387645 0)
(-0.095764 -0.0338012 0)
(-0.0969662 -0.0287529 0)
(-0.0979733 -0.0236317 0)
(-0.0987823 -0.0184493 0)
(-0.0993881 -0.0132178 0)
(-0.0997852 -0.00794885 0)
(-0.0999877 -0.00265437 0)
(0.0999815 -0.00377393 0)
(0.0996958 -0.011282 0)
(0.0991299 -0.0187278 0)
(0.0982685 -0.0260899 0)
(0.097125 -0.0333479 0)
(0.0957122 -0.0404824 0)
(0.0940423 -0.0474752 0)
(0.0921304 -0.0543104 0)
(0.0899977 -0.060975 0)
(0.0876724 -0.06746 0)
(0.0851912 -0.0737624 0)
(0.0826011 -0.0798867 0)
(0.0799593 -0.0858474 0)
(0.0773318 -0.0916706 0)
(0.0747883 -0.0973947 0)
(0.0723944 -0.103069 0)
(0.0701989 -0.108747 0)
(0.0682215 -0.114481 0)
(0.0664421 -0.120312 0)
(0.0647973 -0.126261 0)
(0.0631873 -0.132324 0)
(0.0614896 -0.138478 0)
(0.0595782 -0.144679 0)
(0.05734 -0.150876 0)
(0.0546858 -0.157014 0)
(0.0515538 -0.163039 0)
(0.0479084 -0.1689 0)
(0.0437354 -0.174553 0)
(0.0390371 -0.17996 0)
(0.0338266 -0.18509 0)
(0.0281243 -0.189918 0)
(0.0219542 -0.194423 0)
(0.0153422 -0.198592 0)
(0.00831458 -0.202414 0)
(0.000898458 -0.205886 0)
(-0.00687937 -0.209004 0)
(-0.0149947 -0.211771 0)
(-0.0234256 -0.21419 0)
(-0.0321507 -0.216267 0)
(-0.0411495 -0.21801 0)
(-0.0504025 -0.219428 0)
(-0.0598912 -0.22053 0)
(-0.0695974 -0.221329 0)
(-0.0795032 -0.221836 0)
(-0.0895908 -0.222063 0)
(-0.0998425 -0.222021 0)
(-0.11024 -0.221723 0)
(-0.120766 -0.221181 0)
(-0.131399 -0.220407 0)
(-0.14212 -0.219409 0)
(-0.152904 -0.2182 0)
(-0.163727 -0.216786 0)
(-0.174554 -0.215175 0)
(-0.185344 -0.213374 0)
(-0.196036 -0.211385 0)
(-0.206533 -0.20921 0)
(-0.216687 -0.206843 0)
(-0.226326 -0.204277 0)
(-0.235183 -0.201499 0)
(-0.242691 -0.198482 0)
(-0.247764 -0.195173 0)
(-0.248915 -0.191473 0)
(-0.245449 -0.187327 0)
(-0.238251 -0.182748 0)
(-0.228673 -0.177761 0)
(-0.217596 -0.172384 0)
(-0.205524 -0.166638 0)
(-0.19278 -0.160547 0)
(-0.179603 -0.154143 0)
(-0.166185 -0.147468 0)
(-0.152692 -0.140573 0)
(-0.139279 -0.133521 0)
(-0.126114 -0.126393 0)
(-0.113449 -0.119287 0)
(-0.10166 -0.112329 0)
(-0.0912196 -0.10567 0)
(-0.0826197 -0.0994731 0)
(-0.0762358 -0.0938779 0)
(-0.0721833 -0.0889537 0)
(-0.0702651 -0.0846593 0)
(-0.0700648 -0.0808521 0)
(-0.0711003 -0.0773438 0)
(-0.072932 -0.0739621 0)
(-0.0752109 -0.0705824 0)
(-0.0776891 -0.0671289 0)
(-0.0802074 -0.0635626 0)
(-0.0826717 -0.0598667 0)
(-0.085029 -0.0560374 0)
(-0.0872494 -0.0520777 0)
(-0.0893153 -0.0479936 0)
(-0.0912156 -0.0437934 0)
(-0.0929423 -0.0394861 0)
(-0.0944899 -0.0350813 0)
(-0.0958535 -0.0305893 0)
(-0.0970297 -0.0260205 0)
(-0.0980154 -0.0213857 0)
(-0.0988075 -0.0166956 0)
(-0.0994007 -0.0119611 0)
(-0.0997897 -0.00719293 0)
(-0.099988 -0.00240186 0)
(0.0999816 -0.00340703 0)
(0.0996977 -0.0101854 0)
(0.0991353 -0.0169079 0)
(0.0982791 -0.0235552 0)
(0.0971426 -0.0301089 0)
(0.0957385 -0.0365515 0)
(0.0940788 -0.0428667 0)
(0.0921787 -0.0490401 0)
(0.0900592 -0.0550601 0)
(0.0877484 -0.0609186 0)
(0.0852828 -0.0666129 0)
(0.0827091 -0.072147 0)
(0.0800842 -0.0775341 0)
(0.0774737 -0.0827977 0)
(0.0749475 -0.0879723 0)
(0.072571 -0.0931021 0)
(0.0703933 -0.0982363 0)
(0.0684345 -0.103422 0)
(0.0666754 -0.108697 0)
(0.0650533 -0.11408 0)
(0.0634688 -0.11957 0)
(0.0617995 -0.125144 0)
(0.0599191 -0.130765 0)
(0.0577135 -0.136388 0)
(0.0550921 -0.141961 0)
(0.0519918 -0.147437 0)
(0.0483755 -0.152771 0)
(0.0442277 -0.157921 0)
(0.0395494 -0.162854 0)
(0.0343526 -0.167541 0)
(0.0286564 -0.171958 0)
(0.022484 -0.176088 0)
(0.0158603 -0.179918 0)
(0.00881066 -0.183437 0)
(0.00136132 -0.186641 0)
(-0.00646141 -0.189527 0)
(-0.0146339 -0.192096 0)
(-0.0231346 -0.194352 0)
(-0.0319426 -0.196297 0)
(-0.0410377 -0.197939 0)
(-0.0504006 -0.199284 0)
(-0.0600125 -0.200342 0)
(-0.0698549 -0.20112 0)
(-0.0799097 -0.201629 0)
(-0.0901583 -0.201879 0)
(-0.100582 -0.201879 0)
(-0.111162 -0.20164 0)
(-0.121878 -0.20117 0)
(-0.13271 -0.20048 0)
(-0.143634 -0.199578 0)
(-0.154625 -0.198472 0)
(-0.165653 -0.197169 0)
(-0.176683 -0.195675 0)
(-0.18767 -0.193995 0)
(-0.198547 -0.192132 0)
(-0.209207 -0.190086 0)
(-0.219495 -0.187852 0)
(-0.229234 -0.185424 0)
(-0.238131 -0.182791 0)
(-0.245583 -0.179928 0)
(-0.250416 -0.176805 0)
(-0.25121 -0.173306 0)
(-0.247375 -0.169403 0)
(-0.239868 -0.165115 0)
(-0.230025 -0.160464 0)
(-0.218704 -0.15547 0)
(-0.206403 -0.150152 0)
(-0.193445 -0.144536 0)
(-0.180067 -0.138654 0)
(-0.166466 -0.132543 0)
(-0.152812 -0.126254 0)
(-0.139263 -0.119844 0)
(-0.125995 -0.113386 0)
(-0.113274 -0.10697 0)
(-0.101488 -0.10071 0)
(-0.0911161 -0.0947412 0)
(-0.0826404 -0.0892055 0)
(-0.0764127 -0.084223 0)
(-0.0725139 -0.0798454 0)
(-0.0707174 -0.0760254 0)
(-0.0705937 -0.0726289 0)
(-0.0716618 -0.0694866 0)
(-0.0734903 -0.0664477 0)
(-0.0757408 -0.0634049 0)
(-0.0781756 -0.0602941 0)
(-0.080643 -0.057082 0)
(-0.0830542 -0.053755 0)
(-0.0853592 -0.0503099 0)
(-0.0875299 -0.0467494 0)
(-0.0895494 -0.0430788 0)
(-0.0914071 -0.0393053 0)
(-0.0930955 -0.0354368 0)
(-0.0946089 -0.0314817 0)
(-0.0959428 -0.027449 0)
(-0.0970934 -0.0233481 0)
(-0.0980579 -0.0191884 0)
(-0.0988331 -0.0149796 0)
(-0.0994136 -0.0107313 0)
(-0.0997942 -0.00645317 0)
(-0.0999882 -0.00215478 0)
(0.0999817 -0.00304239 0)
(0.0996996 -0.00909551 0)
(0.0991404 -0.015099 0)
(0.0982893 -0.0210357 0)
(0.0971594 -0.0268892 0)
(0.0957633 -0.0326439 0)
(0.0941131 -0.0382853 0)
(0.0922237 -0.0438007 0)
(0.0901161 -0.0491796 0)
(0.0878181 -0.054415 0)
(0.0853661 -0.0595043 0)
(0.0828064 -0.0644512 0)
(0.0801956 -0.0692674 0)
(0.0775992 -0.0739738 0)
(0.0750868 -0.0786013 0)
(0.0727238 -0.0831893 0)
(0.0705597 -0.087782 0)
(0.068615 -0.0924218 0)
(0.066871 -0.0971423 0)
(0.0652659 -0.101961 0)
(0.0637002 -0.106877 0)
(0.0620518 -0.111871 0)
(0.0601939 -0.116911 0)
(0.0580117 -0.121955 0)
(0.0554136 -0.126959 0)
(0.0523353 -0.131879 0)
(0.0487386 -0.136675 0)
(0.0446069 -0.141312 0)
(0.03994 -0.145757 0)
(0.0347491 -0.149986 0)
(0.0290526 -0.153976 0)
(0.0228726 -0.157713 0)
(0.0162334 -0.161182 0)
(0.00915983 -0.164377 0)
(0.00167735 -0.167291 0)
(-0.00618801 -0.169921 0)
(-0.0144129 -0.172269 0)
(-0.0229765 -0.174336 0)
(-0.0318578 -0.176125 0)
(-0.0410367 -0.17764 0)
(-0.0504941 -0.178889 0)
(-0.0602108 -0.179878 0)
(-0.0701682 -0.180614 0)
(-0.0803475 -0.181104 0)
(-0.0907297 -0.181358 0)
(-0.101295 -0.181383 0)
(-0.112024 -0.181187 0)
(-0.122896 -0.180778 0)
(-0.133887 -0.180165 0)
(-0.144973 -0.179353 0)
(-0.156128 -0.178351 0)
(-0.167318 -0.177163 0)
(-0.178507 -0.175795 0)
(-0.189645 -0.17425 0)
(-0.200662 -0.172532 0)
(-0.211442 -0.17064 0)
(-0.221825 -0.16857 0)
(-0.231626 -0.166316 0)
(-0.240537 -0.16387 0)
(-0.247919 -0.161209 0)
(-0.252523 -0.158328 0)
(-0.252998 -0.155089 0)
(-0.248843 -0.15149 0)
(-0.241077 -0.147548 0)
(-0.231015 -0.143287 0)
(-0.219496 -0.138725 0)
(-0.207011 -0.133882 0)
(-0.193882 -0.128782 0)
(-0.180348 -0.123454 0)
(-0.166606 -0.117937 0)
(-0.15283 -0.112273 0)
(-0.139179 -0.106517 0)
(-0.125838 -0.100733 0)
(-0.113084 -0.0950021 0)
(-0.101317 -0.0894265 0)
(-0.091016 -0.0841254 0)
(-0.082658 -0.0792239 0)
(-0.0765725 -0.074823 0)
(-0.0728106 -0.0709615 0)
(-0.0711214 -0.0675897 0)
(-0.0710653 -0.0645839 0)
(-0.0721626 -0.0617939 0)
(-0.0739893 -0.0590886 0)
(-0.0762163 -0.0563762 0)
(-0.0786141 -0.053602 0)
(-0.0810378 -0.0507382 0)
(-0.0834029 -0.0477734 0)
(-0.0856621 -0.0447051 0)
(-0.0877887 -0.0415357 0)
(-0.0897667 -0.0382699 0)
(-0.0915859 -0.0349139 0)
(-0.0932393 -0.0314746 0)
(-0.0947213 -0.0279594 0)
(-0.0960274 -0.0243761 0)
(-0.0971541 -0.0207328 0)
(-0.0980985 -0.0170381 0)