/*--------------------------------*- C++ -*----------------------------------*\
  =========                 |
  \\      /  F ield         | OpenFOAM: The Open Source CFD Toolbox
   \\    /   O peration     | Website:  https://openfoam.org
    \\  /    A nd           | Version:  8
     \\/     M anipulation  |
\*---------------------------------------------------------------------------*/
FoamFile
{
    version     2.0;
    format      ascii;
    class       volScalarField;
    location    "1000/fluid";
    object      CH4;
}
// * * * * * * * * * * * * * * * * * * * * * * * * * * * * * * * * * * * * * //

dimensions      [0 0 0 0 0 0 0];

internalField   nonuniform List<scalar> 
4000
(
0.999997
0.999986
0.999968
0.999938
0.999888
0.999805
0.999667
0.999443
0.999079
0.998498
0.997582
0.996161
0.994
0.990787
0.986135
0.979597
0.970705
0.95903
0.944244
0.926172
0.904807
0.880303
0.85294
0.823085
0.791152
0.757573
0.722777
0.687176
0.651152
0.615054
0.579192
0.543836
0.509215
0.475517
0.442893
0.411463
0.381317
0.352518
0.325103
0.299088
0.274471
0.251236
0.229356
0.208793
0.189502
0.171435
0.154537
0.138755
0.124032
0.110312
0.0975413
0.0856658
0.0746354
0.0644024
0.0549231
0.0461577
0.0380717
0.0307375
0.024102
0.0178914
0.0122936
0.00732033
0.00328211
0.00230152
0.00159339
0.00108714
0.000729543
0.000480508
0.000309928
0.000195356
0.000120217
7.24383e-05
4.34142e-05
2.7311e-05
1.98741e-05
1.52533e-05
1.1316e-05
7.95843e-06
5.25126e-06
3.22671e-06
1.84292e-06
9.83122e-07
4.94409e-07
2.38155e-07
1.11339e-07
5.08239e-08
2.27518e-08
1.00212e-08
4.35398e-09
1.86988e-09
7.95151e-10
3.35282e-10
1.40337e-10
5.83419e-11
2.40784e-11
9.83611e-12
3.94053e-12
1.50723e-12
5.04017e-13
8.84106e-14
0.999997
0.999986
0.999968
0.999938
0.999888
0.999804
0.999666
0.999441
0.999076
0.998494
0.997579
0.996163
0.994017
0.990837
0.986246
0.979811
0.971073
0.959609
0.945086
0.927314
0.906267
0.882074
0.854995
0.825378
0.793628
0.760171
0.725438
0.689843
0.653775
0.617591
0.581609
0.546106
0.511319
0.477443
0.444635
0.413018
0.382689
0.353711
0.326125
0.299948
0.275181
0.251807
0.2298
0.209122
0.189728
0.171568
0.154589
0.138735
0.123949
0.110176
0.0973581
0.0854432
0.0743796
0.0641192
0.0546173
0.0458338
0.0377338
0.0303928
0.0237535
0.0175378
0.0119375
0.00697161
0.00322839
0.00226209
0.00156391
0.00106496
0.000712918
0.00046819
0.000300972
0.000189014
0.00011589
6.96573e-05
4.18266e-05
2.66822e-05
1.96931e-05
1.5025e-05
1.10292e-05
7.66796e-06
5.00245e-06
3.04486e-06
1.72958e-06
9.22585e-07
4.66412e-07
2.26339e-07
1.06745e-07
4.91684e-08
2.21978e-08
9.84939e-09
4.30497e-09
1.85717e-09
7.92179e-10
3.34627e-10
1.4016e-10
5.82578e-11
2.4024e-11
9.80207e-12
3.92159e-12
1.49808e-12
5.00446e-13
8.77552e-14
0.999997
0.999986
0.999968
0.999938
0.999887
0.999803
0.999665
0.999439
0.999074
0.998491
0.997577
0.996165
0.994031
0.990876
0.986332
0.979974
0.971353
0.960053
0.945744
0.928231
0.907475
0.88359
0.856818
0.827489
0.79599
0.762738
0.728156
0.692654
0.656624
0.620424
0.584378
0.54877
0.513843
0.479801
0.446807
0.414991
0.384454
0.355266
0.327471
0.301092
0.276129
0.252571
0.230392
0.209553
0.190013
0.171719
0.154618
0.138658
0.123778
0.109921
0.0970317
0.0850551
0.0739392
0.0636351
0.0540975
0.0452856
0.0371641
0.0298162
0.0231733
0.0169593
0.0113768
0.00642035
0.00318677
0.00222114
0.00152775
0.00103502
0.00068927
0.000450232
0.000287832
0.000179769
0.000109687
6.57747e-05
3.97096e-05
2.59399e-05
1.94177e-05
1.47056e-05
1.06809e-05
7.34727e-06
4.7474e-06
2.8685e-06
1.62273e-06
8.65001e-07
4.38275e-07
2.13415e-07
1.01094e-07
4.67947e-08
2.12337e-08
9.46831e-09
4.15743e-09
1.80082e-09
7.70778e-10
3.26475e-10
1.3702e-10
5.70283e-11
2.35339e-11
9.60429e-12
3.84194e-12
1.46717e-12
4.89894e-13
8.58753e-14
0.999997
0.999986
0.999968
0.999938
0.999888
0.999804
0.999666
0.999441
0.999078
0.998499
0.997593
0.996196
0.994086
0.99097
0.986486
0.980215
0.971715
0.960572
0.946454
0.929162
0.908648
0.885015
0.85849
0.829394
0.798104
0.765028
0.730582
0.695174
0.659192
0.622997
0.586913
0.55123
0.516194
0.482014
0.448859
0.416865
0.386138
0.356753
0.328759
0.302181
0.277025
0.253281
0.230924
0.209919
0.190222
0.171786
0.15456
0.138483
0.1235
0.109553
0.0965848
0.0845406
0.0733677
0.0630163
0.0534407
0.0445994
0.0364565
0.0291117
0.0224798
0.0162741
0.0106892
0.0057501
0.00314778
0.00218021
0.0014899
0.00100275
0.000663357
0.000430434
0.000273373
0.000169679
0.000103005
6.16687e-05
3.75402e-05
2.52321e-05
1.90535e-05
1.43012e-05
1.02717e-05
6.98528e-06
4.4647e-06
2.67317e-06
1.50266e-06
7.98476e-07
4.04476e-07
1.97313e-07
9.37434e-08
4.35484e-08
1.98379e-08
8.8814e-09
3.91516e-09
1.70228e-09
7.31135e-10
3.10648e-10
1.3073e-10
5.45336e-11
2.25459e-11
9.21429e-12
3.6898e-12
1.41006e-12
4.70965e-13
8.25637e-14
0.999997
0.999986
0.999968
0.999938
0.999888
0.999805
0.999668
0.999444
0.999083
0.99851
0.997611
0.996228
0.99414
0.991058
0.986626
0.98043
0.972033
0.961022
0.947067
0.929963
0.909653
0.886231
0.859916
0.831017
0.799902
0.766975
0.732645
0.697318
0.66138
0.625191
0.589079
0.553333
0.518205
0.483908
0.450615
0.418467
0.387572
0.358012
0.329839
0.303082
0.27775
0.253834
0.231314
0.210152
0.190309
0.171742
0.154393
0.138206
0.123126
0.109093
0.0960507
0.0839438
0.0727186
0.062325
0.052716
0.0438496
0.0356994
0.0283811
0.0217482
0.0155329
0.00996233
0.00508108
0.0031075
0.0021339
0.00144617
0.000965618
0.000633987
0.00040843
0.000257642
0.000158932
9.60284e-05
5.74525e-05
3.53687e-05
2.4571e-05
1.85848e-05
1.38186e-05
9.82608e-06
6.61761e-06
4.19284e-06
2.49317e-06
1.39545e-06
7.40273e-07
3.75198e-07
1.83388e-07
8.73574e-08
4.07001e-08
1.85948e-08
8.34825e-09
3.68967e-09
1.60798e-09
6.92052e-10
2.94565e-10
1.24148e-10
5.18522e-11
2.14586e-11
8.77671e-12
3.51648e-12
1.34427e-12
4.49017e-13
7.87102e-14
0.999997
0.999986
0.999968
0.999939
0.999889
0.999806
0.99967
0.999448
0.999091
0.998523
0.997634
0.996265
0.9942
0.991154
0.986772
0.980646
0.972342
0.961448
0.947631
0.930682
0.910539
0.887289
0.86114
0.832396
0.801419
0.768607
0.734366
0.699099
0.663191
0.627002
0.59086
0.555057
0.519848
0.485448
0.452035
0.419752
0.388712
0.358999
0.33067
0.303755
0.278266
0.254198
0.23153
0.210232
0.190266
0.171581
0.154124
0.137842
0.122676
0.108569
0.0954641
0.0833052
0.0720388
0.0616139
0.0519832
0.0431101
0.0349504
0.0276393
0.0209936
0.0147872
0.00923491
0.00441458
0.00301664
0.00204701
0.00137497
0.000911611
0.000595001
0.000381345
0.000239468
0.000147169
8.87346e-05
5.32009e-05
3.32002e-05
2.364e-05
1.79321e-05
1.3258e-05
9.36339e-06
6.26124e-06
3.94025e-06
2.32979e-06
1.29888e-06
6.87607e-07
3.48328e-07
1.70408e-07
8.12983e-08
3.79485e-08
1.73736e-08
7.81666e-09
3.46204e-09
1.51184e-09
6.51912e-10
2.77958e-10
1.17328e-10
4.90688e-11
2.03291e-11
8.32207e-12
3.33644e-12
1.27596e-12
4.26233e-13
7.47105e-14
0.999997
0.999986
0.999969
0.999939
0.99989
0.999808
0.999673
0.999453
0.999099
0.998537
0.997656
0.996301
0.994257
0.991242
0.986906
0.980842
0.972618
0.961824
0.948125
0.931307
0.911303
0.888192
0.862178
0.833558
0.802689
0.769965
0.735789
0.700563
0.664671
0.628473
0.592298
0.55644
0.521156
0.486664
0.453144
0.420742
0.389576
0.359731
0.331266
0.304218
0.278596
0.254397
0.231604
0.21019
0.190113
0.171326
0.153779
0.137415
0.122178
0.10801
0.0948552
0.0826565
0.0713612
0.060919
0.0512842
0.0424096
0.034255
0.0270239
0.0202298
0.0140803
0.00857576
0.00380986
0.0026615
0.00183228
0.00124233
0.000828584
0.000542746
0.000348515
0.000219018
0.000134627
8.12268e-05
4.89101e-05
3.09847e-05
2.25979e-05
1.72331e-05
1.27273e-05
8.96044e-06
5.96473e-06
3.73498e-06
2.19859e-06
1.22175e-06
6.45545e-07
3.26776e-07
1.5992e-07
7.63522e-08
3.56745e-08
1.63502e-08
7.36453e-09
3.26549e-09
1.42759e-09
6.16235e-10
2.63008e-10
1.11118e-10
4.6509e-11
1.92818e-11
7.89765e-12
3.16746e-12
1.21159e-12
4.04706e-13
7.0926e-14
0.999997
0.999986
0.999969
0.99994
0.999891
0.999809
0.999676
0.999458
0.999107
0.99855
0.997678
0.996336
0.994311
0.991325
0.987029
0.981019
0.972866
0.962157
0.948557
0.931848
0.911958
0.88896
0.863053
0.834529
0.803743
0.771084
0.736954
0.701753
0.665865
0.629651
0.59344
0.557529
0.522175
0.487599
0.453984
0.421478
0.3902
0.36024
0.331657
0.30449
0.278753
0.254447
0.231553
0.210041
0.189873
0.171004
0.153381
0.136951
0.121657
0.107441
0.0942454
0.0820151
0.0706958
0.0602366
0.0505899
0.0417123
0.0336017
0.0263996
0.0196337
0.0135424
0.00812989
0.00350673
0.00244661
0.00168522
0.0011441
0.000764258
0.000501437
0.000322567
0.000203163
0.000125309
7.60957e-05
4.63921e-05
3.01161e-05
2.22781e-05
1.69302e-05
1.24311e-05
8.69937e-06
5.75754e-06
3.58532e-06
2.10014e-06
1.16249e-06
6.12529e-07
3.09506e-07
1.51368e-07
7.22534e-08
3.37625e-08
1.54787e-08
6.97516e-09
3.09459e-09
1.35373e-09
5.84744e-10
2.49735e-10
1.05579e-10
4.42173e-11
1.83413e-11
7.51564e-12
3.01508e-12
1.15345e-12
3.85246e-13
6.75027e-14
0.999997
0.999987
0.999969
0.99994
0.999891
0.999811
0.999678
0.999462
0.999115
0.998562
0.997697
0.996367
0.99436
0.991399
0.987138
0.981176
0.973082
0.962446
0.94893
0.932311
0.912514
0.889608
0.863786
0.835337
0.804613
0.772001
0.737901
0.702713
0.666821
0.630586
0.594338
0.558374
0.522956
0.488305
0.454605
0.422008
0.390635
0.360578
0.331897
0.30463
0.278797
0.254398
0.231416
0.209822
0.189579
0.170641
0.152958
0.136475
0.121136
0.106883
0.0936577
0.0814055
0.0700721
0.0596067
0.0499627
0.0410985
0.0330295
0.0258503
0.0191173
0.0130758
0.00773613
0.00332007
0.0023152
0.0015938
0.00108135
0.000721795
0.000473112
0.00030396
0.000191162
0.000117761
7.15445e-05
4.39147e-05
2.90894e-05
2.19463e-05
1.67392e-05
1.22733e-05
8.55401e-06
5.62931e-06
3.48531e-06
2.03082e-06
1.1192e-06
5.87742e-07
2.96255e-07
1.44691e-07
6.90042e-08
3.22257e-08
1.47694e-08
6.65467e-09
2.95248e-09
1.29176e-09
5.58108e-10
2.38431e-10
1.00834e-10
4.22442e-11
1.75284e-11
7.18437e-12
2.8826e-12
1.10282e-12
3.68279e-13
6.45133e-14
0.999997
0.999987
0.999969
0.999941
0.999892
0.999812
0.999681
0.999466
0.999121
0.998573
0.997715
0.996395
0.994403
0.991464
0.987234
0.981312
0.973269
0.962695
0.949247
0.932703
0.912982
0.890149
0.864394
0.836003
0.805326
0.772746
0.738666
0.703482
0.667579
0.631319
0.595034
0.559021
0.523543
0.488824
0.455049
0.422372
0.390915
0.360772
0.332006
0.304659
0.278748
0.254273
0.231219
0.209558
0.189254
0.170262
0.152531
0.136007
0.120633
0.106351
0.0931045
0.0808368
0.069494
0.059025
0.0493827
0.0405251
0.0324837
0.0253245
0.0186043
0.0125715
0.00722944
0.00323029
0.00225026
0.00154809
0.0010501
0.000701111
0.000459908
0.000295878
0.000186461
0.000115211
7.03335e-05
4.35559e-05
2.93125e-05
2.21912e-05
1.68375e-05
1.22768e-05
8.51186e-06
5.56999e-06
3.42636e-06
1.98489e-06
1.08863e-06
5.69503e-07
2.86209e-07
1.39523e-07
6.64469e-08
3.09994e-08
1.41967e-08
6.39339e-09
2.83566e-09
1.24045e-09
5.35925e-10
2.2897e-10
9.68456e-11
4.05803e-11
1.68409e-11
6.90362e-12
2.77013e-12
1.05978e-12
3.5383e-13
6.19855e-14
0.999997
0.999987
0.99997
0.999941
0.999893
0.999813
0.999683
0.99947
0.999127
0.998583
0.997731
0.996419
0.994441
0.991521
0.987316
0.981428
0.973429
0.962905
0.949515
0.933032
0.913373
0.890598
0.864896
0.836549
0.805905
0.773349
0.739278
0.704092
0.668175
0.631889
0.595567
0.559509
0.523977
0.489198
0.455358
0.422613
0.391086
0.36087
0.332033
0.304617
0.278639
0.254101
0.230988
0.209273
0.188921
0.169885
0.152116
0.13556
0.120159
0.105857
0.0925949
0.0803168
0.0689683
0.0584978
0.0488576
0.0400056
0.0319795
0.024834
0.0181285
0.0121125
0.00678966
0.00319355
0.00222165
0.00152652
0.00103428
0.000689819
0.000452089
0.000290657
0.000183153
0.000113294
6.9407e-05
4.33441e-05
2.96855e-05
2.26053e-05
1.70965e-05
1.24026e-05
8.54747e-06
5.55865e-06
3.39967e-06
1.95769e-06
1.06833e-06
5.56627e-07
2.78838e-07
1.35637e-07
6.44865e-08
3.00448e-08
1.37454e-08
6.1853e-09
2.7418e-09
1.19893e-09
5.17863e-10
2.21227e-10
9.35682e-11
3.92084e-11
1.62727e-11
6.67105e-12
2.67677e-12
1.02411e-12
3.41819e-13
5.98974e-14
0.999997
0.999987
0.99997
0.999941
0.999894
0.999815
0.999685
0.999473
0.999132
0.998591
0.997744
0.996441
0.994473
0.991569
0.987387
0.981527
0.973564
0.963082
0.94974
0.933306
0.913696
0.890968
0.865307
0.836993
0.806374
0.773831
0.739765
0.704572
0.668639
0.632327
0.595971
0.559871
0.524292
0.489459
0.455563
0.422758
0.39117
0.360895
0.332001
0.304526
0.278493
0.253903
0.230743
0.208985
0.188593
0.169524
0.151726
0.135145
0.119725
0.105408
0.0921358
0.0798516
0.0685011
0.0580328
0.0484008
0.0395617
0.031548
0.024413
0.0177191
0.0117161
0.00640598
0.00317145
0.00220756
0.00151785
0.0010292
0.000687029
0.00045068
0.000290055
0.000183006
0.000113415
6.97313e-05
4.38848e-05
3.0496e-05
2.32563e-05
1.75084e-05
1.26304e-05
8.6506e-06
5.5888e-06
3.39632e-06
1.94532e-06
1.05621e-06
5.48044e-07
2.73636e-07
1.32801e-07
6.30217e-08
2.93188e-08
1.33973e-08
6.02307e-09
2.66798e-09
1.16603e-09
5.03465e-10
2.15024e-10
9.0932e-11
3.81013e-11
1.58129e-11
6.4826e-12
2.60117e-12
9.95241e-13
3.32134e-13
5.82001e-14
0.999997
0.999987
0.99997
0.999942
0.999894
0.999815
0.999686
0.999476
0.999137
0.998598
0.997756
0.996458
0.994501
0.99161
0.987446
0.98161
0.973676
0.963229
0.949925
0.933532
0.913962
0.89127
0.86564
0.837351
0.806749
0.774215
0.740148
0.704947
0.668997
0.632661
0.596274
0.560136
0.524515
0.489636
0.455692
0.422837
0.391199
0.360874
0.331929
0.304408
0.27833
0.253698
0.230499
0.208707
0.188285
0.169189
0.151369
0.13477
0.119336
0.105009
0.09173
0.0794432
0.0680945
0.0576323
0.0480067
0.0391706
0.0311698
0.0240496
0.0173692
0.0113798
0.00608274
0.00315313
0.00219789
0.00151324
0.00102746
0.000686818
0.000451228
0.000290912
0.000183937
0.000114323
7.06115e-05
4.48019e-05
3.15598e-05
2.40549e-05
1.80203e-05
1.29262e-05
8.79954e-06
5.64939e-06
3.41211e-06
1.94356e-06
1.05064e-06
5.42982e-07
2.70219e-07
1.30844e-07
6.19778e-08
2.87891e-08
1.31388e-08
5.90089e-09
2.61176e-09
1.14075e-09
4.92317e-10
2.10192e-10
8.88679e-11
3.7231e-11
1.54504e-11
6.33363e-12
2.54134e-12
9.72315e-13
3.24483e-13
5.68575e-14
0.999997
0.999987
0.99997
0.999942
0.999895
0.999816
0.999688
0.999478
0.999141
0.998604
0.997765
0.996473
0.994523
0.991644
0.987495
0.981679
0.973768
0.96335
0.950077
0.933716
0.914177
0.891513
0.865908
0.837637
0.807046
0.774517
0.740448
0.705237
0.669271
0.632912
0.596497
0.560327
0.524669
0.489752
0.455766
0.422869
0.391189
0.360822
0.331838
0.304278
0.278164
0.253499
0.230269
0.20845
0.188004
0.168888
0.151051
0.134439
0.118996
0.104662
0.0913808
0.0790959
0.0677511
0.0572911
0.0476677
0.0388397
0.0308523
0.0237443
0.0170755
0.011098
0.00581217
0.00313781
0.00219166
0.00151203
0.00102875
0.000689134
0.000453752
0.000293239
0.000185913
0.000115939
7.19437e-05
4.59729e-05
3.27054e-05
2.49041e-05
1.85747e-05
1.32567e-05
8.97544e-06
5.72983e-06
3.44167e-06
1.95052e-06
1.04986e-06
5.40794e-07
2.6831e-07
1.29642e-07
6.12948e-08
2.84278e-08
1.29573e-08
5.81317e-09
2.57072e-09
1.12205e-09
4.83988e-10
2.06551e-10
8.73027e-11
3.65674e-11
1.51728e-11
6.21917e-12
2.49528e-12
9.54629e-13
3.18575e-13
5.58228e-14
0.999997
0.999987
0.99997
0.999942
0.999895
0.999817
0.999689
0.99948
0.999144
0.998609
0.997773
0.996486
0.994542
0.991671
0.987534
0.981734
0.973843
0.963447
0.950199
0.933863
0.914348
0.891707
0.866119
0.837862
0.807279
0.774752
0.740679
0.705459
0.669477
0.633099
0.596659
0.560462
0.524773
0.489823
0.455804
0.422873
0.391158
0.360757
0.33174
0.304149
0.278006
0.253315
0.230062
0.208221
0.187757
0.168626
0.150777
0.134156
0.118707
0.104371
0.0910895
0.0788033
0.067457
0.0570003
0.0473841
0.0385643
0.0305891
0.0234912
0.0168314
0.010862
0.00559411
0.0031252
0.00218813
0.00151328
0.00103218
0.000693232
0.000457697
0.000296654
0.000188686
0.000118111
7.36328e-05
4.73335e-05
3.38782e-05
2.5775e-05
1.91544e-05
1.36115e-05
9.17187e-06
5.82615e-06
3.48249e-06
1.96482e-06
1.05338e-06
5.40774e-07
2.67608e-07
1.29039e-07
6.09091e-08
2.82071e-08
1.28401e-08
5.7544e-09
2.54246e-09
1.10891e-09
4.78041e-10
2.0392e-10
8.61604e-11
3.60795e-11
1.49676e-11
6.13416e-12
2.46098e-12
9.41432e-13
3.14158e-13
5.50518e-14
0.999997
0.999987
0.99997
0.999942
0.999895
0.999817
0.99969
0.999481
0.999146
0.998613
0.997779
0.996495
0.994557
0.991693
0.987566
0.981778
0.973902
0.963524
0.950295
0.933979
0.914483
0.891858
0.866284
0.838036
0.807458
0.774931
0.740854
0.705625
0.66963
0.633235
0.596775
0.560555
0.524841
0.489865
0.455818
0.422859
0.391117
0.360689
0.331646
0.304031
0.277866
0.253154
0.229882
0.208026
0.187549
0.168407
0.150551
0.133924
0.118471
0.104131
0.0908458
0.0785599
0.0672173
0.0567655
0.0471555
0.0383428
0.0303777
0.0232882
0.0166358
0.0106726
0.00542044
0.00311506
0.00218701
0.00151674
0.00103752
0.000698905
0.000462893
0.000301028
0.000192168
0.000120784
7.5657e-05
4.88966e-05
3.51485e-05
2.67018e-05
1.97736e-05
1.39951e-05
9.38927e-06
5.93731e-06
3.53327e-06
1.98541e-06
1.06064e-06
5.42829e-07
2.67909e-07
1.28913e-07
6.07412e-08
2.80912e-08
1.27727e-08
5.7185e-09
2.52435e-09
1.10024e-09
4.74016e-10
2.02112e-10
8.53649e-11
3.5737e-11
1.48225e-11
6.07364e-12
2.43676e-12
9.31998e-13
3.11008e-13
5.45032e-14
0.999997
0.999987
0.99997
0.999942
0.999895
0.999818
0.99969
0.999483
0.999148
0.998616
0.997784
0.996503
0.994568
0.99171
0.98759
0.981812
0.973948
0.963583
0.950368
0.934067
0.914585
0.891972
0.866408
0.838167
0.807592
0.775065
0.740983
0.705747
0.669741
0.633332
0.596856
0.560618
0.524885
0.489888
0.45582
0.42284
0.391077
0.360629
0.331566
0.303933
0.277751
0.253023
0.229739
0.207871
0.187385
0.168235
0.150371
0.133739
0.11828
0.103939
0.0906544
0.0783705
0.0670314
0.0565841
0.0469795
0.0381729
0.0302156
0.0231329
0.016486
0.0105268
0.00528532
0.00310714
0.00218804
0.00152214
0.00104453
0.000705949
0.000469177
0.000306236
0.000196268
0.000123898
7.79776e-05
5.06391e-05
3.65029e-05
2.76748e-05
2.0423e-05
1.43995e-05
9.62133e-06
6.05877e-06
3.591e-06
2.01036e-06
1.07046e-06
5.46299e-07
2.6896e-07
1.29166e-07
6.07595e-08
2.80593e-08
1.27431e-08
5.69969e-09
2.51413e-09
1.0951e-09
4.71547e-10
2.00978e-10
8.48541e-11
3.55193e-11
1.47275e-11
6.03424e-12
2.42115e-12
9.25791e-13
3.08948e-13
5.41444e-14
0.999997
0.999987
0.99997
0.999942
0.999896
0.999818
0.999691
0.999483
0.999149
0.998619
0.997788
0.996508
0.994577
0.991722
0.987608
0.981836
0.973981
0.963625
0.950421
0.93413
0.914658
0.892054
0.866496
0.83826
0.807687
0.775159
0.741074
0.705832
0.669818
0.633399
0.596911
0.560659
0.524911
0.489899
0.455816
0.42282
0.391042
0.360579
0.331503
0.303857
0.277663
0.252925
0.229631
0.207754
0.18726
0.168103
0.150234
0.133599
0.11814
0.103798
0.0905148
0.0782332
0.0668972
0.0564539
0.0468539
0.0380523
0.0301004
0.0230227
0.0163793
0.0104219
0.00518612
0.00310129
0.00219099
0.00152921
0.00105291
0.000714086
0.000476306
0.000312077
0.000200827
0.000127331
8.0504e-05
5.24923e-05
3.78856e-05
2.86493e-05
2.1068e-05
1.47997e-05
9.85159e-06
6.18053e-06
3.64998e-06
2.0366e-06
1.08123e-06
5.50393e-07
2.70384e-07
1.29632e-07
6.08889e-08
2.80866e-08
1.27414e-08
5.69494e-09
2.51006e-09
1.0929e-09
4.70329e-10
2.00441e-10
8.45868e-11
3.54089e-11
1.46763e-11
6.01268e-12
2.41247e-12
9.22237e-13
3.07778e-13
5.39393e-14
0.999997
0.999987
0.99997
0.999942
0.999896
0.999818
0.999691
0.999484
0.99915
0.99862
0.99779
0.996512
0.994582
0.99173
0.987619
0.981852
0.974002
0.963653
0.950455
0.934171
0.914705
0.892107
0.866553
0.83832
0.807748
0.775219
0.741132
0.705885
0.669866
0.63344
0.596944
0.560683
0.524926
0.489904
0.455811
0.422805
0.391016
0.360544
0.331458
0.303803
0.277601
0.252856
0.229555
0.207674
0.187175
0.168016
0.150145
0.133508
0.118048
0.103707
0.0904253
0.0781457
0.0668124
0.0563722
0.0467758
0.0379779
0.0300295
0.022955
0.0163134
0.0103557
0.0051209
0.00309744
0.00219548
0.00153736
0.001062
0.000722661
0.000483683
0.000318048
0.000205445
0.000130777
8.30095e-05
5.4286e-05
3.91638e-05
2.95231e-05
2.16347e-05
1.51462e-05
1.00491e-05
6.28468e-06
3.7006e-06
2.05931e-06
1.09068e-06
5.54059e-07
2.71691e-07
1.30152e-07
6.10442e-08
2.81492e-08
1.27552e-08
5.70003e-09
2.51003e-09
1.09281e-09
4.69977e-10
2.00291e-10
8.44834e-11
3.53654e-11
1.46542e-11
6.00252e-12
2.4085e-12
9.20512e-13
3.07205e-13
5.38399e-14
0.999997
0.999987
0.99997
0.999942
0.999896
0.999818
0.999691
0.999484
0.999151
0.998621
0.997791
0.996514
0.994585
0.991734
0.987625
0.98186
0.974012
0.963666
0.950471
0.93419
0.914728
0.892132
0.86658
0.838348
0.807776
0.775247
0.741159
0.70591
0.669889
0.633459
0.596959
0.560694
0.524933
0.489906
0.455807
0.422797
0.391003
0.360526
0.331436
0.303777
0.277571
0.252823
0.229519
0.207635
0.187135
0.167974
0.150102
0.133465
0.118005
0.103664
0.0903833
0.0781051
0.0667734
0.0563352
0.0467409
0.0379453
0.0299989
0.0229262
0.0162851
0.0103259
0.00508869
0.00309554
0.00220033
0.00154477
0.00106976
0.000729711
0.000489598
0.000322752
0.000209035
0.000133427
8.49091e-05
5.56075e-05
4.00417e-05
3.00893e-05
2.19867e-05
1.53545e-05
1.0165e-05
6.34471e-06
3.72949e-06
2.07224e-06
1.09608e-06
5.56166e-07
2.72449e-07
1.30466e-07
6.11428e-08
2.81901e-08
1.27661e-08
5.70438e-09
2.5108e-09
1.09309e-09
4.69937e-10
2.00269e-10
8.44538e-11
3.53506e-11
1.46477e-11
5.99838e-12
2.40709e-12
9.19842e-13
3.06984e-13
5.38016e-14
0.999997
0.999987
0.99997
0.999942
0.999896
0.999818
0.999691
0.999484
0.999151
0.998621
0.997791
0.996514
0.994585
0.991734
0.987625
0.98186
0.974012
0.963666
0.950471
0.93419
0.914728
0.892132
0.86658
0.838348
0.807776
0.775247
0.741159
0.70591
0.669889
0.633459
0.596959
0.560694
0.524933
0.489906
0.455807
0.422797
0.391003
0.360526
0.331436
0.303777
0.277571
0.252823
0.229519
0.207635
0.187135
0.167974
0.150102
0.133465
0.118005
0.103664
0.0903834
0.0781051
0.0667734
0.0563352
0.046741
0.0379453
0.029999
0.0229263
0.0162851
0.010326
0.00508872
0.00309554
0.00220033
0.00154477
0.00106976
0.000729711
0.000489599
0.000322752
0.000209035
0.000133427
8.49093e-05
5.56077e-05
4.00417e-05
3.00894e-05
2.19867e-05
1.53545e-05
1.0165e-05
6.34472e-06
3.7295e-06
2.07224e-06
1.09608e-06
5.56169e-07
2.72448e-07
1.30466e-07
6.11436e-08
2.81895e-08
1.27661e-08
5.70424e-09
2.51078e-09
1.09306e-09
4.69931e-10
2.00262e-10
8.44523e-11
3.53469e-11
1.46483e-11
5.9979e-12
2.40697e-12
9.1982e-13
3.06972e-13
5.38e-14
0.999997
0.999987
0.99997
0.999942
0.999896
0.999818
0.999691
0.999484
0.99915
0.99862
0.99779
0.996512
0.994582
0.99173
0.987619
0.981852
0.974002
0.963653
0.950455
0.934171
0.914705
0.892107
0.866553
0.838319
0.807747
0.775219
0.741132
0.705885
0.669866
0.63344
0.596944
0.560683
0.524926
0.489904
0.455811
0.422805
0.391016
0.360544
0.331458
0.303803
0.277601
0.252856
0.229556
0.207674
0.187175
0.168016
0.150145
0.133508
0.118049
0.103707
0.0904255
0.0781459
0.0668125
0.0563723
0.0467759
0.037978
0.0300296
0.0229552
0.0163135
0.0103558
0.00512099
0.00309745
0.00219549
0.00153737
0.00106201
0.000722663
0.000483685
0.00031805
0.000205446
0.000130778
8.301e-05
5.42863e-05
3.9164e-05
2.95233e-05
2.16348e-05
1.51463e-05
1.00492e-05
6.28471e-06
3.70063e-06
2.05933e-06
1.09069e-06
5.54065e-07
2.71689e-07
1.30153e-07
6.10463e-08
2.81479e-08
1.27552e-08
5.69969e-09
2.50999e-09
1.09274e-09
4.69966e-10
2.00272e-10
8.44814e-11
3.53543e-11
1.46562e-11
6.00129e-12
2.40824e-12
9.2047e-13
3.07177e-13
5.38365e-14
0.999997
0.999987
0.99997
0.999942
0.999896
0.999818
0.999691
0.999483
0.999149
0.998619
0.997788
0.996508
0.994577
0.991722
0.987608
0.981836
0.97398
0.963625
0.950421
0.93413
0.914658
0.892054
0.866496
0.83826
0.807687
0.775158
0.741074
0.705831
0.669818
0.633398
0.596911
0.560659
0.524911
0.489899
0.455816
0.42282
0.391042
0.360579
0.331503
0.303857
0.277663
0.252925
0.229631
0.207754
0.18726
0.168103
0.150235
0.133599
0.11814
0.103798
0.090515
0.0782334
0.0668974
0.0564541
0.0468541
0.0380525
0.0301006
0.0230229
0.0163795
0.010422
0.00518628
0.0031013
0.002191
0.00152921
0.00105291
0.00071409
0.000476309
0.000312079
0.000200829
0.000127332
8.05049e-05
5.24928e-05
3.78859e-05
2.86495e-05
2.10682e-05
1.47998e-05
9.85167e-06
6.18058e-06
3.65001e-06
2.03662e-06
1.08125e-06
5.50401e-07
2.70385e-07
1.29634e-07
6.08908e-08
2.8086e-08
1.27416e-08
5.69474e-09
2.51005e-09
1.09285e-09
4.70326e-10
2.00415e-10
8.45932e-11
3.53936e-11
1.46791e-11
6.01136e-12
2.41226e-12
9.22203e-13
3.07752e-13
5.39372e-14
0.999997
0.999987
0.99997
0.999942
0.999895
0.999818
0.99969
0.999482
0.999148
0.998616
0.997784
0.996503
0.994568
0.99171
0.98759
0.981812
0.973948
0.963583
0.950368
0.934067
0.914584
0.891972
0.866407
0.838166
0.807591
0.775064
0.740983
0.705746
0.669741
0.633332
0.596856
0.560618
0.524885
0.489888
0.45582
0.42284
0.391077
0.360629
0.331566
0.303933
0.277751
0.253024
0.229739
0.207872
0.187385
0.168235
0.150372
0.133739
0.118281
0.103939
0.0906547
0.0783708
0.0670317
0.0565844
0.0469798
0.0381732
0.0302159
0.0231332
0.0164862
0.010527
0.00528555
0.00310715
0.00218805
0.00152215
0.00104454
0.000705955
0.000469182
0.000306239
0.000196271
0.0001239
7.79788e-05
5.06399e-05
3.65033e-05
2.76751e-05
2.04232e-05
1.43996e-05
9.62143e-06
6.05884e-06
3.59104e-06
2.01039e-06
1.07047e-06
5.46309e-07
2.68965e-07
1.29169e-07
6.07608e-08
2.80597e-08
1.27433e-08
5.69977e-09
2.51416e-09
1.09511e-09
4.71549e-10
2.00976e-10
8.48568e-11
3.55135e-11
1.47293e-11
6.03366e-12
2.42108e-12
9.25805e-13
3.08934e-13
5.41445e-14
0.999997
0.999987
0.99997
0.999942
0.999895
0.999817
0.99969
0.999481
0.999146
0.998613
0.997779
0.996495
0.994557
0.991693
0.987566
0.981778
0.973902
0.963524
0.950294
0.933978
0.914482
0.891858
0.866283
0.838036
0.807458
0.774931
0.740854
0.705625
0.66963
0.633235
0.596775
0.560555
0.524841
0.489865
0.455818
0.422859
0.391117
0.360689
0.331646
0.304031
0.277866
0.253154
0.229883
0.208026
0.187549
0.168408
0.150551
0.133925
0.118471
0.104131
0.0908462
0.0785603
0.0672177
0.0567659
0.0471558
0.0383432
0.0303781
0.0232886
0.0166362
0.0106729
0.00542077
0.00311508
0.00218703
0.00151676
0.00103753
0.000698913
0.000462899
0.000301032
0.000192171
0.000120787
7.56586e-05
4.88976e-05
3.5149e-05
2.67021e-05
1.97738e-05
1.39953e-05
9.3894e-06
5.9374e-06
3.53334e-06
1.98545e-06
1.06067e-06
5.42842e-07
2.67916e-07
1.28916e-07
6.0743e-08
2.80919e-08
1.27731e-08
5.71865e-09
2.52442e-09
1.10027e-09
4.7403e-10
2.02117e-10
8.53675e-11
3.57375e-11
1.48231e-11
6.07369e-12
2.43681e-12
9.32042e-13
3.11009e-13
5.45057e-14
0.999997
0.999987
0.99997
0.999942
0.999895
0.999817
0.999689
0.99948
0.999144
0.998609
0.997773
0.996486
0.994542
0.991671
0.987534
0.981734
0.973843
0.963447
0.950198
0.933863
0.914348
0.891707
0.866119
0.837862
0.807278
0.774751
0.740678
0.705458
0.669477
0.633098
0.596659
0.560461
0.524773
0.489823
0.455804
0.422873
0.391158
0.360757
0.33174
0.304149
0.278006
0.253315
0.230062
0.208221
0.187758
0.168626
0.150777
0.134156
0.118707
0.104371
0.09109
0.0788038
0.0674575
0.0570008
0.0473846
0.0385648
0.0305896
0.0234916
0.0168319
0.0108624
0.00559453
0.00312523
0.00218815
0.0015133
0.00103219
0.000693243
0.000457705
0.00029666
0.00018869
0.000118114
7.36345e-05
4.73345e-05
3.38786e-05
2.57753e-05
1.91547e-05
1.36117e-05
9.17202e-06
5.82626e-06
3.48256e-06
1.96487e-06
1.05341e-06
5.4079e-07
2.67617e-07
1.29043e-07
6.09113e-08
2.82082e-08
1.28406e-08
5.75462e-09
2.54256e-09
1.10896e-09
4.7806e-10
2.03928e-10
8.61639e-11
3.6081e-11
1.49683e-11
6.13439e-12
2.46108e-12
9.41484e-13
3.14166e-13
5.50558e-14
0.999997
0.999987
0.99997
0.999942
0.999895
0.999816
0.999688
0.999478
0.999141
0.998604
0.997765
0.996473
0.994523
0.991644
0.987494
0.981678
0.973768
0.96335
0.950076
0.933715
0.914176
0.891513
0.865907
0.837636
0.807045
0.774516
0.740447
0.705237
0.66927
0.632912
0.596496
0.560327
0.524669
0.489751
0.455766
0.422869
0.391189
0.360822
0.331838
0.304278
0.278164
0.253499
0.23027
0.20845
0.188005
0.168889
0.151052
0.13444
0.118996
0.104662
0.0913813
0.0790965
0.0677517
0.0572917
0.0476683
0.0388403
0.0308529
0.0237448
0.0170761
0.0110985
0.0058127
0.00313782
0.00219167
0.00151204
0.00102875
0.000689142
0.000453759
0.000293246
0.000185919
0.000115944
7.19472e-05
4.59753e-05
3.27067e-05
2.49048e-05
1.85752e-05
1.3257e-05
8.97563e-06
5.72996e-06
3.44176e-06
1.95058e-06
1.04989e-06
5.40813e-07
2.6832e-07
1.29648e-07
6.12974e-08
2.84291e-08
1.29579e-08
5.81344e-09
2.57084e-09
1.12211e-09
4.84012e-10
2.06562e-10
8.73072e-11
3.65694e-11
1.51737e-11
6.2195e-12
2.49542e-12
9.54689e-13
3.18587e-13
5.58283e-14
0.999997
0.999987
0.99997
0.999942
0.999894
0.999815
0.999686
0.999476
0.999137
0.998598
0.997755
0.996458
0.994501
0.99161
0.987446
0.98161
0.973676
0.963229
0.949925
0.933531
0.913961
0.891269
0.865639
0.837351
0.806748
0.774214
0.740148
0.704947
0.668997
0.632661
0.596273
0.560136
0.524514
0.489636
0.455692
0.422837
0.391199
0.360874
0.331929
0.304408
0.27833
0.253699
0.2305
0.208707
0.188285
0.16919
0.151369
0.134771
0.119337
0.105009
0.0917307
0.0794439
0.0680952
0.0576331
0.0480075
0.0391713
0.0311705
0.0240502
0.0173698
0.0113804
0.00608329
0.00315318
0.00219796
0.00151331
0.00102752
0.000686861
0.000451254
0.000290926
0.000183943
0.000114324
7.06098e-05
4.47994e-05
3.15578e-05
2.4054e-05
1.802e-05
1.29262e-05
8.79964e-06
5.6495e-06
3.4122e-06
1.94362e-06
1.05067e-06
5.43003e-07
2.7023e-07
1.3085e-07
6.19808e-08
2.87906e-08
1.31395e-08
5.90121e-09
2.61191e-09
1.14082e-09
4.92346e-10
2.10204e-10
8.88734e-11
3.72333e-11
1.54514e-11
6.33402e-12
2.54151e-12
9.72384e-13
3.24499e-13
5.68638e-14
0.999997
0.999987
0.99997
0.999941
0.999894
0.999815
0.999685
0.999473
0.999132
0.998591
0.997744
0.99644
0.994473
0.991569
0.987386
0.981527
0.973563
0.963082
0.949739
0.933306
0.913696
0.890967
0.865306
0.836993
0.806373
0.77383
0.739764
0.704572
0.668638
0.632327
0.595971
0.559871
0.524291
0.489459
0.455563
0.422758
0.39117
0.360895
0.332001
0.304527
0.278494
0.253904
0.230743
0.208985
0.188594
0.169524
0.151726
0.135146
0.119726
0.105409
0.0921364
0.0798522
0.0685017
0.0580334
0.0484016
0.0395625
0.0315487
0.0244136
0.0177196
0.0117165
0.00640633
0.00317146
0.00220746
0.00151769
0.00102904
0.000686907
0.000450603
0.000290018
0.000182999
0.000113424
6.97454e-05
4.38965e-05
3.05028e-05
2.32594e-05
1.75097e-05
1.26309e-05
8.65081e-06
5.58892e-06
3.39641e-06
1.94538e-06
1.05624e-06
5.48067e-07
2.73649e-07
1.32807e-07
6.3025e-08
2.93204e-08
1.33981e-08
6.02343e-09
2.66815e-09