/*--------------------------------*- C++ -*----------------------------------*\
  =========                 |
  \\      /  F ield         | OpenFOAM: The Open Source CFD Toolbox
   \\    /   O peration     | Website:  https://openfoam.org
    \\  /    A nd           | Version:  8
     \\/     M anipulation  |
\*---------------------------------------------------------------------------*/
FoamFile
{
    version     2.0;
    format      ascii;
    class       volScalarField;
    location    "1000/fluid";
    object      CO2;
}
// * * * * * * * * * * * * * * * * * * * * * * * * * * * * * * * * * * * * * //

dimensions      [0 0 0 0 0 0 0];

internalField   nonuniform List<scalar> 
4000
(
4.73054e-07
2.06711e-06
4.74752e-06
9.24062e-06
1.67402e-05
2.91893e-05
4.97128e-05
8.32646e-05
0.000137566
0.000224405
0.000361333
0.000573685
0.000896649
0.00137678
0.00207202
0.00304921
0.00437818
0.00612313
0.00833304
0.0110343
0.0142278
0.0178905
0.0219806
0.0264434
0.0312171
0.0362368
0.0414386
0.046761
0.0521468
0.0575438
0.0629056
0.0681921
0.0733688
0.0784076
0.0832859
0.0879856
0.0924931
0.0967989
0.100897
0.104785
0.108463
0.111932
0.115195
0.118259
0.121127
0.123807
0.126304
0.128623
0.130769
0.132747
0.134558
0.136203
0.137678
0.138978
0.140092
0.141001
0.141681
0.142091
0.142189
0.141912
0.141161
0.139809
0.137114
0.126582
0.115873
0.105168
0.0946061
0.0842962
0.074326
0.0647665
0.0556776
0.0471123
0.03912
0.0317872
0.0250858
0.0191219
0.0139596
0.00966237
0.00627705
0.00379868
0.0021377
0.00112429
0.000557841
0.000265364
0.000122637
5.53935e-05
2.45595e-05
1.07226e-05
4.6216e-06
1.97044e-06
8.32415e-07
3.4892e-07
1.45272e-07
6.01108e-08
2.47069e-08
1.00577e-08
4.01782e-09
1.53345e-09
5.12044e-10
8.97578e-11
4.73451e-07
2.06932e-06
4.75468e-06
9.2602e-06
1.67872e-05
2.929e-05
4.99068e-05
8.36007e-05
0.000138078
0.00022505
0.00036186
0.000573416
0.000894147
0.00136938
0.00205541
0.00301723
0.0043231
0.0060365
0.00820709
0.0108634
0.0140093
0.0176254
0.0216731
0.0261002
0.0308464
0.0358478
0.0410402
0.0463616
0.0517538
0.0571637
0.0625435
0.0678518
0.0730533
0.0781187
0.0830245
0.0877521
0.0922871
0.0966196
0.100743
0.104655
0.108355
0.111845
0.115127
0.118208
0.121091
0.123784
0.126292
0.128621
0.130776
0.132761
0.134578
0.136228
0.137707
0.13901
0.140125
0.141035
0.141716
0.142124
0.142221
0.141939
0.141182
0.13982
0.136293
0.125688
0.114923
0.104172
0.0935718
0.0832316
0.0732382
0.0636632
0.0545677
0.0460065
0.038032
0.0307358
0.0240922
0.0182144
0.0131682
0.00901537
0.00579232
0.00347324
0.00194478
0.0010235
0.000511053
0.000245218
0.000114474
5.22427e-05
2.33881e-05
1.02984e-05
4.46994e-06
1.9162e-06
8.12722e-07
3.41567e-07
1.42429e-07
5.89724e-08
2.42395e-08
9.86384e-09
3.93834e-09
1.50234e-09
5.01432e-10
8.78945e-11
4.74461e-07
2.074e-06
4.76665e-06
9.28637e-06
1.68394e-05
2.93865e-05
5.00718e-05
8.38593e-05
0.00013844
0.000225468
0.000362144
0.000573045
0.000891983
0.00136343
0.00204251
0.0029928
0.00428114
0.00596994
0.00810854
0.0107261
0.0138284
0.0173984
0.0214001
0.0257842
0.0304926
0.0354633
0.0406331
0.0459404
0.051327
0.0567391
0.0621284
0.0674524
0.0726747
0.0777648
0.0826984
0.0874558
0.0920218
0.0963855
0.10054
0.104482
0.108211
0.111728
0.115036
0.11814
0.121044
0.123757
0.126282
0.128626
0.130794
0.132789
0.134615
0.136272
0.137757
0.139064
0.140181
0.141092
0.141771
0.142176
0.142267
0.141976
0.141204
0.139819
0.134831
0.124176
0.113364
0.102575
0.0919488
0.0815959
0.0716049
0.0620492
0.0529919
0.0444901
0.0365986
0.0293992
0.0228941
0.017182
0.0123237
0.00837041
0.00534063
0.00318718
0.00178154
0.000938858
0.000470567
0.000226806
0.000106411
4.88152e-05
2.19656e-05
9.71885e-06
4.23698e-06
1.82332e-06
7.75812e-07
3.26884e-07
1.36563e-07
5.66154e-08
2.32879e-08
9.47969e-09
3.78511e-09
1.4437e-09
4.81715e-10
8.44138e-11
4.73807e-07
2.0711e-06
4.75982e-06
9.27218e-06
1.68104e-05
2.93254e-05
4.99403e-05
8.3575e-05
0.000137835
0.000224223
0.000359686
0.000568429
0.000883746
0.00134936
0.00201948
0.00295669
0.004227
0.00589236
0.00800225
0.0105867
0.0136527
0.0171851
0.0211497
0.0254988
0.030176
0.0351203
0.0402696
0.0455628
0.050942
0.0563533
0.0617481
0.0670833
0.0723218
0.0774325
0.08239
0.0871739
0.0917682
0.0961613
0.100346
0.104317
0.108075
0.111619
0.114953
0.11808
0.121008
0.12374
0.126283
0.128643
0.130824
0.132831
0.134666
0.13633
0.137819
0.139129
0.140246
0.141156
0.14183
0.142227
0.142306
0.141998
0.141203
0.139785
0.13301
0.122336
0.111503
0.100699
0.0900707
0.0797309
0.0697712
0.0602671
0.0512833
0.0428784
0.0351085
0.0280258
0.0216885
0.0161601
0.0114967
0.00774063
0.00489659
0.00290088
0.00161336
0.00084827
0.000425262
0.000205376
9.66419e-05
4.44886e-05
2.0094e-05
8.92491e-06
3.90565e-06
1.68685e-06
7.20165e-07
3.04359e-07
1.27489e-07
5.29727e-08
2.18299e-08
8.89931e-09
3.55738e-09
1.3579e-09
4.53233e-10
7.94267e-11
4.71794e-07
2.06221e-06
4.73895e-06
9.23022e-06
1.67309e-05
2.91785e-05
4.9672e-05
8.30881e-05
0.000136958
0.000222659
0.000356936
0.000563682
0.000875735
0.0013362
0.00199853
0.00292449
0.0041794
0.00582484
0.00791041
0.0104668
0.0135022
0.0170028
0.0209361
0.0252557
0.0299064
0.0348284
0.0399602
0.0452412
0.0506137
0.056024
0.061423
0.0667674
0.0720195
0.0771476
0.0821256
0.0869326
0.0915517
0.0959708
0.100182
0.10418
0.107963
0.111532
0.11489
0.118041
0.120989
0.123739
0.126299
0.128672
0.130866
0.132882
0.134725
0.136393
0.137885
0.139194
0.140309
0.141211
0.141876
0.142257
0.142318
0.141985
0.141154
0.139694
0.131095
0.120424
0.109586
0.0987814
0.088163
0.0778501
0.0679367
0.0584992
0.0496027
0.0413051
0.0336744
0.0267358
0.0205646
0.0152172
0.0107428
0.00717469
0.00450358
0.00265112
0.00146827
0.000770567
0.000386379
0.000186877
8.81268e-05
4.06683e-05
1.84148e-05
8.19915e-06
3.59629e-06
1.5565e-06
6.65766e-07
2.81834e-07
1.18222e-07
4.91811e-08
2.02875e-08
8.27705e-09
3.31059e-09
1.26416e-09
4.21963e-10
7.39365e-11
4.68724e-07
2.04867e-06
4.70728e-06
9.16695e-06
1.66124e-05
2.89635e-05
4.9289e-05
8.24148e-05
0.000135789
0.000220655
0.000353556
0.000558087
0.000866677
0.00132191
0.00197665
0.00289209
0.0041331
0.00576111
0.00782597
0.010359
0.0133694
0.0168444
0.0207527
0.0250489
0.029679
0.0345836
0.0397019
0.0449738
0.0503418
0.0557519
0.0611552
0.066508
0.0717722
0.0769155
0.0819114
0.0867383
0.0913791
0.0958208
0.100055
0.104076
0.107882
0.111473
0.114852
0.118022
0.120987
0.123754
0.126327
0.128713
0.130916
0.132939
0.134786
0.136456
0.137946
0.13925
0.140356
0.141246
0.141894
0.142252
0.142288
0.141924
0.141058
0.139572
0.129386
0.118694
0.107822
0.0969955
0.0863763
0.0760863
0.0662192
0.0568501
0.0480421
0.0398508
0.0323529
0.0255513
0.0195425
0.0143679
0.0100683
0.00667071
0.00415442
0.00242884
0.00133823
0.000700033
0.000350472
0.000169518
8.00074e-05
3.69715e-05
1.67691e-05
7.48035e-06
3.2874e-06
1.42557e-06
6.10897e-07
2.59055e-07
1.08838e-07
4.53401e-08
1.87251e-08
7.64698e-09
3.06079e-09
1.1693e-09
3.90319e-10
6.83864e-11
4.65206e-07
2.03322e-06
4.6714e-06
9.09601e-06
1.64812e-05
2.87293e-05
4.88794e-05
8.17093e-05
0.000134589
0.000218644
0.000350235
0.000552699
0.000858117
0.00130863
0.00195662
0.00286281
0.00409173
0.00570474
0.00775197
0.0102654
0.0132549
0.0167089
0.0205969
0.0248746
0.0294884
0.0343797
0.0394882
0.0447538
0.0501192
0.0555306
0.0609386
0.0662995
0.0715748
0.0767318
0.0817435
0.086588
0.0912475
0.0957089
0.0999629
0.104004
0.10783
0.11144
0.114836
0.118022
0.121002
0.123781
0.126366
0.12876
0.13097
0.132998
0.134846
0.136514
0.137998
0.139292
0.140382
0.14125
0.141868
0.142187
0.142177
0.141758
0.140835
0.139318
0.128488
0.117439
0.106369
0.095441
0.0847832
0.0744984
0.0646695
0.0553652
0.0466449
0.0385628
0.0312086
0.0245448
0.0186636
0.0136264
0.00947798
0.0062316
0.00385247
0.00223807
0.00122726
0.000640018
0.000319906
0.000154691
7.30344e-05
3.37737e-05
1.53333e-05
6.8474e-06
3.01277e-06
1.30804e-06
5.61196e-07
2.3825e-07
1.00203e-07
4.17829e-08
1.72704e-08
7.05773e-09
2.82634e-09
1.08002e-09
3.60483e-10
6.31505e-11
4.61566e-07
2.01725e-06
4.63446e-06
9.02325e-06
1.63474e-05
2.84917e-05
4.84668e-05
8.10041e-05
0.000133402
0.000216673
0.000347016
0.000547541
0.000850025
0.00129625
0.00193819
0.00283621
0.00405463
0.00565482
0.00768718
0.0101842
0.0131567
0.0165937
0.0204656
0.0247287
0.0293301
0.0342115
0.039313
0.0445747
0.0499393
0.0553528
0.0607661
0.0661348
0.0714204
0.0765897
0.0816155
0.0864754
0.0911512
0.0956294
0.0999003
0.103958
0.107801
0.111426
0.114837
0.118036
0.121028
0.123818
0.126411
0.128812
0.131026
0.133055
0.134902
0.136565
0.138041
0.13932
0.140389
0.141225
0.141795
0.142049
0.141943
0.141379
0.140238
0.138392
0.127355
0.116153
0.104984
0.0940043
0.0833328
0.0730649
0.0632779
0.0540358
0.0453938
0.0374026
0.0301338
0.0235887
0.0178459
0.0129537
0.00895409
0.00584918
0.00359253
0.00207469
0.00113228
0.000588498
0.000293521
0.000141816
6.6941e-05
3.09622e-05
1.4064e-05
6.285e-06
2.76767e-06
1.20274e-06
5.16519e-07
2.19494e-07
9.24002e-08
3.85621e-08
1.59511e-08
6.52255e-09
2.61315e-09
9.98749e-10
3.33321e-10
5.83929e-11
4.58047e-07
2.00185e-06
4.59888e-06
8.95342e-06
1.62195e-05
2.82658e-05
4.80766e-05
8.03417e-05
0.000132294
0.000214849
0.000344062
0.000542847
0.000842724
0.00128517
0.00192183
0.00281279
0.00402221
0.0056115
0.00763137
0.0101148
0.0130733
0.0164965
0.0203556
0.0246073
0.0291992
0.0340735
0.0391702
0.0444298
0.0497949
0.0552115
0.0606301
0.0660064
0.0713015
0.076482
0.0815202
0.0863935
0.0910835
0.0955762
0.0998617
0.103934
0.10779
0.111428
0.11485
0.11806
0.121062
0.123859
0.126459
0.128865
0.131081
0.133111
0.134955
0.136614
0.13808
0.139346
0.140396
0.141206
0.141738
0.141942
0.141761
0.141085
0.139769
0.137368
0.126189
0.114897
0.10368
0.0926843
0.0820265
0.0717976
0.0620717
0.0529103
0.0443664
0.0364875
0.0293361
0.0229052
0.0172723
0.012478
0.00855092
0.0055354
0.00337458
0.00193701
0.00105212
0.000544968
0.000271186
0.000130889
6.17529e-05
2.85596e-05
1.29749e-05
5.80045e-06
2.55561e-06
1.11128e-06
4.77567e-07
2.03085e-07
8.5553e-08
3.57283e-08
1.47876e-08
6.04969e-09
2.42447e-09
9.26696e-10
3.09325e-10
5.41915e-11
4.54777e-07
1.98754e-06
4.56589e-06
8.8888e-06
1.61014e-05
2.80578e-05
4.77188e-05
7.97367e-05
0.000131287
0.000213199
0.000341405
0.000538648
0.000836234
0.00127538
0.00190748
0.00279238
0.00399415
0.00557427
0.00758371
0.010056
0.013003
0.0164152
0.0202641
0.024507
0.0290919
0.0339611
0.0390548
0.0443136
0.04968
0.0551001
0.0605241
0.0659076
0.0712113
0.0764018
0.0814509
0.0863359
0.0910379
0.0955428
0.0998406
0.103925
0.107791
0.11144
0.114872
0.11809
0.121099
0.123903
0.126507
0.128916
0.131134
0.133163
0.135006
0.13666
0.13812
0.139377
0.140416
0.141213
0.141729
0.14192
0.14173
0.141059
0.139785
0.136258
0.125022
0.113693
0.102459
0.091465
0.080825
0.0706279
0.0609459
0.0518395
0.0433605
0.0355573
0.0284778
0.0221499
0.0166304
0.0119647
0.00818598
0.005268
0.00318674
0.0018189
0.00098377
0.000507952
0.000252204
0.000121595
5.73336e-05
2.65091e-05
1.20434e-05
5.38512e-06
2.37346e-06
1.03254e-06
4.43966e-07
1.88904e-07
7.96247e-08
3.32709e-08
1.37773e-08
5.63859e-09
2.26025e-09
8.64055e-10
2.8844e-10
5.05322e-11
4.51828e-07
1.97464e-06
4.53619e-06
8.8307e-06
1.59955e-05
2.78717e-05
4.73995e-05
7.91986e-05
0.000130395
0.000211742
0.000339069
0.000534975
0.000830582
0.0012669
0.0018951
0.00277487
0.0039702
0.00554264
0.00754344
0.0100065
0.0129442
0.0163476
0.0201885
0.0244247
0.0290043
0.03387
0.038962
0.0442209
0.0495893
0.055013
0.0604422
0.0658323
0.0711439
0.0763431
0.0814018
0.0862967
0.0910091
0.0955243
0.0998321
0.103926
0.107801
0.111458
0.114898
0.118123
0.121138
0.123946
0.126553
0.128964
0.131182
0.133211
0.135051
0.136701
0.138156
0.139407
0.140438
0.141227
0.141735
0.141919
0.141725
0.141056
0.13979
0.135159
0.123914
0.112589
0.101371
0.0904031
0.0798017
0.0696539
0.0600303
0.0509908
0.0425733
0.0348261
0.0277901
0.0215309
0.0160949
0.0115212
0.00783653
0.00503455
0.00303199
0.00171925
0.000925982
0.000476719
0.000236202
0.000113762
5.36067e-05
2.47778e-05
1.12558e-05
5.03337e-06
2.21891e-06
9.65619e-07
4.15354e-07
1.76808e-07
7.45601e-08
3.11686e-08
1.29119e-08
5.28616e-09
2.11946e-09
8.10358e-10
2.70561e-10
4.73996e-11
4.49227e-07
1.96327e-06
4.51003e-06
8.77961e-06
1.59024e-05
2.77086e-05
4.71202e-05
7.87291e-05
0.000129618
0.000210479
0.00033705
0.00053181
0.000825731
0.00125965
0.00188456
0.00276002
0.00394997
0.00551605
0.00750974
0.00996527
0.0128955
0.0162918
0.0201265
0.0243576
0.0289334
0.0337967
0.0388879
0.0441476
0.0495181
0.0549454
0.0603795
0.0657756
0.071094
0.0763009
0.0813677
0.0862711
0.0909921
0.0955159
0.0998318
0.103933
0.107816
0.11148
0.114926
0.118156
0.121174
0.123985
0.126594
0.129006
0.131224
0.133251
0.135088
0.136734
0.138185
0.139429
0.140454
0.141235
0.141736
0.141915
0.141717
0.141048
0.139787
0.134168
0.122916
0.111596
0.100397
0.0894633
0.0789014
0.0687897
0.0591993
0.0501867
0.0418149
0.0341287
0.0271704
0.0209892
0.0156336
0.0111424
0.00754012
0.00481537
0.00289656
0.00163725
0.000877489
0.000450437
0.000222771
0.000107193
5.04821e-05
2.3326e-05
1.05948e-05
4.73788e-06
2.08893e-06
9.09262e-07
3.91228e-07
1.66595e-07
7.02788e-08
2.93894e-08
1.21789e-08
4.98745e-09
2.00008e-09
7.64811e-10
2.55387e-10
4.47408e-11
4.4698e-07
1.95345e-06
4.48745e-06
8.73554e-06
1.58223e-05
2.75683e-05
4.68804e-05
7.83267e-05
0.000128954
0.000209401
0.000335332
0.000529125
0.000821628
0.00125353
0.0018757
0.00274758
0.00393309
0.00549395
0.00748184
0.00993129
0.0128556
0.0162463
0.0200761
0.0243033
0.0288764
0.0337383
0.0388292
0.0440899
0.0494627
0.0548933
0.0603319
0.0657332
0.0710576
0.076271
0.0813447
0.0862552
0.0909833
0.0955139
0.0998364
0.103944
0.107833
0.111502
0.114952
0.118185
0.121206
0.124019
0.126629
0.12904
0.131257
0.133282
0.135116
0.136758
0.138203
0.139442
0.14046
0.141235
0.141729
0.141902
0.1417
0.14103
0.139774
0.133314
0.122051
0.110736
0.0995533
0.0886329
0.0780833
0.0679985
0.0584471
0.0494869
0.0411691
0.0335407
0.0266443
0.0205295
0.0152434
0.0108238
0.00729282
0.00463482
0.00277293
0.00156697
0.000838215
0.000428741
0.000211611
0.000101747
4.78925e-05
2.21224e-05
1.00464e-05
4.49244e-06
1.98082e-06
8.62324e-07
3.71106e-07
1.58065e-07
6.66984e-08
2.78998e-08
1.15646e-08
4.73689e-09
1.8999e-09
7.2657e-10
2.42629e-10
4.25053e-11
4.45075e-07
1.94513e-06
4.46833e-06
8.69824e-06
1.57545e-05
2.74498e-05
4.66782e-05
7.7988e-05
0.000128396
0.000208498
0.000333894
0.000526884
0.000818211
0.00124845
0.00186836
0.00273731
0.00391919
0.00547581
0.00745901
0.00990359
0.0128231
0.0162094
0.0200355
0.0242599
0.028831
0.0336919
0.0387831
0.0440449
0.0494198
0.0548535
0.0602959
0.0657017
0.0710312
0.07625
0.0813293
0.0862457
0.0909794
0.0955154
0.0998432
0.103956
0.107849
0.111521
0.114974
0.11821
0.121233
0.124047
0.126657
0.129067
0.131282
0.133304
0.135134
0.136771
0.138211
0.139444
0.140455
0.141223
0.141711
0.141878
0.141673
0.141003
0.139754
0.132587
0.121309
0.109994
0.0988128
0.0879077
0.077386
0.0673332
0.0578186
0.0488999
0.0406275
0.033048
0.0262036
0.0201447
0.0149175
0.0105587
0.00708831
0.00448702
0.00267345
0.00150421
0.000805076
0.000411681
0.000202714
9.73226e-05
4.57782e-05
2.11374e-05
9.5967e-06
4.29074e-06
1.89182e-06
8.23616e-07
3.54489e-07
1.51011e-07
6.37343e-08
2.66653e-08
1.1055e-08
4.52891e-09
1.8167e-09
6.948e-10
2.32028e-10
4.06479e-11
4.43495e-07
1.93823e-06
4.45247e-06
8.66733e-06
1.56984e-05
2.73518e-05
4.65112e-05
7.77086e-05
0.000127937
0.000207755
0.000332714
0.000525048
0.000815418
0.00124431
0.00186239
0.00272897
0.00390793
0.00546115
0.00744062
0.00988134
0.0127971
0.0161801
0.0200033
0.0242255
0.0287953
0.0336557
0.0387471
0.0440101
0.049387
0.0548233
0.0602689
0.0656784
0.071012
0.0762352
0.0813191
0.0862399
0.0909781
0.0955184
0.0998501
0.103966
0.107862
0.111538
0.114993
0.11823
0.121253
0.124067
0.126676
0.129085
0.131297
0.133316
0.135142
0.136774
0.138208
0.139435
0.14044
0.141201
0.141682
0.141845
0.141638
0.14097
0.139733
0.131987
0.120688
0.109367
0.0981946
0.0873059
0.0768067
0.0667813
0.057298
0.048414
0.0401796
0.0326408
0.0258398
0.0198272
0.014649
0.0103408
0.00692091
0.00436679
0.00259332
0.00145448
0.000775877
0.000396943
0.00019563
9.38354e-05
4.40811e-05
2.03381e-05
9.2305e-06
4.12629e-06
1.81916e-06
7.91985e-07
3.40896e-07
1.45237e-07
6.13063e-08
2.56536e-08
1.06372e-08
4.35835e-09
1.74854e-09
6.6876e-10
2.23342e-10
3.91261e-11
4.42218e-07
1.93265e-06
4.43966e-06
8.64238e-06
1.56532e-05
2.72728e-05
4.63767e-05
7.74839e-05
0.000127567
0.000207159
0.000331769
0.000523579
0.000813187
0.00124101
0.00185764
0.00272235
0.003899
0.00544956
0.00742611
0.00986384
0.0127767
0.0161571
0.0199782
0.0241988
0.0287677
0.0336278
0.0387196
0.0439836
0.0493621
0.0548006
0.0602488
0.0656613
0.0709981
0.0762247
0.081312
0.0862362
0.0909776
0.0955211
0.0998556
0.103974
0.107873
0.111549
0.115006
0.118243
0.121267
0.12408
0.126687
0.129094
0.131303
0.133318
0.13514
0.136768
0.138196
0.139416
0.140415
0.14117
0.141646
0.141805
0.141596
0.140932
0.139709
0.131502
0.120186
0.108858
0.0976907
0.0868151
0.0763345
0.0663319
0.0568746
0.0480195
0.0398163
0.0323109
0.0255452
0.0195705
0.0144321
0.0101651
0.00678633
0.0042705
0.00252949
0.0014152
0.000753103
0.000384171
0.000189108
9.08514e-05
4.27212e-05
1.97015e-05
8.93626e-06
3.99343e-06
1.7604e-06
7.66412e-07
3.29919e-07
1.40579e-07
5.93497e-08
2.48391e-08
1.03013e-08
4.22138e-09
1.69378e-09
6.47863e-10
2.16375e-10
3.7906e-11
4.41225e-07
1.92831e-06
4.4297e-06
8.62299e-06
1.5618e-05
2.72115e-05
4.62723e-05
7.73097e-05
0.000127281
0.000206697
0.000331039
0.000522446
0.000811467
0.00123847
0.00185399
0.00271726
0.00389217
0.00544069
0.00741503
0.0098505
0.0127612
0.0161397
0.0199592
0.0241787
0.0287469
0.0336069
0.0386991
0.0439639
0.0493437
0.0547838
0.060234
0.0656487
0.0709879
0.0762169
0.0813066
0.0862331
0.0909768
0.0955223
0.0998587
0.103979
0.107878
0.111556
0.115013
0.11825
0.121273
0.124085
0.12669
0.129095
0.131301
0.133312
0.13513
0.136752
0.138175
0.139389
0.140382
0.141131
0.141602
0.141758
0.141551
0.140893
0.139686
0.131119
0.119782
0.108451
0.0972886
0.0864243
0.0759597
0.0659761
0.0565403
0.0477086
0.0395306
0.032052
0.0253144
0.0193696
0.0142627
0.0100283
0.00668172
0.00419589
0.00248022
0.00138507
0.000735898
0.00037486
0.000184275
8.8395e-05
4.15477e-05
1.91815e-05
8.7047e-06
3.89028e-06
1.71485e-06
7.46582e-07
3.21408e-07
1.3697e-07
5.78372e-08
2.42098e-08
1.00428e-08
4.1163e-09
1.65171e-09
6.31842e-10
2.11028e-10
3.69696e-11
4.40497e-07
1.92514e-06
4.4224e-06
8.60878e-06
1.55923e-05
2.71666e-05
4.6196e-05
7.71824e-05
0.000127073
0.000206361
0.000330506
0.000521619
0.000810215
0.00123662
0.00185133
0.00271357
0.00388721
0.00543427
0.00740702
0.00984087
0.0127501
0.0161271
0.0199456
0.0241643
0.028732
0.0335919
0.0386844
0.0439499
0.0493306
0.0547719
0.0602234
0.0656397
0.0709804
0.076211
0.0813022
0.0862301
0.0909752
0.0955219
0.0998594
0.10398
0.10788
0.111558
0.115015
0.118252
0.121273
0.124084
0.126687
0.129089
0.131292
0.133299
0.135112
0.13673
0.138147
0.139356
0.140343
0.141087
0.141554
0.141709
0.141503
0.140854
0.139667
0.130835
0.11948
0.108142
0.0969833
0.0861281
0.0756763
0.0657081
0.0562895
0.0474762
0.0393176
0.0318594
0.0251432
0.019221
0.0141377
0.0099275
0.00660496
0.0041413
0.00244427
0.00136313
0.000723386
0.000368129
0.000180819
8.66889e-05
4.07268e-05
1.87912e-05
8.53133e-06
3.81453e-06
1.68221e-06
7.32505e-07
3.15426e-07
1.34428e-07
5.67787e-08
2.37672e-08
9.86079e-09
4.04181e-09
1.62182e-09
6.20473e-10
2.07217e-10
3.63011e-11
4.40021e-07
1.92306e-06
4.41764e-06
8.59951e-06
1.55755e-05
2.71373e-05
4.61462e-05
7.70994e-05
0.000126937
0.000206141
0.000330159
0.000521082
0.000809402
0.00123542
0.00184961
0.00271118
0.003884
0.00543011
0.00740184
0.00983465
0.0127428
0.016119
0.0199368
0.024155
0.0287225
0.0335824
0.038675
0.0439409
0.0493222
0.0547643
0.0602166
0.0656338
0.0709754
0.0762069
0.0812989
0.0862274
0.090973
0.0955202
0.0998581
0.103979
0.107879
0.111557
0.115013
0.118249
0.12127
0.124078
0.12668
0.129079
0.131279
0.133283
0.135092
0.136705
0.138117
0.139321
0.140303
0.141043
0.141506
0.141661
0.141458
0.140819
0.139653
0.130649
0.119273
0.10793
0.0967723
0.0859239
0.0754819
0.0655254
0.0561194
0.0473194
0.0391747
0.0317309
0.0250294
0.0191225
0.0140552
0.00986129
0.00655476
0.00410579
0.00242097
0.00134892
0.000715274
0.000363763
0.00017858
8.55896e-05
4.02178e-05
1.85493e-05
8.42059e-06
3.76387e-06
1.66054e-06
7.23097e-07
3.11505e-07
1.32763e-07
5.60912e-08
2.34799e-08
9.74286e-09
3.99392e-09
1.6026e-09
6.13182e-10
2.04773e-10
3.58726e-11
4.3979e-07
1.92205e-06
4.41532e-06
8.59501e-06
1.55674e-05
2.71232e-05
4.61223e-05
7.70596e-05
0.000126872
0.000206037
0.000329995
0.000520827
0.000809016
0.00123485
0.0018488
0.00271005
0.00388248
0.00542815
0.0073994
0.00983171
0.0127394
0.0161152
0.0199326
0.0241506
0.028718
0.0335778
0.0386706
0.0439366
0.0493182
0.0547606
0.0602133
0.0656309
0.0709729
0.0762047
0.081297
0.0862257
0.0909712
0.0955184
0.0998562
0.103977
0.107877
0.111555
0.11501
0.118246
0.121265
0.124073
0.126673
0.12907
0.131268
0.133269
0.135076
0.136685
0.138094
0.139294
0.140272
0.141009
0.14147
0.141623
0.141423
0.140793
0.139645
0.130557
0.119165
0.107815
0.0966593
0.0858154
0.0753798
0.0654305
0.0560321
0.0472398
0.0391029
0.0316669
0.0249733
0.0190745
0.0140153
0.0098295
0.00653084
0.00408902
0.00241008
0.00134233
0.000711525
0.000361745
0.000177544
8.50811e-05
3.99846e-05
1.84391e-05
8.37103e-06
3.74113e-06
1.65044e-06
7.18624e-07
3.09603e-07
1.31951e-07
5.57545e-08
2.33391e-08
9.68433e-09
3.97056e-09
1.59324e-09
6.0963e-10
2.03582e-10
3.56635e-11
4.3979e-07
1.92205e-06
4.41532e-06
8.59502e-06
1.55674e-05
2.71232e-05
4.61224e-05
7.70597e-05
0.000126872
0.000206037
0.000329995
0.000520828
0.000809017
0.00123485
0.0018488
0.00271005
0.00388248
0.00542815
0.0073994
0.00983171
0.0127394
0.0161152
0.0199326
0.0241506
0.028718
0.0335778
0.0386706
0.0439366
0.0493182
0.0547606
0.0602133
0.0656309
0.0709729
0.0762047
0.081297
0.0862257
0.0909712
0.0955184
0.0998562
0.103977
0.107877
0.111555
0.11501
0.118246
0.121265
0.124073
0.126673
0.12907
0.131268
0.133269
0.135076
0.136685
0.138094
0.139294
0.140272
0.141009
0.14147
0.141623
0.141423
0.140793
0.139645
0.130557
0.119165
0.107816
0.0966594
0.0858155
0.0753799
0.0654306
0.0560321
0.0472399
0.039103
0.0316669
0.0249734
0.0190745
0.0140153
0.00982952
0.00653086
0.00408903
0.00241009
0.00134234
0.000711528
0.000361747
0.000177544
8.50815e-05
3.99844e-05
1.8439e-05
8.3709e-06
3.74108e-06
1.65041e-06
7.1861e-07
3.09595e-07
1.31948e-07
5.57521e-08
2.33382e-08
9.68312e-09
3.97042e-09
1.59319e-09
6.09603e-10
2.03576e-10
3.56625e-11
4.40023e-07
1.92307e-06
4.41765e-06
8.59954e-06
1.55755e-05
2.71374e-05
4.61464e-05
7.70996e-05
0.000126937
0.000206142
0.00033016
0.000521084
0.000809404
0.00123542
0.00184961
0.00271118
0.00388401
0.00543012
0.00740185
0.00983466
0.0127429
0.0161191
0.0199368
0.024155
0.0287225
0.0335824
0.0386751
0.0439409
0.0493222
0.0547643
0.0602167
0.0656338
0.0709755
0.0762069
0.0812989
0.0862274
0.090973
0.0955202
0.0998581
0.103979
0.107879
0.111557
0.115013
0.118249
0.12127
0.124078
0.12668
0.129079
0.131279
0.133283
0.135092
0.136705
0.138117
0.139321
0.140303
0.141043
0.141506
0.141661
0.141458
0.140819
0.139653
0.130649
0.119274
0.10793
0.0967725
0.0859241
0.0754822
0.0655256
0.0561196
0.0473196
0.0391749
0.031731
0.0250295
0.0191226
0.0140553
0.00986136
0.00655481
0.00410582
0.00242099
0.00134893
0.000715282
0.000363768
0.000178583
8.55907e-05
4.02175e-05
1.85491e-05
8.42031e-06
3.76377e-06
1.66045e-06
7.23066e-07
3.11486e-07
1.32757e-07
5.60847e-08
2.34781e-08
9.73967e-09
3.99362e-09
1.60251e-09
6.13121e-10
2.0476e-10
3.58703e-11
4.405e-07
1.92515e-06
4.42243e-06
8.60883e-06
1.55924e-05
2.71668e-05
4.61963e-05
7.71828e-05
0.000127073
0.000206362
0.000330508
0.000521622
0.000810219
0.00123662
0.00185134
0.00271358
0.00388722
0.00543428
0.00740704
0.00984089
0.0127501
0.0161272
0.0199456
0.0241643
0.0287321
0.033592
0.0386845
0.0439499
0.0493306
0.0547719
0.0602235
0.0656397
0.0709804
0.076211
0.0813022
0.0862302
0.0909752
0.0955219
0.0998594
0.10398
0.10788
0.111558
0.115015
0.118252
0.121273
0.124084
0.126687
0.129089
0.131292
0.133299
0.135112
0.13673
0.138147
0.139356
0.140343
0.141087
0.141554
0.141709
0.141503
0.140854
0.139667
0.130836
0.11948
0.108143
0.0969838
0.0861286
0.0756767
0.0657085
0.0562898
0.0474765
0.0393179
0.0318597
0.0251435
0.0192212
0.0141379
0.00992762
0.00660505
0.00414137
0.00244431
0.00136315
0.0007234
0.000368136
0.000180823
8.66906e-05
4.07274e-05
1.87914e-05
8.53121e-06
3.81448e-06
1.68214e-06
7.32479e-07
3.15404e-07
1.34418e-07
5.67639e-08
2.37658e-08
9.85796e-09
4.04164e-09
1.62173e-09
6.20412e-10
2.07202e-10
3.62986e-11
4.41228e-07
1.92833e-06
4.42973e-06
8.62305e-06
1.56182e-05
2.72117e-05
4.62727e-05
7.73103e-05
0.000127282
0.000206699
0.000331041
0.000522449
0.000811472
0.00123847
0.001854
0.00271727
0.00389218
0.00544071
0.00741506
0.00985053
0.0127613
0.0161397
0.0199593
0.0241787
0.0287469
0.0336069
0.0386991
0.043964
0.0493437
0.0547839
0.060234
0.0656487
0.0709879
0.0762169
0.0813066
0.0862331
0.0909768
0.0955223
0.0998587
0.103979
0.107878
0.111556
0.115013
0.11825
0.121273
0.124085
0.12669
0.129095
0.131301
0.133312
0.13513
0.136752
0.138175
0.139389
0.140382
0.141131
0.141602
0.141758
0.141551
0.140893
0.139687
0.131119
0.119783
0.108452
0.0972893
0.086425
0.0759603
0.0659767
0.0565409
0.0477091
0.039531
0.0320523
0.0253147
0.0193699
0.014263
0.0100284
0.00668185
0.00419598
0.00248027
0.00138511
0.000735918
0.00037487
0.00018428
8.83975e-05
4.15488e-05
1.91819e-05
8.70479e-06
3.89027e-06
1.71484e-06
7.46576e-07
3.21403e-07
1.36965e-07
5.78329e-08
2.42091e-08
1.00416e-08
4.11629e-09
1.65169e-09
6.31807e-10
2.11024e-10
3.69689e-11
4.42223e-07
1.93267e-06
4.4397e-06
8.64247e-06
1.56533e-05
2.72731e-05
4.63771e-05
7.74846e-05
0.000127569
0.00020716
0.000331772
0.000523584
0.000813193
0.00124102
0.00185765
0.00272236
0.00389903
0.00544959
0.00742614
0.00986388
0.0127768
0.0161571
0.0199783
0.0241989
0.0287677
0.0336278
0.0387197
0.0439837
0.0493622
0.0548006
0.0602488
0.0656613
0.0709981
0.0762247
0.081312
0.0862362
0.0909776
0.0955211
0.0998556
0.103974
0.107873
0.111549
0.115006
0.118243
0.121267
0.12408
0.126687
0.129094
0.131303
0.133318
0.13514
0.136768
0.138196
0.139416
0.140415
0.14117
0.141646
0.141805
0.141596
0.140933
0.139709
0.131503
0.120187
0.108859
0.0976917
0.086816
0.0763354
0.0663327
0.0568754
0.0480202
0.0398169
0.0323114
0.0255457
0.0195709
0.0144324
0.0101654
0.00678651
0.00427063
0.00252957
0.00141525
0.00075313
0.000384185
0.000189115
9.08548e-05
4.27227e-05
1.97021e-05
8.93657e-06
3.9936e-06
1.76048e-06
7.66445e-07
3.29932e-07
1.40585e-07
5.93516e-08
2.48397e-08
1.03015e-08
4.22151e-09
1.69381e-09
6.47874e-10
2.16383e-10
3.79075e-11
4.435e-07
1.93825e-06
4.45252e-06
8.66743e-06
1.56986e-05
2.73521e-05
4.65117e-05
7.77095e-05
0.000127938
0.000207757
0.000332718
0.000525053
0.000815425
0.00124432
0.00186241
0.00272899
0.00390796
0.00546118
0.00744066
0.00988139
0.0127972
0.0161801
0.0200034
0.0242256
0.0287954
0.0336558
0.0387472
0.0440102
0.0493871
0.0548234
0.0602689
0.0656785
0.0710121
0.0762352
0.0813191
0.08624
0.0909781
0.0955184
0.0998501
0.103966
0.107862
0.111538
0.114993
0.11823
0.121253
0.124067
0.126676
0.129085
0.131297
0.133316
0.135142
0.136774
0.138208
0.139435
0.14044
0.141201
0.141682
0.141845
0.141638
0.14097
0.139733
0.131988
0.12069
0.109368
0.0981958
0.087307
0.0768078
0.0667823
0.0572989
0.0484149
0.0401804
0.0326415
0.0258404
0.0198277
0.0146494
0.0103411
0.00692114
0.00436695
0.00259342
0.00145455
0.000775912
0.000396961
0.000195639
9.38395e-05
4.40831e-05
2.03391e-05
9.23099e-06
4.12651e-06
1.81926e-06
7.92026e-07
3.40913e-07
1.45245e-07
6.13093e-08
2.56548e-08
1.06377e-08
4.35855e-09
1.74861e-09
6.6879e-10
2.23356e-10
3.91287e-11
4.45081e-07
1.94516e-06
4.46839e-06
8.69836e-06
1.57548e-05
2.74502e-05
4.66788e-05
7.7989e-05
0.000128398
0.0002085
0.000333898
0.00052689
0.00081822
0.00124847
0.00186838
0.00273734
0.00391922
0.00547585
0.00745906
0.00990365
0.0128232
0.0162095
0.0200356
0.02426
0.0288311
0.033692
0.0387831
0.044045
0.0494199
0.0548536
0.060296
0.0657018
0.0710312
0.07625
0.0813294
0.0862457
0.0909794
0.0955155
0.0998432
0.103956
0.107849
0.111521
0.114974
0.11821
0.121233
0.124047
0.126657
0.129067
0.131282
0.133304
0.135134
0.136771
0.138211
0.139444
0.140455
0.141223
0.141711
0.141878
0.141673
0.141003
0.139754
0.132589
0.121311
0.109996
0.0988142
0.087909
0.0773873
0.0673344
0.0578197
0.0489009
0.0406285
0.0330489
0.0262044
0.0201453
0.014918
0.0105591
0.0070886
0.00448723
0.00267358
0.00150429
0.000805119
0.000411702
0.000202725
9.73282e-05
4.57809e-05
2.11387e-05
9.59728e-06
4.291e-06
1.89194e-06
8.23667e-07
3.5451e-07
1.51021e-07
6.37382e-08
2.66669e-08
1.10557e-08
4.52919e-09
1.81681e-09
6.94842e-10
2.32046e-10
4.06514e-11
4.46987e-07
1.95348e-06
4.48752e-06
8.73567e-06
1.58225e-05
2.75687e-05
4.68811e-05
7.83279e-05
0.000128956
0.000209404
0.000335336
0.000529132
0.000821638
0.00125355
0.00187572
0.00274761
0.00393313
0.005494
0.0074819
0.00993136
0.0128556
0.0162464
0.0200762
0.0243034
0.0288765
0.0337384
0.0388293
0.04409
0.0494628
0.0548934
0.0603319
0.0657332
0.0710576
0.076271
0.0813447
0.0862552
0.0909833
0.0955139
0.0998364
0.103944
0.107833
0.111502
0.114952
0.118185
0.121206
0.124019
0.126629
0.12904
0.131257
0.133282
0.135116
0.136758
0.138203
0.139442
0.14046
0.141235
0.141729
0.141902
0.1417
0.14103
0.139774
0.133316
0.122053
0.110737
0.0995546
0.0886342
0.0780844
0.0679996
0.0584481
0.0494878
0.04117
0.0335416
0.0266451
0.0205301
0.015244
0.0108242
0.00729316
0.00463506
0.00277309
0.00156707
0.000838268
0.00042877
0.000211626
0.000101754
4.78959e-05
2.21239e-05
1.00472e-05
4.49276e-06
1.98097e-06
8.62387e-07
3.71133e-07
1.58076e-07
6.67033e-08
2.79018e-08
1.15654e-08
4.73724e-09
1.90004e-09
7.26624e-10
2.4265e-10
4.25094e-11
4.49235e-07
1.96331e-06
4.51011e-06
8.77976e-06
1.59027e-05
2.77091e-05
4.7121e-05
7.87303e-05
0.00012962
0.000210482
0.000337055
0.000531818
0.000825742
0.00125966
0.00188458
0.00276005
0.00395001