/*--------------------------------*- C++ -*----------------------------------*\
  =========                 |
  \\      /  F ield         | OpenFOAM: The Open Source CFD Toolbox
   \\    /   O peration     | Website:  https://openfoam.org
    \\  /    A nd           | Version:  8
     \\/     M anipulation  |
\*---------------------------------------------------------------------------*/
FoamFile
{
    version     2.0;
    format      ascii;
    class       volScalarField;
    location    "1000/fluid";
    object      H2O;
}
// * * * * * * * * * * * * * * * * * * * * * * * * * * * * * * * * * * * * * //

dimensions      [0 0 0 0 0 0 0];

internalField   nonuniform List<scalar> 
4000
(
3.87285e-07
1.69233e-06
3.88676e-06
7.56521e-06
1.37051e-05
2.38971e-05
4.06994e-05
6.8168e-05
0.000112624
0.000183719
0.00029582
0.000469671
0.000734079
0.00112716
0.00169635
0.00249636
0.00358438
0.00501295
0.00682219
0.0090337
0.0116482
0.0146468
0.0179953
0.021649
0.0255571
0.0296668
0.0339254
0.0382828
0.0426921
0.0471106
0.0515003
0.0558283
0.0600664
0.0641916
0.0681854
0.0720331
0.0757233
0.0792484
0.0826036
0.0857866
0.0887974
0.0916374
0.0943095
0.0968175
0.099166
0.10136
0.103404
0.105302
0.107059
0.108679
0.110161
0.111508
0.112716
0.11378
0.114692
0.115436
0.115993
0.116328
0.116409
0.116182
0.115567
0.114461
0.112254
0.103631
0.0948645
0.0861003
0.0774531
0.0690126
0.0608501
0.0530238
0.0455828
0.0385704
0.0320272
0.0260239
0.0205375
0.0156549
0.0114286
0.0079105
0.00513896
0.00310995
0.00175012
0.000920446
0.0004567
0.000217251
0.000100402
4.53502e-05
2.01066e-05
8.77854e-06
3.78366e-06
1.61318e-06
6.81491e-07
2.85658e-07
1.18933e-07
4.92122e-08
2.02273e-08
8.23413e-09
3.28936e-09
1.25542e-09
4.19206e-10
7.34839e-11
3.8761e-07
1.69413e-06
3.89261e-06
7.58125e-06
1.37436e-05
2.39795e-05
4.08583e-05
6.84432e-05
0.000113043
0.000184247
0.000296251
0.000469451
0.00073203
0.0011211
0.00168275
0.00247018
0.00353928
0.00494203
0.00671907
0.00889373
0.0114693
0.0144298
0.0177436
0.021368
0.0252537
0.0293483
0.0335992
0.0379558
0.0423704
0.0467994
0.0512038
0.0555497
0.0598081
0.0639551
0.0679714
0.0718419
0.0755546
0.0791016
0.0824777
0.0856804
0.0887094
0.0915662
0.0942536
0.0967755
0.0991362
0.101341
0.103394
0.105301
0.107065
0.10869
0.110178
0.111529
0.11274
0.113806
0.114719
0.115464
0.116021
0.116356
0.116435
0.116204
0.115584
0.114469
0.111582
0.1029
0.0940862
0.0852844
0.0766064
0.068141
0.0599595
0.0521205
0.0446741
0.0376651
0.0311364
0.0251631
0.0197241
0.014912
0.0107807
0.0073808
0.00474212
0.00284351
0.00159217
0.000837932
0.000418395
0.000200758
9.3719e-05
4.27706e-05
1.91477e-05
8.43117e-06
3.6595e-06
1.56878e-06
6.65368e-07
2.79638e-07
1.16605e-07
4.82801e-08
1.98447e-08
8.07544e-09
3.22429e-09
1.22996e-09
4.10518e-10
7.19585e-11
3.88437e-07
1.69796e-06
3.90241e-06
7.60267e-06
1.37863e-05
2.40584e-05
4.09934e-05
6.86549e-05
0.000113339
0.000184589
0.000296484
0.000469147
0.000730259
0.00111623
0.00167219
0.00245018
0.00350493
0.00488754
0.00663839
0.00878139
0.0113212
0.0142439
0.0175201
0.0211093
0.024964
0.0290335
0.033266
0.037611
0.042021
0.0464518
0.050864
0.0552227
0.0594981
0.0636654
0.0677044
0.0715993
0.0753374
0.07891
0.0823115
0.0855389
0.0885915
0.0914707
0.0941789
0.0967199
0.099098
0.101318
0.103386
0.105305
0.10708
0.108713
0.110208
0.111565
0.11278
0.11385
0.114765
0.115511
0.116067
0.116398
0.116473
0.116235
0.115602
0.114469
0.110385
0.101662
0.0928098
0.0839771
0.0752777
0.0668019
0.0586223
0.0507991
0.043384
0.0364236
0.0299629
0.0240689
0.0187432
0.0140668
0.0100893
0.00685278
0.00437233
0.00260932
0.00145853
0.000768635
0.000385249
0.000185684
8.71177e-05
3.99646e-05
1.79831e-05
7.95674e-06
3.46878e-06
1.49273e-06
6.3515e-07
2.67617e-07
1.11803e-07
4.63506e-08
1.90656e-08
7.76094e-09
3.09884e-09
1.18194e-09
3.94376e-10
6.91088e-11
3.87901e-07
1.6956e-06
3.89682e-06
7.59105e-06
1.37625e-05
2.40084e-05
4.08857e-05
6.84221e-05
0.000112844
0.000183569
0.000294472
0.000465368
0.000723515
0.00110471
0.00165333
0.00242062
0.00346061
0.00482402
0.00655137
0.00866722
0.0111774
0.0140693
0.0173151
0.0208756
0.0247048
0.0287527
0.0329683
0.0373019
0.0417057
0.0461359
0.0505526
0.0549205
0.0592092
0.0633933
0.067452
0.0713685
0.0751298
0.0787264
0.0821521
0.0854036
0.0884797
0.0913813
0.0941107
0.0966713
0.0990679
0.101305
0.103387
0.105319
0.107104
0.108747
0.11025
0.111612
0.112831
0.113903
0.114819
0.115563
0.116115
0.11644
0.116505
0.116253
0.115601
0.114441
0.108894
0.100155
0.0912862
0.0824417
0.0737401
0.065275
0.0571211
0.0493401
0.0419852
0.0351042
0.028743
0.0229445
0.0177561
0.0132302
0.00941221
0.00633719
0.0040088
0.00237493
0.00132085
0.000694471
0.000348158
0.00016814
7.91199e-05
3.64224e-05
1.64508e-05
7.30675e-06
3.19752e-06
1.38101e-06
5.89593e-07
2.49176e-07
1.04374e-07
4.33682e-08
1.78719e-08
7.28579e-09
2.9124e-09
1.1117e-09
3.71058e-10
6.5026e-11
3.86254e-07
1.68831e-06
3.87973e-06
7.5567e-06
1.36974e-05
2.38882e-05
4.0666e-05
6.80235e-05
0.000112126
0.000182289
0.00029222
0.000461482
0.000716957
0.00109393
0.00163618
0.00239425
0.00342164
0.00476874
0.00647618
0.00856908
0.0110542
0.0139201
0.0171402
0.0206766
0.0244841
0.0285137
0.032715
0.0370386
0.041437
0.0458663
0.0502865
0.0546619
0.0589618
0.0631601
0.0672355
0.0711709
0.0749526
0.0785705
0.0820179
0.0852911
0.0883885
0.0913107
0.0940596
0.0966389
0.0990523
0.101304
0.103399
0.105343
0.107139
0.10879
0.110298
0.111664
0.112885
0.113957
0.11487
0.115609
0.116152
0.116464
0.116515
0.116242
0.115561
0.114366
0.107326
0.0985903
0.0897174
0.0808715
0.0721783
0.0637352
0.0556192
0.0478928
0.0406093
0.0338162
0.0275689
0.0218884
0.016836
0.0124582
0.00879507
0.00587385
0.00368704
0.00217045
0.00120206
0.000630856
0.000316325
0.000152995
7.21486e-05
3.32948e-05
1.50761e-05
6.71257e-06
2.94425e-06
1.27429e-06
5.45057e-07
2.30735e-07
9.67874e-08
4.02642e-08
1.66092e-08
6.77635e-09
2.71035e-09
1.03496e-09
3.45458e-10
6.05312e-11
3.8374e-07
1.67723e-06
3.85381e-06
7.5049e-06
1.36004e-05
2.37121e-05
4.03524e-05
6.74723e-05
0.000111169
0.000180648
0.000289453
0.000456901
0.000709541
0.00108224
0.00161827
0.00236773
0.00338373
0.00471657
0.00640706
0.00848084
0.0109454
0.0137904
0.01699
0.0205073
0.0242979
0.0283133
0.0325036
0.0368197
0.0412144
0.0456436
0.0500672
0.0544495
0.0587592
0.06297
0.0670601
0.0710119
0.0748113
0.0784477
0.081914
0.0852061
0.0883221
0.0912622
0.0940285
0.0966237
0.0990513
0.101316
0.103423
0.105376
0.107179
0.108836
0.110348
0.111715
0.112936
0.114003
0.114909
0.115637
0.116167
0.116461
0.11649
0.116192
0.115483
0.114267
0.105927
0.097174
0.0882733
0.0794093
0.0707155
0.0622912
0.054213
0.0465427
0.0393316
0.0326255
0.026487
0.0209186
0.0159992
0.0117629
0.00824285
0.00546125
0.00340119
0.00198847
0.00109559
0.000573111
0.000286928
0.000138783
6.55013e-05
3.02683e-05
1.37287e-05
6.1241e-06
2.69137e-06
1.1671e-06
5.00136e-07
2.12086e-07
8.91049e-08
3.71195e-08
1.53301e-08
6.26052e-09
2.50584e-09
9.57296e-10
3.19551e-10
5.59874e-11
3.8086e-07
1.66458e-06
3.82444e-06
7.44683e-06
1.3493e-05
2.35204e-05
4.00172e-05
6.68947e-05
0.000110187
0.000179002
0.000286734
0.00045249
0.000702533
0.00107137
0.00160187
0.00234376
0.00334986
0.00467042
0.00634647
0.00840416
0.0108517
0.0136795
0.0168625
0.0203646
0.0241419
0.0281464
0.0323286
0.0366396
0.0410322
0.0454624
0.0498899
0.0542788
0.0585976
0.0628196
0.0669227
0.0708888
0.0747036
0.078356
0.0818387
0.0851471
0.0882791
0.0912348
0.0940153
0.0966234
0.0990631
0.101339
0.103455
0.105415
0.107224
0.108884
0.110397
0.111763
0.112978
0.114037
0.114929
0.11564
0.116146
0.116407
0.116399
0.116056
0.1153
0.114058
0.105192
0.0961461
0.0870835
0.0781367
0.0694112
0.0609912
0.0529443
0.045327
0.0381878
0.031571
0.0255502
0.0200946
0.0152798
0.0111558
0.00775954
0.00510176
0.00315398
0.00183229
0.00100475
0.000523977
0.000261905
0.000126644
5.97926e-05
2.76502e-05
1.25533e-05
5.60591e-06
2.46653e-06
1.07088e-06
4.59446e-07
1.95053e-07
8.20354e-08
3.42073e-08
1.41391e-08
5.7781e-09
2.3139e-09
8.84204e-10
2.95124e-10
5.17008e-11
3.7788e-07
1.65151e-06
3.79419e-06
7.38726e-06
1.33835e-05
2.33259e-05
3.96793e-05
6.63173e-05
0.000109215
0.000177388
0.000284099
0.000448267
0.000695908
0.00106123
0.00158678
0.00232198
0.00331949
0.00462955
0.00629343
0.00833774
0.0107713
0.0135851
0.016755
0.0202452
0.0240123
0.0280087
0.0321852
0.0364929
0.0408848
0.0453169
0.0497487
0.054144
0.0584712
0.0627033
0.0668179
0.0707966
0.0746247
0.0782909
0.0817875
0.0851097
0.0882553
0.0912237
0.0940159
0.096635
0.0990845
0.101369
0.103491
0.105457
0.10727
0.108931
0.110443
0.111805
0.113013
0.11406
0.114935
0.115619
0.116086
0.116295
0.116207
0.115746
0.114812
0.1133
0.104265
0.0950933
0.0859498
0.0769605
0.0682238
0.0598176
0.0518051
0.0442386
0.0371635
0.0306211
0.0246702
0.0193119
0.0146103
0.0106051
0.00733063
0.00478867
0.00294118
0.00169853
0.000926989
0.000481798
0.000240303
0.000116103
5.4804e-05
2.53485e-05
1.15141e-05
5.14548e-06
2.26586e-06
9.84673e-07
4.22869e-07
1.79698e-07
7.56472e-08
3.15705e-08
1.3059e-08
5.33996e-09
2.13936e-09
8.17667e-10
2.72887e-10
4.78057e-11
3.74999e-07
1.63889e-06
3.76506e-06
7.33008e-06
1.32787e-05
2.31409e-05
3.93599e-05
6.5775e-05
0.000108308
0.000175895
0.000281681
0.000444424
0.00068993
0.00105216
0.00157339
0.00230281
0.00329295
0.00459409
0.00624774
0.00828092
0.010703
0.0135056
0.0166649
0.0201458
0.0239052
0.0278957
0.0320683
0.0363743
0.0407666
0.0452011
0.0496374
0.0540389
0.0583739
0.0626151
0.0667399
0.0707296
0.0745693
0.0782474
0.0817559
0.0850899
0.0882464
0.091225
0.094027
0.0966549
0.0991121
0.101403
0.103531
0.1055
0.107315
0.108977
0.110487
0.111844
0.113045
0.114082
0.114941
0.115604
0.11604
0.116207
0.116058
0.115505
0.114428
0.112462
0.10331
0.094065
0.0848816
0.0758799
0.0671544
0.0587801
0.0508175
0.0433172
0.0363224
0.029872
0.0240172
0.0187523
0.0141407
0.0102156
0.00700057
0.00453178
0.00276274
0.00158582
0.000861363
0.00044616
0.000222018
0.000107158
5.05566e-05
2.33815e-05
1.06224e-05
4.74878e-06
2.09226e-06
9.09795e-07
3.9098e-07
1.66264e-07
7.00415e-08
2.92504e-08
1.21065e-08
4.95283e-09
1.98489e-09
7.58678e-10
2.53242e-10
4.43661e-11
3.72322e-07
1.62718e-06
3.73806e-06
7.27718e-06
1.31821e-05
2.29707e-05
3.9067e-05
6.52797e-05
0.000107484
0.000174544
0.000279505
0.000440987
0.000684617
0.00104414
0.00156163
0.0022861
0.00326998
0.0045636
0.00620872
0.00823272
0.0106454
0.013439
0.01659
0.0200637
0.0238173
0.0278036
0.0319738
0.0362791
0.0406726
0.0451099
0.0495506
0.053958
0.0583001
0.0625495
0.0666832
0.0706824
0.074532
0.07822
0.0817386
0.0850821
0.0882477
0.0912349
0.0940448
0.0966797
0.0991429
0.101438
0.10357
0.105542
0.107358
0.10902
0.110528
0.111882
0.113078
0.114107
0.114957
0.11561
0.116032
0.116189
0.116033
0.115484
0.114441
0.111553
0.102354
0.0930792
0.0838819
0.0748816
0.0661707
0.0578225
0.0498959
0.0424405
0.0354989
0.0291105
0.0233146
0.0181339
0.0136151
0.00979539
0.00670179
0.00431287
0.00260896
0.00148911
0.000805404
0.000415856
0.000206477
9.95488e-05
4.69385e-05
2.17027e-05
9.85981e-06
4.40875e-06
1.94313e-06
8.45335e-07
3.63471e-07
1.54654e-07
6.51881e-08
2.72386e-08
1.12793e-08
4.61626e-09
1.85045e-09
7.07394e-10
2.36143e-10
4.13702e-11
3.69907e-07
1.61662e-06
3.71374e-06
7.22962e-06
1.30953e-05
2.28183e-05
3.88056e-05
6.48392e-05
0.000106753
0.000173352
0.000277593
0.000437979
0.00067999
0.0010372
0.0015515
0.00227176
0.00325036
0.00453771
0.00617575
0.00819221
0.0105973
0.0133836
0.0165281
0.0199963
0.0237456
0.0277291
0.0318979
0.0362033
0.0405983
0.0450386
0.0494835
0.0538963
0.0582449
0.0625014
0.0666429
0.0706504
0.0745083
0.0782049
0.0817317
0.0850829
0.088256
0.0912501
0.0940661
0.0967064
0.0991742
0.101473
0.103608
0.105581
0.107397
0.109058
0.110565
0.111916
0.113107
0.114131
0.114975
0.115621
0.116037
0.116188
0.116029
0.115481
0.114445
0.110654
0.101447
0.0921759
0.0829913
0.0740123
0.065333
0.0570251
0.0491463
0.0417457
0.0348544
0.0285118
0.0227515
0.0176272
0.0131768
0.00943227
0.0064157
0.00412174
0.00248226
0.00140753
0.000758093
0.000390286
0.000193377
9.31358e-05
4.38873e-05
2.02854e-05
9.21502e-06
4.12077e-06
1.8166e-06
7.90543e-07
3.40046e-07
1.44751e-07
6.10417e-08
2.55175e-08
1.05709e-08
4.32773e-09
1.73518e-09
6.63433e-10
2.21506e-10
3.88056e-11
3.67778e-07
1.60731e-06
3.69233e-06
7.18779e-06
1.30192e-05
2.26848e-05
3.85769e-05
6.44548e-05
0.000106117
0.000172317
0.00027594
0.000435388
0.000676018
0.00103126
0.00154287
0.0022596
0.0032338
0.00451594
0.00614816
0.00815848
0.0105575
0.013338
0.0164774
0.0199413
0.0236875
0.0276691
0.0318372
0.0361432
0.04054
0.0449833
0.0494322
0.0538499
0.058204
0.0624669
0.066615
0.0706294
0.0744944
0.078198
0.0817314
0.0850891
0.0882682
0.0912677
0.0940885
0.0967329
0.099204
0.101506
0.103642
0.105616
0.107432
0.109091
0.110595
0.111943
0.11313
0.11415
0.114988
0.115628
0.116038
0.116185
0.116023
0.115475
0.114442
0.109842
0.10063
0.0913627
0.0821943
0.0732428
0.0645958
0.0563175
0.0484659
0.0410874
0.0342335
0.0279409
0.0222442
0.0171836
0.0127991
0.00912217
0.00617303
0.0039423
0.00237139
0.0013404
0.000718393
0.000368769
0.000182381
8.77582e-05
4.13293e-05
1.90968e-05
8.67389e-06
3.87886e-06
1.71019e-06
7.44405e-07
3.20295e-07
1.3639e-07
5.75366e-08
2.40609e-08
9.97076e-09
4.08318e-09
1.63745e-09
6.26144e-10
2.09083e-10
3.66289e-11
3.65939e-07
1.59927e-06
3.67384e-06
7.15171e-06
1.29536e-05
2.25699e-05
3.83806e-05
6.41254e-05
0.000105573
0.000171435
0.000274533
0.00043319
0.00067266
0.00102626
0.00153562
0.00224942
0.00321998
0.00449785
0.00612531
0.00813066
0.0105247
0.0133007
0.0164361
0.0198969
0.0236409
0.0276212
0.0317892
0.036096
0.0404947
0.0449407
0.0493932
0.0538152
0.0581742
0.0624424
0.0665962
0.0706164
0.0744872
0.0781964
0.0817352
0.085098
0.0882817
0.0912854
0.0941098
0.0967571
0.0992304
0.101533
0.10367
0.105644
0.107459
0.109117
0.110618
0.111963
0.113146
0.11416
0.114993
0.115628
0.116032
0.116174
0.116008
0.11546
0.114431
0.109143
0.0999224
0.0906587
0.0815034
0.072563
0.0639261
0.0556698
0.0478502
0.0405145
0.0337048
0.0274595
0.0218135
0.0168073
0.0124796
0.00886133
0.00597056
0.00379449
0.00227017
0.00128287
0.00068624
0.000351007
0.000173244
8.32991e-05
3.92091e-05
1.81114e-05
8.22494e-06
3.67792e-06
1.62168e-06
7.05977e-07
3.03821e-07
1.29406e-07
5.46054e-08
2.28413e-08
9.46781e-09
3.87805e-09
1.55543e-09
5.94836e-10
1.98638e-10
3.47987e-11
3.64379e-07
1.59246e-06
3.65818e-06
7.12117e-06
1.28981e-05
2.24729e-05
3.8215e-05
6.38481e-05
0.000105117
0.000170695
0.000273356
0.000431355
0.000669863
0.0010221
0.00152961
0.00224101
0.00320861
0.004483
0.00610662
0.00810798
0.0104982
0.0132705
0.0164029
0.0198613
0.0236037
0.0275833
0.0317514
0.0360592
0.0404596
0.0449081
0.0493637
0.0537894
0.0581526
0.0624252
0.0665836
0.0706086
0.074484
0.0781977
0.0817408
0.0851076
0.0882948
0.0913016
0.0941285
0.0967777
0.0992524
0.101556
0.103693
0.105666
0.107479
0.109135
0.110633
0.111974
0.113152
0.114161
0.11499
0.115618
0.116017
0.116154
0.115986
0.115438
0.114416
0.108548
0.0993148
0.0900514
0.0808971
0.0719692
0.0633552
0.0551251
0.0473356
0.0400339
0.0332614
0.0270561
0.0214527
0.0164923
0.0122128
0.00864429
0.00580314
0.00367349
0.00218873
0.00123148
0.000659109
0.000337039
0.00016596
7.96772e-05
3.74782e-05
1.7305e-05
7.85673e-06
3.51279e-06
1.54882e-06
6.74288e-07
2.90217e-07
1.23632e-07
5.21787e-08
2.18306e-08
9.05062e-09
3.70778e-09
1.48732e-09
5.68827e-10
1.8996e-10
3.32781e-11
3.63085e-07
1.58681e-06
3.6452e-06
7.09587e-06
1.28522e-05
2.23927e-05
3.80783e-05
6.36194e-05
0.000104741
0.000170087
0.00027239
0.000429852
0.000667575
0.00101871
0.00152472
0.00223418
0.00319939
0.00447099
0.00609157
0.00808977
0.0104769
0.0132465
0.0163765
0.0198332
0.0235745
0.0275536
0.0317219
0.0360307
0.0404327
0.0448834
0.0493416
0.0537704
0.0581369
0.0624131
0.0665752
0.0706039
0.0744829
0.0782001
0.0817464
0.0851162
0.088306
0.0913149
0.0941435
0.0967938
0.099269
0.101573
0.103709
0.10568
0.107492
0.109144
0.11064
0.111976
0.11315
0.114154
0.114977
0.1156
0.115994
0.116127
0.115957
0.115411
0.114398
0.108056
0.0988066
0.0895379
0.080391
0.0714765
0.062881
0.0546733
0.0469093
0.0396361
0.0328947
0.0267228
0.0211548
0.0162324
0.011993
0.0084659
0.00566608
0.00357506
0.00212313
0.00119077
0.000635204
0.000324973
0.000160161
7.68222e-05
3.60888e-05
1.66507e-05
7.55693e-06
3.37816e-06
1.48933e-06
6.48391e-07
2.79088e-07
1.18905e-07
5.01909e-08
2.10023e-08
8.70862e-09
3.56814e-09
1.43151e-09
5.47508e-10
1.82848e-10
3.20322e-11
3.6204e-07
1.58225e-06
3.63471e-06
7.07544e-06
1.28151e-05
2.2328e-05
3.79682e-05
6.34354e-05
0.000104438
0.000169599
0.000271617
0.00042865
0.000665749
0.001016
0.00152083
0.00222876
0.00319208
0.0044615
0.00607969
0.00807544
0.0104602
0.0132277
0.016356
0.0198114
0.0235518
0.0275308
0.0316994
0.036009
0.0404123
0.0448648
0.0493251
0.0537563
0.0581255
0.0624045
0.0665694
0.0706008
0.0744826
0.0782022
0.0817509
0.0851227
0.0883143
0.0913245
0.094154
0.0968048
0.0992799
0.101583
0.103718
0.105688
0.107497
0.109146
0.110638
0.11197
0.11314
0.114139
0.114956
0.115575
0.115964
0.116094
0.115923
0.11538
0.114379
0.107659
0.0983949
0.0891211
0.0799785
0.0710747
0.0624944
0.0543054
0.0465628
0.0393131
0.0325972
0.0264527
0.0209136
0.0160222
0.0118154
0.00832211
0.00555591
0.00349622
0.00207087
0.00115861
0.000616559
0.000314517
0.000154821
7.43793e-05
3.49754e-05
1.61294e-05
7.31604e-06
3.26939e-06
1.44122e-06
6.27455e-07
2.70102e-07
1.15091e-07
4.85891e-08
2.03356e-08
8.4336e-09
3.45601e-09
1.38668e-09
5.304e-10
1.77145e-10
3.10333e-11
3.61227e-07
1.57869e-06
3.62656e-06
7.05956e-06
1.27863e-05
2.22778e-05
3.78828e-05
6.32928e-05
0.000104204
0.000169221
0.000271019
0.000427722
0.000664341
0.00101392
0.00151784
0.0022246
0.00318648
0.00445424
0.00607062
0.00806452
0.0104475
0.0132134
0.0163404
0.0197949
0.0235348
0.0275136
0.0316826
0.0359929
0.0403972
0.044851
0.049313
0.053746
0.0581171
0.0623981
0.066565
0.0705983
0.0744819
0.0782033
0.0817535
0.0851265
0.0883191
0.09133
0.0941598
0.0968106
0.0992851
0.101587
0.10372
0.105689
0.107495
0.109142
0.110629
0.111958
0.113122
0.114117
0.114929
0.115543
0.115928
0.116056
0.115886
0.115348
0.11436
0.107346
0.0980648
0.0887878
0.0796493
0.0707549
0.0621875
0.0540141
0.0462891
0.0390586
0.0323633
0.0262407
0.0207247
0.0158577
0.0116768
0.00821004
0.00547027
0.00343514
0.00203053
0.00113395
0.000602473
0.000306895
0.000150864
7.23682e-05
3.40148e-05
1.57037e-05
7.12647e-06
3.18494e-06
1.40393e-06
6.1122e-07
2.63134e-07
1.12136e-07
4.73508e-08
1.98204e-08
8.22197e-09
3.36998e-09
1.35224e-09
5.17283e-10
1.72767e-10
3.02667e-11
3.60631e-07
1.57609e-06
3.62058e-06
7.04794e-06
1.27653e-05
2.22411e-05
3.78203e-05
6.31885e-05
0.000104033
0.000168946
0.000270582
0.000427045
0.000663316
0.00101241
0.00151567
0.00222157
0.00318242
0.00444899
0.00606406
0.00805663
0.0104384
0.0132031
0.0163293
0.0197831
0.0235227
0.0275014
0.0316706
0.0359814
0.0403865
0.0448413
0.0493044
0.0537386
0.0581111
0.0623933
0.0665614
0.0705959
0.0744806
0.0782029
0.081754
0.0851277
0.0883207
0.0913318
0.0941615
0.0968118
0.0992855
0.101586
0.103718
0.105684
0.107487
0.109131
0.110615
0.111939
0.1131
0.114089
0.114897
0.115507
0.115889
0.116016
0.115848
0.115316
0.114344
0.107114
0.0978169
0.0885352
0.0793994
0.0705123
0.0619555
0.0537947
0.0460837
0.0388683
0.032189
0.026083
0.0205845
0.0157361
0.0115744
0.00812756
0.00540742
0.00339045
0.0020011
0.00111598
0.00059223
0.000301384
0.000148035
7.09714e-05
3.33426e-05
1.53842e-05
6.98452e-06
3.12292e-06
1.37721e-06
5.99696e-07
2.58237e-07
1.10055e-07
4.64842e-08
1.9458e-08
8.07294e-09
3.309e-09
1.32777e-09
5.07976e-10
1.69646e-10
2.97194e-11
3.60242e-07
1.57439e-06
3.61668e-06
7.04034e-06
1.27515e-05
2.22171e-05
3.77795e-05
6.31206e-05
0.000103922
0.000168766
0.000270299
0.000426606
0.00066265
0.00101142
0.00151426
0.00221962
0.00317979
0.00444559
0.00605982
0.00805154
0.0104325
0.0131965
0.0163221
0.0197755
0.0235149
0.0274936
0.0316629
0.035974
0.0403797
0.044835
0.0492988
0.0537338
0.058107
0.0623899
0.0665587
0.0705936
0.0744788
0.0782015
0.0817529
0.0851269
0.0883199
0.0913309
0.0941602
0.0968098
0.0992825
0.101582
0.103712
0.105676
0.107477
0.109118
0.110599
0.111919
0.113075
0.114061
0.114865
0.11547
0.11585
0.115976
0.115811
0.115287
0.114333
0.106961
0.097648
0.0883609
0.0792266
0.0703451
0.0617964
0.053645
0.0459444
0.03874
0.032072
0.0259778
0.0204914
0.0156555
0.0115069
0.00807335
0.00536632
0.00336137
0.00198203
0.00110435
0.000585589
0.00029781
0.000146202
7.00714e-05
3.2926e-05
1.51861e-05
6.89387e-06
3.08145e-06
1.35947e-06
5.91993e-07
2.55026e-07
1.08692e-07
4.59214e-08
1.92228e-08
7.97639e-09
3.26978e-09
1.31204e-09
5.02007e-10
1.67646e-10
2.93686e-11
3.60052e-07
1.57356e-06
3.61478e-06
7.03666e-06
1.27449e-05
2.22055e-05
3.77599e-05
6.3088e-05
0.000103869
0.000168681
0.000270164
0.000426397
0.000662335
0.00101096
0.00151359
0.00221869
0.00317855
0.00444398
0.00605782
0.00804913
0.0104297
0.0131934
0.0163187
0.0197719
0.0235111
0.0274898
0.0316592
0.0359705
0.0403764
0.044832
0.0492961
0.0537314
0.0581049
0.0623881
0.0665571
0.0705922
0.0744773
0.0782001
0.0817514
0.0851253
0.0883182
0.0913289
0.0941578
0.0968068
0.0992789
0.101577
0.103706
0.105669
0.107468
0.109107
0.110585
0.111903
0.113056
0.114039
0.11484
0.115443
0.11582
0.115946
0.115782
0.115266
0.114326
0.106886
0.097559
0.0882676
0.0791341
0.0702564
0.0617128
0.0535674
0.045873
0.0386748
0.0320132
0.0259254
0.0204455
0.0156161
0.0114742
0.00804732
0.00534674
0.00334764
0.00197311
0.00109896
0.000582519
0.000296158
0.000145353
6.96551e-05
3.2735e-05
1.50959e-05
6.85329e-06
3.06283e-06
1.3512e-06
5.88331e-07
2.53469e-07
1.08027e-07
4.56457e-08
1.91076e-08
7.92847e-09
3.25066e-09
1.30437e-09
4.99099e-10
1.66671e-10
2.91974e-11
3.60052e-07
1.57357e-06
3.61479e-06
7.03667e-06
1.27449e-05
2.22056e-05
3.776e-05
6.30881e-05
0.000103869
0.000168681
0.000270164
0.000426397
0.000662335
0.00101096
0.00151359
0.00221869
0.00317856
0.00444398
0.00605782
0.00804914
0.0104297
0.0131934
0.0163187
0.0197719
0.0235111
0.0274899
0.0316593
0.0359705
0.0403764
0.044832
0.0492961
0.0537314
0.0581049
0.0623881
0.0665571
0.0705922
0.0744773
0.0782001
0.0817514
0.0851253
0.0883182
0.0913289
0.0941578
0.0968068
0.0992789
0.101577
0.103706
0.105669
0.107468
0.109107
0.110585
0.111903
0.113056
0.114039
0.11484
0.115443
0.11582
0.115946
0.115782
0.115266
0.114326
0.106886
0.097559
0.0882676
0.0791342
0.0702564
0.0617129
0.0535674
0.045873
0.0386749
0.0320133
0.0259254
0.0204455
0.0156161
0.0114742
0.00804734
0.00534676
0.00334765
0.00197312
0.00109896
0.000582522
0.000296159
0.000145354
6.96554e-05
3.27348e-05
1.50959e-05
6.85319e-06
3.06279e-06
1.35117e-06
5.8832e-07
2.53463e-07
1.08024e-07
4.56438e-08
1.91068e-08
7.92748e-09
3.25055e-09
1.30433e-09
4.99077e-10
1.66666e-10
2.91966e-11
3.60243e-07
1.5744e-06
3.61669e-06
7.04036e-06
1.27516e-05
2.22172e-05
3.77796e-05
6.31208e-05
0.000103922
0.000168767
0.000270299
0.000426607
0.000662652
0.00101143
0.00151426
0.00221962
0.0031798
0.00444559
0.00605983
0.00805155
0.0104325
0.0131965
0.0163221
0.0197755
0.0235149
0.0274936
0.0316629
0.0359741
0.0403797
0.044835
0.0492988
0.0537338
0.058107
0.0623899
0.0665587
0.0705936
0.0744788
0.0782016
0.0817529
0.0851269
0.0883199
0.0913309
0.0941602
0.0968098
0.0992825
0.101582
0.103712
0.105676
0.107477
0.109118
0.110599
0.111919
0.113075
0.114061
0.114865
0.11547
0.11585
0.115976
0.115811
0.115287
0.114333
0.106961
0.0976482
0.0883611
0.0792268
0.0703453
0.0617966
0.0536452
0.0459446
0.0387401
0.0320722
0.0259779
0.0204915
0.0156555
0.011507
0.00807341
0.00536636
0.0033614
0.00198205
0.00110436
0.000585595
0.000297813
0.000146204
7.00724e-05
3.29257e-05
1.5186e-05
6.89363e-06
3.08136e-06
1.3594e-06
5.91968e-07
2.55011e-07
1.08687e-07
4.5916e-08
1.92213e-08
7.97378e-09
3.26954e-09
1.31196e-09
5.01957e-10
1.67635e-10
2.93667e-11
3.60633e-07
1.5761e-06
3.6206e-06
7.04798e-06
1.27653e-05
2.22412e-05
3.78205e-05
6.31889e-05
0.000104034
0.000168946
0.000270584
0.000427047
0.000663319
0.00101241
0.00151567
0.00222158
0.00318243
0.004449
0.00606408
0.00805665
0.0104384
0.0132032
0.0163293
0.0197831
0.0235227
0.0275014
0.0316706
0.0359814
0.0403865
0.0448413
0.0493044
0.0537386
0.0581111
0.0623933
0.0665614
0.0705959
0.0744806
0.0782029
0.081754
0.0851277
0.0883207
0.0913318
0.0941615
0.0968118
0.0992855
0.101586
0.103718
0.105684
0.107487
0.109131
0.110615
0.111939
0.1131
0.114089
0.114897
0.115507
0.115889
0.116016
0.115848
0.115316
0.114344
0.107114
0.0978173
0.0885356
0.0793998
0.0705127
0.0619559
0.053795
0.046084
0.0388686
0.0321892
0.0260833
0.0205847
0.0157362
0.0115745
0.00812766
0.0054075
0.0033905
0.00200113
0.001116
0.000592241
0.00030139
0.000148038
7.09728e-05
3.33432e-05
1.53844e-05
6.98443e-06
3.12288e-06
1.37715e-06
5.99674e-07
2.58219e-07
1.10047e-07
4.64721e-08
1.94569e-08
8.07062e-09
3.30885e-09
1.3277e-09
5.07926e-10
1.69635e-10
2.97174e-11
3.6123e-07
1.57871e-06
3.62658e-06
7.05962e-06
1.27864e-05
2.2278e-05
3.7883e-05
6.32932e-05
0.000104205
0.000169222
0.00027102
0.000427724
0.000664345
0.00101393
0.00151785
0.00222461
0.0031865
0.00445426
0.00607064
0.00806454
0.0104475
0.0132134
0.0163405
0.0197949
0.0235349
0.0275137
0.0316826
0.0359929
0.0403973
0.0448511
0.049313
0.053746
0.0581172
0.0623981
0.066565
0.0705983
0.0744819
0.0782033
0.0817535
0.0851265
0.0883191
0.09133
0.0941598
0.0968105
0.0992851
0.101587
0.10372
0.105689
0.107495
0.109142
0.110629
0.111958
0.113122
0.114117
0.114929
0.115543
0.115928
0.116056
0.115886
0.115348
0.11436
0.107346
0.0980654
0.0887883
0.0796499
0.0707554
0.062188
0.0540145
0.0462895
0.039059
0.0323637
0.026241
0.0207249
0.0158579
0.011677
0.00821019
0.00547037
0.00343521
0.00203058
0.00113398
0.00060249
0.000306903
0.000150869
7.23702e-05
3.40156e-05
1.5704e-05
7.12653e-06
3.18493e-06
1.40392e-06
6.11215e-07
2.6313e-07
1.12132e-07
4.73473e-08
1.98198e-08
8.221e-09
3.36997e-09
1.35222e-09
5.17255e-10
1.72764e-10
3.02661e-11
3.62044e-07
1.58226e-06
3.63475e-06
7.07551e-06
1.28153e-05
2.23282e-05
3.79686e-05
6.3436e-05
0.000104439
0.0001696
0.000271619
0.000428653
0.000665754
0.00101601
0.00152084
0.00222877
0.0031921
0.00446153
0.00607972
0.00807547
0.0104602
0.0132277
0.016356
0.0198114
0.0235519
0.0275308
0.0316995
0.0360091
0.0404124
0.0448648
0.0493252
0.0537563
0.0581255
0.0624045
0.0665694
0.0706008
0.0744826
0.0782023
0.0817509
0.0851227
0.0883143
0.0913245
0.094154
0.0968048
0.0992799
0.101583
0.103718
0.105688
0.107497
0.109146
0.110638
0.11197
0.11314
0.114139
0.114957
0.115575
0.115964
0.116094
0.115924
0.11538
0.114379
0.10766
0.0983957
0.0891219
0.0799793
0.0710755
0.0624951
0.054306
0.0465634
0.0393137
0.0325977
0.0264531
0.020914
0.0160225
0.0118157
0.00832231
0.00555605
0.00349633
0.00207093
0.00115865
0.000616581
0.000314529
0.000154827
7.4382e-05
3.49767e-05
1.61299e-05
7.31629e-06
3.26952e-06
1.44129e-06
6.27481e-07
2.70113e-07
1.15095e-07
4.85906e-08
2.0336e-08
8.43374e-09
3.45611e-09
1.38671e-09
5.30409e-10
1.77151e-10
3.10345e-11
3.6309e-07
1.58683e-06
3.64524e-06
7.09595e-06
1.28523e-05
2.23929e-05
3.80787e-05
6.36201e-05
0.000104742
0.000170089
0.000272393
0.000429856
0.000667582
0.00101872
0.00152474
0.0022342
0.00319941
0.00447102
0.0060916
0.00808981
0.0104769
0.0132465
0.0163766
0.0198333
0.0235745
0.0275537
0.031722
0.0360308
0.0404327
0.0448834
0.0493417
0.0537704
0.0581369
0.0624131
0.0665753
0.0706039
0.074483
0.0782001
0.0817464
0.0851162
0.088306
0.0913149
0.0941435
0.0967938
0.099269
0.101573
0.103709
0.10568
0.107492
0.109144
0.11064
0.111976
0.11315
0.114154
0.114977
0.1156
0.115994
0.116127
0.115957
0.115411
0.114398
0.108057
0.0988076
0.0895389
0.080392
0.0714775
0.0628819
0.0546741
0.0469101
0.0396368
0.0328953
0.0267233
0.0211553
0.0162328
0.0119933
0.00846616
0.00566627
0.00357519
0.00212321
0.00119082
0.000635232
0.000324988
0.000160168
7.68256e-05
3.60904e-05
1.66515e-05
7.55733e-06
3.37834e-06
1.48941e-06
6.48425e-07
2.79103e-07
1.18911e-07
5.01934e-08
2.10034e-08
8.70902e-09
3.56831e-09
1.43158e-09
5.47533e-10
1.8286e-10
3.20343e-11
3.64384e-07
1.59248e-06
3.65823e-06
7.12127e-06
1.28983e-05
2.24732e-05
3.82155e-05
6.38489e-05
0.000105118
0.000170697
0.00027336
0.00043136
0.00066987
0.00102211
0.00152963
0.00224103
0.00320863
0.00448303
0.00610667
0.00810803
0.0104982
0.0132706
0.016403
0.0198614
0.0236038
0.0275834
0.0317514
0.0360592
0.0404597
0.0449082
0.0493638
0.0537895
0.0581526
0.0624252
0.0665836
0.0706086
0.074484
0.0781977
0.0817408
0.0851076
0.0882948
0.0913016
0.0941285
0.0967777
0.0992523
0.101556
0.103693
0.105666
0.107479
0.109135
0.110633
0.111974
0.113152
0.114161
0.11499
0.115618
0.116017
0.116154
0.115986
0.115438
0.114416
0.108549
0.099316
0.0900525
0.0808983
0.0719703
0.0633563
0.0551261
0.0473365
0.0400347
0.0332622
0.0270568
0.0214533
0.0164928
0.0122132
0.00864461
0.00580337
0.00367365
0.00218884
0.00123155
0.000659144
0.000337057
0.000165969
7.96817e-05
3.74804e-05
1.73061e-05
7.85721e-06
3.513e-06
1.54891e-06
6.74329e-07
2.90235e-07
1.23639e-07
5.21819e-08
2.1832e-08
9.05118e-09
3.70801e-09
1.48741e-09
5.68861e-10
1.89974e-10
3.32809e-11
3.65944e-07
1.5993e-06
3.6739e-06
7.15182e-06
1.29538e-05
2.25702e-05
3.83811e-05
6.41263e-05
0.000105575
0.000171437
0.000274537
0.000433196
0.000672668
0.00102627
0.00153564
0.00224945
0.00322002
0.00449789
0.00612536
0.00813072
0.0105248
0.0133007
0.0164362
0.019897
0.023641
0.0276213
0.0317892
0.0360961
0.0404947
0.0449408
0.0493932
0.0538152
0.0581743
0.0624424
0.0665962
0.0706164
0.0744873
0.0781964
0.0817352
0.085098
0.0882817
0.0912854
0.0941098
0.0967571
0.0992304
0.101533
0.10367
0.105644
0.107459
0.109117
0.110618
0.111963
0.113146
0.11416
0.114993
0.115628
0.116032
0.116174
0.116008
0.11546
0.114431
0.109145
0.0999234
0.0906596
0.0815045
0.0725641
0.063927
0.0556707
0.047851
0.0405152
0.0337055
0.0274602
0.0218141
0.0168078
0.0124801
0.0088617
0.00597084
0.00379469
0.0022703
0.00128294
0.000686283
0.00035103
0.000173256
8.3305e-05
3.92119e-05
1.81127e-05
8.22553e-06
3.67819e-06
1.6218e-06
7.06028e-07
3.03843e-07
1.29416e-07
5.46094e-08
2.2843e-08
9.46851e-09
3.87834e-09
1.55554e-09