/*--------------------------------*- C++ -*----------------------------------*\
  =========                 |
  \\      /  F ield         | OpenFOAM: The Open Source CFD Toolbox
   \\    /   O peration     | Website:  https://openfoam.org
    \\  /    A nd           | Version:  8
     \\/     M anipulation  |
\*---------------------------------------------------------------------------*/
FoamFile
{
    version     2.0;
    format      ascii;
    class       volScalarField;
    location    "1000/fluid";
    object      N2;
}
// * * * * * * * * * * * * * * * * * * * * * * * * * * * * * * * * * * * * * //

dimensions      [0 0 0 0 0 0 0];

internalField   nonuniform List<scalar> 
4000
(
2.30485e-06
1.00715e-05
2.31312e-05
4.50227e-05
8.15626e-05
0.000142217
0.000242211
0.000405679
0.00067024
0.00109332
0.00176042
0.00279497
0.00436839
0.00670744
0.0100944
0.0148548
0.0213288
0.0298289
0.0405938
0.0537518
0.0693069
0.0871472
0.107069
0.128805
0.152054
0.176501
0.201834
0.227753
0.25398
0.28026
0.306369
0.33211
0.357315
0.381848
0.405599
0.428481
0.450428
0.471394
0.491353
0.510294
0.528216
0.545133
0.561064
0.576038
0.590086
0.603246
0.615556
0.627057
0.637791
0.6478
0.657125
0.665807
0.673886
0.6814
0.688387
0.694881
0.700916
0.706448
0.71153
0.71639
0.720911
0.725119
0.728985
0.732696
0.736247
0.739642
0.742882
0.745967
0.748897
0.751669
0.754278
0.756719
0.758985
0.761056
0.762943
0.76462
0.766072
0.767281
0.768234
0.768931
0.769398
0.769684
0.769843
0.769925
0.769965
0.769984
0.769993
0.769997
0.769999
0.769999
0.77
0.77
0.77
0.77
0.77
0.77
0.77
0.77
0.77
0.77
2.30683e-06
1.00825e-05
2.31665e-05
4.5119e-05
8.17932e-05
0.00014271
0.000243161
0.000407326
0.00067275
0.00109649
0.00176303
0.00279373
0.0043563
0.00667154
0.0100137
0.0146993
0.0210609
0.0294076
0.0399812
0.0529203
0.0682442
0.0858578
0.105573
0.127135
0.150251
0.174609
0.199897
0.225812
0.25207
0.278414
0.30461
0.330457
0.355783
0.380446
0.404331
0.427349
0.44943
0.470527
0.49061
0.509668
0.5277
0.544718
0.560742
0.575799
0.589923
0.60315
0.615519
0.627073
0.637853
0.647901
0.65726
0.665972
0.674075
0.68161
0.688613
0.69512
0.701166
0.706704
0.711789
0.716654
0.721179
0.725385
0.729257
0.732977
0.736536
0.739938
0.743185
0.746275
0.749209
0.751983
0.754593
0.757031
0.759291
0.761351
0.763221
0.764875
0.766295
0.767463
0.76837
0.769023
0.769453
0.769712
0.769856
0.769931
0.769968
0.769985
0.769993
0.769997
0.769999
0.769999
0.77
0.77
0.77
0.77
0.77
0.77
0.77
0.77
0.77
0.77
2.31179e-06
1.01055e-05
2.32253e-05
4.52473e-05
8.2049e-05
0.000143183
0.000243969
0.000408592
0.000674523
0.00109854
0.00176445
0.00279198
0.00434586
0.00664272
0.00995113
0.0145807
0.0208571
0.0290841
0.0395021
0.0522531
0.0673647
0.0847538
0.104246
0.125599
0.148532
0.172741
0.197918
0.223765
0.249997
0.276352
0.302595
0.328518
0.353946
0.37873
0.40275
0.425913
0.448145
0.469395
0.48963
0.508836
0.52701
0.544162
0.560312
0.575486
0.589716
0.603041
0.6155
0.627131
0.63798
0.648089
0.657501
0.666258
0.6744
0.681967
0.688998
0.695527
0.701589
0.707133
0.712223
0.717089
0.721604
0.725809
0.729699
0.733433
0.737002
0.740409
0.743658
0.746748
0.749678
0.752443
0.75504
0.75746
0.759695
0.761727
0.763558
0.765165
0.766532
0.767644
0.768497
0.769103
0.769499
0.769736
0.769868
0.769936
0.76997
0.769986
0.769994
0.769997
0.769999
0.769999
0.77
0.77
0.77
0.77
0.77
0.77
0.77
0.77
0.77
0.77
2.30866e-06
1.00916e-05
2.31925e-05
4.51793e-05
8.19094e-05
0.000142889
0.000243335
0.000407218
0.000671595
0.00109251
0.00175252
0.00276956
0.00430584
0.00657433
0.00983916
0.0144052
0.0205938
0.0287069
0.0389852
0.0515751
0.0665106
0.083717
0.103028
0.124212
0.146993
0.171074
0.196153
0.221931
0.248127
0.274479
0.300749
0.326728
0.352235
0.377119
0.401257
0.424549
0.44692
0.468313
0.488694
0.508044
0.526359
0.543647
0.559926
0.575222
0.589566
0.602995
0.615545
0.627261
0.638185
0.648361
0.657831
0.666638
0.674823
0.682426
0.689485
0.696037
0.702118
0.707662
0.712746
0.71761
0.722134
0.726335
0.73024
0.733981
0.737553
0.740961
0.744205
0.747287
0.750203
0.752951
0.755524
0.757915
0.760115
0.762113
0.763896
0.765452
0.766764
0.767821
0.768622
0.769183
0.769546
0.769761
0.76988
0.769942
0.769973
0.769987
0.769994
0.769997
0.769999
0.77
0.77
0.77
0.77
0.77
0.77
0.77
0.77
0.77
0.77
0.77
2.29891e-06
1.00485e-05
2.30914e-05
4.49759e-05
8.1524e-05
0.000142177
0.000242033
0.000404855
0.000667337
0.00108491
0.00173916
0.0027465
0.00426691
0.00651037
0.0097373
0.0142486
0.0203624
0.0283786
0.0385388
0.0509924
0.0657792
0.0828315
0.101991
0.123031
0.145684
0.169657
0.194651
0.220371
0.246535
0.272882
0.299173
0.325198
0.350772
0.375741
0.399979
0.423384
0.445876
0.467397
0.487908
0.507388
0.525832
0.543245
0.559643
0.575053
0.589504
0.603028
0.615669
0.627466
0.638462
0.648701
0.658226
0.66708
0.675304
0.68294
0.690025
0.696599
0.702688
0.708216
0.713306
0.718185
0.722707
0.726875
0.730808
0.734553
0.738125
0.741527
0.744763
0.747831
0.75073
0.753455
0.756001
0.75836
0.760519
0.762475
0.764212
0.765717
0.766976
0.76798
0.768732
0.769254
0.769587
0.769783
0.769891
0.769947
0.769975
0.769989
0.769995
0.769998
0.769999
0.77
0.77
0.77
0.77
0.77
0.77
0.77
0.77
0.77
0.77
0.77
2.28401e-06
9.98278e-06
2.29377e-05
4.46687e-05
8.09485e-05
0.000141132
0.000240173
0.000401584
0.000661656
0.00107517
0.00172274
0.00271931
0.00422288
0.00644092
0.00963098
0.0140911
0.0201374
0.0280689
0.0381285
0.0504686
0.0651339
0.0820619
0.1011
0.122027
0.14458
0.168469
0.193398
0.219074
0.245217
0.271564
0.297877
0.323943
0.349576
0.37462
0.398946
0.422449
0.445048
0.466679
0.487305
0.5069
0.525458
0.542982
0.559488
0.574997
0.589538
0.603149
0.615868
0.627735
0.638795
0.649088
0.65866
0.667554
0.67581
0.683471
0.690576
0.697158
0.703259
0.708788
0.713895
0.718776
0.723294
0.727423
0.731358
0.735105
0.738674
0.74207
0.745294
0.748347
0.751226
0.753927
0.756444
0.75877
0.76089
0.762807
0.764498
0.765954
0.767165
0.768122
0.76883
0.769316
0.769623
0.769803
0.769901
0.769952
0.769977
0.76999
0.769995
0.769998
0.769999
0.77
0.77
0.77
0.77
0.77
0.77
0.77
0.77
0.77
0.77
0.77
2.26692e-06
9.90771e-06
2.27634e-05
4.43241e-05
8.03114e-05
0.000139995
0.000238183
0.000398156
0.000655827
0.0010654
0.0017066
0.00269312
0.00418127
0.0063764
0.00953364
0.0139488
0.0199363
0.027795
0.037769
0.0500137
0.0645779
0.0814042
0.100344
0.121182
0.143656
0.167481
0.192362
0.218009
0.24414
0.270494
0.296831
0.322937
0.348625
0.373736
0.39814
0.421729
0.444419
0.466147
0.48687
0.506563
0.525217
0.542838
0.559435
0.575029
0.589652
0.603337
0.616123
0.628051
0.639163
0.649502
0.659113
0.668037
0.676318
0.683995
0.691107
0.697697
0.703802
0.70928
0.714514
0.719367
0.723864
0.72796
0.731883
0.735623
0.739184
0.74257
0.745782
0.748818
0.751677
0.754354
0.756843
0.759136
0.761214
0.763092
0.764747
0.766165
0.767332
0.768246
0.768916
0.76937
0.769654
0.76982
0.76991
0.769956
0.769979
0.76999
0.769996
0.769998
0.769999
0.77
0.77
0.77
0.77
0.77
0.77
0.77
0.77
0.77
0.77
0.77
2.24923e-06
9.83017e-06
2.25839e-05
4.39706e-05
7.96611e-05
0.00013884
0.000236177
0.000394729
0.000650055
0.00105582
0.00169095
0.00266805
0.00414195
0.00631621
0.00944406
0.0138196
0.0197561
0.0275525
0.0374543
0.0496198
0.0641013
0.0808452
0.0997072
0.120474
0.142889
0.166666
0.191515
0.217143
0.243271
0.269637
0.296
0.322145
0.347883
0.373056
0.397529
0.421194
0.443966
0.465778
0.486588
0.506368
0.525106
0.542804
0.559474
0.57514
0.589829
0.603576
0.616417
0.628393
0.639548
0.649925
0.659566
0.668516
0.676818
0.684512
0.69164
0.698241
0.704325
0.709799
0.715039
0.719887
0.724375
0.728453
0.732366
0.736097
0.739648
0.743023
0.74622
0.74924
0.752079
0.754733
0.757197
0.759463
0.761517
0.76336
0.764977
0.766354
0.767479
0.768353
0.768988
0.769416
0.769681
0.769834
0.769917
0.76996
0.769981
0.769991
0.769996
0.769998
0.769999
0.77
0.77
0.77
0.77
0.77
0.77
0.77
0.77
0.77
0.77
0.77
2.23214e-06
9.75531e-06
2.2411e-05
4.36313e-05
7.90396e-05
0.000137742
0.000234282
0.00039151
0.000644673
0.00104696
0.0016766
0.00264524
0.00410647
0.00626236
0.00936457
0.0137058
0.0195986
0.0273422
0.0371834
0.0492831
0.0636967
0.0803741
0.0991741
0.119887
0.142256
0.165999
0.190826
0.216444
0.242576
0.268957
0.295347
0.32153
0.347316
0.372543
0.397077
0.420809
0.44365
0.465533
0.486413
0.506266
0.525075
0.54284
0.559576
0.575302
0.590046
0.603843
0.616729
0.628745
0.639934
0.650339
0.660004
0.668972
0.677287
0.68499
0.692121
0.698718
0.704782
0.710252
0.715487
0.720329
0.72481
0.728883
0.732795
0.73652
0.740064
0.743427
0.74661
0.749612
0.752429
0.755057
0.757491
0.759724
0.761743
0.763554
0.765139
0.766488
0.767593
0.768442
0.76905
0.769455
0.769704
0.769847
0.769924
0.769963
0.769983
0.769992
0.769996
0.769998
0.769999
0.77
0.77
0.77
0.77
0.77
0.77
0.77
0.77
0.77
0.77
0.77
2.21625e-06
9.6858e-06
2.22508e-05
4.33173e-05
7.84659e-05
0.000136732
0.000232543
0.000388571
0.00063978
0.00103894
0.00166369
0.00262485
0.00407495
0.00621483
0.00929487
0.0136067
0.0194624
0.0271615
0.0369522
0.0489976
0.063356
0.07998
0.0987313
0.119402
0.141737
0.165457
0.19027
0.215885
0.242024
0.268423
0.294841
0.32106
0.346889
0.372166
0.396755
0.420545
0.443447
0.465393
0.486336
0.506247
0.525113
0.542934
0.559722
0.575497
0.590286
0.604122
0.617044
0.629091
0.640307
0.650733
0.660416
0.669397
0.677721
0.685429
0.692562
0.699158
0.705205
0.710663
0.715891
0.720724
0.725195
0.729264
0.733172
0.736893
0.740429
0.743784
0.746956
0.749945
0.752747
0.755358
0.757773
0.759984
0.761983
0.763765
0.765319
0.766632
0.767696
0.768517
0.769103
0.769488
0.769723
0.769857
0.769929
0.769966
0.769984
0.769993
0.769997
0.769998
0.769999
0.77
0.77
0.77
0.77
0.77
0.77
0.77
0.77
0.77
0.77
0.77
2.20193e-06
9.62316e-06
2.21065e-05
4.30352e-05
7.79514e-05
0.000135828
0.000230992
0.000385957
0.000635445
0.00103187
0.00165234
0.00260701
0.0040475
0.00617365
0.00923479
0.0135217
0.0193462
0.0270081
0.036757
0.0487579
0.0630715
0.079653
0.098366
0.119004
0.141315
0.165019
0.189824
0.215442
0.241591
0.268009
0.294453
0.320705
0.346574
0.371895
0.396531
0.420371
0.443324
0.465322
0.486317
0.506279
0.525194
0.543061
0.559893
0.575707
0.590532
0.604401
0.617351
0.629422
0.640658
0.651101
0.660796
0.669786
0.678116
0.685827
0.69296
0.699554
0.705591
0.711041
0.716259
0.721079
0.725532
0.729601
0.733506
0.73722
0.740748
0.744092
0.747251
0.750224
0.753008
0.755599
0.757996
0.760191
0.762176
0.763938
0.765469
0.766756
0.767793
0.768582
0.769146
0.769516
0.769739
0.769866
0.769933
0.769968
0.769985
0.769993
0.769997
0.769999
0.769999
0.77
0.77
0.77
0.77
0.77
0.77
0.77
0.77
0.77
0.77
0.77
2.1893e-06
9.56796e-06
2.19795e-05
4.27871e-05
7.74997e-05
0.000135036
0.000229636
0.000383677
0.000631674
0.00102573
0.00164254
0.00259164
0.00402395
0.00613845
0.00918364
0.0134497
0.0192481
0.0268793
0.0365938
0.0485585
0.0628361
0.0793839
0.0980672
0.118681
0.140975
0.164668
0.18947
0.215092
0.241254
0.267691
0.29416
0.320442
0.346346
0.371705
0.396383
0.420266
0.443264
0.465306
0.486343
0.506347
0.525302
0.543207
0.560074
0.57592
0.590774
0.604668
0.61764
0.62973
0.64098
0.651435
0.661139
0.670135
0.678467
0.686178
0.693307
0.699893
0.705923
0.711366
0.716576
0.721386
0.725828
0.729895
0.733796
0.737504
0.741023
0.744356
0.747503
0.750465
0.75324
0.755823
0.758207
0.760385
0.762349
0.764089
0.765597
0.766862
0.767876
0.768644
0.769184
0.769539
0.769753
0.769873
0.769937
0.76997
0.769986
0.769993
0.769997
0.769999
0.769999
0.77
0.77
0.77
0.77
0.77
0.77
0.77
0.77
0.77
0.77
0.77
2.17839e-06
9.52029e-06
2.18699e-05
4.25731e-05
7.71106e-05
0.000134355
0.000228472
0.000381724
0.000628451
0.0010205
0.0016342
0.00257861
0.00400405
0.00610879
0.00914069
0.0133894
0.0191664
0.0267723
0.0364589
0.0483943
0.0626432
0.0791644
0.0978248
0.118421
0.140702
0.164389
0.189191
0.21482
0.240994
0.267448
0.29394
0.32025
0.346184
0.371577
0.39629
0.42021
0.443245
0.465323
0.486397
0.506435
0.525423
0.543359
0.560254
0.576126
0.591002
0.604916
0.617905
0.630009
0.64127
0.651734
0.661443
0.670443
0.678775
0.686483
0.693609
0.700195
0.706216
0.71165
0.71685
0.72165
0.726081
0.730149
0.734046
0.737749
0.741262
0.744589
0.747732
0.750687
0.75345
0.756019
0.758388
0.760549
0.762495
0.764218
0.765706
0.766951
0.767946
0.768694
0.769219
0.769558
0.769764
0.769879
0.76994
0.769971
0.769987
0.769994
0.769997
0.769999
0.769999
0.77
0.77
0.77
0.77
0.77
0.77
0.77
0.77
0.77
0.77
0.77
2.16915e-06
9.47991e-06
2.17771e-05
4.23921e-05
7.67818e-05
0.00013378
0.000227491
0.00038008
0.000625744
0.00101612
0.00162723
0.00256774
0.00398748
0.00608418
0.00910514
0.0133397
0.0190991
0.0266845
0.0363486
0.0482607
0.0624868
0.0789873
0.0976303
0.118213
0.140486
0.164169
0.188974
0.214609
0.240795
0.267266
0.293779
0.320112
0.346073
0.371494
0.396238
0.420188
0.443253
0.465362
0.486465
0.506532
0.525547
0.543507
0.560425
0.576317
0.591211
0.60514
0.618142
0.630256
0.641526
0.651995
0.661707
0.670706
0.679038
0.686745
0.693871
0.700453
0.706466
0.711892
0.717084
0.721874
0.726295
0.730365
0.734259
0.737958
0.741469
0.744791
0.747926
0.750871
0.753625
0.756183
0.758539
0.760686
0.762618
0.764325
0.765797
0.767025
0.768003
0.768736
0.769247
0.769576
0.769773
0.769884
0.769943
0.769973
0.769987
0.769994
0.769997
0.769999
0.769999
0.77
0.77
0.77
0.77
0.77
0.77
0.77
0.77
0.77
0.77
0.77
2.16148e-06
9.44642e-06
2.17001e-05
4.22422e-05
7.65097e-05
0.000133304
0.00022668
0.000378725
0.000623515
0.00101251
0.00162151
0.00255884
0.00397394
0.0060641
0.00907622
0.0132993
0.0190446
0.0266137
0.0362598
0.0481535
0.0623619
0.0788464
0.0974763
0.11805
0.140316
0.163999
0.188806
0.214449
0.240645
0.267131
0.293661
0.320015
0.345998
0.371444
0.396211
0.420187
0.443278
0.465411
0.486539
0.506628
0.525664
0.543645
0.560579
0.576487
0.591396
0.605337
0.618348
0.630469
0.641744
0.652216
0.661929
0.670931
0.679265
0.686972
0.694094
0.700671
0.706676
0.712096
0.717282
0.722065
0.726469
0.730543
0.734436
0.738133
0.74164
0.744957
0.748086
0.751024
0.753769
0.756317
0.758663
0.7608
0.762719
0.764413
0.765872
0.767086
0.76805
0.768769
0.769269
0.76959
0.769781
0.769888
0.769945
0.769974
0.769988
0.769994
0.769997
0.769999
0.769999
0.77
0.77
0.77
0.77
0.77
0.77
0.77
0.77
0.77
0.77
0.77
2.15529e-06
9.41938e-06
2.1638e-05
4.21212e-05
7.62903e-05
0.000132921
0.000226028
0.000377635
0.000621725
0.00100962
0.00161693
0.00255172
0.00396313
0.00604811
0.00905322
0.0132673
0.0190015
0.0265578
0.0361899
0.0480693
0.0622641
0.0787366
0.0973567
0.117923
0.140186
0.163868
0.188679
0.214328
0.240534
0.267033
0.293577
0.319948
0.34595
0.371414
0.396202
0.420199
0.443309
0.465463
0.486609
0.506717
0.525769
0.543765
0.560714
0.576634
0.591552
0.605501
0.618519
0.630645
0.641924
0.6524
0.662117
0.67112
0.679453
0.687158
0.694277
0.70085
0.70685
0.712263
0.717444
0.722222
0.726609
0.730687
0.734578
0.738273
0.741777
0.74509
0.748214
0.751147
0.753885
0.756426
0.758763
0.760891
0.762801
0.764485
0.765933
0.767135
0.768087
0.768796
0.769287
0.769601
0.769788
0.769892
0.769947
0.769974
0.769988
0.769994
0.769997
0.769999
0.77
0.77
0.77
0.77
0.77
0.77
0.77
0.77
0.77
0.77
0.77
0.77
2.15047e-06
9.39836e-06
2.15898e-05
4.20272e-05
7.61198e-05
0.000132624
0.000225522
0.000376791
0.00062034
0.00100739
0.00161339
0.00254623
0.00395481
0.00603581
0.00903555
0.0132427
0.0189685
0.026515
0.0361366
0.0480053
0.0621899
0.0786535
0.0972666
0.117828
0.140089
0.163771
0.188585
0.21424
0.240454
0.266962
0.293519
0.319903
0.345919
0.371399
0.396203
0.420214
0.443341
0.465509
0.48667
0.506791
0.525857
0.543864
0.560822
0.576751
0.591677
0.605633
0.618656
0.630788
0.642071
0.652549
0.662268
0.67127
0.679602
0.687305
0.694422
0.700992
0.706987
0.712396
0.717572
0.722345
0.726719
0.730801
0.73469
0.738384
0.741884
0.745195
0.748315
0.751242
0.753976
0.756511
0.758842
0.760962
0.762865
0.76454
0.76598
0.767173
0.768116
0.768817
0.769301
0.76961
0.769793
0.769894
0.769948
0.769975
0.769988
0.769995
0.769998
0.769999
0.77
0.77
0.77
0.77
0.77
0.77
0.77
0.77
0.77
0.77
0.77
0.77
2.14695e-06
9.38296e-06
2.15544e-05
4.19584e-05
7.59951e-05
0.000132407
0.000225153
0.000376174
0.000619328
0.00100576
0.00161081
0.00254223
0.00394875
0.00602686
0.00902273
0.0132249
0.0189446
0.0264841
0.0360982
0.0479592
0.0621366
0.078594
0.0972022
0.117761
0.14002
0.163703
0.188519
0.214178
0.240399
0.266915
0.29348
0.319874
0.345901
0.371392
0.396207
0.42023
0.443368
0.465547
0.486718
0.506849
0.525923
0.543939
0.560905
0.576841
0.591773
0.605735
0.618762
0.630897
0.642182
0.652661
0.66238
0.671383
0.679713
0.687415
0.694529
0.701097
0.707089
0.712495
0.717668
0.722437
0.726801
0.730885
0.734773
0.738465
0.741964
0.745272
0.748389
0.751313
0.754043
0.756573
0.7589
0.761015
0.762912
0.764581
0.766014
0.767201
0.768138
0.768832
0.769311
0.769616
0.769796
0.769896
0.769949
0.769976
0.769989
0.769995
0.769998
0.769999
0.77
0.77
0.77
0.77
0.77
0.77
0.77
0.77
0.77
0.77
0.77
0.77
2.14465e-06
9.37291e-06
2.15313e-05
4.19135e-05
7.59138e-05
0.000132265
0.000224912
0.000375772
0.00061867
0.0010047
0.00160913
0.00253964
0.00394482
0.00602106
0.00901442
0.0132133
0.0189291
0.0264642
0.0360733
0.0479294
0.0621022
0.0785557
0.0971608
0.117717
0.139976
0.16366
0.188478
0.21414
0.240364
0.266885
0.293457
0.319857
0.345891
0.371389
0.396212
0.420243
0.443388
0.465575
0.486753
0.506891
0.525971
0.543992
0.560963
0.576904
0.591839
0.605803
0.618833
0.63097
0.642256
0.652736
0.662455
0.671457
0.679787
0.687487
0.694601
0.701167
0.707157
0.71256
0.717731
0.722498
0.726855
0.73094
0.734828
0.738518
0.742016
0.745322
0.748437
0.75136
0.754087
0.756615
0.758938
0.76105
0.762943
0.764608
0.766037
0.76722
0.768152
0.768842
0.769317
0.76962
0.769798
0.769897
0.76995
0.769976
0.769989
0.769995
0.769998
0.769999
0.77
0.77
0.77
0.77
0.77
0.77
0.77
0.77
0.77
0.77
0.77
0.77
2.14353e-06
9.36802e-06
2.15201e-05
4.18918e-05
7.58745e-05
0.000132197
0.000224796
0.00037558
0.000618356
0.00100419
0.00160833
0.00253841
0.00394296
0.00601832
0.00901049
0.0132079
0.0189218
0.0264547
0.0360616
0.0479154
0.062086
0.0785375
0.0971412
0.117697
0.139955
0.163639
0.188458
0.214121
0.240348
0.266871
0.293446
0.319849
0.345886
0.371389
0.396215
0.42025
0.443399
0.465589
0.486771
0.506912
0.525995
0.544019
0.560992
0.576934
0.591872
0.605837
0.618868
0.631006
0.642292
0.652773
0.662492
0.671494
0.679823
0.687523
0.694636
0.701202
0.707191
0.712593
0.717763
0.722528
0.726882
0.730968
0.734854
0.738545
0.742042
0.745347
0.748462
0.751383
0.754109
0.756635
0.758957
0.761067
0.762958
0.764621
0.766048
0.767228
0.768158
0.768847
0.76932
0.769621
0.769799
0.769898
0.76995
0.769976
0.769989
0.769995
0.769998
0.769999
0.77
0.77
0.77
0.77
0.77
0.77
0.77
0.77
0.77
0.77
0.77
0.77
2.14353e-06
9.36804e-06
2.15202e-05
4.18918e-05
7.58747e-05
0.000132197
0.000224797
0.000375581
0.000618357
0.00100419
0.00160834
0.00253841
0.00394296
0.00601833
0.0090105
0.0132079
0.0189219
0.0264548
0.0360616
0.0479154
0.062086
0.0785376
0.0971413
0.117697
0.139955
0.163639
0.188458
0.214121
0.240348
0.266871
0.293446
0.319849
0.345886
0.371389
0.396215
0.42025
0.443399
0.465589
0.486771
0.506912
0.525995
0.544019
0.560992
0.576934
0.591872
0.605837
0.618868
0.631006
0.642292
0.652773
0.662491
0.671494
0.679823
0.687523
0.694636
0.701202
0.70719
0.712593
0.717763
0.722528
0.726882
0.730967
0.734854
0.738545
0.742042
0.745347
0.748462
0.751383
0.754109
0.756635
0.758957
0.761067
0.762958
0.764621
0.766048
0.767228
0.768158
0.768847
0.76932
0.769621
0.769799
0.769898
0.76995
0.769976
0.769989
0.769995
0.769998
0.769999
0.77
0.77
0.77
0.77
0.77
0.77
0.77
0.77
0.77
0.77
0.77
0.77
2.14466e-06
9.37298e-06
2.15315e-05
4.19138e-05
7.59143e-05
0.000132266
0.000224913
0.000375775
0.000618674
0.0010047
0.00160914
0.00253965
0.00394484
0.00602109
0.00901445
0.0132134
0.0189292
0.0264642
0.0360734
0.0479296
0.0621024
0.0785558
0.097161
0.117717
0.139976
0.16366
0.188478
0.21414
0.240364
0.266885
0.293457
0.319857
0.345891
0.371389
0.396212
0.420243
0.443388
0.465575
0.486753
0.506891
0.525971
0.543992
0.560963
0.576903
0.591839
0.605803
0.618833
0.63097
0.642256
0.652736
0.662455
0.671457
0.679787
0.687487
0.694601
0.701167
0.707157
0.71256
0.717731
0.722498
0.726855
0.73094
0.734827
0.738518
0.742016
0.745322
0.748437
0.75136
0.754087
0.756615
0.758938
0.76105
0.762943
0.764608
0.766037
0.767219
0.768152
0.768842
0.769317
0.76962
0.769798
0.769897
0.76995
0.769976
0.769989
0.769995
0.769998
0.769999
0.77
0.77
0.77
0.77
0.77
0.77
0.77
0.77
0.77
0.77
0.77
0.77
2.14697e-06
9.38307e-06
2.15547e-05
4.19589e-05
7.5996e-05
0.000132408
0.000225155
0.000376178
0.000619334
0.00100577
0.00161082
0.00254226
0.00394878
0.00602691
0.00902279
0.013225
0.0189447
0.0264843
0.0360983
0.0479594
0.0621368
0.0785942
0.0972024
0.117761
0.14002
0.163703
0.18852
0.214179
0.240399
0.266915
0.29348
0.319874
0.345901
0.371392
0.396207
0.42023
0.443368
0.465547
0.486718
0.506849
0.525923
0.543939
0.560905
0.576841
0.591773
0.605734
0.618762
0.630897
0.642182
0.652661
0.66238
0.671382
0.679713
0.687414
0.694529
0.701097
0.707089
0.712495
0.717667
0.722437
0.726801
0.730885
0.734773
0.738465
0.741964
0.745271
0.748388
0.751313
0.754043
0.756573
0.7589
0.761015
0.762912
0.764581
0.766014
0.767201
0.768138
0.768832
0.769311
0.769616
0.769796
0.769896
0.769949
0.769976
0.769989
0.769995
0.769998
0.769999
0.77
0.77
0.77
0.77
0.77
0.77
0.77
0.77
0.77
0.77
0.77
0.77
2.15051e-06
9.39851e-06
2.15901e-05
4.20279e-05
7.6121e-05
0.000132626
0.000225526
0.000376796
0.000620348
0.0010074
0.00161341
0.00254626
0.00395485
0.00603587
0.00903564
0.0132428
0.0189687
0.0265152
0.0361369
0.0480056
0.0621902
0.0786538
0.097267
0.117829
0.140089
0.163772
0.188585
0.21424
0.240454
0.266963
0.293519
0.319903
0.345919
0.371399
0.396203
0.420214
0.44334
0.465509
0.48667
0.506791
0.525856
0.543864
0.560822
0.576751
0.591677
0.605632
0.618656
0.630788
0.642071
0.652549
0.662267
0.67127
0.679602
0.687305
0.694421
0.700992
0.706986
0.712396
0.717572
0.722345
0.726719
0.730801
0.73469
0.738383
0.741884
0.745195
0.748314
0.751242
0.753976
0.756511
0.758842
0.760962
0.762865
0.76454
0.76598
0.767173
0.768116
0.768817
0.769301
0.76961
0.769793
0.769894
0.769948
0.769975
0.769988
0.769995
0.769998
0.769999
0.77
0.77
0.77
0.77
0.77
0.77
0.77
0.77
0.77
0.77
0.77
0.77
2.15533e-06
9.41957e-06
2.16385e-05
4.2122e-05
7.62917e-05
0.000132924
0.000226032
0.000377642
0.000621736
0.00100964
0.00161695
0.00255176
0.00396319
0.00604819
0.00905333
0.0132674
0.0190017
0.026558
0.0361902
0.0480697
0.0622644
0.078737
0.0973572
0.117924
0.140187
0.163869
0.188679
0.214328
0.240535
0.267033
0.293578
0.319948
0.34595
0.371415
0.396203
0.420199
0.443309
0.465463
0.486609
0.506717
0.525769
0.543765
0.560714
0.576634
0.591552
0.605501
0.618519
0.630645
0.641924
0.652399
0.662117
0.67112
0.679452
0.687157
0.694276
0.70085
0.706849
0.712263
0.717444
0.722221
0.726609
0.730687
0.734578
0.738273
0.741777
0.74509
0.748214
0.751146
0.753885
0.756426
0.758763
0.760891
0.762801
0.764485
0.765933
0.767135
0.768087
0.768796
0.769287
0.769601
0.769788
0.769892
0.769947
0.769974
0.769988
0.769994
0.769997
0.769999
0.77
0.77
0.77
0.77
0.77
0.77
0.77
0.77
0.77
0.77
0.77
0.77
2.16153e-06
9.44665e-06
2.17007e-05
4.22432e-05
7.65114e-05
0.000133307
0.000226685
0.000378733
0.000623528
0.00101253
0.00162154
0.00255888
0.003974
0.0060642
0.00907635
0.0132995
0.0190448
0.026614
0.0362602
0.0481539
0.0623623
0.0788469
0.0974768
0.11805
0.140317
0.163999
0.188806
0.214449
0.240646
0.267131
0.293661
0.320015
0.345998
0.371444
0.396211
0.420187
0.443278
0.465411
0.486539
0.506628
0.525664
0.543644
0.560579
0.576487
0.591395
0.605336
0.618347
0.630469
0.641744
0.652215
0.661929
0.67093
0.679264
0.686971
0.694093
0.70067
0.706676
0.712095
0.717281
0.722065
0.726468
0.730543
0.734435
0.738133
0.741639
0.744957
0.748085
0.751023
0.753769
0.756317
0.758663
0.760799
0.762719
0.764413
0.765872
0.767086
0.76805
0.768769
0.769269
0.76959
0.769781
0.769888
0.769945
0.769974
0.769988
0.769994
0.769997
0.769999
0.769999
0.77
0.77
0.77
0.77
0.77
0.77
0.77
0.77
0.77
0.77
0.77
2.16921e-06
9.48017e-06
2.17777e-05
4.23933e-05
7.67839e-05
0.000133783
0.000227496
0.00038009
0.000625759
0.00101614
0.00162726
0.00256779
0.00398756
0.00608429
0.00910529
0.0133399
0.0190993
0.0266848
0.036349
0.0482611
0.0624873
0.0789878
0.0976309
0.118214
0.140486
0.16417
0.188974
0.21461
0.240795
0.267267
0.293779
0.320112
0.346073
0.371495
0.396238
0.420188
0.443253
0.465362
0.486465
0.506532
0.525546
0.543507
0.560424
0.576316
0.591211
0.60514
0.618141
0.630256
0.641525
0.651994
0.661706
0.670706
0.679037
0.686745
0.69387
0.700452
0.706465
0.711891
0.717083
0.721874
0.726294
0.730364
0.734258
0.737958
0.741468
0.744791
0.747926
0.750871
0.753625
0.756182
0.758538
0.760686
0.762618
0.764325
0.765797
0.767025
0.768003
0.768736
0.769247
0.769576
0.769773
0.769884
0.769943
0.769973
0.769987
0.769994
0.769997
0.769999
0.769999
0.77
0.77
0.77
0.77
0.77
0.77
0.77
0.77
0.77
0.77
0.77
2.17846e-06
9.52059e-06
2.18706e-05
4.25744e-05
7.7113e-05
0.000134359
0.000228478
0.000381734
0.000628468
0.00102053
0.00163424
0.00257867
0.00400413
0.00610892
0.00914087
0.0133897
0.0191667
0.0267726
0.0364593
0.0483948
0.0626437
0.079165
0.0978255
0.118422
0.140703
0.164389
0.189192
0.21482
0.240994
0.267449
0.293941
0.32025
0.346185
0.371577
0.39629
0.42021
0.443245
0.465323
0.486396
0.506435
0.525423
0.543359
0.560253
0.576126
0.591002
0.604916
0.617905
0.630008
0.64127
0.651733
0.661443
0.670442
0.678775
0.686482
0.693608
0.700194
0.706216
0.711649
0.71685
0.721649
0.72608
0.730149
0.734045
0.737749
0.741262
0.744589
0.747732
0.750686
0.75345
0.756019
0.758388
0.760549
0.762495
0.764217
0.765706
0.766951
0.767945
0.768694
0.769219
0.769558
0.769764
0.769879
0.76994
0.769971
0.769987
0.769994
0.769997
0.769999
0.769999
0.77
0.77
0.77
0.77
0.77
0.77
0.77
0.77
0.77
0.77
0.77
2.18938e-06
9.5683e-06
2.19803e-05
4.27885e-05
7.75023e-05
0.00013504
0.000229643
0.000383689
0.000631693
0.00102576
0.00164258
0.00259171
0.00402405
0.00613859
0.00918383
0.01345
0.0192485
0.0268797
0.0365943
0.0485591
0.0628368
0.0793846
0.0980679
0.118682
0.140975
0.164668
0.189471
0.215093
0.241254
0.267691
0.29416
0.320443
0.346346
0.371705
0.396383
0.420266
0.443264
0.465305
0.486343
0.506346
0.525301
0.543207
0.560073
0.57592
0.590774
0.604668
0.617639
0.629729
0.64098
0.651434
0.661138
0.670134
0.678467
0.686178
0.693306
0.699893
0.705922
0.711366
0.716576
0.721385
0.725828
0.729895
0.733796
0.737504
0.741024
0.744356
0.747503
0.750466
0.75324
0.755823
0.758207
0.760384
0.762348
0.764089
0.765597
0.766862
0.767876
0.768644
0.769184
0.769539
0.769753
0.769873
0.769937
0.76997
0.769986
0.769993
0.769997
0.769999
0.769999
0.77
0.77
0.77
0.77
0.77
0.77
0.77
0.77
0.77
0.77
0.77
2.20201e-06
9.62353e-06
2.21074e-05
4.30368e-05
7.79543e-05
0.000135833
0.000231
0.00038597
0.000635466
0.0010319
0.0016524
0.00260708
0.00404761
0.0061738
0.009235
0.013522
0.0193466
0.0270086
0.0367576
0.0487586
0.0630722
0.0796538
0.0983668
0.119005
0.141316
0.16502
0.189825
0.215442
0.241592
0.26801
0.294454
0.320706
0.346574
0.371895
0.396531
0.420371
0.443325
0.465323
0.486317
0.506279
0.525193
0.543061
0.559892
0.575707
0.590532
0.604401
0.61735
0.629422
0.640657
0.6511
0.660795
0.669786
0.678115
0.685826
0.692959
0.699553
0.70559
0.71104
0.716258
0.721078
0.725532
0.7296
0.733505
0.73722
0.740748
0.744092
0.747251
0.750224
0.753008
0.755599
0.757995
0.76019
0.762176
0.763938
0.765468
0.766756
0.767793
0.768582
0.769146
0.769516
0.769739
0.769866
0.769933
0.769968
0.769985
0.769993
0.769997
0.769999
0.769999
0.77
0.77
0.77
0.77
0.77
0.77
0.77
0.77
0.77
0.77
0.77
2.21634e-06
9.6862e-06
2.22517e-05
4.33191e-05
7.84691e-05
0.000136737
0.000232552
0.000388585
0.000639803
0.00103898
0.00166374
0.00262493
0.00407506
0.006215
0.0092951
0.013607
0.0194628
0.027162
0.0369528
0.0489983
0.0633567
0.0799809
0.0987321
0.119403
0.141738
0.165458
0.19027
0.215886
0.242025
0.268424
0.294842
0.32106
0.346889
0.372166
0.396755
0.420545
0.443446
0.465392
0.486335
0.506246
0.525112
0.542934
0.559722
0.575496
0.590285
0.604122
0.617044
0.629091
0.640306
0.650733
0.660415
0.669397
0.677721
0.685429
0.692561
0.699158
0.705205
0.710664
0.715891
0.720724
0.725195
0.729264
0.733172
0.736893
0.740429
0.743784
0.746956
0.749945
0.752747
0.755358
0.757772
0.759982
0.761982
0.763764
0.765318
0.766632
0.767695
0.768517
0.769103
0.769488
0.769723
0.769857
0.769929
0.769966
0.769984
0.769993
0.769997
0.769998
0.769999
0.77
0.77
0.77
0.77
0.77
0.77
0.77
0.77
0.77
0.77
0.77
2.23224e-06
9.75574e-06
2.2412e-05
4.36332e-05
7.9043e-05
0.000137748
0.000234291
0.000391526
0.000644698
0.001047
0.00167666
0.00264533
0.0041066
0.00626255
0.00936483
0.0137061
0.0195991
0.0273427
0.0371841
0.0492838
0.0636975
0.080375
0.0991751
0.119888
0.142257
0.166
0.190826
0.216445
0.242576
0.268958
0.295348
0.32153
0.347316
0.372544
0.397078
0.42081
0.443651
0.465534
0.486415
0.506267
0.525075
0.542841
0.559576
0.575302
0.590046
0.603842
0.616728
0.628745
0.639933
0.650339
0.660004
0.668972
0.677287
0.68499
0.69212
0.698718
0.704782
0.710252
0.715488
0.720329
0.72481
0.728884
0.732795
0.736521
0.740064
0.743428
0.746612
0.749615
0.752433
0.755062
0.757497
0.75973
0.761745
0.763554
0.765138
0.766487
0.767593
0.768441
0.76905
0.769455
0.769704
0.769847
0.769924
0.769963
0.769983
0.769992
0.769996
0.769998
0.769999
0.77
0.77
0.77
0.77
0.77
0.77
0.77
0.77
0.77
0.77
0.77
2.24934e-06
9.83064e-06
2.2585e-05
4.39726e-05
7.96648e-05
0.000138846
0.000236188
0.000394745
0.000650082
0.00105586
0.00169102
0.00266815
0.00414209
0.0063164
0.00944433
0.0138199
0.0197565
0.0275531
0.037455
0.0496206
0.0641022
0.0808462
0.0997082
0.120475
0.14289
0.166667
0.191516
0.217144
0.243272
0.269637
0.296
0.322145
0.347884
0.373056
0.397529
0.421194
0.443965
0.465777
0.486586
0.506365
0.525104
0.542802
0.559473
0.575139
0.589829
0.603575
0.616416
0.628393
0.639548
0.649924
0.659566
0.668516
0.676818
0.684512
0.69164
0.698241
0.704325
0.709799
0.715039
0.719887
0.724375
0.728453
0.732367
0.736097
0.739648
0.743022
0.74622
0.749239
0.752077
0.754731
0.757196
0.759463
0.761515
0.763358
0.764974
0.766352
0.767479
0.768353
0.768988
0.769416