/*--------------------------------*- C++ -*----------------------------------*\
  =========                 |
  \\      /  F ield         | OpenFOAM: The Open Source CFD Toolbox
   \\    /   O peration     | Website:  https://openfoam.org
    \\  /    A nd           | Version:  8
     \\/     M anipulation  |
\*---------------------------------------------------------------------------*/
FoamFile
{
    version     2.0;
    format      ascii;
    class       volScalarField;
    location    "1000/fluid";
    object      O2;
}
// * * * * * * * * * * * * * * * * * * * * * * * * * * * * * * * * * * * * * //

dimensions      [0 0 0 0 0 0 0];

internalField   nonuniform List<scalar> 
4000
(
4.5855e-10
2.00225e-09
4.59075e-09
8.91102e-09
1.60807e-08
2.7897e-08
4.72095e-08
7.84609e-08
1.28439e-07
2.07269e-07
3.29616e-07
5.15995e-07
7.93995e-07
1.19838e-06
1.76987e-06
2.55159e-06
3.58317e-06
4.8933e-06
6.49284e-06
8.37098e-06
1.04956e-05
1.28175e-05
1.52763e-05
1.78069e-05
2.0344e-05
2.28263e-05
2.51985e-05
2.74129e-05
2.94301e-05
3.122e-05
3.27634e-05
3.40554e-05
3.51114e-05
3.59773e-05
3.67423e-05
3.75528e-05
3.86247e-05
4.02532e-05
4.28235e-05
4.68272e-05
5.28917e-05
6.18244e-05
7.46733e-05
9.28028e-05
0.000117995
0.000152584
0.00019963
0.000263169
0.000348362
0.00046236
0.000614325
0.000816302
0.00108411
0.00143848
0.00190664
0.00252426
0.00333822
0.00439558
0.00576967
0.00762579
0.0100684
0.0132905
0.0183647
0.034789
0.0514217
0.0680026
0.0843296
0.100243
0.115617
0.130346
0.144341
0.157526
0.169824
0.181106
0.191414
0.200588
0.208528
0.215138
0.220345
0.224157
0.226712
0.228271
0.229142
0.229592
0.229811
0.229915
0.229962
0.229984
0.229993
0.229997
0.229999
0.229999
0.23
0.23
0.23
0.23
0.23
0.23
0.23
0.23
4.65564e-10
2.03428e-09
4.66993e-09
9.07944e-09
1.64152e-08
2.85327e-08
4.83759e-08
8.05326e-08
1.32001e-07
2.13176e-07
3.38989e-07
5.29933e-07
8.14585e-07
1.22797e-06
1.8111e-06
2.60753e-06
3.65754e-06
4.99081e-06
6.61956e-06
8.53442e-06
1.07045e-05
1.30811e-05
1.56039e-05
1.82065e-05
2.08222e-05
2.33876e-05
2.58449e-05
2.81442e-05
3.02438e-05
3.21115e-05
3.37267e-05
3.50832e-05
3.61961e-05
3.71123e-05
3.79239e-05
3.8783e-05
3.99146e-05
4.1626e-05
4.43172e-05
4.84959e-05
5.48056e-05
6.40693e-05
7.73485e-05
9.60197e-05
0.000121876
0.000157261
0.000205219
0.000269588
0.000356082
0.000471505
0.000625046
0.000828768
0.0010985
0.00145499
0.00192549
0.00254576
0.00336279
0.00442336
0.00580153
0.00766464
0.0101177
0.013355
0.0196407
0.036173
0.0528908
0.0695408
0.0859242
0.101884
0.117292
0.132044
0.14605
0.159227
0.171498
0.182723
0.192943
0.201984
0.209745
0.216133
0.221091
0.224658
0.227009
0.228426
0.229214
0.229623
0.229824
0.22992
0.229964
0.229984
0.229993
0.229997
0.229999
0.229999
0.23
0.23
0.23
0.23
0.23
0.23
0.23
0.23
4.74838e-10
2.07483e-09
4.76359e-09
9.26342e-09
1.67517e-08
2.91232e-08
4.93828e-08
8.22129e-08
1.34764e-07
2.17702e-07
3.46524e-07
5.43085e-07
8.35016e-07
1.25806e-06
1.85404e-06
2.66756e-06
3.74018e-06
5.10316e-06
6.77053e-06
8.73473e-06
1.09664e-05
1.34177e-05
1.60284e-05
1.87313e-05
2.14581e-05
2.4143e-05
2.67258e-05
2.91533e-05
3.13807e-05
3.33732e-05
3.51073e-05
3.65748e-05
3.779e-05
3.88005e-05
3.97023e-05
4.0656e-05
4.18998e-05
4.37601e-05
4.66597e-05
5.11317e-05
5.78459e-05
6.76511e-05
8.16327e-05
0.00010119
0.00012814
0.000164822
0.000214172
0.00028044
0.000368996
0.000486831
0.000643145
0.000850029
0.00112335
0.00148393
0.00195911
0.00258483
0.0034084
0.00447591
0.00586341
0.00774069
0.0102129
0.0134826
0.021898
0.0385086
0.0552971
0.0720037
0.0884259
0.104404
0.119807
0.134529
0.148475
0.161561
0.173704
0.184779
0.194785
0.203572
0.211044
0.217125
0.221785
0.225098
0.22726
0.228556
0.229276
0.229651
0.229836
0.229925
0.229966
0.229985
0.229993
0.229997
0.229999
0.229999
0.23
0.23
0.23
0.23
0.23
0.23
0.23
0.23
4.85831e-10
2.12345e-09
4.87749e-09
9.49018e-09
1.71711e-08
2.98656e-08
5.06548e-08
8.43303e-08
1.38187e-07
2.2306e-07
3.54564e-07
5.54416e-07
8.51519e-07
1.28232e-06
1.88969e-06
2.71958e-06
3.81539e-06
5.21055e-06
6.92141e-06
8.94262e-06
1.12464e-05
1.3786e-05
1.65007e-05
1.93226e-05
2.21815e-05
2.50091e-05
2.77422e-05
3.03246e-05
3.27083e-05
3.48552e-05
3.67387e-05
3.83485e-05
3.96976e-05
4.08347e-05
4.1861e-05
4.29471e-05
4.43485e-05
4.64149e-05
4.95977e-05
5.44619e-05
6.17104e-05
7.22249e-05
8.71234e-05
0.000107839
0.000136152
0.000174333
0.000225682
0.000294611
0.000386209
0.000507582
0.00066804
0.000879787
0.00115883
0.00152619
0.00200944
0.00264491
0.00348045
0.00456043
0.00596376
0.00786481
0.010373
0.0136896
0.0247077
0.0413483
0.0581681
0.0748957
0.0913206
0.107277
0.122631
0.137272
0.151104
0.164041
0.175996
0.186892
0.19664
0.205143
0.212317
0.218094
0.222468
0.225538
0.227518
0.228695
0.229346
0.229684
0.229851
0.229932
0.229969
0.229986
0.229994
0.229997
0.229999
0.23
0.23
0.23
0.23
0.23
0.23
0.23
0.23
0.23
4.95565e-10
2.16597e-09
4.97518e-09
9.68021e-09
1.75145e-08
3.04611e-08
5.16596e-08
8.59913e-08
1.40887e-07
2.2738e-07
3.61386e-07
5.65059e-07
8.67943e-07
1.30738e-06
1.92743e-06
2.77569e-06
3.89753e-06
5.32876e-06
7.08822e-06
9.17287e-06
1.15567e-05
1.41939e-05
1.70238e-05
1.99775e-05
2.29831e-05
2.59698e-05
2.88715e-05
3.16286e-05
3.41898e-05
3.65135e-05
3.857e-05
4.03464e-05
4.18545e-05
4.3145e-05
4.43254e-05
4.55788e-05
4.71811e-05
4.95099e-05
5.30504e-05
5.8405e-05
6.63152e-05
7.77014e-05
9.37208e-05
0.000115788
0.000145703
0.000186055
0.000240358
0.000312519
0.000408059
0.000534214
0.000700464
0.000919229
0.00120679
0.00158451
0.00208044
0.00273151
0.00358476
0.00468226
0.00611362
0.00805584
0.0106154
0.0139829
0.0276634
0.0442984
0.0611256
0.0778542
0.0942616
0.110175
0.125456
0.139994
0.153691
0.166462
0.178203
0.188877
0.198369
0.206594
0.213476
0.218965
0.223073
0.225922
0.227742
0.228815
0.229406
0.229713
0.229864
0.229937
0.229972
0.229987
0.229994
0.229998
0.229999
0.23
0.23
0.23
0.23
0.23
0.23
0.23
0.23
0.23
5.04002e-10
2.20273e-09
5.05921e-09
9.84285e-09
1.78073e-08
3.09683e-08
5.25177e-08
8.74193e-08
1.43233e-07
2.31195e-07
3.67528e-07
5.74852e-07
8.83405e-07
1.33153e-06
1.9647e-06
2.83236e-06
3.98223e-06
5.45277e-06
7.26559e-06
9.42011e-06
1.18922e-05
1.46369e-05
1.75935e-05
2.06922e-05
2.38591e-05
2.7021e-05
3.01087e-05
3.30593e-05
3.58179e-05
3.83392e-05
4.05903e-05
4.25557e-05
4.42465e-05
4.57157e-05
4.70787e-05
4.85339e-05
5.0381e-05
5.30302e-05
5.70053e-05
6.29517e-05
7.1659e-05
8.40874e-05
0.000101366
0.000124988
0.000157029
0.000200315
0.000257883
0.000334098
0.000434665
0.000567053
0.000741033
0.000969392
0.00126887
0.00166139
0.00217574
0.00284852
0.0037296
0.00485956
0.00633289
0.00832073
0.0109299
0.014324
0.030313
0.0469794
0.063855
0.0806135
0.0970187
0.112894
0.128102
0.142533
0.156094
0.1687
0.180237
0.1907
0.199943
0.207902
0.214515
0.21974
0.22361
0.226264
0.227942
0.228923
0.229461
0.229739
0.229877
0.229943
0.229974
0.229988
0.229995
0.229998
0.229999
0.23
0.23
0.23
0.23
0.23
0.23
0.23
0.23
0.23
5.11774e-10
2.23664e-09
5.13692e-09
9.99385e-09
1.80807e-08
3.14455e-08
5.33328e-08
8.87915e-08
1.45518e-07
2.34962e-07
3.7368e-07
5.84801e-07
8.99322e-07
1.35669e-06
2.00391e-06
2.89246e-06
4.07261e-06
5.58571e-06
7.45633e-06
9.68659e-06
1.22543e-05
1.51157e-05
1.82101e-05
2.14665e-05
2.48093e-05
2.81628e-05
3.14545e-05
3.4618e-05
3.75947e-05
4.03356e-05
4.28041e-05
4.49821e-05
4.688e-05
4.85543e-05
5.01301e-05
5.18236e-05
5.39615e-05
5.69889e-05
6.14698e-05
6.80899e-05
7.76788e-05
9.11848e-05
0.000109829
0.000135501
0.00017029
0.000216628
0.000278023
0.000359044
0.000465666
0.000605708
0.000789397
0.00103011
0.00134532
0.00175785
0.00229745
0.00300402
0.00392959
0.00510196
0.00667956
0.00873952
0.0114246
0.0148549
0.0317751
0.0489599
0.0661208
0.0830236
0.0994811
0.115344
0.13049
0.144819
0.158243
0.170681
0.181996
0.192246
0.201292
0.20904
0.215421
0.220415
0.224074
0.226557
0.228112
0.229016
0.229508
0.229762
0.229888
0.229948
0.229976
0.229989
0.229995
0.229998
0.229999
0.23
0.23
0.23
0.23
0.23
0.23
0.23
0.23
0.23
5.19209e-10
2.2691e-09
5.21143e-09
1.0139e-08
1.83444e-08
3.19076e-08
5.41262e-08
9.01355e-08
1.47771e-07
2.38707e-07
3.79851e-07
5.94875e-07
9.15594e-07
1.38265e-06
2.04472e-06
2.95551e-06
4.16804e-06
5.72679e-06
7.65957e-06
9.97139e-06
1.26423e-05
1.56297e-05
1.88731e-05
2.23006e-05
2.58347e-05
2.93971e-05
3.29123e-05
3.631e-05
3.95277e-05
4.25123e-05
4.52237e-05
4.76408e-05
4.97737e-05
5.1683e-05
5.35059e-05
5.54798e-05
5.79623e-05
6.14401e-05
6.65262e-05
7.3943e-05
8.44907e-05
9.92415e-05
0.000119818
0.00014769
0.00018503
0.000234636
0.00030017
0.000386432
0.000499719
0.000648301
0.000843041
0.00109823
0.00143268
0.00187123
0.00244674
0.00320287
0.00419195
0.00545698
0.0071772
0.00944581
0.0124459
0.0163488
0.033567
0.0509719
0.0682735
0.0852484
0.101722
0.117555
0.132635
0.146868
0.16017
0.172467
0.183649
0.193717
0.20255
0.210075
0.216227
0.221003
0.224474
0.226809
0.228258
0.229095
0.229549
0.229782
0.229897
0.229952
0.229978
0.22999
0.229996
0.229998
0.229999
0.23
0.23
0.23
0.23
0.23
0.23
0.23
0.23
0.23
5.26512e-10
2.30102e-09
5.28483e-09
1.02823e-08
1.86056e-08
3.23673e-08
5.49191e-08
9.14857e-08
1.50049e-07
2.42517e-07
3.86168e-07
6.05252e-07
9.32457e-07
1.4097e-06
2.08744e-06
3.02178e-06
4.26866e-06
5.87595e-06
7.87494e-06
1.02738e-05
1.30552e-05
1.61777e-05
1.95815e-05
2.31938e-05
2.69354e-05
3.07256e-05
3.44854e-05
3.8141e-05
4.16255e-05
4.48818e-05
4.78655e-05
5.05525e-05
5.29525e-05
5.51312e-05
5.72389e-05
5.9536e-05
6.24107e-05
6.63882e-05
7.21205e-05
8.03285e-05
9.194e-05
0.000108319
0.000130665
0.000160735
0.000200785
0.000253741
0.000323426
0.000414846
0.000534572
0.000691231
0.000896171
0.00116433
0.00151543
0.00197552
0.00257915
0.00337229
0.00441119
0.00574847
0.00757642
0.0100057
0.0132573
0.0179657
0.0353903
0.0529242
0.0702939
0.087287
0.103736
0.119506
0.13449
0.148597
0.161748
0.173872
0.184874
0.194767
0.203431
0.210806
0.216847
0.221485
0.224809
0.227021
0.228382
0.229162
0.229583
0.229799
0.229905
0.229956
0.22998
0.229991
0.229996
0.229998
0.229999
0.23
0.23
0.23
0.23
0.23
0.23
0.23
0.23
0.23
5.33756e-10
2.33269e-09
5.35774e-09
1.04249e-08
1.8866e-08
3.28269e-08
5.57145e-08
9.28453e-08
1.52352e-07
2.46385e-07
3.92612e-07
6.15888e-07
9.49816e-07
1.43765e-06
2.13177e-06
3.09076e-06
4.37373e-06
6.03214e-06
8.10104e-06
1.05921e-05
1.34907e-05
1.67574e-05
2.03329e-05
2.41441e-05
2.81103e-05
3.21483e-05
3.61761e-05
4.0116e-05
4.38971e-05
4.74573e-05
5.07483e-05
5.37427e-05
5.64502e-05
5.89426e-05
6.13865e-05
6.40686e-05
6.74124e-05
7.19833e-05
7.84012e-05
8.74826e-05
0.000100453
0.000118301
0.000142464
0.000174756
0.000217507
0.000273736
0.000347381
0.00044359
0.000569101
0.000732747
0.000946109
0.00122439
0.00158759
0.00206201
0.00268236
0.00349449
0.00455023
0.0059036
0.00774227
0.0101608
0.0133501
0.0196951
0.0372017
0.0547875
0.0721803
0.0891687
0.105588
0.121309
0.136225
0.150247
0.163298
0.175304
0.186195
0.195929
0.204419
0.211596
0.217408
0.221897
0.225098
0.227202
0.228487
0.229219
0.229612
0.229813
0.229912
0.229959
0.229981
0.229992
0.229996
0.229998
0.229999
0.23
0.23
0.23
0.23
0.23
0.23
0.23
0.23
0.23
5.40935e-10
2.36409e-09
5.4301e-09
1.05667e-08
1.91254e-08
3.32856e-08
5.65105e-08
9.42102e-08
1.54671e-07
2.50295e-07
3.99149e-07
6.26712e-07
9.6754e-07
1.46629e-06
2.17731e-06
3.16183e-06
4.48226e-06
6.19388e-06
8.33579e-06
1.09235e-05
1.39455e-05
1.73648e-05
2.1123e-05
2.51471e-05
2.93553e-05
3.36624e-05
3.79835e-05
4.22372e-05
4.63482e-05
5.02501e-05
5.38895e-05
5.7236e-05
6.02992e-05
6.31581e-05
6.59976e-05
6.91324e-05
7.30207e-05
7.82276e-05
8.54754e-05
9.57107e-05
0.000109934
0.000129332
0.000155377
0.00018993
0.000235378
0.000294813
0.000372255
0.000472944
0.00060372
0.000773516
0.00099401
0.00128048
0.00165294
0.00213765
0.00276909
0.00359251
0.00465766
0.00601799
0.00785896
0.0102715
0.0134434
0.0213929
0.0389116
0.0564886
0.0738558
0.0908029
0.107162
0.122807
0.137632
0.151551
0.164507
0.176428
0.187253
0.196881
0.205243
0.212278
0.217946
0.222256
0.225336
0.227356
0.228576
0.229267
0.229637
0.229825
0.229918
0.229962
0.229983
0.229992
0.229997
0.229999
0.229999
0.23
0.23
0.23
0.23
0.23
0.23
0.23
0.23
0.23
5.47987e-10
2.39495e-09
5.50125e-09
1.07062e-08
1.93811e-08
3.37387e-08
5.72986e-08
9.55647e-08
1.56979e-07
2.54196e-07
4.05689e-07
6.37574e-07
9.85379e-07
1.4952e-06
2.2234e-06
3.23396e-06
4.59271e-06
6.35898e-06
8.57616e-06
1.12639e-05
1.44145e-05
1.79935e-05
2.19444e-05
2.61948e-05
3.06623e-05
3.52603e-05
3.99014e-05
4.45009e-05
4.89796e-05
5.32663e-05
5.73031e-05
6.10559e-05
6.45345e-05
6.78261e-05
7.11354e-05
7.48059e-05
7.92943e-05
8.51939e-05
9.33637e-05
0.000104851
0.000120515
0.000141604
0.000169639
0.000206533
0.000254732
0.000317388
0.000398589
0.000503644
0.000639463
0.00081504
0.0010421
0.00133592
0.00171649
0.00220983
0.0028498
0.00368122
0.00475426
0.00612099
0.00796528
0.0103754
0.0135363
0.0229224
0.0404504
0.0580195
0.0753559
0.0922508
0.108549
0.124138
0.138912
0.152789
0.165675
0.177502
0.188206
0.197715
0.205953
0.212861
0.218402
0.222593
0.225545
0.227482
0.22865
0.229307
0.229657
0.229835
0.229922
0.229964
0.229984
0.229993
0.229997
0.229999
0.229999
0.23
0.23
0.23
0.23
0.23
0.23
0.23
0.23
0.23
5.54807e-10
2.4248e-09
5.57012e-09
1.08414e-08
1.96292e-08
3.4179e-08
5.80659e-08
9.68864e-08
1.59236e-07
2.58022e-07
4.12119e-07
6.4828e-07
1.00301e-06
1.52384e-06
2.2692e-06
3.30584e-06
4.70312e-06
6.52455e-06
8.81807e-06
1.16079e-05
1.48904e-05
1.86345e-05
2.27861e-05
2.72742e-05
3.20167e-05
3.69264e-05
4.19144e-05
4.68935e-05
5.1781e-05
5.65016e-05
6.09932e-05
6.52184e-05
6.91876e-05
7.2997e-05
7.68714e-05
8.11752e-05
8.63185e-05
9.31651e-05
0.000102582
0.000115345
0.000132528
0.000155404
0.000185535
0.000224877
0.000275927
0.000341895
0.000426928
0.000536399
0.000677278
0.000858608
0.00109215
0.00139317
0.0017814
0.00228267
0.00293123
0.00377237
0.00485305
0.00622522
0.00807266
0.0104808
0.0136313
0.0242398
0.0417825
0.0593429
0.0766539
0.0935278
0.109807
0.125354
0.140069
0.153865
0.166668
0.178406
0.189015
0.198422
0.206553
0.213351
0.218782
0.222871
0.225735
0.22759
0.228711
0.229341
0.229675
0.229843
0.229926
0.229966
0.229985
0.229993
0.229997
0.229999
0.229999
0.23
0.23
0.23
0.23
0.23
0.23
0.23
0.23
0.23
5.61263e-10
2.45306e-09
5.63536e-09
1.09695e-08
1.98646e-08
3.45976e-08
5.87964e-08
9.81473e-08
1.61394e-07
2.61687e-07
4.18294e-07
6.58588e-07
1.02002e-06
1.55156e-06
2.31366e-06
3.37582e-06
4.81099e-06
6.6869e-06
9.05623e-06
1.19481e-05
1.53633e-05
1.92748e-05
2.36318e-05
2.83654e-05
3.33952e-05
3.86343e-05
4.39935e-05
4.93846e-05
5.47227e-05
5.99299e-05
6.49412e-05
6.97178e-05
7.42739e-05
7.87201e-05
8.33092e-05
8.83952e-05
9.45568e-05
0.000102524
0.000113121
0.000127287
0.000146115
0.000170909
0.000203265
0.000245187
0.000299224
0.00036864
0.000457642
0.000571663
0.000717735
0.000904898
0.00114481
0.00145264
0.00184832
0.00235835
0.00301648
0.00386623
0.0049541
0.00633164
0.00818147
0.010586
0.0137232
0.0253616
0.0429255
0.0604843
0.0777927
0.0946428
0.110879
0.126377
0.141035
0.154768
0.1675
0.179163
0.189693
0.199013
0.207054
0.213759
0.219097
0.223098
0.225888
0.227686
0.228762
0.229367
0.229688
0.22985
0.22993
0.229967
0.229985
0.229993
0.229997
0.229999
0.229999
0.23
0.23
0.23
0.23
0.23
0.23
0.23
0.23
0.23
5.67202e-10
2.47906e-09
5.69542e-09
1.10876e-08
2.00818e-08
3.49841e-08
5.94721e-08
9.93156e-08
1.63397e-07
2.65096e-07
4.24052e-07
6.68222e-07
1.03597e-06
1.57761e-06
2.35556e-06
3.442e-06
4.91335e-06
6.84157e-06
9.28411e-06
1.22751e-05
1.58203e-05
1.98973e-05
2.4459e-05
2.94401e-05
3.47628e-05
4.03422e-05
4.60904e-05
5.19196e-05
5.77449e-05
6.34876e-05
6.90815e-05
7.44884e-05
7.97279e-05
8.49265e-05
9.03617e-05
9.63602e-05
0.000103667
0.000112924
0.000124933
0.000140686
0.000161316
0.00018817
0.00022289
0.000267533
0.000324704
0.000397726
0.00049085
0.000609529
0.000760729
0.000953555
0.00119985
0.00151534
0.00191984
0.00243863
0.00310523
0.00396327
0.00505795
0.00644034
0.00829174
0.0106916
0.0138069
0.0262884
0.043881
0.0614486
0.0787426
0.0955673
0.111769
0.127225
0.141835
0.155515
0.168189
0.179789
0.190252
0.199501
0.207467
0.214094
0.219354
0.223283
0.226011
0.227763
0.228807
0.229389
0.229699
0.229856
0.229932
0.229969
0.229986
0.229994
0.229997
0.229999
0.229999
0.23
0.23
0.23
0.23
0.23
0.23
0.23
0.23
0.23
5.72465e-10
2.50211e-09
5.74867e-09
1.11924e-08
2.02746e-08
3.53277e-08
6.00738e-08
1.00358e-07
1.65187e-07
2.68149e-07
4.29218e-07
6.76886e-07
1.05035e-06
1.60116e-06
2.39356e-06
3.50221e-06
5.00681e-06
6.98337e-06
9.49398e-06
1.25778e-05
1.62457e-05
2.04801e-05
2.52388e-05
3.04606e-05
3.60717e-05
4.19908e-05
4.81331e-05
5.44139e-05
6.07506e-05
6.70665e-05
7.32981e-05
7.94114e-05
8.54367e-05
9.15235e-05
9.79723e-05
0.000105226
0.000113808
0.000124482
0.000138026
0.000155479
0.000178023
0.000207046
0.000244236
0.000291693
0.000352055
0.000428665
0.00052583
0.000649098
0.000805624
0.00100484
0.00125859
0.00158178
0.00199419
0.00252132
0.0031963
0.00406225
0.00516315
0.00654933
0.00840051
0.010793
0.0138829
0.0270366
0.0446545
0.0622306
0.0795162
0.0963208
0.112494
0.127915
0.142485
0.156121
0.168747
0.180297
0.190705
0.199896
0.2078
0.214364
0.219561
0.223431
0.226109
0.227823
0.228842
0.229409
0.229709
0.22986
0.229934
0.22997
0.229986
0.229994
0.229997
0.229999
0.229999
0.23
0.23
0.23
0.23
0.23
0.23
0.23
0.23
0.23
5.76896e-10
2.52152e-09
5.79352e-09
1.12807e-08
2.04373e-08
3.56179e-08
6.05824e-08
1.0124e-07
1.66705e-07
2.70742e-07
4.33615e-07
6.84277e-07
1.06264e-06
1.62136e-06
2.42623e-06
3.55415e-06
5.08773e-06
7.10663e-06
9.67721e-06
1.28434e-05
1.6621e-05
2.09975e-05
2.59357e-05
3.13794e-05
3.72598e-05
4.35006e-05
5.00223e-05
5.67454e-05
6.3593e-05
7.04941e-05
7.73917e-05
8.42611e-05
9.11473e-05
9.82234e-05
0.000105799
0.000114357
0.000124292
0.000136364
0.00015159
0.000170877
0.000195418
0.000226643
0.000266293
0.000316525
0.000380049
0.000460315
0.000561855
0.000690264
0.000852756
0.00105832
0.0013188
0.00164939
0.00206967
0.00260495
0.00328797
0.00416124
0.00526756
0.00665616
0.00850501
0.0108871
0.0139488
0.0276276
0.0452744
0.0628556
0.080133
0.0969201
0.113069
0.128461
0.142998
0.156598
0.169186
0.180694
0.19106
0.200205
0.20806
0.214574
0.219722
0.223546
0.226185
0.227869
0.228868
0.229423
0.229717
0.229864
0.229936
0.22997
0.229987
0.229994
0.229997
0.229999
0.23
0.23
0.23
0.23
0.23
0.23
0.23
0.23
0.23
0.23
5.80352e-10
2.53666e-09
5.82852e-09
1.13496e-08
2.05643e-08
3.58447e-08
6.09805e-08
1.01931e-07
1.67896e-07
2.7278e-07
4.37077e-07
6.90108e-07
1.07236e-06
1.63736e-06
2.45219e-06
3.59555e-06
5.15244e-06
7.20555e-06
9.82489e-06
1.30584e-05
1.69264e-05
2.1421e-05
2.65097e-05
3.21416e-05
3.82532e-05
4.47741e-05
5.16316e-05
5.87535e-05
6.60717e-05
7.35255e-05
8.1071e-05
8.87011e-05
9.64883e-05
0.000104643
0.00011352
0.000123437
0.000134817
0.000148414
0.000165128
0.000186092
0.000212531
0.000245918
0.000288052
0.000341163
0.00040805
0.000492256
0.000598111
0.0007313
0.000899044
0.00111055
0.00137761
0.00171537
0.00214326
0.00268635
0.00337694
0.00425689
0.00536783
0.00675756
0.00860201
0.0109707
0.0140012
0.0280646
0.0457394
0.0633285
0.0806006
0.0973738
0.113503
0.128872
0.143383
0.156955
0.169513
0.18099
0.191323
0.200433
0.208252
0.214729
0.21984
0.22363
0.22624
0.227903
0.228887
0.229434
0.229722
0.229867
0.229937
0.229971
0.229987
0.229994
0.229997
0.229999
0.23
0.23
0.23
0.23
0.23
0.23
0.23
0.23
0.23
0.23
5.82713e-10
2.547e-09
5.85243e-09
1.13967e-08
2.06512e-08
3.59998e-08
6.12527e-08
1.02404e-07
1.68711e-07
2.74177e-07
4.39451e-07
6.94111e-07
1.07904e-06
1.64838e-06
2.47011e-06
3.6242e-06
5.19736e-06
7.27446e-06
9.92812e-06
1.32093e-05
1.71417e-05
2.17211e-05
2.69189e-05
3.26883e-05
3.89706e-05
4.5701e-05
5.2813e-05
6.02423e-05
6.79298e-05
7.5827e-05
8.39052e-05
9.21792e-05
0.000100754
0.00010988
0.000119912
0.000131204
0.000144056
0.000159159
0.000177453
0.000200047
0.000228235
0.000263551
0.000307853
0.00036342
0.000433093
0.000520434
0.000629933
0.000767294
0.00093977
0.0011566
0.00142959
0.00177382
0.00220862
0.00275881
0.0034563
0.00434226
0.00545725
0.00684742
0.0086865
0.0110401
0.014038
0.0283527
0.0460558
0.063654
0.0809231
0.097686
0.113801
0.129152
0.143644
0.157195
0.169732
0.181187
0.191497
0.200584
0.208379
0.214831
0.219917
0.223684
0.226276
0.227925
0.2289
0.22944
0.229725
0.229868
0.229938
0.229971
0.229987
0.229994
0.229997
0.229999
0.23
0.23
0.23
0.23
0.23
0.23
0.23
0.23
0.23
0.23
5.83895e-10
2.55217e-09
5.86435e-09
1.14201e-08
2.06942e-08
3.60764e-08
6.13867e-08
1.02636e-07
1.69111e-07
2.74859e-07
4.4061e-07
6.96063e-07
1.0823e-06
1.65376e-06
2.47886e-06
3.6382e-06
5.21936e-06
7.30832e-06
9.97906e-06
1.32841e-05
1.7249e-05
2.18714e-05
2.7125e-05
3.29653e-05
3.93366e-05
4.61771e-05
5.34246e-05
6.10193e-05
6.89084e-05
7.70513e-05
8.54297e-05
9.40731e-05
0.000103105
0.000112784
0.000123503
0.000135699
0.000149757
0.000165995
0.000185368
0.00020905
0.000238388
0.000274964
0.000320678
0.000377852
0.000449368
0.000538831
0.000650782
0.000790968
0.000966683
0.0011872
0.00146434
0.00181317
0.00225297
0.00280842
0.00351118
0.00440195
0.00552042
0.00691144
0.00874665
0.0110879
0.0140575
0.0284943
0.0462218
0.0638277
0.0810951
0.0978511
0.113956
0.129297
0.143777
0.157317
0.169842
0.181286
0.191583
0.200658
0.208441
0.21488
0.219954
0.22371
0.226293
0.227935
0.228906
0.229444
0.229727
0.229869
0.229938
0.229972
0.229987
0.229994
0.229997
0.229999
0.23
0.23
0.23
0.23
0.23
0.23
0.23
0.23
0.23
0.23
5.83895e-10
2.55217e-09
5.86435e-09
1.14201e-08
2.06942e-08
3.60764e-08
6.13868e-08
1.02636e-07
1.69111e-07
2.7486e-07
4.4061e-07
6.96064e-07
1.0823e-06
1.65376e-06
2.47886e-06
3.63821e-06
5.21937e-06
7.30833e-06
9.97907e-06
1.32842e-05
1.7249e-05
2.18714e-05
2.7125e-05
3.29653e-05
3.93366e-05
4.61771e-05
5.34245e-05
6.10192e-05
6.89084e-05
7.70511e-05
8.54295e-05
9.40727e-05
0.000103105
0.000112783
0.000123503
0.000135699
0.000149757
0.000165995
0.000185369
0.000209051
0.000238389
0.000274965
0.000320678
0.000377853
0.000449369
0.000538831
0.000650782
0.000790968
0.000966683
0.0011872
0.00146434
0.00181317
0.00225297
0.00280842
0.00351118
0.00440194
0.00552041
0.00691143
0.00874664
0.0110879
0.0140575
0.0284942
0.0462217
0.0638276
0.081095
0.097851
0.113956
0.129296
0.143777
0.157317
0.169842
0.181285
0.191583
0.200658
0.208441
0.21488
0.219954
0.22371
0.226293
0.227935
0.228906
0.229444
0.229727
0.229869
0.229938
0.229972
0.229987
0.229994
0.229997
0.229999
0.23
0.23
0.23
0.23
0.23
0.23
0.23
0.23
0.23
0.23
5.82716e-10
2.54701e-09
5.85245e-09
1.13967e-08
2.06512e-08
3.59999e-08
6.12529e-08
1.02404e-07
1.68712e-07
2.74178e-07
4.39452e-07
6.94114e-07
1.07905e-06
1.64839e-06
2.47012e-06
3.62421e-06
5.19737e-06
7.27448e-06
9.92815e-06
1.32094e-05
1.71418e-05
2.17211e-05
2.69189e-05
3.26883e-05
3.89706e-05
4.5701e-05
5.2813e-05
6.02422e-05
6.79296e-05
7.58266e-05
8.39044e-05
9.21778e-05
0.000100752
0.000109877
0.000119911
0.000131203
0.000144056
0.00015916
0.000177454
0.000200048
0.000228236
0.000263552
0.000307854
0.000363421
0.000433094
0.000520434
0.000629933
0.000767294
0.00093977
0.0011566
0.00142959
0.00177382
0.00220862
0.0027588
0.00345629
0.00434225
0.00545723
0.0068474
0.00868646
0.0110401
0.014038
0.0283524
0.0460554
0.0636536
0.0809228
0.0976856
0.1138
0.129151
0.143644
0.157195
0.169732
0.181187
0.191497
0.200584
0.208379
0.214831
0.219917
0.223684
0.226276
0.227925
0.2289
0.22944
0.229725
0.229868
0.229938
0.229971
0.229987
0.229994
0.229997
0.229999
0.23
0.23
0.23
0.23
0.23
0.23
0.23
0.23
0.23
0.23
5.80355e-10
2.53667e-09
5.82855e-09
1.13496e-08
2.05644e-08
3.58449e-08
6.09808e-08
1.01931e-07
1.67897e-07
2.72781e-07
4.37078e-07
6.9011e-07
1.07236e-06
1.63736e-06
2.45219e-06
3.59555e-06
5.15245e-06
7.20557e-06
9.8249e-06
1.30584e-05
1.69264e-05
2.1421e-05
2.65097e-05
3.21416e-05
3.82532e-05
4.47742e-05
5.16318e-05
5.87539e-05
6.60723e-05
7.35266e-05
8.10729e-05
8.87043e-05
9.64936e-05
0.000104651
0.000113524
0.00012344
0.000134818
0.000148414
0.000165128
0.000186092
0.000212531
0.000245918
0.000288052
0.000341163
0.00040805
0.000492256
0.000598111
0.000731299
0.000899042
0.00111055
0.00137761
0.00171536
0.00214325
0.00268633
0.00337692
0.00425687
0.0053678
0.00675752
0.00860196
0.0109706
0.0140011
0.0280639
0.0457387
0.0633278
0.0806
0.0973732
0.113503
0.128871
0.143383
0.156954
0.169513
0.18099
0.191322
0.200433
0.208252
0.214729
0.21984
0.22363
0.22624
0.227903
0.228887
0.229434
0.229722
0.229867
0.229937
0.229971
0.229987
0.229994
0.229997
0.229999
0.23
0.23
0.23
0.23
0.23
0.23
0.23
0.23
0.23
0.23
5.769e-10
2.52154e-09
5.79356e-09
1.12807e-08
2.04374e-08
3.56181e-08
6.05828e-08
1.0124e-07
1.66706e-07
2.70744e-07
4.33617e-07
6.84281e-07
1.06265e-06
1.62136e-06
2.42624e-06
3.55416e-06
5.08775e-06
7.10665e-06
9.67724e-06
1.28434e-05
1.6621e-05
2.09975e-05
2.59357e-05
3.13795e-05
3.72599e-05
4.35007e-05
5.00225e-05
5.67456e-05
6.35932e-05
7.04942e-05
7.73918e-05
8.42606e-05
9.11457e-05
9.8219e-05
0.000105798
0.000114357
0.000124292
0.000136364
0.00015159
0.000170877
0.000195418
0.000226643
0.000266294
0.000316525
0.000380049
0.000460315
0.000561854
0.000690262
0.000852754
0.00105831
0.00131879
0.00164938
0.00206966
0.00260493
0.00328794
0.00416121
0.00526751
0.0066561
0.00850493
0.010887
0.0139486
0.0276266
0.0452734
0.0628546
0.080132
0.0969191
0.113068
0.12846
0.142998
0.156597
0.169186
0.180694
0.191059
0.200204
0.20806
0.214574
0.219722
0.223546
0.226185
0.227869
0.228868
0.229423
0.229717
0.229864
0.229936
0.22997
0.229987
0.229994
0.229997
0.229999
0.23
0.23
0.23
0.23
0.23
0.23
0.23
0.23
0.23
0.23
5.7247e-10
2.50213e-09
5.74872e-09
1.11925e-08
2.02748e-08
3.5328e-08
6.00743e-08
1.00358e-07
1.65189e-07
2.68151e-07
4.29221e-07
6.76891e-07
1.05035e-06
1.60117e-06
2.39357e-06
3.50223e-06
5.00684e-06
6.98339e-06
9.49401e-06
1.25778e-05
1.62457e-05
2.04801e-05
2.52388e-05
3.04607e-05
3.60718e-05
4.19908e-05
4.81332e-05
5.44141e-05
6.07508e-05
6.70668e-05
7.32986e-05
7.94122e-05
8.54381e-05
9.15259e-05
9.79741e-05
0.000105228
0.00011381
0.000124483
0.000138027
0.00015548
0.000178024
0.000207046
0.000244236
0.000291693
0.000352055
0.000428665
0.000525829
0.000649097
0.000805621
0.00100484
0.00125858
0.00158177
0.00199417
0.00252129
0.00319626
0.00406221
0.00516309
0.00654925
0.00840041
0.0107929
0.0138827
0.0270351
0.0446531
0.0622291
0.0795148
0.0963195
0.112493
0.127914
0.142484
0.15612
0.168747
0.180296
0.190704
0.199895
0.2078
0.214363
0.219561
0.223431
0.226109
0.227823
0.228842
0.229409
0.229709
0.22986
0.229934
0.22997
0.229986
0.229994
0.229997
0.229999
0.229999
0.23
0.23
0.23
0.23
0.23
0.23
0.23
0.23
0.23
5.67208e-10
2.47909e-09
5.69547e-09
1.10877e-08
2.0082e-08
3.49844e-08
5.94727e-08
9.93165e-08
1.63399e-07
2.65099e-07
4.24055e-07
6.68227e-07
1.03598e-06
1.57762e-06
2.35558e-06
3.44202e-06
4.91337e-06
6.8416e-06
9.28414e-06
1.22751e-05
1.58203e-05
1.98973e-05
2.4459e-05
2.94401e-05
3.47628e-05
4.03422e-05
4.60904e-05
5.19197e-05
5.77451e-05
6.34878e-05
6.90819e-05
7.4489e-05
7.97288e-05
8.4928e-05
9.03638e-05
9.6364e-05
0.000103674
0.000112928
0.000124935
0.000140687
0.000161317
0.00018817
0.00022289
0.000267533
0.000324704
0.000397725
0.000490849
0.000609527
0.000760725
0.00095355
0.00119984
0.00151533
0.00191982
0.0024386
0.00310519
0.00396322
0.00505789
0.00644027
0.00829164
0.0106915
0.0138067
0.0262865
0.0438791
0.0614466
0.0787407
0.0955655
0.111767
0.127223
0.141834
0.155513
0.168188
0.179788
0.190251
0.1995
0.207466
0.214093
0.219354
0.223283
0.226011
0.227763
0.228806
0.229389
0.229699
0.229856
0.229932
0.229969
0.229986
0.229994
0.229997
0.229999
0.229999
0.23
0.23
0.23
0.23
0.23
0.23
0.23
0.23
0.23
5.61269e-10
2.45309e-09
5.63543e-09
1.09697e-08
1.98648e-08
3.4598e-08
5.87971e-08
9.81484e-08
1.61396e-07
2.61689e-07
4.18298e-07
6.58594e-07
1.02003e-06
1.55157e-06
2.31368e-06
3.37585e-06
4.81101e-06
6.68693e-06
9.05627e-06
1.19481e-05
1.53633e-05
1.92749e-05
2.36318e-05
2.83654e-05
3.33951e-05
3.86342e-05
4.39935e-05
4.93845e-05
5.47226e-05
5.99298e-05
6.49411e-05
6.97176e-05
7.42735e-05
7.87195e-05
8.33079e-05
8.83927e-05
9.45517e-05
0.000102522
0.00011312
0.000127287
0.000146116
0.000170909
0.000203265
0.000245188
0.000299224
0.00036864
0.000457642
0.000571662
0.000717732
0.000904893
0.00114481
0.00145263
0.0018483
0.00235833
0.00301645
0.0038662
0.00495405
0.00633158
0.0081814
0.0105859
0.0137231
0.0253594
0.0429232
0.060482
0.0777904
0.0946405
0.110877
0.126375
0.141033
0.154766
0.167499
0.179162
0.189692
0.199012
0.207053
0.213758
0.219096
0.223098
0.225888
0.227686
0.228762
0.229367
0.229688
0.22985
0.22993
0.229967
0.229985
0.229993
0.229997
0.229999
0.229999
0.23
0.23
0.23
0.23
0.23
0.23
0.23
0.23
0.23
5.54814e-10
2.42483e-09
5.5702e-09
1.08415e-08
1.96294e-08
3.41795e-08
5.80666e-08
9.68876e-08
1.59238e-07
2.58024e-07
4.12123e-07
6.48287e-07
1.00302e-06
1.52385e-06
2.26922e-06
3.30586e-06
4.70315e-06
6.52458e-06
8.81811e-06
1.1608e-05
1.48904e-05
1.86345e-05
2.27861e-05
2.72741e-05
3.20167e-05
3.69263e-05
4.19143e-05
4.68933e-05
5.17807e-05
5.65013e-05
6.09929e-05
6.52181e-05
6.91872e-05
7.29967e-05
7.68713e-05
8.11751e-05
8.63175e-05
9.31643e-05
0.000102582
0.000115345
0.000132528
0.000155405
0.000185536
0.000224878
0.000275928
0.000341896
0.000426929
0.0005364
0.000677277
0.000858606
0.00109215
0.00139316
0.00178138
0.00228265
0.00293121
0.00377235
0.00485304
0.00622521
0.00807265
0.0104808
0.0136313
0.0242378
0.0417806
0.0593412
0.0766518
0.0935256
0.109805
0.125352
0.140067
0.153864
0.166666
0.178405
0.189014
0.198421
0.206552
0.21335
0.218782
0.22287
0.225734
0.22759
0.228711
0.22934
0.229674
0.229843
0.229926
0.229966
0.229985
0.229993
0.229997
0.229999
0.229999
0.23
0.23
0.23
0.23
0.23
0.23
0.23
0.23
0.23
5.47995e-10
2.39498e-09
5.50133e-09
1.07064e-08
1.93813e-08
3.37392e-08
5.72993e-08
9.5566e-08
1.56981e-07
2.54199e-07
4.05694e-07
6.37581e-07
9.85389e-07
1.49521e-06
2.22342e-06
3.23398e-06
4.59274e-06
6.35902e-06
8.57619e-06
1.1264e-05
1.44146e-05
1.79935e-05
2.19444e-05
2.61947e-05
3.06622e-05
3.52602e-05
3.99012e-05
4.45007e-05
4.89793e-05
5.3266e-05
5.73027e-05
6.10554e-05
6.45339e-05
6.78253e-05
7.11342e-05
7.48039e-05
7.92921e-05
8.51933e-05
9.33638e-05