/*--------------------------------*- C++ -*----------------------------------*\
  =========                 |
  \\      /  F ield         | OpenFOAM: The Open Source CFD Toolbox
   \\    /   O peration     | Website:  https://openfoam.org
    \\  /    A nd           | Version:  8
     \\/     M anipulation  |
\*---------------------------------------------------------------------------*/
FoamFile
{
    version     2.0;
    format      ascii;
    class       surfaceScalarField;
    location    "1000/fluid";
    object      phi;
}
// * * * * * * * * * * * * * * * * * * * * * * * * * * * * * * * * * * * * * //

dimensions      [1 0 -1 0 0 0 0];

internalField   nonuniform List<scalar> 
7860
(
6.57257e-07
-1.77829e-08
6.54561e-07
-5.33445e-08
6.50724e-07
-8.87258e-08
6.45634e-07
-1.23826e-07
6.39158e-07
-1.58649e-07
6.31131e-07
-1.93146e-07
6.21366e-07
-2.27235e-07
6.09664e-07
-2.60793e-07
5.95818e-07
-2.93652e-07
5.79634e-07
-3.25589e-07
5.60938e-07
-3.56315e-07
5.39611e-07
-3.85464e-07
5.15628e-07
-4.12577e-07
4.89168e-07
-4.37112e-07
4.60514e-07
-4.58428e-07
4.30031e-07
-4.75861e-07
3.98195e-07
-4.88854e-07
3.65551e-07
-4.97115e-07
3.32665e-07
-5.00732e-07
3.00045e-07
-5.00196e-07
2.68099e-07
-4.96292e-07
2.37111e-07
-4.89932e-07
2.0726e-07
-4.81975e-07
1.78681e-07
-4.73115e-07
1.51418e-07
-4.63837e-07
1.25434e-07
-4.54437e-07
1.00659e-07
-4.45077e-07
7.7019e-08
-4.35823e-07
5.44419e-08
-4.26686e-07
3.28661e-08
-4.17648e-07
1.22392e-08
-4.08678e-07
-7.47871e-09
-3.99751e-07
-2.63159e-08
-3.90845e-07
-4.4302e-08
-3.81952e-07
-6.14678e-08
-3.73076e-07
-7.78366e-08
-3.64205e-07
-9.34278e-08
-3.553e-07
-1.0826e-07
-3.46374e-07
-1.22353e-07
-3.37448e-07
-1.35725e-07
-3.28545e-07
-1.48395e-07
-3.19689e-07
-1.60382e-07
-3.10906e-07
-1.71706e-07
-3.02223e-07
-1.82386e-07
-2.93668e-07
-1.92443e-07
-2.85269e-07
-2.01898e-07
-2.77052e-07
-2.10771e-07
-2.69045e-07
-2.19083e-07
-2.61274e-07
-2.26857e-07
-2.53765e-07
-2.34113e-07
-2.46545e-07
-2.40873e-07
-2.3964e-07
-2.47162e-07
-2.33077e-07
-2.53002e-07
-2.26885e-07
-2.5842e-07
-2.21098e-07
-2.63444e-07
-2.15753e-07
-2.68111e-07
-2.10893e-07
-2.72462e-07
-2.06573e-07
-2.76553e-07
-2.02885e-07
-2.8044e-07
-1.99898e-07
-2.84199e-07
-1.97673e-07
-2.87962e-07
-1.9645e-07
-2.92167e-07
-1.96403e-07
-2.97069e-07
-1.98628e-07
-3.03921e-07
-2.09758e-07
-3.11822e-07
-2.22206e-07
-3.20582e-07
-2.35945e-07
-3.3025e-07
-2.51154e-07
-3.40947e-07
-2.68073e-07
-3.52833e-07
-2.86974e-07
-3.66124e-07
-3.08184e-07
-3.81115e-07
-3.32094e-07
-3.98199e-07
-3.59172e-07
-4.17906e-07
-3.89949e-07
-4.40919e-07
-4.25146e-07
-4.68098e-07
-4.65423e-07
-5.00415e-07
-5.10808e-07
-5.38762e-07
-5.60244e-07
-5.83419e-07
-6.10828e-07
-6.34146e-07
-6.57106e-07
-6.89754e-07
-6.91979e-07
-7.47896e-07
-7.09789e-07
-8.0565e-07
-7.09393e-07
-8.6051e-07
-6.9399e-07
-9.1092e-07
-6.68254e-07
-9.5622e-07
-6.36225e-07
-9.96226e-07
-6.00532e-07
-1.03082e-06
-5.62625e-07
-1.06035e-06
-5.23201e-07
-1.08535e-06
-4.82699e-07
-1.10636e-06
-4.41452e-07
-1.12387e-06
-3.99713e-07
-1.13834e-06
-3.57675e-07
-1.15016e-06
-3.1549e-07
-1.1597e-06
-2.73265e-07
-1.16728e-06
-2.31075e-07
-1.17318e-06
-1.88962e-07
-1.17763e-06
-1.46937e-07
-1.18083e-06
-1.04974e-07
-1.18292e-06
-6.29978e-08
-2.09964e-08
6.57905e-07
-1.71543e-08
6.5576e-07
-5.1199e-08
6.52019e-07
-8.49848e-08
6.46681e-07
-1.18489e-07
6.39677e-07
-1.51645e-07
6.30909e-07
-1.84377e-07
6.2026e-07
-2.16586e-07
6.07614e-07
-2.48148e-07
5.92868e-07
-2.78906e-07
5.7594e-07
-3.0866e-07
5.56784e-07
-3.37159e-07
5.35403e-07
-3.64083e-07
5.11867e-07
-3.89041e-07
4.86339e-07
-4.11585e-07
4.59052e-07
-4.31142e-07
4.30303e-07
-4.47112e-07
4.00463e-07
-4.59014e-07
3.69951e-07
-4.66604e-07
3.39195e-07
-4.69978e-07
3.0858e-07
-4.69582e-07
2.78416e-07
-4.66129e-07
2.48922e-07
-4.6044e-07
2.20241e-07
-4.53295e-07
1.9247e-07
-4.45345e-07
1.6566e-07
-4.37028e-07
1.39822e-07
-4.28599e-07
1.14945e-07
-4.20201e-07
9.10112e-08
-4.1189e-07
6.79993e-08
-4.03675e-07
4.58884e-08
-3.95537e-07
2.46586e-08
-3.87449e-07
4.29067e-09
-3.79383e-07
-1.52336e-08
-3.71321e-07
-3.39309e-08
-3.63255e-07
-5.18187e-08
-3.55189e-07
-6.8911e-08
-3.47113e-07
-8.52213e-08
-3.3899e-07
-1.00765e-07
-3.30831e-07
-1.15558e-07
-3.22655e-07
-1.29618e-07
-3.14486e-07
-1.42962e-07
-3.06345e-07
-1.55611e-07
-2.98258e-07
-1.67583e-07
-2.90251e-07
-1.789e-07
-2.82351e-07
-1.89583e-07
-2.74586e-07
-1.99655e-07
-2.6698e-07
-2.0914e-07
-2.5956e-07
-2.1806e-07
-2.52354e-07
-2.26442e-07
-2.45384e-07
-2.3431e-07
-2.38677e-07
-2.41692e-07
-2.32258e-07
-2.48616e-07
-2.26152e-07
-2.55116e-07
-2.20386e-07
-2.61226e-07
-2.14988e-07
-2.66988e-07
-2.0999e-07
-2.72453e-07
-2.05429e-07
-2.77681e-07
-2.01345e-07
-2.82748e-07
-1.97817e-07
-2.87758e-07
-1.94888e-07
-2.92855e-07
-1.92577e-07
-2.98266e-07
-1.91039e-07
-3.04273e-07
-1.90396e-07
-3.10017e-07
-1.92873e-07
-3.17039e-07
-2.02735e-07
-3.25291e-07
-2.13954e-07
-3.34671e-07
-2.26562e-07
-3.45174e-07
-2.4065e-07
-3.56873e-07
-2.56372e-07
-3.69901e-07
-2.73944e-07
-3.84441e-07
-2.93641e-07
-4.00729e-07
-3.15804e-07
-4.19057e-07
-3.40841e-07
-4.39771e-07
-3.69232e-07
-4.63252e-07
-4.01661e-07
-4.89974e-07
-4.38696e-07
-5.20469e-07
-4.80307e-07
-5.55245e-07
-5.25462e-07
-5.94619e-07
-5.71449e-07
-6.38662e-07
-6.13057e-07
-6.86796e-07
-6.43841e-07
-7.37485e-07
-6.59097e-07
-7.88601e-07
-6.58275e-07
-8.38198e-07
-6.44391e-07
-8.84962e-07
-6.21489e-07
-9.28249e-07
-5.92939e-07
-9.67798e-07
-5.60982e-07
-1.00345e-06
-5.26968e-07
-1.03521e-06
-4.91448e-07
-1.06316e-06
-4.54746e-07
-1.08749e-06
-4.17126e-07
-1.10841e-06
-3.78794e-07
-1.12617e-06
-3.39912e-07
-1.14104e-06
-3.00615e-07
-1.1533e-06
-2.61012e-07
-1.16318e-06
-2.21189e-07
-1.17093e-06
-1.81211e-07
-1.17675e-06
-1.41125e-07
-1.18077e-06
-1.00949e-07
-1.18309e-06
-6.06768e-08
-2.02669e-08
6.57605e-07
-1.62259e-08
6.5492e-07
-4.85134e-08
6.50488e-07
-8.05533e-08
6.44276e-07
-1.12276e-07
6.3624e-07
-1.4361e-07
6.26334e-07
-1.7447e-07
6.14508e-07
-2.04761e-07
6.00726e-07
-2.34366e-07
5.8497e-07
-2.6315e-07
5.67249e-07
-2.90939e-07
5.47605e-07
-3.17515e-07
5.26116e-07
-3.42595e-07
5.02895e-07
-3.6582e-07
4.78057e-07
-3.86748e-07
4.51786e-07
-4.04871e-07
4.24347e-07
-4.19674e-07
3.96067e-07
-4.30735e-07
3.67301e-07
-4.3784e-07
3.38399e-07
-4.41077e-07
3.09669e-07
-4.40853e-07
2.81352e-07
-4.37813e-07
2.53615e-07
-4.32705e-07
2.26556e-07
-4.26237e-07
2.00203e-07
-4.18993e-07
1.74561e-07
-4.11386e-07
1.49639e-07
-4.03678e-07
1.25446e-07
-3.96009e-07
1.01989e-07
-3.88434e-07
7.92733e-08
-3.8096e-07
5.73018e-08
-3.73566e-07
3.60765e-08
-3.66224e-07
1.55973e-08
-3.58904e-07
-4.13732e-09
-3.51587e-07
-2.31315e-08
-3.44262e-07
-4.13915e-08
-3.36929e-07
-5.89216e-08
-3.29583e-07
-7.5727e-08
-3.22185e-07
-9.18158e-08
-3.14742e-07
-1.07198e-07
-3.07273e-07
-1.21887e-07
-2.99798e-07
-1.35894e-07
-2.92337e-07
-1.49238e-07
-2.84915e-07
-1.61934e-07
-2.77555e-07
-1.74002e-07
-2.70283e-07
-1.85463e-07
-2.63124e-07
-1.96341e-07
-2.56103e-07
-2.06657e-07
-2.49244e-07
-2.1644e-07
-2.42571e-07
-2.25717e-07
-2.36108e-07
-2.34518e-07
-2.29877e-07
-2.42876e-07
-2.239e-07
-2.50828e-07
-2.182e-07
-2.58415e-07
-2.12799e-07
-2.65683e-07
-2.0772e-07
-2.72685e-07
-2.02988e-07
-2.79483e-07
-1.98631e-07
-2.8615e-07
-1.94678e-07
-2.92769e-07
-1.91198e-07
-2.99445e-07
-1.88212e-07
-3.06297e-07
-1.85724e-07
-3.13466e-07
-1.8387e-07
-3.21111e-07
-1.82751e-07
-3.2784e-07
-1.86133e-07
-3.35611e-07
-1.94962e-07
-3.44458e-07
-2.05104e-07
-3.54408e-07
-2.16611e-07
-3.65508e-07
-2.29549e-07
-3.77832e-07
-2.44046e-07
-3.91483e-07
-2.6029e-07
-4.06588e-07
-2.78534e-07
-4.23291e-07
-2.99098e-07
-4.41755e-07
-3.22373e-07
-4.62134e-07
-3.48849e-07
-4.84582e-07
-3.79209e-07
-5.09326e-07
-4.13946e-07
-5.36695e-07
-4.52932e-07
-5.67188e-07
-4.94962e-07
-6.01582e-07
-5.37049e-07
-6.40426e-07
-5.74207e-07
-6.83504e-07
-6.00758e-07
-7.29557e-07
-6.1304e-07
-7.76678e-07
-6.11153e-07
-8.2305e-07
-5.98018e-07
-8.67383e-07
-5.77155e-07
-9.08955e-07
-5.51367e-07
-9.47459e-07
-5.22478e-07
-9.82897e-07
-4.9153e-07
-1.01524e-06
-4.59107e-07
-1.04444e-06
-4.25541e-07
-1.07053e-06
-3.91044e-07
-1.09355e-06
-3.5577e-07
-1.11362e-06
-3.19844e-07
-1.13086e-06
-2.83374e-07
-1.14542e-06
-2.46453e-07
-1.15744e-06
-2.09165e-07
-1.16707e-06
-1.7158e-07
-1.17444e-06
-1.33759e-07
-1.17964e-06
-9.57438e-08
-1.18277e-06
-5.75545e-08
-1.92111e-08
6.57625e-07
-1.53172e-08
6.54875e-07
-4.57636e-08
6.50279e-07
-7.5957e-08
6.43833e-07
-1.0583e-07
6.35528e-07
-1.35305e-07
6.25352e-07
-1.64295e-07
6.13297e-07
-1.92706e-07
5.9936e-07
-2.2043e-07
5.83549e-07
-2.47339e-07
5.65886e-07
-2.73276e-07
5.46414e-07
-2.98043e-07
5.25201e-07
-3.21383e-07
5.02352e-07
-3.42971e-07
4.78013e-07
-3.6241e-07
4.52385e-07
-3.79244e-07
4.25719e-07
-3.93009e-07
3.98305e-07
-4.03323e-07
3.70455e-07
-4.09991e-07
3.42467e-07
-4.13091e-07
3.14604e-07
-4.12992e-07
2.87076e-07
-4.10286e-07
2.6003e-07
-4.0566e-07
2.33562e-07
-3.99771e-07
2.07725e-07
-3.93157e-07
1.82543e-07
-3.86205e-07
1.58025e-07
-3.79161e-07
1.34172e-07
-3.72157e-07
1.10986e-07
-3.65248e-07
8.84633e-08
-3.58438e-07
6.66056e-08
-3.51709e-07
4.54134e-08
-3.45032e-07
2.48879e-08
-3.38379e-07
5.02946e-09
-3.31729e-07
-1.41625e-08
-3.2507e-07
-3.26904e-08
-3.18401e-07
-5.05551e-08
-3.11719e-07
-6.77576e-08
-3.04982e-07
-8.43024e-08
-2.98198e-07
-1.00196e-07
-2.9138e-07
-1.15447e-07
-2.84547e-07
-1.30067e-07
-2.77718e-07
-1.44068e-07
-2.70914e-07
-1.57466e-07
-2.64157e-07
-1.70279e-07
-2.57471e-07
-1.82527e-07
-2.50877e-07
-1.94232e-07
-2.44399e-07
-2.05416e-07
-2.38059e-07
-2.16108e-07
-2.31879e-07
-2.26337e-07
-2.25879e-07
-2.36134e-07
-2.2008e-07
-2.45534e-07
-2.145e-07
-2.54577e-07
-2.09158e-07
-2.63304e-07
-2.04072e-07
-2.71763e-07
-1.99261e-07
-2.80008e-07
-1.94743e-07
-2.88099e-07
-1.9054e-07
-2.96102e-07
-1.86675e-07
-3.04089e-07
-1.83211e-07
-3.12149e-07
-1.80152e-07
-3.20371e-07
-1.77502e-07
-3.2885e-07
-1.75391e-07
-3.37675e-07
-1.73926e-07
-3.45399e-07
-1.784e-07
-3.53989e-07
-1.8637e-07
-3.63502e-07
-1.9559e-07
-3.73999e-07
-2.06112e-07
-3.85549e-07
-2.17997e-07
-3.98231e-07
-2.31362e-07
-4.12133e-07
-2.46385e-07
-4.27355e-07
-2.63309e-07
-4.44007e-07
-2.82443e-07
-4.62213e-07
-3.04163e-07
-4.82093e-07
-3.28964e-07
-5.03801e-07
-3.57495e-07
-5.2761e-07
-3.90132e-07
-5.53911e-07
-4.26624e-07
-5.83238e-07
-4.65627e-07
-6.16191e-07
-5.04089e-07
-6.53139e-07
-5.37252e-07
-6.93793e-07
-5.60099e-07
-7.3703e-07
-5.69799e-07
-7.81253e-07
-5.66927e-07
-8.24971e-07
-5.54299e-07
-8.671e-07
-5.35025e-07
-9.06976e-07
-5.1149e-07
-9.4424e-07
-4.85213e-07
-9.78729e-07
-4.57042e-07
-1.01039e-06
-4.27448e-07
-1.03922e-06
-3.96711e-07
-1.06524e-06
-3.65017e-07
-1.08851e-06
-3.32504e-07
-1.10907e-06
-2.99285e-07
-1.12698e-06
-2.6546e-07
-1.14232e-06
-2.31116e-07
-1.15515e-06
-1.96333e-07
-1.16555e-06
-1.61184e-07
-1.17357e-06
-1.25735e-07
-1.17927e-06
-9.00429e-08
-1.18269e-06
-5.41428e-08
-1.80748e-08
6.57562e-07
-1.43458e-08
6.54674e-07
-4.28758e-08
6.49883e-07
-7.11656e-08
6.43193e-07
-9.91406e-08
6.34612e-07
-1.26723e-07
6.24146e-07
-1.53829e-07
6.1181e-07
-1.8037e-07
5.97625e-07
-2.06244e-07
5.81622e-07
-2.31336e-07
5.63849e-07
-2.55503e-07
5.44372e-07
-2.78565e-07
5.23279e-07
-3.00291e-07
5.00692e-07
-3.20384e-07
4.76765e-07
-3.38483e-07
4.51691e-07
-3.5417e-07
4.25702e-07
-3.67021e-07
3.9906e-07
-3.76682e-07
3.72039e-07
-3.82971e-07
3.449e-07
-3.85953e-07
3.17872e-07
-3.85965e-07
2.91133e-07
-3.83549e-07
2.64812e-07
-3.79341e-07
2.38991e-07
-3.73952e-07
2.13718e-07
-3.67884e-07
1.89015e-07
-3.61504e-07
1.64894e-07
-3.55042e-07
1.41361e-07
-3.48625e-07
1.18416e-07
-3.42304e-07
9.60621e-08
-3.36085e-07
7.4301e-08
-3.29949e-07
5.31356e-08
-3.23867e-07
3.25687e-08
-3.17813e-07
1.26028e-08
-3.11763e-07
-6.7609e-09
-3.05707e-07
-2.55226e-08
-2.9964e-07
-4.36821e-08
-2.93559e-07
-6.12385e-08
-2.87426e-07
-7.81942e-08
-2.81242e-07
-9.45533e-08
-2.75021e-07
-1.10323e-07
-2.68778e-07
-1.25511e-07
-2.62529e-07
-1.4013e-07
-2.56295e-07
-1.54193e-07
-2.50095e-07
-1.67715e-07
-2.43948e-07
-1.80716e-07
-2.37876e-07
-1.93216e-07
-2.31899e-07
-2.05238e-07
-2.26038e-07
-2.16807e-07
-2.2031e-07
-2.27952e-07
-2.14735e-07
-2.38703e-07
-2.09329e-07
-2.49093e-07
-2.0411e-07
-2.59158e-07
-1.99092e-07
-2.68939e-07
-1.94291e-07
-2.78478e-07
-1.89722e-07
-2.87821e-07
-1.854e-07
-2.9702e-07
-1.81341e-07
-3.0613e-07
-1.77565e-07
-3.15209e-07
-1.74132e-07
-3.24328e-07
-1.71033e-07
-3.33556e-07
-1.68274e-07
-3.42969e-07
-1.65979e-07
-3.52628e-07
-1.64268e-07
-3.61316e-07
-1.69707e-07
-3.70714e-07
-1.7697e-07
-3.80878e-07
-1.85424e-07
-3.91892e-07
-1.95097e-07
-4.03841e-07
-2.06047e-07
-4.16809e-07
-2.18391e-07
-4.30884e-07
-2.32308e-07
-4.46156e-07
-2.48034e-07
-4.62724e-07
-2.65871e-07
-4.80696e-07
-2.86186e-07
-5.0017e-07
-3.09484e-07
-5.21296e-07
-3.36362e-07
-5.4433e-07
-3.67091e-07
-5.69635e-07
-4.0131e-07
-5.97704e-07
-4.37549e-07
-6.29075e-07
-4.72709e-07
-6.64066e-07
-5.02254e-07
-7.02397e-07
-5.21761e-07
-7.43072e-07
-5.29121e-07
-7.84719e-07
-5.25278e-07
-8.26073e-07
-5.12943e-07
-8.66214e-07
-4.94884e-07
-9.04553e-07
-4.7315e-07
-9.40747e-07
-4.49019e-07
-9.74591e-07
-4.23198e-07
-1.00596e-06
-3.96078e-07
-1.03478e-06
-3.67888e-07
-1.06102e-06
-3.38779e-07
-1.08466e-06
-3.08863e-07
-1.10571e-06
-2.78237e-07
-1.12418e-06
-2.46985e-07
-1.14011e-06
-2.15188e-07
-1.15352e-06
-1.82921e-07
-1.16445e-06
-1.50255e-07
-1.17293e-06
-1.1726e-07
-1.17897e-06
-8.39972e-08
-1.18261e-06
-5.05109e-08
-1.68589e-08
6.5756e-07
-1.33721e-08
6.54646e-07
-3.99621e-08
6.49805e-07
-6.63246e-08
6.43052e-07
-9.23878e-08
6.34405e-07
-1.18076e-07
6.23886e-07
-1.43309e-07
6.11519e-07
-1.68003e-07
5.9734e-07
-1.92065e-07
5.81391e-07
-2.15387e-07
5.63726e-07
-2.37839e-07
5.44417e-07
-2.59256e-07
5.23555e-07
-2.79428e-07
5.01257e-07
-2.98087e-07
4.77672e-07
-3.14899e-07
4.52988e-07
-3.29486e-07
4.27424e-07
-3.41458e-07
4.01229e-07
-3.50489e-07
3.74663e-07
-3.56406e-07
3.47977e-07
-3.59268e-07
3.21386e-07
-3.59376e-07
2.95063e-07
-3.57228e-07
2.6913e-07
-3.5341e-07
2.43666e-07
-3.48489e-07
2.18714e-07
-3.42934e-07
1.94296e-07
-3.37087e-07
1.70419e-07
-3.31166e-07
1.47086e-07
-3.25292e-07
1.24295e-07
-3.19514e-07
1.02045e-07
-3.13836e-07
8.03378e-08
-3.08242e-07
5.91734e-08
-3.02704e-07
3.85543e-08
-2.97194e-07
1.84825e-08
-2.91692e-07
-1.04056e-09
-2.86184e-07
-2.0015e-08
-2.80666e-07
-3.844e-08
-2.75135e-07
-5.63139e-08
-2.69552e-07
-7.36379e-08
-2.63919e-07
-9.04147e-08
-2.58244e-07
-1.0665e-07
-2.52543e-07
-1.2235e-07
-2.4683e-07
-1.37525e-07
-2.4112e-07
-1.52187e-07
-2.35433e-07
-1.66349e-07
-2.29785e-07
-1.80029e-07
-2.24196e-07
-1.93245e-07
-2.18684e-07
-2.06017e-07
-2.13265e-07
-2.1837e-07
-2.07958e-07
-2.30327e-07
-2.02777e-07
-2.41917e-07
-1.97739e-07
-2.53169e-07
-1.92858e-07
-2.64114e-07
-1.88147e-07
-2.74785e-07
-1.8362e-07
-2.85218e-07
-1.7929e-07
-2.95448e-07
-1.75169e-07
-3.05516e-07
-1.71274e-07
-3.15461e-07
-1.6762e-07
-3.25324e-07
-1.6427e-07
-3.35174e-07
-1.61182e-07
-3.45044e-07
-1.58404e-07
-3.55017e-07
-1.56006e-07
-3.65179e-07
-1.5411e-07
-3.74896e-07
-1.5999e-07
-3.85026e-07
-1.6684e-07
-3.95747e-07
-1.74702e-07
-4.07193e-07
-1.83648e-07
-4.19468e-07
-1.9377e-07
-4.32661e-07
-2.05195e-07
-4.46863e-07
-2.18103e-07
-4.62165e-07
-2.32728e-07
-4.78667e-07
-2.49365e-07
-4.96477e-07
-2.68371e-07
-5.15707e-07
-2.90249e-07
-5.36531e-07
-3.1553e-07
-5.5923e-07
-3.44384e-07
-5.84183e-07
-3.76347e-07
-6.11877e-07
-4.09845e-07
-6.42791e-07
-4.41786e-07
-6.77122e-07
-4.67915e-07
-7.1447e-07
-4.84407e-07
-7.53815e-07
-4.89771e-07
-7.93885e-07
-4.85206e-07
-8.33563e-07
-4.73263e-07
-8.72063e-07
-4.56384e-07
-9.0889e-07
-4.36324e-07
-9.43751e-07
-4.14158e-07
-9.76471e-07
-3.90478e-07
-1.00694e-06
-3.65612e-07
-1.03508e-06
-3.39749e-07
-1.06084e-06
-3.1302e-07
-1.08418e-06
-2.8552e-07
-1.10508e-06
-2.57333e-07
-1.12353e-06
-2.28535e-07
-1.13952e-06
-1.99198e-07
-1.15305e-06
-1.69392e-07
-1.16412e-06
-1.39187e-07
-1.17273e-06
-1.0865e-07
-1.17889e-06
-7.78416e-08
-1.18259e-06
-4.6812e-08
-1.56233e-08
6.57551e-07
-1.23891e-08
6.54617e-07
-3.70282e-08
6.49749e-07
-6.14563e-08
6.42965e-07
-8.56039e-08
6.34288e-07
-1.094e-07
6.23748e-07
-1.32769e-07
6.11377e-07
-1.55633e-07
5.97217e-07
-1.77905e-07
5.81318e-07
-1.99489e-07
5.63743e-07
-2.20264e-07
5.44568e-07
-2.40081e-07
5.23888e-07
-2.58749e-07
5.01824e-07
-2.76022e-07
4.78523e-07
-2.91599e-07
4.54165e-07
-3.05129e-07
4.28962e-07
-3.16256e-07
4.0315e-07
-3.24677e-07
3.76973e-07
-3.30231e-07
3.50667e-07
-3.32963e-07
3.24438e-07
-3.33148e-07
2.98449e-07
-3.31241e-07
2.72818e-07
-3.27781e-07
2.47622e-07
-3.23294e-07
2.22903e-07
-3.18216e-07
1.98682e-07
-3.12867e-07
1.74967e-07
-3.07452e-07
1.51758e-07
-3.02084e-07
1.29053e-07
-2.9681e-07
1.06851e-07
-2.91634e-07
8.51498e-08
-2.86541e-07
6.395e-08
-2.81504e-07
4.32527e-08
-2.76497e-07
2.30593e-08
-2.71499e-07
3.37115e-09
-2.66496e-07
-1.58114e-08
-2.61484e-07
-3.44882e-08
-2.56458e-07
-5.26574e-08
-2.51384e-07
-7.0319e-08
-2.46257e-07
-8.7475e-08
-2.41089e-07
-1.04129e-07
-2.35889e-07
-1.20288e-07
-2.30672e-07
-1.35958e-07
-2.2545e-07
-1.5115e-07
-2.20241e-07
-1.65876e-07
-2.1506e-07
-1.80151e-07
-2.09922e-07
-1.9399e-07
-2.04845e-07
-2.07412e-07
-1.99843e-07
-2.20437e-07
-1.94933e-07
-2.33088e-07
-1.90127e-07
-2.45387e-07
-1.8544e-07
-2.5736e-07
-1.80885e-07
-2.69033e-07
-1.76474e-07
-2.80434e-07
-1.7222e-07
-2.9159e-07
-1.68134e-07
-3.02529e-07
-1.6423e-07
-3.13281e-07
-1.60523e-07
-3.23868e-07
-1.57033e-07
-3.34312e-07
-1.53825e-07
-3.44658e-07
-1.50836e-07
-3.54908e-07
-1.48154e-07
-3.65088e-07
-1.45825e-07
-3.75228e-07
-1.43965e-07
-3.85612e-07
-1.49605e-07
-3.96378e-07
-1.56073e-07
-4.07654e-07
-1.63424e-07
-4.19563e-07
-1.71737e-07
-4.32213e-07
-1.81118e-07
-4.45701e-07
-1.91704e-07
-4.60122e-07
-2.03678e-07
-4.75575e-07
-2.17271e-07
-4.92166e-07
-2.3277e-07
-5.10013e-07
-2.5052e-07
-5.29244e-07
-2.71013e-07
-5.50057e-07
-2.94712e-07
-5.72735e-07
-3.21699e-07
-5.97645e-07
-3.51427e-07
-6.25221e-07
-3.82259e-07
-6.55839e-07
-4.11158e-07
-6.8957e-07
-4.34175e-07
-7.25944e-07
-4.48027e-07
-7.63991e-07
-4.51719e-07
-8.02586e-07
-4.46609e-07
-8.4077e-07
-4.35078e-07
-8.77867e-07
-4.19285e-07
-9.13444e-07
-4.00746e-07
-9.4723e-07
-3.80372e-07
-9.79048e-07
-3.5866e-07
-1.00878e-06
-3.35881e-07
-1.03633e-06
-3.12195e-07
-1.06164e-06
-2.87711e-07
-1.08465e-06
-2.62508e-07
-1.10533e-06
-2.3666e-07
-1.12363e-06
-2.10234e-07
-1.13953e-06
-1.83293e-07
-1.15302e-06
-1.55903e-07
-1.16408e-06
-1.28127e-07
-1.1727e-06
-1.0003e-07
-1.17887e-06
-7.1672e-08
-1.18258e-06
-4.31016e-08
-1.43833e-08
6.57554e-07
-1.14095e-08
6.54627e-07
-3.41009e-08
6.49769e-07
-5.65982e-08
6.43002e-07
-7.88366e-08
6.34351e-07
-1.00749e-07
6.2385e-07
-1.22268e-07
6.11537e-07
-1.43319e-07
5.97455e-07
-1.63824e-07
5.8166e-07
-1.83693e-07
5.64215e-07
-2.02819e-07
5.45199e-07
-2.21065e-07
5.24706e-07
-2.38256e-07
5.02853e-07
-2.54171e-07
4.79786e-07
-2.68532e-07
4.55678e-07
-2.81022e-07
4.30734e-07
-2.91313e-07
4.05181e-07
-2.99126e-07
3.79258e-07
-3.04309e-07
3.53192e-07
-3.069e-07
3.27187e-07
-3.07145e-07
3.01403e-07
-3.05459e-07
2.75956e-07
-3.02336e-07
2.50923e-07
-2.98262e-07
2.26344e-07
-2.93639e-07
2.02241e-07
-2.88765e-07
1.78618e-07
-2.83831e-07
1.55475e-07
-2.78943e-07
1.32809e-07
-2.74144e-07
1.10614e-07
-2.69441e-07
8.88889e-08
-2.64817e-07
6.76321e-08
-2.60248e-07
4.68436e-08
-2.55709e-07
2.65242e-08
-2.5118e-07
6.67453e-09
-2.46647e-07
-1.2705e-08
-2.42105e-07
-3.16143e-08
-2.37549e-07
-5.00515e-08
-2.32947e-07
-6.80157e-08
-2.28293e-07
-8.55081e-08
-2.23597e-07
-1.02531e-07
-2.18866e-07
-1.1909e-07
-2.14113e-07
-1.35189e-07
-2.09351e-07
-1.50838e-07
-2.04592e-07
-1.66047e-07
-1.99851e-07
-1.80827e-07
-1.95142e-07
-1.95193e-07
-1.90479e-07
-2.0916e-07
-1.85877e-07
-2.22746e-07
-1.81347e-07
-2.35968e-07
-1.76905e-07
-2.48848e-07
-1.72561e-07
-2.61407e-07
-1.68327e-07
-2.73667e-07
-1.64215e-07
-2.85652e-07
-1.60235e-07
-2.97385e-07
-1.564e-07
-3.08892e-07
-1.52723e-07
-3.20195e-07
-1.49219e-07
-3.31312e-07
-1.45917e-07
-3.42269e-07
-1.42867e-07
-3.53077e-07
-1.40028e-07
-3.63731e-07
-1.375e-07
-3.74203e-07
-1.35353e-07
-3.84349e-07
-1.33805e-07
-3.94914e-07
-1.39039e-07
-4.05959e-07
-1.45027e-07
-4.17556e-07
-1.51825e-07
-4.29784e-07
-1.59506e-07
-4.42729e-07
-1.6817e-07
-4.56478e-07
-1.77952e-07
-4.71121e-07
-1.89029e-07
-4.8676e-07
-2.01626e-07
-5.03506e-07
-2.16015e-07
-5.21488e-07
-2.32528e-07
-5.40853e-07
-2.51636e-07
-5.61819e-07
-2.73732e-07
-5.8468e-07
-2.98825e-07
-6.0979e-07
-3.26304e-07
-6.37535e-07
-3.54502e-07
-6.68194e-07
-3.80488e-07
-7.01719e-07
-4.00641e-07
-7.37557e-07
-4.12183e-07
-7.74752e-07
-4.14521e-07
-8.12271e-07
-4.09087e-07
-8.49274e-07
-3.98073e-07
-8.85179e-07
-3.8338e-07
-9.19613e-07
-3.66312e-07
-9.52343e-07
-3.47642e-07
-9.83213e-07
-3.27789e-07
-1.01211e-06
-3.06983e-07
-1.03895e-06
-2.85358e-07
-1.06365e-06
-2.63005e-07
-1.08617e-06
-2.39996e-07
-1.10643e-06
-2.16392e-07
-1.12442e-06
-1.92253e-07
-1.14007e-06
-1.67636e-07
-1.15338e-06
-1.426e-07
-1.1643e-06
-1.17204e-07
-1.17282e-06
-9.1508e-08
-1.17892e-06
-6.55679e-08
-1.1826e-06
-3.94301e-08
-1.3157e-08
6.57558e-07
-1.04336e-08
6.54642e-07
-3.11855e-08
6.49805e-07
-5.17607e-08
6.43068e-07
-7.20993e-08
6.34458e-07
-9.21403e-08
6.24011e-07
-1.1182e-07
6.11765e-07
-1.31073e-07
5.97769e-07
-1.49827e-07
5.82076e-07
-1.68001e-07
5.64754e-07
-1.85497e-07
5.4588e-07
-2.02191e-07
5.25548e-07
-2.17925e-07
5.03876e-07
-2.32498e-07
4.81003e-07
-2.4566e-07
4.57099e-07
-2.57119e-07
4.32364e-07
-2.66578e-07
4.07017e-07
-2.7378e-07
3.8129e-07
-2.78584e-07
3.55407e-07
-2.81018e-07
3.29567e-07
-2.81306e-07
3.03927e-07
-2.79821e-07
2.78605e-07
-2.77016e-07
2.53676e-07
-2.73334e-07
2.29183e-07
-2.69147e-07
2.05144e-07
-2.64728e-07
1.81567e-07
-2.60255e-07
1.58448e-07
-2.55825e-07
1.35783e-07
-2.5148e-07
1.13566e-07
-2.47225e-07
9.17935e-08
-2.43045e-07
7.04631e-08
-2.38918e-07
4.95738e-08
-2.3482e-07
2.91259e-08
-2.30732e-07
9.11957e-09
-2.26641e-07
-1.04449e-08
-2.2254e-07
-2.95674e-08
-2.18427e-07
-4.82458e-08
-2.14269e-07
-6.64788e-08
-2.10061e-07
-8.42663e-08
-2.05809e-07
-1.0161e-07
-2.01523e-07
-1.18512e-07
-1.97211e-07
-1.34978e-07
-1.92885e-07
-1.51014e-07
-1.88556e-07
-1.66628e-07
-1.84237e-07
-1.8183e-07
-1.7994e-07
-1.96631e-07
-1.75679e-07
-2.11044e-07
-1.71464e-07
-2.25083e-07
-1.67308e-07
-2.38764e-07
-1.63224e-07
-2.52104e-07
-1.59221e-07
-2.65121e-07
-1.5531e-07
-2.77834e-07
-1.51502e-07
-2.90264e-07
-1.47806e-07
-3.02429e-07
-1.44235e-07
-3.14352e-07
-1.408e-07
-3.26054e-07
-1.37517e-07
-3.37554e-07
-1.34417e-07
-3.48879e-07
-1.31542e-07
-3.60047e-07
-1.28861e-07
-3.71061e-07
-1.26486e-07
-3.81901e-07
-1.24513e-07
-3.92133e-07
-1.23557e-07
-4.02851e-07
-1.28319e-07
-4.14094e-07
-1.33782e-07
-4.25912e-07
-1.40005e-07
-4.38371e-07
-1.47045e-07
-4.51545e-07
-1.54994e-07
-4.65515e-07
-1.6398e-07
-4.80371e-07
-1.74172e-07
-4.96215e-07
-1.8578e-07
-5.13166e-07
-1.99061e-07
-5.31359e-07
-2.14333e-07
-5.50957e-07
-2.32033e-07
-5.72193e-07
-2.52488e-07
-5.95358e-07
-2.75651e-07
-6.20784e-07
-3.00866e-07
-6.48798e-07
-3.26477e-07
-6.79577e-07
-3.49698e-07
-7.12959e-07
-3.6725e-07
-7.48334e-07
-3.76801e-07
-7.84782e-07
-3.78069e-07
-8.21369e-07
-3.72497e-07
-8.57359e-07
-3.62083e-07
-8.92246e-07
-3.48493e-07
-9.25704e-07
-3.32853e-07
-9.57526e-07
-3.15821e-07
-9.87566e-07
-2.97749e-07
-1.01572e-06
-2.78832e-07
-1.04189e-06
-2.59184e-07
-1.06601e-06
-2.38883e-07
-1.08802e-06
-2.17988e-07
-1.10786e-06
-1.96554e-07
-1.12548e-06
-1.74634e-07
-1.14083e-06
-1.52279e-07
-1.15389e-06
-1.29541e-07
-1.16462e-06
-1.06473e-07
-1.173e-06
-8.31305e-08
-1.179e-06
-5.95648e-08
-1.18262e-06
-3.58188e-08
-1.1951e-08
6.57564e-07
-9.4637e-09
6.54666e-07
-2.82873e-08
6.49856e-07
-4.69513e-08
6.43158e-07
-6.54014e-08
6.346e-07
-8.35824e-08
6.24217e-07
-1.01437e-07
6.12049e-07
-1.18905e-07
5.98143e-07
-1.35922e-07
5.82556e-07
-1.52414e-07
5.65352e-07
-1.68293e-07
5.4661e-07
-1.83449e-07
5.26423e-07
-1.97738e-07
5.04904e-07
-2.1098e-07
4.82191e-07
-2.22947e-07
4.5845e-07
-2.33379e-07
4.33873e-07
-2.42003e-07
4.08678e-07
-2.48586e-07
3.83091e-07
-2.52998e-07
3.57334e-07
-2.55262e-07
3.31601e-07
-2.55575e-07
3.06053e-07
-2.54275e-07
2.80807e-07
-2.51771e-07
2.55937e-07
-2.48466e-07
2.31488e-07
-2.44699e-07
2.07479e-07
-2.4072e-07
1.83915e-07
-2.36692e-07
1.60793e-07
-2.32703e-07
1.38106e-07
-2.28794e-07
1.1585e-07
-2.24969e-07
9.40174e-08
-2.21214e-07
7.26064e-08
-2.17508e-07
5.16151e-08
-2.1383e-07
3.1043e-08
-2.10161e-07
1.08903e-08
-2.06488e-07
-8.84285e-09
-2.02808e-07
-2.81563e-08
-1.99114e-07
-4.70476e-08
-1.95378e-07
-6.55148e-08
-1.91594e-07
-8.35568e-08
-1.87768e-07
-1.01174e-07
-1.83906e-07
-1.18368e-07
-1.80018e-07
-1.35142e-07
-1.76112e-07
-1.515e-07
-1.72198e-07
-1.67449e-07
-1.68288e-07
-1.82997e-07
-1.64393e-07
-1.98151e-07
-1.60524e-07
-2.12924e-07
-1.56692e-07
-2.27325e-07
-1.52907e-07
-2.41369e-07
-1.4918e-07
-2.55069e-07
-1.45521e-07
-2.6844e-07
-1.41939e-07
-2.81497e-07
-1.38444e-07
-2.94258e-07
-1.35045e-07
-3.06739e-07
-1.31753e-07
-3.1896e-07
-1.2858e-07
-3.30938e-07
-1.25539e-07
-3.42693e-07
-1.22662e-07
-3.54251e-07
-1.19984e-07
-3.6563e-07
-1.17481e-07
-3.76864e-07
-1.15251e-07
-3.88e-07
-1.13375e-07
-3.98437e-07
-1.13083e-07
-4.09366e-07
-1.17386e-07
-4.20813e-07
-1.22331e-07
-4.32837e-07
-1.27976e-07
-4.45502e-07
-1.34374e-07
-4.58881e-07
-1.41609e-07
-4.73054e-07
-1.498e-07
-4.88114e-07
-1.59104e-07
-5.04166e-07
-1.69718e-07
-5.21338e-07
-1.81879e-07
-5.39773e-07
-1.95887e-07
-5.59652e-07
-2.12143e-07
-5.81215e-07
-2.30913e-07
-6.04749e-07
-2.52105e-07
-6.3056e-07
-2.75041e-07
-6.58913e-07
-2.98111e-07
-6.89892e-07
-3.18707e-07
-7.23237e-07
-3.33896e-07
-7.58288e-07
-3.41743e-07
-7.94158e-07
-3.42195e-07
-8.29993e-07
-3.36659e-07
-8.6514e-07
-3.26934e-07
-8.99158e-07
-3.14474e-07
-9.31762e-07
-3.00249e-07
-9.62768e-07
-2.84815e-07
-9.92045e-07
-2.68473e-07
-1.01949e-06
-2.51386e-07
-1.04502e-06
-2.33652e-07
-1.06857e-06
-2.15336e-07
-1.09007e-06
-1.96492e-07
-1.10945e-06
-1.77166e-07
-1.12669e-06
-1.57404e-07
-1.14171e-06
-1.37251e-07
-1.1545e-06
-1.16754e-07
-1.16501e-06
-9.59618e-08
-1.17322e-06
-7.49223e-08
-1.1791e-06
-5.36821e-08
-1.18264e-06
-3.228e-08
-1.07696e-08
6.5757e-07
-8.49969e-09
6.54689e-07
-2.54065e-08
6.49908e-07
-4.21707e-08
6.43251e-07
-5.87437e-08
6.34744e-07
-7.5076e-08
6.24424e-07
-9.1116e-08
6.12329e-07
-1.0681e-07
5.98508e-07
-1.22101e-07
5.83017e-07
-1.36923e-07
5.6592e-07
-1.51196e-07
5.47293e-07
-1.64822e-07
5.27229e-07
-1.77674e-07
5.05838e-07
-1.8959e-07
4.83256e-07
-2.00366e-07
4.59645e-07
-2.09768e-07
4.35194e-07
-2.17553e-07
4.10116e-07
-2.23509e-07
3.84634e-07
-2.27517e-07
3.58967e-07
-2.29596e-07
3.33309e-07
-2.29919e-07
3.07821e-07
-2.28788e-07
2.82619e-07
-2.26571e-07
2.57781e-07
-2.2363e-07
2.33351e-07
-2.2027e-07
2.09347e-07
-2.16718e-07
1.85775e-07
-2.13121e-07
1.62633e-07
-2.09561e-07
1.39911e-07
-2.06074e-07
1.17605e-07
-2.02663e-07
9.57069e-08
-1.99316e-07
7.42139e-08
-1.96015e-07
5.31236e-08
-1.9274e-07
3.24351e-08
-1.89472e-07
1.21487e-08
-1.86202e-07
-7.73568e-09
-1.82923e-07
-2.72176e-08
-1.79632e-07
-4.62942e-08
-1.76301e-07
-6.49628e-08
-1.72925e-07
-8.32216e-08
-1.69509e-07
-1.0107e-07
-1.66058e-07
-1.18508e-07
-1.6258e-07
-1.35538e-07
-1.59082e-07
-1.52163e-07
-1.55574e-07
-1.68386e-07
-1.52065e-07
-1.84215e-07
-1.48565e-07
-1.99655e-07
-1.45084e-07
-2.14715e-07
-1.41632e-07
-2.29405e-07
-1.38217e-07
-2.43736e-07
-1.3485e-07
-2.57717e-07
-1.3154e-07
-2.71363e-07
-1.28294e-07
-2.84686e-07
-1.25121e-07
-2.97701e-07
-1.22031e-07
-3.10423e-07
-1.19032e-07
-3.22867e-07
-1.16135e-07
-3.35051e-07
-1.13355e-07
-3.46996e-07
-1.10717e-07
-3.58726e-07
-1.08255e-07
-3.70262e-07
-1.05944e-07
-3.81642e-07
-1.03872e-07
-3.92895e-07
-1.02122e-07
-4.03568e-07
-1.02383e-07
-4.14713e-07
-1.06239e-07
-4.26365e-07
-1.10677e-07
-4.38587e-07
-1.15752e-07
-4.51447e-07
-1.21512e-07
-4.65019e-07
-1.28034e-07
-4.79387e-07
-1.35428e-07
-4.94647e-07
-1.4384e-07
-5.10911e-07
-1.53449e-07
-5.28311e-07
-1.64472e-07
-5.47002e-07
-1.77188e-07
-5.67177e-07
-1.91958e-07
-5.89083e-07
-2.08995e-07
-6.13001e-07
-2.28175e-07
-6.39207e-07
-2.48821e-07
-6.67906e-07
-2.694e-07
-6.99093e-07
-2.87508e-07
-7.32424e-07
-3.00556e-07
-7.67206e-07
-3.06954e-07
-8.02587e-07
-3.06811e-07
-8.37785e-07
-3.01458e-07
-8.72219e-07
-2.92499e-07
-9.05498e-07
-2.81195e-07
-9.3737e-07
-2.68376e-07
-9.6767e-07
-2.54515e-07
-9.96277e-07
-2.39865e-07
-1.0231e-06
-2.24566e-07
-1.04805e-06
-2.08698e-07
-1.07107e-06
-1.92319e-07
-1.09209e-06
-1.75474e-07
-1.11105e-06
-1.58204e-07
-1.1279e-06
-1.40548e-07
-1.14261e-06
-1.22547e-07
-1.15512e-06
-1.04242e-07
-1.16541e-06
-8.56737e-08
-1.17344e-06
-6.68873e-08
-1.1792e-06
-4.79232e-08
-1.18267e-06
-2.88159e-08
-9.61328e-09
6.57576e-07
-7.54143e-09
6.54712e-07
-2.25426e-08
6.49959e-07
-3.74179e-08
6.43339e-07
-5.21243e-08
6.34881e-07
-6.6618e-08
6.24619e-07
-8.08536e-08
6.12592e-07
-9.47838e-08
5.98849e-07
-1.08358e-07
5.83443e-07
-1.21517e-07
5.66438e-07
-1.34191e-07
5.47911e-07
-1.46295e-07
5.2795e-07
-1.57714e-07
5.06666e-07
-1.68306e-07
4.84191e-07
-1.77891e-07
4.60683e-07
-1.86261e-07
4.3633e-07
-1.932e-07
4.1134e-07
-1.9852e-07
3.85934e-07
-2.02113e-07
3.6033e-07
-2.03993e-07
3.34722e-07
-2.04312e-07
3.0927e-07
-2.03338e-07
2.84092e-07
-2.01395e-07
2.59266e-07
-1.98805e-07
2.34837e-07
-1.95842e-07
2.10825e-07
-1.92707e-07
1.87234e-07
-1.89531e-07
1.64061e-07
-1.86389e-07
1.41298e-07
-1.83312e-07
1.18939e-07
-1.80304e-07
9.6975e-08
-1.77353e-07
7.54032e-08
-1.74444e-07
5.42208e-08
-1.71558e-07
3.34267e-08
-1.68679e-07
1.30209e-08
-1.65797e-07
-6.99608e-09
-1.62907e-07
-2.66239e-08
-1.60005e-07
-4.58593e-08
-1.57066e-07
-6.46989e-08
-1.54086e-07
-8.31401e-08
-1.51068e-07
-1.01181e-07
-1.48017e-07
-1.18822e-07
-1.44939e-07
-1.36062e-07
-1.41842e-07
-1.52904e-07
-1.38732e-07
-1.69351e-07
-1.35619e-07
-1.85406e-07
-1.3251e-07
-2.01075e-07
-1.29415e-07
-2.16365e-07
-1.26342e-07
-2.31283e-07
-1.23299e-07
-2.45838e-07
-1.20296e-07
-2.6004e-07
-1.17338e-07
-2.73899e-07
-1.14435e-07
-2.87427e-07
-1.11593e-07
-3.00636e-07
-1.08822e-07
-3.1354e-07
-1.06128e-07
-3.26153e-07
-1.03522e-07
-3.38492e-07
-1.01016e-07
-3.50574e-07
-9.86344e-08
-3.62425e-07
-9.64042e-08